Title
29212
    1ASP      N    1   2.173   1.368   2.653  0.5981  0.0288 -0.2821
    1ASP    HT1    2   2.248   1.440   2.648 -0.0594  0.7348 -0.1983
    1ASP    HT2    3   2.203   1.288   2.593  2.9626 -0.3977  1.3215
    1ASP    HT3    4   2.151   1.336   2.749 -1.0961 -0.2821 -0.7272
    1ASP     CA    5   2.045   1.419   2.588 -0.4307  0.3733 -0.4645
    1ASP     HA    6   2.041   1.525   2.610 -0.1560  0.1002  1.0036
    1ASP     CB    7   2.047   1.406   2.435  0.3365  0.4303 -0.0967
    1ASP    HB1    8   1.952   1.436   2.386  1.1126 -0.2695 -2.1740
    1ASP    HB2    9   2.074   1.300   2.414  1.4254  0.7608 -0.4150
    1ASP     CG   10   2.148   1.502   2.368 -0.2259 -0.8422 -0.2057
    1ASP    OD1   11   2.244   1.547   2.440 -0.4385 -0.0599  0.0300
    1ASP    OD2   12   2.142   1.532   2.252 -0.3571  0.2541  0.2158
    1ASP      C   13   1.915   1.371   2.652  0.3415 -0.7031  0.0901
    1ASP      O   14   1.918   1.272   2.728 -0.0174 -0.0405  0.4497
    2GLY      N   15   1.805   1.438   2.618 -0.0535 -0.7690 -0.5124
    2GLY     HN   16   1.808   1.526   2.570  0.6506  0.1972  1.2097
    2GLY     CA   17   1.672   1.387   2.637  0.2732 -0.1657  0.2927
    2GLY    HA1   18   1.619   1.477   2.665 -0.9796 -1.3540  1.9271
    2GLY    HA2   19   1.675   1.302   2.704  0.0541 -2.4406 -2.3919
    2GLY      C   20   1.621   1.320   2.515  0.2107 -0.1826  0.1922
    2GLY      O   21   1.690   1.239   2.447 -0.3321 -0.2962 -0.2451
    3ASP      N   22   1.489   1.341   2.488  0.0924  0.2315 -0.2769
    3ASP     HN   23   1.428   1.387   2.553 -0.6529  1.2307 -1.6293
    3ASP     CA   24   1.432   1.294   2.360  0.2019  0.1680  0.0273
    3ASP     HA   25   1.452   1.188   2.366  2.2482  0.5411  0.5325
    3ASP     CB   26   1.279   1.313   2.357  0.4053  0.5131  0.9172
    3ASP    HB1   27   1.247   1.410   2.314  2.4628  0.8151 -0.0818
    3ASP    HB2   28   1.242   1.321   2.461 -3.7722  3.0295 -0.5359
    3ASP     CG   29   1.199   1.209   2.279 -0.3865  0.6403  0.0955
    3ASP    OD1   30   1.082   1.227   2.256  0.5176 -0.3127  0.2583
    3ASP    OD2   31   1.257   1.106   2.240 -0.3684 -0.4033 -0.6970
    3ASP      C   32   1.495   1.360   2.238 -0.1863  0.5412  0.2508
    3ASP      O   33   1.500   1.480   2.227  0.1945  0.3062  0.1267
    4GLY      N   34   1.547   1.273   2.142  0.2643 -0.2590 -0.2353
    4GLY     HN   35   1.538   1.177   2.169 -1.4562  0.6415  2.8655
    4GLY     CA   36   1.616   1.319   2.028  0.0124  0.5935  0.2022
    4GLY    HA1   37   1.666   1.231   1.989 -2.0372  0.5924 -2.6856
    4GLY    HA2   38   1.680   1.400   2.060  0.0381 -0.6560  3.9165
    4GLY      C   39   1.523   1.365   1.918  0.1920  0.5788  0.5929
    4GLY      O   40   1.400   1.351   1.926 -0.1057  0.1106 -0.0243
    5PRO      N   41   1.577   1.409   1.806 -0.2514  0.1929 -0.5212
    5PRO     CD   42   1.723   1.442   1.799  0.5040 -0.3105 -0.2198
    5PRO    HD1   43   1.789   1.353   1.796  0.1038 -0.6426  0.5325
    5PRO    HD2   44   1.759   1.502   1.886  1.6335  0.0824 -0.9371
    5PRO     CA   45   1.504   1.463   1.687 -0.5804 -0.0420  0.3331
    5PRO     HA   46   1.460   1.555   1.724 -1.1686 -0.8433  1.6768
    5PRO     CB   47   1.622   1.471   1.590 -0.1897  0.3614  0.5243
    5PRO    HB1   48   1.601   1.506   1.486  0.5963 -1.4397 -0.2790
    5PRO    HB2   49   1.667   1.370   1.582  1.2248  0.7931  2.3789
    5PRO     CG   50   1.734   1.532   1.675 -0.0161  0.6945  0.2760
    5PRO    HG1   51   1.834   1.544   1.627  0.3696  1.4800  1.2393
    5PRO    HG2   52   1.712   1.639   1.695  1.7748  1.1753 -0.0783
    5PRO      C   53   1.382   1.392   1.626 -0.4334 -0.2927 -0.3200
    5PRO      O   54   1.372   1.271   1.643  0.4829  0.1163  0.1439
    6GLY      N   55   1.294   1.465   1.557  0.0792  0.0890 -0.5742
    6GLY     HN   56   1.308   1.564   1.555 -0.3067  0.1891  0.7196
    6GLY     CA   57   1.163   1.416   1.502  0.0304  0.1086  0.5309
    6GLY    HA1   58   1.189   1.326   1.449  0.4167  2.6364 -4.1313
    6GLY    HA2   59   1.118   1.486   1.433 -1.1974 -0.2431  0.9495
    6GLY      C   60   1.054   1.383   1.600  0.2841 -0.3899  0.0174
    6GLY      O   61   1.017   1.453   1.690 -0.5583  0.0703  0.5139
    7ASP      N   62   0.986   1.268   1.578 -0.3714 -0.3278 -0.1651
    7ASP     HN   63   1.022   1.213   1.503 -1.4366 -0.3976 -0.6321
    7ASP     CA   64   0.868   1.209   1.635 -0.5877 -0.1629 -0.1701
    7ASP     HA   65   0.798   1.290   1.617  0.6075  0.6501 -1.4394
    7ASP     CB   66   0.820   1.085   1.557  0.5327 -0.6224 -0.1312
    7ASP    HB1   67   0.726   1.037   1.593 -0.6460 -0.1787 -2.4233
    7ASP    HB2   68   0.897   1.005   1.558  1.5576  0.3201  1.7790
    7ASP     CG   69   0.783   1.112   1.414 -0.0893 -0.0418 -0.6518
    7ASP    OD1   70   0.726   1.028   1.344  0.4309 -0.1310  0.0195
    7ASP    OD2   71   0.811   1.227   1.369  0.4359 -0.0472  1.2062
    7ASP      C   72   0.897   1.181   1.789 -0.1427  0.3122 -0.8595
    7ASP      O   73   0.992   1.102   1.821  0.7504 -0.3972  0.1294
    8PRO      N   74   0.822   1.227   1.883  0.5316 -0.1162  0.3692
    8PRO     CD   75   0.739   1.341   1.860  0.2142  0.2080  0.7153
    8PRO    HD1   76   0.651   1.310   1.800  1.2374  0.3701 -0.9320
    8PRO    HD2   77   0.783   1.427   1.805  0.9887  1.3146  2.9206
    8PRO     CA   78   0.828   1.188   2.019 -0.0799  1.0677 -0.1449
    8PRO     HA   79   0.916   1.236   2.059  0.0803 -0.6185  1.6605
    8PRO     CB   80   0.697   1.248   2.083  0.6072 -0.2962  0.6574
    8PRO    HB1   81   0.718   1.268   2.190  0.4276  0.9538  0.4781
    8PRO    HB2   82   0.603   1.191   2.066  0.0485  0.6671  0.4574
    8PRO     CG   83   0.694   1.380   2.002 -0.7902  0.2842 -0.6285
    8PRO    HG1   84   0.591   1.422   1.997 -0.9288  0.1808  0.9980
    8PRO    HG2   85   0.764   1.456   2.041  1.1067 -1.2489 -0.9257
    8PRO      C   86   0.850   1.040   2.053 -0.4305  0.5424 -0.4723
    8PRO      O   87   0.776   0.956   2.012 -0.2140 -0.2075  0.1997
    9GLY      N   88   0.952   1.018   2.142  0.3909  0.0614 -0.0112
    9GLY     HN   89   1.000   1.102   2.165 -1.8362  1.3137  0.4007
    9GLY     CA   90   0.979   0.896   2.215 -0.0780 -0.2239  0.0360
    9GLY    HA1   91   1.050   0.918   2.292  0.2227  0.3570 -0.3980
    9GLY    HA2   92   1.014   0.823   2.143 -0.1263 -1.0085  0.7923
    9GLY      C   93   0.859   0.839   2.277 -0.0287  0.0885  0.0542
    9GLY      O   94   0.768   0.911   2.321 -0.2634  0.2045  0.1600
   10ASP      N   95   0.858   0.704   2.297 -0.0465 -0.3390  0.0210
   10ASP     HN   96   0.936   0.648   2.270  0.0488  0.4695 -1.5059
   10ASP     CA   97   0.752   0.634   2.367  0.1769 -0.2409  0.1374
   10ASP     HA   98   0.655   0.644   2.322  0.6423 -0.5461 -0.9661
   10ASP     CB   99   0.794   0.485   2.368  0.2960  0.7150 -0.3338
   10ASP    HB1  100   0.733   0.423   2.436 -1.7876  1.6351 -1.2546
   10ASP    HB2  101   0.900   0.489   2.400  0.4452  0.5389 -0.7937
   10ASP     CG  102   0.787   0.413   2.231  0.4305 -0.0052  0.1808
   10ASP    OD1  103   0.729   0.472   2.135  0.0051  0.0428 -0.2525
   10ASP    OD2  104   0.835   0.299   2.214 -0.4812  0.0633 -0.1201
   10ASP      C  105   0.727   0.670   2.510 -1.0800  0.0361 -0.3022
   10ASP      O  106   0.806   0.642   2.601 -0.0438 -0.2542 -0.4420
   11GLY      N  107   0.612   0.731   2.533 -0.3031 -0.3935 -0.0872
   11GLY     HN  108   0.559   0.754   2.452  0.4228 -2.0987 -1.0997
   11GLY     CA  109   0.558   0.760   2.662 -0.1475  0.0054  0.1057
   11GLY    HA1  110   0.493   0.846   2.655  1.2660  1.3089  2.1382
   11GLY    HA2  111   0.630   0.791   2.736 -0.9203 -1.2954  1.4610
   11GLY      C  112   0.480   0.636   2.706  0.9793  0.1342  0.3404
   11GLY    OT1  113   0.508   0.586   2.820  0.2368 -0.2460  0.3792
   11GLY    OT2  114   0.384   0.579   2.637 -0.1865 -0.2269  0.0248
   12LIT    LIT  115   5.274   4.222   1.277  0.0971 -0.1000 -0.1279
   13LIT    LIT  116   6.810   2.817   5.720 -1.1720 -0.0074  0.8617
   14LIT    LIT  117   0.325   1.266   1.608 -0.0577 -0.5012 -1.1078
   15LIT    LIT  118   5.395   2.428   0.575  0.2212 -0.0116  0.6620
   16LIT    LIT  119   1.220   0.561   4.625 -1.4364 -0.1513 -0.1432
   17LIT    LIT  120   0.970   4.248   5.784  0.3602  0.4563  0.1247
   18LIT    LIT  121   4.724   4.825   1.707 -0.8327  0.8947 -0.6777
   19LIT    LIT  122   6.444   2.212   5.069  0.0679  0.1104 -0.9649
   20LIT    LIT  123   5.835   0.455   2.503 -0.3929  1.1822 -0.1317
   21LIT    LIT  124   2.543   6.167   4.431  0.1548  0.7005 -0.1151
   22LIT    LIT  125   0.921   1.627   5.098  0.1775  0.3565  0.5541
   23LIT    LIT  126   4.871   4.716   5.450  0.1137  1.2600 -0.7386
   24LIT    LIT  127   0.933   0.545   1.489  0.5274 -1.1173 -1.0108
   25LIT    LIT  128   0.680   1.152   1.208  0.1750 -0.3600 -0.7747
   26LIT    LIT  129   0.929   0.213   2.361  0.4914 -0.0919  0.5744
   27LIT    LIT  130   0.775   3.598   3.173 -0.3444  0.4276 -0.9231
   28LIT    LIT  131   2.961   4.087   5.657  0.8081 -0.0151  0.1668
   29LIT    LIT  132   5.610   4.805   1.821 -0.3372 -0.6043  1.1661
   30LIT    LIT  133   0.718   2.629   1.785  0.4732 -0.2327  0.5500
   31LIT    LIT  134   3.006   6.654   1.452  0.8479 -0.6242 -1.0022
   32LIT    LIT  135   4.137   4.395   0.441  0.5026  0.1421  0.0029
   33LIT    LIT  136   3.655   6.729   5.708  0.4068 -0.1729  0.4780
   34LIT    LIT  137   1.602   2.425   2.319 -0.7191 -0.0105  0.0567
   35LIT    LIT  138   5.827   2.562   3.052  1.2412  0.4361  0.3499
   36LIT    LIT  139   4.992   3.663   4.494  0.2681  0.7040 -0.1781
   37LIT    LIT  140   3.372   3.281   0.134  0.1364  0.7116  1.0338
   38LIT    LIT  141   3.200   3.148   2.170  0.0289 -0.0566 -0.3862
   39LIT    LIT  142   2.260   1.675   2.288 -0.9731  0.0455 -0.1740
   40LIT    LIT  143   2.141   4.200   5.474 -0.6560 -0.2117 -0.5394
   41LIT    LIT  144   0.144   6.075   0.102 -1.2265  0.6125 -0.0851
   42LIT    LIT  145   1.298   0.989   2.099  0.6376 -0.0165 -0.8487
   43CLA    CLA  146   7.182   2.042   0.419 -0.1422  0.3264 -0.0229
   44CLA    CLA  147   1.406   5.356   3.922 -0.3512  0.0522  0.1557
   45CLA    CLA  148   1.995   4.903   1.206 -0.1147 -0.2742 -0.1481
   46CLA    CLA  149   1.990   3.508   5.271  0.0812  0.2195 -0.0091
   47CLA    CLA  150   4.455   3.847   5.349  0.0830 -0.3430 -0.0105
   48CLA    CLA  151   5.765   4.941   3.424  0.0585  0.2654  0.2597
   49CLA    CLA  152   5.399   2.487   3.186  0.1304 -0.3554  0.0328
   50CLA    CLA  153   4.789   5.486   0.721  0.1447 -0.1464 -0.2069
   51CLA    CLA  154   4.171   4.048   0.153  0.1176  0.0701 -0.0659
   52CLA    CLA  155   4.945   4.461   2.281 -0.2269 -0.3317 -0.2331
   53CLA    CLA  156   3.214   6.272   0.775 -0.2248 -0.5031  0.1475
   54CLA    CLA  157   6.265   0.133   0.837  0.1731 -0.1175  0.0880
   55CLA    CLA  158   6.211   3.404   5.405 -0.1541  0.0035 -0.5030
   56CLA    CLA  159   6.343   3.491   4.146 -0.1153  0.0095 -0.3539
   57CLA    CLA  160   5.489   2.858   0.420  0.1558 -0.1631 -0.3569
   58CLA    CLA  161   5.790   2.264   5.315 -0.5388  0.1205  0.0628
   59CLA    CLA  162   1.647   0.336   3.211  0.2790 -0.2733  0.5428
   60CLA    CLA  163   2.326   0.790   2.620 -0.0326  0.4511 -0.1324
   61CLA    CLA  164   0.966   1.595   3.750  0.0484  0.6369  0.1797
   62CLA    CLA  165   2.146   6.306   4.569  0.0723 -0.0098 -0.2173
   63CLA    CLA  166   0.219   6.407   1.966  0.1121  0.0870  0.1877
   64CLA    CLA  167   0.928   2.543   1.760  0.2660  0.2614  0.0886
   65CLA    CLA  168   2.741   2.713   2.364 -0.1956 -0.1629 -0.3465
   66CLA    CLA  169   5.179   1.283   4.626  0.1924 -0.1480  0.1940
   67CLA    CLA  170   3.025   4.292   5.712  0.0108 -0.3823 -0.0677
   68CLA    CLA  171   2.916   2.523   0.868 -0.1396  0.1970  0.2158
   69CLA    CLA  172   0.756   0.713   1.067 -0.1822  0.1969  0.0558
   70TIP3   OH2  173   1.800   2.963   5.020 -0.5434  0.0148 -0.8156
   70TIP3    H1  174   1.831   2.874   5.005 -0.9839  0.0044 -1.7109
   70TIP3    H2  175   1.854   3.017   4.963 -0.6451  0.2643 -0.6789
   71TIP3   OH2  176   2.420   1.112   4.102 -0.0722  0.4543  0.2726
   71TIP3    H1  177   2.384   1.024   4.111  2.3567 -0.6989 -0.2728
   71TIP3    H2  178   2.473   1.108   4.022  0.7735  2.1554  0.6980
   72TIP3   OH2  179   3.404   4.842   5.582  0.0804 -0.4249  0.1940
   72TIP3    H1  180   3.441   4.930   5.580  1.7954 -1.0673  0.9130
   72TIP3    H2  181   3.333   4.846   5.645  1.0435  0.1421  1.2617
   73TIP3   OH2  182   6.470   1.018   4.082 -0.1012 -0.0044  0.0710
   73TIP3    H1  183   6.407   1.072   4.129  0.5268 -0.1685  1.1328
   73TIP3    H2  184   6.506   0.959   4.149  2.7430  1.5196  0.0204
   74TIP3   OH2  185   3.867   0.145   1.284 -0.4795 -0.0683  0.2472
   74TIP3    H1  186   3.879   0.207   1.213 -0.0144  0.2325  0.5840
   74TIP3    H2  187   3.909   0.186   1.360 -2.3154  0.3216  1.0977
   75TIP3   OH2  188   3.594   5.773   4.895 -0.3583  0.0668 -0.1648
   75TIP3    H1  189   3.561   5.796   4.808 -0.6252 -3.6456 -1.2505
   75TIP3    H2  190   3.530   5.808   4.956 -1.6561  0.4383 -1.6761
   76TIP3   OH2  191   1.981   3.591   4.614  0.3745  0.4100 -0.0201
   76TIP3    H1  192   2.037   3.522   4.648  0.5415  0.8080  0.5207
   76TIP3    H2  193   2.038   3.668   4.610  0.3484  0.3863 -1.1590
   77TIP3   OH2  194   1.890   0.663   4.877 -0.0629  0.3460 -0.4369
   77TIP3    H1  195   1.926   0.610   4.949  1.4160  1.3922 -0.3625
   77TIP3    H2  196   1.825   0.719   4.918  1.0488  1.2100  0.1868
   78TIP3   OH2  197   1.082   1.620   4.054  0.0748  0.4198 -0.6593
   78TIP3    H1  198   1.019   1.623   3.982 -0.4955 -0.2706 -0.2030
   78TIP3    H2  199   1.029   1.600   4.131  0.7708  0.4843 -0.1572
   79TIP3   OH2  200   3.498   0.609   3.421 -0.7178  0.2756  0.0268
   79TIP3    H1  201   3.507   0.592   3.327  0.9080 -2.0103  0.5153
   79TIP3    H2  202   3.539   0.694   3.433 -1.1731  0.7247 -1.3562
   80TIP3   OH2  203   6.373   1.859   5.346 -0.7135  0.0369  0.0995
   80TIP3    H1  204   6.409   1.917   5.413 -0.8729 -1.0987  1.2023
   80TIP3    H2  205   6.283   1.841   5.375 -2.1461  2.4130 -2.3279
   81TIP3   OH2  206   3.963   1.399   3.865 -0.5066 -0.0628  0.7445
   81TIP3    H1  207   3.910   1.355   3.798 -1.7277  0.4643  1.3222
   81TIP3    H2  208   3.899   1.434   3.926  0.5430  0.4785  1.5625
   82TIP3   OH2  209   0.454   0.795   0.743 -0.0741 -0.3392 -0.0961
   82TIP3    H1  210   0.507   0.874   0.756  0.8956 -1.0736  0.6441
   82TIP3    H2  211   0.453   0.782   0.649  0.8150 -0.1040 -0.1519
   83TIP3   OH2  212   2.096   1.943   3.259  0.4196 -0.1501 -0.2833
   83TIP3    H1  213   2.023   1.993   3.222  0.4400  0.8993  1.0067
   83TIP3    H2  214   2.073   1.852   3.244 -1.0052  0.1713 -0.1755
   84TIP3   OH2  215   2.468   5.991   4.430  0.0117  0.0474 -0.5581
   84TIP3    H1  216   2.463   5.917   4.490 -1.7465 -0.0511 -0.7739
   84TIP3    H2  217   2.466   5.953   4.343  5.1388 -0.0074 -0.9373
   85TIP3   OH2  218   4.903   2.782   4.067  0.3571 -0.1618  0.2036
   85TIP3    H1  219   4.819   2.749   4.035  0.6163  0.1985 -0.8847
   85TIP3    H2  220   4.883   2.868   4.103 -0.4268 -1.5739  3.5600
   86TIP3   OH2  221   5.992   5.473   3.074  0.4750  0.4731  0.4884
   86TIP3    H1  222   5.993   5.566   3.049  2.2656  0.0762 -1.2375
   86TIP3    H2  223   6.010   5.427   2.992 -0.6869 -1.4461  1.2526
   87TIP3   OH2  224   0.242   4.698   5.510  0.7307 -0.1628 -0.0563
   87TIP3    H1  225   0.159   4.659   5.483  0.6468 -1.2981  1.6302
   87TIP3    H2  226   0.263   4.761   5.442 -1.5622  0.2137 -0.4879
   88TIP3   OH2  227   0.204   1.197   1.231  0.0299 -0.0971 -0.1261
   88TIP3    H1  228   0.196   1.253   1.154  0.4492  0.3542  0.1517
   88TIP3    H2  229   0.117   1.158   1.241  0.6281 -2.2147 -2.3417
   89TIP3   OH2  230   1.031   5.509   1.672 -0.9452 -0.3010  0.2886
   89TIP3    H1  231   0.987   5.558   1.741  1.3924  0.3592  1.3972
   89TIP3    H2  232   1.080   5.441   1.718 -0.9655 -1.1596 -0.9099
   90TIP3   OH2  233   6.986   2.520   1.719  0.0638  0.2854  0.2446
   90TIP3    H1  234   7.054   2.456   1.697 -0.2311  0.0809 -0.0909
   90TIP3    H2  235   6.988   2.582   1.646  0.4188  0.7245  0.6193
   91TIP3   OH2  236   0.364   5.426   4.830 -0.2485 -0.2216 -0.6792
   91TIP3    H1  237   0.384   5.455   4.918  1.3828 -1.0562 -0.7371
   91TIP3    H2  238   0.418   5.480   4.773  0.6518 -1.3666 -0.9636
   92TIP3   OH2  239   5.894   3.608   0.814 -0.0431  0.3125 -0.2223
   92TIP3    H1  240   5.958   3.651   0.870  0.8619 -0.7244 -0.4245
   92TIP3    H2  241   5.868   3.675   0.751 -1.7006  1.7622  1.8646
   93TIP3   OH2  242   1.843   5.009   1.482  0.0892 -0.2928 -0.1839
   93TIP3    H1  243   1.851   4.939   1.546 -0.4795 -0.6537 -0.4981
   93TIP3    H2  244   1.889   4.977   1.404 -0.0485 -0.2591 -0.2802
   94TIP3   OH2  245   6.001   6.668   4.761 -0.0661  0.0728 -0.1586
   94TIP3    H1  246   5.993   6.752   4.716 -0.8139  1.5777  2.5139
   94TIP3    H2  247   5.911   6.635   4.766 -0.0304  0.0598  0.4358
   95TIP3   OH2  248   4.083   5.552   0.256  0.0371 -0.1148  0.0377
   95TIP3    H1  249   4.139   5.475   0.253 -1.3569 -1.1634 -0.3919
   95TIP3    H2  250   4.142   5.625   0.275  1.3948 -1.2781  0.4221
   96TIP3   OH2  251   6.217   0.393   4.221  0.0281 -0.3903  0.2750
   96TIP3    H1  252   6.288   0.435   4.171 -0.2631  0.3287  0.4474
   96TIP3    H2  253   6.244   0.302   4.229  0.5136 -0.3173 -0.4173
   97TIP3   OH2  254   2.054   1.267   5.253  0.5715 -0.2561  0.4061
   97TIP3    H1  255   2.146   1.292   5.240 -0.0414  2.1598  0.2535
   97TIP3    H2  256   2.029   1.224   5.170  0.6836  2.0846 -0.9173
   98TIP3   OH2  257   1.529   2.998   2.423 -0.3758 -0.0259 -0.6046
   98TIP3    H1  258   1.489   2.993   2.510 -0.5932 -1.6683 -0.7786
   98TIP3    H2  259   1.613   2.953   2.432  0.4399  1.3845 -0.8184
   99TIP3   OH2  260   3.218   0.531   0.026 -0.3663  0.3807  0.6234
   99TIP3    H1  261   3.259   0.595  -0.032 -0.7977 -0.7708 -1.0181
   99TIP3    H2  262   3.125   0.555   0.026 -0.4768 -0.0494  0.2723
  100TIP3   OH2  263   6.234   2.814   0.106 -0.1002  0.3777 -0.4581
  100TIP3    H1  264   6.198   2.819   0.018  0.9022 -0.7124 -0.9545
  100TIP3    H2  265   6.309   2.755   0.099 -0.6618 -0.6398  1.3402
  101TIP3   OH2  266   4.454   5.894   2.145 -0.6156  0.1706  0.9713
  101TIP3    H1  267   4.491   5.926   2.063 -0.9208  0.4939  0.9564
  101TIP3    H2  268   4.427   5.805   2.126 -0.0464  0.0032  0.9219
  102TIP3   OH2  269   1.551   3.263   1.313 -0.5506 -0.0636 -0.3134
  102TIP3    H1  270   1.631   3.309   1.338 -2.1367  1.2231  3.1512
  102TIP3    H2  271   1.487   3.333   1.296 -1.7279 -0.9951  0.0979
  103TIP3   OH2  272   2.747   1.356   0.175  0.0855 -0.0170  0.5025
  103TIP3    H1  273   2.699   1.430   0.138  0.4108 -0.1982 -0.2995
  103TIP3    H2  274   2.728   1.360   0.268  0.2616  1.2010  0.5039
  104TIP3   OH2  275   1.092   2.549   0.405 -0.7692 -0.1130  0.4141
  104TIP3    H1  276   1.055   2.600   0.477 -0.3165  1.2750 -0.2920
  104TIP3    H2  277   1.173   2.596   0.381 -1.0856 -0.3167 -1.2060
  105TIP3   OH2  278   0.583   4.994   5.809  0.0994 -0.6799  0.5305
  105TIP3    H1  279   0.660   5.021   5.759  1.1041 -3.4699  0.3620
  105TIP3    H2  280   0.617   4.975   5.896 -0.7638 -0.2425  0.9708
  106TIP3   OH2  281   4.722   4.707   4.849  0.7144 -0.2000  0.2937
  106TIP3    H1  282   4.761   4.651   4.916  2.3615  0.6321  0.0816
  106TIP3    H2  283   4.779   4.784   4.847 -0.5422  0.7376 -0.5793
  107TIP3   OH2  284   3.758   1.512   4.009  0.6076  0.0193  0.5160
  107TIP3    H1  285   3.749   1.581   3.943  0.0979 -1.2991 -0.8283
  107TIP3    H2  286   3.668   1.489   4.032  0.7731 -0.2931  0.8570
  108TIP3   OH2  287   1.088   0.574   5.752 -1.0378 -0.4892  0.2559
  108TIP3    H1  288   1.165   0.623   5.782 -0.5273 -0.3091 -1.2517
  108TIP3    H2  289   1.087   0.495   5.805 -0.2570 -0.1199  0.8346
  109TIP3   OH2  290   0.519   5.273   1.181 -0.3918  0.0757 -0.1008
  109TIP3    H1  291   0.557   5.217   1.113 -0.7516  0.0624 -0.2915
  109TIP3    H2  292   0.595   5.309   1.227 -0.1443  0.1588 -0.5705
  110TIP3   OH2  293   3.352   6.389   3.237 -0.4967 -0.5880  0.1224
  110TIP3    H1  294   3.348   6.442   3.317  1.0380  0.8681 -0.7037
  110TIP3    H2  295   3.307   6.442   3.171 -0.1267 -0.9317 -0.4094
  111TIP3   OH2  296   4.150   3.205   5.768 -0.5467  0.5273  0.8248
  111TIP3    H1  297   4.150   3.218   5.673 -0.0446 -1.1582  0.5560
  111TIP3    H2  298   4.095   3.128   5.782  0.9597 -0.4481  1.6711
  112TIP3   OH2  299   5.755   3.161   5.119  0.3718  0.4260 -0.0533
  112TIP3    H1  300   5.844   3.194   5.109 -0.2685  1.7566 -1.7751
  112TIP3    H2  301   5.707   3.235   5.157 -0.0735 -0.1772  0.5717
  113TIP3   OH2  302   5.182   0.233   4.246  0.1084 -0.4331  0.1984
  113TIP3    H1  303   5.206   0.142   4.227  0.5362 -0.3308  0.2461
  113TIP3    H2  304   5.196   0.242   4.340  2.1904  0.2930 -0.1234
  114TIP3   OH2  305   6.687   5.518   0.239  0.5110 -0.0049 -0.4882
  114TIP3    H1  306   6.592   5.510   0.227  0.4659 -3.0071  0.9846
  114TIP3    H2  307   6.699   5.527   0.334  1.7378  0.0703 -0.6343
  115TIP3   OH2  308   3.390   4.113   3.319 -0.0451 -0.1033  0.1356
  115TIP3    H1  309   3.471   4.158   3.344 -1.3106  2.0808  0.5113
  115TIP3    H2  310   3.348   4.172   3.257 -1.3534 -1.2132 -0.0755
  116TIP3   OH2  311   4.019   3.536   0.885 -0.3365  0.1588 -0.5107
  116TIP3    H1  312   4.081   3.464   0.899 -1.3692 -0.9055 -1.2712
  116TIP3    H2  313   3.981   3.551   0.971 -1.3887 -1.4364 -0.6520
  117TIP3   OH2  314   6.066   4.431   2.687 -0.0789  0.4725 -0.1634
  117TIP3    H1  315   6.083   4.501   2.750 -1.1709  0.6821 -0.0928
  117TIP3    H2  316   6.038   4.477   2.608  2.9448  0.3533 -1.4736
  118TIP3   OH2  317   4.498   3.507   3.725 -0.2497 -0.2992  0.0272
  118TIP3    H1  318   4.529   3.510   3.816  2.0846  0.1422 -0.7272
  118TIP3    H2  319   4.403   3.495   3.733 -0.2956  0.9926  2.5412
  119TIP3   OH2  320   6.068   4.103   4.326 -0.2853 -0.2127  0.1552
  119TIP3    H1  321   6.054   4.033   4.390  2.4207 -1.2950 -0.3126
  119TIP3    H2  322   6.074   4.058   4.242  2.9110  0.2671 -0.0019
  120TIP3   OH2  323   5.369   2.893   0.761 -0.4039  0.0974 -0.0076
  120TIP3    H1  324   5.293   2.912   0.706 -0.4804 -1.1420 -0.3845
  120TIP3    H2  325   5.418   2.975   0.764  0.2713 -0.0466 -3.0048
  121TIP3   OH2  326   6.442   3.036   0.501  0.2763 -0.0523  0.2251
  121TIP3    H1  327   6.530   3.068   0.483  0.2955  0.2429  0.8009
  121TIP3    H2  328   6.454   2.943   0.520  0.3307 -0.2283 -0.6536
  122TIP3   OH2  329   5.147   6.166   0.708 -0.6683  0.2247 -0.2508
  122TIP3    H1  330   5.088   6.099   0.672  1.4128 -0.8858 -1.8689
  122TIP3    H2  331   5.166   6.223   0.633  0.3140  0.5275  0.2177
  123TIP3   OH2  332   6.129   4.376   0.870 -0.2709  0.1916  0.1062
  123TIP3    H1  333   6.142   4.395   0.777  0.8965 -0.2665  0.1612
  123TIP3    H2  334   6.117   4.461   0.911  0.8044  0.5194 -0.2437
  124TIP3   OH2  335   3.794   1.080   1.710  0.1837 -0.5748  0.2692
  124TIP3    H1  336   3.743   1.158   1.688  1.1113  0.2550  0.9549
  124TIP3    H2  337   3.729   1.015   1.737 -0.5571  0.1953  0.3691
  125TIP3   OH2  338   1.545   6.064   4.446 -0.4004 -0.9712  0.2231
  125TIP3    H1  339   1.461   6.081   4.490 -2.0614 -0.6070 -2.8231
  125TIP3    H2  340   1.580   6.151   4.426  0.8478 -1.1184  1.6038
  126TIP3   OH2  341   5.903   1.050   1.773  0.5027 -0.5502  0.3843
  126TIP3    H1  342   5.893   0.997   1.852 -0.3998 -0.0133  0.6422
  126TIP3    H2  343   5.882   0.990   1.702 -2.6745 -0.0941  0.7748
  127TIP3   OH2  344   2.407   0.925   4.479  0.5832 -0.7441  0.3414
  127TIP3    H1  345   2.313   0.940   4.475  0.3778 -1.8653  0.4382
  127TIP3    H2  346   2.447   1.011   4.465 -0.4603  0.2040  2.7294
  128TIP3   OH2  347   4.747   3.735   5.255  0.0882  0.1127 -0.2469
  128TIP3    H1  348   4.664   3.783   5.253 -0.2160 -0.3944 -0.1434
  128TIP3    H2  349   4.742   3.683   5.335  0.4146 -0.0804 -0.3524
  129TIP3   OH2  350   3.415   5.029   1.247  0.5140  0.8449  0.0402
  129TIP3    H1  351   3.344   5.016   1.184  0.0972  1.2233  0.4250
  129TIP3    H2  352   3.481   4.964   1.222 -0.4412 -0.2951  0.3640
  130TIP3   OH2  353   6.795   0.920   0.886 -0.1525  0.3730  0.3023
  130TIP3    H1  354   6.845   0.960   0.815  0.3423  0.5562  0.7457
  130TIP3    H2  355   6.720   0.978   0.899 -0.5073  0.0714 -0.4008
  131TIP3   OH2  356   5.229   4.490   4.915  0.3053 -0.0296 -0.1662
  131TIP3    H1  357   5.307   4.541   4.939  0.0804  0.1207  0.2503
  131TIP3    H2  358   5.182   4.545   4.853  0.2508  0.1130  0.0020
  132TIP3   OH2  359   6.615   3.620   4.150  0.8343 -0.1413 -0.2964
  132TIP3    H1  360   6.523   3.599   4.167  0.8173 -0.7539 -1.0533
  132TIP3    H2  361   6.662   3.539   4.168  0.9844 -0.3881 -1.6665
  133TIP3   OH2  362   2.640   1.020   2.110 -0.6650  0.5959 -0.2720
  133TIP3    H1  363   2.676   1.020   2.198 -0.9150  0.9046 -0.1663
  133TIP3    H2  364   2.688   0.951   2.064  0.4967  1.4156 -0.3268
  134TIP3   OH2  365   0.575   2.306   3.081 -0.7092 -0.2861  0.1892
  134TIP3    H1  366   0.529   2.317   2.997  0.1471 -2.4644 -0.6126
  134TIP3    H2  367   0.633   2.382   3.086 -1.2089  0.1931 -0.9022
  135TIP3   OH2  368   5.150   3.815   5.743 -0.2356  0.3002  0.5911
  135TIP3    H1  369   5.218   3.769   5.694 -0.3912 -0.0582  0.7124
  135TIP3    H2  370   5.078   3.824   5.681  0.8060  2.9009 -0.3798
  136TIP3   OH2  371   6.425   3.641   5.490  0.1566  0.1200  0.1785
  136TIP3    H1  372   6.388   3.553   5.486 -0.7695  0.5329 -0.5439
  136TIP3    H2  373   6.351   3.700   5.479  0.8900  0.9833 -0.3708
  137TIP3   OH2  374   5.208   0.425   5.397 -0.3528 -0.4025  0.3666
  137TIP3    H1  375   5.239   0.397   5.483 -0.5811  1.1893  0.9977
  137TIP3    H2  376   5.114   0.440   5.409 -0.1302  1.2660  0.2701
  138TIP3   OH2  377   3.560   2.347   2.056  0.0287 -0.3733 -0.6904
  138TIP3    H1  378   3.632   2.384   2.005  0.4758  0.9589  0.8082
  138TIP3    H2  379   3.584   2.256   2.068  1.4241  0.0146 -0.3397
  139TIP3   OH2  380   4.597   3.141   5.626  0.2065 -0.0374 -0.3112
  139TIP3    H1  381   4.636   3.176   5.706 -0.1725 -0.6879  0.1738
  139TIP3    H2  382   4.624   3.049   5.625  0.3193 -0.0014 -1.0083
  140TIP3   OH2  383   5.907   4.422   1.863  0.3197 -0.2524 -0.1996
  140TIP3    H1  384   5.961   4.486   1.816  0.8653  0.7954  1.7083
  140TIP3    H2  385   5.923   4.340   1.818  0.4814  0.7391 -2.0518
  141TIP3   OH2  386   5.488   5.763   3.987  0.2760  0.6064 -0.1160
  141TIP3    H1  387   5.575   5.743   3.951  0.3970 -1.7927  1.2455
  141TIP3    H2  388   5.503   5.773   4.081 -1.0260 -0.9213  0.2915
  142TIP3   OH2  389   2.945   1.513   2.738  0.0735 -0.2336  0.2165
  142TIP3    H1  390   2.874   1.482   2.795 -0.8972 -0.5935 -1.1517
  142TIP3    H2  391   2.955   1.606   2.760  0.3261 -0.5645  1.5802
  143TIP3   OH2  392   6.931   6.375   0.944 -0.1700  0.1999 -0.3559
  143TIP3    H1  393   6.877   6.436   0.995 -1.5380 -0.7741 -0.5621
  143TIP3    H2  394   7.001   6.349   1.004 -1.3797 -0.4191  0.8572
  144TIP3   OH2  395   4.433   6.201   0.117 -0.3602  0.0594  0.2624
  144TIP3    H1  396   4.470   6.273   0.066 -1.1039 -0.1858 -0.6586
  144TIP3    H2  397   4.342   6.226   0.131 -0.8759 -1.0608 -0.8256
  145TIP3   OH2  398   6.419   1.608   2.889  0.3127  0.1117  0.4095
  145TIP3    H1  399   6.443   1.686   2.839 -2.0297  0.9313  0.4282
  145TIP3    H2  400   6.385   1.642   2.972 -0.1220 -0.9603  0.6868
  146TIP3   OH2  401   3.646   3.052   5.593  0.1345  0.5757 -0.2801
  146TIP3    H1  402   3.729   3.014   5.565 -0.5484 -0.2943 -1.1940
  146TIP3    H2  403   3.579   2.996   5.553 -0.9356  2.6658 -1.6162
  147TIP3   OH2  404   5.923   0.433   0.477 -0.0498  0.4851  0.6296
  147TIP3    H1  405   5.857   0.375   0.438 -0.4695  0.8829  0.7376
  147TIP3    H2  406   5.941   0.395   0.562 -2.2057  1.8606  1.8011
  148TIP3   OH2  407   3.538   4.944   0.183 -0.4414 -0.1918 -0.6695
  148TIP3    H1  408   3.452   4.959   0.144 -0.4559  0.6749 -0.3148
  148TIP3    H2  409   3.586   5.025   0.167  0.2890 -0.6394 -0.7907
  149TIP3   OH2  410   5.205   2.795   1.460  0.1100 -0.2824 -0.0816
  149TIP3    H1  411   5.202   2.746   1.378 -2.2508 -2.4934  1.1717
  149TIP3    H2  412   5.207   2.887   1.433  0.9381 -0.9596 -2.5728
  150TIP3   OH2  413   3.999   5.648   2.152 -0.1747 -0.2600 -0.2592
  150TIP3    H1  414   4.054   5.705   2.098 -1.5087  0.2412 -1.1205
  150TIP3    H2  415   4.050   5.567   2.161  0.3580 -0.1092 -1.7376
  151TIP3   OH2  416   5.431   2.221   4.367 -0.1777 -0.2073  0.3277
  151TIP3    H1  417   5.443   2.210   4.461 -1.4492  0.2656  0.5688
  151TIP3    H2  418   5.382   2.302   4.359  1.0218  0.4345 -0.8371
  152TIP3   OH2  419   2.228   4.228   5.053  0.3564  0.5858  0.2719
  152TIP3    H1  420   2.313   4.237   5.096  0.0823  1.3712  0.6625
  152TIP3    H2  421   2.180   4.307   5.077  0.5151  1.5150 -2.2371
  153TIP3   OH2  422   1.037   6.321   1.017 -0.7489 -0.0571 -0.3467
  153TIP3    H1  423   0.960   6.267   0.999 -0.2824 -0.6057 -0.7435
  153TIP3    H2  424   1.092   6.267   1.074 -0.8554  0.5040  0.2930
  154TIP3   OH2  425   0.418   2.372   5.016  0.1512 -0.1672 -0.0202
  154TIP3    H1  426   0.475   2.443   4.985  0.2081 -0.9493 -1.8381
  154TIP3    H2  427   0.368   2.346   4.939  0.8511 -2.7665  0.3002
  155TIP3   OH2  428   3.837   5.514   5.336 -0.3929  0.1866 -0.4046
  155TIP3    H1  429   3.849   5.505   5.431  1.5861 -2.4964 -0.7698
  155TIP3    H2  430   3.926   5.519   5.302 -1.0564  0.5630 -2.1647
  156TIP3   OH2  431   1.369   1.548   4.073  0.1535 -0.1681  0.5801
  156TIP3    H1  432   1.291   1.590   4.036  1.3860 -0.0630 -2.1286
  156TIP3    H2  433   1.361   1.456   4.048  0.0123 -0.5385  1.9353
  157TIP3   OH2  434   1.363   5.033   3.801  0.2971 -0.2399  0.5347
  157TIP3    H1  435   1.389   4.962   3.859 -0.7297 -0.1665  1.1083
  157TIP3    H2  436   1.385   5.113   3.849  0.8509 -0.1658  0.1669
  158TIP3   OH2  437   4.965   0.728   3.785 -0.1989  0.6276  0.0339
  158TIP3    H1  438   5.017   0.756   3.860  0.9908 -2.2214  0.3717
  158TIP3    H2  439   5.011   0.763   3.709 -0.2406  1.7231  0.4811
  159TIP3   OH2  440   6.462   6.302   4.017  0.1810  0.1432  0.2341
  159TIP3    H1  441   6.453   6.207   4.021 -0.2498  0.1538 -0.3649
  159TIP3    H2  442   6.537   6.321   4.072  0.5144 -0.5839  0.0462
  160TIP3   OH2  443   1.262   0.034   3.424  0.0207  0.3820  0.1062
  160TIP3    H1  444   1.355   0.054   3.419 -0.1622  1.1857 -0.2263
  160TIP3    H2  445   1.218   0.113   3.394 -0.7106 -1.3948 -4.2889
  161TIP3   OH2  446   1.206   3.400   3.229  0.2054  0.0682 -0.2256
  161TIP3    H1  447   1.156   3.396   3.310 -1.7553 -0.4262 -1.3804
  161TIP3    H2  448   1.188   3.316   3.186  1.9687 -0.0723 -0.7680
  162TIP3   OH2  449   0.967   3.930   2.110  0.2661  0.2095  0.1533
  162TIP3    H1  450   0.993   4.006   2.057  2.6987 -0.9072 -0.3899
  162TIP3    H2  451   1.021   3.936   2.188 -0.1828 -0.4866  0.5266
  163TIP3   OH2  452   2.492   6.565   2.224 -0.2708  0.3438 -0.2485
  163TIP3    H1  453   2.524   6.639   2.276 -1.0942  1.8506 -1.7665
  163TIP3    H2  454   2.524   6.488   2.270 -1.7578  1.4917  3.0251
  164TIP3   OH2  455   3.802   6.483   0.981 -0.2075 -0.2863 -0.8107
  164TIP3    H1  456   3.733   6.503   1.043 -0.3539 -0.0669 -1.0401
  164TIP3    H2  457   3.880   6.469   1.035 -0.3393 -0.1311 -0.5780
  165TIP3   OH2  458   1.594   6.065   2.070  0.5369  0.2860  0.7967
  165TIP3    H1  459   1.535   6.140   2.071 -0.9541 -0.8052  2.9718
  165TIP3    H2  460   1.637   6.067   2.155 -0.8279 -2.1970  1.6457
  166TIP3   OH2  461   5.665   3.665   2.840  0.2232 -0.6578 -0.3686
  166TIP3    H1  462   5.575   3.699   2.834  0.0464 -0.5778  1.9661
  166TIP3    H2  463   5.715   3.736   2.880  1.0765 -1.1661 -0.5103
  167TIP3   OH2  464   3.045   1.073   4.039 -0.3708 -0.2148  0.5542
  167TIP3    H1  465   2.982   1.139   4.068 -1.6741 -0.4874 -1.4248
  167TIP3    H2  466   3.127   1.097   4.083 -1.4461  1.0923  1.9825
  168TIP3   OH2  467   6.237   1.747   0.718 -0.8492 -0.5876 -0.1640
  168TIP3    H1  468   6.330   1.726   0.728 -0.7346  0.1552  0.5074
  168TIP3    H2  469   6.194   1.701   0.791 -1.0249 -0.9974 -0.5215
  169TIP3   OH2  470   0.166   6.132   0.984  0.2244  0.8854 -0.0612
  169TIP3    H1  471   0.210   6.085   1.055  1.4732  0.6764 -0.9430
  169TIP3    H2  472   0.125   6.208   1.027  0.2646  0.3191  0.9934
  170TIP3   OH2  473   3.153   2.004   1.148 -0.0282 -0.4532 -0.3958
  170TIP3    H1  474   3.212   1.931   1.160 -1.1424 -1.3134  0.0470
  170TIP3    H2  475   3.209   2.081   1.147  1.0979 -1.2560 -0.1682
  171TIP3   OH2  476   0.035   0.531   0.747 -0.6251  0.4608 -0.0084
  171TIP3    H1  477  -0.060   0.546   0.747 -0.6923  0.3599  2.2449
  171TIP3    H2  478   0.070   0.600   0.803  0.6207  0.2732 -0.5308
  172TIP3   OH2  479   4.330   3.806   2.387 -0.7185 -0.6355  0.5513
  172TIP3    H1  480   4.422   3.796   2.409 -0.0079 -1.4149 -2.3214
  172TIP3    H2  481   4.283   3.753   2.452  0.8161 -0.0332  2.1877
  173TIP3   OH2  482   4.709   1.840   2.188 -0.0174  0.1943 -0.2005
  173TIP3    H1  483   4.768   1.853   2.263 -1.7331 -1.3800  1.5259
  173TIP3    H2  484   4.768   1.828   2.113  1.8688 -0.9103  1.3609
  174TIP3   OH2  485   2.134   0.157   1.106 -0.0439  0.6874  0.2864
  174TIP3    H1  486   2.121   0.219   1.178  0.5168  1.6962 -0.4541
  174TIP3    H2  487   2.189   0.204   1.043  1.5820 -1.0607  0.3195
  175TIP3   OH2  488   2.493   1.242   2.680  0.2282 -0.3423  0.0035
  175TIP3    H1  489   2.567   1.182   2.686  0.0254 -0.5802  0.1425
  175TIP3    H2  490   2.491   1.269   2.588  0.8486  0.1304  0.1211
  176TIP3   OH2  491   6.754   0.644   0.864 -0.5091  0.3702  0.0775
  176TIP3    H1  492   6.767   0.733   0.896 -1.2327  0.1497  1.0370
  176TIP3    H2  493   6.821   0.632   0.797  0.2598  1.2711  0.6686
  177TIP3   OH2  494   6.417   0.708   5.408  0.2350 -0.1107 -0.3978
  177TIP3    H1  495   6.337   0.670   5.370 -0.0495 -0.7473  0.7792
  177TIP3    H2  496   6.474   0.633   5.423  0.0046 -0.0000  1.1672
  178TIP3   OH2  497   1.310   0.686   5.390 -0.2349  0.3441  0.2519
  178TIP3    H1  498   1.325   0.601   5.432  0.0934  0.2096 -0.1319
  178TIP3    H2  499   1.215   0.698   5.392 -0.4239 -0.7413 -1.0504
  179TIP3   OH2  500   2.925   1.174   1.544  0.3033 -0.8656 -0.2503
  179TIP3    H1  501   3.016   1.197   1.564 -0.2123  1.7501 -0.5742
  179TIP3    H2  502   2.907   1.097   1.599  1.6766  0.6242  2.4908
  180TIP3   OH2  503   4.795   2.174   3.989  0.5226 -0.2878 -0.3005
  180TIP3    H1  504   4.858   2.237   3.954  0.4778  1.1313  1.9736
  180TIP3    H2  505   4.776   2.205   4.077 -2.2061 -1.5454 -0.3379
  181TIP3   OH2  506   6.485   2.833   1.615  0.3431 -0.1020 -0.3215
  181TIP3    H1  507   6.531   2.750   1.620 -0.9074 -0.7892  0.3627
  181TIP3    H2  508   6.497   2.863   1.525  3.4947  0.6004  0.2162
  182TIP3   OH2  509   3.892   2.677   2.009  0.3238  0.1646 -0.6187
  182TIP3    H1  510   3.880   2.582   2.006  0.9883 -0.0901  2.3681
  182TIP3    H2  511   3.810   2.712   1.975 -0.4740 -1.4679 -0.4913
  183TIP3   OH2  512   5.989   0.530   1.557 -0.1087  0.3205 -0.3123
  183TIP3    H1  513   6.024   0.619   1.558  0.0230  0.2745  1.1092
  183TIP3    H2  514   6.007   0.496   1.645 -2.1706 -0.3075 -0.0760
  184TIP3   OH2  515   6.381   1.424   3.308  0.3963  0.0536  0.1752
  184TIP3    H1  516   6.465   1.381   3.294 -0.3559 -0.9966 -1.4505
  184TIP3    H2  517   6.321   1.352   3.331 -0.1280  0.7509  1.0810
  185TIP3   OH2  518   4.098   4.996   1.584 -0.3980 -0.1648 -0.0221
  185TIP3    H1  519   4.153   5.069   1.557  0.6500 -1.5393 -1.8773
  185TIP3    H2  520   4.094   5.002   1.679  0.8367  1.4663 -0.0404
  186TIP3   OH2  521   4.183   5.026   0.654 -0.4224 -0.0754  0.1952
  186TIP3    H1  522   4.208   5.021   0.561  1.2424  0.8364  0.5535
  186TIP3    H2  523   4.225   4.950   0.694 -3.2932 -2.0179 -0.1621
  187TIP3   OH2  524   3.164   5.764   5.135  0.6550 -0.6596  0.2426
  187TIP3    H1  525   3.247   5.805   5.161  0.7048  0.0688 -1.0192
  187TIP3    H2  526   3.160   5.776   5.040 -1.5549  0.5834  0.4419
  188TIP3   OH2  527   5.143   4.526   4.506  1.1773  0.2460  0.2953
  188TIP3    H1  528   5.211   4.591   4.524  0.1043  1.6595 -0.5374
  188TIP3    H2  529   5.091   4.565   4.436  0.5150 -1.5527 -0.2743
  189TIP3   OH2  530   2.634   6.337   1.742  0.0131 -0.6707  0.1965
  189TIP3    H1  531   2.697   6.285   1.693 -0.3922 -1.0324  0.0584
  189TIP3    H2  532   2.586   6.274   1.795  0.0659 -0.3458  0.6374
  190TIP3   OH2  533   6.814   4.344   0.530 -0.4595  0.3237 -0.3413
  190TIP3    H1  534   6.794   4.264   0.481  0.9173  0.5450 -1.3268
  190TIP3    H2  535   6.908   4.355   0.521 -0.3262  1.0093  1.4499
  191TIP3   OH2  536   0.589   4.120   1.495  0.0689 -0.0628 -0.5587
  191TIP3    H1  537   0.655   4.052   1.510 -0.0697  0.0140  0.5112
  191TIP3    H2  538   0.586   4.131   1.400 -0.3199 -1.9660 -0.8124
  192TIP3   OH2  539   6.688   4.224   2.141 -0.5872 -0.6147 -0.4907
  192TIP3    H1  540   6.723   4.135   2.134 -0.9670 -0.6799 -1.7290
  192TIP3    H2  541   6.733   4.273   2.072 -0.3756  0.1731  0.1861
  193TIP3   OH2  542   6.238   5.988   5.190  0.0858 -0.5838 -0.0451
  193TIP3    H1  543   6.315   5.933   5.206 -0.6091 -1.1509  1.4891
  193TIP3    H2  544   6.165   5.938   5.227 -0.4996  1.5690  1.9242
  194TIP3   OH2  545   0.961   3.892   3.911  0.1103 -0.2032 -0.8014
  194TIP3    H1  546   0.951   3.829   3.982 -0.2426  1.9465  1.1431
  194TIP3    H2  547   1.047   3.931   3.925  0.3500 -0.2395 -2.0243
  195TIP3   OH2  548   4.395   4.215   3.972 -0.0614  0.0885 -0.0021
  195TIP3    H1  549   4.445   4.133   3.972 -0.0748  0.0774 -0.3545
  195TIP3    H2  550   4.461   4.284   3.966 -0.0926  0.0674 -0.6557
  196TIP3   OH2  551   1.629   0.572   2.736 -0.4191  0.0475  0.1520
  196TIP3    H1  552   1.717   0.545   2.761  0.0090 -0.3359 -1.6440
  196TIP3    H2  553   1.590   0.605   2.817  1.6179  0.9029  0.8381
  197TIP3   OH2  554   5.442   0.148   0.346 -0.1339  0.3951 -0.6579
  197TIP3    H1  555   5.377   0.160   0.277 -2.3673 -2.2965  0.7672
  197TIP3    H2  556   5.413   0.070   0.393  2.5465  0.7734  1.9270
  198TIP3   OH2  557   3.604   2.822   1.344 -0.2335  0.4297  0.4025
  198TIP3    H1  558   3.520   2.843   1.386  0.1016 -0.5635  1.6319
  198TIP3    H2  559   3.587   2.740   1.297  0.2051 -0.1350  1.2088
  199TIP3   OH2  560   2.975   6.145   0.535  0.2176  0.4230  0.3205
  199TIP3    H1  561   2.998   6.169   0.625  0.4373 -0.7804  0.6032
  199TIP3    H2  562   3.053   6.102   0.501 -0.7078 -1.4260  0.4315
  200TIP3   OH2  563   0.484   1.431   5.417  0.1585  0.1615 -0.0490
  200TIP3    H1  564   0.517   1.517   5.391  0.5189  0.3849  1.0932
  200TIP3    H2  565   0.410   1.450   5.475 -0.0635 -0.3079 -0.1687
  201TIP3   OH2  566   4.940   6.331   5.417  0.1754 -0.4993 -0.5892
  201TIP3    H1  567   4.950   6.324   5.322  2.1681 -0.4042 -0.4346
  201TIP3    H2  568   4.943   6.425   5.435  1.5075 -0.5702 -0.3217
  202TIP3   OH2  569   1.783   5.060   3.038  0.3068 -0.3498  0.2526
  202TIP3    H1  570   1.790   5.029   3.128  0.3867  1.8501  1.0521
  202TIP3    H2  571   1.793   5.155   3.044  3.0404 -0.3119 -2.3652
  203TIP3   OH2  572   5.108   0.260   4.564 -0.1311 -0.1336  0.2056
  203TIP3    H1  573   5.196   0.262   4.601  0.2819  0.6803 -0.7787
  203TIP3    H2  574   5.064   0.335   4.603 -0.5386 -0.7781  1.0158
  204TIP3   OH2  575   4.613   0.765   3.764 -0.2540  0.3912 -0.4821
  204TIP3    H1  576   4.696   0.786   3.808 -1.1169  0.8244  1.0167
  204TIP3    H2  577   4.638   0.705   3.694  1.4160  1.0875 -0.5317
  205TIP3   OH2  578   3.251   3.052   2.665  0.1682  0.7657  0.4161
  205TIP3    H1  579   3.228   2.959   2.656  0.7953  0.5140  1.3612
  205TIP3    H2  580   3.166   3.097   2.666 -0.1193  0.3547 -1.3619
  206TIP3   OH2  581   3.956   2.594   3.939  0.3555 -0.2814 -0.6589
  206TIP3    H1  582   4.013   2.670   3.924 -0.4023  0.5470  0.4376
  206TIP3    H2  583   3.921   2.608   4.027 -1.7835 -0.5728 -1.3920
  207TIP3   OH2  584   0.828   0.570   3.547  0.7416 -0.5498  0.4147
  207TIP3    H1  585   0.823   0.474   3.550  0.7379 -0.5625  0.0609
  207TIP3    H2  586   0.799   0.593   3.459 -1.4225 -0.0755  1.2054
  208TIP3   OH2  587   5.077   2.930   0.740  0.0400 -0.1604  0.0906
  208TIP3    H1  588   5.104   2.844   0.708 -2.4028 -0.8276 -0.3572
  208TIP3    H2  589   5.095   2.927   0.834 -1.1616 -1.6905  0.3232
  209TIP3   OH2  590   6.270   3.423   3.146 -0.3030 -0.3193  0.0249
  209TIP3    H1  591   6.336   3.484   3.177 -0.3517 -0.6285  0.7577
  209TIP3    H2  592   6.195   3.478   3.122  0.0994  0.0014 -0.4926
  210TIP3   OH2  593   2.428   5.778   3.092 -0.0841  0.8652 -0.4569
  210TIP3    H1  594   2.485   5.707   3.122 -0.7103  1.2262  1.7880
  210TIP3    H2  595   2.461   5.856   3.137 -0.5862  1.6411 -1.3866
  211TIP3   OH2  596   0.335   6.316   4.159  0.3256 -0.2172  0.1584
  211TIP3    H1  597   0.334   6.228   4.122 -0.9129 -0.6037  1.0414
  211TIP3    H2  598   0.351   6.374   4.084 -2.7989 -0.9029 -1.2100
  212TIP3   OH2  599   1.354   5.068   3.047  0.3205  0.4753  0.1110
  212TIP3    H1  600   1.429   5.112   3.008  0.6184  0.8039  1.0165
  212TIP3    H2  601   1.323   5.129   3.115  0.1820 -0.3158  0.7749
  213TIP3   OH2  602   6.719   6.018   0.526  0.4155  0.3817  0.0920
  213TIP3    H1  603   6.682   5.935   0.497  0.8262  0.0461  0.4958
  213TIP3    H2  604   6.752   6.000   0.615 -0.7636  1.3487  0.7640
  214TIP3   OH2  605   3.348   4.289   5.657 -0.1176  0.4456  0.3619
  214TIP3    H1  606   3.258   4.300   5.688  0.2241 -0.0447  1.5784
  214TIP3    H2  607   3.355   4.349   5.583 -1.8237 -0.4429 -0.5782
  215TIP3   OH2  608   4.260   1.967   5.149 -0.3692 -0.0743 -0.5182
  215TIP3    H1  609   4.186   1.957   5.208 -0.6557 -0.8847 -0.9957
  215TIP3    H2  610   4.273   1.880   5.111 -0.2355  0.4298 -1.6793
  216TIP3   OH2  611   6.408   4.925   1.415 -0.0621 -0.2234  0.2185
  216TIP3    H1  612   6.392   4.976   1.335  0.6715 -0.2097  0.0773
  216TIP3    H2  613   6.498   4.944   1.438 -0.6055  0.6938  1.7272
  217TIP3   OH2  614   3.136   2.946   1.388 -0.3582 -0.3350  0.3983
  217TIP3    H1  615   3.180   3.018   1.433  0.5566  0.5814 -1.7849
  217TIP3    H2  616   3.048   2.978   1.370  0.4002  0.7969 -1.5975
  218TIP3   OH2  617   1.073   4.165   4.684 -0.2261 -0.2478  0.6132
  218TIP3    H1  618   1.037   4.133   4.601 -0.8478  0.0638  0.7571
  218TIP3    H2  619   1.049   4.257   4.686  1.9797  0.4001 -0.0316
  219TIP3   OH2  620   3.871   1.379   2.467  0.2530  0.2101 -0.2460
  219TIP3    H1  621   3.868   1.475   2.469  0.9272  0.2329  1.0449
  219TIP3    H2  622   3.838   1.352   2.553  0.4918 -0.6957 -0.4267
  220TIP3   OH2  623   2.723   3.570   1.856 -0.1297  0.7392  0.3498
  220TIP3    H1  624   2.683   3.651   1.886 -1.8285  1.8961 -4.1302
  220TIP3    H2  625   2.663   3.501   1.885 -0.6024  1.4928  1.1912
  221TIP3   OH2  626   1.852   0.258   2.794 -0.9227  0.0264  0.2284
  221TIP3    H1  627   1.894   0.292   2.716 -0.2961  0.8381  0.9029
  221TIP3    H2  628   1.884   0.168   2.802 -0.2609  0.2454  0.0646
  222TIP3   OH2  629   3.575   5.078   5.565  0.7929 -0.2394 -0.4106
  222TIP3    H1  630   3.667   5.077   5.590  0.9399  0.9368 -0.8512
  222TIP3    H2  631   3.569   5.147   5.499 -0.2046 -1.0228 -1.1682
  223TIP3   OH2  632   1.187   0.465   1.939  0.3895 -0.2973 -0.0679
  223TIP3    H1  633   1.171   0.372   1.957  1.0826 -0.5624 -0.7481
  223TIP3    H2  634   1.279   0.478   1.959  0.8760 -0.3138 -2.0769
  224TIP3   OH2  635   3.204   3.230   4.453 -0.2987  0.7378  0.3526
  224TIP3    H1  636   3.291   3.268   4.455  0.1938 -0.2821  3.2536
  224TIP3    H2  637   3.165   3.254   4.537 -2.8555  1.1415 -0.8329
  225TIP3   OH2  638   6.992   0.596   0.717 -0.5431 -0.1690 -0.2953
  225TIP3    H1  639   6.979   0.526   0.654 -0.1248  0.2889 -0.9074
  225TIP3    H2  640   6.972   0.676   0.668 -0.0619  0.2008  0.1023
  226TIP3   OH2  641   4.959   0.274   4.914  0.5102  0.3824 -0.0026
  226TIP3    H1  642   4.918   0.359   4.897 -0.9650 -0.0866  1.0158
  226TIP3    H2  643   5.019   0.261   4.840  0.8119  2.3109 -0.1615
  227TIP3   OH2  644   5.569   5.630   0.710  0.8814  0.1492  0.2836
  227TIP3    H1  645   5.565   5.703   0.771  2.1658  1.5114 -1.1886
  227TIP3    H2  646   5.479   5.597   0.707  0.7997 -0.0869  2.9741
  228TIP3   OH2  647   4.279   3.429   0.206 -0.0131  0.0592 -0.1993
  228TIP3    H1  648   4.241   3.372   0.273 -1.0925  0.6082 -0.3162
  228TIP3    H2  649   4.294   3.372   0.131  0.2725 -0.3611  0.1743
  229TIP3   OH2  650   0.004   1.431   3.278 -0.6997 -0.4587  0.1637
  229TIP3    H1  651   0.044   1.345   3.274 -1.4407 -0.7933 -0.1546
  229TIP3    H2  652   0.010   1.456   3.370 -0.9549 -1.0840  0.3569
  230TIP3   OH2  653   6.225   1.483   1.874 -0.0426  0.0492 -0.3027
  230TIP3    H1  654   6.149   1.539   1.857  0.0407  0.2296 -0.0954
  230TIP3    H2  655   6.229   1.425   1.799 -0.8370 -0.4783  0.0527
  231TIP3   OH2  656   3.154   0.125   2.419 -0.2040  0.5864 -0.5588
  231TIP3    H1  657   3.184   0.096   2.333 -1.3620 -0.9399 -0.4818
  231TIP3    H2  658   3.067   0.162   2.404 -1.0316 -0.9839  0.1050
  232TIP3   OH2  659   5.251   6.146   3.884  0.2276 -0.4762  0.3999
  232TIP3    H1  660   5.204   6.118   3.962  1.7621  1.8170  2.2646
  232TIP3    H2  661   5.220   6.235   3.867  1.4775 -0.1501 -0.3047
  233TIP3   OH2  662   0.307   6.384   3.831  0.4606  0.2529 -0.5522
  233TIP3    H1  663   0.317   6.474   3.861  0.4986  0.4382 -1.1202
  233TIP3    H2  664   0.215   6.378   3.804  0.1861 -0.1659  0.4078
  234TIP3   OH2  665   4.719   4.252   0.473  0.1273 -0.3285  0.0523
  234TIP3    H1  666   4.719   4.339   0.432  0.0748 -1.3772 -2.3224
  234TIP3    H2  667   4.629   4.221   0.463  0.0482 -0.5209  1.2536
  235TIP3   OH2  668   1.398   4.133   0.487 -0.8179  0.1856  0.3852
  235TIP3    H1  669   1.311   4.135   0.447 -1.1495 -0.6426  1.0325
  235TIP3    H2  670   1.405   4.216   0.533 -0.9317  0.6105 -0.3432
  236TIP3   OH2  671   1.215   4.774   2.801  0.6580 -0.1092  0.2321
  236TIP3    H1  672   1.283   4.747   2.863  0.6470 -1.6812 -0.3964
  236TIP3    H2  673   1.184   4.692   2.762 -0.6186  0.6966 -0.5176
  237TIP3   OH2  674   4.794   1.761   0.074  0.3535  0.2773  0.1792
  237TIP3    H1  675   4.766   1.731   0.161 -0.1396 -0.1741 -0.1262
  237TIP3    H2  676   4.889   1.750   0.074  0.1177 -2.5169 -0.3315
  238TIP3   OH2  677   5.182   1.271   1.969 -0.0651  0.4595 -0.6841
  238TIP3    H1  678   5.176   1.331   2.044 -1.1258 -2.2920  1.6395
  238TIP3    H2  679   5.106   1.291   1.915  0.0379  1.6901 -0.3936
  239TIP3   OH2  680   7.125   1.801   1.249  0.5896  0.2154  0.0953
  239TIP3    H1  681   7.217   1.773   1.248  0.2932 -0.8648  0.7059
  239TIP3    H2  682   7.083   1.741   1.311 -0.1833  1.8109  1.1832
  240TIP3   OH2  683   0.732   4.859   3.815 -0.0930 -0.2117 -0.6808
  240TIP3    H1  684   0.793   4.860   3.741  0.5562 -0.0292 -0.1548
  240TIP3    H2  685   0.774   4.803   3.880 -0.1582  0.4532 -0.0488
  241TIP3   OH2  686   3.282   0.071   4.741  0.5024  0.2391  0.1213
  241TIP3    H1  687   3.347   0.019   4.692  0.4998  0.8055 -0.5032
  241TIP3    H2  688   3.334   0.119   4.805  0.7012  0.6783 -0.3670
  242TIP3   OH2  689   4.692   2.306   1.418 -0.5182 -0.6225  0.1388
  242TIP3    H1  690   4.617   2.347   1.460 -1.2228  0.1497 -1.7683
  242TIP3    H2  691   4.740   2.378   1.378 -0.1457 -1.3419 -0.7526
  243TIP3   OH2  692   4.357   6.224   3.341  0.0049  0.2220 -0.2313
  243TIP3    H1  693   4.435   6.183   3.376 -0.3961  0.1284  0.5753
  243TIP3    H2  694   4.352   6.192   3.251  0.3349 -0.5831  0.0229
  244TIP3   OH2  695   1.104   5.222   3.461 -0.2436  0.0609 -0.8952
  244TIP3    H1  696   1.150   5.247   3.541  2.0855 -0.1048 -2.0865
  244TIP3    H2  697   1.067   5.136   3.480 -0.5744  0.4509  0.2980
  245TIP3   OH2  698   7.054   1.178   3.945 -0.1602 -0.0676  0.2279
  245TIP3    H1  699   7.044   1.099   3.891  0.0422 -0.4159  0.7023
  245TIP3    H2  700   6.965   1.211   3.953 -0.2750 -0.3582  0.1945
  246TIP3   OH2  701   0.044   2.965   5.556  0.0198  1.1557  0.4796
  246TIP3    H1  702   0.032   2.925   5.470 -0.6475 -0.1375  1.1480
  246TIP3    H2  703   0.135   2.998   5.554 -0.6827  3.2730 -1.5093
  247TIP3   OH2  704   4.851   4.347   3.360 -0.0721  0.0722  0.3736
  247TIP3    H1  705   4.807   4.334   3.444  0.7078  0.9921  0.9507
  247TIP3    H2  706   4.923   4.284   3.360  0.3836  0.5809  0.7436
  248TIP3   OH2  707   3.369   3.940   1.979 -0.7494  0.0384 -0.1125
  248TIP3    H1  708   3.428   3.987   2.038  1.3780 -1.2002 -1.1208
  248TIP3    H2  709   3.307   4.006   1.949 -1.2721  0.9311  2.6477
  249TIP3   OH2  710   3.388   3.244   1.301  0.5792  0.5060  0.4907
  249TIP3    H1  711   3.345   3.309   1.245  1.9674  2.1269  1.1977
  249TIP3    H2  712   3.325   3.228   1.371 -0.7193 -0.7087 -0.8894
  250TIP3   OH2  713   0.760   6.494   3.180 -0.4098  0.1191  0.0780
  250TIP3    H1  714   0.675   6.463   3.150 -1.1036 -0.0185  1.9984
  250TIP3    H2  715   0.813   6.415   3.189 -1.3812 -0.3394  2.5869
  251TIP3   OH2  716   0.650   6.187   3.351 -0.1413  0.0587  0.1432
  251TIP3    H1  717   0.557   6.170   3.336 -0.0314  0.3482 -0.9553
  251TIP3    H2  718   0.683   6.215   3.265  1.2750 -1.4675  0.1536
  252TIP3   OH2  719   0.813   6.446   5.446 -0.1013  0.0713 -0.1858
  252TIP3    H1  720   0.743   6.508   5.425  1.0266  1.3600 -0.2929
  252TIP3    H2  721   0.769   6.375   5.493 -1.5036  0.7462 -0.4266
  253TIP3   OH2  722   1.077   2.902   1.096  0.1884  0.0833  0.0835
  253TIP3    H1  723   1.020   2.885   1.020 -0.8652  0.7412  0.7114
  253TIP3    H2  724   1.151   2.951   1.060  0.7081 -1.3229 -0.8542
  254TIP3   OH2  725   0.674   3.434   3.163 -0.2481  0.3246 -0.1583
  254TIP3    H1  726   0.721   3.353   3.181  0.1200  0.2124 -1.4813
  254TIP3    H2  727   0.583   3.408   3.155 -0.1775  0.0902 -0.2098
  255TIP3   OH2  728   0.818   1.871   1.749  0.2056 -0.1506  0.0165
  255TIP3    H1  729   0.780   1.821   1.677  1.9759 -0.8210 -0.5140
  255TIP3    H2  730   0.885   1.813   1.785  0.5054  0.8464  1.1033
  256TIP3   OH2  731   6.339   1.976   1.699  0.1081 -0.2819  0.1285
  256TIP3    H1  732   6.288   2.057   1.696  1.3230  0.6477  2.1549
  256TIP3    H2  733   6.319   1.938   1.784 -2.5046 -3.6800 -1.7454
  257TIP3   OH2  734   0.421   2.461   3.558 -0.4003 -0.7782  0.3557
  257TIP3    H1  735   0.372   2.411   3.493  0.1932  0.2202 -0.8935
  257TIP3    H2  736   0.513   2.444   3.537 -0.2034 -0.3441  0.8618
  258TIP3   OH2  737   3.035   6.730   5.056 -0.0914 -0.4327 -0.2679
  258TIP3    H1  738   2.992   6.694   5.133 -0.5015  0.7671  0.0750
  258TIP3    H2  739   3.009   6.821   5.053  1.2943 -0.0210 -0.8641
  259TIP3   OH2  740   0.107   5.200   1.994 -0.5618  0.2581 -0.2424
  259TIP3    H1  741   0.202   5.204   1.982 -0.1110 -1.3872  2.2439
  259TIP3    H2  742   0.079   5.127   1.938 -0.2693  0.2458 -0.3761
  260TIP3   OH2  743   3.303   0.093   2.070  0.1793 -0.8734 -0.6607
  260TIP3    H1  744   3.207   0.099   2.076  0.2893 -0.1279  0.6822
  260TIP3    H2  745   3.335   0.163   2.127  1.5451 -3.3189  1.8136
  261TIP3   OH2  746   1.057   0.877   2.898  0.1957 -0.8081 -0.2451
  261TIP3    H1  747   1.119   0.844   2.832  2.3265  2.0734  0.1333
  261TIP3    H2  748   0.998   0.934   2.849  1.3075  0.7305  0.1335
  262TIP3   OH2  749   5.358   5.526   0.085 -0.0341 -0.1699  0.3076
  262TIP3    H1  750   5.300   5.509   0.010 -0.0888 -0.8170  0.4917
  262TIP3    H2  751   5.353   5.621   0.098  0.3330  0.0219 -0.8016
  263TIP3   OH2  752   1.433   6.190   5.399  0.0733 -0.5835  0.1049
  263TIP3    H1  753   1.341   6.199   5.377  0.1363  0.3011  0.1535
  263TIP3    H2  754   1.435   6.124   5.469 -0.9560  1.8482  2.6523
  264TIP3   OH2  755   5.897   5.238   2.333 -0.3189 -0.1269  0.1476
  264TIP3    H1  756   5.928   5.147   2.333 -0.3672 -0.1442 -0.1186
  264TIP3    H2  757   5.813   5.235   2.379 -0.2509 -0.1947  0.2650
  265TIP3   OH2  758   5.632   5.840   1.227 -0.3399 -0.4040 -0.0586
  265TIP3    H1  759   5.666   5.929   1.213 -2.1896  0.2929 -0.4378
  265TIP3    H2  760   5.648   5.823   1.319  0.5348  0.1045 -0.1063
  266TIP3   OH2  761   1.399   0.825   5.611 -0.5331 -0.2184  0.4439
  266TIP3    H1  762   1.362   0.798   5.527  0.1162 -3.1046  0.9798
  266TIP3    H2  763   1.344   0.783   5.676  2.0267 -2.5525  1.2975
  267TIP3   OH2  764   4.386   6.606   5.310 -0.4170  0.0865  0.6882
  267TIP3    H1  765   4.407   6.593   5.217 -0.6683  0.5295  0.5634
  267TIP3    H2  766   4.355   6.697   5.314 -0.7297 -0.0408  1.1471
  268TIP3   OH2  767   5.085   0.711   5.536  0.4630  0.1683  0.5018
  268TIP3    H1  768   5.104   0.626   5.576  0.9313  0.2306  0.4205
  268TIP3    H2  769   4.994   0.729   5.559  0.3639 -0.3541  0.5234
  269TIP3   OH2  770   6.039   2.343   4.137 -0.8440 -0.4339 -0.2054
  269TIP3    H1  771   5.968   2.340   4.073 -0.2732 -3.2409 -0.8461
  269TIP3    H2  772   6.041   2.254   4.175  0.9773  0.1712  1.3044
  270TIP3   OH2  773   6.613   5.706   2.996 -0.5679 -0.5549  0.7934
  270TIP3    H1  774   6.684   5.762   3.026  0.5736 -2.5283  2.0330
  270TIP3    H2  775   6.648   5.663   2.918 -1.0461 -0.3109  0.4385
  271TIP3   OH2  776   6.111   1.239   5.664 -0.0157  0.2126  0.0199
  271TIP3    H1  777   6.169   1.313   5.643  1.1200 -0.9166 -0.9672
  271TIP3    H2  778   6.132   1.173   5.599 -0.9378 -1.0363  0.9488
  272TIP3   OH2  779   4.120   4.732   3.280  0.0205  0.6696  0.3379
  272TIP3    H1  780   4.032   4.720   3.316  0.0955 -0.5378  0.1610
  272TIP3    H2  781   4.110   4.718   3.186  0.8244 -2.3113  0.6019
  273TIP3   OH2  782   4.887   3.267   4.850 -0.3583  0.4211  0.2752
  273TIP3    H1  783   4.878   3.236   4.759 -1.0609  0.1114  0.4483
  273TIP3    H2  784   4.798   3.289   4.877 -0.3426 -0.7477  1.3309
  274TIP3   OH2  785   3.655   5.283   5.026 -0.1244  0.3664  0.1330
  274TIP3    H1  786   3.660   5.295   4.931 -0.5743  2.6453  0.3206
  274TIP3    H2  787   3.630   5.370   5.059  0.0674 -0.3601  2.3403
  275TIP3   OH2  788   2.391   0.551   2.393  0.1104  0.3244 -0.2487
  275TIP3    H1  789   2.404   0.625   2.453  1.0032  1.5296 -1.8361
  275TIP3    H2  790   2.426   0.582   2.309  1.0817 -2.1313 -0.8400
  276TIP3   OH2  791   1.002   2.431   5.625 -0.0523  0.8121 -0.5896
  276TIP3    H1  792   1.032   2.342   5.645  3.6297  2.2196  0.9934
  276TIP3    H2  793   0.956   2.458   5.704  0.6220  0.9722 -0.2430
  277TIP3   OH2  794   4.461   2.920   2.439  0.2625 -0.3690  0.0493
  277TIP3    H1  795   4.406   2.879   2.506  0.0750 -1.2589 -0.6390
  277TIP3    H2  796   4.403   2.932   2.364  1.1357 -1.9190 -0.9198
  278TIP3   OH2  797   2.587   0.616   4.957  0.1394  0.9447 -0.0579
  278TIP3    H1  798   2.522   0.651   4.896 -1.6364 -1.0577  0.5557
  278TIP3    H2  799   2.582   0.674   5.033 -0.0701  1.4866 -0.4777
  279TIP3   OH2  800   0.145   0.243   1.156  0.0388 -0.6042 -0.0394
  279TIP3    H1  801   0.190   0.318   1.117 -0.0817  0.0901  1.1063
  279TIP3    H2  802   0.060   0.240   1.111  0.1110 -0.1670 -0.2112
  280TIP3   OH2  803   0.743   0.288   5.074  0.1151 -0.2880  0.7629
  280TIP3    H1  804   0.660   0.242   5.078 -0.1433  0.1547  0.4910
  280TIP3    H2  805   0.808   0.222   5.102 -0.0016 -1.4019 -1.3763
  281TIP3   OH2  806   6.455   0.616   4.572  0.2277 -0.7298 -0.5770
  281TIP3    H1  807   6.462   0.521   4.563  0.0529 -0.6553 -1.6860
  281TIP3    H2  808   6.392   0.641   4.505 -0.7896  0.0319  0.6352
  282TIP3   OH2  809   5.321   5.043   1.471  0.4878  0.9050 -0.2030
  282TIP3    H1  810   5.362   5.033   1.385 -2.6547  2.4447 -2.0783
  282TIP3    H2  811   5.277   4.960   1.487 -0.5881  1.2910 -1.0944
  283TIP3   OH2  812   2.611   0.735   2.508  0.2054  0.7377  0.1911
  283TIP3    H1  813   2.538   0.735   2.569  0.2148 -1.0585  0.2508
  283TIP3    H2  814   2.681   0.781   2.554  0.7437 -1.9134  2.2754
  284TIP3   OH2  815   5.798   4.562   5.829 -0.0287  0.0672  0.0601
  284TIP3    H1  816   5.768   4.650   5.805 -1.0711  0.2495  1.7820
  284TIP3    H2  817   5.742   4.503   5.779 -0.6370  0.4113  0.3197
  285TIP3   OH2  818   0.063   2.507   3.473  0.5103  0.2873 -0.4008
  285TIP3    H1  819   0.115   2.577   3.513 -0.3849  0.2932  0.7830
  285TIP3    H2  820   0.127   2.456   3.423  1.4997  0.8313  0.2755
  286TIP3   OH2  821   5.797   4.287   5.008 -0.4329 -0.0324  0.1221
  286TIP3    H1  822   5.811   4.309   4.916  1.5317 -0.9257  0.1450
  286TIP3    H2  823   5.873   4.323   5.053 -0.5191 -1.0354  1.1185
  287TIP3   OH2  824   3.075   1.694   5.072 -0.0823 -0.2899  0.1477
  287TIP3    H1  825   3.139   1.648   5.125  0.1622 -1.0602 -0.7787
  287TIP3    H2  826   3.119   1.774   5.045  0.4047 -0.6843 -0.2544
  288TIP3   OH2  827   0.363   6.334   1.700 -0.3271  0.0240 -0.2505
  288TIP3    H1  828   0.379   6.425   1.676 -0.4629  0.3510  0.8729
  288TIP3    H2  829   0.302   6.338   1.773  1.1523 -0.8613  1.1187
  289TIP3   OH2  830   2.094   0.327   1.333  0.0492  0.0493  0.8013
  289TIP3    H1  831   2.140   0.393   1.384  0.8411 -0.5199  0.8439
  289TIP3    H2  832   2.086   0.252   1.392  0.6830 -0.4977  0.2075
  290TIP3   OH2  833   0.043   3.839   2.364 -0.3538  0.6274 -0.1317
  290TIP3    H1  834   0.121   3.864   2.315 -0.1136  0.2372  0.0495
  290TIP3    H2  835   0.019   3.918   2.413 -0.1887  0.8069 -0.3390
  291TIP3   OH2  836   1.977   0.403   5.344  0.1717  0.5730  0.3205
  291TIP3    H1  837   2.032   0.341   5.393  1.0843  0.3840 -0.8893
  291TIP3    H2  838   1.984   0.485   5.393  1.5514  0.5514  0.2057
  292TIP3   OH2  839   4.954   6.392   1.735 -0.0497 -0.2993 -0.1171
  292TIP3    H1  840   4.931   6.429   1.650  0.6348 -0.5252 -0.3983
  292TIP3    H2  841   4.930   6.460   1.798  2.0909  1.0438 -0.6915
  293TIP3   OH2  842   6.632   0.422   0.532 -0.4298  0.4597 -0.7552
  293TIP3    H1  843   6.598   0.333   0.543 -1.5371  0.8723 -0.6848
  293TIP3    H2  844   6.633   0.435   0.437  0.4301  0.1283 -0.8029
  294TIP3   OH2  845   0.807   0.309   1.158 -0.5204 -0.6435  0.5334
  294TIP3    H1  846   0.733   0.278   1.209  0.4177 -1.6887  1.3116
  294TIP3    H2  847   0.771   0.328   1.072 -2.6434  3.3487  2.0651
  295TIP3   OH2  848   3.487   1.417   4.952 -0.4862 -0.1906  0.2207
  295TIP3    H1  849   3.424   1.370   4.897 -0.8939  1.3286 -0.6905
  295TIP3    H2  850   3.570   1.409   4.905 -0.6590  0.3923 -0.1975
  296TIP3   OH2  851   6.852   2.160   0.943 -0.1359  0.1865 -0.1197
  296TIP3    H1  852   6.867   2.106   0.866  0.7489  0.3156 -0.0544
  296TIP3    H2  853   6.788   2.112   0.995  0.1174 -0.4532 -0.3938
  297TIP3   OH2  854   0.433   2.795   2.165  0.1937  0.2411 -0.5700
  297TIP3    H1  855   0.513   2.756   2.130  0.4423  0.4279 -0.2140
  297TIP3    H2  856   0.369   2.724   2.162  0.1145  0.3392 -1.7133
  298TIP3   OH2  857   3.577   0.112   1.451  0.1779  0.1833  0.5447
  298TIP3    H1  858   3.651   0.114   1.391  0.0589  2.0127  0.4060
  298TIP3    H2  859   3.614   0.128   1.537  0.2403 -1.6067  0.8967
  299TIP3   OH2  860   6.867   2.047   0.693 -0.0467  0.0155  0.2469
  299TIP3    H1  861   6.825   1.963   0.711  1.0257 -0.6150 -0.1065
  299TIP3    H2  862   6.883   2.046   0.599 -2.1432  1.6409 -0.1939
  300TIP3   OH2  863   1.648   3.338   1.575  0.4738 -0.7934  0.3808
  300TIP3    H1  864   1.566   3.303   1.540 -0.4977  0.2111  1.5132
  300TIP3    H2  865   1.717   3.299   1.522 -0.8511  0.0637 -2.1221
  301TIP3   OH2  866   6.686   1.605   3.475 -0.1657  0.1644  0.2333
  301TIP3    H1  867   6.689   1.674   3.541 -0.6758  1.4478 -1.0348
  301TIP3    H2  868   6.600   1.564   3.487  0.0209 -0.0655  0.7988
  302TIP3   OH2  869   2.015   1.223   5.590 -0.1857  0.3463 -0.3048
  302TIP3    H1  870   2.042   1.136   5.559  0.6133  1.1493 -1.9904
  302TIP3    H2  871   1.921   1.225   5.574 -0.4049 -0.5694  0.7282
  303TIP3   OH2  872   5.492   1.924   2.775  0.3070  0.3072  0.1426
  303TIP3    H1  873   5.448   1.988   2.719  0.0928  1.0330  1.1047
  303TIP3    H2  874   5.497   1.845   2.722  0.4110  1.0664 -1.0074
  304TIP3   OH2  875   1.671   3.928   0.465 -0.6910 -0.7919 -0.4074
  304TIP3    H1  876   1.749   3.944   0.518  0.1195 -2.4381 -1.0013
  304TIP3    H2  877   1.612   4.000   0.485  1.6694  1.5289 -1.2381
  305TIP3   OH2  878   0.582   6.266   1.878  0.5490  0.1380  0.3698
  305TIP3    H1  879   0.570   6.333   1.945  0.3659  2.0485 -1.4500
  305TIP3    H2  880   0.497   6.260   1.835  0.9591 -0.1911 -0.4192
  306TIP3   OH2  881   3.776   1.631   1.814  0.0980  0.1401 -0.0873
  306TIP3    H1  882   3.702   1.571   1.809  0.4529 -0.4315  1.1047
  306TIP3    H2  883   3.810   1.635   1.724 -0.8268 -0.2813 -0.4651
  307TIP3   OH2  884   6.427   4.117   5.036  0.2681  0.2501 -0.2292
  307TIP3    H1  885   6.494   4.100   4.970  0.2381  1.2906 -0.5487
  307TIP3    H2  886   6.393   4.203   5.013 -0.4055  0.2125  0.5931
  308TIP3   OH2  887   6.432   5.221   1.560 -0.0590  0.0086 -0.1240
  308TIP3    H1  888   6.492   5.163   1.512 -1.5674 -1.7628  0.0249
  308TIP3    H2  889   6.461   5.215   1.651 -0.0107 -0.2676 -0.1569
  309TIP3   OH2  890   3.539   5.592   2.556 -0.2386  0.4144 -0.0925
  309TIP3    H1  891   3.560   5.583   2.649  1.1444  1.1583 -0.3073
  309TIP3    H2  892   3.503   5.681   2.548  3.0134  1.8095 -0.7688
  310TIP3   OH2  893   5.627   2.148   2.404 -0.1502  0.4713 -0.5371
  310TIP3    H1  894   5.681   2.069   2.401  0.5732  0.9778 -1.3257
  310TIP3    H2  895   5.680   2.211   2.452 -0.8901  0.3776  0.4376
  311TIP3   OH2  896   6.185   4.009   4.094 -0.0410 -0.3084  0.3559
  311TIP3    H1  897   6.244   4.069   4.139  0.3365 -0.0979 -0.4097
  311TIP3    H2  898   6.219   3.922   4.115  0.7296 -0.1814 -0.3290
  312TIP3   OH2  899   2.788   1.289   2.352 -0.3195  0.1571 -0.2989
  312TIP3    H1  900   2.840   1.307   2.273  0.8501  0.4663  0.5117
  312TIP3    H2  901   2.783   1.193   2.355  1.1312  0.0636  0.1509
  313TIP3   OH2  902   1.551   5.138   1.453  0.6937  0.1389 -0.3759
  313TIP3    H1  903   1.639   5.103   1.447  1.1040  1.3265 -2.3110
  313TIP3    H2  904   1.563   5.231   1.472 -0.1632  0.2098 -0.1241
  314TIP3   OH2  905   3.058   2.620   5.535  0.5166  0.0247  0.6630
  314TIP3    H1  906   3.011   2.536   5.536  2.2489 -1.0642 -1.1693
  314TIP3    H2  907   3.101   2.622   5.450  0.6086  2.7921  0.6853
  315TIP3   OH2  908   2.738   4.793   5.226  0.3371 -0.7534 -0.0260
  315TIP3    H1  909   2.772   4.744   5.151 -1.2024 -1.1706 -0.4952
  315TIP3    H2  910   2.653   4.753   5.244 -0.4191  0.9471  0.3894
  316TIP3   OH2  911   6.335   1.432   2.356  0.1366  0.2258 -0.4736
  316TIP3    H1  912   6.331   1.431   2.451  1.1177 -3.1450 -0.3531
  316TIP3    H2  913   6.384   1.512   2.335  1.8907 -0.1122  1.9730
  317TIP3   OH2  914   1.584   3.719   2.731 -0.1499 -0.0887  0.5620
  317TIP3    H1  915   1.607   3.627   2.746 -3.0789 -0.8939  0.9148
  317TIP3    H2  916   1.548   3.748   2.815 -0.2675  1.0472  0.1397
  318TIP3   OH2  917   5.314   6.175   5.133  0.3825  0.0724  0.2095
  318TIP3    H1  918   5.396   6.127   5.125  0.5840 -0.2471  3.3107
  318TIP3    H2  919   5.251   6.110   5.165 -0.2292  1.0642  1.0675
  319TIP3   OH2  920   2.285   1.313   1.515  0.4445  0.1168  0.5805
  319TIP3    H1  921   2.302   1.249   1.584  0.9915  0.0936  0.4286
  319TIP3    H2  922   2.357   1.375   1.522  0.1021  0.5301  0.5031
  320TIP3   OH2  923   2.075   1.842   2.755  0.2186  0.3268 -0.4390
  320TIP3    H1  924   2.043   1.869   2.669 -0.4062 -0.5312 -0.4925
  320TIP3    H2  925   2.026   1.896   2.817  1.1973  1.4660 -0.6268
  321TIP3   OH2  926   5.601   1.564   1.623 -0.1718 -0.4044 -0.1189
  321TIP3    H1  927   5.571   1.613   1.700  0.5628  0.9648 -0.6675
  321TIP3    H2  928   5.558   1.608   1.549 -0.1833 -1.1497 -0.5624
  322TIP3   OH2  929   1.577   0.578   3.000 -0.4695  0.3381  0.0000
  322TIP3    H1  930   1.608   0.507   3.056 -0.6701 -1.9081 -2.5154
  322TIP3    H2  931   1.511   0.623   3.053  0.0033 -1.0305  1.8796
  323TIP3   OH2  932   3.695   2.146   5.749  0.7293 -0.4546  0.2303
  323TIP3    H1  933   3.730   2.165   5.662 -0.4941  1.0462  0.0189
  323TIP3    H2  934   3.681   2.232   5.788 -0.0495 -1.0784  1.3814
  324TIP3   OH2  935   5.305   3.905   3.581  0.2517  0.0414  0.1463
  324TIP3    H1  936   5.268   3.833   3.633  3.1060 -0.8486  1.1183
  324TIP3    H2  937   5.228   3.949   3.544 -1.7725 -1.1996  2.5454
  325TIP3   OH2  938   2.882   1.577   0.532 -0.0391  0.1473  0.7085
  325TIP3    H1  939   2.800   1.528   0.519  0.1047  0.1927 -0.4710
  325TIP3    H2  940   2.887   1.590   0.626 -0.7397 -0.9933  0.9279
  326TIP3   OH2  941   5.722   4.848   0.907 -0.1957  0.8056 -0.5606
  326TIP3    H1  942   5.760   4.769   0.869 -0.2478 -0.0869  1.1451
  326TIP3    H2  943   5.636   4.821   0.938  0.5951  0.9012  1.9576
  327TIP3   OH2  944   0.605   5.966   3.645  0.0704  0.4843  0.0934
  327TIP3    H1  945   0.531   5.977   3.586  0.0452  0.1036  0.0565
  327TIP3    H2  946   0.674   5.928   3.591  0.4678  1.3083  0.0001
  328TIP3   OH2  947   4.006   1.410   0.491 -0.8943  0.3405 -0.3489
  328TIP3    H1  948   4.057   1.373   0.419 -0.7070 -1.0766  0.4572
  328TIP3    H2  949   3.915   1.398   0.464 -0.8295 -0.4701 -0.2549
  329TIP3   OH2  950   2.864   1.774   4.896  0.5409 -0.0562  0.2321
  329TIP3    H1  951   2.925   1.725   4.951  0.2132 -0.3619  0.3214
  329TIP3    H2  952   2.869   1.864   4.930 -1.3553 -0.6428  2.3117
  330TIP3   OH2  953   3.270   4.555   2.650 -0.3453  0.2117  0.3372
  330TIP3    H1  954   3.359   4.560   2.687 -0.0713  1.7357 -0.4079
  330TIP3    H2  955   3.220   4.505   2.714  1.5252 -2.6778 -0.2533
  331TIP3   OH2  956   5.355   2.283   1.915  0.2065  0.6036  0.3092
  331TIP3    H1  957   5.432   2.317   1.870  0.4205  2.3450  1.8789
  331TIP3    H2  958   5.384   2.268   2.004 -0.8064 -0.5417  0.4740
  332TIP3   OH2  959   2.833   0.867   1.406  0.1430 -0.1510  0.6622
  332TIP3    H1  960   2.799   0.863   1.495 -1.9349 -2.1392 -0.1291
  332TIP3    H2  961   2.772   0.924   1.359 -0.9226 -1.9095 -0.2300
  333TIP3   OH2  962   7.093   0.110   3.385  0.6866  0.4109 -0.0350
  333TIP3    H1  963   7.108   0.169   3.459 -0.0335  0.6043 -0.0432
  333TIP3    H2  964   7.151   0.144   3.316 -0.7778  2.0273 -0.5411
  334TIP3   OH2  965   3.640   1.949   0.371 -0.6280  0.0242  0.0738
  334TIP3    H1  966   3.679   2.006   0.438 -1.6287 -0.0631  0.7572
  334TIP3    H2  967   3.709   1.887   0.350  0.0848  0.7618  0.1816
  335TIP3   OH2  968   3.776   2.177   5.468  0.1955  0.0577 -0.2339
  335TIP3    H1  969   3.871   2.177   5.481  0.0749  0.4338  0.7335
  335TIP3    H2  970   3.758   2.260   5.424  0.0594  1.1900  1.8372
  336TIP3   OH2  971   4.900   3.491   5.132  0.2115  0.4605  0.2009
  336TIP3    H1  972   4.905   3.398   5.152 -0.3033  0.4015  0.0740
  336TIP3    H2  973   4.828   3.523   5.187  0.4022  0.7848  0.2616
  337TIP3   OH2  974   5.614   0.731   5.075 -0.1679 -0.2561  0.2108
  337TIP3    H1  975   5.529   0.759   5.039 -0.0858 -1.3601 -0.9209
  337TIP3    H2  976   5.672   0.729   4.999  0.3302 -1.4965  0.5930
  338TIP3   OH2  977   0.792   5.072   4.022  0.6166  0.1385  0.0006
  338TIP3    H1  978   0.746   5.156   4.014 -0.2490 -0.3104  0.1492
  338TIP3    H2  979   0.744   5.013   3.964  0.7470 -0.4595  0.4957
  339TIP3   OH2  980   6.596   2.973   1.081 -0.6154  0.4324 -0.0185
  339TIP3    H1  981   6.632   3.053   1.041 -0.5229 -0.0345 -0.9021
  339TIP3    H2  982   6.527   2.945   1.020  0.2861 -0.9155 -0.4664
  340TIP3   OH2  983   5.431   1.834   2.432  0.0627  0.3098  0.0011
  340TIP3    H1  984   5.473   1.816   2.348  1.4118  1.0292  0.4827
  340TIP3    H2  985   5.470   1.771   2.493  0.8508  1.2984  0.5573
  341TIP3   OH2  986   5.474   3.816   4.143  0.1073 -0.2057  0.1533
  341TIP3    H1  987   5.514   3.750   4.199  0.3916  0.4084  0.6975
  341TIP3    H2  988   5.456   3.890   4.203 -0.1208  0.2383 -0.4519
  342TIP3   OH2  989   2.945   4.549   0.458 -0.0199  0.9888  0.1652
  342TIP3    H1  990   2.908   4.467   0.489 -0.8177  0.0674 -2.9011
  342TIP3    H2  991   3.040   4.536   0.463 -0.1242 -0.5146 -1.0785
  343TIP3   OH2  992   2.852   4.357   0.979 -0.2638 -0.4514 -0.2566
  343TIP3    H1  993   2.817   4.372   0.891  1.0545  1.9099 -0.4410
  343TIP3    H2  994   2.823   4.432   1.030 -0.0387 -1.2077  1.0170
  344TIP3   OH2  995   4.116   5.542   5.294 -0.1262 -0.1931  0.3002
  344TIP3    H1  996   4.157   5.478   5.237  2.1563  0.8940  0.6175
  344TIP3    H2  997   4.145   5.627   5.261 -1.3252  0.6094  1.1865
  345TIP3   OH2  998   2.316   4.302   0.725 -0.1606  0.0969 -0.2777
  345TIP3    H1  999   2.242   4.254   0.761  1.4936 -1.9357  0.6670
  345TIP3    H2 1000   2.307   4.293   0.630 -1.5119  0.5486 -0.2043
  346TIP3   OH2 1001   3.281   6.425   3.757  0.0636 -0.3299 -0.4594
  346TIP3    H1 1002   3.302   6.516   3.779 -1.3336 -0.2028  0.4974
  346TIP3    H2 1003   3.362   6.377   3.776 -0.0394  0.2979  1.9180
  347TIP3   OH2 1004   0.320   5.612   4.213 -0.2768  0.0997 -0.1782
  347TIP3    H1 1005   0.344   5.704   4.228 -0.2196 -0.1257  1.2260
  347TIP3    H2 1006   0.313   5.575   4.300  0.0769 -1.3416 -0.7431
  348TIP3   OH2 1007   6.386   1.965   4.724 -0.5187 -0.0128  0.6887
  348TIP3    H1 1008   6.333   1.945   4.647 -0.0361  1.0772  0.0440
  348TIP3    H2 1009   6.399   1.881   4.767 -2.2563 -0.3935  0.5410
  349TIP3   OH2 1010   2.120   2.077   2.967 -0.0935 -0.2774  0.2509
  349TIP3    H1 1011   2.167   2.158   2.986  0.5505 -0.4854 -0.4286
  349TIP3    H2 1012   2.030   2.105   2.948  0.3047  0.3548 -0.7536
  350TIP3   OH2 1013   6.902   1.628   4.657  0.5527  0.2900 -0.0752
  350TIP3    H1 1014   6.889   1.646   4.750  0.0944 -0.1931 -0.0381
  350TIP3    H2 1015   6.915   1.714   4.617  1.4178  0.4494  0.5342
  351TIP3   OH2 1016   1.106   4.146   3.295  0.7266  0.6683 -0.2409
  351TIP3    H1 1017   1.033   4.109   3.245  1.9408  1.0126 -2.3989
  351TIP3    H2 1018   1.140   4.073   3.346 -1.2965  0.5860  1.0850
  352TIP3   OH2 1019   5.295   3.672   0.992 -0.1505  0.5011  0.5791
  352TIP3    H1 1020   5.317   3.758   1.027  0.3241  0.3246  0.7275
  352TIP3    H2 1021   5.330   3.673   0.903 -0.6412  0.6623  0.3889
  353TIP3   OH2 1022   0.279   5.260   3.021 -0.6426 -0.5074  0.1154
  353TIP3    H1 1023   0.203   5.265   3.080 -2.1697 -4.2562 -1.1980
  353TIP3    H2 1024   0.351   5.234   3.078 -0.7191  1.3440  1.1161
  354TIP3   OH2 1025   5.663   6.338   5.860  0.4786 -0.1483  0.5584
  354TIP3    H1 1026   5.649   6.245   5.840 -1.8947  0.0216  1.0815
  354TIP3    H2 1027   5.701   6.374   5.780  0.2514 -1.3371 -0.1068
  355TIP3   OH2 1028   4.107   3.319   2.973  0.5405  0.7208  0.3607
  355TIP3    H1 1029   4.162   3.396   2.967  0.4849  0.7000 -0.4688
  355TIP3    H2 1030   4.156   3.250   2.928  0.5095  0.3131  0.9337
  356TIP3   OH2 1031   5.672   4.033   2.331  0.0492  0.2355  0.0252
  356TIP3    H1 1032   5.581   4.055   2.352  0.6865  1.7764  1.3262
  356TIP3    H2 1033   5.706   4.110   2.286 -0.1837 -1.5817 -3.5953
  357TIP3   OH2 1034   1.362   1.426   3.017 -0.0482 -0.4760  0.0974
  357TIP3    H1 1035   1.376   1.440   2.923  1.3527  1.2968  0.4984
  357TIP3    H2 1036   1.312   1.502   3.045 -0.6983 -1.1349  0.7691
  358TIP3   OH2 1037   3.018   4.126   4.521  0.3962 -0.0313  0.0860
  358TIP3    H1 1038   2.935   4.097   4.559  1.3303 -0.2277  2.1030
  358TIP3    H2 1039   2.993   4.195   4.459 -1.4907 -2.1107 -1.6003
  359TIP3   OH2 1040   5.173   6.641   3.706  0.5454 -0.2256 -0.2234
  359TIP3    H1 1041   5.097   6.697   3.689  0.7712 -0.9078 -4.8552
  359TIP3    H2 1042   5.247   6.690   3.670  0.9820 -2.6071 -2.9146
  360TIP3   OH2 1043   5.802   6.451   1.642  0.0299 -0.3075 -0.4807
  360TIP3    H1 1044   5.731   6.407   1.595 -1.2602  0.7833  0.3573
  360TIP3    H2 1045   5.787   6.544   1.625 -0.5956  0.1531  2.1381
  361TIP3   OH2 1046   6.803   1.772   3.066  0.9001  0.4940 -0.3489
  361TIP3    H1 1047   6.754   1.697   3.098  0.7152  0.8618  0.2617
  361TIP3    H2 1048   6.784   1.776   2.972  0.0619  0.4116 -0.1860
  362TIP3   OH2 1049   3.622   5.068   2.102 -0.4788  0.5545 -0.2882
  362TIP3    H1 1050   3.649   5.122   2.176 -2.0535  2.8485 -1.2765
  362TIP3    H2 1051   3.530   5.090   2.089 -0.4879 -0.5099 -2.3253
  363TIP3   OH2 1052   5.837   2.084   1.159  0.1836  0.3614 -0.3162
  363TIP3    H1 1053   5.910   2.024   1.149 -0.8938 -1.0247 -0.2073
  363TIP3    H2 1054   5.862   2.162   1.108  1.2476 -0.5102 -1.1726
  364TIP3   OH2 1055   3.728   2.831   3.340  0.3580 -0.1104 -0.3884
  364TIP3    H1 1056   3.794   2.897   3.357 -1.1996  1.2503  0.6768
  364TIP3    H2 1057   3.757   2.754   3.390  1.0010  0.5464  0.2682
  365TIP3   OH2 1058   1.800   5.275   1.871 -0.1023 -0.0264 -0.8392
  365TIP3    H1 1059   1.712   5.302   1.896  0.0216 -0.4618  0.1223
  365TIP3    H2 1060   1.792   5.249   1.779 -0.3497  2.6410 -1.6538
  366TIP3   OH2 1061   6.132   0.710   3.941 -0.1876  0.3279  0.0610
  366TIP3    H1 1062   6.141   0.626   3.896  1.3707 -1.0566  2.6732
  366TIP3    H2 1063   6.085   0.689   4.022 -1.5781  2.3891 -0.1487
  367TIP3   OH2 1064   4.851   6.245   0.738  0.3880  0.6548  0.0772
  367TIP3    H1 1065   4.840   6.183   0.810  0.4372 -0.8430 -1.1619
  367TIP3    H2 1066   4.780   6.308   0.750  1.0669  1.1142  2.0606
  368TIP3   OH2 1067   6.027   6.424   1.480 -0.2914 -0.0390 -0.0728
  368TIP3    H1 1068   5.994   6.385   1.399  0.4882 -0.9427  0.0244
  368TIP3    H2 1069   5.949   6.439   1.533 -0.7139 -0.3675 -0.5917
  369TIP3   OH2 1070   2.891   0.112   0.401  0.1379 -0.4865 -0.2189
  369TIP3    H1 1071   2.931   0.093   0.317 -0.3496 -0.9347 -0.3595
  369TIP3    H2 1072   2.797   0.103   0.385 -0.0139  0.2989  0.1571
  370TIP3   OH2 1073   4.259   0.559   0.351 -0.1040  0.0020  0.1295
  370TIP3    H1 1074   4.214   0.578   0.269  0.4166  0.7657  0.0095
  370TIP3    H2 1075   4.345   0.524   0.324  0.7938  1.9410  0.2937
  371TIP3   OH2 1076   5.546   3.814   4.922 -0.2102  0.6002 -0.7520
  371TIP3    H1 1077   5.570   3.837   5.012 -2.2446  0.3920 -0.0917
  371TIP3    H2 1078   5.618   3.760   4.891 -0.7449 -1.7952  1.8004
  372TIP3   OH2 1079   1.944   2.371   5.827 -0.6059 -0.3331  0.3057
  372TIP3    H1 1080   1.933   2.282   5.859 -0.0717 -0.5924 -0.2254
  372TIP3    H2 1081   1.855   2.400   5.808 -0.9695 -0.1135  2.1305
  373TIP3   OH2 1082   2.477   5.550   0.315 -0.1861 -0.3019  0.2113
  373TIP3    H1 1083   2.404   5.604   0.285 -0.0784  0.6992  1.6643
  373TIP3    H2 1084   2.511   5.596   0.392  2.6046 -0.2121 -0.9623
  374TIP3   OH2 1085   6.227   2.358   1.929  0.0376  0.0020 -0.2585
  374TIP3    H1 1086   6.290   2.345   2.001  0.3286 -1.3602 -0.7253
  374TIP3    H2 1087   6.255   2.440   1.888  0.1360  0.5755  0.9025
  375TIP3   OH2 1088   6.046   2.579   3.737  0.3486 -0.8202 -0.4168
  375TIP3    H1 1089   6.089   2.632   3.805  1.1636 -1.0447 -0.7480
  375TIP3    H2 1090   6.114   2.518   3.708  0.4679  0.2220 -2.4569
  376TIP3   OH2 1091   5.999   0.661   2.870 -0.0447 -0.0786 -0.4390
  376TIP3    H1 1092   5.952   0.744   2.865 -1.6889 -0.8837  0.4634
  376TIP3    H2 1093   6.018   0.650   2.963  1.2113 -0.1910 -0.6895
  377TIP3   OH2 1094   5.329   0.123   0.916  0.1622 -0.3706 -0.3072
  377TIP3    H1 1095   5.363   0.070   0.843 -1.6101 -0.4424 -1.1230
  377TIP3    H2 1096   5.298   0.203   0.875 -0.6131 -0.2940  0.4175
  378TIP3   OH2 1097   0.112   5.699   3.164  0.2236  0.2912 -0.3064
  378TIP3    H1 1098   0.064   5.776   3.132  1.0355  0.7187 -0.5196
  378TIP3    H2 1099   0.052   5.626   3.150 -0.3976  0.8224 -0.4939
  379TIP3   OH2 1100   0.215   1.212   3.913 -0.0650 -0.2551 -0.0885
  379TIP3    H1 1101   0.214   1.122   3.944  1.9962 -0.2045  0.2343
  379TIP3    H2 1102   0.228   1.205   3.819  1.0182 -0.3030  0.0537
  380TIP3   OH2 1103   6.323   0.667   0.156  0.2766 -0.0304  0.5385
  380TIP3    H1 1104   6.385   0.717   0.209  1.3966 -0.4225 -0.3796
  380TIP3    H2 1105   6.302   0.590   0.210 -0.2797  0.6385  1.3062
  381TIP3   OH2 1106   1.926   3.351   0.867  0.0083 -0.0830 -0.0665
  381TIP3    H1 1107   1.913   3.380   0.958 -1.4158 -1.1395  0.1006
  381TIP3    H2 1108   1.854   3.392   0.819  0.7151  0.4058 -0.7299
  382TIP3   OH2 1109   0.798   1.845   5.685  0.0727  0.2719 -0.2683
  382TIP3    H1 1110   0.808   1.879   5.774  1.1952  0.1622 -0.3421
  382TIP3    H2 1111   0.761   1.918   5.636 -1.6680 -0.0278  0.5192
  383TIP3   OH2 1112   2.408   3.418   3.183 -0.0446  0.3585  0.3007
  383TIP3    H1 1113   2.425   3.464   3.265 -2.2369  1.0576  0.4110
  383TIP3    H2 1114   2.442   3.476   3.115  1.5793 -0.1233  0.6548
  384TIP3   OH2 1115   1.733   1.042   5.147  0.3084 -0.1938  0.4029
  384TIP3    H1 1116   1.670   1.037   5.220 -0.3300 -0.3895 -0.1559
  384TIP3    H2 1117   1.759   1.134   5.145 -1.7362  0.4139 -0.8195
  385TIP3   OH2 1118   1.003   0.536   0.766 -0.5506 -0.1159 -0.1489
  385TIP3    H1 1119   0.979   0.462   0.822 -2.2864 -0.4466 -1.2306
  385TIP3    H2 1120   0.950   0.608   0.799 -0.7570 -0.0293 -0.6619
  386TIP3   OH2 1121   1.826   6.160   4.600  0.0077  0.4636 -0.2851
  386TIP3    H1 1122   1.905   6.185   4.648 -1.6163 -0.4111  3.1540
  386TIP3    H2 1123   1.770   6.238   4.602  0.0941  0.5650 -1.2395
  387TIP3   OH2 1124   4.663   6.386   0.877 -0.3593  0.0032  0.0827
  387TIP3    H1 1125   4.717   6.346   0.945 -0.2754  0.9988  0.6251
  387TIP3    H2 1126   4.634   6.469   0.916 -0.2779  0.6060 -1.1008
  388TIP3   OH2 1127   6.034   3.405   0.651 -0.1819 -0.2488  0.0893
  388TIP3    H1 1128   6.010   3.313   0.645  0.1837 -0.3754  0.5757
  388TIP3    H2 1129   5.975   3.442   0.716  0.0677 -0.2717  0.3301
  389TIP3   OH2 1130   1.802   2.185   4.282 -0.0285 -0.6420 -0.0582
  389TIP3    H1 1131   1.715   2.147   4.274 -0.0972 -0.7141  0.9150
  389TIP3    H2 1132   1.862   2.111   4.272  0.0601 -0.2891 -3.0387
  390TIP3   OH2 1133   5.482   0.599   0.990 -0.7703 -0.4653 -0.1860
  390TIP3    H1 1134   5.437   0.535   1.045  0.3003  0.3353  1.7388
  390TIP3    H2 1135   5.574   0.591   1.015 -0.3794  0.6016 -1.1920
  391TIP3   OH2 1136   0.595   5.535   2.129 -0.0334  0.1654 -0.9491
  391TIP3    H1 1137   0.657   5.593   2.084  0.8664 -0.2697 -0.2950
  391TIP3    H2 1138   0.628   5.447   2.112  0.6252 -0.0046  0.9015
  392TIP3   OH2 1139   1.969   3.123   3.889  0.0215  0.4070 -0.0755
  392TIP3    H1 1140   1.966   3.029   3.873  0.6632  0.5176 -0.9487
  392TIP3    H2 1141   1.925   3.135   3.973  0.6491 -0.7527  0.4437
  393TIP3   OH2 1142   3.611   4.295   3.351  0.2224  0.1706  0.3774
  393TIP3    H1 1143   3.683   4.337   3.398  2.0740 -0.4196 -1.7738
  393TIP3    H2 1144   3.616   4.331   3.263 -1.3432 -0.8290 -0.1510
  394TIP3   OH2 1145   6.611   2.319   5.069  0.0970  0.3340 -0.1725
  394TIP3    H1 1146   6.631   2.364   5.151  0.1158  0.1541 -0.0789
  394TIP3    H2 1147   6.658   2.369   5.002  1.8437 -0.7629  0.1734
  395TIP3   OH2 1148   3.218   2.784   1.125  0.8635 -0.1251 -0.1435
  395TIP3    H1 1149   3.155   2.809   1.193 -0.1288 -0.8862 -0.7548
  395TIP3    H2 1150   3.263   2.866   1.103 -0.8767  0.7586 -0.6594
  396TIP3   OH2 1151   3.912   2.084   3.619  0.1169  0.9533 -0.2578
  396TIP3    H1 1152   3.976   2.074   3.689 -0.5200 -0.0436  0.2012
  396TIP3    H2 1153   3.830   2.052   3.657 -0.3934  1.0855 -1.2230
  397TIP3   OH2 1154   6.362   6.161   1.682  0.3387 -0.0620 -0.0413
  397TIP3    H1 1155   6.454   6.181   1.700  0.3245 -0.5604  0.6277
  397TIP3    H2 1156   6.319   6.247   1.675  0.4096  0.1906  2.0396
  398TIP3   OH2 1157   5.809   4.472   1.160 -0.0638 -0.1105  0.4571
  398TIP3    H1 1158   5.835   4.401   1.102  1.5885 -0.6408  1.7564
  398TIP3    H2 1159   5.803   4.431   1.247  1.6471  1.4178  1.3763
  399TIP3   OH2 1160   2.489   4.540   4.567  0.0182  0.4343 -0.3287
  399TIP3    H1 1161   2.414   4.561   4.623 -0.7120 -1.4538 -0.4923
  399TIP3    H2 1162   2.562   4.589   4.603 -0.7505  0.3226  1.4475
  400TIP3   OH2 1163   2.880   5.832   5.013  0.3033 -0.3292 -0.0890
  400TIP3    H1 1164   2.928   5.907   5.047  0.4880  0.8813 -2.7312
  400TIP3    H2 1165   2.813   5.815   5.079  0.6061  1.8116  0.8764
  401TIP3   OH2 1166   5.421   3.154   5.418  0.0487 -0.2484 -0.8075
  401TIP3    H1 1167   5.388   3.236   5.382 -0.4985  1.3172  2.7699
  401TIP3    H2 1168   5.353   3.090   5.399 -1.2421  1.0060 -0.6033
  402TIP3   OH2 1169   0.150   3.090   4.160  0.5971 -0.5860  0.6139
  402TIP3    H1 1170   0.196   3.171   4.142 -1.5576  0.5434 -0.1600
  402TIP3    H2 1171   0.154   3.080   4.255  2.0771 -0.3534  0.5874
  403TIP3   OH2 1172   2.385   4.881   2.445  0.6319  0.0240 -0.6170
  403TIP3    H1 1173   2.427   4.952   2.493  0.8544 -1.7304  2.0100
  403TIP3    H2 1174   2.298   4.873   2.485  0.8042 -1.4658 -0.4789
  404TIP3   OH2 1175   1.303   0.493   1.678 -0.2061 -0.2454 -0.5359
  404TIP3    H1 1176   1.394   0.488   1.708  0.3440  0.4796 -1.9921
  404TIP3    H2 1177   1.251   0.463   1.753  1.2340 -0.8413  0.2561
  405TIP3   OH2 1178   4.160   4.476   0.074 -0.1339  0.4263  0.1428
  405TIP3    H1 1179   4.115   4.437  -0.001 -0.6204 -0.0486  0.6700
  405TIP3    H2 1180   4.250   4.487   0.046 -0.7271  2.1683 -1.2482
  406TIP3   OH2 1181   3.577   1.411   0.236 -0.2908 -0.6645 -0.3334
  406TIP3    H1 1182   3.627   1.458   0.169  1.1745 -0.9458  0.5254
  406TIP3    H2 1183   3.594   1.318   0.217  0.1074 -0.7450  0.3849
  407TIP3   OH2 1184   0.334   5.930   4.704 -0.0587 -0.0404 -0.3791
  407TIP3    H1 1185   0.276   6.003   4.681 -0.5504 -0.0346  0.8059
  407TIP3    H2 1186   0.413   5.972   4.736  1.0092 -0.0369 -2.7654
  408TIP3   OH2 1187   2.134   5.209   4.987  0.2590  0.3153  0.7951
  408TIP3    H1 1188   2.161   5.195   4.896  3.0678  1.0204  1.4046
  408TIP3    H2 1189   2.137   5.304   4.999  1.3780  0.1699  1.9540
  409TIP3   OH2 1190   1.178   1.122   5.807  0.2808  0.2048 -0.4132
  409TIP3    H1 1191   1.087   1.127   5.835 -0.7246 -2.4805 -2.7244
  409TIP3    H2 1192   1.221   1.067   5.872 -0.0928  0.3517 -0.0402
  410TIP3   OH2 1193   1.675   3.404   0.752  0.0789 -0.2767 -0.3162
  410TIP3    H1 1194   1.612   3.467   0.716  0.7329  0.2474 -0.5658
  410TIP3    H2 1195   1.624   3.352   0.815 -0.9202 -0.7295 -1.4466
  411TIP3   OH2 1196   2.129   4.560   3.628 -0.0259  0.1098 -0.0021
  411TIP3    H1 1197   2.162   4.643   3.596  0.9757 -0.5074 -0.6440
  411TIP3    H2 1198   2.154   4.496   3.561 -0.3741 -0.7806  0.6824
  412TIP3   OH2 1199   1.878   5.060   3.925 -0.1080 -0.0388 -0.0727
  412TIP3    H1 1200   1.889   5.113   4.004  2.2039  0.2566 -0.5242
  412TIP3    H2 1201   1.884   5.123   3.853  1.7795 -0.7432 -0.5877
  413TIP3   OH2 1202   0.786   2.307   5.301 -0.2526  0.0643 -0.4250
  413TIP3    H1 1203   0.803   2.263   5.384 -2.1675  0.2654  0.1251
  413TIP3    H2 1204   0.764   2.397   5.325 -1.4662 -0.0304 -1.0464
  414TIP3   OH2 1205   2.648   4.995   5.542  0.3325  0.1415  0.2873
  414TIP3    H1 1206   2.696   4.982   5.624 -1.6137  1.2439  1.6671
  414TIP3    H2 1207   2.556   4.986   5.566 -0.2665 -1.2762 -2.1477
  415TIP3   OH2 1208   4.862   1.879   3.969 -0.1675 -0.0470  0.0943
  415TIP3    H1 1209   4.777   1.852   3.934 -0.6960 -1.2376  2.1334
  415TIP3    H2 1210   4.841   1.942   4.037  0.7539  1.3199 -0.8354
  416TIP3   OH2 1211   5.710   3.095   4.191  0.0227  0.1282  0.2244
  416TIP3    H1 1212   5.681   3.025   4.133  0.4991 -1.1687  1.4842
  416TIP3    H2 1213   5.696   3.061   4.279  0.0771  1.7100  0.8864
  417TIP3   OH2 1214   1.919   6.526   3.348 -0.7476  0.4688 -0.6145
  417TIP3    H1 1215   1.840   6.540   3.400 -0.2328 -1.3723  0.8027
  417TIP3    H2 1216   1.985   6.583   3.387 -1.1044  1.2726 -1.1675
  418TIP3   OH2 1217   0.070   2.886   5.309  0.2483  0.5117 -0.0590
  418TIP3    H1 1218   0.012   2.860   5.237 -1.2703  1.3362  0.8105
  418TIP3    H2 1219   0.157   2.858   5.281 -0.3992  0.2037 -1.9075
  419TIP3   OH2 1220   5.820   5.319   5.147  0.0197 -0.7819  0.5065
  419TIP3    H1 1221   5.881   5.323   5.220  1.1810 -0.1796 -0.4511
  419TIP3    H2 1222   5.815   5.410   5.116  0.4628 -1.1929 -0.8527
  420TIP3   OH2 1223   0.029   1.373   4.005 -0.6256 -0.5322 -0.0112
  420TIP3    H1 1224  -0.037   1.306   4.020 -0.5957 -0.5857 -0.1193
  420TIP3    H2 1225   0.106   1.324   3.976 -0.6249 -0.4448 -0.1546
  421TIP3   OH2 1226   6.471   5.938   2.551 -0.0527  0.4525 -0.0965
  421TIP3    H1 1227   6.548   5.957   2.604 -0.2740 -0.0243  0.4027
  421TIP3    H2 1228   6.411   5.895   2.611 -0.5868  0.5408 -0.5625
  422TIP3   OH2 1229   4.613   6.170   3.032 -0.3209  0.4763 -0.3510
  422TIP3    H1 1230   4.546   6.117   3.075 -0.4359  1.3442  0.5776
  422TIP3    H2 1231   4.601   6.153   2.938  1.0058 -2.7529 -0.0361
  423TIP3   OH2 1232   4.061   6.012   3.625  0.5936  0.2708 -0.0972
  423TIP3    H1 1233   4.037   5.969   3.543 -0.0125  1.8785 -0.8107
  423TIP3    H2 1234   4.128   6.076   3.601 -0.6753  1.8413  0.3381
  424TIP3   OH2 1235   2.752   3.162   3.654  0.4739  0.1620 -0.7450
  424TIP3    H1 1236   2.702   3.200   3.582  0.1139  0.3466 -0.4077
  424TIP3    H2 1237   2.777   3.237   3.708 -0.5508 -0.0897  0.1203
  425TIP3   OH2 1238   5.045   0.462   2.871 -0.1168  0.0726  0.4837
  425TIP3    H1 1239   5.051   0.404   2.948 -0.8343  0.6476  0.9852
  425TIP3    H2 1240   5.066   0.405   2.797  1.9542 -0.1809  1.2082
  426TIP3   OH2 1241   2.918   1.298   3.197 -0.3157  0.0222 -0.0723
  426TIP3    H1 1242   2.921   1.389   3.165  1.3845 -0.3635 -1.1710
  426TIP3    H2 1243   2.911   1.245   3.117  1.5832 -0.8848  0.3164
  427TIP3   OH2 1244   2.200   4.430   1.310 -0.2783 -0.0911 -0.2093
  427TIP3    H1 1245   2.149   4.488   1.253  1.0986  0.1495 -1.2509
  427TIP3    H2 1246   2.262   4.387   1.251  0.8821 -0.1833  1.0402
  428TIP3   OH2 1247   4.253   4.286   2.140  0.1629 -0.2872 -0.6561
  428TIP3    H1 1248   4.262   4.200   2.180 -2.6166  0.5721  2.2481
  428TIP3    H2 1249   4.305   4.344   2.196  1.6474  0.0847 -2.3237
  429TIP3   OH2 1250   3.922   0.839   3.573  0.0292  0.7936 -0.4841
  429TIP3    H1 1251   3.971   0.921   3.582  1.0897  0.1160  0.0208
  429TIP3    H2 1252   3.973   0.775   3.621 -1.2224 -0.0032 -0.1883
  430TIP3   OH2 1253   2.002   6.139   0.009  1.0568 -0.2825 -0.0094
  430TIP3    H1 1254   2.089   6.112   0.039 -0.0218 -1.3699  2.3853
  430TIP3    H2 1255   1.954   6.157   0.089 -0.1816  2.9911 -1.3161
  431TIP3   OH2 1256   5.261   5.445   3.093 -0.1594 -0.5883  0.0265
  431TIP3    H1 1257   5.256   5.415   3.184  0.5231 -0.9377 -0.0419
  431TIP3    H2 1258   5.349   5.419   3.064 -0.4019 -0.5634 -0.7620
  432TIP3   OH2 1259   4.722   1.173   1.130  0.0183 -0.7214 -0.2277
  432TIP3    H1 1260   4.735   1.228   1.053 -0.0444  1.1027  1.0104
  432TIP3    H2 1261   4.683   1.092   1.096 -0.3073  0.1660 -2.0586
  433TIP3   OH2 1262   5.107   1.612   0.470  0.0814  0.0643  0.2695
  433TIP3    H1 1263   5.072   1.687   0.518 -0.0367  0.5941 -0.6325
  433TIP3    H2 1264   5.061   1.536   0.508  0.0522  0.4557  1.0376
  434TIP3   OH2 1265   3.604   5.279   0.835  0.3449 -0.1238 -0.2067
  434TIP3    H1 1266   3.603   5.361   0.885  2.2270 -0.7909  1.0493
  434TIP3    H2 1267   3.691   5.242   0.852  0.1641 -1.5838 -2.0870
  435TIP3   OH2 1268   1.241   5.298   2.803 -0.3851 -0.4617  0.0602
  435TIP3    H1 1269   1.281   5.220   2.842  0.0364 -0.4385 -0.3159
  435TIP3    H2 1270   1.163   5.314   2.856 -0.7109 -1.3912 -0.1196
  436TIP3   OH2 1271   4.415   4.066   3.135 -0.3903  0.1710  0.8130
  436TIP3    H1 1272   4.414   4.132   3.066  0.8711 -2.5844 -2.0967
  436TIP3    H2 1273   4.506   4.037   3.140 -0.7103 -0.6869  2.6893
  437TIP3   OH2 1274   0.607   6.643   5.556 -0.0954  0.4902  0.3407
  437TIP3    H1 1275   0.574   6.556   5.577  1.1153 -0.2358 -0.6109
  437TIP3    H2 1276   0.539   6.682   5.501 -0.9874  0.4528  1.3982
  438TIP3   OH2 1277   2.881   1.549   0.797  0.9451 -0.1310  0.0346
  438TIP3    H1 1278   2.899   1.456   0.787 -1.5223 -0.5641 -0.9884
  438TIP3    H2 1279   2.821   1.554   0.871 -0.8029  0.3288 -1.3512
  439TIP3   OH2 1280   0.342   1.106   0.408 -0.5091 -0.3522 -0.1314
  439TIP3    H1 1281   0.384   1.037   0.460 -2.8134 -0.8615  1.1938
  439TIP3    H2 1282   0.360   1.082   0.317  2.0142 -0.4923  0.3279
  440TIP3   OH2 1283   0.606   1.911   2.686  0.1454 -0.7090  0.2283
  440TIP3    H1 1284   0.628   1.978   2.751  0.4458 -0.9178  0.3426
  440TIP3    H2 1285   0.511   1.918   2.675  0.4200  1.4688 -1.6205
  441TIP3   OH2 1286   1.368   1.207   5.173  0.3314 -0.0277  0.4615
  441TIP3    H1 1287   1.330   1.234   5.089 -0.5883  1.2738  1.2642
  441TIP3    H2 1288   1.457   1.243   5.172 -0.1293  1.1513  0.5804
  442TIP3   OH2 1289   6.958   0.124   1.353  0.2636 -0.1525  0.5434
  442TIP3    H1 1290   6.925   0.213   1.366 -1.4317 -0.9938  2.5276
  442TIP3    H2 1291   6.942   0.106   1.260  0.2338  1.4199  0.2003
  443TIP3   OH2 1292   5.131   5.355   0.373  0.4846  0.4285 -0.0696
  443TIP3    H1 1293   5.215   5.390   0.404  0.8513 -0.4720 -0.0275
  443TIP3    H2 1294   5.148   5.329   0.282 -0.3121  2.1143 -0.7658
  444TIP3   OH2 1295   0.597   3.846   1.852 -0.3308 -0.0792  0.6038
  444TIP3    H1 1296   0.542   3.924   1.857 -0.2475 -0.0452  1.0672
  444TIP3    H2 1297   0.605   3.817   1.943  0.3445 -0.1321  0.5291
  445TIP3   OH2 1298   1.822   3.831   1.599 -0.1104  0.3933  0.2679
  445TIP3    H1 1299   1.739   3.865   1.633 -0.7015 -2.2526  1.7213
  445TIP3    H2 1300   1.796   3.764   1.536  0.8811 -0.8009  1.0821
  446TIP3   OH2 1301   1.014   2.580   4.386  0.2220  0.0792  0.3487
  446TIP3    H1 1302   0.956   2.539   4.449 -0.6878  1.8609  0.7423
  446TIP3    H2 1303   0.976   2.558   4.300 -0.6330  0.6211  0.5749
  447TIP3   OH2 1304   3.876   1.537   4.276 -0.3634  0.4217  0.2419
  447TIP3    H1 1305   3.824   1.570   4.202 -0.3775  0.3047  0.1995
  447TIP3    H2 1306   3.967   1.547   4.247 -0.3768  0.0143  0.0513
  448TIP3   OH2 1307   3.726   6.774   3.408 -0.2021 -0.6685  0.6598
  448TIP3    H1 1308   3.820   6.793   3.407 -0.4575  0.8149 -0.3901
  448TIP3    H2 1309   3.692   6.826   3.480 -0.5424  0.9674 -0.6085
  449TIP3   OH2 1310   1.134   4.361   4.998 -0.0614  0.0149 -0.1206
  449TIP3    H1 1311   1.216   4.411   5.000  0.7930 -1.3266 -0.3540
  449TIP3    H2 1312   1.083   4.401   4.928 -0.3243  1.8940  1.0631
  450TIP3   OH2 1313   0.420   3.250   0.550 -0.1075 -0.4269  0.9123
  450TIP3    H1 1314   0.364   3.234   0.474  0.2378  2.3278 -0.0255
  450TIP3    H2 1315   0.508   3.230   0.520 -0.0393  0.0680  0.7799
  451TIP3   OH2 1316   5.154   3.184   4.694  0.1959  0.2586 -0.8230
  451TIP3    H1 1317   5.179   3.092   4.686  0.3588  0.2934 -0.7154
  451TIP3    H2 1318   5.070   3.190   4.649 -0.2246 -0.1222 -0.1091
  452TIP3   OH2 1319  -0.025   0.265   3.583 -0.6845  0.2252  0.0408
  452TIP3    H1 1320   0.019   0.218   3.654 -1.2391  1.5174  1.3047
  452TIP3    H2 1321   0.044   0.286   3.521 -0.3575 -1.8340 -0.3504
  453TIP3   OH2 1322   2.099   1.414   2.932  0.2292  0.1684 -0.0503
  453TIP3    H1 1323   2.079   1.331   2.977  2.6505 -0.3223  0.2755
  453TIP3    H2 1324   2.031   1.474   2.962 -0.7593 -1.3180  0.8417
  454TIP3   OH2 1325   0.146   1.192   3.250  0.0942  0.3993  0.3304
  454TIP3    H1 1326   0.174   1.112   3.294 -0.3939  0.4661  0.7796
  454TIP3    H2 1327   0.214   1.210   3.185 -0.9872 -1.7146 -1.4924
  455TIP3   OH2 1328   4.348   4.954   1.064  0.4922  0.5430  0.0377
  455TIP3    H1 1329   4.300   4.903   1.129  0.1657  1.0863  0.2281
  455TIP3    H2 1330   4.393   4.889   1.011 -1.0142 -0.0116 -0.5920
  456TIP3   OH2 1331   2.480   1.182   3.425 -0.3393  0.1654 -0.0576
  456TIP3    H1 1332   2.561   1.222   3.392  0.4866 -1.5824 -0.2760
  456TIP3    H2 1333   2.412   1.215   3.367  0.6899 -0.7210 -1.8809
  457TIP3   OH2 1334   1.109   0.322   2.975  0.7100  0.3311 -0.0476
  457TIP3    H1 1335   1.054   0.318   3.053  1.2647  0.1118  0.3391
  457TIP3    H2 1336   1.199   0.324   3.009  1.1554 -3.0767 -0.6850
  458TIP3   OH2 1337   2.552   4.788   3.890  0.2051  0.0248 -0.0904
  458TIP3    H1 1338   2.589   4.717   3.943 -2.4795 -2.0467 -0.7527
  458TIP3    H2 1339   2.472   4.813   3.935 -0.1571  0.9159 -1.1706
  459TIP3   OH2 1340   5.894   1.473   5.349 -0.2801 -0.3997  0.0137
  459TIP3    H1 1341   5.848   1.557   5.347  1.0894  0.3869  0.3447
  459TIP3    H2 1342   5.832   1.413   5.390 -1.5641  0.2578 -0.8999
  460TIP3   OH2 1343   6.334   6.459   2.493  0.2410  0.0159 -0.0338
  460TIP3    H1 1344   6.361   6.452   2.402  0.9504 -1.7722  0.2558
  460TIP3    H2 1345   6.305   6.370   2.516 -0.7988  0.6485  1.2221
  461TIP3   OH2 1346   6.253   0.650   4.983 -0.1263 -0.0551 -0.1081
  461TIP3    H1 1347   6.334   0.619   5.021 -0.9834 -0.1992  1.6777
  461TIP3    H2 1348   6.279   0.693   4.901  1.5828 -1.1736 -0.1827
  462TIP3   OH2 1349   4.235   0.953   4.655 -0.1525  0.3570 -0.0893
  462TIP3    H1 1350   4.171   0.908   4.710 -1.0647  0.8899 -0.6820
  462TIP3    H2 1351   4.242   1.040   4.693 -0.2046  0.4788 -0.3557
  463TIP3   OH2 1352   4.147   5.909   0.492 -0.4022  0.5066 -0.1916
  463TIP3    H1 1353   4.072   5.914   0.433  0.1224 -0.4194 -0.9600
  463TIP3    H2 1354   4.204   5.843   0.454 -0.5438 -0.9424  1.9242
  464TIP3   OH2 1355   0.857   1.801   5.167 -0.5602  0.1471 -0.1141
  464TIP3    H1 1356   0.922   1.871   5.154  0.5665 -0.2356  2.7245
  464TIP3    H2 1357   0.778   1.847   5.195 -1.1894  0.5068 -2.2664
  465TIP3   OH2 1358   0.428   0.874   3.598 -0.0810 -0.9208 -0.1673
  465TIP3    H1 1359   0.523   0.871   3.587 -0.2870 -0.1793 -2.6884
  465TIP3    H2 1360   0.415   0.926   3.677  1.5989  0.8559 -0.9805
  466TIP3   OH2 1361   6.445   1.087   2.893 -0.4971  0.0044 -0.1770
  466TIP3    H1 1362   6.433   1.171   2.849 -0.9095 -0.6485 -1.3360
  466TIP3    H2 1363   6.537   1.086   2.918 -0.0225  0.0317 -1.8144
  467TIP3   OH2 1364   1.640   5.906   1.697  0.1703 -0.8553  0.6613
  467TIP3    H1 1365   1.665   5.815   1.683  0.1254 -0.7845  0.1304
  467TIP3    H2 1366   1.700   5.957   1.643 -1.1544 -0.6870 -0.7223
  468TIP3   OH2 1367   0.001   0.749   0.568  0.7487 -0.4217 -0.1943
  468TIP3    H1 1368   0.027   0.659   0.587  2.8033  0.1896  0.1618
  468TIP3    H2 1369   0.074   0.784   0.517 -0.3177  0.8620 -0.8801
  469TIP3   OH2 1370   1.675   5.248   0.735  0.1262  0.1361 -0.0608
  469TIP3    H1 1371   1.691   5.182   0.669  0.3902  0.2406 -0.0998
  469TIP3    H2 1372   1.702   5.331   0.695 -0.2513  0.2763 -0.0335
  470TIP3   OH2 1373   7.175   2.243   0.160  0.2724  0.4461  0.1029
  470TIP3    H1 1374   7.101   2.215   0.105  0.7930 -0.9683  0.0830
  470TIP3    H2 1375   7.172   2.183   0.235  1.8447 -0.1496 -0.2761
  471TIP3   OH2 1376   6.274   3.205   4.279  0.3640  0.3639  0.7198
  471TIP3    H1 1377   6.284   3.290   4.236  0.5453 -0.1062 -0.1849
  471TIP3    H2 1378   6.237   3.148   4.211 -0.8958  0.0099  1.6535
  472TIP3   OH2 1379   2.528   5.530   3.304 -0.0501  0.2899  0.1107
  472TIP3    H1 1380   2.597   5.465   3.295 -0.0795  0.3866 -1.0726
  472TIP3    H2 1381   2.557   5.589   3.374  1.0509  0.3143 -0.3541
  473TIP3   OH2 1382   4.402   0.324   2.629 -0.9839 -0.0427 -0.2022
  473TIP3    H1 1383   4.420   0.231   2.618 -0.0323 -0.1364  1.6874
  473TIP3    H2 1384   4.312   0.335   2.599 -1.2609 -1.6633 -0.0620
  474TIP3   OH2 1385   1.838   6.420   0.153 -0.3595 -0.5023  0.1973
  474TIP3    H1 1386   1.755   6.422   0.105  0.1745  2.6500 -0.7742
  474TIP3    H2 1387   1.827   6.482   0.225  1.2437  0.2738 -0.1690
  475TIP3   OH2 1388   0.277   0.659   2.399 -0.2748  0.8041 -0.2172
  475TIP3    H1 1389   0.314   0.631   2.483  1.2169 -1.7489 -1.5821
  475TIP3    H2 1390   0.337   0.725   2.367  0.3066  0.3192 -0.1472
  476TIP3   OH2 1391   3.223   6.663   0.859  0.5512  0.1361  0.2029
  476TIP3    H1 1392   3.220   6.759   0.856  0.8073  0.3389  3.2096
  476TIP3    H2 1393   3.316   6.642   0.848  0.9670  0.5200  2.4140
  477TIP3   OH2 1394   6.937   0.517   4.215  0.4880 -0.4570  0.0478
  477TIP3    H1 1395   6.961   0.425   4.209  0.0035 -0.6883  1.2547
  477TIP3    H2 1396   6.976   0.558   4.138  0.4450 -1.7265 -0.6659
  478TIP3   OH2 1397   4.565   3.709   1.495 -0.0425  0.0708 -0.1894
  478TIP3    H1 1398   4.527   3.623   1.478  1.5231 -0.7192  0.0866
  478TIP3    H2 1399   4.594   3.705   1.586 -3.3405  2.2815  1.1212
  479TIP3   OH2 1400   3.896   4.799   3.060  0.1321 -0.1394 -0.1394
  479TIP3    H1 1401   3.885   4.845   2.976 -0.2888 -0.4408 -0.2524
  479TIP3    H2 1402   3.861   4.860   3.125  0.0108 -0.1032 -0.2378
  480TIP3   OH2 1403   6.827   5.120   0.580  0.0053 -0.0707 -0.1009
  480TIP3    H1 1404   6.869   5.100   0.664  0.1377  1.5011  0.2418
  480TIP3    H2 1405   6.876   5.195   0.547 -0.1951 -0.5387 -1.4947
  481TIP3   OH2 1406   3.582   3.073   3.396  0.0610 -1.0330  0.0619
  481TIP3    H1 1407   3.644   3.127   3.445  1.5454 -1.5024 -1.2228
  481TIP3    H2 1408   3.624   2.988   3.389 -1.0069 -1.5443 -0.3369
  482TIP3   OH2 1409   4.546   5.966   1.900 -0.9175 -0.1676  0.2723
  482TIP3    H1 1410   4.570   5.910   1.827 -0.6118  0.1381  0.1371
  482TIP3    H2 1411   4.591   6.049   1.883  0.5847 -0.6429  1.6990
  483TIP3   OH2 1412   4.170   4.291   0.597  0.2444  0.0993 -0.3304
  483TIP3    H1 1413   4.110   4.234   0.646 -1.0792  0.8348 -1.0451
  483TIP3    H2 1414   4.247   4.298   0.654  0.3896 -2.2326 -0.1262
  484TIP3   OH2 1415   5.158   6.404   0.474 -0.1311 -0.1045 -0.2204
  484TIP3    H1 1416   5.110   6.447   0.545  0.1818 -0.7151  0.3679
  484TIP3    H2 1417   5.246   6.390   0.510  0.1578 -0.0194 -0.8859
  485TIP3   OH2 1418   1.147   6.452   4.850  0.7471  0.2970  0.6475
  485TIP3    H1 1419   1.188   6.487   4.771 -1.8300  0.5675 -0.6774
  485TIP3    H2 1420   1.172   6.514   4.919 -1.1478  3.1641 -1.0300
  486TIP3   OH2 1421   3.172   5.513   3.382 -0.1463 -0.2532  0.0510
  486TIP3    H1 1422   3.138   5.446   3.322 -1.3109  0.1452  0.2484
  486TIP3    H2 1423   3.179   5.468   3.466  2.4832 -1.1219 -0.5127
  487TIP3   OH2 1424   5.857   4.025   0.408 -0.3104 -0.4791  0.9181
  487TIP3    H1 1425   5.858   4.050   0.500  1.1154 -0.2082  0.8488
  487TIP3    H2 1426   5.945   3.992   0.391 -0.1259  0.7081 -0.6797
  488TIP3   OH2 1427   5.777   0.128   1.654  0.3507  0.2876 -0.3405
  488TIP3    H1 1428   5.692   0.143   1.696 -0.0891 -1.2926 -0.6061
  488TIP3    H2 1429   5.784   0.197   1.588 -1.3871 -0.4007 -1.2960
  489TIP3   OH2 1430   1.344   2.985   1.053 -0.3338  0.1675  0.0093
  489TIP3    H1 1431   1.428   2.981   1.099 -0.6504 -1.2518  0.5217
  489TIP3    H2 1432   1.339   2.903   1.005 -0.7916  0.8917 -1.2160
  490TIP3   OH2 1433   5.977   3.140   0.560  0.3347  0.4965 -0.1174
  490TIP3    H1 1434   5.959   3.049   0.538  2.1474 -0.2533  1.2771
  490TIP3    H2 1435   6.067   3.154   0.533  0.2626  1.7111  0.2355
  491TIP3   OH2 1436   6.926   0.514   5.412 -0.1930 -0.2927  0.1914
  491TIP3    H1 1437   6.933   0.442   5.475 -1.1016 -0.1634  0.4567
  491TIP3    H2 1438   6.991   0.494   5.345  1.1458 -0.1603  1.4295
  492TIP3   OH2 1439   4.747   3.401   4.219 -0.1153 -0.6162 -0.0381
  492TIP3    H1 1440   4.696   3.475   4.253 -0.7734 -1.3693  0.6594
  492TIP3    H2 1441   4.810   3.441   4.159  1.7111  0.9134  2.6828
  493TIP3   OH2 1442   0.447   6.210   0.618 -0.2239 -0.0071  1.0350
  493TIP3    H1 1443   0.374   6.245   0.670 -0.5943  2.4148 -0.9152
  493TIP3    H2 1444   0.522   6.262   0.645 -0.3938  1.1926 -0.6099
  494TIP3   OH2 1445   4.295   1.319   2.430 -0.3029  0.3751  0.0307
  494TIP3    H1 1446   4.287   1.268   2.510 -0.2426  1.0394  0.4657
  494TIP3    H2 1447   4.256   1.264   2.362 -0.5302 -0.1049  0.5457
  495TIP3   OH2 1448   4.289   0.497   5.411  0.6708 -0.3894 -0.3425
  495TIP3    H1 1449   4.377   0.534   5.417 -0.0345  1.4285 -0.5665
  495TIP3    H2 1450   4.284   0.435   5.483  1.6000  0.7245  0.7240
  496TIP3   OH2 1451   6.320   6.645   0.162 -0.4322  0.1715  0.0359
  496TIP3    H1 1452   6.366   6.590   0.226 -0.9679  0.4573  0.6883
  496TIP3    H2 1453   6.357   6.620   0.078  0.6640  0.1434  0.5055
  497TIP3   OH2 1454   2.948   2.718   3.959  0.1184 -0.3339 -0.7446
  497TIP3    H1 1455   2.883   2.720   3.888 -0.7744 -0.6943  0.0344
  497TIP3    H2 1456   2.941   2.630   3.995 -0.8048  0.3984  0.9850
  498TIP3   OH2 1457   5.153   6.637   4.043  0.0432  0.3331  0.2992
  498TIP3    H1 1458   5.192   6.632   3.956  1.5003 -1.5924  0.9987
  498TIP3    H2 1459   5.215   6.689   4.094 -0.5328  0.9897  0.3461
  499TIP3   OH2 1460   6.138   2.899   4.934 -0.0484 -0.5858  0.4655
  499TIP3    H1 1461   6.070   2.847   4.891 -0.9732  2.5773 -2.3838
  499TIP3    H2 1462   6.090   2.962   4.988  0.5883  1.0657 -0.8131
  500TIP3   OH2 1463   2.502   3.209   3.028  0.0137  0.0865  0.3458
  500TIP3    H1 1464   2.472   3.140   3.087  1.0243 -0.5737  0.1053
  500TIP3    H2 1465   2.485   3.290   3.075 -0.2858 -0.3720  1.0378
  501TIP3   OH2 1466   2.544   5.662   0.561  0.0914  0.3017 -0.3805
  501TIP3    H1 1467   2.570   5.689   0.650 -3.3404 -0.2666  0.9486
  501TIP3    H2 1468   2.465   5.714   0.543 -0.1452 -0.7178 -2.4818
  502TIP3   OH2 1469   6.451   6.770   1.278  0.0770  0.0498  0.0679
  502TIP3    H1 1470   6.437   6.771   1.183 -2.7297  0.6264  0.4019
  502TIP3    H2 1471   6.460   6.863   1.302 -1.5532  0.1017  0.5919
  503TIP3   OH2 1472   4.752   1.519   4.251  0.0808  0.5845 -0.0507
  503TIP3    H1 1473   4.686   1.588   4.242 -1.6884 -0.4922  3.1067
  503TIP3    H2 1474   4.814   1.553   4.315  0.1005 -0.0902  0.3041
  504TIP3   OH2 1475   3.217   2.917   5.896  0.3840  0.0663 -0.4568
  504TIP3    H1 1476   3.164   2.901   5.819  0.3207  0.7184 -0.5512
  504TIP3    H2 1477   3.223   3.012   5.903 -0.5440  0.0557  0.9758
  505TIP3   OH2 1478   2.282   1.975   5.690  0.0124  0.6213 -0.3111
  505TIP3    H1 1479   2.276   2.070   5.685  0.7469  0.8989  2.5784
  505TIP3    H2 1480   2.196   1.945   5.661 -1.2281  2.3522  1.2823
  506TIP3   OH2 1481   2.139   2.650   3.247 -0.5679  0.3545  0.2776
  506TIP3    H1 1482   2.182   2.689   3.322 -0.9598 -0.5553  0.9965
  506TIP3    H2 1483   2.046   2.654   3.268 -0.5952 -1.6083  0.7404
  507TIP3   OH2 1484   0.683   2.028   4.096  0.0344  0.5562  0.4673
  507TIP3    H1 1485   0.665   1.964   4.164  0.9605  0.6937  0.8422
  507TIP3    H2 1486   0.668   1.980   4.014  0.6929 -0.1392  0.7433
  508TIP3   OH2 1487   4.609   4.284   4.374 -0.1283  0.9131 -0.4120
  508TIP3    H1 1488   4.690   4.234   4.384 -2.0298 -2.2370  0.2658
  508TIP3    H2 1489   4.583   4.305   4.464 -1.2757 -0.2038 -0.4709
  509TIP3   OH2 1490   3.060   1.563   4.625 -1.0130 -0.1915  0.6389
  509TIP3    H1 1491   3.047   1.533   4.715  0.2141 -2.1681  0.2420
  509TIP3    H2 1492   3.135   1.511   4.594 -0.8669  1.0589 -1.2445
  510TIP3   OH2 1493   0.266   2.371   5.811  0.4057 -0.0666  0.3072
  510TIP3    H1 1494   0.257   2.277   5.829  0.6618 -0.2686 -0.5472
  510TIP3    H2 1495   0.353   2.380   5.774  0.5388  0.5823  0.7526
  511TIP3   OH2 1496   4.841   4.909   1.593  0.4238  0.6412  0.3133
  511TIP3    H1 1497   4.791   4.978   1.550  2.1064  3.0278  1.9213
  511TIP3    H2 1498   4.913   4.890   1.533  0.1009  0.4370 -0.0168
  512TIP3   OH2 1499   0.311   3.017   4.628  0.0113 -0.1628 -0.2864
  512TIP3    H1 1500   0.404   3.039   4.641 -0.2842  0.6578  0.5674
  512TIP3    H2 1501   0.310   2.964   4.549  1.4298 -1.6773  0.6345
  513TIP3   OH2 1502   5.829   5.881   1.890  0.2781  0.0115  0.0067
  513TIP3    H1 1503   5.883   5.900   1.967  0.3276  0.0558 -0.0379
  513TIP3    H2 1504   5.767   5.954   1.886  0.4109  0.1205 -0.1142
  514TIP3   OH2 1505   5.685   1.624   3.871  0.1234 -0.1438  0.4744
  514TIP3    H1 1506   5.636   1.674   3.936  0.2002 -0.2736  0.6351
  514TIP3    H2 1507   5.694   1.537   3.910 -0.2900 -0.3751  0.0608
  515TIP3   OH2 1508   4.840   6.240   4.594  0.4148  0.1293  0.5515
  515TIP3    H1 1509   4.830   6.163   4.650  0.2709  1.2986  2.2048
  515TIP3    H2 1510   4.779   6.304   4.631  0.0617  0.8326 -1.1901
  516TIP3   OH2 1511   0.125   5.690   2.629  0.1678  0.0367  0.0865
  516TIP3    H1 1512   0.150   5.772   2.587 -3.4186  2.2918  1.8622
  516TIP3    H2 1513   0.169   5.622   2.577  2.0121  2.9278 -2.4786
  517TIP3   OH2 1514   3.029   6.264   2.654  0.3045 -0.2160  0.1671
  517TIP3    H1 1515   3.078   6.340   2.625 -0.8226  1.1953  1.7129
  517TIP3    H2 1516   3.009   6.216   2.574 -1.8168  2.9093 -1.3933
  518TIP3   OH2 1517   2.400   3.559   1.810  0.2506 -0.3844  0.0111
  518TIP3    H1 1518   2.431   3.487   1.865 -2.0344  0.2976  2.4004
  518TIP3    H2 1519   2.468   3.626   1.817 -0.4791  0.1778  3.1775
  519TIP3   OH2 1520   0.458   6.600   1.562 -0.7012  0.2511 -0.0575
  519TIP3    H1 1521   0.487   6.680   1.606  0.9423 -0.3359  0.0084
  519TIP3    H2 1522   0.537   6.567   1.520 -1.4810 -1.0572 -0.5373
  520TIP3   OH2 1523   1.414   3.716   1.835  0.4740  0.3710 -0.1244
  520TIP3    H1 1524   1.344   3.768   1.873  0.8631  1.1227 -0.4136
  520TIP3    H2 1525   1.369   3.646   1.787 -0.0267 -0.8077  1.9475
  521TIP3   OH2 1526   2.955   5.305   2.392 -0.0938  0.4007  0.1629
  521TIP3    H1 1527   2.931   5.334   2.304  1.8082  2.2635  0.1881
  521TIP3    H2 1528   2.900   5.357   2.451  0.9819  1.6176  0.1235
  522TIP3   OH2 1529   6.510   2.843   5.309 -0.0658 -0.6669  0.0627
  522TIP3    H1 1530   6.477   2.876   5.225 -0.4363  0.8387  0.7639
  522TIP3    H2 1531   6.432   2.836   5.364  0.4271  0.3547  0.9162
  523TIP3   OH2 1532   3.594   3.524   4.546 -0.2849 -0.4764 -0.3693
  523TIP3    H1 1533   3.515   3.578   4.558 -0.4258 -0.8305  0.3687
  523TIP3    H2 1534   3.563   3.447   4.500  0.0234  0.3136 -1.9538
  524TIP3   OH2 1535   3.688   6.645   2.234  0.1680  0.1902 -0.3170
  524TIP3    H1 1536   3.657   6.584   2.301  1.8805 -0.2219  0.1582
  524TIP3    H2 1537   3.625   6.716   2.234 -1.2443 -1.0216 -0.0647
  525TIP3   OH2 1538   2.462   6.108   1.829  0.0196 -0.5767 -0.5614
  525TIP3    H1 1539   2.519   6.032   1.844 -0.5156 -1.2338 -1.6907
  525TIP3    H2 1540   2.379   6.070   1.801 -1.0351  0.3664  1.1777
  526TIP3   OH2 1541   5.022   5.079   1.264  0.1534  0.3296 -0.3204
  526TIP3    H1 1542   5.077   5.116   1.195 -2.5943 -0.4912 -3.1942
  526TIP3    H2 1543   4.981   5.155   1.305  1.9323  0.8393  0.6068
  527TIP3   OH2 1544   7.186   6.285   5.659  0.4303 -0.0646 -0.7190
  527TIP3    H1 1545   7.141   6.255   5.738  0.5203  0.9429 -0.2658
  527TIP3    H2 1546   7.176   6.214   5.597 -0.1828 -0.6181 -0.0013
  528TIP3   OH2 1547   1.390   0.316   1.165  0.4547 -0.4478 -0.1013
  528TIP3    H1 1548   1.393   0.361   1.080  1.9584  0.8308  0.5696
  528TIP3    H2 1549   1.482   0.304   1.188  0.0592 -1.5204  0.9870
  529TIP3   OH2 1550   1.192   6.014   0.467 -0.1469  0.0469  0.0998
  529TIP3    H1 1551   1.188   5.925   0.502 -0.9652 -0.1833 -0.5525
  529TIP3    H2 1552   1.238   6.064   0.534 -0.4478 -0.6805  0.8583
  530TIP3   OH2 1553   7.224   3.957   1.470  0.1157 -0.2023  0.1774
  530TIP3    H1 1554   7.156   3.962   1.537 -1.7118 -0.3532 -1.5591
  530TIP3    H2 1555   7.231   4.045   1.435  0.2836 -0.3457 -0.1619
  531TIP3   OH2 1556   2.021   1.138   5.017  0.2556 -0.6066 -0.2077
  531TIP3    H1 1557   1.970   1.057   5.009 -0.0271 -0.4163 -0.3302
  531TIP3    H2 1558   2.085   1.132   4.946  0.8624 -1.1691  0.3699
  532TIP3   OH2 1559   3.735   1.951   3.021  0.2029 -0.2643  0.2959
  532TIP3    H1 1560   3.720   1.916   3.109 -0.0696  0.8519  0.7091
  532TIP3    H2 1561   3.662   1.918   2.969 -0.8511  0.8357  1.0326
  533TIP3   OH2 1562   1.651   6.737   5.283  0.2701 -0.2816  0.2262
  533TIP3    H1 1563   1.656   6.648   5.247  2.7443  0.5188 -1.7149
  533TIP3    H2 1564   1.644   6.793   5.205 -1.4710  1.2721  1.4123
  534TIP3   OH2 1565   6.330   4.060   0.518  0.3442  0.1692 -0.3841
  534TIP3    H1 1566   6.395   3.990   0.516 -0.3579 -0.4847 -1.2796
  534TIP3    H2 1567   6.338   4.098   0.605  1.0284 -0.7501 -0.0306
  535TIP3   OH2 1568   6.795   2.356   1.506  0.4377  0.0294 -0.1930
  535TIP3    H1 1569   6.721   2.401   1.465  0.4099 -0.6139 -0.8561
  535TIP3    H2 1570   6.838   2.424   1.557 -1.1743  0.2082  1.0054
  536TIP3   OH2 1571   1.016   6.029   0.864  0.3152 -0.1804 -0.4009
  536TIP3    H1 1572   1.026   5.974   0.786  0.1084 -0.5164 -0.1928
  536TIP3    H2 1573   1.065   5.983   0.932  0.0633 -0.1494 -0.2008
  537TIP3   OH2 1574   4.976   0.223   3.627 -0.5226  0.4805 -0.0788
  537TIP3    H1 1575   5.031   0.301   3.633  0.1874 -0.1094  1.6880
  537TIP3    H2 1576   4.969   0.191   3.717 -1.4105 -1.0783 -0.6582
  538TIP3   OH2 1577   2.400   6.179   2.618  0.1163 -0.1028 -0.1479
  538TIP3    H1 1578   2.456   6.169   2.695 -1.7926 -2.9581  1.0146
  538TIP3    H2 1579   2.326   6.232   2.648  0.2474  0.3236 -0.5606
  539TIP3   OH2 1580   0.283   2.669   4.181  0.2233 -0.5075 -0.3488
  539TIP3    H1 1581   0.364   2.718   4.199 -1.2039  1.3586  1.5203
  539TIP3    H2 1582   0.305   2.579   4.204  1.3597  0.2444  1.8940
  540TIP3   OH2 1583   4.985   5.338   1.753  0.2014  0.6638 -0.1619
  540TIP3    H1 1584   5.045   5.289   1.697  1.1368  2.0717 -0.4359
  540TIP3    H2 1585   5.016   5.428   1.748 -1.5448  1.3257  0.2235
  541TIP3   OH2 1586   6.777   6.254   0.186 -0.3884  0.2696  0.4577
  541TIP3    H1 1587   6.685   6.277   0.198 -0.9582 -1.3643 -0.4985
  541TIP3    H2 1588   6.785   6.165   0.220  0.6226  0.0370 -0.3240
  542TIP3   OH2 1589   4.434   2.171   3.929  0.2922  0.0232  0.7315
  542TIP3    H1 1590   4.468   2.260   3.919 -0.1792  0.3123  1.6131
  542TIP3    H2 1591   4.512   2.115   3.934  0.6044  0.1341 -1.7023
  543TIP3   OH2 1592   2.044   0.159   1.529  0.3220  0.3248 -0.1430
  543TIP3    H1 1593   2.001   0.078   1.503  1.8181 -0.9090  1.0961
  543TIP3    H2 1594   2.049   0.155   1.624  4.6238 -0.4507 -0.2094
  544TIP3   OH2 1595   4.306   0.680   1.986 -0.0418 -0.1236  0.7109
  544TIP3    H1 1596   4.231   0.739   1.977  1.5248  1.6101 -3.1534
  544TIP3    H2 1597   4.293   0.614   1.918  1.1981 -0.6615  0.9776
  545TIP3   OH2 1598   1.926   5.258   1.585 -0.2864 -0.1688  0.2508
  545TIP3    H1 1599   2.009   5.225   1.620  0.5075  1.8561  0.3846
  545TIP3    H2 1600   1.895   5.188   1.527  1.5372 -0.9383  0.1373
  546TIP3   OH2 1601   3.997   4.499   2.432 -0.1639 -0.0416 -0.2493
  546TIP3    H1 1602   4.061   4.570   2.440 -0.4778  0.1914  0.2389
  546TIP3    H2 1603   3.992   4.481   2.338 -1.3977  1.7942 -0.5953
  547TIP3   OH2 1604   4.995   2.999   4.894 -0.2005 -0.1350  0.5298
  547TIP3    H1 1605   4.995   3.094   4.891  0.2722 -0.1592 -0.9326
  547TIP3    H2 1606   5.070   2.973   4.841  0.1618 -1.3193  1.5693
  548TIP3   OH2 1607   4.212   3.134   2.796 -0.7291 -0.3359 -0.1153
  548TIP3    H1 1608   4.119   3.111   2.799 -0.6117 -0.8805 -0.4819
  548TIP3    H2 1609   4.256   3.062   2.841 -0.3420 -0.9248 -1.3734
  549TIP3   OH2 1610   6.634   3.471   0.580  0.2993  0.2813  0.4264
  549TIP3    H1 1611   6.718   3.488   0.537 -0.3193 -0.8245 -1.3156
  549TIP3    H2 1612   6.645   3.384   0.618 -0.2721 -0.1821 -0.4397
  550TIP3   OH2 1613   3.669   2.080   2.181  0.5511  0.4336  0.1692
  550TIP3    H1 1614   3.634   2.037   2.102 -0.1786  1.3470 -0.0128
  550TIP3    H2 1615   3.661   2.014   2.249 -1.6393  0.6250  0.1558
  551TIP3   OH2 1616   4.463   0.205   4.530 -0.7733  0.1628 -0.3113
  551TIP3    H1 1617   4.449   0.270   4.599 -2.3047  0.4144 -0.8018
  551TIP3    H2 1618   4.464   0.256   4.449  3.3454  0.1623 -0.4358
  552TIP3   OH2 1619   4.592   5.564   1.279 -0.0809 -0.2621  0.8981
  552TIP3    H1 1620   4.607   5.564   1.184  1.6532  0.7731  1.1416
  552TIP3    H2 1621   4.679   5.560   1.317 -0.7798 -1.3651  2.4836
  553TIP3   OH2 1622   2.638   1.844   4.222 -0.4320 -0.4828 -0.1326
  553TIP3    H1 1623   2.719   1.805   4.189 -0.4909 -1.3613  0.7181
  553TIP3    H2 1624   2.630   1.811   4.311 -1.9866 -0.8177 -0.3669
  554TIP3   OH2 1625   0.072   0.726   0.930  0.5815  0.3024 -1.2627
  554TIP3    H1 1626   0.134   0.747   1.000 -0.5808 -1.0215  0.2670
  554TIP3    H2 1627   0.012   0.801   0.928  0.2030  0.0495 -0.2908
  555TIP3   OH2 1628   3.405   2.450   0.762  0.1943 -0.1425  0.5690
  555TIP3    H1 1629   3.422   2.542   0.741  1.0233 -0.1420  1.2054
  555TIP3    H2 1630   3.386   2.450   0.856  0.4021 -0.6505  0.6110
  556TIP3   OH2 1631   6.013   1.309   2.343  0.2433  0.2709 -0.5043
  556TIP3    H1 1632   6.060   1.231   2.372  1.0528  0.0817 -2.1812
  556TIP3    H2 1633   6.041   1.321   2.252  0.0968  2.4741 -0.3231
  557TIP3   OH2 1634   2.663   3.184   0.613  0.0350  0.1942  0.1860
  557TIP3    H1 1635   2.576   3.161   0.645 -0.3444  0.0666 -0.8969
  557TIP3    H2 1636   2.716   3.106   0.631  0.0956  0.5072  1.4226
  558TIP3   OH2 1637   7.032   3.602   3.347 -0.0336  0.6611 -0.0856
  558TIP3    H1 1638   7.082   3.620   3.426 -0.9352 -1.9243  1.1945
  558TIP3    H2 1639   6.972   3.677   3.339  0.3312  1.1632  1.4753
  559TIP3   OH2 1640   0.708   2.365   2.213 -0.1406 -0.2792  0.1164
  559TIP3    H1 1641   0.762   2.306   2.266  1.5579 -0.2374 -1.4778
  559TIP3    H2 1642   0.707   2.325   2.126  1.0309  1.9580 -1.0024
  560TIP3   OH2 1643   1.406   2.710   0.990  0.4317 -0.0702 -0.1661
  560TIP3    H1 1644   1.322   2.667   1.005 -0.3183  1.3148 -0.1928
  560TIP3    H2 1645   1.468   2.638   0.974 -0.8161 -1.0992 -0.5123
  561TIP3   OH2 1646   1.790   0.961   3.582 -0.2131  0.3280 -0.3742
  561TIP3    H1 1647   1.709   0.918   3.556 -0.3070  0.0690  0.3205
  561TIP3    H2 1648   1.802   0.937   3.674  0.1010  1.2261 -0.1662
  562TIP3   OH2 1649   3.840   1.866   0.702 -0.1448 -0.6691  0.6816
  562TIP3    H1 1650   3.788   1.945   0.717 -0.9146 -1.0923  0.3160
  562TIP3    H2 1651   3.878   1.878   0.615  0.7450 -0.1610  1.1324
  563TIP3   OH2 1652   4.608   6.091   1.530  0.3167  0.4002  0.1884
  563TIP3    H1 1653   4.560   6.030   1.475  0.1674  1.0647 -0.4247
  563TIP3    H2 1654   4.599   6.176   1.487  0.0243  0.9798  1.3352
  564TIP3   OH2 1655   3.248   2.192   2.740  0.0596  0.0812 -0.6578
  564TIP3    H1 1656   3.323   2.190   2.680 -0.6807  0.0063 -1.6097
  564TIP3    H2 1657   3.172   2.180   2.683 -0.6714  0.0491  0.3037
  565TIP3   OH2 1658   4.303   4.394   1.857 -1.1034  0.5957  0.3784
  565TIP3    H1 1659   4.268   4.343   1.784  0.1508 -0.7157  0.6554
  565TIP3    H2 1660   4.270   4.350   1.936 -2.9984  2.3899  0.6577
  566TIP3   OH2 1661   3.502   3.152   1.678  0.2571 -0.0390 -0.1432
  566TIP3    H1 1662   3.543   3.074   1.717  0.4917  0.3280  0.3440
  566TIP3    H2 1663   3.517   3.221   1.742 -0.4332  0.2830 -0.3330
  567TIP3   OH2 1664   5.047   4.692   4.327  0.0048  0.3711 -0.2632
  567TIP3    H1 1665   5.091   4.766   4.285 -0.8541  0.1477 -1.6291
  567TIP3    H2 1666   4.992   4.655   4.258 -0.0589 -1.1696  0.5693
  568TIP3   OH2 1667   3.955  -0.007   4.090  0.2627  0.2161 -0.4990
  568TIP3    H1 1668   3.863  -0.025   4.071  0.0845 -2.2150  1.9883
  568TIP3    H2 1669   3.953   0.044   4.171  1.0293 -1.6817  0.7966
  569TIP3   OH2 1670   0.957   5.661   0.400  0.3152  0.6817 -0.3190
  569TIP3    H1 1671   0.942   5.570   0.375 -0.0626  0.4086  0.8159
  569TIP3    H2 1672   1.017   5.695   0.334  0.5104 -0.4074 -0.7215
  570TIP3   OH2 1673   4.073   1.407   3.141  0.0015  0.5574 -0.1185
  570TIP3    H1 1674   4.122   1.489   3.136  0.0287  0.5301 -0.3264
  570TIP3    H2 1675   4.132   1.341   3.105  0.7311  0.0874  1.8202
  571TIP3   OH2 1676   4.469   4.523   0.309 -0.4676 -0.2320 -0.2620
  571TIP3    H1 1677   4.561   4.537   0.331 -0.4767  0.1024 -0.4386
  571TIP3    H2 1678   4.470   4.496   0.218 -0.5025 -0.7727 -0.1070
  572TIP3   OH2 1679   6.316   5.632   1.589 -0.0828  0.7210  0.0705
  572TIP3    H1 1680   6.350   5.677   1.666 -1.4539  0.8031  0.6518
  572TIP3    H2 1681   6.283   5.702   1.532 -1.5035  0.5413  0.6267
  573TIP3   OH2 1682   3.348   2.287   5.020 -0.0106 -0.3382  0.5119
  573TIP3    H1 1683   3.401   2.242   5.085  1.6828  0.6128 -0.1303
  573TIP3    H2 1684   3.399   2.366   4.998 -1.6416  0.5626 -0.2452
  574TIP3   OH2 1685   4.968   6.785   3.403  0.2980  0.1915 -0.3654
  574TIP3    H1 1686   4.933   6.826   3.324 -0.9971 -2.4832 -1.2948
  574TIP3    H2 1687   4.901   6.799   3.469  0.3752  0.5277 -0.3565
  575TIP3   OH2 1688   0.947   5.438   3.894  0.0315 -0.4634  0.1138
  575TIP3    H1 1689   0.876   5.442   3.958 -0.5570 -0.2281 -0.5355
  575TIP3    H2 1690   0.930   5.513   3.836 -0.7715 -1.9453 -1.6630
  576TIP3   OH2 1691   6.237   2.156   4.392  0.0835 -0.2912 -0.6691
  576TIP3    H1 1692   6.224   2.155   4.297 -0.2696 -0.7715 -0.6200
  576TIP3    H2 1693   6.156   2.120   4.428  0.5588 -0.9445 -0.2311
  577TIP3   OH2 1694   0.585  -0.018   3.619 -0.2188 -0.4089 -0.1366
  577TIP3    H1 1695   0.644   0.011   3.549 -1.6749  0.0291 -1.2213
  577TIP3    H2 1696   0.578   0.057   3.677  1.5529 -0.9993  0.9416
  578TIP3   OH2 1697   0.379   6.470   5.339  0.3900 -0.1087 -0.1605
  578TIP3    H1 1698   0.378   6.418   5.259  1.0929 -0.2756 -0.0708
  578TIP3    H2 1699   0.340   6.412   5.405 -2.4640  0.8721 -0.8335
  579TIP3   OH2 1700   1.975   5.815   5.311 -0.2452  1.0582 -0.1378
  579TIP3    H1 1701   2.044   5.765   5.352  0.1029  1.3833 -0.3178
  579TIP3    H2 1702   2.016   5.852   5.232 -1.1576 -0.3613 -1.3304
  580TIP3   OH2 1703   5.370   3.111   3.282 -0.5319  0.2962 -0.7076
  580TIP3    H1 1704   5.279   3.092   3.304 -0.2155 -0.4678  0.0084
  580TIP3    H2 1705   5.366   3.163   3.202 -1.6107  0.5874 -0.4760
  581TIP3   OH2 1706   2.366   3.170   4.903  0.0451  0.2696  0.0100
  581TIP3    H1 1707   2.438   3.232   4.916  1.1183 -0.8674 -0.2911
  581TIP3    H2 1708   2.321   3.167   4.988 -0.1785  1.6143 -0.0421
  582TIP3   OH2 1709   0.645   5.502   3.417  0.2827  0.4958 -0.4743
  582TIP3    H1 1710   0.639   5.520   3.323 -2.9787  1.4799 -0.2141
  582TIP3    H2 1711   0.585   5.428   3.431 -0.3510  1.2422  0.9765
  583TIP3   OH2 1712   4.982   1.921   2.346  0.2400  0.1947  0.6561
  583TIP3    H1 1713   5.061   1.934   2.293 -1.7840  2.7301 -2.0224
  583TIP3    H2 1714   4.948   2.009   2.360 -3.5590 -0.8649 -0.7791
  584TIP3   OH2 1715   4.010   2.776   2.245 -0.3475  0.3472 -0.1421
  584TIP3    H1 1716   3.974   2.737   2.165 -1.0197 -1.5302  0.9958
  584TIP3    H2 1717   3.972   2.863   2.248 -0.4726  0.3904 -1.7506
  585TIP3   OH2 1718   3.712   0.238   3.560 -0.7146  0.4567  0.1553
  585TIP3    H1 1719   3.734   0.242   3.467 -1.5417 -0.5370 -0.1075
  585TIP3    H2 1720   3.664   0.319   3.577  0.0380  0.9702 -0.1006
  586TIP3   OH2 1721   2.801   2.521   1.166 -0.1913  0.0997 -0.8228
  586TIP3    H1 1722   2.826   2.514   1.074  2.7979  0.8515 -0.1401
  586TIP3    H2 1723   2.855   2.456   1.211 -1.4765 -0.1402  0.4546
  587TIP3   OH2 1724   1.812   4.523   4.963  0.4036  0.6485 -0.5072
  587TIP3    H1 1725   1.732   4.558   4.924 -0.3770 -0.3335  0.1676
  587TIP3    H2 1726   1.797   4.528   5.057  1.8017  1.9291 -0.3018
  588TIP3   OH2 1727   3.887   4.311   0.716  0.1291  0.3291  0.0869
  588TIP3    H1 1728   3.839   4.367   0.655 -0.6469  0.4848  0.8088
  588TIP3    H2 1729   3.861   4.222   0.693 -1.4880  0.4680  1.2319
  589TIP3   OH2 1730   4.065   3.190   1.543 -0.0248 -0.7576 -0.2251
  589TIP3    H1 1731   4.030   3.175   1.455 -0.7642  3.0808 -0.7312
  589TIP3    H2 1732   4.157   3.166   1.536  0.3304  0.9563 -2.5870
  590TIP3   OH2 1733   4.537   5.933   5.197  0.5085  0.1966  0.0204
  590TIP3    H1 1734   4.583   5.856   5.163  0.1485  0.5595 -1.3504
  590TIP3    H2 1735   4.606   5.996   5.214  0.7935 -0.3679  1.0075
  591TIP3   OH2 1736   6.590   2.512   3.395 -0.0435 -0.0429 -0.2191
  591TIP3    H1 1737   6.511   2.531   3.345 -0.1121  0.3666  0.0444
  591TIP3    H2 1738   6.600   2.586   3.454 -0.0941 -0.6319  0.5420
  592TIP3   OH2 1739   5.370   2.848   1.687 -0.2718  0.3586 -0.1113
  592TIP3    H1 1740   5.327   2.829   1.603  0.6236  2.5366 -1.1511
  592TIP3    H2 1741   5.312   2.910   1.731  0.6882  1.6093 -0.5454
  593TIP3   OH2 1742   1.053   4.929   2.359  0.2734  0.3489 -0.2693
  593TIP3    H1 1743   1.022   4.957   2.445 -0.4253  1.8420 -0.9537
  593TIP3    H2 1744   1.008   4.988   2.297 -0.1800 -1.4559 -1.7539
  594TIP3   OH2 1745   2.309   1.197   2.908  0.1763  0.3539  0.2039
  594TIP3    H1 1746   2.347   1.177   2.823 -0.3122  0.5357 -0.0660
  594TIP3    H2 1747   2.358   1.273   2.939  0.7076 -0.0346  0.3297
  595TIP3   OH2 1748   6.943   4.330   3.703 -0.1008 -0.5112  0.2225
  595TIP3    H1 1749   6.889   4.409   3.695  2.2946  0.9885 -3.4047
  595TIP3    H2 1750   7.011   4.355   3.766 -0.8520 -0.7270  1.1522
  596TIP3   OH2 1751   0.054   5.874   1.661 -0.6072  0.2666 -0.8471
  596TIP3    H1 1752   0.110   5.832   1.596  0.0358 -0.3207  0.0512
  596TIP3    H2 1753  -0.021   5.815   1.670  0.6796 -1.2370  1.0109
  597TIP3   OH2 1754   1.178   4.255   2.880 -0.0660  0.0020  0.5447
  597TIP3    H1 1755   1.110   4.259   2.813  0.3885  1.3956  0.1407
  597TIP3    H2 1756   1.175   4.341   2.922  1.1760 -0.0648  0.7976
  598TIP3   OH2 1757   5.386   1.662   0.671  0.2764  0.0310  0.3705
  598TIP3    H1 1758   5.386   1.724   0.599  0.1015 -2.1739 -1.6680
  598TIP3    H2 1759   5.473   1.671   0.711  0.6957  0.7105 -0.6600
  599TIP3   OH2 1760   2.240   5.263   2.404 -0.2104  0.4057  0.4562
  599TIP3    H1 1761   2.170   5.329   2.405 -0.8344 -0.0329 -2.8966
  599TIP3    H2 1762   2.195   5.181   2.429 -0.3773  0.5156  0.5222
  600TIP3   OH2 1763   4.846   2.108   1.771 -0.0352  0.1714 -0.5992
  600TIP3    H1 1764   4.940   2.094   1.777 -0.1433 -0.1594  0.9032
  600TIP3    H2 1765   4.822   2.076   1.684  1.4432  1.6650 -1.6136
  601TIP3   OH2 1766   5.789   2.317   3.973  0.5036  0.5162  0.4330
  601TIP3    H1 1767   5.742   2.379   3.917  0.5145  0.4954  0.4009
  601TIP3    H2 1768   5.729   2.301   4.046 -0.5802 -1.3153 -0.7574
  602TIP3   OH2 1769   3.982   1.307   1.979  0.9594  0.5204  0.1197
  602TIP3    H1 1770   3.942   1.327   2.063 -1.4894  1.2954 -1.1493
  602TIP3    H2 1771   3.991   1.391   1.935  0.1839 -0.0522 -1.2110
  603TIP3   OH2 1772   5.292   3.781   4.834  0.2319  0.2330 -0.0650
  603TIP3    H1 1773   5.221   3.774   4.898  0.8463 -1.0608  0.5091
  603TIP3    H2 1774   5.369   3.803   4.885  0.4434  0.6676 -0.5651
  604TIP3   OH2 1775   5.953   4.589   4.803 -0.1723 -0.3116 -0.5852
  604TIP3    H1 1776   5.973   4.625   4.716  1.2325 -2.8669 -1.4375
  604TIP3    H2 1777   5.895   4.515   4.786 -2.3338  0.9118  1.0126
  605TIP3   OH2 1778   3.046   3.062   4.772 -0.1536  0.5353  0.0372
  605TIP3    H1 1779   3.123   3.017   4.737  0.0508  0.7803  0.1679
  605TIP3    H2 1780   2.984   2.992   4.790 -0.1737  0.3779 -0.5947
  606TIP3   OH2 1781   2.234   3.530   4.035 -0.0502  0.2004 -0.0253
  606TIP3    H1 1782   2.265   3.574   4.114 -1.2859  0.7014  0.2028
  606TIP3    H2 1783   2.204   3.445   4.065  0.7250 -0.1420 -0.1888
  607TIP3   OH2 1784   5.654   2.359   4.245  0.6451 -0.1504  0.4147
  607TIP3    H1 1785   5.738   2.322   4.273 -0.3904 -1.7076  1.6605
  607TIP3    H2 1786   5.588   2.307   4.291 -1.0468  0.5346 -1.0876
  608TIP3   OH2 1787   7.069   1.611   4.003 -0.1805 -0.6038 -0.0466
  608TIP3    H1 1788   7.125   1.601   4.080  1.0527  0.2570 -0.7912
  608TIP3    H2 1789   7.017   1.531   4.000  0.5854 -1.1613  1.0076
  609TIP3   OH2 1790   2.554   4.094   0.093 -0.1577  0.3584 -0.4401
  609TIP3    H1 1791   2.476   4.149   0.088 -2.2111 -2.2336  0.7365
  609TIP3    H2 1792   2.590   4.095   0.004 -0.9832  2.3241 -0.7927
  610TIP3   OH2 1793   0.607   5.344   3.841  0.1931  0.1030  0.0520
  610TIP3    H1 1794   0.559   5.336   3.759  1.0457 -0.5504 -0.3958
  610TIP3    H2 1795   0.554   5.404   3.894  0.1234  1.3246 -1.3352
  611TIP3   OH2 1796   3.874   6.664   5.334 -0.1400 -0.6730  0.4610
  611TIP3    H1 1797   3.822   6.588   5.359 -0.9273  0.2322  1.7658
  611TIP3    H2 1798   3.964   6.633   5.335 -0.4918 -1.7439  0.3079
  612TIP3   OH2 1799   4.855   0.338   2.643 -0.2031  0.8494  0.1464
  612TIP3    H1 1800   4.870   0.430   2.625 -0.0395  0.6314 -0.8782
  612TIP3    H2 1801   4.821   0.302   2.561 -2.0649  0.3817  1.0696
  613TIP3   OH2 1802   1.860   1.247   2.242 -0.5513 -0.5900 -0.3034
  613TIP3    H1 1803   1.917   1.170   2.251  1.3797  0.8917  1.1420
  613TIP3    H2 1804   1.805   1.246   2.321 -0.1699 -0.2414 -0.0279
  614TIP3   OH2 1805   4.002   0.222   3.201 -0.7120  0.0682 -0.6195
  614TIP3    H1 1806   3.927   0.209   3.260  0.1226  0.5471  0.5743
  614TIP3    H2 1807   3.968   0.198   3.114 -2.1800  0.0648 -0.0749
  615TIP3   OH2 1808   1.788   6.488   1.399 -0.0534  0.6417 -0.0297
  615TIP3    H1 1809   1.787   6.481   1.303  1.0574  3.1699 -0.3020
  615TIP3    H2 1810   1.696   6.497   1.423 -0.3468 -0.0793 -0.8220
  616TIP3   OH2 1811   2.479   4.458   3.667  0.3118 -0.2433  0.0520
  616TIP3    H1 1812   2.549   4.408   3.708  0.2539 -2.4642 -2.3321
  616TIP3    H2 1813   2.516   4.489   3.584 -0.9467  0.2036 -0.3729
  617TIP3   OH2 1814   0.173   0.271   1.427  0.4786  0.1470  0.0548
  617TIP3    H1 1815   0.230   0.347   1.430  2.1090 -1.0339  0.0109
  617TIP3    H2 1816   0.142   0.268   1.336 -0.1364  1.1124  0.2212
  618TIP3   OH2 1817   1.220   1.203   4.331 -0.0260  0.1251  0.6717
  618TIP3    H1 1818   1.201   1.176   4.421 -1.5349  4.0094  1.7257
  618TIP3    H2 1819   1.296   1.261   4.339  0.9326 -0.8377 -0.9033
  619TIP3   OH2 1820   1.293   5.557   5.883  0.1071  0.1095 -0.1075
  619TIP3    H1 1821   1.207   5.561   5.841  0.3068 -1.0495 -0.6542
  619TIP3    H2 1822   1.316   5.464   5.882  1.1559  0.3526  0.4634
  620TIP3   OH2 1823   1.515   6.412   0.959 -0.2607  0.3080 -0.5653
  620TIP3    H1 1824   1.498   6.418   0.865 -1.1686  1.6030 -0.3484
  620TIP3    H2 1825   1.470   6.332   0.986 -2.6964  1.5429 -0.7258
  621TIP3   OH2 1826   0.505   1.231   3.256  0.3209  0.4385 -0.0819
  621TIP3    H1 1827   0.435   1.209   3.195  0.4870  0.5776 -0.3248
  621TIP3    H2 1828   0.485   1.180   3.335 -0.4032  0.9736  0.0897
  622TIP3   OH2 1829   4.362   0.911   5.073 -0.1066  0.5968  0.1951
  622TIP3    H1 1830   4.406   0.940   4.993 -0.0380  0.8920  0.3396
  622TIP3    H2 1831   4.415   0.839   5.105 -1.3843 -1.1087 -1.2826
  623TIP3   OH2 1832   2.956   1.910   5.564 -0.1202  0.0804 -0.5539
  623TIP3    H1 1833   3.049   1.916   5.582 -0.2502 -0.9567  0.5597
  623TIP3    H2 1834   2.948   1.834   5.505 -0.2899  0.0146 -0.4467
  624TIP3   OH2 1835   2.791   0.083   2.255 -0.2531 -0.6966 -0.3656
  624TIP3    H1 1836   2.751  -0.001   2.232 -0.9226 -0.3924 -0.3482
  624TIP3    H2 1837   2.767   0.096   2.347 -0.0868 -0.5259 -0.3468
  625TIP3   OH2 1838   6.541   3.672   1.771  0.2772  0.3401 -0.0814
  625TIP3    H1 1839   6.631   3.639   1.784  0.4492  1.0457  0.5905
  625TIP3    H2 1840   6.530   3.737   1.840 -1.3863 -1.0067  1.0227
  626TIP3   OH2 1841   6.641   4.795   0.679 -0.4415  0.9830 -0.3663
  626TIP3    H1 1842   6.571   4.837   0.629  0.5351  2.5917 -0.4460
  626TIP3    H2 1843   6.687   4.867   0.722  0.5398 -0.1257  0.5162
  627TIP3   OH2 1844   3.115   4.085   3.490  0.0261 -0.4053 -0.1668
  627TIP3    H1 1845   3.059   4.155   3.457  0.5433 -0.0107 -0.2318
  627TIP3    H2 1846   3.130   4.029   3.415  1.8587  0.9241 -0.8749
  628TIP3   OH2 1847   3.370   0.601   5.066  0.5414  0.3682  0.1949
  628TIP3    H1 1848   3.433   0.559   5.007 -0.4349  0.7222 -1.1473
  628TIP3    H2 1849   3.327   0.667   5.011  0.4450  1.5622  1.6484
  629TIP3   OH2 1850   7.134   0.335   0.170  0.5999 -0.1967 -0.0252
  629TIP3    H1 1851   7.083   0.258   0.146 -0.0688  0.4330 -0.6806
  629TIP3    H2 1852   7.211   0.300   0.215 -0.6806 -1.1549  1.5587
  630TIP3   OH2 1853   4.643   1.953   0.522 -0.3363 -0.3277  0.4294
  630TIP3    H1 1854   4.625   1.864   0.553  0.3736  0.3788  3.2244
  630TIP3    H2 1855   4.717   1.943   0.462 -1.0228 -1.7153 -0.2323
  631TIP3   OH2 1856   1.422   2.405   2.684  0.1329  0.0451 -0.2927
  631TIP3    H1 1857   1.456   2.494   2.675 -0.8846  0.4033 -0.6596
  631TIP3    H2 1858   1.397   2.398   2.776  2.9493 -0.8886  0.5178
  632TIP3   OH2 1859   2.946   3.571   0.077 -0.8413 -0.0816 -0.3197
  632TIP3    H1 1860   2.931   3.548   0.169 -1.2275  0.8299 -0.1425
  632TIP3    H2 1861   2.951   3.487   0.032  0.2816 -0.5617  0.6670
  633TIP3   OH2 1862   5.329   0.829   2.594  0.3719 -0.8636  0.0182
  633TIP3    H1 1863   5.240   0.847   2.561  0.6542 -2.9870 -2.1782
  633TIP3    H2 1864   5.315   0.788   2.679 -0.8903 -2.2076 -0.7767
  634TIP3   OH2 1865   2.963   6.303   2.917 -0.4116 -0.3204 -0.0823
  634TIP3    H1 1866   3.012   6.308   2.835 -0.5189  0.6592 -0.0968
  634TIP3    H2 1867   2.943   6.210   2.927  1.9448 -0.8477  0.2322
  635TIP3   OH2 1868   1.041   3.717   5.375  0.1588 -0.8194 -0.0700
  635TIP3    H1 1869   1.069   3.631   5.406 -0.4976 -0.7422  0.7810
  635TIP3    H2 1870   1.024   3.705   5.282 -0.8245 -1.8545  0.2247
  636TIP3   OH2 1871   6.479   0.687   1.245 -0.3745  0.4176  0.6872
  636TIP3    H1 1872   6.484   0.639   1.162  0.6321 -0.4482  1.2384
  636TIP3    H2 1873   6.396   0.658   1.284 -1.3800  1.6085 -0.4546
  637TIP3   OH2 1874   4.617   1.476   1.205  0.0092 -0.1127 -0.1636
  637TIP3    H1 1875   4.674   1.406   1.238  1.0354  0.6067 -0.3301
  637TIP3    H2 1876   4.592   1.525   1.283  1.2013  0.6918 -0.2552
  638TIP3   OH2 1877   0.181   5.241   1.472  0.4288  0.2017  0.5955
  638TIP3    H1 1878   0.168   5.174   1.539 -0.6088  0.1023  0.3021
  638TIP3    H2 1879   0.188   5.323   1.521 -0.2295  0.1155  0.8417
  639TIP3   OH2 1880   4.057   1.234   1.253  0.7387 -0.6158 -0.0037
  639TIP3    H1 1881   3.983   1.237   1.192 -1.0142  2.4327  1.9752
  639TIP3    H2 1882   4.106   1.156   1.228 -1.6375 -1.3147 -3.1516
  640TIP3   OH2 1883   3.439   5.804   3.161  0.0011  0.0995  0.2098
  640TIP3    H1 1884   3.408   5.884   3.119 -0.5630 -1.3821 -2.4657
  640TIP3    H2 1885   3.400   5.734   3.109  0.0104 -1.9613  2.7818
  641TIP3   OH2 1886   4.379   5.957   0.205  0.2965 -0.3855 -0.1956
  641TIP3    H1 1887   4.337   5.940   0.120 -1.9925  0.6638  0.6285
  641TIP3    H2 1888   4.401   6.050   0.202 -0.2132 -0.2322  0.4923
  642TIP3   OH2 1889   5.694   1.585   4.659 -0.2467  0.0696  0.0126
  642TIP3    H1 1890   5.725   1.494   4.653 -1.0923 -0.2713  0.6523
  642TIP3    H2 1891   5.615   1.580   4.713  0.0991  1.2840  0.6733
  643TIP3   OH2 1892   3.311   5.572   2.999  0.4878 -0.4199 -0.2229
  643TIP3    H1 1893   3.217   5.559   3.014  0.8735 -0.9336  2.2746
  643TIP3    H2 1894   3.325   5.548   2.908 -1.6167 -1.4692 -0.3170
  644TIP3   OH2 1895   3.337   6.814   1.121 -0.2630 -0.8485  0.5747
  644TIP3    H1 1896   3.384   6.737   1.087  1.5277  0.3492  0.1768
  644TIP3    H2 1897   3.398   6.852   1.185 -2.0216 -0.9500  2.4069
  645TIP3   OH2 1898  -0.018   5.482   1.858  0.2462  0.3863 -0.0102
  645TIP3    H1 1899  -0.003   5.387   1.857 -0.4060  0.2647 -2.2390
  645TIP3    H2 1900   0.066   5.518   1.886  0.5109 -0.8322  0.8788
  646TIP3   OH2 1901   5.628   2.440   4.624 -0.0873  0.2954  0.2519
  646TIP3    H1 1902   5.694   2.507   4.604  0.7027 -0.6414 -0.4115
  646TIP3    H2 1903   5.679   2.363   4.649 -1.0079  0.2781  2.1967
  647TIP3   OH2 1904   4.987   6.640   4.678 -0.3831  0.2801  0.0123
  647TIP3    H1 1905   4.976   6.607   4.767  0.7418 -1.1009 -0.3278
  647TIP3    H2 1906   4.933   6.720   4.676 -1.9932 -0.6985  1.3216
  648TIP3   OH2 1907   4.478   3.539   0.632  0.3875  0.7213  0.0728
  648TIP3    H1 1908   4.548   3.479   0.659 -0.5703  0.4471  2.1588
  648TIP3    H2 1909   4.397   3.494   0.655 -0.4643  1.4320 -1.4121
  649TIP3   OH2 1910   3.597   5.542   5.030  0.7425 -0.0696  0.5477
  649TIP3    H1 1911   3.627   5.632   5.018 -2.2206  0.9053 -0.3977
  649TIP3    H2 1912   3.598   5.504   4.942  0.8282 -0.5771  0.7619
  650TIP3   OH2 1913   2.246   5.243   1.015 -0.2931 -0.3043  0.3322
  650TIP3    H1 1914   2.163   5.291   1.021 -1.0677 -1.4677 -0.5445
  650TIP3    H2 1915   2.269   5.224   1.106  1.0336  3.2126  0.9166
  651TIP3   OH2 1916   3.521   4.083   2.158  0.0512  0.2457 -0.2408
  651TIP3    H1 1917   3.497   4.153   2.219 -0.6170  0.2811 -0.5420
  651TIP3    H2 1918   3.617   4.088   2.154 -0.0174  1.7783 -0.9843
  652TIP3   OH2 1919   4.274   5.773   3.746 -0.3045 -0.2447  0.3770
  652TIP3    H1 1920   4.305   5.862   3.762 -0.1821 -0.3177  0.5475
  652TIP3    H2 1921   4.332   5.740   3.678 -1.2148  0.2825 -0.6916
  653TIP3   OH2 1922   4.872   0.614   1.992 -0.1293  0.0300 -0.4585
  653TIP3    H1 1923   4.835   0.532   2.026  0.8858  0.3127  1.4750
  653TIP3    H2 1924   4.799   0.675   1.990 -0.9716 -0.9794 -2.2282
  654TIP3   OH2 1925   6.117   5.842   1.446  0.3899  0.1383  0.0320
  654TIP3    H1 1926   6.070   5.781   1.389  1.9715 -1.7052  0.6134
  654TIP3    H2 1927   6.087   5.819   1.534 -0.1716  1.3123  0.1765
  655TIP3   OH2 1928   5.640   3.950   2.035  0.3838  0.4437 -0.4277
  655TIP3    H1 1929   5.711   3.991   1.985  0.7919 -0.3482 -0.5209
  655TIP3    H2 1930   5.627   4.008   2.110  1.4945  0.3336 -0.1316
  656TIP3   OH2 1931   4.026   0.346   4.095  0.3652  0.0546  0.5147
  656TIP3    H1 1932   4.069   0.426   4.066  0.3683 -0.2242 -0.2878
  656TIP3    H2 1933   4.000   0.302   4.014  1.0384 -1.1174  0.8958
  657TIP3   OH2 1934   4.771   3.721   2.271 -0.3022 -0.4989 -0.4824
  657TIP3    H1 1935   4.865   3.706   2.268 -0.0043  0.7177  1.3458
  657TIP3    H2 1936   4.733   3.635   2.287  0.7720 -0.5867  2.0227
  658TIP3   OH2 1937   0.410   5.454   2.326 -0.2244 -0.5574 -0.4829
  658TIP3    H1 1938   0.435   5.528   2.382 -0.6057 -0.3456 -0.5880
  658TIP3    H2 1939   0.449   5.476   2.241 -1.0495 -0.0543 -0.7402
  659TIP3   OH2 1940   3.925   6.436   1.539 -0.1296  0.3992  0.5087
  659TIP3    H1 1941   3.992   6.429   1.470  1.5932 -0.1641  2.1524
  659TIP3    H2 1942   3.843   6.446   1.491  0.9114 -0.5774 -1.6454
  660TIP3   OH2 1943   4.325   2.760   3.734 -0.2362 -0.3840  0.2505
  660TIP3    H1 1944   4.351   2.796   3.649 -2.1331 -1.3464 -0.7949
  660TIP3    H2 1945   4.362   2.821   3.798  1.2612  0.3551 -1.2437
  661TIP3   OH2 1946   2.325   5.109   1.253 -0.0391  0.1066 -0.4702
  661TIP3    H1 1947   2.229   5.110   1.251 -0.1407  3.3551 -0.0184
  661TIP3    H2 1948   2.349   5.020   1.228 -3.1939 -1.3898  1.2352
  662TIP3   OH2 1949   4.797   5.478   0.392  0.4240  0.1846 -0.4763
  662TIP3    H1 1950   4.831   5.475   0.481  0.6289  0.4736 -0.5426
  662TIP3    H2 1951   4.866   5.521   0.342 -0.4604  1.7774 -0.4055
  663TIP3   OH2 1952   3.966   3.672   1.351 -0.1738  0.1082 -0.2692
  663TIP3    H1 1953   4.034   3.627   1.402 -0.6548 -1.6747 -1.1147
  663TIP3    H2 1954   3.907   3.707   1.417  2.1560  2.8656  0.5614
  664TIP3   OH2 1955   0.825   4.760   2.427  0.3138 -0.6925 -0.4553
  664TIP3    H1 1956   0.879   4.764   2.505 -0.3954 -2.3183  0.1585
  664TIP3    H2 1957   0.874   4.811   2.362  0.4991  1.4428  1.2337
  665TIP3   OH2 1958   0.439   3.188   4.228  0.7811  0.5577 -0.1908
  665TIP3    H1 1959   0.442   3.094   4.215  0.4204  0.6001 -0.6001
  665TIP3    H2 1960   0.406   3.223   4.146 -0.1332  0.9510  0.3301
  666TIP3   OH2 1961   4.847   5.799   1.440 -0.0290 -0.0235 -0.3509
  666TIP3    H1 1962   4.922   5.742   1.456 -0.4678 -0.0418  1.9640
  666TIP3    H2 1963   4.881   5.869   1.385  1.5001 -0.4473  0.0082
  667TIP3   OH2 1964   0.825   4.861   0.209  0.3030 -0.1758  0.5686
  667TIP3    H1 1965   0.899   4.824   0.256 -0.8328  0.2192  2.8248
  667TIP3    H2 1966   0.810   4.801   0.136  0.5468 -2.3465  2.2098
  668TIP3   OH2 1967   4.373   4.793   3.561 -0.1156  0.3789  0.1372
  668TIP3    H1 1968   4.385   4.759   3.473  0.4409 -0.3639  0.4842
  668TIP3    H2 1969   4.280   4.786   3.578 -0.3564  1.2872 -0.6774
  669TIP3   OH2 1970   5.757   5.569   5.330 -0.7825  0.4324 -0.6571
  669TIP3    H1 1971   5.788   5.543   5.416  1.2918  1.8673 -0.8876
  669TIP3    H2 1972   5.688   5.633   5.348 -0.8795  0.1692 -0.0749
  670TIP3   OH2 1973   6.040   0.752   5.837  1.0625 -0.2553 -0.1825
  670TIP3    H1 1974   6.100   0.692   5.792  2.0047  0.0992  0.5676
  670TIP3    H2 1975   5.985   0.787   5.767  2.0206 -0.2630 -0.9650
  671TIP3   OH2 1976   1.403   4.331   1.402  0.1372 -0.0128  0.4500
  671TIP3    H1 1977   1.362   4.398   1.347  0.1768  0.4364  0.9506
  671TIP3    H2 1978   1.354   4.336   1.484  0.2603 -0.4788  0.5516
  672TIP3   OH2 1979   6.125   2.199   1.464 -0.0469 -0.6072 -0.3134
  672TIP3    H1 1980   6.117   2.180   1.558  1.0024 -0.8390 -0.2509
  672TIP3    H2 1981   6.155   2.117   1.425  0.2759 -0.3013 -0.7260
  673TIP3   OH2 1982   5.977   4.423   5.165 -0.6536 -0.2560  0.3354
  673TIP3    H1 1983   5.992   4.443   5.258 -1.2112  0.2140  0.3296
  673TIP3    H2 1984   6.060   4.388   5.134  0.3500  1.9776  0.3614
  674TIP3   OH2 1985   3.099   1.143   2.369  0.2548 -0.4364 -0.0579
  674TIP3    H1 1986   3.080   1.157   2.276  0.4034 -0.9072 -0.1617
  674TIP3    H2 1987   3.060   1.218   2.413 -0.2717 -0.4737 -0.4501
  675TIP3   OH2 1988   1.417   4.098   5.515 -0.3136 -0.7321  0.3194
  675TIP3    H1 1989   1.382   4.064   5.433  2.1315 -1.8584 -0.3503
  675TIP3    H2 1990   1.493   4.043   5.533  1.4835  1.8832  1.2997
  676TIP3   OH2 1991   1.216   6.247   4.598  0.0076  0.3393 -0.0132
  676TIP3    H1 1992   1.261   6.167   4.627 -1.3146  0.3523  2.3395
  676TIP3    H2 1993   1.254   6.316   4.652 -3.8928  0.0735  3.5461
  677TIP3   OH2 1994   2.460   6.285   4.557  0.0033 -0.3117 -0.6129
  677TIP3    H1 1995   2.365   6.294   4.557  0.1132  1.1797  0.4730
  677TIP3    H2 1996   2.489   6.330   4.636  1.6184 -0.7844 -0.8908
  678TIP3   OH2 1997   3.269   6.414   2.838 -0.3622  0.2716 -0.9477
  678TIP3    H1 1998   3.250   6.458   2.921  2.1054  1.6108 -0.9855
  678TIP3    H2 1999   3.261   6.483   2.772  1.7734  0.3118 -1.2462
  679TIP3   OH2 2000   3.859   2.576   1.056 -0.1895  0.5767  0.5024
  679TIP3    H1 2001   3.925   2.518   1.095  0.9766  0.2747 -1.7318
  679TIP3    H2 2002   3.776   2.543   1.089  0.1311 -4.0157 -2.2937
  680TIP3   OH2 2003   4.907   2.165   5.700  0.2542 -0.6164  0.6064
  680TIP3    H1 2004   4.889   2.119   5.782  1.7956 -0.3076  1.1578
  680TIP3    H2 2005   4.991   2.128   5.670  0.6159  0.5497  0.1247
  681TIP3   OH2 2006   1.461   4.036   1.407  0.1711 -0.4176  0.0922
  681TIP3    H1 2007   1.469   4.001   1.496 -0.1635  1.7583  1.0337
  681TIP3    H2 2008   1.433   4.127   1.419  2.2258  0.6186 -2.1515
  682TIP3   OH2 2009   5.436   5.768   1.665  0.9680  0.0338  0.4270
  682TIP3    H1 2010   5.358   5.713   1.678 -0.4819  2.0860  0.8522
  682TIP3    H2 2011   5.445   5.817   1.747  1.0522  1.8101 -0.5976
  683TIP3   OH2 2012   2.257   2.795   1.349 -0.3268 -0.0677  0.4737
  683TIP3    H1 2013   2.232   2.847   1.272  0.4845  0.5431  0.6141
  683TIP3    H2 2014   2.235   2.850   1.423  0.0582 -0.1407  0.6424
  684TIP3   OH2 2015   2.046   1.103   5.893  0.2795  0.3978  0.2863
  684TIP3    H1 2016   2.088   1.030   5.849  2.5607  1.4004  0.6309
  684TIP3    H2 2017   2.111   1.174   5.888 -1.0550  1.7906  1.6306
  685TIP3   OH2 2018   6.061   0.859   5.123 -0.2580  0.3821 -0.2419
  685TIP3    H1 2019   6.134   0.833   5.066 -0.8632 -0.6646 -0.5583
  685TIP3    H2 2020   6.032   0.943   5.087  0.7383  0.7685 -0.1604
  686TIP3   OH2 2021   6.730   0.179   3.453 -0.1220  0.1134  0.8030
  686TIP3    H1 2022   6.698   0.216   3.535  0.2382 -0.5630  1.2604
  686TIP3    H2 2023   6.762   0.254   3.404  0.1210  0.4706  1.4950
  687TIP3   OH2 2024   2.989   0.365   5.709  0.1092 -0.0879 -0.4542
  687TIP3    H1 2025   3.042   0.341   5.785  0.4725 -0.7362 -0.8981
  687TIP3    H2 2026   2.951   0.282   5.680 -1.2654  0.3796 -0.0698
  688TIP3   OH2 2027   2.956   5.715   3.622 -0.1004 -0.0273  0.1347
  688TIP3    H1 2028   3.047   5.704   3.649 -0.0668 -0.8261 -0.2627
  688TIP3    H2 2029   2.905   5.679   3.695 -0.1411  1.1690  0.7224
  689TIP3   OH2 2030   5.989   2.213   5.656 -0.3947  0.1214 -0.1120
  689TIP3    H1 2031   5.939   2.169   5.724  1.6043 -0.5160  1.0250
  689TIP3    H2 2032   6.068   2.245   5.700 -0.8076  3.1493 -1.3296
  690TIP3   OH2 2033   3.021   2.152   0.273  0.2002  0.4881  0.1207
  690TIP3    H1 2034   2.944   2.165   0.217  0.2360  0.2038  0.0073
  690TIP3    H2 2035   2.986   2.147   0.361 -0.0475 -0.9556 -0.0443
  691TIP3   OH2 2036   1.362   1.011   3.016 -0.0385 -0.0629 -0.1794
  691TIP3    H1 2037   1.294   1.070   2.984 -1.5115 -1.7469 -0.3311
  691TIP3    H2 2038   1.319   0.960   3.085  0.6296 -2.1475 -1.2255
  692TIP3   OH2 2039   2.250   6.267   4.274 -0.2614 -0.1319  0.0687
  692TIP3    H1 2040   2.216   6.252   4.362  0.5772  1.2149  0.6546
  692TIP3    H2 2041   2.206   6.347   4.245 -0.6664 -0.6637 -0.8293
  693TIP3   OH2 2042   5.315   4.685   1.512  0.3767  0.3233  0.1977
  693TIP3    H1 2043   5.242   4.708   1.570  0.0003  0.8925 -0.4930
  693TIP3    H2 2044   5.282   4.702   1.424  1.4560  0.8960 -0.1047
  694TIP3   OH2 2045   1.866   5.856   1.041  0.0529 -0.3299  0.2421
  694TIP3    H1 2046   1.863   5.767   1.006 -0.2759  0.1357 -0.9729
  694TIP3    H2 2047   1.953   5.888   1.018 -0.4259  0.2352 -0.8372
  695TIP3   OH2 2048   2.431   3.458   0.070  0.1391 -0.5515 -0.0808
  695TIP3    H1 2049   2.386   3.395   0.126  1.0369 -0.1785  1.0770
  695TIP3    H2 2050   2.360   3.507   0.028 -0.5769  0.5013  2.2373
  696TIP3   OH2 2051   3.571   1.169   0.618 -0.6399  0.5140  0.0216
  696TIP3    H1 2052   3.486   1.149   0.579 -0.7390 -0.0422  0.4946
  696TIP3    H2 2053   3.551   1.224   0.693 -0.7547 -0.8873  1.0633
  697TIP3   OH2 2054   3.680   4.701   3.588 -0.0560 -0.1460  0.0580
  697TIP3    H1 2055   3.743   4.710   3.659 -0.8984 -0.1103  0.8323
  697TIP3    H2 2056   3.596   4.724   3.628 -0.5489 -0.1123 -0.9589
  698TIP3   OH2 2057   4.424   6.561   0.693 -0.3721 -0.5414 -0.7646
  698TIP3    H1 2058   4.438   6.470   0.721  2.0143  0.3355  1.2859
  698TIP3    H2 2059   4.344   6.588   0.738 -0.7814 -1.4258 -0.9285
  699TIP3   OH2 2060   6.264   2.955   3.127 -0.2705  0.5945 -0.5662
  699TIP3    H1 2061   6.267   3.046   3.156  2.5258 -0.1099  1.8166
  699TIP3    H2 2062   6.188   2.918   3.172  1.6010  0.5751  2.9439
  700TIP3   OH2 2063   4.644   5.754   2.351 -0.4450  0.0052 -0.8576
  700TIP3    H1 2064   4.687   5.682   2.305 -2.0852 -0.0188 -2.4553
  700TIP3    H2 2065   4.592   5.798   2.284 -0.6274  1.8218  0.3850
  701TIP3   OH2 2066   2.364   0.592   0.912 -1.0748 -0.6991  0.1022
  701TIP3    H1 2067   2.360   0.601   0.817  0.5731  0.5021  0.0931
  701TIP3    H2 2068   2.455   0.564   0.930 -1.2501 -0.5493  1.3459
  702TIP3   OH2 2069   6.137   6.568   3.225 -0.2791  0.6482 -0.1364
  702TIP3    H1 2070   6.067   6.609   3.277  1.3655  0.9890  1.9650
  702TIP3    H2 2071   6.216   6.617   3.248  1.1373 -1.3890 -0.3477
  703TIP3   OH2 2072   4.881   0.172   4.116  0.2967  0.3255  0.4039
  703TIP3    H1 2073   4.888   0.087   4.160  0.7970  0.0143 -0.2533
  703TIP3    H2 2074   4.869   0.235   4.186  0.1915 -0.2641  0.9201
  704TIP3   OH2 2075   1.051   1.746   0.677  0.1689  0.2376 -0.0423
  704TIP3    H1 2076   0.980   1.791   0.721  1.7297  0.9129  1.9328
  704TIP3    H2 2077   1.105   1.816   0.640  0.5671 -0.1859 -0.2817
  705TIP3   OH2 2078   4.628   6.822   3.866  0.6185  0.2926  0.0425
  705TIP3    H1 2079   4.586   6.808   3.782  0.3733  0.8747  0.0668
  705TIP3    H2 2080   4.688   6.748   3.875 -0.2047 -0.4078 -0.1008
  706TIP3   OH2 2081   2.747   4.497   1.669  0.3316  0.1346  0.6741
  706TIP3    H1 2082   2.701   4.541   1.597 -0.1241 -2.2168 -0.5843
  706TIP3    H2 2083   2.820   4.554   1.691 -1.2123  2.3355  0.3890
  707TIP3   OH2 2084   3.646   0.845   0.519  0.1879 -0.0665  0.1979
  707TIP3    H1 2085   3.596   0.926   0.513  0.2123 -0.0078  0.7603
  707TIP3    H2 2086   3.598   0.792   0.582  0.3364 -0.3740  0.0557
  708TIP3   OH2 2087   7.117   2.289   5.088 -0.0031  0.1685 -0.2063
  708TIP3    H1 2088   7.178   2.249   5.027 -0.4180 -1.3930  0.3470
  708TIP3    H2 2089   7.032   2.249   5.067 -0.1475 -0.4418  1.3775
  709TIP3   OH2 2090   1.812   2.158   2.495 -0.7106 -0.1407  0.1247
  709TIP3    H1 2091   1.764   2.219   2.551 -0.1905  1.7249 -1.3519
  709TIP3    H2 2092   1.744   2.104   2.454 -1.5677  1.8727 -1.2519
  710TIP3   OH2 2093   7.018   4.674   4.618 -0.4644  0.4929  0.2281
  710TIP3    H1 2094   7.091   4.723   4.656 -0.3896  0.6001 -0.0569
  710TIP3    H2 2095   7.058   4.619   4.550 -0.6574  0.5960  0.0311
  711TIP3   OH2 2096   3.643   4.019   5.241  0.1467 -0.4255  0.3207
  711TIP3    H1 2097   3.685   4.078   5.178 -0.0629 -0.1371  0.4490
  711TIP3    H2 2098   3.706   3.948   5.253  0.4956 -0.1174  0.3269
  712TIP3   OH2 2099   2.781   1.368   5.587  0.1031  0.0667  0.5247
  712TIP3    H1 2100   2.816   1.294   5.637  0.8876  1.6122  2.4121
  712TIP3    H2 2101   2.697   1.387   5.628 -0.0297  0.3158  0.1369
  713TIP3   OH2 2102   6.290   3.775   0.277 -0.5156  0.0383 -1.0727
  713TIP3    H1 2103   6.360   3.723   0.316 -0.0499  0.5305 -1.2453
  713TIP3    H2 2104   6.319   3.791   0.187 -0.5094  0.8435 -0.9359
  714TIP3   OH2 2105   1.251   2.781   4.052 -0.2603  0.0264 -0.0681
  714TIP3    H1 2106   1.208   2.698   4.032  1.3744 -1.3442  1.7315
  714TIP3    H2 2107   1.213   2.810   4.134  0.4436  0.1027  0.2417
  715TIP3   OH2 2108   6.539   2.123   2.295  0.3208  0.2889 -0.2644
  715TIP3    H1 2109   6.530   2.200   2.353 -1.1525  0.0435 -0.1253
  715TIP3    H2 2110   6.612   2.145   2.237 -0.8935  2.3994 -1.1021
  716TIP3   OH2 2111   1.958   5.629   0.923 -0.0059  0.1390 -0.0358
  716TIP3    H1 2112   1.878   5.581   0.902  1.1592 -2.3387  0.8051
  716TIP3    H2 2113   1.999   5.646   0.838 -0.7613  0.2608 -0.3844
  717TIP3   OH2 2114   4.001   0.670   3.775  0.0784  0.2469  0.7074
  717TIP3    H1 2115   3.934   0.734   3.796 -0.6178  0.5024 -1.9972
  717TIP3    H2 2116   3.957   0.585   3.784 -1.1801  0.4455 -2.4410
  718TIP3   OH2 2117   6.041   3.457   4.243 -0.6707 -0.3541 -0.1036
  718TIP3    H1 2118   6.133   3.467   4.218 -0.3003 -1.0491  0.9281
  718TIP3    H2 2119   5.994   3.450   4.160  0.2854 -0.7041 -0.6287
  719TIP3   OH2 2120   5.000   1.212   5.153 -0.1918 -0.2188 -0.5179
  719TIP3    H1 2121   4.939   1.142   5.130 -0.8822 -0.0519  0.7041
  719TIP3    H2 2122   5.054   1.175   5.222 -0.5858  0.4488  0.1582
  720TIP3   OH2 2123   0.484   5.704   3.569  0.2399  0.6360 -0.1114
  720TIP3    H1 2124   0.529   5.657   3.499  1.7501  1.0737  0.5143
  720TIP3    H2 2125   0.549   5.712   3.639 -1.0231  0.7467  1.1100
  721TIP3   OH2 2126   7.023   2.040   1.207 -0.0975  0.6088 -0.3011
  721TIP3    H1 2127   6.928   2.048   1.204 -0.1339  0.0624 -1.1570
  721TIP3    H2 2128   7.039   1.946   1.222  0.2722  0.1344 -3.1037
  722TIP3   OH2 2129   6.289   6.147   4.459 -0.2859 -0.0685 -0.0594
  722TIP3    H1 2130   6.242   6.119   4.380  2.5204  0.8401 -2.2383
  722TIP3    H2 2131   6.298   6.241   4.448 -0.6362  0.2298  1.9096
  723TIP3   OH2 2132   3.538   1.591   3.000  0.3929  0.2495  0.4639
  723TIP3    H1 2133   3.524   1.619   3.090 -0.3922  1.9106 -0.1237
  723TIP3    H2 2134   3.627   1.622   2.979  1.8681 -2.8510  1.5567
  724TIP3   OH2 2135   4.102   6.037   2.066 -0.3883 -0.0621 -0.1759
  724TIP3    H1 2136   4.156   6.031   1.987 -2.1083  0.4108 -1.4420
  724TIP3    H2 2137   4.020   6.076   2.036 -0.7062  1.1756  2.0504
  725TIP3   OH2 2138   5.032   4.700   2.487 -0.2677 -0.0487  0.0635
  725TIP3    H1 2139   5.005   4.618   2.446  0.5277  0.3739 -1.3704
  725TIP3    H2 2140   4.964   4.763   2.463 -0.7740 -0.2225  0.9960
  726TIP3   OH2 2141   6.623   6.643   3.076  0.4950 -0.4591  0.4301
  726TIP3    H1 2142   6.553   6.589   3.039  0.2688  0.2850 -0.2397
  726TIP3    H2 2143   6.700   6.623   3.022  0.2734  0.2972 -0.1777
  727TIP3   OH2 2144   5.013   3.622   4.102  0.2375  0.1553 -0.2082
  727TIP3    H1 2145   4.973   3.600   4.018  0.3750 -1.6923  0.1801
  727TIP3    H2 2146   5.092   3.671   4.079  0.0268  0.0851 -1.1227
  728TIP3   OH2 2147   4.565   4.093   2.051 -0.2800  0.0419  0.2207
  728TIP3    H1 2148   4.633   4.132   2.107  2.8901 -2.8431 -1.2137
  728TIP3    H2 2149   4.557   4.003   2.082 -1.8275 -0.3399 -1.1238
  729TIP3   OH2 2150   1.762   2.892   2.387 -0.4472 -0.6013 -0.1385
  729TIP3    H1 2151   1.812   2.873   2.466  0.7327 -0.1205 -0.7391
  729TIP3    H2 2152   1.818   2.862   2.315 -0.6040  0.7790 -0.8690
  730TIP3   OH2 2153   6.139   5.178   4.290  0.6285 -0.1617 -0.2566
  730TIP3    H1 2154   6.076   5.111   4.318  0.8738  0.1279  1.0380
  730TIP3    H2 2155   6.224   5.140   4.310  0.7754  0.4676  0.3244
  731TIP3   OH2 2156   2.354   6.621   4.761  0.1341 -0.5676 -0.4243
  731TIP3    H1 2157   2.341   6.660   4.675  1.5511  2.1970  0.5131
  731TIP3    H2 2158   2.266   6.595   4.789 -0.9396  1.9873 -1.1638
  732TIP3   OH2 2159   3.196   4.392   4.174  0.4639  0.8078  0.3912
  732TIP3    H1 2160   3.246   4.414   4.253  1.2320  0.6332 -0.0454
  732TIP3    H2 2161   3.258   4.345   4.118 -0.8784 -1.7511  0.9171
  733TIP3   OH2 2162   7.161   2.855   1.019  0.1469 -0.0147 -0.3379
  733TIP3    H1 2163   7.155   2.800   0.941  0.7751  2.7513 -2.4895
  733TIP3    H2 2164   7.070   2.867   1.046  0.0228 -3.0109  1.0330
  734TIP3   OH2 2165   3.633   4.424   4.406 -0.2383 -0.1615  0.4789
  734TIP3    H1 2166   3.719   4.391   4.378 -0.7442 -2.8397  1.7569
  734TIP3    H2 2167   3.642   4.519   4.404  1.8937 -0.3067 -1.9831
  735TIP3   OH2 2168   6.567   3.526   2.055  0.0388 -0.5050 -0.3149
  735TIP3    H1 2169   6.528   3.610   2.080 -0.6183 -0.9272  0.0760
  735TIP3    H2 2170   6.608   3.493   2.135  0.1596 -0.6386 -0.4301
  736TIP3   OH2 2171   2.144   4.459   5.755  0.7324  0.1730  0.4553
  736TIP3    H1 2172   2.235   4.433   5.767  1.0449  0.9506 -0.1686
  736TIP3    H2 2173   2.146   4.555   5.752 -0.0619  0.1865  0.1032
  737TIP3   OH2 2174   4.444   3.073   1.876  0.6319 -0.0265 -0.2491
  737TIP3    H1 2175   4.507   3.100   1.943 -0.1632  0.4878  0.3065
  737TIP3    H2 2176   4.489   3.004   1.827  1.1688 -0.5188  0.9101
  738TIP3   OH2 2177   3.690   3.425   0.424  0.3982  0.2195 -0.8942
  738TIP3    H1 2178   3.644   3.418   0.507 -1.0566  0.3026 -1.6604
  738TIP3    H2 2179   3.783   3.432   0.448 -0.0609  1.1257  0.7368
  739TIP3   OH2 2180   6.148   5.266   1.622  0.5044 -0.5179 -0.6226
  739TIP3    H1 2181   6.145   5.331   1.692 -1.9168 -0.0602 -1.0666
  739TIP3    H2 2182   6.238   5.233   1.623  1.3152  1.5785  0.7503
  740TIP3   OH2 2183   1.415   5.199   4.835 -0.3568 -0.2754  0.0355
  740TIP3    H1 2184   1.441   5.207   4.743 -1.3540  0.5519 -0.1962
  740TIP3    H2 2185   1.343   5.136   4.834  0.3046 -1.0674  0.4109
  741TIP3   OH2 2186   3.173   4.792   0.525  0.3677 -0.7353  0.2841
  741TIP3    H1 2187   3.229   4.851   0.575  2.4069 -0.5015 -2.0986
  741TIP3    H2 2188   3.091   4.839   0.516 -0.1140 -0.7910  3.2805
  742TIP3   OH2 2189   0.301   2.072   1.227 -0.0508 -0.3760  0.0423
  742TIP3    H1 2190   0.334   2.094   1.140 -0.6719 -1.4952 -0.4993
  742TIP3    H2 2191   0.378   2.039   1.274 -0.0633 -1.5159 -0.7046
  743TIP3   OH2 2192   5.052   1.070   4.446 -0.4343  0.1002  0.2436
  743TIP3    H1 2193   4.957   1.056   4.448 -0.3931 -0.1654  0.2876
  743TIP3    H2 2194   5.069   1.128   4.520 -0.6892  0.9159 -0.3214
  744TIP3   OH2 2195   5.747   1.536   0.986  0.1734  0.0889 -0.5069
  744TIP3    H1 2196   5.741   1.619   1.034 -1.6878 -0.6563  0.6544
  744TIP3    H2 2197   5.838   1.508   0.998  0.0228  0.3993  1.8447
  745TIP3   OH2 2198   3.344   0.870   4.312  0.0392  0.1530  0.0649
  745TIP3    H1 2199   3.278   0.856   4.244  0.2400 -1.1192  0.1044
  745TIP3    H2 2200   3.425   0.839   4.273  0.0711 -1.0462  1.0217
  746TIP3   OH2 2201   6.403   4.437   0.457  0.0619 -0.2759  0.1147
  746TIP3    H1 2202   6.370   4.480   0.536  1.9951 -0.7526  1.2350
  746TIP3    H2 2203   6.457   4.504   0.414  0.9658 -0.7414  0.4967
  747TIP3   OH2 2204   6.341   1.796   4.212  0.0258 -0.0955  0.5061
  747TIP3    H1 2205   6.286   1.837   4.279 -1.1826 -1.7423  0.5972
  747TIP3    H2 2206   6.396   1.734   4.261  1.5571  1.0736  0.3339
  748TIP3   OH2 2207   4.323   3.818   1.025  0.0943  0.1009  0.1949
  748TIP3    H1 2208   4.352   3.896   0.977  0.4066  0.2655  0.6437
  748TIP3    H2 2209   4.227   3.821   1.020  0.0806  0.8574  0.7314
  749TIP3   OH2 2210   4.215   1.709   2.151 -0.0508  0.5156 -0.1565
  749TIP3    H1 2211   4.154   1.668   2.090  1.3924  0.0520 -1.3516
  749TIP3    H2 2212   4.166   1.782   2.188 -1.5430 -0.2435 -0.5580
  750TIP3   OH2 2213   0.438   2.837   4.990  0.3129  0.2954  0.4270
  750TIP3    H1 2214   0.400   2.775   4.927 -0.6471 -1.0703  2.2439
  750TIP3    H2 2215   0.510   2.878   4.942  0.3675 -1.5037 -1.1901
  751TIP3   OH2 2216   1.816   1.303   5.827  0.4582 -0.5487 -0.1504
  751TIP3    H1 2217   1.885   1.267   5.771  0.7920 -0.6854  0.3360
  751TIP3    H2 2218   1.734   1.272   5.788  0.6861 -0.7107 -0.5086
  752TIP3   OH2 2219   4.585   3.838   2.140  0.3897  0.0683  0.0131
  752TIP3    H1 2220   4.537   3.777   2.083 -2.6155 -0.7842  3.1332
  752TIP3    H2 2221   4.671   3.798   2.150  0.1150 -1.1244 -1.7430
  753TIP3   OH2 2222   6.635   6.252   2.989 -0.2169  0.5422 -0.2019
  753TIP3    H1 2223   6.628   6.221   3.079  0.6109  1.1953  0.1064
  753TIP3    H2 2224   6.554   6.299   2.973 -0.5862 -0.0072  0.0273
  754TIP3   OH2 2225   6.462   4.788   2.450 -0.0169  0.2560 -0.1691
  754TIP3    H1 2226   6.371   4.780   2.481  0.0446  0.2087  0.0026
  754TIP3    H2 2227   6.514   4.755   2.523 -0.0023 -3.0813 -1.5373
  755TIP3   OH2 2228   7.082   6.533   2.242  0.0799  0.5942  0.0140
  755TIP3    H1 2229   7.024   6.481   2.297 -0.0089 -0.9848 -1.4926
  755TIP3    H2 2230   7.028   6.558   2.167  0.7694  0.8947 -0.3936
  756TIP3   OH2 2231   4.352   6.317   4.016  0.0047  0.1169  0.1585
  756TIP3    H1 2232   4.371   6.376   3.944 -2.5090  0.4294 -0.3659
  756TIP3    H2 2233   4.391   6.234   3.991 -0.3515  0.3700 -1.3104
  757TIP3   OH2 2234   2.115   5.571   4.051  0.3636  0.0789 -0.2688
  757TIP3    H1 2235   2.084   5.628   3.979 -0.0649 -2.2935 -2.0911
  757TIP3    H2 2236   2.044   5.508   4.062  0.1955  0.6736  2.7028
  758TIP3   OH2 2237   2.481   3.856   4.512  0.1209  0.2802  0.5986
  758TIP3    H1 2238   2.440   3.891   4.433 -0.9501  1.8218  1.7589
  758TIP3    H2 2239   2.572   3.883   4.506 -0.0530  0.7757  0.0925
  759TIP3   OH2 2240   1.943   5.002   4.942  0.3204  0.2353 -0.1693
  759TIP3    H1 2241   1.871   5.008   4.879  1.3046  0.3148 -1.3346
  759TIP3    H2 2242   1.970   5.092   4.957 -0.2307  0.2558  0.7860
  760TIP3   OH2 2243   6.648   3.399   2.307 -0.5322 -0.4541  0.1200
  760TIP3    H1 2244   6.619   3.314   2.339  0.6756 -1.0753 -0.3784
  760TIP3    H2 2245   6.657   3.452   2.386  1.3778 -1.6428  0.7743
  761TIP3   OH2 2246   0.181   6.390   2.571 -0.2229 -0.5728  0.1697
  761TIP3    H1 2247   0.180   6.320   2.637 -1.4784  0.2842  1.1011
  761TIP3    H2 2248   0.104   6.373   2.517  0.7424 -1.2085 -1.0440
  762TIP3   OH2 2249   3.025   0.525   3.065 -0.1296  0.5033 -0.1328
  762TIP3    H1 2250   2.995   0.506   3.153 -1.0688  1.2436 -0.2718
  762TIP3    H2 2251   3.077   0.449   3.040 -2.1210 -0.9848  0.0364
  763TIP3   OH2 2252   1.534   5.191   0.002  0.1837  0.5638 -0.3144
  763TIP3    H1 2253   1.455   5.136   0.003 -0.2187  1.1272  0.3771
  763TIP3    H2 2254   1.526   5.244   0.081  0.5882  1.5756 -0.9319
  764TIP3   OH2 2255   4.612   4.714   0.495 -0.1147 -0.4719 -0.0135
  764TIP3    H1 2256   4.543   4.747   0.438  0.5588  0.0372 -0.5418
  764TIP3    H2 2257   4.682   4.687   0.436  1.4618  2.0034  0.5939
  765TIP3   OH2 2258   6.478   2.801   2.770  0.5391 -0.0689  0.8329
  765TIP3    H1 2259   6.463   2.733   2.836 -0.3927 -0.0501  0.6432
  765TIP3    H2 2260   6.447   2.881   2.811  2.1358  0.3648  1.2674
  766TIP3   OH2 2261   0.594   3.339   1.993  0.2255 -1.0167  0.4377
  766TIP3    H1 2262   0.637   3.390   1.925  1.1591 -0.7648  1.1984
  766TIP3    H2 2263   0.605   3.392   2.072 -2.4553 -0.3670  0.4871
  767TIP3   OH2 2264   6.522   6.396   1.733 -0.3065  0.7333 -0.3508
  767TIP3    H1 2265   6.616   6.411   1.728 -0.2833  0.6930 -0.0072
  767TIP3    H2 2266   6.485   6.457   1.669  0.1177 -0.8732 -2.2401
  768TIP3   OH2 2267   1.955   3.092   0.671  0.0166  0.5059  0.3711
  768TIP3    H1 2268   1.938   3.136   0.588 -3.3844  0.6065  0.9882
  768TIP3    H2 2269   1.954   3.163   0.736  1.4336  0.2777  0.6754
  769TIP3   OH2 2270   3.192  -0.025   0.720  0.3330  0.4967 -0.3314
  769TIP3    H1 2271   3.099  -0.005   0.729  0.5718  1.3752  0.3579
  769TIP3    H2 2272   3.237   0.053   0.753  1.3269  0.4863 -1.5635
  770TIP3   OH2 2273   5.331   4.377   1.163  0.2614  0.5521  0.0589
  770TIP3    H1 2274   5.400   4.442   1.176  0.1324  0.4895  1.1565
  770TIP3    H2 2275   5.252   4.429   1.144  0.1688  0.7302  0.8841
  771TIP3   OH2 2276   3.701   4.964   0.700 -0.0713 -0.5177  0.2284
  771TIP3    H1 2277   3.766   4.995   0.762 -0.6398 -1.1927  1.1790
  771TIP3    H2 2278   3.643   5.039   0.685 -0.5007 -0.6234  1.2788
  772TIP3   OH2 2279   0.080   3.611   3.128 -0.2713 -0.2401  0.3354
  772TIP3    H1 2280   0.124   3.543   3.077 -0.0089  0.1087  0.0994
  772TIP3    H2 2281   0.040   3.669   3.063  2.7461  2.0728  0.3253
  773TIP3   OH2 2282   3.141   3.919   0.645  0.4455 -0.0516 -0.6564
  773TIP3    H1 2283   3.129   3.879   0.730 -1.7360  1.1093 -0.3329
  773TIP3    H2 2284   3.217   3.875   0.607  0.3173 -1.8942  1.0974
  774TIP3   OH2 2285   0.285   1.551   3.231 -0.3702  0.3500  0.1659
  774TIP3    H1 2286   0.223   1.622   3.249 -0.6146  0.5321 -1.2800
  774TIP3    H2 2287   0.251   1.477   3.281 -1.6463  0.5062 -0.4305
  775TIP3   OH2 2288   6.908   1.731   1.893 -0.0251  0.0056  0.2172
  775TIP3    H1 2289   6.973   1.786   1.935 -0.4063 -0.5960  1.6683
  775TIP3    H2 2290   6.834   1.730   1.954 -0.8541 -0.4098 -0.7586
  776TIP3   OH2 2291   0.317   4.470   3.464 -0.4983  0.2125  0.3996
  776TIP3    H1 2292   0.299   4.458   3.371  1.0834  0.3301  0.0461
  776TIP3    H2 2293   0.231   4.481   3.504 -1.2793 -0.9452 -0.8787
  777TIP3   OH2 2294   2.979   0.626   3.997  0.3974  0.3286  0.0775
  777TIP3    H1 2295   2.997   0.587   4.082 -1.4779  0.0015  0.3657
  777TIP3    H2 2296   2.994   0.555   3.935 -4.2753 -1.5532  0.6937
  778TIP3   OH2 2297   6.143   2.001   5.799 -0.0547  0.5074  0.1569
  778TIP3    H1 2298   6.074   1.936   5.811 -0.2570  1.0876  2.9311
  778TIP3    H2 2299   6.153   2.010   5.704 -1.1254 -2.3486 -0.3069
  779TIP3   OH2 2300   0.473   4.786   3.858  0.1423 -0.1899 -0.4397
  779TIP3    H1 2301   0.562   4.818   3.843 -0.1706  0.5041 -0.8653
  779TIP3    H2 2302   0.438   4.771   3.771  0.0579 -1.0906 -0.2581
  780TIP3   OH2 2303   1.976   1.389   3.413 -0.0899  0.4520  0.0325
  780TIP3    H1 2304   2.059   1.342   3.402 -0.7735 -0.4544 -1.7023
  780TIP3    H2 2305   1.911   1.319   3.423 -0.6883  1.1437  1.0736
  781TIP3   OH2 2306   3.227   1.966   4.406 -0.6546 -0.6007 -0.2669
  781TIP3    H1 2307   3.293   1.905   4.374 -0.5146 -0.7107  0.2187
  781TIP3    H2 2308   3.217   1.945   4.499 -0.7255  0.0006 -0.1288
  782TIP3   OH2 2309   1.232   2.658   3.054  0.2851 -0.6240  0.1641
  782TIP3    H1 2310   1.170   2.673   3.126 -1.0767  0.0451 -1.0923
  782TIP3    H2 2311   1.309   2.711   3.078 -0.5520  0.4216  0.6405
  783TIP3   OH2 2312   6.598   3.499   0.857 -0.4500  0.1677 -0.6040
  783TIP3    H1 2313   6.572   3.590   0.864 -0.9358  0.1375 -1.8181
  783TIP3    H2 2314   6.572   3.473   0.769  1.0457 -0.7090 -0.8216
  784TIP3   OH2 2315   5.432   2.806   5.888 -0.0922 -0.0477 -0.0788
  784TIP3    H1 2316   5.495   2.818   5.959  0.0823  1.9731 -0.5026
  784TIP3    H2 2317   5.484   2.778   5.813 -0.5280 -4.4245  0.9804
  785TIP3   OH2 2318   3.429   0.257   3.258 -0.0482 -0.6382  0.4499
  785TIP3    H1 2319   3.490   0.323   3.292  0.0526 -0.5081  0.0129
  785TIP3    H2 2320   3.394   0.215   3.337  0.0749 -0.2352  0.7233
  786TIP3   OH2 2321   2.617   1.096   0.079  0.1492  0.6361 -0.1542
  786TIP3    H1 2322   2.571   1.092  -0.005 -0.2042  0.7880  0.0267
  786TIP3    H2 2323   2.667   1.177   0.076 -0.1474  0.8245 -0.0790
  787TIP3   OH2 2324   5.605   6.482   2.138  0.0656  0.2730 -0.5344
  787TIP3    H1 2325   5.602   6.482   2.042 -0.3370 -1.2667 -0.5489
  787TIP3    H2 2326   5.536   6.543   2.164 -0.1044  0.3874 -1.2229
  788TIP3   OH2 2327   5.137   2.390   0.054 -0.1974  0.3003  0.1174
  788TIP3    H1 2328   5.163   2.468   0.104 -0.9393  0.0157  0.9718
  788TIP3    H2 2329   5.046   2.406   0.030  0.1317  0.4078 -1.1289
  789TIP3   OH2 2330   0.425   3.405   2.624  0.0487  0.0368 -0.2884
  789TIP3    H1 2331   0.419   3.345   2.698  1.6228 -0.3881 -0.4791
  789TIP3    H2 2332   0.399   3.353   2.548  1.6434 -0.4993 -0.4880
  790TIP3   OH2 2333   3.659   6.170   5.825  0.6605 -0.2011 -0.2349
  790TIP3    H1 2334   3.671   6.118   5.746  0.8494 -0.2242 -0.1911
  790TIP3    H2 2335   3.592   6.123   5.874  1.0963 -0.6128 -0.0212
  791TIP3   OH2 2336   7.100   4.689   2.453 -0.0723  0.5697  0.1546
  791TIP3    H1 2337   7.167   4.756   2.441  1.1713 -0.8712 -1.6777
  791TIP3    H2 2338   7.123   4.646   2.535 -0.6826  2.1113  1.1611
  792TIP3   OH2 2339   4.948   4.455   0.679 -0.1206  0.4671  0.1375
  792TIP3    H1 2340   4.910   4.493   0.599  0.8285  2.6974  0.6696
  792TIP3    H2 2341   5.042   4.467   0.668  0.1585 -0.9996  0.7622
  793TIP3   OH2 2342   4.106   3.980   2.633 -0.0897  0.6834  0.2819
  793TIP3    H1 2343   4.090   4.074   2.627  0.0185  0.7810  1.3490
  793TIP3    H2 2344   4.200   3.971   2.616 -0.1615  0.7239 -0.1556
  794TIP3   OH2 2345   1.882   4.871   5.205 -0.0971 -0.2182 -0.1834
  794TIP3    H1 2346   1.911   4.918   5.127  0.0100  0.1744  0.0926
  794TIP3    H2 2347   1.937   4.793   5.208  1.6134  0.9645  0.8533
  795TIP3   OH2 2348   0.186   0.573   3.348 -0.3306 -0.1625  0.2495
  795TIP3    H1 2349   0.279   0.563   3.331  0.3129  0.4814  2.8787
  795TIP3    H2 2350   0.168   0.665   3.327 -0.0980 -0.0092  0.6906
  796TIP3   OH2 2351   1.854   3.410   4.338  0.6795 -0.1819 -0.1670
  796TIP3    H1 2352   1.901   3.480   4.293  1.4365 -1.1577 -0.9364
  796TIP3    H2 2353   1.920   3.369   4.394  0.6479 -1.2633 -0.8980
  797TIP3   OH2 2354   3.094   2.082   1.404 -0.1935 -0.5143  0.2498
  797TIP3    H1 2355   3.184   2.104   1.428  0.2283 -0.9288 -0.8867
  797TIP3    H2 2356   3.101   2.042   1.317 -1.5277 -0.1209 -0.0652
  798TIP3   OH2 2357   6.210   2.264   2.664  0.0184 -0.5623 -0.0441
  798TIP3    H1 2358   6.243   2.252   2.754 -1.9836 -0.3254  0.7676
  798TIP3    H2 2359   6.241   2.351   2.638 -2.1690  0.8917  1.7841
  799TIP3   OH2 2360   2.078   4.173   2.173 -0.1181  0.2851  0.0328
  799TIP3    H1 2361   1.998   4.134   2.209  0.0176 -0.1825 -0.1729
  799TIP3    H2 2362   2.099   4.244   2.233 -0.1354 -0.2201  0.6394
  800TIP3   OH2 2363   0.200   2.340   2.117  0.3503 -0.2980 -0.2044
  800TIP3    H1 2364   0.286   2.300   2.130  0.1058 -0.2016  1.9974
  800TIP3    H2 2365   0.138   2.276   2.152 -0.1801  1.1961  1.7309
  801TIP3   OH2 2366   2.823   5.655   0.434 -0.2843  0.1327 -0.0716
  801TIP3    H1 2367   2.844   5.634   0.525 -0.7690  1.3599  0.3401
  801TIP3    H2 2368   2.735   5.692   0.437 -1.1827 -1.7143 -1.3366
  802TIP3   OH2 2369   2.168   1.757   4.512  0.1029 -0.1078 -0.5093
  802TIP3    H1 2370   2.202   1.821   4.449  0.2303  0.8046  0.4632
  802TIP3    H2 2371   2.163   1.675   4.462  1.5896  0.2453 -1.2966
  803TIP3   OH2 2372   2.880   4.884   4.063 -0.0677  0.3623 -0.0432
  803TIP3    H1 2373   2.913   4.803   4.102  0.9099 -0.1965 -1.9347
  803TIP3    H2 2374   2.883   4.948   4.134 -2.1475 -1.5307  1.8975
  804TIP3   OH2 2375   4.332   2.983   5.795 -0.0066  0.0019  0.0426
  804TIP3    H1 2376   4.297   2.995   5.883 -1.9322 -1.0690 -0.5089
  804TIP3    H2 2377   4.318   3.067   5.752 -0.1173  0.1752  0.4141
  805TIP3   OH2 2378   2.084   2.489   5.425  0.0911 -0.4988  0.1670
  805TIP3    H1 2379   2.052   2.568   5.381  0.2626 -1.2517 -1.3872
  805TIP3    H2 2380   2.066   2.418   5.363  0.5843 -1.5864  1.2245
  806TIP3   OH2 2381   2.223   0.515   0.199  0.7105 -0.0131 -0.1687
  806TIP3    H1 2382   2.243   0.431   0.241 -2.0369 -0.2920  0.7610
  806TIP3    H2 2383   2.241   0.501   0.106  2.4357 -0.8748  0.2594
  807TIP3   OH2 2384   3.946   5.230   3.961 -0.5093 -0.6440 -0.7255
  807TIP3    H1 2385   4.040   5.245   3.961 -0.5750 -0.1564  0.0388
  807TIP3    H2 2386   3.937   5.135   3.966 -0.0410 -0.6459  0.3825
  808TIP3   OH2 2387   4.105   2.855   3.176  0.6411  0.6254  0.5116
  808TIP3    H1 2388   4.061   2.839   3.259 -0.1189 -0.1184 -0.0176
  808TIP3    H2 2389   4.037   2.842   3.110  1.6144 -0.4448 -0.3290
  809TIP3   OH2 2390   6.407   5.977   0.800 -0.0188  0.0842 -0.6892
  809TIP3    H1 2391   6.438   5.903   0.852  1.4233  0.0289 -1.5860
  809TIP3    H2 2392   6.342   5.940   0.741 -0.2466 -0.2115 -0.2565
  810TIP3   OH2 2393   1.031   2.800   5.854 -0.1486 -0.0092 -0.8381
  810TIP3    H1 2394   0.939   2.780   5.875 -0.7358  0.5388 -2.6850
  810TIP3    H2 2395   1.081   2.738   5.907 -1.4840  0.6550  1.3695
  811TIP3   OH2 2396   2.316   5.664   2.602 -0.1005 -0.5248 -0.5518
  811TIP3    H1 2397   2.336   5.691   2.692  0.9521 -2.1194 -0.2577
  811TIP3    H2 2398   2.306   5.746   2.554  4.6210  0.6395 -0.1345
  812TIP3   OH2 2399   3.309   5.888   5.445  0.3226 -0.5470 -0.4276
  812TIP3    H1 2400   3.215   5.872   5.437  0.0700  0.3226  0.5519
  812TIP3    H2 2401   3.321   5.916   5.536  1.1929  1.3705 -1.0710
  813TIP3   OH2 2402   6.867   1.340   5.718 -0.2437 -0.7326  0.2432
  813TIP3    H1 2403   6.839   1.252   5.744 -1.3916 -1.1559 -2.1837
  813TIP3    H2 2404   6.789   1.379   5.678  0.5780  0.9904  0.2108
  814TIP3   OH2 2405   2.928   6.534   2.712  0.2606 -0.0838  0.1846
  814TIP3    H1 2406   2.988   6.460   2.722 -0.2011 -0.4840  0.0325
  814TIP3    H2 2407   2.841   6.495   2.716  0.0165  0.3380 -0.7389
  815TIP3   OH2 2408   3.908   6.236   2.006  0.3125 -0.9255 -0.2021
  815TIP3    H1 2409   3.966   6.296   2.054 -0.2269  0.7672 -1.5573
  815TIP3    H2 2410   3.824   6.243   2.051  0.4169 -1.1928  0.0395
  816TIP3   OH2 2411   3.767   4.342   3.105 -0.1436  0.3204 -0.0380
  816TIP3    H1 2412   3.798   4.339   3.014  0.4657  0.7236  0.1502
  816TIP3    H2 2413   3.744   4.434   3.120  0.0369  0.3111  0.3067
  817TIP3   OH2 2414   2.102   2.750   4.899  0.3252  0.2289 -0.3590
  817TIP3    H1 2415   2.150   2.824   4.863  2.5827 -1.4907 -1.0777
  817TIP3    H2 2416   2.135   2.741   4.989 -0.2510  0.3032 -0.1318
  818TIP3   OH2 2417   4.383   2.954   1.299 -0.4071  0.5802 -0.2265
  818TIP3    H1 2418   4.415   2.915   1.380  1.2524 -0.6381 -1.4128
  818TIP3    H2 2419   4.289   2.964   1.313 -0.6001 -2.0706  0.8587
  819TIP3   OH2 2420   2.896   3.646   4.910 -0.0826 -0.1141 -0.2896
  819TIP3    H1 2421   2.960   3.585   4.871  0.2846  0.4215 -0.5363
  819TIP3    H2 2422   2.916   3.644   5.004 -0.3847 -0.7295 -0.2299
  820TIP3   OH2 2423   1.601   1.420   4.857  0.2518  0.2449  0.1694
  820TIP3    H1 2424   1.623   1.398   4.766 -0.1776  1.4705 -0.2609
  820TIP3    H2 2425   1.666   1.375   4.909  0.6431 -0.3047 -0.7700
  821TIP3   OH2 2426   4.293   5.378   4.604  0.5530 -0.4733 -0.5757
  821TIP3    H1 2427   4.350   5.410   4.535  0.8869  1.7426  0.6505
  821TIP3    H2 2428   4.332   5.409   4.685 -0.8351 -1.4027  0.5107
  822TIP3   OH2 2429   0.887   3.314   5.247  0.3371  0.0787  0.4852
  822TIP3    H1 2430   0.799   3.351   5.252  0.5904  0.9253 -0.8199
  822TIP3    H2 2431   0.874   3.220   5.261 -0.4501  0.4761  2.7575
  823TIP3   OH2 2432   6.664   1.233   0.265  0.1533  0.2844 -0.8458
  823TIP3    H1 2433   6.626   1.165   0.321 -0.3059  1.6864  0.6240
  823TIP3    H2 2434   6.700   1.297   0.326  0.7959  1.2463 -2.1844
  824TIP3   OH2 2435   3.403   2.202   5.635  0.0478  0.2336  0.5093
  824TIP3    H1 2436   3.467   2.131   5.626 -0.1387  0.0954  0.2888
  824TIP3    H2 2437   3.386   2.207   5.729  1.6567  1.3925  0.7937
  825TIP3   OH2 2438   2.510   3.947   1.231 -0.1666 -0.0755  0.3554
  825TIP3    H1 2439   2.604   3.930   1.240 -0.1460 -0.1159  0.0699
  825TIP3    H2 2440   2.495   4.024   1.286  0.0536 -0.0073  0.3229
  826TIP3   OH2 2441   2.257   1.717   3.921 -0.1608 -0.3832  0.7856
  826TIP3    H1 2442   2.193   1.647   3.907 -2.1799  1.1411  1.7547
  826TIP3    H2 2443   2.277   1.713   4.014  0.4230 -0.2178  0.6737
  827TIP3   OH2 2444   4.049   3.786   5.274  0.5998 -0.0537  0.3354
  827TIP3    H1 2445   4.079   3.875   5.256 -1.9342  1.0761  1.1561
  827TIP3    H2 2446   4.083   3.766   5.361  1.9922 -0.3099 -0.2496
  828TIP3   OH2 2447   1.209   4.704   3.665 -0.3445  0.0724 -0.1069
  828TIP3    H1 2448   1.234   4.621   3.706 -2.0514 -0.7136 -0.5394
  828TIP3    H2 2449   1.176   4.757   3.737 -1.3621 -0.5030 -0.1327
  829TIP3   OH2 2450   3.554   4.179   5.451 -0.0046  0.0862 -0.1229
  829TIP3    H1 2451   3.515   4.233   5.382  1.8806  1.4367 -0.1958
  829TIP3    H2 2452   3.607   4.115   5.404  1.2043  0.9458  0.0240
  830TIP3   OH2 2453   2.574   1.512   1.905 -0.0308 -0.1400 -0.0597
  830TIP3    H1 2454   2.619   1.463   1.837  0.7374 -0.4738  0.6698
  830TIP3    H2 2455   2.513   1.449   1.944 -1.0502  0.2669 -0.9381
  831TIP3   OH2 2456   7.021   2.911   2.689  0.2379 -0.3632 -0.0150
  831TIP3    H1 2457   7.087   2.969   2.651  2.1711 -1.8365  0.8976
  831TIP3    H2 2458   6.937   2.947   2.660  1.2201  3.4016  1.2580
  832TIP3   OH2 2459   0.299   3.487   0.614 -0.6421  0.1114 -0.1521
  832TIP3    H1 2460   0.358   3.433   0.561 -0.2466 -0.2378  0.6210
  832TIP3    H2 2461   0.316   3.577   0.585  0.6708  0.0739  0.4021
  833TIP3   OH2 2462   0.702   5.874   4.804  0.2211  0.8461 -0.0144
  833TIP3    H1 2463   0.774   5.916   4.851 -1.0997  1.2101  1.7803
  833TIP3    H2 2464   0.687   5.930   4.728 -0.3915  2.7493  1.4252
  834TIP3   OH2 2465   4.476   4.602   2.739  0.4684 -0.2674  0.5857
  834TIP3    H1 2466   4.501   4.592   2.647  0.9421  1.1467  0.5289
  834TIP3    H2 2467   4.461   4.696   2.749  2.1638 -0.1296  2.3924
  835TIP3   OH2 2468   0.012   1.532   5.857 -0.8290 -0.4428  0.3711
  835TIP3    H1 2469   0.086   1.582   5.823  0.6419 -0.9288  2.6670
  835TIP3    H2 2470  -0.060   1.595   5.864  0.1509  0.6758  0.5624
  836TIP3   OH2 2471   1.461   5.875   0.892  0.0094 -0.5594 -0.2650
  836TIP3    H1 2472   1.399   5.825   0.945 -0.4761 -0.4636 -0.7313
  836TIP3    H2 2473   1.445   5.846   0.803  0.9602 -0.8656 -0.3528
  837TIP3   OH2 2474   4.426   1.095   0.013 -0.0050  0.7667  0.1165
  837TIP3    H1 2475   4.342   1.053   0.031 -1.0921  1.8423 -2.0537
  837TIP3    H2 2476   4.491   1.034   0.049 -1.5135 -2.2621 -1.7996
  838TIP3   OH2 2477   7.113   3.880   2.687  0.3232  0.4551  0.1861
  838TIP3    H1 2478   7.182   3.939   2.657  2.1478 -0.7216  1.8413
  838TIP3    H2 2479   7.096   3.907   2.777 -0.3778 -0.1931  0.2621
  839TIP3   OH2 2480   1.796   5.921   1.926  0.5315 -0.0145 -0.3368
  839TIP3    H1 2481   1.761   5.967   2.003 -0.8912 -1.0024 -0.3424
  839TIP3    H2 2482   1.724   5.924   1.863  0.3088 -2.3926 -0.2542
  840TIP3   OH2 2483   6.665   3.933   2.173  0.3536 -0.3113  0.2537
  840TIP3    H1 2484   6.719   3.910   2.098 -0.4195  0.0798 -0.4386
  840TIP3    H2 2485   6.601   3.862   2.180  1.3855 -1.1555  1.5267
  841TIP3   OH2 2486   4.831   2.350   5.517  0.1130 -0.5105  0.3183
  841TIP3    H1 2487   4.844   2.299   5.438  0.2474  0.0918 -0.0551
  841TIP3    H2 2488   4.867   2.296   5.587  0.7138 -0.7008 -0.1343
  842TIP3   OH2 2489   4.148   0.369   2.559  0.1853 -0.2568  0.0912
  842TIP3    H1 2490   4.149   0.449   2.507 -1.4753 -0.4125 -0.2586
  842TIP3    H2 2491   4.067   0.375   2.609  0.3443 -1.4324  0.5072
  843TIP3   OH2 2492   0.169   5.959   3.324  0.3978 -0.3009  0.1043
  843TIP3    H1 2493   0.164   5.876   3.276 -0.6996  0.1509 -0.6016
  843TIP3    H2 2494   0.151   6.026   3.258 -1.0416  0.3472  1.1054
  844TIP3   OH2 2495   3.617   4.322   2.783  0.4385 -0.1600  0.4620
  844TIP3    H1 2496   3.709   4.298   2.794  0.3355 -1.0609 -0.5623
  844TIP3    H2 2497   3.569   4.240   2.791 -0.2464  0.2492  0.6183
  845TIP3   OH2 2498   5.025   2.359   2.992 -0.2919 -0.8487  0.2181
  845TIP3    H1 2499   4.931   2.340   2.999 -0.4171 -0.1919  0.4192
  845TIP3    H2 2500   5.066   2.303   3.058 -0.4615 -1.6447 -0.3342
  846TIP3   OH2 2501   4.128   1.313   0.256 -0.3679  0.2341  0.1996
  846TIP3    H1 2502   4.210   1.350   0.288  0.4371  0.2436 -1.7281
  846TIP3    H2 2503   4.142   1.218   0.258 -0.8399  0.1762  1.1544
  847TIP3   OH2 2504   2.565   2.736   3.553  0.4561 -0.2675 -0.1182
  847TIP3    H1 2505   2.579   2.747   3.647  1.4632 -0.9886 -0.1718
  847TIP3    H2 2506   2.470   2.746   3.541  0.3929  0.3936  0.8882
  848TIP3   OH2 2507   1.988   2.763   2.219 -0.4112 -0.2583  0.6094
  848TIP3    H1 2508   2.043   2.782   2.143 -1.1044  0.4410  0.2659
  848TIP3    H2 2509   1.998   2.669   2.233  0.7765 -0.1669  0.4921
  849TIP3   OH2 2510   1.829   2.007   1.804 -0.1740  0.0031 -0.4444
  849TIP3    H1 2511   1.770   1.947   1.760 -0.3043  1.2258 -2.0118
  849TIP3    H2 2512   1.788   2.093   1.795 -0.0655  0.3733  1.8550
  850TIP3   OH2 2513   1.330   3.981   5.263  0.2722  0.5010 -0.2056
  850TIP3    H1 2514   1.350   3.895   5.225 -1.3835  0.4782 -1.1019
  850TIP3    H2 2515   1.399   4.038   5.230 -0.8694  0.3947 -3.0660
  851TIP3   OH2 2516   3.793   0.557   1.319 -0.6695 -0.5307 -0.4658
  851TIP3    H1 2517   3.719   0.530   1.264  0.2279  0.0532 -2.0350
  851TIP3    H2 2518   3.761   0.634   1.366 -0.0792  2.0033 -3.8310
  852TIP3   OH2 2519   6.556   3.891   0.528  0.2703 -0.3972 -0.2710
  852TIP3    H1 2520   6.630   3.921   0.476 -0.2594  0.8761 -0.3172
  852TIP3    H2 2521   6.562   3.940   0.610 -1.6892  1.3512 -1.0866
  853TIP3   OH2 2522   0.027   1.163   2.854 -0.0689 -0.1687 -0.5068
  853TIP3    H1 2523   0.118   1.179   2.828  0.1523 -0.8561 -0.1793
  853TIP3    H2 2524   0.003   1.083   2.809  0.0930 -0.9920  0.8254
  854TIP3   OH2 2525   2.166   6.190   1.281 -0.4762 -0.0243  0.2652
  854TIP3    H1 2526   2.152   6.095   1.276 -0.6651 -0.0518  1.1195
  854TIP3    H2 2527   2.198   6.205   1.370  0.4521  0.6113 -0.1630
  855TIP3   OH2 2528   6.695   6.032   3.825  0.2166 -0.4261  0.3229
  855TIP3    H1 2529   6.743   6.109   3.855  0.0912 -0.8480  1.7030
  855TIP3    H2 2530   6.710   6.028   3.731 -0.8750  2.0449 -0.0206
  856TIP3   OH2 2531   3.419   2.812   3.550  0.2110 -0.0043  0.2412
  856TIP3    H1 2532   3.510   2.840   3.562 -0.0079  0.4950  0.7960
  856TIP3    H2 2533   3.374   2.844   3.628 -0.2681 -1.0195  0.3927
  857TIP3   OH2 2534   3.797   0.852   5.776  0.5428  0.4821  0.2389
  857TIP3    H1 2535   3.841   0.933   5.749  0.7792  0.3495  0.2249
  857TIP3    H2 2536   3.735   0.880   5.843  0.5179  0.6982  0.1269
  858TIP3   OH2 2537   4.967   1.620   5.808  0.1778  0.4030 -0.3479
  858TIP3    H1 2538   4.956   1.527   5.828 -0.2681  0.4597 -0.3372
  858TIP3    H2 2539   4.981   1.661   5.893  0.8391  0.2876 -0.3905
  859TIP3   OH2 2540   3.201   1.426   1.485  0.2552 -0.0295 -0.1715
  859TIP3    H1 2541   3.133   1.490   1.506  0.0428  0.1842 -1.4086
  859TIP3    H2 2542   3.210   1.374   1.565 -0.3898  0.8055  0.4686
  860TIP3   OH2 2543   5.567   2.486   1.224  0.4535  0.2518 -0.2227
  860TIP3    H1 2544   5.580   2.573   1.261 -0.5286  0.1780  0.3052
  860TIP3    H2 2545   5.483   2.491   1.179  0.2124 -0.5348  0.1333
  861TIP3   OH2 2546   2.667   0.335   3.380 -0.4485 -0.3134 -0.2063
  861TIP3    H1 2547   2.587   0.295   3.346 -0.1452 -2.1711  1.1003
  861TIP3    H2 2548   2.657   0.330   3.475  0.9615 -0.0028 -0.0170
  862TIP3   OH2 2549   4.913   1.881   0.888  0.4984 -0.1288 -0.2500
  862TIP3    H1 2550   4.906   1.813   0.955  0.5063  0.4955  0.3988
  862TIP3    H2 2551   4.948   1.957   0.935 -1.6685  1.0536 -0.4439
  863TIP3   OH2 2552   3.398   6.017   3.343 -0.5301 -0.2441 -0.1485
  863TIP3    H1 2553   3.392   5.932   3.301  0.3029  0.6032 -2.1110
  863TIP3    H2 2554   3.448   6.071   3.281  0.8213  1.0905  1.9791
  864TIP3   OH2 2555   0.579   1.915   5.240 -0.4201 -0.1972  0.2872
  864TIP3    H1 2556   0.493   1.955   5.228 -0.4676  0.4476  2.4467
  864TIP3    H2 2557   0.565   1.822   5.224 -1.5189 -0.0959  0.6165
  865TIP3   OH2 2558   1.583   0.894   3.136  0.5361 -0.1900 -0.1607
  865TIP3    H1 2559   1.535   0.816   3.164 -1.5193  1.5741  1.6735
  865TIP3    H2 2560   1.519   0.947   3.089  1.3751  1.1520  0.1353
  866TIP3   OH2 2561   5.701   3.336   5.751 -0.0743  0.2751 -0.0986
  866TIP3    H1 2562   5.795   3.350   5.745  0.0553 -1.0910 -2.9887
  866TIP3    H2 2563   5.663   3.394   5.686 -0.9821 -0.9324 -0.6897
  867TIP3   OH2 2564   1.490   0.468   5.780  0.0029 -0.0896 -0.0767
  867TIP3    H1 2565   1.511   0.406   5.851  2.4515  0.3219 -0.3362
  867TIP3    H2 2566   1.540   0.435   5.705 -0.0823  1.2129 -0.7249
  868TIP3   OH2 2567   3.700   6.632   2.782  0.1086 -0.1609  0.2565
  868TIP3    H1 2568   3.790   6.661   2.796 -0.0041  0.0279  0.5956
  868TIP3    H2 2569   3.699   6.540   2.808 -0.3558  0.4498  2.6392
  869TIP3   OH2 2570   6.942   5.969   4.404  0.3180 -0.0861 -0.0476
  869TIP3    H1 2571   6.922   5.882   4.440  0.7523 -0.1787 -0.0244
  869TIP3    H2 2572   6.941   5.956   4.309  0.4117 -0.1241 -0.0434
  870TIP3   OH2 2573   0.001   0.499   3.045  0.2806 -0.3899  0.4889
  870TIP3    H1 2574   0.092   0.491   3.016 -0.4628 -0.7818 -2.0229
  870TIP3    H2 2575  -0.050   0.463   2.972 -2.1481  4.0925 -0.3963
  871TIP3   OH2 2576   2.647   2.221   4.828 -0.0020 -0.0864  0.0174
  871TIP3    H1 2577   2.677   2.173   4.905  1.2772 -0.4632 -0.6731
  871TIP3    H2 2578   2.713   2.202   4.761 -1.4816 -0.3875 -1.4121
  872TIP3   OH2 2579   2.959   4.598   0.833 -0.2921 -0.1197  0.1573
  872TIP3    H1 2580   2.967   4.694   0.829 -1.9429  0.1437  1.8488
  872TIP3    H2 2581   2.868   4.581   0.809  0.2654 -1.4017 -1.1943
  873TIP3   OH2 2582   1.555   0.496   1.418 -0.2220  0.3948 -0.1562
  873TIP3    H1 2583   1.595   0.452   1.343  1.8341 -0.2934  1.2726
  873TIP3    H2 2584   1.502   0.429   1.460  0.0998  0.2519  0.0282
  874TIP3   OH2 2585   2.754   0.903   5.733  0.2607  0.2164 -0.5011
  874TIP3    H1 2586   2.763   0.820   5.779  1.7906  1.7696  2.2771
  874TIP3    H2 2587   2.794   0.887   5.647  1.1647 -1.7147  0.2200
  875TIP3   OH2 2588   6.137   0.151   4.868 -0.6368 -0.3406  0.3976
  875TIP3    H1 2589   6.085   0.229   4.848  0.5056 -0.1746 -2.2739
  875TIP3    H2 2590   6.201   0.182   4.932 -0.8750  0.6284  0.1929
  876TIP3   OH2 2591   5.915   6.047   3.966 -0.3390  0.5518  0.0335
  876TIP3    H1 2592   5.928   5.952   3.966  2.1723  0.8060 -1.6047
  876TIP3    H2 2593   5.888   6.067   3.877 -2.3844  1.2720  0.7651
  877TIP3   OH2 2594   6.018   1.137   4.225 -0.1529  0.4299  0.1190
  877TIP3    H1 2595   6.020   1.085   4.145 -3.0634  2.0525 -1.1697
  877TIP3    H2 2596   5.951   1.096   4.279  0.6710  0.2854  1.0669
  878TIP3   OH2 2597   2.435   5.029   5.005  0.3315 -0.2968 -0.0652
  878TIP3    H1 2598   2.343   5.006   5.012 -0.2645  2.1753  0.9147
  878TIP3    H2 2599   2.462   5.051   5.094  2.2955 -2.2454 -0.0826
  879TIP3   OH2 2600   1.641   1.415   3.507  0.1517 -0.1425  0.3170
  879TIP3    H1 2601   1.637   1.323   3.482  0.1747 -0.4946  1.5090
  879TIP3    H2 2602   1.723   1.446   3.470 -0.8080 -0.0303 -1.8232
  880TIP3   OH2 2603   1.005   3.712   2.432 -0.0386 -0.4282  0.0845
  880TIP3    H1 2604   1.029   3.802   2.455  0.4620 -1.0011  2.0253
  880TIP3    H2 2605   0.930   3.692   2.488  0.2486 -1.3967  0.1494
  881TIP3   OH2 2606   6.792   4.526   3.607 -0.0280 -0.5370 -0.0365
  881TIP3    H1 2607   6.698   4.530   3.586  0.3012  0.9864 -1.4137
  881TIP3    H2 2608   6.835   4.567   3.533  1.6200  0.5060  1.4253
  882TIP3   OH2 2609   5.865   2.635   1.407  0.0466  0.0516 -0.5245
  882TIP3    H1 2610   5.914   2.571   1.355 -1.2141 -0.8880 -0.6049
  882TIP3    H2 2611   5.880   2.607   1.498 -0.9065 -0.6825 -0.5815
  883TIP3   OH2 2612   6.911   4.508   4.828  0.6622  0.3970  0.8496
  883TIP3    H1 2613   6.955   4.569   4.768  0.7788 -1.6609 -1.3061
  883TIP3    H2 2614   6.877   4.439   4.771 -1.9196 -0.1615  2.8811
  884TIP3   OH2 2615   0.809   5.551   0.746 -0.2435  0.2113  0.4943
  884TIP3    H1 2616   0.890   5.571   0.793  0.3450  0.7035 -0.6870
  884TIP3    H2 2617   0.764   5.636   0.739 -0.8854 -0.0606  1.1558
  885TIP3   OH2 2618   0.173   6.150   2.716 -0.0182  0.2979 -0.3342
  885TIP3    H1 2619   0.166   6.075   2.775 -1.1456  1.4463  1.0593
  885TIP3    H2 2620   0.107   6.134   2.649  1.1961 -0.9618 -1.2963
  886TIP3   OH2 2621   6.266   1.836   4.495 -0.1663  0.1720 -0.1211
  886TIP3    H1 2622   6.350   1.790   4.503  0.2379  0.9191  0.0443
  886TIP3    H2 2623   6.200   1.766   4.495  0.5109 -0.5074 -1.2869
  887TIP3   OH2 2624   5.215   1.145   0.822 -0.5097  0.8729 -0.2798
  887TIP3    H1 2625   5.252   1.228   0.791  2.6029 -0.0141  0.6080
  887TIP3    H2 2626   5.244   1.080   0.758 -1.8026  0.2795 -0.2895
  888TIP3   OH2 2627   1.988   3.263   1.924 -0.3136  0.7475  0.1072
  888TIP3    H1 2628   1.915   3.315   1.957 -0.6895 -0.9663  2.1941
  888TIP3    H2 2629   2.064   3.321   1.932 -0.4806  0.6518  3.6518
  889TIP3   OH2 2630   0.859   4.063   3.693 -0.0017 -0.6817  0.0280
  889TIP3    H1 2631   0.909   3.998   3.742  1.0293  1.2645  1.6926
  889TIP3    H2 2632   0.918   4.091   3.623 -0.3474 -1.2725 -0.5222
  890TIP3   OH2 2633   5.854   0.948   4.327 -0.2812  0.1925  1.4486
  890TIP3    H1 2634   5.913   0.885   4.370  1.9631  1.0299 -0.2005
  890TIP3    H2 2635   5.831   0.906   4.244  0.7182  1.2148  0.6228
  891TIP3   OH2 2636   6.637   3.440   4.461  0.2605 -0.1382 -0.4495
  891TIP3    H1 2637   6.549   3.473   4.477  0.1050 -0.9041  0.3513
  891TIP3    H2 2638   6.634   3.403   4.373  0.0093  0.5463 -0.7349
  892TIP3   OH2 2639   1.644   0.651   4.326  0.1951 -0.2145 -0.0186
  892TIP3    H1 2640   1.699   0.639   4.403 -0.9987  0.2274  0.9434
  892TIP3    H2 2641   1.583   0.578   4.328 -1.5439  1.1643  1.0104
  893TIP3   OH2 2642   3.696   2.292   3.058  0.2005 -0.0796  0.0196
  893TIP3    H1 2643   3.632   2.283   3.129 -1.1629 -0.4650 -1.2037
  893TIP3    H2 2644   3.781   2.279   3.101 -0.6146 -0.9935  1.4599
  894TIP3   OH2 2645   4.191   6.682   0.743  0.4121  0.0464 -0.3077
  894TIP3    H1 2646   4.169   6.762   0.791  0.7594 -0.8387  1.4087
  894TIP3    H2 2647   4.108   6.634   0.738  0.7723 -0.8055  1.3128
  895TIP3   OH2 2648   4.257   1.660   5.064  0.5660 -0.7525  0.2691
  895TIP3    H1 2649   4.254   1.662   5.160  1.5729  0.0227  0.3095
  895TIP3    H2 2650   4.284   1.571   5.043 -2.5297 -1.8748  0.5428
  896TIP3   OH2 2651   4.304   0.633   3.528 -0.2274 -0.2781 -0.3528
  896TIP3    H1 2652   4.297   0.633   3.623 -1.9618 -0.0950 -0.4394
  896TIP3    H2 2653   4.377   0.575   3.508  0.2958 -0.1383  1.0893
  897TIP3   OH2 2654   5.102   0.308   1.664  0.2470  0.5768 -0.2461
  897TIP3    H1 2655   5.136   0.225   1.698  1.0141  0.4025 -1.3874
  897TIP3    H2 2656   5.180   0.359   1.641 -0.2304  1.1919 -0.5287
  898TIP3   OH2 2657   2.885   2.085   3.863 -0.2945 -0.0411 -0.0598
  898TIP3    H1 2658   2.949   2.149   3.894 -0.0714 -0.5767  0.6011
  898TIP3    H2 2659   2.930   2.038   3.793 -1.6111  2.8057 -3.0432
  899TIP3   OH2 2660   2.806   3.021   0.300 -0.2914 -0.4437  0.7150
  899TIP3    H1 2661   2.804   3.108   0.260  2.0507 -0.6435  0.0153
  899TIP3    H2 2662   2.770   3.033   0.387 -1.0804  0.9861  0.2116
  900TIP3   OH2 2663   6.381   1.065   5.738  0.4647 -0.0876 -0.0352
  900TIP3    H1 2664   6.395   1.040   5.830  1.6423  1.1607  0.1515
  900TIP3    H2 2665   6.351   1.156   5.742  2.1871  0.5610 -0.9284
  901TIP3   OH2 2666   6.229   0.162   5.317  0.0779 -0.1023  0.1109
  901TIP3    H1 2667   6.287   0.229   5.353 -1.3312  2.3262 -1.7852
  901TIP3    H2 2668   6.280   0.120   5.248  0.0323  1.1729 -0.7279
  902TIP3   OH2 2669   2.405   0.085   4.302  0.2152  0.1471  0.2852
  902TIP3    H1 2670   2.424   0.173   4.334  0.6876 -0.1008  0.6893
  902TIP3    H2 2671   2.482   0.033   4.326  1.1246  0.1996 -2.2556
  903TIP3   OH2 2672  -0.023   2.009   3.451 -0.0322 -0.2501  0.1456
  903TIP3    H1 2673   0.005   1.974   3.366  0.2215 -0.1453  0.1844
  903TIP3    H2 2674   0.050   2.064   3.479  1.0951 -2.4228  1.6988
  904TIP3   OH2 2675   5.998   2.897   3.160 -0.3465 -0.3244 -0.5058
  904TIP3    H1 2676   5.924   2.936   3.115  0.9649  1.4432 -1.2490
  904TIP3    H2 2677   5.969   2.887   3.250 -1.4562  0.4481 -0.7599
  905TIP3   OH2 2678   7.062   3.886   0.360 -0.7964 -0.1953  0.0968
  905TIP3    H1 2679   7.062   3.825   0.286 -0.4184  1.0193 -0.9501
  905TIP3    H2 2680   7.063   3.830   0.437  1.3497 -1.5255 -0.8019
  906TIP3   OH2 2681   6.510   0.425   1.975 -0.0636 -0.1726 -0.5714
  906TIP3    H1 2682   6.418   0.442   1.995 -0.0763 -1.2709  0.3796
  906TIP3    H2 2683   6.528   0.340   2.014  0.7952 -0.9743 -2.5472
  907TIP3   OH2 2684   1.240   0.621   4.004  0.4704  0.2316  0.1685
  907TIP3    H1 2685   1.154   0.604   3.966 -1.2463  2.6600  2.5292
  907TIP3    H2 2686   1.261   0.711   3.977  1.8689 -0.0327  0.3161
  908TIP3   OH2 2687   1.135   0.884   1.692 -0.0970 -0.3627 -0.0489
  908TIP3    H1 2688   1.147   0.972   1.729  1.4711 -0.4624 -0.2738
  908TIP3    H2 2689   1.066   0.845   1.746 -0.3678  0.7711  0.4586
  909TIP3   OH2 2690   0.141   6.503   1.032  0.6320  0.5966  0.4197
  909TIP3    H1 2691   0.222   6.452   1.035 -0.3801 -1.1050  0.2560
  909TIP3    H2 2692   0.101   6.480   0.948  0.1579  1.7336  0.3137
  910TIP3   OH2 2693   3.850   0.888   1.403  0.1097  0.3215 -0.2536
  910TIP3    H1 2694   3.795   0.852   1.472  0.2086 -0.4500 -0.5699
  910TIP3    H2 2695   3.795   0.955   1.362  0.0525  0.7885  0.5636
  911TIP3   OH2 2696   2.402   4.659   1.333  0.2742 -0.2100  0.1587
  911TIP3    H1 2697   2.347   4.734   1.354 -0.6476 -1.1463  1.1660
  911TIP3    H2 2698   2.341   4.588   1.312  1.1270 -0.4530 -1.7395
  912TIP3   OH2 2699   4.301   1.208   4.717  0.0810 -0.2648 -0.2195
  912TIP3    H1 2700   4.223   1.264   4.714  1.5367  1.9219  0.5360
  912TIP3    H2 2701   4.357   1.241   4.647  0.3895 -1.7811 -0.7260
  913TIP3   OH2 2702   5.977   4.352   4.426  0.2357 -0.2382 -0.0348
  913TIP3    H1 2703   6.052   4.410   4.442  0.2147 -0.4179  0.7132
  913TIP3    H2 2704   6.016   4.265   4.416  0.1182 -0.3361  0.3844
  914TIP3   OH2 2705   4.909   6.153   1.850  0.0032 -0.1756  0.2144
  914TIP3    H1 2706   4.814   6.141   1.849 -0.2179  1.2095  1.3478
  914TIP3    H2 2707   4.924   6.228   1.792  0.2130  0.5884  1.2213
  915TIP3   OH2 2708   7.020   3.674   3.674  0.1666  0.0414 -0.4878
  915TIP3    H1 2709   7.097   3.715   3.713  0.6195 -0.6415 -0.6587
  915TIP3    H2 2710   7.003   3.724   3.595  2.0157 -1.3822 -1.8652
  916TIP3   OH2 2711   2.685   4.993   1.327 -0.2957  0.3441 -0.1996
  916TIP3    H1 2712   2.643   4.988   1.242 -1.8386 -0.3465  0.5727
  916TIP3    H2 2713   2.741   5.071   1.322  0.8293 -0.5145 -2.3235
  917TIP3   OH2 2714   0.589   2.764   2.849 -0.0238  0.8839  0.0586
  917TIP3    H1 2715   0.647   2.836   2.874 -0.0974  1.0309 -0.1855
  917TIP3    H2 2716   0.502   2.793   2.878  0.0680  0.5330  0.6904
  918TIP3   OH2 2717   2.682   5.027   0.656  0.1016 -0.0211  0.1045
  918TIP3    H1 2718   2.635   5.097   0.610  2.4200  1.2782 -0.4412
  918TIP3    H2 2719   2.693   4.958   0.591 -0.1674  0.0934 -0.0617
  919TIP3   OH2 2720   0.098   4.802   2.943  0.1798  0.3183 -0.0814
  919TIP3    H1 2721   0.158   4.733   2.917  0.1658 -0.0289  0.7737
  919TIP3    H2 2722   0.118   4.875   2.884  1.6382  0.3107  0.3689
  920TIP3   OH2 2723   5.875   4.598   3.007  0.0704 -0.0874 -0.6553
  920TIP3    H1 2724   5.799   4.577   2.954 -0.9150  2.1236 -0.2284
  920TIP3    H2 2725   5.840   4.616   3.094  1.1879  0.1206 -0.2250
  921TIP3   OH2 2726   2.598   6.179   2.847  0.0485 -0.1339  0.5299
  921TIP3    H1 2727   2.685   6.152   2.817  0.1207 -1.5908  1.9512
  921TIP3    H2 2728   2.615   6.231   2.925 -0.1762  3.0982 -1.3888
  922TIP3   OH2 2729   4.405   1.928   4.610 -0.3818  0.0590 -0.2520
  922TIP3    H1 2730   4.373   2.009   4.571  0.1732 -0.0953 -1.0479
  922TIP3    H2 2731   4.372   1.930   4.700  1.0790  2.0089  0.3063
  923TIP3   OH2 2732   3.902   5.517   3.877 -0.5619  0.2869  0.0233
  923TIP3    H1 2733   3.832   5.490   3.817 -1.5340 -0.2116  1.3378
  923TIP3    H2 2734   3.888   5.464   3.955  1.6281 -0.2136  0.1366
  924TIP3   OH2 2735   4.542   0.994   0.673  0.4124 -0.3738 -0.4420
  924TIP3    H1 2736   4.630   0.965   0.698  0.1372 -1.6982 -0.9188
  924TIP3    H2 2737   4.488   0.915   0.680 -0.8506  0.5192  0.2801
  925TIP3   OH2 2738   2.418   5.475   5.531  0.6112  0.5193 -0.1638
  925TIP3    H1 2739   2.394   5.535   5.602 -0.9299 -0.4033  0.1302
  925TIP3    H2 2740   2.496   5.430   5.564  0.6046  0.9351  0.4486
  926TIP3   OH2 2741   0.353   6.392   5.087 -0.2533  0.2808  0.1914
  926TIP3    H1 2742   0.338   6.413   4.995 -0.2232 -1.2029 -0.1685
  926TIP3    H2 2743   0.278   6.339   5.113 -0.4261  0.9551  1.1307
  927TIP3   OH2 2744   0.503   4.645   5.290 -0.0821 -0.2214  0.5607
  927TIP3    H1 2745   0.433   4.683   5.238 -2.0267 -0.1288  3.0730
  927TIP3    H2 2746   0.572   4.626   5.226 -2.6983 -1.1959 -2.2288
  928TIP3   OH2 2747   6.237   3.120   0.158 -0.8438  0.9181 -0.7028
  928TIP3    H1 2748   6.240   3.025   0.148 -0.7452  0.8784 -0.3157
  928TIP3    H2 2749   6.162   3.147   0.105 -1.1763  0.5697 -0.4189
  929TIP3   OH2 2750   1.632   1.554   3.951 -0.2226 -0.0947  0.0645
  929TIP3    H1 2751   1.593   1.568   3.865 -1.2822  0.7648  0.6558
  929TIP3    H2 2752   1.560   1.521   4.005  0.2511  0.0264  0.7965
  930TIP3   OH2 2753   0.627   2.910   3.736  0.0652  0.1590 -0.7379
  930TIP3    H1 2754   0.641   2.845   3.668  1.1375 -0.8100  0.3484
  930TIP3    H2 2755   0.540   2.892   3.770  0.7540 -1.4450  0.2683
  931TIP3   OH2 2756   4.474   1.453   2.684  0.2822  0.2139 -0.0808
  931TIP3    H1 2757   4.392   1.476   2.729  0.2921 -0.7621  0.4644
  931TIP3    H2 2758   4.489   1.526   2.624 -0.2912  1.0493  0.7496
  932TIP3   OH2 2759   2.700   2.375   1.565  0.1138  0.0733 -0.2625
  932TIP3    H1 2760   2.614   2.357   1.528 -0.6768 -0.2517  1.6056
  932TIP3    H2 2761   2.751   2.411   1.492 -1.9199  1.2788 -1.1736
  933TIP3   OH2 2762   6.734   4.969   4.493 -0.1374 -0.4845  0.6711
  933TIP3    H1 2763   6.639   4.975   4.484 -0.8231 -2.8575  4.2075
  933TIP3    H2 2764   6.768   5.037   4.434 -3.9205  0.1020 -1.1609
  934TIP3   OH2 2765   1.835   5.281   4.961  0.3469 -0.2458  0.1788
  934TIP3    H1 2766   1.765   5.220   4.983 -0.4969 -0.3063 -2.3139
  934TIP3    H2 2767   1.806   5.322   4.880  2.4130  1.0420  0.0252
  935TIP3   OH2 2768   2.427   5.193   0.807  0.3625 -0.9240 -0.2741
  935TIP3    H1 2769   2.439   5.098   0.805  0.6967 -0.9372  1.3833
  935TIP3    H2 2770   2.369   5.208   0.882  0.8403  0.2370 -0.1320
  936TIP3   OH2 2771   1.541   3.080   4.567 -0.3539  0.7983  0.1042
  936TIP3    H1 2772   1.557   3.116   4.480  1.0660  2.5933  1.0386
  936TIP3    H2 2773   1.560   2.987   4.559  3.3922  1.5019 -0.7109
  937TIP3   OH2 2774   2.011   5.237   3.032 -0.0549 -0.2092  0.5310
  937TIP3    H1 2775   1.992   5.218   2.940 -0.1396 -0.4679  0.6031
  937TIP3    H2 2776   1.939   5.293   3.060 -0.3345 -0.6024  0.6019
  938TIP3   OH2 2777   3.125   1.532   1.145  0.0617 -0.0235  0.7201
  938TIP3    H1 2778   3.044   1.582   1.153  1.2009  1.7340  1.8146
  938TIP3    H2 2779   3.129   1.480   1.226 -0.0995 -0.3256  0.5363
  939TIP3   OH2 2780   0.256   0.462   0.017 -0.2914  0.8300 -0.2989
  939TIP3    H1 2781   0.191   0.442  -0.050  0.5914  0.7883 -1.1694
  939TIP3    H2 2782   0.205   0.494   0.091 -1.3245  0.4398 -0.8168
  940TIP3   OH2 2783   3.434   4.644   5.058 -0.1582  0.4810  0.2958
  940TIP3    H1 2784   3.364   4.630   5.122 -2.0601  1.7864 -1.3845
  940TIP3    H2 2785   3.490   4.711   5.098  0.0688 -0.4184  1.5648
  941TIP3   OH2 2786   5.163   1.186   3.146 -0.2449 -0.0058 -0.6857
  941TIP3    H1 2787   5.126   1.114   3.095 -2.0073  0.1574  0.2768
  941TIP3    H2 2788   5.196   1.144   3.225  0.0478  0.0760 -0.7632
  942TIP3   OH2 2789   6.302   3.367   2.061  0.0246  0.0020 -0.3344
  942TIP3    H1 2790   6.271   3.384   2.150  1.4595 -0.5704  0.3080
  942TIP3    H2 2791   6.387   3.411   2.057  0.0805 -0.1864 -1.3437
  943TIP3   OH2 2792   6.199   1.453   1.175  0.0545 -0.3358 -0.3607
  943TIP3    H1 2793   6.195   1.504   1.256  2.7570 -1.7630  0.8060
  943TIP3    H2 2794   6.138   1.381   1.190  0.5256 -0.5825  0.4376
  944TIP3   OH2 2795   5.562   2.749   5.351  0.4528  0.2656  0.1910
  944TIP3    H1 2796   5.621   2.674   5.339 -1.2925 -0.9065 -1.7845
  944TIP3    H2 2797   5.616   2.825   5.332  1.6536 -0.6721 -0.3070
  945TIP3   OH2 2798   5.410   0.586   0.726  0.0965 -0.4924  0.0248
  945TIP3    H1 2799   5.434   0.611   0.815 -1.8097  0.1692  0.3821
  945TIP3    H2 2800   5.348   0.514   0.737 -0.8898  0.2153 -0.7064
  946TIP3   OH2 2801   6.839   4.725   2.782  0.4140  0.7324 -0.1532
  946TIP3    H1 2802   6.883   4.645   2.755 -0.5164  0.7385 -1.8460
  946TIP3    H2 2803   6.808   4.706   2.871 -1.9359 -1.7963 -1.3591
  947TIP3   OH2 2804   4.624   3.192   1.591  0.4933 -0.2871 -0.7673
  947TIP3    H1 2805   4.636   3.187   1.497 -1.2714 -2.0189 -0.9369
  947TIP3    H2 2806   4.627   3.102   1.622  1.7946  0.2793  0.9769
  948TIP3   OH2 2807   4.432   6.049   4.973 -0.1557 -0.1152 -0.9805
  948TIP3    H1 2808   4.456   5.989   5.045  1.2247  0.7514 -0.6871
  948TIP3    H2 2809   4.344   6.022   4.948 -1.7060  1.0162  2.6144
  949TIP3   OH2 2810   4.743   6.111   4.371  0.0863 -0.1312  0.3098
  949TIP3    H1 2811   4.800   6.157   4.433  0.3698  1.4533 -1.0601
  949TIP3    H2 2812   4.655   6.134   4.400  0.1578 -0.8132  1.1269
  950TIP3   OH2 2813   1.356   5.189   0.619 -0.0234 -0.3575  0.4670
  950TIP3    H1 2814   1.410   5.233   0.685 -0.2137  1.6018 -0.6123
  950TIP3    H2 2815   1.291   5.254   0.594 -1.3253 -1.8139 -0.1096
  951TIP3   OH2 2816   5.996   1.579   2.909  0.1078  0.3024 -0.0903
  951TIP3    H1 2817   6.070   1.580   2.970  0.5396  2.3168 -0.5549
  951TIP3    H2 2818   5.936   1.645   2.943 -1.4639 -1.2204  0.2069
  952TIP3   OH2 2819   1.061   0.869   3.605  0.5801 -0.2375 -0.3771
  952TIP3    H1 2820   1.102   0.912   3.680  1.5401 -0.4492 -0.7616
  952TIP3    H2 2821   0.970   0.855   3.631  1.0955 -1.0575  1.0774
  953TIP3   OH2 2822   1.512   4.085   2.622 -0.0923 -0.8667 -0.5599
  953TIP3    H1 2823   1.484   4.136   2.698  0.7036  1.9558 -2.0436
  953TIP3    H2 2824   1.603   4.060   2.642 -0.1175 -0.7483 -0.2947
  954TIP3   OH2 2825   4.224   4.794   2.624 -0.4241  0.6416  0.6211
  954TIP3    H1 2826   4.232   4.886   2.597 -0.8226  0.5097  0.0092
  954TIP3    H2 2827   4.218   4.797   2.719  1.2467  1.1146  0.7392
  955TIP3   OH2 2828   6.215   5.179   1.336  0.1918  0.1331  0.9172
  955TIP3    H1 2829   6.268   5.182   1.257 -0.6154  2.9628  0.3347
  955TIP3    H2 2830   6.274   5.207   1.406  0.0526  1.1446  0.6488
  956TIP3   OH2 2831   3.940   5.123   0.760 -0.2403 -0.0469 -0.0630
  956TIP3    H1 2832   3.925   5.081   0.844  0.1509  0.5316  0.3009
  956TIP3    H2 2833   4.030   5.098   0.736 -0.2167  0.0979 -0.1293
  957TIP3   OH2 2834   4.508   0.741   1.117 -0.5545  0.1407 -0.3465
  957TIP3    H1 2835   4.553   0.699   1.190 -1.3091 -0.6236 -0.3010
  957TIP3    H2 2836   4.421   0.762   1.151 -0.8092  0.0540 -0.9309
  958TIP3   OH2 2837   1.291   0.475   2.349  0.3416 -0.2326 -0.8416
  958TIP3    H1 2838   1.340   0.536   2.404 -0.1340  2.2048 -2.9372
  958TIP3    H2 2839   1.358   0.426   2.300  0.7377  0.8135 -1.3675
  959TIP3   OH2 2840   6.291   5.685   0.547 -0.3977  0.0322  0.2608
  959TIP3    H1 2841   6.273   5.595   0.574  2.3172 -0.4259  0.8550
  959TIP3    H2 2842   6.277   5.738   0.626  0.8334 -0.3299  0.7491
  960TIP3   OH2 2843   3.553   5.671   4.348 -0.2370 -0.0847  0.4401
  960TIP3    H1 2844   3.486   5.676   4.280 -0.5184 -0.3638  0.6916
  960TIP3    H2 2845   3.541   5.584   4.386  0.8441 -0.4841 -0.0996
  961TIP3   OH2 2846   1.011   1.697   1.812  0.0950 -0.3577 -0.5957
  961TIP3    H1 2847   0.996   1.620   1.758  1.5260 -1.2482  0.2040
  961TIP3    H2 2848   1.089   1.739   1.774  0.4669 -0.3922  0.1042
  962TIP3   OH2 2849   0.183   1.378   0.763 -0.2094  0.3453 -0.4318
  962TIP3    H1 2850   0.130   1.321   0.707 -2.1729 -0.9288  2.4660
  962TIP3    H2 2851   0.129   1.457   0.774 -0.4706  0.0318  0.6532
  963TIP3   OH2 2852   6.687   4.121   5.516 -0.1642 -0.1364  0.2005
  963TIP3    H1 2853   6.637   4.044   5.493 -2.3143  0.7194  1.6765
  963TIP3    H2 2854   6.716   4.105   5.606  1.6818 -0.3127 -0.3892
  964TIP3   OH2 2855   1.713   1.894   4.526  0.3836 -0.0014  0.1429
  964TIP3    H1 2856   1.695   1.981   4.561  0.9975  0.6232 -1.0142
  964TIP3    H2 2857   1.684   1.834   4.594  0.4587  1.1184  1.1941
  965TIP3   OH2 2858   5.732   0.302   1.091  0.2158  0.1434  0.3261
  965TIP3    H1 2859   5.808   0.270   1.140  0.3170 -0.8151 -0.4284
  965TIP3    H2 2860   5.657   0.266   1.137  0.2326  0.5925  0.7171
  966TIP3   OH2 2861   4.280   6.242   4.683  0.3543 -0.3425 -0.3861
  966TIP3    H1 2862   4.239   6.186   4.749  1.8821 -1.1323 -0.0668
  966TIP3    H2 2863   4.228   6.229   4.604  1.1605 -2.9756 -0.5869
  967TIP3   OH2 2864   0.706   1.705   0.832  0.4083  0.3129 -0.4508
  967TIP3    H1 2865   0.748   1.649   0.897 -1.4241  0.0013  0.5357
  967TIP3    H2 2866   0.738   1.793   0.851 -0.6500  0.3434  1.4020
  968TIP3   OH2 2867   2.101   2.283   0.298 -0.1436 -0.2896 -0.2939
  968TIP3    H1 2868   2.128   2.192   0.284 -0.0291 -0.3929  0.5395
  968TIP3    H2 2869   2.018   2.290   0.252 -0.7429 -1.1646  0.5900
  969TIP3   OH2 2870   4.635   2.110   4.305  0.0443 -0.1691  0.3160
  969TIP3    H1 2871   4.619   2.058   4.383  0.8443 -0.9733 -0.0385
  969TIP3    H2 2872   4.557   2.165   4.296  0.1595  0.3281  1.9574
  970TIP3   OH2 2873   1.978   0.476   0.892 -0.2242 -0.4782  0.0887
  970TIP3    H1 2874   1.957   0.443   0.979 -0.7371  0.6932  0.4364
  970TIP3    H2 2875   1.914   0.434   0.835 -2.0931  1.2081  0.7924
  971TIP3   OH2 2876   5.951   5.061   0.513 -0.2865 -0.4530 -0.3657
  971TIP3    H1 2877   5.863   5.088   0.537  0.5383  0.4349  1.9877
  971TIP3    H2 2878   5.939   4.981   0.463 -2.5259  1.0536 -2.4613
  972TIP3   OH2 2879   1.270   2.617   5.288  0.4169 -0.0249  0.1258
  972TIP3    H1 2880   1.224   2.700   5.280  1.6573  0.6053 -0.7987
  972TIP3    H2 2881   1.288   2.609   5.382  0.1972  0.6984  0.2349
  973TIP3   OH2 2882   4.208   2.961   5.145 -0.2875 -0.3767  0.1730
  973TIP3    H1 2883   4.129   3.015   5.144  0.0467  0.1235 -0.0651
  973TIP3    H2 2884   4.280   3.025   5.147  0.1092 -0.8220  0.2945
  974TIP3   OH2 2885   6.255   0.449   2.049 -0.0452 -0.1070 -0.0306
  974TIP3    H1 2886   6.218   0.389   2.115  1.5204  0.2475  1.2238
  974TIP3    H2 2887   6.200   0.527   2.054  1.4519  0.9168  2.7118
  975TIP3   OH2 2888   0.703   0.410   0.683 -0.0312  0.0436  0.5287
  975TIP3    H1 2889   0.765   0.341   0.661  1.0305  1.4504 -1.1216
  975TIP3    H2 2890   0.662   0.380   0.765  0.4943 -2.4141 -0.0229
  976TIP3   OH2 2891   1.279   3.505   2.241  0.5191  0.0091 -0.4198
  976TIP3    H1 2892   1.185   3.492   2.229  0.3814  1.2530 -0.8707
  976TIP3    H2 2893   1.293   3.493   2.335  0.1701 -1.5782 -0.5487
  977TIP3   OH2 2894   3.021   6.130   5.600 -0.3074 -0.0447 -0.1036
  977TIP3    H1 2895   3.025   6.197   5.531 -2.0288 -0.9394 -1.1438
  977TIP3    H2 2896   2.929   6.101   5.600  0.5707 -3.1857 -0.4479
  978TIP3   OH2 2897   0.766   5.097   1.310  0.7683  0.6468  0.9508
  978TIP3    H1 2898   0.684   5.097   1.359  0.8282 -0.7380  1.0869
  978TIP3    H2 2899   0.760   5.174   1.254 -0.4924  0.7478  1.1918
  979TIP3   OH2 2900   4.923   1.253   3.517 -0.0801 -0.6330 -0.2804
  979TIP3    H1 2901   4.886   1.182   3.570  0.9262  0.4965  2.1309
  979TIP3    H2 2902   4.874   1.331   3.545 -0.6930 -0.2130 -2.3584
  980TIP3   OH2 2903   5.935   3.591   1.600  0.0181  0.2975 -0.0505
  980TIP3    H1 2904   5.957   3.504   1.566  1.3865  0.5209  0.1914
  980TIP3    H2 2905   6.014   3.643   1.585 -1.0369  1.7454 -0.9210
  981TIP3   OH2 2906   4.300   3.958   1.538  0.0397 -0.3548 -0.4079
  981TIP3    H1 2907   4.336   3.883   1.584  2.4793  0.0340 -1.5512
  981TIP3    H2 2908   4.286   3.927   1.449 -1.4137 -0.1434 -0.2777
  982TIP3   OH2 2909   3.535   4.849   5.860 -0.6285 -0.0808  0.3572
  982TIP3    H1 2910   3.483   4.844   5.940 -1.1878  1.5252  0.1425
  982TIP3    H2 2911   3.478   4.812   5.792 -1.1269  0.7627  0.2996
  983TIP3   OH2 2912   7.139   3.365   3.252  0.3787  0.2685 -0.0478
  983TIP3    H1 2913   7.066   3.418   3.285  0.2335 -0.9851  1.8118
  983TIP3    H2 2914   7.201   3.429   3.218  0.0771  1.6537  1.8321
  984TIP3   OH2 2915   2.218   5.071   2.143 -0.4673  0.3010  0.4554
  984TIP3    H1 2916   2.242   5.133   2.074 -1.3517 -0.1248 -0.2593
  984TIP3    H2 2917   2.203   5.125   2.220 -0.2797  0.8761  0.0961
  985TIP3   OH2 2918   2.717   3.921   1.608  0.0478  0.7694 -0.0330
  985TIP3    H1 2919   2.689   3.918   1.700  0.4381  3.2216  0.2499
  985TIP3    H2 2920   2.729   4.014   1.591  1.0914  0.2744 -2.2650
  986TIP3   OH2 2921   1.034   1.963   4.786 -0.0525 -0.4077  0.2993
  986TIP3    H1 2922   1.095   2.034   4.767  1.8885 -2.4481 -1.6344
  986TIP3    H2 2923   1.085   1.898   4.834 -1.3271 -1.2306  0.6138
  987TIP3   OH2 2924   3.911   4.367   4.369 -0.0916 -0.3294 -0.3100
  987TIP3    H1 2925   3.948   4.327   4.290 -0.2551 -0.8779 -0.1108
  987TIP3    H2 2926   3.987   4.399   4.417  0.0834 -0.9189 -0.1892
  988TIP3   OH2 2927   4.299   2.446   0.699  0.0223  0.4116  0.1267
  988TIP3    H1 2928   4.345   2.502   0.636  0.8600 -0.5175 -0.1047
  988TIP3    H2 2929   4.210   2.481   0.701  0.5620  1.8744  0.1260
  989TIP3   OH2 2930   5.317   1.047   5.113  0.3897  0.2995 -0.1304
  989TIP3    H1 2931   5.306   1.059   5.019  0.2572  2.3135  0.0923
  989TIP3    H2 2932   5.249   0.985   5.137 -0.3246  0.6273 -1.2040
  990TIP3   OH2 2933   0.277   0.387   4.383  0.2849 -0.2850  0.7345
  990TIP3    H1 2934   0.228   0.306   4.367  0.3440 -0.1809  0.0220
  990TIP3    H2 2935   0.251   0.413   4.472 -0.1241 -0.8116  0.7734
  991TIP3   OH2 2936   1.226   6.083   3.762 -0.2944  0.4822 -0.1536
  991TIP3    H1 2937   1.150   6.054   3.711 -0.8241  0.6509  0.5077
  991TIP3    H2 2938   1.297   6.024   3.737 -0.8658 -0.2055 -0.1837
  992TIP3   OH2 2939   1.413   0.834   1.665 -0.4623 -0.4040 -0.6125
  992TIP3    H1 2940   1.427   0.921   1.704 -0.6238 -0.2780 -0.8335
  992TIP3    H2 2941   1.320   0.816   1.678 -0.4465 -0.5066 -0.6418
  993TIP3   OH2 2942   3.887   3.774   2.993  0.0549 -0.2999  0.3078
  993TIP3    H1 2943   3.864   3.681   2.987  1.4429 -0.6174 -0.6937
  993TIP3    H2 2944   3.928   3.783   3.079  1.9285 -1.1471 -0.4382
  994TIP3   OH2 2945   6.294   5.564   2.186  0.5142  0.4639 -0.2096
  994TIP3    H1 2946   6.300   5.655   2.158 -0.1609  0.4997 -0.2600
  994TIP3    H2 2947   6.279   5.569   2.281 -0.3193  0.4396 -0.3286
  995TIP3   OH2 2948   6.781   6.499   1.715 -0.4708 -0.4042  0.0378
  995TIP3    H1 2949   6.830   6.581   1.725 -0.7911 -0.0252 -1.3648
  995TIP3    H2 2950   6.834   6.435   1.762  0.2880  0.4111  0.3396
  996TIP3   OH2 2951   2.876   5.104   4.688 -0.2104 -0.3539  0.5812
  996TIP3    H1 2952   2.827   5.167   4.740 -0.6876  0.0564 -0.3492
  996TIP3    H2 2953   2.909   5.040   4.752 -3.0014 -1.3758  1.1309
  997TIP3   OH2 2954   5.496   6.401   0.766  0.1492  0.3661  0.0251
  997TIP3    H1 2955   5.464   6.352   0.690 -1.2942  0.0070  0.8266
  997TIP3    H2 2956   5.434   6.474   0.774  0.3114  0.4222  0.8341
  998TIP3   OH2 2957   2.139   1.238   0.647 -0.2303  0.4407 -0.3786
  998TIP3    H1 2958   2.131   1.302   0.718  2.0360 -1.1153  1.4727
  998TIP3    H2 2959   2.081   1.167   0.673 -0.5433  0.5058 -0.8981
  999TIP3   OH2 2960   6.561   0.110   0.856 -0.1902 -0.7175 -0.3215
  999TIP3    H1 2961   6.468   0.114   0.838  0.0029 -2.5012 -2.1281
  999TIP3    H2 2962   6.584   0.198   0.885 -2.0429  0.3475 -1.8749
 1000TIP3   OH2 2963   4.499   6.437   4.775  0.1653 -0.0474  0.1204
 1000TIP3    H1 2964   4.421   6.397   4.737 -0.8981  2.5087 -0.6149
 1000TIP3    H2 2965   4.559   6.448   4.701 -0.3522  1.4097 -0.1229
 1001TIP3   OH2 2966   4.049   1.162   3.371 -0.0279  0.5647  0.2585
 1001TIP3    H1 2967   4.030   1.086   3.316  1.6085 -0.7640  1.4186
 1001TIP3    H2 2968   4.083   1.228   3.311 -2.0853  0.6654 -0.8606
 1002TIP3   OH2 2969   4.620   2.065   0.821 -0.0917 -0.0927  0.5618
 1002TIP3    H1 2970   4.645   2.037   0.732 -1.2898  1.8037 -0.4535
 1002TIP3    H2 2971   4.529   2.092   0.812 -0.3396 -0.1929  2.4944
 1003TIP3   OH2 2972   6.192   5.653   5.169  0.1634 -0.1180  0.5865
 1003TIP3    H1 2973   6.166   5.561   5.162 -1.2831  0.2847  0.3662
 1003TIP3    H2 2974   6.207   5.681   5.078  1.6777 -0.3910  0.7128
 1004TIP3   OH2 2975   3.445   4.594   5.729 -0.3574  0.3606  0.5381
 1004TIP3    H1 2976   3.494   4.513   5.729 -0.8742  0.0371  0.0996
 1004TIP3    H2 2977   3.457   4.629   5.641 -0.6279  0.4506  0.5355
 1005TIP3   OH2 2978   3.206   1.439   2.013 -0.3950  0.0056 -0.1272
 1005TIP3    H1 2979   3.286   1.395   2.041  0.5422  0.3322 -2.1776
 1005TIP3    H2 2980   3.136   1.389   2.056  0.7612 -2.0111 -0.4490
 1006TIP3   OH2 2981   1.507   1.142   3.455 -0.4882  0.4445 -0.1013
 1006TIP3    H1 2982   1.560   1.062   3.451  0.4275  0.8729  1.9482
 1006TIP3    H2 2983   1.501   1.171   3.364 -0.3830 -1.6382 -0.8309
 1007TIP3   OH2 2984   2.486   1.467   5.398  0.8180 -0.7065 -0.0421
 1007TIP3    H1 2985   2.409   1.523   5.403 -0.6740 -2.7377  1.5044
 1007TIP3    H2 2986   2.517   1.461   5.489  0.3419 -3.0659  0.0317
 1008TIP3   OH2 2987   0.904   2.929   4.732 -0.2463 -0.4609  0.4378
 1008TIP3    H1 2988   0.948   2.984   4.797 -2.4974 -0.4291  2.0243
 1008TIP3    H2 2989   0.942   2.841   4.745  1.2753  0.0625 -0.1557
 1009TIP3   OH2 2990   6.292   3.368   2.335  0.1241  0.6950  0.6256
 1009TIP3    H1 2991   6.214   3.343   2.384 -1.2477  1.7821 -0.8738
 1009TIP3    H2 2992   6.338   3.429   2.392 -0.4536  0.4983  1.3079
 1010TIP3   OH2 2993   4.894   0.813   1.657 -0.4060 -0.1438  0.2150
 1010TIP3    H1 2994   4.809   0.798   1.616 -0.0625  1.2729 -1.1529
 1010TIP3    H2 2995   4.882   0.894   1.708  0.3877  0.7562 -0.9639
 1011TIP3   OH2 2996   2.914   1.573   0.048 -0.2651  0.1095 -0.4566
 1011TIP3    H1 2997   3.009   1.586   0.045 -0.0585 -1.2807 -0.5502
 1011TIP3    H2 2998   2.900   1.511   0.119 -1.0127 -0.4146 -1.0449
 1012TIP3   OH2 2999   1.438   3.310   5.601  0.2313 -0.4689 -0.2901
 1012TIP3    H1 3000   1.506   3.289   5.665 -0.0871 -1.6846 -0.3326
 1012TIP3    H2 3001   1.471   3.272   5.519 -0.9114 -1.8948 -0.1160
 1013TIP3   OH2 3002   5.498   5.347   5.818 -0.1986 -0.2751  0.2368
 1013TIP3    H1 3003   5.566   5.389   5.871 -0.2545 -1.9551  1.7197
 1013TIP3    H2 3004   5.540   5.331   5.734  1.2368 -1.1261  1.0721
 1014TIP3   OH2 3005   1.501   3.232   3.776  0.3537 -0.2578  0.5328
 1014TIP3    H1 3006   1.562   3.183   3.831  0.3354 -0.0942  0.7001
 1014TIP3    H2 3007   1.443   3.166   3.739  0.8225 -0.4468  0.1338
 1015TIP3   OH2 3008   1.045   3.491   4.882  0.3375 -0.3606  0.4374
 1015TIP3    H1 3009   1.132   3.516   4.851  0.4768 -2.1787 -0.7631
 1015TIP3    H2 3010   1.012   3.430   4.817 -1.0900 -1.1373  1.8090
 1016TIP3   OH2 3011   6.308   2.886   1.873 -0.4692 -0.3009 -0.2063
 1016TIP3    H1 3012   6.292   2.978   1.894 -0.8853 -0.4569  0.1668
 1016TIP3    H2 3013   6.384   2.888   1.815 -0.2945  0.2567  0.0320
 1017TIP3   OH2 3014   5.202   6.413   5.096 -0.3914  0.2769  0.3666
 1017TIP3    H1 3015   5.115   6.385   5.123 -1.0120  1.4649 -0.3248
 1017TIP3    H2 3016   5.256   6.334   5.100 -0.9169 -0.0290  3.0870
 1018TIP3   OH2 3017   0.269   1.180   2.708 -0.1782 -0.3187  0.8344
 1018TIP3    H1 3018   0.311   1.259   2.676 -1.7660  0.3783  0.3318
 1018TIP3    H2 3019   0.339   1.128   2.746  1.2327  0.4123 -0.6572
 1019TIP3   OH2 3020   6.356   5.518   2.804  0.0298 -0.1867 -0.3471
 1019TIP3    H1 3021   6.308   5.555   2.730  0.2963  0.7466 -0.0654
 1019TIP3    H2 3022   6.355   5.586   2.871 -0.9656 -1.3238  0.8654
 1020TIP3   OH2 3023   0.455   5.953   3.405  0.3716  0.0251 -0.3279
 1020TIP3    H1 3024   0.371   5.979   3.367 -0.2555 -0.0960  0.9004
 1020TIP3    H2 3025   0.448   5.859   3.420  0.9810 -0.1031 -0.8116
 1021TIP3   OH2 3026   3.650   2.005   3.740  0.4143 -0.1382 -0.2177
 1021TIP3    H1 3027   3.603   1.932   3.783  0.0392  0.6822  0.8158
 1021TIP3    H2 3028   3.599   2.022   3.661  0.4069 -0.8880 -0.3837
 1022TIP3   OH2 3029   4.056   5.650   1.508  0.0547  0.5431  0.4951
 1022TIP3    H1 3030   4.044   5.720   1.444 -0.6903  0.3283  0.3917
 1022TIP3    H2 3031   3.969   5.611   1.518  0.6291 -1.0490 -0.2429
 1023TIP3   OH2 3032   1.353   4.196   4.631 -0.2467 -0.2112  0.1947
 1023TIP3    H1 3033   1.369   4.284   4.599 -0.0833 -0.6865 -1.0974
 1023TIP3    H2 3034   1.257   4.190   4.639 -0.2490  0.1241  0.4364
 1024TIP3   OH2 3035   0.512   6.127   3.001  0.1840  0.6184  0.0742
 1024TIP3    H1 3036   0.471   6.055   3.048  0.2467  1.9584  2.3288
 1024TIP3    H2 3037   0.439   6.181   2.970  0.0657  2.2799  2.9169
 1025TIP3   OH2 3038   2.833   4.219   1.889  0.3031 -0.1104  0.3456
 1025TIP3    H1 3039   2.895   4.209   1.816 -0.1136 -0.3215  0.0160
 1025TIP3    H2 3040   2.858   4.152   1.952 -1.1059 -1.8906 -0.8715
 1026TIP3   OH2 3041   6.850   3.713   5.023 -0.0751 -0.1438  0.0185
 1026TIP3    H1 3042   6.789   3.689   5.093 -0.2449  0.6557  0.1656
 1026TIP3    H2 3043   6.803   3.691   4.942 -0.8167  0.9573  0.1150
 1027TIP3   OH2 3044   3.235   3.171   5.825 -0.3750  0.1017 -0.2008
 1027TIP3    H1 3045   3.168   3.239   5.832 -1.7023 -1.2796  0.8625
 1027TIP3    H2 3046   3.288   3.198   5.749 -2.5661  0.8483 -1.5473
 1028TIP3   OH2 3047   3.666   2.186   4.955  0.1953  0.4226 -0.1760
 1028TIP3    H1 3048   3.663   2.090   4.957 -2.8396  0.3922  1.7844
 1028TIP3    H2 3049   3.648   2.208   4.864 -0.1569 -0.8970 -0.4549
 1029TIP3   OH2 3050   3.064   0.843   3.247 -0.9238 -0.1193 -0.0837
 1029TIP3    H1 3051   2.970   0.824   3.237 -1.5305  2.0475  0.9241
 1029TIP3    H2 3052   3.068   0.938   3.258  1.3011 -0.2829  1.0176
 1030TIP3   OH2 3053   3.582   0.580   4.489 -0.2634  0.3181 -0.1654
 1030TIP3    H1 3054   3.498   0.535   4.482 -0.1310  0.0582 -0.0799
 1030TIP3    H2 3055   3.638   0.538   4.424 -0.2215  0.5424 -0.2753
 1031TIP3   OH2 3056   5.410   3.678   4.577 -0.6280 -0.0241  0.1601
 1031TIP3    H1 3057   5.500   3.658   4.606 -0.1313  0.8571 -0.7061
 1031TIP3    H2 3058   5.366   3.708   4.657 -0.4958 -1.4873  0.8246
 1032TIP3   OH2 3059   7.194   0.961   1.837  0.0312 -0.0078 -0.4854
 1032TIP3    H1 3060   7.253   1.020   1.883  2.8186 -0.3169 -3.2984
 1032TIP3    H2 3061   7.193   0.881   1.889  0.0684  0.8474  0.8638
 1033TIP3   OH2 3062   1.927   5.716   3.165  0.3844  0.2850  0.7098
 1033TIP3    H1 3063   2.014   5.717   3.126  0.9191  1.4333  1.8446
 1033TIP3    H2 3064   1.871   5.759   3.101  0.3697 -1.4390 -0.5223
 1034TIP3   OH2 3065   3.352   4.946   4.594  0.2062 -0.3782 -0.7812
 1034TIP3    H1 3066   3.283   4.909   4.540 -2.4578  1.9103  0.7518
 1034TIP3    H2 3067   3.406   4.871   4.621 -1.5614 -2.2437 -2.2179
 1035TIP3   OH2 3068   2.007   1.351   4.670  0.5395  0.2791  0.1804
 1035TIP3    H1 3069   1.974   1.440   4.659 -0.7665 -0.2490 -0.3816
 1035TIP3    H2 3070   2.097   1.355   4.637 -0.0228  1.0373 -1.3790
 1036TIP3   OH2 3071   4.007   2.920   2.776 -0.5202  0.1476 -0.4216
 1036TIP3    H1 3072   3.950   2.892   2.847 -0.3593 -0.6216 -0.5872
 1036TIP3    H2 3073   3.970   2.879   2.698  1.5448 -2.3402 -0.2273
 1037TIP3   OH2 3074   6.953   0.055   0.429  0.1247  0.0575 -0.4985
 1037TIP3    H1 3075   6.861   0.047   0.455  0.2847 -1.2974 -0.2571
 1037TIP3    H2 3076   6.950   0.072   0.335 -0.3701 -0.7925 -0.6431
 1038TIP3   OH2 3077   6.835   4.481   5.357  0.4348  0.1975 -0.7818
 1038TIP3    H1 3078   6.922   4.470   5.317  0.9053  2.9702 -0.7023
 1038TIP3    H2 3079   6.852   4.476   5.451  0.2104 -0.9506 -0.7942
 1039TIP3   OH2 3080   0.932   6.551   0.049 -0.1187 -0.2281 -0.0352
 1039TIP3    H1 3081   0.962   6.489  -0.018  0.1004  0.6504 -0.7608
 1039TIP3    H2 3082   0.923   6.634   0.003 -3.1594 -0.2916  0.2459
 1040TIP3   OH2 3083   5.448   4.353   1.867  0.1622 -0.2746 -0.4914
 1040TIP3    H1 3084   5.461   4.260   1.849  0.4040  0.2599 -3.8146
 1040TIP3    H2 3085   5.368   4.357   1.919  0.1199 -2.3148 -0.3303
 1041TIP3   OH2 3086   1.237   0.188   2.015 -0.6504 -0.7568  0.0201
 1041TIP3    H1 3087   1.266   0.152   2.098  1.8002  0.8271 -0.0416
 1041TIP3    H2 3088   1.275   0.131   1.949  1.8213  0.7946 -0.0357
 1042TIP3   OH2 3089   3.229   0.520   4.697 -0.0961 -0.2559  0.2471
 1042TIP3    H1 3090   3.238   0.444   4.755 -0.1313  0.1187  0.7491
 1042TIP3    H2 3091   3.151   0.565   4.728  1.0514  1.1176  1.2789
 1043TIP3   OH2 3092   2.958   2.742   0.137  0.2957  0.1630 -0.0472
 1043TIP3    H1 3093   2.901   2.679   0.181 -0.1356 -0.6843 -1.7164
 1043TIP3    H2 3094   2.973   2.704   0.050  0.4357  2.1148 -0.9393
 1044TIP3   OH2 3095   2.896   0.671   0.999  0.4679 -0.1207  0.4997
 1044TIP3    H1 3096   2.952   0.652   1.074  1.2008  1.9123  0.5390
 1044TIP3    H2 3097   2.811   0.634   1.023  1.6388 -3.0427  0.5541
 1045TIP3   OH2 3098   0.995   2.553   4.118 -0.1705  0.2380  0.0208
 1045TIP3    H1 3099   1.049   2.476   4.132  0.0826  0.0810 -1.6342
 1045TIP3    H2 3100   0.935   2.528   4.047 -1.0126  1.1088  0.3939
 1046TIP3   OH2 3101   6.080   6.661   5.800  0.7273 -0.3489 -0.0930
 1046TIP3    H1 3102   6.117   6.681   5.714  0.2385 -1.7124 -0.6443
 1046TIP3    H2 3103   6.134   6.590   5.834  0.8984  0.1546  0.7352
 1047TIP3   OH2 3104   2.641   2.486   0.069 -0.2451  0.6249 -0.2355
 1047TIP3    H1 3105   2.607   2.397   0.061  0.8472  0.1143  0.5603
 1047TIP3    H2 3106   2.584   2.528   0.132  1.1521 -0.5659  1.9510
 1048TIP3   OH2 3107   3.604   2.496   0.310  0.3924  0.2208 -0.0136
 1048TIP3    H1 3108   3.512   2.496   0.287  0.4455 -1.2958 -0.2852
 1048TIP3    H2 3109   3.609   2.550   0.389 -0.4823  1.5330 -0.8211
 1049TIP3   OH2 3110   3.305   2.485   1.415 -0.5882 -0.5060 -0.4926
 1049TIP3    H1 3111   3.235   2.427   1.444 -0.0097  0.0061  2.2150
 1049TIP3    H2 3112   3.306   2.555   1.480 -0.2472  1.7677 -2.7669
 1050TIP3   OH2 3113   3.406   3.244   5.622 -0.5927  0.1827  0.3207
 1050TIP3    H1 3114   3.431   3.314   5.682  0.1680  0.0204  0.2024
 1050TIP3    H2 3115   3.489   3.211   5.587 -0.7792 -1.9248  1.6701
 1051TIP3   OH2 3116   6.529   3.792   4.935 -0.1336  0.0584  0.3042
 1051TIP3    H1 3117   6.528   3.872   4.883 -2.3073  0.6153  1.1046
 1051TIP3    H2 3118   6.551   3.723   4.873 -0.8626  0.9443 -0.9679
 1052TIP3   OH2 3119   5.630   0.514   2.811  0.3666 -0.4820  0.5842
 1052TIP3    H1 3120   5.542   0.476   2.818  0.6780 -1.3281  0.0407
 1052TIP3    H2 3121   5.672   0.464   2.741  0.8493  0.7654 -0.0455
 1053TIP3   OH2 3122   0.931   2.494   3.873 -0.0669 -0.5874  0.1934
 1053TIP3    H1 3123   0.910   2.541   3.792 -0.4582 -0.0326  0.6073
 1053TIP3    H2 3124   1.018   2.457   3.858  0.6567  1.0546  0.2034
 1054TIP3   OH2 3125   5.522   1.674   5.528  0.3823  0.4213  0.1894
 1054TIP3    H1 3126   5.482   1.668   5.442  0.7772  1.0547 -0.0438
 1054TIP3    H2 3127   5.449   1.659   5.589  0.0697  0.1431 -0.2448
 1055TIP3   OH2 3128   4.386   5.205   4.398  0.6821 -0.2602 -0.1558
 1055TIP3    H1 3129   4.297   5.177   4.380  0.2111  0.9152  0.2698
 1055TIP3    H2 3130   4.389   5.214   4.493  0.0864  3.2831 -0.3527
 1056TIP3   OH2 3131   1.539   3.887   1.636  0.3244 -0.0244  0.1744
 1056TIP3    H1 3132   1.470   3.821   1.639 -0.0846  0.3475 -0.6592
 1056TIP3    H2 3133   1.551   3.913   1.727 -0.8960  0.1707  0.2958
 1057TIP3   OH2 3134   5.301   6.159   2.435  0.2942  0.9681  0.0762
 1057TIP3    H1 3135   5.328   6.188   2.348  1.2096 -0.0518 -0.0092
 1057TIP3    H2 3136   5.283   6.239   2.484 -0.2727  1.5509 -1.0551
 1058TIP3   OH2 3137   4.700   5.521   2.225  0.0817 -0.1423  0.5090
 1058TIP3    H1 3138   4.711   5.461   2.151 -1.4864  0.8263 -0.5866
 1058TIP3    H2 3139   4.609   5.507   2.253  0.2677  0.4181  1.4342
 1059TIP3   OH2 3140   5.740   1.702   1.279  1.5589 -0.1760  0.8683
 1059TIP3    H1 3141   5.779   1.621   1.312  1.1564 -1.7284 -2.1294
 1059TIP3    H2 3142   5.655   1.707   1.323  1.6123 -1.3688  1.1458
 1060TIP3   OH2 3143   2.377   3.094   3.950  0.3409 -0.3375 -0.2329
 1060TIP3    H1 3144   2.300   3.040   3.933 -1.7005  2.3274 -0.0392
 1060TIP3    H2 3145   2.443   3.063   3.888 -0.5591 -3.2361  0.1370
 1061TIP3   OH2 3146   0.995   2.881   1.515 -0.2273 -0.4388  0.2722
 1061TIP3    H1 3147   1.062   2.920   1.459 -0.8873 -1.5304 -1.3433
 1061TIP3    H2 3148   0.915   2.884   1.463 -1.2074 -0.2040  1.7254
 1062TIP3   OH2 3149   3.777   6.822   4.465  0.2899 -0.5286  0.3449
 1062TIP3    H1 3150   3.687   6.819   4.497 -0.0579  0.7581 -0.4291
 1062TIP3    H2 3151   3.782   6.754   4.398 -0.4212  0.0712 -0.3364
 1063TIP3   OH2 3152   5.525   0.629   1.617  0.2319  0.4672  0.4076
 1063TIP3    H1 3153   5.574   0.649   1.537 -2.2618  0.9631 -1.1137
 1063TIP3    H2 3154   5.505   0.715   1.655 -3.4014  0.7177 -1.6360
 1064TIP3   OH2 3155   6.605   6.339   5.222 -0.3188  0.2572  0.4762
 1064TIP3    H1 3156   6.622   6.425   5.183 -1.0439  0.3509  0.3414
 1064TIP3    H2 3157   6.673   6.329   5.288 -2.0148  2.3375  2.7213
 1065TIP3   OH2 3158   0.892   2.434   2.885 -0.0957 -0.0362  0.2206
 1065TIP3    H1 3159   0.796   2.444   2.883 -0.3798 -2.1824  0.7577
 1065TIP3    H2 3160   0.909   2.382   2.963  1.4164 -0.5062 -0.3819
 1066TIP3   OH2 3161   1.156   1.743   4.583 -0.3225  0.0852 -0.2842
 1066TIP3    H1 3162   1.196   1.752   4.669 -0.5575 -0.4514 -0.1148
 1066TIP3    H2 3163   1.119   1.829   4.564 -1.3415 -0.1260  0.6803
 1067TIP3   OH2 3164   3.505   1.799   1.504  0.6067 -0.0622 -0.1623
 1067TIP3    H1 3165   3.458   1.808   1.586  1.3818  1.6227  0.1292
 1067TIP3    H2 3166   3.590   1.839   1.520  1.1071 -0.5066 -1.5285
 1068TIP3   OH2 3167   6.881   4.545   0.004 -0.2896 -0.0468  0.3156
 1068TIP3    H1 3168   6.871   4.638  -0.017  0.6015 -0.1453 -0.6039
 1068TIP3    H2 3169   6.904   4.544   0.097  0.9077  0.7554  0.0579
 1069TIP3   OH2 3170   7.148   2.714   0.754  0.4940 -0.4783 -0.5620
 1069TIP3    H1 3171   7.056   2.699   0.732  0.2834  0.1205 -0.1214
 1069TIP3    H2 3172   7.185   2.756   0.676  0.2667 -0.2726 -0.5625
 1070TIP3   OH2 3173   7.105   0.656   5.737 -0.3112 -0.1043  0.2367
 1070TIP3    H1 3174   7.100   0.570   5.780 -0.2129 -0.3366 -0.2070
 1070TIP3    H2 3175   7.165   0.642   5.663  0.9244  0.7302  1.0452
 1071TIP3   OH2 3176   2.794   4.319   0.552 -0.7933 -0.5294 -0.2250
 1071TIP3    H1 3177   2.770   4.274   0.471  0.2445 -1.3206 -0.1171
 1071TIP3    H2 3178   2.842   4.253   0.603 -0.1707  0.3830  0.4007
 1072TIP3   OH2 3179   2.377   2.469   0.985 -0.1878  0.2924  0.3030
 1072TIP3    H1 3180   2.306   2.487   1.047  0.0027  0.4625  0.4729
 1072TIP3    H2 3181   2.434   2.545   0.991 -1.6389  1.7325 -2.2312
 1073TIP3   OH2 3182   6.165   6.622   3.967  0.1432 -0.2920  0.1704
 1073TIP3    H1 3183   6.258   6.642   3.958  0.0353  0.7813  1.1835
 1073TIP3    H2 3184   6.128   6.643   3.881  0.5684  0.8531  0.2528
 1074TIP3   OH2 3185   0.544   1.671   5.670  0.6872 -0.4559  0.2049
 1074TIP3    H1 3186   0.618   1.730   5.659  0.7878 -0.7304 -0.6159
 1074TIP3    H2 3187   0.488   1.688   5.595  0.7035 -1.3722 -0.0298
 1075TIP3   OH2 3188   5.400   2.881   2.346 -0.2204 -0.2655 -0.0914
 1075TIP3    H1 3189   5.416   2.975   2.331 -1.7374 -0.1439 -1.1152
 1075TIP3    H2 3190   5.366   2.849   2.262 -2.3058 -1.1321  1.0364
 1076TIP3   OH2 3191   6.219   4.338   5.557 -0.1174 -1.1602 -0.0401
 1076TIP3    H1 3192   6.200   4.277   5.628 -1.7550  1.1939  1.6894
 1076TIP3    H2 3193   6.315   4.337   5.550 -0.0357 -2.8847  0.8105
 1077TIP3   OH2 3194   2.908   3.342   4.435  0.5629  0.3831 -0.2599
 1077TIP3    H1 3195   2.966   3.327   4.361  1.2544 -0.5333  0.4333
 1077TIP3    H2 3196   2.837   3.280   4.424  0.0073  1.1008 -0.7974
 1078TIP3   OH2 3197   6.168   4.983   0.696 -0.0446  0.2098 -0.2863
 1078TIP3    H1 3198   6.108   5.010   0.627 -0.0101  2.1327  0.3803
 1078TIP3    H2 3199   6.246   4.952   0.650 -1.2418 -1.7601 -1.1442
 1079TIP3   OH2 3200   3.206   0.939   2.902 -0.2030  0.1023 -0.3354
 1079TIP3    H1 3201   3.141   0.887   2.947 -0.6348 -0.9987 -2.1316
 1079TIP3    H2 3202   3.281   0.880   2.891 -0.2051  0.2465 -1.2387
 1080TIP3   OH2 3203   3.051   5.074   1.796 -0.4007  0.2285 -0.0906
 1080TIP3    H1 3204   2.978   5.013   1.790 -1.1410  1.1779 -0.9288
 1080TIP3    H2 3205   3.065   5.104   1.706  1.5404 -0.5074 -0.0975
 1081TIP3   OH2 3206   4.304   3.014   2.224  0.4227 -0.3143  0.1775
 1081TIP3    H1 3207   4.299   3.034   2.130 -1.6362 -1.0902  0.0712
 1081TIP3    H2 3208   4.253   3.084   2.266  0.5471 -0.4926  0.6292
 1082TIP3   OH2 3209   6.427   3.258   1.636  0.6783  0.9810 -0.0932
 1082TIP3    H1 3210   6.514   3.238   1.671  1.2420  0.4023 -1.7466
 1082TIP3    H2 3211   6.431   3.352   1.616  1.2526  0.7740 -1.0038
 1083TIP3   OH2 3212   4.243   1.317   5.788 -0.2855  0.5713  1.2465
 1083TIP3    H1 3213   4.219   1.353   5.703  0.8476 -0.4018  0.4807
 1083TIP3    H2 3214   4.219   1.225   5.783  3.1915 -0.4131  0.5174
 1084TIP3   OH2 3215   6.020   0.974   0.156 -0.3507  0.1429 -0.5239
 1084TIP3    H1 3216   5.982   0.899   0.110 -0.5827 -0.8338  1.1879
 1084TIP3    H2 3217   6.112   0.972   0.133 -0.8515  1.1746 -2.9005
 1085TIP3   OH2 3218   2.698   2.649   4.211  0.9163  0.3080 -0.0677
 1085TIP3    H1 3219   2.650   2.725   4.176  0.8582  0.1232 -0.3930
 1085TIP3    H2 3220   2.678   2.578   4.150  0.0793 -0.2592  0.8490
 1086TIP3   OH2 3221   1.368   6.786   3.678  0.4865  0.2520 -0.1138
 1086TIP3    H1 3222   1.444   6.745   3.638  0.4725  0.1899 -0.0758
 1086TIP3    H2 3223   1.366   6.874   3.640  1.2237  0.6372  0.7271
 1087TIP3   OH2 3224   2.078   5.480   2.731 -0.5000 -0.0681  0.3357
 1087TIP3    H1 3225   2.068   5.503   2.639  1.6860  0.5756  0.1968
 1087TIP3    H2 3226   2.051   5.559   2.778  0.5554  0.4307  0.1305
 1088TIP3   OH2 3227   3.216   4.871   1.889 -0.2186  0.8357  0.0667
 1088TIP3    H1 3228   3.201   4.835   1.802 -0.1179  0.3230  0.2566
 1088TIP3    H2 3229   3.203   4.965   1.879 -0.3103  0.7674 -0.4779
 1089TIP3   OH2 3230   7.098   4.627   4.167  0.0730 -0.0798 -0.1673
 1089TIP3    H1 3231   7.016   4.579   4.161  0.3897 -0.8301  1.0438
 1089TIP3    H2 3232   7.092   4.695   4.101 -1.2472 -0.5318 -0.5301
 1090TIP3   OH2 3233   4.730   5.900   3.145  0.5758 -0.1301 -0.4547
 1090TIP3    H1 3234   4.753   5.972   3.086 -0.6016  0.2667 -0.4536
 1090TIP3    H2 3235   4.769   5.822   3.105 -0.8041  0.0133 -2.1667
 1091TIP3   OH2 3236   4.334   3.151   1.546  0.2230  0.2397  0.2265
 1091TIP3    H1 3237   4.407   3.168   1.486 -0.3809  1.5661 -0.1653
 1091TIP3    H2 3238   4.368   3.086   1.607  0.8494 -1.2031 -1.5602
 1092TIP3   OH2 3239   3.852   1.418   4.538 -0.3153 -0.1611  0.4982
 1092TIP3    H1 3240   3.844   1.459   4.452  0.4697 -0.3995  0.3016
 1092TIP3    H2 3241   3.799   1.339   4.531  1.1462 -1.1171 -0.3857
 1093TIP3   OH2 3242   4.775   1.235   2.774 -0.6118 -0.2354 -0.0967
 1093TIP3    H1 3243   4.736   1.259   2.690 -2.2208 -2.1740  0.0338
 1093TIP3    H2 3244   4.715   1.272   2.839  0.3466  0.8075  0.2231
 1094TIP3   OH2 3245   6.501   5.392   1.036  0.2108  0.0432 -0.2167
 1094TIP3    H1 3246   6.439   5.418   1.105  0.0757  0.7467 -0.5944
 1094TIP3    H2 3247   6.563   5.334   1.081  0.0764  0.4263  0.4847
 1095TIP3   OH2 3248   1.026   0.281   5.577  0.6589  0.7928  0.7350
 1095TIP3    H1 3249   1.033   0.334   5.498  1.0331 -0.4777 -0.1128
 1095TIP3    H2 3250   0.932   0.262   5.585  0.8023 -0.7173 -0.5722
 1096TIP3   OH2 3251   2.689   1.722   3.400 -0.8185  0.5991 -0.7580
 1096TIP3    H1 3252   2.618   1.744   3.461 -0.3980 -2.5231  1.0642
 1096TIP3    H2 3253   2.769   1.741   3.449 -0.4374 -0.1416 -1.0876
 1097TIP3   OH2 3254   3.038   0.726   1.640  1.1727 -0.3968  0.4040
 1097TIP3    H1 3255   3.083   0.720   1.725  0.7675 -0.1516  0.6374
 1097TIP3    H2 3256   2.945   0.721   1.662  1.0676 -0.3789 -0.0326
 1098TIP3   OH2 3257   3.014   3.352   4.156  0.0668  0.0796  0.4753
 1098TIP3    H1 3258   3.044   3.380   4.069 -2.0463 -1.1761 -0.7623
 1098TIP3    H2 3259   3.065   3.274   4.176 -0.6148 -0.6165 -0.4524
 1099TIP3   OH2 3260   5.469   1.190   1.110 -0.4689  0.4206  0.4345
 1099TIP3    H1 3261   5.402   1.139   1.156 -3.1311  1.2481 -2.2030
 1099TIP3    H2 3262   5.520   1.125   1.062 -2.2073 -0.0610 -0.8811
 1100TIP3   OH2 3263   4.446   4.856   0.308 -0.5568  0.7214  0.1825
 1100TIP3    H1 3264   4.404   4.935   0.341 -1.8806 -0.3760  1.2339
 1100TIP3    H2 3265   4.380   4.815   0.252  0.2457  0.5360 -0.6490
 1101TIP3   OH2 3266   4.933   3.803   5.587  0.0442 -0.0931  0.0425
 1101TIP3    H1 3267   4.900   3.714   5.575 -1.4885  0.1628  1.9021
 1101TIP3    H2 3268   4.865   3.859   5.551  0.5630  0.3551 -0.2481
 1102TIP3   OH2 3269   3.473   6.504   0.174 -0.1682 -0.4908 -0.1515
 1102TIP3    H1 3270   3.423   6.494   0.093  0.7954 -0.2023 -0.8053
 1102TIP3    H2 3271   3.409   6.493   0.244 -1.2117  0.2445 -0.9622
 1103TIP3   OH2 3272   3.945  -0.016   1.603 -0.3455 -0.2465 -0.4531
 1103TIP3    H1 3273   3.868   0.040   1.606 -0.7344 -0.8082  0.4979
 1103TIP3    H2 3274   4.015   0.040   1.570 -0.2581  1.4114  2.2543
 1104TIP3   OH2 3275   6.145   1.069   5.461 -0.4003  0.6783  0.1703
 1104TIP3    H1 3276   6.149   0.975   5.479 -0.7589  0.7628  0.7172
 1104TIP3    H2 3277   6.213   1.084   5.396  0.3276  0.2030  0.8013
 1105TIP3   OH2 3278   4.321   5.702   0.821 -0.7997  0.0045 -0.5589
 1105TIP3    H1 3279   4.356   5.790   0.803  0.5021 -0.3808 -0.0527
 1105TIP3    H2 3280   4.370   5.645   0.763 -0.6823 -0.5435  0.0730
 1106TIP3   OH2 3281   5.984   0.960   3.680 -0.4874  0.4485  0.0538
 1106TIP3    H1 3282   5.952   1.003   3.601  0.6913 -0.2225 -0.8258
 1106TIP3    H2 3283   6.029   1.028   3.729 -0.1073  0.5913 -0.4922
 1107TIP3   OH2 3284   1.178   1.502   5.591  0.5484 -0.5765 -0.6687
 1107TIP3    H1 3285   1.189   1.469   5.680  1.0245  0.9693 -0.1148
 1107TIP3    H2 3286   1.089   1.538   5.589  0.0130 -1.8896 -1.2809
 1108TIP3   OH2 3287   6.760   5.733   3.551  0.0391 -0.4070  0.4204
 1108TIP3    H1 3288   6.769   5.658   3.493  0.1251  0.8453 -1.2655
 1108TIP3    H2 3289   6.680   5.717   3.599 -1.3925 -0.3936 -1.8147
 1109TIP3   OH2 3290   1.217   5.497   5.016  0.1072 -0.1201 -0.0272
 1109TIP3    H1 3291   1.149   5.444   5.058 -0.0959  0.4222  0.3371
 1109TIP3    H2 3292   1.275   5.522   5.088  0.5680 -0.3940 -0.3032
 1110TIP3   OH2 3293   2.747   5.806   5.811 -0.1256 -0.1628  0.3765
 1110TIP3    H1 3294   2.672   5.758   5.845 -1.1363  0.1355 -1.3101
 1110TIP3    H2 3295   2.797   5.741   5.762  0.6431 -0.3169  1.3342
 1111TIP3   OH2 3296   4.861   4.408   4.669 -0.1057 -0.0198 -0.6920
 1111TIP3    H1 3297   4.832   4.366   4.750 -1.0388 -1.2056 -1.6058
 1111TIP3    H2 3298   4.944   4.365   4.648 -0.0183  0.0745 -0.5493
 1112TIP3   OH2 3299   0.868   1.576   1.059  0.0630  0.4235 -0.3576
 1112TIP3    H1 3300   0.809   1.584   1.134 -0.7260 -1.2058 -0.7482
 1112TIP3    H2 3301   0.890   1.483   1.056 -0.8326  0.2032 -2.7680
 1113TIP3   OH2 3302   1.518   5.882   5.444 -0.0110  0.2120 -0.0668
 1113TIP3    H1 3303   1.524   5.790   5.469  1.9498  0.1771 -0.4505
 1113TIP3    H2 3304   1.514   5.881   5.348  2.4664  0.5018 -0.2514
 1114TIP3   OH2 3305   3.004   6.458   5.656  0.1544  0.4254 -0.7933
 1114TIP3    H1 3306   3.045   6.406   5.588  1.2352 -2.0621  1.5619
 1114TIP3    H2 3307   3.077   6.498   5.704 -0.3762 -0.1686  0.5691
 1115TIP3   OH2 3308   1.015   0.388   4.738 -0.4386 -0.2402  0.0969
 1115TIP3    H1 3309   0.941   0.352   4.689 -1.2782  0.6952  0.6417
 1115TIP3    H2 3310   1.044   0.316   4.795 -0.2023 -0.9557 -0.9041
 1116TIP3   OH2 3311   4.390   2.164   2.422 -0.3982 -0.1386 -0.2074
 1116TIP3    H1 3312   4.463   2.117   2.463 -1.0369 -1.2148 -0.2598
 1116TIP3    H2 3313   4.417   2.255   2.422  0.9964 -0.5315 -0.3190
 1117TIP3   OH2 3314   2.521   5.133   2.598 -0.1330  0.6129 -0.1051
 1117TIP3    H1 3315   2.508   5.225   2.574  0.8434  0.6332 -0.5921
 1117TIP3    H2 3316   2.613   5.116   2.578 -0.9764 -1.3374 -3.0754
 1118TIP3   OH2 3317   3.176   0.301   1.607  0.4180 -0.2486  0.7164
 1118TIP3    H1 3318   3.187   0.382   1.558  0.2306 -0.1349  0.8595
 1118TIP3    H2 3319   3.251   0.299   1.667  0.3456 -0.1068  0.8130
 1119TIP3   OH2 3320   4.015   3.756   0.113 -0.8555 -0.1117 -0.5482
 1119TIP3    H1 3321   4.048   3.846   0.121  0.5138 -0.6783  0.5972
 1119TIP3    H2 3322   4.093   3.704   0.095 -1.6823 -1.0452 -1.5176
 1120TIP3   OH2 3323   1.280   4.499   2.930 -0.0088 -0.2131  0.2246
 1120TIP3    H1 3324   1.340   4.470   2.860 -0.2820 -0.4978  0.1071
 1120TIP3    H2 3325   1.311   4.586   2.953  1.0390 -0.7076  0.8060
 1121TIP3   OH2 3326   5.102   1.612   5.294 -0.3156  0.0206  0.5232
 1121TIP3    H1 3327   5.042   1.604   5.221  1.3446  1.1209 -1.0603
 1121TIP3    H2 3328   5.059   1.674   5.354 -0.3543  1.6442 -1.0878
 1122TIP3   OH2 3329   4.940   1.107   1.736  0.2095 -0.3532 -0.7527
 1122TIP3    H1 3330   4.877   1.166   1.777  0.3041 -1.2566  0.7684
 1122TIP3    H2 3331   4.957   1.145   1.650 -1.0826  0.8430 -0.5038
 1123TIP3   OH2 3332   1.364   4.936   5.432  0.0819 -0.3461  0.6274
 1123TIP3    H1 3333   1.437   4.911   5.374 -1.2571 -2.3448 -0.2983
 1123TIP3    H2 3334   1.286   4.915   5.381 -1.2374  2.8026  1.1337
 1124TIP3   OH2 3335   1.306   5.756   2.785 -0.0576 -0.0696  0.0225
 1124TIP3    H1 3336   1.257   5.739   2.865  3.0289  2.9591  2.8263
 1124TIP3    H2 3337   1.366   5.682   2.777  0.5078  0.2131  1.3529
 1125TIP3   OH2 3338   3.001   1.876   0.954  0.2687 -0.1671 -0.4633
 1125TIP3    H1 3339   2.931   1.941   0.955  0.2347 -0.1947  0.5260
 1125TIP3    H2 3340   3.076   1.921   0.993  0.9746  0.0231 -1.9747
 1126TIP3   OH2 3341   1.150   2.078   1.911 -0.1406 -0.5873  0.5144
 1126TIP3    H1 3342   1.062   2.072   1.949 -0.3150 -0.2033  0.1842
 1126TIP3    H2 3343   1.195   1.999   1.941 -0.7789 -1.0713  0.2343
 1127TIP3   OH2 3344   2.526   5.450   0.787  0.0153 -0.1582  0.4949
 1127TIP3    H1 3345   2.505   5.357   0.780 -1.0449  0.1168 -0.0748
 1127TIP3    H2 3346   2.469   5.493   0.724  0.9782  0.8178  0.2603
 1128TIP3   OH2 3347   5.422   6.671   0.282 -0.3130 -0.1285 -0.3587
 1128TIP3    H1 3348   5.461   6.594   0.323  0.5768 -0.4564 -1.7596
 1128TIP3    H2 3349   5.478   6.744   0.310  0.9203 -0.4947 -1.7635
 1129TIP3   OH2 3350   2.785   0.833   3.211 -0.6738 -0.0789  0.6236
 1129TIP3    H1 3351   2.751   0.905   3.157  0.6642  0.8895  1.0341
 1129TIP3    H2 3352   2.746   0.754   3.172 -1.9544  0.8273 -0.0116
 1130TIP3   OH2 3353   6.421   1.314   2.086 -0.3539 -0.3475  0.0742
 1130TIP3    H1 3354   6.409   1.350   1.998  2.8180 -1.0435 -0.7417
 1130TIP3    H2 3355   6.362   1.366   2.141  0.0098  2.3907 -1.9132
 1131TIP3   OH2 3356   5.710   2.948   2.844 -0.6328 -0.3009 -0.4626
 1131TIP3    H1 3357   5.638   3.011   2.854  0.1510  0.4648  0.7023
 1131TIP3    H2 3358   5.733   2.924   2.934  0.2976 -0.8428 -0.8280
 1132TIP3   OH2 3359   0.174   2.174   3.582 -0.2169 -0.5528 -0.3730
 1132TIP3    H1 3360   0.264   2.182   3.611 -0.7174  0.7180  0.9586
 1132TIP3    H2 3361   0.172   2.216   3.496  0.1818  0.7577  0.2390
 1133TIP3   OH2 3362   2.212   4.841   1.420 -0.0690  0.1430 -0.2459
 1133TIP3    H1 3363   2.127   4.843   1.376  0.0115 -0.7981 -0.4669
 1133TIP3    H2 3364   2.199   4.891   1.500 -0.4447  1.1821 -0.9333
 1134TIP3   OH2 3365   1.726   6.146   2.896 -0.1215  0.3737  0.4040
 1134TIP3    H1 3366   1.696   6.065   2.854  0.1925 -0.3398  1.5080
 1134TIP3    H2 3367   1.653   6.173   2.951  0.2424  0.1171  1.0272
 1135TIP3   OH2 3368   5.950   1.673   5.636 -0.1858 -0.2557 -0.2425
 1135TIP3    H1 3369   5.868   1.664   5.588  0.1088  0.3821 -0.8699
 1135TIP3    H2 3370   5.939   1.753   5.688  0.5874  0.6785 -1.4646
 1136TIP3   OH2 3371   6.180   1.799   1.135  0.0941 -0.2331 -0.2801
 1136TIP3    H1 3372   6.131   1.807   1.217 -1.1893  1.1750 -1.1360
 1136TIP3    H2 3373   6.130   1.851   1.072  2.3482  0.7162 -1.3882
 1137TIP3   OH2 3374   4.240   4.441   4.153 -0.1281  0.1530 -0.2197
 1137TIP3    H1 3375   4.261   4.508   4.217  1.8684  0.2429 -0.8866
 1137TIP3    H2 3376   4.232   4.489   4.070 -3.1521  0.1091 -0.0480
 1138TIP3   OH2 3377   7.162   2.731   3.683 -0.1690  0.4241  0.0901
 1138TIP3    H1 3378   7.166   2.826   3.669  0.5135  0.2170 -1.3096
 1138TIP3    H2 3379   7.149   2.694   3.596  1.2013 -0.8451  0.3715
 1139TIP3   OH2 3380   2.359   1.070   3.144 -0.1910  0.0328  0.0403
 1139TIP3    H1 3381   2.335   1.108   3.060 -0.1460 -0.4670 -0.2035
 1139TIP3    H2 3382   2.326   0.980   3.139  1.4430 -0.5785 -0.1696
 1140TIP3   OH2 3383   2.840   5.209   1.328 -0.2422 -0.1027 -0.3612
 1140TIP3    H1 3384   2.853   5.270   1.401 -1.1485 -2.7210  2.1830
 1140TIP3    H2 3385   2.763   5.243   1.282 -0.7253  0.7054  0.9651
 1141TIP3   OH2 3386   0.433   0.959   0.208  0.3069 -0.3489 -0.1583
 1141TIP3    H1 3387   0.379   0.916   0.142 -0.4789 -1.2282  1.0031
 1141TIP3    H2 3388   0.489   0.889   0.242 -0.1218 -0.1958  0.9051
 1142TIP3   OH2 3389   5.490   3.984   3.803  0.0122 -0.2720  0.1030
 1142TIP3    H1 3390   5.409   3.986   3.752  0.7240  0.3540 -1.0592
 1142TIP3    H2 3391   5.494   4.069   3.846  0.0708 -0.2855  0.1240
 1143TIP3   OH2 3392   4.072   4.471   4.574  0.4610 -0.4805 -0.3194
 1143TIP3    H1 3393   4.159   4.499   4.603  0.5398 -2.1210  1.2483
 1143TIP3    H2 3394   4.021   4.468   4.655 -0.6830 -0.8202 -1.0407
 1144TIP3   OH2 3395   4.503   0.214   1.443  0.3569 -0.2294 -0.4849
 1144TIP3    H1 3396   4.438   0.214   1.373  0.7780 -1.9258 -0.9087
 1144TIP3    H2 3397   4.469   0.278   1.506 -0.4058  0.7770 -1.8685
 1145TIP3   OH2 3398   1.029   5.102   2.561  0.0981 -0.0623  0.1216
 1145TIP3    H1 3399   0.936   5.123   2.573  0.2066  0.3429  0.2888
 1145TIP3    H2 3400   1.075   5.182   2.586  0.5870 -0.8252  1.8875
 1146TIP3   OH2 3401   4.166   5.399   0.771  0.7259  0.8065 -0.8198
 1146TIP3    H1 3402   4.249   5.431   0.806  0.0547  0.2356  1.4655
 1146TIP3    H2 3403   4.189   5.357   0.688  2.7903  0.1920  0.0216
 1147TIP3   OH2 3404   1.007   2.779   0.534 -0.1899  0.3106 -0.4744
 1147TIP3    H1 3405   1.038   2.831   0.608  1.0687 -0.7854 -0.1917
 1147TIP3    H2 3406   1.037   2.828   0.457  0.4716  0.3296 -0.2162
 1148TIP3   OH2 3407   6.418   0.045   2.534  0.1702  0.1087  0.4975
 1148TIP3    H1 3408   6.380  -0.022   2.478  1.6893  0.2117 -0.7301
 1148TIP3    H2 3409   6.353   0.115   2.536 -0.5996 -0.5843  0.2197
 1149TIP3   OH2 3410   0.735   3.559   1.890  0.0595 -0.0551  0.3121
 1149TIP3    H1 3411   0.711   3.502   1.817 -0.8090  0.6247  0.0593
 1149TIP3    H2 3412   0.707   3.646   1.864  1.2894  0.4892  0.7438
 1150TIP3   OH2 3413   2.093   6.078   1.900  0.1016  0.0308 -0.3221
 1150TIP3    H1 3414   2.078   6.057   1.808  0.0442  1.0230 -0.5588
 1150TIP3    H2 3415   2.159   6.015   1.929  1.1947  0.5979 -1.4519
 1151TIP3   OH2 3416   5.822   2.070   2.715  0.3818 -0.1720  0.2061
 1151TIP3    H1 3417   5.765   2.135   2.756  0.5289  0.1886 -0.1528
 1151TIP3    H2 3418   5.903   2.074   2.767 -0.2485 -1.3869  1.3361
 1152TIP3   OH2 3419   5.062   0.250   3.362  0.5818 -0.0950  0.0817
 1152TIP3    H1 3420   4.997   0.318   3.377 -0.5482 -1.2673  0.7497
 1152TIP3    H2 3421   5.070   0.205   3.446  2.4027  0.1069  0.0561
 1153TIP3   OH2 3422   5.704   0.064   4.625 -0.0202 -0.5621 -0.1178
 1153TIP3    H1 3423   5.667   0.079   4.711 -1.9831  0.0575 -1.0093
 1153TIP3    H2 3424   5.628   0.058   4.567  1.2088 -1.6027 -1.7188
 1154TIP3   OH2 3425   3.781   5.737   1.033 -0.3006  0.3811 -0.3971
 1154TIP3    H1 3426   3.821   5.817   0.999  0.1564 -0.5593 -2.2108
 1154TIP3    H2 3427   3.851   5.672   1.031 -1.2337 -0.6468 -1.1809
 1155TIP3   OH2 3428   0.984   1.911   2.262 -0.5975 -0.1172 -0.1792
 1155TIP3    H1 3429   1.000   2.000   2.231 -3.4285  1.3423  2.0607
 1155TIP3    H2 3430   0.892   1.895   2.242 -1.0076 -1.2400  2.2324
 1156TIP3   OH2 3431   2.406   2.469   3.764  0.2735 -0.6183 -0.3676
 1156TIP3    H1 3432   2.405   2.485   3.670  0.1965  0.0013 -0.2653
 1156TIP3    H2 3433   2.483   2.413   3.778  0.0397 -1.0664 -0.8487
 1157TIP3   OH2 3434   4.216   4.005   1.901  0.3289  0.3931 -0.2491
 1157TIP3    H1 3435   4.239   4.063   1.973 -0.9076 -0.4201  0.8421
 1157TIP3    H2 3436   4.159   3.939   1.940 -0.0240 -0.3251 -1.8841
 1158TIP3   OH2 3437   0.022   2.503   5.609 -0.4539 -0.0144 -0.2415
 1158TIP3    H1 3438   0.072   2.424   5.627  0.0338  0.0222 -1.3564
 1158TIP3    H2 3439  -0.007   2.534   5.695  1.5617  0.0574  0.4551
 1159TIP3   OH2 3440   3.932   4.842   5.482 -0.6162  0.3920  0.1020
 1159TIP3    H1 3441   3.955   4.932   5.459 -2.3458  1.4882  2.2448
 1159TIP3    H2 3442   3.839   4.835   5.458 -0.0647 -1.4664 -1.6900
 1160TIP3   OH2 3443   7.063   1.366   5.478  0.0030 -0.6714 -0.4145
 1160TIP3    H1 3444   6.987   1.357   5.537  0.1344 -0.1420 -0.1592
 1160TIP3    H2 3445   7.072   1.279   5.438 -0.9870 -0.6330 -0.7568
 1161TIP3   OH2 3446   0.186   3.459   2.389 -0.1574 -0.1368  0.3391
 1161TIP3    H1 3447   0.242   3.384   2.368  1.1561  1.6392 -3.3994
 1161TIP3    H2 3448   0.233   3.508   2.456  1.0797 -0.4711 -0.2704
 1162TIP3   OH2 3449   3.227   0.356   4.970  0.1721 -0.4679 -0.3419
 1162TIP3    H1 3450   3.283   0.414   5.021 -0.2739 -0.9904  0.7842
 1162TIP3    H2 3451   3.264   0.269   4.983 -0.0994 -0.6391 -0.7037
 1163TIP3   OH2 3452   2.794   2.597   5.781 -0.1513 -0.9650 -0.4616
 1163TIP3    H1 3453   2.766   2.642   5.702  0.7659  2.0621  0.7999
 1163TIP3    H2 3454   2.868   2.542   5.753  1.9771  2.1098 -1.3911
 1164TIP3   OH2 3455   3.220   4.472   4.960 -0.1309  0.2957 -0.2292
 1164TIP3    H1 3456   3.237   4.397   5.017  1.0077 -0.1093 -1.0574
 1164TIP3    H2 3457   3.294   4.531   4.977  0.3844  0.0323 -1.4690
 1165TIP3   OH2 3458   6.027   4.177   1.727 -0.3332  0.1173 -0.2915
 1165TIP3    H1 3459   6.067   4.097   1.692  1.5359 -0.9126  3.5827
 1165TIP3    H2 3460   6.101   4.237   1.740 -1.4177  1.7330 -1.1346
 1166TIP3   OH2 3461   1.652   0.911   5.439  0.0330  0.0355  0.0590
 1166TIP3    H1 3462   1.738   0.937   5.472 -0.6849 -0.0092  2.1338
 1166TIP3    H2 3463   1.665   0.823   5.403  1.4171  1.1537 -2.3768
 1167TIP3   OH2 3464   1.288   3.178   2.336 -0.0711 -0.7362  0.2466
 1167TIP3    H1 3465   1.360   3.176   2.273  0.5040 -2.0972  0.9079
 1167TIP3    H2 3466   1.323   3.228   2.410 -0.6517  0.6238 -0.3563
 1168TIP3   OH2 3467   0.864   0.409   5.350  0.0885  0.2161  0.9311
 1168TIP3    H1 3468   0.854   0.355   5.272  2.8473 -0.9810  1.2867
 1168TIP3    H2 3469   0.790   0.385   5.406 -2.0897  1.2674 -1.2988
 1169TIP3   OH2 3470   6.979   2.030   2.817 -0.0461 -0.1767  0.0678
 1169TIP3    H1 3471   7.064   2.012   2.777  1.1012  2.3804  1.1863
 1169TIP3    H2 3472   6.962   2.122   2.797 -1.5485 -0.0647  1.6596
 1170TIP3   OH2 3473   5.797   0.953   1.139  0.3699 -0.0257 -0.0025
 1170TIP3    H1 3474   5.832   0.936   1.051  0.3023 -0.3496  0.0342
 1170TIP3    H2 3475   5.704   0.936   1.131  0.4118 -0.3570  0.2119
 1171TIP3   OH2 3476   6.022   1.411   0.264  0.3792 -0.3819 -0.1894
 1171TIP3    H1 3477   6.087   1.479   0.281  0.3070 -0.4719  0.4647
 1171TIP3    H2 3478   5.978   1.398   0.348 -0.9495  0.1494 -0.7656
 1172TIP3   OH2 3479   1.231   1.820   1.713 -0.3320  0.3089 -0.1249
 1172TIP3    H1 3480   1.214   1.914   1.712 -0.2718  0.3428  1.0932
 1172TIP3    H2 3481   1.325   1.814   1.693 -0.2011  0.5556  0.3768
 1173TIP3   OH2 3482   5.562   5.908   2.233 -0.4810  0.0583 -0.0720
 1173TIP3    H1 3483   5.473   5.925   2.203 -0.2825  1.2846 -0.0461
 1173TIP3    H2 3484   5.610   5.988   2.209  0.2529  0.0521  1.2943
 1174TIP3   OH2 3485   2.620   5.263   4.749  0.2691  0.0762  0.4740
 1174TIP3    H1 3486   2.552   5.296   4.690 -0.2867  0.2902  1.2185
 1174TIP3    H2 3487   2.623   5.326   4.820  0.1458 -0.7551  1.2365
 1175TIP3   OH2 3488   4.585   2.503   4.619 -0.0494 -0.3196  0.3304
 1175TIP3    H1 3489   4.556   2.481   4.708 -1.8349 -0.5181 -0.2594
 1175TIP3    H2 3490   4.635   2.426   4.591 -1.3939 -1.2534  0.3762
 1176TIP3   OH2 3491   3.435   2.635   1.198 -0.0122  0.0610 -0.1535
 1176TIP3    H1 3492   3.353   2.684   1.207  0.1132  0.3559 -0.5940
 1176TIP3    H2 3493   3.412   2.546   1.225 -0.6271  0.0077 -0.7996
 1177TIP3   OH2 3494   5.345   2.348   5.076 -0.5187 -0.4055 -0.1462
 1177TIP3    H1 3495   5.276   2.284   5.094 -1.4132  0.3269 -0.8105
 1177TIP3    H2 3496   5.422   2.296   5.056  0.1540 -1.2882  3.9697
 1178TIP3   OH2 3497   6.963   6.074   5.173 -0.6010  0.1172 -0.1569
 1178TIP3    H1 3498   6.948   6.080   5.079 -3.2690 -0.0553  0.1915
 1178TIP3    H2 3499   6.986   5.983   5.188  0.0735  0.2005 -0.6592
 1179TIP3   OH2 3500   7.242   0.057   4.701  0.3736  0.1399  0.1179
 1179TIP3    H1 3501   7.220   0.139   4.745  0.1067 -0.0067  0.2553
 1179TIP3    H2 3502   7.160   0.025   4.665  0.4440 -0.1544  0.2100
 1180TIP3   OH2 3503   6.030   5.726   2.975  0.1099  0.2102 -0.3626
 1180TIP3    H1 3504   5.943   5.742   2.937 -0.2517  0.4864  0.5515
 1180TIP3    H2 3505   6.087   5.788   2.929  0.3101 -1.4955 -2.5945
 1181TIP3   OH2 3506   2.698   5.914   4.824  0.4138 -0.2334 -0.8239
 1181TIP3    H1 3507   2.710   6.003   4.857  0.2150 -0.0933 -1.1289
 1181TIP3    H2 3508   2.773   5.865   4.860  2.2125  0.7036 -3.0267
 1182TIP3   OH2 3509   1.544   0.094   3.378  0.4797  0.0163  0.4077
 1182TIP3    H1 3510   1.627   0.048   3.371  0.5196 -0.0840  1.3834
 1182TIP3    H2 3511   1.552   0.168   3.318  0.9185 -0.4965 -0.1841
 1183TIP3   OH2 3512   2.855   5.914   2.660  0.5499 -0.5830 -0.1564
 1183TIP3    H1 3513   2.768   5.881   2.637  1.1344 -1.2298 -1.5452
 1183TIP3    H2 3514   2.887   5.954   2.579  0.2753  2.6123  1.1510
 1184TIP3   OH2 3515   4.744   6.507   1.251 -0.0410  0.3399  0.8260
 1184TIP3    H1 3516   4.726   6.444   1.182  3.2102 -1.8843  1.7665
 1184TIP3    H2 3517   4.756   6.590   1.205  0.9105 -0.8462 -1.2163
 1185TIP3   OH2 3518   6.221   1.999   3.191  0.3974 -0.3840 -0.0177
 1185TIP3    H1 3519   6.220   1.938   3.264 -0.1969  0.0817  0.3752
 1185TIP3    H2 3520   6.279   2.070   3.219  2.0927 -1.3280 -0.9689
 1186TIP3   OH2 3521   0.424   2.106   3.460 -0.6276  0.2973  0.3936
 1186TIP3    H1 3522   0.518   2.086   3.461 -0.5791  0.5423  0.9759
 1186TIP3    H2 3523   0.408   2.137   3.371  0.2552  2.1625  0.8366
 1187TIP3   OH2 3524   3.811   5.349   1.044  1.4212 -0.0746  0.5634
 1187TIP3    H1 3525   3.716   5.352   1.054  1.5828 -0.0340  2.4727
 1187TIP3    H2 3526   3.834   5.437   1.013  0.7758 -0.4190 -1.0010
 1188TIP3   OH2 3527   3.624   3.371   0.697 -0.9616 -0.8342  0.3091
 1188TIP3    H1 3528   3.701   3.315   0.691  0.1942  0.8186 -1.7943
 1188TIP3    H2 3529   3.595   3.362   0.788  0.9020 -2.5201  0.8152
 1189TIP3   OH2 3530   3.924   6.542   0.738  0.1071 -0.4773 -0.5380
 1189TIP3    H1 3531   3.872   6.620   0.716  1.4270  0.0684 -1.9781
 1189TIP3    H2 3532   3.874   6.497   0.805 -0.8144  1.5150  0.1904
 1190TIP3   OH2 3533   5.022   5.598   4.615 -0.1191 -0.1550  0.1738
 1190TIP3    H1 3534   5.063   5.607   4.701  1.8609 -0.9187 -0.6230
 1190TIP3    H2 3535   5.096   5.595   4.554 -1.4933  2.0339 -1.7605
 1191TIP3   OH2 3536   2.880   2.151   4.625  0.5235  0.4265  0.2883
 1191TIP3    H1 3537   2.882   2.086   4.554  0.1698  0.8001 -0.0682
 1191TIP3    H2 3538   2.950   2.213   4.603 -0.1975  1.0636 -0.2407
 1192TIP3   OH2 3539   5.750   2.898   0.689 -0.0057  0.3906  0.5113
 1192TIP3    H1 3540   5.668   2.876   0.645 -0.2292 -1.3614  1.6907
 1192TIP3    H2 3541   5.818   2.874   0.625 -0.3699  1.3648 -0.2676
 1193TIP3   OH2 3542   2.650   4.189   3.036  0.5765  0.0977 -0.5928
 1193TIP3    H1 3543   2.737   4.162   3.004  1.2179  1.0923  0.2531
 1193TIP3    H2 3544   2.598   4.199   2.957  0.9928 -1.3046 -1.0678
 1194TIP3   OH2 3545   4.203   0.160   5.716  0.2175  0.2575  0.1804
 1194TIP3    H1 3546   4.163   0.220   5.652 -0.9727 -0.7240 -0.0403
 1194TIP3    H2 3547   4.131   0.104   5.744  1.2259 -0.8395  0.6489
 1195TIP3   OH2 3548   3.907   3.614   4.272 -0.7259  0.2233  0.3973
 1195TIP3    H1 3549   3.957   3.688   4.236 -0.7193 -0.2417 -0.5960
 1195TIP3    H2 3550   3.853   3.653   4.340  0.5927  0.8431  1.1490
 1196TIP3   OH2 3551   0.743   3.655   1.169 -0.1357 -0.3094  0.4075
 1196TIP3    H1 3552   0.727   3.672   1.262 -0.8433 -0.5975  0.3509
 1196TIP3    H2 3553   0.656   3.632   1.135 -0.0697  0.7488 -0.5274
 1197TIP3   OH2 3554   4.638   1.507   3.262 -0.0487 -0.0491 -0.1284
 1197TIP3    H1 3555   4.648   1.476   3.172 -0.4817  1.6325 -0.7949
 1197TIP3    H2 3556   4.727   1.532   3.289 -0.1406  0.8589 -0.6454
 1198TIP3   OH2 3557   0.124   5.369   4.561 -0.4619 -0.1796 -0.1066
 1198TIP3    H1 3558   0.053   5.416   4.603  1.3877  2.7201  0.1178
 1198TIP3    H2 3559   0.088   5.341   4.476 -1.5545  2.3506 -0.5725
 1199TIP3   OH2 3560   6.351   2.880   5.096 -0.3888 -0.6306 -0.4674
 1199TIP3    H1 3561   6.384   2.936   5.026 -2.3349  0.3391 -0.6697
 1199TIP3    H2 3562   6.260   2.862   5.072 -1.3000  0.1908  2.0293
 1200TIP3   OH2 3563   6.077   6.566   1.936  0.6184 -0.5301  0.3246
 1200TIP3    H1 3564   6.094   6.658   1.914  0.4082  0.0135  2.2684
 1200TIP3    H2 3565   6.000   6.568   1.991  0.9697 -1.8189  0.8999
 1201TIP3   OH2 3566   0.399   4.959   3.065 -0.0695  0.1767 -0.1973
 1201TIP3    H1 3567   0.356   4.902   3.129 -1.0815 -2.8760 -3.2734
 1201TIP3    H2 3568   0.329   4.986   3.006  1.3266 -0.3521 -2.1962
 1202TIP3   OH2 3569   6.937   5.654   0.594 -0.2591 -0.4750  0.1467
 1202TIP3    H1 3570   6.971   5.684   0.679  0.3519  1.2100 -0.6673
 1202TIP3    H2 3571   6.857   5.605   0.617 -1.5928  2.1378  1.5549
 1203TIP3   OH2 3572   0.929   6.042   0.426 -0.8665  0.4470  0.6644
 1203TIP3    H1 3573   1.024   6.034   0.413 -1.0244  1.0401 -1.1597
 1203TIP3    H2 3574   0.915   6.014   0.516  1.0454  0.3616  0.9841
 1204TIP3   OH2 3575   2.669   3.558   0.191  0.2641 -0.0109  0.3820
 1204TIP3    H1 3576   2.686   3.648   0.163  2.7535 -0.9224 -1.4249
 1204TIP3    H2 3577   2.590   3.533   0.144 -1.5384  1.6754  2.2753
 1205TIP3   OH2 3578   0.407   0.459   4.792 -0.2090  0.1393  0.0586
 1205TIP3    H1 3579   0.397   0.488   4.882 -0.2297  0.0295  0.0921
 1205TIP3    H2 3580   0.424   0.365   4.799  0.9750  0.3378  0.0118
 1206TIP3   OH2 3581   2.594   0.210   2.105 -0.0987 -0.3689  0.0221
 1206TIP3    H1 3582   2.535   0.138   2.085  1.1755 -0.9357 -1.9424
 1206TIP3    H2 3583   2.668   0.170   2.151  0.2922 -0.2425 -0.4751
 1207TIP3   OH2 3584   6.829   4.062   1.761 -0.3235 -0.0970  0.2294
 1207TIP3    H1 3585   6.789   4.126   1.820  0.8916  2.3650 -1.4429
 1207TIP3    H2 3586   6.814   4.098   1.673  0.4274 -2.1360 -0.7899
 1208TIP3   OH2 3587   5.181   6.602   1.874 -0.4369 -0.0709 -0.1978
 1208TIP3    H1 3588   5.120   6.667   1.838  0.5969  1.5234  0.7973
 1208TIP3    H2 3589   5.177   6.529   1.812 -1.9186  0.7733 -1.1712
 1209TIP3   OH2 3590   7.189   1.505   4.854 -0.0166 -0.6611  0.2484
 1209TIP3    H1 3591   7.239   1.578   4.890 -1.6600  0.7762 -0.2701
 1209TIP3    H2 3592   7.190   1.519   4.759  2.2410 -3.0819 -0.2195
 1210TIP3   OH2 3593   5.393   6.728   5.382  0.1494 -0.1904  0.2137
 1210TIP3    H1 3594   5.484   6.731   5.412  0.2318 -0.7888  0.0176
 1210TIP3    H2 3595   5.343   6.760   5.458  0.6883  2.7047 -0.5151
 1211TIP3   OH2 3596   2.845   2.497   4.374 -0.2838 -0.1469 -0.6778
 1211TIP3    H1 3597   2.857   2.541   4.458 -1.3267  1.1112 -1.1542
 1211TIP3    H2 3598   2.796   2.560   4.321 -1.3320 -1.6685 -1.5959
 1212TIP3   OH2 3599   2.697   0.909   3.459 -0.4488 -0.2063  0.3354
 1212TIP3    H1 3600   2.638   0.836   3.444 -0.0216 -0.4133 -0.3730
 1212TIP3    H2 3601   2.754   0.911   3.382 -0.6894  1.1003  0.1669
 1213TIP3   OH2 3602   6.639   0.637   2.843  0.1431  0.2600 -0.1402
 1213TIP3    H1 3603   6.703   0.572   2.873  1.2558  0.5378 -1.7617
 1213TIP3    H2 3604   6.601   0.597   2.765  0.3158  1.2376 -0.7398
 1214TIP3   OH2 3605   3.696   3.890   3.648 -0.0072 -0.3998  0.7424
 1214TIP3    H1 3606   3.620   3.928   3.603  0.7440 -0.1852 -0.3843
 1214TIP3    H2 3607   3.745   3.846   3.579  0.2554 -1.6230  1.6761
 1215TIP3   OH2 3608   0.329   4.949   5.706 -0.2911  0.2500 -0.5054
 1215TIP3    H1 3609   0.321   4.895   5.627  0.8593 -0.0071 -0.4686
 1215TIP3    H2 3610   0.424   4.961   5.717 -0.4782  1.1321  0.2660
 1216TIP3   OH2 3611   5.510   2.879   3.799  0.1755 -0.0696 -1.0284
 1216TIP3    H1 3612   5.484   2.793   3.766  2.3591 -1.1223 -0.1610
 1216TIP3    H2 3613   5.545   2.863   3.886  0.6340  1.7112 -0.8309
 1217TIP3   OH2 3614   2.877   4.543   1.341  0.2789  0.1285  0.3302
 1217TIP3    H1 3615   2.861   4.630   1.378  0.5482 -0.5856  2.2173
 1217TIP3    H2 3616   2.816   4.536   1.268 -0.8520  1.3021  1.1353
 1218TIP3   OH2 3617   4.827   0.541   4.920  0.5878 -0.0563 -0.1242
 1218TIP3    H1 3618   4.884   0.614   4.946 -0.3491  0.9197 -0.7216
 1218TIP3    H2 3619   4.795   0.505   5.003  2.5672 -1.0715  0.2591
 1219TIP3   OH2 3620   3.701   4.035   2.520 -0.0877  0.2068 -0.0387
 1219TIP3    H1 3621   3.709   4.032   2.615  1.0400  1.2239 -0.0816
 1219TIP3    H2 3622   3.726   4.124   2.496  0.2372 -0.2094 -1.3320
 1220TIP3   OH2 3623   3.002   4.178   0.701 -0.0891 -0.6431  0.1197
 1220TIP3    H1 3624   3.065   4.108   0.685  1.0819  0.4452 -0.1668
 1220TIP3    H2 3625   2.937   4.139   0.759 -0.6393 -2.5878 -1.6801
 1221TIP3   OH2 3626   1.596   3.258   2.571 -0.6440 -0.1020 -0.6492
 1221TIP3    H1 3627   1.656   3.247   2.497  0.2508  1.1167 -0.1472
 1221TIP3    H2 3628   1.599   3.174   2.617 -0.0959 -0.3879 -1.1879
 1222TIP3   OH2 3629   1.706   3.039   0.156 -0.0435  0.5230 -0.0982
 1222TIP3    H1 3630   1.774   2.972   0.148 -1.2552 -0.8782  0.7103
 1222TIP3    H2 3631   1.663   3.018   0.239 -1.7178  1.1035 -0.7877
 1223TIP3   OH2 3632   0.727   4.439   4.661 -0.0920  0.0588 -0.7798
 1223TIP3    H1 3633   0.787   4.421   4.588  0.8443  0.8583 -0.2229
 1223TIP3    H2 3634   0.771   4.404   4.738  0.1488  1.5399 -0.2145
 1224TIP3   OH2 3635   3.905   0.709   5.290 -0.2473  0.4226  0.5292
 1224TIP3    H1 3636   3.917   0.796   5.253 -0.2263  1.0011  1.8595
 1224TIP3    H2 3637   3.961   0.707   5.368 -1.5620 -0.1398  1.5069
 1225TIP3   OH2 3638   2.121   3.365   5.013  0.0435  0.3105  0.5682
 1225TIP3    H1 3639   2.065   3.423   5.065  1.6686  1.0612  1.5461
 1225TIP3    H2 3640   2.198   3.351   5.068  0.2114 -1.8450 -0.1498
 1226TIP3   OH2 3641   6.771   6.583   4.935 -0.3959  0.0343 -0.0206
 1226TIP3    H1 3642   6.744   6.536   4.856  1.4581  0.8055 -1.1905
 1226TIP3    H2 3643   6.857   6.547   4.957 -1.0318 -0.4262  1.9253
 1227TIP3   OH2 3644   5.428   6.103   1.760  0.4712  0.6782  0.4700
 1227TIP3    H1 3645   5.376   6.033   1.801  0.6841  0.1976 -0.0670
 1227TIP3    H2 3646   5.519   6.081   1.780  0.5932  0.3190 -0.4242
 1228TIP3   OH2 3647   0.437   1.408   3.890  0.0342  0.6351  0.0233
 1228TIP3    H1 3648   0.380   1.331   3.886 -0.2901  0.9335 -2.2661
 1228TIP3    H2 3649   0.523   1.373   3.915 -0.1331 -0.4617 -0.8803
 1229TIP3   OH2 3650   1.493   5.306   3.501 -0.1401 -0.2250  0.6610
 1229TIP3    H1 3651   1.568   5.349   3.541  0.4032 -1.2124  0.7507
 1229TIP3    H2 3652   1.479   5.353   3.419 -0.3623  0.9062  1.3328
 1230TIP3   OH2 3653   6.072   2.244   0.902 -0.0147  0.3439  0.1773
 1230TIP3    H1 3654   6.054   2.307   0.832 -0.9753 -1.3170 -1.1607
 1230TIP3    H2 3655   6.137   2.287   0.958  0.4493  1.9209 -1.4872
 1231TIP3   OH2 3656   0.575   6.318   3.870  0.2231  1.0205  0.5654
 1231TIP3    H1 3657   0.489   6.319   3.829  0.5854 -0.4232 -0.2983
 1231TIP3    H2 3658   0.572   6.389   3.934 -2.0916  0.1672  1.5204
 1232TIP3   OH2 3659   1.190   3.152   4.820 -0.6428 -0.2121 -0.2509
 1232TIP3    H1 3660   1.250   3.220   4.851  1.4283 -1.2557 -1.7076
 1232TIP3    H2 3661   1.207   3.077   4.877 -0.9945 -0.3493 -0.3210
 1233TIP3   OH2 3662   4.000   6.171   1.744 -0.4878 -0.2765  0.5276
 1233TIP3    H1 3663   3.925   6.171   1.686 -0.1995 -2.4093  0.0878
 1233TIP3    H2 3664   3.963   6.178   1.832 -1.0730  0.5116  0.2199
 1234TIP3   OH2 3665   2.238   2.660   5.119 -0.1810 -0.5268 -0.5925
 1234TIP3    H1 3666   2.171   2.669   5.187 -0.4213  0.6500 -0.9714
 1234TIP3    H2 3667   2.306   2.723   5.143  1.4881 -2.5999  0.5196
 1235TIP3   OH2 3668   5.346   4.694   2.413 -0.3361 -0.3655 -0.1195
 1235TIP3    H1 3669   5.284   4.766   2.425 -1.1566 -1.2161  0.9825
 1235TIP3    H2 3670   5.424   4.723   2.461  0.4080  0.9841 -2.0463
 1236TIP3   OH2 3671   3.036   0.062   2.110 -0.1236 -0.4188  0.1921
 1236TIP3    H1 3672   3.024  -0.009   2.047 -1.1100  0.5371 -0.7481
 1236TIP3    H2 3673   2.964   0.052   2.172 -0.5635  0.0453 -0.2362
 1237TIP3   OH2 3674   4.280   5.202   5.573 -0.2889 -0.2685 -0.2806
 1237TIP3    H1 3675   4.188   5.209   5.548 -0.4700 -1.5349 -0.0755
 1237TIP3    H2 3676   4.315   5.290   5.564 -1.5558  0.2552 -0.2382
 1238TIP3   OH2 3677   2.490   2.677   0.210 -0.4598  1.0047  0.3628
 1238TIP3    H1 3678   2.402   2.642   0.195 -1.0732  1.8112  1.8225
 1238TIP3    H2 3679   2.507   2.734   0.135 -0.2570 -0.8046 -1.0365
 1239TIP3   OH2 3680   3.753   1.625   4.713  0.3634  0.0668 -0.5554
 1239TIP3    H1 3681   3.785   1.539   4.683 -0.7854 -0.4044 -0.4728
 1239TIP3    H2 3682   3.796   1.638   4.797 -1.1143 -1.4751  0.5056
 1240TIP3   OH2 3683   3.014   4.344   1.440  1.0354 -0.9739 -0.5221
 1240TIP3    H1 3684   2.972   4.430   1.444  1.5281 -0.7079 -0.9466
 1240TIP3    H2 3685   2.979   4.303   1.361  1.3451 -0.8687 -0.7169
 1241TIP3   OH2 3686   2.774   3.356   4.013  0.6149  0.4443 -0.5710
 1241TIP3    H1 3687   2.861   3.349   4.053  0.3230  0.0150  0.0093
 1241TIP3    H2 3688   2.791   3.377   3.921  1.3318  0.3688 -0.4590
 1242TIP3   OH2 3689   1.894   4.782   3.130 -0.1773  0.2242 -0.2219
 1242TIP3    H1 3690   1.866   4.834   3.205 -1.7182 -1.2522  0.3127
 1242TIP3    H2 3691   1.897   4.844   3.057 -1.2979  1.1853  0.5162
 1243TIP3   OH2 3692   0.442   2.244   2.209 -0.1264  0.3105 -0.3797
 1243TIP3    H1 3693   0.470   2.177   2.148 -0.3429  0.5375 -0.7289
 1243TIP3    H2 3694   0.524   2.279   2.246 -0.0148 -0.1081 -0.2330
 1244TIP3   OH2 3695   4.088   1.348   1.492 -0.0473 -0.2100 -0.3311
 1244TIP3    H1 3696   4.096   1.324   1.400  2.0238 -0.7507 -0.0761
 1244TIP3    H2 3697   4.104   1.266   1.539  0.2689  0.3120  0.4984
 1245TIP3   OH2 3698   7.195   6.343   1.751 -0.1005 -0.1733  0.0591
 1245TIP3    H1 3699   7.254   6.374   1.820 -0.7303  1.1277  0.0520
 1245TIP3    H2 3700   7.192   6.415   1.688 -3.4012  0.8091  1.1508
 1246TIP3   OH2 3701   6.861   3.193   3.198  0.0111 -0.0663  0.1103
 1246TIP3    H1 3702   6.790   3.178   3.136 -0.4486 -1.2704  0.8938
 1246TIP3    H2 3703   6.847   3.282   3.230 -0.7044 -0.0212 -0.3166
 1247TIP3   OH2 3704   4.734   1.038   1.383  0.0178  0.0300  0.0564
 1247TIP3    H1 3705   4.735   1.072   1.293  2.2399  0.4536  0.1732
 1247TIP3    H2 3706   4.786   1.102   1.432 -1.0662 -0.2601  1.6237
 1248TIP3   OH2 3707   3.533   5.313   1.621 -0.2601  0.0832  0.1234
 1248TIP3    H1 3708   3.487   5.342   1.700 -1.4897 -1.3684 -0.0152
 1248TIP3    H2 3709   3.593   5.245   1.651  0.4908  0.7015  0.0387
 1249TIP3   OH2 3710   6.156   6.835   2.232 -0.5081 -0.0175 -0.2833
 1249TIP3    H1 3711   6.099   6.811   2.305 -1.4231  2.6833  0.0120
 1249TIP3    H2 3712   6.189   6.752   2.199 -0.6023 -1.3949  2.7415
 1250TIP3   OH2 3713   5.184   0.540   5.128 -0.6412  0.4175 -0.0417
 1250TIP3    H1 3714   5.090   0.539   5.145 -0.6398 -0.9971  0.0716
 1250TIP3    H2 3715   5.222   0.497   5.206  0.2202  2.0445  0.4760
 1251TIP3   OH2 3716   1.449   5.681   4.676  0.7898  0.0231  0.6992
 1251TIP3    H1 3717   1.519   5.644   4.623 -0.0043 -0.0889 -0.3237
 1251TIP3    H2 3718   1.386   5.610   4.686 -1.0006  1.1005 -1.7255
 1252TIP3   OH2 3719   4.145   5.230   2.420  1.1294  0.0953 -0.1377
 1252TIP3    H1 3720   4.214   5.285   2.457  1.6054  0.4647 -1.5093
 1252TIP3    H2 3721   4.098   5.196   2.496  0.1793  3.1704  0.7890
 1253TIP3   OH2 3722   0.573   4.032   0.790  0.5948 -0.4810 -0.2871
 1253TIP3    H1 3723   0.517   3.958   0.815  1.2719 -0.8453  0.1909
 1253TIP3    H2 3724   0.658   4.011   0.830  0.8981  0.3592 -0.4925
 1254TIP3   OH2 3725   6.525   0.883   5.226  0.1980  0.0169  0.0248
 1254TIP3    H1 3726   6.495   0.826   5.296  1.6508  0.6407  1.2071
 1254TIP3    H2 3727   6.458   0.952   5.221  1.0032  1.0419  2.1728
 1255TIP3   OH2 3728   6.275   4.049   3.843  0.0884  0.2196  0.9414
 1255TIP3    H1 3729   6.241   4.038   3.932  1.0187 -2.0168  1.0935
 1255TIP3    H2 3730   6.211   4.006   3.787  1.2191 -1.6137  0.9623
 1256TIP3   OH2 3731   2.657   1.104   4.254  0.8416  0.0035  0.2237
 1256TIP3    H1 3732   2.598   1.071   4.187 -0.6926  0.0111  1.5204
 1256TIP3    H2 3733   2.650   1.199   4.248  0.5927  0.0027  0.4780
 1257TIP3   OH2 3734   7.037   3.075   0.117 -0.1723  0.2784 -0.4909
 1257TIP3    H1 3735   7.019   3.052   0.025 -0.1637  1.5223 -0.8241
 1257TIP3    H2 3736   7.133   3.080   0.122 -0.1416 -0.4889 -0.2262
 1258TIP3   OH2 3737   6.955   2.107   3.562 -0.4650 -0.5015 -0.6846
 1258TIP3    H1 3738   7.042   2.068   3.558  0.3492  1.2557 -0.6523
 1258TIP3    H2 3739   6.896   2.036   3.535  1.1124 -1.1830 -2.4940
 1259TIP3   OH2 3740   2.240   4.331   3.177 -0.0233  0.0413  0.0076
 1259TIP3    H1 3741   2.296   4.340   3.254  0.1210 -1.0642  0.0351
 1259TIP3    H2 3742   2.214   4.239   3.176 -0.5152  0.1809 -0.9253
 1260TIP3   OH2 3743   5.439   0.333   2.288  0.5628  0.1199 -0.0684
 1260TIP3    H1 3744   5.447   0.423   2.319  2.9295 -0.2754  0.7241
 1260TIP3    H2 3745   5.459   0.279   2.365 -0.6417 -1.0965 -0.5707
 1261TIP3   OH2 3746   4.006   1.501   0.086  0.1639  0.1874  0.3981
 1261TIP3    H1 3747   4.031   1.421   0.134 -2.5733 -0.4923  0.8574
 1261TIP3    H2 3748   4.082   1.521   0.032  0.3377 -3.8492 -1.1986
 1262TIP3   OH2 3749   0.597   3.993   3.226  0.4064 -0.5374  0.4794
 1262TIP3    H1 3750   0.600   4.088   3.235  1.5576 -0.3589 -1.2641
 1262TIP3    H2 3751   0.525   3.977   3.165  0.7169 -0.7060  0.1508
 1263TIP3   OH2 3752   4.234   6.756   4.645 -0.5194  0.1252  0.3465
 1263TIP3    H1 3753   4.153   6.806   4.644 -1.0548 -0.7111 -1.3906
 1263TIP3    H2 3754   4.208   6.666   4.665 -0.1107 -0.2328 -0.6361
 1264TIP3   OH2 3755   3.653   3.671   4.939 -0.1246 -0.5055 -0.1015
 1264TIP3    H1 3756   3.647   3.580   4.969 -0.6813 -0.5853 -0.4486
 1264TIP3    H2 3757   3.579   3.715   4.980  0.3368 -0.1254  0.3326
 1265TIP3   OH2 3758   1.261   4.319   3.456 -0.5814  0.1342 -0.5418
 1265TIP3    H1 3759   1.252   4.413   3.440  0.5669  0.0846 -1.6580
 1265TIP3    H2 3760   1.187   4.279   3.411  0.1058  0.3619 -1.9290
 1266TIP3   OH2 3761   4.463   3.446   2.034  0.2653 -0.1646  0.2676
 1266TIP3    H1 3762   4.420   3.532   2.039  2.0714  0.7675  0.6423
 1266TIP3    H2 3763   4.395   3.384   2.060 -1.0126  1.1676  0.2623
 1267TIP3   OH2 3764   6.809   5.079   4.727 -0.5938  0.2472 -0.1861
 1267TIP3    H1 3765   6.786   5.020   4.655  0.0320  0.7078 -0.7770
 1267TIP3    H2 3766   6.842   5.157   4.683 -0.0424  0.4624  0.6079
 1268TIP3   OH2 3767   6.165   0.751   1.800  0.3801 -0.1434 -0.1475
 1268TIP3    H1 3768   6.232   0.696   1.758 -1.4048 -2.2877 -0.3919
 1268TIP3    H2 3769   6.133   0.807   1.729  0.4819 -0.5852 -0.5509
 1269TIP3   OH2 3770   3.876   6.386   5.552  0.3994  0.2877  0.0480
 1269TIP3    H1 3771   3.872   6.357   5.643  0.5935 -0.4367 -0.1635
 1269TIP3    H2 3772   3.941   6.456   5.552 -0.1090  0.7633  0.5816
 1270TIP3   OH2 3773   2.204   1.986   3.976 -0.2608  0.3133 -1.2027
 1270TIP3    H1 3774   2.120   1.983   4.022  0.4336  0.2205  0.0961
 1270TIP3    H2 3775   2.218   1.895   3.948 -0.7883  0.4112 -1.8155
 1271TIP3   OH2 3776   0.152   2.906   4.826 -0.3103  0.1404  0.2756
 1271TIP3    H1 3777   0.111   2.850   4.761  1.7299  0.0322 -1.0021
 1271TIP3    H2 3778   0.209   2.964   4.775  0.5995  0.7278  1.8967
 1272TIP3   OH2 3779   3.180   6.105   5.285  0.2414 -0.4173 -0.3328
 1272TIP3    H1 3780   3.110   6.069   5.340 -0.3315  1.3560  0.1662
 1272TIP3    H2 3781   3.258   6.056   5.311 -0.2923 -0.5850  1.0575
 1273TIP3   OH2 3782   2.070   3.788   3.415  0.2805  0.0268  0.3544
 1273TIP3    H1 3783   2.120   3.813   3.493  0.0462  1.0264  0.1977
 1273TIP3    H2 3784   2.026   3.868   3.388  1.4091  0.0438 -1.6240
 1274TIP3   OH2 3785   1.798   0.779   0.059 -0.6194 -0.1408  0.9044
 1274TIP3    H1 3786   1.725   0.737   0.104  0.6856 -2.7241  0.8031
 1274TIP3    H2 3787   1.764   0.800  -0.028 -0.9837 -2.2919  0.4873
 1275TIP3   OH2 3788   4.374   1.770   0.647  0.4140  0.1853 -0.0301
 1275TIP3    H1 3789   4.294   1.731   0.613  0.5880  1.7770 -2.4914
 1275TIP3    H2 3790   4.438   1.699   0.643 -0.4829 -0.6966  0.5850
 1276TIP3   OH2 3791   4.225   4.298   2.981 -0.3204 -0.5067 -0.3994
 1276TIP3    H1 3792   4.228   4.219   2.926 -1.5931 -0.5669 -0.3983
 1276TIP3    H2 3793   4.201   4.369   2.921 -0.4006 -0.3404 -0.1710
 1277TIP3   OH2 3794   5.671   4.792   5.762 -0.8582  0.1121 -0.1676
 1277TIP3    H1 3795   5.714   4.878   5.761 -1.1268  0.2526  0.1168
 1277TIP3    H2 3796   5.592   4.804   5.709 -1.5258  0.3800  0.8560
 1278TIP3   OH2 3797   2.661   0.990   3.025 -0.0066 -0.0593  0.5600
 1278TIP3    H1 3798   2.604   0.921   2.991  0.5618 -1.2114  1.8453
 1278TIP3    H2 3799   2.601   1.062   3.046 -0.6854 -0.3633 -0.2865
 1279TIP3   OH2 3800   7.146   5.099   0.803 -0.0951  0.3641 -0.4759
 1279TIP3    H1 3801   7.224   5.122   0.852  0.1684 -1.2834 -0.0820
 1279TIP3    H2 3802   7.174   5.098   0.712  0.1303  0.5809 -0.4099
 1280TIP3   OH2 3803   1.480   2.051   1.490 -0.1323  0.1828  0.0209
 1280TIP3    H1 3804   1.449   2.136   1.521 -0.7203  0.2878 -0.8187
 1280TIP3    H2 3805   1.409   2.018   1.434  0.2499 -0.6853  0.0259
 1281TIP3   OH2 3806   7.032   5.062   5.377  0.4747 -0.3550  0.2736
 1281TIP3    H1 3807   7.031   4.975   5.336 -1.3573 -0.8041  1.1590
 1281TIP3    H2 3808   7.123   5.088   5.375  0.7153 -1.0809 -2.5262
 1282TIP3   OH2 3809   3.236   0.434   2.475 -0.3654  0.0134 -0.0268
 1282TIP3    H1 3810   3.270   0.452   2.562 -0.3147 -0.9356  0.1581
 1282TIP3    H2 3811   3.193   0.349   2.483 -1.2133  0.3566 -0.6933
 1283TIP3   OH2 3812   4.337   3.278   4.476 -0.1339 -0.4670 -0.4366
 1283TIP3    H1 3813   4.329   3.262   4.382 -1.2439  1.0273 -0.6403
 1283TIP3    H2 3814   4.248   3.299   4.504  0.6312  2.2141  0.3009
 1284TIP3   OH2 3815   3.717   0.642   2.920 -0.1049 -0.2438  0.9384
 1284TIP3    H1 3816   3.670   0.560   2.900 -1.8974  0.9107  0.0743
 1284TIP3    H2 3817   3.708   0.694   2.840  1.7187  0.4937  1.1814
 1285TIP3   OH2 3818   0.502   2.506   0.319 -0.3413 -0.0257 -0.4167
 1285TIP3    H1 3819   0.576   2.454   0.351  0.3873  0.8979 -0.5735
 1285TIP3    H2 3820   0.425   2.454   0.342  0.1941  0.0915  1.9145
 1286TIP3   OH2 3821   2.659   2.395   4.060  0.3767 -0.1971  0.3829
 1286TIP3    H1 3822   2.696   2.394   3.972  0.4088 -2.2862  0.3723
 1286TIP3    H2 3823   2.692   2.315   4.101  0.0932  0.5540  2.1968
 1287TIP3   OH2 3824   2.754   0.340   1.130  0.0718 -0.0228  0.5074
 1287TIP3    H1 3825   2.685   0.281   1.099  0.6926 -1.0265  0.9893
 1287TIP3    H2 3826   2.760   0.323   1.224  0.3221  0.7721  0.6461
 1288TIP3   OH2 3827   0.547   6.294   0.991  0.7043 -0.6770  0.1416
 1288TIP3    H1 3828   0.586   6.379   1.009  0.6804 -0.3066 -1.4027
 1288TIP3    H2 3829   0.454   6.305   1.014  0.8328 -0.4936  0.5731
 1289TIP3   OH2 3830   3.497   6.209   1.188 -0.0553 -0.1052  0.6805
 1289TIP3    H1 3831   3.556   6.186   1.260  0.2852 -1.6672 -0.0591
 1289TIP3    H2 3832   3.435   6.137   1.184 -0.3729  0.2063 -0.2764
 1290TIP3   OH2 3833   0.220   0.594   3.944  0.0580  0.0830  0.3826
 1290TIP3    H1 3834   0.211   0.501   3.925 -0.4477 -0.2086  1.8960
 1290TIP3    H2 3835   0.206   0.638   3.860  0.4478 -1.2018 -0.3710
 1291TIP3   OH2 3836   7.043   4.866   4.033 -0.1154 -0.3794 -0.0211
 1291TIP3    H1 3837   7.056   4.909   3.948 -0.8063 -0.9068 -0.3983
 1291TIP3    H2 3838   6.959   4.898   4.064  0.3581  0.2017  0.7197
 1292TIP3   OH2 3839   4.757   1.693   1.369 -1.3007  0.1090  0.0472
 1292TIP3    H1 3840   4.849   1.686   1.395 -0.8158  2.0690 -0.8843
 1292TIP3    H2 3841   4.709   1.645   1.437  0.4783 -2.4014 -0.3344
 1293TIP3   OH2 3842   0.450   6.630   0.289  0.2786 -0.4498  0.1371
 1293TIP3    H1 3843   0.511   6.645   0.361  0.3511  0.2837 -0.0673
 1293TIP3    H2 3844   0.469   6.541   0.258  1.8568  0.0905 -0.5161
 1294TIP3   OH2 3845   1.224   0.402   3.649 -0.3119 -0.3171  0.3912
 1294TIP3    H1 3846   1.298   0.430   3.596 -0.4392 -1.5748 -0.4978
 1294TIP3    H2 3847   1.184   0.483   3.680  0.3632  0.4185 -0.6029
 1295TIP3   OH2 3848   6.199   6.419   1.717  0.5071  0.2186 -0.0956
 1295TIP3    H1 3849   6.111   6.382   1.709  0.8657 -1.2239  1.9294
 1295TIP3    H2 3850   6.194   6.478   1.792  1.7896 -1.7522  1.6336
 1296TIP3   OH2 3851   5.377   1.906   1.039  0.3816 -0.3510 -0.8351
 1296TIP3    H1 3852   5.458   1.930   1.084 -1.3038  1.3050  1.6037
 1296TIP3    H2 3853   5.367   1.973   0.970  0.4965  0.1945 -0.3317
 1297TIP3   OH2 3854   7.066   6.677   1.537  0.6505 -0.3074  0.0490
 1297TIP3    H1 3855   7.039   6.697   1.447 -0.5852  2.6276  0.9453
 1297TIP3    H2 3856   7.104   6.589   1.531 -1.4976 -1.2298 -2.9004
 1298TIP3   OH2 3857   1.915   1.378   4.919 -0.0787 -0.0652  0.6384
 1298TIP3    H1 3858   1.972   1.316   4.964  0.5566 -0.5095 -0.7218
 1298TIP3    H2 3859   1.917   1.350   4.827 -1.1184  0.9624  0.2819
 1299TIP3   OH2 3860   1.084   0.550   2.190  0.1437  0.0150  0.1449
 1299TIP3    H1 3861   1.081   0.521   2.099  2.1136  0.1544 -0.0031
 1299TIP3    H2 3862   1.154   0.499   2.229 -1.0070 -0.4091  1.7582
 1300TIP3   OH2 3863   3.010   5.835   0.933 -0.0252  0.2962  0.1975
 1300TIP3    H1 3864   3.092   5.815   0.889  0.1203 -1.1691  1.0663
 1300TIP3    H2 3865   2.997   5.763   0.995 -0.9654  1.5080  1.4911
 1301TIP3   OH2 3866   4.055   4.246   2.626 -0.2574 -0.2549 -0.4614
 1301TIP3    H1 3867   3.990   4.259   2.557  0.3901  0.2637 -0.9764
 1301TIP3    H2 3868   4.097   4.332   2.637 -0.3379 -0.3290  0.5677
 1302TIP3   OH2 3869   6.379   3.571   4.467 -0.2443  0.3680  0.5918
 1302TIP3    H1 3870   6.382   3.525   4.383 -0.3401 -1.1738  1.4121
 1302TIP3    H2 3871   6.312   3.638   4.455  0.0243  0.4287 -0.6838
 1303TIP3   OH2 3872   3.941   1.537   1.589  0.2970  0.3386 -0.2920
 1303TIP3    H1 3873   3.985   1.622   1.588 -1.1362  1.1349  0.7418
 1303TIP3    H2 3874   4.006   1.476   1.555  1.7806  1.6540  0.0650
 1304TIP3   OH2 3875   1.266   2.446   2.314 -0.0382 -0.0542 -0.3152
 1304TIP3    H1 3876   1.286   2.531   2.355 -0.0693 -0.9083  1.5607
 1304TIP3    H2 3877   1.175   2.454   2.287 -0.5846 -0.0473  1.4147
 1305TIP3   OH2 3878   3.228   0.821   4.557  0.8308 -0.3875  0.5692
 1305TIP3    H1 3879   3.150   0.791   4.511  1.4675 -0.5045 -0.4823
 1305TIP3    H2 3880   3.300   0.801   4.496  1.7164 -0.6320  1.6708
 1306TIP3   OH2 3881   0.179   4.230   0.008  0.0048 -0.3346 -0.3016
 1306TIP3    H1 3882   0.190   4.190   0.095  0.2475 -0.3865 -0.3560
 1306TIP3    H2 3883   0.131   4.163  -0.042  0.5807 -0.6396 -0.4502
 1307TIP3   OH2 3884   7.176   6.278   5.209 -0.5638 -0.2467 -0.2842
 1307TIP3    H1 3885   7.123   6.200   5.199 -0.1351 -0.3447 -2.0234
 1307TIP3    H2 3886   7.265   6.245   5.222 -0.7780 -0.0751  2.2594
 1308TIP3   OH2 3887   4.896   3.915   3.936 -0.3419 -0.2308 -0.4335
 1308TIP3    H1 3888   4.944   3.833   3.923 -0.2559 -0.0411 -1.3820
 1308TIP3    H2 3889   4.828   3.893   4.000 -0.6331 -1.1809 -1.0488
 1309TIP3   OH2 3890   2.097   3.233   5.271  0.4095 -0.1656  0.0517
 1309TIP3    H1 3891   2.052   3.317   5.276 -0.0220 -0.3910  0.1029
 1309TIP3    H2 3892   2.073   3.189   5.352  0.1928 -0.5443 -0.2107
 1310TIP3   OH2 3893   3.042   0.955   5.485 -0.1837  0.8326  0.0129
 1310TIP3    H1 3894   2.946   0.956   5.492 -0.2116  1.9345 -0.2972
 1310TIP3    H2 3895   3.065   0.862   5.482 -1.3473  0.5539 -1.0786
 1311TIP3   OH2 3896   2.323   0.177   0.513 -0.2652  0.4202 -0.4558
 1311TIP3    H1 3897   2.369   0.119   0.453 -0.0276  1.2354 -1.0794
 1311TIP3    H2 3898   2.346   0.265   0.484  0.6822  0.8566  1.4564
 1312TIP3   OH2 3899   3.090   6.634   5.911  0.1955  0.5864 -0.0234
 1312TIP3    H1 3900   3.172   6.651   5.864  1.0574  0.8208  1.5047
 1312TIP3    H2 3901   3.028   6.697   5.873  1.1376  1.4568 -0.1815
 1313TIP3   OH2 3902   6.988   4.449   2.994 -0.4279  0.2058  0.6576
 1313TIP3    H1 3903   6.919   4.386   3.011 -1.6629  0.9650 -1.2086
 1313TIP3    H2 3904   6.993   4.454   2.898  2.8228 -0.4455  0.6755
 1314TIP3   OH2 3905   7.131   2.507   3.237 -0.5662 -0.0035  0.3447
 1314TIP3    H1 3906   7.173   2.524   3.321 -0.8567  1.0108  0.3044
 1314TIP3    H2 3907   7.044   2.546   3.245  0.7416  3.8990 -1.7406
 1315TIP3   OH2 3908   2.773   6.330   0.238 -0.5092 -0.1693  0.3017
 1315TIP3    H1 3909   2.802   6.305   0.326  1.0895 -0.0604 -0.1677
 1315TIP3    H2 3910   2.678   6.321   0.241 -0.3329 -2.4010  1.3633
 1316TIP3   OH2 3911   5.714   1.332   4.880  0.9422  0.4321 -0.1493
 1316TIP3    H1 3912   5.677   1.244   4.879  0.0457  0.7967 -0.1795
 1316TIP3    H2 3913   5.802   1.322   4.846  0.9736 -0.5134  0.2052
 1317TIP3   OH2 3914   2.117   3.996   2.608 -0.3817 -0.2656 -0.6606
 1317TIP3    H1 3915   2.176   4.032   2.675  0.5617 -2.1691 -0.4215
 1317TIP3    H2 3916   2.153   4.026   2.525 -0.5472  0.6486 -0.4172
 1318TIP3   OH2 3917   5.969   0.747   4.479 -0.0899 -0.7441 -0.4969
 1318TIP3    H1 3918   5.988   0.813   4.546 -0.9443 -1.7831  0.8013
 1318TIP3    H2 3919   5.948   0.668   4.528  0.8985 -2.0049 -2.0260
 1319TIP3   OH2 3920   2.441   4.021   0.467 -0.4659 -0.5619 -0.2319
 1319TIP3    H1 3921   2.463   3.928   0.463 -0.4355 -0.5942  0.5077
 1319TIP3    H2 3922   2.523   4.066   0.445 -0.0783 -0.7006  0.8571
 1320TIP3   OH2 3923   2.725   0.492   0.359 -0.2135 -0.5810 -0.3273
 1320TIP3    H1 3924   2.814   0.474   0.328  0.2335 -0.0479  0.5876
 1320TIP3    H2 3925   2.735   0.510   0.453 -1.0764  0.8453 -0.4679
 1321TIP3   OH2 3926   0.696   5.377   1.858 -0.5906  0.1754 -0.0919
 1321TIP3    H1 3927   0.612   5.340   1.833 -0.5348 -0.6101  0.8047
 1321TIP3    H2 3928   0.679   5.471   1.868 -1.1104  0.1730 -0.8891
 1322TIP3   OH2 3929   1.790   1.190   3.434  0.3271 -0.0782  0.0925
 1322TIP3    H1 3930   1.797   1.112   3.489 -1.0200  0.5429  1.2012
 1322TIP3    H2 3931   1.782   1.156   3.345  2.5911 -1.1003  0.2050
 1323TIP3   OH2 3932   1.117   2.674   3.306  0.0885 -0.1818 -0.2583
 1323TIP3    H1 3933   1.039   2.721   3.335 -0.0082 -0.1700 -0.5326
 1323TIP3    H2 3934   1.175   2.674   3.382 -1.7959 -3.7518  1.4287
 1324TIP3   OH2 3935   6.402   2.726   5.671 -0.2888  0.2343 -0.3387
 1324TIP3    H1 3936   6.371   2.718   5.581 -1.0944 -0.3263 -0.0261
 1324TIP3    H2 3937   6.325   2.708   5.725  0.0035  1.2888  0.4706
 1325TIP3   OH2 3938   1.040   2.691   0.090  0.0978 -0.2730  0.2159
 1325TIP3    H1 3939   0.945   2.696   0.074 -0.2513 -0.2455  2.0805
 1325TIP3    H2 3940   1.048   2.651   0.176  1.8842 -1.9602 -0.6664
 1326TIP3   OH2 3941   4.250   0.104   3.399 -0.1942 -0.0837 -0.6300
 1326TIP3    H1 3942   4.270   0.174   3.338 -0.6952 -0.9740 -1.8493
 1326TIP3    H2 3943   4.173   0.060   3.362 -0.1004 -1.0691  0.2784
 1327TIP3   OH2 3944   2.589   0.402   4.156  0.4393  0.0098  0.4598
 1327TIP3    H1 3945   2.628   0.435   4.075  1.3151  0.1035  0.9037
 1327TIP3    H2 3946   2.497   0.389   4.135  1.2892 -4.2896 -1.9934
 1328TIP3   OH2 3947   4.275   1.252   3.058  0.4918  0.1546  0.3260
 1328TIP3    H1 3948   4.351   1.300   3.025  1.2387 -0.3198  1.3367
 1328TIP3    H2 3949   4.235   1.214   2.979 -0.1070  2.3617 -0.5078
 1329TIP3   OH2 3950   5.327   3.247   2.043  0.0346  0.2309  0.7200
 1329TIP3    H1 3951   5.407   3.269   1.996 -0.1907  0.9325  0.6589
 1329TIP3    H2 3952   5.282   3.330   2.056  0.1545  0.0839  2.3052
 1330TIP3   OH2 3953   6.294   4.996   4.712  0.6255 -0.0138 -0.0689
 1330TIP3    H1 3954   6.251   5.081   4.712  0.8730  0.1292 -1.1660
 1330TIP3    H2 3955   6.372   5.008   4.766 -1.0428 -0.4984  2.6593
 1331TIP3   OH2 3956   0.205   4.743   0.821 -0.1950 -0.8382 -0.0228
 1331TIP3    H1 3957   0.130   4.759   0.764 -0.5306 -1.4893  0.2282
 1331TIP3    H2 3958   0.168   4.736   0.909  0.1247 -1.3873  0.0727
 1332TIP3   OH2 3959   4.136   3.454   4.462 -0.3869 -0.6724  0.2959
 1332TIP3    H1 3960   4.117   3.531   4.409 -0.3907 -1.1159 -0.3514
 1332TIP3    H2 3961   4.051   3.421   4.489 -0.4531 -1.2278 -0.5550
 1333TIP3   OH2 3962   5.677   0.742   2.947  0.0106 -0.4269  0.0281
 1333TIP3    H1 3963   5.653   0.663   2.900 -2.9616 -0.6408  1.6593
 1333TIP3    H2 3964   5.654   0.813   2.888 -0.5126 -0.7430 -0.1507
 1334TIP3   OH2 3965   6.818   4.974   0.823  0.3245  0.4893 -0.4454
 1334TIP3    H1 3966   6.748   5.034   0.851 -0.5080  0.5011 -2.4143
 1334TIP3    H2 3967   6.854   4.940   0.905 -1.7610  0.7500  0.6526
 1335TIP3   OH2 3968   4.578   0.742   4.490 -0.3013  0.4458 -0.2467
 1335TIP3    H1 3969   4.613   0.801   4.424 -0.9387 -0.5731 -1.5539
 1335TIP3    H2 3970   4.619   0.657   4.471 -0.7018  0.0737  0.4929
 1336TIP3   OH2 3971   1.010   2.686   4.755  0.2790 -0.1120  0.2540
 1336TIP3    H1 3972   1.104   2.670   4.771  0.9808  0.2420 -2.9392
 1336TIP3    H2 3973   0.974   2.599   4.738  0.4130 -0.0724 -0.2409
 1337TIP3   OH2 3974   2.508   2.746   4.992  0.1963  0.1582  0.1577
 1337TIP3    H1 3975   2.530   2.653   4.988 -0.5264 -0.0784  1.2010
 1337TIP3    H2 3976   2.466   2.765   4.908 -0.5098 -0.6989  0.3025
 1338TIP3   OH2 3977   2.547   0.888   0.392  0.4035  0.5263  0.0980
 1338TIP3    H1 3978   2.632   0.846   0.405  0.1423 -0.3139 -0.7866
 1338TIP3    H2 3979   2.512   0.848   0.312 -1.4279 -0.1824  1.1648
 1339TIP3   OH2 3980   5.597   6.182   1.546 -0.8794  0.8654  1.0183
 1339TIP3    H1 3981   5.562   6.099   1.513 -0.4115  0.6927  0.9466
 1339TIP3    H2 3982   5.536   6.208   1.615 -0.7217  0.1780  1.4230
 1340TIP3   OH2 3983   0.093   1.653   0.814  0.0385 -0.6257 -0.1249
 1340TIP3    H1 3984   0.043   1.733   0.803 -0.3165 -0.8335 -0.0559
 1340TIP3    H2 3985   0.128   1.658   0.903 -3.8848 -2.6444  1.7932
 1341TIP3   OH2 3986   5.591   3.021   3.429 -0.1402 -0.2713 -0.1381
 1341TIP3    H1 3987   5.506   3.051   3.398  0.3566 -0.0518 -1.3909
 1341TIP3    H2 3988   5.654   3.080   3.387  0.6862 -1.2332 -0.3145
 1342TIP3   OH2 3989   4.654   3.555   5.830  0.1379  0.2035 -0.0107
 1342TIP3    H1 3990   4.618   3.602   5.755 -0.8250  1.7767  1.3739
 1342TIP3    H2 3991   4.747   3.579   5.830 -0.1246  1.3074  0.0502
 1343TIP3   OH2 3992   1.586   2.565   0.838  0.0543  0.4628 -0.5006
 1343TIP3    H1 3993   1.533   2.613   0.774  0.6766  0.1921 -1.2341
 1343TIP3    H2 3994   1.672   2.555   0.795  0.8830  1.3543  0.8585
 1344TIP3   OH2 3995   0.930   6.576   4.616  0.1877 -0.4313 -0.7885
 1344TIP3    H1 3996   0.925   6.496   4.564 -0.1101 -0.0844 -1.2997
 1344TIP3    H2 3997   1.023   6.595   4.622  0.1583  0.3133 -2.4204
 1345TIP3   OH2 3998   4.132   5.597   5.777  0.6242  0.3168 -0.0334
 1345TIP3    H1 3999   4.184   5.676   5.792 -1.2509  1.7385 -0.6962
 1345TIP3    H2 4000   4.168   5.559   5.697  2.2417 -0.1511  0.8646
 1346TIP3   OH2 4001   0.896   1.701   2.088  0.2382  0.1136  0.3929
 1346TIP3    H1 4002   0.958   1.697   2.014  2.1513  2.4701  1.7262
 1346TIP3    H2 4003   0.910   1.618   2.134  0.4462 -0.5332 -0.7682
 1347TIP3   OH2 4004   5.753   0.131   0.416 -0.0078 -0.5258 -0.2642
 1347TIP3    H1 4005   5.667   0.120   0.375 -0.2028 -0.0989  0.0225
 1347TIP3    H2 4006   5.815   0.116   0.346 -0.3347 -0.0580 -0.6551
 1348TIP3   OH2 4007   6.519   3.375   3.381  0.2807  0.1319  0.8107
 1348TIP3    H1 4008   6.592   3.415   3.334  0.9792 -0.8990  0.9940
 1348TIP3    H2 4009   6.462   3.449   3.403  0.9218  0.8696  0.0797
 1349TIP3   OH2 4010   6.005   5.782   4.002 -0.3653 -0.0039 -0.0050
 1349TIP3    H1 4011   6.099   5.784   4.020  0.0301  0.5399 -1.8878
 1349TIP3    H2 4012   5.998   5.743   3.915 -1.7657  1.1927 -0.4722
 1350TIP3   OH2 4013   3.651   3.361   5.437  0.2786  0.0950  0.5384
 1350TIP3    H1 4014   3.737   3.328   5.410  1.3486  3.4950 -0.7331
 1350TIP3    H2 4015   3.669   3.410   5.518 -0.6458  0.0402  0.7875
 1351TIP3   OH2 4016   4.398   5.902   4.526 -0.5398  0.2548  0.0064
 1351TIP3    H1 4017   4.337   5.970   4.553 -0.0540  0.5696  0.3224
 1351TIP3    H2 4018   4.345   5.842   4.472 -1.2185  0.2951  0.6173
 1352TIP3   OH2 4019   2.022   3.452   1.654 -0.6982  0.3995 -0.5018
 1352TIP3    H1 4020   1.958   3.458   1.725 -1.6339  0.4893 -1.3232
 1352TIP3    H2 4021   2.080   3.527   1.667  0.2403 -0.5636  1.1734
 1353TIP3   OH2 4022   5.675   6.290   3.614  0.3174 -0.9668  0.1010
 1353TIP3    H1 4023   5.613   6.295   3.542  0.2220 -0.3809  0.2168
 1353TIP3    H2 4024   5.620   6.295   3.693  0.6286  2.6900  0.2572
 1354TIP3   OH2 4025   6.601   4.432   1.780 -0.1998 -0.0084  0.6503
 1354TIP3    H1 4026   6.617   4.517   1.739  1.6087  0.6396  2.4803
 1354TIP3    H2 4027   6.507   4.430   1.795 -0.2468  1.8582  0.8865
 1355TIP3   OH2 4028   3.827   1.194   4.253 -0.2732 -0.0536 -0.0465
 1355TIP3    H1 4029   3.904   1.250   4.265 -0.5263  0.7715 -1.9610
 1355TIP3    H2 4030   3.861   1.105   4.258  0.2853  0.2197  2.1158
 1356TIP3   OH2 4031   3.660   2.844   4.880  0.2113 -0.1950 -0.0421
 1356TIP3    H1 4032   3.689   2.918   4.934 -2.9526  1.1248  0.0579
 1356TIP3    H2 4033   3.664   2.769   4.939  1.9928  0.1293  0.3226
 1357TIP3   OH2 4034   4.883   5.629   5.332 -0.1751  0.0498 -0.7627
 1357TIP3    H1 4035   4.831   5.553   5.304 -1.3097  1.3465 -2.3239
 1357TIP3    H2 4036   4.966   5.620   5.286  0.0876 -0.7326 -0.1699
 1358TIP3   OH2 4037   4.119   6.561   5.396  0.2347 -0.1298 -0.4772
 1358TIP3    H1 4038   4.204   6.578   5.356  1.3816 -1.4546  1.2093
 1358TIP3    H2 4039   4.107   6.466   5.388 -0.3315 -0.1752  0.6690
 1359TIP3   OH2 4040   6.871   0.473   3.411  0.0948  0.0243  0.1344
 1359TIP3    H1 4041   6.959   0.480   3.373 -0.0210  0.8349 -0.0141
 1359TIP3    H2 4042   6.814   0.512   3.345 -0.4770 -1.1338 -0.0830
 1360TIP3   OH2 4043   5.864   0.153   2.814 -0.3038  0.7039 -0.4042
 1360TIP3    H1 4044   5.867   0.113   2.900  0.1314  0.5463 -0.4897
 1360TIP3    H2 4045   5.956   0.166   2.790 -0.4108  0.3512 -1.0245
 1361TIP3   OH2 4046   1.591   1.083   4.864 -0.1443 -0.3784  0.2634
 1361TIP3    H1 4047   1.629   1.040   4.940  0.4243  1.5578  1.1549
 1361TIP3    H2 4048   1.665   1.122   4.819 -0.8156  3.1847  1.8495
 1362TIP3   OH2 4049   1.631   0.216   3.671  0.4381 -0.2265 -0.5800
 1362TIP3    H1 4050   1.579   0.265   3.608  0.7143 -0.7001 -1.1798
 1362TIP3    H2 4051   1.632   0.127   3.638  1.3744 -0.2890 -0.4131
 1363TIP3   OH2 4052   4.926   1.827   5.348 -0.3036 -0.4390 -0.0535
 1363TIP3    H1 4053   4.992   1.893   5.327  0.7549 -0.4704  2.8167
 1363TIP3    H2 4054   4.869   1.826   5.271  0.6703  2.5239 -0.9661
 1364TIP3   OH2 4055   3.251   3.546   0.118  0.4334 -0.0843 -0.1908
 1364TIP3    H1 4056   3.196   3.577   0.046  0.2453  0.2533  0.0947
 1364TIP3    H2 4057   3.279   3.626   0.163  0.4788 -0.2960  0.1617
 1365TIP3   OH2 4058   1.627   6.316   4.268 -0.1583  0.3082 -0.1768
 1365TIP3    H1 4059   1.598   6.298   4.179  1.5345 -0.9649 -0.5108
 1365TIP3    H2 4060   1.723   6.312   4.264 -0.0590 -1.1315  1.9422
 1366TIP3   OH2 4061   0.382   4.520   0.192  0.1146 -0.3989  0.2533
 1366TIP3    H1 4062   0.411   4.594   0.245  2.9036 -0.3605 -1.1504
 1366TIP3    H2 4063   0.419   4.443   0.237 -0.0317 -0.6345 -0.0297
 1367TIP3   OH2 4064   4.772   1.682   1.709 -0.2617 -0.2562  0.2992
 1367TIP3    H1 4065   4.720   1.761   1.694  1.3775  0.9157  0.5725
 1367TIP3    H2 4066   4.729   1.639   1.783 -1.1860  0.3558  0.1469
 1368TIP3   OH2 4067   4.455   1.781   0.135 -0.7306 -0.3609  0.6750
 1368TIP3    H1 4068   4.494   1.699   0.167 -0.5265 -0.4542  0.1922
 1368TIP3    H2 4069   4.367   1.782   0.172 -1.4888 -1.8144 -0.9992
 1369TIP3   OH2 4070   1.286   5.573   0.751 -0.7192 -0.1023 -0.3818
 1369TIP3    H1 4071   1.291   5.532   0.665 -0.7295  1.1682 -1.0101
 1369TIP3    H2 4072   1.334   5.656   0.741 -0.9737  0.1993  0.7475
 1370TIP3   OH2 4073   6.498   1.758   4.887 -0.1023 -0.7584 -0.1649
 1370TIP3    H1 4074   6.438   1.683   4.884  0.3684 -1.1968  0.8688
 1370TIP3    H2 4075   6.584   1.720   4.870 -0.1955  0.0522 -2.9733
 1371TIP3   OH2 4076   0.252   2.963   0.449  0.3017  0.0214 -0.8105
 1371TIP3    H1 4077   0.270   3.045   0.402  0.0623  0.5403 -0.0265
 1371TIP3    H2 4078   0.324   2.905   0.426  0.9095  0.7403 -0.7336
 1372TIP3   OH2 4079   6.900   4.139   5.310  0.2652  0.3575 -0.0736
 1372TIP3    H1 4080   6.879   4.207   5.246  1.5289  0.6686 -0.1736
 1372TIP3    H2 4081   6.827   4.141   5.372 -0.7935  0.3152 -1.2627
 1373TIP3   OH2 4082   5.778   3.199   3.304 -0.4118  0.6183 -0.3027
 1373TIP3    H1 4083   5.744   3.288   3.315 -0.2448  0.8473 -1.4930
 1373TIP3    H2 4084   5.873   3.209   3.303 -0.4031  0.5088 -1.0191
 1374TIP3   OH2 4085   1.864   1.018   1.202  0.0503 -0.1264  0.4024
 1374TIP3    H1 4086   1.878   1.044   1.111 -0.8002  0.3749  0.3985
 1374TIP3    H2 4087   1.817   1.092   1.241  1.3119  0.1125  1.5360
 1375TIP3   OH2 4088   4.482   3.795   0.047  0.2454  0.1593 -0.0786
 1375TIP3    H1 4089   4.468   3.833   0.133  0.5573  3.0271 -1.1763
 1375TIP3    H2 4090   4.395   3.771   0.016 -0.4918  3.0110 -0.5252
 1376TIP3   OH2 4091   5.494   4.217   3.424  0.3800 -0.1164 -0.4162
 1376TIP3    H1 4092   5.564   4.179   3.478 -0.3095 -0.9987 -0.1232
 1376TIP3    H2 4093   5.501   4.171   3.341 -0.5911 -1.0615  0.0090
 1377TIP3   OH2 4094   0.649   2.973   4.842 -0.6774  0.4718  0.0334
 1377TIP3    H1 4095   0.729   2.957   4.790  0.2529 -0.2076  1.6107
 1377TIP3    H2 4096   0.612   3.053   4.804  1.5327  1.6421  0.1409
 1378TIP3   OH2 4097   4.875   3.140   2.085 -0.1936  0.1622  0.0492
 1378TIP3    H1 4098   4.959   3.105   2.059 -0.4295  0.3381 -0.9837
 1378TIP3    H2 4099   4.866   3.116   2.178  1.2884  0.7570  0.3642
 1379TIP3   OH2 4100   0.598   0.188   3.832 -0.4679  0.1385 -0.1677
 1379TIP3    H1 4101   0.508   0.209   3.860 -0.1325  1.1018  0.2246
 1379TIP3    H2 4102   0.626   0.265   3.782  0.4523  0.2157  0.4553
 1380TIP3   OH2 4103   5.707   4.242   2.112 -0.2035 -0.2999 -0.5857
 1380TIP3    H1 4104   5.716   4.337   2.120  1.8337 -0.3697 -1.3107
 1380TIP3    H2 4105   5.785   4.215   2.062 -0.7749 -2.3409 -0.4652
 1381TIP3   OH2 4106   4.990   6.345   2.548 -0.4019 -0.8445  0.0408
 1381TIP3    H1 4107   4.966   6.375   2.461 -0.0411  1.4494  0.6537
 1381TIP3    H2 4108   4.938   6.399   2.607  1.1957 -0.5676  1.2673
 1382TIP3   OH2 4109   1.188   1.359   5.359 -0.0123 -0.0387 -0.3465
 1382TIP3    H1 4110   1.199   1.393   5.448  1.8666  0.8464 -0.8655
 1382TIP3    H2 4111   1.230   1.273   5.360  0.9189  0.3902 -0.5801
 1383TIP3   OH2 4112   0.820   4.116   3.345  0.1148  0.3071  0.3512
 1383TIP3    H1 4113   0.868   4.044   3.386 -2.4603 -1.5146  0.3874
 1383TIP3    H2 4114   0.730   4.084   3.337 -0.8256  2.9732 -1.0454
 1384TIP3   OH2 4115   4.593   4.779   4.111  0.0438 -0.2179 -0.3620
 1384TIP3    H1 4116   4.560   4.837   4.180 -1.4690 -1.7352  0.2606
 1384TIP3    H2 4117   4.616   4.698   4.156  1.3702 -0.4120 -1.3213
 1385TIP3   OH2 4118   0.806   5.290   0.931 -0.0049 -0.3470  0.3558
 1385TIP3    H1 4119   0.847   5.335   1.005 -2.0610  1.5374  0.4403
 1385TIP3    H2 4120   0.809   5.353   0.859 -1.3467 -0.7122 -0.0544
 1386TIP3   OH2 4121   0.975   0.130   3.199 -0.5022  0.3641 -0.0458
 1386TIP3    H1 4122   1.025   0.077   3.136 -0.2396 -1.4772  1.6266
 1386TIP3    H2 4123   1.038   0.194   3.232 -0.0515 -0.0437 -0.1014
 1387TIP3   OH2 4124   0.132   1.076   2.483  0.9007 -0.9744 -0.1379
 1387TIP3    H1 4125   0.169   1.116   2.562 -0.1252  0.3605 -0.2978
 1387TIP3    H2 4126   0.205   1.075   2.421  1.1295  0.1169  0.0804
 1388TIP3   OH2 4127   6.837   1.149   4.650 -0.0336 -0.1912  0.3328
 1388TIP3    H1 4128   6.924   1.188   4.641 -0.7652  1.6993  0.8501
 1388TIP3    H2 4129   6.806   1.139   4.559  0.0057  0.9454  0.1729
 1389TIP3   OH2 4130   0.304   4.246   5.147  0.2771  0.3475 -0.1150
 1389TIP3    H1 4131   0.263   4.271   5.230  0.3081  2.0594 -0.5826
 1389TIP3    H2 4132   0.323   4.153   5.157 -2.8042 -0.3415  0.5294
 1390TIP3   OH2 4133   3.142   6.184   2.401 -0.0598 -0.0456  0.3398
 1390TIP3    H1 4134   3.077   6.117   2.382 -0.1423 -0.5641  2.2226
 1390TIP3    H2 4135   3.225   6.145   2.375 -0.4204  0.4712 -1.7122
 1391TIP3   OH2 4136   1.308   3.710   2.669  0.0077 -0.3056 -0.5976
 1391TIP3    H1 4137   1.397   3.723   2.699  0.0786 -0.8420 -0.5679
 1391TIP3    H2 4138   1.273   3.798   2.656  1.1687 -0.0655 -2.4679
 1392TIP3   OH2 4139   4.988   4.824   0.910 -0.8935  0.0896  0.3947
 1392TIP3    H1 4140   4.999   4.899   0.851 -1.9535 -0.6960 -0.8578
 1392TIP3    H2 4141   4.934   4.858   0.981  1.2958  1.3455  1.5785
 1393TIP3   OH2 4142   4.090   1.445   5.587  0.1644 -0.0078 -0.1499
 1393TIP3    H1 4143   4.070   1.525   5.634 -1.7395 -0.3014 -0.3871
 1393TIP3    H2 4144   4.010   1.424   5.539  0.1527 -2.6957  0.8402
 1394TIP3   OH2 4145   4.810   2.240   5.259 -0.1632  0.4589 -0.3663
 1394TIP3    H1 4146   4.722   2.274   5.278 -0.9173 -1.7877  0.5230
 1394TIP3    H2 4147   4.813   2.232   5.164 -1.0642  0.2222 -0.3856
 1395TIP3   OH2 4148   4.089   2.206   4.260  0.6012  0.0865 -0.0700
 1395TIP3    H1 4149   4.018   2.213   4.197  1.5456 -1.9098 -1.4516
 1395TIP3    H2 4150   4.169   2.202   4.207  1.6344  0.7067  1.3654
 1396TIP3   OH2 4151   1.358   6.173   0.960 -0.0566  0.0850 -0.4232
 1396TIP3    H1 4152   1.401   6.091   0.939 -1.3824 -0.2813 -1.9189
 1396TIP3    H2 4153   1.282   6.148   1.012 -0.7122  0.3052 -1.2629
 1397TIP3   OH2 4154   6.065   3.218   3.334 -0.1584  0.1315 -0.4064
 1397TIP3    H1 4155   6.091   3.287   3.396 -1.0383 -0.4289  0.6124
 1397TIP3    H2 4156   6.148   3.180   3.305  0.2805  0.3001  0.5750
 1398TIP3   OH2 4157   4.908   4.604   1.556  0.1231 -0.5143 -0.2093
 1398TIP3    H1 4158   4.858   4.623   1.635 -1.1694  0.7466 -1.2684
 1398TIP3    H2 4159   4.986   4.557   1.587 -0.7939 -0.8778  1.6856
 1399TIP3   OH2 4160   7.192   3.647   4.275 -0.5899  0.5670 -0.4915
 1399TIP3    H1 4161   7.243   3.591   4.333 -0.6312 -0.2228 -1.2044
 1399TIP3    H2 4162   7.104   3.646   4.311 -0.5167  0.4261 -0.3172
 1400TIP3   OH2 4163   0.634   2.574   5.722 -0.0681  0.3185  0.2174
 1400TIP3    H1 4164   0.665   2.621   5.644  5.0598 -2.6273 -0.0044
 1400TIP3    H2 4165   0.579   2.504   5.688 -0.9895  1.2677 -0.2905
 1401TIP3   OH2 4166   5.860   4.737   4.537  0.2307  0.7638  0.6791
 1401TIP3    H1 4167   5.853   4.829   4.511 -0.6586  0.7179  0.7365
 1401TIP3    H2 4168   5.871   4.689   4.454 -0.2086  0.8410  0.5736
 1402TIP3   OH2 4169   2.350   5.960   2.245  0.0916 -0.0927  0.1151
 1402TIP3    H1 4170   2.429   5.926   2.286  1.1692  1.2063 -0.7759
 1402TIP3    H2 4171   2.285   5.961   2.315  1.3466  0.3739  1.3301
 1403TIP3   OH2 4172   3.104   4.008   3.003 -0.1187 -0.7253 -0.1540
 1403TIP3    H1 4173   3.147   4.015   3.088  0.1104 -0.4645 -0.2912
 1403TIP3    H2 4174   3.039   3.937   3.015  0.1579 -0.9346  0.1283
 1404TIP3   OH2 4175   4.597   3.156   4.567 -0.0919  0.3977  0.0509
 1404TIP3    H1 4176   4.529   3.174   4.502 -3.4331 -0.5901  2.9865
 1404TIP3    H2 4177   4.569   3.202   4.646  2.1615 -0.8518  1.7183
 1405TIP3   OH2 4178   2.004   1.736   1.297  0.2367  0.6314  0.0764
 1405TIP3    H1 4179   2.087   1.736   1.250 -0.6488  0.2266 -1.5539
 1405TIP3    H2 4180   2.017   1.673   1.368  1.5101  1.0444  0.2345
 1406TIP3   OH2 4181   4.919   2.642   4.774  0.6483 -0.0736  0.1949
 1406TIP3    H1 4182   5.000   2.663   4.820 -0.0259  0.8204  1.0079
 1406TIP3    H2 4183   4.858   2.711   4.799  0.6249  1.2874 -3.1520
 1407TIP3   OH2 4184   1.137   5.745   4.792  0.5059  0.2912  0.1049
 1407TIP3    H1 4185   1.208   5.798   4.828 -0.1123  2.1429 -1.2157
 1407TIP3    H2 4186   1.086   5.807   4.740 -0.1257 -1.6707 -1.7434
 1408TIP3   OH2 4187   5.877   5.581   5.083 -0.2465 -0.4653  0.2167
 1408TIP3    H1 4188   5.952   5.637   5.064  0.6402 -2.0369 -1.0882
 1408TIP3    H2 4189   5.855   5.602   5.174  1.4591  0.3599  0.4798
 1409TIP3   OH2 4190   6.520   3.767   0.819 -0.2218  0.4068  0.6358
 1409TIP3    H1 4191   6.570   3.849   0.815  0.4465 -0.0204 -0.0429
 1409TIP3    H2 4192   6.458   3.773   0.747  0.2301  0.0772  0.2059
 1410TIP3   OH2 4193   0.963   5.470   1.090 -0.0586 -0.1247 -0.0291
 1410TIP3    H1 4194   1.050   5.459   1.128  0.2995  1.0523 -0.4767
 1410TIP3    H2 4195   0.961   5.560   1.058 -0.8370 -0.6405 -1.5575
 1411TIP3   OH2 4196   2.149   4.299   4.332 -0.4471  0.3461 -0.3473
 1411TIP3    H1 4197   2.169   4.373   4.275  2.2287  0.6400  0.8261
 1411TIP3    H2 4198   2.108   4.339   4.409 -0.3128  0.4498 -0.3286
 1412TIP3   OH2 4199   3.774   4.442   4.020 -0.2948  0.2656  0.0733
 1412TIP3    H1 4200   3.698   4.470   3.970 -0.4684  1.5855  1.0219
 1412TIP3    H2 4201   3.745   4.364   4.066 -0.4406 -0.3821 -1.0672
 1413TIP3   OH2 4202   1.424   4.099   3.341  0.1781 -0.0893 -0.0535
 1413TIP3    H1 4203   1.405   4.168   3.278  0.4934  0.0183 -0.0328
 1413TIP3    H2 4204   1.517   4.109   3.359  0.3280 -0.8119 -0.4029
 1414TIP3   OH2 4205   1.233   6.484   0.933  0.3978  0.3005 -0.3227
 1414TIP3    H1 4206   1.153   6.434   0.948 -0.6678  2.1297  0.4276
 1414TIP3    H2 4207   1.285   6.471   1.013  1.0766 -1.2159 -0.9768
 1415TIP3   OH2 4208   0.634   0.701   2.042 -0.9552 -0.9438 -0.4170
 1415TIP3    H1 4209   0.681   0.621   2.064 -0.7854 -1.1012 -1.3158
 1415TIP3    H2 4210   0.697   0.771   2.060 -1.0496 -1.0144  0.2154
 1416TIP3   OH2 4211   0.989   1.212   3.212 -0.3920  0.0372 -0.3475
 1416TIP3    H1 4212   1.049   1.205   3.138  0.1795  1.2766 -0.0335
 1416TIP3    H2 4213   1.046   1.210   3.289 -0.8591  0.0187  0.0002
 1417TIP3   OH2 4214   6.048   6.669   0.171 -0.3848  0.1254 -0.2870
 1417TIP3    H1 4215   6.143   6.657   0.177 -0.3233  0.0764 -1.2379
 1417TIP3    H2 4216   6.028   6.732   0.240  0.2357 -0.3811  0.3854
 1418TIP3   OH2 4217   1.643   5.110   2.295 -0.6824  0.4996  0.0804
 1418TIP3    H1 4218   1.589   5.183   2.264  0.3154  1.6094  0.8291
 1418TIP3    H2 4219   1.730   5.128   2.259 -0.6269 -0.8463 -0.4891
 1419TIP3   OH2 4220   3.500   5.530   1.428  0.2255  0.6454  0.4243
 1419TIP3    H1 4221   3.529   5.500   1.514 -0.4504  0.9671  0.7768
 1419TIP3    H2 4222   3.567   5.593   1.401  1.2798 -0.6210 -0.0139
 1420TIP3   OH2 4223   1.461   4.914   4.021  0.5424  0.4462 -0.7855
 1420TIP3    H1 4224   1.458   4.854   4.096  0.0724 -0.4397 -1.4957
 1420TIP3    H2 4225   1.443   5.000   4.058 -1.1476 -0.1724 -0.0688
 1421TIP3   OH2 4226   2.138   3.470   1.300 -0.2119 -0.6667  0.1343
 1421TIP3    H1 4227   2.125   3.565   1.293 -0.5278 -0.6216  1.1666
 1421TIP3    H2 4228   2.187   3.458   1.381  0.6007 -1.3364 -0.4388
 1422TIP3   OH2 4229   1.034   4.045   4.913  0.1350 -0.0801  0.2625
 1422TIP3    H1 4230   1.021   3.952   4.895 -0.4897  0.2603 -1.2051
 1422TIP3    H2 4231   1.056   4.082   4.827  0.1385  1.1637  0.7905
 1423TIP3   OH2 4232   6.602   5.436   1.391 -0.1084  0.4662  0.0354
 1423TIP3    H1 4233   6.553   5.384   1.454  1.8563 -1.2709  0.2501
 1423TIP3    H2 4234   6.603   5.524   1.428 -0.1783 -0.2077  1.7551
 1424TIP3   OH2 4235   2.592   2.067   2.508  0.7325 -0.2789  0.2839
 1424TIP3    H1 4236   2.614   2.153   2.544 -1.0019  0.2180  0.2630
 1424TIP3    H2 4237   2.548   2.086   2.425 -1.0629 -1.0560  0.9988
 1425TIP3   OH2 4238   3.241   0.473   0.305  0.0129 -0.0051 -0.1763
 1425TIP3    H1 4239   3.249   0.486   0.211  1.8093  1.0949  0.0716
 1425TIP3    H2 4240   3.203   0.555   0.338 -2.3507 -1.0764 -0.1041
 1426TIP3   OH2 4241   6.414   5.164   4.234 -0.6291  0.2939  0.0311
 1426TIP3    H1 4242   6.397   5.142   4.143  0.5185 -1.2096  0.1399
 1426TIP3    H2 4243   6.480   5.234   4.230  0.6624 -0.9014 -0.3196
 1427TIP3   OH2 4244   2.150   4.397   0.248  0.1785  0.2425  0.7789
 1427TIP3    H1 4245   2.097   4.432   0.176 -2.0698 -1.8052  1.3095
 1427TIP3    H2 4246   2.123   4.448   0.324  0.2225  0.3114  0.7488
 1428TIP3   OH2 4247   5.181   3.492   2.035  0.1128  0.4128  0.8276
 1428TIP3    H1 4248   5.192   3.579   1.996  0.7214  0.1181  0.3306
 1428TIP3    H2 4249   5.102   3.500   2.089  0.5940  1.4895  1.3919
 1429TIP3   OH2 4250   2.598   2.442   5.356 -0.1215  0.1080  0.1970
 1429TIP3    H1 4251   2.548   2.362   5.342  0.2800 -0.3324  1.1712
 1429TIP3    H2 4252   2.565   2.477   5.438  1.3379 -0.3490  1.0183
 1430TIP3   OH2 4253   6.734   4.281   1.598 -0.0490  0.0521 -0.6031
 1430TIP3    H1 4254   6.709   4.316   1.512 -2.7623 -0.1985 -0.0231
 1430TIP3    H2 4255   6.681   4.331   1.660  2.3135  0.6653  1.0580
 1431TIP3   OH2 4256   3.601   5.207   0.369 -0.5036 -0.2506  0.1436
 1431TIP3    H1 4257   3.541   5.282   0.364  0.5517  0.5695 -0.6795
 1431TIP3    H2 4258   3.659   5.227   0.442  0.7090  0.5011 -0.9602
 1432TIP3   OH2 4259   4.660   1.556   2.981  0.1701  0.2206 -0.4268
 1432TIP3    H1 4260   4.624   1.640   3.007  0.3495  0.3540 -0.5999
 1432TIP3    H2 4261   4.752   1.575   2.960  0.1246  0.0481 -0.7919
 1433TIP3   OH2 4262   7.115   4.341   4.974 -0.3337 -0.5197 -0.3316
 1433TIP3    H1 4263   7.084   4.416   4.924 -0.4887  0.3747  1.0612
 1433TIP3    H2 4264   7.077   4.265   4.929 -3.0079  0.4147  0.1687
 1434TIP3   OH2 4265   3.051   2.409   0.134 -0.4142  0.0404  0.0151
 1434TIP3    H1 4266   2.990   2.460   0.188 -3.0300 -1.1320 -1.5875
 1434TIP3    H2 4267   3.072   2.333   0.187  0.5146  0.9459  0.9820
 1435TIP3   OH2 4268   3.732   4.617   3.153  0.5764  0.3534  0.0582
 1435TIP3    H1 4269   3.804   4.660   3.108  0.7813  0.1726  0.2114
 1435TIP3    H2 4270   3.742   4.642   3.245  0.9315 -0.3366  0.2142
 1436TIP3   OH2 4271   1.317   2.338   3.736  0.3570 -0.3192  0.1217
 1436TIP3    H1 4272   1.333   2.348   3.642  1.1288  1.7155  0.4149
 1436TIP3    H2 4273   1.401   2.308   3.771  0.2667 -0.4226  0.2489
 1437TIP3   OH2 4274   4.540   6.418   1.829  0.8566 -0.3657 -0.6545
 1437TIP3    H1 4275   4.577   6.500   1.864  0.0675 -0.9679  1.8219
 1437TIP3    H2 4276   4.482   6.447   1.758 -0.2694  1.4006  0.8721
 1438TIP3   OH2 4277   3.264   1.423   0.909  0.4576 -0.0481 -0.5247
 1438TIP3    H1 4278   3.236   1.430   1.001  0.4762 -0.5559 -0.4783
 1438TIP3    H2 4279   3.243   1.508   0.872  2.3676  0.9033  0.4648
 1439TIP3   OH2 4280   5.900   1.336   2.855 -0.1352  0.4740  0.2014
 1439TIP3    H1 4281   5.804   1.336   2.861 -0.2565  0.8629 -1.2869
 1439TIP3    H2 4282   5.927   1.415   2.900 -0.3068 -0.7350  2.6162
 1440TIP3   OH2 4283   3.518   6.004   2.731 -0.6425  0.4857  0.5943
 1440TIP3    H1 4284   3.519   6.095   2.762 -1.1928  0.7704 -0.1780
 1440TIP3    H2 4285   3.446   6.001   2.669  0.1144 -0.1795 -0.2849
 1441TIP3   OH2 4286   2.006   0.871   2.698 -0.1386  0.0738 -0.2389
 1441TIP3    H1 4287   2.068   0.885   2.627 -1.1516 -0.4021 -1.2454
 1441TIP3    H2 4288   2.061   0.866   2.777  1.0922 -0.2987 -1.0886
 1442TIP3   OH2 4289   0.454   0.335   2.768 -0.2635 -0.0713 -0.3373
 1442TIP3    H1 4290   0.435   0.301   2.680  0.2844 -0.0359 -0.4694
 1442TIP3    H2 4291   0.462   0.429   2.756  0.5492 -0.1393 -0.3848
 1443TIP3   OH2 4292   0.351   1.113   1.733  0.1712  0.0746 -0.2050
 1443TIP3    H1 4293   0.426   1.105   1.792  0.1498  0.7189 -0.0887
 1443TIP3    H2 4294   0.318   1.024   1.725  2.3480 -0.6720 -2.0860
 1444TIP3   OH2 4295   0.922   1.085   4.797 -0.4844 -0.0575  0.0051
 1444TIP3    H1 4296   0.884   1.058   4.880 -0.9593 -0.7118 -0.4157
 1444TIP3    H2 4297   1.015   1.066   4.805 -0.8040 -1.9562 -0.3075
 1445TIP3   OH2 4298   1.818   1.014   4.308 -0.1659  0.0332 -0.1222
 1445TIP3    H1 4299   1.818   0.944   4.242  0.6134  0.2481 -0.3705
 1445TIP3    H2 4300   1.879   1.080   4.273  0.1518  0.2197  0.7441
 1446TIP3   OH2 4301   3.066   0.917   2.146  0.1526  0.2215 -0.7383
 1446TIP3    H1 4302   3.108   0.929   2.231  1.6446  0.9959 -1.5518
 1446TIP3    H2 4303   3.062   0.822   2.134 -1.4435  0.0437  0.8192
 1447TIP3   OH2 4304   6.920   3.407   5.631  0.0276  0.3420  0.3387
 1447TIP3    H1 4305   6.848   3.455   5.591  0.4663  1.6489  1.0943
 1447TIP3    H2 4306   6.912   3.422   5.725  1.6159  1.0226  0.4057
 1448TIP3   OH2 4307   6.596   1.073   5.589  0.0569 -0.4194 -0.1162
 1448TIP3    H1 4308   6.526   1.082   5.654  0.4768  0.2579  0.2598
 1448TIP3    H2 4309   6.672   1.113   5.631  0.1430  0.7245 -1.3160
 1449TIP3   OH2 4310   7.005   3.450   0.669 -0.2851 -0.3422 -0.0045
 1449TIP3    H1 4311   6.959   3.396   0.734  0.0487 -3.7351 -2.3178
 1449TIP3    H2 4312   7.095   3.417   0.669 -0.1631 -0.1150 -1.7733
 1450TIP3   OH2 4313   1.777   3.636   0.140 -0.1596 -0.3981 -0.2091
 1450TIP3    H1 4314   1.714   3.585   0.088  0.4240 -1.4864  0.1121
 1450TIP3    H2 4315   1.844   3.572   0.165  0.6488  0.5657  0.1358
 1451TIP3   OH2 4316   6.885   6.132   3.627 -0.0708  0.2679 -0.4193
 1451TIP3    H1 4317   6.930   6.049   3.643  0.7663  0.8770  0.5718
 1451TIP3    H2 4318   6.803   6.108   3.585  0.6558 -0.9713 -1.1849
 1452TIP3   OH2 4319   2.164   5.722   3.056  0.1947 -0.6201  0.2397
 1452TIP3    H1 4320   2.252   5.760   3.061  0.3278 -0.8576 -0.2028
 1452TIP3    H2 4321   2.177   5.628   3.070  0.1599 -0.8127 -0.9238
 1453TIP3   OH2 4322   5.379   4.045   5.042 -0.5022  0.5272 -0.2032
 1453TIP3    H1 4323   5.440   4.020   5.111  0.5309  1.7912 -0.6203
 1453TIP3    H2 4324   5.435   4.056   4.964 -1.6857 -1.3606 -1.4019
 1454TIP3   OH2 4325   1.138   2.249   3.157  0.1820 -0.8427 -0.4498
 1454TIP3    H1 4326   1.206   2.184   3.175 -0.9946 -2.1192 -0.4838
 1454TIP3    H2 4327   1.100   2.221   3.074  0.8614  0.9711 -1.4455
 1455TIP3   OH2 4328   4.395   0.012   0.427  0.5936 -0.8791 -0.1063
 1455TIP3    H1 4329   4.462  -0.034   0.478  2.1255 -0.2425 -1.4494
 1455TIP3    H2 4330   4.445   0.067   0.366 -1.1579 -0.5582 -1.3322
 1456TIP3   OH2 4331   1.510   0.993   2.032  0.0777  0.5598 -0.1688
 1456TIP3    H1 4332   1.504   1.026   1.942 -1.7692 -0.3707 -0.4405
 1456TIP3    H2 4333   1.603   0.980   2.047  0.3222 -0.9977 -2.6131
 1457TIP3   OH2 4334   1.820   1.944   0.113 -0.2803 -0.1859 -0.0584
 1457TIP3    H1 4335   1.747   2.003   0.134 -0.5324 -0.3031 -0.5962
 1457TIP3    H2 4336   1.787   1.890   0.041  0.6996  0.4526 -1.0176
 1458TIP3   OH2 4337   2.454   3.817   3.642 -0.0398  0.7391 -0.1948
 1458TIP3    H1 4338   2.362   3.838   3.624  0.4070  1.4919 -1.7756
 1458TIP3    H2 4339   2.499   3.832   3.559  1.2645 -1.2268  0.0849
 1459TIP3   OH2 4340   0.818   0.378   0.338  0.1978 -0.3227  0.3388
 1459TIP3    H1 4341   0.889   0.429   0.297  0.6256  0.1084  1.5862
 1459TIP3    H2 4342   0.767   0.442   0.386 -1.2186 -0.5977 -0.7449
 1460TIP3   OH2 4343   4.323   1.855   4.252 -0.3411  0.3102 -0.2860
 1460TIP3    H1 4344   4.406   1.860   4.299 -1.1297  0.6654  1.1255
 1460TIP3    H2 4345   4.326   1.770   4.207 -0.0709 -0.6446  1.4455
 1461TIP3   OH2 4346   5.204   4.107   0.048 -0.3911  0.0033 -0.4540
 1461TIP3    H1 4347   5.120   4.108   0.093  0.1410 -2.0563  0.6938
 1461TIP3    H2 4348   5.200   4.031  -0.010  1.4430 -1.5125  1.2646
 1462TIP3   OH2 4349   2.094   5.437   1.981 -0.0515 -0.2821  0.5976
 1462TIP3    H1 4350   2.155   5.363   1.987  0.2075  0.0032  1.9083
 1462TIP3    H2 4351   2.080   5.450   1.887  2.5075  0.1227  0.2053
 1463TIP3   OH2 4352   3.244   0.045   2.853  0.1932  0.6826 -0.3570
 1463TIP3    H1 4353   3.200  -0.039   2.838  0.4025  0.7856 -1.6589
 1463TIP3    H2 4354   3.185   0.092   2.912  0.6684 -0.8275  1.4122
 1464TIP3   OH2 4355   2.351   1.400   4.124 -0.4059 -0.3636 -0.0931
 1464TIP3    H1 4356   2.320   1.405   4.034 -0.6269  0.2759  0.0133
 1464TIP3    H2 4357   2.379   1.309   4.135 -2.6663 -1.1185 -0.0447
 1465TIP3   OH2 4358   0.871   4.775   1.605 -0.5190  0.3516  0.7131
 1465TIP3    H1 4359   0.832   4.705   1.656  1.6148  0.4046  2.5588
 1465TIP3    H2 4360   0.833   4.855   1.642 -1.5424  0.2924 -0.1468
 1466TIP3   OH2 4361   5.721   3.726   2.201 -0.3415  0.1864  0.4623
 1466TIP3    H1 4362   5.699   3.730   2.294 -1.8710 -0.9930  0.1944
 1466TIP3    H2 4363   5.680   3.805   2.163 -0.6201  0.1190  0.6220
 1467TIP3   OH2 4364   3.723   4.626   0.175  0.1180 -0.0387 -0.4068
 1467TIP3    H1 4365   3.628   4.624   0.186 -0.0700  0.0574 -1.8951
 1467TIP3    H2 4366   3.749   4.534   0.172 -0.3230 -0.1489 -2.8813
 1468TIP3   OH2 4367   1.844   2.688   4.999 -0.6175 -0.8990 -0.1785
 1468TIP3    H1 4368   1.932   2.695   4.962 -0.4058 -1.4459  0.2176
 1468TIP3    H2 4369   1.794   2.641   4.931 -0.6334 -0.5143 -0.4394
 1469TIP3   OH2 4370   5.585   5.229   4.974  0.3775 -0.6088  0.1086
 1469TIP3    H1 4371   5.623   5.144   4.949  1.4165 -0.9035  2.4294
 1469TIP3    H2 4372   5.658   5.277   5.013 -0.9977 -0.0640  2.1272
 1470TIP3   OH2 4373   4.597   3.680   2.755  0.5334  0.0922 -0.2597
 1470TIP3    H1 4374   4.681   3.656   2.795  1.1036 -0.2220 -1.5829
 1470TIP3    H2 4375   4.577   3.606   2.696  0.8085  1.4374 -2.1471
 1471TIP3   OH2 4376   6.547   4.067   0.737 -0.6898 -0.2854  0.3687
 1471TIP3    H1 4377   6.602   4.145   0.745 -0.0174 -0.5464 -1.2405
 1471TIP3    H2 4378   6.478   4.079   0.802  0.5095  0.6975  1.5202
 1472TIP3   OH2 4379   3.830   4.719   2.469 -0.2028  0.1193 -0.4107
 1472TIP3    H1 4380   3.845   4.625   2.481  0.3451  0.4447  1.9966
 1472TIP3    H2 4381   3.857   4.736   2.379  2.4514 -1.5346 -0.0240
 1473TIP3   OH2 4382   7.209   2.497   5.229  0.3138 -0.3467  0.0139
 1473TIP3    H1 4383   7.133   2.545   5.262  0.1439 -2.1753  2.6140
 1473TIP3    H2 4384   7.171   2.423   5.182  0.5240 -0.1072 -0.5339
 1474TIP3   OH2 4385   3.258   1.781   5.822 -0.8633  0.6186  0.6095
 1474TIP3    H1 4386   3.279   1.845   5.890 -0.5518  0.1751  0.9342
 1474TIP3    H2 4387   3.267   1.830   5.740  1.5951  0.4228  0.7069
 1475TIP3   OH2 4388   1.060   3.911   1.776 -0.3249 -0.2702  0.0789
 1475TIP3    H1 4389   1.119   3.976   1.738 -1.6986  0.9646 -0.0293
 1475TIP3    H2 4390   1.110   3.872   1.847  0.7288  0.5144 -0.2097
 1476TIP3   OH2 4391   5.804   5.239   1.502 -0.0125  0.0204  0.3475
 1476TIP3    H1 4392   5.821   5.326   1.538 -0.3355  0.4909 -0.6183
 1476TIP3    H2 4393   5.880   5.187   1.530 -0.0366  0.4777  1.3178
 1477TIP3   OH2 4394   6.405   6.409   3.029 -0.3743 -0.7059  0.2932
 1477TIP3    H1 4395   6.392   6.430   3.122 -2.1643  0.7991 -0.2557
 1477TIP3    H2 4396   6.318   6.387   2.997  0.1895 -1.0108 -1.1012
 1478TIP3   OH2 4397   3.063   1.161   1.046 -0.6074 -0.4680 -0.0936
 1478TIP3    H1 4398   3.038   1.162   1.138  0.0252  0.9165  0.0853
 1478TIP3    H2 4399   2.995   1.110   1.003 -1.3791 -0.3961  1.0094
 1479TIP3   OH2 4400   7.021   3.298   3.935 -0.2054 -0.3635  0.0129
 1479TIP3    H1 4401   7.019   3.301   3.839  0.6696  0.1980  0.0066
 1479TIP3    H2 4402   7.065   3.379   3.961  1.7451 -1.6073  0.7989
 1480TIP3   OH2 4403   6.261   4.037   0.829 -0.3267  0.5617  0.4929
 1480TIP3    H1 4404   6.271   3.943   0.841 -0.6838  0.2363 -1.4395
 1480TIP3    H2 4405   6.176   4.047   0.786 -0.3331  1.7915  0.7454
 1481TIP3   OH2 4406   2.409   5.454   2.293 -0.0212  0.0708  0.7816
 1481TIP3    H1 4407   2.355   5.388   2.336  0.4855 -0.8664  0.0322
 1481TIP3    H2 4408   2.346   5.519   2.261 -1.0835 -2.1798 -2.1873
 1482TIP3   OH2 4409   2.808   1.712   1.365 -0.1511 -0.0710  0.0431
 1482TIP3    H1 4410   2.848   1.784   1.413 -0.0924 -0.3067  0.3515
 1482TIP3    H2 4411   2.856   1.708   1.283 -1.1454  1.2261 -0.6348
 1483TIP3   OH2 4412   5.805   4.257   5.462  0.1792  0.4887 -0.1487
 1483TIP3    H1 4413   5.874   4.324   5.463  1.2668 -0.5863 -1.0826
 1483TIP3    H2 4414   5.746   4.285   5.391  1.5958 -0.4240 -1.7707
 1484TIP3   OH2 4415   5.929   5.423   0.020  0.0113 -0.0632 -0.4659
 1484TIP3    H1 4416   5.998   5.455  -0.038 -0.0939  1.1324  0.0420
 1484TIP3    H2 4417   5.961   5.339   0.053  1.7147  0.9733  0.6189
 1485TIP3   OH2 4418   5.307   0.693   3.186 -0.0650 -0.4712  0.6574
 1485TIP3    H1 4419   5.394   0.657   3.170  0.1329  0.0540  0.5368
 1485TIP3    H2 4420   5.323   0.783   3.212 -0.5580 -0.4680  0.9613
 1486TIP3   OH2 4421   2.843   2.539   0.318  0.2406 -0.1245 -0.2327
 1486TIP3    H1 4422   2.804   2.529   0.406 -0.8879 -0.6708 -0.7699
 1486TIP3    H2 4423   2.792   2.480   0.263 -0.9095  2.2217 -1.8254
 1487TIP3   OH2 4424   1.834   0.493   5.785  0.7857  0.0060 -0.5706
 1487TIP3    H1 4425   1.820   0.401   5.807 -1.7199  0.0839 -1.5116
 1487TIP3    H2 4426   1.784   0.542   5.850  0.1168  0.5705 -1.4760
 1488TIP3   OH2 4427   4.072   1.658   1.073 -0.0697 -0.0816 -0.4120
 1488TIP3    H1 4428   4.090   1.570   1.040  1.3076  0.3830 -0.9349
 1488TIP3    H2 4429   4.068   1.714   0.996 -1.4323  0.2638 -0.1264
 1489TIP3   OH2 4430   3.884   2.803   2.996 -0.1527  0.3194  0.2478
 1489TIP3    H1 4431   3.804   2.843   3.029  0.4420 -0.3025  2.7073
 1489TIP3    H2 4432   3.868   2.708   3.003  0.8416  0.1873  1.0451
 1490TIP3   OH2 4433   5.070   2.568   0.626 -0.3587  0.3589  0.3377
 1490TIP3    H1 4434   5.118   2.641   0.587 -0.4632  0.6875  0.8044
 1490TIP3    H2 4435   5.075   2.498   0.561 -1.1205  1.1162 -0.5644
 1491TIP3   OH2 4436   2.783   0.242   5.179  0.1342  0.0955 -0.1616
 1491TIP3    H1 4437   2.833   0.227   5.260 -0.6284  0.8016  0.4554
 1491TIP3    H2 4438   2.699   0.278   5.209 -0.9190 -1.4167 -1.1413
 1492TIP3   OH2 4439   2.333   3.284   5.146  0.1633  0.1002  0.1096
 1492TIP3    H1 4440   2.269   3.291   5.217  0.0001  1.9724 -0.1886
 1492TIP3    H2 4441   2.402   3.228   5.182 -1.4436 -1.7081  0.5376
 1493TIP3   OH2 4442   4.009   3.869   4.196  0.2994 -0.1719  0.2458
 1493TIP3    H1 4443   4.074   3.913   4.142 -1.2956 -0.3293 -1.9032
 1493TIP3    H2 4444   4.004   3.922   4.275  1.0957  1.3645 -0.6927
 1494TIP3   OH2 4445   3.015   6.401   3.709 -0.0299 -0.0650 -0.1396
 1494TIP3    H1 4446   2.990   6.492   3.690  0.5090 -0.1221 -1.1969
 1494TIP3    H2 4447   3.101   6.409   3.749 -0.9930  0.0257  2.0962
 1495TIP3   OH2 4448   2.323   3.768   2.649  0.3696  0.3776  0.3126
 1495TIP3    H1 4449   2.297   3.828   2.719 -0.7382  0.4327 -0.1290
 1495TIP3    H2 4450   2.257   3.780   2.581  0.5637 -0.7895 -0.1078
 1496TIP3   OH2 4451   0.706   4.004   0.545  0.6603  0.5751  0.0399
 1496TIP3    H1 4452   0.702   4.097   0.522 -0.3910  0.4187 -0.4598
 1496TIP3    H2 4453   0.673   3.999   0.635 -2.0229  0.3860 -0.8902
 1497TIP3   OH2 4454   5.788   1.951   3.237  0.9566 -0.3297 -0.1075
 1497TIP3    H1 4455   5.726   1.933   3.166  0.4523  1.6341 -0.2299
 1497TIP3    H2 4456   5.837   2.028   3.207  3.4715 -1.7472  0.0197
 1498TIP3   OH2 4457   7.198   0.703   4.738 -0.3044 -0.9773 -0.0983
 1498TIP3    H1 4458   7.138   0.760   4.690  0.4264 -0.7712 -0.7930
 1498TIP3    H2 4459   7.216   0.750   4.819 -1.6666 -1.3948  0.4765
 1499TIP3   OH2 4460   2.597   5.048   0.187 -0.1195 -0.0248 -0.0744
 1499TIP3    H1 4461   2.657   5.035   0.260 -1.4206  0.0201  1.0437
 1499TIP3    H2 4462   2.652   5.085   0.118  1.5554 -1.8869  0.1594
 1500TIP3   OH2 4463   1.290   5.859   1.302  0.1529  0.0239 -0.1663
 1500TIP3    H1 4464   1.203   5.822   1.315  0.6909 -1.3171 -0.2172
 1500TIP3    H2 4465   1.314   5.894   1.388 -0.7903  1.2709 -0.3746
 1501TIP3   OH2 4466   2.726   2.704   5.514 -0.0707  0.0186 -0.0893
 1501TIP3    H1 4467   2.732   2.745   5.428 -1.2686  0.3520 -0.0242
 1501TIP3    H2 4468   2.766   2.618   5.503 -0.2025  0.0649 -0.9679
 1502TIP3   OH2 4469   0.115   1.257   0.513  0.5441 -0.4072  0.2352
 1502TIP3    H1 4470   0.188   1.199   0.492  0.6605 -0.1317 -0.1436
 1502TIP3    H2 4471   0.037   1.206   0.490  0.5163 -1.3728  2.2940
 1503TIP3   OH2 4472   7.226   1.725   5.265  0.1647 -0.1871  0.3849
 1503TIP3    H1 4473   7.169   1.694   5.335  1.0325 -0.4474  0.9905
 1503TIP3    H2 4474   7.193   1.813   5.244 -0.3136 -0.2494  0.8666
 1504TIP3   OH2 4475   6.507   2.754   0.499  0.2886  0.5438  0.9528
 1504TIP3    H1 4476   6.520   2.668   0.457 -2.1104 -0.0740  1.3046
 1504TIP3    H2 4477   6.595   2.788   0.511  1.2407 -0.3454 -2.3036
 1505TIP3   OH2 4478   6.855   1.076   5.736 -0.0779 -0.0483  0.4981
 1505TIP3    H1 4479   6.930   1.021   5.712 -0.8288 -1.3943  1.1388
 1505TIP3    H2 4480   6.819   1.035   5.814 -2.1972 -0.1410 -0.4674
 1506TIP3   OH2 4481   1.533   1.354   1.155  0.2935 -0.3076  0.4119
 1506TIP3    H1 4482   1.440   1.366   1.135  0.0717 -3.0059 -0.5895
 1506TIP3    H2 4483   1.568   1.443   1.159 -2.2637  0.7741  0.5638
 1507TIP3   OH2 4484   5.329   5.511   4.556  0.1082 -0.1100  0.3115
 1507TIP3    H1 4485   5.375   5.482   4.477 -0.7313  0.1874 -0.2987
 1507TIP3    H2 4486   5.358   5.451   4.624  3.5235  1.6145  0.6368
 1508TIP3   OH2 4487   3.801   4.387   5.394 -0.4108 -0.3443  0.2137
 1508TIP3    H1 4488   3.851   4.309   5.372  1.0773  0.1409  1.6716
 1508TIP3    H2 4489   3.863   4.442   5.442 -1.4884  1.6272 -0.5336
 1509TIP3   OH2 4490   3.685   1.727   4.474  0.1707 -0.0334  0.3453
 1509TIP3    H1 4491   3.756   1.716   4.410  0.0214 -0.0214  0.1782
 1509TIP3    H2 4492   3.718   1.684   4.553 -0.2770 -1.4278 -0.1978
 1510TIP3   OH2 4493   3.538   2.109   1.941  0.3760  0.0809 -0.2259
 1510TIP3    H1 4494   3.477   2.148   1.878  1.5042  2.1046 -0.1682
 1510TIP3    H2 4495   3.616   2.089   1.889  1.1702  1.4086  0.3886
 1511TIP3   OH2 4496   0.730   5.221   5.454  0.2437  0.5587  0.2659
 1511TIP3    H1 4497   0.708   5.133   5.423  2.4477  0.1257 -0.2021
 1511TIP3    H2 4498   0.765   5.208   5.541 -2.1463  1.3598  1.4478
 1512TIP3   OH2 4499   6.644   5.252   1.204  0.1963 -0.5630  0.0147
 1512TIP3    H1 4500   6.713   5.188   1.222 -0.2400 -0.5797  1.7927
 1512TIP3    H2 4501   6.652   5.317   1.274 -1.7568 -0.7481  0.4754
 1513TIP3   OH2 4502   3.866   4.053   4.704 -0.4229 -0.1283 -0.0646
 1513TIP3    H1 4503   3.898   3.966   4.680 -0.0530 -0.0727  0.2243
 1513TIP3    H2 4504   3.830   4.089   4.622  1.2992  0.2689 -0.6802
 1514TIP3   OH2 4505   0.689   1.086   5.424  0.5729  0.0479 -0.3915
 1514TIP3    H1 4506   0.769   1.033   5.416  0.5037 -0.3573  1.2712
 1514TIP3    H2 4507   0.719   1.176   5.411  0.9760 -0.2337 -1.5622
 1515TIP3   OH2 4508   2.661   1.102   4.943 -0.0788  0.2495 -0.0290
 1515TIP3    H1 4509   2.647   1.193   4.969 -1.3527  0.3454 -0.9831
 1515TIP3    H2 4510   2.756   1.095   4.933  0.0859  1.3271  0.5676
 1516TIP3   OH2 4511   2.738   4.839   2.563  0.1136  0.4567 -0.3026
 1516TIP3    H1 4512   2.788   4.916   2.538  0.9858 -0.2560 -0.7976
 1516TIP3    H2 4513   2.707   4.803   2.480 -1.1356  0.8141 -0.0180
 1517TIP3   OH2 4514   1.835   5.848   1.360 -0.9515 -0.5783  0.3250
 1517TIP3    H1 4515   1.833   5.924   1.418  1.5830  1.3825 -1.9023
 1517TIP3    H2 4516   1.757   5.857   1.305 -0.0032  1.2907 -0.8135
 1518TIP3   OH2 4517   7.120   4.460   3.248 -0.7934  0.1684 -0.3580
 1518TIP3    H1 4518   7.091   4.436   3.160  0.1590 -1.0627 -0.3621
 1518TIP3    H2 4519   7.059   4.417   3.307 -0.8967  0.2518 -0.4039
 1519TIP3   OH2 4520   7.035   3.872   3.462 -0.2283 -0.0854 -0.0229
 1519TIP3    H1 4521   7.011   3.939   3.526 -0.6700 -0.5885  0.3505
 1519TIP3    H2 4522   6.966   3.878   3.395  0.1463  0.3338 -0.3786
 1520TIP3   OH2 4523   6.023   5.734   5.517  0.1956  0.3378 -0.7054
 1520TIP3    H1 4524   6.083   5.660   5.512  0.6732  0.7369 -0.8801
 1520TIP3    H2 4525   6.034   5.780   5.434 -0.1183  0.5941 -0.6094
 1521TIP3   OH2 4526   4.246   1.055   0.810  0.4848  0.0348 -0.7251
 1521TIP3    H1 4527   4.299   0.991   0.763  0.5636 -0.2647 -0.2432
 1521TIP3    H2 4528   4.239   1.129   0.750  0.5047 -0.3711 -1.2373
 1522TIP3   OH2 4529   4.651   6.807   2.011  0.0737  0.4002  0.6143
 1522TIP3    H1 4530   4.589   6.820   2.083  0.3723  0.4044  0.8760
 1522TIP3    H2 4531   4.597   6.779   1.937 -0.2571  0.5520  0.7951
 1523TIP3   OH2 4532   0.532   6.060   1.099  0.3754 -0.1822  0.0670
 1523TIP3    H1 4533   0.482   6.099   1.170  1.4920 -0.9840  1.3368
 1523TIP3    H2 4534   0.570   6.135   1.052 -2.8413  0.5218 -1.6730
 1524TIP3   OH2 4535   5.435   2.588   0.252  0.2623  0.0045 -0.1893
 1524TIP3    H1 4536   5.474   2.642   0.321 -0.6344  1.0298 -0.4690
 1524TIP3    H2 4537   5.507   2.573   0.190  0.5039  0.9516 -0.1518
 1525TIP3   OH2 4538   1.777   2.376   2.704  0.2775  0.3544  0.0123
 1525TIP3    H1 4539   1.865   2.411   2.696  0.3348  0.1126 -0.4311
 1525TIP3    H2 4540   1.759   2.376   2.798  1.6437 -1.7978  0.3397
 1526TIP3   OH2 4541   1.859   2.115   1.370  0.8719  0.3946  0.3908
 1526TIP3    H1 4542   1.896   2.060   1.438 -4.5617 -1.3553  2.4528
 1526TIP3    H2 4543   1.846   2.201   1.411  0.3365  0.2274  0.5803
 1527TIP3   OH2 4544   3.284   3.834   4.128  0.1772 -0.0413  0.0805
 1527TIP3    H1 4545   3.239   3.917   4.137  0.8324  0.3592 -0.2973
 1527TIP3    H2 4546   3.270   3.808   4.037 -0.0932 -0.3950  0.2151
 1528TIP3   OH2 4547   0.678   6.290   2.404  0.1460  0.0894  0.2098
 1528TIP3    H1 4548   0.598   6.281   2.456  0.0744 -1.0589 -0.0634
 1528TIP3    H2 4549   0.745   6.316   2.468 -0.0453 -0.8299  0.7985
 1529TIP3   OH2 4550   3.378   1.512   5.540 -0.1233  1.0207  0.3544
 1529TIP3    H1 4551   3.420   1.444   5.488  1.0502  2.2892 -0.4402
 1529TIP3    H2 4552   3.440   1.529   5.611 -1.0075  0.3743  1.2982
 1530TIP3   OH2 4553   7.248   1.499   3.747 -0.2604 -0.0055 -0.6113
 1530TIP3    H1 4554   7.228   1.446   3.824  1.5553 -1.4037 -1.0384
 1530TIP3    H2 4555   7.163   1.533   3.718 -1.3213 -1.6726  0.4178
 1531TIP3   OH2 4556   3.093   2.817   2.624  0.2285  0.0374  0.2648
 1531TIP3    H1 4557   3.085   2.722   2.618  0.0525  0.1199 -1.0087
 1531TIP3    H2 4558   3.089   2.848   2.533 -1.6087  1.4081  0.7424
 1532TIP3   OH2 4559   5.262   3.068   1.822  0.4067 -0.0281 -0.2054
 1532TIP3    H1 4560   5.272   3.114   1.905 -0.9830 -0.2225  0.1065
 1532TIP3    H2 4561   5.243   3.138   1.759 -1.8801 -0.0851  0.3004
 1533TIP3   OH2 4562   2.868   3.741   5.437 -0.6333  0.2780  0.4607
 1533TIP3    H1 4563   2.821   3.683   5.496  0.4627  1.5148  2.6513
 1533TIP3    H2 4564   2.960   3.714   5.444 -0.4121  0.7965 -0.2968
 1534TIP3   OH2 4565   0.956   1.502   5.246 -0.0056 -0.2196  0.0326
 1534TIP3    H1 4566   1.033   1.456   5.278 -0.1612 -1.6691 -1.5267
 1534TIP3    H2 4567   0.884   1.469   5.299  0.2787  0.4445  0.8633
 1535TIP3   OH2 4568   3.486   2.472   3.811  0.0306  0.4659 -0.3034
 1535TIP3    H1 4569   3.428   2.547   3.817 -0.3787  0.0467  1.9181
 1535TIP3    H2 4570   3.433   2.403   3.772 -0.1541  0.8212 -0.6780
 1536TIP3   OH2 4571   4.862   6.022   0.888  0.2096 -0.2110 -0.0752
 1536TIP3    H1 4572   4.841   5.959   0.819 -0.7597  0.5031 -0.4579
 1536TIP3    H2 4573   4.794   6.009   0.954 -0.4306  0.9049 -0.4919
 1537TIP3   OH2 4574   3.398   6.476   1.387 -0.0359 -0.3460  0.0450
 1537TIP3    H1 4575   3.429   6.483   1.297 -0.1793 -1.3943 -0.0902
 1537TIP3    H2 4576   3.307   6.447   1.379  0.1242 -0.9926  0.5419
 1538TIP3   OH2 4577   4.726   4.312   2.407 -0.0990  0.3127  0.1578
 1538TIP3    H1 4578   4.733   4.219   2.386  0.1043  0.1099  1.0764
 1538TIP3    H2 4579   4.807   4.350   2.372 -0.1396  0.1239 -0.1409
 1539TIP3   OH2 4580   1.273   4.913   0.573 -0.1884 -0.0847 -0.4095
 1539TIP3    H1 4581   1.288   5.006   0.591 -2.1814 -0.1370  2.2510
 1539TIP3    H2 4582   1.345   4.868   0.617 -1.1516  0.1393  1.5299
 1540TIP3   OH2 4583   1.302   5.562   2.431  0.0042 -0.1447  0.3088
 1540TIP3    H1 4584   1.396   5.546   2.427 -0.2324 -1.4422 -1.5918
 1540TIP3    H2 4585   1.270   5.535   2.345 -1.8542  2.1043  0.2100
 1541TIP3   OH2 4586   6.111   0.576   0.696  0.1489 -0.5422 -0.4111
 1541TIP3    H1 4587   6.163   0.597   0.773  0.0814  2.8394 -1.1494
 1541TIP3    H2 4588   6.020   0.593   0.723 -0.2623 -2.6704 -0.2857
 1542TIP3   OH2 4589   6.199   3.290   2.878  0.3491 -0.6319 -0.0309
 1542TIP3    H1 4590   6.143   3.254   2.809 -0.5743  0.9228 -0.1245
 1542TIP3    H2 4591   6.225   3.376   2.846  0.3826 -0.1235  1.2981
 1543TIP3   OH2 4592   0.384   2.800   5.852  0.0417  0.1831  0.4882
 1543TIP3    H1 4593   0.425   2.738   5.913 -1.1480  1.0935  2.3072
 1543TIP3    H2 4594   0.413   2.886   5.882  2.4417  0.5908 -2.5886
 1544TIP3   OH2 4595   2.008   5.866   4.423  0.5011  0.1213 -0.4084
 1544TIP3    H1 4596   1.933   5.888   4.368  0.1454 -1.6940 -0.7205
 1544TIP3    H2 4597   2.012   5.937   4.488 -1.0033  0.6528 -0.8563
 1545TIP3   OH2 4598   3.179   1.877   2.982  0.7809  0.2537 -0.5329
 1545TIP3    H1 4599   3.200   1.949   3.041 -0.8910  1.4741 -1.3329
 1545TIP3    H2 4600   3.212   1.799   3.027  0.0363  1.1806  1.7810
 1546TIP3   OH2 4601   2.034   6.235   0.256 -0.5798 -0.2170  0.5300
 1546TIP3    H1 4602   2.108   6.281   0.297 -1.1046 -0.1724  1.4608
 1546TIP3    H2 4603   1.976   6.306   0.228  0.7156 -0.1388 -2.2382
 1547TIP3   OH2 4604   3.105   1.272   1.788  0.4776 -0.2451  0.0269
 1547TIP3    H1 4605   3.045   1.209   1.828  1.7468 -0.9937  0.8059
 1547TIP3    H2 4606   3.118   1.338   1.856  0.6646 -0.1678 -0.0841
 1548TIP3   OH2 4607   7.134   4.760   3.440  0.6980  0.7522  0.1911
 1548TIP3    H1 4608   7.160   4.690   3.500 -0.3711 -1.2963 -1.5901
 1548TIP3    H2 4609   7.180   4.740   3.359 -1.2903  0.8038 -1.0160
 1549TIP3   OH2 4610   6.295   5.866   0.338 -0.3059 -0.0465 -0.6100
 1549TIP3    H1 4611   6.231   5.918   0.291 -1.5751 -0.0766  0.9799
 1549TIP3    H2 4612   6.243   5.803   0.388  0.9408  0.0235  0.8630
 1550TIP3   OH2 4613   2.546   4.520   3.998 -0.6236 -0.4311 -0.2427
 1550TIP3    H1 4614   2.468   4.542   3.947 -1.1717 -0.4909  0.5456
 1550TIP3    H2 4615   2.513   4.509   4.088  0.4320  0.5101  0.2926
 1551TIP3   OH2 4616   0.655   0.746   1.357  0.1897 -0.1981 -0.7240
 1551TIP3    H1 4617   0.681   0.702   1.276 -1.4372 -0.8695 -0.9254
 1551TIP3    H2 4618   0.659   0.840   1.336  0.7148 -0.3404 -1.2728
 1552TIP3   OH2 4619   3.740   3.082   4.284 -0.1017  0.3590 -0.6936
 1552TIP3    H1 4620   3.758   3.144   4.214  1.2377  0.0596 -0.6493
 1552TIP3    H2 4621   3.823   3.076   4.332 -0.2063 -1.3918 -0.6638
 1553TIP3   OH2 4622   2.335   1.052   1.286  0.0618  0.1481 -0.4733
 1553TIP3    H1 4623   2.411   1.111   1.284  1.2626 -1.3293  0.0905
 1553TIP3    H2 4624   2.323   1.032   1.379  1.4475 -2.6370 -0.7934
 1554TIP3   OH2 4625   0.676   4.933   2.109  0.1112 -0.6724 -0.6145
 1554TIP3    H1 4626   0.603   4.954   2.051 -0.4736  0.5367  0.5054
 1554TIP3    H2 4627   0.662   4.988   2.186  0.7993 -2.2699  0.7278
 1555TIP3   OH2 4628   5.266   6.328   5.458  0.0770 -0.1806 -0.6064
 1555TIP3    H1 4629   5.211   6.323   5.380 -1.0870 -3.0436  0.2679
 1555TIP3    H2 4630   5.298   6.239   5.471  1.3595  0.4900  1.4320
 1556TIP3   OH2 4631   1.630   0.851   1.165  0.2128 -0.7420 -0.3439
 1556TIP3    H1 4632   1.590   0.825   1.247  0.8914 -1.3625 -0.2066
 1556TIP3    H2 4633   1.700   0.911   1.190 -0.2826 -0.0557 -0.5525
 1557TIP3   OH2 4634   4.934   6.321   5.119 -0.1946 -0.2069  0.2533
 1557TIP3    H1 4635   4.888   6.366   5.049 -0.4788 -1.2823 -0.2768
 1557TIP3    H2 4636   4.944   6.231   5.088 -1.1315 -0.9569  1.9637
 1558TIP3   OH2 4637   0.131   3.627   3.397 -0.5970 -0.7793 -0.4064
 1558TIP3    H1 4638   0.094   3.621   3.309  1.0341 -1.7795 -1.0825
 1558TIP3    H2 4639   0.194   3.699   3.391 -0.2254 -1.0802 -0.1694
 1559TIP3   OH2 4640   5.670   0.668   1.396  0.2102  0.0397  0.1000
 1559TIP3    H1 4641   5.587   0.687   1.354 -0.0129 -3.1657 -1.2274
 1559TIP3    H2 4642   5.732   0.657   1.324  1.1924 -0.0581  0.9269
 1560TIP3   OH2 4643   4.567   3.663   1.843  0.2317  0.1565 -0.3009
 1560TIP3    H1 4644   4.484   3.710   1.834  0.2822  0.2975 -0.0506
 1560TIP3    H2 4645   4.546   3.573   1.818 -0.2168 -0.0156  0.6572
 1561TIP3   OH2 4646   6.306   1.044   4.810 -0.9971 -0.4068  0.2881
 1561TIP3    H1 4647   6.330   0.952   4.799  0.1139 -0.2829  1.4214
 1561TIP3    H2 4648   6.386   1.086   4.841 -0.8740  1.3638 -2.0676
 1562TIP3   OH2 4649   4.771   4.951   5.094  0.5267  0.0329 -0.0251
 1562TIP3    H1 4650   4.807   5.030   5.135 -0.6391  1.0576 -0.9155
 1562TIP3    H2 4651   4.811   4.949   5.007  1.8064 -1.2956  0.5404
 1563TIP3   OH2 4652   1.176   5.792   0.085 -0.4485 -0.0886  0.2348
 1563TIP3    H1 4653   1.216   5.815   0.001  0.7838 -0.4616  0.7039
 1563TIP3    H2 4654   1.173   5.875   0.133 -0.5681  0.0041  0.0699
 1564TIP3   OH2 4655   1.168   6.730   4.225 -0.3319 -0.0420  0.7592
 1564TIP3    H1 4656   1.076   6.706   4.229 -0.9718  1.9207 -0.7450
 1564TIP3    H2 4657   1.191   6.722   4.133  0.3266  1.6545  0.7353
 1565TIP3   OH2 4658   5.556   5.936   4.447 -0.4722  0.5227  0.1628
 1565TIP3    H1 4659   5.500   5.875   4.496 -2.1676  1.7669 -0.1142
 1565TIP3    H2 4660   5.562   5.897   4.359 -1.9019  0.9202 -0.1382
 1566TIP3   OH2 4661   1.817   3.444   4.794  0.5080  0.4896 -0.0027
 1566TIP3    H1 4662   1.811   3.515   4.858  1.6517  0.9820 -0.4282
 1566TIP3    H2 4663   1.874   3.478   4.725 -0.2407 -0.2465 -1.0119
 1567TIP3   OH2 4664   4.127   5.146   5.813  0.1079 -0.0349 -0.1241
 1567TIP3    H1 4665   4.190   5.138   5.742 -0.9002 -1.2480 -0.9378
 1567TIP3    H2 4666   4.150   5.075   5.873  0.3762  0.3946  0.2813
 1568TIP3   OH2 4667   5.097   3.771   1.984  0.3709 -0.0693 -0.2108
 1568TIP3    H1 4668   5.154   3.813   1.920 -0.2549 -0.8054 -1.2732
 1568TIP3    H2 4669   5.015   3.820   1.978  0.3168 -0.1256  0.0488
 1569TIP3   OH2 4670   0.054   5.927   5.265  0.1198  0.6107 -0.0527
 1569TIP3    H1 4671  -0.004   5.864   5.309  0.6001  1.5122  1.9971
 1569TIP3    H2 4672   0.142   5.904   5.297  0.4698  1.4286 -0.4060
 1570TIP3   OH2 4673   4.330   2.743   2.179  0.0558 -0.2168  0.0318
 1570TIP3    H1 4674   4.332   2.838   2.191  0.8697 -0.3561  1.1951
 1570TIP3    H2 4675   4.310   2.708   2.266  1.3706 -1.1698 -0.0167
 1571TIP3   OH2 4676   1.954   0.320   2.545 -0.1798 -0.3526  0.0873
 1571TIP3    H1 4677   2.041   0.361   2.542 -0.8534  1.0850 -0.7342
 1571TIP3    H2 4678   1.935   0.297   2.454 -0.4530 -1.1307  0.3349
 1572TIP3   OH2 4679   5.320   6.775   3.207 -0.0308  0.1745 -0.1693
 1572TIP3    H1 4680   5.375   6.748   3.134  0.3977  0.7339 -0.0685
 1572TIP3    H2 4681   5.382   6.794   3.277 -0.3687  0.5660  0.0279
 1573TIP3   OH2 4682   5.902   2.344   1.369 -0.2461  0.1434 -0.1558
 1573TIP3    H1 4683   5.962   2.275   1.398 -0.0274  1.3917  2.7244
 1573TIP3    H2 4684   5.818   2.319   1.408 -0.8994  0.0157 -1.5901
 1574TIP3   OH2 4685   1.696   6.402   4.630 -0.2036 -0.5726 -0.7007
 1574TIP3    H1 4686   1.660   6.471   4.575  0.7752 -1.1519 -2.1401
 1574TIP3    H2 4687   1.790   6.420   4.634 -0.0934 -1.1828 -0.1443
 1575TIP3   OH2 4688   5.544   1.747   1.839  0.3521  0.0567  0.3773
 1575TIP3    H1 4689   5.508   1.702   1.915 -0.8357  1.1677  0.4920
 1575TIP3    H2 4690   5.588   1.824   1.874  0.1903  0.3396 -0.0315
 1576TIP3   OH2 4691   4.051   3.166   3.209  0.6629 -0.1082 -0.0071
 1576TIP3    H1 4692   4.038   3.203   3.121 -0.7093 -0.4818  0.0155
 1576TIP3    H2 4693   4.108   3.091   3.195  2.0850  0.9788 -0.2853
 1577TIP3   OH2 4694   0.490   6.391   0.160  0.6781 -0.3072 -0.6037
 1577TIP3    H1 4695   0.552   6.335   0.113 -0.5217 -0.2723 -2.3510
 1577TIP3    H2 4696   0.412   6.392   0.104 -0.6351  0.2554  1.1302
 1578TIP3   OH2 4697   2.719   3.490   1.598  0.6105  0.3313  0.0590
 1578TIP3    H1 4698   2.728   3.535   1.682  0.2172  2.5660 -1.0259
 1578TIP3    H2 4699   2.687   3.557   1.538 -1.4822 -1.7506 -1.3588
 1579TIP3   OH2 4700   0.092   4.615   3.626  0.1411  0.2130  0.3636
 1579TIP3    H1 4701   0.133   4.701   3.634  0.2729  0.1592  0.2556
 1579TIP3    H2 4702   0.066   4.593   3.716 -1.2022  1.0059  0.1949
 1580TIP3   OH2 4703   4.217   6.663   1.890 -0.5268  0.5549  0.1233
 1580TIP3    H1 4704   4.265   6.580   1.889 -2.2816 -0.5398  1.0048
 1580TIP3    H2 4705   4.139   6.645   1.837 -0.7639  1.7755  0.0359
 1581TIP3   OH2 4706   6.110   1.144   0.811 -0.1975 -0.4864  0.1380
 1581TIP3    H1 4707   6.037   1.135   0.750 -0.2021 -1.4811  0.2807
 1581TIP3    H2 4708   6.085   1.218   0.867  0.3212  1.2182 -1.7394
 1582TIP3   OH2 4709   3.603   5.611   5.609 -0.1706  0.0190  0.3619
 1582TIP3    H1 4710   3.520   5.564   5.607 -0.4633  0.5034  0.8101
 1582TIP3    H2 4711   3.596   5.668   5.686  0.3632  0.4495  0.0964
 1583TIP3   OH2 4712   2.610   4.216   2.174 -0.5430 -0.1404  0.6731
 1583TIP3    H1 4713   2.667   4.293   2.184 -0.6579  0.0891 -0.3321
 1583TIP3    H2 4714   2.596   4.209   2.080 -3.2160  0.5534  0.9364
 1584TIP3   OH2 4715   0.458   6.067   2.242 -0.1392 -0.4532  0.3436
 1584TIP3    H1 4716   0.448   6.074   2.147 -0.3088 -1.3906  0.2844
 1584TIP3    H2 4717   0.370   6.049   2.275 -0.3020  1.1208  0.8145
 1585TIP3   OH2 4718   1.793   3.678   4.406 -0.0012  0.6599 -0.8398
 1585TIP3    H1 4719   1.815   3.644   4.493  0.3081  1.1606 -0.7178
 1585TIP3    H2 4720   1.857   3.639   4.348  1.0201  1.8469 -0.5390
 1586TIP3   OH2 4721   4.060   2.560   4.581  0.0177 -0.8047  0.0151
 1586TIP3    H1 4722   4.104   2.610   4.513  1.2914 -2.6163 -0.5537
 1586TIP3    H2 4723   3.968   2.560   4.555  0.0311  0.8780 -0.1582
 1587TIP3   OH2 4724   4.305   6.719   3.899  0.0846 -0.0372  0.1813
 1587TIP3    H1 4725   4.346   6.637   3.872 -0.9761 -0.3755 -0.4431
 1587TIP3    H2 4726   4.352   6.787   3.851  1.3661 -0.1902  1.1502
 1588TIP3   OH2 4727   5.239   0.372   0.814  0.3047  0.2457 -0.9210
 1588TIP3    H1 4728   5.208   0.390   0.902  3.8225 -2.5958  1.1999
 1588TIP3    H2 4729   5.165   0.329   0.770 -1.4737  1.5969  0.6027
 1589TIP3   OH2 4730   4.013   3.158   4.224 -0.5899 -0.0175 -0.1403
 1589TIP3    H1 4731   4.088   3.136   4.168 -0.3517  0.4815 -0.0229
 1589TIP3    H2 4732   4.002   3.082   4.281  0.7641  0.4858  0.8519
 1590TIP3   OH2 4733   7.169   0.329   2.399  0.5650  0.4313 -0.4123
 1590TIP3    H1 4734   7.207   0.242   2.392  0.1990  0.3179 -1.0512
 1590TIP3    H2 4735   7.172   0.364   2.310 -1.4117  0.1609 -0.6243
 1591TIP3   OH2 4736   2.564   3.223   4.104 -0.3300 -0.4700 -0.6313
 1591TIP3    H1 4737   2.634   3.263   4.053  0.1238 -1.8166 -1.0854
 1591TIP3    H2 4738   2.492   3.213   4.043  0.6204 -3.2226 -1.4479
 1592TIP3   OH2 4739   6.246   2.422   1.335 -0.0503  0.1869  0.2096
 1592TIP3    H1 4740   6.202   2.348   1.375 -1.9801  1.3572  0.3794
 1592TIP3    H2 4741   6.240   2.405   1.241 -1.0236  0.3904  0.2246
 1593TIP3   OH2 4742   1.116   2.175   2.225 -0.6351 -0.2397  0.4850
 1593TIP3    H1 4743   1.049   2.236   2.255  0.3070  0.3609  1.4704
 1593TIP3    H2 4744   1.126   2.192   2.132 -1.2877  0.2266  0.4995
 1594TIP3   OH2 4745   6.024   1.365   3.250 -0.0886  0.1547  0.8512
 1594TIP3    H1 4746   6.048   1.435   3.189 -1.7865  1.0942  1.2129
 1594TIP3    H2 4747   5.981   1.299   3.196 -0.2263  0.2840  0.8022
 1595TIP3   OH2 4748   0.191   5.923   2.148  0.0564 -0.5368  0.3603
 1595TIP3    H1 4749   0.126   5.936   2.080 -1.2945 -0.5391  1.6066
 1595TIP3    H2 4750   0.158   5.971   2.223  1.9186  0.1517  0.7994
 1596TIP3   OH2 4751   0.953   6.043   4.257  0.1886  0.4644  0.0111
 1596TIP3    H1 4752   1.004   6.048   4.176 -3.2448  0.5330 -2.3415
 1596TIP3    H2 4753   0.927   5.951   4.264 -0.5081  0.6818  0.3751
 1597TIP3   OH2 4754   1.589   1.590   0.571 -0.1261  0.2241  0.0049
 1597TIP3    H1 4755   1.513   1.636   0.535  0.4487  0.2146 -1.3058
 1597TIP3    H2 4756   1.617   1.642   0.645  0.7490  2.2802 -1.6692
 1598TIP3   OH2 4757   3.133   2.490   1.099  0.1626 -0.2257  0.3051
 1598TIP3    H1 4758   3.126   2.574   1.144  1.4916 -0.0316  0.1809
 1598TIP3    H2 4759   3.050   2.481   1.052 -0.9867 -0.1076  2.1812
 1599TIP3   OH2 4760   4.283   2.932   2.959  0.0445 -0.0059  0.2569
 1599TIP3    H1 4761   4.224   2.892   3.023  0.4594 -0.7178  0.2050
 1599TIP3    H2 4762   4.366   2.887   2.972  0.0520 -0.3881 -0.9914
 1600TIP3   OH2 4763   2.050   3.077   5.826 -0.4351 -0.1073 -0.4380
 1600TIP3    H1 4764   1.955   3.067   5.832 -0.5385  0.7985 -0.2961
 1600TIP3    H2 4765   2.068   3.158   5.875  0.2222  0.6111 -1.8031
 1601TIP3   OH2 4766   5.218   1.365   4.936  0.1572 -0.5347  0.2573
 1601TIP3    H1 4767   5.126   1.375   4.960  0.0908  1.4471 -0.6322
 1601TIP3    H2 4768   5.217   1.353   4.841  0.8284 -0.2601  0.2089
 1602TIP3   OH2 4769   0.715   5.314   4.540  0.0065 -0.5116 -0.1573
 1602TIP3    H1 4770   0.703   5.297   4.634 -4.4061 -0.8518 -0.5764
 1602TIP3    H2 4771   0.654   5.385   4.520  0.7498 -0.5033 -2.8382
 1603TIP3   OH2 4772   3.336   1.508   0.323 -0.2049 -0.1275  0.1766
 1603TIP3    H1 4773   3.395   1.446   0.282 -0.2245 -0.4307  0.5961
 1603TIP3    H2 4774   3.387   1.589   0.333 -0.1563 -0.0994 -0.2995
 1604TIP3   OH2 4775   3.272   5.456   2.242  0.4660 -0.3135  0.0344
 1604TIP3    H1 4776   3.355   5.417   2.272  0.7738 -0.3293 -0.8147
 1604TIP3    H2 4777   3.299   5.529   2.185 -0.1080  0.4590  0.7236
 1605TIP3   OH2 4778   2.212   6.740   3.716 -0.2900  0.2389 -0.6870
 1605TIP3    H1 4779   2.283   6.757   3.654 -0.4028  0.1964 -0.8289
 1605TIP3    H2 4780   2.255   6.734   3.801 -0.3938  2.5850 -0.4059
 1606TIP3   OH2 4781   2.782   3.269   2.114 -0.2411 -0.3066 -0.6246
 1606TIP3    H1 4782   2.817   3.227   2.192  0.0927 -1.4857 -1.3901
 1606TIP3    H2 4783   2.733   3.344   2.148 -1.2118 -1.5279  0.8210
 1607TIP3   OH2 4784   3.692   3.249   4.704  0.0144 -0.0550  0.6365
 1607TIP3    H1 4785   3.674   3.257   4.798 -0.0504 -1.1725  0.7306
 1607TIP3    H2 4786   3.615   3.204   4.669 -0.0613  0.5545 -0.0012
 1608TIP3   OH2 4787   5.646   3.305   1.224 -0.3777  0.0952 -0.1913
 1608TIP3    H1 4788   5.740   3.295   1.237 -0.4694  1.9927  3.1345
 1608TIP3    H2 4789   5.637   3.387   1.175 -0.3264 -0.6619 -1.5084
 1609TIP3   OH2 4790   2.529   6.418   4.791 -0.0029  0.2420  0.7313
 1609TIP3    H1 4791   2.616   6.442   4.759  0.9221 -0.9790  2.1641
 1609TIP3    H2 4792   2.484   6.502   4.802  0.4557  0.8153 -1.3782
 1610TIP3   OH2 4793   6.821   2.205   2.477  0.2295 -1.1329  0.3916
 1610TIP3    H1 4794   6.911   2.174   2.480  0.8164  0.5374  1.0010
 1610TIP3    H2 4795   6.818   2.266   2.404 -0.8328 -2.3179 -0.6108
 1611TIP3   OH2 4796   4.405   0.306   0.601  0.2202  0.1808 -0.3003
 1611TIP3    H1 4797   4.486   0.273   0.561  0.2688  1.5559 -1.3747
 1611TIP3    H2 4798   4.364   0.228   0.637  1.5317 -0.6975 -0.6154
 1612TIP3   OH2 4799   5.772   0.095   5.440  0.5263  0.4009  0.3645
 1612TIP3    H1 4800   5.843   0.124   5.382  0.4671 -1.8118 -0.9141
 1612TIP3    H2 4801   5.694   0.139   5.406  1.0286  1.7695  0.9194
 1613TIP3   OH2 4802   0.490   1.286   1.523  0.2690 -0.0692 -0.6824
 1613TIP3    H1 4803   0.504   1.240   1.440  3.0804 -0.5192 -0.0716
 1613TIP3    H2 4804   0.550   1.361   1.518  0.6937 -0.2545  1.0103
 1614TIP3   OH2 4805   4.197   2.118   2.217  0.0330  0.1051  0.1212
 1614TIP3    H1 4806   4.218   2.205   2.185 -3.7205  2.4636  3.0936
 1614TIP3    H2 4807   4.250   2.108   2.296  1.3302 -0.9044 -0.8481
 1615TIP3   OH2 4808   2.915   4.512   3.643  0.1119  0.4574 -0.1684
 1615TIP3    H1 4809   2.861   4.468   3.708 -0.6373  0.4551 -0.7788
 1615TIP3    H2 4810   2.920   4.450   3.570  0.6180  0.6164 -0.2721
 1616TIP3   OH2 4811   6.664   4.808   2.236  0.1749  0.1055 -0.1785
 1616TIP3    H1 4812   6.647   4.901   2.225  3.6272  0.9654  0.4173
 1616TIP3    H2 4813   6.629   4.787   2.322 -3.0221  0.0681 -1.3702
 1617TIP3   OH2 4814   2.867   5.584   5.409 -0.7925  0.0576 -0.1265
 1617TIP3    H1 4815   2.909   5.662   5.373 -2.7700  1.1399 -0.2693
 1617TIP3    H2 4816   2.885   5.589   5.503 -0.0804  0.1432 -0.2633
 1618TIP3   OH2 4817   6.884   1.299   2.269 -0.1498  0.0654  0.2390
 1618TIP3    H1 4818   6.906   1.247   2.346  0.5518  0.1158  0.0736
 1618TIP3    H2 4819   6.807   1.254   2.232 -0.7078  0.2438  1.1500
 1619TIP3   OH2 4820   5.964   3.014   2.347 -0.3611  0.0748 -0.2091
 1619TIP3    H1 4821   5.937   3.104   2.364 -0.3306  0.1196 -0.3927
 1619TIP3    H2 4822   6.032   3.022   2.280 -0.0659 -0.0529  0.0737
 1620TIP3   OH2 4823   3.826   5.098   4.321 -0.2058 -1.1670  0.1376
 1620TIP3    H1 4824   3.783   5.104   4.407  0.3500 -0.6873  0.3885
 1620TIP3    H2 4825   3.791   5.172   4.272 -0.9187 -1.7365 -0.2450
 1621TIP3   OH2 4826   7.011   2.423   3.491 -0.1433 -0.1337 -0.0725
 1621TIP3    H1 4827   7.098   2.400   3.521 -0.5989 -1.6257  0.1978
 1621TIP3    H2 4828   7.020   2.511   3.454  1.2967  0.0306  0.6290
 1622TIP3   OH2 4829   1.338   6.019   5.616  0.3821  0.0723 -0.0428
 1622TIP3    H1 4830   1.340   5.995   5.708 -1.1966 -1.1514 -0.2691
 1622TIP3    H2 4831   1.387   5.949   5.572  1.8019  1.0597 -0.0920
 1623TIP3   OH2 4832   6.783   5.964   0.207 -0.2059  0.4401 -0.0555
 1623TIP3    H1 4833   6.716   5.918   0.258  0.5640 -0.8583 -0.1765
 1623TIP3    H2 4834   6.866   5.929   0.239  0.5389  3.0025  1.0540
 1624TIP3   OH2 4835   0.342   2.633   1.863  0.3830  0.2301  0.5470
 1624TIP3    H1 4836   0.310   2.613   1.951 -0.8684 -0.8591 -0.1200
 1624TIP3    H2 4837   0.287   2.706   1.834 -1.5985 -1.5699 -0.5565
 1625TIP3   OH2 4838   6.217   0.597   4.403  0.0299 -0.1446 -0.3222
 1625TIP3    H1 4839   6.137   0.644   4.382 -0.6040 -0.8725  0.4033
 1625TIP3    H2 4840   6.219   0.523   4.342  1.6312  1.3951 -2.2732
 1626TIP3   OH2 4841   2.045   5.667   3.787  0.2099  0.2152 -0.0716
 1626TIP3    H1 4842   2.039   5.578   3.753  0.6557 -0.1280  0.7228
 1626TIP3    H2 4843   2.033   5.723   3.710  1.3281 -0.5426 -0.8325
 1627TIP3   OH2 4844   1.383   1.738   0.428  0.4815 -0.2783  0.4860
 1627TIP3    H1 4845   1.363   1.824   0.464  0.2612 -0.3156  0.4552
 1627TIP3    H2 4846   1.298   1.694   0.422  0.3662  0.0909 -1.0205
 1628TIP3   OH2 4847   3.953   4.712   0.308 -0.1414 -0.1174 -1.0776
 1628TIP3    H1 4848   3.876   4.705   0.252 -0.4345 -0.7930 -0.6023
 1628TIP3    H2 4849   3.927   4.772   0.377 -0.1129 -0.0549 -1.1210
 1629TIP3   OH2 4850   1.820   1.723   2.562 -0.2394 -0.0762 -0.0723
 1629TIP3    H1 4851   1.879   1.796   2.546 -0.1882 -0.0876  0.0636
 1629TIP3    H2 4852   1.753   1.730   2.493 -1.0325  0.9321  0.7697
 1630TIP3   OH2 4853   4.873   0.616   2.595  0.4345  0.4168 -0.3425
 1630TIP3    H1 4854   4.798   0.630   2.538 -0.8952 -1.2935  0.8619
 1630TIP3    H2 4855   4.946   0.658   2.550 -0.5722 -0.6450 -3.1919
 1631TIP3   OH2 4856   1.977   3.359   5.627  0.3515  0.3069 -0.0922
 1631TIP3    H1 4857   2.068   3.371   5.652 -0.1261  1.4782  1.2465
 1631TIP3    H2 4858   1.970   3.267   5.604  2.2602  0.5627 -2.0762
 1632TIP3   OH2 4859   0.956   3.265   4.726  0.2207 -0.0086  0.2022
 1632TIP3    H1 4860   0.958   3.273   4.630 -0.7751  0.2294  0.1905
 1632TIP3    H2 4861   1.037   3.219   4.748 -0.1095 -1.1378 -0.8637
 1633TIP3   OH2 4862   5.278   1.388   0.162  0.2998  0.4693  0.0413
 1633TIP3    H1 4863   5.218   1.359   0.093 -0.5110 -0.4992  1.0891
 1633TIP3    H2 4864   5.222   1.395   0.240  1.0888  2.0025  0.5075
 1634TIP3   OH2 4865   4.337   0.792   0.652  0.0777  0.4240  0.3196
 1634TIP3    H1 4866   4.366   0.705   0.625  0.1071  0.4433  0.2891
 1634TIP3    H2 4867   4.302   0.832   0.573  0.2998  0.5350  0.2774
 1635TIP3   OH2 4868   2.144   6.111   3.451  0.1784 -0.0510  0.7495
 1635TIP3    H1 4869   2.222   6.055   3.453 -0.2096 -0.6108  0.2100
 1635TIP3    H2 4870   2.169   6.187   3.505  0.9416 -0.4214  0.9392
 1636TIP3   OH2 4871   6.187   3.355   4.860 -0.6172 -0.1930 -0.1866
 1636TIP3    H1 4872   6.209   3.270   4.822 -1.3513 -1.1285  1.3985
 1636TIP3    H2 4873   6.116   3.337   4.921 -0.9298  1.6037  0.0378
 1637TIP3   OH2 4874   6.304   2.998   3.728 -0.2345  0.1284 -0.5823
 1637TIP3    H1 4875   6.257   2.939   3.787  1.6210 -0.6751  0.1421
 1637TIP3    H2 4876   6.338   3.067   3.785  0.1550  0.2593 -0.9689
 1638TIP3   OH2 4877   0.040   5.892   5.001  0.1115  0.3059 -0.3613
 1638TIP3    H1 4878   0.123   5.850   4.979  0.7031  1.1691  0.1478
 1638TIP3    H2 4879   0.035   5.887   5.096  0.2100  1.4013 -0.2882
 1639TIP3   OH2 4880   2.648   3.060   3.415  0.0806 -0.5226 -0.1649
 1639TIP3    H1 4881   2.723   3.096   3.366 -0.7171  0.7470 -0.5063
 1639TIP3    H2 4882   2.675   2.971   3.437  1.6253 -0.1650 -0.4377
 1640TIP3   OH2 4883   5.111   3.428   4.240  0.2681 -0.3738  0.3365
 1640TIP3    H1 4884   5.141   3.473   4.319 -2.4434  0.7868  0.8433
 1640TIP3    H2 4885   5.069   3.496   4.188 -0.8799 -1.6956 -0.5492
 1641TIP3   OH2 4886   6.485   4.680   4.408  0.1799 -0.2440 -0.4099
 1641TIP3    H1 4887   6.581   4.683   4.413  0.1440 -0.4461  0.8366
 1641TIP3    H2 4888   6.457   4.688   4.499 -0.9729 -0.7643 -0.7054
 1642TIP3   OH2 4889   3.937   1.746   0.235 -0.3967  0.1132 -0.5760
 1642TIP3    H1 4890   3.918   1.674   0.175 -2.0011  1.2462 -1.4772
 1642TIP3    H2 4891   3.866   1.744   0.299 -0.5755  1.0218 -0.7326
 1643TIP3   OH2 4892   6.100   1.043   2.149  0.2419 -0.3320 -0.8010
 1643TIP3    H1 4893   6.009   1.070   2.162  0.1358  0.7398 -3.2725
 1643TIP3    H2 4894   6.124   0.999   2.231 -1.6500  1.6573  0.9468
 1644TIP3   OH2 4895   1.962   3.932   1.244  0.1876  0.0960  0.4458
 1644TIP3    H1 4896   1.881   3.982   1.254 -1.7657 -2.5507 -0.7552
 1644TIP3    H2 4897   2.031   3.990   1.276 -2.0905  2.7116  0.9697
 1645TIP3   OH2 4898   5.780   0.472   3.068  0.1212 -0.2320 -0.5290
 1645TIP3    H1 4899   5.798   0.516   2.985  2.5686  1.4190  0.7574
 1645TIP3    H2 4900   5.866   0.446   3.101 -0.6546 -0.0376  1.8820
 1646TIP3   OH2 4901   4.792   4.645   0.818 -0.1278  0.7061 -0.0157
 1646TIP3    H1 4902   4.844   4.577   0.776  0.8139  1.8960 -0.8270
 1646TIP3    H2 4903   4.856   4.712   0.843 -1.0532  1.3816  0.6076
 1647TIP3   OH2 4904   0.552   1.634   3.123 -0.6568  0.4571 -0.1603
 1647TIP3    H1 4905   0.460   1.653   3.143 -0.4543  0.9570  0.3099
 1647TIP3    H2 4906   0.580   1.575   3.193 -0.4118  0.9024  0.1227
 1648TIP3   OH2 4907   1.974   0.626   3.409  0.6919 -0.1894 -0.3585
 1648TIP3    H1 4908   1.998   0.603   3.499 -0.5249 -0.7811 -0.1727
 1648TIP3    H2 4909   2.004   0.717   3.400  1.4520 -0.3473  0.4078
 1649TIP3   OH2 4910   6.361   4.143   3.206  0.0664  0.1288  0.2995
 1649TIP3    H1 4911   6.330   4.213   3.264  1.0059  1.5700 -0.8733
 1649TIP3    H2 4912   6.456   4.155   3.202  0.0808 -0.2901 -1.0575
 1650TIP3   OH2 4913   4.161   3.680   3.961  0.1004  0.2824  0.2637
 1650TIP3    H1 4914   4.100   3.751   3.944 -0.3854 -0.3735 -0.8427
 1650TIP3    H2 4915   4.207   3.667   3.878  0.1161 -0.7310  0.4108
 1651TIP3   OH2 4916   5.906   6.006   3.036  0.8139  0.1155 -0.1194
 1651TIP3    H1 4917   5.876   6.096   3.049  0.8418  0.4474 -2.1332
 1651TIP3    H2 4918   6.001   6.014   3.028  0.8858 -0.1978  0.3657
 1652TIP3   OH2 4919   6.152   2.320   4.839  0.1753 -0.0719  0.0348
 1652TIP3    H1 4920   6.169   2.351   4.750  2.6518 -3.3366 -0.8693
 1652TIP3    H2 4921   6.080   2.258   4.829 -1.5271  1.6669  0.9391
 1653TIP3   OH2 4922   5.359   5.531   5.045  0.1532 -0.3374  0.4793
 1653TIP3    H1 4923   5.399   5.473   5.110 -0.2304  0.1540  1.1592
 1653TIP3    H2 4924   5.419   5.604   5.037 -0.0624 -0.1384  0.6759
 1654TIP3   OH2 4925   7.197   2.078   3.807 -0.1946  0.3478  0.7495
 1654TIP3    H1 4926   7.160   1.990   3.804 -0.6494  0.5638 -0.8789
 1654TIP3    H2 4927   7.292   2.064   3.804 -0.2800 -0.0846 -0.5764
 1655TIP3   OH2 4928   5.372   2.899   3.000 -0.2207 -0.3156  0.4982
 1655TIP3    H1 4929   5.419   2.885   3.082  2.6241  0.3958 -0.9032
 1655TIP3    H2 4930   5.366   2.812   2.961  1.0799 -0.2681  0.1491
 1656TIP3   OH2 4931   0.548   5.641   5.848 -0.0320  0.1648  0.0524
 1656TIP3    H1 4932   0.466   5.689   5.863  1.0419  1.9964  0.4787
 1656TIP3    H2 4933   0.577   5.669   5.761 -0.1640 -0.9666 -0.3669
 1657TIP3   OH2 4934   5.026   2.502   3.499  0.5875 -0.1395  0.4520
 1657TIP3    H1 4935   4.993   2.528   3.413  1.0008 -0.0975  0.3022
 1657TIP3    H2 4936   4.988   2.415   3.514  0.9194 -0.3673 -0.0006
 1658TIP3   OH2 4937   3.150   3.558   4.787  0.3938  0.3595  0.0124
 1658TIP3    H1 4938   3.198   3.509   4.854 -2.7753 -1.3116  1.2912
 1658TIP3    H2 4939   3.125   3.493   4.722 -1.1191  0.8824  0.0272
 1659TIP3   OH2 4940   6.837   4.445   4.092  0.2252  0.0021 -0.1686
 1659TIP3    H1 4941   6.774   4.373   4.080 -0.7362  0.5259  1.4925
 1659TIP3    H2 4942   6.801   4.517   4.040 -0.1393  0.0523  0.1477
 1660TIP3   OH2 4943   6.481   2.639   0.893  0.0600 -0.4699 -0.6791
 1660TIP3    H1 4944   6.389   2.614   0.887 -0.2622  0.4268  0.2417
 1660TIP3    H2 4945   6.500   2.640   0.987  1.5293 -2.3927 -0.8953
 1661TIP3   OH2 4946   3.597   1.130   1.409 -0.3873 -0.8472  0.1073
 1661TIP3    H1 4947   3.539   1.200   1.378  0.0017 -0.1315  0.9341
 1661TIP3    H2 4948   3.662   1.175   1.463 -1.4017 -2.0722  2.4909
 1662TIP3   OH2 4949   5.139   2.136   0.538  0.2554  0.4099  0.1937
 1662TIP3    H1 4950   5.172   2.220   0.506 -1.1603  2.0876  2.7730
 1662TIP3    H2 4951   5.044   2.146   0.538  0.1011 -0.5576  2.0099
 1663TIP3   OH2 4952   5.684   4.034   1.216 -0.4846 -0.3591 -0.6028
 1663TIP3    H1 4953   5.754   4.040   1.281  0.3412 -0.0969 -1.4975
 1663TIP3    H2 4954   5.649   3.946   1.227 -1.2686  0.1113  1.0848
 1664TIP3   OH2 4955   2.036   2.125   4.891 -0.2931 -0.5750 -0.3736
 1664TIP3    H1 4956   2.090   2.122   4.812  0.7449 -2.6784  0.3547
 1664TIP3    H2 4957   2.067   2.053   4.945 -1.6488  0.1831  1.5519
 1665TIP3   OH2 4958   6.289   5.777   5.863 -0.1030  0.0080  0.0340
 1665TIP3    H1 4959   6.224   5.814   5.803  0.1542  2.8108  1.3301
 1665TIP3    H2 4960   6.238   5.739   5.934 -0.3868  1.9928  0.9303
 1666TIP3   OH2 4961   3.409   1.750   3.794  0.3354 -0.2134 -0.3675
 1666TIP3    H1 4962   3.333   1.697   3.768  0.2180 -0.7184  0.9205
 1666TIP3    H2 4963   3.483   1.711   3.747  0.0317 -0.6841 -0.4578
 1667TIP3   OH2 4964   4.887   2.593   0.318  0.4925 -0.2266  0.3394
 1667TIP3    H1 4965   4.895   2.639   0.234  2.6822  1.3848  1.3371
 1667TIP3    H2 4966   4.830   2.649   0.371  0.1629 -0.5777  0.3587
 1668TIP3   OH2 4967   5.206   4.028   2.858  0.6995 -1.1609 -0.4781
 1668TIP3    H1 4968   5.112   4.015   2.871  0.9946 -3.2908 -0.0330
 1668TIP3    H2 4969   5.219   4.122   2.866 -1.2176 -0.9503  0.7859
 1669TIP3   OH2 4970   6.389   6.472   0.860 -0.0286  0.0809  0.2059
 1669TIP3    H1 4971   6.457   6.536   0.839 -1.8359  1.7185 -1.0000
 1669TIP3    H2 4972   6.389   6.412   0.786 -0.9262  1.0381 -0.6032
 1670TIP3   OH2 4973   6.531   3.973   1.510 -0.1665 -0.0688 -0.7027
 1670TIP3    H1 4974   6.569   4.037   1.449 -0.4729  1.5606  0.7292
 1670TIP3    H2 4975   6.453   3.941   1.465  0.1814  0.3020 -1.5987
 1671TIP3   OH2 4976   0.198   2.150   5.214  0.1803 -0.5582  0.5653
 1671TIP3    H1 4977   0.218   2.057   5.204 -1.2909 -0.8301 -0.2682
 1671TIP3    H2 4978   0.200   2.185   5.124  0.7057  0.2188  0.8689
 1672TIP3   OH2 4979   5.046   3.675   2.262 -0.0470  0.0864 -0.1580
 1672TIP3    H1 4980   5.094   3.694   2.182  1.0873  0.3621  0.5630
 1672TIP3    H2 4981   5.027   3.582   2.258 -0.2015  0.1444 -0.8524
 1673TIP3   OH2 4982   3.119   3.386   3.170  0.3478  0.1519 -0.2937
 1673TIP3    H1 4983   3.130   3.304   3.218  0.3238 -2.5025 -4.3330
 1673TIP3    H2 4984   3.025   3.392   3.154  0.6002 -0.7496 -2.4813
 1674TIP3   OH2 4985   0.565   4.390   0.759 -0.2349 -0.7659  0.1750
 1674TIP3    H1 4986   0.503   4.338   0.810  0.9262 -1.8514  0.5321
 1674TIP3    H2 4987   0.529   4.478   0.761 -1.0020 -1.0752  1.6113
 1675TIP3   OH2 4988   2.387   5.096   3.625  0.4359 -0.1163 -0.6540
 1675TIP3    H1 4989   2.401   5.138   3.540 -0.4161  1.0740 -0.2174
 1675TIP3    H2 4990   2.294   5.108   3.643  0.8154  0.5727  0.9370
 1676TIP3   OH2 4991   1.206   0.983   2.521  0.4418 -0.0922 -0.1599
 1676TIP3    H1 4992   1.191   1.027   2.437  0.2687 -1.0035 -0.6158
 1676TIP3    H2 4993   1.194   0.890   2.502  0.9570 -0.3570  0.7541
 1677TIP3   OH2 4994   5.229   4.338   3.024 -0.0851 -0.1729 -0.3124
 1677TIP3    H1 4995   5.167   4.393   3.072 -1.4887 -0.9896 -1.1185
 1677TIP3    H2 4996   5.197   4.340   2.933  0.7711 -1.0407 -0.6439
 1678TIP3   OH2 4997   4.118   0.033   0.654 -0.2380  0.2370  0.9561
 1678TIP3    H1 4998   4.049   0.042   0.588  0.5376  1.7593  0.3259
 1678TIP3    H2 4999   4.088   0.086   0.728 -1.0227 -1.3265  1.8331
 1679TIP3   OH2 5000   2.798   5.191   5.125  0.4781 -0.1299 -0.1760
 1679TIP3    H1 5001   2.877   5.163   5.172  0.1203  1.6850  1.6356
 1679TIP3    H2 5002   2.730   5.132   5.158  0.0342  1.6968  2.4721
 1680TIP3   OH2 5003   6.734   2.561   0.792  0.2953 -0.5985  0.6829
 1680TIP3    H1 5004   6.769   2.511   0.866 -0.1384 -0.5691  0.9121
 1680TIP3    H2 5005   6.645   2.583   0.818 -0.3063 -1.6784 -0.3740
 1681TIP3   OH2 5006   3.598   0.543   1.857  0.1547 -0.2581  0.0247
 1681TIP3    H1 5007   3.614   0.467   1.912  0.4171 -1.8352 -2.0910
 1681TIP3    H2 5008   3.514   0.524   1.814 -0.4341  1.2880  0.4409
 1682TIP3   OH2 5009   0.428   0.109   1.070  0.2666 -0.6414  0.8668
 1682TIP3    H1 5010   0.358   0.172   1.086  0.6012 -0.2860  0.9506
 1682TIP3    H2 5011   0.406   0.069   0.986  1.0861  1.0248 -0.1999
 1683TIP3   OH2 5012   1.664   0.106   5.491 -0.3057  0.1049  0.3882
 1683TIP3    H1 5013   1.720   0.110   5.413  0.5909 -0.7439  0.9685
 1683TIP3    H2 5014   1.639   0.197   5.507 -0.2056  0.3367 -0.6699
 1684TIP3   OH2 5015   4.699   1.460   3.678  0.3037 -0.2654 -0.0568
 1684TIP3    H1 5016   4.699   1.542   3.629 -0.2578 -0.1888  0.0646
 1684TIP3    H2 5017   4.635   1.405   3.632  0.7878 -0.6922 -0.2315
 1685TIP3   OH2 5018   3.607   5.786   2.870  0.1154  0.3586 -0.0697
 1685TIP3    H1 5019   3.563   5.842   2.806  0.3323  1.8015  0.9933
 1685TIP3    H2 5020   3.586   5.825   2.954  0.9679 -0.6901  0.6553
 1686TIP3   OH2 5021   1.738   5.849   2.978  0.1442  0.1258  0.0216
 1686TIP3    H1 5022   1.698   5.900   3.048  1.6833  0.3351  0.8008
 1686TIP3    H2 5023   1.673   5.783   2.956 -0.7988  0.7329  0.8974
 1687TIP3   OH2 5024   6.007   4.488   0.622  0.2878 -0.1188 -0.4777
 1687TIP3    H1 5025   6.044   4.471   0.536  1.6080  1.3864 -0.2597
 1687TIP3    H2 5026   6.031   4.579   0.641 -0.0047 -0.4016  1.4680
 1688TIP3   OH2 5027  -0.005   0.125   3.140  0.4921 -0.1443  0.4518
 1688TIP3    H1 5028   0.007   0.080   3.056  0.0625  1.1309 -0.3266
 1688TIP3    H2 5029   0.073   0.179   3.149 -1.3759  3.2391 -1.4618
 1689TIP3   OH2 5030   0.444   2.357   1.111  0.2782  0.2497 -0.0183
 1689TIP3    H1 5031   0.356   2.391   1.125  0.0943 -1.2384  3.6032
 1689TIP3    H2 5032   0.430   2.272   1.068 -0.0391  0.1469  0.2858
 1690TIP3   OH2 5033   6.198   4.836   2.607  0.8035  0.5241  0.1248
 1690TIP3    H1 5034   6.140   4.772   2.647  2.5519 -0.4446  1.2428
 1690TIP3    H2 5035   6.233   4.887   2.680  0.5915  1.7767 -0.6111
 1691TIP3   OH2 5036   2.217   3.388   3.534  0.0024  0.2317  0.1559
 1691TIP3    H1 5037   2.295   3.334   3.519 -0.3534 -0.3072  0.2318
 1691TIP3    H2 5038   2.159   3.368   3.460 -0.0446  0.6808  0.0633
 1692TIP3   OH2 5039   5.102   0.850   5.105  0.1023 -0.0069 -0.4823
 1692TIP3    H1 5040   5.146   0.765   5.109 -0.1406 -0.0964  1.3971
 1692TIP3    H2 5041   5.062   0.853   5.018  0.2906 -1.7260 -0.6557
 1693TIP3   OH2 5042   6.028   6.199   3.225 -0.8063 -0.0953 -0.2293
 1693TIP3    H1 5043   6.091   6.245   3.281  0.0582 -0.8441 -0.5603
 1693TIP3    H2 5044   5.945   6.209   3.271 -0.6572  1.7564 -0.2802
 1694TIP3   OH2 5045   2.800   3.936   1.263  0.0801  0.3502 -0.4004
 1694TIP3    H1 5046   2.830   4.020   1.298 -2.8028  1.3354  0.0032
 1694TIP3    H2 5047   2.828   3.938   1.171  2.2218  0.5605  0.1938
 1695TIP3   OH2 5048   1.622   4.525   5.538  0.3367 -0.2573  0.1195
 1695TIP3    H1 5049   1.605   4.454   5.600  0.3798  0.2004  0.6725
 1695TIP3    H2 5050   1.576   4.601   5.576  1.5310  0.3835  0.3476
 1696TIP3   OH2 5051   0.860   1.877   2.970 -0.0921  0.0509 -0.7786
 1696TIP3    H1 5052   0.808   1.805   2.935 -1.8595  0.6913  0.3730
 1696TIP3    H2 5053   0.898   1.842   3.051 -0.4135  0.2137 -0.5576
 1697TIP3   OH2 5054   2.377   0.299   2.287 -0.2293 -0.5994  0.0803
 1697TIP3    H1 5055   2.468   0.292   2.260  0.0667  0.9047  0.6264
 1697TIP3    H2 5056   2.371   0.381   2.334 -1.3986 -1.7330  2.0506
 1698TIP3   OH2 5057   2.836   0.851   3.935 -0.4632 -0.0037  0.2103
 1698TIP3    H1 5058   2.917   0.900   3.922  1.4883 -2.9969 -0.0121
 1698TIP3    H2 5059   2.865   0.767   3.972 -3.5282 -1.0288  0.5562
 1699TIP3   OH2 5060   3.544   0.149   2.416  0.3578 -0.6947 -0.4492
 1699TIP3    H1 5061   3.498   0.172   2.497  0.9804  0.1090 -0.3115
 1699TIP3    H2 5062   3.609   0.085   2.442  0.1535 -0.8971 -0.4285
 1700TIP3   OH2 5063   0.957   4.176   0.714 -0.1679 -0.7555 -0.1837
 1700TIP3    H1 5064   0.871   4.171   0.756 -0.6389 -0.2397 -1.0485
 1700TIP3    H2 5065   0.986   4.085   0.707 -0.2989 -0.8833  0.7835
 1701TIP3   OH2 5066   0.255   6.179   4.620  0.7918 -0.6262 -0.0794
 1701TIP3    H1 5067   0.176   6.221   4.652  0.5074 -1.4570  0.3327
 1701TIP3    H2 5068   0.316   6.251   4.604  0.0787 -0.0116 -0.0654
 1702TIP3   OH2 5069   1.677   3.539   1.048  0.0437  0.1946 -0.2093
 1702TIP3    H1 5070   1.640   3.450   1.050  0.3057 -0.1414 -3.6856
 1702TIP3    H2 5071   1.758   3.532   1.099 -0.4852 -1.2691  0.4861
 1703TIP3   OH2 5072   0.344   0.542   5.046  0.3570 -0.3686  0.1026
 1703TIP3    H1 5073   0.396   0.546   5.126 -0.1420 -1.2049  0.4846
 1703TIP3    H2 5074   0.277   0.609   5.058 -0.4573 -1.3032  0.9418
 1704TIP3   OH2 5075   1.692   6.715   3.626  0.2129  0.3484 -0.3956
 1704TIP3    H1 5076   1.760   6.763   3.674 -0.9309  1.2850  0.3556
 1704TIP3    H2 5077   1.659   6.777   3.561 -0.7693  0.3593  0.0851
 1705TIP3   OH2 5078   6.243   4.489   2.308 -0.4857 -0.1732 -0.1931
 1705TIP3    H1 5079   6.195   4.541   2.372 -0.3945  0.7914 -0.8859
 1705TIP3    H2 5080   6.175   4.460   2.246 -0.3071  0.5008 -0.7137
 1706TIP3   OH2 5081   6.085   0.786   5.515  0.1708 -0.2217  0.0187
 1706TIP3    H1 5082   6.070   0.700   5.476 -0.1004  0.3032 -1.0666
 1706TIP3    H2 5083   6.177   0.784   5.541  0.7913 -0.0811 -2.0202
 1707TIP3   OH2 5084   2.830   2.030   4.381  0.2675  0.1021 -0.3319
 1707TIP3    H1 5085   2.792   2.019   4.293 -0.3964 -0.0347 -0.0327
 1707TIP3    H2 5086   2.759   2.070   4.432  0.6570  0.1856  0.1407
 1708TIP3   OH2 5087   2.195   4.225   1.710  0.0494 -0.5990 -0.3937
 1708TIP3    H1 5088   2.202   4.273   1.793  2.2611 -1.1369 -0.1891
 1708TIP3    H2 5089   2.111   4.252   1.673 -0.0062  1.3371  0.9928
 1709TIP3   OH2 5090   2.875   1.151   5.772  0.3922 -0.4550 -0.5640
 1709TIP3    H1 5091   2.835   1.064   5.767 -0.4199 -0.0634 -1.1058
 1709TIP3    H2 5092   2.885   1.167   5.866  1.0398 -1.3466 -0.4714
 1710TIP3   OH2 5093   1.182   6.160   4.335  0.2859 -0.4541 -0.3960
 1710TIP3    H1 5094   1.101   6.110   4.328 -1.5120  2.3136 -0.8823
 1710TIP3    H2 5095   1.184   6.189   4.427 -0.5799  1.3936 -0.9142
 1711TIP3   OH2 5096   2.873   5.027   0.304 -0.6568 -0.0615  0.5088
 1711TIP3    H1 5097   2.905   5.081   0.376  0.8657 -0.9701  0.5500
 1711TIP3    H2 5098   2.882   5.083   0.227  0.3605 -0.0461  0.6291
 1712TIP3   OH2 5099   3.189   2.675   0.831 -0.6550 -0.6446 -0.4486
 1712TIP3    H1 5100   3.100   2.643   0.816 -0.7859 -0.2916 -0.4332
 1712TIP3    H2 5101   3.196   2.681   0.926 -0.9983  0.3746 -0.4707
 1713TIP3   OH2 5102   5.348   1.525   2.682  0.0674  0.3679  0.4687
 1713TIP3    H1 5103   5.348   1.613   2.644 -1.0398  0.3743  0.4489
 1713TIP3    H2 5104   5.400   1.534   2.762  1.3378  0.6456 -0.3530
 1714TIP3   OH2 5105   5.954   3.596   2.143  0.0479  0.9099 -0.1704
 1714TIP3    H1 5106   5.944   3.585   2.048 -3.9824 -2.1118  0.3480
 1714TIP3    H2 5107   5.875   3.642   2.170  0.2257  0.0825  1.8947
 1715TIP3   OH2 5108   0.897   2.705   3.053 -0.4166  0.3567 -0.4713
 1715TIP3    H1 5109   0.851   2.627   3.084 -1.9800  1.4507  0.0983
 1715TIP3    H2 5110   0.941   2.677   2.972  0.7466 -1.6090  0.7670
 1716TIP3   OH2 5111   0.559   3.193   4.597 -0.5772 -0.0971 -0.3860
 1716TIP3    H1 5112   0.572   3.145   4.516 -0.9370  0.5466 -0.8425
 1716TIP3    H2 5113   0.596   3.280   4.580 -1.3396  0.2937 -0.1422
 1717TIP3   OH2 5114   2.104   1.971   1.880  0.4610  0.0925 -0.5117
 1717TIP3    H1 5115   2.103   1.877   1.896 -0.3144  0.0864 -0.5724
 1717TIP3    H2 5116   2.025   1.987   1.828 -0.2483  0.9979  0.7826
 1718TIP3   OH2 5117   0.116   4.591   1.718  0.3476  0.0671  0.1972
 1718TIP3    H1 5118   0.199   4.550   1.692 -0.8222 -2.4236  0.0911
 1718TIP3    H2 5119   0.090   4.545   1.797 -0.7957  1.0351  0.4146
 1719TIP3   OH2 5120   2.709   4.380   5.256 -0.3060 -0.0540 -0.3429
 1719TIP3    H1 5121   2.791   4.366   5.303 -1.0751 -2.8826  0.3605
 1719TIP3    H2 5122   2.724   4.343   5.170 -1.2135 -1.9984  0.2703
 1720TIP3   OH2 5123   6.659   1.331   3.575  0.0507 -0.3438 -0.2126
 1720TIP3    H1 5124   6.689   1.412   3.615 -0.2971 -0.0166 -0.5992
 1720TIP3    H2 5125   6.567   1.348   3.554 -0.2229 -1.0827  0.3419
 1721TIP3   OH2 5126   4.134   0.206   4.512  0.0673  0.1390 -0.0416
 1721TIP3    H1 5127   4.102   0.118   4.528 -0.5400  0.6190  1.6138
 1721TIP3    H2 5128   4.121   0.252   4.595 -2.7295  2.7444 -1.7096
 1722TIP3   OH2 5129   4.377   3.848   5.049 -0.8047  0.3012 -0.2252
 1722TIP3    H1 5130   4.382   3.858   5.145 -0.7254  1.5336 -0.3413
 1722TIP3    H2 5131   4.290   3.880   5.026 -0.4187  1.0576 -0.6740
 1723TIP3   OH2 5132   6.303   0.344   0.332 -0.1912 -0.3868  0.0083
 1723TIP3    H1 5133   6.218   0.317   0.297 -0.1343 -0.8440  0.2108
 1723TIP3    H2 5134   6.296   0.330   0.427 -0.0667  0.0715  0.0897
 1724TIP3   OH2 5135   2.115   5.848   1.375 -0.5122  0.0954 -0.6434
 1724TIP3    H1 5136   2.022   5.826   1.369 -1.1464  1.9994  1.0162
 1724TIP3    H2 5137   2.158   5.765   1.396 -2.2227 -0.3736  1.3393
 1725TIP3   OH2 5138   4.023   1.033   3.877 -0.1499  0.4740  0.4773
 1725TIP3    H1 5139   4.012   1.071   3.789 -0.3193 -0.6598 -0.0003
 1725TIP3    H2 5140   3.943   0.983   3.892  0.3174 -0.1729  0.8493
 1726TIP3   OH2 5141   0.602   2.522   0.985  0.4459 -0.3468 -0.7730
 1726TIP3    H1 5142   0.534   2.562   0.931 -0.3594 -1.6338 -0.7718
 1726TIP3    H2 5143   0.562   2.442   1.018  1.6203 -0.6109  0.0920
 1727TIP3   OH2 5144   5.991   1.611   3.401 -0.5057  0.3416 -0.4090
 1727TIP3    H1 5145   5.920   1.603   3.465  0.6134  0.1970  0.8517
 1727TIP3    H2 5146   6.025   1.522   3.392  1.0806  0.7664  0.8830
 1728TIP3   OH2 5147   1.248   1.092   1.945 -0.0683  0.0445  0.3111
 1728TIP3    H1 5148   1.163   1.110   1.904  0.2132 -0.9287 -0.7784
 1728TIP3    H2 5149   1.300   1.170   1.929  0.2820 -0.5730 -1.9534
 1729TIP3   OH2 5150   1.729   4.528   4.596  0.0809  0.1325 -0.3829
 1729TIP3    H1 5151   1.776   4.447   4.611 -1.0743 -0.2242  1.7682
 1729TIP3    H2 5152   1.780   4.595   4.642  0.1154  0.3206 -0.6875
 1730TIP3   OH2 5153   2.963   0.653   2.459  0.5083 -0.2785  0.2019
 1730TIP3    H1 5154   3.011   0.587   2.409 -1.5736 -2.3940  0.7888
 1730TIP3    H2 5155   2.871   0.637   2.437 -0.2166  1.0312  2.0306
 1731TIP3   OH2 5156   2.588   0.997   3.861  0.1172 -0.7224 -0.3018
 1731TIP3    H1 5157   2.673   0.976   3.898  0.8120  0.9781 -0.8535
 1731TIP3    H2 5158   2.605   1.016   3.769 -0.6534  0.6369 -0.1952
 1732TIP3   OH2 5159   4.025   5.284   1.491  0.3049  0.3447  0.0040
 1732TIP3    H1 5160   3.967   5.295   1.416  0.1947 -0.4172 -0.0328
 1732TIP3    H2 5161   3.998   5.352   1.552 -0.5099  0.1197 -0.0913
 1733TIP3   OH2 5162   1.216   5.439   1.163  0.5470 -0.2176 -0.1461
 1733TIP3    H1 5163   1.281   5.370   1.155  0.0901 -0.6619 -0.1173
 1733TIP3    H2 5164   1.211   5.457   1.256 -0.4004 -1.2101  0.0176
 1734TIP3   OH2 5165   0.797   1.672   1.555 -0.3069 -0.5314 -0.4495
 1734TIP3    H1 5166   0.845   1.733   1.499 -1.1018  0.6628  0.1369
 1734TIP3    H2 5167   0.785   1.594   1.500  0.9337 -0.2807 -1.1282
 1735TIP3   OH2 5168   6.293   6.160   1.084  0.0383 -0.2558 -0.3237
 1735TIP3    H1 5169   6.265   6.069   1.074 -0.6344  0.0015 -0.9276
 1735TIP3    H2 5170   6.249   6.206   1.012  2.7672  0.0252 -1.9270
 1736TIP3   OH2 5171   5.231   4.842   2.983 -0.0673  0.0112 -0.7667
 1736TIP3    H1 5172   5.207   4.855   2.891  0.6689 -1.5154 -1.2018
 1736TIP3    H2 5173   5.210   4.751   3.000 -0.8211  0.4492  0.8078
 1737TIP3   OH2 5174   6.686   5.526   0.614 -0.0053  0.0976  0.5951
 1737TIP3    H1 5175   6.620   5.546   0.680  0.2933  2.0490  0.3659
 1737TIP3    H2 5176   6.651   5.450   0.567 -1.5632  0.4381  1.1456
 1738TIP3   OH2 5177   6.865   2.180   5.056 -0.2891 -0.0036  0.2365
 1738TIP3    H1 5178   6.770   2.192   5.048 -0.0868  1.4059 -0.3659
 1738TIP3    H2 5179   6.877   2.086   5.063 -1.6507 -0.3180 -1.0685
 1739TIP3   OH2 5180   3.635   2.626   1.602  0.3124 -0.4149 -0.2744
 1739TIP3    H1 5181   3.722   2.652   1.632  0.1763 -1.2222  0.9216
 1739TIP3    H2 5182   3.600   2.703   1.557  0.9771  0.5073  0.7410
 1740TIP3   OH2 5183   5.414   0.698   1.304  0.5713 -0.6747  0.3019
 1740TIP3    H1 5184   5.348   0.742   1.357 -0.9276  0.1305 -2.0762
 1740TIP3    H2 5185   5.390   0.605   1.308 -0.2811 -0.4669  0.0214
 1741TIP3   OH2 5186   2.450   5.603   2.001 -0.0456 -0.4355 -0.4230
 1741TIP3    H1 5187   2.387   5.609   2.073 -0.5259 -0.4742 -0.8316
 1741TIP3    H2 5188   2.511   5.534   2.027 -0.1098 -0.3206  0.0288
 1742TIP3   OH2 5189   4.118   6.498   2.398  0.0738 -0.7709 -0.1114
 1742TIP3    H1 5190   4.053   6.566   2.378 -0.9291 -1.4078  0.8576
 1742TIP3    H2 5191   4.137   6.510   2.491  1.9694 -0.0998 -0.5519
 1743TIP3   OH2 5192   5.405   4.570   3.681  0.1206 -0.5603 -0.0894
 1743TIP3    H1 5193   5.424   4.540   3.770 -0.0154  0.4126  0.2755
 1743TIP3    H2 5194   5.312   4.554   3.669 -0.2282  0.8323  0.5643
 1744TIP3   OH2 5195   1.562   2.057   5.567  0.3892 -0.2550  0.5576
 1744TIP3    H1 5196   1.490   2.119   5.571 -0.3144 -1.1333  2.7506
 1744TIP3    H2 5197   1.580   2.047   5.473 -0.3207  2.2330  0.1058
 1745TIP3   OH2 5198   3.639   2.243   3.885  0.2199 -0.1199 -0.0207
 1745TIP3    H1 5199   3.624   2.157   3.846 -0.5582 -0.3619  0.7710
 1745TIP3    H2 5200   3.570   2.298   3.849 -0.2747 -0.2507  0.7074
 1746TIP3   OH2 5201   3.066   5.963   1.852  0.2768  0.0525 -0.4744
 1746TIP3    H1 5202   3.095   5.897   1.789  0.0015  1.1565 -1.8233
 1746TIP3    H2 5203   2.988   6.002   1.811  2.5574  3.8602 -1.6888
 1747TIP3   OH2 5204   6.802   1.802   5.322 -0.0939 -0.2230 -0.2759
 1747TIP3    H1 5205   6.714   1.840   5.314 -0.5090 -1.1942 -0.4876
 1747TIP3    H2 5206   6.832   1.793   5.232 -0.4139 -1.3161 -0.2825
 1748TIP3   OH2 5207   1.609   1.980   2.472  0.2063 -0.4133  0.2773
 1748TIP3    H1 5208   1.549   2.044   2.435  0.8499  0.9321  1.4528
 1748TIP3    H2 5209   1.591   1.899   2.425 -0.1272  0.8014 -1.7653
 1749TIP3   OH2 5210   5.008   2.029   4.996 -0.0018  0.3114 -1.0675
 1749TIP3    H1 5211   5.083   1.980   5.030 -0.6212  0.2580  0.2618
 1749TIP3    H2 5212   5.030   2.120   5.015  0.1306  0.3781 -1.5192
 1750TIP3   OH2 5213   5.620   0.585   2.165  0.1773 -0.4788  0.2000
 1750TIP3    H1 5214   5.689   0.533   2.123  0.0453  1.3811 -2.5912
 1750TIP3    H2 5215   5.539   0.557   2.122  0.1486  2.1062 -1.6915
 1751TIP3   OH2 5216   6.662   0.237   4.204  0.0801 -0.8482 -0.1281
 1751TIP3    H1 5217   6.748   0.260   4.170  0.1250 -1.4528 -0.4355
 1751TIP3    H2 5218   6.679   0.194   4.288 -0.0937  1.8211  1.3748
 1752TIP3   OH2 5219   4.496   0.595   3.938  0.2543 -0.1101 -0.3945
 1752TIP3    H1 5220   4.424   0.573   3.880 -0.1122 -1.2255  0.4577
 1752TIP3    H2 5221   4.538   0.670   3.896 -1.2182  0.3841 -1.0406
 1753TIP3   OH2 5222   2.531   3.558   2.674 -0.4616 -0.5015  0.1104
 1753TIP3    H1 5223   2.502   3.512   2.596 -1.3861  0.2721 -0.0161
 1753TIP3    H2 5224   2.471   3.632   2.683  1.6391  1.4142 -0.3951
 1754TIP3   OH2 5225   2.556   5.040   5.242 -0.0714  0.1067 -0.0404
 1754TIP3    H1 5226   2.633   4.984   5.244  0.7416  1.0900 -1.5585
 1754TIP3    H2 5227   2.535   5.056   5.334  1.1030 -0.7506  0.3960
 1755TIP3   OH2 5228   4.488   6.786   2.261 -0.1471  0.5027  0.1824
 1755TIP3    H1 5229   4.452   6.846   2.327  0.5243 -0.2375  1.2502
 1755TIP3    H2 5230   4.417   6.723   2.246 -1.1838  1.9771 -1.5755
 1756TIP3   OH2 5231   2.001   1.317   4.356 -0.6517  0.4078  0.0451
 1756TIP3    H1 5232   1.958   1.317   4.442  1.7570  2.2299  1.3693
 1756TIP3    H2 5233   1.957   1.388   4.308 -2.1168 -0.7237 -0.3411
 1757TIP3   OH2 5234   3.375   4.684   3.303 -0.2652 -0.1931  0.4479
 1757TIP3    H1 5235   3.306   4.749   3.312  1.1895  1.3828  0.7396
 1757TIP3    H2 5236   3.382   4.645   3.390 -0.4728 -0.0168  0.5453
 1758TIP3   OH2 5237   5.312   3.513   1.467 -0.3436  0.1536  0.5489
 1758TIP3    H1 5238   5.246   3.564   1.420  0.0914  0.7621  0.5826
 1758TIP3    H2 5239   5.393   3.564   1.457 -0.0863 -0.0979  1.3041
 1759TIP3   OH2 5240   3.286   4.336   4.653  0.4587 -0.2106  0.0410
 1759TIP3    H1 5241   3.264   4.256   4.702  0.6861 -0.7076 -0.6568
 1759TIP3    H2 5242   3.362   4.372   4.699 -1.0313  0.9054  1.7894
 1760TIP3   OH2 5243   4.511   6.652   1.305  0.2573  0.0280  0.3737
 1760TIP3    H1 5244   4.548   6.700   1.379 -1.4503  0.7334  0.8111
 1760TIP3    H2 5245   4.559   6.569   1.304  0.1549 -0.1016  2.4424
 1761TIP3   OH2 5246   5.622   2.542   0.856 -0.1197  0.2725 -0.8535
 1761TIP3    H1 5247   5.684   2.536   0.783  0.8112  0.5057 -0.0954
 1761TIP3    H2 5248   5.621   2.453   0.893 -1.0806 -0.0112 -1.5291
 1762TIP3   OH2 5249   0.876   5.481   3.621  0.1153 -0.4972  0.5236
 1762TIP3    H1 5250   0.812   5.485   3.550  0.8468  1.7840 -0.0865
 1762TIP3    H2 5251   0.885   5.388   3.640 -2.2255 -0.9811 -0.4124
 1763TIP3   OH2 5252   0.718   2.182   3.817  0.5934  0.8325 -0.2264
 1763TIP3    H1 5253   0.653   2.119   3.850  0.8146  0.4206 -0.5674
 1763TIP3    H2 5254   0.802   2.146   3.844  0.7783  0.4823 -1.2320
 1764TIP3   OH2 5255   6.522   0.519   2.631 -0.0079 -0.3077  0.3579
 1764TIP3    H1 5256   6.435   0.507   2.669  0.5843 -0.6943  1.6267
 1764TIP3    H2 5257   6.518   0.471   2.548 -0.7686 -0.9846  0.7680
 1765TIP3   OH2 5258   5.654   1.010   1.544  0.7571  0.2734 -0.0345
 1765TIP3    H1 5259   5.643   1.105   1.533 -1.7600  0.2856  1.8022
 1765TIP3    H2 5260   5.565   0.975   1.540  1.7203 -2.2768 -2.1381
 1766TIP3   OH2 5261   2.560   1.964   0.818 -0.7009 -0.3384 -0.1481
 1766TIP3    H1 5262   2.565   1.923   0.731  0.7307 -1.4942  0.4333
 1766TIP3    H2 5263   2.467   1.961   0.841 -0.8418 -1.9052 -0.7880
 1767TIP3   OH2 5264   2.680   4.015   4.446 -0.2605  0.6153 -0.0448
 1767TIP3    H1 5265   2.673   4.109   4.459 -0.6658  0.7843 -1.3416
 1767TIP3    H2 5266   2.763   3.990   4.487  0.7843  1.8469 -1.3363
 1768TIP3   OH2 5267   0.041   5.980   5.548 -0.3412  0.0292 -0.3392
 1768TIP3    H1 5268   0.084   6.000   5.631  0.6916 -1.1979 -0.5423
 1768TIP3    H2 5269  -0.013   5.903   5.566  0.6146 -0.8240 -0.9967
 1769TIP3   OH2 5270   1.983   3.120   5.508 -0.1940 -0.2630 -0.3803
 1769TIP3    H1 5271   1.956   3.063   5.435 -2.0274 -0.1959  0.2070
 1769TIP3    H2 5272   2.010   3.059   5.577  1.1890 -0.3301 -0.9402
 1770TIP3   OH2 5273   5.477   0.598   3.735  0.2962  0.3512  0.3073
 1770TIP3    H1 5274   5.465   0.616   3.642  0.5337 -1.3949 -0.0957
 1770TIP3    H2 5275   5.398   0.632   3.777 -0.1042  0.5776 -0.6065
 1771TIP3   OH2 5276   1.929   4.496   0.660 -0.1404  0.6905 -0.5228
 1771TIP3    H1 5277   2.014   4.534   0.637 -0.7049  1.7206 -0.9837
 1771TIP3    H2 5278   1.950   4.427   0.722  1.1061  0.3389 -1.2979
 1772TIP3   OH2 5279   1.992   1.317   0.106 -0.2205  0.0455  0.1131
 1772TIP3    H1 5280   1.940   1.262   0.164 -0.7906  2.0391  1.5849
 1772TIP3    H2 5281   2.082   1.308   0.138 -0.2527 -0.2982  0.1112
 1773TIP3   OH2 5282   6.087   5.811   2.592 -0.5890  0.6081  0.4097
 1773TIP3    H1 5283   6.068   5.801   2.499 -0.4940  0.1967  0.4356
 1773TIP3    H2 5284   6.017   5.868   2.624 -1.4925 -0.4534  0.3951
 1774TIP3   OH2 5285   3.222   4.904   5.308  0.0590  0.5940  0.0355
 1774TIP3    H1 5286   3.301   4.933   5.261  0.3505  0.7300  0.6062
 1774TIP3    H2 5287   3.156   4.896   5.239  0.5086  0.6958 -0.4190
 1775TIP3   OH2 5288   0.164   0.780   2.795  0.1025 -0.1958  0.1348
 1775TIP3    H1 5289   0.185   0.757   2.886 -0.2769 -0.8836  0.0577
 1775TIP3    H2 5290   0.197   0.707   2.744  3.0191  1.4802 -0.6471
 1776TIP3   OH2 5291   0.474   6.383   5.634 -0.1348 -0.2077 -0.1727
 1776TIP3    H1 5292   0.491   6.301   5.588 -0.6233 -0.7288  0.5651
 1776TIP3    H2 5293   0.383   6.404   5.612 -1.1167 -1.5869  2.2144
 1777TIP3   OH2 5294   3.148   4.127   4.825 -0.2063 -0.3349 -0.2120
 1777TIP3    H1 5295   3.127   4.065   4.755 -0.3299 -1.0563  0.4558
 1777TIP3    H2 5296   3.238   4.105   4.850  0.5380  1.1496 -1.4015
 1778TIP3   OH2 5297   3.130   2.760   1.941  0.1551  0.0169 -0.0250
 1778TIP3    H1 5298   3.087   2.816   1.876 -1.1188 -0.1453  0.6517
 1778TIP3    H2 5299   3.087   2.675   1.931  0.8097 -0.3493  0.2044
 1779TIP3   OH2 5300   5.606   1.991   3.027 -0.5439 -0.0961  0.0696
 1779TIP3    H1 5301   5.576   2.080   3.006 -0.1447  0.5614  2.1104
 1779TIP3    H2 5302   5.589   1.941   2.947 -1.3256  1.6699 -0.9285
 1780TIP3   OH2 5303   2.391   5.665   3.935 -0.8369 -0.0501  0.2439
 1780TIP3    H1 5304   2.322   5.629   3.991 -0.5139 -0.0046  0.6740
 1780TIP3    H2 5305   2.369   5.634   3.847 -0.7712 -0.9927  0.5549
 1781TIP3   OH2 5306   2.576   2.263   3.637 -0.2165 -0.4882 -1.0250
 1781TIP3    H1 5307   2.522   2.190   3.667  0.9685 -1.0739 -0.2145
 1781TIP3    H2 5308   2.607   2.236   3.551 -0.9949 -0.2589 -1.3837
 1782TIP3   OH2 5309   2.254   5.979   0.553 -0.1949 -0.0802  0.0718
 1782TIP3    H1 5310   2.340   6.020   0.543  0.3682 -1.2858 -0.1586
 1782TIP3    H2 5311   2.233   5.989   0.646  0.8469 -1.0175  0.4234
 1783TIP3   OH2 5312   0.412   0.930   3.861 -0.2320 -0.1137 -0.2284
 1783TIP3    H1 5313   0.466   0.858   3.892 -1.5850 -0.7301  0.7826
 1783TIP3    H2 5314   0.324   0.908   3.890 -1.1310  0.6159 -2.2726
 1784TIP3   OH2 5315   1.143   6.754   2.209 -0.4912  0.0322  1.0788
 1784TIP3    H1 5316   1.212   6.811   2.177 -1.4059  0.5514 -0.0483
 1784TIP3    H2 5317   1.093   6.809   2.270 -0.8865  0.1957  0.6165
 1785TIP3   OH2 5318   4.240   5.032   0.384  0.3423  0.1039  0.1738
 1785TIP3    H1 5319   4.248   5.113   0.333  0.6447 -0.1049 -0.1146
 1785TIP3    H2 5320   4.176   4.980   0.336  0.1852  0.1529  0.3318
 1786TIP3   OH2 5321   3.646   0.938   2.012  0.2073 -0.2011  0.0341
 1786TIP3    H1 5322   3.573   0.980   2.058  1.0809  0.7692  0.5767
 1786TIP3    H2 5323   3.714   0.928   2.079  0.3392 -1.6993 -0.3043
 1787TIP3   OH2 5324   6.807   1.387   0.493 -0.1998 -0.4902 -0.0805
 1787TIP3    H1 5325   6.896   1.374   0.461 -0.3671 -2.6539  0.1841
 1787TIP3    H2 5326   6.817   1.406   0.586  0.0014 -0.0598 -0.1877
 1788TIP3   OH2 5327   6.969   1.530   3.277  0.0262  0.3750  0.0257
 1788TIP3    H1 5328   7.063   1.512   3.274 -0.1373 -0.8102  1.1437
 1788TIP3    H2 5329   6.964   1.622   3.303  0.8974  0.1754  1.0101
 1789TIP3   OH2 5330   4.904   2.095   4.603 -0.3872  0.0095 -0.3603
 1789TIP3    H1 5331   4.909   2.138   4.688 -0.6673  1.1277 -0.8835
 1789TIP3    H2 5332   4.988   2.115   4.561 -1.0802  1.3370 -1.1776
 1790TIP3   OH2 5333   5.616   3.662   5.910 -0.1186 -0.0260  0.0100
 1790TIP3    H1 5334   5.587   3.753   5.902 -1.1290 -0.4040 -0.9284
 1790TIP3    H2 5335   5.635   3.635   5.820 -0.0135 -0.8073  0.2572
 1791TIP3   OH2 5336   6.946   2.210   1.878 -0.0579 -0.2170 -0.1513
 1791TIP3    H1 5337   7.014   2.156   1.917  1.2616  0.5621 -1.2746
 1791TIP3    H2 5338   6.994   2.276   1.827 -1.6494  0.5821 -0.6905
 1792TIP3   OH2 5339   2.920   5.440   2.155 -0.3002  0.3504 -0.3211
 1792TIP3    H1 5340   2.896   5.532   2.155  0.4888  0.6126 -2.6599
 1792TIP3    H2 5341   2.963   5.426   2.071 -0.7486 -2.2533 -0.2005
 1793TIP3   OH2 5342   0.906   3.057   2.600  0.4654  0.2384  0.3648
 1793TIP3    H1 5343   0.860   2.977   2.627  1.7059 -0.3460  0.8451
 1793TIP3    H2 5344   0.905   3.054   2.505  2.5727 -1.6635  0.3149
 1794TIP3   OH2 5345   1.456   6.579   5.709  0.1267  0.0655  0.0150
 1794TIP3    H1 5346   1.508   6.525   5.768  0.9180  1.2349  0.4378
 1794TIP3    H2 5347   1.423   6.519   5.643 -1.7826 -1.5485  2.2604
 1795TIP3   OH2 5348   5.173   5.093   5.498  0.4348 -0.0605 -0.5414
 1795TIP3    H1 5349   5.128   5.178   5.497  1.1101  0.3099 -0.0802
 1795TIP3    H2 5350   5.219   5.090   5.415  2.6057  1.2483  0.5246
 1796TIP3   OH2 5351   2.355   0.642   1.200 -0.1714 -0.3193 -0.0959
 1796TIP3    H1 5352   2.386   0.552   1.202 -0.4228 -0.4250 -0.7145
 1796TIP3    H2 5353   2.354   0.665   1.107  0.8158  0.6375  0.0927
 1797TIP3   OH2 5354   1.750   6.301   2.281 -0.5604 -0.3449  0.9700
 1797TIP3    H1 5355   1.772   6.343   2.198 -0.1930  0.4010  1.4428
 1797TIP3    H2 5356   1.809   6.340   2.345 -0.3159 -1.4753  1.4537
 1798TIP3   OH2 5357   4.934   2.526   5.107  0.3118  0.1943 -0.0715
 1798TIP3    H1 5358   4.963   2.504   5.196 -0.2837  0.6815  0.2592
 1798TIP3    H2 5359   4.977   2.609   5.088  0.3334  0.1577 -0.1793
 1799TIP3   OH2 5360   4.716   6.664   1.606 -0.0908 -0.0282  0.5617
 1799TIP3    H1 5361   4.746   6.574   1.591  0.5309  0.1577  0.6492
 1799TIP3    H2 5362   4.766   6.716   1.543  0.2875  0.3821  1.2002
 1800TIP3   OH2 5363   4.667   2.881   1.158  0.5343 -0.2223  0.0100
 1800TIP3    H1 5364   4.583   2.872   1.204  0.2494 -1.0495 -0.6580
 1800TIP3    H2 5365   4.731   2.889   1.228 -0.2045  1.5746  0.5401
 1801TIP3   OH2 5366   0.444   6.128   4.869  0.2077  0.1251  0.1338
 1801TIP3    H1 5367   0.374   6.147   4.932  0.6161  1.9719  0.1101
 1801TIP3    H2 5368   0.517   6.184   4.897  1.0484 -0.4236 -0.8808
 1802TIP3   OH2 5369   7.159   6.426   2.811  0.3318 -0.0183  0.2100
 1802TIP3    H1 5370   7.158   6.463   2.722 -2.5484  1.4957  0.7447
 1802TIP3    H2 5371   7.227   6.476   2.857  0.6100  0.4425 -0.6663
 1803TIP3   OH2 5372   4.810   0.533   0.822 -0.2392 -0.4108 -0.1164
 1803TIP3    H1 5373   4.798   0.441   0.797  1.4287 -0.7057 -0.0044
 1803TIP3    H2 5374   4.849   0.574   0.745 -0.3194  0.0352  0.0760
 1804TIP3   OH2 5375   4.034   5.688   4.639  0.4797 -0.3770  0.4435
 1804TIP3    H1 5376   3.989   5.728   4.564  0.0519 -0.6645  0.5468
 1804TIP3    H2 5377   3.972   5.697   4.711  0.9646  0.0576  0.8122
 1805TIP3   OH2 5378   4.838   6.582   3.874  0.0834  0.8316  0.0452
 1805TIP3    H1 5379   4.916   6.632   3.897 -0.2936  1.1689  0.6221
 1805TIP3    H2 5380   4.844   6.569   3.780 -0.0959  2.4574 -0.2230
 1806TIP3   OH2 5381   3.168   6.053   2.779 -0.3165 -0.2228  0.1800
 1806TIP3    H1 5382   3.144   6.145   2.762  0.7661 -0.0808 -0.7249
 1806TIP3    H2 5383   3.226   6.031   2.707 -0.1260 -1.4633  0.7034
 1807TIP3   OH2 5384   2.834   2.727   2.934  0.1400 -0.4546 -0.5139
 1807TIP3    H1 5385   2.798   2.746   2.847  0.7918  0.5550 -0.5713
 1807TIP3    H2 5386   2.880   2.644   2.923 -0.8163 -0.9723 -0.8156
 1808TIP3   OH2 5387   2.770   6.460   5.012 -0.0761  0.4915 -0.4461
 1808TIP3    H1 5388   2.815   6.487   4.932 -1.8965  0.1915 -1.6112
 1808TIP3    H2 5389   2.840   6.456   5.078  1.2700  1.9756 -1.6818
 1809TIP3   OH2 5390   3.164   3.818   5.047 -0.3874  0.1840 -0.2409
 1809TIP3    H1 5391   3.104   3.743   5.053  0.9578 -0.9293 -0.3040
 1809TIP3    H2 5392   3.143   3.871   5.124 -0.5908 -0.8525  0.4452
 1810TIP3   OH2 5393   7.162   4.839   4.346  0.0553 -0.6300  0.3725
 1810TIP3    H1 5394   7.121   4.764   4.389 -1.8147  0.3515  0.4366
 1810TIP3    H2 5395   7.128   4.836   4.256 -0.1861  0.2030  0.4216
 1811TIP3   OH2 5396   2.495   0.181   3.976  0.7357 -0.0416  0.2025
 1811TIP3    H1 5397   2.550   0.208   3.903  0.4227  0.1627  0.0382
 1811TIP3    H2 5398   2.544   0.111   4.019  0.6769 -0.5515 -0.5366
 1812TIP3   OH2 5399   4.511   0.947   3.296  0.0211 -0.4448  0.3187
 1812TIP3    H1 5400   4.491   0.879   3.231 -1.5020  0.5324 -0.3064
 1812TIP3    H2 5401   4.534   1.024   3.244 -0.1836  0.0554  0.9522
 1813TIP3   OH2 5402   6.149   3.610   2.376 -0.1460  0.6384 -0.5282
 1813TIP3    H1 5403   6.106   3.593   2.292 -1.2253 -0.9241  0.2964
 1813TIP3    H2 5404   6.083   3.588   2.442  0.8483  1.3365  0.7429
 1814TIP3   OH2 5405   0.229   1.247   5.410 -0.3255  0.2429  0.3510
 1814TIP3    H1 5406   0.247   1.275   5.320 -0.7697  1.8553  0.7319
 1814TIP3    H2 5407   0.247   1.154   5.410 -0.5063  0.1727 -1.4704
 1815TIP3   OH2 5408   3.022   0.433   3.802 -0.2647  0.1258  0.3367
 1815TIP3    H1 5409   3.100   0.475   3.766  0.1167 -0.6154  0.2629
 1815TIP3    H2 5410   2.985   0.383   3.729  0.1058 -0.8001  0.7542
 1816TIP3   OH2 5411   0.053   0.015   1.434  0.2926 -0.1691 -0.2383
 1816TIP3    H1 5412   0.082   0.100   1.467  0.9668 -0.8150  0.8753
 1816TIP3    H2 5413   0.131  -0.021   1.390  0.3867 -0.7472  0.3959
 1817TIP3   OH2 5414   2.539   5.721   2.366 -0.0011 -0.3320  1.0157
 1817TIP3    H1 5415   2.568   5.774   2.292  0.6466  1.1128  2.2553
 1817TIP3    H2 5416   2.489   5.650   2.326  0.7700  0.0997 -0.8312
 1818TIP3   OH2 5417   6.137   6.642   4.995  0.0089  0.2856  0.3754
 1818TIP3    H1 5418   6.204   6.698   4.956  0.3626  0.8465  1.7289
 1818TIP3    H2 5419   6.062   6.649   4.936  1.3407 -0.9001 -1.5527
 1819TIP3   OH2 5420   1.697   0.243   0.906  0.2272  0.0963 -0.3777
 1819TIP3    H1 5421   1.672   0.328   0.943  0.7461  0.4400 -0.7995
 1819TIP3    H2 5422   1.750   0.265   0.830  1.0355 -0.6125 -0.0317
 1820TIP3   OH2 5423   5.764   2.734   2.608  0.1353 -0.0279 -0.4960
 1820TIP3    H1 5424   5.781   2.774   2.522 -0.1423  0.8107 -0.1777
 1820TIP3    H2 5425   5.805   2.794   2.670  0.1210 -0.5034 -0.0288
 1821TIP3   OH2 5426   3.891   3.314   2.794 -0.1604  0.3827  0.0322
 1821TIP3    H1 5427   3.967   3.325   2.852 -0.6294  0.6171  0.6181
 1821TIP3    H2 5428   3.816   3.315   2.853 -0.7433  1.8776 -0.6866
 1822TIP3   OH2 5429   5.789   3.725   4.231 -0.1251 -0.2716 -0.2674
 1822TIP3    H1 5430   5.719   3.665   4.256 -0.4457 -0.5225 -1.6743
 1822TIP3    H2 5431   5.831   3.683   4.155  0.4007  0.7224 -0.5448
 1823TIP3   OH2 5432   6.464   0.653   5.854  0.2049  0.5523 -0.5997
 1823TIP3    H1 5433   6.415   0.698   5.786  1.4109  0.8530 -1.2926
 1823TIP3    H2 5434   6.509   0.723   5.902 -0.6987  0.3514  0.5747
 1824TIP3   OH2 5435   6.979   5.812   4.999 -0.0535  0.1201 -0.1713
 1824TIP3    H1 5436   6.941   5.737   4.954  0.6486  0.4037 -1.2758
 1824TIP3    H2 5437   7.068   5.819   4.963  0.6616  0.1523  1.5245
 1825TIP3   OH2 5438   3.291   4.291   2.825 -0.2832  0.5691 -0.2314
 1825TIP3    H1 5439   3.266   4.250   2.743 -0.1361  0.7977 -0.3920
 1825TIP3    H2 5440   3.358   4.233   2.862 -1.9325 -0.7557  0.8418
 1826TIP3   OH2 5441   1.233   6.111   2.471  0.3738  0.2430  0.1489
 1826TIP3    H1 5442   1.274   6.029   2.500 -0.0564  0.3694  1.1375
 1826TIP3    H2 5443   1.150   6.084   2.431  1.7158 -0.0962 -2.6310
 1827TIP3   OH2 5444   6.932   3.462   2.310  0.0971 -0.5256 -0.1138
 1827TIP3    H1 5445   6.926   3.521   2.385  0.1791  0.3798 -0.8026
 1827TIP3    H2 5446   6.843   3.432   2.295 -0.1507  0.3597 -0.4792
 1828TIP3   OH2 5447   2.901   0.858   2.906 -0.3267 -0.1544 -0.3124
 1828TIP3    H1 5448   2.853   0.782   2.939  2.4097 -1.1767  1.6824
 1828TIP3    H2 5449   2.833   0.914   2.868 -2.8900 -2.0510  1.1126
 1829TIP3   OH2 5450   3.819   5.071   3.139  0.1889  0.2303 -0.1059
 1829TIP3    H1 5451   3.724   5.064   3.132  0.1077 -1.1713  1.6714
 1829TIP3    H2 5452   3.844   5.132   3.069 -1.9526  0.3336 -0.8496
 1830TIP3   OH2 5453   2.962   5.500   4.663  0.1582 -0.2987  0.2962
 1830TIP3    H1 5454   2.921   5.558   4.598  1.8532  0.3348 -0.2831
 1830TIP3    H2 5455   2.933   5.534   4.747  1.1622  1.5236 -0.0222
 1831TIP3   OH2 5456   1.214   0.883   3.225  0.4851  0.8102  0.3264
 1831TIP3    H1 5457   1.125   0.862   3.195  0.5694  2.8227 -1.5849
 1831TIP3    H2 5458   1.200   0.936   3.304  0.0744 -0.2499  0.9880
 1832TIP3   OH2 5459   2.014   5.627   5.619  0.2950 -0.2319 -0.8345
 1832TIP3    H1 5460   2.079   5.631   5.549  0.1685  0.6636 -0.9080
 1832TIP3    H2 5461   1.943   5.574   5.582 -0.4079  1.4057 -1.9378
 1833TIP3   OH2 5462   4.272   1.108   1.072 -0.2365 -0.3127 -0.1556
 1833TIP3    H1 5463   4.246   1.099   0.980  2.1042  0.3597 -0.9640
 1833TIP3    H2 5464   4.320   1.027   1.091  1.2800  0.5118 -0.3035
 1834TIP3   OH2 5465   1.201   2.327   0.670 -0.4784 -0.0354  0.5083
 1834TIP3    H1 5466   1.129   2.316   0.608  0.5286 -1.2082 -0.5112
 1834TIP3    H2 5467   1.200   2.420   0.693 -1.9550  0.0697  0.0996
 1835TIP3   OH2 5468   5.493   0.183   4.362  0.4273 -0.2649  0.0729
 1835TIP3    H1 5469   5.446   0.119   4.416  0.4988 -0.0833  0.3569
 1835TIP3    H2 5470   5.487   0.149   4.273  0.1965 -0.5045  0.1784
 1836TIP3   OH2 5471   2.536   3.802   1.800  0.0543  0.3165 -0.1461
 1836TIP3    H1 5472   2.470   3.860   1.762 -2.4930 -1.2679  1.5728
 1836TIP3    H2 5473   2.530   3.817   1.894  0.8977 -1.1293  0.1743
 1837TIP3   OH2 5474   5.363   6.208   2.060  0.2264  0.0779 -0.2704
 1837TIP3    H1 5475   5.378   6.263   1.984  0.8479  0.3474  0.0418
 1837TIP3    H2 5476   5.273   6.176   2.049 -0.0412  0.9056 -0.6181
 1838TIP3   OH2 5477   3.185   2.155   1.930 -0.2722  0.1483  0.2734
 1838TIP3    H1 5478   3.237   2.197   1.861 -0.4931 -0.6478 -0.3899
 1838TIP3    H2 5479   3.239   2.161   2.008  0.6928 -0.3991 -0.3395
 1839TIP3   OH2 5480   2.720   1.520   4.877 -0.1903 -0.4599  0.4652
 1839TIP3    H1 5481   2.759   1.604   4.852 -1.0380 -0.0745  0.4047
 1839TIP3    H2 5482   2.794   1.468   4.909  0.2343  0.5774  1.2336
 1840TIP3   OH2 5483   4.156   3.124   3.845 -0.1638  0.3253 -0.3266
 1840TIP3    H1 5484   4.149   3.213   3.881  0.0389  0.4090 -0.4867
 1840TIP3    H2 5485   4.250   3.111   3.833 -0.1123 -0.3732  0.8160
 1841TIP3   OH2 5486   0.877   0.021   0.064  0.5220  0.1442 -0.2131
 1841TIP3    H1 5487   0.826   0.060  -0.007 -0.4763  0.1850  0.5010
 1841TIP3    H2 5488   0.963   0.004   0.025  0.6768  2.0646 -0.8549
 1842TIP3   OH2 5489   2.498   5.406   2.556  0.4764  0.0271 -0.1640
 1842TIP3    H1 5490   2.446   5.470   2.606 -0.2370 -1.0454  0.5213
 1842TIP3    H2 5491   2.481   5.427   2.464 -0.5733  0.1864  0.0528
 1843TIP3   OH2 5492   5.726   5.789   0.507  0.2553  0.0080 -0.1964
 1843TIP3    H1 5493   5.681   5.873   0.507 -0.2422 -0.2500 -0.5386
 1843TIP3    H2 5494   5.678   5.736   0.571  1.9313  0.6696  1.7133
 1844TIP3   OH2 5495   2.269   3.338   1.603  0.6089 -0.2426  0.5874
 1844TIP3    H1 5496   2.320   3.409   1.643 -0.0493 -0.0124  1.0462
 1844TIP3    H2 5497   2.178   3.366   1.615  0.3869  0.2095 -1.7634
 1845TIP3   OH2 5498   6.110   6.386   2.739  0.5576  0.1006 -0.1085
 1845TIP3    H1 5499   6.112   6.400   2.833  1.9579  0.2419 -0.1430
 1845TIP3    H2 5500   6.106   6.474   2.701  0.9349  0.0844 -0.1906
 1846TIP3   OH2 5501   4.223   5.950   2.298  0.1208 -0.0610  0.2287
 1846TIP3    H1 5502   4.314   5.949   2.270 -0.0337  0.2070 -0.2827
 1846TIP3    H2 5503   4.175   5.988   2.225 -0.4697 -0.6555  0.2942
 1847TIP3   OH2 5504   3.594   2.240   4.671  0.2980 -0.0051  0.2512
 1847TIP3    H1 5505   3.510   2.195   4.659  0.7453 -0.4143 -1.8076
 1847TIP3    H2 5506   3.659   2.176   4.642  1.0201  1.5414 -1.8020
 1848TIP3   OH2 5507   4.562   5.644   5.320  0.3454 -0.3094  0.6218
 1848TIP3    H1 5508   4.630   5.639   5.388 -0.8095 -2.4796  1.7270
 1848TIP3    H2 5509   4.580   5.570   5.263  0.2250  0.4505 -0.4293
 1849TIP3   OH2 5510   2.527   1.101   5.747  0.3341  0.1987 -0.0235
 1849TIP3    H1 5511   2.612   1.056   5.751  0.4863  0.6027  2.2547
 1849TIP3    H2 5512   2.541   1.182   5.796 -1.8962 -0.6980  2.2970
 1850TIP3   OH2 5513   2.479   4.182   5.166  0.2895  0.1691 -0.2646
 1850TIP3    H1 5514   2.538   4.115   5.200  0.6847  0.0598 -1.1496
 1850TIP3    H2 5515   2.523   4.217   5.089 -0.5344  0.4929 -0.6067
 1851TIP3   OH2 5516   4.089   2.243   0.801  1.0870  0.3000 -0.2591
 1851TIP3    H1 5517   4.040   2.207   0.874 -1.0774 -0.0088 -1.7615
 1851TIP3    H2 5518   4.051   2.330   0.787  1.5594  0.4108 -0.9188
 1852TIP3   OH2 5519   6.488   3.981   4.724  0.1604  0.4309  0.3085
 1852TIP3    H1 5520   6.503   3.905   4.668 -1.6907 -0.4388  0.9247
 1852TIP3    H2 5521   6.533   4.053   4.679  2.1220 -1.0274 -0.1893
 1853TIP3   OH2 5522   1.636   1.219   5.643  0.2744 -0.9151  0.0973
 1853TIP3    H1 5523   1.550   1.259   5.657  1.4284  1.3249  1.3716
 1853TIP3    H2 5524   1.625   1.128   5.670 -1.7510 -0.7545 -0.0514
 1854TIP3   OH2 5525   4.229   3.380   1.729  0.3176  0.1940 -0.1378
 1854TIP3    H1 5526   4.221   3.320   1.655 -0.6510  0.0185  0.0965
 1854TIP3    H2 5527   4.318   3.367   1.760  0.4881 -0.2940 -0.7979
 1855TIP3   OH2 5528   6.079   2.889   2.618 -0.3478  0.1445 -0.1772
 1855TIP3    H1 5529   6.106   2.797   2.627 -2.3219 -0.2931  2.9029
 1855TIP3    H2 5530   6.089   2.908   2.525  1.9149 -2.5791 -0.6252
 1856TIP3   OH2 5531   4.434   1.380   1.972  0.2750  0.1556 -0.4774
 1856TIP3    H1 5532   4.374   1.321   2.019 -0.1094  0.5290 -0.4890
 1856TIP3    H2 5533   4.376   1.446   1.933  0.3086 -1.3737 -3.4197
 1857TIP3   OH2 5534   0.325   0.210   5.790 -0.2708 -0.0027  0.5775
 1857TIP3    H1 5535   0.245   0.216   5.843 -0.4617  1.4241  0.1706
 1857TIP3    H2 5536   0.393   0.183   5.852 -1.0684 -1.3305  0.9038
 1858TIP3   OH2 5537   4.750   4.580   2.056 -0.1384  0.0222 -0.1553
 1858TIP3    H1 5538   4.824   4.551   2.109 -0.7643 -0.4165  0.4768
 1858TIP3    H2 5539   4.685   4.511   2.064 -1.3448  1.2168  0.7526
 1859TIP3   OH2 5540   1.888   6.432   2.083 -0.3388  0.5472 -0.3022
 1859TIP3    H1 5541   1.911   6.508   2.136  1.1508 -0.8586  1.2113
 1859TIP3    H2 5542   1.915   6.456   1.994  0.5433  1.6258  0.2291
 1860TIP3   OH2 5543   1.106   2.834   4.285  0.1122 -0.3058  0.3926
 1860TIP3    H1 5544   1.052   2.763   4.319 -1.5208  0.8021  0.2432
 1860TIP3    H2 5545   1.156   2.865   4.361 -0.4038 -0.5318  0.8286
 1861TIP3   OH2 5546   3.734   0.155   1.680  0.2853  0.0115  0.5935
 1861TIP3    H1 5547   3.698   0.106   1.754  0.4618 -1.1265 -0.0560
 1861TIP3    H2 5548   3.797   0.215   1.720 -0.2588  0.0398  1.4506
 1862TIP3   OH2 5549   1.514   4.661   0.446 -0.0385 -0.1113 -0.0407
 1862TIP3    H1 5550   1.581   4.620   0.500 -0.0435 -1.3865 -0.9353
 1862TIP3    H2 5551   1.556   4.740   0.411  1.2602 -1.2321 -1.1142
 1863TIP3   OH2 5552   1.815   4.818   1.712  0.0561  0.1749 -0.0237
 1863TIP3    H1 5553   1.811   4.739   1.766  1.0395 -0.4904 -0.8859
 1863TIP3    H2 5554   1.867   4.879   1.765 -1.2008  0.4842  0.9017
 1864TIP3   OH2 5555   1.405   1.387   4.501  0.1123 -0.1894  0.1714
 1864TIP3    H1 5556   1.483   1.341   4.531 -0.5777 -1.6306 -0.1560
 1864TIP3    H2 5557   1.419   1.400   4.407  0.7396  1.2119  0.4286
 1865TIP3   OH2 5558   1.749   3.969   2.718  1.1653  0.0689  0.7576
 1865TIP3    H1 5559   1.759   3.874   2.718 -0.7640 -0.2594 -1.6662
 1865TIP3    H2 5560   1.731   3.992   2.809  1.7276 -1.8500  1.4019
 1866TIP3   OH2 5561   3.024   0.121   4.409 -0.3154  0.3703  0.5058
 1866TIP3    H1 5562   3.032   0.166   4.493  0.1443 -0.4075  0.8904
 1866TIP3    H2 5563   3.106   0.141   4.364 -0.4024  0.4769  0.3944
 1867TIP3   OH2 5564   3.319   0.816   3.373 -0.4132 -0.1269 -0.4888
 1867TIP3    H1 5565   3.254   0.808   3.303 -0.2329  0.4682 -0.7283
 1867TIP3    H2 5566   3.334   0.726   3.401 -1.5235 -0.2618 -0.2555
 1868TIP3   OH2 5567   2.071   1.501   3.809  0.0169 -0.1873  0.3234
 1868TIP3    H1 5568   2.150   1.447   3.810 -0.8562 -1.5991 -1.1454
 1868TIP3    H2 5569   2.072   1.543   3.723 -1.2017 -0.8446 -0.0314
 1869TIP3   OH2 5570   6.742   2.756   3.058 -1.3989 -0.1958 -0.4496
 1869TIP3    H1 5571   6.800   2.724   2.989 -3.8786 -0.7484 -2.4462
 1869TIP3    H2 5572   6.693   2.678   3.086 -1.2094  0.2338  1.2144
 1870TIP3   OH2 5573   3.670   6.296   4.137  0.0842 -0.5464  0.2138
 1870TIP3    H1 5574   3.764   6.312   4.127  0.3073 -1.9259 -0.0330
 1870TIP3    H2 5575   3.655   6.303   4.232  0.0766  1.3827  0.1173
 1871TIP3   OH2 5576   0.430   3.313   5.127 -0.3681 -0.0854  0.0264
 1871TIP3    H1 5577   0.425   3.319   5.222 -1.7988  2.2611 -0.1035
 1871TIP3    H2 5578   0.342   3.288   5.099 -0.3549  0.6583 -0.7311
 1872TIP3   OH2 5579   0.831   2.064   1.548  1.0877  0.1650  0.8734
 1872TIP3    H1 5580   0.826   2.148   1.594 -1.9022 -0.2798  1.5290
 1872TIP3    H2 5581   0.808   1.999   1.614  1.0737 -0.9567 -0.2056
 1873TIP3   OH2 5582   2.787   6.599   1.812 -0.0128 -0.1251  0.1109
 1873TIP3    H1 5583   2.715   6.557   1.859 -2.1789  1.9591 -1.0999
 1873TIP3    H2 5584   2.777   6.569   1.722  1.1139 -0.3609  0.0525
 1874TIP3   OH2 5585   5.019   2.793   2.899  0.4218  0.3604 -0.2998
 1874TIP3    H1 5586   5.106   2.751   2.895 -0.0791 -0.6424 -1.2945
 1874TIP3    H2 5587   4.959   2.726   2.866 -0.8348  0.8122  0.9833
 1875TIP3   OH2 5588   2.386   0.251   0.243 -0.4921  0.8009  0.1327
 1875TIP3    H1 5589   2.447   0.317   0.210 -1.0715  0.8980 -0.7937
 1875TIP3    H2 5590   2.409   0.171   0.196 -0.7678  0.7229  0.1267
 1876TIP3   OH2 5591   0.491   0.788   1.720  0.0175 -0.5606  0.3363
 1876TIP3    H1 5592   0.431   0.776   1.647  0.7448 -0.0981 -0.3620
 1876TIP3    H2 5593   0.485   0.706   1.770 -0.9017 -0.6589  0.0728
 1877TIP3   OH2 5594   2.380   1.696   4.184 -0.6938 -0.0178  0.0358
 1877TIP3    H1 5595   2.411   1.752   4.255 -0.6203  0.0659 -0.0625
 1877TIP3    H2 5596   2.457   1.646   4.158 -0.2604  1.2596 -1.2180
 1878TIP3   OH2 5597   6.854   1.867   3.502 -0.2431  0.4906  0.3570
 1878TIP3    H1 5598   6.762   1.844   3.496  0.0678 -0.3918 -1.8351
 1878TIP3    H2 5599   6.888   1.856   3.413  1.7171  1.9424  0.8541
 1879TIP3   OH2 5600   6.128   2.130   2.442 -0.0102  0.5469 -0.1599
 1879TIP3    H1 5601   6.129   2.212   2.393 -1.6352  0.8800  0.3131
 1879TIP3    H2 5602   6.146   2.156   2.532  4.2774 -0.1930 -0.5502
 1880TIP3   OH2 5603   5.093   2.757   2.221  0.0918 -0.2380 -0.2045
 1880TIP3    H1 5604   5.075   2.775   2.313 -0.2192 -0.1204 -0.2856
 1880TIP3    H2 5605   5.107   2.662   2.217  1.3185 -0.0953  0.1560
 1881TIP3   OH2 5606   0.189   5.012   5.111 -0.7952 -0.0027 -0.1009
 1881TIP3    H1 5607   0.188   4.943   5.043  0.3679 -0.4431  0.3006
 1881TIP3    H2 5608   0.125   5.076   5.081  0.1137  0.1200 -1.9659
 1882TIP3   OH2 5609   1.677   3.938   2.393  1.4527 -0.4693  0.4228
 1882TIP3    H1 5610   1.671   3.845   2.411 -0.0761 -0.0825  2.1628
 1882TIP3    H2 5611   1.718   3.976   2.471  1.5695  0.3892 -0.0338
 1883TIP3   OH2 5612   0.280   0.667   0.389 -0.4345  0.5023  0.0018
 1883TIP3    H1 5613   0.363   0.634   0.423 -1.3504 -1.2783  0.6960
 1883TIP3    H2 5614   0.295   0.760   0.374  1.2566  0.5158  1.4182
 1884TIP3   OH2 5615   1.301   4.977   4.423 -0.2706 -0.9135  0.4720
 1884TIP3    H1 5616   1.252   4.998   4.502  0.6180 -1.0665  1.0727
 1884TIP3    H2 5617   1.258   5.027   4.354  0.3171  0.9779  1.4318
 1885TIP3   OH2 5618   0.165   1.710   1.381  0.2846  0.2186  0.4201
 1885TIP3    H1 5619   0.147   1.618   1.398  0.2516  0.3154  0.9567
 1885TIP3    H2 5620   0.252   1.725   1.418  0.6987  0.1818 -0.5273
 1886TIP3   OH2 5621   2.656   0.333   3.786 -0.0243  0.4887  0.2893
 1886TIP3    H1 5622   2.721   0.318   3.717 -1.0744  2.1362 -1.1327
 1886TIP3    H2 5623   2.700   0.306   3.866  2.6391  2.0369 -0.5172
 1887TIP3   OH2 5624   4.715   2.929   4.731  0.8613  0.4963  0.0374
 1887TIP3    H1 5625   4.771   2.991   4.777  0.4893 -0.0179  1.2054
 1887TIP3    H2 5626   4.637   2.921   4.785  0.5115 -0.3029 -0.5537
 1888TIP3   OH2 5627   5.778   2.415   5.603 -0.4164 -0.4506  0.0184
 1888TIP3    H1 5628   5.759   2.414   5.509  0.2650  1.0371 -0.1612
 1888TIP3    H2 5629   5.851   2.354   5.614 -2.9298 -3.6917  0.2300
 1889TIP3   OH2 5630   0.754   1.353   5.453  0.0455 -0.0638 -0.1527
 1889TIP3    H1 5631   0.668   1.393   5.449 -0.1894 -0.4292  0.8516
 1889TIP3    H2 5632   0.782   1.366   5.544  0.3137 -1.4346 -0.0223
 1890TIP3   OH2 5633   4.509   0.268   2.317  0.3052  0.5076 -0.0367
 1890TIP3    H1 5634   4.486   0.340   2.258 -1.5646  1.3587  1.6015
 1890TIP3    H2 5635   4.543   0.311   2.395  1.7338 -0.5504 -0.0450
 1891TIP3   OH2 5636   1.239   3.572   4.414 -0.5889 -0.0633 -0.0181
 1891TIP3    H1 5637   1.267   3.565   4.323 -0.8368  0.4928 -0.1416
 1891TIP3    H2 5638   1.317   3.551   4.465 -0.3198  0.1055 -0.3581
 1892TIP3   OH2 5639   6.561   5.231   3.844  0.1572 -0.0789  0.8043
 1892TIP3    H1 5640   6.525   5.246   3.757 -2.7432  0.2009  1.9310
 1892TIP3    H2 5641   6.640   5.286   3.847 -1.6142  2.8170 -0.4834
 1893TIP3   OH2 5642   4.945   1.194   3.831 -0.1429  0.4493 -0.3067
 1893TIP3    H1 5643   4.915   1.268   3.884 -1.0989  1.3482 -2.0352
 1893TIP3    H2 5644   5.012   1.152   3.885 -1.2437  1.1462  1.7179
 1894TIP3   OH2 5645   0.334   1.169   2.222 -0.4573  0.2185 -1.0323
 1894TIP3    H1 5646   0.348   1.237   2.155  0.8918 -0.8824 -1.9235
 1894TIP3    H2 5647   0.250   1.129   2.198 -0.5507  0.6092 -1.3668
 1895TIP3   OH2 5648   2.059   6.620   5.760  0.2852 -0.3064  0.0060
 1895TIP3    H1 5649   2.152   6.618   5.735 -0.0902  1.2490 -1.7097
 1895TIP3    H2 5650   2.021   6.546   5.713  0.4564 -0.2672 -0.1979
 1896TIP3   OH2 5651   5.850   6.651   1.182  0.3333  0.6904  0.3450
 1896TIP3    H1 5652   5.930   6.688   1.219  0.4371 -0.5050  1.3542
 1896TIP3    H2 5653   5.802   6.617   1.257  0.7381 -2.1584 -0.5799
 1897TIP3   OH2 5654   5.983   5.054   5.286  0.2212 -0.0549 -0.6595
 1897TIP3    H1 5655   5.930   5.045   5.365  0.1377  0.3793 -0.6674
 1897TIP3    H2 5656   5.920   5.055   5.215  0.2639  0.1015 -0.6951
 1898TIP3   OH2 5657   2.782   4.387   2.761 -0.5463  0.2472 -0.0219
 1898TIP3    H1 5658   2.718   4.434   2.814 -1.6729 -0.6972 -0.4896
 1898TIP3    H2 5659   2.851   4.362   2.822 -0.0103  2.2671  0.2771
 1899TIP3   OH2 5660   1.219   0.361   0.842  0.4469 -0.2362  0.2255
 1899TIP3    H1 5661   1.197   0.373   0.750  2.4604  0.1922 -0.2575
 1899TIP3    H2 5662   1.234   0.449   0.875  0.2095 -0.4205  0.8359
 1900TIP3   OH2 5663   0.816   0.796   4.243 -0.3110  1.0744 -0.4494
 1900TIP3    H1 5664   0.866   0.714   4.243 -0.2486  1.1085  0.0071
 1900TIP3    H2 5665   0.845   0.841   4.322 -0.1956  1.6295 -0.8022
 1901TIP3   OH2 5666   0.280   5.571   4.493 -0.2664  0.2453  0.1664
 1901TIP3    H1 5667   0.315   5.639   4.550 -0.0228 -0.8302  1.3610
 1901TIP3    H2 5668   0.223   5.519   4.550 -0.5535 -0.4652 -0.7428
 1902TIP3   OH2 5669   6.276   2.437   5.560 -0.1106  0.5639  0.1908
 1902TIP3    H1 5670   6.368   2.439   5.536 -0.1818  0.2688 -0.1110
 1902TIP3    H2 5671   6.275   2.408   5.651  0.0947  0.5917  0.2016
 1903TIP3   OH2 5672   0.453   3.832   1.439 -0.5979  0.0767 -0.0646
 1903TIP3    H1 5673   0.411   3.915   1.414 -2.2394 -0.7106 -0.0098
 1903TIP3    H2 5674   0.397   3.796   1.508  0.6370 -0.6359  0.6141
 1904TIP3   OH2 5675   1.167   5.947   4.949  0.0041  0.0259  0.1149
 1904TIP3    H1 5676   1.172   5.921   5.041  2.4855 -2.3319 -0.5513
 1904TIP3    H2 5677   1.172   6.043   4.951 -2.2835  0.2139  2.4383
 1905TIP3   OH2 5678   1.329   1.241   4.881  0.1953 -0.3363 -0.1400
 1905TIP3    H1 5679   1.303   1.329   4.853  0.4191 -0.4961 -0.8792
 1905TIP3    H2 5680   1.419   1.231   4.850 -0.7376 -1.8806 -2.7870
 1906TIP3   OH2 5681   5.182   4.076   2.027  0.2040  0.1039  0.1928
 1906TIP3    H1 5682   5.186   4.171   2.040 -0.0202 -0.1097  2.0332
 1906TIP3    H2 5683   5.157   4.066   1.935 -1.6415  1.8604  0.4235
 1907TIP3   OH2 5684   6.829   3.297   4.644  0.0768  0.2337  0.5152
 1907TIP3    H1 5685   6.792   3.371   4.596 -0.8030 -1.0244 -0.8624
 1907TIP3    H2 5686   6.768   3.225   4.626  1.0808 -0.9097  1.5346
 1908TIP3   OH2 5687   1.563   5.600   1.279  0.2458  0.4515  0.0946
 1908TIP3    H1 5688   1.556   5.508   1.307  0.1815  0.6998  0.9230
 1908TIP3    H2 5689   1.624   5.598   1.206  0.6183 -0.1975  0.4145
 1909TIP3   OH2 5690   0.218   5.052   1.654  0.2084 -0.2309 -0.1996
 1909TIP3    H1 5691   0.311   5.035   1.647  0.5406  0.5956  1.5868
 1909TIP3    H2 5692   0.183   4.975   1.700  0.1214 -0.2448 -0.2890
 1910TIP3   OH2 5693   6.354   5.794   5.514  0.6416  0.3952 -0.2798
 1910TIP3    H1 5694   6.355   5.884   5.547  0.8405  0.3389 -0.1317
 1910TIP3    H2 5695   6.389   5.801   5.425  1.0765  0.4058 -0.1114
 1911TIP3   OH2 5696   4.208   3.827   4.718  0.1209  0.4710  0.0799
 1911TIP3    H1 5697   4.177   3.737   4.724 -0.1270  0.6245  1.4090
 1911TIP3    H2 5698   4.257   3.830   4.635  0.3064 -0.9257  0.1077
 1912TIP3   OH2 5699   0.379   3.231   2.854  0.4011 -0.2381 -0.0939
 1912TIP3    H1 5700   0.434   3.202   2.926  0.0555 -0.7637 -0.0369
 1912TIP3    H2 5701   0.321   3.157   2.836  0.1775  0.0527 -0.6096
 1913TIP3   OH2 5702   2.776   3.647   1.313 -0.2216  0.0909 -0.2618
 1913TIP3    H1 5703   2.793   3.741   1.301  0.2159 -0.1332 -1.4658
 1913TIP3    H2 5704   2.693   3.632   1.269 -0.1546 -0.1351 -0.3120
 1914TIP3   OH2 5705   3.561   0.058   0.901  0.2654  0.3546 -0.0242
 1914TIP3    H1 5706   3.604  -0.019   0.864 -1.4007  0.3440 -2.0568
 1914TIP3    H2 5707   3.602   0.133   0.857 -1.5294  0.3556 -1.7858
 1915TIP3   OH2 5708   4.199   5.307   4.122 -0.2617  0.3217 -0.0149
 1915TIP3    H1 5709   4.208   5.218   4.158 -2.6390 -0.4994 -1.1877
 1915TIP3    H2 5710   4.248   5.305   4.040 -1.5413 -0.4733 -0.8076
 1916TIP3   OH2 5711   1.244   1.727   3.041  0.4347  0.7560  0.3449
 1916TIP3    H1 5712   1.257   1.817   3.013 -1.5661  0.5823 -1.2821
 1916TIP3    H2 5713   1.204   1.734   3.128 -2.6336  1.5747 -1.0357
 1917TIP3   OH2 5714   2.929   0.472   4.664 -0.2098 -0.4498  0.2500
 1917TIP3    H1 5715   2.935   0.381   4.637 -3.5549 -0.5338 -0.6875
 1917TIP3    H2 5716   2.853   0.474   4.723  0.9219  1.4455  1.7409
 1918TIP3   OH2 5717   4.741   2.102   3.181  0.2269  0.0131  0.4549
 1918TIP3    H1 5718   4.813   2.061   3.134  0.0808  0.2931 -0.0223
 1918TIP3    H2 5719   4.760   2.086   3.274  0.1841 -1.1023  0.2804
 1919TIP3   OH2 5720   4.861   0.626   0.026  0.3851  0.3448  0.0347
 1919TIP3    H1 5721   4.826   0.648   0.113  0.2723 -0.7255  0.2679
 1919TIP3    H2 5722   4.869   0.531   0.027  3.4670  0.5166  0.0301
 1920TIP3   OH2 5723   0.986   5.176   5.330 -0.3120  0.3437  0.1051
 1920TIP3    H1 5724   1.010   5.095   5.376 -1.0691  0.8347  1.4227
 1920TIP3    H2 5725   0.919   5.216   5.386  1.2305  2.7373  0.3936
 1921TIP3   OH2 5726   4.834   0.458   5.428  0.1169 -0.0505 -0.3945
 1921TIP3    H1 5727   4.912   0.457   5.484  0.2754  0.0519 -0.6117
 1921TIP3    H2 5728   4.785   0.381   5.454 -0.7188  0.9444  1.1657
 1922TIP3   OH2 5729   4.865   2.837   1.389 -0.0479  0.1138  0.5914
 1922TIP3    H1 5730   4.934   2.897   1.416  0.5857 -0.3659  0.0947
 1922TIP3    H2 5731   4.910   2.753   1.376 -0.8183 -0.3378  0.7666
 1923TIP3   OH2 5732   6.454   5.913   3.283 -0.2026 -0.5981  0.1569
 1923TIP3    H1 5733   6.426   5.830   3.323 -0.6639 -0.0253  1.0367
 1923TIP3    H2 5734   6.373   5.962   3.269  0.2246  0.7352  1.9767
 1924TIP3   OH2 5735   5.231   1.405   0.775  0.6002 -0.4695 -0.1847
 1924TIP3    H1 5736   5.306   1.451   0.814  0.9779  0.1297 -1.5788
 1924TIP3    H2 5737   5.177   1.475   0.740 -1.4465 -0.7635  2.1168
 1925TIP3   OH2 5738   0.620   6.752   5.093  0.2017  0.3316  0.3484
 1925TIP3    H1 5739   0.605   6.812   5.020 -0.9690 -0.2524  0.0784
 1925TIP3    H2 5740   0.558   6.780   5.161 -0.9192 -1.0103 -0.0753
 1926TIP3   OH2 5741   1.284   5.474   4.717  0.4342  0.1819  0.8138
 1926TIP3    H1 5742   1.249   5.507   4.800 -2.7732  0.5303 -0.5384
 1926TIP3    H2 5743   1.235   5.392   4.702  1.2522 -0.0889 -0.5401
 1927TIP3   OH2 5744   7.142   3.023   4.020 -0.0183 -0.1344 -0.0672
 1927TIP3    H1 5745   7.233   3.046   4.035 -0.0061  0.1500 -0.5541
 1927TIP3    H2 5746   7.102   3.103   3.986 -0.8804  0.2968  1.8196
 1928TIP3   OH2 5747   1.358   1.005   1.179  0.0534 -0.4936 -0.4228
 1928TIP3    H1 5748   1.417   1.062   1.130  1.2186 -0.5079  0.9110
 1928TIP3    H2 5749   1.386   0.916   1.156 -1.1215 -0.5649 -1.7311
 1929TIP3   OH2 5750   1.537   2.933   5.589 -0.4704 -0.0391 -0.1054
 1929TIP3    H1 5751   1.610   2.876   5.562 -0.4138 -0.1222  0.2177
 1929TIP3    H2 5752   1.499   2.888   5.665 -1.7536 -0.7406 -1.1087
 1930TIP3   OH2 5753   7.151   1.710   2.060  0.0423  0.2153 -0.5305
 1930TIP3    H1 5754   7.123   1.619   2.068  0.0984  0.3004  0.8306
 1930TIP3    H2 5755   7.229   1.707   2.006  0.0936 -0.5562 -0.4181
 1931TIP3   OH2 5756   5.458   2.900   1.214 -0.2489 -0.3809  0.1302
 1931TIP3    H1 5757   5.505   2.836   1.267  0.8673  0.7368  0.5274
 1931TIP3    H2 5758   5.460   2.864   1.125  2.4068  0.1490 -0.0980
 1932TIP3   OH2 5759   6.314   5.136   3.991 -0.1185  0.5419  0.3958
 1932TIP3    H1 5760   6.235   5.139   3.936 -0.3683 -2.4957  0.4370
 1932TIP3    H2 5761   6.386   5.156   3.931 -0.4873 -1.7279 -0.9057
 1933TIP3   OH2 5762   6.464   4.453   3.031  0.1933  0.4286 -0.3071
 1933TIP3    H1 5763   6.540   4.451   3.089 -1.2621  1.8360  1.7999
 1933TIP3    H2 5764   6.431   4.543   3.037 -3.2107 -0.7349  1.1144
 1934TIP3   OH2 5765   2.293   6.611   1.641  0.7157 -0.2511  0.2976
 1934TIP3    H1 5766   2.384   6.637   1.626  0.8957 -0.8665  0.2675
 1934TIP3    H2 5767   2.250   6.690   1.673  0.5558  0.8848 -2.4584
 1935TIP3   OH2 5768   5.698   6.722   1.664  0.1924  0.2429  0.3377
 1935TIP3    H1 5769   5.663   6.780   1.596  0.9668  1.3269  0.8321
 1935TIP3    H2 5770   5.645   6.740   1.741 -1.1627 -1.5121 -0.1219
 1936TIP3   OH2 5771   5.679   5.716   1.544 -0.1902  0.1162  0.7227
 1936TIP3    H1 5772   5.726   5.795   1.570  0.0074 -0.2031  1.3483
 1936TIP3    H2 5773   5.589   5.730   1.574 -0.8200  1.1996 -1.4213
 1937TIP3   OH2 5774   2.404   6.678   0.864 -0.0896  0.6244 -0.5948
 1937TIP3    H1 5775   2.336   6.618   0.894  1.2346 -0.6131  0.0746
 1937TIP3    H2 5776   2.459   6.691   0.941 -0.1210  2.4403 -0.8295
 1938TIP3   OH2 5777   3.979   0.107   4.795  0.0165 -0.1783  0.0020
 1938TIP3    H1 5778   3.972   0.045   4.722 -2.4369 -0.5217  0.4612
 1938TIP3    H2 5779   4.001   0.190   4.754 -0.7455 -0.4957 -1.0930
 1939TIP3   OH2 5780   0.992   3.515   5.853  0.2677  0.0081 -0.2589
 1939TIP3    H1 5781   0.943   3.595   5.831  0.9438  1.0421  1.7009
 1939TIP3    H2 5782   1.037   3.492   5.772  2.0059  3.1026 -0.3658
 1940TIP3   OH2 5783   5.478   3.506   2.144 -0.0360 -0.4513  0.1235
 1940TIP3    H1 5784   5.462   3.587   2.095 -0.0726 -0.0060  0.8555
 1940TIP3    H2 5785   5.411   3.505   2.212 -0.7968 -1.7197 -0.6212
 1941TIP3   OH2 5786   0.753   1.256   0.383  0.3019  0.1293  0.6764
 1941TIP3    H1 5787   0.728   1.322   0.447  0.0269  1.0829 -0.3756
 1941TIP3    H2 5788   0.832   1.216   0.418 -0.1842  0.2040  1.8931
 1942TIP3   OH2 5789   6.364   0.262   1.269  0.0138 -0.2681  0.9317
 1942TIP3    H1 5790   6.318   0.186   1.305 -0.7680 -0.4586 -0.3928
 1942TIP3    H2 5791   6.324   0.275   1.183  1.1819  0.7203  0.5137
 1943TIP3   OH2 5792   6.223   6.389   4.226 -0.0484  0.0809 -0.0900
 1943TIP3    H1 5793   6.181   6.304   4.232 -0.4601  0.3366  1.0144
 1943TIP3    H2 5794   6.241   6.401   4.133 -1.5539 -0.4571 -0.4772
 1944TIP3   OH2 5795   2.065   1.716   3.083 -0.1835 -0.2320 -0.1462
 1944TIP3    H1 5796   2.079   1.743   2.993  2.3712 -1.1605 -0.1216
 1944TIP3    H2 5797   1.986   1.662   3.080 -0.7604  0.6354 -1.5927
 1945TIP3   OH2 5798   5.188   5.966   4.392  0.5416 -0.5875 -0.2763
 1945TIP3    H1 5799   5.165   5.893   4.450 -2.6075  0.8266  0.4442
 1945TIP3    H2 5800   5.113   5.973   4.333  2.2446  0.0739 -2.4939
 1946TIP3   OH2 5801   3.427   6.055   0.890  0.1091 -0.0837  0.0538
 1946TIP3    H1 5802   3.447   6.015   0.975 -1.2614 -1.4192 -0.2097
 1946TIP3    H2 5803   3.389   6.140   0.911  1.8404  0.5756  0.6749
 1947TIP3   OH2 5804   2.856   2.063   4.904 -0.1531  0.3853  1.0035
 1947TIP3    H1 5805   2.915   2.098   4.971  0.3097 -0.9011  1.3055
 1947TIP3    H2 5806   2.900   2.080   4.821 -0.0679  0.7662  1.1278
 1948TIP3   OH2 5807   4.410   5.169   2.175 -0.0048  0.2091 -0.2269
 1948TIP3    H1 5808   4.392   5.078   2.149  0.2598 -0.4879  1.8025
 1948TIP3    H2 5809   4.486   5.194   2.123 -0.1367 -0.6930 -0.8848
 1949TIP3   OH2 5810   2.808   5.742   4.542 -0.2568  0.0973 -0.0189
 1949TIP3    H1 5811   2.876   5.804   4.568 -0.0336  0.3841 -1.2543
 1949TIP3    H2 5812   2.726   5.787   4.563 -0.0878  0.5529 -0.3257
 1950TIP3   OH2 5813   5.842   5.480   4.560  0.0186 -0.2857 -0.2728
 1950TIP3    H1 5814   5.900   5.435   4.498  0.7349 -1.2527  1.0664
 1950TIP3    H2 5815   5.773   5.417   4.578 -0.2729  0.0528 -0.2039
 1951TIP3   OH2 5816   6.638   4.250   5.209 -0.0538  0.9221  1.3805
 1951TIP3    H1 5817   6.637   4.215   5.298 -2.6511  1.1978  1.5605
 1951TIP3    H2 5818   6.588   4.186   5.158  1.8324  0.5032 -0.0533
 1952TIP3   OH2 5819   6.217   5.765   1.956 -0.2927 -0.6430 -0.1708
 1952TIP3    H1 5820   6.297   5.748   1.907  0.0478 -0.1871  0.2112
 1952TIP3    H2 5821   6.196   5.856   1.937 -0.7767 -0.7864 -0.3428
 1953TIP3   OH2 5822   3.424   1.677   4.645 -0.2331 -0.2487  0.4527
 1953TIP3    H1 5823   3.406   1.585   4.629 -1.9482  0.5521 -3.6865
 1953TIP3    H2 5824   3.519   1.686   4.636  0.0275 -1.6654  1.6047
 1954TIP3   OH2 5825   3.458   3.324   4.369  0.5972  0.5547  0.1443
 1954TIP3    H1 5826   3.536   3.281   4.336  1.1549  1.0966  0.7170
 1954TIP3    H2 5827   3.444   3.398   4.309  0.3373  0.2817 -0.1371
 1955TIP3   OH2 5828   1.917   4.716   2.563  0.2551  0.1416 -0.1952
 1955TIP3    H1 5829   2.001   4.678   2.589  0.3655 -0.6909 -1.6500
 1955TIP3    H2 5830   1.860   4.640   2.549  0.0189  0.5667 -1.6426
 1956TIP3   OH2 5831   4.494   1.329   2.932  0.1088  0.2332  0.3562
 1956TIP3    H1 5832   4.534   1.414   2.954  0.6693 -0.2425  1.2457
 1956TIP3    H2 5833   4.476   1.335   2.838  1.2668  0.8907  0.1545
 1957TIP3   OH2 5834   2.309   1.662   2.676 -0.3180 -0.0949  0.4747
 1957TIP3    H1 5835   2.297   1.643   2.583 -0.3022  1.3286  0.1555
 1957TIP3    H2 5836   2.233   1.714   2.700 -0.5412 -0.8169  1.3830
 1958TIP3   OH2 5837   7.174   4.072   4.251 -0.1966 -0.1321  0.0685
 1958TIP3    H1 5838   7.225   4.153   4.245 -0.5067 -0.0451 -1.9553
 1958TIP3    H2 5839   7.236   4.003   4.228 -0.8129 -0.0797 -1.8623
 1959TIP3   OH2 5840   4.430   2.273   4.242 -0.4921  0.3978  0.3705
 1959TIP3    H1 5841   4.402   2.275   4.151 -0.3946  1.5897  0.3495
 1959TIP3    H2 5842   4.393   2.353   4.280 -0.7660 -0.2255  1.4518
 1960TIP3   OH2 5843   1.745   2.109   3.939 -0.0144  0.2267  0.6876
 1960TIP3    H1 5844   1.826   2.082   3.982 -0.2151  0.0321  0.9473
 1960TIP3    H2 5845   1.773   2.172   3.872  0.1743  1.5891  2.0057
 1961TIP3   OH2 5846   5.396   5.151   0.423  0.4619  0.3410 -0.1242
 1961TIP3    H1 5847   5.448   5.223   0.459  2.5343 -0.6769 -0.9326
 1961TIP3    H2 5848   5.362   5.186   0.340  0.7851  0.6415 -0.1325
 1962TIP3   OH2 5849   6.984   2.879   4.970  0.1949 -0.0760  0.0241
 1962TIP3    H1 5850   7.077   2.861   4.983  0.0660  0.8571  3.2486
 1962TIP3    H2 5851   6.939   2.809   5.019 -0.7273  0.4247 -0.0895
 1963TIP3   OH2 5852   4.620   4.458   0.926 -0.2690  0.4016 -0.0085
 1963TIP3    H1 5853   4.616   4.397   0.852 -0.9309  0.0647  0.2942
 1963TIP3    H2 5854   4.692   4.517   0.905 -0.4639  0.3187 -0.9359
 1964TIP3   OH2 5855   6.113   4.508   1.327  0.0042  0.3649  0.3416
 1964TIP3    H1 5856   6.026   4.474   1.349  0.1029  0.6765  1.2431
 1964TIP3    H2 5857   6.096   4.591   1.282 -0.1524  0.7247  1.0592
 1965TIP3   OH2 5858   2.392   0.423   3.052  0.5904 -0.4915 -0.2659
 1965TIP3    H1 5859   2.336   0.455   3.124  2.6829 -0.9288  1.6740
 1965TIP3    H2 5860   2.359   0.468   2.974 -1.5362  0.3116  1.0072
 1966TIP3   OH2 5861   2.500   4.517   4.279  0.1289  0.1294  0.2838
 1966TIP3    H1 5862   2.509   4.550   4.369  2.3380  0.5388 -0.0170
 1966TIP3    H2 5863   2.448   4.437   4.288 -0.0345  0.3663  1.8740
 1967TIP3   OH2 5864   6.494   2.222   1.727  0.0387  0.3251 -0.7554
 1967TIP3    H1 5865   6.466   2.314   1.728 -1.5984 -0.1598 -0.3423
 1967TIP3    H2 5866   6.549   2.214   1.806  0.2002  0.9367 -0.7931
 1968TIP3   OH2 5867   4.359   1.107   2.780 -0.1287 -0.5493  0.3436
 1968TIP3    H1 5868   4.431   1.045   2.771  0.3948  0.2142 -1.0790
 1968TIP3    H2 5869   4.387   1.167   2.849  0.4985 -0.4177 -0.0162
 1969TIP3   OH2 5870   3.283   6.508   3.490 -0.5620 -0.5911  0.1748
 1969TIP3    H1 5871   3.231   6.469   3.560 -0.2905  3.2479  2.8215
 1969TIP3    H2 5872   3.370   6.468   3.500  0.3207  1.8114  4.1652
 1970TIP3   OH2 5873   2.497   4.665   5.559 -0.0814 -0.0149  0.0966
 1970TIP3    H1 5874   2.436   4.737   5.577  0.6988  0.4883  0.7915
 1970TIP3    H2 5875   2.583   4.707   5.556  0.2495 -0.7076 -0.8879
 1971TIP3   OH2 5876   4.094   2.220   1.549  0.3048  0.3205  0.2161
 1971TIP3    H1 5877   4.150   2.170   1.608 -0.5546 -0.2309  0.5906
 1971TIP3    H2 5878   4.139   2.304   1.539  1.4797 -0.3024  0.0328
 1972TIP3   OH2 5879   3.845   3.063   0.007  0.3189 -0.6448 -0.3915
 1972TIP3    H1 5880   3.922   3.006  -0.005  0.6993 -0.1301 -0.4312
 1972TIP3    H2 5881   3.811   3.039   0.093  1.0593 -0.2529  0.0253
 1973TIP3   OH2 5882   0.332   4.698   2.449  0.2227  0.2007  0.4031
 1973TIP3    H1 5883   0.339   4.651   2.532  1.0295  2.9723  2.0558
 1973TIP3    H2 5884   0.422   4.719   2.426  0.0836 -1.2091 -1.6966
 1974TIP3   OH2 5885   5.432   0.190   3.014 -0.1691  0.3175 -0.6048
 1974TIP3    H1 5886   5.403   0.109   3.054  0.1978  0.4595 -0.0363
 1974TIP3    H2 5887   5.498   0.163   2.950  0.3582  0.2150 -0.0174
 1975TIP3   OH2 5888   1.884   5.174   2.767  0.5100 -0.2803 -0.1530
 1975TIP3    H1 5889   1.810   5.140   2.818  0.6161 -0.3779 -0.0629
 1975TIP3    H2 5890   1.879   5.127   2.684 -0.3966  0.7744 -0.7163
 1976TIP3   OH2 5891   5.726   1.811   1.013 -0.7828  0.3289 -0.1686
 1976TIP3    H1 5892   5.714   1.794   1.107  0.5033  1.2096  0.1851
 1976TIP3    H2 5893   5.760   1.901   1.010  1.1481 -0.3827 -1.3294
 1977TIP3   OH2 5894   4.137   3.962   5.702  0.0765  0.1671 -0.1613
 1977TIP3    H1 5895   4.173   3.885   5.659 -0.8333 -0.3841  0.0315
 1977TIP3    H2 5896   4.213   4.018   5.719  0.6437 -0.3263 -1.0167
 1978TIP3   OH2 5897   6.519   6.250   4.802  0.0325 -0.2451  0.4412
 1978TIP3    H1 5898   6.483   6.164   4.780 -0.8879  0.1563  0.3438
 1978TIP3    H2 5899   6.472   6.276   4.881 -0.5669  0.7009 -0.2138
 1979TIP3   OH2 5900   6.235   6.675   5.557 -0.0499 -0.8099  0.1784
 1979TIP3    H1 5901   6.299   6.604   5.556 -0.3021 -1.0477 -1.3257
 1979TIP3    H2 5902   6.261   6.732   5.485 -0.9396 -0.3635  0.2008
 1980TIP3   OH2 5903   2.544   0.680   3.462  0.2017  0.0102  0.2813
 1980TIP3    H1 5904   2.456   0.712   3.445  0.1662  0.3937  1.1614
 1980TIP3    H2 5905   2.565   0.627   3.385 -0.3687  0.8098 -0.4532
 1981TIP3   OH2 5906   6.975   3.321   2.734 -0.1666 -0.2365  0.3944
 1981TIP3    H1 5907   6.957   3.388   2.669 -2.1718 -1.3730 -0.3036
 1981TIP3    H2 5908   6.925   3.348   2.811  0.4898 -0.0038  0.7460
 1982TIP3   OH2 5909   3.114   3.104   5.459 -0.4675 -0.3506  0.2288
 1982TIP3    H1 5910   3.187   3.044   5.478 -0.4528 -0.2142  0.6048
 1982TIP3    H2 5911   3.127   3.177   5.519 -0.0591  0.3935 -0.7490
 1983TIP3   OH2 5912   6.452   2.502   1.765 -0.0953  0.5189 -0.3904
 1983TIP3    H1 5913   6.538   2.521   1.803 -0.0396 -1.4329  0.5892
 1983TIP3    H2 5914   6.464   2.515   1.671  0.3294  3.4596 -0.0386
 1984TIP3   OH2 5915   0.277   4.956   2.203 -0.2494 -0.4116 -0.0807
 1984TIP3    H1 5916   0.312   5.023   2.261 -0.8529 -0.9942  0.9690
 1984TIP3    H2 5917   0.349   4.938   2.142 -0.1458  1.3208 -0.5418
 1985TIP3   OH2 5918   2.828   5.935   3.247 -0.1536 -0.2794 -0.1128
 1985TIP3    H1 5919   2.901   5.894   3.201 -1.0509 -0.5643 -1.3289
 1985TIP3    H2 5920   2.865   5.962   3.331  1.2937 -0.5784 -0.6268
 1986TIP3   OH2 5921   7.135   1.132   3.133  0.4337 -0.4343  0.5369
 1986TIP3    H1 5922   7.142   1.175   3.048  1.7134 -0.0565  0.8101
 1986TIP3    H2 5923   7.217   1.153   3.178  1.1766 -3.2565  0.6751
 1987TIP3   OH2 5924   2.889   4.338   4.399  0.5705  0.0070 -0.0460
 1987TIP3    H1 5925   2.817   4.327   4.461  0.8450 -1.7757 -0.0086
 1987TIP3    H2 5926   2.845   4.350   4.314  0.2320 -0.0985  0.1128
 1988TIP3   OH2 5927   4.529   3.646   1.075  0.5013 -0.3178  0.3228
 1988TIP3    H1 5928   4.446   3.685   1.049 -0.1382 -0.8245  1.5404
 1988TIP3    H2 5929   4.556   3.594   0.999 -0.7649 -0.8953  0.2453
 1989TIP3   OH2 5930   1.029   5.084   3.733 -0.0639 -0.9167 -0.3589
 1989TIP3    H1 5931   1.073   5.012   3.777  2.1453  0.2609 -0.5199
 1989TIP3    H2 5932   1.091   5.157   3.738 -2.5938  1.3439  0.7340
 1990TIP3   OH2 5933   6.014   4.072   5.484 -0.3734  0.4062 -0.2035
 1990TIP3    H1 5934   5.935   4.119   5.459 -0.3564  0.5617  0.0355
 1990TIP3    H2 5935   5.999   4.046   5.574  0.8541  2.6024  0.7090
 1991TIP3   OH2 5936   5.131   6.349   3.122  0.7814 -0.1449 -0.1817
 1991TIP3    H1 5937   5.134   6.421   3.185 -0.9769  1.1864 -1.5074
 1991TIP3    H2 5938   5.223   6.333   3.100  1.3942 -0.1977  2.1621
 1992TIP3   OH2 5939   3.240   6.462   1.834  0.4004  0.0788 -0.4372
 1992TIP3    H1 5940   3.326   6.420   1.839  0.5671  0.2183 -1.7846
 1992TIP3    H2 5941   3.254   6.540   1.781 -0.6119 -0.0501 -0.9230
 1993TIP3   OH2 5942   5.461   5.241   3.032 -0.3060  0.0458 -0.3603
 1993TIP3    H1 5943   5.535   5.273   3.084  0.7245 -1.5338 -0.7753
 1993TIP3    H2 5944   5.396   5.214   3.096 -0.2911  0.9151  0.0256
 1994TIP3   OH2 5945   6.227   0.712   3.108 -0.1325 -0.4270  0.4871
 1994TIP3    H1 5946   6.309   0.671   3.136  0.1670  0.5790  1.1112
 1994TIP3    H2 5947   6.240   0.805   3.124  0.2985  0.3950 -3.4235
 1995TIP3   OH2 5948   4.365   2.503   3.620  0.5264  0.3991  0.2728
 1995TIP3    H1 5949   4.304   2.437   3.652 -1.8848  3.0167  1.5212
 1995TIP3    H2 5950   4.383   2.558   3.696  0.2869  2.7040 -1.2503
 1996TIP3   OH2 5951   3.987   4.233   4.101  0.0786 -0.3517  0.1674
 1996TIP3    H1 5952   4.044   4.308   4.085 -1.2820  0.4882 -0.9657
 1996TIP3    H2 5953   4.047   4.160   4.116  1.4334  0.8188  0.6961
 1997TIP3   OH2 5954   6.252   2.222   2.930  0.4990  0.1169 -0.2613
 1997TIP3    H1 5955   6.214   2.216   3.018 -0.2370 -0.7318 -0.6343
 1997TIP3    H2 5956   6.346   2.230   2.946  0.3246  0.5663  0.6156
 1998TIP3   OH2 5957   3.411   2.649   5.360 -0.4432 -0.0383  0.0511
 1998TIP3    H1 5958   3.416   2.562   5.399 -1.5702  0.4876  1.4393
 1998TIP3    H2 5959   3.319   2.661   5.339 -0.5036  1.2523  0.9457
 1999TIP3   OH2 5960   0.069   2.269   0.645 -0.6736  0.6300 -0.5165
 1999TIP3    H1 5961   0.071   2.231   0.733  0.6493  0.4362 -0.6109
 1999TIP3    H2 5962   0.056   2.194   0.586  1.8043  0.2709 -0.6934
 2000TIP3   OH2 5963   0.907   6.485   0.778 -0.3872  0.7980  0.0331
 2000TIP3    H1 5964   0.957   6.495   0.697  0.1409  0.5764  0.3240
 2000TIP3    H2 5965   0.969   6.447   0.840 -1.3822 -1.1631 -0.0824
 2001TIP3   OH2 5966   4.084   4.430   0.905  0.2321 -0.4529  0.4422
 2001TIP3    H1 5967   4.009   4.423   0.846  1.0299 -1.8790 -0.4444
 2001TIP3    H2 5968   4.157   4.392   0.856  1.7224  1.5201  1.0104
 2002TIP3   OH2 5969   4.756   1.384   5.258  0.6417 -0.1866  0.2402
 2002TIP3    H1 5970   4.805   1.302   5.260  0.7965 -0.0952  0.1911
 2002TIP3    H2 5971   4.728   1.397   5.349 -0.9753 -1.2494 -0.0684
 2003TIP3   OH2 5972   0.470   3.544   4.961 -0.0442 -0.0111  0.4522
 2003TIP3    H1 5973   0.515   3.607   5.018  1.7045 -0.8739  0.0686
 2003TIP3    H2 5974   0.459   3.466   5.015  0.3180 -0.3341  0.0614
 2004TIP3   OH2 5975   6.151   5.533   0.219 -0.2089 -0.0057 -0.1977
 2004TIP3    H1 5976   6.125   5.443   0.203 -0.6795  0.2842 -1.1383
 2004TIP3    H2 5977   6.069   5.579   0.237  0.0015  0.2933  0.0087
 2005TIP3   OH2 5978   5.117   2.669   3.720  0.0936  0.1865 -0.3399
 2005TIP3    H1 5979   5.126   2.584   3.677 -0.6318  0.5445 -1.2497
 2005TIP3    H2 5980   5.027   2.670   3.753  0.9069 -0.4486  2.0638
 2006TIP3   OH2 5981   2.234   5.229   5.614 -0.7250 -0.4102 -0.6849
 2006TIP3    H1 5982   2.226   5.161   5.681 -1.3111 -0.2993 -0.6378
 2006TIP3    H2 5983   2.258   5.308   5.663  1.3863 -0.8540 -0.8788
 2007TIP3   OH2 5984   3.759   5.912   3.467  0.1610 -0.0269 -0.2335
 2007TIP3    H1 5985   3.732   5.828   3.505 -1.3051  1.0049  1.1741
 2007TIP3    H2 5986   3.847   5.897   3.435  0.5599 -1.6740  1.4566
 2008TIP3   OH2 5987   0.681   0.745   0.329  0.1098 -0.5200  0.6031
 2008TIP3    H1 5988   0.707   0.721   0.241 -0.2927 -1.9119  0.8376
 2008TIP3    H2 5989   0.755   0.719   0.384  0.3205  0.2531  0.6957
 2009TIP3   OH2 5990   4.902   3.729   4.343  0.1807  0.3105  0.3876
 2009TIP3    H1 5991   4.825   3.785   4.345  0.9082  1.3406  0.7123
 2009TIP3    H2 5992   4.933   3.734   4.252 -1.0776 -1.4765 -0.1810
 2010TIP3   OH2 5993   3.048   5.372   0.038 -0.3773  0.4123  0.5808
 2010TIP3    H1 5994   2.970   5.328   0.070  0.8166 -0.8973  1.7860
 2010TIP3    H2 5995   3.116   5.353   0.102  1.4912 -0.2427 -1.4395
 2011TIP3   OH2 5996   2.521   3.014   1.111 -0.0613 -0.1198  0.0244
 2011TIP3    H1 5997   2.585   3.052   1.171 -0.6967  0.7156  0.1827
 2011TIP3    H2 5998   2.453   3.080   1.103 -0.1994 -0.3962 -1.2903
 2012TIP3   OH2 5999   4.866   5.631   3.480 -0.4900 -0.2528  0.1466
 2012TIP3    H1 6000   4.943   5.611   3.427 -0.7887  1.8651 -1.1981
 2012TIP3    H2 6001   4.889   5.600   3.568  0.6795 -2.3358 -0.8290
 2013TIP3   OH2 6002   5.202   4.726   2.733  0.4271 -0.1990 -0.1694
 2013TIP3    H1 6003   5.206   4.805   2.678  2.3064  0.1273  0.3970
 2013TIP3    H2 6004   5.141   4.669   2.686 -0.0167  1.0800 -1.2444
 2014TIP3   OH2 6005   0.562   4.687   0.323 -0.2418  0.4114 -1.1725
 2014TIP3    H1 6006   0.577   4.701   0.416 -3.9297  0.1798 -0.3598
 2014TIP3    H2 6007   0.567   4.774   0.284  0.2793  0.6576 -0.5683
 2015TIP3   OH2 6008   2.442   3.034   5.222  0.3334  0.0685 -0.6785
 2015TIP3    H1 6009   2.491   2.962   5.185  1.8545  1.0274 -0.6018
 2015TIP3    H2 6010   2.369   2.993   5.269  1.2586 -1.4119 -0.4938
 2016TIP3   OH2 6011   4.766   6.238   1.094 -0.4365 -0.0950  0.0199
 2016TIP3    H1 6012   4.718   6.170   1.141 -0.2894  0.4409  0.9765
 2016TIP3    H2 6013   4.843   6.193   1.060  0.0078 -0.2810  1.2231
 2017TIP3   OH2 6014   3.568   2.123   0.155  0.3325 -0.1316 -0.3753
 2017TIP3    H1 6015   3.652   2.165   0.171  0.9512 -1.6260  0.5215
 2017TIP3    H2 6016   3.525   2.122   0.241 -1.8828  3.0796 -1.2559
 2018TIP3   OH2 6017   0.012   5.545   0.835 -0.1749  0.1024 -0.6057
 2018TIP3    H1 6018  -0.074   5.512   0.809 -0.1291 -1.0480  0.5890
 2018TIP3    H2 6019   0.074   5.486   0.792 -0.0405 -0.1942 -0.0146
 2019TIP3   OH2 6020   6.394   2.039   5.131  0.3423  0.1047  1.1246
 2019TIP3    H1 6021   6.329   1.989   5.081 -0.6926  0.3674  2.1758
 2019TIP3    H2 6022   6.417   1.982   5.204  0.2622  0.5830  1.5213
 2020TIP3   OH2 6023   5.147   0.369   1.061  0.4558 -0.7915 -0.8161
 2020TIP3    H1 6024   5.139   0.429   1.134  0.0530 -1.2020 -0.5147
 2020TIP3    H2 6025   5.227   0.319   1.079 -0.2278 -1.6606 -0.0582
 2021TIP3   OH2 6026   6.527   2.270   2.959 -0.0773 -0.0712  0.4295
 2021TIP3    H1 6027   6.599   2.209   2.979 -0.5956 -0.4542  1.1915
 2021TIP3    H2 6028   6.548   2.349   3.010  0.7949  0.5638 -0.8566
 2022TIP3   OH2 6029   5.656   3.977   4.456  0.2161  0.4487  0.1961
 2022TIP3    H1 6030   5.711   4.043   4.412  1.1021 -0.9333 -0.8382
 2022TIP3    H2 6031   5.674   3.990   4.549  0.6982  1.3933 -0.0170
 2023TIP3   OH2 6032   1.934   4.200   0.372  0.6670 -0.0827  0.3738
 2023TIP3    H1 6033   2.026   4.180   0.353  0.4476 -3.7452  2.3403
 2023TIP3    H2 6034   1.899   4.231   0.289  3.4015  0.4353 -0.7008
 2024TIP3   OH2 6035   6.212   0.751   0.999  0.0759  0.4475  0.5037
 2024TIP3    H1 6036   6.162   0.670   0.994  1.1973 -0.3603  1.6301
 2024TIP3    H2 6037   6.300   0.723   1.027  0.4261  2.0733  1.1480
 2025TIP3   OH2 6038   5.416   1.452   4.523  0.0849 -0.2796 -0.3370
 2025TIP3    H1 6039   5.324   1.439   4.544 -0.0206  0.3541 -0.3925
 2025TIP3    H2 6040   5.460   1.460   4.608 -0.0618  0.3990 -0.3196
 2026TIP3   OH2 6041   3.077   1.212   2.091  0.6574  0.0554 -0.1997
 2026TIP3    H1 6042   3.130   1.140   2.058 -0.3701 -1.8273  2.0085
 2026TIP3    H2 6043   2.986   1.182   2.080  0.1093  1.8940 -1.0724
 2027TIP3   OH2 6044   7.000   6.158   1.832  0.1091 -0.0450 -0.1197
 2027TIP3    H1 6045   7.061   6.218   1.788  0.4803 -0.5224 -0.2635
 2027TIP3    H2 6046   6.944   6.215   1.884  0.3647  0.4419 -0.3703
 2028TIP3   OH2 6047   3.248   1.453   2.475  0.3792  0.1545  0.0876
 2028TIP3    H1 6048   3.195   1.376   2.494  0.2519 -0.0886 -1.2059
 2028TIP3    H2 6049   3.185   1.524   2.469  0.5065  0.4119  1.3879
 2029TIP3   OH2 6050   2.838   5.066   2.453 -0.2356 -0.4567  0.7050
 2029TIP3    H1 6051   2.822   5.051   2.360 -2.1949  0.5920  0.8022
 2029TIP3    H2 6052   2.894   5.144   2.456  1.4012 -1.5767  0.4105
 2030TIP3   OH2 6053   5.558   2.074   0.463 -0.4012 -0.3130  0.4766
 2030TIP3    H1 6054   5.612   2.059   0.540  0.2525 -0.9329 -0.0904
 2030TIP3    H2 6055   5.492   2.005   0.466 -1.3565  0.5881  1.3012
 2031TIP3   OH2 6056   4.564   1.260   1.736 -0.3294  0.5680  0.1065
 2031TIP3    H1 6057   4.503   1.272   1.663  1.1628  0.6397 -1.1896
 2031TIP3    H2 6058   4.531   1.317   1.805 -0.4072  2.5168 -1.4391
 2032TIP3   OH2 6059   1.577   0.391   5.501 -0.4126  0.0736  0.5248
 2032TIP3    H1 6060   1.633   0.469   5.501  1.0461 -0.9320  1.0474
 2032TIP3    H2 6061   1.539   0.388   5.414 -0.1732  1.1451  0.3708
 2033TIP3   OH2 6062   0.682   2.681   2.172 -0.1492  0.0127  0.2719
 2033TIP3    H1 6063   0.697   2.588   2.188  2.4045  0.0196 -1.4130
 2033TIP3    H2 6064   0.685   2.721   2.258  2.6906 -1.0729  0.7914
 2034TIP3   OH2 6065   3.416   4.057   4.935  0.1297  0.5059  0.5450
 2034TIP3    H1 6066   3.480   4.121   4.903  2.2080 -0.9444  1.5757
 2034TIP3    H2 6067   3.404   4.080   5.027 -0.0561  0.1504  0.6083
 2035TIP3   OH2 6068   6.331   3.095   2.287 -0.2163 -0.0154 -0.4892
 2035TIP3    H1 6069   6.300   3.181   2.315  0.6622 -0.1296  0.9814
 2035TIP3    H2 6070   6.280   3.074   2.209 -1.0323  1.4642 -0.3785
 2036TIP3   OH2 6071   3.614   0.621   5.629 -0.0881  0.1458  0.2150
 2036TIP3    H1 6072   3.559   0.614   5.707  0.1989 -0.4470  0.3701
 2036TIP3    H2 6073   3.683   0.682   5.654  0.5889 -0.8132  0.7948
 2037TIP3   OH2 6074   6.986   4.351   2.215 -0.6397  0.3077 -0.6361
 2037TIP3    H1 6075   6.966   4.260   2.193 -0.6392  0.2733 -0.4962
 2037TIP3    H2 6076   6.912   4.401   2.179  0.4058  0.5055 -2.6410
 2038TIP3   OH2 6077   5.867   3.766   3.133  0.1519  0.1423  0.0657
 2038TIP3    H1 6078   5.806   3.695   3.157  0.0665 -0.2143 -1.1418
 2038TIP3    H2 6079   5.813   3.827   3.082 -0.2663  2.1040  2.6437
 2039TIP3   OH2 6080   1.962   6.817   5.094 -0.5373  0.4494  0.1465
 2039TIP3    H1 6081   2.020   6.774   5.157 -0.5731  1.5286  0.9466
 2039TIP3    H2 6082   1.877   6.818   5.138 -0.5687  1.1786  0.0707
 2040TIP3   OH2 6083   1.199   1.479   3.525 -0.2904 -0.0425  0.8336
 2040TIP3    H1 6084   1.117   1.485   3.573 -0.6782 -1.7210  0.4335
 2040TIP3    H2 6085   1.222   1.387   3.527 -0.2254 -0.1940 -1.9984
 2041TIP3   OH2 6086   2.222   0.811   4.935  0.3375  0.4809 -0.1392
 2041TIP3    H1 6087   2.156   0.845   4.873  1.4229 -0.1045 -1.6820
 2041TIP3    H2 6088   2.304   0.852   4.907  0.9959 -0.4485  0.3862
 2042TIP3   OH2 6089   4.687   2.383   1.747 -0.8626 -0.1236  0.0176
 2042TIP3    H1 6090   4.680   2.288   1.755 -1.1222 -0.0053  1.3097
 2042TIP3    H2 6091   4.780   2.402   1.761 -1.0719 -0.0544  1.4037
 2043TIP3   OH2 6092   3.005   1.103   3.395  0.0562 -0.1792  0.4126
 2043TIP3    H1 6093   2.994   1.186   3.349 -1.0948 -0.0532  0.8843
 2043TIP3    H2 6094   2.927   1.096   3.450  0.1666 -1.5571  0.4110
 2044TIP3   OH2 6095   6.055   2.040   4.782  0.0648  0.4760 -0.0405
 2044TIP3    H1 6096   5.963   2.042   4.809 -0.1260  0.1951 -0.6655
 2044TIP3    H2 6097   6.053   2.014   4.690  0.8530 -0.8149  0.2852
 2045TIP3   OH2 6098   6.898   0.212   4.800  0.0530  0.1334  0.1501
 2045TIP3    H1 6099   6.963   0.276   4.829  0.1187 -0.0702  0.4534
 2045TIP3    H2 6100   6.880   0.236   4.709 -1.0801  1.5560  0.6988
 2046TIP3   OH2 6101   2.183   5.221   4.086 -0.4071  0.2326  0.0785
 2046TIP3    H1 6102   2.277   5.218   4.104 -0.5927 -1.2547  0.9429
 2046TIP3    H2 6103   2.147   5.276   4.155 -0.1496  1.0881 -0.4520
 2047TIP3   OH2 6104   2.149   2.234   1.788  0.3204 -0.5276 -0.4802
 2047TIP3    H1 6105   2.179   2.158   1.837  0.9244 -0.0926 -0.1721
 2047TIP3    H2 6106   2.159   2.308   1.848 -1.7772 -0.4045 -0.2004
 2048TIP3   OH2 6107   1.854   2.755   3.331 -0.0691  0.5240  0.4007
 2048TIP3    H1 6108   1.782   2.817   3.324  0.5598  1.4626  1.8153
 2048TIP3    H2 6109   1.849   2.722   3.421  0.4291 -0.4537  0.0868
 2049TIP3   OH2 6110   5.587   5.284   0.953 -0.4024  0.1796 -0.8461
 2049TIP3    H1 6111   5.627   5.212   1.002 -0.8781  1.5460  1.7348
 2049TIP3    H2 6112   5.597   5.259   0.861  0.6618 -2.4961 -0.1018
 2050TIP3   OH2 6113   2.156   1.922   0.543  0.1607  0.5694 -0.5085
 2050TIP3    H1 6114   2.091   1.992   0.536 -1.5116 -0.8148  0.4838
 2050TIP3    H2 6115   2.132   1.859   0.475  1.0187  0.4423 -0.7111
 2051TIP3   OH2 6116   2.322   0.664   5.114  0.3893  0.5879 -0.7402
 2051TIP3    H1 6117   2.287   0.725   5.049 -1.3965 -1.6979 -2.0763
 2051TIP3    H2 6118   2.251   0.603   5.131  1.3213  0.1564  2.2893
 2052TIP3   OH2 6119   6.750   4.232   2.426  0.5112 -0.0525  0.7221
 2052TIP3    H1 6120   6.748   4.233   2.330  0.4522 -0.5864  0.7126
 2052TIP3    H2 6121   6.662   4.259   2.453  0.9499  1.5414  0.6546
 2053TIP3   OH2 6122   4.895   1.790   3.154  0.2598  0.0554 -0.1404
 2053TIP3    H1 6123   4.913   1.820   3.243 -0.1571  1.7045 -0.5722
 2053TIP3    H2 6124   4.917   1.865   3.099 -0.7034 -0.4934 -1.3184
 2054TIP3   OH2 6125   0.495   1.604   0.211 -0.3132  0.3707  0.3299
 2054TIP3    H1 6126   0.499   1.511   0.191  0.3348  0.6315 -0.8502
 2054TIP3    H2 6127   0.587   1.631   0.219 -0.5020  0.8292  1.1253
 2055TIP3   OH2 6128   6.509   5.786   0.182 -0.4686 -0.1511 -0.1880
 2055TIP3    H1 6129   6.442   5.824   0.238 -1.0468 -1.7213  0.2556
 2055TIP3    H2 6130   6.569   5.742   0.243  0.7949  0.9311 -0.6031
 2056TIP3   OH2 6131   7.202   1.524   0.488 -0.4216 -0.0189  0.0392
 2056TIP3    H1 6132   7.231   1.433   0.496  0.0170  0.1676  0.6334
 2056TIP3    H2 6133   7.178   1.533   0.396 -1.0252 -0.8957  0.0923
 2057TIP3   OH2 6134   4.126   1.883   5.807 -0.4881 -0.4879 -0.2002
 2057TIP3    H1 6135   4.178   1.941   5.752  0.3706 -1.8154 -0.8551
 2057TIP3    H2 6136   4.049   1.934   5.830  0.3520  0.9793 -0.5357
 2058TIP3   OH2 6137   5.497   3.240   0.026 -0.3370  0.4163  0.1657
 2058TIP3    H1 6138   5.417   3.225   0.077 -0.0864 -0.8932  0.1876
 2058TIP3    H2 6139   5.512   3.159  -0.022  1.2409  0.4671  0.5126
 2059TIP3   OH2 6140   5.087   2.299   1.302  0.6355  0.3253 -0.0922
 2059TIP3    H1 6141   5.145   2.298   1.225  1.2027 -0.9164  0.3280
 2059TIP3    H2 6142   5.005   2.260   1.271  0.5317  0.7086 -0.3063
 2060TIP3   OH2 6143   4.419   1.811   1.169 -0.0462  0.4123 -0.3684
 2060TIP3    H1 6144   4.335   1.770   1.193 -0.4121  1.8821  1.0663
 2060TIP3    H2 6145   4.415   1.820   1.074 -2.3304  2.0012 -0.2201
 2061TIP3   OH2 6146   2.917   1.252   1.267  0.2110  0.2725  0.0239
 2061TIP3    H1 6147   2.857   1.179   1.254  0.1470 -0.0308  1.7731
 2061TIP3    H2 6148   2.950   1.240   1.356  3.0473  0.3094 -0.9207
 2062TIP3   OH2 6149   6.311   0.373   1.020 -0.2804 -0.1325  0.2988
 2062TIP3    H1 6150   6.397   0.409   1.000 -0.0798 -0.7366  0.0567
 2062TIP3    H2 6151   6.296   0.307   0.952 -1.2172  0.4144 -0.0496
 2063TIP3   OH2 6152   4.978   5.449   4.260  0.1869  0.1540  0.0011
 2063TIP3    H1 6153   4.943   5.538   4.268 -0.8216 -0.1141 -1.1755
 2063TIP3    H2 6154   4.937   5.400   4.331  1.3540  0.7759  1.1558
 2064TIP3   OH2 6155   1.899   4.517   3.801  1.0219 -0.8383 -0.4323
 2064TIP3    H1 6156   1.828   4.509   3.737  1.2174 -0.4462 -0.7072
 2064TIP3    H2 6157   1.970   4.560   3.752  0.8992  0.1955  0.2709
 2065TIP3   OH2 6158   0.772   0.115   5.680 -0.1488  0.8930  0.2174
 2065TIP3    H1 6159   0.687   0.153   5.658 -1.3589  0.3125  3.4228
 2065TIP3    H2 6160   0.816   0.183   5.731 -0.3516 -0.1858  1.8935
 2066TIP3   OH2 6161   0.278   0.084   2.202 -0.0408  0.2023 -0.3104
 2066TIP3    H1 6162   0.368   0.066   2.176 -0.4857  0.0901 -1.8465
 2066TIP3    H2 6163   0.236  -0.002   2.201 -0.6721  0.5004 -1.7071
 2067TIP3   OH2 6164   0.893   5.727   0.086  0.1111  0.1465 -0.0576
 2067TIP3    H1 6165   0.981   5.757   0.067  0.7052 -0.8454  1.0343
 2067TIP3    H2 6166   0.860   5.789   0.151 -0.5441  1.3298 -1.4521
 2068TIP3   OH2 6167   6.334   4.460   1.872  0.2424  0.0193  0.2437
 2068TIP3    H1 6168   6.342   4.446   1.966 -0.8899 -0.1085  0.3317
 2068TIP3    H2 6169   6.292   4.546   1.863  1.5403  0.6355 -0.1828
 2069TIP3   OH2 6170   1.516   3.613   1.315 -0.2612  0.1894  0.1902
 2069TIP3    H1 6171   1.458   3.678   1.353 -0.8223 -1.4018  2.2529
 2069TIP3    H2 6172   1.459   3.556   1.263 -0.0298  0.4183 -0.3228
 2070TIP3   OH2 6173   6.362   2.690   3.023 -0.7614  0.1233 -0.0309
 2070TIP3    H1 6174   6.368   2.647   3.108  0.5188 -0.4351 -0.3885
 2070TIP3    H2 6175   6.333   2.779   3.044  2.0495  0.8405  1.2898
 2071TIP3   OH2 6176   0.826   5.580   1.467 -0.9351 -0.4809  0.3221
 2071TIP3    H1 6177   0.771   5.642   1.514 -0.5171 -0.2454  0.5031
 2071TIP3    H2 6178   0.899   5.562   1.526 -1.8951 -2.4583  0.9986
 2072TIP3   OH2 6179   1.149   0.096   3.907  0.2971  0.4461  0.1378
 2072TIP3    H1 6180   1.187   0.061   3.826  1.0572  1.0919  0.1937
 2072TIP3    H2 6181   1.216   0.156   3.940 -0.0780  0.3144  1.1626
 2073TIP3   OH2 6182   1.524   6.697   1.246  1.3294  0.5331  0.5594
 2073TIP3    H1 6183   1.569   6.702   1.162  2.1455  0.5508  0.9948
 2073TIP3    H2 6184   1.486   6.784   1.257 -1.1316 -0.2143 -1.0447
 2074TIP3   OH2 6185   2.305   4.485   3.872  0.8600  0.0177  0.0715
 2074TIP3    H1 6186   2.355   4.481   3.791  0.2177  2.2502 -0.5280
 2074TIP3    H2 6187   2.215   4.502   3.844 -0.0536 -2.5306  1.1684
 2075TIP3   OH2 6188   7.158   3.850   2.091 -0.0243  0.1653  0.5932
 2075TIP3    H1 6189   7.243   3.867   2.050 -0.2658 -0.6423 -0.2644
 2075TIP3    H2 6190   7.177   3.846   2.185  1.1695 -1.5705  0.3229
 2076TIP3   OH2 6191   6.979   0.695   2.411  0.3668 -0.2518 -0.1232
 2076TIP3    H1 6192   7.051   0.665   2.466  1.2838 -1.2044 -1.7555
 2076TIP3    H2 6193   6.906   0.707   2.472  1.1151 -1.9495  1.2068
 2077TIP3   OH2 6194   5.321   2.312   0.711  0.2347  0.4417  0.1879
 2077TIP3    H1 6195   5.364   2.253   0.773 -0.0165  0.8113  0.7286
 2077TIP3    H2 6196   5.228   2.293   0.721  0.0557  1.7104  1.2192
 2078TIP3   OH2 6197   6.181   6.688   0.832 -0.2076 -0.0890  0.1811
 2078TIP3    H1 6198   6.114   6.746   0.868  0.1454  1.5159 -1.5855
 2078TIP3    H2 6199   6.246   6.681   0.902 -0.9669  0.4520  0.9679
 2079TIP3   OH2 6200   3.836   0.860   4.923 -0.4772  0.0199  0.4946
 2079TIP3    H1 6201   3.797   0.839   4.838 -0.0919  1.9362 -0.2109
 2079TIP3    H2 6202   3.765   0.849   4.986 -1.3710  0.6523 -0.3826
 2080TIP3   OH2 6203   3.229   3.376   1.706  0.0267  0.5635  0.4390
 2080TIP3    H1 6204   3.201   3.461   1.674 -0.5927  0.9923  2.0336
 2080TIP3    H2 6205   3.246   3.389   1.799  0.8734 -0.8307  0.5140
 2081TIP3   OH2 6206   5.698   5.166   0.475  0.5426 -0.5659 -0.2932
 2081TIP3    H1 6207   5.716   5.253   0.441  0.0014 -0.2682  0.1614
 2081TIP3    H2 6208   5.649   5.181   0.556  1.7574 -1.2487  0.6142
 2082TIP3   OH2 6209   2.387   3.935   0.768 -0.1130 -0.0617 -0.4928
 2082TIP3    H1 6210   2.385   4.001   0.700 -2.0020  2.0780  1.4600
 2082TIP3    H2 6211   2.321   3.871   0.742  0.3807 -0.1905 -1.4630
 2083TIP3   OH2 6212   0.442   6.734   3.711 -0.3201  0.0306  0.0395
 2083TIP3    H1 6213   0.535   6.738   3.732  0.2295 -1.6190 -1.8395
 2083TIP3    H2 6214   0.398   6.731   3.796  1.0049  4.3819  1.1314
 2084TIP3   OH2 6215   7.033   2.259   1.391 -0.3501  0.1011 -0.0229
 2084TIP3    H1 6216   6.947   2.283   1.425 -0.9512  1.6609 -2.4456
 2084TIP3    H2 6217   7.017   2.184   1.334  0.1605 -0.4780  0.5666
 2085TIP3   OH2 6218   4.795   6.517   0.274 -0.3123 -1.0206 -0.7708
 2085TIP3    H1 6219   4.885   6.534   0.302 -0.4296  0.9708 -1.4455
 2085TIP3    H2 6220   4.751   6.485   0.352  0.6467 -0.6566 -0.0638
 2086TIP3   OH2 6221   6.748   2.435   4.198 -0.0565  0.0404 -0.4036
 2086TIP3    H1 6222   6.687   2.424   4.125  0.7722  1.0705 -1.2783
 2086TIP3    H2 6223   6.796   2.515   4.177  1.0738 -0.3388  0.6560
 2087TIP3   OH2 6224   4.534   6.068   4.078  0.1751 -0.4279 -0.5540
 2087TIP3    H1 6225   4.468   5.998   4.082  0.7066 -0.8623  1.1411
 2087TIP3    H2 6226   4.595   6.048   4.149  1.2952  0.8230 -1.1264
 2088TIP3   OH2 6227   1.836   6.502   5.425 -0.0800 -0.3368 -0.4007
 2088TIP3    H1 6228   1.771   6.530   5.489 -0.3983 -1.7744 -0.0517
 2088TIP3    H2 6229   1.885   6.581   5.404 -1.4264  0.6219 -0.0745
 2089TIP3   OH2 6230   0.164   6.776   1.136 -0.1193  0.2627 -0.5246
 2089TIP3    H1 6231   0.140   6.793   1.227  1.0695 -1.0025  0.0732
 2089TIP3    H2 6232   0.118   6.695   1.114  1.2370 -0.5982 -0.3150
 2090TIP3   OH2 6233   1.575   1.159   2.908 -0.3636 -0.5736 -0.3095
 2090TIP3    H1 6234   1.521   1.083   2.888  0.0630 -1.4129  1.5463
 2090TIP3    H2 6235   1.665   1.131   2.891 -0.3610  0.8741 -3.5652
 2091TIP3   OH2 6236   0.715   1.000   3.507 -0.2487  0.2620  0.4118
 2091TIP3    H1 6237   0.741   0.944   3.580  0.7896  0.4219  0.1820
 2091TIP3    H2 6238   0.730   1.089   3.537 -1.9124  0.4543  0.7783
 2092TIP3   OH2 6239   3.823   1.635   2.964  0.0062  0.2550  0.1254
 2092TIP3    H1 6240   3.884   1.644   3.037  0.8307 -1.9095 -0.2496
 2092TIP3    H2 6241   3.845   1.552   2.923 -1.6918  0.5087 -1.4569
 2093TIP3   OH2 6242   5.051   5.728   5.070 -0.0805 -0.3004 -0.0264
 2093TIP3    H1 6243   5.093   5.667   5.130 -2.2210 -0.1631  1.7179
 2093TIP3    H2 6244   5.000   5.673   5.010  0.1528 -0.3368 -0.1916
 2094TIP3   OH2 6245   3.378   0.415   4.492  0.3523  0.1695 -0.3740
 2094TIP3    H1 6246   3.320   0.446   4.562 -0.0082  1.3801 -1.1579
 2094TIP3    H2 6247   3.356   0.323   4.481 -0.8708  0.4036 -0.0876
 2095TIP3   OH2 6248   0.780   6.047   0.702  0.1960 -0.2914  0.4209
 2095TIP3    H1 6249   0.732   6.130   0.701 -0.6928 -0.7648 -1.8372
 2095TIP3    H2 6250   0.863   6.067   0.745  0.2451  1.9133 -0.6063
 2096TIP3   OH2 6251   4.844   2.239   0.896  0.8467 -0.1110 -0.4026
 2096TIP3    H1 6252   4.831   2.306   0.829  0.2446 -0.6500 -0.8328
 2096TIP3    H2 6253   4.770   2.179   0.885  1.6236 -1.1132 -0.3257
 2097TIP3   OH2 6254   1.650   2.079   1.195 -0.5149  0.5227  0.2588
 2097TIP3    H1 6255   1.574   2.111   1.244 -0.7058 -1.5872  1.4531
 2097TIP3    H2 6256   1.722   2.082   1.257 -0.7497 -2.1577  0.7715
 2098TIP3   OH2 6257   0.611   5.104   0.974 -0.8555  0.2881  0.2847
 2098TIP3    H1 6258   0.689   5.156   0.953 -0.7258 -0.0527 -0.0751
 2098TIP3    H2 6259   0.578   5.075   0.889  0.1151 -1.7602  0.5366
 2099TIP3   OH2 6260   2.503   0.760   4.008 -0.3787  0.2041 -0.8466
 2099TIP3    H1 6261   2.568   0.692   3.988  0.9997  1.6848 -1.6284
 2099TIP3    H2 6262   2.510   0.822   3.936  0.1675  2.4527  1.0094
 2100TIP3   OH2 6263   4.828   0.785   4.089 -0.4533 -0.1111  0.2887
 2100TIP3    H1 6264   4.882   0.837   4.149  0.5924 -1.0705  0.2281
 2100TIP3    H2 6265   4.870   0.795   4.004 -1.6094  0.7949 -0.2026
 2101TIP3   OH2 6266   6.484   3.112   5.491  0.6242  0.3360  0.0321
 2101TIP3    H1 6267   6.449   3.024   5.482  0.5195  0.1567  1.8859
 2101TIP3    H2 6268   6.576   3.104   5.465  0.4300 -0.1380 -0.5356
 2102TIP3   OH2 6269   1.226   3.822   2.015 -0.1424  0.2545 -0.1458
 2102TIP3    H1 6270   1.284   3.804   2.089  1.2076  0.5435 -1.0862
 2102TIP3    H2 6271   1.139   3.800   2.047  0.5739 -1.0198  1.0506
 2103TIP3   OH2 6272   1.054   5.599   4.135  0.3942 -0.3043 -0.2320
 2103TIP3    H1 6273   1.052   5.649   4.053  0.3110  0.1000  0.0103
 2103TIP3    H2 6274   1.092   5.515   4.111  1.0751  0.0785 -0.5436
 2104TIP3   OH2 6275   3.499   6.705   4.146  0.1954  0.5808 -0.2624
 2104TIP3    H1 6276   3.535   6.655   4.073  1.8225  0.9604  0.2287
 2104TIP3    H2 6277   3.554   6.783   4.151  0.6857  0.1678  1.8750
 2105TIP3   OH2 6278   2.694   4.428   5.652 -0.1423  0.3562 -0.0668
 2105TIP3    H1 6279   2.775   4.380   5.634 -0.5066 -0.8001  1.1750
 2105TIP3    H2 6280   2.722   4.518   5.669  0.5933  0.5960 -2.2158
 2106TIP3   OH2 6281   0.194   3.209   3.227 -0.1492 -0.4297 -0.1044
 2106TIP3    H1 6282   0.187   3.217   3.323 -0.6564 -0.0449 -0.1701
 2106TIP3    H2 6283   0.104   3.216   3.196 -0.0432 -1.0941 -0.5769
 2107TIP3   OH2 6284   1.560   0.265   3.932 -0.0386  0.4154  0.4358
 2107TIP3    H1 6285   1.468   0.285   3.953 -0.1929  0.5745 -0.3684
 2107TIP3    H2 6286   1.562   0.257   3.837  0.7455  0.1867  0.4634
 2108TIP3   OH2 6287   4.652   6.006   2.800  0.0701 -0.2146  0.0555
 2108TIP3    H1 6288   4.618   5.919   2.781 -0.8457  0.0016  0.6396
 2108TIP3    H2 6289   4.739   5.990   2.836  0.2533 -0.8324 -0.6349
 2109TIP3   OH2 6290   6.358   4.441   5.244  0.7157 -0.1147 -0.3233
 2109TIP3    H1 6291   6.328   4.356   5.276  1.1128 -0.8143 -1.7167
 2109TIP3    H2 6292   6.439   4.458   5.294 -0.1052  0.1465  0.9664
 2110TIP3   OH2 6293   4.530   0.585   5.466 -0.6996 -0.2447  0.2090
 2110TIP3    H1 6294   4.545   0.622   5.554 -1.3523  0.4149  0.0606
 2110TIP3    H2 6295   4.615   0.550   5.440 -0.3813 -0.0347  0.9194
 2111TIP3   OH2 6296   4.983   0.330   2.137  0.5341 -0.5265 -0.1904
 2111TIP3    H1 6297   5.058   0.271   2.136  1.0134  0.0800 -1.1080
 2111TIP3    H2 6298   4.952   0.332   2.046 -1.3726 -1.7124  0.3640
 2112TIP3   OH2 6299   2.953   4.811   0.083 -0.5383 -0.0019  0.0089
 2112TIP3    H1 6300   3.030   4.821   0.026 -0.6750 -1.9715 -0.6046
 2112TIP3    H2 6301   2.947   4.894   0.130  0.5561  1.0979 -1.6595
 2113TIP3   OH2 6302   0.930   5.490   2.112 -0.4244  0.8257  0.8040
 2113TIP3    H1 6303   0.982   5.520   2.038  0.7967 -0.2882  1.1452
 2113TIP3    H2 6304   0.867   5.559   2.128 -1.3148  0.7059 -1.8095
 2114TIP3   OH2 6305   4.204   0.824   0.396 -0.4682  0.2094  0.6001
 2114TIP3    H1 6306   4.114   0.809   0.424 -0.7926 -0.5767 -0.7466
 2114TIP3    H2 6307   4.235   0.738   0.370  0.5600  0.5391  0.7111
 2115TIP3   OH2 6308   6.833   3.486   0.356  0.2183  0.4002  0.5377
 2115TIP3    H1 6309   6.794   3.473   0.270 -0.2938  0.5826  0.7426
 2115TIP3    H2 6310   6.884   3.406   0.372  2.2238  1.2975 -0.9230
 2116TIP3   OH2 6311   6.768   4.123   4.916  0.3318 -0.3109 -0.1337
 2116TIP3    H1 6312   6.727   4.208   4.904 -0.6014 -0.7840 -0.3679
 2116TIP3    H2 6313   6.799   4.099   4.828  1.0569  0.0089  0.0272
 2117TIP3   OH2 6314   3.779   0.137   5.115  0.5180 -0.2628  0.1003
 2117TIP3    H1 6315   3.704   0.196   5.118  0.6562 -0.0378 -0.6224
 2117TIP3    H2 6316   3.853   0.193   5.093  1.0437 -0.3624  1.5283
 2118TIP3   OH2 6317   4.678   5.275   3.598  0.3192 -0.2399  0.1285
 2118TIP3    H1 6318   4.681   5.290   3.692 -2.7935  2.4422 -0.0112
 2118TIP3    H2 6319   4.598   5.224   3.584 -1.3257  2.4889 -1.2062
 2119TIP3   OH2 6320   3.379   2.334   0.020  0.1861  0.2256  0.0418
 2119TIP3    H1 6321   3.422   2.346   0.105  1.3225  0.3063 -0.5212
 2119TIP3    H2 6322   3.363   2.240   0.014  1.1547  0.0570 -0.1249
 2120TIP3   OH2 6323   4.682   4.860   4.540 -0.2552  0.2633 -0.0854
 2120TIP3    H1 6324   4.692   4.765   4.550 -0.7336  0.2737  0.5367
 2120TIP3    H2 6325   4.746   4.897   4.600  0.1170  0.3381 -0.5248
 2121TIP3   OH2 6326   3.009   6.562   1.978 -0.0398  0.1949 -0.5235
 2121TIP3    H1 6327   2.930   6.598   1.937  1.8625  2.2275 -2.7361
 2121TIP3    H2 6328   3.052   6.514   1.908  0.2117 -1.8633  0.9673
 2122TIP3   OH2 6329   2.139   1.734   5.730 -0.1858  0.1327 -0.0334
 2122TIP3    H1 6330   2.052   1.773   5.719 -0.8406 -0.8317  1.4833
 2122TIP3    H2 6331   2.124   1.639   5.723  0.6915 -0.0577  0.5224
 2123TIP3   OH2 6332   1.728   1.760   2.086  0.1073  0.3304 -0.3664
 2123TIP3    H1 6333   1.676   1.748   2.007 -0.6048 -1.5212  0.3215
 2123TIP3    H2 6334   1.806   1.706   2.073  0.3341  0.5857 -0.0911
 2124TIP3   OH2 6335   2.979   0.378   1.739  0.2412  0.1372 -0.3969
 2124TIP3    H1 6336   2.910   0.361   1.675 -0.2070 -0.8314  0.3232
 2124TIP3    H2 6337   3.060   0.365   1.690 -0.0503  1.3319 -1.2660
 2125TIP3   OH2 6338   6.112   4.033   2.800  0.1141 -0.2288 -0.0152
 2125TIP3    H1 6339   6.165   4.092   2.747  0.3405 -0.9627 -0.6291
 2125TIP3    H2 6340   6.068   4.090   2.863 -0.5728  0.7554 -1.3204
 2126TIP3   OH2 6341   5.113   0.072   2.921 -0.0610  0.1988  0.9281
 2126TIP3    H1 6342   5.112   0.151   2.976 -0.8325 -0.1242  1.4025
 2126TIP3    H2 6343   5.036   0.081   2.866  0.5697  0.3941  0.0624
 2127TIP3   OH2 6344   2.473   6.714   4.178  0.8032  0.1826  0.3116
 2127TIP3    H1 6345   2.474   6.646   4.246  0.2851 -1.0041 -0.8229
 2127TIP3    H2 6346   2.542   6.688   4.117  0.2978  0.4194 -0.3731
 2128TIP3   OH2 6347   0.153   2.063   1.451  0.0006 -0.0308 -0.2202
 2128TIP3    H1 6348   0.122   1.974   1.432 -1.6691  0.4842 -0.0694
 2128TIP3    H2 6349   0.209   2.086   1.377 -2.5716  0.1707 -2.2505
 2129TIP3   OH2 6350   4.572   1.931   2.596  0.0412 -0.4811 -0.5024
 2129TIP3    H1 6351   4.498   1.974   2.639  0.9333  0.4985  0.0984
 2129TIP3    H2 6352   4.548   1.839   2.594 -0.1175 -0.5455  1.9725
 2130TIP3   OH2 6353   1.135   4.002   2.305  0.1961  0.6974 -0.1471
 2130TIP3    H1 6354   1.215   3.994   2.252  0.6196  0.7720  0.4697
 2130TIP3    H2 6355   1.138   4.091   2.339  0.3550  0.3842  0.6703
 2131TIP3   OH2 6356   7.145   4.533   4.433 -0.8723  0.1592 -0.5923
 2131TIP3    H1 6357   7.137   4.537   4.338 -0.0884  1.3350 -0.6401
 2131TIP3    H2 6358   7.232   4.499   4.449 -1.2623 -0.7146 -0.2728
 2132TIP3   OH2 6359   2.218   0.058   2.259  0.0155  0.7930 -0.4891
 2132TIP3    H1 6360   2.220   0.016   2.345  2.3576  0.5831 -0.5822
 2132TIP3    H2 6361   2.264   0.141   2.272  1.6487  0.1505 -1.7654
 2133TIP3   OH2 6362   7.192   3.147   2.588  0.6768 -0.0203 -0.6274
 2133TIP3    H1 6363   7.153   3.199   2.517  3.1415  0.9389 -1.3887
 2133TIP3    H2 6364   7.220   3.212   2.652  0.0036 -0.7606  0.4384
 2134TIP3   OH2 6365   0.573   3.452   2.247  0.1677  0.2987 -0.0660
 2134TIP3    H1 6366   0.668   3.448   2.241  0.1118  0.2249 -1.2079
 2134TIP3    H2 6367   0.555   3.516   2.316  1.0408  0.6525 -0.1612
 2135TIP3   OH2 6368   6.972   1.150   1.050  0.9237 -0.0901  0.0471
 2135TIP3    H1 6369   6.882   1.177   1.072  0.6675 -1.2972  0.6054
 2135TIP3    H2 6370   7.027   1.199   1.110  0.7127  1.2521 -0.8289
 2136TIP3   OH2 6371   4.636   3.060   5.133  0.2511  0.1855  0.7690
 2136TIP3    H1 6372   4.607   3.098   5.216  2.8373  2.1393  0.9089
 2136TIP3    H2 6373   4.725   3.094   5.121  1.4916 -3.1470 -0.8955
 2137TIP3   OH2 6374   5.459   2.763   0.973  0.2744 -0.2346  0.2896
 2137TIP3    H1 6375   5.513   2.702   0.923  1.1063 -1.2336  2.2773
 2137TIP3    H2 6376   5.393   2.793   0.911  0.8589 -1.8789 -1.2235
 2138TIP3   OH2 6377   1.390   3.450   4.192  0.2129  0.2019 -0.1799
 2138TIP3    H1 6378   1.410   3.388   4.262  0.3082  0.5742  0.1253
 2138TIP3    H2 6379   1.470   3.501   4.182 -0.2882  1.1406  0.4677
 2139TIP3   OH2 6380   6.213   3.656   1.565 -0.1166 -0.6314 -0.2230
 2139TIP3    H1 6381   6.289   3.618   1.522  0.8061 -0.2569  1.0198
 2139TIP3    H2 6382   6.208   3.612   1.650 -1.1252 -0.4512 -0.1719
 2140TIP3   OH2 6383   5.655   3.740   0.482  0.1539 -0.1115  0.0509
 2140TIP3    H1 6384   5.643   3.645   0.491 -0.3625 -0.1985 -1.3293
 2140TIP3    H2 6385   5.711   3.750   0.405  0.9794  0.6880  0.7373
 2141TIP3   OH2 6386   6.293   5.561   4.479  0.6457 -0.5307  0.5353
 2141TIP3    H1 6387   6.219   5.616   4.504 -1.5272 -2.8434 -0.4478
 2141TIP3    H2 6388   6.256   5.475   4.463  3.5183 -1.7465 -0.3730
 2142TIP3   OH2 6389   4.278   5.233   1.046 -0.0576  0.5210 -0.0742
 2142TIP3    H1 6390   4.300   5.141   1.060 -0.3073  0.4038 -0.4294
 2142TIP3    H2 6391   4.183   5.236   1.058 -0.1263  0.6244 -0.6068
 2143TIP3   OH2 6392   6.494   5.769   4.619 -0.4611  0.5360 -0.1965
 2143TIP3    H1 6393   6.432   5.698   4.603  1.4873 -1.3421  0.1028
 2143TIP3    H2 6394   6.572   5.725   4.653  0.7150  2.8820  0.3323
 2144TIP3   OH2 6395   2.801   0.918   2.608  0.6055  0.9130 -0.0307
 2144TIP3    H1 6396   2.897   0.919   2.611  0.5833  1.0139  1.4400
 2144TIP3    H2 6397   2.775   0.989   2.666 -0.3647 -0.0899  0.7975
 2145TIP3   OH2 6398   1.751   4.644   1.941 -0.1167  0.0719 -0.2288
 2145TIP3    H1 6399   1.682   4.581   1.964  0.5658 -0.5225  0.2339
 2145TIP3    H2 6400   1.829   4.611   1.984  0.3466  1.0448 -0.2855
 2146TIP3   OH2 6401   4.034   6.449   4.493  0.2580 -0.2138  0.3949
 2146TIP3    H1 6402   4.081   6.493   4.421  1.7677 -0.0386  1.4455
 2146TIP3    H2 6403   4.094   6.454   4.567 -1.6446  0.4310  1.9573
 2147TIP3   OH2 6404   5.126   0.314   0.426 -0.4463 -0.3640 -0.3615
 2147TIP3    H1 6405   5.034   0.328   0.447 -0.3214  1.0392 -0.7041
 2147TIP3    H2 6406   5.142   0.222   0.449 -1.6278 -0.3039  0.7741
 2148TIP3   OH2 6407   0.842   0.349   5.801 -0.5570  0.4159  0.8094
 2148TIP3    H1 6408   0.812   0.400   5.876 -0.1909 -0.6591  1.7089
 2148TIP3    H2 6409   0.938   0.355   5.806 -0.5326  0.3421  0.4264
 2149TIP3   OH2 6410   2.254   2.809   5.366 -0.5848 -0.6587 -0.8911
 2149TIP3    H1 6411   2.183   2.818   5.429 -0.3807 -2.5203 -0.3455
 2149TIP3    H2 6412   2.325   2.767   5.414  1.5189  2.4701 -1.0215
 2150TIP3   OH2 6413   5.177   2.869   3.276 -0.8149 -0.2501 -0.5183
 2150TIP3    H1 6414   5.176   2.829   3.363 -0.6368 -0.0789 -0.4362
 2150TIP3    H2 6415   5.270   2.890   3.261 -1.2562  3.7130  1.0830
 2151TIP3   OH2 6416   6.452   6.323   1.967  0.5255  0.1412 -0.1505
 2151TIP3    H1 6417   6.496   6.237   1.970 -0.9075 -0.6078 -0.0058
 2151TIP3    H2 6418   6.454   6.347   1.875 -0.5640 -0.8681 -0.4597
 2152TIP3   OH2 6419   0.746   2.701   3.532 -0.0601  0.3456  0.1230
 2152TIP3    H1 6420   0.798   2.769   3.490 -1.4936  0.2315 -2.0068
 2152TIP3    H2 6421   0.811   2.640   3.568  1.2340  1.8144  0.3708
 2153TIP3   OH2 6422   5.039   1.632   3.490  0.0846 -0.3460 -0.0862
 2153TIP3    H1 6423   5.004   1.653   3.576 -1.5766  2.8366 -1.3802
 2153TIP3    H2 6424   5.110   1.695   3.477 -1.3949  1.0157 -2.0066
 2154TIP3   OH2 6425   4.289   2.067   1.667 -0.2904 -0.4592 -0.0201
 2154TIP3    H1 6426   4.337   2.148   1.681  0.0201 -0.2793 -1.9651
 2154TIP3    H2 6427   4.257   2.043   1.755 -0.4025  1.7381  0.5849
 2155TIP3   OH2 6428   0.403   1.411   3.536  0.0405  0.0603 -0.0171
 2155TIP3    H1 6429   0.459   1.420   3.458 -0.7473 -1.0653 -0.7558
 2155TIP3    H2 6430   0.461   1.427   3.610  0.9794  0.4343 -0.8184
 2156TIP3   OH2 6431   7.044   2.294   3.780 -0.0293  0.2520  0.0434
 2156TIP3    H1 6432   6.983   2.256   3.717  1.0859 -0.3835 -0.7091
 2156TIP3    H2 6433   7.117   2.231   3.783  0.5009  0.8780  1.0568
 2157TIP3   OH2 6434   1.510   2.320   2.441 -0.1910 -0.1843  0.4181
 2157TIP3    H1 6435   1.450   2.246   2.433  1.4570 -1.7630  1.6673
 2157TIP3    H2 6436   1.503   2.347   2.532 -1.0731  1.5386 -0.1181
 2158TIP3   OH2 6437   2.015   2.573   2.586  0.6864 -0.4326  0.0582
 2158TIP3    H1 6438   2.105   2.544   2.595  0.9281  0.1672 -0.3619
 2158TIP3    H2 6439   2.019   2.668   2.586 -0.0896 -0.3794  1.3281
 2159TIP3   OH2 6440   1.265   3.120   5.750  0.2748  0.3307 -0.1108
 2159TIP3    H1 6441   1.318   3.175   5.692  0.3472  1.7042  1.2044
 2159TIP3    H2 6442   1.176   3.131   5.718  0.2839  1.2709  0.1446
 2160TIP3   OH2 6443   4.577   5.180   1.183  0.3170 -0.4355 -0.3586
 2160TIP3    H1 6444   4.512   5.150   1.119  0.5099  1.3662 -1.4862
 2160TIP3    H2 6445   4.646   5.114   1.181  0.1289 -0.6172 -1.7489
 2161TIP3   OH2 6446   0.080   6.156   1.574  0.2638  0.4114  0.2372
 2161TIP3    H1 6447   0.063   6.070   1.611  0.6837 -0.5252 -1.6371
 2161TIP3    H2 6448   0.051   6.217   1.642  0.3302 -1.1784  1.7745
 2162TIP3   OH2 6449   7.041   1.826   4.515  0.2105  0.4204  0.6883
 2162TIP3    H1 6450   7.117   1.781   4.476  0.3212  1.4468 -0.3077
 2162TIP3    H2 6451   6.999   1.871   4.442 -2.4824 -1.5991  0.8301
 2163TIP3   OH2 6452   1.675   2.138   4.647  0.3011 -0.4403 -0.2074
 2163TIP3    H1 6453   1.623   2.182   4.579  1.1301  1.5872  0.3944
 2163TIP3    H2 6454   1.692   2.206   4.712  0.6236 -2.0038  1.4265
 2164TIP3   OH2 6455   6.971   5.248   4.098  0.6370  0.4221 -0.4907
 2164TIP3    H1 6456   6.992   5.340   4.083  1.7334  0.5926  1.6892
 2164TIP3    H2 6457   6.976   5.208   4.011 -0.7547  2.5457 -1.6265
 2165TIP3   OH2 6458   2.315   6.218   1.507  0.4710  0.0528 -0.3991
 2165TIP3    H1 6459   2.404   6.235   1.479  0.6860  0.4509  0.4787
 2165TIP3    H2 6460   2.290   6.295   1.558 -0.8252  0.5173 -1.6625
 2166TIP3   OH2 6461   0.661   1.483   3.674 -0.1554 -0.0970 -0.6180
 2166TIP3    H1 6462   0.747   1.525   3.673 -0.4456  0.5520 -2.8757
 2166TIP3    H2 6463   0.615   1.524   3.747  1.0841  0.3198 -0.0557
 2167TIP3   OH2 6464   4.780   0.499   2.894 -0.4136  0.3468 -0.4316
 2167TIP3    H1 6465   4.766   0.424   2.836  0.5483  1.0951 -1.6691
 2167TIP3    H2 6466   4.875   0.509   2.897 -0.5302  1.3880 -0.1022
 2168TIP3   OH2 6467   4.734   6.508   3.398 -0.3174 -0.0894 -0.5091
 2168TIP3    H1 6468   4.685   6.552   3.328 -0.2529  1.4419  0.3732
 2168TIP3    H2 6469   4.826   6.513   3.369 -0.4127 -0.6548 -0.9317
 2169TIP3   OH2 6470   4.529   6.044   1.119  0.2002 -0.2705  0.0186
 2169TIP3    H1 6471   4.546   5.981   1.190 -0.2659 -0.7635 -0.2985
 2169TIP3    H2 6472   4.480   5.994   1.054  0.2887  0.2837 -0.4835
 2170TIP3   OH2 6473   1.457   6.750   2.588  0.3742  0.2576 -0.1761
 2170TIP3    H1 6474   1.534   6.760   2.644  0.3351 -0.3481 -0.0063
 2170TIP3    H2 6475   1.492   6.732   2.501  0.4882 -3.5139  0.5129
 2171TIP3   OH2 6476   0.562   2.526   0.055  0.1811 -0.8247  0.0122
 2171TIP3    H1 6477   0.522   2.538   0.141  0.0562 -0.4833 -0.0904
 2171TIP3    H2 6478   0.488   2.505  -0.003  0.3203 -1.5140  0.0709
 2172TIP3   OH2 6479   1.631   2.413   0.481 -0.8722  0.2714 -0.2386
 2172TIP3    H1 6480   1.607   2.379   0.395  1.1860 -0.8218 -0.4404
 2172TIP3    H2 6481   1.711   2.464   0.466  0.5689 -1.3948  1.2047
 2173TIP3   OH2 6482   1.890   2.752   4.717  0.0364  0.4965  0.5371
 2173TIP3    H1 6483   1.898   2.703   4.635  0.4243  2.9681 -0.9809
 2173TIP3    H2 6484   1.979   2.755   4.752  0.1643  0.7945  0.1971
 2174TIP3   OH2 6485   6.830   1.761   0.734 -0.1755 -0.3695  0.3135
 2174TIP3    H1 6486   6.879   1.681   0.718 -0.4333 -0.3506 -0.6410
 2174TIP3    H2 6487   6.824   1.767   0.829 -1.8389 -2.5348  0.4280
 2175TIP3   OH2 6488   2.206   6.270   0.742  0.2237 -0.6104 -0.3011
 2175TIP3    H1 6489   2.114   6.258   0.718  0.6300 -0.5007 -2.0817
 2175TIP3    H2 6490   2.209   6.252   0.836 -1.9275  1.2216  0.1982
 2176TIP3   OH2 6491   0.162   2.714   3.164  0.0350 -0.1377 -0.0658
 2176TIP3    H1 6492   0.093   2.654   3.193  0.2926  0.0490  0.9788
 2176TIP3    H2 6493   0.234   2.656   3.138  0.3684 -0.3102  1.1557
 2177TIP3   OH2 6494   5.285   3.049   0.031  0.1199 -0.0115  0.3033
 2177TIP3    H1 6495   5.201   3.090   0.054 -0.1605  0.3686 -1.3016
 2177TIP3    H2 6496   5.268   3.003  -0.051  1.1855 -0.9434  0.5834
 2178TIP3   OH2 6497   1.878   4.001   3.538  0.4459  0.1222 -0.1369
 2178TIP3    H1 6498   1.811   3.935   3.553  0.5392 -0.4066 -1.8481
 2178TIP3    H2 6499   1.833   4.084   3.553  0.5819 -0.2547  3.0201
 2179TIP3   OH2 6500   1.422   0.252   4.376  0.1302  0.2293  0.0027
 2179TIP3    H1 6501   1.388   0.170   4.341 -0.3125  0.7710 -0.8447
 2179TIP3    H2 6502   1.489   0.279   4.313  0.4415  0.4088  0.4019
 2180TIP3   OH2 6503   2.823   4.621   5.045  0.0087 -0.1306 -0.0427
 2180TIP3    H1 6504   2.888   4.612   4.975 -1.4946  1.8523 -1.8479
 2180TIP3    H2 6505   2.747   4.573   5.013 -0.1002 -0.7957  1.1538
 2181TIP3   OH2 6506   4.502   6.255   4.395 -0.1689  0.5345 -0.4607
 2181TIP3    H1 6507   4.429   6.195   4.410 -0.4672  1.2082  1.0557
 2181TIP3    H2 6508   4.463   6.328   4.347 -0.4580  0.7855  0.1425
 2182TIP3   OH2 6509   0.566   1.117   0.027 -0.7309 -0.0161 -0.6208
 2182TIP3    H1 6510   0.500   1.079   0.086 -0.5241  1.6179  0.7173
 2182TIP3    H2 6511   0.592   1.044  -0.029 -0.7166 -1.7296  1.5031
 2183TIP3   OH2 6512   5.553   5.117   1.674 -0.4461  0.1069 -0.6098
 2183TIP3    H1 6513   5.579   5.200   1.633 -1.3620 -0.2167 -1.9014
 2183TIP3    H2 6514   5.473   5.091   1.628 -0.7777 -0.9624  0.5115
 2184TIP3   OH2 6515   2.827   6.696   1.360 -0.1039  1.0862  1.1316
 2184TIP3    H1 6516   2.788   6.717   1.276 -1.0879  3.3630  2.0782
 2184TIP3    H2 6517   2.763   6.637   1.402  0.8366 -0.8409 -0.0158
 2185TIP3   OH2 6518   3.759   4.629   0.991 -0.0904 -0.4386 -0.4800
 2185TIP3    H1 6519   3.709   4.564   1.040 -0.7188  0.0443 -0.4824
 2185TIP3    H2 6520   3.707   4.645   0.912  0.2018 -0.1332 -0.6119
 2186TIP3   OH2 6521   4.226   1.415   4.080 -0.8338  0.3173  0.6863
 2186TIP3    H1 6522   4.179   1.342   4.120 -0.4669  0.8528  2.2005
 2186TIP3    H2 6523   4.247   1.386   3.992 -0.0746 -1.6970  1.4810
 2187TIP3   OH2 6524   7.039   5.888   2.137 -0.0303 -0.5276 -0.5564
 2187TIP3    H1 6525   7.087   5.966   2.108 -0.8133 -0.0702 -0.6452
 2187TIP3    H2 6526   7.082   5.815   2.091  2.0598 -0.4361  1.0925
 2188TIP3   OH2 6527   1.057   4.456   4.173  0.0466 -0.2101 -0.0268
 2188TIP3    H1 6528   1.090   4.491   4.091 -2.1783  1.5354 -0.2910
 2188TIP3    H2 6529   1.082   4.521   4.239  0.0574 -0.5661  0.3229
 2189TIP3   OH2 6530   3.389   6.138   3.596  0.4852  0.2976  0.9041
 2189TIP3    H1 6531   3.420   6.119   3.508 -0.5586 -0.9279  0.7762
 2189TIP3    H2 6532   3.431   6.222   3.618  1.5344  0.1468 -0.3538
 2190TIP3   OH2 6533   1.026   3.852   5.778 -0.5386 -0.1591  0.7523
 2190TIP3    H1 6534   0.942   3.887   5.808 -0.6875 -0.8868  1.1999
 2190TIP3    H2 6535   1.029   3.873   5.685 -0.7442  0.7979  0.9552
 2191TIP3   OH2 6536   5.686   4.353   2.426 -0.0652 -0.1079  0.3959
 2191TIP3    H1 6537   5.603   4.381   2.388 -0.1170 -0.9093 -0.0901
 2191TIP3    H2 6538   5.692   4.402   2.508 -1.2913 -0.4791  0.7213
 2192TIP3   OH2 6539   3.083   2.968   0.271  0.1842  0.4063 -0.0258
 2192TIP3    H1 6540   3.051   2.887   0.231  2.3519  0.2842 -1.6846
 2192TIP3    H2 6541   3.013   2.995   0.330 -0.6976 -2.5652  0.4500
 2193TIP3   OH2 6542   3.883   4.959   2.849  0.2116  0.3716  0.4059
 2193TIP3    H1 6543   3.907   5.051   2.848  0.8243  0.2244 -1.0405
 2193TIP3    H2 6544   3.889   4.931   2.758 -0.9129 -0.8648  0.6749
 2194TIP3   OH2 6545   7.207   6.242   3.042 -0.0183 -0.0008  0.1405
 2194TIP3    H1 6546   7.160   6.260   2.960  0.2115 -1.7095 -0.4076
 2194TIP3    H2 6547   7.158   6.292   3.108 -1.7857 -0.5980 -0.6337
 2195TIP3   OH2 6548   6.029   4.253   0.117 -0.3117  0.2618  0.1285
 2195TIP3    H1 6549   6.037   4.260   0.212 -0.2297 -0.6271  0.1952
 2195TIP3    H2 6550   5.983   4.333   0.091 -0.4774  0.4393  0.9333
 2196TIP3   OH2 6551   2.881   6.308   3.398 -0.0357  0.4239 -0.1934
 2196TIP3    H1 6552   2.946   6.330   3.465  2.4015  0.2599 -2.3182
 2196TIP3    H2 6553   2.933   6.275   3.325 -2.6124 -0.2473 -1.8559
 2197TIP3   OH2 6554   4.498   1.006   4.828 -0.3398 -0.4365 -0.3144
 2197TIP3    H1 6555   4.418   1.044   4.791 -1.8491 -0.6912  2.3901
 2197TIP3    H2 6556   4.549   1.081   4.858 -0.9070 -0.3162  0.3999
 2198TIP3   OH2 6557   2.796   6.308   1.236  0.2593  0.7908  0.1635
 2198TIP3    H1 6558   2.890   6.290   1.243  0.1573 -2.0288 -3.0136
 2198TIP3    H2 6559   2.787   6.360   1.157 -0.9437 -1.1090 -1.0375
 2199TIP3   OH2 6560   2.551   2.484   1.944 -0.5933  0.1173 -0.3306
 2199TIP3    H1 6561   2.598   2.560   1.909 -1.6085  1.3315  0.8526
 2199TIP3    H2 6562   2.551   2.497   2.038 -0.9455 -1.2881 -0.1151
 2200TIP3   OH2 6563   3.451   3.809   5.037 -0.1095  0.6176 -0.6063
 2200TIP3    H1 6564   3.360   3.781   5.048  0.1022 -0.6122 -1.7709
 2200TIP3    H2 6565   3.445   3.889   4.985 -0.5588  1.1389  0.2164
 2201TIP3   OH2 6566   1.078   2.727   2.836 -0.0120  0.0820  0.1362
 2201TIP3    H1 6567   1.138   2.743   2.763  2.0360 -0.7696  1.5501
 2201TIP3    H2 6568   1.134   2.699   2.908 -2.2745 -2.6661  1.0231
 2202TIP3   OH2 6569   5.597   3.008   1.733  1.0806 -0.1120  0.0585
 2202TIP3    H1 6570   5.512   2.966   1.718  2.2019 -1.8876 -1.7509
 2202TIP3    H2 6571   5.589   3.093   1.688 -0.1249  0.3205  1.0121
 2203TIP3   OH2 6572   4.763   1.403   0.094  0.3203  0.2022  0.6393
 2203TIP3    H1 6573   4.786   1.374   0.006 -0.3948 -0.7629  0.7557
 2203TIP3    H2 6574   4.847   1.418   0.137  0.7264 -1.2999  0.4295
 2204TIP3   OH2 6575   3.211   0.790   4.923  0.2736  0.4516 -0.3148
 2204TIP3    H1 6576   3.190   0.802   4.830  0.2220  1.1145 -0.2268
 2204TIP3    H2 6577   3.127   0.776   4.965  0.4286 -1.5568 -0.5806
 2205TIP3   OH2 6578   4.354   4.830   4.999 -0.3361  0.8078 -0.0326
 2205TIP3    H1 6579   4.263   4.821   5.029 -0.8563  2.7834 -0.8135
 2205TIP3    H2 6580   4.403   4.852   5.078 -0.6560  0.4484  0.2742
 2206TIP3   OH2 6581   5.314   1.876   1.449  0.1962  0.3066  0.0444
 2206TIP3    H1 6582   5.379   1.946   1.458 -0.3120  0.9540 -1.1608
 2206TIP3    H2 6583   5.231   1.918   1.470  0.0544 -0.3265  0.7928
 2207TIP3   OH2 6584   1.655   4.646   3.127 -0.6394 -0.1815  0.0518
 2207TIP3    H1 6585   1.604   4.597   3.192 -0.2674 -1.4052 -0.5608
 2207TIP3    H2 6586   1.743   4.650   3.164 -0.4507 -0.7929 -0.3264
 2208TIP3   OH2 6587   2.186   5.400   1.536 -0.3110 -0.3157  0.3012
 2208TIP3    H1 6588   2.182   5.377   1.443 -2.1799  0.2415  0.1950
 2208TIP3    H2 6589   2.213   5.319   1.579  0.9517 -0.4772 -0.7464
 2209TIP3   OH2 6590   6.589   6.766   3.364  0.2808  0.0039  0.0639
 2209TIP3    H1 6591   6.644   6.844   3.354 -0.8587  0.7278 -0.9599
 2209TIP3    H2 6592   6.604   6.716   3.284  1.9464 -1.5168  1.2486
 2210TIP3   OH2 6593   1.913   3.242   0.084 -0.0451 -0.5844 -0.6307
 2210TIP3    H1 6594   1.962   3.160   0.094  0.9506 -0.0198 -0.7590
 2210TIP3    H2 6595   1.861   3.249   0.165  0.3535 -1.0203 -0.3343
 2211TIP3   OH2 6596   6.876   5.151   3.085 -0.4206  0.0788 -0.3753
 2211TIP3    H1 6597   6.965   5.118   3.093 -0.1070  0.6934 -1.1619
 2211TIP3    H2 6598   6.885   5.246   3.080 -1.2470  0.2678  1.0978
 2212TIP3   OH2 6599   5.412   5.511   5.445 -0.1411  0.1030  0.2877
 2212TIP3    H1 6600   5.356   5.549   5.513  1.3779  2.3872  0.3708
 2212TIP3    H2 6601   5.461   5.585   5.410  2.6081 -1.7093  0.0154
 2213TIP3   OH2 6602   4.303   1.549   4.477 -0.3540 -0.1089  0.0849
 2213TIP3    H1 6603   4.384   1.559   4.527 -0.4581 -0.1935  0.2734
 2213TIP3    H2 6604   4.318   1.472   4.422  0.1068  0.5219 -0.7001
 2214TIP3   OH2 6605   1.056   3.489   3.764  0.4596  0.7100 -0.0030
 2214TIP3    H1 6606   1.134   3.537   3.791  0.1244  0.6249  1.1779
 2214TIP3    H2 6607   1.087   3.401   3.742  0.7281  0.7537  0.2088
 2215TIP3   OH2 6608   3.160   3.830   0.159  0.1897 -0.2549 -0.2725
 2215TIP3    H1 6609   3.077   3.781   0.157  0.7384 -1.2731  0.8164
 2215TIP3    H2 6610   3.151   3.889   0.234 -0.0594  0.5994 -0.9601
 2216TIP3   OH2 6611   0.871   2.731   5.025 -0.2130  0.3342  0.3234
 2216TIP3    H1 6612   0.943   2.789   5.051  1.1866 -1.4431  0.6635
 2216TIP3    H2 6613   0.861   2.745   4.931  0.2896  0.9092  0.3501
 2217TIP3   OH2 6614   0.754   3.462   4.687  0.4782 -0.1660  0.8303
 2217TIP3    H1 6615   0.704   3.465   4.769 -2.2363 -1.2351 -0.6788
 2217TIP3    H2 6616   0.809   3.384   4.696  0.8565  0.1930  1.9165
 2218TIP3   OH2 6617   4.431   1.367   0.026 -0.4129 -0.1240  0.3459
 2218TIP3    H1 6618   4.485   1.386   0.102  1.0918  0.3857 -0.8065
 2218TIP3    H2 6619   4.425   1.271   0.024  0.4430 -0.1890  0.5110
 2219TIP3   OH2 6620   4.250   6.006   5.611  0.3700 -0.1876  0.5910
 2219TIP3    H1 6621   4.166   5.977   5.648 -0.4068 -0.0745 -1.0232
 2219TIP3    H2 6622   4.236   6.008   5.517  1.9990  0.4779  0.3277
 2220TIP3   OH2 6623   1.398   4.484   4.256  0.3090  0.1153 -0.6287
 2220TIP3    H1 6624   1.337   4.550   4.223  0.5233  1.0022  0.6441
 2220TIP3    H2 6625   1.456   4.533   4.314  0.5519 -1.1820  0.2593
 2221TIP3   OH2 6626   0.533   5.970   5.325  0.4268 -0.3661 -0.6210
 2221TIP3    H1 6627   0.438   5.963   5.333  0.3141  1.3028 -0.2916
 2221TIP3    H2 6628   0.565   5.880   5.338 -1.0744 -0.9113 -0.5589
 2222TIP3   OH2 6629   5.037   6.234   5.659  0.4663 -0.1378 -0.0941
 2222TIP3    H1 6630   5.014   6.286   5.582 -0.1765 -1.0767 -0.5532
 2222TIP3    H2 6631   5.107   6.284   5.701  0.3440  0.7456 -0.8990
 2223TIP3   OH2 6632   3.509   0.843   1.022 -0.5879 -0.2535 -0.2838
 2223TIP3    H1 6633   3.587   0.799   1.057 -0.3374 -0.8875 -1.5788
 2223TIP3    H2 6634   3.482   0.902   1.092  0.3410 -0.9086  0.6654
 2224TIP3   OH2 6635   6.949   1.784   1.006  0.4289  0.0321 -0.5392
 2224TIP3    H1 6636   7.014   1.802   1.074  0.1065  1.8071 -0.6412
 2224TIP3    H2 6637   6.870   1.830   1.036 -0.1511 -0.3630 -1.4183
 2225TIP3   OH2 6638   1.954   4.289   1.343 -0.1273 -0.7240  0.7255
 2225TIP3    H1 6639   1.889   4.334   1.290 -0.8503 -0.9518  1.3990
 2225TIP3    H2 6640   2.024   4.353   1.355  0.1271 -0.7258 -0.6142
 2226TIP3   OH2 6641   1.154   6.371   1.516 -0.3049 -0.3012 -0.0044
 2226TIP3    H1 6642   1.199   6.434   1.460  0.3309 -1.7723 -1.2143
 2226TIP3    H2 6643   1.068   6.361   1.475 -1.0267  0.9247  1.1083
 2227TIP3   OH2 6644   1.978   4.500   2.075  1.0079 -0.0905 -0.1756
 2227TIP3    H1 6645   2.015   4.539   2.154  1.6986  0.3777 -0.7199
 2227TIP3    H2 6646   2.026   4.541   2.003 -0.0481 -0.0281 -0.8706
 2228TIP3   OH2 6647   3.377   3.112   2.051  0.3431 -0.1047  0.0321
 2228TIP3    H1 6648   3.463   3.093   2.090  0.0887  0.0936  0.6988
 2228TIP3    H2 6649   3.376   3.060   1.970  1.4353  0.5595 -0.4375
 2229TIP3   OH2 6650   2.071   1.087   0.385 -0.2238  0.0324  0.0124
 2229TIP3    H1 6651   2.124   1.125   0.455 -2.1574  0.4265  1.3430
 2229TIP3    H2 6652   2.133   1.038   0.331  1.4019  0.1362  1.7122
 2230TIP3   OH2 6653   2.919   1.031   4.865 -0.4176 -0.2354  0.0975
 2230TIP3    H1 6654   2.999   1.071   4.830 -0.5715  0.0312  0.0524
 2230TIP3    H2 6655   2.874   0.997   4.788 -1.1275  1.0145 -0.0587
 2231TIP3   OH2 6656   1.370   3.233   0.746 -0.1735 -0.3090  0.2673
 2231TIP3    H1 6657   1.398   3.261   0.659  1.4852  0.9207  1.1514
 2231TIP3    H2 6658   1.288   3.186   0.730  0.6251 -1.0749 -2.0595
 2232TIP3   OH2 6659   1.309   1.042   0.185 -0.4956  0.4221  0.2711
 2232TIP3    H1 6660   1.375   1.102   0.219 -1.9303  1.0454  2.1373
 2232TIP3    H2 6661   1.235   1.099   0.162 -0.8502 -0.3721 -0.6518
 2233TIP3   OH2 6662   5.409   5.484   0.436  0.1131  0.0880  0.2230
 2233TIP3    H1 6663   5.369   5.470   0.522 -2.0853  1.5138 -0.4775
 2233TIP3    H2 6664   5.372   5.567   0.406  0.3756 -0.6466 -2.3394
 2234TIP3   OH2 6665   0.751   2.016   5.436  0.7409 -0.1169 -0.3519
 2234TIP3    H1 6666   0.679   1.994   5.378  0.5657  0.6341 -0.4363
 2234TIP3    H2 6667   0.720   2.093   5.484  0.7372 -0.9287  0.9949
 2235TIP3   OH2 6668   0.301   5.826   5.641  0.5328  0.0575  0.3745
 2235TIP3    H1 6669   0.313   5.732   5.652  0.3495 -0.3537 -2.1938
 2235TIP3    H2 6670   0.238   5.851   5.708  2.9710 -0.9556  3.2592
 2236TIP3   OH2 6671   2.433   3.841   4.003 -0.4048  0.5552 -0.3339
 2236TIP3    H1 6672   2.447   3.811   3.913 -1.0921 -1.2075  0.0943
 2236TIP3    H2 6673   2.499   3.795   4.055 -0.3731  1.1244  0.1459
 2237TIP3   OH2 6674   5.103   4.956   0.147 -0.1997 -0.0624  0.3245
 2237TIP3    H1 6675   5.108   5.013   0.070  1.6235  1.8708  1.7543
 2237TIP3    H2 6676   5.194   4.929   0.162 -0.3165  0.5730  2.4358
 2238TIP3   OH2 6677   1.062   2.187   5.836  0.2060 -0.2878  0.1073
 2238TIP3    H1 6678   1.033   2.098   5.855 -1.1395  0.4011  1.4602
 2238TIP3    H2 6679   1.112   2.212   5.913 -1.2728  0.8776  0.7217
 2239TIP3   OH2 6680   6.407   2.073   1.156  0.3778  0.0989  0.5568
 2239TIP3    H1 6681   6.498   2.090   1.181 -0.4321  1.4498  2.9605
 2239TIP3    H2 6682   6.375   2.013   1.224 -0.6976  0.0837  0.0491
 2240TIP3   OH2 6683   3.628   5.992   2.012  0.2243  0.6004 -0.0068
 2240TIP3    H1 6684   3.533   6.000   2.022  0.3235  1.2982  0.3567
 2240TIP3    H2 6685   3.661   5.978   2.101  0.5233  0.9370 -0.0656
 2241TIP3   OH2 6686   2.211   1.453   0.495  0.1617  0.2211 -0.3697
 2241TIP3    H1 6687   2.170   1.383   0.546  1.7985  0.6224  1.6075
 2241TIP3    H2 6688   2.258   1.506   0.559  1.5097  1.3697 -2.1879
 2242TIP3   OH2 6689   3.061   4.701   3.472 -0.0513 -0.6965  0.3998
 2242TIP3    H1 6690   3.008   4.670   3.545 -1.0484  0.5160  0.2179
 2242TIP3    H2 6691   3.150   4.673   3.494 -0.4941 -1.2687  1.5552
 2243TIP3   OH2 6692   6.922   3.139   2.248  0.6615  0.3964 -1.2725
 2243TIP3    H1 6693   7.007   3.180   2.233  1.6158 -1.3299 -0.8576
 2243TIP3    H2 6694   6.890   3.177   2.330  2.3091 -0.8287  0.0080
 2244TIP3   OH2 6695   1.188   6.033   3.410 -0.2407 -0.1417 -0.7166
 2244TIP3    H1 6696   1.146   6.084   3.479 -0.0604  0.0752 -0.7710
 2244TIP3    H2 6697   1.130   6.044   3.334  0.4348  0.9766 -1.0878
 2245TIP3   OH2 6698   3.552   6.699   2.562  0.2859 -0.0332 -0.1316
 2245TIP3    H1 6699   3.558   6.685   2.656 -1.0453  1.2616  0.1761
 2245TIP3    H2 6700   3.584   6.617   2.524 -0.2682 -1.0321  1.4514
 2246TIP3   OH2 6701   4.638   0.961   0.971  0.3196  0.2082 -0.4403
 2246TIP3    H1 6702   4.599   0.878   0.998 -0.3553  0.3675 -0.9176
 2246TIP3    H2 6703   4.710   0.935   0.913 -0.5164 -0.0295 -1.4015
 2247TIP3   OH2 6704   1.395   0.070   4.888 -0.6152  0.3544 -0.0043
 2247TIP3    H1 6705   1.315   0.115   4.913 -1.6165 -0.8674 -0.9097
 2247TIP3    H2 6706   1.417   0.107   4.802  1.2982  2.5650  1.3100
 2248TIP3   OH2 6707   5.281   3.687   2.684  0.3358  0.0633 -0.2900
 2248TIP3    H1 6708   5.367   3.646   2.687 -0.0469 -0.7045  1.2482
 2248TIP3    H2 6709   5.293   3.773   2.724  0.2680 -0.3014  0.5251
 2249TIP3   OH2 6710   2.344   1.555   0.068  0.0266  0.6682 -0.2764
 2249TIP3    H1 6711   2.296   1.476   0.091 -1.7088  0.7260 -3.1482
 2249TIP3    H2 6712   2.379   1.587   0.150 -0.0605 -2.5046  1.1435
 2250TIP3   OH2 6713   1.066   2.820   5.587  0.6013 -0.1383  0.3483
 2250TIP3    H1 6714   1.144   2.870   5.562  1.6283 -1.5210  0.6909
 2250TIP3    H2 6715   1.053   2.842   5.680 -0.0729  0.9067  0.0269
 2251TIP3   OH2 6716   3.552   0.448   3.664  0.3101  0.3337  0.5388
 2251TIP3    H1 6717   3.470   0.440   3.712 -0.3048 -1.3133 -0.7023
 2251TIP3    H2 6718   3.530   0.500   3.586  0.5276  0.2172  0.3945
 2252TIP3   OH2 6719   4.792   0.401   1.389 -0.0455  0.0169  0.2387
 2252TIP3    H1 6720   4.811   0.453   1.467  1.8381 -1.3930  0.8317
 2252TIP3    H2 6721   4.847   0.322   1.400 -1.4906 -1.2990 -1.3888
 2253TIP3   OH2 6722   1.269   5.904   1.872  0.0730 -0.1791 -1.0231
 2253TIP3    H1 6723   1.350   5.955   1.875  0.6898 -1.1237 -1.1027
 2253TIP3    H2 6724   1.200   5.969   1.858  0.1282  1.3805  3.9813
 2254TIP3   OH2 6725   3.908   2.219   2.142 -0.0560  0.2468 -0.5060
 2254TIP3    H1 6726   3.978   2.223   2.207 -0.2635  0.9994 -0.3204
 2254TIP3    H2 6727   3.845   2.156   2.178  0.1870  0.0921 -0.3455
 2255TIP3   OH2 6728   6.523   6.795   4.541 -0.0666 -0.0578 -0.2882
 2255TIP3    H1 6729   6.461   6.724   4.523 -1.4432  0.8706  0.6255
 2255TIP3    H2 6730   6.579   6.760   4.611 -0.0053 -0.6381 -0.6178
 2256TIP3   OH2 6731   2.383   6.395   3.321  0.2027 -0.4609 -0.0066
 2256TIP3    H1 6732   2.457   6.336   3.307 -0.1341 -0.7981 -0.3939
 2256TIP3    H2 6733   2.392   6.423   3.412 -0.4825 -2.3119  0.6776
 2257TIP3   OH2 6734   2.978   5.646   1.129 -0.3761 -0.2328  0.6333
 2257TIP3    H1 6735   2.958   5.618   1.218 -1.3560 -1.0692  0.1644
 2257TIP3    H2 6736   3.017   5.568   1.088  0.0789  0.1518  0.3251
 2258TIP3   OH2 6737   2.032   3.272   4.504  0.1407  0.1290  0.4560
 2258TIP3    H1 6738   2.078   3.307   4.580  1.2776  0.7604 -0.4849
 2258TIP3    H2 6739   2.005   3.184   4.530 -0.2068  0.6347  1.8537
 2259TIP3   OH2 6740   4.083   1.675   4.808 -0.2447 -0.2910 -0.1421
 2259TIP3    H1 6741   4.072   1.690   4.715  0.5407 -0.3972 -0.2589
 2259TIP3    H2 6742   4.164   1.721   4.831 -1.2178  1.0506  0.8139
 2260TIP3   OH2 6743   2.816   4.065   3.329 -0.1386  0.2987  0.1420
 2260TIP3    H1 6744   2.739   4.032   3.373 -0.1100  0.0809  0.0281
 2260TIP3    H2 6745   2.863   3.987   3.299  0.1789  0.4251  0.3009
 2261TIP3   OH2 6746   1.181   5.411   5.479 -0.3963 -0.9340  0.2815
 2261TIP3    H1 6747   1.211   5.339   5.424 -0.5656 -0.5204 -0.3633
 2261TIP3    H2 6748   1.087   5.413   5.467 -0.4601 -0.9638  0.7486
 2262TIP3   OH2 6749   5.745   5.367   2.736 -0.3288  0.2257  0.1395
 2262TIP3    H1 6750   5.725   5.448   2.688 -1.5550 -0.4810 -0.5906
 2262TIP3    H2 6751   5.768   5.397   2.824  0.2204  1.4291 -0.3847
 2263TIP3   OH2 6752   2.379   5.958   3.463  0.0463 -0.2243  0.3939
 2263TIP3    H1 6753   2.417   5.927   3.380  1.1224 -1.7277  1.3912
 2263TIP3    H2 6754   2.453   5.995   3.510 -0.7513  1.5561  0.3094
 2264TIP3   OH2 6755   1.493   5.745   0.174 -0.3051 -0.0754  0.0884
 2264TIP3    H1 6756   1.540   5.828   0.186  2.0057 -0.8828 -2.2730
 2264TIP3    H2 6757   1.555   5.678   0.205 -1.3169 -1.0139  0.1333
 2265TIP3   OH2 6758   4.321   1.299   4.314 -0.2845  0.1107 -0.0237
 2265TIP3    H1 6759   4.233   1.274   4.344 -0.0131 -0.3375  0.4056
 2265TIP3    H2 6760   4.334   1.249   4.234  0.0502 -0.7551  0.5549
 2266TIP3   OH2 6761   6.485   0.623   0.963 -0.7232  0.6339 -0.2134
 2266TIP3    H1 6762   6.579   0.606   0.959 -0.2505  3.1756 -2.4741
 2266TIP3    H2 6763   6.459   0.638   0.872 -3.9633 -2.6068 -0.0523
 2267TIP3   OH2 6764   1.286   2.957   5.490  0.0547 -0.3893  0.1132
 2267TIP3    H1 6765   1.281   3.045   5.453  0.0491 -0.2751  0.3819
 2267TIP3    H2 6766   1.375   2.950   5.524  0.1217 -0.5646 -0.0972
 2268TIP3   OH2 6767   4.621   6.438   2.969 -0.2252 -0.0853 -0.3360
 2268TIP3    H1 6768   4.699   6.489   2.947 -0.2036 -0.8173 -2.1543
 2268TIP3    H2 6769   4.651   6.347   2.965 -0.9189 -0.3342  0.0361
 2269TIP3   OH2 6770   7.043   4.064   3.648  0.8186 -0.4342  0.3890
 2269TIP3    H1 6771   7.134   4.069   3.676  0.5516  1.8923  1.0441
 2269TIP3    H2 6772   7.005   4.148   3.674 -0.7360 -0.0823 -2.6141
 2270TIP3   OH2 6773   4.195   4.432   3.313  0.3619  0.1233  0.2999
 2270TIP3    H1 6774   4.252   4.483   3.256  1.3547 -1.0962  0.1408
 2270TIP3    H2 6775   4.225   4.341   3.301 -1.7986 -0.5951  0.0128
 2271TIP3   OH2 6776   2.517   6.628   4.454 -0.3820 -0.1071 -0.8348
 2271TIP3    H1 6777   2.534   6.704   4.509 -0.5040 -0.3298 -0.4871
 2271TIP3    H2 6778   2.428   6.602   4.476  0.0420 -1.0133 -0.1498
 2272TIP3   OH2 6779   5.695   0.641   3.897  0.4957  0.1356  0.0427
 2272TIP3    H1 6780   5.620   0.628   3.839  0.8776 -1.8124 -0.0947
 2272TIP3    H2 6781   5.768   0.659   3.838 -0.0463  3.6614  0.2341
 2273TIP3   OH2 6782   0.625   4.174   3.758  0.3908  0.4361  0.5221
 2273TIP3    H1 6783   0.602   4.107   3.823  0.9186  1.5953  1.9736
 2273TIP3    H2 6784   0.717   4.156   3.738  0.2909  0.2149  0.2544
 2274TIP3   OH2 6785   1.701   5.197   1.021 -0.2615 -0.5298 -0.1901
 2274TIP3    H1 6786   1.669   5.109   1.006  0.0894 -0.6105 -0.4984
 2274TIP3    H2 6787   1.708   5.235   0.933 -1.5360  0.2155  0.0047
 2275TIP3   OH2 6788   1.539   3.050   4.953  0.6878  0.2167  0.0305
 2275TIP3    H1 6789   1.622   3.016   4.986  0.7704 -1.9450 -2.1418
 2275TIP3    H2 6790   1.565   3.111   4.883  0.4541  1.2833  0.8579
 2276TIP3   OH2 6791   1.648   5.391   5.287 -0.0600  0.1518 -0.2921
 2276TIP3    H1 6792   1.638   5.327   5.357 -1.0953  0.7155  0.0992
 2276TIP3    H2 6793   1.662   5.339   5.208  1.3799 -0.4803  0.3554
 2277TIP3   OH2 6794   3.750   3.545   3.067  0.3052  0.3602  0.5649
 2277TIP3    H1 6795   3.683   3.578   3.127  1.1091  0.7182  1.2964
 2277TIP3    H2 6796   3.802   3.484   3.120  1.1751  0.8654  0.3230
 2278TIP3   OH2 6797   6.962   1.145   0.778 -0.5108 -0.3802 -0.3569
 2278TIP3    H1 6798   6.995   1.183   0.859  1.3143 -1.2381 -0.6634
 2278TIP3    H2 6799   6.869   1.168   0.777 -0.0055  1.9623  0.6286
 2279TIP3   OH2 6800   4.905   2.640   5.557  0.0950  0.4723  0.5872
 2279TIP3    H1 6801   4.960   2.584   5.613 -0.4901  0.1220  0.8289
 2279TIP3    H2 6802   4.816   2.611   5.577 -0.0839 -0.5152 -1.4188
 2280TIP3   OH2 6803   4.822   6.082   5.005  1.0030 -0.1376 -0.3255
 2280TIP3    H1 6804   4.760   6.092   4.933  0.2517  0.3726  0.3800
 2280TIP3    H2 6805   4.827   5.988   5.020 -1.3801 -0.0997  1.1141
 2281TIP3   OH2 6806   1.977   1.657   2.083 -0.0649  0.5887 -0.0895
 2281TIP3    H1 6807   2.034   1.603   2.137 -2.3982 -2.0766 -0.0934
 2281TIP3    H2 6808   2.019   1.656   1.996 -0.4171 -2.0224 -0.3097
 2282TIP3   OH2 6809   6.569   2.936   3.607  0.2951 -0.0251 -0.1329
 2282TIP3    H1 6810   6.654   2.934   3.652  0.5625  1.6574 -0.4831
 2282TIP3    H2 6811   6.506   2.907   3.673  1.1045 -1.0672  0.2056
 2283TIP3   OH2 6812   4.449   0.431   4.700  0.1062 -0.0155  0.0389
 2283TIP3    H1 6813   4.439   0.406   4.792  0.4615 -2.5789 -0.5234
 2283TIP3    H2 6814   4.375   0.490   4.682 -0.4645 -0.1661  1.7480
 2284TIP3   OH2 6815   5.747   6.536   4.747  0.1492 -0.3590 -0.0674
 2284TIP3    H1 6816   5.779   6.461   4.796 -1.8286  0.8569  3.4412
 2284TIP3    H2 6817   5.685   6.499   4.683  1.0617 -1.8538 -0.1194
 2285TIP3   OH2 6818   5.223   0.598   3.959 -0.1689  0.7391  0.6787
 2285TIP3    H1 6819   5.162   0.562   4.022  0.6981 -0.1210  1.0552
 2285TIP3    H2 6820   5.267   0.669   4.006  0.7952 -0.1885  1.2354
 2286TIP3   OH2 6821   0.830   3.851   5.144 -0.2482 -0.7012 -0.2353
 2286TIP3    H1 6822   0.924   3.836   5.141 -0.2754 -1.1940  0.8974
 2286TIP3    H2 6823   0.820   3.945   5.127  0.5639 -0.3425  1.1501
 2287TIP3   OH2 6824   5.797   3.821   0.690  0.2477  0.0491  0.0023
 2287TIP3    H1 6825   5.825   3.912   0.697 -0.1519  0.2136 -0.4261
 2287TIP3    H2 6826   5.741   3.820   0.612 -2.1094  0.0542  1.5834
 2288TIP3   OH2 6827   5.097   4.722   5.076 -0.3534 -0.1682 -0.4403
 2288TIP3    H1 6828   5.097   4.684   4.989 -0.0886 -0.5704 -0.2680
 2288TIP3    H2 6829   5.069   4.651   5.134 -0.2808  0.0185 -0.1692
 2289TIP3   OH2 6830   2.161   3.220   4.062  0.2401  0.0024  0.0391
 2289TIP3    H1 6831   2.245   3.209   4.017 -0.1257 -0.9893 -0.4161
 2289TIP3    H2 6832   2.110   3.143   4.038 -1.4150  1.3287 -1.0013
 2290TIP3   OH2 6833   2.180   1.411   2.025  0.2325  0.1789 -0.1227
 2290TIP3    H1 6834   2.155   1.451   2.109 -0.2784  1.3558 -0.8119
 2290TIP3    H2 6835   2.099   1.373   1.992  0.3805 -0.0637 -0.2057
 2291TIP3   OH2 6836   3.384   1.777   2.387 -0.5047  0.0353 -0.0271
 2291TIP3    H1 6837   3.330   1.826   2.325 -0.5929 -1.0430 -0.8276
 2291TIP3    H2 6838   3.346   1.797   2.472 -0.0562  1.9712 -0.2126
 2292TIP3   OH2 6839   6.470   3.527   1.530  0.1816 -0.1073  0.3667
 2292TIP3    H1 6840   6.484   3.578   1.610 -0.0735  0.6206 -0.0406
 2292TIP3    H2 6841   6.543   3.552   1.473  1.2099 -1.7401  0.8975
 2293TIP3   OH2 6842   6.246   0.593   2.705 -0.1804 -0.0828 -0.5888
 2293TIP3    H1 6843   6.254   0.655   2.632  2.9221  1.2439  0.7335
 2293TIP3    H2 6844   6.180   0.632   2.762 -0.3007  0.5585 -1.1451
 2294TIP3   OH2 6845   0.181   5.058   2.820 -0.7924  0.2999  0.1611
 2294TIP3    H1 6846   0.203   5.143   2.857  1.1807  0.1970 -0.6680
 2294TIP3    H2 6847   0.107   5.075   2.762 -0.2495  1.4936 -0.1971
 2295TIP3   OH2 6848   4.854   5.705   2.874 -0.4378  0.1636 -0.3165
 2295TIP3    H1 6849   4.935   5.655   2.879 -0.7439 -0.2053  1.6894
 2295TIP3    H2 6850   4.876   5.791   2.912 -1.4840 -0.7295  2.5830
 2296TIP3   OH2 6851   2.468   0.869   2.896  1.1236  0.0974 -0.2890
 2296TIP3    H1 6852   2.419   0.867   2.813 -0.0589  1.0399  0.3459
 2296TIP3    H2 6853   2.423   0.805   2.951  0.7824  0.7433  0.1958
 2297TIP3   OH2 6854   6.157   0.721   0.451  0.3837 -0.3846  0.0632
 2297TIP3    H1 6855   6.250   0.702   0.442  0.1038 -2.0939  0.3458
 2297TIP3    H2 6856   6.132   0.677   0.532 -0.4185  1.1523  0.6824
 2298TIP3   OH2 6857   2.358   3.721   1.207 -0.5283  0.1663  0.4197
 2298TIP3    H1 6858   2.277   3.734   1.256 -0.8911 -2.2754  0.5466
 2298TIP3    H2 6859   2.412   3.797   1.231 -2.8120  1.9899  0.1364
 2299TIP3   OH2 6860   1.779   3.542   2.990 -0.2956 -0.2713 -0.0001
 2299TIP3    H1 6861   1.728   3.495   2.924  1.7912 -0.0397 -1.8961
 2299TIP3    H2 6862   1.865   3.500   2.988  0.2685  0.7179  1.5513
 2300TIP3   OH2 6863   2.605   2.649   3.290 -0.3634 -0.3474 -0.0082
 2300TIP3    H1 6864   2.686   2.600   3.289 -0.4045 -0.4153 -1.2393
 2300TIP3    H2 6865   2.593   2.675   3.382  1.4182  0.2972  0.0730
 2301TIP3   OH2 6866   3.383   5.178   2.679 -0.8167 -0.6465  0.5964
 2301TIP3    H1 6867   3.375   5.085   2.697  0.1847 -1.2205 -1.6243
 2301TIP3    H2 6868   3.321   5.194   2.607  0.5833 -0.1281 -0.5602
 2302TIP3   OH2 6869   0.965   4.980   1.948 -0.1680 -0.3346  0.3393
 2302TIP3    H1 6870   1.019   5.048   1.989 -0.1142 -0.3619  0.3149
 2302TIP3    H2 6871   0.886   4.976   2.001 -0.5673  0.3748 -0.1856
 2303TIP3   OH2 6872   1.700   5.070   0.545  0.1670  0.0363 -0.0570
 2303TIP3    H1 6873   1.746   5.002   0.594  0.5953 -0.5979 -1.2962
 2303TIP3    H2 6874   1.651   5.023   0.478  1.4106  0.9991 -1.7090
 2304TIP3   OH2 6875   3.393   1.117   5.599 -0.2319 -0.5986 -0.3020
 2304TIP3    H1 6876   3.445   1.073   5.666 -0.2120 -0.0113  0.0767
 2304TIP3    H2 6877   3.302   1.106   5.628 -0.1757  0.5320  0.3929
 2305TIP3   OH2 6878   5.767   0.932   2.021 -0.5489  0.4091 -0.1342
 2305TIP3    H1 6879   5.779   0.986   2.099 -1.8905 -1.6454  1.5973
 2305TIP3    H2 6880   5.674   0.940   2.000 -0.0983  1.4040 -1.9516
 2306TIP3   OH2 6881   0.110   4.858   1.805 -0.3067  0.0771  0.2453
 2306TIP3    H1 6882   0.105   4.769   1.770 -1.3305  0.0002  0.5572
 2306TIP3    H2 6883   0.086   4.849   1.897  0.4150  0.5654  0.4925
 2307TIP3   OH2 6884   5.636   4.453   2.663 -0.0477 -0.9467  0.0147
 2307TIP3    H1 6885   5.694   4.447   2.740  1.3860  1.7090 -0.7373
 2307TIP3    H2 6886   5.558   4.497   2.695  0.0004 -0.9989  0.2059
 2308TIP3   OH2 6887   7.180   5.967   3.094 -0.0843 -0.0245  1.1882
 2308TIP3    H1 6888   7.193   6.060   3.075  1.5093 -0.2664  0.9568
 2308TIP3    H2 6889   7.115   5.966   3.164 -0.9994  1.2008  0.4008
 2309TIP3   OH2 6890   3.409   1.840   1.245  0.0992  0.2870  0.0363
 2309TIP3    H1 6891   3.419   1.841   1.340  0.9637  0.4019 -0.0413
 2309TIP3    H2 6892   3.411   1.748   1.222  0.1083  0.2673  0.1146
 2310TIP3   OH2 6893   3.786   5.266   0.555 -0.4822  0.1346  0.2126
 2310TIP3    H1 6894   3.841   5.219   0.618  1.8044  0.8081 -1.1450
 2310TIP3    H2 6895   3.791   5.357   0.584  2.0951  0.7645 -1.7726
 2311TIP3   OH2 6896   6.235   3.149   1.903  0.5936  0.3549  0.4212
 2311TIP3    H1 6897   6.270   3.228   1.943 -0.0361  0.7106  0.2835
 2311TIP3    H2 6898   6.220   3.174   1.811  0.2020  0.1386  0.4269
 2312TIP3   OH2 6899   4.166   4.846   4.460  0.5007  0.1128 -0.0880
 2312TIP3    H1 6900   4.144   4.788   4.533 -2.5060  0.0710 -0.9110
 2312TIP3    H2 6901   4.107   4.820   4.390  2.1900  1.2222 -2.0328
 2313TIP3   OH2 6902   4.304   4.450   3.687  0.1355  0.1472 -0.7677
 2313TIP3    H1 6903   4.398   4.466   3.681  0.4105 -0.9051  0.3137
 2313TIP3    H2 6904   4.296   4.355   3.684 -0.9152  0.2321 -1.0326
 2314TIP3   OH2 6905   3.821   5.518   0.357  0.1652  0.2819 -0.2711
 2314TIP3    H1 6906   3.912   5.506   0.329 -0.2362  0.6765 -1.8486
 2314TIP3    H2 6907   3.800   5.436   0.403  0.6968 -0.7013 -1.6880
 2315TIP3   OH2 6908   5.531   5.012   3.916  0.0196  0.1658  0.2210
 2315TIP3    H1 6909   5.528   5.088   3.858 -1.3706  0.2248  0.3487
 2315TIP3    H2 6910   5.531   4.937   3.857 -0.4250  0.2392  0.1294
 2316TIP3   OH2 6911   3.142   5.800   4.857 -0.4673  0.5023 -0.0446
 2316TIP3    H1 6912   3.165   5.754   4.776  0.1094  0.0596  0.3705
 2316TIP3    H2 6913   3.047   5.814   4.850 -0.5857 -0.3863 -0.3596
 2317TIP3   OH2 6914   2.668   2.077   3.449 -0.0076 -0.1457  0.3694
 2317TIP3    H1 6915   2.721   2.012   3.402  0.7770  0.2442  0.6967
 2317TIP3    H2 6916   2.591   2.028   3.478 -0.5437 -0.3703 -1.3735
 2318TIP3   OH2 6917   3.629   5.559   0.175 -0.5903  0.2328 -0.3370
 2318TIP3    H1 6918   3.680   5.532   0.251  0.1387 -0.8575 -1.1705
 2318TIP3    H2 6919   3.687   5.542   0.100 -1.3507  1.0957 -1.1569
 2319TIP3   OH2 6920   6.408   4.595   3.963 -0.6633 -0.2895  0.2386
 2319TIP3    H1 6921   6.462   4.575   4.040  0.0250 -1.0310 -0.4226
 2319TIP3    H2 6922   6.351   4.666   3.992 -0.0861 -0.2350  1.2924
 2320TIP3   OH2 6923   2.304   6.643   5.363  0.0417 -0.3318  0.3142
 2320TIP3    H1 6924   2.312   6.622   5.456  1.1895 -0.0453  0.2893
 2320TIP3    H2 6925   2.380   6.601   5.322 -0.2387 -0.1280 -0.4379
 2321TIP3   OH2 6926   0.092   5.295   3.248  0.3722  0.2188 -0.3380
 2321TIP3    H1 6927   0.127   5.266   3.333 -0.7732 -0.3550 -0.0398
 2321TIP3    H2 6928   0.002   5.321   3.267 -0.0928 -0.4899 -1.4916
 2322TIP3   OH2 6929   5.530   3.493   4.015 -0.1837  0.1562 -0.2986
 2322TIP3    H1 6930   5.587   3.468   4.088 -0.7650  1.1472  0.5296
 2322TIP3    H2 6931   5.532   3.418   3.956 -0.3623 -1.0393  1.1428
 2323TIP3   OH2 6932   6.878   3.158   2.538 -0.2291  0.1044 -0.1400
 2323TIP3    H1 6933   6.785   3.180   2.552 -0.7381 -0.9121 -1.6407
 2323TIP3    H2 6934   6.923   3.198   2.612 -1.8894  0.4683  0.7381
 2324TIP3   OH2 6935   3.369   1.400   3.818 -0.1319  0.7357  0.4720
 2324TIP3    H1 6936   3.351   1.310   3.847 -2.1126  1.1327  0.5972
 2324TIP3    H2 6937   3.425   1.436   3.886 -1.5958  0.4420  1.9047
 2325TIP3   OH2 6938   1.451   2.511   3.494  0.2519 -0.2156  0.3403
 2325TIP3    H1 6939   1.533   2.461   3.499  0.9309  0.8471  0.2009
 2325TIP3    H2 6940   1.411   2.482   3.412 -0.4186 -2.0343  1.2394
 2326TIP3   OH2 6941   4.763   5.397   1.584  0.5405  0.2540  0.0757
 2326TIP3    H1 6942   4.824   5.368   1.653  0.0351  0.7032  0.7317
 2326TIP3    H2 6943   4.819   5.441   1.521  1.0570 -0.4267  0.0405
 2327TIP3   OH2 6944   0.636   5.039   4.279 -0.1364  0.6809 -0.8666
 2327TIP3    H1 6945   0.635   5.003   4.368 -0.4308  1.6707 -0.4523
 2327TIP3    H2 6946   0.622   4.964   4.222 -2.7121  0.3830  0.0630
 2328TIP3   OH2 6947   3.578   4.201   4.133  0.1444  0.1205 -0.2255
 2328TIP3    H1 6948   3.637   4.212   4.058 -0.4838  1.0074 -0.6078
 2328TIP3    H2 6949   3.581   4.107   4.152  1.5791  0.1340 -0.3098
 2329TIP3   OH2 6950   3.089   5.184   2.155  0.3407 -0.0252 -0.2332
 2329TIP3    H1 6951   3.025   5.223   2.094 -0.0245 -2.2083 -1.3329
 2329TIP3    H2 6952   3.074   5.230   2.237 -2.7448 -0.5022 -0.4185
 2330TIP3   OH2 6953   0.472   5.335   5.533  0.4822 -0.0441 -0.5231
 2330TIP3    H1 6954   0.532   5.298   5.468  0.8307  0.4599 -0.4984
 2330TIP3    H2 6955   0.530   5.378   5.596  0.0666  1.0350 -0.8645
 2331TIP3   OH2 6956   4.046   1.723   4.529  0.4091  0.0943  0.4703
 2331TIP3    H1 6957   4.033   1.802   4.477  1.3914  1.4754  2.2039
 2331TIP3    H2 6958   4.119   1.678   4.487  0.1553  0.3455 -0.2560
 2332TIP3   OH2 6959   5.682   1.179   3.248  0.5212  0.2472 -0.1593
 2332TIP3    H1 6960   5.749   1.176   3.180 -1.1327  1.3873 -1.9398
 2332TIP3    H2 6961   5.628   1.101   3.233  0.1332  0.5185 -0.1998
 2333TIP3   OH2 6962   0.216   2.479   1.141 -0.0319 -0.4626 -1.1207
 2333TIP3    H1 6963   0.163   2.446   1.213  0.5960  0.3081 -0.2659
 2333TIP3    H2 6964   0.159   2.476   1.065 -0.4714 -2.0225 -0.7613
 2334TIP3   OH2 6965   5.087   4.674   4.782 -0.3723 -0.3886  0.0711
 2334TIP3    H1 6966   5.142   4.735   4.733  1.5258 -1.4613  0.7689
 2334TIP3    H2 6967   5.014   4.655   4.723  0.5828  0.2162 -1.3597
 2335TIP3   OH2 6968   3.658   5.626   3.988 -0.2984 -0.2871  0.0132
 2335TIP3    H1 6969   3.631   5.717   3.990  1.5202  0.2942 -0.1965
 2335TIP3    H2 6970   3.648   5.595   4.078  1.4660  0.9059  0.6714
 2336TIP3   OH2 6971   4.579   1.864   1.678 -0.2889 -0.4283 -0.0104
 2336TIP3    H1 6972   4.490   1.854   1.712 -0.7919 -0.3353 -1.2251
 2336TIP3    H2 6973   4.567   1.879   1.584  1.0373 -0.9052 -0.2858
 2337TIP3   OH2 6974   3.138   4.085   1.931 -0.1085  0.3731 -0.1222
 2337TIP3    H1 6975   3.056   4.065   1.975  0.5402 -1.6694  0.2982
 2337TIP3    H2 6976   3.133   4.037   1.848  0.5569  0.3881 -0.1820
 2338TIP3   OH2 6977   0.344   6.611   2.506 -0.0193  0.5557 -0.0100
 2338TIP3    H1 6978   0.268   6.554   2.520 -0.4206  0.3318 -2.5923
 2338TIP3    H2 6979   0.416   6.567   2.550 -1.3762  0.9079  2.7513
 2339TIP3   OH2 6980   7.178   4.085   5.366  0.2112 -0.0281  0.0649
 2339TIP3    H1 6981   7.199   4.031   5.290 -0.1478  1.0603 -0.8126
 2339TIP3    H2 6982   7.084   4.101   5.360  0.2856  0.5678  0.4135
 2340TIP3   OH2 6983   6.129   5.393   0.586  0.4360  0.0307  0.3861
 2340TIP3    H1 6984   6.128   5.407   0.681 -0.6704 -3.9049  1.1501
 2340TIP3    H2 6985   6.037   5.400   0.560  0.7249  1.0153 -0.4362
 2341TIP3   OH2 6986   0.342   1.360   2.016 -0.4695 -0.0677  0.2283
 2341TIP3    H1 6987   0.369   1.354   1.924  0.8868 -0.8961  0.6580
 2341TIP3    H2 6988   0.251   1.330   2.016 -0.0523 -1.4367 -0.6644
 2342TIP3   OH2 6989   0.375   1.060   3.414  0.5538 -0.3577  0.5530
 2342TIP3    H1 6990   0.358   0.978   3.459 -1.1604 -0.2374  0.1922
 2342TIP3    H2 6991   0.335   1.127   3.469  0.7522  0.0809  0.1722
 2343TIP3   OH2 6992   1.177   5.445   4.359 -0.4470 -0.3333 -0.0891
 2343TIP3    H1 6993   1.147   5.526   4.317  0.9115  0.0604 -0.3677
 2343TIP3    H2 6994   1.107   5.382   4.343  0.9811 -1.0454 -5.4152
 2344TIP3   OH2 6995   6.232   1.893   2.359  0.1435 -0.1193  0.3580
 2344TIP3    H1 6996   6.187   1.975   2.381  1.2115  0.3789  0.7434
 2344TIP3    H2 6997   6.166   1.825   2.372 -0.2859  0.5203  1.6533
 2345TIP3   OH2 6998   7.142   5.505   3.095  0.1167 -0.3380  0.9273
 2345TIP3    H1 6999   7.089   5.478   3.019 -0.8590  1.1789  1.0355
 2345TIP3    H2 7000   7.156   5.424   3.143 -2.3382 -0.7999  1.0148
 2346TIP3   OH2 7001   5.269   3.409   0.211 -0.4143  0.1700 -0.2847
 2346TIP3    H1 7002   5.313   3.440   0.290  0.2796 -1.3001 -0.0694
 2346TIP3    H2 7003   5.176   3.420   0.230 -0.2496  0.0189  0.6606
 2347TIP3   OH2 7004   0.345   2.656   4.809 -0.1561  0.3380 -0.2361
 2347TIP3    H1 7005   0.274   2.718   4.791  0.1141  0.6337 -0.2968
 2347TIP3    H2 7006   0.402   2.663   4.732 -1.4512 -1.8903 -1.4979
 2348TIP3   OH2 7007   3.507   3.879   2.343  0.5802 -0.2356  0.0574
 2348TIP3    H1 7008   3.525   3.943   2.412 -0.4879  0.7119 -0.5197
 2348TIP3    H2 7009   3.516   3.929   2.262  1.0916 -1.1648 -0.4787
 2349TIP3   OH2 7010   2.716   0.568   1.827 -0.2520 -0.2238 -0.0747
 2349TIP3    H1 7011   2.704   0.482   1.867  1.0379 -0.4339 -0.0883
 2349TIP3    H2 7012   2.730   0.550   1.734 -3.3621  0.2711 -0.7465
 2350TIP3   OH2 7013   4.757   6.792   2.285 -0.8176 -0.0173 -0.3588
 2350TIP3    H1 7014   4.662   6.781   2.291 -0.7269 -2.2387 -1.8126
 2350TIP3    H2 7015   4.772   6.824   2.196 -0.1906  0.5835 -0.0483
 2351TIP3   OH2 7016   2.890   1.601   5.517 -0.1067 -0.1598 -0.5571
 2351TIP3    H1 7017   2.965   1.603   5.577  0.0158  0.4959 -0.7235
 2351TIP3    H2 7018   2.843   1.522   5.541 -0.6098  0.5878  1.1013
 2352TIP3   OH2 7019   1.602   6.411   0.693  0.7527 -0.4824  0.4444
 2352TIP3    H1 7020   1.659   6.475   0.735  0.3415  1.6570 -2.0111
 2352TIP3    H2 7021   1.653   6.379   0.619 -0.2161 -0.6205 -0.1768
 2353TIP3   OH2 7022   0.764   0.685   0.048 -0.0929 -0.0689  0.1137
 2353TIP3    H1 7023   0.711   0.760   0.022 -0.6341 -0.2690  0.6283
 2353TIP3    H2 7024   0.758   0.624  -0.026 -1.2716 -0.4516  0.5087
 2354TIP3   OH2 7025   0.801   5.898   3.993  0.1720 -0.1823  0.2660
 2354TIP3    H1 7026   0.790   5.842   4.070 -0.6931  1.0073  1.0512
 2354TIP3    H2 7027   0.877   5.862   3.948  0.1452 -1.4691  1.1767
 2355TIP3   OH2 7028   2.838   2.450   5.526  0.1727 -0.6838  0.0554
 2355TIP3    H1 7029   2.774   2.424   5.461 -0.7750 -0.9027  1.0480
 2355TIP3    H2 7030   2.864   2.369   5.570 -0.2658 -0.3878  0.8912
 2356TIP3   OH2 7031   5.350   5.647   2.299  0.1167  0.7305  0.1517
 2356TIP3    H1 7032   5.358   5.742   2.306 -1.3144  0.8971 -0.1727
 2356TIP3    H2 7033   5.294   5.623   2.373 -0.8588  0.3558 -0.6868
 2357TIP3   OH2 7034   6.258   5.821   4.002 -0.0139  0.0341  0.0302
 2357TIP3    H1 7035   6.289   5.872   3.927  2.0960 -1.5935 -0.3317
 2357TIP3    H2 7036   6.316   5.846   4.074  0.8263 -1.4948 -0.0663
 2358TIP3   OH2 7037   6.453   5.914   1.554 -0.4404  0.3251  0.0697
 2358TIP3    H1 7038   6.373   5.959   1.582 -0.4875  1.2919 -1.5548
 2358TIP3    H2 7039   6.514   5.984   1.533  0.3663 -0.4068 -0.0724
 2359TIP3   OH2 7040   4.017   5.333   5.070 -0.0164 -0.2594  0.4091
 2359TIP3    H1 7041   3.959   5.357   4.998  0.9069 -0.6802 -0.5126
 2359TIP3    H2 7042   4.105   5.342   5.034  0.6696  2.7179  2.4649
 2360TIP3   OH2 7043   0.521   5.957   1.939 -0.0049  0.1347  0.5282
 2360TIP3    H1 7044   0.565   6.037   1.967 -0.8487  0.2353  1.6359
 2360TIP3    H2 7045   0.430   5.982   1.927  0.2421  0.0318 -2.1563
 2361TIP3   OH2 7046   3.570   5.253   1.165 -0.3361 -0.4116 -0.1947
 2361TIP3    H1 7047   3.512   5.186   1.200  1.0649 -0.6611  1.8495
 2361TIP3    H2 7048   3.657   5.229   1.198  0.3549  1.8633 -0.2084
 2362TIP3   OH2 7049   7.183   5.300   4.334 -0.5305 -0.2547  0.2890
 2362TIP3    H1 7050   7.187   5.230   4.269 -0.2688 -0.0913  0.1259
 2362TIP3    H2 7051   7.227   5.374   4.292  0.0557 -0.2901  0.8271
 2363TIP3   OH2 7052   3.962   1.128   3.608  0.2222 -0.3686 -0.8685
 2363TIP3    H1 7053   3.867   1.136   3.607  0.1786 -0.7407 -0.1028
 2363TIP3    H2 7054   3.990   1.165   3.524 -0.2011  4.1764  0.7333
 2364TIP3   OH2 7055   2.516   1.310   2.415  0.4443 -0.0673  0.2281
 2364TIP3    H1 7056   2.584   1.289   2.351  1.0073  1.9468  0.1119
 2364TIP3    H2 7057   2.517   1.405   2.421 -0.5056 -0.1418  2.2779
 2365TIP3   OH2 7058   0.646   6.161   1.440 -0.7092  0.2809 -0.4277
 2365TIP3    H1 7059   0.713   6.165   1.508 -1.8919 -1.0678  0.8766
 2365TIP3    H2 7060   0.626   6.253   1.421  0.1571  0.6853  0.5172
 2366TIP3   OH2 7061   3.796   0.593   4.016 -0.7786  0.4248 -0.1924
 2366TIP3    H1 7062   3.787   0.575   4.109 -0.7076  1.4372  0.0185
 2366TIP3    H2 7063   3.886   0.569   3.995 -0.9637 -0.3401 -0.1321
 2367TIP3   OH2 7064   5.522   4.473   0.873  0.3079  0.2634 -0.1982
 2367TIP3    H1 7065   5.502   4.484   0.780  0.2583  0.2628 -0.1878
 2367TIP3    H2 7066   5.535   4.562   0.906  0.0243  0.2837 -0.1397
 2368TIP3   OH2 7067   7.111   6.586   5.650 -0.1688 -0.0321  0.1007
 2368TIP3    H1 7068   7.177   6.516   5.654  1.1929  1.1158 -1.1484
 2368TIP3    H2 7069   7.050   6.558   5.582  1.4947  0.8225 -1.8622
 2369TIP3   OH2 7070   1.857   0.176   2.277 -0.0630  0.4008  0.6155
 2369TIP3    H1 7071   1.912   0.241   2.233  0.0990 -0.5242 -0.6135
 2369TIP3    H2 7072   1.786   0.158   2.214  1.0403 -2.1259 -0.0576
 2370TIP3   OH2 7073   1.523   0.683   2.274  0.2758  0.5313 -0.3081
 2370TIP3    H1 7074   1.534   0.645   2.361  0.9284  0.0317 -0.5962
 2370TIP3    H2 7075   1.539   0.777   2.286  1.4591  0.3080 -0.0778
 2371TIP3   OH2 7076   2.558   0.037   5.300 -0.4940 -0.4443 -0.0693
 2371TIP3    H1 7077   2.475  -0.003   5.272  0.1272 -1.0691 -1.0562
 2371TIP3    H2 7078   2.557   0.124   5.260 -1.1523 -0.0037  0.8361
 2372TIP3   OH2 7079   5.948   3.838   5.710  0.4551 -0.0843  0.7031
 2372TIP3    H1 7080   6.019   3.824   5.773  1.8440  1.2496 -0.4856
 2372TIP3    H2 7081   5.896   3.909   5.748  0.4395 -0.2635  1.0207
 2373TIP3   OH2 7082   3.861   2.525   5.562 -0.4769  0.7330  0.1407
 2373TIP3    H1 7083   3.824   2.593   5.618 -1.0161  0.2123  0.4372
 2373TIP3    H2 7084   3.794   2.511   5.494 -0.2316  0.7224 -0.0979
 2374TIP3   OH2 7085   6.251   4.248   1.077 -0.5525 -0.1686 -0.0004
 2374TIP3    H1 7086   6.214   4.251   0.988 -1.8501  0.1128  0.5265
 2374TIP3    H2 7087   6.277   4.338   1.095 -1.2334 -0.0222  0.2781
 2375TIP3   OH2 7088   4.682   1.842   5.216  0.8631  0.5908  0.2993
 2375TIP3    H1 7089   4.679   1.816   5.124 -1.8304 -0.0911  0.4789
 2375TIP3    H2 7090   4.677   1.938   5.214 -1.1352  0.5275 -0.3345
 2376TIP3   OH2 7091   7.044   6.484   5.042 -0.7784 -0.2666 -0.2982
 2376TIP3    H1 7092   7.108   6.424   5.080 -0.9967 -0.2700  0.0680
 2376TIP3    H2 7093   7.047   6.465   4.948 -2.1878 -2.2000 -0.0160
 2377TIP3   OH2 7094   3.953   2.978   4.407  0.1648  0.2475 -0.3528
 2377TIP3    H1 7095   3.936   2.995   4.499 -2.7712  1.2156 -0.9590
 2377TIP3    H2 7096   3.997   2.893   4.406 -0.4616 -0.1725  1.8966
 2378TIP3   OH2 7097   0.986   0.552   0.174 -0.8151 -0.1668 -0.2851
 2378TIP3    H1 7098   0.917   0.616   0.153 -1.6735 -1.1007 -0.3989
 2378TIP3    H2 7099   0.980   0.487   0.104  0.2656 -0.2105 -0.3479
 2379TIP3   OH2 7100   3.176   1.625   3.691  0.2874 -0.0826 -0.5029
 2379TIP3    H1 7101   3.118   1.601   3.764 -1.0311  1.9137 -0.8129
 2379TIP3    H2 7102   3.202   1.541   3.653 -0.6971 -1.1136  0.9646
 2380TIP3   OH2 7103   3.645   0.314   5.468 -0.2290  0.1524 -0.4348
 2380TIP3    H1 7104   3.623   0.407   5.473 -0.2414  0.0656  2.7888
 2380TIP3    H2 7105   3.561   0.269   5.478  0.0285 -0.1932  0.1832
 2381TIP3   OH2 7106   5.693   0.360   5.059 -0.1545 -0.1194 -0.0388
 2381TIP3    H1 7107   5.647   0.410   5.126  1.0275 -1.5655  1.9835
 2381TIP3    H2 7108   5.786   0.376   5.077  0.2314  0.8266 -2.4855
 2382TIP3   OH2 7109   7.171   3.470   4.058  0.0815  0.0473 -0.4350
 2382TIP3    H1 7110   7.186   3.397   4.117 -3.6196  0.0392  0.7771
 2382TIP3    H2 7111   7.155   3.545   4.115 -1.4939  0.5055 -1.3928
 2383TIP3   OH2 7112   3.325   6.039   2.045  0.0512 -0.0214  0.1866
 2383TIP3    H1 7113   3.262   5.969   2.031  0.3124 -0.5835  1.6258
 2383TIP3    H2 7114   3.331   6.084   1.961 -1.7224 -0.3996 -0.1642
 2384TIP3   OH2 7115   1.854   0.703   3.006  0.2728 -0.3341 -0.4403
 2384TIP3    H1 7116   1.863   0.610   3.022  0.9605 -0.3245 -0.7699
 2384TIP3    H2 7117   1.759   0.716   2.997  0.1820 -1.0165 -0.5263
 2385TIP3   OH2 7118   2.473   0.916   4.880 -0.2226 -0.3745 -0.2743
 2385TIP3    H1 7119   2.556   0.939   4.922 -0.8858  2.3716 -0.2354
 2385TIP3    H2 7120   2.495   0.905   4.788  0.6593 -2.9737  0.1608
 2386TIP3   OH2 7121   0.589   4.420   4.346 -0.4943  0.8719  0.2644
 2386TIP3    H1 7122   0.590   4.329   4.313 -0.0428  0.3696  1.6164
 2386TIP3    H2 7123   0.678   4.435   4.377 -0.9937  1.1944  1.5940
 2387TIP3   OH2 7124   6.507   0.527   2.271  0.0480  0.1907 -0.8192
 2387TIP3    H1 7125   6.485   0.539   2.178  0.0019  0.9254 -0.7228
 2387TIP3    H2 7126   6.438   0.574   2.318  0.6910  0.7905 -0.4547
 2388TIP3   OH2 7127   5.590   5.052   0.222 -0.3562 -1.2774  0.0896
 2388TIP3    H1 7128   5.524   5.042   0.291 -1.2753 -0.0110 -0.5478
 2388TIP3    H2 7129   5.606   5.147   0.219  2.2196 -1.6373  0.8546
 2389TIP3   OH2 7130   6.711   0.703   0.344 -0.2435  0.1551  0.0776
 2389TIP3    H1 7131   6.702   0.609   0.326 -0.6699  0.1160  0.4884
 2389TIP3    H2 7132   6.804   0.720   0.330 -0.2800 -0.1891 -0.6527
 2390TIP3   OH2 7133   5.486   0.979   5.332 -0.3714  0.1192  0.3367
 2390TIP3    H1 7134   5.448   1.001   5.246 -0.0364  2.0200  0.6267
 2390TIP3    H2 7135   5.415   0.995   5.394  0.4156  2.3808  0.7460
 2391TIP3   OH2 7136   4.520   0.587   1.711  0.3668 -0.2746 -0.1631
 2391TIP3    H1 7137   4.543   0.680   1.716  0.3847 -0.3370  1.4692
 2391TIP3    H2 7138   4.603   0.542   1.699  0.4519 -0.1370 -0.0862
 2392TIP3   OH2 7139   2.148   0.269   5.537  0.1138  0.2150  0.1917
 2392TIP3    H1 7140   2.217   0.208   5.511 -0.0867 -0.1129  0.4246
 2392TIP3    H2 7141   2.078   0.214   5.571 -1.4014  0.3144 -2.4786
 2393TIP3   OH2 7142   0.495   2.714   4.586 -0.4760  0.0636  0.0026
 2393TIP3    H1 7143   0.545   2.652   4.533 -0.5075  0.9800 -1.1647
 2393TIP3    H2 7144   0.528   2.800   4.559 -0.4002  0.5576  1.6067
 2394TIP3   OH2 7145   4.605   5.920   0.671  0.3946  0.2214  0.4133
 2394TIP3    H1 7146   4.584   5.827   0.680  2.3335 -0.2878  0.0281
 2394TIP3    H2 7147   4.647   5.927   0.585  0.0738  1.5105  0.3375
 2395TIP3   OH2 7148   3.257   1.837   3.523  0.1415  0.2564  0.2231
 2395TIP3    H1 7149   3.204   1.778   3.577 -0.1895 -0.6858 -1.0639
 2395TIP3    H2 7150   3.327   1.781   3.489  0.7557  0.9978  0.2443
 2396TIP3   OH2 7151   0.444   4.402   4.951 -0.0230 -0.3298 -0.0454
 2396TIP3    H1 7152   0.349   4.400   4.960 -0.0741  1.1740  0.0205
 2396TIP3    H2 7153   0.469   4.310   4.943 -1.5322 -0.7238 -0.6305
 2397TIP3   OH2 7154   5.958   2.082   3.419 -0.6503  0.4606 -0.4233
 2397TIP3    H1 7155   5.908   2.011   3.377  0.6330 -0.9307  0.2892
 2397TIP3    H2 7156   5.892   2.146   3.444 -2.3964 -2.0166  1.9802
 2398TIP3   OH2 7157   5.505   5.250   0.688  0.0718  0.5873  0.6873
 2398TIP3    H1 7158   5.421   5.204   0.692  0.2442  0.3967  2.6883
 2398TIP3    H2 7159   5.482   5.342   0.672 -0.3008  0.0297 -2.6938
 2399TIP3   OH2 7160   5.287   2.715   5.333 -0.3461 -0.2969  0.1162
 2399TIP3    H1 7161   5.246   2.800   5.348 -0.6955 -0.9282  3.4217
 2399TIP3    H2 7162   5.375   2.723   5.372  0.8668 -0.5437 -2.3733
 2400TIP3   OH2 7163   1.784   3.518   2.477  0.3609 -0.0661  0.5188
 2400TIP3    H1 7164   1.768   3.460   2.551 -0.2796 -0.1942  0.2889
 2400TIP3    H2 7165   1.879   3.518   2.466  0.4719  0.0623  1.4199
 2401TIP3   OH2 7166   3.987   3.620   3.544  0.7752  0.2704  0.4305
 2401TIP3    H1 7167   3.971   3.564   3.620  1.5407 -2.2527 -1.1427
 2401TIP3    H2 7168   3.904   3.619   3.495  0.6261  0.9952  0.6503
 2402TIP3   OH2 7169   1.739   5.590   1.959  0.0712 -0.4615 -0.1908
 2402TIP3    H1 7170   1.737   5.602   1.864  0.6908 -0.5174 -0.2151
 2402TIP3    H2 7171   1.647   5.596   1.986 -0.2877 -1.9904 -0.9871
 2403TIP3   OH2 7172   1.891   4.112   4.004  0.0237  0.5399  0.0834
 2403TIP3    H1 7173   1.870   4.090   4.095 -1.1376  0.3631 -0.2049
 2403TIP3    H2 7174   1.908   4.028   3.962 -0.1942  0.5537 -0.0352
 2404TIP3   OH2 7175   2.817   5.719   2.409 -0.1636  0.2925 -0.2541
 2404TIP3    H1 7176   2.832   5.631   2.444 -0.1409  1.2165  2.2850
 2404TIP3    H2 7177   2.724   5.736   2.427  0.3835  1.6544  1.6449
 2405TIP3   OH2 7178   7.091   1.296   5.865 -0.3600 -0.1988  0.3331
 2405TIP3    H1 7179   7.012   1.329   5.822  1.2981 -0.1862 -3.0101
 2405TIP3    H2 7180   7.159   1.359   5.841  1.5854 -2.6128 -0.9078
 2406TIP3   OH2 7181   4.209   2.744   5.695  0.2851  0.6311  0.0390
 2406TIP3    H1 7182   4.214   2.839   5.701  0.5776  0.5836  0.6368
 2406TIP3    H2 7183   4.287   2.713   5.742  0.2700  0.1014 -0.2778
 2407TIP3   OH2 7184   5.669   0.127   5.850  0.1515  0.6420  0.3684
 2407TIP3    H1 7185   5.754   0.142   5.893  0.3021  0.0558  0.2777
 2407TIP3    H2 7186   5.606   0.171   5.907  0.3954  0.2021  0.9962
 2408TIP3   OH2 7187   1.629   0.003   1.020 -0.0405  0.4506 -0.5324
 2408TIP3    H1 7188   1.683  -0.044   0.956  0.5752  0.5895 -0.1258
 2408TIP3    H2 7189   1.623   0.092   0.986  0.0086  0.4422 -0.5631
 2409TIP3   OH2 7190   5.248   4.757   3.413 -0.0013  0.3930  0.1430
 2409TIP3    H1 7191   5.277   4.701   3.485 -1.1308  0.6300  0.8131
 2409TIP3    H2 7192   5.162   4.723   3.389 -0.2174  1.1502 -0.1965
 2410TIP3   OH2 7193   4.648   4.261   5.898 -0.2465  0.8295  0.1368
 2410TIP3    H1 7194   4.588   4.325   5.860  0.0818  0.4911 -0.9766
 2410TIP3    H2 7195   4.731   4.274   5.852 -0.1066 -0.2379  0.0497
 2411TIP3   OH2 7196   4.890   1.547   2.129  0.5715 -0.4436  0.0012
 2411TIP3    H1 7197   4.927   1.635   2.120  1.2176 -0.7635 -0.5422
 2411TIP3    H2 7198   4.897   1.528   2.222 -1.5905  0.9286  0.5151
 2412TIP3   OH2 7199   3.515   4.446   3.940 -0.0698  0.4434  1.0474
 2412TIP3    H1 7200   3.476   4.533   3.943 -1.8391 -0.2642 -0.0644
 2412TIP3    H2 7201   3.443   4.386   3.959  0.8859 -0.8293  0.7881
 2413TIP3   OH2 7202   4.982   6.117   3.098  0.7561 -0.1527 -0.1391
 2413TIP3    H1 7203   4.917   6.137   3.165  0.7136 -1.4721  0.2390
 2413TIP3    H2 7204   5.042   6.192   3.100 -0.9787  1.3219 -0.8380
 2414TIP3   OH2 7205   5.235   5.274   4.254  0.1596 -0.0891 -0.2506
 2414TIP3    H1 7206   5.204   5.219   4.183 -1.9798  0.2060  0.3923
 2414TIP3    H2 7207   5.170   5.344   4.261  0.6540  0.2435  1.5919
 2415TIP3   OH2 7208   6.233   1.668   3.740  0.6981 -0.0485  0.3067
 2415TIP3    H1 7209   6.284   1.706   3.812 -0.0891 -1.4940  1.6845
 2415TIP3    H2 7210   6.162   1.730   3.725  2.0163  1.2989 -0.6975
 2416TIP3   OH2 7211   4.404   6.017   0.822  0.6737 -0.0205 -0.5486
 2416TIP3    H1 7212   4.392   6.105   0.788  0.7226  0.7011  1.2021
 2416TIP3    H2 7213   4.465   5.975   0.760 -0.0788  0.8290 -1.9062
 2417TIP3   OH2 7214   5.240   2.391   2.786  0.2832 -0.2343  0.0602
 2417TIP3    H1 7215   5.235   2.395   2.690  1.0860  0.7565  0.0521
 2417TIP3    H2 7216   5.149   2.393   2.815  0.0724  1.1180 -0.6315
 2418TIP3   OH2 7217   2.132   6.334   2.239  0.0961 -0.5078  0.1361
 2418TIP3    H1 7218   2.191   6.260   2.231  0.6615  0.1292 -2.3939
 2418TIP3    H2 7219   2.155   6.374   2.323  3.5944 -0.0781 -0.8568
 2419TIP3   OH2 7220   4.419   5.509   4.376  0.1260 -0.0601 -0.3342
 2419TIP3    H1 7221   4.415   5.549   4.289 -1.0245 -0.9369 -0.7165
 2419TIP3    H2 7222   4.414   5.415   4.359  0.0960 -0.2455  0.6659
 2420TIP3   OH2 7223   1.527   4.904   1.281 -0.0252 -0.5290 -0.3569
 2420TIP3    H1 7224   1.523   4.829   1.339  0.6817  1.3084  2.2477
 2420TIP3    H2 7225   1.502   4.978   1.336  1.1841  1.4239 -2.2756
 2421TIP3   OH2 7226   6.520   1.744   0.648 -0.3146 -0.6270 -0.4779
 2421TIP3    H1 7227   6.574   1.692   0.589  0.8302 -0.4732  0.3898
 2421TIP3    H2 7228   6.573   1.752   0.728 -2.0481 -1.3520  0.8139
 2422TIP3   OH2 7229   0.208   2.615   2.133 -0.6844 -0.3339  0.4181
 2422TIP3    H1 7230   0.193   2.521   2.148  0.3835 -0.3091  1.8631
 2422TIP3    H2 7231   0.121   2.651   2.117 -1.0403 -1.6938 -1.1048
 2423TIP3   OH2 7232   1.433   5.554   5.198 -0.2283  0.3181  1.3497
 2423TIP3    H1 7233   1.513   5.516   5.234 -0.3884 -0.0869  1.2722
 2423TIP3    H2 7234   1.453   5.648   5.193 -0.3529  0.4492  2.8861
 2424TIP3   OH2 7235   4.480   5.122   3.118  0.4409 -0.2007 -0.4818
 2424TIP3    H1 7236   4.525   5.050   3.072 -0.1097 -1.1616  0.4295
 2424TIP3    H2 7237   4.515   5.119   3.207 -0.2433  0.0794 -0.1989
 2425TIP3   OH2 7238   3.656   4.815   1.992  0.6588  0.0188 -0.0152
 2425TIP3    H1 7239   3.653   4.909   2.011  0.5180 -0.3157  1.8279
 2425TIP3    H2 7240   3.737   4.785   2.035  0.5510 -0.7568 -0.3376
 2426TIP3   OH2 7241   1.883   1.652   0.932  0.2040  0.4127  0.0026
 2426TIP3    H1 7242   1.924   1.659   0.846  1.0732  0.9067  0.4474
 2426TIP3    H2 7243   1.945   1.694   0.991 -0.8976  1.0678  0.7102
 2427TIP3   OH2 7244   5.970   1.402   4.300  0.5243  0.6768  0.2154
 2427TIP3    H1 7245   5.992   1.314   4.269  0.3193  1.1208 -1.2823
 2427TIP3    H2 7246   5.874   1.403   4.303  0.5093  0.9521 -0.1646
 2428TIP3   OH2 7247   1.723   2.856   2.098  0.3425 -0.1993  0.3237
 2428TIP3    H1 7248   1.704   2.883   2.187  0.0338  2.7830 -0.5600
 2428TIP3    H2 7249   1.749   2.936   2.053  2.0594 -1.8655 -1.8976
 2429TIP3   OH2 7250   6.433   5.775   5.253 -0.3552 -0.4373  0.0502
 2429TIP3    H1 7251   6.356   5.722   5.236 -0.2666 -0.3909 -0.4957
 2429TIP3    H2 7252   6.478   5.781   5.169 -1.1282  1.7159 -0.2760
 2430TIP3   OH2 7253   0.212   5.602   1.860  0.3761 -0.0635  0.0342
 2430TIP3    H1 7254   0.245   5.608   1.950 -0.1060 -2.1464  0.3968
 2430TIP3    H2 7255   0.250   5.678   1.816  3.3495 -0.7819  1.1443
 2431TIP3   OH2 7256   2.937   2.823   4.863  0.1289  0.3799  0.5676
 2431TIP3    H1 7257   2.864   2.870   4.904 -0.6617  0.3654 -0.7434
 2431TIP3    H2 7258   2.906   2.733   4.854  0.6677  0.1645  0.8154
 2432TIP3   OH2 7259   1.707   1.847   5.013  0.0838 -0.1238  0.9702
 2432TIP3    H1 7260   1.645   1.809   5.075  0.0008  0.8867  1.5276
 2432TIP3    H2 7261   1.790   1.851   5.062  0.6410 -1.5668  0.1972
 2433TIP3   OH2 7262   4.092   5.922   3.091  0.0001 -0.1364  0.1746
 2433TIP3    H1 7263   4.125   5.856   3.030 -0.0503 -0.0965  0.1054
 2433TIP3    H2 7264   4.133   6.004   3.063 -1.2102  0.1756 -0.7549
 2434TIP3   OH2 7265   4.105   1.714   3.021  0.2553 -0.0368  0.0090
 2434TIP3    H1 7266   4.074   1.801   3.048 -0.0304  0.4315 -1.7091
 2434TIP3    H2 7267   4.193   1.730   2.987  0.9652 -0.7610  1.4351
 2435TIP3   OH2 7268   1.615   6.773   2.805  0.1568  0.0400  0.0894
 2435TIP3    H1 7269   1.675   6.703   2.831  0.4283  0.7717  1.4870
 2435TIP3    H2 7270   1.659   6.854   2.830 -1.1516  0.6139  0.6429
 2436TIP3   OH2 7271   2.469   3.806   2.335  0.3101 -0.5486 -0.3528
 2436TIP3    H1 7272   2.459   3.798   2.430  0.6129  0.6089 -0.2030
 2436TIP3    H2 7273   2.555   3.847   2.324  0.4215 -0.9842 -1.1472
 2437TIP3   OH2 7274   5.587   6.106   2.503 -0.3069  0.1934  0.0080
 2437TIP3    H1 7275   5.505   6.082   2.460  0.3948  0.0643 -1.3099
 2437TIP3    H2 7276   5.569   6.191   2.543 -1.1530  0.0515 -0.0500
 2438TIP3   OH2 7277   6.844   0.535   1.686 -0.1478  0.2920 -0.5945
 2438TIP3    H1 7278   6.798   0.610   1.648  1.5550  1.4058 -0.5422
 2438TIP3    H2 7279   6.867   0.563   1.775  0.1506 -0.4518 -0.4250
 2439TIP3   OH2 7280   1.769   5.816   4.897  0.3138 -0.1378 -0.1174
 2439TIP3    H1 7281   1.757   5.766   4.978  0.7869  0.6336  0.4565
 2439TIP3    H2 7282   1.788   5.751   4.830 -0.1450 -0.7953  0.3839
 2440TIP3   OH2 7283   2.338   2.398   5.050 -0.0016  0.1549 -0.2254
 2440TIP3    H1 7284   2.287   2.476   5.073 -2.1362 -1.4296  0.8374
 2440TIP3    H2 7285   2.328   2.341   5.126  2.8479 -0.5744 -0.3051
 2441TIP3   OH2 7286   3.629   4.367   5.637  0.8089  0.7105 -0.3818
 2441TIP3    H1 7287   3.708   4.362   5.583  1.3206  0.7678  0.3531
 2441TIP3    H2 7288   3.561   4.324   5.585  0.8821  2.2139 -1.8029
 2442TIP3   OH2 7289   3.454   1.968   5.228 -0.0114  0.0543  0.2679
 2442TIP3    H1 7290   3.462   1.895   5.289  0.4819  0.9110  1.2720
 2442TIP3    H2 7291   3.544   1.993   5.208 -0.0433  2.4851  2.6083
 2443TIP3   OH2 7292   2.794   5.720   1.667 -0.7858 -0.2990  0.2027
 2443TIP3    H1 7293   2.883   5.739   1.698 -0.1134 -2.2018 -0.3832
 2443TIP3    H2 7294   2.789   5.760   1.581 -0.3381 -0.5224  0.0698
 2444TIP3   OH2 7295   6.115   6.037   1.749  0.4484 -0.2083 -0.2636
 2444TIP3    H1 7296   6.074   6.089   1.818 -1.2721 -0.2174 -1.2224
 2444TIP3    H2 7297   6.186   6.092   1.717  0.2019  0.5091  0.3855
 2445TIP3   OH2 7298   5.707   5.558   2.555  0.9374  0.5870 -0.4231
 2445TIP3    H1 7299   5.773   5.525   2.493  0.8538 -1.2266  0.3770
 2445TIP3    H2 7300   5.676   5.639   2.516  2.5525  0.6979 -1.5874
 2446TIP3   OH2 7301   7.039   5.247   2.038 -0.0668  0.3555  0.0891
 2446TIP3    H1 7302   7.091   5.216   1.964  0.1240 -2.3246  1.2409
 2446TIP3    H2 7303   7.088   5.221   2.116 -2.9606 -2.3380  1.2617
 2447TIP3   OH2 7304   5.468   5.068   1.222  0.1896  0.0150  0.2530
 2447TIP3    H1 7305   5.546   5.059   1.166  1.6454  1.9603  1.8259
 2447TIP3    H2 7306   5.408   5.121   1.171  0.3418 -0.5610 -0.5426
 2448TIP3   OH2 7307   3.651   1.325   2.664 -0.6553 -0.0285 -0.6345
 2448TIP3    H1 7308   3.645   1.327   2.568 -1.1970 -0.8201 -0.6229
 2448TIP3    H2 7309   3.648   1.417   2.689 -0.9542  0.1666 -1.3517
 2449TIP3   OH2 7310   1.954   1.288   3.128 -0.0496  0.3448 -0.2164
 2449TIP3    H1 7311   1.889   1.219   3.140  0.2690 -0.0852 -0.8832
 2449TIP3    H2 7312   2.036   1.251   3.162  0.2125  0.2249 -0.9506
 2450TIP3   OH2 7313   1.506   5.828   4.166 -0.4146  0.0205 -0.0922
 2450TIP3    H1 7314   1.454   5.805   4.243 -0.2667  0.8795  0.2753
 2450TIP3    H2 7315   1.592   5.853   4.202 -0.2557  0.1588 -0.5590
 2451TIP3   OH2 7316   4.805   4.433   0.078  0.2251 -0.3082 -0.1852
 2451TIP3    H1 7317   4.758   4.350   0.065  1.1671 -0.6991 -1.2722
 2451TIP3    H2 7318   4.835   4.457  -0.010  2.1517 -0.1292  0.4904
 2452TIP3   OH2 7319   5.715   5.365   2.060  0.1870  0.2653  0.0620
 2452TIP3    H1 7320   5.653   5.404   2.121 -1.7443 -1.5303 -0.6529
 2452TIP3    H2 7321   5.759   5.297   2.110 -0.4779 -0.3545 -0.1882
 2453TIP3   OH2 7322   2.102   2.420   4.471 -0.0477 -0.8731  0.0598
 2453TIP3    H1 7323   2.139   2.349   4.418 -0.0350 -0.1275 -0.9473
 2453TIP3    H2 7324   2.170   2.488   4.470 -1.3169  0.4439 -1.6522
 2454TIP3   OH2 7325   7.090   0.717   1.480  0.6093  0.2390 -0.4823
 2454TIP3    H1 7326   7.001   0.746   1.502  0.1930 -0.6876 -0.9187
 2454TIP3    H2 7327   7.105   0.641   1.537  1.5921  1.0912  0.4558
 2455TIP3   OH2 7328   6.807   1.937   2.291 -0.0777 -0.0980 -0.9404
 2455TIP3    H1 7329   6.777   2.027   2.279 -0.4496  0.1200  1.1275
 2455TIP3    H2 7330   6.900   1.945   2.311  0.1402 -0.2859 -1.8510
 2456TIP3   OH2 7331   2.350   2.051   4.735  0.3117 -0.5715  0.0273
 2456TIP3    H1 7332   2.334   2.135   4.778  0.9914  0.7834 -2.2169
 2456TIP3    H2 7333   2.438   2.026   4.764 -0.1106 -0.8057  1.1336
 2457TIP3   OH2 7334   2.240   2.186   1.324  0.0801 -0.4667  0.1268
 2457TIP3    H1 7335   2.208   2.242   1.394 -2.0754 -1.1577 -0.2375
 2457TIP3    H2 7336   2.201   2.100   1.343 -0.5647 -0.6635 -1.8922
 2458TIP3   OH2 7337   3.999   3.510   5.205  0.3335  0.5108  0.3203
 2458TIP3    H1 7338   4.093   3.513   5.189 -0.0166 -0.5359 -2.5832
 2458TIP3    H2 7339   3.969   3.599   5.190  0.8070  0.7911  0.9955
 2459TIP3   OH2 7340   4.681   1.850   3.759 -0.2865  0.2206  0.1168
 2459TIP3    H1 7341   4.742   1.792   3.713 -0.9432 -1.0764  0.8155
 2459TIP3    H2 7342   4.679   1.930   3.707  1.1884 -0.1094 -0.5010
 2460TIP3   OH2 7343   2.994   3.400   5.321  0.5164  0.4685 -0.7382
 2460TIP3    H1 7344   2.924   3.375   5.381 -1.0080  2.1865 -1.6899
 2460TIP3    H2 7345   3.072   3.408   5.376 -0.6007  1.0000  0.8132
 2461TIP3   OH2 7346   4.434   4.250   1.268 -0.1518  0.0095  0.1262
 2461TIP3    H1 7347   4.403   4.165   1.236  0.4719 -0.0808 -0.2698
 2461TIP3    H2 7348   4.369   4.277   1.332 -0.8930 -0.2925 -0.4847
 2462TIP3   OH2 7349   1.337   5.037   2.371  0.5651 -1.3544 -0.7431
 2462TIP3    H1 7350   1.266   4.986   2.408 -1.0289  0.6699 -0.8665
 2462TIP3    H2 7351   1.294   5.102   2.316  2.4935  0.0492 -0.6911
 2463TIP3   OH2 7352   5.760   6.226   0.240  0.3674 -0.0045 -0.0329
 2463TIP3    H1 7353   5.713   6.250   0.160  0.4378  1.7671  0.4278
 2463TIP3    H2 7354   5.839   6.279   0.238  0.9449 -0.8204  0.6521
 2464TIP3   OH2 7355   1.930   2.191   3.431 -0.1413 -0.1314 -0.6318
 2464TIP3    H1 7356   1.920   2.117   3.372 -0.1925 -0.6182 -0.0262
 2464TIP3    H2 7357   2.018   2.224   3.414 -0.3579  0.0759 -1.3638
 2465TIP3   OH2 7358   1.290   0.330   3.929 -0.3384  0.2038 -0.3727
 2465TIP3    H1 7359   1.307   0.364   3.841 -0.6883  1.6183  0.0747
 2465TIP3    H2 7360   1.208   0.371   3.955 -0.9121 -1.2088  0.1382
 2466TIP3   OH2 7361   0.490   1.625   2.789  0.3429  0.0184  0.0804
 2466TIP3    H1 7362   0.580   1.632   2.821  0.1375  0.4195  0.5918
 2466TIP3    H2 7363   0.473   1.710   2.749  0.1547 -0.0181  0.0842
 2467TIP3   OH2 7364   6.792   2.757   4.735 -0.1213  0.4234  0.2677
 2467TIP3    H1 7365   6.810   2.712   4.817 -0.0185 -0.1741 -0.0779
 2467TIP3    H2 7366   6.823   2.697   4.667  1.8496  1.8489 -0.1613
 2468TIP3   OH2 7367   3.279   3.885   3.839  0.4243  0.3611  0.3481
 2468TIP3    H1 7368   3.347   3.938   3.797 -0.0912  0.9791  0.2753
 2468TIP3    H2 7369   3.239   3.945   3.903 -0.6155  0.2794 -0.2017
 2469TIP3   OH2 7370   3.821   0.071   5.839  0.7730 -0.8759 -0.2155
 2469TIP3    H1 7371   3.780   0.046   5.922  2.0477 -0.6780  0.4996
 2469TIP3    H2 7372   3.835  -0.012   5.794  0.1564 -0.9939 -0.2030
 2470TIP3   OH2 7373   7.060   4.064   1.085  0.3699  0.1622  0.4145
 2470TIP3    H1 7374   6.994   4.045   1.018  1.5724  0.8392 -1.0046
 2470TIP3    H2 7375   7.070   3.981   1.132 -3.1055  0.5720  2.2517
 2471TIP3   OH2 7376   0.937   6.346   4.016  0.1218  0.2991  0.4147
 2471TIP3    H1 7377   0.998   6.272   4.014  0.6748  0.6757  2.0883
 2471TIP3    H2 7378   0.862   6.316   3.965  0.7015 -1.0895  0.3313
 2472TIP3   OH2 7379   1.056   6.226   4.974  0.4206 -0.2788 -0.1304
 2472TIP3    H1 7380   1.077   6.261   5.061 -1.3729  0.4877  0.0430
 2472TIP3    H2 7381   1.072   6.298   4.914 -2.3857  0.6843  0.1190
 2473TIP3   OH2 7382   4.125   2.443   5.563 -0.2013 -0.3995 -0.3212
 2473TIP3    H1 7383   4.045   2.496   5.567 -1.0639 -1.7449  1.0674
 2473TIP3    H2 7384   4.153   2.435   5.655 -0.4804 -2.8625 -0.3860
 2474TIP3   OH2 7385   6.917   2.408   3.071 -0.1717 -0.3148 -0.1958
 2474TIP3    H1 7386   7.012   2.422   3.064 -0.3457  0.7032 -0.6590
 2474TIP3    H2 7387   6.889   2.391   2.981 -0.4566 -0.4900 -0.0749
 2475TIP3   OH2 7388   3.967   4.179   5.377  0.1076 -0.0579 -0.1833
 2475TIP3    H1 7389   4.019   4.102   5.355 -0.2255  0.0236 -1.3271
 2475TIP3    H2 7390   3.961   4.178   5.472  0.9490 -0.8850 -0.1285
 2476TIP3   OH2 7391   5.862   1.898   5.167 -0.4501  0.4866  0.6544
 2476TIP3    H1 7392   5.773   1.869   5.150  0.6366 -2.1762 -1.2883
 2476TIP3    H2 7393   5.893   1.840   5.237 -0.6109  2.3400  2.3384
 2477TIP3   OH2 7394   2.852   4.802   1.417 -0.1008 -0.3679  0.1213
 2477TIP3    H1 7395   2.783   4.860   1.386  0.1281 -0.9591 -1.6705
 2477TIP3    H2 7396   2.933   4.843   1.388  0.1652 -0.7211  0.3490
 2478TIP3   OH2 7397   1.014   2.255   3.644  0.0960  0.5454 -0.7197
 2478TIP3    H1 7398   1.005   2.264   3.739 -0.9127  0.9829 -0.8354
 2478TIP3    H2 7399   1.022   2.161   3.630  0.0989  0.4612 -0.2074
 2479TIP3   OH2 7400   3.433   6.327   2.251 -0.0008  0.1955 -0.4848
 2479TIP3    H1 7401   3.352   6.342   2.203  0.5150 -1.2636 -1.9215
 2479TIP3    H2 7402   3.420   6.243   2.295  0.8103 -0.1955 -0.9633
 2480TIP3   OH2 7403   5.323   0.977   0.583 -0.0533  0.5079 -0.1949
 2480TIP3    H1 7404   5.241   0.992   0.535  0.1383 -1.1297 -1.1100
 2480TIP3    H2 7405   5.375   0.923   0.523  1.0042  0.0801  1.0849
 2481TIP3   OH2 7406   0.165   2.295   3.316  0.0351  0.4583  0.2282
 2481TIP3    H1 7407   0.201   2.270   3.230 -0.2874  0.2676  0.1477
 2481TIP3    H2 7408   0.081   2.336   3.296 -0.8397 -1.0734  0.5416
 2482TIP3   OH2 7409   6.351   3.151   2.604  0.3990  0.0149 -0.0209
 2482TIP3    H1 7410   6.380   3.096   2.677  0.5036  0.4631  0.2830
 2482TIP3    H2 7411   6.256   3.156   2.615  0.4936  0.7380  0.5688
 2483TIP3   OH2 7412   6.299   1.799   0.460 -0.0428  0.0828  0.0398
 2483TIP3    H1 7413   6.240   1.791   0.535  1.3260 -0.0355  1.1420
 2483TIP3    H2 7414   6.383   1.825   0.498  0.4328  1.0407 -1.5669
 2484TIP3   OH2 7415   6.186   5.311   2.082 -0.5232 -0.1623  0.4116
 2484TIP3    H1 7416   6.249   5.383   2.090 -0.5300  0.1308 -1.6602
 2484TIP3    H2 7417   6.229   5.237   2.126  0.2047  0.6551  1.1183
 2485TIP3   OH2 7418   5.087   0.901   2.478  0.2024 -0.0266 -0.6745
 2485TIP3    H1 7419   5.056   0.894   2.388  1.3191  1.3267 -1.2076
 2485TIP3    H2 7420   5.019   0.951   2.523  0.4424  0.8047 -1.2158
 2486TIP3   OH2 7421   5.098   4.738   2.192  0.0621 -0.3185  0.4331
 2486TIP3    H1 7422   5.056   4.668   2.242  0.3322 -0.2235  0.7955
 2486TIP3    H2 7423   5.124   4.803   2.257 -1.5319  0.8560 -0.0382
 2487TIP3   OH2 7424   4.650   1.122   0.310 -0.6518  0.0014  0.0215
 2487TIP3    H1 7425   4.738   1.104   0.277 -0.3742 -0.2677  0.8929
 2487TIP3    H2 7426   4.595   1.058   0.264 -0.0198 -1.5315  1.2911
 2488TIP3   OH2 7427   4.534   5.471   5.648  0.1017  0.2635  0.6593
 2488TIP3    H1 7428   4.571   5.408   5.587  0.2345  0.0274  0.9823
 2488TIP3    H2 7429   4.521   5.421   5.729 -0.4203  0.4763  0.7118
 2489TIP3   OH2 7430   4.353   6.489   1.614 -0.2181 -0.3522  0.4383
 2489TIP3    H1 7431   4.312   6.484   1.528 -0.8402  1.4619  0.6024
 2489TIP3    H2 7432   4.288   6.451   1.673 -0.0569 -0.9980  0.2145
 2490TIP3   OH2 7433   4.340   3.694   2.117 -0.1113 -0.3177 -0.5750
 2490TIP3    H1 7434   4.371   3.762   2.177  0.3060 -0.3779 -0.7177
 2490TIP3    H2 7435   4.303   3.626   2.174  0.8031 -0.6389 -0.3385
 2491TIP3   OH2 7436   6.077   3.937   0.148  0.0819  0.2785  0.0982
 2491TIP3    H1 7437   6.051   3.864   0.204  0.4699 -0.7692 -1.0352
 2491TIP3    H2 7438   6.004   3.948   0.087  0.5762 -0.0305 -0.5563
 2492TIP3   OH2 7439   6.156   5.474   1.795 -0.4251  0.4187 -0.4625
 2492TIP3    H1 7440   6.186   5.533   1.726 -0.7754  1.4396  0.2421
 2492TIP3    H2 7441   6.228   5.470   1.857  0.0292 -0.7801 -1.0380
 2493TIP3   OH2 7442   4.850   6.642   2.901  0.0308 -0.3609 -0.3398
 2493TIP3    H1 7443   4.933   6.641   2.948 -0.8829  2.5534  1.5877
 2493TIP3    H2 7444   4.861   6.709   2.833 -0.2870 -1.0383 -1.0791
 2494TIP3   OH2 7445   0.403   5.346   4.423 -0.3540 -0.1285 -0.3268
 2494TIP3    H1 7446   0.355   5.424   4.453 -1.0055 -0.9047  0.6956
 2494TIP3    H2 7447   0.382   5.278   4.487  2.2679 -0.4809  0.2838
 2495TIP3   OH2 7448   0.814   5.168   5.038 -0.2038 -0.3462 -0.3997
 2495TIP3    H1 7449   0.807   5.179   4.943  0.5246  2.1623 -0.2112
 2495TIP3    H2 7450   0.739   5.216   5.073  1.5179  1.9219  0.3843
 2496TIP3   OH2 7451   2.550   5.984   3.236 -0.3248  0.1392 -0.3471
 2496TIP3    H1 7452   2.550   6.080   3.245 -1.1523  0.2521 -1.2726
 2496TIP3    H2 7453   2.641   5.961   3.223 -0.2017  0.8934 -0.8845
 2497TIP3   OH2 7454   4.703   3.295   5.873 -0.5724  0.2058 -0.3156
 2497TIP3    H1 7455   4.651   3.368   5.838 -0.3447  0.8659  0.6774
 2497TIP3    H2 7456   4.793   3.328   5.872 -0.6188  0.4658  1.3875
 2498TIP3   OH2 7457   5.483   4.301   3.129  0.0786  0.2102  0.2500
 2498TIP3    H1 7458   5.540   4.249   3.071 -0.0294  1.0159 -0.5976
 2498TIP3    H2 7459   5.411   4.329   3.072  0.5646  1.9830  0.4685
 2499TIP3   OH2 7460   3.402   4.486   5.441 -0.2366  0.1146 -0.2231
 2499TIP3    H1 7461   3.490   4.519   5.422 -0.4033  1.2967  0.9674
 2499TIP3    H2 7462   3.349   4.516   5.367  0.4415 -1.1290 -1.2648
 2500TIP3   OH2 7463   5.039   1.019   0.973  0.3551 -0.3064  0.0228
 2500TIP3    H1 7464   5.099   1.065   0.913  0.7004 -1.4039 -0.5170
 2500TIP3    H2 7465   5.071   1.041   1.060  0.0239  1.0926 -0.1965
 2501TIP3   OH2 7466   0.457   3.729   0.583  0.3835  0.0852  0.1608
 2501TIP3    H1 7467   0.487   3.750   0.672  0.3329 -1.0812  0.4626
 2501TIP3    H2 7468   0.399   3.802   0.561  1.0182  0.8037  0.7626
 2502TIP3   OH2 7469   4.703   5.110   1.488 -0.1487 -0.2086  0.2325
 2502TIP3    H1 7470   4.622   5.074   1.451 -0.0488  0.8521 -1.0838
 2502TIP3    H2 7471   4.679   5.198   1.517  0.4989  0.0518 -0.0127
 2503TIP3   OH2 7472   0.915   2.443   0.722 -0.1883  0.0784  0.4475
 2503TIP3    H1 7473   0.872   2.525   0.698 -1.2026 -0.5669  0.0049
 2503TIP3    H2 7474   1.006   2.468   0.738 -0.0561  1.0164 -1.4642
 2504TIP3   OH2 7475   5.058   4.351   5.080 -0.2105 -0.2045  0.1368
 2504TIP3    H1 7476   5.127   4.384   5.023  0.8201 -0.0638  1.4218
 2504TIP3    H2 7477   5.062   4.256   5.071  0.9703 -0.2631  1.0921
 2505TIP3   OH2 7478   2.698   1.283   0.939 -0.6081  0.6081 -0.1537
 2505TIP3    H1 7479   2.786   1.275   0.901  0.4562  0.7309  2.1498
 2505TIP3    H2 7480   2.663   1.194   0.935 -0.1209  0.4228 -0.5099
 2506TIP3   OH2 7481   2.133   4.740   5.768  0.1903  0.4694  0.3474
 2506TIP3    H1 7482   2.077   4.792   5.828  0.5684  0.8973  0.3355
 2506TIP3    H2 7483   2.205   4.799   5.746  0.5668 -0.0308  0.2372
 2507TIP3   OH2 7484   2.557   6.371   0.915 -0.0784 -0.7303 -0.3390
 2507TIP3    H1 7485   2.498   6.406   0.982  1.5304 -2.3288  2.0865
 2507TIP3    H2 7486   2.637   6.423   0.923 -0.7662  0.9923 -3.1577
 2508TIP3   OH2 7487   1.538   5.335   1.946 -0.6111 -0.2269  0.5375
 2508TIP3    H1 7488   1.466   5.381   1.903 -0.2623  1.6704  1.8161
 2508TIP3    H2 7489   1.502   5.309   2.031 -1.0851 -3.2871 -0.5118
 2509TIP3   OH2 7490   5.664   3.561   4.596 -0.2351  0.1557 -0.1078
 2509TIP3    H1 7491   5.751   3.538   4.563 -0.3252  0.0204 -0.2542
 2509TIP3    H2 7492   5.628   3.479   4.630 -0.0008  0.3708  0.6620
 2510TIP3   OH2 7493   0.921   5.933   1.627 -0.3958 -0.2841  0.4745
 2510TIP3    H1 7494   0.834   5.897   1.611  0.5818 -1.9924 -1.4781
 2510TIP3    H2 7495   0.925   5.945   1.721 -2.6262 -0.4442  0.6474
 2511TIP3   OH2 7496   0.811   1.074   3.856 -0.3413  0.1321 -0.5053
 2511TIP3    H1 7497   0.728   1.100   3.896  1.0711  1.8549  1.5096
 2511TIP3    H2 7498   0.807   1.109   3.767 -0.7049  2.6946  0.4382
 2512TIP3   OH2 7499   4.002   5.143   2.656  0.0219 -0.3216 -0.2596
 2512TIP3    H1 7500   4.030   5.165   2.745  2.3016 -0.5777 -0.8331
 2512TIP3    H2 7501   3.909   5.164   2.654 -0.5748 -2.0307  2.7401
 2513TIP3   OH2 7502   3.360   2.570   0.218  0.3134  0.6501  0.4470
 2513TIP3    H1 7503   3.291   2.621   0.260  2.0378  2.3934  1.3262
 2513TIP3    H2 7504   3.321   2.541   0.136 -1.3788  1.7703  0.7860
 2514TIP3   OH2 7505   3.116   3.763   0.881 -0.1430  0.0375 -0.0104
 2514TIP3    H1 7506   3.049   3.750   0.949 -0.0786 -0.5067 -0.0463
 2514TIP3    H2 7507   3.137   3.675   0.851  2.5216 -0.0740  1.8293
 2515TIP3   OH2 7508   3.775   4.900   1.768  0.5697 -0.0162 -0.1264
 2515TIP3    H1 7509   3.735   4.854   1.842 -1.7350 -0.1133 -1.3669
 2515TIP3    H2 7510   3.864   4.863   1.763 -0.3422 -2.5061  0.4913
 2516TIP3   OH2 7511   0.561   4.158   0.211 -0.1854  0.0756 -0.2444
 2516TIP3    H1 7512   0.580   4.217   0.284 -0.0404  1.1047 -1.0863
 2516TIP3    H2 7513   0.541   4.217   0.137 -2.2076 -0.9291 -0.5694
 2517TIP3   OH2 7514   6.179   1.591   0.946  0.1060 -0.5209  0.1806
 2517TIP3    H1 7515   6.177   1.536   1.025  0.0876 -0.3860  0.2753
 2517TIP3    H2 7516   6.191   1.680   0.980 -1.0813 -0.3098  0.1211
 2518TIP3   OH2 7517   1.447   2.327   1.224 -0.1005 -0.1922 -0.4742
 2518TIP3    H1 7518   1.483   2.407   1.264  0.4953 -0.9332  0.5240
 2518TIP3    H2 7519   1.406   2.357   1.143  1.3839  0.9320 -0.8585
 2519TIP3   OH2 7520   2.604   5.979   4.038  0.2395  0.1542 -0.2070
 2519TIP3    H1 7521   2.558   6.049   3.991  0.1560 -0.2125 -0.6777
 2519TIP3    H2 7522   2.534   5.927   4.077  0.3241  0.9992  1.1484
 2520TIP3   OH2 7523  -0.011   4.586   1.218  0.2995 -0.0574 -0.2472
 2520TIP3    H1 7524  -0.014   4.564   1.312 -1.3989  1.0299 -0.0087
 2520TIP3    H2 7525   0.083   4.593   1.199  0.6867 -0.1914  1.3944
 2521TIP3   OH2 7526   6.901   2.575   1.225  0.2036 -0.2341 -0.0845
 2521TIP3    H1 7527   6.954   2.572   1.305  2.2151 -1.6816 -1.3820
 2521TIP3    H2 7528   6.935   2.650   1.177  1.7515 -1.6866 -1.3213
 2522TIP3   OH2 7529   6.559   4.646   1.595 -0.1137  0.0914 -0.5601
 2522TIP3    H1 7530   6.533   4.704   1.666  0.4007 -0.4241  0.0610
 2522TIP3    H2 7531   6.479   4.634   1.543 -0.6327  0.0605  0.2278
 2523TIP3   OH2 7532   1.726   3.177   4.398  0.2416 -0.3878  0.4798
 2523TIP3    H1 7533   1.749   3.124   4.321 -2.7752  1.1343 -1.6902
 2523TIP3    H2 7534   1.760   3.264   4.379  0.2885 -0.2050  1.3453
 2524TIP3   OH2 7535   3.613   6.442   2.456  0.1765 -0.5094  0.4340
 2524TIP3    H1 7536   3.561   6.400   2.388  0.4436  0.6153 -0.4894
 2524TIP3    H2 7537   3.665   6.371   2.493  1.8823 -0.7662 -2.2237
 2525TIP3   OH2 7538   3.324   3.697   2.141  0.0393  0.1924 -0.0195
 2525TIP3    H1 7539   3.303   3.780   2.097  0.5175  0.7648  0.8014
 2525TIP3    H2 7540   3.416   3.705   2.164  0.1137 -0.6158 -0.0129
 2526TIP3   OH2 7541   0.630   1.477   3.351 -0.0653  0.1506  0.2403
 2526TIP3    H1 7542   0.724   1.497   3.342  0.2253 -1.4630 -0.5378
 2526TIP3    H2 7543   0.621   1.388   3.319 -1.6219 -0.3003  1.7879
 2527TIP3   OH2 7544   6.838   0.147   1.067 -0.2557 -0.5036  0.6377
 2527TIP3    H1 7545   6.797   0.122   0.985 -0.2522 -1.0543  0.7982
 2527TIP3    H2 7546   6.768   0.140   1.132 -0.9851  2.4978  0.3036
 2528TIP3   OH2 7547   0.521   3.091   3.028  0.0587  0.2074 -0.5508
 2528TIP3    H1 7548   0.600   3.039   3.017  0.3407  0.6529 -0.6288
 2528TIP3    H2 7549   0.524   3.123   3.118  0.5356  1.1468 -0.8871
 2529TIP3   OH2 7550   0.406   1.211   0.812 -0.1581  0.1150  0.4918
 2529TIP3    H1 7551   0.376   1.131   0.854  2.2718 -0.1822  1.8375
 2529TIP3    H2 7552   0.326   1.252   0.778 -1.4023 -3.4370 -1.3950
 2530TIP3   OH2 7553   5.513   3.123   2.909  0.1542  0.0067 -0.8798
 2530TIP3    H1 7554   5.439   3.067   2.934  2.6350 -3.2674 -0.1235
 2530TIP3    H2 7555   5.483   3.168   2.831 -1.6572 -3.7098 -2.6119
 2531TIP3   OH2 7556   1.598   0.959   5.758 -0.1412  0.4832  0.8947
 2531TIP3    H1 7557   1.548   0.941   5.678  1.7560  0.1571 -0.2995
 2531TIP3    H2 7558   1.556   0.906   5.825  0.7500 -2.7182 -0.8571
 2532TIP3   OH2 7559   7.057   4.140   3.200  0.4084 -0.7291  0.4618
 2532TIP3    H1 7560   7.150   4.158   3.214  0.8760 -3.0333  0.7474
 2532TIP3    H2 7561   7.014   4.168   3.280  0.7952  0.6591  0.1992
 2533TIP3   OH2 7562   0.950   0.416   3.958 -0.3459 -0.3928  0.3333
 2533TIP3    H1 7563   0.990   0.376   4.035 -1.6815 -0.2597  1.1315
 2533TIP3    H2 7564   0.856   0.415   3.977 -0.5870  0.9506 -0.6621
 2534TIP3   OH2 7565   3.856   0.467   4.746 -0.3681  0.7546  0.4416
 2534TIP3    H1 7566   3.950   0.447   4.754 -0.5092 -0.0048  0.2756
 2534TIP3    H2 7567   3.835   0.517   4.825  0.0191  0.2908  0.8437
 2535TIP3   OH2 7568   1.777   1.739   2.844  0.3905  0.7024  0.4082
 2535TIP3    H1 7569   1.795   1.731   2.750 -2.2702 -0.9008 -0.0671
 2535TIP3    H2 7570   1.723   1.818   2.851  1.2565  1.2738  0.7246
 2536TIP3   OH2 7571   6.107   0.860   1.259  0.0460 -0.1287 -0.1087
 2536TIP3    H1 7572   6.028   0.915   1.256  0.4341  0.3942 -2.1590
 2536TIP3    H2 7573   6.137   0.857   1.168  2.5608 -0.0892  0.6709
 2537TIP3   OH2 7574   5.073   4.070   0.588  0.6039 -0.3837 -0.2870
 2537TIP3    H1 7575   5.108   4.128   0.656  2.6553 -1.0889 -0.6823
 2537TIP3    H2 7576   5.048   3.990   0.636 -0.4999  0.1045 -0.0113
 2538TIP3   OH2 7577   1.787   2.406   2.350 -0.2813  0.2697  0.1169
 2538TIP3    H1 7578   1.877   2.435   2.334 -0.7128  0.5087 -2.1150
 2538TIP3    H2 7579   1.797   2.328   2.406  1.2138  0.9398  0.8523
 2539TIP3   OH2 7580   2.893   3.542   0.396  0.5164  0.3157 -0.5724
 2539TIP3    H1 7581   2.879   3.614   0.334  0.5850  0.3658 -0.5303
 2539TIP3    H2 7582   2.805   3.519   0.426  0.3574 -0.6496 -1.7428
 2540TIP3   OH2 7583   1.929   5.379   4.067  0.1095  0.1451  0.0485
 2540TIP3    H1 7584   1.933   5.310   4.133  1.9843  0.7594  0.6250
 2540TIP3    H2 7585   1.840   5.372   4.031 -0.3649 -1.3422  1.3871
 2541TIP3   OH2 7586   6.235   1.178   3.355  0.1796 -0.0217 -0.6378
 2541TIP3    H1 7587   6.169   1.247   3.362  0.5976  0.3456 -0.1862
 2541TIP3    H2 7588   6.202   1.107   3.409 -0.1717 -0.1150 -0.9687
 2542TIP3   OH2 7589   6.872   6.675   4.162 -0.5042  0.0133 -0.0452
 2542TIP3    H1 7590   6.808   6.733   4.203  0.4038  1.6467 -0.8065
 2542TIP3    H2 7591   6.917   6.731   4.099  0.5392 -1.5153 -0.7195
 2543TIP3   OH2 7592   3.274   4.253   5.136  0.2517 -0.1963  0.1032
 2543TIP3    H1 7593   3.346   4.303   5.175 -0.0436  0.6192 -0.3650
 2543TIP3    H2 7594   3.260   4.180   5.196 -0.3597  1.1557  1.6634
 2544TIP3   OH2 7595   5.122   5.953   1.606  0.1976 -0.4053 -0.2471
 2544TIP3    H1 7596   5.031   5.975   1.584 -0.1604 -1.4700  0.1266
 2544TIP3    H2 7597   5.130   5.971   1.699  0.7500  0.8912 -0.5254
 2545TIP3   OH2 7598   5.990   3.322   1.533 -0.3882  0.2498 -0.6420
 2545TIP3    H1 7599   5.973   3.231   1.557 -1.6857  0.9264  1.2031
 2545TIP3    H2 7600   6.083   3.336   1.555 -0.1571 -0.6325 -1.0288
 2546TIP3   OH2 7601   5.210   6.155   2.852  0.1545 -0.1645 -0.4421
 2546TIP3    H1 7602   5.254   6.141   2.935 -0.1593  1.0604 -0.0454
 2546TIP3    H2 7603   5.258   6.101   2.789  0.3154 -1.2012  0.5481
 2547TIP3   OH2 7604   4.609   0.589   1.332  0.2544 -0.3032 -0.5110
 2547TIP3    H1 7605   4.683   0.533   1.355  0.6500  0.4941  0.1705
 2547TIP3    H2 7606   4.535   0.551   1.379  1.0329  1.2630  2.1798
 2548TIP3   OH2 7607   0.828   2.150   4.495  0.4564 -0.5213  0.4832
 2548TIP3    H1 7608   0.824   2.242   4.469  0.5830 -0.4054  0.8609
 2548TIP3    H2 7609   0.738   2.118   4.483  0.7404 -0.7618 -1.1008
 2549TIP3   OH2 7610   2.970   4.600   5.300  0.0947 -0.0259 -0.1728
 2549TIP3    H1 7611   2.989   4.613   5.207  0.6124 -0.6503 -0.1631
 2549TIP3    H2 7612   2.883   4.637   5.312 -0.4098 -0.8244 -1.1280
 2550TIP3   OH2 7613   1.309   3.921   3.157 -0.1471  0.6657 -0.3307
 2550TIP3    H1 7614   1.347   3.959   3.237 -0.4683 -0.3778  0.3347
 2550TIP3    H2 7615   1.264   3.995   3.115  0.3258  1.3113  0.2613
 2551TIP3   OH2 7616   3.297   5.962   0.482  0.0298  0.0473  0.4556
 2551TIP3    H1 7617   3.253   5.880   0.460  2.0980 -1.2511  0.8054
 2551TIP3    H2 7618   3.286   6.017   0.405 -1.9525 -0.2794  0.4605
 2552TIP3   OH2 7619   3.888   0.382   1.014  0.4215 -0.2952 -0.4962
 2552TIP3    H1 7620   3.924   0.406   1.099 -1.6561  3.3331 -0.4280
 2552TIP3    H2 7621   3.927   0.445   0.953 -0.7546 -0.5545 -1.5600
 2553TIP3   OH2 7622   5.806   1.922   2.221 -0.0903  0.1279  0.0651
 2553TIP3    H1 7623   5.809   1.932   2.316 -1.6133 -1.5465  0.3349
 2553TIP3    H2 7624   5.836   2.006   2.188  1.1977  0.5000  2.0115
 2554TIP3   OH2 7625   3.734   2.632   3.762 -0.2258  0.3847 -0.9919
 2554TIP3    H1 7626   3.793   2.631   3.838  1.1725  2.0040 -2.0006
 2554TIP3    H2 7627   3.656   2.584   3.793  0.4947  0.5266  1.2816
 2555TIP3   OH2 7628   3.650   3.555   3.823 -0.6784  0.0828 -0.1516
 2555TIP3    H1 7629   3.596   3.581   3.748 -0.5980 -2.3941 -1.1405
 2555TIP3    H2 7630   3.737   3.540   3.786 -0.6448 -1.1814  0.4178
 2556TIP3   OH2 7631   3.283   3.595   5.179  0.3304 -0.1675 -0.1514
 2556TIP3    H1 7632   3.240   3.513   5.155 -1.0248  0.9434 -1.6833
 2556TIP3    H2 7633   3.215   3.646   5.223  0.7960  0.6317 -0.3462
 2557TIP3   OH2 7634   2.483   6.238   0.662  0.9146 -0.4129 -0.1234
 2557TIP3    H1 7635   2.499   6.284   0.744 -0.6233  1.1175 -0.6187
 2557TIP3    H2 7636   2.398   6.195   0.675  1.5070 -1.6634 -0.2968
 2558TIP3   OH2 7637   1.795   5.941   5.448  0.2813  0.3786 -0.3092
 2558TIP3    H1 7638   1.707   5.906   5.434  0.3175  0.8566 -2.0156
 2558TIP3    H2 7639   1.849   5.898   5.382  0.7732  1.9475 -0.9992
 2559TIP3   OH2 7640   0.902   4.928   4.230 -0.0134  0.4881 -1.1002
 2559TIP3    H1 7641   0.832   4.977   4.186  0.6885  1.5228 -1.1022
 2559TIP3    H2 7642   0.980   4.944   4.178  0.9627  2.2104  0.7594
 2560TIP3   OH2 7643   3.228   1.622   5.276 -0.1747 -0.3749 -0.4927
 2560TIP3    H1 7644   3.305   1.574   5.245  0.5250  0.8810 -0.7606
 2560TIP3    H2 7645   3.251   1.647   5.366 -0.9798 -1.4314  0.0361
 2561TIP3   OH2 7646   3.793   4.801   3.369 -0.0965 -0.6422 -0.2231
 2561TIP3    H1 7647   3.799   4.890   3.405 -1.5175 -0.8897  0.6948
 2561TIP3    H2 7648   3.753   4.750   3.439  0.6598 -2.0146 -0.7645
 2562TIP3   OH2 7649   0.925   0.928   5.411  0.0490  0.3026 -0.2446
 2562TIP3    H1 7650   1.001   0.958   5.461  0.2501  1.4120 -1.1571
 2562TIP3    H2 7651   0.946   0.839   5.386 -0.0713 -0.3064  1.6351
 2563TIP3   OH2 7652   2.691   6.062   0.644  1.0190  0.0783 -0.6517
 2563TIP3    H1 7653   2.628   6.132   0.665  0.1199 -0.2818 -2.0298
 2563TIP3    H2 7654   2.774   6.108   0.631  0.4500  0.9045 -1.4794
 2564TIP3   OH2 7655   3.826   2.129   1.577  0.2234  0.3829  0.5721
 2564TIP3    H1 7656   3.919   2.134   1.558  0.2476  0.2959  0.6672
 2564TIP3    H2 7657   3.819   2.158   1.668  0.0276  1.5035  0.2127
 2565TIP3   OH2 7658   1.921   2.829   2.637  0.4985  0.3984  0.1476
 2565TIP3    H1 7659   2.014   2.852   2.644  0.5607  0.0768  0.4322
 2565TIP3    H2 7660   1.880   2.876   2.710  0.3186  1.1061 -0.3973
 2566TIP3   OH2 7661   0.061   6.318   4.739  0.0091 -0.1897 -0.1104
 2566TIP3    H1 7662   0.101   6.374   4.805 -1.8195  2.9555 -1.4335
 2566TIP3    H2 7663  -0.018   6.284   4.781 -1.1865  1.8584 -0.5457
 2567TIP3   OH2 7664   4.503   1.592   1.451 -0.2067 -0.0941  0.5440
 2567TIP3    H1 7665   4.424   1.618   1.404  1.0522  2.0051 -0.5752
 2567TIP3    H2 7666   4.476   1.520   1.507 -2.9852  0.7652  0.4274
 2568TIP3   OH2 7667   2.793   3.063   1.886 -0.2258  0.4245 -0.0110
 2568TIP3    H1 7668   2.772   3.144   1.933  0.6976  0.9004 -0.3783
 2568TIP3    H2 7669   2.740   3.068   1.806  1.6115  1.9017 -1.2148
 2569TIP3   OH2 7670   0.497   0.291   5.282  0.5223 -0.6912  0.1019
 2569TIP3    H1 7671   0.406   0.278   5.310  0.1784  0.0413 -0.6326
 2569TIP3    H2 7672   0.513   0.218   5.222  0.8469 -1.5345  1.1686
 2570TIP3   OH2 7673   4.444   3.894   3.934 -0.2843 -0.3893 -0.9401
 2570TIP3    H1 7674   4.455   3.816   3.879 -1.3038 -1.8816  0.8426
 2570TIP3    H2 7675   4.378   3.946   3.889  0.3222 -0.5874 -2.0966
 2571TIP3   OH2 7676   6.817   1.548   2.739 -0.3379 -0.5152 -0.0763
 2571TIP3    H1 7677   6.888   1.559   2.677  0.8601 -0.3527  1.2642
 2571TIP3    H2 7678   6.804   1.635   2.777 -0.8610 -0.6674  0.1096
 2572TIP3   OH2 7679   0.135   3.816   1.286  0.2046 -0.4296  0.1515
 2572TIP3    H1 7680   0.066   3.790   1.225 -0.0336  0.1872  0.1524
 2572TIP3    H2 7681   0.090   3.870   1.351  0.8982  0.9957 -0.5314
 2573TIP3   OH2 7682   5.185   5.797   3.525 -0.0472 -0.0916 -0.5165
 2573TIP3    H1 7683   5.170   5.888   3.500  0.0949 -0.2658 -1.2634
 2573TIP3    H2 7684   5.175   5.748   3.444 -0.9776 -0.8465  0.0301
 2574TIP3   OH2 7685   4.841   6.665   0.846 -0.1092  0.2628  0.1614
 2574TIP3    H1 7686   4.766   6.689   0.900 -0.7618 -0.8522 -0.2126
 2574TIP3    H2 7687   4.810   6.680   0.756  1.2169  2.8450  0.0438
 2575TIP3   OH2 7688   0.488   3.511   1.447  0.1934 -0.3961  0.2699
 2575TIP3    H1 7689   0.467   3.542   1.535  1.1819 -0.2957  0.4837
 2575TIP3    H2 7690   0.412   3.536   1.394  0.3295  1.1396  0.7379
 2576TIP3   OH2 7691   6.542   1.998   0.916  0.4939  0.2665 -0.5601
 2576TIP3    H1 7692   6.480   2.033   0.980 -1.5023 -1.3011 -1.5253
 2576TIP3    H2 7693   6.520   2.045   0.835  0.7717 -0.0994 -0.8461
 2577TIP3   OH2 7694   0.759   3.392   5.669  0.0868  0.1178 -0.5584
 2577TIP3    H1 7695   0.795   3.480   5.676 -0.2058  0.1919  0.1856
 2577TIP3    H2 7696   0.682   3.393   5.727 -1.5770  0.1839 -2.6235
 2578TIP3   OH2 7697   4.594   5.653   2.893 -0.2010 -0.3838  0.4716
 2578TIP3    H1 7698   4.581   5.558   2.889 -0.9129 -0.2663 -3.0127
 2578TIP3    H2 7699   4.686   5.666   2.871 -0.3049 -0.2365  0.1197
 2579TIP3   OH2 7700   0.027   4.135   3.844  0.5167 -0.1742 -0.5134
 2579TIP3    H1 7701  -0.052   4.167   3.886  0.5975  1.4304 -1.5099
 2579TIP3    H2 7702   0.078   4.096   3.915 -0.6784 -0.2370  0.3206
 2580TIP3   OH2 7703   2.065   5.737   0.652 -0.1832  0.7615  0.4256
 2580TIP3    H1 7704   2.046   5.827   0.679  0.3563  0.9549  0.1827
 2580TIP3    H2 7705   2.093   5.745   0.561  0.7905  0.4721  0.6829
 2581TIP3   OH2 7706   1.521   3.298   0.951 -0.6164 -0.0669  0.0771
 2581TIP3    H1 7707   1.563   3.215   0.975 -0.0964 -0.3386 -1.6425
 2581TIP3    H2 7708   1.454   3.273   0.888 -1.3740  0.6975  0.5657
 2582TIP3   OH2 7709   1.338   1.912   3.413 -0.4696  0.5524 -0.3353
 2582TIP3    H1 7710   1.385   1.942   3.491 -2.5124  0.2201  1.0976
 2582TIP3    H2 7711   1.357   1.819   3.408 -1.1139  0.3725  0.3736
 2583TIP3   OH2 7712   5.190   2.780   0.476  0.0518  0.4509 -0.0602
 2583TIP3    H1 7713   5.278   2.806   0.450 -0.4607  2.3787  0.0075
 2583TIP3    H2 7714   5.135   2.800   0.400 -0.2174 -1.8114 -0.5438
 2584TIP3   OH2 7715   1.860   0.300   0.281 -0.2450  0.2506  0.8632
 2584TIP3    H1 7716   1.806   0.224   0.263  0.2791  0.0173  0.2042
 2584TIP3    H2 7717   1.916   0.273   0.354 -1.2453  0.6215  1.7970
 2585TIP3   OH2 7718   6.070   3.878   3.290  0.3576 -0.4790 -0.0073
 2585TIP3    H1 7719   5.994   3.843   3.244  1.2539 -4.9409  1.3688
 2585TIP3    H2 7720   6.033   3.938   3.354 -1.7283 -0.5664 -1.0311
 2586TIP3   OH2 7721   0.700   1.946   2.191 -0.4630  0.2850  0.4410
 2586TIP3    H1 7722   0.637   1.879   2.165  0.2076 -0.0742 -0.3038
 2586TIP3    H2 7723   0.668   1.977   2.276 -2.5578  1.2515 -0.6161
 2587TIP3   OH2 7724   3.119   6.319   0.233 -0.3853  0.3273  0.1200
 2587TIP3    H1 7725   3.127   6.379   0.307  1.8315  2.2004 -1.4901
 2587TIP3    H2 7726   3.061   6.364   0.172 -1.6155 -0.8690  0.3780
 2588TIP3   OH2 7727   1.212   3.982   4.008 -0.7702  0.4466 -0.5402
 2588TIP3    H1 7728   1.300   3.964   3.973 -0.8338  0.9700 -1.0028
 2588TIP3    H2 7729   1.222   3.978   4.103 -0.6859 -1.4585 -0.5920
 2589TIP3   OH2 7730   4.549   4.665   1.220  0.4485  0.5332  0.1190
 2589TIP3    H1 7731   4.470   4.651   1.272  0.9621 -0.5576  0.6422
 2589TIP3    H2 7732   4.619   4.626   1.272  1.0268 -0.3114 -1.2490
 2590TIP3   OH2 7733   2.029   5.493   0.029 -0.1678  0.6939 -0.1595
 2590TIP3    H1 7734   2.011   5.478  -0.063  2.8243 -0.3249 -0.6644
 2590TIP3    H2 7735   1.984   5.422   0.074 -0.7769  0.6024 -0.8905
 2591TIP3   OH2 7736   0.497   2.630   1.405 -0.2564 -0.4322 -0.0542
 2591TIP3    H1 7737   0.496   2.656   1.313  0.0009 -0.1427  0.0217
 2591TIP3    H2 7738   0.412   2.657   1.440 -0.1380 -0.0329 -0.0702
 2592TIP3   OH2 7739   3.929   4.819   4.325  0.1450 -0.6633 -0.1265
 2592TIP3    H1 7740   3.886   4.900   4.351  1.4299 -0.2922  0.9339
 2592TIP3    H2 7741   3.857   4.758   4.306 -0.8514 -0.1714  1.8634
 2593TIP3   OH2 7742   2.335   2.337   0.743 -0.0765  0.0834 -0.0670
 2593TIP3    H1 7743   2.348   2.375   0.830  0.7852 -2.6195  1.0956
 2593TIP3    H2 7744   2.418   2.352   0.698  0.9461 -1.8593  1.0425
 2594TIP3   OH2 7745   1.312   4.642   4.741  0.0948  0.3398 -0.7336
 2594TIP3    H1 7746   1.373   4.588   4.691 -1.9843 -1.2394 -1.7324
 2594TIP3    H2 7747   1.242   4.663   4.679  0.5129  3.7975 -0.2049
 2595TIP3   OH2 7748   5.081   3.324   1.312 -0.2284  0.4691 -0.3506
 2595TIP3    H1 7749   5.167   3.358   1.336  0.2030 -0.6419 -0.2636
 2595TIP3    H2 7750   5.057   3.372   1.233  1.0052 -0.0082 -1.0391
 2596TIP3   OH2 7751   5.354   6.746   5.839  0.2827 -0.1109  0.4391
 2596TIP3    H1 7752   5.377   6.657   5.865 -1.9061 -0.5347  1.1383
 2596TIP3    H2 7753   5.368   6.747   5.744 -0.3415 -1.4319  0.3106
 2597TIP3   OH2 7754   6.336   5.897   3.686  0.3388 -0.1060 -0.6369
 2597TIP3    H1 7755   6.399   5.824   3.683 -0.1257 -0.4949 -1.1148
 2597TIP3    H2 7756   6.391   5.975   3.690  0.8914 -0.5222  2.8752
 2598TIP3   OH2 7757   2.531   1.965   5.602 -0.0228  0.9440  0.0665
 2598TIP3    H1 7758   2.442   1.946   5.634  0.8993 -1.0177  1.6900
 2598TIP3    H2 7759   2.540   1.912   5.523  0.1900 -0.0680  0.7531
 2599TIP3   OH2 7760   5.730   5.684   3.935  0.2364  0.7290 -0.3350
 2599TIP3    H1 7761   5.734   5.588   3.940 -0.9648  0.7030  1.0497
 2599TIP3    H2 7762   5.817   5.713   3.961  0.0460  0.0134  1.2423
 2600TIP3   OH2 7763   5.798   2.102   5.823 -0.0589 -0.1486  0.4140
 2600TIP3    H1 7764   5.712   2.072   5.794 -0.4685  2.4789 -1.4045
 2600TIP3    H2 7765   5.779   2.172   5.887  0.7513 -0.3247  0.8635
 2601TIP3   OH2 7766   5.178   1.817   3.345 -0.2166  0.3357 -0.2089
 2601TIP3    H1 7767   5.252   1.870   3.372 -0.6660  0.3844  0.9796
 2601TIP3    H2 7768   5.213   1.760   3.276  1.4101 -0.9156  1.5478
 2602TIP3   OH2 7769   0.519   0.209   2.206  0.1902 -0.0302  0.2573
 2602TIP3    H1 7770   0.487   0.250   2.126  2.7529  0.2368 -0.7166
 2602TIP3    H2 7771   0.515   0.279   2.272 -0.0102  0.3389 -0.1436
 2603TIP3   OH2 7772   1.786   3.613   5.065 -0.0014  0.9355 -0.1271
 2603TIP3    H1 7773   1.745   3.529   5.048 -0.6739  1.0153  1.0417
 2603TIP3    H2 7774   1.856   3.594   5.127  1.2477  0.9341 -1.4562
 2604TIP3   OH2 7775   5.035   3.462   4.530  0.1345 -0.5929 -0.0970
 2604TIP3    H1 7776   4.955   3.425   4.568  0.4192  0.2415  1.3667
 2604TIP3    H2 7777   5.105   3.433   4.588  0.4910  1.3248  0.5041
 2605TIP3   OH2 7778   4.237   6.109   2.888  0.6385  0.4844  0.1413
 2605TIP3    H1 7779   4.272   6.197   2.873  1.0540  0.6896  2.0261
 2605TIP3    H2 7780   4.238   6.068   2.802  1.0410  2.1007 -0.6722
 2606TIP3   OH2 7781   3.134   1.710   1.990  0.0756 -0.4245 -0.3350
 2606TIP3    H1 7782   3.193   1.743   1.922  0.4062 -1.4719 -0.5738
 2606TIP3    H2 7783   3.176   1.631   2.023 -1.1679 -1.1855 -0.4832
 2607TIP3   OH2 7784   2.461   1.192   4.461 -0.0857 -0.3243 -0.0544
 2607TIP3    H1 7785   2.515   1.179   4.538 -0.4238 -0.3418  0.1821
 2607TIP3    H2 7786   2.522   1.219   4.393  0.2505 -0.5562  0.1519
 2608TIP3   OH2 7787   4.041   4.531   1.386  0.3652  0.2155 -0.0646
 2608TIP3    H1 7788   3.984   4.546   1.310 -2.1530  0.0524  1.6693
 2608TIP3    H2 7789   3.996   4.574   1.459  2.2778 -0.3221  1.5183
 2609TIP3   OH2 7790   6.242   3.832   3.513 -0.2727 -0.1041 -0.0523
 2609TIP3    H1 7791   6.299   3.770   3.468  1.2239  1.9054 -1.0740
 2609TIP3    H2 7792   6.197   3.880   3.442  1.1488  2.2275  0.5083
 2610TIP3   OH2 7793   3.805   1.057   0.746  0.1043 -0.1805  0.1499
 2610TIP3    H1 7794   3.753   1.123   0.699 -1.6494 -1.0657  0.7420
 2610TIP3    H2 7795   3.745   1.023   0.812  0.9783 -2.2839 -0.0712
 2611TIP3   OH2 7796   3.336   2.959   3.196 -0.4980  0.3579  0.0599
 2611TIP3    H1 7797   3.344   2.867   3.219 -0.6226  0.0115 -1.2484
 2611TIP3    H2 7798   3.403   2.974   3.130 -1.9212  0.6392 -1.3760
 2612TIP3   OH2 7799   5.034   3.448   1.050 -0.1836  0.0682  0.5813
 2612TIP3    H1 7800   5.037   3.510   0.977 -1.2794 -0.6716 -0.1344
 2612TIP3    H2 7801   4.947   3.462   1.089 -0.0085 -0.2501  1.0933
 2613TIP3   OH2 7802   2.281   0.849   4.122 -0.1801 -0.4411 -0.5641
 2613TIP3    H1 7803   2.224   0.774   4.106 -0.3640 -0.2649 -0.7308
 2613TIP3    H2 7804   2.365   0.824   4.084  0.7565 -1.9209  2.2149
 2614TIP3   OH2 7805   0.191   1.945   2.152  0.3641  0.6361  0.1379
 2614TIP3    H1 7806   0.273   1.940   2.104 -0.5933  0.6400 -1.5656
 2614TIP3    H2 7807   0.200   1.880   2.222  0.2120 -2.6562 -2.6171
 2615TIP3   OH2 7808   4.972   2.770   1.919 -0.0482 -0.5750 -0.0695
 2615TIP3    H1 7809   4.978   2.770   2.015  0.6145 -0.2393 -0.1067
 2615TIP3    H2 7810   4.913   2.842   1.898 -2.8294 -2.6086  0.2111
 2616TIP3   OH2 7811   1.226   2.568   3.823  0.1558 -0.4608 -0.0517
 2616TIP3    H1 7812   1.311   2.580   3.865  0.2106  2.3352 -0.7928
 2616TIP3    H2 7813   1.235   2.487   3.773  2.6819  0.2217 -0.8186
 2617TIP3   OH2 7814   1.067   5.395   3.023 -0.0123  0.2158  0.2734
 2617TIP3    H1 7815   1.084   5.482   3.058  1.5348 -0.5870  1.6452
 2617TIP3    H2 7816   1.082   5.336   3.096  2.4455 -1.4782 -1.4416
 2618TIP3   OH2 7817   4.546   0.965   1.814 -0.5231 -0.4194  0.3302
 2618TIP3    H1 7818   4.567   1.056   1.793 -2.4318 -0.0843 -0.4129
 2618TIP3    H2 7819   4.565   0.917   1.733 -1.6939 -0.2547 -0.0634
 2619TIP3   OH2 7820   6.385   1.058   4.526 -0.3039  0.0781  0.0487
 2619TIP3    H1 7821   6.404   1.034   4.617 -2.0794 -1.3447  0.0854
 2619TIP3    H2 7822   6.297   1.096   4.530 -0.4879 -0.2110 -1.1055
 2620TIP3   OH2 7823   4.156   0.159   5.428  0.6397  0.5477 -0.2561
 2620TIP3    H1 7824   4.071   0.201   5.428  0.1922 -0.3367 -0.3542
 2620TIP3    H2 7825   4.137   0.066   5.441  1.6670  0.4901  1.1374
 2621TIP3   OH2 7826   0.719   4.500   2.531 -0.1518 -0.2609 -0.0542
 2621TIP3    H1 7827   0.785   4.507   2.600 -0.7183 -0.4358  0.5196
 2621TIP3    H2 7828   0.710   4.589   2.497 -0.1989 -0.0826  0.4178
 2622TIP3   OH2 7829   0.650   6.083   5.825 -0.4954  0.1512 -0.1173
 2622TIP3    H1 7830   0.669   6.137   5.901  0.2531 -1.2288  0.7288
 2622TIP3    H2 7831   0.565   6.044   5.843 -1.0374  1.0230 -0.7291
 2623TIP3   OH2 7832   5.696   4.623   5.436  0.1180 -0.4436 -0.7769
 2623TIP3    H1 7833   5.628   4.654   5.495  0.5810 -0.1699 -0.3813
 2623TIP3    H2 7834   5.683   4.528   5.434  0.7101 -0.5802  0.5585
 2624TIP3   OH2 7835   6.191   4.491   3.301 -0.1958 -0.1360 -0.2161
 2624TIP3    H1 7836   6.142   4.572   3.312  1.2130  1.2344 -2.9543
 2624TIP3    H2 7837   6.127   4.422   3.317 -1.3747  1.4191  2.5305
 2625TIP3   OH2 7838   2.219   4.373   1.944 -0.0368  0.3018 -0.1233
 2625TIP3    H1 7839   2.231   4.395   2.037  4.2870 -0.6257 -0.2459
 2625TIP3    H2 7840   2.229   4.456   1.898  0.0961  0.4309  0.1383
 2626TIP3   OH2 7841   5.363   4.843   0.143  0.0127 -0.0014 -1.2946
 2626TIP3    H1 7842   5.338   4.752   0.127  1.2841 -0.4852 -0.7441
 2626TIP3    H2 7843   5.413   4.840   0.225 -0.9164  1.3787 -0.6377
 2627TIP3   OH2 7844   3.116   6.350   5.433  0.2600 -0.3082  0.5422
 2627TIP3    H1 7845   3.135   6.439   5.402 -0.2748 -0.2088  0.4784
 2627TIP3    H2 7846   3.146   6.293   5.363 -0.6001 -0.1036 -0.0164
 2628TIP3   OH2 7847   5.616   5.278   4.580  0.1930  0.1408  0.0771
 2628TIP3    H1 7848   5.582   5.297   4.667  0.7309 -0.1592  0.3610
 2628TIP3    H2 7849   5.541   5.247   4.531 -0.1144  0.3058  0.4395
 2629TIP3   OH2 7850   0.092   1.290   4.483  0.2311 -0.3380  0.0812
 2629TIP3    H1 7851   0.061   1.209   4.443  1.6098 -0.1272 -1.5197
 2629TIP3    H2 7852   0.015   1.347   4.485 -0.4155 -1.1804 -0.0714
 2630TIP3   OH2 7853   0.128   0.575   1.371  0.2583 -0.0133 -0.2535
 2630TIP3    H1 7854   0.152   0.562   1.279 -1.4102  1.7572 -1.0170
 2630TIP3    H2 7855   0.033   0.567   1.372  0.1827  0.7366  1.1830
 2631TIP3   OH2 7856   2.552   6.738   1.564  0.0063  0.1192  0.1907
 2631TIP3    H1 7857   2.520   6.777   1.483  0.5078  0.9557  0.3803
 2631TIP3    H2 7858   2.606   6.664   1.535 -0.3723 -0.0136 -0.2004
 2632TIP3   OH2 7859   3.621   3.763   2.083  0.7678 -0.1857 -0.1571
 2632TIP3    H1 7860   3.665   3.830   2.136  0.6633 -0.2640  0.0317
 2632TIP3    H2 7861   3.601   3.807   2.001  1.5519 -0.2607 -0.4030
 2633TIP3   OH2 7862   2.223   0.569   3.282  0.7807 -0.0616  0.5472
 2633TIP3    H1 7863   2.155   0.616   3.330 -1.2668  0.4497 -2.5760
 2633TIP3    H2 7864   2.250   0.498   3.342 -1.7979  0.2901  2.2883
 2634TIP3   OH2 7865   6.315   0.526   1.397 -0.0743 -0.3388  0.0014
 2634TIP3    H1 7866   6.249   0.466   1.431  0.6611 -0.7222  0.7928
 2634TIP3    H2 7867   6.379   0.470   1.355 -0.6017  0.0810 -1.4341
 2635TIP3   OH2 7868   4.976   3.119   1.069 -0.4571  0.3459 -0.1374
 2635TIP3    H1 7869   5.039   3.184   1.100  1.4777 -0.2510 -2.4674
 2635TIP3    H2 7870   5.027   3.039   1.060 -1.7991 -0.4442 -1.1128
 2636TIP3   OH2 7871   6.570   5.999   5.848  0.4442 -0.0487 -0.7712
 2636TIP3    H1 7872   6.578   5.961   5.936  1.4977 -2.4041 -1.8100
 2636TIP3    H2 7873   6.476   6.015   5.838  0.3419  0.6380  0.8947
 2637TIP3   OH2 7874   3.088   4.680   2.493 -0.2424 -0.2139 -0.1736
 2637TIP3    H1 7875   3.098   4.773   2.476 -1.0591 -0.2244 -0.7752
 2637TIP3    H2 7876   3.155   4.660   2.558 -0.1857  0.8265  0.1003
 2638TIP3   OH2 7877   6.539   5.352   4.464  0.0285  0.5621  0.5460
 2638TIP3    H1 7878   6.478   5.380   4.533 -0.3094 -2.1683  1.4617
 2638TIP3    H2 7879   6.543   5.257   4.472  2.4482  0.4183 -1.1852
 2639TIP3   OH2 7880   3.516   4.836   4.244  0.2455  0.4141 -0.2598
 2639TIP3    H1 7881   3.547   4.919   4.209 -1.0257  1.5061  1.0270
 2639TIP3    H2 7882   3.428   4.826   4.207  0.4149 -0.4004 -0.4567
 2640TIP3   OH2 7883   3.628   2.865   4.419 -0.3045 -0.3725  0.1588
 2640TIP3    H1 7884   3.532   2.867   4.408 -0.3333  0.2940  0.4610
 2640TIP3    H2 7885   3.658   2.946   4.377  0.2954 -1.2922 -1.2781
 2641TIP3   OH2 7886   2.658   4.275   4.540  0.2286 -0.2868  0.4164
 2641TIP3    H1 7887   2.571   4.298   4.508 -0.4397 -2.8872  0.1970
 2641TIP3    H2 7888   2.654   4.291   4.634 -1.3652 -2.7001  0.8355
 2642TIP3   OH2 7889   6.938   5.573   4.832  0.0843  0.2895 -0.4947
 2642TIP3    H1 7890   7.008   5.542   4.774  1.0673 -2.1593  1.7830
 2642TIP3    H2 7891   6.928   5.503   4.896 -1.5066  2.4729  1.8148
 2643TIP3   OH2 7892   5.767   0.221   4.237  0.3030 -0.2828  0.5384
 2643TIP3    H1 7893   5.706   0.229   4.310  1.6368 -0.4667  1.7372
 2643TIP3    H2 7894   5.735   0.281   4.170 -1.6161 -0.9847  0.7836
 2644TIP3   OH2 7895   0.746   0.062   4.045 -0.0013 -0.6130  0.5162
 2644TIP3    H1 7896   0.780   0.143   4.081  2.8012 -0.6283 -1.7196
 2644TIP3    H2 7897   0.694   0.089   3.969  2.8059 -0.7762 -1.6513
 2645TIP3   OH2 7898   1.342   3.712   5.178 -0.3930  0.3149  0.2072
 2645TIP3    H1 7899   1.391   3.692   5.258 -0.4412 -0.3485  0.0733
 2645TIP3    H2 7900   1.293   3.632   5.159 -0.3652  0.4604 -0.5040
 2646TIP3   OH2 7901   3.316   3.707   1.833 -0.1742  0.0044  0.2628
 2646TIP3    H1 7902   3.328   3.613   1.847 -2.9560 -0.3637  0.7548
 2646TIP3    H2 7903   3.365   3.748   1.904  0.5757 -1.0911  0.4058
 2647TIP3   OH2 7904   1.797   3.893   0.196  0.1238 -0.6049 -0.1306
 2647TIP3    H1 7905   1.732   3.896   0.266  0.7546  0.0097  0.4427
 2647TIP3    H2 7906   1.781   3.809   0.152 -0.9459 -0.5333  0.0982
 2648TIP3   OH2 7907   5.943   2.508   1.633  0.2829 -0.1581 -0.3697
 2648TIP3    H1 7908   5.950   2.464   1.548 -0.6078  0.8789 -1.0110
 2648TIP3    H2 7909   6.032   2.537   1.652  0.1017  2.0576 -2.3527
 2649TIP3   OH2 7910   5.028   1.253   0.218  0.0525  0.1057  0.0214
 2649TIP3    H1 7911   5.020   1.288   0.129  0.8250 -0.8691 -0.4632
 2649TIP3    H2 7912   4.970   1.177   0.219  1.3381 -0.9256 -0.2411
 2650TIP3   OH2 7913   3.755   2.761   5.711  0.1368  0.0614  0.6012
 2650TIP3    H1 7914   3.809   2.740   5.787 -1.3431  0.0025  1.6911
 2650TIP3    H2 7915   3.806   2.824   5.661  0.8187  0.7320  2.0830
 2651TIP3   OH2 7916   1.280   0.707   2.853 -0.1092 -0.5107  0.1155
 2651TIP3    H1 7917   1.228   0.658   2.789  0.1531 -3.1271  1.7748
 2651TIP3    H2 7918   1.223   0.714   2.930  1.5488 -2.5983  1.6314
 2652TIP3   OH2 7919   3.608   3.289   3.757  0.1296 -0.1567  0.0898
 2652TIP3    H1 7920   3.601   3.380   3.783  0.9379  0.1514 -0.7520
 2652TIP3    H2 7921   3.579   3.240   3.834  2.7027  0.7041  1.7261
 2653TIP3   OH2 7922  -0.017   5.439   1.094  0.4669 -0.6536 -0.4432
 2653TIP3    H1 7923  -0.025   5.498   1.019 -1.1810 -0.8448 -0.4512
 2653TIP3    H2 7924   0.075   5.412   1.093  0.7883  0.3722 -1.6057
 2654TIP3   OH2 7925   3.111   2.119   5.000 -0.5981 -0.1091  0.0984
 2654TIP3    H1 7926   3.175   2.185   5.028 -2.5031  1.5859  0.7524
 2654TIP3    H2 7927   3.157   2.036   5.008  0.7199  0.7665  3.1119
 2655TIP3   OH2 7928   0.951   1.921   2.527  0.2552  0.3968  0.3782
 2655TIP3    H1 7929   0.972   1.917   2.434  1.9517 -0.0502  0.7440
 2655TIP3    H2 7930   0.892   1.848   2.542  0.2702  0.2476 -0.2836
 2656TIP3   OH2 7931   5.266   3.982   4.646 -0.0614 -0.0239 -0.0252
 2656TIP3    H1 7932   5.289   3.906   4.700  0.2852  0.7883  1.0080
 2656TIP3    H2 7933   5.275   4.056   4.706 -0.8347  0.7817 -0.9002
 2657TIP3   OH2 7934   3.772   0.752   1.059 -0.0850 -0.2356  0.0605
 2657TIP3    H1 7935   3.823   0.833   1.053 -0.1940 -0.1269  0.5592
 2657TIP3    H2 7936   3.813   0.703   1.131 -1.6360  0.5584  1.5691
 2658TIP3   OH2 7937   2.784   1.026   2.348  0.2413  0.0276  0.0332
 2658TIP3    H1 7938   2.768   1.011   2.441  0.5742  0.3675  0.1492
 2658TIP3    H2 7939   2.864   0.978   2.329 -0.0187 -0.3310 -0.1621
 2659TIP3   OH2 7940   7.131   1.368   1.154  0.0022 -0.5569 -0.2631
 2659TIP3    H1 7941   7.219   1.368   1.116 -0.8130 -0.5396 -2.3275
 2659TIP3    H2 7942   7.073   1.390   1.080 -1.9768 -3.0715  0.3889
 2660TIP3   OH2 7943   0.530   5.984   2.527 -0.1766  0.5894  0.1728
 2660TIP3    H1 7944   0.534   5.991   2.431  0.6514 -2.9147 -0.1897
 2660TIP3    H2 7945   0.616   6.013   2.557  0.2274 -0.0340 -0.3527
 2661TIP3   OH2 7946   4.764   4.149   4.102 -0.1547  0.2712 -0.1140
 2661TIP3    H1 7947   4.844   4.161   4.051 -0.1978  0.1473 -0.2117
 2661TIP3    H2 7948   4.694   4.174   4.042 -0.2841 -0.8994 -0.4884
 2662TIP3   OH2 7949   5.528   2.891   5.026 -0.1840 -0.1954 -0.0045
 2662TIP3    H1 7950   5.623   2.897   5.020 -0.3561  1.6030 -2.2293
 2662TIP3    H2 7951   5.512   2.802   5.058  2.2161 -0.7885 -0.2719
 2663TIP3   OH2 7952   3.358   0.467   3.843  0.1552  0.0473 -0.2757
 2663TIP3    H1 7953   3.381   0.483   3.934  0.3475  1.2607 -0.5168
 2663TIP3    H2 7954   3.304   0.387   3.845 -2.5416  1.7362  1.3149
 2664TIP3   OH2 7955   6.752   1.748   1.314 -0.6372 -0.0406 -0.4423
 2664TIP3    H1 7956   6.750   1.663   1.270 -0.6869 -0.7904  0.9366
 2664TIP3    H2 7957   6.837   1.751   1.357 -0.3697  0.9091 -1.0095
 2665TIP3   OH2 7958   5.871   3.552   2.477  0.1326 -0.0692 -0.2962
 2665TIP3    H1 7959   5.801   3.510   2.527 -1.3294  0.5709 -1.7105
 2665TIP3    H2 7960   5.846   3.644   2.473  0.7346  0.0710 -1.3462
 2666TIP3   OH2 7961   0.415   6.682   1.148 -0.3133 -0.2464 -0.0353
 2666TIP3    H1 7962   0.325   6.714   1.139  0.2257  1.5846  0.6445
 2666TIP3    H2 7963   0.455   6.740   1.212  1.4405 -0.8797 -0.4913
 2667TIP3   OH2 7964   7.210   5.535   1.354 -0.1341  0.1267 -0.0056
 2667TIP3    H1 7965   7.157   5.469   1.400 -1.7440  0.9096 -0.6607
 2667TIP3    H2 7966   7.205   5.508   1.262  3.3010 -1.6026  0.1688
 2668TIP3   OH2 7967   2.184   0.794   1.363 -0.3596 -0.2665  0.8337
 2668TIP3    H1 7968   2.254   0.753   1.312  1.6175  1.3303  2.0912
 2668TIP3    H2 7969   2.173   0.881   1.325 -0.1551  0.2687  1.9478
 2669TIP3   OH2 7970   6.475   0.327   4.521 -0.1676 -0.4558  0.4698
 2669TIP3    H1 7971   6.386   0.343   4.553  0.5840 -0.2546  2.5925
 2669TIP3    H2 7972   6.463   0.301   4.429 -2.3581  0.1044  0.5392
 2670TIP3   OH2 7973   5.519   0.315   3.844 -0.0582  0.4664 -0.3351
 2670TIP3    H1 7974   5.463   0.376   3.796  1.3853  2.1937  0.0959
 2670TIP3    H2 7975   5.537   0.359   3.927  2.4329  0.2818 -0.7022
 2671TIP3   OH2 7976   1.221   1.944   2.552 -0.0806  0.4760  0.2043
 2671TIP3    H1 7977   1.253   1.854   2.554 -1.0110  0.1087 -0.7159
 2671TIP3    H2 7978   1.127   1.937   2.563 -0.4764  1.1224 -2.1905
 2672TIP3   OH2 7979   5.329   1.739   4.764 -0.2646 -0.1089 -0.2717
 2672TIP3    H1 7980   5.373   1.666   4.809  0.2587  0.0400 -0.5316
 2672TIP3    H2 7981   5.253   1.759   4.819 -0.4144 -0.8537 -0.2015
 2673TIP3   OH2 7982   4.327   3.779   1.776 -0.4108 -0.1538  0.0157
 2673TIP3    H1 7983   4.316   3.871   1.799  0.7163 -0.0385  0.1413
 2673TIP3    H2 7984   4.245   3.737   1.804 -1.8394  1.1390 -1.9045
 2674TIP3   OH2 7985   3.495   0.173   4.887  0.0312  0.3403 -0.2957
 2674TIP3    H1 7986   3.548   0.183   4.808  0.2772 -0.4567 -0.2487
 2674TIP3    H2 7987   3.545   0.215   4.956  1.1555 -1.3164 -0.0397
 2675TIP3   OH2 7988   6.023   2.515   5.450 -0.0574 -0.1206  0.6173
 2675TIP3    H1 7989   5.958   2.447   5.436  0.9024 -0.9759  0.1683
 2675TIP3    H2 7990   6.102   2.468   5.477  0.3542  0.8939  1.2620
 2676TIP3   OH2 7991   3.886   2.565   0.291 -0.2885  0.1408  0.1079
 2676TIP3    H1 7992   3.828   2.517   0.232  0.7932 -3.2185  1.4823
 2676TIP3    H2 7993   3.829   2.598   0.360 -0.8117 -2.1966  0.8847
 2677TIP3   OH2 7994   4.650   3.145   0.148 -0.5185 -0.6317 -0.4948
 2677TIP3    H1 7995   4.606   3.172   0.068 -2.0815 -2.1497 -0.1937
 2677TIP3    H2 7996   4.589   3.167   0.218  0.3164 -0.4289  0.1947
 2678TIP3   OH2 7997   5.085   2.257   5.141  0.7067  0.2644 -0.3707
 2678TIP3    H1 7998   5.072   2.256   5.235 -1.9733  0.1668 -0.6719
 2678TIP3    H2 7999   5.076   2.349   5.117 -2.4273 -0.0696 -0.8771
 2679TIP3   OH2 8000   2.127   4.729   5.177  0.4185  0.7798 -0.1432
 2679TIP3    H1 8001   2.214   4.692   5.187 -0.1927 -0.9023 -0.6152
 2679TIP3    H2 8002   2.130   4.775   5.093  0.0378 -1.9408 -1.7542
 2680TIP3   OH2 8003   6.811   4.179   0.055 -0.0366 -0.6606  0.7502
 2680TIP3    H1 8004   6.744   4.130   0.005  0.1547 -1.4222  1.2218
 2680TIP3    H2 8005   6.766   4.259   0.082  0.1817  0.3306 -1.5821
 2681TIP3   OH2 8006   4.291   2.455   0.992  0.2919 -0.1227  0.3541
 2681TIP3    H1 8007   4.384   2.466   1.010  0.3504 -0.7025  0.4290
 2681TIP3    H2 8008   4.286   2.439   0.898  0.1406  1.2225  0.1146
 2682TIP3   OH2 8009   2.305   3.564   0.932  0.1187 -0.2047 -0.3671
 2682TIP3    H1 8010   2.249   3.622   0.881 -0.9440 -0.4823  0.4474
 2682TIP3    H2 8011   2.308   3.604   1.019  0.1791 -0.8492 -0.0669
 2683TIP3   OH2 8012   0.048   1.053   5.849 -0.1543 -0.8779  0.7549
 2683TIP3    H1 8013   0.003   1.136   5.862 -1.4393 -0.8847 -2.7368
 2683TIP3    H2 8014   0.140   1.077   5.838 -0.3731 -0.0284  0.7506
 2684TIP3   OH2 8015   3.481   6.635   1.996  0.0269  0.3118  0.0910
 2684TIP3    H1 8016   3.395   6.640   2.036 -0.1505 -0.3618 -0.1919
 2684TIP3    H2 8017   3.520   6.721   2.013 -0.8773  0.7943 -0.1953
 2685TIP3   OH2 8018   4.219   2.442   3.994 -0.3218 -0.5118 -0.6883
 2685TIP3    H1 8019   4.135   2.487   3.986 -1.1046 -1.8153 -0.1379
 2685TIP3    H2 8020   4.230   2.396   3.911  1.8948  2.8545 -2.4992
 2686TIP3   OH2 8021   2.682   2.719   4.639  0.1623 -0.1173  1.1070
 2686TIP3    H1 8022   2.720   2.800   4.673  0.7937 -0.1053  0.4048
 2686TIP3    H2 8023   2.756   2.657   4.635 -0.3927 -0.8673  2.0239
 2687TIP3   OH2 8024   3.089   3.921   5.709  0.2515  0.0866 -0.2199
 2687TIP3    H1 8025   3.077   3.849   5.770 -1.7937  0.1362 -0.4887
 2687TIP3    H2 8026   3.168   3.898   5.660 -0.0510 -1.7002  0.0607
 2688TIP3   OH2 8027   6.204   0.074   3.720 -0.5341  0.0367  0.5110
 2688TIP3    H1 8028   6.245   0.143   3.667  0.7681 -0.8236  0.3650
 2688TIP3    H2 8029   6.191   0.114   3.806  0.9325  0.2518  0.6602
 2689TIP3   OH2 8030   1.053   2.439   5.164 -0.3440  0.3746 -0.3973
 2689TIP3    H1 8031   0.979   2.484   5.205 -0.3838  0.3010 -0.3876
 2689TIP3    H2 8032   1.130   2.490   5.190 -0.5509  1.4749 -1.8096
 2690TIP3   OH2 8033   4.407   2.435   5.124 -0.0714 -0.0786  0.3697
 2690TIP3    H1 8034   4.378   2.350   5.157 -0.6140  0.7480  2.1619
 2690TIP3    H2 8035   4.501   2.437   5.139  0.0392 -0.5690 -0.2206
 2691TIP3   OH2 8036   3.321   3.142   3.502 -0.2776  0.0791 -0.0465
 2691TIP3    H1 8037   3.287   3.104   3.583  0.8465 -0.0658  0.3722
 2691TIP3    H2 8038   3.408   3.104   3.491 -0.9853 -1.0979 -2.1554
 2692TIP3   OH2 8039   3.607   3.881   1.106  0.1909 -0.1078  0.6078
 2692TIP3    H1 8040   3.539   3.884   1.038  0.6907  0.0398  0.1097
 2692TIP3    H2 8041   3.688   3.904   1.060  0.4566  0.4934  1.3512
 2693TIP3   OH2 8042   5.841   5.654   0.213  0.5281  0.8567 -0.0743
 2693TIP3    H1 8043   5.810   5.613   0.133  0.6664 -0.6776  0.6230
 2693TIP3    H2 8044   5.852   5.746   0.190  1.5979  0.2906 -2.1329
 2694TIP3   OH2 8045   5.300   6.403   4.372 -0.2810 -0.0858  0.2679
 2694TIP3    H1 8046   5.235   6.402   4.442  0.3457 -0.9511  0.8629
 2694TIP3    H2 8047   5.340   6.316   4.376 -1.1991 -0.6785 -2.0935
 2695TIP3   OH2 8048   4.590   0.842   2.276 -0.2288 -0.9011 -0.0514
 2695TIP3    H1 8049   4.554   0.929   2.293 -0.1074 -0.5147 -1.6273
 2695TIP3    H2 8050   4.520   0.782   2.300  0.2863 -0.5057  2.6940
 2696TIP3   OH2 8051   4.583   2.652   1.690  0.1652 -0.4418  0.1327
 2696TIP3    H1 8052   4.622   2.565   1.699  2.7216  0.5611 -0.3493
 2696TIP3    H2 8053   4.585   2.688   1.779 -0.4199 -0.6687  0.2426
 2697TIP3   OH2 8054   4.928   4.116   3.753 -0.1506  0.1578 -0.3048
 2697TIP3    H1 8055   4.910   4.043   3.812 -1.3957  0.9084  0.2835
 2697TIP3    H2 8056   4.953   4.188   3.810  1.2527  0.1736 -0.8917
 2698TIP3   OH2 8057   0.277   0.996   0.923  0.0252 -0.1865  0.0007
 2698TIP3    H1 8058   0.250   0.959   1.007  2.2091  0.9296  1.2794
 2698TIP3    H2 8059   0.296   0.919   0.869 -2.5241 -0.9409  0.0445
 2699TIP3   OH2 8060   4.199   4.159   1.689  0.2339 -0.4605  0.0776
 2699TIP3    H1 8061   4.192   4.096   1.761 -0.6145  0.9866  1.3221
 2699TIP3    H2 8062   4.246   4.111   1.620 -1.4510 -2.8607  0.4663
 2700TIP3   OH2 8063   1.092   1.322   3.863 -0.2206 -0.4060 -0.6393
 2700TIP3    H1 8064   1.083   1.344   3.956 -1.8735  1.1995 -1.1100
 2700TIP3    H2 8065   1.102   1.407   3.820  4.0544 -1.2257 -1.7152
 2701TIP3   OH2 8066   5.624   4.780   4.360 -0.2968  0.2530  0.2205
 2701TIP3    H1 8067   5.669   4.701   4.331 -2.2664 -0.6125 -0.6177
 2701TIP3    H2 8068   5.561   4.799   4.290 -0.3376  2.1883  0.7231
 2702TIP3   OH2 8069   4.572   1.874   1.391 -0.4906  0.9404  0.5555
 2702TIP3    H1 8070   4.645   1.817   1.368  0.6393  2.6330 -0.2528
 2702TIP3    H2 8071   4.512   1.867   1.318  0.7781  2.5400 -0.7230
 2703TIP3   OH2 8072   2.103   4.333   2.413  0.1490 -0.4364 -0.0439
 2703TIP3    H1 8073   2.103   4.333   2.508  0.5320  0.5306 -0.0279
 2703TIP3    H2 8074   2.137   4.420   2.389 -0.5026 -0.4463 -1.0600
 2704TIP3   OH2 8075   3.920   5.724   2.621  0.7501  0.0537 -0.3176
 2704TIP3    H1 8076   4.009   5.731   2.586  0.8086  2.7729  0.1884
 2704TIP3    H2 8077   3.929   5.745   2.714 -0.4115  0.3451 -0.2577
 2705TIP3   OH2 8078   6.384   2.311   2.166  0.5233 -0.3550  1.0131
 2705TIP3    H1 8079   6.295   2.318   2.200 -0.4737 -1.4295 -1.1501
 2705TIP3    H2 8080   6.424   2.240   2.217 -0.0928 -0.3152  1.5552
 2706TIP3   OH2 8081   6.173   5.027   5.625  0.0186 -0.1412 -0.5134
 2706TIP3    H1 8082   6.193   4.935   5.643  0.4382  0.1848  0.8094
 2706TIP3    H2 8083   6.194   5.072   5.707  0.1733  1.1885 -1.2664
 2707TIP3   OH2 8084   6.067   4.772   5.747 -0.2709  0.3017  0.5573
 2707TIP3    H1 8085   6.003   4.792   5.679 -0.5115 -0.7561  0.4609
 2707TIP3    H2 8086   6.082   4.678   5.740 -0.6122  0.0828  2.2395
 2708TIP3   OH2 8087   7.133   5.011   0.395 -0.0550 -0.0671  0.1604
 2708TIP3    H1 8088   7.060   5.041   0.341 -0.6636 -1.1864  0.3421
 2708TIP3    H2 8089   7.095   4.947   0.454  1.1442 -0.9602 -0.0011
 2709TIP3   OH2 8090   4.793   6.502   2.373  0.2507 -0.1714  0.0690
 2709TIP3    H1 8091   4.784   6.595   2.355 -0.9279  0.5061  3.5184
 2709TIP3    H2 8092   4.720   6.481   2.432  0.8951 -3.1126 -0.0078
 2710TIP3   OH2 8093   3.499   4.675   0.322 -0.4186 -0.2749 -0.1980
 2710TIP3    H1 8094   3.497   4.623   0.403 -0.5850 -2.6312 -1.6350
 2710TIP3    H2 8095   3.579   4.727   0.330 -0.9897  0.4052  1.9418
 2711TIP3   OH2 8096   3.753   1.689   0.463 -0.3798 -0.0421 -0.0649
 2711TIP3    H1 8097   3.716   1.601   0.466 -0.4854  0.0177  0.4928
 2711TIP3    H2 8098   3.736   1.725   0.550  0.0124  0.3853 -0.1620
 2712TIP3   OH2 8099   0.775   1.856   0.323 -0.2216 -0.0670  0.1084
 2712TIP3    H1 8100   0.794   1.791   0.391  1.7841  0.9664  0.6175
 2712TIP3    H2 8101   0.805   1.815   0.242  1.9470  0.4897  0.5522
 2713TIP3   OH2 8102   1.898   6.781   4.033  0.2133  0.1784 -0.0944
 2713TIP3    H1 8103   1.868   6.853   4.088  1.5540  0.7423 -0.0606
 2713TIP3    H2 8104   1.879   6.702   4.084 -2.0922  0.4146 -0.5167
 2714TIP3   OH2 8105   5.756   5.451   5.886 -0.5411 -0.0053  0.0087
 2714TIP3    H1 8106   5.793   5.385   5.828 -0.1629 -0.6077  0.9126
 2714TIP3    H2 8107   5.830   5.482   5.939 -1.1570 -0.7291  1.3625
 2715TIP3   OH2 8108   5.402   0.394   2.839  0.0550  0.2920  0.0759
 2715TIP3    H1 8109   5.364   0.340   2.771 -0.3429  0.6056  0.0461
 2715TIP3    H2 8110   5.409   0.336   2.915 -0.1058  0.1200 -0.0399
 2716TIP3   OH2 8111   5.413   2.907   2.020 -0.2557 -0.0009 -0.3014
 2716TIP3    H1 8112   5.344   2.942   1.965  0.0015  0.6894 -0.1953
 2716TIP3    H2 8113   5.474   2.980   2.032  0.6112 -0.6567 -0.5791
 2717TIP3   OH2 8114   6.090   4.973   1.083  0.3529 -0.1861  0.1994
 2717TIP3    H1 8115   6.174   4.996   1.042  0.3275 -0.2089  0.1337
 2717TIP3    H2 8116   6.049   5.057   1.102  0.4891 -0.1719  0.4372
 2718TIP3   OH2 8117   2.940   2.466   4.092 -0.3815  0.4123 -0.3178
 2718TIP3    H1 8118   2.857   2.440   4.131 -0.0180 -0.9359 -0.3715
 2718TIP3    H2 8119   3.002   2.465   4.164 -0.3151  0.9685 -0.3624
 2719TIP3   OH2 8120   1.637   6.801   0.236 -0.3074 -0.7053 -0.2010
 2719TIP3    H1 8121   1.552   6.844   0.247 -1.0353 -2.5066  1.8226
 2719TIP3    H2 8122   1.624   6.741   0.163 -0.7786 -0.9437  0.0733
 2720TIP3   OH2 8123   0.074   4.253   1.651 -0.2856  0.2297  0.2937
 2720TIP3    H1 8124   0.147   4.250   1.589 -1.0229 -1.6674 -0.5464
 2720TIP3    H2 8125  -0.001   4.280   1.598 -0.7207 -0.4005  0.5827
 2721TIP3   OH2 8126   4.411   2.526   4.375 -0.1407  0.4818  0.3148
 2721TIP3    H1 8127   4.380   2.608   4.412 -0.3897  0.1143  0.9489
 2721TIP3    H2 8128   4.471   2.490   4.441 -0.1744  0.0691  0.1288
 2722TIP3   OH2 8129   2.699   0.175   1.347  0.2337  0.1434 -0.1140
 2722TIP3    H1 8130   2.784   0.137   1.324  0.6964  1.4899 -0.7166
 2722TIP3    H2 8131   2.648   0.101   1.380  1.4577 -0.7879 -0.2346
 2723TIP3   OH2 8132   3.333   5.012   0.672  0.0848 -0.2241  0.5463
 2723TIP3    H1 8133   3.377   4.981   0.593 -2.1239 -0.1169 -0.8291
 2723TIP3    H2 8134   3.329   5.107   0.661 -1.5907 -0.3237 -0.0603
 2724TIP3   OH2 8135   4.282   2.867   2.636  0.2105  1.2169 -0.7633
 2724TIP3    H1 8136   4.274   2.865   2.732 -0.7269 -0.5152 -0.8603
 2724TIP3    H2 8137   4.204   2.913   2.606 -0.1859  0.5292 -0.7749
 2725TIP3   OH2 8138   1.428   2.223   4.532 -0.3046 -0.6940  0.2288
 2725TIP3    H1 8139   1.353   2.265   4.574  0.1516  2.7452 -1.9715
 2725TIP3    H2 8140   1.390   2.152   4.480 -2.0547  0.7333 -0.5319
 2726TIP3   OH2 8141   5.850   5.228   3.496 -0.1935  0.1623 -0.6005
 2726TIP3    H1 8142   5.892   5.267   3.419  2.2059 -2.0854 -0.5552
 2726TIP3    H2 8143   5.826   5.140   3.469 -1.8902  0.2504  0.4493
 2727TIP3   OH2 8144   5.991   5.783   1.676 -0.4216  0.2818  0.0135
 2727TIP3    H1 8145   5.995   5.868   1.719 -0.6729  1.3777 -2.0051
 2727TIP3    H2 8146   5.936   5.729   1.734  0.1083  1.3299  1.5421
 2728TIP3   OH2 8147   5.548   4.562   1.204  0.0881 -0.0453 -0.3112
 2728TIP3    H1 8148   5.580   4.580   1.292 -1.1071 -2.5999  0.7441
 2728TIP3    H2 8149   5.623   4.523   1.158  0.6189  1.0009 -0.3662
 2729TIP3   OH2 8150   6.667   4.322   0.750  0.1532  0.2168 -0.0320
 2729TIP3    H1 8151   6.633   4.410   0.766 -2.3730 -0.4408 -1.1434
 2729TIP3    H2 8152   6.714   4.329   0.667  1.6506  0.8583  0.8297
 2730TIP3   OH2 8153   2.718   6.155   4.531 -0.1788 -0.0923  0.3994
 2730TIP3    H1 8154   2.805   6.128   4.504  0.7263  1.7524  1.2786
 2730TIP3    H2 8155   2.732   6.213   4.606 -2.0050  1.6929 -0.5264
 2731TIP3   OH2 8156   5.779   3.894   5.472 -0.6138  0.3906 -0.5536
 2731TIP3    H1 8157   5.855   3.916   5.418 -0.8752  0.6894 -0.8068
 2731TIP3    H2 8158   5.815   3.847   5.547 -0.1736  0.5684 -0.6518
 2732TIP3   OH2 8159   2.570   2.580   2.859 -0.2165 -0.4250  0.5496
 2732TIP3    H1 8160   2.499   2.639   2.883 -0.0354 -0.2842  0.7431
 2732TIP3    H2 8161   2.543   2.495   2.891 -1.3449 -0.8452 -1.3525
 2733TIP3   OH2 8162   3.917   6.444   4.109  0.1144  0.5389  0.7057
 2733TIP3    H1 8163   3.995   6.478   4.151  0.2323 -0.3526  1.2368
 2733TIP3    H2 8164   3.923   6.474   4.018  1.1453  0.3439  0.7034
 2734TIP3   OH2 8165   4.179   1.107   4.106  0.5808 -0.2922  0.6719
 2734TIP3    H1 8166   4.117   1.095   4.035  1.2875  1.3317 -0.2724
 2734TIP3    H2 8167   4.259   1.062   4.077  1.3694  1.6173 -0.3217
 2735TIP3   OH2 8168   6.845   3.445   0.057 -0.5191 -0.3137 -0.6000
 2735TIP3    H1 8169   6.836   3.365   0.006 -0.4831  0.2347 -1.5031
 2735TIP3    H2 8170   6.771   3.499   0.030 -1.8989 -0.9067  1.7180
 2736TIP3   OH2 8171   6.866   3.597   1.782  0.0191  0.0378 -0.0164
 2736TIP3    H1 8172   6.906   3.513   1.802 -1.2590 -0.6266 -0.1284
 2736TIP3    H2 8173   6.910   3.626   1.701 -0.2078 -1.0032 -0.5326
 2737TIP3   OH2 8174   4.947   5.993   1.258 -0.4076 -0.6258  0.2039
 2737TIP3    H1 8175   5.020   6.037   1.214 -2.5754  1.7435 -1.2973
 2737TIP3    H2 8176   4.955   6.020   1.350 -0.3367  1.0644 -0.2683
 2738TIP3   OH2 8177   5.391   0.674   5.480  0.4667 -0.0430  0.3263
 2738TIP3    H1 8178   5.358   0.759   5.508  0.3021 -0.2613  0.8063
 2738TIP3    H2 8179   5.312   0.624   5.458  0.5618 -0.0740  0.0493
 2739TIP3   OH2 8180   4.340   6.050   3.843 -0.3288  0.0103  0.1795
 2739TIP3    H1 8181   4.324   6.104   3.766 -2.1468 -2.1495 -1.1009
 2739TIP3    H2 8182   4.435   6.034   3.842 -0.0467  1.5476 -0.4736
 2740TIP3   OH2 8183   4.022   1.606   1.940 -0.1563  0.0717 -0.0254
 2740TIP3    H1 8184   3.950   1.636   1.885  0.0534 -0.2191 -0.4698
 2740TIP3    H2 8185   3.980   1.574   2.020 -0.5133 -0.0171 -0.2461
 2741TIP3   OH2 8186   4.117   3.615   1.575 -0.2231 -0.3264 -0.7157
 2741TIP3    H1 8187   4.096   3.541   1.632 -1.5146  0.8861  0.4698
 2741TIP3    H2 8188   4.209   3.635   1.594 -0.3204 -0.6432  0.1523
 2742TIP3   OH2 8189   0.707   2.596   4.401  0.1244  0.3003 -0.0089
 2742TIP3    H1 8190   0.702   2.614   4.307  0.0925  0.8697  0.1024
 2742TIP3    H2 8191   0.706   2.682   4.443  1.0416  0.0972  0.4775
 2743TIP3   OH2 8192   2.234   6.708   4.040 -0.2882  0.9504 -0.4181
 2743TIP3    H1 8193   2.166   6.756   4.087 -0.9193 -0.2635 -0.0493
 2743TIP3    H2 8194   2.316   6.731   4.085 -0.8720 -0.1479  1.2788
 2744TIP3   OH2 8195   7.000   1.818   3.266  0.0422 -0.6683  0.4748
 2744TIP3    H1 8196   7.037   1.904   3.248 -0.1426 -1.1681 -2.9391
 2744TIP3    H2 8197   6.950   1.796   3.188 -1.4089 -3.1528  1.9512
 2745TIP3   OH2 8198   1.801   0.042   0.017  0.3283 -0.0389 -0.1125
 2745TIP3    H1 8199   1.753   0.060   0.097  0.7550  0.8732 -0.0449
 2745TIP3    H2 8200   1.752  -0.027  -0.026  0.2392 -0.7308  1.0632
 2746TIP3   OH2 8201   1.920   5.943   5.795 -0.4190 -0.0404  0.0159
 2746TIP3    H1 8202   1.889   6.009   5.733 -0.1815 -0.2648 -0.3443
 2746TIP3    H2 8203   1.939   5.866   5.741  1.1769  0.2184  0.1343
 2747TIP3   OH2 8204   1.027   6.072   3.203  0.3205  0.0195  0.5206
 2747TIP3    H1 8205   0.937   6.089   3.175 -0.4254 -3.5456  0.2471
 2747TIP3    H2 8206   1.082   6.111   3.134 -1.1486 -0.4822 -0.9866
 2748TIP3   OH2 8207   2.404   5.504   1.733 -0.3602  1.1750  0.4839
 2748TIP3    H1 8208   2.352   5.572   1.691 -0.8047  1.3212  1.2497
 2748TIP3    H2 8209   2.416   5.534   1.823 -2.0274 -0.5126  1.3503
 2749TIP3   OH2 8210   4.079   3.930   2.160  0.0255 -0.2225 -0.0288
 2749TIP3    H1 8211   4.123   3.999   2.211  0.4611  0.8734 -1.8082
 2749TIP3    H2 8212   4.082   3.853   2.217  2.2141  0.4314  0.8501
 2750TIP3   OH2 8213   4.861   5.743   2.595  0.2756  0.0747  0.4303
 2750TIP3    H1 8214   4.777   5.713   2.559  0.4287 -0.7269  0.7347
 2750TIP3    H2 8215   4.856   5.721   2.688  0.7068  0.3034  0.5079
 2751TIP3   OH2 8216   2.178   6.431   1.966  0.2143 -0.2521 -0.1291
 2751TIP3    H1 8217   2.189   6.526   1.976 -1.0250  0.1141 -1.7613
 2751TIP3    H2 8218   2.124   6.405   2.041 -2.9273  1.1158 -1.7528
 2752TIP3   OH2 8219   0.322   5.738   1.643 -0.3304 -0.2748  0.1926
 2752TIP3    H1 8220   0.364   5.824   1.642 -0.2385 -0.2847  1.7451
 2752TIP3    H2 8221   0.356   5.695   1.564 -0.5426  1.1598 -0.7241
 2753TIP3   OH2 8222   3.843   2.839   0.183  0.0267  0.8664 -0.0705
 2753TIP3    H1 8223   3.771   2.801   0.233  1.2051 -0.3952  0.7750
 2753TIP3    H2 8224   3.840   2.793   0.099  0.3949  0.1288  0.3105
 2754TIP3   OH2 8225   2.957   2.144   1.647  0.0979 -0.4132  0.6666
 2754TIP3    H1 8226   3.002   2.113   1.569 -1.0066 -1.1491  0.2902
 2754TIP3    H2 8227   2.971   2.238   1.648  1.4509 -0.5986  0.4626
 2755TIP3   OH2 8228   2.602   0.393   2.551  0.2872  0.2442 -0.1447
 2755TIP3    H1 8229   2.689   0.353   2.548  0.5043  0.7634 -1.7572
 2755TIP3    H2 8230   2.592   0.436   2.466 -1.6101  0.0938 -0.0501
 2756TIP3   OH2 8231   2.060   4.618   2.308  0.2229 -0.2288 -0.0159
 2756TIP3    H1 8232   2.073   4.713   2.304 -1.3635  0.0184 -0.1675
 2756TIP3    H2 8233   2.019   4.603   2.393  0.4617 -0.7839  0.0062
 2757TIP3   OH2 8234   0.346   6.594   3.480  0.2261  0.1620  0.3254
 2757TIP3    H1 8235   0.422   6.637   3.518 -0.3842  1.3594  0.2390
 2757TIP3    H2 8236   0.375   6.504   3.462  1.8116  0.7629 -0.2999
 2758TIP3   OH2 8237   6.027   2.082   4.194  0.5931 -0.2173  0.1802
 2758TIP3    H1 8238   6.019   2.031   4.113 -2.1406  0.4538 -0.0859
 2758TIP3    H2 8239   5.959   2.047   4.251 -0.8573  2.4707  0.2810
 2759TIP3   OH2 8240   0.124   4.832   2.375 -0.2992  0.4149  0.2844
 2759TIP3    H1 8241   0.200   4.783   2.408  0.4228  1.7080  0.6277
 2759TIP3    H2 8242   0.161   4.889   2.307 -1.2794 -0.1398 -0.7444
 2760TIP3   OH2 8243   7.127   2.520   0.153  0.3288 -0.3075  0.4520
 2760TIP3    H1 8244   7.159   2.433   0.176  1.8322  0.0158 -0.2607
 2760TIP3    H2 8245   7.145   2.573   0.230  1.7486 -0.0972  0.0127
 2761TIP3   OH2 8246   6.714   2.738   3.498 -0.7966  0.2920 -0.1130
 2761TIP3    H1 8247   6.712   2.732   3.593 -1.0390 -1.8347 -0.2121
 2761TIP3    H2 8248   6.658   2.813   3.478 -0.8568  0.6845  1.3887
 2762TIP3   OH2 8249   4.079   4.089   0.789  0.1603  0.3405  0.7255
 2762TIP3    H1 8250   4.146   4.030   0.822  1.0088  0.9372  0.1119
 2762TIP3    H2 8251   4.019   4.100   0.863 -0.4761 -1.8876  0.6001
 2763TIP3   OH2 8252   2.617   6.765   3.292  0.3797 -0.5329  0.1290
 2763TIP3    H1 8253   2.627   6.860   3.301  2.0851 -0.6280 -0.4882
 2763TIP3    H2 8254   2.529   6.747   3.326 -0.2526  1.3456 -0.4172
 2764TIP3   OH2 8255   5.476   1.470   4.819 -0.3776 -0.1104  0.1839
 2764TIP3    H1 8256   5.401   1.433   4.867  0.6006 -0.0571  1.8540
 2764TIP3    H2 8257   5.550   1.417   4.847  0.6786  1.6586  0.8870
 2765TIP3   OH2 8258   2.675   6.703   5.128 -0.2047  0.0581 -0.3676
 2765TIP3    H1 8259   2.612   6.756   5.079 -1.0997 -0.7572 -0.1382
 2765TIP3    H2 8260   2.684   6.623   5.077 -1.0867 -0.7680  0.7384
 2766TIP3   OH2 8261   0.743   1.321   0.113 -0.4639  0.5340 -0.1972
 2766TIP3    H1 8262   0.747   1.311   0.208  2.6105 -0.3554 -0.3143
 2766TIP3    H2 8263   0.680   1.255   0.084  1.1370 -1.6609  1.0357
 2767TIP3   OH2 8264   2.369   0.755   5.858 -0.3767  0.3150 -0.1371
 2767TIP3    H1 8265   2.297   0.794   5.808 -1.9302 -0.7962  1.1170
 2767TIP3    H2 8266   2.332   0.673   5.893  1.2111  0.1545  1.2960
 2768TIP3   OH2 8267   0.469   4.305   2.838  0.6209  0.6359  0.1165
 2768TIP3    H1 8268   0.453   4.370   2.770 -0.9842 -0.6156 -0.7596
 2768TIP3    H2 8269   0.558   4.275   2.822 -0.1428 -0.5301 -2.2559
 2769TIP3   OH2 8270   3.855   6.201   4.961 -0.3435 -0.1836 -0.4186
 2769TIP3    H1 8271   3.776   6.220   4.911 -1.7765 -2.8312  0.6151
 2769TIP3    H2 8272   3.839   6.114   4.998  2.3803 -0.0950  1.2212
 2770TIP3   OH2 8273   3.409   3.041   0.696 -0.3925  0.1959 -0.3675
 2770TIP3    H1 8274   3.480   3.048   0.632 -0.3524  0.3892 -0.3002
 2770TIP3    H2 8275   3.403   3.128   0.736  1.7039 -0.7389  2.2041
 2771TIP3   OH2 8276   4.240   1.841   3.580 -0.6794 -0.2089  0.6071
 2771TIP3    H1 8277   4.276   1.884   3.503 -0.1276  0.6030  1.3066
 2771TIP3    H2 8278   4.261   1.748   3.568 -0.8051 -0.1300 -0.3202
 2772TIP3   OH2 8279   2.385   1.974   3.022  0.2346  0.2485  0.0018
 2772TIP3    H1 8280   2.399   1.906   2.956  0.6963  0.5321 -0.1971
 2772TIP3    H2 8281   2.290   1.983   3.028  0.1812  1.5322 -1.9754
 2773TIP3   OH2 8282   5.487   6.427   3.424  0.6811  0.4435  0.0274
 2773TIP3    H1 8283   5.419   6.366   3.451  1.3147 -0.3912 -0.2036
 2773TIP3    H2 8284   5.472   6.505   3.477 -1.5723  1.0092 -1.3073
 2774TIP3   OH2 8285   5.005   3.144   0.124 -0.2727 -0.2638  0.7983
 2774TIP3    H1 8286   5.013   3.210   0.193 -1.2691 -1.6474  2.2760
 2774TIP3    H2 8287   4.930   3.174   0.072  0.6961  0.9716  0.0399
 2775TIP3   OH2 8288   2.003   2.931   1.434 -0.2335 -0.0584  0.3621
 2775TIP3    H1 8289   2.010   2.842   1.399  0.6647 -0.5883  1.7595
 2775TIP3    H2 8290   1.987   2.918   1.528  2.4472  1.1714  1.0834
 2776TIP3   OH2 8291   5.110   2.659   5.873  0.1992  0.5366 -0.0682
 2776TIP3    H1 8292   5.191   2.709   5.866  0.5944 -0.2301 -1.2244
 2776TIP3    H2 8293   5.118   2.590   5.807 -0.4518 -0.8909  1.2806
 2777TIP3   OH2 8294   3.343   3.643   4.578 -0.0324 -0.2969 -0.4520
 2777TIP3    H1 8295   3.299   3.603   4.653  0.3052 -0.7398 -0.4834
 2777TIP3    H2 8296   3.373   3.728   4.610 -2.2685  0.7305 -0.8796
 2778TIP3   OH2 8297   4.535   6.243   5.532  0.1104 -0.3615  0.3472
 2778TIP3    H1 8298   4.511   6.335   5.541  0.2949 -0.1165 -1.3542
 2778TIP3    H2 8299   4.550   6.231   5.439  2.1736 -1.6161  0.7850
 2779TIP3   OH2 8300   1.663   4.130   4.840  0.0948  0.0838  0.0847
 2779TIP3    H1 8301   1.582   4.079   4.845 -0.0176 -0.1575 -2.7824
 2779TIP3    H2 8302   1.728   4.076   4.884 -1.7451  1.7842  5.8104
 2780TIP3   OH2 8303   0.506   6.428   3.107  0.2522 -0.3414  0.1116
 2780TIP3    H1 8304   0.497   6.364   3.037 -2.3661 -0.0645  0.0707
 2780TIP3    H2 8305   0.431   6.411   3.165 -0.5585  2.6113  0.0945
 2781TIP3   OH2 8306   3.637   1.870   2.399  0.1136  0.1984  0.1986
 2781TIP3    H1 8307   3.547   1.838   2.411 -0.2360  1.0228 -0.1594
 2781TIP3    H2 8308   3.654   1.923   2.476  0.3589 -0.0811  0.3409
 2782TIP3   OH2 8309   5.518   2.031   4.776 -0.7170  0.8107 -0.2431
 2782TIP3    H1 8310   5.453   1.977   4.731 -0.4031  0.0672  0.1708
 2782TIP3    H2 8311   5.481   2.046   4.863 -0.3971  0.4924 -0.0494
 2783TIP3   OH2 8312   5.897   1.321   1.778  0.1776  0.6713 -0.1357
 2783TIP3    H1 8313   5.819   1.309   1.725 -0.0104 -0.8569  0.4243
 2783TIP3    H2 8314   5.925   1.232   1.800  1.3730  1.2173  0.6846
 2784TIP3   OH2 8315   4.724   5.777   5.667  0.2048 -0.1617 -0.3900
 2784TIP3    H1 8316   4.681   5.825   5.737  0.4851 -0.1710 -0.2126
 2784TIP3    H2 8317   4.689   5.816   5.586  1.2269  1.0754 -0.2692
 2785TIP3   OH2 8318   1.598   6.399   3.192 -0.1687  0.6146 -0.5744
 2785TIP3    H1 8319   1.558   6.326   3.144 -0.9525  0.7447 -0.1444
 2785TIP3    H2 8320   1.621   6.361   3.278  0.4025  0.6105 -0.7235
 2786TIP3   OH2 8321   5.381   3.379   4.415 -0.3919 -0.5023 -0.2114
 2786TIP3    H1 8322   5.360   3.286   4.411 -6.3483  0.5000 -0.5478
 2786TIP3    H2 8323   5.350   3.407   4.501 -1.7024  1.5885 -1.2723
 2787TIP3   OH2 8324   3.215   4.527   0.561  0.3149 -0.3408  0.0888
 2787TIP3    H1 8325   3.227   4.620   0.547 -0.5999 -0.5390 -2.5457
 2787TIP3    H2 8326   3.158   4.521   0.638 -0.5872  1.3267 -0.4118
 2788TIP3   OH2 8327   0.656   3.250   4.028  0.4466 -0.5117  0.1638
 2788TIP3    H1 8328   0.636   3.344   4.023 -1.1744 -0.9077 -2.1704
 2788TIP3    H2 8329   0.750   3.245   4.010  0.3576  0.5978 -0.7213
 2789TIP3   OH2 8330   6.568   1.049   0.524  0.3366 -0.7051  0.0308
 2789TIP3    H1 8331   6.586   0.996   0.602  1.0273  1.9900  1.8566
 2789TIP3    H2 8332   6.486   1.094   0.544  0.0313 -0.6616 -1.2263
 2790TIP3   OH2 8333   6.370   2.634   4.950 -0.2642 -0.3268  0.0457
 2790TIP3    H1 8334   6.315   2.588   5.013 -2.7788  1.8740 -0.3328
 2790TIP3    H2 8335   6.356   2.727   4.969  0.2393  0.3872 -2.5802
 2791TIP3   OH2 8336   0.075   0.090   3.805  0.1508 -0.0776  0.1491
 2791TIP3    H1 8337   0.117   0.143   3.872  0.3753 -0.0536 -0.0113
 2791TIP3    H2 8338  -0.014   0.078   3.837 -0.4788  1.9596 -0.7046
 2792TIP3   OH2 8339   1.159   2.598   1.037  0.0460  0.4110 -1.1989
 2792TIP3    H1 8340   1.067   2.577   1.022 -0.1949  0.5175 -0.0155
 2792TIP3    H2 8341   1.165   2.611   1.132  1.1685  0.9526 -1.3266
 2793TIP3   OH2 8342   4.229   2.240   3.079  0.1587  0.2639  0.3476
 2793TIP3    H1 8343   4.218   2.178   3.006 -2.8742 -0.5290  1.3015
 2793TIP3    H2 8344   4.200   2.324   3.043 -1.5022 -0.1619  0.6089
 2794TIP3   OH2 8345   4.574   4.127   3.574 -0.3453  0.2331 -0.1501
 2794TIP3    H1 8346   4.648   4.183   3.552  0.1538 -0.4725 -0.2976
 2794TIP3    H2 8347   4.613   4.045   3.605 -1.0511 -0.5022 -1.1373
 2795TIP3   OH2 8348   3.810   5.796   5.744 -0.5151 -0.1256  0.2539
 2795TIP3    H1 8349   3.720   5.796   5.775 -0.4713  0.2870  0.3829
 2795TIP3    H2 8350   3.852   5.725   5.792 -0.4162  0.5772  1.2314
 2796TIP3   OH2 8351   4.281   5.422   4.990 -0.1423  0.4147  0.2394
 2796TIP3    H1 8352   4.227   5.481   4.938 -1.3355 -1.2130 -0.4470
 2796TIP3    H2 8353   4.331   5.372   4.925  0.5040  0.3294  0.7894
 2797TIP3   OH2 8354   1.361   5.149   5.640  0.4697  0.1213 -0.4013
 2797TIP3    H1 8355   1.320   5.082   5.585  0.2653  0.6586 -0.9157
 2797TIP3    H2 8356   1.371   5.107   5.726 -0.3105 -0.3318 -0.5191
 2798TIP3   OH2 8357   1.001   1.434   0.585  0.1120 -0.0306  0.2412
 2798TIP3    H1 8358   1.043   1.394   0.661 -2.5030 -2.0079  0.8001
 2798TIP3    H2 8359   0.987   1.360   0.525  1.2913  1.3300 -1.8311
 2799TIP3   OH2 8360   5.813   0.701   1.900 -0.0121 -0.5539 -0.1558
 2799TIP3    H1 8361   5.781   0.777   1.948  0.8293 -1.2510  1.5990
 2799TIP3    H2 8362   5.862   0.738   1.827 -0.9428  0.5561 -0.2384
 2800TIP3   OH2 8363   4.011   0.180   0.859 -0.2068 -0.1914 -0.6646
 2800TIP3    H1 8364   3.965   0.250   0.904 -0.8646 -0.8426 -0.3076
 2800TIP3    H2 8365   4.090   0.166   0.911 -0.5676 -0.3918 -0.1698
 2801TIP3   OH2 8366   3.791   3.881   0.275  0.9540 -0.0775  0.4680
 2801TIP3    H1 8367   3.728   3.809   0.282  0.2150  0.4299 -0.6255
 2801TIP3    H2 8368   3.852   3.853   0.206  1.8666 -0.5027  1.4239
 2802TIP3   OH2 8369   5.298   0.484   1.660  0.1013  0.0581  0.2259
 2802TIP3    H1 8370   5.384   0.524   1.646  0.6286 -1.3448 -0.7748
 2802TIP3    H2 8371   5.244   0.555   1.695  0.8518  1.7752 -1.8907
 2803TIP3   OH2 8372   1.344   6.177   0.670 -0.1583 -0.6825  0.0129
 2803TIP3    H1 8373   1.362   6.212   0.757 -0.7541 -0.3385  0.0078
 2803TIP3    H2 8374   1.411   6.217   0.614 -1.0941  0.8544 -0.0738
 2804TIP3   OH2 8375   6.592   1.403   1.375 -0.4314  0.1137 -0.1635
 2804TIP3    H1 8376   6.564   1.451   1.452  1.7325 -1.3502  1.6726
 2804TIP3    H2 8377   6.657   1.459   1.333  0.3022 -0.1415  0.6012
 2805TIP3   OH2 8378   0.022   3.730   5.555 -0.1731 -0.2778 -0.0805
 2805TIP3    H1 8379  -0.028   3.662   5.510 -0.1440 -0.7667  0.6118
 2805TIP3    H2 8380   0.109   3.724   5.516 -0.5927  0.4512 -1.1557
 2806TIP3   OH2 8381   0.435   0.056   2.907  0.0874  0.2515  1.1717
 2806TIP3    H1 8382   0.510   0.114   2.893  0.4015  0.7213  4.1234
 2806TIP3    H2 8383   0.369   0.086   2.844  1.3510  1.7241  0.4874
 2807TIP3   OH2 8384   3.684   1.210   4.832  0.2167 -0.2767 -0.0218
 2807TIP3    H1 8385   3.709   1.203   4.740 -0.2176  1.4918 -0.3239
 2807TIP3    H2 8386   3.761   1.181   4.880 -0.1946 -3.1272 -0.8820
 2808TIP3   OH2 8387   0.166   4.419   4.965  0.2387 -0.3039 -0.2588
 2808TIP3    H1 8388   0.219   4.398   5.042  0.2862 -0.7127 -0.4030
 2808TIP3    H2 8389   0.081   4.380   4.983 -0.1438  0.6689  0.1406
 2809TIP3   OH2 8390   3.025   1.452   4.878  0.0251 -0.5077  0.3322
 2809TIP3    H1 8391   3.045   1.370   4.923 -0.1487 -0.4875  0.4482
 2809TIP3    H2 8392   3.030   1.518   4.947 -2.4874 -0.7514  0.8485
 2810TIP3   OH2 8393   6.959   0.388   2.560  0.5115 -0.5405 -0.0386
 2810TIP3    H1 8394   6.913   0.471   2.548 -0.5779 -1.0112  0.7648
 2810TIP3    H2 8395   7.034   0.394   2.501  1.0367  1.4375  0.7553
 2811TIP3   OH2 8396   2.349   0.133   0.772 -0.4543  0.1163  0.0626
 2811TIP3    H1 8397   2.302   0.214   0.791  0.4874  0.9559 -1.0451
 2811TIP3    H2 8398   2.365   0.136   0.678  1.5458 -0.2621  0.3458
 2812TIP3   OH2 8399   0.584   4.277   1.736  0.3103 -0.1542  0.1310
 2812TIP3    H1 8400   0.667   4.235   1.761  0.4267  0.6948  1.1856
 2812TIP3    H2 8401   0.571   4.249   1.645  2.1498  0.3071 -0.3270
 2813TIP3   OH2 8402   0.136   2.990   1.161 -0.5940  0.1542 -0.5582
 2813TIP3    H1 8403   0.144   2.971   1.255  0.9995  0.6177 -0.5765
 2813TIP3    H2 8404   0.094   2.912   1.125 -2.0703  0.3448  0.6646
 2814TIP3   OH2 8405   2.078   0.370   4.811  0.2509  0.0562  0.2593
 2814TIP3    H1 8406   1.990   0.350   4.842 -0.1497  1.5198  0.1132
 2814TIP3    H2 8407   2.080   0.465   4.801  1.8530  0.0547  0.2661
 2815TIP3   OH2 8408   6.961   2.229   3.274  0.2591  0.3266 -0.3629
 2815TIP3    H1 8409   6.977   2.285   3.350 -1.6283  0.8220 -0.2874
 2815TIP3    H2 8410   6.947   2.289   3.202 -0.2633 -0.0729 -0.6049
 2816TIP3   OH2 8411   6.599   5.713   1.446  0.7147 -0.1487 -0.4477
 2816TIP3    H1 8412   6.683   5.726   1.490  1.0182 -3.1431  0.0420
 2816TIP3    H2 8413   6.537   5.765   1.497  1.5370 -1.3521  1.9100
 2817TIP3   OH2 8414   5.639   4.311   5.237 -0.3533  0.2435  0.0693
 2817TIP3    H1 8415   5.568   4.369   5.207  0.3745  0.7028 -0.8143
 2817TIP3    H2 8416   5.694   4.300   5.159  2.2144  2.3065  1.4383
 2818TIP3   OH2 8417   1.825   2.592   0.724 -1.0342  0.9026  0.0430
 2818TIP3    H1 8418   1.882   2.668   0.716 -1.2391  1.0743  0.2138
 2818TIP3    H2 8419   1.861   2.529   0.661 -0.4129  0.8538  0.4425
 2819TIP3   OH2 8420   3.584   1.622   2.646 -0.1137 -0.2221 -0.1924
 2819TIP3    H1 8421   3.506   1.638   2.699 -0.8283 -1.5556 -0.7872
 2819TIP3    H2 8422   3.649   1.683   2.680 -1.5489  1.2683  0.0012
 2820TIP3   OH2 8423   4.675   1.254   4.203 -0.3919 -0.1423 -0.0583
 2820TIP3    H1 8424   4.674   1.259   4.107 -1.5556 -0.3861 -0.0648
 2820TIP3    H2 8425   4.706   1.340   4.231  1.8746 -0.6829 -0.6672
 2821TIP3   OH2 8426   4.473   0.374   4.313  0.3655  0.5122 -0.6843
 2821TIP3    H1 8427   4.515   0.453   4.347 -0.1812  0.6970 -0.4259
 2821TIP3    H2 8428   4.488   0.377   4.219 -1.3308  1.9420 -0.9501
 2822TIP3   OH2 8429   4.878   6.473   3.635 -0.0120 -0.6346  0.4099
 2822TIP3    H1 8430   4.813   6.486   3.566  0.9103 -0.1256 -0.3791
 2822TIP3    H2 8431   4.915   6.386   3.618  1.5209  0.2233 -0.8884
 2823TIP3   OH2 8432   6.401   5.992   4.188 -0.3127 -0.1220 -0.1357
 2823TIP3    H1 8433   6.361   6.061   4.242  2.7127  2.3986 -0.8257
 2823TIP3    H2 8434   6.398   5.914   4.243 -2.8431  0.7809  1.1757
 2824TIP3   OH2 8435   6.652   3.375   1.165  0.1709 -0.5564 -0.2160
 2824TIP3    H1 8436   6.672   3.298   1.220 -0.1077 -0.4084  0.0985
 2824TIP3    H2 8437   6.624   3.337   1.081  0.6736 -0.7838 -0.2860
 2825TIP3   OH2 8438   5.449   2.240   3.352  0.0938  0.2587 -0.3447
 2825TIP3    H1 8439   5.386   2.237   3.424  2.0556 -0.2844  1.4881
 2825TIP3    H2 8440   5.417   2.308   3.294 -1.9236  0.2903  0.7208
 2826TIP3   OH2 8441   2.190   5.142   1.661 -0.5921 -0.6959 -0.6567
 2826TIP3    H1 8442   2.271   5.118   1.706 -0.3634  1.8522  0.4489
 2826TIP3    H2 8443   2.135   5.064   1.666  0.1508 -1.1225  2.4435
 2827TIP3   OH2 8444   6.772   1.290   4.882  0.3485 -0.1554  0.2873
 2827TIP3    H1 8445   6.793   1.230   4.810  0.4744 -2.1264  1.8716
 2827TIP3    H2 8446   6.849   1.288   4.938  0.3220  1.4883  0.4286
 2828TIP3   OH2 8447   6.626   0.640   1.878 -0.3619 -0.2698  0.3634
 2828TIP3    H1 8448   6.547   0.693   1.872 -0.4655 -0.4069  0.5084
 2828TIP3    H2 8449   6.595   0.553   1.902 -0.3960 -0.8851 -1.6723
 2829TIP3   OH2 8450   5.656   0.418   4.068 -0.2523 -0.1925  0.7787
 2829TIP3    H1 8451   5.682   0.484   4.004 -2.0391  0.1495  0.3648
 2829TIP3    H2 8452   5.648   0.466   4.150 -0.0120 -0.2202  0.8200
 2830TIP3   OH2 8453   5.223   6.286   0.182 -0.3164 -0.1401  0.2174
 2830TIP3    H1 8454   5.155   6.230   0.146  0.9639 -2.1521  0.7475
 2830TIP3    H2 8455   5.181   6.331   0.256 -0.8162 -2.2552  1.3077
 2831TIP3   OH2 8456   1.814   3.124   1.045 -0.0068  0.7521  0.4265
 2831TIP3    H1 8457   1.870   3.049   1.027 -1.7908 -0.7309  0.8185
 2831TIP3    H2 8458   1.816   3.175   0.964  0.1151 -0.4760 -0.3766
 2832TIP3   OH2 8459   3.945   5.886   1.599 -0.2421  0.1862 -0.5921
 2832TIP3    H1 8460   4.004   5.819   1.632 -0.8520  0.2666  0.7216
 2832TIP3    H2 8461   3.978   5.906   1.511  1.1273 -0.3991 -0.2337
 2833TIP3   OH2 8462   5.952   2.696   2.978  0.2671 -0.0689  0.7143
 2833TIP3    H1 8463   6.027   2.656   2.933 -0.0253  0.8714 -0.6842
 2833TIP3    H2 8464   5.991   2.760   3.037  0.5857  0.5332 -0.1271
 2834TIP3   OH2 8465   3.015   4.498   4.579 -0.2010  0.1506  0.3373
 2834TIP3    H1 8466   2.952   4.437   4.541  0.2316  0.1124 -0.3307
 2834TIP3    H2 8467   3.097   4.449   4.585  0.0484  0.5407  0.1750
 2835TIP3   OH2 8468   3.186   6.538   3.065 -0.2457 -0.0479 -0.2057
 2835TIP3    H1 8469   3.114   6.526   3.127 -0.3678  1.5665  0.0159
 2835TIP3    H2 8470   3.196   6.633   3.059  1.0465 -0.2250 -1.1934
 2836TIP3   OH2 8471   5.625   5.599  -0.021  0.3800  0.2883  0.3034
 2836TIP3    H1 8472   5.600   5.684   0.014 -0.8008 -0.0955  0.4420
 2836TIP3    H2 8473   5.576   5.536   0.032  0.3331 -0.4155 -0.5548
 2837TIP3   OH2 8474   2.601   2.381   0.665 -0.2764 -0.3721 -0.6218
 2837TIP3    H1 8475   2.610   2.394   0.570 -0.9118  0.8821 -0.5333
 2837TIP3    H2 8476   2.628   2.465   0.703 -0.5676 -0.6755  0.2835
 2838TIP3   OH2 8477   0.431   0.096   0.259  0.2887 -0.6607 -0.6253
 2838TIP3    H1 8478   0.486   0.018   0.251  1.5880  0.1833 -0.1885
 2838TIP3    H2 8479   0.443   0.124   0.350 -0.8293 -0.4136 -0.5350
 2839TIP3   OH2 8480   4.691   0.009   1.379 -0.2340  0.0490  0.0363
 2839TIP3    H1 8481   4.643   0.043   1.455 -0.5153  1.1598 -0.6161
 2839TIP3    H2 8482   4.721   0.087   1.333  1.2719 -0.6280 -0.1701
 2840TIP3   OH2 8483   0.623   4.976   5.393 -0.1797  0.2322  0.4185
 2840TIP3    H1 8484   0.650   4.923   5.468 -1.5663 -0.8167  0.2059
 2840TIP3    H2 8485   0.683   4.950   5.323  0.0569 -0.0069  0.7053
 2841TIP3   OH2 8486   0.173   1.680   3.861 -1.1360 -1.2127  0.3848
 2841TIP3    H1 8487   0.115   1.606   3.843 -1.1809 -0.6607 -1.9784
 2841TIP3    H2 8488   0.125   1.757   3.828  0.1537 -0.5084  0.0783
 2842TIP3   OH2 8489   2.736   4.392   3.815  0.3128  0.0069 -0.3141
 2842TIP3    H1 8490   2.714   4.461   3.878  2.2258  0.2474  0.1506
 2842TIP3    H2 8491   2.681   4.318   3.840 -1.5875  1.2304 -0.6537
 2843TIP3   OH2 8492   1.194   1.400   5.837  0.7068 -0.2948  0.5744
 2843TIP3    H1 8493   1.178   1.425   5.928 -0.2815 -0.0468  0.3425
 2843TIP3    H2 8494   1.194   1.304   5.839  0.3011 -0.2926  0.7736
 2844TIP3   OH2 8495   5.902   0.519   4.639 -0.3995 -0.1860  0.5389
 2844TIP3    H1 8496   5.811   0.521   4.670 -0.5204 -1.2254  0.2863
 2844TIP3    H2 8497   5.938   0.440   4.677 -0.0513 -0.5884 -0.5915
 2845TIP3   OH2 8498   4.290   0.733   4.398 -0.0923 -0.2970  0.4419
 2845TIP3    H1 8499   4.337   0.674   4.338 -1.0174 -1.2141  0.5928
 2845TIP3    H2 8500   4.355   0.799   4.421  0.1442  0.4215 -1.9792
 2846TIP3   OH2 8501   3.896   5.081   2.242 -0.0912  0.3585  0.1099
 2846TIP3    H1 8502   3.825   5.087   2.305 -0.0447 -0.8780  0.3026
 2846TIP3    H2 8503   3.948   5.160   2.256 -2.1246  1.9625 -0.9456
 2847TIP3   OH2 8504   2.427   4.370   2.642  0.2628 -0.4047 -0.2872
 2847TIP3    H1 8505   2.450   4.393   2.732 -1.3967  2.0040 -0.3661
 2847TIP3    H2 8506   2.351   4.313   2.650 -0.6695  0.8259 -0.1326
 2848TIP3   OH2 8507   5.253   1.876   2.948 -0.5087 -0.3532 -0.7349
 2848TIP3    H1 8508   5.335   1.835   2.919 -1.0288  0.2264 -3.3057
 2848TIP3    H2 8509   5.230   1.830   3.029  2.3765 -0.4639  0.1597
 2849TIP3   OH2 8510   2.094   1.245   1.211  0.1325 -0.3907  0.1399
 2849TIP3    H1 8511   2.009   1.228   1.251  1.3591  1.9330  4.4625
 2849TIP3    H2 8512   2.150   1.175   1.244  0.5560 -0.1499 -0.0624
 2850TIP3   OH2 8513   4.135   4.210   3.843  0.2139  0.4712  0.6424
 2850TIP3    H1 8514   4.175   4.176   3.763  1.0687 -0.2942  1.3777
 2850TIP3    H2 8515   4.208   4.222   3.903 -0.5236  0.2073  1.6105
 2851TIP3   OH2 8516   0.972   3.323   2.624 -0.0752  0.2167 -0.3901
 2851TIP3    H1 8517   0.894   3.360   2.584 -0.1406 -0.1225 -0.5874
 2851TIP3    H2 8518   0.970   3.230   2.599  0.6147  0.2926 -0.7591
 2852TIP3   OH2 8519   1.331   2.636   1.880  0.4296  0.4592  0.0370
 2852TIP3    H1 8520   1.251   2.686   1.901 -1.2894 -1.9377 -0.4555
 2852TIP3    H2 8521   1.331   2.630   1.785  1.2589  0.4664  0.0302
 2853TIP3   OH2 8522   3.687   6.191   3.486 -0.3396  0.1458 -0.3861
 2853TIP3    H1 8523   3.733   6.112   3.512 -0.9002  0.0150  0.2445
 2853TIP3    H2 8524   3.638   6.166   3.408 -0.4375 -0.1026 -0.2450
 2854TIP3   OH2 8525   3.504   1.311   0.846 -0.2521 -0.2524  0.7145
 2854TIP3    H1 8526   3.551   1.390   0.872  0.9842 -0.9890  0.8158
 2854TIP3    H2 8527   3.412   1.336   0.848  0.1249  1.2762  0.4237
 2855TIP3   OH2 8528   3.451   6.576   5.478  0.6896 -0.0462 -0.2339
 2855TIP3    H1 8529   3.471   6.483   5.467 -0.4149 -0.1596 -1.5459
 2855TIP3    H2 8530   3.473   6.615   5.393  0.2860  0.7299  0.0110
 2856TIP3   OH2 8531   4.294   4.182   3.609  0.5845 -0.3914 -0.4531
 2856TIP3    H1 8532   4.387   4.177   3.588  0.8739 -3.0746  0.9577
 2856TIP3    H2 8533   4.249   4.167   3.526  1.4034  0.4878 -1.0661
 2857TIP3   OH2 8534   4.433   2.726   5.159  0.0314 -0.2416  0.5489
 2857TIP3    H1 8535   4.351   2.747   5.116 -0.0843 -0.1892  0.7944
 2857TIP3    H2 8536   4.433   2.630   5.166  0.1162 -0.2608  0.3060
 2858TIP3   OH2 8537   5.283   2.385   2.511 -0.3205  0.4281 -0.2155
 2858TIP3    H1 8538   5.322   2.472   2.502  0.0740  0.4648  1.4936
 2858TIP3    H2 8539   5.334   2.330   2.452  1.9574  0.6239  1.4219
 2859TIP3   OH2 8540   3.369   0.743   5.328 -0.1134  0.5359 -0.3650
 2859TIP3    H1 8541   3.452   0.697   5.342  0.1122  0.6351 -1.2829
 2859TIP3    H2 8542   3.347   0.724   5.236  0.8903  3.6509 -1.3677
 2860TIP3   OH2 8543   4.626   5.766   0.028 -0.5057 -0.4388 -0.2906
 2860TIP3    H1 8544   4.563   5.834   0.005 -0.2858  0.5447  1.7378
 2860TIP3    H2 8545   4.573   5.695   0.064 -0.5787 -0.3692 -0.2611
 2861TIP3   OH2 8546   0.412   4.856   1.977  0.2783  0.4447 -0.1581
 2861TIP3    H1 8547   0.406   4.864   1.882 -1.6817 -0.0731 -0.1191
 2861TIP3    H2 8548   0.472   4.783   1.991  0.9455  0.8201 -0.9690
 2862TIP3   OH2 8549   3.469   3.927   3.135  0.4806 -0.0663 -0.5522
 2862TIP3    H1 8550   3.437   3.992   3.198  1.7224 -0.1125  0.1722
 2862TIP3    H2 8551   3.541   3.971   3.090  1.0312 -0.7670 -0.3826
 2863TIP3   OH2 8552   3.257   3.274   0.612 -0.1361  0.3624  0.3700
 2863TIP3    H1 8553   3.173   3.298   0.572  0.2310  2.6144  0.8195
 2863TIP3    H2 8554   3.235   3.252   0.702 -0.4857 -1.1100 -0.0536
 2864TIP3   OH2 8555   0.372   5.019   3.439  0.0527 -0.4866  0.5258
 2864TIP3    H1 8556   0.370   4.984   3.350 -0.5203  0.6821  0.0597
 2864TIP3    H2 8557   0.290   5.068   3.448  1.5865  2.3127  0.4394
 2865TIP3   OH2 8558   6.984   6.160   0.515  0.2966  0.1563  0.2599
 2865TIP3    H1 8559   6.918   6.090   0.526  0.3544  0.0330 -0.1449
 2865TIP3    H2 8560   6.951   6.232   0.568  0.9610 -0.6630  1.8464
 2866TIP3   OH2 8561   5.314   6.066   5.481  0.7557  0.0565  0.5958
 2866TIP3    H1 8562   5.319   6.053   5.575  2.4061 -2.1688  0.2819
 2866TIP3    H2 8563   5.221   6.056   5.460  0.7419 -2.9281  1.6205
 2867TIP3   OH2 8564   0.151   5.885   3.589  0.1627  0.2469  0.0436
 2867TIP3    H1 8565   0.100   5.941   3.648 -2.0127 -0.6470 -0.8715
 2867TIP3    H2 8566   0.131   5.919   3.502  0.3212 -0.7656 -0.3969
 2868TIP3   OH2 8567   2.081   3.875   5.569 -0.0994  0.1066 -0.1614
 2868TIP3    H1 8568   2.030   3.795   5.580 -0.0883  0.2336  1.0128
 2868TIP3    H2 8569   2.081   3.892   5.475  0.1804 -1.4399 -0.4619
 2869TIP3   OH2 8570   6.021   2.056   5.453  0.3520 -0.2530 -0.2989
 2869TIP3    H1 8571   5.949   2.085   5.397  0.9759  1.4869 -0.2728
 2869TIP3    H2 8572   6.003   2.097   5.538  1.3449  0.2084 -0.2919
 2870TIP3   OH2 8573   6.009   4.161   4.711 -0.1497 -0.8824  0.6203
 2870TIP3    H1 8574   6.062   4.228   4.756 -0.8747 -0.4102  0.7938
 2870TIP3    H2 8575   6.073   4.100   4.675  0.6695  0.9215 -1.2100
 2871TIP3   OH2 8576   1.260   6.618   4.641  0.1088 -0.3540 -0.8588
 2871TIP3    H1 8577   1.283   6.624   4.734 -1.6156 -0.2368 -0.3990
 2871TIP3    H2 8578   1.299   6.536   4.612 -0.4530 -1.0673  0.3232
 2872TIP3   OH2 8579   1.081   4.643   5.376 -0.4692  1.0442  0.7881
 2872TIP3    H1 8580   1.022   4.608   5.442 -0.7026 -0.9066 -0.3630
 2872TIP3    H2 8581   1.168   4.616   5.404 -0.6367 -0.4429 -0.0282
 2873TIP3   OH2 8582   4.660   6.459   4.541 -0.0563 -0.5671  0.1271
 2873TIP3    H1 8583   4.686   6.535   4.489  0.8357 -1.5505 -0.9221
 2873TIP3    H2 8584   4.620   6.399   4.477 -1.6080 -0.6200  1.0912
 2874TIP3   OH2 8585   6.229   2.242   3.449  0.1798 -0.4789  0.0382
 2874TIP3    H1 8586   6.241   2.308   3.517  1.8117 -0.0189 -0.6522
 2874TIP3    H2 8587   6.136   2.220   3.453 -0.4798  2.0275  0.1438
 2875TIP3   OH2 8588   5.299   4.822   3.857 -0.7079  0.3664 -0.0936
 2875TIP3    H1 8589   5.215   4.865   3.874 -0.3396  0.8651  0.5187
 2875TIP3    H2 8590   5.282   4.729   3.872 -1.2812  0.4028 -0.5014
 2876TIP3   OH2 8591   4.805   1.748   1.098 -0.8390  0.6978  0.1905
 2876TIP3    H1 8592   4.769   1.837   1.090  2.2225  2.0200 -0.1999
 2876TIP3    H2 8593   4.809   1.732   1.192 -1.5709  0.8839  0.2607
 2877TIP3   OH2 8594   2.488   6.068   5.086 -0.2490 -0.1225  0.2639
 2877TIP3    H1 8595   2.413   6.030   5.041  1.9838 -0.7466 -3.3330
 2877TIP3    H2 8596   2.458   6.156   5.111 -1.8456  0.1349 -2.1856
 2878TIP3   OH2 8597   2.098   5.236   0.311  0.0070  0.0882 -0.1160
 2878TIP3    H1 8598   2.049   5.162   0.275 -0.1907  0.2218 -0.1270
 2878TIP3    H2 8599   2.189   5.207   0.311 -0.2053 -0.6321  1.0532
 2879TIP3   OH2 8600   2.347   0.189   1.519  0.0111  0.2664  0.1656
 2879TIP3    H1 8601   2.259   0.167   1.549  0.3168  0.1297  0.9997
 2879TIP3    H2 8602   2.390   0.104   1.505 -0.6545  0.2656 -2.4124
 2880TIP3   OH2 8603   0.404   5.098   5.239 -0.9667  0.1502 -0.2178
 2880TIP3    H1 8604   0.346   5.044   5.186  0.2624  0.3843 -1.8890
 2880TIP3    H2 8605   0.434   5.039   5.308 -0.3628 -1.0758 -1.4751
 2881TIP3   OH2 8606   6.639   0.455   0.260  0.3002  0.2964  0.2646
 2881TIP3    H1 8607   6.593   0.451   0.176 -1.0575 -1.5774  1.0374
 2881TIP3    H2 8608   6.725   0.418   0.242  0.3493  0.7448 -0.4844
 2882TIP3   OH2 8609   6.900   0.254   4.040 -0.1191  0.1782 -0.6099
 2882TIP3    H1 8610   6.979   0.295   4.074  0.0865 -1.1707  0.6393
 2882TIP3    H2 8611   6.931   0.180   3.987 -0.5176  0.3479 -1.0912
 2883TIP3   OH2 8612   1.108   4.595   1.544  0.7893  0.1654  0.2271
 2883TIP3    H1 8613   1.183   4.652   1.564  0.0405  2.4069 -2.6030
 2883TIP3    H2 8614   1.031   4.651   1.557 -0.1642 -1.0027 -0.1802
 2884TIP3   OH2 8615   5.574   0.425   0.236  0.2211  0.0011  0.5424
 2884TIP3    H1 8616   5.573   0.491   0.305 -3.0995  0.6908  0.0086
 2884TIP3    H2 8617   5.590   0.342   0.282 -0.5694  0.6026  1.9531
 2885TIP3   OH2 8618   2.053   4.874   0.902 -0.5997  0.1617  0.3807
 2885TIP3    H1 8619   2.038   4.899   0.994 -0.6819 -0.2367  0.4773
 2885TIP3    H2 8620   2.113   4.800   0.907  0.1656  0.7437  0.0659
 2886TIP3   OH2 8621   0.180   3.825   4.306  0.1417  0.4255 -0.0770
 2886TIP3    H1 8622   0.105   3.782   4.265  1.0173 -0.7715 -0.4594
 2886TIP3    H2 8623   0.154   3.833   4.399 -0.3323 -0.2332 -0.1473
 2887TIP3   OH2 8624   4.913   0.284   1.876  0.1578  0.4905  0.0904
 2887TIP3    H1 8625   4.986   0.280   1.814 -0.8034  0.4019 -1.0693
 2887TIP3    H2 8626   4.858   0.209   1.853 -0.9974  1.3364  0.0255
 2888TIP3   OH2 8627   3.363   5.352   5.450  0.5482  0.0744 -0.4301
 2888TIP3    H1 8628   3.434   5.354   5.386  0.8302  2.8769 -0.1660
 2888TIP3    H2 8629   3.290   5.396   5.406  0.4640  1.2395  0.8081
 2889TIP3   OH2 8630   1.558   4.389   4.827  0.1454  0.0523 -0.5165
 2889TIP3    H1 8631   1.589   4.299   4.813  0.3629  0.1131 -0.4292
 2889TIP3    H2 8632   1.519   4.387   4.915 -0.3862 -0.1018 -0.7538
 2890TIP3   OH2 8633   0.478   2.440   5.517 -0.1432  0.1407 -0.5488
 2890TIP3    H1 8634   0.411   2.501   5.488  1.1550  2.0229  0.2082
 2890TIP3    H2 8635   0.554   2.461   5.463  0.4068 -0.6327 -0.0927
 2891TIP3   OH2 8636   1.345   6.154   1.674  0.1724  0.1216 -0.6928
 2891TIP3    H1 8637   1.429   6.197   1.657 -0.9684  2.3373 -1.1433
 2891TIP3    H2 8638   1.351   6.071   1.629  1.4360  1.0599 -2.3576
 2892TIP3   OH2 8639   3.914   2.151   4.674  0.0374 -0.5269  0.0475
 2892TIP3    H1 8640   3.970   2.152   4.596  0.4374 -1.0498  0.3200
 2892TIP3    H2 8641   3.868   2.067   4.670 -0.7041 -0.1211 -0.1504
 2893TIP3   OH2 8642   5.954   0.435   4.288 -0.3909  0.1131 -0.2197
 2893TIP3    H1 8643   6.034   0.408   4.244 -1.0500  0.8732 -1.9606
 2893TIP3    H2 8644   5.902   0.355   4.296 -0.1710 -0.0717 -0.6342
 2894TIP3   OH2 8645   6.934   5.179   0.206 -0.2558 -0.4553 -0.1112
 2894TIP3    H1 8646   6.984   5.190   0.125 -0.2018 -0.3982 -0.0698
 2894TIP3    H2 8647   6.843   5.196   0.181 -0.1996 -0.1111 -0.0906
 2895TIP3   OH2 8648   1.257   4.525   0.444 -0.4742 -0.0199  0.4405
 2895TIP3    H1 8649   1.347   4.554   0.459 -0.0159 -1.2792  0.2396
 2895TIP3    H2 8650   1.207   4.606   0.435  0.3554  0.7317  2.1069
 2896TIP3   OH2 8651   0.424   4.464   2.005  0.3238  0.1652 -0.5183
 2896TIP3    H1 8652   0.356   4.496   2.064  0.9482 -1.2263  1.0545
 2896TIP3    H2 8653   0.378   4.415   1.938 -0.2736 -0.2418  0.1801
 2897TIP3   OH2 8654   5.897   6.453   3.541  0.0465  0.1494  0.1065
 2897TIP3    H1 8655   5.824   6.402   3.576 -0.7420  1.5877  0.6275
 2897TIP3    H2 8656   5.953   6.471   3.617  0.8459 -0.7579 -0.2506
 2898TIP3   OH2 8657   4.762   1.615   0.454  0.3691  0.3070  0.0226
 2898TIP3    H1 8658   4.724   1.635   0.540  1.1621 -0.0196  0.4643
 2898TIP3    H2 8659   4.810   1.694   0.430  0.8142  0.1132  0.2606
 2899TIP3   OH2 8660   1.827   0.489   4.039 -0.0194 -0.5080 -0.2199
 2899TIP3    H1 8661   1.906   0.485   4.092 -0.1363  1.1518  0.1363
 2899TIP3    H2 8662   1.836   0.417   3.976  2.0517  0.0227 -0.5893
 2900TIP3   OH2 8663   2.659   4.194   0.314  0.1751 -0.8659  0.6387
 2900TIP3    H1 8664   2.620   4.281   0.303 -0.2247 -1.0863  0.2794
 2900TIP3    H2 8665   2.622   4.142   0.243 -0.8255 -1.7741  1.7773
 2901TIP3   OH2 8666   7.116   1.174   4.668  0.2215 -0.4302  0.6473
 2901TIP3    H1 8667   7.180   1.183   4.739  0.1099  0.3876  0.6582
 2901TIP3    H2 8668   7.144   1.237   4.602  1.3580 -2.4244 -0.8668
 2902TIP3   OH2 8669   4.849   3.894   1.949  0.0232 -0.3213 -0.1856
 2902TIP3    H1 8670   4.859   3.964   2.013  2.4835  0.4484 -1.2808
 2902TIP3    H2 8671   4.798   3.933   1.878 -0.9488 -0.5293  0.3893
 2903TIP3   OH2 8672   4.279   5.828   5.273 -0.8170  0.4545  0.3366
 2903TIP3    H1 8673   4.362   5.869   5.295 -1.7595  2.6648  0.0568
 2903TIP3    H2 8674   4.298   5.772   5.198  1.4555 -3.4189  3.4881
 2904TIP3   OH2 8675   0.857   6.174   4.693 -0.3062 -0.2802  0.1711
 2904TIP3    H1 8676   0.764   6.162   4.674 -0.2241 -0.0142 -0.4334
 2904TIP3    H2 8677   0.860   6.250   4.750 -0.3613  0.6826 -1.0515
 2905TIP3   OH2 8678   5.933   4.156   4.035  0.1662 -0.7030  0.2984
 2905TIP3    H1 8679   6.008   4.097   4.039  1.1437  0.5272  3.3305
 2905TIP3    H2 8680   5.857   4.099   4.050  0.4549 -1.8580 -2.1248
 2906TIP3   OH2 8681   5.164   3.692   4.412  0.3836 -0.1537  0.0308
 2906TIP3    H1 8682   5.202   3.733   4.334 -0.6458  0.1074 -0.3459
 2906TIP3    H2 8683   5.240   3.667   4.465  1.0995 -0.2790 -1.0206
 2907TIP3   OH2 8684   5.054   0.600   4.357  0.2942 -0.6257 -0.3897
 2907TIP3    H1 8685   5.049   0.546   4.435  0.4623 -0.3221 -0.1678
 2907TIP3    H2 8686   5.136   0.574   4.315  2.0842  1.6795  1.3889
 2908TIP3   OH2 8687   4.712   0.490   4.667  0.4927  0.2129  0.4807
 2908TIP3    H1 8688   4.620   0.463   4.665  0.8628 -1.4394  2.3477
 2908TIP3    H2 8689   4.727   0.516   4.758  1.4125  2.3886 -0.2241
 2909TIP3   OH2 8690   5.418   5.958   5.255 -0.4631 -0.2745  0.2107
 2909TIP3    H1 8691   5.385   6.019   5.320  0.3968  2.6066 -1.8514
 2909TIP3    H2 8692   5.341   5.930   5.206 -0.7084  0.5087  0.1371
 2910TIP3   OH2 8693   1.553   6.280   4.956 -0.3495  0.3621  0.1105
 2910TIP3    H1 8694   1.509   6.241   5.031  0.7838 -0.9755  0.1124
 2910TIP3    H2 8695   1.588   6.206   4.907 -0.5675  1.2430 -1.4456
 2911TIP3   OH2 8696   1.638   3.714   3.866  0.0375  0.0867  0.3448
 2911TIP3    H1 8697   1.580   3.665   3.807 -0.5355  0.8291  0.2751
 2911TIP3    H2 8698   1.680   3.646   3.919  0.1352 -0.5600 -0.5217
 2912TIP3   OH2 8699   3.786   4.933   5.788  0.0358 -0.3271  0.1372
 2912TIP3    H1 8700   3.697   4.931   5.824  0.5740  2.0169  1.8615
 2912TIP3    H2 8701   3.841   4.960   5.861  1.7717  0.8942 -1.5014
 2913TIP3   OH2 8702   0.412   0.964   1.420  0.0393 -0.2791 -0.0011
 2913TIP3    H1 8703   0.354   0.906   1.469 -0.7867  1.5584  1.3012
 2913TIP3    H2 8704   0.499   0.923   1.426 -0.7058 -1.9324 -0.1248
 2914TIP3   OH2 8705   2.167   4.574   2.583  0.5573 -0.4453  0.3138
 2914TIP3    H1 8706   2.243   4.561   2.526 -0.4803 -0.7327 -1.0723
 2914TIP3    H2 8707   2.204   4.601   2.667  2.2811 -2.3122  0.2348
 2915TIP3   OH2 8708   2.265   1.096   2.268  0.2314 -0.1810  0.1280
 2915TIP3    H1 8709   2.335   1.032   2.279 -0.0310 -1.1929 -3.0908
 2915TIP3    H2 8710   2.309   1.181   2.278  1.5090 -0.8113  0.0461
 2916TIP3   OH2 8711   5.439   0.000   1.575  0.2885 -0.4503 -0.2251
 2916TIP3    H1 8712   5.459  -0.002   1.669 -0.0084 -1.2994 -0.1681
 2916TIP3    H2 8713   5.454   0.091   1.549 -0.0388 -0.1041  0.7360
 2917TIP3   OH2 8714   0.971   3.747   0.340  0.0836 -0.6610 -0.3702
 2917TIP3    H1 8715   0.883   3.772   0.313  0.3793 -0.9665 -1.6843
 2917TIP3    H2 8716   0.981   3.656   0.312  0.6018 -0.8202  0.3102
 2918TIP3   OH2 8717   6.529   5.235   1.833 -0.4958  0.1741 -0.0979
 2918TIP3    H1 8718   6.619   5.208   1.849  0.5936  2.0229 -2.4360
 2918TIP3    H2 8719   6.510   5.299   1.903  0.6650  1.0364 -0.5361
 2919TIP3   OH2 8720   4.669   0.799   4.741  0.3079  0.1086 -0.2149
 2919TIP3    H1 8721   4.646   0.796   4.648  0.6524  1.0461 -0.3421
 2919TIP3    H2 8722   4.613   0.867   4.777  0.1284 -0.2995  0.2805
 2920TIP3   OH2 8723   6.629   4.371   0.173  0.3302  0.4424 -0.3138
 2920TIP3    H1 8724   6.611   4.462   0.194  0.4858  0.3302  0.3268
 2920TIP3    H2 8725   6.602   4.322   0.251 -1.3864 -0.2508 -1.2730
 2921TIP3   OH2 8726   4.183   3.151   0.163  0.7412 -0.3076 -0.2620
 2921TIP3    H1 8727   4.155   3.073   0.211 -1.1792  0.3132 -0.2653
 2921TIP3    H2 8728   4.225   3.118   0.084  0.0441 -1.3576 -0.2071
 2922TIP3   OH2 8729   1.133   5.114   4.996 -0.5149  0.2458 -0.6448
 2922TIP3    H1 8730   1.135   5.193   4.942 -0.6585  0.1750 -0.7544
 2922TIP3    H2 8731   1.077   5.138   5.070 -0.3172  0.3432 -0.5251
 2923TIP3   OH2 8732   4.007   1.662   5.729 -0.0413  0.4028 -1.3128
 2923TIP3    H1 8733   3.945   1.732   5.710  0.6587  1.3691 -0.1398
 2923TIP3    H2 8734   4.057   1.693   5.804  3.5149  0.7417 -3.5724
 2924TIP3   OH2 8735   6.882   2.220   4.624 -0.4144  0.2742 -0.0530
 2924TIP3    H1 8736   6.890   2.197   4.532 -1.7652 -1.1184  0.1294
 2924TIP3    H2 8737   6.789   2.240   4.636 -0.3493 -0.0033  1.0908
 2925TIP3   OH2 8738   6.214   4.187   2.045  0.0191 -0.0645 -0.3583
 2925TIP3    H1 8739   6.304   4.218   2.051  0.3607 -0.6534 -2.0538
 2925TIP3    H2 8740   6.214   4.103   2.091 -0.4782  1.4126  2.5703
 2926TIP3   OH2 8741   3.645   4.621   5.345 -0.0777  0.0718 -0.0360
 2926TIP3    H1 8742   3.659   4.685   5.415 -1.1941  0.1853  0.0920
 2926TIP3    H2 8743   3.726   4.570   5.344 -0.4171 -0.6262  2.0685
 2927TIP3   OH2 8744   0.687   5.334   2.448  0.6142  0.4008 -0.1638
 2927TIP3    H1 8745   0.615   5.358   2.506  0.5620 -0.5341  0.1754
 2927TIP3    H2 8746   0.760   5.316   2.507  0.5436 -0.6155 -0.3709
 2928TIP3   OH2 8747   2.015   3.386   3.810  0.1257  0.5335 -0.0828
 2928TIP3    H1 8748   2.009   3.297   3.844  2.4670  0.6442  0.7709
 2928TIP3    H2 8749   2.018   3.375   3.715  0.1010 -0.2765  0.0014
 2929TIP3   OH2 8750   6.634   4.508   2.475  0.2055 -0.2278  0.0019
 2929TIP3    H1 8751   6.545   4.475   2.492  0.0369  1.0339  1.9030
 2929TIP3    H2 8752   6.680   4.496   2.558  2.2007 -1.8361 -1.2485
 2930TIP3   OH2 8753   1.866   6.105   3.757 -0.2706  0.4833 -0.0897
 2930TIP3    H1 8754   1.950   6.063   3.743 -0.6471 -0.2034 -0.3444
 2930TIP3    H2 8755   1.887   6.192   3.791  0.5145 -0.1201  1.0108
 2931TIP3   OH2 8756   1.495   0.374   3.496  0.5337  0.1248 -0.5561
 2931TIP3    H1 8757   1.536   0.458   3.516 -1.1751  1.1454 -1.0677
 2931TIP3    H2 8758   1.519   0.357   3.405  0.0929  0.5835 -0.7682
 2932TIP3   OH2 8759   4.893   0.072   2.767  0.0247  0.1539  0.6137
 2932TIP3    H1 8760   4.800   0.074   2.790 -0.5491  0.0875 -1.4965
 2932TIP3    H2 8761   4.902   0.139   2.699  1.3904 -0.2635  0.3500
 2933TIP3   OH2 8762   1.062   2.377   1.977  0.5526  0.1712 -0.1363
 2933TIP3    H1 8763   1.042   2.438   2.048  2.1766  0.7083 -0.0849
 2933TIP3    H2 8764   1.022   2.417   1.899  1.0431  0.9772  0.0144
 2934TIP3   OH2 8765   4.316   3.733   1.314  0.6855  0.5307 -0.0311
 2934TIP3    H1 8766   4.230   3.706   1.282  0.8785 -0.4978  0.2838
 2934TIP3    H2 8767   4.377   3.673   1.271  1.1010  0.2566  0.9263
 2935TIP3   OH2 8768   0.170   0.920   2.222  0.0917  0.2627 -0.0940
 2935TIP3    H1 8769   0.084   0.956   2.201  0.6519  1.3663 -0.5662
 2935TIP3    H2 8770   0.162   0.889   2.312 -1.1820 -0.8943 -0.5652
 2936TIP3   OH2 8771   5.201   2.185   3.126 -0.2291 -0.8308  0.0271
 2936TIP3    H1 8772   5.269   2.251   3.117  0.0524 -1.2752 -1.2026
 2936TIP3    H2 8773   5.244   2.102   3.105 -1.2240 -1.0737 -1.1780
 2937TIP3   OH2 8774   6.810   4.921   4.161  0.1686  0.3788 -0.4047
 2937TIP3    H1 8775   6.780   5.001   4.205  0.3536  0.6933 -0.8346
 2937TIP3    H2 8776   6.736   4.861   4.166 -0.1971  0.8051 -0.6328
 2938TIP3   OH2 8777   5.521   3.634   2.584 -0.6571  0.2867 -0.2882
 2938TIP3    H1 8778   5.586   3.565   2.592 -1.2871 -0.2948 -0.1631
 2938TIP3    H2 8779   5.573   3.714   2.571  0.1748  0.1817  1.9184
 2939TIP3   OH2 8780   4.805   0.945   3.204 -0.2703  0.0184  0.2696
 2939TIP3    H1 8781   4.783   0.915   3.292 -1.0161 -2.4026 -0.6601
 2939TIP3    H2 8782   4.731   1.003   3.180 -1.7800 -1.8834  0.0875
 2940TIP3   OH2 8783   6.933   3.056   1.339 -0.0260  0.4417  0.2210
 2940TIP3    H1 8784   7.019   3.079   1.304 -0.8608  2.4377 -0.6405
 2940TIP3    H2 8785   6.914   3.123   1.405  0.1096 -1.4279  2.2799
 2941TIP3   OH2 8786   3.983   2.966   1.695  0.2295  0.0777 -0.0635
 2941TIP3    H1 8787   4.058   2.967   1.635 -0.2162 -0.9771 -0.6624
 2941TIP3    H2 8788   3.974   3.057   1.723  0.9675  0.4434 -0.9482
 2942TIP3   OH2 8789   6.121   1.038   0.434  0.1525 -0.8102  0.4047
 2942TIP3    H1 8790   6.066   1.028   0.356  1.4604 -0.0964 -0.6473
 2942TIP3    H2 8791   6.158   0.950   0.448  0.9707 -0.6545 -0.6268
 2943TIP3   OH2 8792   0.817   2.639   0.305 -0.2401  0.6370  0.1608
 2943TIP3    H1 8793   0.762   2.619   0.381 -1.8517  0.2771 -1.0327
 2943TIP3    H2 8794   0.849   2.553   0.277 -0.6606  0.6202 -0.2791
 2944TIP3   OH2 8795   5.757   0.777   4.843 -0.3503  0.4342 -0.7262
 2944TIP3    H1 8796   5.708   0.846   4.797  0.8294  0.8875 -1.3369
 2944TIP3    H2 8797   5.845   0.814   4.855 -0.0899 -0.4430  0.1704
 2945TIP3   OH2 8798   3.919   5.327   1.837  0.8355 -0.1555  0.4229
 2945TIP3    H1 8799   3.874   5.401   1.877  0.7299  1.2209 -2.0340
 2945TIP3    H2 8800   4.003   5.363   1.808  0.8676 -1.0122 -0.6321
 2946TIP3   OH2 8801   1.606   2.867   5.290 -0.2847  0.3182 -0.2063
 2946TIP3    H1 8802   1.556   2.853   5.210  0.6572 -0.9734 -0.6026
 2946TIP3    H2 8803   1.581   2.795   5.347 -0.7317  1.0717  0.5693
 2947TIP3   OH2 8804   0.667   1.329   1.066 -0.1579  0.7368  0.6898
 2947TIP3    H1 8805   0.706   1.348   0.981 -0.4156 -1.1059  0.1239
 2947TIP3    H2 8806   0.678   1.410   1.116  4.2462  0.4882  0.5491
 2948TIP3   OH2 8807   6.087   5.934   5.696  0.2030  0.2565 -0.1836
 2948TIP3    H1 8808   6.054   5.868   5.634 -2.3304 -1.0025  2.2747
 2948TIP3    H2 8809   6.042   6.014   5.671  1.3577  0.5059 -1.6233
 2949TIP3   OH2 8810   6.542   0.108   4.896 -0.1009 -0.1677 -0.2071
 2949TIP3    H1 8811   6.491   0.138   4.820  1.3278 -1.3176 -1.6770
 2949TIP3    H2 8812   6.581   0.025   4.868 -0.3814 -1.1921  2.1851
 2950TIP3   OH2 8813   4.798   4.824   0.249  0.3408  0.3993 -0.2241
 2950TIP3    H1 8814   4.827   4.887   0.183  0.3030 -0.5333 -1.1459
 2950TIP3    H2 8815   4.833   4.858   0.332  1.5954  0.8201 -0.9157
 2951TIP3   OH2 8816   5.492   2.894   0.109 -0.6030  1.1108  0.2173
 2951TIP3    H1 8817   5.470   2.881   0.202 -1.6784  0.3552 -0.1213
 2951TIP3    H2 8818   5.425   2.955   0.077  1.0593  3.1506  0.4262
 2952TIP3   OH2 8819   5.660   1.995   1.954 -0.4506  0.0499  0.0484
 2952TIP3    H1 8820   5.728   1.971   2.016  0.8332 -0.5503 -1.5197
 2952TIP3    H2 8821   5.592   2.037   2.007  1.5722  1.6064  1.5513
 2953TIP3   OH2 8822   3.626   1.854   3.268 -0.6800 -0.7344 -0.1919
 2953TIP3    H1 8823   3.700   1.848   3.330 -1.9465  0.7203  1.5897
 2953TIP3    H2 8824   3.556   1.805   3.310 -1.2757 -0.5762 -0.9781
 2954TIP3   OH2 8825   3.250   3.960   1.064 -0.0565 -0.0239 -0.8340
 2954TIP3    H1 8826   3.233   3.866   1.060 -0.2845  0.0199 -0.8967
 2954TIP3    H2 8827   3.224   3.993   0.978  0.1862  0.0702 -0.8731
 2955TIP3   OH2 8828   5.182   0.789   1.578  0.3948 -0.3122 -0.5647
 2955TIP3    H1 8829   5.098   0.769   1.536  1.5493 -2.3176 -2.1013
 2955TIP3    H2 8830   5.179   0.742   1.661  0.3402 -1.1236 -1.0204
 2956TIP3   OH2 8831   5.888   1.700   3.146 -0.7335  0.2836 -0.3726
 2956TIP3    H1 8832   5.914   1.646   3.220 -2.6114 -0.5610 -0.2828
 2956TIP3    H2 8833   5.890   1.790   3.179 -2.0454 -0.1148  0.8934
 2957TIP3   OH2 8834   3.359   4.774   1.433 -0.4316 -0.3295 -0.7902
 2957TIP3    H1 8835   3.429   4.828   1.397  0.2407  0.0322  0.9345
 2957TIP3    H2 8836   3.332   4.718   1.361  0.8803  0.2830 -1.8016
 2958TIP3   OH2 8837   5.442   3.994   1.568  0.0941 -0.2962  0.7914
 2958TIP3    H1 8838   5.481   4.059   1.626 -0.7281 -1.3848  2.6691
 2958TIP3    H2 8839   5.460   3.910   1.610  1.0475 -1.3466 -1.5096
 2959TIP3   OH2 8840   3.497   0.889   3.671 -0.5700 -0.8318 -0.6372
 2959TIP3    H1 8841   3.509   0.811   3.725 -0.6838 -0.1795  0.3754
 2959TIP3    H2 8842   3.567   0.885   3.606 -0.4669 -1.6759 -0.4814
 2960TIP3   OH2 8843   4.866   5.705   4.258  0.1794  0.1468 -0.5784
 2960TIP3    H1 8844   4.874   5.686   4.165 -0.5934 -0.7379 -0.4868
 2960TIP3    H2 8845   4.771   5.705   4.274  0.2803  0.9764  0.0739
 2961TIP3   OH2 8846   4.624   2.954   4.393  0.4543  0.1757 -0.0645
 2961TIP3    H1 8847   4.613   2.991   4.481 -1.7058  0.3385 -0.3493
 2961TIP3    H2 8848   4.664   2.868   4.408  0.6026  0.4232  1.0356
 2962TIP3   OH2 8849   2.437   0.378   1.246 -0.0288  0.2248 -0.5135
 2962TIP3    H1 8850   2.484   0.329   1.179 -0.1286  0.8030 -1.0147
 2962TIP3    H2 8851   2.421   0.314   1.316  2.2948  0.2275  0.0902
 2963TIP3   OH2 8852   2.064   1.613   3.569 -0.8947  0.4604  0.5970
 2963TIP3    H1 8853   2.037   1.546   3.506 -0.3831 -0.1133  0.9766
 2963TIP3    H2 8854   2.118   1.674   3.518  2.9828 -2.1388  1.1702
 2964TIP3   OH2 8855   3.827   5.598   1.936 -1.0816  0.0744  0.5709
 2964TIP3    H1 8856   3.867   5.597   2.023 -0.2376  0.1758  0.1952
 2964TIP3    H2 8857   3.845   5.686   1.902  0.6037 -0.6716 -0.5969
 2965TIP3   OH2 8858   4.822   4.731   1.852  0.8150 -0.4030  0.3225
 2965TIP3    H1 8859   4.914   4.721   1.875  0.9101  0.7738  0.5255
 2965TIP3    H2 8860   4.775   4.682   1.920  1.2275  0.4956  1.2766
 2966TIP3   OH2 8861   0.346   6.010   5.118  0.1145  0.4552  1.2011
 2966TIP3    H1 8862   0.437   6.032   5.138  0.3088 -0.6933  1.6723
 2966TIP3    H2 8863   0.350   5.921   5.082 -0.6932  0.9067 -0.0587
 2967TIP3   OH2 8864   3.098   2.298   4.597 -0.1218  0.3531 -0.1709
 2967TIP3    H1 8865   3.148   2.289   4.678 -1.3725  2.2052  0.8837
 2967TIP3    H2 8866   3.162   2.282   4.527  1.0388 -1.0293  1.1560
 2968TIP3   OH2 8867   6.382   6.066   5.605 -1.0937 -0.1771  0.1842
 2968TIP3    H1 8868   6.299   6.113   5.592 -0.0555  2.2349  1.5978
 2968TIP3    H2 8869   6.434   6.087   5.528 -0.8900  0.4716  0.4885
 2969TIP3   OH2 8870   6.291   4.705   4.648  0.3060 -0.7287 -0.1902
 2969TIP3    H1 8871   6.327   4.687   4.735  2.1224 -0.5001 -0.8512
 2969TIP3    H2 8872   6.277   4.800   4.648 -0.0165 -0.7729 -0.0501
 2970TIP3   OH2 8873   5.777   3.061   2.588  0.7432 -0.2560  0.7551
 2970TIP3    H1 8874   5.753   2.992   2.527  0.4584  1.2689 -0.9215
 2970TIP3    H2 8875   5.749   3.028   2.673 -1.2814 -1.3228 -0.2680
 2971TIP3   OH2 8876   1.598   5.751   5.802  0.1368 -0.5983 -0.1900
 2971TIP3    H1 8877   1.665   5.772   5.736 -0.9612 -0.1004 -1.1820
 2971TIP3    H2 8878   1.599   5.656   5.808  1.7200 -0.5638  0.6670
 2972TIP3   OH2 8879   3.184   4.905   3.298 -0.6593  0.2713 -0.0536
 2972TIP3    H1 8880   3.090   4.900   3.319 -0.7994  1.1971 -0.4014
 2972TIP3    H2 8881   3.209   4.993   3.324 -0.5608  1.0543 -2.5299
 2973TIP3   OH2 8882   2.173   4.105   1.286 -0.0691  0.5785  0.0269
 2973TIP3    H1 8883   2.260   4.123   1.323 -0.0856  0.4396  0.1334
 2973TIP3    H2 8884   2.113   4.157   1.339 -0.3474 -1.2445  1.5965
 2974TIP3   OH2 8885   1.037   4.920   0.741  0.0727  0.0760  0.2248
 2974TIP3    H1 8886   1.128   4.902   0.717  0.5934  0.2090  1.9856
 2974TIP3    H2 8887   1.009   4.842   0.789 -0.5262  0.3352  0.3031
 2975TIP3   OH2 8888   5.647   1.377   2.910  0.4045  0.3184  0.0055
 2975TIP3    H1 8889   5.568   1.331   2.939  0.3924 -1.2807 -2.3175
 2975TIP3    H2 8890   5.618   1.467   2.895 -1.0760 -0.2828 -0.9804
 2976TIP3   OH2 8891   3.393   2.206   1.707  0.4644  0.3263  0.3548
 2976TIP3    H1 8892   3.481   2.244   1.712  1.1133 -0.8214 -1.3159
 2976TIP3    H2 8893   3.390   2.164   1.620 -2.1884  1.4171 -0.1792
 2977TIP3   OH2 8894   6.155   5.963   2.902 -0.1315 -0.0047 -0.0168
 2977TIP3    H1 8895   6.238   5.967   2.948 -0.0629  0.5866 -0.1730
 2977TIP3    H2 8896   6.171   6.009   2.820 -0.4482 -0.4142 -0.3137
 2978TIP3   OH2 8897   4.792   2.311   3.626  0.4345 -0.3094 -0.3823
 2978TIP3    H1 8898   4.772   2.346   3.539  0.6091  0.1215 -0.2509
 2978TIP3    H2 8899   4.800   2.216   3.613 -1.0999 -0.4331 -0.5456
 2979TIP3   OH2 8900   3.460   4.118   5.831 -0.0053  0.3168 -0.5525
 2979TIP3    H1 8901   3.410   4.170   5.768 -1.9292 -1.7612 -0.8609
 2979TIP3    H2 8902   3.434   4.154   5.916 -0.3010  0.7252 -0.8094
 2980TIP3   OH2 8903   4.202   4.241   4.525 -0.5550 -0.1632 -0.4604
 2980TIP3    H1 8904   4.178   4.333   4.519  0.1565 -0.0321 -1.5025
 2980TIP3    H2 8905   4.192   4.219   4.618 -1.8106  0.6507 -0.3885
 2981TIP3   OH2 8906   6.652   4.658   5.655 -0.1132  0.2991  0.0561
 2981TIP3    H1 8907   6.679   4.749   5.672  0.1772  0.2554 -0.1783
 2981TIP3    H2 8908   6.711   4.605   5.708 -1.4639  0.3167  1.6662
 2982TIP3   OH2 8909   0.185   2.651   3.846  0.0069 -0.0503  0.2264
 2982TIP3    H1 8910   0.220   2.736   3.872 -0.7985  0.0813  0.9197
 2982TIP3    H2 8911   0.108   2.672   3.792 -1.1477 -0.3058  1.7067
 2983TIP3   OH2 8912   4.558   0.739   0.403  0.2326 -0.1949  0.0323
 2983TIP3    H1 8913   4.499   0.679   0.450 -1.7104  0.8105 -1.0338
 2983TIP3    H2 8914   4.615   0.774   0.472  0.0136 -1.6248  1.0075
 2984TIP3   OH2 8915   4.383   3.838   4.464 -0.0849  0.0145  0.2010
 2984TIP3    H1 8916   4.369   3.774   4.394 -0.4742  0.6841 -0.3465
 2984TIP3    H2 8917   4.384   3.923   4.419  0.9315  0.3672  0.8492
 2985TIP3   OH2 8918   3.788   2.846   5.274 -0.6993 -0.2480 -0.1424
 2985TIP3    H1 8919   3.704   2.801   5.264 -0.8401  0.3389 -1.9036
 2985TIP3    H2 8920   3.808   2.880   5.187  2.0818 -1.5661 -0.1349
 2986TIP3   OH2 8921   6.040   3.806   1.047  0.5193  0.1465 -0.1002
 2986TIP3    H1 8922   6.109   3.805   0.980  1.0876  0.7996  0.4574
 2986TIP3    H2 8923   5.978   3.872   1.016  0.7138  0.3532 -0.0526
 2987TIP3   OH2 8924   6.118   2.668   5.224 -0.0783  0.6405 -0.3946
 2987TIP3    H1 8925   6.048   2.665   5.159 -0.1189 -0.1061 -0.3240
 2987TIP3    H2 8926   6.080   2.628   5.302  0.7350 -0.7681 -0.6673
 2988TIP3   OH2 8927   1.799   2.601   1.020  0.4534 -0.0881 -0.6532
 2988TIP3    H1 8928   1.735   2.651   0.969  0.5381  1.2966  0.5253
 2988TIP3    H2 8929   1.853   2.557   0.955 -1.7176 -1.3699 -1.6939
 2989TIP3   OH2 8930   5.914   0.469   2.326 -0.3091  0.2836  0.0355
 2989TIP3    H1 8931   5.892   0.440   2.238 -0.4616  0.0810  0.1400
 2989TIP3    H2 8932   6.001   0.509   2.317 -0.9724  1.6475 -0.4989
 2990TIP3   OH2 8933   5.999   6.427   0.395  0.3495  0.1433  0.2412
 2990TIP3    H1 8934   6.032   6.340   0.418 -0.2195  0.3028  1.7845
 2990TIP3    H2 8935   6.029   6.483   0.467 -0.3843  0.9669 -0.0861
 2991TIP3   OH2 8936   5.815   5.609   1.851  0.1854  0.3711  0.0559
 2991TIP3    H1 8937   5.770   5.568   1.925 -1.7761  1.1545 -0.6325
 2991TIP3    H2 8938   5.831   5.699   1.879 -2.4816  1.3172 -1.1195
 2992TIP3   OH2 8939   4.116   3.384   3.929  0.7313  0.4770 -0.4395
 2992TIP3    H1 8940   4.088   3.462   3.977  0.1117  0.4785 -0.7917
 2992TIP3    H2 8941   4.168   3.417   3.856 -1.3109  0.7330 -1.8462
 2993TIP3   OH2 8942   0.158   5.142   4.155 -0.5622  0.2376 -0.3036
 2993TIP3    H1 8943   0.230   5.191   4.116 -1.7158  1.0184 -1.5467
 2993TIP3    H2 8944   0.138   5.073   4.092  0.3459 -1.2333  0.9401
 2994TIP3   OH2 8945   5.385   5.964   1.470  0.0809  0.1481  0.4872
 2994TIP3    H1 8946   5.401   5.917   1.552  0.0127 -0.5077  0.1319
 2994TIP3    H2 8947   5.291   5.984   1.473  0.3575  1.4541  1.2458
 2995TIP3   OH2 8948   3.965   0.963   0.969 -0.7376  0.3063  0.4528
 2995TIP3    H1 8949   3.910   1.027   1.015 -1.3219  0.7499 -0.8220
 2995TIP3    H2 8950   4.024   1.015   0.916 -0.1332 -0.2046  0.6101
 2996TIP3   OH2 8951   6.264   3.705   4.830  0.4514 -0.3998 -0.4463
 2996TIP3    H1 8952   6.201   3.653   4.780  0.5476 -0.7843 -0.1656
 2996TIP3    H2 8953   6.307   3.643   4.888  1.4155 -0.2270 -0.9456
 2997TIP3   OH2 8954   5.143   3.655   1.289 -0.0410  0.2085  0.2411
 2997TIP3    H1 8955   5.189   3.734   1.260 -1.3385  0.1205 -2.3120
 2997TIP3    H2 8956   5.050   3.676   1.276 -0.4674 -1.2723  0.7651
 2998TIP3   OH2 8957   5.620   5.792   2.491  0.2741 -0.3268  0.3764
 2998TIP3    H1 8958   5.615   5.878   2.531 -1.6151 -0.8055  1.2440
 2998TIP3    H2 8959   5.604   5.807   2.398  1.2669  0.3882  0.3105
 2999TIP3   OH2 8960   3.590   2.495   4.100  0.1007 -0.0018  0.2120
 2999TIP3    H1 8961   3.558   2.581   4.128  1.5678  1.0324 -1.0606
 2999TIP3    H2 8962   3.563   2.488   4.009  1.8895  0.1598 -0.3826
 3000TIP3   OH2 8963   0.474   4.610   5.697 -0.4393 -0.2447 -0.3155
 3000TIP3    H1 8964   0.426   4.536   5.734 -1.8141  0.7890  0.0822
 3000TIP3    H2 8965   0.413   4.649   5.634 -0.3304  1.3573  0.5041
 3001TIP3   OH2 8966   0.845   1.463   4.646  0.0229 -0.1217  0.0625
 3001TIP3    H1 8967   0.909   1.392   4.646  1.2625  0.8590 -2.3681
 3001TIP3    H2 8968   0.879   1.525   4.581 -2.0510  1.7305  0.6277
 3002TIP3   OH2 8969   0.989   6.166   3.597 -0.1799 -0.7296  0.1060
 3002TIP3    H1 8970   0.932   6.132   3.666 -0.3940 -0.3021  0.1459
 3002TIP3    H2 8971   0.965   6.259   3.590  0.4130 -0.5761  0.0329
 3003TIP3   OH2 8972   4.621   2.515   3.525  0.2008 -0.4970 -0.9426
 3003TIP3    H1 8973   4.529   2.517   3.551  0.3538 -0.7957 -0.3442
 3003TIP3    H2 8974   4.626   2.449   3.457  0.1782 -1.3824 -0.1017
 3004TIP3   OH2 8975   0.365   6.744   5.466  0.2995  0.6207  0.4785
 3004TIP3    H1 8976   0.321   6.659   5.468  1.4719 -0.0152  0.3404
 3004TIP3    H2 8977   0.304   6.803   5.421 -0.3967 -0.2170  0.3097
 3005TIP3   OH2 8978   5.180   4.861   5.667  0.6952  0.0187  0.2838
 3005TIP3    H1 8979   5.178   4.941   5.614  0.4263  0.1527  0.4909
 3005TIP3    H2 8980   5.132   4.884   5.746  1.4779 -0.0454  0.7808
 3006TIP3   OH2 8981   6.553   5.672   3.973  0.4989 -0.0927 -0.5508
 3006TIP3    H1 8982   6.509   5.627   4.045 -0.3116 -0.5106 -1.2822
 3006TIP3    H2 8983   6.616   5.730   4.016  3.1853 -3.4061  0.4232
 3007TIP3   OH2 8984   3.904   4.999   4.740 -0.1459  0.3928  0.5024
 3007TIP3    H1 8985   3.958   5.077   4.732 -0.1613  0.2745 -0.9829
 3007TIP3    H2 8986   3.822   5.021   4.696 -0.8840  0.1647  1.7034
 3008TIP3   OH2 8987   0.706   1.787   4.263  0.6724  0.3492  0.2854
 3008TIP3    H1 8988   0.774   1.775   4.329  1.3442  1.7292 -0.1269
 3008TIP3    H2 8989   0.727   1.723   4.196  0.4432 -0.5254  1.0267
 3009TIP3   OH2 8990   4.557   1.804   4.412  0.3161  0.0365 -0.1138
 3009TIP3    H1 8991   4.643   1.802   4.454  0.3425 -0.2977 -0.1837
 3009TIP3    H2 8992   4.498   1.835   4.481  0.2586 -1.0970  0.3628
 3010TIP3   OH2 8993   5.886   3.070   1.503 -0.0524 -0.0270  0.0927
 3010TIP3    H1 8994   5.959   3.063   1.442 -0.2743  0.1101 -0.1910
 3010TIP3    H2 8995   5.809   3.084   1.448 -0.0733  1.4816  0.4333
 3011TIP3   OH2 8996   6.745   5.917   3.276  0.3017  0.4394  0.0311
 3011TIP3    H1 8997   6.791   5.834   3.286  1.7709  1.0326 -1.4172
 3011TIP3    H2 8998   6.652   5.894   3.282  0.6990 -1.2286  0.1035
 3012TIP3   OH2 8999   5.168   2.966   4.268 -0.0168  0.1125 -0.3329
 3012TIP3    H1 9000   5.120   3.049   4.261  0.7825  0.5169 -1.1136
 3012TIP3    H2 9001   5.099   2.899   4.269 -0.6564  0.7572 -0.0609
 3013TIP3   OH2 9002   3.129   1.130   5.673 -0.0675  0.3575 -0.3623
 3013TIP3    H1 9003   3.043   1.161   5.701  0.0177 -1.0052  1.5640
 3013TIP3    H2 9004   3.112   1.076   5.597 -0.9352  0.0113  0.0724
 3014TIP3   OH2 9005   2.126   3.857   4.651  0.5071 -0.0362  0.2745
 3014TIP3    H1 9006   2.145   3.824   4.739  1.2447 -0.0272  0.1264
 3014TIP3    H2 9007   2.195   3.921   4.634  0.6446 -0.3696 -0.4895
 3015TIP3   OH2 9008   4.924   5.254   0.558  0.4071  0.2207 -0.1567
 3015TIP3    H1 9009   4.978   5.293   0.489 -1.4468 -0.3606 -2.0315
 3015TIP3    H2 9010   4.866   5.324   0.586  0.5184  0.1902  0.1576
 3016TIP3   OH2 9011   0.172   1.404   1.048  0.0418  0.5961  0.2613
 3016TIP3    H1 9012   0.157   1.375   0.958  1.2675 -0.4699  0.3619
 3016TIP3    H2 9013   0.239   1.471   1.041  0.0099  0.6377  0.3580
 3017TIP3   OH2 9014   4.529   5.582   1.636 -0.2752 -0.0818  0.4455
 3017TIP3    H1 9015   4.452   5.573   1.580 -0.9390 -0.4066  1.3884
 3017TIP3    H2 9016   4.576   5.499   1.625 -1.0479 -0.6562  1.2805
 3018TIP3   OH2 9017   6.865   5.844   2.926  0.4130  0.2335 -0.0286
 3018TIP3    H1 9018   6.912   5.804   2.998  0.5945  2.0172  0.8996
 3018TIP3    H2 9019   6.929   5.846   2.854  1.5431  1.9045  0.9707
 3019TIP3   OH2 9020   2.951   5.519   3.869 -0.3393  0.2010  0.3584
 3019TIP3    H1 9021   2.912   5.480   3.790 -0.9357  1.8113 -0.1758
 3019TIP3    H2 9022   2.910   5.472   3.942 -0.1426 -0.9744 -0.2636
 3020TIP3   OH2 9023   4.434   3.558   5.471  1.0564 -0.2742 -0.0859
 3020TIP3    H1 9024   4.428   3.632   5.411  1.4851 -1.2334 -1.3436
 3020TIP3    H2 9025   4.382   3.585   5.547  0.0894  0.7777 -1.0769
 3021TIP3   OH2 9026   4.431   2.465   4.864  0.3892 -0.0318 -0.3359
 3021TIP3    H1 9027   4.340   2.496   4.862  0.6899  0.8395 -1.6702
 3021TIP3    H2 9028   4.445   2.439   4.955 -0.6867  1.4045  0.2846
 3022TIP3   OH2 9029   2.306   5.357  -0.002 -0.3513  0.1651  0.3232
 3022TIP3    H1 9030   2.274   5.407   0.073 -0.7966  0.2255  0.0944
 3022TIP3    H2 9031   2.316   5.423  -0.071  0.1838  0.1322  0.3620
 3023TIP3   OH2 9032   5.824   2.362   0.671 -0.5615 -0.0004 -0.0279
 3023TIP3    H1 9033   5.881   2.298   0.628  0.5269  2.1943 -2.1006
 3023TIP3    H2 9034   5.884   2.429   0.704 -1.6982  0.3297  1.4965
 3024TIP3   OH2 9035   1.614   5.607   2.926  0.3209  0.1718 -0.5850
 3024TIP3    H1 9036   1.693   5.570   2.888 -0.3817 -3.0622  0.8298
 3024TIP3    H2 9037   1.543   5.573   2.872 -0.2509  3.3174 -2.0666
 3025TIP3   OH2 9038   7.065   3.852   4.505  0.1607 -0.0821 -0.0488
 3025TIP3    H1 9039   7.150   3.814   4.527 -0.8639 -2.5556 -0.0613
 3025TIP3    H2 9040   7.047   3.823   4.416 -1.4095 -1.0801  0.5382
 3026TIP3   OH2 9041   6.611   1.704   5.779 -0.7512  0.1286  0.5522
 3026TIP3    H1 9042   6.540   1.667   5.728  0.5603 -1.8928  0.0796
 3026TIP3    H2 9043   6.668   1.746   5.714 -1.4887  1.8181  0.9364
 3027TIP3   OH2 9044   6.542   4.003   3.940 -1.2329 -0.2758 -0.1866
 3027TIP3    H1 9045   6.465   4.049   3.908 -1.3314 -0.2646  0.0633
 3027TIP3    H2 9046   6.581   4.063   4.003 -0.5473  0.0766 -0.9273
 3028TIP3   OH2 9047   4.154   6.287   5.328  0.4679  0.1791  0.2408
 3028TIP3    H1 9048   4.183   6.235   5.402  0.9975 -0.1430 -0.1929
 3028TIP3    H2 9049   4.228   6.287   5.267  0.5685  1.6088  0.3245
 3029TIP3   OH2 9050   5.612   3.766   0.909  0.0490 -0.7669  0.0965
 3029TIP3    H1 9051   5.537   3.818   0.883 -0.7111 -2.3585 -1.0572
 3029TIP3    H2 9052   5.670   3.766   0.832 -0.1443 -1.8964 -0.0689
 3030TIP3   OH2 9053   3.490   2.258   3.230 -0.3690 -0.2868 -0.0431
 3030TIP3    H1 9054   3.442   2.325   3.182  0.1322  0.2640  0.2067
 3030TIP3    H2 9055   3.491   2.289   3.321 -0.4614 -0.8268  0.1462
 3031TIP3   OH2 9056   5.773   6.571   0.564 -0.1445 -0.1148 -0.5902
 3031TIP3    H1 9057   5.845   6.524   0.606  0.1309 -0.9949 -1.9871
 3031TIP3    H2 9058   5.799   6.576   0.472 -2.6235 -1.9763 -1.4897
 3032TIP3   OH2 9059   3.225   4.249   2.562  0.1017  0.1277  0.3030
 3032TIP3    H1 9060   3.280   4.316   2.521  1.6499 -2.6988 -2.7027
 3032TIP3    H2 9061   3.136   4.282   2.554  0.9084  2.6470  0.7922
 3033TIP3   OH2 9062   5.200   0.590   0.520 -0.1248  0.2187  0.0949
 3033TIP3    H1 9063   5.216   0.506   0.476  0.5393  0.2052  0.3624
 3033TIP3    H2 9064   5.266   0.594   0.589 -0.8113  0.4925  0.7506
 3034TIP3   OH2 9065   0.800   3.341   2.338 -0.0185 -0.1302 -0.2240
 3034TIP3    H1 9066   0.744   3.339   2.416 -0.2186 -2.3193 -0.3598
 3034TIP3    H2 9067   0.804   3.250   2.309  0.9771  0.4635 -2.1345
 3035TIP3   OH2 9068   4.981   0.991   5.349 -0.3866 -0.0563  0.0754
 3035TIP3    H1 9069   4.918   0.921   5.339  2.3600 -2.7042 -0.2070
 3035TIP3    H2 9070   5.061   0.958   5.308  1.4159  2.7762  0.9721
 3036TIP3   OH2 9071   7.112   5.062   3.484  0.3065  0.0866  0.2394
 3036TIP3    H1 9072   7.121   4.971   3.458 -0.7765 -0.4660  1.6727
 3036TIP3    H2 9073   7.019   5.072   3.506  0.7116  1.0607  1.6980
 3037TIP3   OH2 9074   2.673   3.512   4.804 -0.4646  0.1166 -0.0211
 3037TIP3    H1 9075   2.743   3.570   4.832 -0.2037  0.5560 -1.4870
 3037TIP3    H2 9076   2.716   3.447   4.748 -1.2485  0.6239 -1.2549
 3038TIP3   OH2 9077   4.767   0.117   0.766 -0.3154  0.7400  0.7084
 3038TIP3    H1 9078   4.731   0.159   0.845  0.0353  0.3968  1.0576
 3038TIP3    H2 9079   4.785   0.027   0.794 -3.0493 -0.3269 -0.5941
 3039TIP3   OH2 9080   1.722   2.372   3.457 -0.1903  0.1706  0.1059
 3039TIP3    H1 9081   1.805   2.334   3.431 -0.6019 -0.5505 -0.1990
 3039TIP3    H2 9082   1.741   2.420   3.537  0.7429  0.9772 -0.5837
 3040TIP3   OH2 9083   4.975   3.419   2.202 -0.0146 -0.2705  0.2392
 3040TIP3    H1 9084   4.948   3.388   2.288 -2.4766  0.8736 -0.0327
 3040TIP3    H2 9085   4.974   3.340   2.147  1.4068 -0.9765  1.1616
 3041TIP3   OH2 9086   5.638   3.216   2.423 -0.1936 -0.2327 -0.2263
 3041TIP3    H1 9087   5.717   3.193   2.471 -0.0222  1.0152  0.1291
 3041TIP3    H2 9088   5.667   3.283   2.360 -1.0596  0.7117  0.3408
 3042TIP3   OH2 9089   0.275   6.369   3.272 -0.1931  0.3839  0.1777
 3042TIP3    H1 9090   0.260   6.372   3.366  0.5602  0.5037  0.3030
 3042TIP3    H2 9091   0.250   6.280   3.246  2.2505 -0.6279  0.9938
 3043TIP3   OH2 9092   1.841   5.638   4.181  0.1448 -0.1001 -0.5154
 3043TIP3    H1 9093   1.897   5.623   4.257 -0.6609  0.6548  0.2573
 3043TIP3    H2 9094   1.814   5.551   4.152  1.7221 -0.4825 -0.9352
 3044TIP3   OH2 9095   4.176   4.374   5.626  0.5386 -0.7444  0.6732
 3044TIP3    H1 9096   4.200   4.406   5.539  0.2152 -1.1323  0.4388
 3044TIP3    H2 9097   4.100   4.318   5.611 -1.7235  1.8562  1.5780
 3045TIP3   OH2 9098   5.038   6.467   4.456  0.1519  0.3617  0.0939
 3045TIP3    H1 9099   4.971   6.398   4.455  1.0385 -0.5230  0.0653
 3045TIP3    H2 9100   5.010   6.525   4.527 -2.1379  1.5842 -1.6855
 3046TIP3   OH2 9101   4.653   1.266   4.876  0.3349  0.0142  0.2967
 3046TIP3    H1 9102   4.600   1.346   4.875 -0.6011 -0.5746 -0.8528
 3046TIP3    H2 9103   4.739   1.293   4.843 -0.1359  0.4667 -0.6059
 3047TIP3   OH2 9104   5.023   0.798   2.795  0.0719  0.0555 -0.3552
 3047TIP3    H1 9105   5.077   0.719   2.803 -0.4408 -0.1974  0.7550
 3047TIP3    H2 9106   4.933   0.767   2.808 -0.3453  0.5064 -1.9602
 3048TIP3   OH2 9107   1.366   3.909   3.688 -0.3428  0.7287  0.4202
 3048TIP3    H1 9108   1.457   3.921   3.716  0.0295 -0.6846 -0.1037
 3048TIP3    H2 9109   1.331   3.845   3.750 -0.3287 -0.3413 -0.6489
 3049TIP3   OH2 9110   1.650   4.621   4.336  0.3645  0.0819 -0.6962
 3049TIP3    H1 9111   1.722   4.610   4.398 -0.7144  0.5842  0.7021
 3049TIP3    H2 9112   1.684   4.587   4.253  1.0765 -2.9136  0.6780
 3050TIP3   OH2 9113   2.317   3.712   3.291  0.0499 -0.7917 -0.3916
 3050TIP3    H1 9114   2.294   3.677   3.205 -0.8280 -0.4370 -0.3207
 3050TIP3    H2 9115   2.232   3.730   3.333  0.4605  0.1112  0.0958
 3051TIP3   OH2 9116   3.969   3.207   1.277  0.1833 -0.3973 -0.4032
 3051TIP3    H1 9117   3.880   3.210   1.313  0.2324 -1.4158 -0.1618
 3051TIP3    H2 9118   3.961   3.153   1.198  0.3918  0.4162 -0.9880
 3052TIP3   OH2 9119   6.656   4.186   3.520  0.0789 -0.5060  0.2852
 3052TIP3    H1 9120   6.669   4.241   3.597  0.3937  0.1942 -0.2516
 3052TIP3    H2 9121   6.567   4.151   3.529 -0.4293  0.7422  0.2375
 3053TIP3   OH2 9122   6.317   0.104   4.237 -0.2822 -0.1223 -0.5247
 3053TIP3    H1 9123   6.382   0.061   4.182  0.2338  0.0694 -0.0770
 3053TIP3    H2 9124   6.319   0.054   4.319 -1.0741 -0.4360 -0.6859
 3054TIP3   OH2 9125   5.879   6.540   2.137 -0.0929 -0.2835  0.0039
 3054TIP3    H1 9126   5.912   6.562   2.224  0.2892 -0.6684 -0.0389
 3054TIP3    H2 9127   5.786   6.521   2.151  0.0590 -0.7773  0.4124
 3055TIP3   OH2 9128   0.087   3.087   1.594  0.3808 -0.3177  0.2588
 3055TIP3    H1 9129   0.069   3.180   1.612 -1.7930 -0.3004 -1.6247
 3055TIP3    H2 9130   0.140   3.089   1.514 -0.5536 -0.6915 -0.3858
 3056TIP3   OH2 9131   2.761   0.428   1.527  0.1274  0.3947  0.4932
 3056TIP3    H1 9132   2.759   0.348   1.475  3.2427 -0.4538  1.4335
 3056TIP3    H2 9133   2.796   0.494   1.468 -0.5333  0.5693  0.2900
 3057TIP3   OH2 9134   1.633   1.385   5.176  0.0231  0.0710 -0.2632
 3057TIP3    H1 9135   1.713   1.438   5.179 -0.4531  0.7639  0.5230
 3057TIP3    H2 9136   1.602   1.384   5.266 -0.7382 -0.3918 -0.5265
 3058TIP3   OH2 9137   4.833   4.241   1.887  0.0575 -0.1948 -0.1743
 3058TIP3    H1 9138   4.862   4.216   1.975  2.2828  3.0511  0.1941
 3058TIP3    H2 9139   4.743   4.271   1.900  0.2087 -0.1652  0.9210
 3059TIP3   OH2 9140   3.287   6.072   4.635 -0.5727  0.1008  0.0984
 3059TIP3    H1 9141   3.218   6.007   4.644 -0.7476  0.5136  2.6391
 3059TIP3    H2 9142   3.343   6.058   4.712 -0.5083  2.7577  0.6380
 3060TIP3   OH2 9143   6.590   4.115   2.679  0.0801 -0.1839 -0.6146
 3060TIP3    H1 9144   6.569   4.071   2.597 -0.6366  2.7611 -2.1519
 3060TIP3    H2 9145   6.685   4.122   2.679  0.2285 -1.8559 -0.2061
 3061TIP3   OH2 9146   4.504   2.128   5.488  0.2045 -0.1056 -0.0384
 3061TIP3    H1 9147   4.510   2.221   5.512 -0.1189 -0.3108  0.8611
 3061TIP3    H2 9148   4.594   2.103   5.470  0.1129  0.8460 -2.1692
 3062TIP3   OH2 9149   0.889   1.775   3.224 -0.0486  0.2010 -0.3214
 3062TIP3    H1 9150   0.918   1.803   3.311  1.7653  0.5279 -0.9946
 3062TIP3    H2 9151   0.887   1.679   3.229  3.4468 -0.0333 -0.8288
 3063TIP3   OH2 9152   2.620   0.447   5.514  0.7341  0.0395  0.3028
 3063TIP3    H1 9153   2.559   0.475   5.446 -0.0910  3.4038  2.1644
 3063TIP3    H2 9154   2.581   0.367   5.550 -1.0820  0.5505 -0.4139
 3064TIP3   OH2 9155   1.951   2.181   0.617  0.1242  0.0283 -0.2042
 3064TIP3    H1 9156   1.907   2.193   0.702  1.1140  0.6422  0.2409
 3064TIP3    H2 9157   1.920   2.096   0.586  0.3562 -0.5852  1.1652
 3065TIP3   OH2 9158   5.335   4.629   4.280  0.6115  0.1110  0.0576
 3065TIP3    H1 9159   5.265   4.574   4.246  0.5585 -0.3227  0.8541
 3065TIP3    H2 9160   5.346   4.697   4.214 -0.8197  0.4056  0.0940
 3066TIP3   OH2 9161   5.991   0.092   0.542 -0.2052  0.2876 -0.0750
 3066TIP3    H1 9162   5.906   0.090   0.499  0.1700  0.1674 -0.8211
 3066TIP3    H2 9163   5.980   0.154   0.614 -1.1483 -0.3164  0.3191
 3067TIP3   OH2 9164   6.119   3.407   3.544  0.2800 -0.0717  0.1647
 3067TIP3    H1 9165   6.157   3.468   3.607 -1.6848  1.7393 -0.2876
 3067TIP3    H2 9166   6.100   3.328   3.596 -0.0826  0.8949  1.5659
 3068TIP3   OH2 9167   6.271   1.360   4.872  0.1044 -0.0942 -0.2289
 3068TIP3    H1 9168   6.189   1.315   4.894  0.3891 -1.3443 -1.5434
 3068TIP3    H2 9169   6.336   1.290   4.869  0.9757  0.7063 -0.4140
 3069TIP3   OH2 9170   6.781   1.961   1.153  0.2709  0.1011  0.0293
 3069TIP3    H1 9171   6.731   2.038   1.179  3.1374  2.5271 -1.0136
 3069TIP3    H2 9172   6.757   1.894   1.216 -1.1728  2.3450  2.0172
 3070TIP3   OH2 9173   2.585   0.330   0.723 -0.5038  0.0462  0.6271
 3070TIP3    H1 9174   2.610   0.245   0.687 -0.5334  0.3105 -0.0312
 3070TIP3    H2 9175   2.534   0.371   0.653 -0.3268  0.6849  0.8669
 3071TIP3   OH2 9176   3.433   3.904   1.679  0.1473 -0.2091  0.4840
 3071TIP3    H1 9177   3.517   3.911   1.725 -0.1571 -1.3719  1.2734
 3071TIP3    H2 9178   3.381   3.845   1.734 -0.4980 -1.0651 -0.9945
 3072TIP3   OH2 9179   3.415   6.145   4.927  0.2047 -0.1702  0.3314
 3072TIP3    H1 9180   3.420   6.071   4.988 -0.2044  0.0639  0.6626
 3072TIP3    H2 9181   3.331   6.187   4.948  0.4576  0.4195  0.1939
 3073TIP3   OH2 9182   6.523   2.596   4.671 -0.1018 -0.4690 -0.4091
 3073TIP3    H1 9183   6.448   2.623   4.725  0.0479  0.4771 -0.6497
 3073TIP3    H2 9184   6.585   2.559   4.734 -0.7266 -1.1983 -0.1972
 3074TIP3   OH2 9185   7.109   0.498   3.291  0.1058 -0.0736 -0.0436
 3074TIP3    H1 9186   7.163   0.541   3.358 -0.3503 -0.0978  0.3495
 3074TIP3    H2 9187   7.168   0.485   3.217  1.5795 -2.9289  1.4361
 3075TIP3   OH2 9188   6.220   6.103   1.352  0.6133  0.4511 -1.2498
 3075TIP3    H1 9189   6.265   6.123   1.270  1.3722  0.2710 -0.8842
 3075TIP3    H2 9190   6.192   6.012   1.341  1.9930 -0.0586 -0.7539
 3076TIP3   OH2 9191   5.588   5.718   4.248  0.4611  0.3676 -0.0752
 3076TIP3    H1 9192   5.681   5.743   4.250  0.6171 -0.2371  0.6846
 3076TIP3    H2 9193   5.583   5.641   4.304 -0.3250 -0.2532 -0.9766
 3077TIP3   OH2 9194   5.600   5.260   3.812 -0.2657  0.1334  0.2726
 3077TIP3    H1 9195   5.670   5.320   3.836 -0.5981  0.6436 -0.0051
 3077TIP3    H2 9196   5.571   5.290   3.725  0.6534 -1.4227 -0.6198
 3078TIP3   OH2 9197   0.292   3.980   2.385  0.5447 -0.1635  0.0070
 3078TIP3    H1 9198   0.288   3.964   2.291 -0.6988  0.2296 -0.0294
 3078TIP3    H2 9199   0.383   4.006   2.402  0.8629 -0.5750 -1.0185
 3079TIP3   OH2 9200   5.613   6.574   1.020  0.0273  1.0303  0.2992
 3079TIP3    H1 9201   5.691   6.585   1.074  0.8392 -1.5119 -0.2312
 3079TIP3    H2 9202   5.642   6.595   0.931  0.3998 -0.7274 -0.0304
 3080TIP3   OH2 9203   5.935   3.870   4.443 -0.4417 -0.9114 -0.4351
 3080TIP3    H1 9204   5.855   3.875   4.495 -0.1670 -1.2268  0.0197
 3080TIP3    H2 9205   5.911   3.814   4.369 -0.4682 -1.5173  0.0255
 3081TIP3   OH2 9206   0.187   0.867   1.163  0.5177 -0.2924 -0.2936
 3081TIP3    H1 9207   0.100   0.864   1.202  0.3715 -1.0559 -0.6473
 3081TIP3    H2 9208   0.236   0.929   1.217 -0.6650  1.3202 -1.0003
 3082TIP3   OH2 9209   1.136   4.917   3.501  0.0412 -0.2484  0.0408
 3082TIP3    H1 9210   1.213   4.970   3.518  0.8142 -1.6315  0.9965
 3082TIP3    H2 9211   1.146   4.840   3.556 -2.1647 -0.3524  0.4156
 3083TIP3   OH2 9212   1.743   6.378   1.145 -0.0961  0.5589 -0.2779
 3083TIP3    H1 9213   1.675   6.408   1.086  0.4682 -0.0864 -1.2873
 3083TIP3    H2 9214   1.725   6.284   1.156 -0.5111  0.7747  1.0203
 3084TIP3   OH2 9215   2.684   5.345   5.578  0.1568  0.1060 -0.0852
 3084TIP3    H1 9216   2.760   5.392   5.613  0.1276 -0.1482  0.3365
 3084TIP3    H2 9217   2.720   5.288   5.510  0.0216  1.6233 -1.4898
 3085TIP3   OH2 9218   0.859   0.535   1.311  0.3969  0.0010 -0.0800
 3085TIP3    H1 9219   0.841   0.605   1.248 -0.0994  0.4048  0.4928
 3085TIP3    H2 9220   0.849   0.454   1.260 -1.1964  0.2744 -0.2620
 3086TIP3   OH2 9221   3.886   4.806   0.028 -0.7013  0.3596  0.0173
 3086TIP3    H1 9222   3.831   4.842  -0.042  0.6792 -1.5421 -2.2136
 3086TIP3    H2 9223   3.829   4.743   0.072 -1.3248  0.9333  0.0573
 3087TIP3   OH2 9224   6.850   4.312   1.149 -0.6071  0.4950  0.5486
 3087TIP3    H1 9225   6.820   4.311   1.058 -0.8603  1.3252  0.6160
 3087TIP3    H2 9226   6.922   4.249   1.151 -0.4006  0.6946 -0.2919
 3088TIP3   OH2 9227   0.332   5.881   0.394  0.0426  0.2103 -0.2142
 3088TIP3    H1 9228   0.391   5.837   0.332 -1.3215 -2.3904  0.1995
 3088TIP3    H2 9229   0.289   5.949   0.342  0.6785 -0.3170 -1.4834
 3089TIP3   OH2 9230   4.480   6.332   1.156 -0.1464 -0.1881 -0.0634
 3089TIP3    H1 9231   4.515   6.260   1.104 -1.4786 -1.1143  0.2926
 3089TIP3    H2 9232   4.390   6.343   1.126 -0.1364  0.9791  0.2613
 3090TIP3   OH2 9233   4.168   4.839   1.233  0.0983 -0.6056 -0.0917
 3090TIP3    H1 9234   4.116   4.793   1.167 -0.3071  0.8892 -0.8349
 3090TIP3    H2 9235   4.112   4.910   1.264  1.0075 -0.0978  0.4577
 3091TIP3   OH2 9236   1.132   4.514   3.891 -0.1716 -0.3714 -0.0856
 3091TIP3    H1 9237   1.165   4.427   3.914  0.5340 -0.4428 -1.2769
 3091TIP3    H2 9238   1.041   4.499   3.864 -0.0256 -0.7653 -0.3666
 3092TIP3   OH2 9239   7.144   1.871   0.802  0.3724  0.0585 -0.0657
 3092TIP3    H1 9240   7.064   1.911   0.770 -1.7813 -2.0768  2.2575
 3092TIP3    H2 9241   7.193   1.944   0.842 -1.0637  1.1631 -0.2519
 3093TIP3   OH2 9242   6.437   2.103   0.249  0.4959  0.3902  0.3549
 3093TIP3    H1 9243   6.408   2.096   0.157 -2.5676 -0.7688  1.2724
 3093TIP3    H2 9244   6.418   2.194   0.272 -1.5679 -0.0431  0.5847
 3094TIP3   OH2 9245   2.566   1.458   0.728 -0.0860  0.0682  0.5867
 3094TIP3    H1 9246   2.596   1.474   0.818 -0.9888  1.0691  0.7304
 3094TIP3    H2 9247   2.486   1.509   0.720  0.9611  1.5504 -1.3842
 3095TIP3   OH2 9248   5.219   3.841   0.491  0.0906 -0.1168 -0.1480
 3095TIP3    H1 9249   5.231   3.815   0.400  1.4564 -1.2366  0.3170
 3095TIP3    H2 9250   5.152   3.910   0.488 -1.0447 -1.2084 -1.8277
 3096TIP3   OH2 9251   4.116   5.323   0.016 -0.0988 -0.0481  0.6771
 3096TIP3    H1 9252   4.157   5.238   0.003  1.6932  0.8450  0.2494
 3096TIP3    H2 9253   4.146   5.351   0.103 -0.0314  0.4808  0.4897
 3097TIP3   OH2 9254   2.812   6.222   1.587 -0.6612  0.5403  0.4730
 3097TIP3    H1 9255   2.899   6.234   1.623  0.2657  1.7226 -1.9247
 3097TIP3    H2 9256   2.818   6.140   1.537 -0.6440  1.0527 -0.3828
 3098TIP3   OH2 9257   4.347   2.066   2.745  0.4070  0.5180  0.1071
 3098TIP3    H1 9258   4.276   2.069   2.680  0.5523  1.8643 -0.0285
 3098TIP3    H2 9259   4.380   2.156   2.748  1.7067  0.0515  0.6214
 3099TIP3   OH2 9260   4.368   3.059   4.839  0.3470 -0.0445 -0.0612
 3099TIP3    H1 9261   4.285   3.055   4.886  1.2079 -0.7892  1.4738
 3099TIP3    H2 9262   4.417   2.984   4.872  1.8118  0.6604 -0.5777
 3100TIP3   OH2 9263   0.137   5.408   3.710 -0.0970  0.3964  0.7287
 3100TIP3    H1 9264   0.178   5.421   3.795  1.5688  0.5646 -0.0621
 3100TIP3    H2 9265   0.176   5.476   3.654 -1.4977  0.5860 -0.0639
 3101TIP3   OH2 9266   2.570   5.818   1.881  0.7248  0.2089 -0.1303
 3101TIP3    H1 9267   2.522   5.746   1.922  1.4141 -0.0406  0.2588
 3101TIP3    H2 9268   2.532   5.824   1.793  0.4213 -0.4035 -0.0515
 3102TIP3   OH2 9269   7.165   6.353   4.485  0.0757 -0.2816  0.6726
 3102TIP3    H1 9270   7.194   6.443   4.470  0.3895 -0.7057 -1.7184
 3102TIP3    H2 9271   7.225   6.320   4.552  0.6152  0.9769  0.8545
 3103TIP3   OH2 9272   5.471   3.748   1.666 -0.1373  0.3664 -0.0572
 3103TIP3    H1 9273   5.547   3.704   1.704 -0.7735 -0.9419 -0.2696
 3103TIP3    H2 9274   5.474   3.726   1.573 -2.5838 -2.5428  0.4174
 3104TIP3   OH2 9275   4.134   2.039   1.300 -0.6244 -0.0837 -0.4907
 3104TIP3    H1 9276   4.192   2.031   1.225  1.9405  0.5768  1.2991
 3104TIP3    H2 9277   4.154   2.125   1.337  0.4858 -1.5575  2.6613
 3105TIP3   OH2 9278   4.973   1.551   3.804 -0.0255 -0.3793  0.5448
 3105TIP3    H1 9279   4.891   1.513   3.771  0.9513 -2.6145  0.5146
 3105TIP3    H2 9280   4.995   1.498   3.880  1.3304  0.2935  0.6515
 3106TIP3   OH2 9281   4.856   4.948   3.274 -0.9030  0.7549 -0.3671
 3106TIP3    H1 9282   4.844   4.893   3.352 -0.9992  0.2338 -0.7507
 3106TIP3    H2 9283   4.785   5.013   3.281  0.4651  2.1953  1.2098
 3107TIP3   OH2 9284   0.965   4.369   0.502  0.5909  0.0668 -0.0413
 3107TIP3    H1 9285   1.027   4.381   0.430  0.5221 -0.7458 -0.2451
 3107TIP3    H2 9286   0.989   4.286   0.541 -0.2564 -0.1706 -0.0041
 3108TIP3   OH2 9287   3.290   5.669   4.253 -0.3126 -0.0337  0.4123
 3108TIP3    H1 9288   3.293   5.628   4.167  0.2115 -0.3487  0.5776
 3108TIP3    H2 9289   3.196   5.678   4.272 -0.4274  0.1711 -0.2485
 3109TIP3   OH2 9290   0.123   6.769   1.445 -0.0878 -0.2187  0.0236
 3109TIP3    H1 9291   0.196   6.770   1.507 -0.1076  3.7633  0.2529
 3109TIP3    H2 9292   0.056   6.716   1.486  1.5997 -1.5348  1.1786
 3110TIP3   OH2 9293   0.055   3.802   3.753  0.0439  0.8183  0.3420
 3110TIP3    H1 9294   0.002   3.876   3.785 -0.8001  0.7682 -0.8672
 3110TIP3    H2 9295   0.145   3.835   3.755  0.2277  0.4877  3.6642
 3111TIP3   OH2 9296   2.978   5.765   4.042 -0.1898 -0.2685  0.6177
 3111TIP3    H1 9297   3.029   5.816   3.979  1.1410  0.4346  2.2100
 3111TIP3    H2 9298   2.955   5.685   3.995  2.5612 -0.7065 -0.1342
 3112TIP3   OH2 9299   6.092   1.817   1.995  0.2591  0.1148  0.9007
 3112TIP3    H1 9300   6.088   1.769   2.078  0.8686 -1.9027 -0.1892
 3112TIP3    H2 9301   6.065   1.754   1.929  0.7424  1.3882 -0.5636
 3113TIP3   OH2 9302   0.251   4.701   5.148  0.0427  0.1005 -0.2466
 3113TIP3    H1 9303   0.195   4.760   5.198  0.2145  0.1844 -0.1525
 3113TIP3    H2 9304   0.221   4.709   5.058 -1.7694 -1.7080  0.1139
 3114TIP3   OH2 9305   6.878   2.843   1.077 -0.5864 -0.2368 -0.3530
 3114TIP3    H1 9306   6.814   2.812   1.013  0.7829 -1.7757 -1.0417
 3114TIP3    H2 9307   6.825   2.871   1.152 -2.0513 -2.7698 -0.3152
 3115TIP3   OH2 9308   5.934   2.888   0.388  0.4086  0.3151  0.2218
 3115TIP3    H1 9309   5.864   2.823   0.389  2.8582 -2.5292  1.5587
 3115TIP3    H2 9310   5.931   2.925   0.299 -0.8276 -1.9429 -0.7470
 3116TIP3   OH2 9311   2.506   2.733   1.033  0.3577  0.5434  0.5696
 3116TIP3    H1 9312   2.572   2.717   1.101  0.3582 -0.6405  0.3058
 3116TIP3    H2 9313   2.494   2.828   1.033  0.1106  0.5492  2.4697
 3117TIP3   OH2 9314   5.958   0.659   5.279  0.7859  0.2597  0.1233
 3117TIP3    H1 9315   5.880   0.695   5.322 -0.2958 -0.4823 -1.1289
 3117TIP3    H2 9316   6.001   0.735   5.239  0.3300  0.5900  0.2600
 3118TIP3   OH2 9317   6.454   1.619   5.211 -0.4867 -0.8562  0.1985
 3118TIP3    H1 9318   6.419   1.705   5.234  2.6219  0.3155  1.0087
 3118TIP3    H2 9319   6.506   1.635   5.132 -0.2986 -2.0876  0.0580
 3119TIP3   OH2 9320   4.103   6.790   5.577 -0.6282  1.1534 -0.0928
 3119TIP3    H1 9321   4.080   6.740   5.498 -1.4400 -0.6439  1.2191
 3119TIP3    H2 9322   4.026   6.783   5.633  0.6430  0.6920  1.6712
 3120TIP3   OH2 9323   1.280   1.933   2.178 -0.1890  0.3012  0.6681
 3120TIP3    H1 9324   1.289   1.838   2.167  0.4305  0.5548 -1.4554
 3120TIP3    H2 9325   1.198   1.944   2.227  0.2498 -1.3393  1.8461
 3121TIP3   OH2 9326   2.533   2.360   3.015 -0.6176  0.3746 -0.4883
 3121TIP3    H1 9327   2.550   2.393   3.103 -1.9476  2.2453 -0.8594
 3121TIP3    H2 9328   2.612   2.312   2.991  0.0530  0.4493  1.4397
 3122TIP3   OH2 9329   1.160   0.725   2.439  0.3492  0.1607  0.1445
 3122TIP3    H1 9330   1.133   0.676   2.362  1.1286 -1.5061  0.8715
 3122TIP3    H2 9331   1.137   0.668   2.513  0.1381  1.4642  1.1147
 3123TIP3   OH2 9332   6.094   5.137   3.301  0.1131 -0.3965  0.2365
 3123TIP3    H1 9333   6.037   5.125   3.226  1.8447  1.4317 -1.5174
 3123TIP3    H2 9334   6.073   5.225   3.333  2.2709  0.5976 -0.8708
 3124TIP3   OH2 9335   1.001   1.552   2.973 -0.3363 -0.1521  0.5990
 3124TIP3    H1 9336   1.036   1.478   2.924 -1.3280 -0.2248 -0.0277
 3124TIP3    H2 9337   1.067   1.621   2.963 -0.0218 -0.5239  0.0773
 3125TIP3   OH2 9338   4.976   3.231   2.993  0.0789  0.2520 -0.3886
 3125TIP3    H1 9339   4.979   3.158   3.054 -0.1278  1.0408  0.5831
 3125TIP3    H2 9340   4.949   3.191   2.910 -1.5569 -0.5551  0.4850
 3126TIP3   OH2 9341   4.395   0.634   2.814 -0.4501 -0.3653  0.0277
 3126TIP3    H1 9342   4.414   0.546   2.847 -0.6435 -0.5426 -0.3247
 3126TIP3    H2 9343   4.303   0.649   2.838  0.3001  0.7833  2.3879
 3127TIP3   OH2 9344   6.029   3.728   3.701 -0.2044  0.1069 -0.7257
 3127TIP3    H1 9345   6.090   3.763   3.636 -0.5277  1.7683 -0.1846
 3127TIP3    H2 9346   6.079   3.660   3.747  0.8556  0.6380 -1.0645
 3128TIP3   OH2 9347   5.620   4.176   1.716  0.5700 -0.2148  0.5954
 3128TIP3    H1 9348   5.710   4.168   1.748  0.6869  0.7675  0.5413
 3128TIP3    H2 9349   5.606   4.270   1.707 -0.4965 -0.3481  0.6908
 3129TIP3   OH2 9350   0.442   4.416   4.600  0.2708 -0.2154 -0.1388
 3129TIP3    H1 9351   0.509   4.432   4.534 -0.0479 -2.1220 -1.0025
 3129TIP3    H2 9352   0.491   4.397   4.680  0.7668 -0.7300 -0.5510
 3130TIP3   OH2 9353   1.998   1.943   2.506 -0.5025  0.0293  0.0463
 3130TIP3    H1 9354   1.952   2.023   2.531  0.1876  0.2162  0.7465
 3130TIP3    H2 9355   1.981   1.934   2.412  2.8265  3.3756 -1.1316
 3131TIP3   OH2 9356   5.572   4.116   4.836  0.0551 -0.0240 -0.7448
 3131TIP3    H1 9357   5.595   4.024   4.823  0.9518 -0.1248  1.1698
 3131TIP3    H2 9358   5.655   4.163   4.825  0.5625  0.0356  2.3964
 3132TIP3   OH2 9359   3.221   5.001   3.677 -0.4578  0.1193 -0.1694
 3132TIP3    H1 9360   3.235   5.047   3.760 -0.5211 -0.1309 -0.0212
 3132TIP3    H2 9361   3.126   4.988   3.672 -0.3048 -1.4009  0.5388
 3133TIP3   OH2 9362   1.230   2.988   1.373 -0.6042  0.1627 -0.0099
 3133TIP3    H1 9363   1.317   2.956   1.395  0.1405  1.7311 -0.5042
 3133TIP3    H2 9364   1.223   2.977   1.278  0.0703  2.2445 -0.3569
 3134TIP3   OH2 9365   2.989   1.982   2.320  0.1451 -0.3552  0.2483
 3134TIP3    H1 9366   2.913   1.956   2.371 -1.1056  0.3380 -1.1752
 3134TIP3    H2 9367   2.967   1.957   2.230  2.0812 -1.1346 -0.0640
 3135TIP3   OH2 9368   4.316   4.916   2.108 -0.4562  0.8706  0.0635
 3135TIP3    H1 9369   4.253   4.846   2.095 -1.0591  1.2269  0.9273
 3135TIP3    H2 9370   4.398   4.884   2.069 -0.8590 -0.0856 -0.0057
 3136TIP3   OH2 9371   4.274   2.373   1.300  0.0122  0.2650 -0.3373
 3136TIP3    H1 9372   4.195   2.375   1.245  0.4686  2.4414 -1.0083
 3136TIP3    H2 9373   4.346   2.391   1.239  1.6803 -5.1340 -0.4779
 3137TIP3   OH2 9374   2.551   5.260   1.332 -0.1574 -0.0406  0.1701
 3137TIP3    H1 9375   2.543   5.240   1.425 -1.4268  2.4480  0.6793
 3137TIP3    H2 9376   2.482   5.207   1.290 -0.4345 -0.2054  0.8263
 3138TIP3   OH2 9377   5.901   4.273   1.000 -0.1950 -0.6491 -0.0633
 3138TIP3    H1 9378   5.982   4.295   0.954  0.6090  0.3379  1.7316
 3138TIP3    H2 9379   5.879   4.185   0.969  1.3597 -0.7974 -0.8473
 3139TIP3   OH2 9380   5.021   3.848   4.603  0.4273  0.1842  0.1886
 3139TIP3    H1 9381   5.108   3.887   4.599  1.1018 -1.1179  1.3923
 3139TIP3    H2 9382   4.968   3.912   4.651  1.0490  0.4053  0.5869
 3140TIP3   OH2 9383   6.013   6.031   1.020  0.1576 -0.9221  0.4094
 3140TIP3    H1 9384   6.019   6.033   0.925  1.3586 -1.2067  0.4627
 3140TIP3    H2 9385   6.079   5.968   1.047  1.5138  0.8865  1.5482
 3141TIP3   OH2 9386   4.543   2.455   1.143  0.0993 -0.2675  0.0261
 3141TIP3    H1 9387   4.554   2.519   1.213 -0.5628  0.2218 -0.3100
 3141TIP3    H2 9388   4.606   2.481   1.076  0.4164 -0.4681  0.2439
 3142TIP3   OH2 9389   6.291   1.179   4.208 -1.0246  0.0550  0.0464
 3142TIP3    H1 9390   6.289   1.259   4.157 -1.1492 -1.5744 -2.6758
 3142TIP3    H2 9391   6.199   1.155   4.218 -0.9477 -0.3209 -0.1282
 3143TIP3   OH2 9392   2.533   1.365   5.007 -0.1980 -0.0353  0.1213
 3143TIP3    H1 9393   2.462   1.385   4.946 -0.7111 -0.3072  0.6236
 3143TIP3    H2 9394   2.605   1.421   4.978 -0.2893 -0.4792 -0.9957
 3144TIP3   OH2 9395   3.415   0.821   2.336  0.2484  0.6866 -0.4867
 3144TIP3    H1 9396   3.483   0.868   2.289 -0.4147  2.3978  0.1857
 3144TIP3    H2 9397   3.431   0.840   2.428 -2.2116  2.8719 -0.3605
 3145TIP3   OH2 9398   6.119   5.396   5.259 -0.0606  0.7043 -0.0418
 3145TIP3    H1 9399   6.122   5.444   5.342  0.2837 -0.0378  0.3832
 3145TIP3    H2 9400   6.193   5.336   5.263 -1.4478 -1.0919  0.2075
 3146TIP3   OH2 9401   2.528   6.564   1.933  0.5192 -0.2215  0.5136
 3146TIP3    H1 9402   2.494   6.475   1.923 -0.0904  0.0375  0.2100
 3146TIP3    H2 9403   2.519   6.583   2.027 -0.3469 -0.1042  0.4200
 3147TIP3   OH2 9404   0.330   1.887   2.641  0.0577 -0.2128 -0.3125
 3147TIP3    H1 9405   0.264   1.828   2.679  0.3029 -0.3413 -0.0855
 3147TIP3    H2 9406   0.307   1.891   2.548  0.6386 -1.4875 -0.5333
 3148TIP3   OH2 9407   4.865   5.275   1.985 -0.0359  0.2588 -0.1554
 3148TIP3    H1 9408   4.909   5.297   2.068 -1.2841 -0.3095  0.6862
 3148TIP3    H2 9409   4.914   5.323   1.919  3.2862 -2.0571  0.3820
 3149TIP3   OH2 9410   5.399   0.368   1.137  0.3916 -0.0104  0.0392
 3149TIP3    H1 9411   5.388   0.386   1.231 -1.9284 -0.7875 -0.0335
 3149TIP3    H2 9412   5.437   0.280   1.134 -1.2985 -0.8014  0.3011
 3150TIP3   OH2 9413   6.941   4.029   0.588 -0.3904 -0.1796 -0.5614
 3150TIP3    H1 9414   6.868   4.076   0.550  0.5385 -0.2481 -2.5227
 3150TIP3    H2 9415   6.945   3.947   0.540 -0.0846 -0.9357  0.7149
 3151TIP3   OH2 9416   6.076   4.956   5.025  0.9852 -0.0330  0.2958
 3151TIP3    H1 9417   6.125   4.878   5.049  0.7391  0.1002  1.2723
 3151TIP3    H2 9418   6.142   5.024   5.016  1.0358  0.0395  1.1484
 3152TIP3   OH2 9419   4.571   6.126   3.481 -0.1649  0.6117 -0.2531
 3152TIP3    H1 9420   4.600   6.034   3.480 -0.8107  0.4051 -0.7525
 3152TIP3    H2 9421   4.596   6.157   3.568 -0.3835 -0.1863  0.1099
 3153TIP3   OH2 9422   2.670   3.227   4.354  0.7213  0.4269 -0.0793
 3153TIP3    H1 9423   2.643   3.250   4.266 -1.5835  0.0651  0.4613
 3153TIP3    H2 9424   2.638   3.137   4.367  1.3761  0.3207  0.9947
 3154TIP3   OH2 9425   4.220   5.590   3.074  0.1931  0.6543  0.3003
 3154TIP3    H1 9426   4.297   5.638   3.107 -0.5181  3.2556 -1.5451
 3154TIP3    H2 9427   4.171   5.567   3.153  2.5793 -0.7196  1.4992
 3155TIP3   OH2 9428   7.113   2.319   4.676  0.2539  0.1414 -0.0914
 3155TIP3    H1 9429   7.030   2.300   4.631  0.0704  2.1318 -0.6952
 3155TIP3    H2 9430   7.146   2.233   4.702 -0.8433 -0.9099 -1.8948
 3156TIP3   OH2 9431   5.413   5.368   4.790  0.8415 -0.2967 -0.3822
 3156TIP3    H1 9432   5.387   5.442   4.845 -1.9094 -1.3723 -0.0513
 3156TIP3    H2 9433   5.472   5.316   4.845  0.6298  0.2542  0.3795
 3157TIP3   OH2 9434   6.443   5.976   2.939  0.1793  0.0334 -0.5263
 3157TIP3    H1 9435   6.477   5.960   3.027 -0.2485  1.9962  0.0414
 3157TIP3    H2 9436   6.518   5.963   2.882  0.9419  0.5535  0.3284
 3158TIP3   OH2 9437   2.253   2.960   4.749  0.4809  0.0011 -0.3743
 3158TIP3    H1 9438   2.301   2.990   4.671  0.3962  1.3432  0.0523
 3158TIP3    H2 9439   2.269   3.029   4.814  0.8237 -1.2634  0.9141
 3159TIP3   OH2 9440   1.612   0.506   4.834  0.2519 -0.4351 -0.3652
 3159TIP3    H1 9441   1.702   0.486   4.858  0.4687  0.7896 -0.0930
 3159TIP3    H2 9442   1.584   0.572   4.898 -0.9554 -1.0612 -0.2260
 3160TIP3   OH2 9443   6.686   5.096   2.862 -0.5660 -0.4262 -0.5384
 3160TIP3    H1 9444   6.653   5.176   2.821 -1.2643 -0.6230 -0.3867
 3160TIP3    H2 9445   6.778   5.113   2.879 -0.8079  0.5099 -0.1228
 3161TIP3   OH2 9446   5.367   3.116   4.333  0.3820 -0.5212  0.2058
 3161TIP3    H1 9447   5.391   3.136   4.243 -1.1407  3.4306  0.4611
 3161TIP3    H2 9448   5.296   3.053   4.326 -0.3147  0.3940 -1.4742
 3162TIP3   OH2 9449   1.475   2.617   3.191 -0.1299  0.1366 -0.2809
 3162TIP3    H1 9450   1.409   2.548   3.189  0.7212 -0.7345  0.6675
 3162TIP3    H2 9451   1.557   2.572   3.174  0.5224  0.7926  1.0009
 3163TIP3   OH2 9452   1.437   4.794   1.962  0.2557  0.3020 -0.2547
 3163TIP3    H1 9453   1.456   4.818   2.052  0.7486 -0.6764 -0.0854
 3163TIP3    H2 9454   1.344   4.815   1.950  0.0959  0.0763  0.5887
 3164TIP3   OH2 9455   4.451   6.154   0.417 -0.0530  0.0132  0.2565
 3164TIP3    H1 9456   4.415   6.078   0.371  1.1785  0.4453 -1.5541
 3164TIP3    H2 9457   4.376   6.211   0.433 -0.4298  0.2692 -2.1319
 3165TIP3   OH2 9458   1.890   6.318   2.746 -0.3870 -0.2282 -0.1636
 3165TIP3    H1 9459   1.819   6.269   2.787 -1.1706  0.5754 -0.5227
 3165TIP3    H2 9460   1.935   6.361   2.818 -0.9086  0.0859 -0.0248
 3166TIP3   OH2 9461   4.717   5.179   4.696  0.2211  0.0834 -0.6659
 3166TIP3    H1 9462   4.625   5.172   4.672 -0.7981  0.5277  2.5754
 3166TIP3    H2 9463   4.739   5.271   4.683  0.0884  0.0666 -1.0153
 3167TIP3   OH2 9464   5.898   1.586   5.023 -0.4807 -0.1478  0.5978
 3167TIP3    H1 9465   5.967   1.617   5.082 -0.5819 -0.0614  0.6717
 3167TIP3    H2 9466   5.817   1.620   5.062 -0.3732  2.0729 -0.9104
 3168TIP3   OH2 9467   5.336   0.449   1.392  0.6249  0.5484 -0.1819
 3168TIP3    H1 9468   5.258   0.484   1.349 -0.5372 -1.0963  0.4730
 3168TIP3    H2 9469   5.321   0.463   1.485  1.9249  1.7195 -0.1162
 3169TIP3   OH2 9470   6.826   5.477   0.008  0.1778 -0.2245  0.4887
 3169TIP3    H1 9471   6.898   5.539   0.015 -1.7076  2.2379 -0.6779
 3169TIP3    H2 9472   6.783   5.481   0.094 -0.9331  1.4666 -0.1010
 3170TIP3   OH2 9473   2.206   3.315   0.858 -0.2600  0.2325  0.0691
 3170TIP3    H1 9474   2.232   3.399   0.896 -0.3770  0.7124 -0.8867
 3170TIP3    H2 9475   2.112   3.309   0.875 -0.0249 -0.3268  1.2867
 3171TIP3   OH2 9476   2.189   2.605   1.145  0.5484  0.3634 -0.0879
 3171TIP3    H1 9477   2.197   2.632   1.237  0.2340 -1.3573  0.4772
 3171TIP3    H2 9478   2.198   2.687   1.096  0.2031  1.4085  1.4913
 3172TIP3   OH2 9479   4.503   4.249   2.884  0.7840  0.3579  0.3047
 3172TIP3    H1 9480   4.565   4.263   2.813 -0.0737  1.7563 -0.2242
 3172TIP3    H2 9481   4.437   4.190   2.848 -0.2069  1.8739 -0.4679
 3173TIP3   OH2 9482   6.653   6.115   2.078  0.3911 -0.0012 -0.3550
 3173TIP3    H1 9483   6.679   6.027   2.049  0.9465  0.0469 -0.0174
 3173TIP3    H2 9484   6.685   6.121   2.168  0.5420  0.6219 -0.4448
 3174TIP3   OH2 9485   6.863   1.034   0.521 -0.9129  0.3517  0.2017
 3174TIP3    H1 9486   6.896   0.970   0.584  0.3958  0.1135 -0.6885
 3174TIP3    H2 9487   6.769   1.039   0.539 -0.8977 -1.1671  0.8781
 3175TIP3   OH2 9488   4.259   2.224   4.795 -0.2211 -0.1958 -0.3001
 3175TIP3    H1 9489   4.309   2.299   4.828  0.6582 -1.6042  1.7528
 3175TIP3    H2 9490   4.247   2.243   4.702  0.5450  2.1549  0.0009
 3176TIP3   OH2 9491   2.321   3.890   1.473 -0.0998 -0.3380 -0.3893
 3176TIP3    H1 9492   2.226   3.900   1.476 -0.2144 -1.1018  2.8221
 3176TIP3    H2 9493   2.355   3.978   1.486 -0.3546 -0.1448 -0.9890
 3177TIP3   OH2 9494   5.299   4.886   5.198 -0.1522  0.2098  0.1276
 3177TIP3    H1 9495   5.327   4.931   5.118 -0.3594  0.2621  0.0836
 3177TIP3    H2 9496   5.220   4.839   5.173 -0.6325  0.8154  0.4846
 3178TIP3   OH2 9497   5.420   6.320   0.532 -0.3060  0.0102 -0.5117
 3178TIP3    H1 9498   5.396   6.230   0.508 -0.6115  0.3445 -1.4851
 3178TIP3    H2 9499   5.470   6.352   0.457  0.1008  0.5396 -0.0164
 3179TIP3   OH2 9500   1.931   5.029   1.900  0.1689 -0.1251  0.0735
 3179TIP3    H1 9501   1.844   4.993   1.919  0.1210 -0.0743 -0.0446
 3179TIP3    H2 9502   1.913   5.114   1.860  0.1796 -1.1271 -2.2232
 3180TIP3   OH2 9503   1.550   0.859   3.490  0.0396 -0.9842  0.1893
 3180TIP3    H1 9504   1.562   0.784   3.432 -0.4214 -1.1194  0.2650
 3180TIP3    H2 9505   1.484   0.830   3.553  0.2236 -0.6894  0.5210
 3181TIP3   OH2 9506   1.464   1.220   0.630 -0.0406  0.4293 -0.0392
 3181TIP3    H1 9507   1.495   1.276   0.702  0.7044  0.1319 -0.1217
 3181TIP3    H2 9508   1.543   1.198   0.581 -0.5115  0.4005 -0.7943
 3182TIP3   OH2 9509   3.337   3.799   0.526 -0.1475  0.2007 -0.4488
 3182TIP3    H1 9510   3.432   3.795   0.543  0.0761 -0.9302 -1.7654
 3182TIP3    H2 9511   3.320   3.723   0.471 -2.0357 -0.2407  0.6708
 3183TIP3   OH2 9512   1.536   1.091   1.768  0.4392  0.0624  0.2894
 3183TIP3    H1 9513   1.620   1.087   1.724  1.1000  0.0489  1.4989
 3183TIP3    H2 9514   1.495   1.171   1.735  0.6259 -0.2855 -0.8079
 3184TIP3   OH2 9515   0.886   2.547   1.036 -0.0490  0.3026  0.5316
 3184TIP3    H1 9516   0.795   2.559   1.008  0.2030 -0.8238 -0.8694
 3184TIP3    H2 9517   0.902   2.453   1.028  2.0308  0.7648 -1.9120
 3185TIP3   OH2 9518   3.442   5.862   5.194 -0.0403 -0.6887 -0.0855
 3185TIP3    H1 9519   3.524   5.831   5.232  0.5315  1.2459  0.3902
 3185TIP3    H2 9520   3.395   5.903   5.267  0.3322  1.6234 -1.0399
 3186TIP3   OH2 9521   4.777   1.701   3.547  0.3419 -0.3342  0.1540
 3186TIP3    H1 9522   4.699   1.718   3.494  0.2711 -1.4986 -0.1514
 3186TIP3    H2 9523   4.850   1.705   3.484  0.8110  2.5943  0.7355
 3187TIP3   OH2 9524   3.974   3.014   5.817 -0.0469  0.1002 -0.0041
 3187TIP3    H1 9525   3.884   3.045   5.821  0.5304  1.7647  1.6572
 3187TIP3    H2 9526   3.969   2.921   5.838 -1.0710  1.0488  5.5157
 3188TIP3   OH2 9527   4.774   6.347   4.880  0.9205  0.3490 -0.0153
 3188TIP3    H1 9528   4.712   6.288   4.837  1.8237 -2.3975  2.1554
 3188TIP3    H2 9529   4.728   6.378   4.958  1.7382 -0.5839  0.8645
 3189TIP3   OH2 9530   4.747   5.025   0.036  0.3383  0.0601  0.0935
 3189TIP3    H1 9531   4.806   5.098   0.053  0.2511  0.4051 -1.0192
 3189TIP3    H2 9532   4.683   5.060  -0.026  1.0114 -1.2776 -1.4309
 3190TIP3   OH2 9533   3.985   4.026   2.881 -0.6551  0.4799  0.4201
 3190TIP3    H1 9534   4.002   3.943   2.927  0.2350  0.6551  0.4408
 3190TIP3    H2 9535   4.033   4.017   2.798 -1.5806  0.4896 -0.1243
 3191TIP3   OH2 9536   2.767   6.072   5.644  0.2238  0.4253  0.9899
 3191TIP3    H1 9537   2.749   6.003   5.708  0.6774  1.2011  1.9822
 3191TIP3    H2 9538   2.688   6.074   5.589  0.6711 -1.6275  0.2080
 3192TIP3   OH2 9539   2.520   2.324   1.390 -0.3169  0.1381  0.5737
 3192TIP3    H1 9540   2.430   2.328   1.359 -0.2097  1.1293  0.3702
 3192TIP3    H2 9541   2.565   2.270   1.325 -0.2483  1.6092 -0.6701
 3193TIP3   OH2 9542   1.277   4.800   1.610 -0.2926  0.2763 -0.0486
 3193TIP3    H1 9543   1.257   4.847   1.528  0.2600  0.2135 -0.2238
 3193TIP3    H2 9544   1.366   4.828   1.632 -0.3241  0.0501  0.3685
 3194TIP3   OH2 9545   5.380   1.509   5.354 -0.0398 -0.0254 -0.4877
 3194TIP3    H1 9546   5.371   1.450   5.279 -1.3666  1.7004 -1.7419
 3194TIP3    H2 9547   5.297   1.555   5.358  0.5737  0.9899  1.1459
 3195TIP3   OH2 9548   1.903   0.376   1.874 -0.3077 -0.4483 -0.2606
 3195TIP3    H1 9549   1.891   0.454   1.820 -0.4556 -0.9681 -0.9894
 3195TIP3    H2 9550   1.927   0.410   1.960  1.0370  0.3761 -0.9282
 3196TIP3   OH2 9551   5.045   2.657   1.629 -0.9599 -0.1291  0.0350
 3196TIP3    H1 9552   5.099   2.725   1.589 -1.4411 -0.1668 -0.7044
 3196TIP3    H2 9553   5.023   2.692   1.716 -1.1610  0.6514 -0.3166
 3197TIP3   OH2 9554   7.209   3.385   4.693  0.3631 -0.2654  0.2194
 3197TIP3    H1 9555   7.140   3.345   4.641 -1.5959 -0.7245  2.9582
 3197TIP3    H2 9556   7.201   3.344   4.779  2.8476  1.0624  1.2002
 3198TIP3   OH2 9557   7.137   4.235   1.317 -0.0545 -0.9434 -0.1761
 3198TIP3    H1 9558   7.135   4.200   1.229 -1.0912 -1.4823  0.0464
 3198TIP3    H2 9559   7.167   4.325   1.307  0.0146 -1.0636 -1.0542
 3199TIP3   OH2 9560   1.790   5.455   2.789  0.1455  0.5231 -0.3150
 3199TIP3    H1 9561   1.771   5.381   2.730 -0.2110  0.1471  0.2661
 3199TIP3    H2 9562   1.869   5.494   2.752  0.7590 -0.5851 -0.2416
 3200TIP3   OH2 9563   4.017   4.743   4.697  0.1968 -0.0646 -0.3597
 3200TIP3    H1 9564   3.959   4.812   4.726 -0.8458 -1.3948  0.8480
 3200TIP3    H2 9565   3.960   4.680   4.653  1.2333  0.1652 -2.1585
 3201TIP3   OH2 9566   1.723   4.096   2.951  0.4810 -0.8573  0.5649
 3201TIP3    H1 9567   1.629   4.089   2.937  0.7751 -2.1213 -1.0963
 3201TIP3    H2 9568   1.739   4.190   2.963 -0.8453 -0.5156 -0.2079
 3202TIP3   OH2 9569   0.133   3.316   5.711  0.1219  0.3025  0.0046
 3202TIP3    H1 9570   0.198   3.386   5.717  0.5754 -0.2161  2.0592
 3202TIP3    H2 9571   0.131   3.292   5.618  1.5975  1.4926 -0.3645
 3203TIP3   OH2 9572   1.181   3.123   4.524  0.2909 -0.3888  0.5007
 3203TIP3    H1 9573   1.190   3.151   4.615  0.3408 -0.8000  0.6205
 3203TIP3    H2 9574   1.171   3.028   4.528 -0.3429 -0.3394  0.1149
 3204TIP3   OH2 9575   3.733   5.048   3.524  0.9949  0.1216  0.0365
 3204TIP3    H1 9576   3.767   5.123   3.474  1.6567 -1.5381 -2.2078
 3204TIP3    H2 9577   3.638   5.049   3.508  0.8405  1.1280  0.9864
 3205TIP3   OH2 9578   3.985   0.286   5.049 -0.7297 -0.1199 -0.0422
 3205TIP3    H1 9579   3.998   0.247   4.962 -1.9321  0.6210 -0.5828
 3205TIP3    H2 9580   4.072   0.287   5.088 -0.0723  0.0224 -1.4527
 3206TIP3   OH2 9581   3.626   0.349   5.151 -0.3303 -0.1297 -0.4684
 3206TIP3    H1 9582   3.565   0.372   5.221 -0.6427  0.9843 -1.0930
 3206TIP3    H2 9583   3.668   0.431   5.127  1.3706 -0.8510 -0.1200
 3207TIP3   OH2 9584   6.460   6.379   1.113 -0.7810 -0.1502  0.5436
 3207TIP3    H1 9585   6.427   6.415   1.031 -1.0930  0.6186  1.0005
 3207TIP3    H2 9586   6.430   6.288   1.113  0.3912 -0.5730 -0.8209
 3208TIP3   OH2 9587   6.728   2.892   0.481  0.5206  0.2295 -0.8365
 3208TIP3    H1 9588   6.804   2.842   0.511 -0.5694 -1.0644 -0.0684
 3208TIP3    H2 9589   6.760   2.943   0.407  2.0664 -0.4698 -0.6900
 3209TIP3   OH2 9590   3.303   5.868   5.736  0.2913 -0.1723  0.3550
 3209TIP3    H1 9591   3.213   5.834   5.740  0.2957 -0.2488 -0.1580
 3209TIP3    H2 9592   3.302   5.946   5.791 -0.4717  0.6874 -0.8467
 3210TIP3   OH2 9593   3.391   6.371   4.587 -0.1256  0.5591  0.5058
 3210TIP3    H1 9594   3.424   6.406   4.670 -1.7538 -1.6640  2.2348
 3210TIP3    H2 9595   3.463   6.381   4.525  1.2980  1.9207  2.3023
 3211TIP3   OH2 9596   3.412   6.061   2.309  0.5151 -0.4713 -0.5062
 3211TIP3    H1 9597   3.503   6.038   2.329 -0.1092 -2.3010  0.4339
 3211TIP3    H2 9598   3.392   6.012   2.230  0.8949  1.4928 -1.9018
 3212TIP3   OH2 9599   3.288   4.318   1.841 -0.4392  1.0715  0.2204
 3212TIP3    H1 9600   3.229   4.258   1.886  2.3898 -3.4492 -1.3694
 3212TIP3    H2 9601   3.257   4.321   1.751  1.8451 -2.0591 -0.8561
 3213TIP3   OH2 9602   3.467   0.113   1.877  0.5702  0.8204  0.2649
 3213TIP3    H1 9603   3.507   0.028   1.859  0.2910  0.8941 -0.7363
 3213TIP3    H2 9604   3.402   0.095   1.945 -0.3169 -0.0047 -0.7692
 3214TIP3   OH2 9605   1.183   4.270   5.251  0.3140 -0.4962 -0.0319
 3214TIP3    H1 9606   1.201   4.178   5.270 -0.6284 -0.9948 -1.3793
 3214TIP3    H2 9607   1.200   4.279   5.157  3.7183  1.5693  0.5817
 3215TIP3   OH2 9608   1.119   5.361   0.864  0.0813  0.4304  0.5881
 3215TIP3    H1 9609   1.192   5.422   0.849  0.4227  0.3020  1.6333
 3215TIP3    H2 9610   1.058   5.410   0.919  0.4087 -0.1932  1.5288
 3216TIP3   OH2 9611   5.715   2.766   4.759 -0.5220 -0.0690  0.5182
 3216TIP3    H1 9612   5.716   2.855   4.723 -0.1108 -0.5973 -0.8605
 3216TIP3    H2 9613   5.761   2.714   4.693 -1.5775 -1.4726  0.8555
 3217TIP3   OH2 9614   2.803   6.002   1.776 -0.3186  0.2132 -0.5230
 3217TIP3    H1 9615   2.764   5.915   1.783  1.7203 -0.6683  0.7896
 3217TIP3    H2 9616   2.791   6.027   1.684 -3.0066 -0.3824 -0.4018
 3218TIP3   OH2 9617   1.961   2.642   3.989  0.0889 -0.1334 -0.2521
 3218TIP3    H1 9618   2.046   2.611   3.960  0.3031  0.1686  0.0513
 3218TIP3    H2 9619   1.917   2.565   4.023  0.9278  0.0308  1.2603
 3219TIP3   OH2 9620   2.797   0.074   4.250 -0.1116 -0.2886  0.2494
 3219TIP3    H1 9621   2.850   0.103   4.324 -2.2310  0.3210  1.6244
 3219TIP3    H2 9622   2.736   0.011   4.288 -1.4165  0.2425 -0.9153
 3220TIP3   OH2 9623   1.801   4.191   1.012  0.2349 -0.8893 -0.7141
 3220TIP3    H1 9624   1.741   4.192   1.087 -2.1619  2.9921 -2.4024
 3220TIP3    H2 9625   1.888   4.196   1.051 -0.8658 -0.2342  1.8668
 3221TIP3   OH2 9626   4.641   0.829   1.552  0.1258  0.2507 -0.5389
 3221TIP3    H1 9627   4.670   0.900   1.495  1.4088  0.8371  0.7887
 3221TIP3    H2 9628   4.656   0.749   1.500  0.7207  0.7996 -1.2258
 3222TIP3   OH2 9629   7.031   0.374   5.827  0.0162  0.4045 -0.5086
 3222TIP3    H1 9630   6.949   0.388   5.874  0.9471  1.3219  0.9324
 3222TIP3    H2 9631   7.096   0.356   5.895  1.5894  2.5352 -1.2917
 3223TIP3   OH2 9632   1.599   3.652   0.550 -0.8103 -0.1982  0.0284
 3223TIP3    H1 9633   1.509   3.641   0.581 -0.8371  0.4302  0.1811
 3223TIP3    H2 9634   1.594   3.721   0.484 -0.4368 -0.1469  0.0482
 3224TIP3   OH2 9635   6.776   5.504   4.472 -0.3392  0.5597 -0.2301
 3224TIP3    H1 9636   6.711   5.446   4.433 -1.1219  1.6397 -0.5622
 3224TIP3    H2 9637   6.794   5.570   4.405  2.0401 -0.3904 -0.6247
 3225TIP3   OH2 9638   6.730   5.715   4.285 -0.0075  0.3269 -0.2016
 3225TIP3    H1 9639   6.655   5.767   4.315 -1.0184 -1.3526  0.2653
 3225TIP3    H2 9640   6.788   5.779   4.244 -0.2490  2.1750  2.1046
 3226TIP3   OH2 9641   4.638   6.300   3.940  0.0985  0.1344 -0.0133
 3226TIP3    H1 9642   4.583   6.233   3.980  1.0428 -0.9305 -0.4277
 3226TIP3    H2 9643   4.666   6.355   4.013 -0.3816 -0.1508  0.3892
 3227TIP3   OH2 9644   5.377   6.632   2.066  0.2902 -0.1356  0.1639
 3227TIP3    H1 9645   5.433   6.666   1.997 -0.5306  3.1958  0.9338
 3227TIP3    H2 9646   5.296   6.608   2.022  0.8097 -0.9173 -0.3840
 3228TIP3   OH2 9647   4.055   1.314   4.364  0.1471 -0.1108 -0.2954
 3228TIP3    H1 9648   4.066   1.253   4.438  2.2253 -0.3400 -0.7364
 3228TIP3    H2 9649   3.978   1.366   4.388 -1.7339 -2.8340  0.1404
 3229TIP3   OH2 9650   3.739   1.287   3.770 -0.6059  0.2076  0.4515
 3229TIP3    H1 9651   3.741   1.355   3.703 -3.4027  0.3499  0.4195
 3229TIP3    H2 9652   3.675   1.223   3.737  1.0940 -1.9080  1.0223
 3230TIP3   OH2 9653   5.954   0.549   1.288  0.5784  0.2983  0.1539
 3230TIP3    H1 9654   5.976   0.558   1.381  1.6121  2.0702 -0.2195
 3230TIP3    H2 9655   6.038   0.558   1.243 -0.0584  0.5963 -1.0088
 3231TIP3   OH2 9656   6.716   0.831   3.692 -0.0543 -0.3752  0.2157
 3231TIP3    H1 9657   6.677   0.892   3.629  0.6918  0.4426  0.5248
 3231TIP3    H2 9658   6.655   0.830   3.765 -1.1037 -1.5974 -0.6403
 3232TIP3   OH2 9659   6.943   4.233   3.429  0.1345 -0.5617  0.4481
 3232TIP3    H1 9660   6.981   4.280   3.504  2.3462  0.2471 -1.0780
 3232TIP3    H2 9661   6.867   4.187   3.466 -0.4221  1.8428  2.6415
 3233TIP3   OH2 9662   3.157   5.907   3.898 -0.0422  0.5378 -0.5386
 3233TIP3    H1 9663   3.223   5.896   3.829  0.8652 -0.2127  0.4132
 3233TIP3    H2 9664   3.161   6.000   3.919  0.7470  0.5006 -0.4806
 3234TIP3   OH2 9665   2.893   1.750   4.148 -0.0562 -0.0315  0.2293
 3234TIP3    H1 9666   2.983   1.765   4.119  0.6109 -0.4512  1.9327
 3234TIP3    H2 9667   2.901   1.735   4.242 -1.7550 -1.4213  0.2000
 3235TIP3   OH2 9668   2.616   2.739   2.071 -0.5403  0.3158  0.2703
 3235TIP3    H1 9669   2.598   2.704   2.159  1.8258 -1.9090  0.0173
 3235TIP3    H2 9670   2.675   2.813   2.087 -0.2995  0.0621  0.5728
 3236TIP3   OH2 9671   1.425   5.405   5.633 -0.0640  0.4615  0.0208
 3236TIP3    H1 9672   1.346   5.433   5.586  0.8030 -0.3299 -2.0244
 3236TIP3    H2 9673   1.414   5.311   5.644  0.3224  0.4486  0.2811
 3237TIP3   OH2 9674   6.267   3.125   5.266  0.1342 -0.2103  0.1071
 3237TIP3    H1 9675   6.360   3.103   5.258  0.1903  0.2054 -0.4493
 3237TIP3    H2 9676   6.265   3.210   5.310  0.1618  1.0668 -2.2151
 3238TIP3   OH2 9677   4.504   4.395   5.484 -0.4542 -0.4677  0.0454
 3238TIP3    H1 9678   4.466   4.308   5.495 -0.9977 -0.2765 -0.2927
 3238TIP3    H2 9679   4.516   4.405   5.390 -0.7919 -0.0085  0.0486
 3239TIP3   OH2 9680   3.166   3.701   4.344 -0.0862 -0.3123  0.2177
 3239TIP3    H1 9681   3.243   3.671   4.391  0.1199 -1.0553 -0.5741
 3239TIP3    H2 9682   3.198   3.727   4.258 -0.4918  0.8201  0.3967
 3240TIP3   OH2 9683   4.860   0.688   0.301  0.9945 -0.3511 -0.5439
 3240TIP3    H1 9684   4.776   0.703   0.344  0.9571 -1.2225 -0.3115
 3240TIP3    H2 9685   4.925   0.711   0.368  0.9353 -1.2414 -0.1628
 3241TIP3   OH2 9686   4.659   5.127   3.329  0.4543 -0.0813 -0.0010
 3241TIP3    H1 9687   4.710   5.193   3.375 -0.4263 -0.8351  2.2039
 3241TIP3    H2 9688   4.581   5.113   3.384  1.0168 -3.5548  0.1931
 3242TIP3   OH2 9689   1.091   6.109   5.507 -0.2363  0.0971  0.3704
 3242TIP3    H1 9690   1.034   6.053   5.560  0.4403 -0.7935  0.1745
 3242TIP3    H2 9691   1.179   6.095   5.542  0.3024 -0.8963 -1.2755
 3243TIP3   OH2 9692   5.070   0.638   2.235  0.1225  0.0329  0.0325
 3243TIP3    H1 9693   5.052   0.715   2.182 -0.6502 -0.2597 -0.1443
 3243TIP3    H2 9694   5.049   0.564   2.177  1.9590 -0.3488 -0.2093
 3244TIP3   OH2 9695   3.634   0.281   4.650 -0.5052 -0.2460  0.3894
 3244TIP3    H1 9696   3.592   0.330   4.579  0.1407 -0.0539  0.1349
 3244TIP3    H2 9697   3.723   0.315   4.653 -0.4866 -0.3530  1.2053
 3245TIP3   OH2 9698   2.841   6.048   1.007 -0.1566  0.3598 -0.2940
 3245TIP3    H1 9699   2.898   5.979   0.972  1.7050  2.3179 -1.3698
 3245TIP3    H2 9700   2.841   6.116   0.939 -1.1477  1.8293  1.0932
 3246TIP3   OH2 9701   2.686   6.628   3.085 -0.2234 -0.0768  0.3069
 3246TIP3    H1 9702   2.703   6.715   3.051 -0.3824  0.5375  1.7218
 3246TIP3    H2 9703   2.663   6.642   3.177 -0.7597 -1.5623  0.4339
 3247TIP3   OH2 9704   3.021   4.232   0.345  0.6006  0.0454 -0.2689
 3247TIP3    H1 9705   3.014   4.240   0.250  1.3551 -0.7618 -0.3983
 3247TIP3    H2 9706   3.098   4.283   0.368 -1.9254  3.8993  0.4637
 3248TIP3   OH2 9707   7.158   2.398   2.009  0.1366 -0.3304 -0.1555
 3248TIP3    H1 9708   7.249   2.383   2.036 -0.4447 -0.8791  1.6421
 3248TIP3    H2 9709   7.117   2.312   2.018 -0.7186  0.0563 -0.3393
 3249TIP3   OH2 9710   2.931   2.533   2.220  0.4541 -0.7796  0.1863
 3249TIP3    H1 9711   2.904   2.459   2.167 -0.8640  0.3526 -0.8285
 3249TIP3    H2 9712   2.850   2.582   2.235  1.4267  0.9791 -0.0251
 3250TIP3   OH2 9713   4.416   3.911   0.317 -0.0126 -0.2988 -0.0861
 3250TIP3    H1 9714   4.410   3.934   0.410 -1.2431 -0.4974 -0.1005
 3250TIP3    H2 9715   4.332   3.937   0.280  1.5809  2.8853 -1.9196
 3251TIP3   OH2 9716   0.744   5.762   2.056 -0.0902 -0.2222  0.0818
 3251TIP3    H1 9717   0.818   5.803   2.101  0.0468 -0.6681  0.2627
 3251TIP3    H2 9718   0.676   5.830   2.055  0.0122 -0.1099  0.6899
 3252TIP3   OH2 9719   4.086   3.162   0.865 -0.0080  0.2575  0.2394
 3252TIP3    H1 9720   4.083   3.092   0.931  0.8889 -0.2398 -0.2381
 3252TIP3    H2 9721   4.115   3.239   0.914  2.7396 -0.5817  0.0698
 3253TIP3   OH2 9722   4.825   2.515   4.268 -0.0616 -0.0647  0.1537
 3253TIP3    H1 9723   4.874   2.497   4.348  0.0590 -1.9827 -0.3034
 3253TIP3    H2 9724   4.771   2.591   4.289 -0.4572 -0.8667  2.2675
 3254TIP3   OH2 9725   0.369   6.648   3.982  0.2259  0.6436  0.2110
 3254TIP3    H1 9726   0.416   6.584   4.037  0.2871  0.1210 -0.4417
 3254TIP3    H2 9727   0.283   6.656   4.023 -0.0798 -0.5005 -0.1856
 3255TIP3   OH2 9728   4.289   5.029   4.141  0.3676 -0.0384  0.2352
 3255TIP3    H1 9729   4.288   4.981   4.058 -1.5275 -0.0819  0.2504
 3255TIP3    H2 9730   4.313   4.963   4.207  1.9784  0.0182 -0.2370
 3256TIP3   OH2 9731   2.776   6.761   1.083 -0.3222 -0.5066  0.0805
 3256TIP3    H1 9732   2.829   6.796   1.012 -1.4347 -0.5340 -0.8043
 3256TIP3    H2 9733   2.702   6.822   1.091  0.7796  0.6566  2.6174
 3257TIP3   OH2 9734   0.694   1.456   1.430 -0.1337 -0.0097  0.2021
 3257TIP3    H1 9735   0.675   1.486   1.341  1.7055 -0.6845 -0.4791
 3257TIP3    H2 9736   0.732   1.369   1.418  1.0796  0.2901  1.5428
 3258TIP3   OH2 9737   2.331   3.895   5.192  0.3169  0.5366 -0.6414
 3258TIP3    H1 9738   2.238   3.876   5.188  0.4466  0.0115 -1.4541
 3258TIP3    H2 9739   2.372   3.810   5.211  0.6647  0.6610 -0.8282
 3259TIP3   OH2 9740   0.093   5.350   5.746  0.2021 -0.5021  0.0126
 3259TIP3    H1 9741   0.018   5.341   5.687  0.4376  2.0294 -0.7902
 3259TIP3    H2 9742   0.056   5.339   5.834 -0.4881 -2.4207 -0.4782
 3260TIP3   OH2 9743   1.224   2.352   4.040 -0.6324  0.2962 -0.2521
 3260TIP3    H1 9744   1.292   2.387   3.983 -1.5888 -0.5397 -1.9839
 3260TIP3    H2 9745   1.262   2.273   4.078 -0.8897 -0.6403 -1.8829
 3261TIP3   OH2 9746   4.854   1.552   5.544  0.2816  0.1971  0.3359
 3261TIP3    H1 9747   4.928   1.496   5.519 -0.4375 -0.3374 -0.6799
 3261TIP3    H2 9748   4.885   1.600   5.621  2.1203  0.8854 -0.7636
 3262TIP3   OH2 9749   2.710   0.079   2.540  0.4150 -0.4562 -0.3802
 3262TIP3    H1 9750   2.618   0.076   2.568  0.2587 -0.7727 -0.9106
 3262TIP3    H2 9751   2.731  -0.012   2.518  0.0992 -0.0353 -2.6020
 3263TIP3   OH2 9752   4.803   5.289   4.982 -0.7318 -0.5379  0.7835
 3263TIP3    H1 9753   4.867   5.233   5.027 -0.2805 -0.5729  0.1223
 3263TIP3    H2 9754   4.833   5.290   4.891 -1.2140  0.1135  0.6281
 3264TIP3   OH2 9755   3.069   0.117   3.061 -0.4104  0.3868 -0.1363
 3264TIP3    H1 9756   3.087   0.045   3.121  0.3038 -2.0829 -3.0923
 3264TIP3    H2 9757   2.983   0.150   3.089  0.4843  0.4115  3.0370
 3265TIP3   OH2 9758   5.106   2.913   0.230 -0.2324 -0.4619  0.0897
 3265TIP3    H1 9759   5.147   2.984   0.278 -0.2670 -0.5893  0.3073
 3265TIP3    H2 9760   5.040   2.956   0.175 -0.5361 -0.3682  0.5243
 3266TIP3   OH2 9761   1.760   1.705   5.395 -0.5703  0.2176 -0.1728
 3266TIP3    H1 9762   1.753   1.765   5.321  0.9599  0.5562 -0.0654
 3266TIP3    H2 9763   1.836   1.651   5.376 -0.1430  0.3097  1.1509
 3267TIP3   OH2 9764   5.204   4.908   4.181  0.1795  0.3806  0.4077
 3267TIP3    H1 9765   5.139   4.924   4.112  0.9934  2.9617  0.1480
 3267TIP3    H2 9766   5.288   4.931   4.140  0.8736  0.3400  1.7735
 3268TIP3   OH2 9767   2.335   4.792   1.732  0.4021 -0.7933 -0.0632
 3268TIP3    H1 9768   2.383   4.781   1.650 -1.3084  1.1817 -1.4651
 3268TIP3    H2 9769   2.402   4.808   1.798  1.7577  0.4583 -1.6557
 3269TIP3   OH2 9770   3.174   3.145   3.285 -0.4573 -0.5730 -0.5111
 3269TIP3    H1 9771   3.220   3.156   3.368 -0.1769 -0.6141 -0.6606
 3269TIP3    H2 9772   3.228   3.084   3.235 -0.5660 -0.4628 -0.7673
 3270TIP3   OH2 9773   4.411   6.219   2.000  0.7785  0.0591  0.6837
 3270TIP3    H1 9774   4.433   6.261   2.083 -1.9998  1.6873  0.7453
 3270TIP3    H2 9775   4.460   6.268   1.935  1.3863  0.1418  1.1940
 3271TIP3   OH2 9776   5.703   0.167   3.674  0.4787 -0.3124 -0.1453
 3271TIP3    H1 9777   5.663   0.215   3.746 -0.9082 -0.7401 -0.5986
 3271TIP3    H2 9778   5.689   0.223   3.597  3.1994  0.8174  0.0857
 3272TIP3   OH2 9779   5.675   0.150   0.856  0.0028  0.2984  0.3587
 3272TIP3    H1 9780   5.721   0.213   0.912 -0.2585  0.4323  0.4272
 3272TIP3    H2 9781   5.599   0.199   0.823  1.2212  0.8734 -1.7377
 3273TIP3   OH2 9782   6.121   1.857   0.067 -0.4359 -0.1599 -0.0953
 3273TIP3    H1 9783   6.026   1.867   0.065 -0.4864 -0.6594 -0.2763
 3273TIP3    H2 9784   6.147   1.900   0.149 -1.0235 -1.5887  0.8991
 3274TIP3   OH2 9785   7.095   4.011   0.811 -0.6046  0.6221  0.2859
 3274TIP3    H1 9786   7.088   3.926   0.855 -0.5198  0.6814  0.4173
 3274TIP3    H2 9787   7.062   3.996   0.723 -0.4736  0.4226  0.2707
 3275TIP3   OH2 9788   3.091   0.050   0.166  0.0892 -0.5344  0.3922
 3275TIP3    H1 9789   3.134   0.050   0.251  2.3561 -2.4139 -0.6406
 3275TIP3    H2 9790   3.138   0.116   0.115 -0.3227 -0.4248  0.1450
 3276TIP3   OH2 9791   2.087   6.552   3.088 -0.8579 -0.2042 -0.7108
 3276TIP3    H1 9792   2.031   6.541   3.165 -0.2961  0.3191 -0.2132
 3276TIP3    H2 9793   2.126   6.466   3.074  0.1064  0.0031  0.4582
 3277TIP3   OH2 9794   3.368   4.347   2.281 -0.0615 -0.3750 -0.0410
 3277TIP3    H1 9795   3.338   4.426   2.235  1.0509  0.6695  0.9687
 3277TIP3    H2 9796   3.424   4.379   2.351  1.9356 -2.1388 -0.7137
 3278TIP3   OH2 9797   2.267   3.657   3.031 -0.1750 -0.0598  0.2672
 3278TIP3    H1 9798   2.177   3.674   3.059 -0.4855  1.3292 -1.3904
 3278TIP3    H2 9799   2.259   3.585   2.968 -0.6022  1.8949 -2.0545
 3279TIP3   OH2 9800   4.140   1.090   5.109  0.3683  0.5060  0.1462
 3279TIP3    H1 9801   4.218   1.036   5.107  0.5092  0.6665  1.2336
 3279TIP3    H2 9802   4.171   1.177   5.133  0.0351  0.8993 -0.7954
 3280TIP3   OH2 9803   7.137   3.530   1.391  0.3045 -0.4881  0.9979
 3280TIP3    H1 9804   7.092   3.578   1.460  1.2820  0.6404  0.8963
 3280TIP3    H2 9805   7.196   3.470   1.436 -0.5055 -1.2064  1.1257
 3281TIP3   OH2 9806   4.983   5.028   0.705 -0.1568  0.1650 -0.2698
 3281TIP3    H1 9807   4.969   4.973   0.627 -1.9137 -0.8116  0.6764
 3281TIP3    H2 9808   4.940   5.111   0.684  0.1314  0.2188 -0.6646
 3282TIP3   OH2 9809   0.506   1.847   1.256  0.1036  0.1372 -0.3646
 3282TIP3    H1 9810   0.482   1.811   1.341  2.7310 -2.8190 -0.6897
 3282TIP3    H2 9811   0.579   1.906   1.275  0.6699 -0.4987 -0.5510
 3283TIP3   OH2 9812   0.027   2.874   5.828 -0.5342  0.0060 -0.2950
 3283TIP3    H1 9813   0.062   2.785   5.828  0.8116  0.4756  1.6372
 3283TIP3    H2 9814   0.043   2.905   5.739  0.6947 -1.0578 -0.4894
 3284TIP3   OH2 9815   2.234   2.394   3.518 -0.4829 -0.5877 -0.0526
 3284TIP3    H1 9816   2.238   2.334   3.444  3.0681 -1.9913  1.0674
 3284TIP3    H2 9817   2.212   2.339   3.593  0.5419 -0.0902  0.6418
 3285TIP3   OH2 9818   4.043   5.695   3.586  0.0233  0.2513 -0.3768
 3285TIP3    H1 9819   4.051   5.749   3.508  0.9006  1.9954  0.8608
 3285TIP3    H2 9820   4.107   5.731   3.647  1.4174 -2.8360  0.1920
 3286TIP3   OH2 9821   1.470   0.598   2.532  0.3189 -0.1807 -0.4500
 3286TIP3    H1 9822   1.453   0.692   2.523 -1.4766 -0.5674 -1.7203
 3286TIP3    H2 9823   1.506   0.589   2.620 -0.7624  1.5412  0.2354
 3287TIP3   OH2 9824   6.929  -0.004   3.616 -0.1926  0.2809  0.8294
 3287TIP3    H1 9825   6.863   0.056   3.581  0.0206  1.1053  1.7953
 3287TIP3    H2 9826   6.980  -0.031   3.539 -1.2422  0.1345  0.1675
 3288TIP3   OH2 9827   4.260   5.783   4.342  0.1147  0.7028  0.3388
 3288TIP3    H1 9828   4.283   5.690   4.341 -1.1061  0.3734  0.3297
 3288TIP3    H2 9829   4.230   5.801   4.253  0.8322  1.2445  0.2032
 3289TIP3   OH2 9830   5.030   4.277   0.420 -0.3609  0.2429 -0.0045
 3289TIP3    H1 9831   4.993   4.232   0.344 -0.4176 -1.8058  1.1672
 3289TIP3    H2 9832   5.031   4.210   0.488  0.7195  1.7258  1.4802
 3290TIP3   OH2 9833   1.887   3.179   0.420 -0.1130 -0.0256 -0.5180
 3290TIP3    H1 9834   1.881   3.100   0.366 -0.3655 -0.3645 -0.0075
 3290TIP3    H2 9835   1.798   3.212   0.425 -0.3229 -0.6989  0.6965
 3291TIP3   OH2 9836   0.070   0.677   5.515 -0.1602  0.0420  0.0032
 3291TIP3    H1 9837   0.114   0.735   5.577 -0.4610  1.0112 -0.6618
 3291TIP3    H2 9838   0.017   0.735   5.461 -0.6211 -0.8793 -0.5688
 3292TIP3   OH2 9839   1.861   1.551   3.008 -0.5827 -0.1951  0.3621
 3292TIP3    H1 9840   1.795   1.482   3.007 -1.4299  0.5689  1.4163
 3292TIP3    H2 9841   1.827   1.618   2.948 -0.0584 -0.4044 -0.1858
 3293TIP3   OH2 9842   1.828   5.475   5.475  0.4458  0.1274 -0.1296
 3293TIP3    H1 9843   1.780   5.455   5.395 -0.8356 -0.1166  0.6692
 3293TIP3    H2 9844   1.918   5.446   5.458  0.3763  0.7545 -1.7171
 3294TIP3   OH2 9845   6.667   6.356   4.166 -0.6458  0.2369 -0.2940
 3294TIP3    H1 9846   6.695   6.280   4.218 -1.6095 -0.9086 -1.3887
 3294TIP3    H2 9847   6.719   6.428   4.201  0.6132 -0.9906  0.5199
 3295TIP3   OH2 9848   7.189   2.535   4.816  0.3482 -0.2525  0.5785
 3295TIP3    H1 9849   7.279   2.503   4.828  0.2775 -0.6775  0.0298
 3295TIP3    H2 9850   7.144   2.463   4.773 -0.6652 -0.6287  2.2113
 3296TIP3   OH2 9851   3.859   3.359   3.256 -0.4164 -0.1567 -0.3410
 3296TIP3    H1 9852   3.818   3.334   3.338  1.2628  0.6482  0.7985
 3296TIP3    H2 9853   3.922   3.289   3.239  0.1765  0.3435 -0.2281
 3297TIP3   OH2 9854   0.297   0.172   3.176 -0.3263  0.6403  0.2039
 3297TIP3    H1 9855   0.344   0.090   3.192 -1.2497 -0.0359 -0.4518
 3297TIP3    H2 9856   0.358   0.224   3.124 -0.6896 -0.6904 -1.6586
 3298TIP3   OH2 9857   5.653   1.286   0.814 -0.8119 -0.1079  0.0391
 3298TIP3    H1 9858   5.631   1.310   0.724 -0.9500 -1.7078 -0.3964
 3298TIP3    H2 9859   5.611   1.201   0.826 -1.3637  0.3804  1.8621
 3299TIP3   OH2 9860   5.830   2.948   5.752 -1.1891  0.0628  0.2667
 3299TIP3    H1 9861   5.742   2.968   5.719 -0.2738  2.2347 -1.0861
 3299TIP3    H2 9862   5.859   2.873   5.699 -0.8337  1.7368 -2.0734
 3300TIP3   OH2 9863   4.774   1.550   0.892 -0.5901 -0.0854  0.2267
 3300TIP3    H1 9864   4.766   1.601   0.973 -2.3399  0.1679 -0.0538
 3300TIP3    H2 9865   4.776   1.459   0.922 -1.3722 -0.0011  0.5793
 3301TIP3   OH2 9866   2.396   3.521   4.654 -0.1748 -0.6004  0.4003
 3301TIP3    H1 9867   2.406   3.486   4.565 -0.6269 -1.6577  0.7399
 3301TIP3    H2 9868   2.484   3.548   4.680 -0.0083 -0.4489 -0.3063
 3302TIP3   OH2 9869   3.159   6.519   4.737 -0.0504 -0.6349 -0.6986
 3302TIP3    H1 9870   3.139   6.576   4.663 -0.4519  0.2478  0.0627
 3302TIP3    H2 9871   3.131   6.432   4.709  0.2035 -0.3966 -1.7360
 3303TIP3   OH2 9872   6.434   0.736   0.441  0.4169  0.1558  0.3847
 3303TIP3    H1 9873   6.521   0.702   0.419  0.4252 -1.6939  2.8686
 3303TIP3    H2 9874   6.437   0.829   0.416  2.9015  0.0056 -0.0809
 3304TIP3   OH2 9875   0.587   4.131   4.357 -0.4635  0.6244  0.3070
 3304TIP3    H1 9876   0.674   4.094   4.369 -0.4093  0.2241 -1.2021
 3304TIP3    H2 9877   0.528   4.056   4.358 -0.9883  0.9772  2.5426
 3305TIP3   OH2 9878   5.543   5.451   1.857  0.3412  0.6207 -0.1594
 3305TIP3    H1 9879   5.606   5.415   1.919  1.0045  0.2855 -0.9997
 3305TIP3    H2 9880   5.480   5.498   1.911  0.0978 -0.8345  0.8747
 3306TIP3   OH2 9881   3.807   0.546   5.070 -0.4093  0.2717 -0.0127
 3306TIP3    H1 9882   3.847   0.459   5.072 -0.3717  0.3044  1.6848
 3306TIP3    H2 9883   3.869   0.602   5.116 -0.9618  0.9738 -0.1077
 3307TIP3   OH2 9884   7.066   1.943   1.572  0.0295  0.7233  0.4983
 3307TIP3    H1 9885   6.986   1.978   1.534 -0.1055 -0.3798 -0.2773
 3307TIP3    H2 9886   7.132   2.012   1.559 -0.0433  0.4466 -1.6393
 3308TIP3   OH2 9887   0.222   4.937   5.377  0.0761  0.5485 -0.0971
 3308TIP3    H1 9888   0.212   4.948   5.283  0.4036  3.2837  0.1042
 3308TIP3    H2 9889   0.137   4.959   5.414  0.4473  1.3297  0.3231
 3309TIP3   OH2 9890   1.489   4.186   4.000  0.1356 -0.0639  0.3248
 3309TIP3    H1 9891   1.513   4.098   3.972 -0.5381  0.1333 -0.9260
 3309TIP3    H2 9892   1.558   4.242   3.964  0.3452 -0.0225  0.7790
 3310TIP3   OH2 9893   1.799   2.237   4.919 -0.0347  0.2785  0.0126
 3310TIP3    H1 9894   1.894   2.220   4.917 -0.0096  0.4452 -0.2107
 3310TIP3    H2 9895   1.760   2.162   4.873  0.1434  1.2801 -1.8709
 3311TIP3   OH2 9896   6.865   2.263   2.778 -0.0836  0.1883  0.2910
 3311TIP3    H1 9897   6.808   2.331   2.741  1.2982  1.1527 -0.1361
 3311TIP3    H2 9898   6.804   2.195   2.808 -1.5743  1.9993  1.5727
 3312TIP3   OH2 9899   2.226   5.203   4.694  0.2437 -0.0186 -0.5817
 3312TIP3    H1 9900   2.253   5.111   4.699  0.6731  0.1252 -0.2280
 3312TIP3    H2 9901   2.308   5.251   4.684  0.2081  0.4943  1.3267
 3313TIP3   OH2 9902   7.121   3.945   2.987 -0.1974 -0.0585 -0.3048
 3313TIP3    H1 9903   7.091   4.010   3.050  0.1660  1.2141 -1.3931
 3313TIP3    H2 9904   7.086   3.862   3.020 -0.6558  0.6694  1.1350
 3314TIP3   OH2 9905   0.090   3.803   4.580 -0.3650  0.3186 -0.5303
 3314TIP3    H1 9906   0.137   3.724   4.608 -1.2766 -0.1987 -0.3885
 3314TIP3    H2 9907   0.104   3.866   4.651  1.4092  0.7408 -1.2213
 3315TIP3   OH2 9908   6.088   5.207   0.861 -0.7344 -0.7336 -0.5659
 3315TIP3    H1 9909   6.103   5.126   0.813 -2.4026 -0.5417 -1.5001
 3315TIP3    H2 9910   6.027   5.183   0.930  1.0539 -0.8433  1.0558
 3316TIP3   OH2 9911   4.205   0.343   1.052 -0.4435  0.3907  0.0132
 3316TIP3    H1 9912   4.252   0.424   1.037 -0.8790  0.8111  0.8476
 3316TIP3    H2 9913   4.133   0.367   1.110  0.0287 -0.7840  1.1439
 3317TIP3   OH2 9914   4.097   5.736   4.070 -0.0830 -0.1254 -0.1612
 3317TIP3    H1 9915   4.064   5.654   4.108  0.1515 -0.3654 -0.4662
 3317TIP3    H2 9916   4.032   5.760   4.004  0.2147 -0.4649 -0.5881
 3318TIP3   OH2 9917   2.648   5.412   4.072  0.4481  0.2877 -0.4997
 3318TIP3    H1 9918   2.605   5.391   3.988  0.5774 -0.7112 -0.3294
 3318TIP3    H2 9919   2.604   5.492   4.102 -1.8809 -1.0922  0.0422
 3319TIP3   OH2 9920   4.207   1.656   1.312 -0.1973 -0.2869 -0.1180
 3319TIP3    H1 9921   4.224   1.566   1.286 -0.4459 -0.7625  1.2869
 3319TIP3    H2 9922   4.137   1.685   1.253 -1.6379 -1.7443  0.7933
 3320TIP3   OH2 9923   6.560   4.941   3.892  0.2307  0.1755  0.3133
 3320TIP3    H1 9924   6.575   4.946   3.987  1.9189  0.9719  0.0474
 3320TIP3    H2 9925   6.563   5.032   3.863 -0.5017 -0.0467 -0.4847
 3321TIP3   OH2 9926   5.984   6.275   1.184  0.0218 -0.1673 -0.0064
 3321TIP3    H1 9927   5.896   6.259   1.220  0.1517  0.2783  0.5197
 3321TIP3    H2 9928   6.001   6.198   1.130 -1.0395  0.1272 -0.8019
 3322TIP3   OH2 9929   3.610   3.156   2.198  0.3549  0.2993 -0.0561
 3322TIP3    H1 9930   3.562   3.211   2.260 -1.2404 -1.1458  0.0429
 3322TIP3    H2 9931   3.615   3.070   2.241  1.2547 -0.1224 -0.9624
 3323TIP3   OH2 9932   0.546   4.843   2.652  0.5271  0.4026 -0.3075
 3323TIP3    H1 9933   0.457   4.864   2.622  0.3261  0.5520  0.3717
 3323TIP3    H2 9934   0.596   4.922   2.635  0.2914  0.6698  0.2258
 3324TIP3   OH2 9935   3.162   3.067   3.968  0.0775  0.3445 -0.0552
 3324TIP3    H1 9936   3.138   3.159   3.954  1.0106  0.5228 -0.5415
 3324TIP3    H2 9937   3.166   3.058   4.063  0.7930  1.0398 -0.0047
 3325TIP3   OH2 9938   3.400   1.113   3.025 -0.2209  0.2525 -0.3018
 3325TIP3    H1 9939   3.413   1.190   2.968 -2.0878  1.6525  1.0611
 3325TIP3    H2 9940   3.330   1.064   2.983 -1.2076  0.9908  0.4307
 3326TIP3   OH2 9941   1.139   6.294   5.235  0.6262 -0.4638 -0.4732
 3326TIP3    H1 9942   1.199   6.367   5.223  1.9165 -1.0748  1.6719
 3326TIP3    H2 9943   1.053   6.328   5.209  1.3563  1.4616 -0.5021
 3327TIP3   OH2 9944   4.119   0.428   3.350  0.5460 -0.6118 -0.0726
 3327TIP3    H1 9945   4.105   0.371   3.274  0.1057  0.4396 -0.8081
 3327TIP3    H2 9946   4.214   0.433   3.358  0.5977 -0.7446 -0.5558
 3328TIP3   OH2 9947   5.933   2.807   4.314  0.8247  0.6527  0.1252
 3328TIP3    H1 9948   5.866   2.876   4.312  0.8443  0.6778  0.3193
 3328TIP3    H2 9949   5.907   2.747   4.244  0.8283  0.8766 -0.0740
 3329TIP3   OH2 9950   4.962   1.972   3.373 -0.1169  0.8151  0.1958
 3329TIP3    H1 9951   5.005   2.057   3.372  0.4830  0.6486 -3.3824
 3329TIP3    H2 9952   5.034   1.909   3.384 -0.0406  0.7074 -0.7874
 3330TIP3   OH2 9953   4.840   1.335   3.104 -0.2189  0.3174 -0.5050
 3330TIP3    H1 9954   4.913   1.320   3.045  0.1331 -1.0795  0.2401
 3330TIP3    H2 9955   4.873   1.400   3.166  1.3853 -2.0602  1.3374
 3331TIP3   OH2 9956   6.632   5.617   2.226  0.0934 -0.7162 -0.2846
 3331TIP3    H1 9957   6.667   5.533   2.254  0.9529  0.3509  2.1332
 3331TIP3    H2 9958   6.609   5.662   2.308  0.6053  1.7841 -1.4155
 3332TIP3   OH2 9959   6.468   2.168   1.478 -0.8840 -0.1252  0.5970
 3332TIP3    H1 9960   6.422   2.251   1.465 -1.8289 -0.8221 -0.7828
 3332TIP3    H2 9961   6.481   2.161   1.572 -0.6799  1.6368  0.7272
 3333TIP3   OH2 9962   5.251   5.529   1.622 -0.1927 -0.4619 -0.0144
 3333TIP3    H1 9963   5.208   5.584   1.557 -0.4346 -1.3878 -0.6495
 3333TIP3    H2 9964   5.296   5.462   1.572  1.1908 -0.1052  0.6871
 3334TIP3   OH2 9965   0.989   3.003   1.749 -0.1102 -0.0335  0.1203
 3334TIP3    H1 9966   0.932   3.079   1.735  0.1346  0.1321  0.0210
 3334TIP3    H2 9967   0.992   2.960   1.664  1.0960  0.7792 -0.2786
 3335TIP3   OH2 9968   5.162   6.655   4.943  0.3440 -0.5431 -0.3032
 3335TIP3    H1 9969   5.185   6.568   4.976 -0.6606 -0.5427  0.4143
 3335TIP3    H2 9970   5.068   6.652   4.929  0.0606  0.8386  1.0374
 3336TIP3   OH2 9971   7.184   5.584   4.654 -0.2919  0.0689  0.1025
 3336TIP3    H1 9972   7.258   5.594   4.713 -1.2875  1.8678  1.1348
 3336TIP3    H2 9973   7.179   5.667   4.606 -1.7029  0.0517  0.1658
 3337TIP3   OH2 9974   4.758   2.966   3.409  0.4214 -0.5115 -0.3671
 3337TIP3    H1 9975   4.790   2.880   3.385  0.5740 -0.7546  0.6810
 3337TIP3    H2 9976   4.747   2.963   3.504 -0.8992  0.1716 -0.4661
 3338TIP3   OH2 9977   4.344   5.650   1.085  0.4090 -0.2937  0.0492
 3338TIP3    H1 9978   4.333   5.684   0.996  0.8906  2.1907  0.8498
 3338TIP3    H2 9979   4.438   5.631   1.092  0.5572  0.5039  0.3239
 3339TIP3   OH2 9980   1.817   2.348   1.512 -0.1311 -0.0716 -0.5083
 3339TIP3    H1 9981   1.738   2.387   1.475 -0.0260  0.1112 -0.5390
 3339TIP3    H2 9982   1.883   2.418   1.509  0.3025 -0.5106 -1.3597
 3340TIP3   OH2 9983   5.250   0.215   5.608  0.1765  0.6479 -0.5989
 3340TIP3    H1 9984   5.345   0.216   5.597  0.3230  0.3937  0.5068
 3340TIP3    H2 9985   5.219   0.154   5.541  1.2569 -2.9147  1.8497
 3341TIP3   OH2 9986   1.462   0.284   2.217 -0.5759 -0.5346 -0.2396
 3341TIP3    H1 9987   1.445   0.189   2.218  0.4377 -0.7239 -0.5210
 3341TIP3    H2 9988   1.554   0.292   2.194 -0.2911  0.4748  1.1370
 3342TIP3   OH2 9989   0.827   5.509   3.110  0.0594 -0.1476  0.3981
 3342TIP3    H1 9990   0.908   5.550   3.138  0.4999  0.3901 -1.5358
 3342TIP3    H2 9991   0.852   5.420   3.086  0.0463 -0.0516  0.0185
 3343TIP3   OH2 9992   4.062   3.563   4.840 -0.3493  0.0440 -0.3419
 3343TIP3    H1 9993   4.135   3.524   4.793 -0.8884  0.0847 -1.2242
 3343TIP3    H2 9994   3.985   3.515   4.810 -0.5836 -0.7975  1.4447
 3344TIP3   OH2 9995   0.978   0.984   0.559 -0.1708  0.2318  0.0722
 3344TIP3    H1 9996   1.013   0.923   0.624  0.1774  1.3317  0.9515
 3344TIP3    H2 9997   1.048   1.048   0.546 -0.1711 -0.0552 -1.5375
 3345TIP3   OH2 9998   0.653   3.254   0.386 -0.7751 -0.0292  0.1227
 3345TIP3    H1 9999   0.609   3.338   0.390  0.7296  0.9272 -1.8049
 3345TIP3    H210000   0.608   3.206   0.317 -0.0953  0.1771 -0.4768
 3346TIP3   OH210001   0.482   1.996   2.369 -0.0714  0.3151 -0.2060
 3346TIP3    H110002   0.424   2.068   2.342 -0.8289  0.6495  2.1404
 3346TIP3    H210003   0.523   2.027   2.449 -2.3291 -2.7148  2.3432
 3347TIP3   OH210004   1.230   1.954   5.330  0.4617 -0.1155 -0.2566
 3347TIP3    H110005   1.154   2.006   5.356  2.0004  2.3619 -0.3908
 3347TIP3    H210006   1.240   1.889   5.400  0.5609  2.1020  1.9148
 3348TIP3   OH210007   2.795   0.207   3.999 -0.6441  0.4897  0.1043
 3348TIP3    H110008   2.795   0.158   4.081 -2.2023  0.1323 -0.0887
 3348TIP3    H210009   2.887   0.231   3.987 -0.5794  2.1245  2.8714
 3349TIP3   OH210010   0.802   5.562   4.755  0.6703 -0.2864  0.2651
 3349TIP3    H110011   0.882   5.567   4.703  1.9660 -2.5678  1.8734
 3349TIP3    H210012   0.824   5.602   4.839  0.0955 -0.7951  0.6732
 3350TIP3   OH210013   5.956   2.999   0.134 -0.1520 -0.7863  0.0474
 3350TIP3    H110014   6.024   2.937   0.107 -2.4765 -3.0197 -1.0280
 3350TIP3    H210015   5.935   3.048   0.055 -0.0879 -0.3900  0.2743
 3351TIP3   OH210016   2.498   6.767   4.943  0.1486  0.0173  0.6311
 3351TIP3    H110017   2.442   6.736   4.872  1.4630 -1.1728  0.0769
 3351TIP3    H210018   2.512   6.860   4.923  0.4491 -0.2800 -0.6539
 3352TIP3   OH210019   3.353   1.294   3.235  0.4311 -0.0479 -0.3686
 3352TIP3    H110020   3.374   1.230   3.167  1.3236 -0.1124 -0.0558
 3352TIP3    H210021   3.305   1.245   3.301 -1.1937  0.2008 -1.3167
 3353TIP3   OH210022   2.327   4.261   0.088  0.5855  0.2014 -0.2013
 3353TIP3    H110023   2.292   4.303   0.166  0.6667 -0.2373  0.0712
 3353TIP3    H210024   2.339   4.333   0.026  0.0245  0.4770  0.0040
 3354TIP3   OH210025   3.520   0.428   2.811  0.2454 -0.1558  0.1186
 3354TIP3    H110026   3.484   0.347   2.776  0.7096 -1.1887  1.8930
 3354TIP3    H210027   3.456   0.495   2.787 -0.9780 -1.3210  0.0133
 3355TIP3   OH210028   5.099   0.918   1.869  0.4184 -0.2581  0.0491
 3355TIP3    H110029   5.044   0.972   1.812  0.8394  0.9649  0.7757
 3355TIP3    H210030   5.188   0.948   1.851  0.6890 -0.9224  0.2563
 3356TIP3   OH210031   6.690   1.606   1.578 -0.1918 -0.4932 -0.7656
 3356TIP3    H110032   6.650   1.668   1.516 -0.5567 -0.1767 -0.2161
 3356TIP3    H210033   6.644   1.621   1.660  1.5434  0.4232  0.0950
 3357TIP3   OH210034   6.083   0.364   5.549 -0.6924  0.2414  0.2415
 3357TIP3    H110035   6.092   0.445   5.599 -0.3400  0.5210 -0.2684
 3357TIP3    H210036   5.988   0.351   5.541 -0.8935 -1.5318  3.7435
 3358TIP3   OH210037   6.869   3.165   1.081 -0.2387 -0.6563 -0.1367
 3358TIP3    H110038   6.924   3.234   1.118 -0.6028 -1.7971  2.7428
 3358TIP3    H210039   6.858   3.102   1.152 -1.4472 -2.7935 -2.0786
 3359TIP3   OH210040   2.505   5.144   2.203  0.3929 -0.4310 -0.0837
 3359TIP3    H110041   2.432   5.156   2.264 -0.0062 -1.7034 -0.2629
 3359TIP3    H210042   2.496   5.053   2.174  1.1450 -0.1396 -1.2956
 3360TIP3   OH210043   4.643   0.367   2.033  0.2608  0.0077  0.0718
 3360TIP3    H110044   4.699   0.292   2.050  0.4796  0.2332  0.3396
 3360TIP3    H210045   4.632   0.367   1.938  0.3498 -0.2973  0.0604
 3361TIP3   OH210046   6.617   3.633   5.799  0.1819  0.0245 -0.0877
 3361TIP3    H110047   6.523   3.646   5.783  0.7197  1.2820 -2.8210
 3361TIP3    H210048   6.626   3.639   5.894 -2.5585 -0.6418  0.2866
 3362TIP3   OH210049   5.779   0.763   3.197 -0.0398 -0.4137 -0.1438
 3362TIP3    H110050   5.730   0.743   3.117  1.5562  3.5237 -2.3994
 3362TIP3    H210051   5.855   0.704   3.193 -1.1223 -1.8305 -0.2747
 3363TIP3   OH210052   3.677   6.315   0.645 -0.2898 -0.0445  0.5185
 3363TIP3    H110053   3.721   6.322   0.560  0.5666 -3.2077  0.5783
 3363TIP3    H210054   3.612   6.246   0.633  0.2602 -0.9829  2.5676
 3364TIP3   OH210055   6.121   2.362   0.146  0.3905  0.7380 -0.4108
 3364TIP3    H110056   6.174   2.338   0.222 -0.7223 -0.1555  0.1059
 3364TIP3    H210057   6.113   2.282   0.095 -1.4585  0.4983  0.1625
 3365TIP3   OH210058   5.553   3.027   5.656 -0.4931  0.3332  0.1291
 3365TIP3    H110059   5.529   3.097   5.717  0.4535  1.1124 -0.3695
 3365TIP3    H210060   5.523   3.058   5.570 -0.7480 -0.2230  0.0080
 3366TIP3   OH210061   5.805   0.373   2.066 -0.6534 -0.0552 -0.4001
 3366TIP3    H110062   5.724   0.322   2.061 -0.8493  0.2020  0.1172
 3366TIP3    H210063   5.863   0.331   2.002 -0.4428 -1.5997  0.7392
 3367TIP3   OH210064   0.193   4.359   3.877 -0.5389  0.1007  0.1111
 3367TIP3    H110065   0.140   4.438   3.890  0.9660  1.4806 -1.5407
 3367TIP3    H210066   0.132   4.295   3.841 -1.1943  1.5962 -1.6521
 3368TIP3   OH210067   5.395   2.585   4.597  0.1466  0.3208  0.0470
 3368TIP3    H110068   5.429   2.663   4.641  2.7932 -1.2862  1.0456
 3368TIP3    H210069   5.472   2.530   4.582 -0.9884 -0.5058 -4.1418
 3369TIP3   OH210070   6.812   4.631   0.503  0.1981  0.1072 -0.9501
 3369TIP3    H110071   6.797   4.543   0.536  1.9253  0.5591  1.2887
 3369TIP3    H210072   6.738   4.682   0.537 -0.8995 -0.4515 -2.4023
 3370TIP3   OH210073   0.395   3.971   5.139  0.1756 -0.4676 -0.5142
 3370TIP3    H110074   0.455   3.899   5.162  0.1085  0.2212  2.1431
 3370TIP3    H210075   0.316   3.927   5.108 -0.8641 -1.8354  3.4541
 3371TIP3   OH210076   4.589   2.459   3.164  0.0247 -0.1815  0.2142
 3371TIP3    H110077   4.504   2.425   3.192 -0.6760 -2.8294 -4.1036
 3371TIP3    H210078   4.589   2.551   3.191 -3.9996 -0.1989  0.8695
 3372TIP3   OH210079   3.664   2.315   2.361 -0.9799 -0.4033 -0.3228
 3372TIP3    H110080   3.606   2.340   2.289  0.3346  2.0676 -0.6464
 3372TIP3    H210081   3.670   2.220   2.356 -1.9738 -0.4070 -2.6525
 3373TIP3   OH210082   3.471   2.437   2.820  0.0907  0.5465 -0.0320
 3373TIP3    H110083   3.526   2.359   2.806  0.8570  0.8375  1.2624
 3373TIP3    H210084   3.414   2.414   2.893 -0.9212  0.5800 -0.7858
 3374TIP3   OH210085   5.226   0.093   0.139  0.2342  0.5856  0.9716
 3374TIP3    H110086   5.257   0.180   0.113 -0.3273 -0.1233 -2.5505
 3374TIP3    H210087   5.131   0.102   0.146  0.0996  0.1445 -0.1003
 3375TIP3   OH210088   3.307   5.928   0.208  0.0928 -0.5905 -0.3398
 3375TIP3    H110089   3.256   5.994   0.161  1.1528  0.4403 -0.0938
 3375TIP3    H210090   3.398   5.958   0.200  0.5177 -1.6287  0.4104
 3376TIP3   OH210091   0.626   1.286   4.675 -0.2702  0.1146 -0.1013
 3376TIP3    H110092   0.610   1.303   4.582  0.5203 -3.2314 -1.0048
 3376TIP3    H210093   0.721   1.295   4.685 -0.4134  1.0402  0.5758
 3377TIP3   OH210094   6.955   1.792   0.447  0.1660  0.6268 -0.0801
 3377TIP3    H110095   7.037   1.831   0.476  0.5204 -0.4703  0.4164
 3377TIP3    H210096   6.912   1.762   0.527  0.1993 -0.5661 -0.4927
 3378TIP3   OH210097   3.714   1.171   4.541 -0.0185 -0.4735  0.3511
 3378TIP3    H110098   3.637   1.126   4.506 -0.8276  0.6179  0.7052
 3378TIP3    H210099   3.788   1.116   4.513 -0.7289 -0.3398 -1.9688
 3379TIP3   OH210100   2.972   1.569   1.532  0.3970 -0.1681 -0.0716
 3379TIP3    H110101   2.897   1.605   1.484  0.1117  0.9327  1.1382
 3379TIP3    H210102   2.956   1.594   1.623  1.9092 -0.4987  0.3087
 3380TIP3   OH210103   1.799   1.481   0.034 -0.1463 -0.6248 -0.3625
 3380TIP3    H110104   1.750   1.443  -0.039 -1.1653 -1.2244  0.5897
 3380TIP3    H210105   1.861   1.413   0.060 -1.0161 -1.1390  0.4493
 3381TIP3   OH210106   0.857   4.507   2.842 -0.0846  0.0266  0.2614
 3381TIP3    H110107   0.907   4.507   2.923 -0.0872  1.1435  0.2781
 3381TIP3    H210108   0.825   4.596   2.833 -2.7225 -0.7954  0.6309
 3382TIP3   OH210109   3.760   3.563   2.233  0.1101  0.1760  0.5019
 3382TIP3    H110110   3.711   3.491   2.272  0.7102  0.5423  2.0188
 3382TIP3    H210111   3.702   3.599   2.166  0.0539 -2.0966 -0.7602
 3383TIP3   OH210112   6.424   5.496   4.782 -0.2235 -0.4352  0.6696
 3383TIP3    H110113   6.466   5.579   4.802  1.0550 -1.3353  1.8913
 3383TIP3    H210114   6.496   5.438   4.756 -0.9100 -1.5306  1.1312
 3384TIP3   OH210115   7.142   2.304   1.654  0.0971  0.3910  0.3928
 3384TIP3    H110116   7.204   2.231   1.662 -2.5631 -1.9340  1.5118
 3384TIP3    H210117   7.095   2.288   1.572 -1.5356 -0.1186  1.3749
 3385TIP3   OH210118   5.359   2.387   4.034  0.8975 -0.2455 -0.1767
 3385TIP3    H110119   5.336   2.377   4.126 -0.0869 -0.3198 -0.4281
 3385TIP3    H210120   5.425   2.319   4.018 -0.7522 -1.9099 -0.1554
 3386TIP3   OH210121   2.975   0.145   3.407  0.1971  0.2242  0.5356
 3386TIP3    H110122   2.920   0.178   3.336  0.2231  1.6728  1.1404
 3386TIP3    H210123   3.012   0.063   3.374  0.0723  0.7755 -1.0352
 3387TIP3   OH210124   6.918   0.908   3.290 -0.5994  0.1568  0.0008
 3387TIP3    H110125   6.924   0.852   3.212 -0.0853  1.3492 -0.8511
 3387TIP3    H210126   6.849   0.971   3.269 -0.2202  0.7022  0.3509
 3388TIP3   OH210127   6.566   3.739   2.930 -0.1291  0.0518  0.4017
 3388TIP3    H110128   6.524   3.696   2.855  0.5620 -0.5414  0.3444
 3388TIP3    H210129   6.562   3.833   2.909 -1.8254  0.0527  0.6175
 3389TIP3   OH210130   2.272   5.898   1.977  0.3418 -0.0870  0.2390
 3389TIP3    H110131   2.306   5.809   1.968  2.4129  0.8111 -1.6292
 3389TIP3    H210132   2.306   5.928   2.062  1.2812 -0.4391  0.0018
 3390TIP3   OH210133   3.091   1.239   5.075 -0.4760  0.1753  0.7946
 3390TIP3    H110134   3.090   1.302   5.147  0.3163 -0.3858  1.3062
 3390TIP3    H210135   3.062   1.157   5.114  1.2911 -0.4685  0.8165
 3391TIP3   OH210136   4.728   4.520   0.311 -0.4455  0.5272 -0.1112
 3391TIP3    H110137   4.819   4.528   0.339 -0.7282 -1.6072  1.7140
 3391TIP3    H210138   4.732   4.513   0.216  1.2365  1.0896 -0.1003
 3392TIP3   OH210139   3.941   5.442   4.790  0.2414 -0.1861  0.2598
 3392TIP3    H110140   3.876   5.417   4.725 -1.0433 -0.3761  1.5618
 3392TIP3    H210141   3.926   5.536   4.805  0.4870 -0.1564  0.3313
 3393TIP3   OH210142   4.243   2.808   4.156  0.4597  0.0491 -0.2196
 3393TIP3    H110143   4.295   2.747   4.103  0.0670 -0.1097 -0.4270
 3393TIP3    H210144   4.174   2.838   4.096 -0.5520 -0.8493  0.4689
 3394TIP3   OH210145   5.098   4.079   5.043 -0.0868 -0.3481 -0.1199
 3394TIP3    H110146   5.191   4.061   5.032 -0.1111 -0.4563 -0.1434
 3394TIP3    H210147   5.053   4.009   4.996 -0.1763  0.2063 -0.8772
 3395TIP3   OH210148   0.739   6.228   4.233  0.0831 -0.0386  0.3638
 3395TIP3    H110149   0.798   6.164   4.273 -0.1990 -0.1631  0.5853
 3395TIP3    H210150   0.797   6.285   4.182  0.5438  0.5648  1.5332
 3396TIP3   OH210151   1.452   4.200   3.658 -0.8351 -0.0759 -0.0733
 3396TIP3    H110152   1.392   4.229   3.590 -0.5525  1.5444  0.3140
 3396TIP3    H210153   1.410   4.122   3.696 -3.3271  1.6069  0.9384
 3397TIP3   OH210154   1.184   0.295   3.343 -0.1536  0.2927 -0.1387
 3397TIP3    H110155   1.251   0.308   3.276 -0.9641 -0.8336 -1.2150
 3397TIP3    H210156   1.208   0.355   3.413  0.9459  1.2232 -1.2696
 3398TIP3   OH210157   5.738   2.011   0.236 -0.4763 -0.0017  0.0650
 3398TIP3    H110158   5.820   2.051   0.265  0.5794 -0.6837 -1.8458
 3398TIP3    H210159   5.671   2.053   0.290  1.0176  1.2218  1.0603
 3399TIP3   OH210160   5.444   4.796   5.605 -0.3470 -0.3181  0.4402
 3399TIP3    H110161   5.352   4.823   5.615 -0.0412  0.6473  0.8093
 3399TIP3    H210162   5.482   4.864   5.549  0.3171 -0.2880  0.9191
 3400TIP3   OH210163   6.378   5.364   3.083 -0.3649 -0.2934 -1.0140
 3400TIP3    H110164   6.370   5.453   3.051 -1.4408  0.9540  2.3507
 3400TIP3    H210165   6.289   5.328   3.078 -0.7176  0.1748  0.9910
 3401TIP3   OH210166   6.989   2.416   5.741  0.2068 -0.2155 -0.1792
 3401TIP3    H110167   6.985   2.477   5.814 -1.4299  1.4482 -1.5624
 3401TIP3    H210168   6.918   2.354   5.756 -0.6307  0.5987 -0.7376
 3402TIP3   OH210169   3.103   1.470   4.208 -0.1450  0.1638 -0.1196
 3402TIP3    H110170   3.026   1.427   4.171 -1.8726  0.5591  2.7376
 3402TIP3    H210171   3.143   1.403   4.263 -1.2737  1.2775  2.1766
 3403TIP3   OH210172   1.507   3.672   5.407  0.3374 -0.2237 -0.6545
 3403TIP3    H110173   1.596   3.646   5.430  0.2368 -0.4966 -0.5714
 3403TIP3    H210174   1.452   3.634   5.476  0.3104  1.2934  0.2131
 3404TIP3   OH210175   2.252   3.263   4.310 -0.0445  0.5115  0.1248
 3404TIP3    H110176   2.219   3.246   4.221 -0.3382  0.0263  0.3261
 3404TIP3    H210177   2.174   3.285   4.360  0.1201  0.7575  0.2764
 3405TIP3   OH210178   3.866   5.124   5.147 -0.5196 -0.0510  0.3641
 3405TIP3    H110179   3.939   5.185   5.137  0.0175 -0.7470 -0.0586
 3405TIP3    H210180   3.788   5.178   5.134 -0.0376  0.4191 -0.7038
 3406TIP3   OH210181   6.110   6.383   3.027  0.3951 -0.1383  0.3516
 3406TIP3    H110182   6.106   6.309   3.087 -1.4218  0.1960  0.6967
 3406TIP3    H210183   6.101   6.460   3.083  0.3578  0.2573 -0.1852
 3407TIP3   OH210184   4.794   2.095   2.517 -0.5189  0.4570  0.1578
 3407TIP3    H110185   4.782   2.112   2.423 -0.6857  0.4876  0.1841
 3407TIP3    H210186   4.722   2.036   2.539  0.6947 -1.2378 -0.1871
 3408TIP3   OH210187   1.665   1.170   1.322  0.0220  0.8716  0.2230
 3408TIP3    H110188   1.599   1.217   1.270 -1.7610 -2.2321 -0.5739
 3408TIP3    H210189   1.618   1.142   1.400 -0.0275 -2.1620 -0.7687
 3409TIP3   OH210190   2.584   3.558   3.754 -0.8360  0.0497  0.3507
 3409TIP3    H110191   2.572   3.654   3.753 -0.6982  0.0760  1.1990
 3409TIP3    H210192   2.497   3.524   3.776 -0.6599  0.0191  1.0023
 3410TIP3   OH210193   3.310   0.964   1.703 -0.3578 -0.3366  0.5387
 3410TIP3    H110194   3.275   1.001   1.622  0.1567  0.0432  0.4847
 3410TIP3    H210195   3.264   0.881   1.714  0.5345 -1.0663 -0.8849
 3411TIP3   OH210196   4.024   6.589   1.098 -0.4862 -0.1239  0.2167
 3411TIP3    H110197   4.077   6.639   1.160 -1.8525  0.5590  0.8787
 3411TIP3    H210198   3.970   6.655   1.054 -1.2393 -0.8560  0.0195
 3412TIP3   OH210199   3.725   6.075   4.579  0.1546  0.2356 -0.1148
 3412TIP3    H110200   3.788   6.107   4.515 -0.1868  1.0549 -0.0607
 3412TIP3    H210201   3.718   5.981   4.563  1.5041  0.1058 -0.0089
 3413TIP3   OH210202   2.900   3.670   4.058 -0.0890  0.2046 -0.5559
 3413TIP3    H110203   2.810   3.642   4.078 -0.0270 -1.4581 -2.2888
 3413TIP3    H210204   2.945   3.668   4.143 -0.9684 -1.8948 -0.0593
 3414TIP3   OH210205   1.721   4.057   1.269  0.4437 -0.2461  0.0132
 3414TIP3    H110206   1.705   3.981   1.213  0.3284 -0.9743  0.9914
 3414TIP3    H210207   1.683   4.032   1.354 -0.2637  1.2098  0.1511
 3415TIP3   OH210208   3.358   4.437   4.406  0.0859 -0.5588 -1.0824
 3415TIP3    H110209   3.327   4.386   4.481 -1.8521 -0.2171 -1.5964
 3415TIP3    H210210   3.445   4.400   4.387  0.0611 -1.5393  0.4807
 3416TIP3   OH210211   2.842   6.057   5.214 -0.0234  0.2107  0.3893
 3416TIP3    H110212   2.784   6.044   5.139  0.5803  0.6860 -0.1736
 3416TIP3    H210213   2.809   6.135   5.258 -0.5685 -0.2499  0.8101
 3417TIP3   OH210214   3.076   2.558   2.618 -0.2965 -0.1197  0.3045
 3417TIP3    H110215   3.171   2.544   2.615 -0.1611 -0.1137  2.6003
 3417TIP3    H210216   3.049   2.517   2.700 -2.1821  0.4442 -0.0034
 3418TIP3   OH210217   0.455   4.828   4.702 -0.3529 -0.3645 -0.2279
 3418TIP3    H110218   0.400   4.883   4.758 -0.8624 -0.1085 -0.9524
 3418TIP3    H210219   0.476   4.752   4.756 -1.1723 -0.3198  0.1748
 3419TIP3   OH210220   2.602   2.879   2.709 -0.4914 -0.3327  0.0587
 3419TIP3    H110221   2.687   2.836   2.718  0.2862  0.9396 -0.9412
 3419TIP3    H210222   2.547   2.836   2.774  0.6693 -1.7598  0.1593
 3420TIP3   OH210223   2.964   6.002   2.376 -0.2344  0.2191 -0.0333
 3420TIP3    H110224   2.889   6.041   2.331  1.0022  0.0846 -2.3980
 3420TIP3    H210225   2.933   5.917   2.406 -1.5177  0.9120  0.7030
 3421TIP3   OH210226   1.775   3.051   5.790  0.2357  0.3027 -0.1157
 3421TIP3    H110227   1.721   2.979   5.756  1.6352  0.2939 -2.6156
 3421TIP3    H210228   1.745   3.128   5.741  1.3001  0.6360 -0.2641
 3422TIP3   OH210229   6.676   0.254   5.077  0.3440  0.1339 -0.0549
 3422TIP3    H110230   6.649   0.188   5.013 -0.8461  1.1226 -0.5906
 3422TIP3    H210231   6.668   0.210   5.162  1.0634 -0.8943 -0.5032
 3423TIP3   OH210232   5.005   0.879   4.275  0.0790 -0.3986 -0.0704
 3423TIP3    H110233   5.043   0.941   4.336 -0.9864 -0.4704  0.6863
 3423TIP3    H210234   5.021   0.793   4.315  0.0077 -0.4909 -0.2378
 3424TIP3   OH210235   0.349   3.511   5.671 -0.1002  0.2367 -0.0049
 3424TIP3    H110236   0.301   3.558   5.603  0.5433 -0.0071 -0.6357
 3424TIP3    H210237   0.417   3.573   5.700  0.4814 -0.1376 -0.5407
 3425TIP3   OH210238   5.473   4.829   0.410  0.2775 -0.4881 -0.0312
 3425TIP3    H110239   5.541   4.764   0.428  3.9963  3.0612  0.1599
 3425TIP3    H210240   5.471   4.884   0.489 -1.2983  0.7959 -0.8932
 3426TIP3   OH210241   6.807   4.291   1.910  0.4821 -0.4307 -0.1438
 3426TIP3    H110242   6.893   4.301   1.870  0.8112  2.8272  1.0480
 3426TIP3    H210243   6.748   4.344   1.855  0.2981  1.3446  1.6315
 3427TIP3   OH210244   0.593   2.228   0.612  0.1376  0.1117  0.3257
 3427TIP3    H110245   0.646   2.221   0.692 -1.0467  0.3945  1.1558
 3427TIP3    H210246   0.576   2.138   0.586  0.5483  0.0194  0.3613
 3428TIP3   OH210247   3.993   3.991   3.549  0.3524  0.0228  0.6195
 3428TIP3    H110248   4.062   3.953   3.495 -0.0246 -0.0887  0.2111
 3428TIP3    H210249   3.921   4.009   3.487 -0.4587 -0.9957  1.2404
 3429TIP3   OH210250   6.538   5.702   3.705  0.0455  0.0312  0.0684
 3429TIP3    H110251   6.525   5.717   3.799 -1.2484 -2.0516  0.2816
 3429TIP3    H210252   6.471   5.639   3.681  1.9321 -1.4400 -1.7090
 3430TIP3   OH210253   3.416   5.499   1.130  0.0522  0.0239 -0.0730
 3430TIP3    H110254   3.440   5.433   1.195  2.1835  0.5133 -0.2948
 3430TIP3    H210255   3.489   5.501   1.069  0.2053  2.7434  0.0723
 3431TIP3   OH210256   5.010   3.060   1.470 -0.0151 -0.4020  0.5086
 3431TIP3    H110257   5.092   3.083   1.427 -0.8448 -0.7029 -1.3745
 3431TIP3    H210258   4.996   3.129   1.535 -0.2221  2.0279 -1.8945
 3432TIP3   OH210259   6.593   2.820   0.094 -0.4850  0.0519  0.0420
 3432TIP3    H110260   6.633   2.783   0.015  0.2483  0.9172 -0.0150
 3432TIP3    H210261   6.663   2.815   0.160 -1.1621 -0.8698  0.7150
 3433TIP3   OH210262   4.192   5.069   2.882 -0.0113 -0.2673  0.7155
 3433TIP3    H110263   4.240   5.091   2.802 -0.4295 -0.4597  0.4068
 3433TIP3    H210264   4.195   5.148   2.935 -0.9351  0.3363 -0.0965
 3434TIP3   OH210265   4.394   2.442   0.225  0.2494 -0.2812 -0.1638
 3434TIP3    H110266   4.437   2.507   0.169 -0.2716  0.0561 -0.1797
 3434TIP3    H210267   4.302   2.445   0.200  0.1664 -0.8141  0.0485
 3435TIP3   OH210268   6.086   6.278   4.711 -0.4776 -0.2582 -0.1278
 3435TIP3    H110269   6.128   6.240   4.789 -1.5906 -0.4257  0.4094
 3435TIP3    H210270   6.093   6.210   4.644 -1.7546 -1.1435  0.5921
 3436TIP3   OH210271   2.845   3.435   3.347 -0.1832 -0.3448 -0.1216
 3436TIP3    H110272   2.822   3.397   3.262  0.7418  0.4694 -0.7630
 3436TIP3    H210273   2.773   3.410   3.405  0.2294 -2.8113 -0.5621
 3437TIP3   OH210274   6.440   3.682   3.162  0.0910 -0.0753 -0.1182
 3437TIP3    H110275   6.382   3.757   3.157  2.0335  1.4300 -1.8034
 3437TIP3    H210276   6.503   3.695   3.091  3.5987 -0.5681  2.6082
 3438TIP3   OH210277   3.937   6.599   0.329 -1.3126  0.2464  0.3720
 3438TIP3    H110278   3.877   6.670   0.352 -1.6656  0.2521 -0.5470
 3438TIP3    H210279   3.904   6.565   0.246 -0.2641 -0.0003  0.0453
 3439TIP3   OH210280   0.907   3.300   3.945  0.0590 -0.2266  0.2962
 3439TIP3    H110281   0.966   3.350   4.002 -1.9793  0.0292  2.2881
 3439TIP3    H210282   0.866   3.367   3.889  2.1925 -0.4953 -1.7662
 3440TIP3   OH210283   2.320   1.820   1.680  0.2548  0.0639 -0.4907
 3440TIP3    H110284   2.344   1.912   1.671  1.2255 -0.2148 -0.9377
 3440TIP3    H210285   2.353   1.779   1.599  0.2755 -0.7556 -0.0792
 3441TIP3   OH210286   0.153   4.016   2.909  0.0290  0.1368 -0.0565
 3441TIP3    H110287   0.064   3.998   2.938  0.4495 -0.5616  0.8380
 3441TIP3    H210288   0.157   3.977   2.821 -0.7571  0.8462 -0.4310
 3442TIP3   OH210289   0.943   6.611   2.091  0.1574  0.0057 -0.3011
 3442TIP3    H110290   0.956   6.568   2.175 -0.1156  1.2173  0.3865
 3442TIP3    H210291   1.003   6.685   2.092  0.4759 -0.2194 -1.3739
 3443TIP3   OH210292   1.839   4.560   5.843 -0.9949 -0.1958 -0.0454
 3443TIP3    H110293   1.827   4.611   5.923  0.5529  1.1557 -0.6221
 3443TIP3    H210294   1.929   4.577   5.816 -1.1581 -1.4296 -1.5394
 3444TIP3   OH210295   6.090   0.647   2.039 -0.0795  0.2897 -0.0285
 3444TIP3    H110296   6.048   0.721   2.084  4.2190  2.5021  0.8692
 3444TIP3    H210297   6.121   0.684   1.956  2.5084 -0.2265  0.6156
 3445TIP3   OH210298   2.044   0.500   3.667  0.0337 -0.7462  0.2089
 3445TIP3    H110299   2.080   0.429   3.615  0.1118 -0.5642  0.0113
 3445TIP3    H210300   1.955   0.473   3.689 -0.4138 -0.3162 -1.0038
 3446TIP3   OH210301   4.702   2.837   2.340  0.4375 -0.3441 -0.1584
 3446TIP3    H110302   4.737   2.925   2.323 -1.8568  0.4877 -1.0866
 3446TIP3    H210303   4.620   2.854   2.386  1.5541 -2.2061  2.7572
 3447TIP3   OH210304   3.400   3.634   5.482  0.2778  0.1357 -0.3559
 3447TIP3    H110305   3.443   3.596   5.405  1.2727  0.2210  0.1357
 3447TIP3    H210306   3.471   3.678   5.530 -0.1674 -0.5920  1.0206
 3448TIP3   OH210307   4.012   1.055   0.550  0.2540  0.8776 -0.2666
 3448TIP3    H110308   4.069   1.124   0.583  0.0859  1.2433 -0.7221
 3448TIP3    H210309   3.983   1.008   0.628  0.2133  1.4461  0.0632
 3449TIP3   OH210310   2.547   1.696   3.932 -0.7314  0.0366 -0.4633
 3449TIP3    H110311   2.559   1.786   3.963  0.0219 -0.3751  0.4614
 3449TIP3    H210312   2.452   1.685   3.930 -0.8240  0.6800 -0.0816
 3450TIP3   OH210313   5.348   3.593   0.400  0.0932  0.0102  0.2949
 3450TIP3    H110314   5.401   3.665   0.365 -1.9436  1.5952  0.2891
 3450TIP3    H210315   5.352   3.604   0.495  1.5858 -1.2912  0.4274
 3451TIP3   OH210316   2.098   2.434   2.010  0.1437  0.5244 -0.2339
 3451TIP3    H110317   2.008   2.463   2.002 -0.0343  0.0480 -0.0108
 3451TIP3    H210318   2.095   2.360   2.071  0.8199  1.1239  0.5417
 3452TIP3   OH210319   6.268   2.808   5.446  0.5519 -0.3550 -0.5314
 3452TIP3    H110320   6.208   2.876   5.473 -0.9330 -1.9343  0.3434
 3452TIP3    H210321   6.247   2.792   5.354 -1.8328 -2.2253  0.2466
 3453TIP3   OH210322   2.217   6.619   2.223 -0.1286 -0.4542  0.3433
 3453TIP3    H110323   2.183   6.531   2.239  0.6066 -0.6372  0.9690
 3453TIP3    H210324   2.312   6.610   2.229 -0.0319  0.3462  0.2120
 3454TIP3   OH210325   5.258   3.084   0.414 -0.6679  0.6424  0.0353
 3454TIP3    H110326   5.336   3.028   0.412 -1.1216  0.0288 -1.2472
 3454TIP3    H210327   5.286   3.162   0.464  0.1496 -0.4186  1.3018
 3455TIP3   OH210328   3.627   4.330   0.114 -0.0811  0.5450  0.5302
 3455TIP3    H110329   3.601   4.250   0.068  1.1035 -0.4365  1.4957
 3455TIP3    H210330   3.581   4.324   0.198  0.7757  0.3601  0.9970
 3456TIP3   OH210331   2.170   5.525   4.961 -0.4423  0.1574 -0.4470
 3456TIP3    H110332   2.129   5.593   4.907 -1.0835  0.6604  0.6409
 3456TIP3    H210333   2.261   5.553   4.969 -0.3317  0.0645 -1.2689
 3457TIP3   OH210334   4.630   4.378   3.933  0.1088 -0.1291  0.1053
 3457TIP3    H110335   4.720   4.373   3.903  0.5833  1.7694  1.0382
 3457TIP3    H210336   4.608   4.471   3.927 -1.5349 -0.4474  0.6182
 3458TIP3   OH210337   1.148   0.983   5.141 -0.1798 -0.4885  0.0534
 3458TIP3    H110338   1.188   1.068   5.121 -1.1015 -0.3145 -1.2669
 3458TIP3    H210339   1.057   1.005   5.161 -0.2577 -1.1066  0.3793
 3459TIP3   OH210340   3.349   2.281   3.676 -0.6120  0.1674  0.1007
 3459TIP3    H110341   3.270   2.273   3.623  0.4371  0.6784 -1.6073
 3459TIP3    H210342   3.355   2.199   3.724 -3.1726  0.8438  1.7399
 3460TIP3   OH210343   0.103   6.662   4.062  0.3055 -0.0312  0.1719
 3460TIP3    H110344   0.018   6.705   4.055  1.0294  1.5798  0.7172
 3460TIP3    H210345   0.087   6.587   4.120 -0.9251 -0.3395 -0.5355
 3461TIP3   OH210346   7.030   6.466   4.075  0.3747 -0.2327  0.5114
 3461TIP3    H110347   7.017   6.553   4.112  0.0640  0.2844 -0.7402
 3461TIP3    H210348   6.982   6.408   4.133 -1.0172  0.6819  0.3406
 3462TIP3   OH210349   0.235   6.349   5.567 -0.1460 -0.0221 -0.2781
 3462TIP3    H110350   0.243   6.258   5.538 -0.5046  0.5423 -2.2832
 3462TIP3    H210351   0.146   6.357   5.600  0.1985 -0.6294  0.8296
 3463TIP3   OH210352   4.035   6.783   1.537 -0.5242 -0.1833  0.3407
 3463TIP3    H110353   4.024   6.750   1.626  1.2807 -0.9476  0.3094
 3463TIP3    H210354   4.126   6.813   1.533 -0.1574 -1.3871 -1.6163
 3464TIP3   OH210355   6.173   5.279   0.125  0.1188  0.4380 -0.1860
 3464TIP3    H110356   6.191   5.232   0.044 -1.9411 -0.0273 -0.4421
 3464TIP3    H210357   6.229   5.238   0.191 -0.0529 -0.9260 -0.8630
 3465TIP3   OH210358   5.355   3.161   2.307 -0.1434  0.1691  0.2767
 3465TIP3    H110359   5.337   3.196   2.220 -1.0001 -1.8149 -0.4074
 3465TIP3    H210360   5.445   3.190   2.326 -0.0543  0.9046 -1.1097
 3466TIP3   OH210361   1.648   3.469   4.155 -0.4355  0.1848 -0.5636
 3466TIP3    H110362   1.714   3.445   4.220 -1.8501 -0.2091  0.7845
 3466TIP3    H210363   1.697   3.479   4.073  1.4541  1.0683  0.6172
 3467TIP3   OH210364   2.069   3.770   0.314  0.1322 -0.0350 -0.5722
 3467TIP3    H110365   1.990   3.801   0.271 -0.4898 -0.8752 -0.0590
 3467TIP3    H210366   2.066   3.675   0.305  1.2127 -0.0622 -0.7591
 3468TIP3   OH210367   1.092   6.111   1.788  0.1890  0.0153  0.6311
 3468TIP3    H110368   1.022   6.173   1.769  0.0566 -0.0884  0.7833
 3468TIP3    H210369   1.163   6.136   1.728 -0.1158 -0.1174  0.2066
 3469TIP3   OH210370   2.468   0.675   2.106 -0.6905  0.3811  0.1856
 3469TIP3    H110371   2.551   0.704   2.068 -1.4762  0.2986 -1.6712
 3469TIP3    H210372   2.415   0.649   2.031 -2.8335  1.5082  1.2203
 3470TIP3   OH210373   1.949   5.544   3.388 -0.5216  0.4568 -0.3212
 3470TIP3    H110374   1.946   5.616   3.324  0.0159 -1.0703 -2.1493
 3470TIP3    H210375   1.976   5.468   3.337  1.4972 -0.5424  2.0557
 3471TIP3   OH210376   0.931   0.095   5.155  0.0431  0.5282  0.2811
 3471TIP3    H110377   0.994   0.076   5.225 -1.6890 -1.4750  1.4168
 3471TIP3    H210378   0.922   0.012   5.108 -0.4252  1.2789 -1.0035
 3472TIP3   OH210379   4.133   1.413   0.982 -0.0631  0.0308 -0.1142
 3472TIP3    H110380   4.133   1.320   0.959 -1.4096  0.2101 -0.9356
 3472TIP3    H210381   4.223   1.442   0.963  0.2246 -0.9772 -0.3416
 3473TIP3   OH210382   6.759   4.703   4.487 -0.4023  0.7522  0.3395
 3473TIP3    H110383   6.832   4.685   4.546 -1.1086  0.2944  1.0840
 3473TIP3    H210384   6.751   4.799   4.487 -1.3472  0.7054  2.1849
 3474TIP3   OH210385   5.501   1.011   0.801 -0.5204 -0.0841  0.1948
 3474TIP3    H110386   5.592   0.987   0.781 -0.2108  0.7468  0.5612
 3474TIP3    H210387   5.454   0.997   0.719 -0.6182 -3.0227  0.6658
 3475TIP3   OH210388   6.004   0.865   2.626  0.2980 -0.8769  0.4667
 3475TIP3    H110389   6.056   0.881   2.705 -1.9011  1.4787  1.5784
 3475TIP3    H210390   5.939   0.935   2.626  0.3126 -0.6398 -3.6049
 3476TIP3   OH210391   6.080   5.359   4.492  0.1254 -0.4101  0.1840
 3476TIP3    H110392   6.085   5.293   4.424  0.7934 -0.5689  0.3817
 3476TIP3    H210393   6.120   5.319   4.568 -1.6636 -0.6745  1.0456
 3477TIP3   OH210394   5.858   1.136   3.508  0.3755  0.6306 -0.3184
 3477TIP3    H110395   5.808   1.107   3.432 -0.9210  1.2410  0.2778
 3477TIP3    H210396   5.819   1.220   3.532  0.2816  0.1293  1.4382
 3478TIP3   OH210397   0.495   4.074   5.402  0.3253 -0.2096  0.3393
 3478TIP3    H110398   0.525   4.043   5.317  0.8164  0.0370  0.4212
 3478TIP3    H210399   0.471   4.165   5.388 -0.2467 -0.3627  0.3097
 3479TIP3   OH210400   0.387   4.035   1.875  0.7449  0.2096 -0.9545
 3479TIP3    H110401   0.322   4.099   1.847  0.1797 -0.3776 -1.0310
 3479TIP3    H210402   0.425   4.072   1.955  0.7936  0.8645 -1.2729
 3480TIP3   OH210403   0.110   1.225   2.041 -0.1566 -0.0061  0.8417
 3480TIP3    H110404   0.052   1.231   1.966 -1.0806  1.0202  1.6053
 3480TIP3    H210405   0.059   1.178   2.107  0.3661 -0.2408  1.0890
 3481TIP3   OH210406   1.642   6.562   4.397  0.2059  0.1735 -0.3848
 3481TIP3    H110407   1.668   6.476   4.362 -0.2982 -0.3634  0.5057
 3481TIP3    H210408   1.546   6.562   4.390  0.1051  0.1298  0.7559
 3482TIP3   OH210409   5.209   4.585   3.942  0.4328  0.3115 -0.2493
 3482TIP3    H110410   5.239   4.498   3.969 -3.4119 -1.5851 -1.3847
 3482TIP3    H210411   5.136   4.605   4.001  0.1856  2.0317 -1.0635
 3483TIP3   OH210412   5.140   1.687   2.151  0.4202  0.2884  0.1943
 3483TIP3    H110413   5.177   1.691   2.063 -1.5973  2.1863 -0.6576
 3483TIP3    H210414   5.152   1.776   2.186 -0.2389 -0.0068  1.2040
 3484TIP3   OH210415   2.894   3.198   2.888 -0.1562 -0.1808  0.2227
 3484TIP3    H110416   2.948   3.211   2.810  0.5878 -0.4903  0.6765
 3484TIP3    H210417   2.804   3.194   2.854  0.1918 -0.8138 -0.6893
 3485TIP3   OH210418   1.972   5.456   5.114  0.4385  0.0199  0.3703
 3485TIP3    H110419   1.951   5.369   5.080  1.1211 -0.9045  2.1711
 3485TIP3    H210420   2.046   5.485   5.060 -0.6465  0.1203 -1.1359
 3486TIP3   OH210421   0.855   4.230   4.145 -0.7747  0.1735 -0.8113
 3486TIP3    H110422   0.937   4.277   4.163 -1.0955 -0.0020  1.3811
 3486TIP3    H210423   0.795   4.297   4.116 -0.6046  0.7961  0.2154
 3487TIP3   OH210424   4.965   3.244   1.659  0.1903  0.2610  0.4339
 3487TIP3    H110425   4.986   3.283   1.744 -0.1735 -1.5173  1.3948
 3487TIP3    H210426   4.900   3.302   1.621  0.2640  1.0144  1.4327
 3488TIP3   OH210427   6.667   0.627   4.213  0.0692 -0.3753  0.3383
 3488TIP3    H110428   6.733   0.588   4.271  0.2505  2.3815  2.1469
 3488TIP3    H210429   6.704   0.620   4.126  1.7059 -0.9126  1.0469
 3489TIP3   OH210430   1.386   6.476   2.804  0.3719  0.8446  0.3909
 3489TIP3    H110431   1.401   6.562   2.843  2.6125 -0.1660  1.9391
 3489TIP3    H210432   1.314   6.439   2.856  1.3327  0.6871  1.6535
 3490TIP3   OH210433   3.707   6.709   0.701  0.0979 -0.2764 -0.4629
 3490TIP3    H110434   3.757   6.781   0.739  0.7399 -0.7993 -0.2954
 3490TIP3    H210435   3.652   6.750   0.634 -0.5469  0.5597  0.5500
 3491TIP3   OH210436   4.406   5.684   5.769 -0.0909  0.0984 -0.2623
 3491TIP3    H110437   4.466   5.757   5.753  0.0737 -0.0805 -0.4686
 3491TIP3    H210438   4.429   5.619   5.703 -1.7970  0.7993 -1.6536
 3492TIP3   OH210439   6.579   1.870   3.520 -0.6632  0.1775 -0.3873
 3492TIP3    H110440   6.537   1.812   3.584  1.5300  0.4142  1.4325
 3492TIP3    H210441   6.543   1.957   3.539  1.3450  0.6086  2.0302
 3493TIP3   OH210442   4.377   6.071   3.115  0.3252  0.4474 -0.6457
 3493TIP3    H110443   4.372   5.979   3.139 -1.6234  1.0064  1.4615
 3493TIP3    H210444   4.336   6.076   3.029 -0.4996 -0.5254 -0.3264
 3494TIP3   OH210445   0.923   2.880   3.420  0.9295  0.1415  0.4644
 3494TIP3    H110446   0.864   2.903   3.349 -1.2939 -0.3535  2.0566
 3494TIP3    H210447   0.924   2.958   3.476  0.5207 -0.4117  1.2537
 3495TIP3   OH210448   2.074   5.379   5.431 -0.9221  0.1154 -0.2336
 3495TIP3    H110449   2.131   5.335   5.494 -2.3688  0.1313  1.1315
 3495TIP3    H210450   2.067   5.318   5.358  0.0668 -0.2945  0.0007
 3496TIP3   OH210451   4.946   3.511   5.518 -0.2849  0.9690  0.2845
 3496TIP3    H110452   5.025   3.457   5.510  0.3587  1.7919  0.9722
 3496TIP3    H210453   4.874   3.449   5.507  0.4379  0.0046  0.8493
 3497TIP3   OH210454   6.641   5.931   2.321  0.4636  0.4776 -0.0853
 3497TIP3    H110455   6.726   5.932   2.364  0.4555  0.8439 -0.0778
 3497TIP3    H210456   6.578   5.927   2.392  0.4826 -0.2560 -0.1021
 3498TIP3   OH210457   6.758   3.802   1.515  0.3642  0.0495 -0.2536
 3498TIP3    H110458   6.675   3.822   1.558 -1.3051 -1.5867 -2.4591
 3498TIP3    H210459   6.734   3.746   1.442  3.3243  0.4191 -1.6633
 3499TIP3   OH210460   6.056   5.533   2.629 -0.1986 -0.3008  0.0215
 3499TIP3    H110461   6.055   5.629   2.630  0.5853 -0.2614 -1.0444
 3499TIP3    H210462   6.010   5.510   2.548 -1.9432 -0.8950  1.1321
 3500TIP3   OH210463   0.122   5.922   2.830  0.8745 -0.7716 -0.4871
 3500TIP3    H110464   0.062   5.908   2.904  0.9960  1.8380  0.2128
 3500TIP3    H210465   0.085   5.870   2.759 -0.5135 -1.5859  0.7673
 3501TIP3   OH210466   2.105   6.620   0.883 -0.1823  0.0127 -0.1147
 3501TIP3    H110467   2.109   6.692   0.945 -0.4922 -0.6430  0.6797
 3501TIP3    H210468   2.119   6.541   0.936  2.3787 -0.4126 -1.2334
 3502TIP3   OH210469   5.401   4.505   2.811 -0.1820  0.8202  0.6602
 3502TIP3    H110470   5.373   4.414   2.798  1.4964  0.5387 -1.7106
 3502TIP3    H210471   5.321   4.556   2.803 -1.1061 -0.4021  1.6880
 3503TIP3   OH210472   5.719   3.389   4.212 -0.6268 -0.5559 -0.1717
 3503TIP3    H110473   5.663   3.423   4.283  0.3935 -0.6659  0.7007
 3503TIP3    H210474   5.713   3.294   4.221 -0.5087 -0.5698 -0.2522
 3504TIP3   OH210475   0.319   2.878   5.598  0.2677 -0.8802 -0.3403
 3504TIP3    H110476   0.342   2.842   5.683  1.1144 -2.8947 -1.3399
 3504TIP3    H210477   0.283   2.803   5.549  2.5136 -0.5726 -2.6844
 3505TIP3   OH210478   2.760   1.916   5.181  0.0955  0.3536  0.0542
 3505TIP3    H110479   2.681   1.970   5.188 -0.1634 -0.0076 -0.0358
 3505TIP3    H210480   2.729   1.826   5.198  0.5794  0.2738  0.5363
 3506TIP3   OH210481   4.090   4.802   5.092  0.1900 -0.1901 -0.7017
 3506TIP3    H110482   4.097   4.748   5.171  1.5422 -0.0030 -0.6614
 3506TIP3    H210483   3.997   4.800   5.069  0.0967 -2.1030 -0.3890
 3507TIP3   OH210484   5.829   0.397   5.456  0.1211  0.0485 -0.4434
 3507TIP3    H110485   5.824   0.400   5.360 -0.0023  0.5063 -0.4279
 3507TIP3    H210486   5.737   0.392   5.484 -0.0391  2.3423 -0.3021
 3508TIP3   OH210487   1.914   0.224   3.371  0.0568  0.5063  0.2890
 3508TIP3    H110488   1.828   0.258   3.347  1.7320  4.6769 -0.5771
 3508TIP3    H210489   1.973   0.256   3.303  2.6864 -0.1161  2.1044
 3509TIP3   OH210490   7.082   3.231   5.134  0.2419  0.0229  0.8081
 3509TIP3    H110491   7.018   3.296   5.105  0.9553  0.4439  0.1601
 3509TIP3    H210492   7.134   3.211   5.057  0.4683 -0.8281  1.1640
 3510TIP3   OH210493   5.687   5.329   0.191 -0.8037  0.4176  0.1249
 3510TIP3    H110494   5.783   5.320   0.197 -1.0366 -2.3575  1.8479
 3510TIP3    H210495   5.670   5.418   0.220  1.2018  0.3107  1.9605
 3511TIP3   OH210496   3.672   4.774   2.854  0.2957  0.0403 -0.0021
 3511TIP3    H110497   3.727   4.850   2.832  1.2935 -0.6656 -0.0385
 3511TIP3    H210498   3.617   4.804   2.926  2.0099  0.2450  1.2748
 3512TIP3   OH210499   4.023   4.075   1.288  0.1321  0.6891  0.1553
 3512TIP3    H110500   3.981   3.989   1.278  0.5362  0.3818  1.0739
 3512TIP3    H210501   4.006   4.118   1.204  0.4576 -0.5165 -0.5641
 3513TIP3   OH210502   3.752   4.149   0.379 -0.3167 -0.1240  0.0472
 3513TIP3    H110503   3.757   4.063   0.336 -0.9123 -0.6577  1.0008
 3513TIP3    H210504   3.681   4.140   0.442  0.4057  0.6895  1.0111
 3514TIP3   OH210505   2.524   0.282   5.176  0.0276  0.2422 -0.8636
 3514TIP3    H110506   2.478   0.292   5.093 -3.0477 -1.0243  0.5325
 3514TIP3    H210507   2.512   0.367   5.220  1.5244  0.8600 -1.5828
 3515TIP3   OH210508   4.118   4.697   2.080  0.0469 -0.3318 -0.2591
 3515TIP3    H110509   4.186   4.654   2.029 -0.9997 -0.3145 -1.7278
 3515TIP3    H210510   4.074   4.625   2.125  0.0853 -0.5033 -0.4900
 3516TIP3   OH210511   3.225   6.323   4.383  0.8968  0.1261  0.0785
 3516TIP3    H110512   3.277   6.341   4.461  0.3188  0.2304  0.4490
 3516TIP3    H210513   3.197   6.232   4.394  0.1506  0.3808  0.4014
 3517TIP3   OH210514   3.060   0.246   4.006  0.2226  0.1620 -0.0150
 3517TIP3    H110515   3.103   0.274   4.086  1.4963  1.0004 -0.9531
 3517TIP3    H210516   3.077   0.317   3.943 -0.5180 -0.5828 -1.0991
 3518TIP3   OH210517   3.915   0.760   0.467  0.0605 -0.0873 -0.2059
 3518TIP3    H110518   3.837   0.815   0.460  0.4285  0.4368 -0.3117
 3518TIP3    H210519   3.946   0.774   0.557  0.2546  0.0260 -0.2881
 3519TIP3   OH210520   1.422   2.817   1.261 -0.1885 -0.1290  0.0802
 3519TIP3    H110521   1.390   2.841   1.174  1.1403 -0.4393 -0.5245
 3519TIP3    H210522   1.518   2.822   1.253 -0.0102 -1.3963  1.1661
 3520TIP3   OH210523   6.451   5.725   1.213  0.5389 -0.0235 -0.1070
 3520TIP3    H110524   6.387   5.655   1.215  1.1169 -0.5727  2.1616
 3520TIP3    H210525   6.509   5.707   1.288  1.3040  2.2976 -0.0474
 3521TIP3   OH210526   0.572   0.224   1.281 -0.5293 -0.5288 -0.0542
 3521TIP3    H110527   0.495   0.265   1.321 -0.8646 -1.0373 -0.1561
 3521TIP3    H210528   0.535   0.166   1.214 -0.0691 -0.9599  0.0631
 3522TIP3   OH210529   2.261   3.703   0.673  0.2042  1.0183  0.4621
 3522TIP3    H110530   2.183   3.732   0.625  0.5199  1.4763  0.2239
 3522TIP3    H210531   2.305   3.644   0.612 -1.2718 -1.3366  1.5156
 3523TIP3   OH210532   4.476   1.465   5.811 -0.2541  0.1745  0.2345
 3523TIP3    H110533   4.394   1.425   5.781 -0.2813  1.1445 -1.0799
 3523TIP3    H210534   4.482   1.547   5.762  0.5160  1.1016  1.7964
 3524TIP3   OH210535   4.581   4.472   5.239 -0.8362  0.3909 -0.4194
 3524TIP3    H110536   4.546   4.497   5.154 -2.5513  1.3320  0.5096
 3524TIP3    H210537   4.576   4.552   5.292  0.1403 -0.1796  0.5908
 3525TIP3   OH210538   4.758   2.339   2.995 -0.2591 -0.7480  0.4611
 3525TIP3    H110539   4.748   2.246   3.018 -0.7801 -0.8418 -0.1225
 3525TIP3    H210540   4.700   2.385   3.055  0.6113 -0.7210  1.2946
 3526TIP3   OH210541   1.051   6.560   5.508  0.4211 -0.3230  0.2285
 3526TIP3    H110542   0.997   6.492   5.547  1.2300 -2.1573 -1.6467
 3526TIP3    H210543   1.027   6.560   5.415  0.7273  1.7207  0.0910
 3527TIP3   OH210544   7.197   6.730   2.102 -0.0945 -0.0254  0.1290
 3527TIP3    H110545   7.135   6.777   2.156  0.2297 -1.1160  1.5015
 3527TIP3    H210546   7.193   6.640   2.133 -0.3948 -0.8681 -2.1364
 3528TIP3   OH210547   3.761   4.261   5.869  0.1587 -0.5801  0.1899
 3528TIP3    H110548   3.745   4.313   5.947 -0.4264 -0.6436  0.1194
 3528TIP3    H210549   3.700   4.296   5.804  0.7484 -0.4203 -0.2911
 3529TIP3   OH210550   6.234   5.699   4.881 -0.1982  0.8434 -0.1901
 3529TIP3    H110551   6.257   5.768   4.820  0.9242  0.1707 -0.5654
 3529TIP3    H210552   6.198   5.629   4.827  0.9575  0.1777 -0.1439
 3530TIP3   OH210553   2.293   0.349   3.416 -0.5752  0.0493 -0.5433
 3530TIP3    H110554   2.336   0.267   3.391 -0.1480  0.7835 -2.4104
 3530TIP3    H210555   2.336   0.375   3.498 -0.8270 -1.6392  0.1582
 3531TIP3   OH210556   6.372   5.201   3.646  0.0153 -0.0508  0.0731
 3531TIP3    H110557   6.293   5.255   3.644 -0.9155 -1.3336  0.7730
 3531TIP3    H210558   6.340   5.111   3.640  1.3202 -0.6654  1.5933
 3532TIP3   OH210559   3.426   1.798   0.257  0.3395  0.2574 -0.5398
 3532TIP3    H110560   3.348   1.853   0.256  0.8830  1.1357  1.2791
 3532TIP3    H210561   3.488   1.845   0.312  1.4347 -1.3890 -0.2931
 3533TIP3   OH210562   3.290   3.387   2.646  0.7144 -0.1608 -0.4025
 3533TIP3    H110563   3.282   3.472   2.604 -1.7273  0.0284  0.3132
 3533TIP3    H210564   3.385   3.369   2.647  1.1305  1.6097 -2.3174
 3534TIP3   OH210565   0.134   2.455   0.450 -0.2295  0.0659  0.1309
 3534TIP3    H110566   0.079   2.394   0.499 -2.1963  1.2711 -0.4490
 3534TIP3    H210567   0.224   2.431   0.473 -1.0098 -0.0135  3.5688
 3535TIP3   OH210568   5.786   6.230   3.354  0.0425 -0.4201 -0.0095
 3535TIP3    H110569   5.830   6.257   3.434  0.3696 -1.4333  0.1689
 3535TIP3    H210570   5.743   6.148   3.377 -1.7915  0.4390 -0.2389
 3536TIP3   OH210571   1.866   2.948   5.305  0.3244 -0.5593  0.0901
 3536TIP3    H110572   1.779   2.911   5.323  0.7103 -1.6007 -0.1072
 3536TIP3    H210573   1.860   2.980   5.215  0.2679 -0.9979 -0.0631
 3537TIP3   OH210574   0.549   3.934   2.769 -0.2809  0.0674 -0.0562
 3537TIP3    H110575   0.504   3.850   2.762 -1.0007  0.3392  1.1056
 3537TIP3    H210576   0.621   3.918   2.830  1.0084 -0.2654 -1.6089
 3538TIP3   OH210577   6.175   6.015   0.140  0.1497 -0.3844 -0.0689
 3538TIP3    H110578   6.123   6.090   0.166 -0.3697 -0.5082 -0.7244
 3538TIP3    H210579   6.259   6.052   0.113  0.4675 -0.2012  1.1281
 3539TIP3   OH210580   0.901   3.735   3.689 -0.3948  0.1598  0.3493
 3539TIP3    H110581   0.950   3.653   3.700  1.9102  0.9324 -2.7416
 3539TIP3    H210582   0.926   3.787   3.766  2.3557 -0.1967 -0.1678
 3540TIP3   OH210583   5.414   2.074   3.670  0.4971  0.1132  0.1716
 3540TIP3    H110584   5.434   1.999   3.613  1.6294 -0.7172  1.5751
 3540TIP3    H210585   5.343   2.043   3.727 -1.4840  1.3510 -1.4982
 3541TIP3   OH210586   6.270   2.292   0.664  0.1939  0.0713 -0.7069
 3541TIP3    H110587   6.263   2.381   0.698  1.3776  0.1007 -0.4823
 3541TIP3    H210588   6.347   2.256   0.707  0.7746 -0.4565 -2.1038
 3542TIP3   OH210589   6.741   0.687   2.581  0.1555  0.2251 -0.5156
 3542TIP3    H110590   6.701   0.771   2.560 -1.9714 -0.7291 -0.5722
 3542TIP3    H210591   6.667   0.628   2.594  1.5301 -1.1679  1.6036
 3543TIP3   OH210592   6.460   3.036   5.862  0.4123  0.1052 -0.3859
 3543TIP3    H110593   6.368   3.018   5.842  0.0456  0.7606  0.6339
 3543TIP3    H210594   6.484   3.108   5.804  0.9680 -1.4754 -2.2375
 3544TIP3   OH210595   7.083   0.179   1.584 -0.3188  0.3181  0.3510
 3544TIP3    H110596   7.057   0.136   1.502  1.6928  0.3721 -0.3706
 3544TIP3    H210597   7.124   0.260   1.556  0.0241  0.5334  1.4475
 3545TIP3   OH210598   5.525   1.636   2.879  0.1922  0.0790  0.2621
 3545TIP3    H110599   5.586   1.675   2.816  0.9820  0.4445  1.2298
 3545TIP3    H210600   5.557   1.665   2.965 -2.0054  1.2654  0.7582
 3546TIP3   OH210601   0.953   6.489   2.345  0.2125  0.6430 -0.1367
 3546TIP3    H110602   1.032   6.500   2.398  0.0493 -2.4294  0.9148
 3546TIP3    H210603   0.882   6.483   2.409 -0.3806 -0.1450 -0.8532
 3547TIP3   OH210604   1.335   0.291   3.108 -1.2477 -0.2492  0.6929
 3547TIP3    H110605   1.425   0.300   3.138 -1.2668  0.7253  0.5015
 3547TIP3    H210606   1.333   0.206   3.063 -0.4549 -0.3263  0.7865
 3548TIP3   OH210607   1.601   1.113   4.459  0.5094 -0.0459  0.1962
 3548TIP3    H110608   1.666   1.063   4.409  0.5096  0.2169 -0.0710
 3548TIP3    H210609   1.530   1.051   4.476  1.5903 -0.8640  2.0382
 3549TIP3   OH210610   6.886   0.585   4.499 -0.2489  0.6429 -0.5724
 3549TIP3    H110611   6.850   0.496   4.506  0.1281  0.4643 -0.8784
 3549TIP3    H210612   6.922   0.589   4.411  3.5409 -0.3438  0.7665
 3550TIP3   OH210613   2.964   0.120   0.654  0.4201 -0.2334  0.2171
 3550TIP3    H110614   2.963   0.164   0.569 -0.3397  0.4262  0.5513
 3550TIP3    H210615   2.887   0.063   0.651  1.7738 -2.1073 -0.4803
 3551TIP3   OH210616   5.145   0.788   0.342  0.4005  0.0802  0.0769
 3551TIP3    H110617   5.172   0.720   0.404  1.0353 -0.5395 -0.8548
 3551TIP3    H210618   5.222   0.844   0.332 -0.1567  1.0416  0.9293
 3552TIP3   OH210619   6.802   3.580   3.057  0.6007  0.7107  0.0516
 3552TIP3    H110620   6.758   3.662   3.036 -0.4620 -0.0418 -0.7623
 3552TIP3    H210621   6.789   3.526   2.979 -0.5803 -0.9892  1.3720
 3553TIP3   OH210622   5.394   5.405   3.355 -0.2258 -0.2639  1.0100
 3553TIP3    H110623   5.386   5.310   3.347  1.7899 -0.3405 -1.2858
 3553TIP3    H210624   5.480   5.419   3.393  0.0557  0.6472  0.0755
 3554TIP3   OH210625   3.416   6.279   3.983 -0.4886 -0.0238 -0.2076
 3554TIP3    H110626   3.417   6.191   3.946 -1.8274 -0.0686 -0.1667
 3554TIP3    H210627   3.496   6.283   4.036  0.0396 -0.8999 -0.9137
 3555TIP3   OH210628   1.322   4.591   0.973  0.0337  0.0463 -0.2126
 3555TIP3    H110629   1.254   4.549   0.920  1.0243 -0.2773 -1.2815
 3555TIP3    H210630   1.317   4.547   1.058 -0.3661 -0.7445 -0.6301
 3556TIP3   OH210631   2.372   2.600   3.128  0.2094 -0.1613 -0.2190
 3556TIP3    H110632   2.288   2.592   3.174  0.2796  0.2953 -0.0087
 3556TIP3    H210633   2.436   2.617   3.198  0.6211 -1.3685 -0.2682
 3557TIP3   OH210634   2.586   4.958   3.409 -0.0218 -0.0462  0.6545
 3557TIP3    H110635   2.592   4.904   3.488 -0.3990  0.3517  0.9595
 3557TIP3    H210636   2.496   4.946   3.379  0.5018 -1.3050 -0.5271
 3558TIP3   OH210637   4.040   4.151   3.155  0.2333  0.1973  0.2444
 3558TIP3    H110638   4.102   4.179   3.088  0.2122 -0.1859  0.0603
 3558TIP3    H210639   3.974   4.220   3.158  0.6357  0.5739  0.3954
 3559TIP3   OH210640   3.732   3.753   4.418 -0.4680  0.0473  0.1079
 3559TIP3    H110641   3.703   3.683   4.475  1.3308  0.2223  1.3268
 3559TIP3    H210642   3.737   3.830   4.475  1.1268  0.2836 -0.2938
 3560TIP3   OH210643   4.403   5.837   2.815  0.4785  0.0406 -0.3952
 3560TIP3    H110644   4.438   5.822   2.727 -0.5637  0.9854 -0.9980
 3560TIP3    H210645   4.454   5.779   2.871  0.8012 -0.9965 -1.6993
 3561TIP3   OH210646   2.013   5.740   1.952  0.0916  0.0847 -0.2358
 3561TIP3    H110647   1.954   5.811   1.926 -1.0141 -0.5777  0.4034
 3561TIP3    H210648   1.974   5.661   1.914 -0.4117 -0.6039  1.5891
 3562TIP3   OH210649   2.623   2.878   3.111 -0.0268 -0.8890 -0.6518
 3562TIP3    H110650   2.613   2.789   3.145  1.0416 -1.1786 -1.0728
 3562TIP3    H210651   2.690   2.871   3.043 -0.4479  0.1114 -1.1932
 3563TIP3   OH210652   4.675   4.171   1.371 -0.0505  0.7937  0.0107
 3563TIP3    H110653   4.630   4.099   1.327  0.2431 -0.8035  2.1927
 3563TIP3    H210654   4.614   4.245   1.363 -1.7975 -0.5229  0.3886
 3564TIP3   OH210655   4.171   3.505   0.633  0.2977  0.1641 -0.0697
 3564TIP3    H110656   4.146   3.588   0.593 -0.3459 -0.8482 -1.8406
 3564TIP3    H210657   4.199   3.530   0.722 -0.2614  2.2063 -0.3998
 3565TIP3   OH210658   1.350   2.979   0.482 -0.0658 -0.6397  0.3346
 3565TIP3    H110659   1.344   2.961   0.576  0.9608 -0.3145  0.4700
 3565TIP3    H210660   1.259   2.988   0.454 -0.3501  1.0043  1.6480
 3566TIP3   OH210661   5.881   3.422   3.994  0.5762 -0.4670 -0.4686
 3566TIP3    H110662   5.900   3.330   3.975 -1.6919 -0.6310 -2.4750
 3566TIP3    H210663   5.812   3.418   4.060  1.5825 -0.1180  0.6342
 3567TIP3   OH210664   0.240   4.229   4.518  0.0624  0.2468  0.3079
 3567TIP3    H110665   0.213   4.312   4.558  0.4289  0.7813 -0.5237
 3567TIP3    H210666   0.324   4.209   4.560  0.2290  0.5743  0.1376
 3568TIP3   OH210667   3.842   0.660   2.216 -0.0034  0.0287 -0.2987
 3568TIP3    H110668   3.871   0.743   2.253 -1.1675 -0.3045  1.4928
 3568TIP3    H210669   3.831   0.678   2.123  0.6756  1.6133 -0.1048
 3569TIP3   OH210670   2.223   2.700   5.732  0.1112  0.1131 -0.4040
 3569TIP3    H110671   2.293   2.690   5.668  0.0515  0.1120 -0.4691
 3569TIP3    H210672   2.268   2.720   5.814  0.3132 -1.6159 -0.0542
 3570TIP3   OH210673   0.848   4.344   0.985  0.0688  0.2235  0.0288
 3570TIP3    H110674   0.936   4.315   1.008  0.6198  1.4273 -0.4672
 3570TIP3    H210675   0.831   4.417   1.044 -0.4922  0.1711 -0.0667
 3571TIP3   OH210676   6.217   3.571   1.268 -0.1415  0.8749  0.3353
 3571TIP3    H110677   6.143   3.517   1.240 -0.2161  0.7491  0.7665
 3571TIP3    H210678   6.287   3.550   1.206 -0.2708  0.5309  0.3040
 3572TIP3   OH210679   6.800   3.816   2.650 -0.6846 -0.2650  0.2951
 3572TIP3    H110680   6.818   3.854   2.736 -0.3290  0.5364 -0.1261
 3572TIP3    H210681   6.843   3.875   2.588 -2.3264  0.0892 -0.5541
 3573TIP3   OH210682   3.861   5.727   4.846  0.0797  0.3786  0.0455
 3573TIP3    H110683   3.769   5.714   4.827  0.2074  1.1272 -1.1362
 3573TIP3    H210684   3.862   5.788   4.921 -0.3837 -0.6596  0.9127
 3574TIP3   OH210685   4.806   5.209   2.410  0.4919  0.2106  0.0436
 3574TIP3    H110686   4.794   5.302   2.426  1.2589  0.3219 -0.0037
 3574TIP3    H210687   4.891   5.188   2.450  0.6495 -0.3228 -0.5491
 3575TIP3   OH210688   6.417   2.210   3.246 -0.3160 -0.9742  0.2655
 3575TIP3    H110689   6.491   2.163   3.286 -0.2574  0.5054  2.0005
 3575TIP3    H210690   6.362   2.235   3.320 -0.4285  1.5377 -0.5890
 3576TIP3   OH210691   1.823   0.567   0.355 -0.2894  0.0538 -0.3930
 3576TIP3    H110692   1.858   0.488   0.313  2.0478  0.9555 -0.2931
 3576TIP3    H210693   1.758   0.600   0.293  0.2789 -0.7743 -1.4596
 3577TIP3   OH210694   5.917   3.534   3.379 -0.0787  0.6255 -0.2854
 3577TIP3    H110695   5.995   3.509   3.428  1.5362  1.1994 -2.4266
 3577TIP3    H210696   5.896   3.622   3.409  0.4361  0.6878 -0.1062
 3578TIP3   OH210697   2.150   5.275   4.389  1.3157  0.2325  0.4485
 3578TIP3    H110698   2.124   5.183   4.389  0.8591  0.3586  0.7923
 3578TIP3    H210699   2.200   5.286   4.470  2.6359 -0.0541 -0.3021
 3579TIP3   OH210700   5.004   4.936   5.894  0.2952 -0.1240  0.3133
 3579TIP3    H110701   4.916   4.899   5.898 -0.0522  0.8109  1.8431
 3579TIP3    H210702   4.993   5.019   5.848  0.6752 -0.7323 -0.9294
 3580TIP3   OH210703   2.087   4.660   5.496  0.4167  0.2240  0.4686
 3580TIP3    H110704   2.079   4.742   5.447 -0.3724 -0.1785 -0.1032
 3580TIP3    H210705   2.088   4.687   5.588 -1.9327  0.7594  0.3800
 3581TIP3   OH210706   2.437   2.752   5.568  0.0972 -0.5314 -0.0338
 3581TIP3    H110707   2.484   2.835   5.558 -0.3096 -0.3403 -0.3632
 3581TIP3    H210708   2.506   2.688   5.585  0.3531  0.0026  1.0345
 3582TIP3   OH210709   1.268   2.989   2.037  0.4568 -0.2506  0.0164
 3582TIP3    H110710   1.255   3.059   2.101  1.6826 -0.2979  0.3559
 3582TIP3    H210711   1.180   2.962   2.012 -0.0466  1.3299 -0.0389
 3583TIP3   OH210712   5.194   2.979   5.405 -0.0082 -0.0644  0.1059
 3583TIP3    H110713   5.206   2.926   5.484  0.7281  2.0216  1.4784
 3583TIP3    H210714   5.112   3.027   5.420 -1.5355 -1.8833 -1.8298
 3584TIP3   OH210715   3.846   2.969   1.422 -0.0197 -0.1633 -0.0579
 3584TIP3    H110716   3.787   3.044   1.422  1.4932  1.1982 -2.6138
 3584TIP3    H210717   3.796   2.898   1.382 -0.4620  0.4525 -0.6080
 3585TIP3   OH210718   1.638   3.015   2.703  0.5345 -0.8264  0.6953
 3585TIP3    H110719   1.574   2.979   2.764  1.0421 -2.2739  0.4157
 3585TIP3    H210720   1.723   3.000   2.745  0.7451  0.9937  1.0224
 3586TIP3   OH210721   0.333   4.371   1.424  0.0988 -0.3280  0.9711
 3586TIP3    H110722   0.315   4.464   1.411  0.0050 -0.2894  1.3674
 3586TIP3    H210723   0.330   4.333   1.336  2.7067  0.4787  0.4565
 3587TIP3   OH210724   0.539   1.704   4.959 -0.6024 -0.4422  0.2064
 3587TIP3    H110725   0.512   1.633   4.900 -1.8622 -0.7514  1.1329
 3587TIP3    H210726   0.530   1.784   4.907 -0.0008 -0.8625 -0.5691
 3588TIP3   OH210727   5.608   6.200   2.180  0.3649 -0.0477 -0.1079
 3588TIP3    H110728   5.525   6.207   2.134 -0.6137 -0.4831  1.4958
 3588TIP3    H210729   5.632   6.290   2.201  0.0490  0.0516 -0.1727
 3589TIP3   OH210730   0.561   3.676   5.426 -0.2843  0.0590  0.3481
 3589TIP3    H110731   0.548   3.668   5.521  0.6698 -1.0778  0.4174
 3589TIP3    H210732   0.603   3.593   5.401 -0.8681  0.1844 -1.1356
 3590TIP3   OH210733   6.756   5.294   5.687  0.2673  0.3421 -0.1280
 3590TIP3    H110734   6.746   5.205   5.655  1.2235  1.3190 -3.6017
 3590TIP3    H210735   6.705   5.296   5.769  0.1505 -3.2768  0.0453
 3591TIP3   OH210736   0.611   0.409   3.689  0.0744  0.3197 -0.3748
 3591TIP3    H110737   0.659   0.417   3.607 -0.3277 -1.6024 -0.8384
 3591TIP3    H210738   0.519   0.397   3.662  0.0055 -0.8455  0.2986
 3592TIP3   OH210739   2.256   5.991   0.079 -0.2155  0.1600 -0.3384
 3592TIP3    H110740   2.335   6.041   0.102 -1.1409  0.7566  1.7373
 3592TIP3    H210741   2.281   5.899   0.094  0.3324  0.2768 -0.4947
 3593TIP3   OH210742   3.858   5.580   0.043 -0.1975  0.1647  0.1362
 3593TIP3    H110743   3.851   5.511  -0.024 -1.5504  1.7581 -1.4661
 3593TIP3    H210744   3.938   5.560   0.090 -0.3460 -2.2874 -0.5099
 3594TIP3   OH210745   3.469   4.523   0.621  0.4891 -0.2736 -0.6567
 3594TIP3    H110746   3.377   4.505   0.640  0.7978 -1.4678 -0.2202
 3594TIP3    H210747   3.493   4.593   0.682  0.1744 -0.7506  0.0290
 3595TIP3   OH210748   3.532   6.710   4.624  0.5124 -0.6365  0.3017
 3595TIP3    H110749   3.515   6.643   4.690 -0.1491 -1.2036 -0.4220
 3595TIP3    H210750   3.453   6.765   4.625  1.9611  1.6242  2.5402
 3596TIP3   OH210751   1.375   1.231   5.631 -0.4425 -0.1810 -0.0187
 3596TIP3    H110752   1.398   1.167   5.563 -0.0677  1.1394 -1.2027
 3596TIP3    H210753   1.311   1.186   5.686  0.2289 -1.7563 -0.4510
 3597TIP3   OH210754   3.256   3.415   1.143 -0.3854 -0.0273 -0.3554
 3597TIP3    H110755   3.171   3.449   1.168 -0.7178  0.2536 -1.7691
 3597TIP3    H210756   3.268   3.444   1.052  1.6752  0.8558  0.1302
 3598TIP3   OH210757   0.469   3.649   1.164 -0.0694 -0.2115  0.6822
 3598TIP3    H110758   0.432   3.593   1.233 -0.5515  0.0477  0.6415
 3598TIP3    H210759   0.420   3.625   1.085 -0.0281  0.0152  0.5884
 3599TIP3   OH210760   2.522   2.841   1.450  0.2991 -0.0236  0.0865
 3599TIP3    H110761   2.553   2.766   1.400 -1.4443 -1.4897  1.0797
 3599TIP3    H210762   2.432   2.854   1.421 -0.1846  0.1651  1.5784
 3600TIP3   OH210763   6.569   4.622   0.267 -0.0636 -0.3108  0.0920
 3600TIP3    H110764   6.598   4.712   0.284 -0.4657 -0.5919  2.5666
 3600TIP3    H210765   6.509   4.630   0.193  0.8213  1.2601 -0.5083
 3601TIP3   OH210766   5.109   2.653   4.191 -0.0136  0.1756  0.0429
 3601TIP3    H110767   5.041   2.716   4.166  1.0701  1.1423 -0.5407
 3601TIP3    H210768   5.079   2.570   4.155 -1.8695  0.1510  1.4990
 3602TIP3   OH210769   6.686   1.198   0.879 -0.0960 -0.2719  0.4457
 3602TIP3    H110770   6.611   1.251   0.852  0.3175  0.6220  1.0120
 3602TIP3    H210771   6.656   1.154   0.959 -0.1618 -0.2482  0.4339
 3603TIP3   OH210772   3.975   0.024   3.428  0.0850  0.1167  0.1874
 3603TIP3    H110773   3.903   0.080   3.397  2.7487  2.2018 -2.8753
 3603TIP3    H210774   3.975  -0.049   3.366  0.2448 -0.1975  0.5574
 3604TIP3   OH210775   6.220   1.776   3.385  0.3074 -0.1842 -0.2726
 3604TIP3    H110776   6.143   1.719   3.378 -1.0307  1.2721  1.6992
 3604TIP3    H210777   6.259   1.755   3.470  0.1514  1.3694  0.2175
 3605TIP3   OH210778   2.487   5.929   5.604  0.0305  0.5008  0.8385
 3605TIP3    H110779   2.477   5.834   5.610  1.4873  0.3509  1.3522
 3605TIP3    H210780   2.422   5.964   5.665 -1.5478 -0.0768 -0.4526
 3606TIP3   OH210781   2.683   4.286   5.891  0.1405  0.3408  0.1359
 3606TIP3    H110782   2.688   4.356   5.825 -1.3335  1.0201  0.7107
 3606TIP3    H210783   2.604   4.238   5.869  2.1003 -2.4822 -1.4432
 3607TIP3   OH210784   5.073   1.380   5.471 -0.4012  0.4314 -0.4054
 3607TIP3    H110785   5.137   1.427   5.525  0.1218 -1.1924  0.4557
 3607TIP3    H210786   5.080   1.420   5.385  1.6365  0.4221 -0.2852
 3608TIP3   OH210787   3.384   1.389   2.889 -0.3175  0.1777  0.6735
 3608TIP3    H110788   3.436   1.361   2.814 -1.7832  1.2438 -0.8257
 3608TIP3    H210789   3.441   1.451   2.935  0.6673 -0.6225  0.5738
 3609TIP3   OH210790   6.552   6.028   4.547 -0.0372  0.3099 -0.1336
 3609TIP3    H110791   6.468   5.983   4.555 -1.8365  3.3719 -0.2211
 3609TIP3    H210792   6.597   6.009   4.629 -0.9549 -1.0714  0.0817
 3610TIP3   OH210793   2.649   0.435   2.874 -0.2040 -0.0668  0.1949
 3610TIP3    H110794   2.682   0.393   2.795  1.0614  0.1019  0.6174
 3610TIP3    H210795   2.568   0.478   2.846  0.0506 -0.2896 -0.9202
 3611TIP3   OH210796   3.372   3.031   1.083  0.2293 -0.6585  0.2274
 3611TIP3    H110797   3.370   3.096   1.154  1.6497  1.5867 -1.6278
 3611TIP3    H210798   3.458   2.989   1.092  0.5305 -0.1663 -0.3104
 3612TIP3   OH210799   4.054   0.453   1.261  0.7291  0.0175 -0.8984
 3612TIP3    H110800   4.105   0.459   1.342 -0.2792 -0.2594 -0.2331
 3612TIP3    H210801   3.966   0.480   1.286  0.7019  1.2489 -2.2107
 3613TIP3   OH210802   0.046   6.385   3.724 -0.7323 -0.2155  0.0130
 3613TIP3    H110803  -0.018   6.378   3.795  0.5214  3.4285  1.7468
 3613TIP3    H210804   0.001   6.435   3.656 -0.7959 -0.6351 -0.2572
 3614TIP3   OH210805   1.776   0.092   4.054  0.4773 -0.4822 -0.0354
 3614TIP3    H110806   1.841   0.073   3.986  0.8634 -0.9217  0.4501
 3614TIP3    H210807   1.727   0.167   4.020 -0.0667 -1.3767 -1.3179
 3615TIP3   OH210808   2.094   3.921   0.544 -0.2305  0.6290 -0.4050
 3615TIP3    H110809   2.051   4.006   0.541 -1.4447  0.0963  0.8593
 3615TIP3    H210810   2.075   3.881   0.459 -2.5993  0.2729  0.2271
 3616TIP3   OH210811   2.992   4.401   2.556 -0.0025 -0.4411 -0.3897
 3616TIP3    H110812   2.932   4.407   2.630  0.2085 -1.0241 -0.1632
 3616TIP3    H210813   3.016   4.492   2.537 -0.1476 -0.2774  0.1856
 3617TIP3   OH210814   5.369   3.129   4.073  0.4327  0.8157  0.0872
 3617TIP3    H110815   5.438   3.175   4.027  0.8770 -1.0699 -1.2387
 3617TIP3    H210816   5.334   3.067   4.009 -0.5967 -0.2014  1.5543
 3618TIP3   OH210817   7.190   3.347   4.331 -0.2513 -0.1390 -0.0888
 3618TIP3    H110818   7.271   3.350   4.382 -0.8694  1.0340  0.8706
 3618TIP3    H210819   7.144   3.271   4.364  0.2768 -0.5918 -0.3735
 3619TIP3   OH210820   0.291   5.449   1.085  0.4250  0.0036  0.3973
 3619TIP3    H110821   0.356   5.484   1.024  0.9450 -2.5077 -0.6201
 3619TIP3    H210822   0.340   5.390   1.141 -0.7590 -1.0049  0.4133
 3620TIP3   OH210823   1.921   2.860   3.837  0.5067 -0.1148  0.2994
 3620TIP3    H110824   1.895   2.795   3.903 -0.7766 -0.5536 -0.5986
 3620TIP3    H210825   1.876   2.832   3.757  0.3590  1.5816 -0.2458
 3621TIP3   OH210826   1.578   0.669   5.315  0.0713 -0.4190 -0.0777
 3621TIP3    H110827   1.494   0.684   5.358  0.2358 -0.2550  0.1854
 3621TIP3    H210828   1.579   0.575   5.297  1.8429 -1.4746  4.2260
 3622TIP3   OH210829   4.266   5.972   1.862  0.5058 -0.2230 -0.9865
 3622TIP3    H110830   4.349   6.001   1.901 -0.0087 -0.1701  0.1085
 3622TIP3    H210831   4.265   6.011   1.775  0.6969  1.4921 -0.2567
 3623TIP3   OH210832   3.515   0.277   0.112 -0.8942 -0.1029  0.2989
 3623TIP3    H110833   3.533   0.276   0.206 -0.5563  1.5611  0.2867
 3623TIP3    H210834   3.420   0.266   0.106 -0.6952 -2.6163  0.6732
 3624TIP3   OH210835   5.043   4.170   3.355  0.0426 -0.1847  0.1074
 3624TIP3    H110836   5.121   4.220   3.331 -0.0131 -0.6419 -1.1079
 3624TIP3    H210837   5.038   4.101   3.290 -1.4518 -0.0986  0.0902
 3625TIP3   OH210838   6.786   5.909   4.714  0.4450  0.1744 -0.0318
 3625TIP3    H110839   6.816   5.907   4.623  1.8860  0.7473  0.3961
 3625TIP3    H210840   6.766   5.818   4.735  0.5199 -0.0243 -0.7976
 3626TIP3   OH210841   5.852   5.800   4.261  0.0734  0.1843  0.1565
 3626TIP3    H110842   5.849   5.864   4.332  1.3502  1.0820 -0.5686
 3626TIP3    H210843   5.931   5.822   4.212 -0.0497 -1.2757 -0.7532
 3627TIP3   OH210844   4.501   2.427   5.448 -0.4379 -0.0889  0.6065
 3627TIP3    H110845   4.459   2.504   5.408  0.3432 -0.2362 -0.5409
 3627TIP3    H210846   4.588   2.458   5.473  0.2362 -0.8255 -0.7409
 3628TIP3   OH210847   5.118   4.233   2.479  0.0529  0.4087 -0.1909
 3628TIP3    H110848   5.070   4.304   2.437  0.8668  0.9173 -0.2730
 3628TIP3    H210849   5.122   4.164   2.412  1.2154  1.1544 -0.9139
 3629TIP3   OH210850   2.858   1.052   0.619  0.1562 -0.1111  0.0096
 3629TIP3    H110851   2.768   1.067   0.588 -0.5981 -0.1509  1.9973
 3629TIP3    H210852   2.913   1.098   0.556 -1.3484  0.9603 -0.5986
 3630TIP3   OH210853   3.702   2.106   4.295 -0.2351  0.7841  0.0184
 3630TIP3    H110854   3.758   2.159   4.237 -1.2463  0.4284 -1.3492
 3630TIP3    H210855   3.636   2.167   4.326 -0.1709  0.7902  0.1429
 3631TIP3   OH210856   2.176   1.547   5.095 -0.4674  0.6256  0.3822
 3631TIP3    H110857   2.224   1.471   5.128 -1.4368  0.2257  0.9172
 3631TIP3    H210858   2.244   1.606   5.063  0.3355 -0.2359  0.4415
 3632TIP3   OH210859   2.141   0.814   0.909 -0.0954  0.1369 -0.0954
 3632TIP3    H110860   2.165   0.745   0.847  0.2149  1.0799 -1.0543
 3632TIP3    H210861   2.218   0.824   0.965  1.4470  2.3279 -2.4053
 3633TIP3   OH210862   4.743   2.189   2.280  0.3242 -0.1837 -0.0206
 3633TIP3    H110863   4.762   2.277   2.313  3.5978 -0.9355  0.4680
 3633TIP3    H210864   4.801   2.179   2.204  0.9876 -2.2862  0.6836
 3634TIP3   OH210865   5.861   5.164   4.597  0.3036 -0.3258 -0.3368
 3634TIP3    H110866   5.777   5.203   4.623  0.4488  0.3950 -0.9026
 3634TIP3    H210867   5.883   5.104   4.668  0.2379  0.8904  0.7557
 3635TIP3   OH210868   0.704   4.033   3.989 -0.5416  0.1078  0.5177
 3635TIP3    H110869   0.782   4.008   3.938 -1.9505  0.3960 -1.9395
 3635TIP3    H210870   0.738   4.087   4.060  1.5076  0.4249 -0.6166
 3636TIP3   OH210871   3.422   4.985   0.941 -0.3374 -0.4203 -0.4345
 3636TIP3    H110872   3.494   5.047   0.955 -0.2252 -0.3877 -1.1403
 3636TIP3    H210873   3.384   5.009   0.857  0.3481 -1.9351 -1.2180
 3637TIP3   OH210874   6.003   6.314   5.840  0.3090  0.0836 -0.1928
 3637TIP3    H110875   6.084   6.342   5.798  0.7589 -0.9124 -0.0181
 3637TIP3    H210876   5.939   6.311   5.768  0.3764  1.0222 -0.3013
 3638TIP3   OH210877   4.143   3.485   1.172  0.1968  0.3240 -0.4844
 3638TIP3    H110878   4.223   3.433   1.180  0.2534  0.3229 -1.0444
 3638TIP3    H210879   4.073   3.426   1.197  0.3784  0.3688  0.1657
 3639TIP3   OH210880   3.528   5.407   4.434 -0.2889 -0.2724 -0.3431
 3639TIP3    H110881   3.445   5.424   4.478  0.0383 -0.3485  0.3189
 3639TIP3    H210882   3.533   5.311   4.430 -0.5633 -0.2595 -1.0244
 3640TIP3   OH210883   4.958   1.146   5.566 -0.1599  0.1139 -0.6307
 3640TIP3    H110884   4.961   1.084   5.493 -0.1520 -0.7546  0.0753
 3640TIP3    H210885   4.998   1.226   5.533 -0.8635 -0.0015 -1.8071
 3641TIP3   OH210886   5.552   0.089   1.840 -0.5969 -0.2639  0.6142
 3641TIP3    H110887   5.605   0.039   1.902  1.8442 -0.7136 -1.6597
 3641TIP3    H210888   5.517   0.162   1.892  0.7870 -0.9631  2.6421
 3642TIP3   OH210889   3.458   1.171   3.628 -0.4386  0.7046  0.0783
 3642TIP3    H110890   3.481   1.080   3.646 -0.3041  0.0593 -2.8738
 3642TIP3    H210891   3.370   1.167   3.589 -1.4882  2.1473  2.0823
 3643TIP3   OH210892   3.775   0.351   2.502 -0.1091 -0.0191 -0.4538
 3643TIP3    H110893   3.711   0.409   2.463  0.9370  0.5424 -1.4093
 3643TIP3    H210894   3.785   0.280   2.438 -0.8225 -0.8633  0.3519
 3644TIP3   OH210895   3.176   4.615   3.835  0.1048 -0.1770  0.2133
 3644TIP3    H110896   3.150   4.705   3.853  0.1205 -0.3329  1.0473
 3644TIP3    H210897   3.107   4.561   3.875  0.4384 -0.5443  0.3099
 3645TIP3   OH210898   2.771   6.534   4.723  0.2077  0.0774 -0.6209
 3645TIP3    H110899   2.789   6.628   4.726  1.1964 -0.0698 -1.5254
 3645TIP3    H210900   2.796   6.507   4.635  2.4758 -1.4988  0.3822
 3646TIP3   OH210901   5.924   6.201   5.604 -0.0318  0.1192 -0.1331
 3646TIP3    H110902   5.877   6.250   5.537  1.5255 -1.1714 -2.3161
 3646TIP3    H210903   5.865   6.129   5.627 -0.0693 -0.1891 -1.1438
 3647TIP3   OH210904   3.374   1.266   1.674 -0.3827 -0.1660  0.3187
 3647TIP3    H110905   3.366   1.218   1.591 -0.9642 -0.5869  0.6062
 3647TIP3    H210906   3.293   1.244   1.722 -0.8326  1.3874  0.3194
 3648TIP3   OH210907   6.693   6.739   3.697  0.0140 -0.4685 -0.0988
 3648TIP3    H110908   6.734   6.733   3.784 -3.4867  1.3908  1.9021
 3648TIP3    H210909   6.744   6.807   3.652  0.4086  0.3829  1.5121
 3649TIP3   OH210910   7.189   5.640   2.328  0.6494 -0.3032  0.3618
 3649TIP3    H110911   7.144   5.597   2.254  0.8568  0.3908 -0.1778
 3649TIP3    H210912   7.264   5.584   2.346  0.3313 -0.7346  0.3571
 3650TIP3   OH210913   0.684   6.520   0.958 -0.0855 -0.0264  0.3513
 3650TIP3    H110914   0.772   6.508   0.922 -0.6915  0.4847 -1.4379
 3650TIP3    H210915   0.668   6.614   0.951 -1.3062 -0.2863 -0.7840
 3651TIP3   OH210916   3.915   2.364   3.804 -0.2887 -0.1735 -0.1866
 3651TIP3    H110917   3.951   2.436   3.856 -0.0237 -0.8885  0.6652
 3651TIP3    H210918   3.832   2.343   3.848  0.1844 -1.1248  0.2769
 3652TIP3   OH210919   1.127   4.574   2.236  0.1250  0.0224  0.3571
 3652TIP3    H110920   1.152   4.497   2.184 -0.1083  0.5888 -0.6071
 3652TIP3    H210921   1.208   4.622   2.248  0.1825 -0.1179  0.5340
 3653TIP3   OH210922   6.439   1.034   0.082  0.7650 -0.2811  0.3659
 3653TIP3    H110923   6.397   1.006   0.001 -1.4023  0.4453  1.1606
 3653TIP3    H210924   6.531   1.046   0.059  0.0520  0.8731 -2.2291
 3654TIP3   OH210925   4.109   1.392   2.699  0.2604 -0.1789  0.0176
 3654TIP3    H110926   4.120   1.401   2.604 -0.1409 -0.3526 -0.0477
 3654TIP3    H210927   4.159   1.465   2.736  0.4679 -0.1456 -0.3247
 3655TIP3   OH210928   0.197   4.516   4.518 -0.0556  0.0170  0.3823
 3655TIP3    H110929   0.282   4.477   4.533 -0.0822 -0.1257  0.1672
 3655TIP3    H210930   0.212   4.610   4.526  0.4949  0.1181 -1.3559
 3656TIP3   OH210931   3.163   3.700   1.193 -0.2640 -0.2253 -0.2487
 3656TIP3    H110932   3.218   3.721   1.269 -1.7026  0.9679  0.5129
 3656TIP3    H210933   3.137   3.609   1.206 -0.8070  0.0807  0.9126
 3657TIP3   OH210934   2.139   4.649   1.893  0.3822  0.1162  0.2147
 3657TIP3    H110935   2.099   4.625   1.809 -0.1851  3.2300 -0.5343
 3657TIP3    H210936   2.217   4.698   1.869 -0.3934  2.0339  1.4306
 3658TIP3   OH210937   3.601   5.430   2.020  1.1485  0.2198 -0.3760
 3658TIP3    H110938   3.656   5.383   2.081  1.3732  0.6596 -0.2355
 3658TIP3    H210939   3.662   5.486   1.971  0.9403  0.0584 -0.8234
 3659TIP3   OH210940   4.188   6.441   1.386 -0.2793  0.2251  0.5926
 3659TIP3    H110941   4.193   6.389   1.306  1.7809  2.1491 -0.6354
 3659TIP3    H210942   4.168   6.530   1.357 -1.2299  0.6599  2.3965
 3660TIP3   OH210943   3.802   0.107   2.038 -0.2413  0.2537 -0.3124
 3660TIP3    H110944   3.840   0.026   2.071  0.7564  0.6252 -0.5207
 3660TIP3    H210945   3.862   0.137   1.970 -0.3806  1.3727  0.0298
 3661TIP3   OH210946   4.680   3.794   4.074  0.1393  0.0254 -0.2337
 3661TIP3    H110947   4.620   3.846   4.021  0.4091  0.3529 -0.2260
 3661TIP3    H210948   4.675   3.833   4.161 -0.1241 -0.3609 -0.0725
 3662TIP3   OH210949   3.164   4.816   4.437  0.0751  0.3773  0.2722
 3662TIP3    H110950   3.106   4.858   4.373 -0.1957 -0.0545  0.2261
 3662TIP3    H210951   3.201   4.742   4.389  0.8525  0.7922  0.2306
 3663TIP3   OH210952   6.866   0.608   1.251 -0.2133 -0.5855 -0.1046
 3663TIP3    H110953   6.900   0.575   1.168  0.9413  0.1496  0.0599
 3663TIP3    H210954   6.833   0.696   1.231  0.6377 -0.1600  0.3368
 3664TIP3   OH210955   0.105   2.079   0.839  0.5229 -0.3058  0.5928
 3664TIP3    H110956   0.113   2.098   0.932  1.6714 -0.0232  0.4515
 3664TIP3    H210957   0.188   2.037   0.816 -0.2808 -1.6174 -0.0224
 3665TIP3   OH210958   4.389   6.522   5.008 -0.0458 -0.3646  0.0277
 3665TIP3    H110959   4.415   6.492   4.921 -1.8881  0.2302 -0.7795
 3665TIP3    H210960   4.375   6.616   4.998 -0.1408 -0.2626  1.0016
 3666TIP3   OH210961   4.376   1.393   0.319  0.2950  0.3568  0.4284
 3666TIP3    H110962   4.442   1.441   0.270  0.4502  0.6765  0.9360
 3666TIP3    H210963   4.425   1.322   0.362 -0.1668 -1.2364 -1.5286
 3667TIP3   OH210964   6.627   1.757   3.771  0.6450  0.1391  0.2140
 3667TIP3    H110965   6.550   1.766   3.827 -0.0164  0.9777 -0.7766
 3667TIP3    H210966   6.667   1.844   3.771  0.3676  0.2908 -0.9392
 3668TIP3   OH210967   4.536   5.495   0.059  0.1217 -0.4628 -0.3123
 3668TIP3    H110968   4.591   5.440   0.003 -1.5539 -1.7715 -0.7333
 3668TIP3    H210969   4.527   5.446   0.140  1.9366  1.0989  0.9115
 3669TIP3   OH210970   0.775   1.408   0.815  0.2239 -0.4935  0.0415
 3669TIP3    H110971   0.863   1.443   0.800  0.7813 -1.4737  0.9171
 3669TIP3    H210972   0.776   1.323   0.771 -0.0929 -0.7671  0.5615
 3670TIP3   OH210973   4.382   4.099   4.365  0.2140 -0.0851  0.1141
 3670TIP3    H110974   4.464   4.143   4.341 -0.7944  1.4903 -0.6348
 3670TIP3    H210975   4.326   4.170   4.396 -0.5482 -1.2741  1.5626
 3671TIP3   OH210976   6.203   0.542   5.357  0.5185 -0.4100 -0.2223
 3671TIP3    H110977   6.165   0.478   5.417 -1.0559  0.9724  0.3210
 3671TIP3    H210978   6.130   0.570   5.303  1.6051 -0.5280 -1.8371
 3672TIP3   OH210979   4.736   2.942   3.088 -0.3235  0.0324  0.0660
 3672TIP3    H110980   4.695   2.987   3.162 -1.5352  1.4620 -1.3867
 3672TIP3    H210981   4.829   2.958   3.099 -0.5651  1.1292  0.7156
 3673TIP3   OH210982   0.049   5.906   0.119 -0.3839  0.3618  0.3673
 3673TIP3    H110983   0.013   5.849   0.051 -0.2862  0.1104  0.5237
 3673TIP3    H210984   0.062   5.848   0.194 -2.0849  0.9710  1.1710
 3674TIP3   OH210985   0.304   2.073   2.848 -0.1207 -0.2509  0.0349
 3674TIP3    H110986   0.303   2.015   2.772  1.1215  1.1038 -1.0775
 3674TIP3    H210987   0.276   2.018   2.921  1.9276 -2.5418 -0.7753
 3675TIP3   OH210988   6.535   5.487   2.539  0.0265  0.1653 -0.3368
 3675TIP3    H110989   6.479   5.559   2.512  0.8186  0.5817 -0.8890
 3675TIP3    H210990   6.498   5.410   2.495  0.6115  0.6437 -1.7203
 3676TIP3   OH210991   5.164   4.357   2.061  0.9423 -0.3623 -0.3349
 3676TIP3    H110992   5.099   4.372   2.129 -1.2309  0.3166 -2.4042
 3676TIP3    H210993   5.186   4.445   2.030  2.5877 -0.6070  0.0276
 3677TIP3   OH210994   4.740   5.801   5.075  0.5869  0.3295  0.0394
 3677TIP3    H110995   4.754   5.739   5.004 -0.3557 -0.8075  0.7924
 3677TIP3    H210996   4.806   5.778   5.140  1.5148  1.4345 -0.4904
 3678TIP3   OH210997   3.280   4.330   3.115 -0.2600 -0.5807 -0.0529
 3678TIP3    H110998   3.269   4.323   3.020 -2.2257 -0.6170  0.1245
 3678TIP3    H210999   3.347   4.397   3.126  0.3589 -0.9286 -1.4699
 3679TIP3   OH211000   6.339   4.630   0.630 -0.2993 -0.3298 -0.2286
 3679TIP3    H111001   6.345   4.723   0.609  0.4328 -0.4784 -0.7340
 3679TIP3    H211002   6.296   4.627   0.715 -1.1063  0.4267 -0.5963
 3680TIP3   OH211003   3.781   5.386   4.524  0.2248  0.1203 -0.8741
 3680TIP3    H111004   3.704   5.398   4.469 -0.1900 -0.0554 -0.3317
 3680TIP3    H211005   3.855   5.404   4.465 -0.2639  2.1138 -0.9424
 3681TIP3   OH211006   3.331   4.867   4.924 -0.3056  0.1436  0.0627
 3681TIP3    H111007   3.331   4.771   4.926 -0.4197  0.1198 -0.7067
 3681TIP3    H211008   3.255   4.893   4.976 -0.2992 -0.1830  0.2368
 3682TIP3   OH211009   3.708   1.243   5.853 -0.3107 -0.3332  0.0907
 3682TIP3    H111010   3.693   1.331   5.818  0.4699 -0.4659 -0.6088
 3682TIP3    H211011   3.760   1.199   5.786  0.2238 -0.9763  0.9076
 3683TIP3   OH211012   1.338   2.730   0.353  0.1892 -0.1502  0.0989
 3683TIP3    H111013   1.368   2.820   0.368  2.1880 -0.5959 -0.8637
 3683TIP3    H211014   1.362   2.711   0.263 -0.9219 -1.4095  0.0391
 3684TIP3   OH211015   2.585   5.308   5.839  0.4130  0.0418  0.0823
 3684TIP3    H111016   2.640   5.372   5.883  2.1719 -1.4180  0.0970
 3684TIP3    H211017   2.629   5.291   5.756 -0.2613 -0.8099 -0.1145
 3685TIP3   OH211018   1.582   6.772   4.574  0.3997 -0.4256  0.1447
 3685TIP3    H111019   1.520   6.778   4.501 -0.1281 -0.6082  0.5732
 3685TIP3    H211020   1.633   6.693   4.555  1.3388  0.3777 -0.8399
 3686TIP3   OH211021   7.123   1.117   0.400  0.1291  0.2369  0.6698
 3686TIP3    H111022   7.039   1.084   0.432 -0.3023 -0.3329 -0.9323
 3686TIP3    H211023   7.100   1.181   0.333  0.9798  1.1271  1.2052
 3687TIP3   OH211024   5.732   3.791   2.502 -0.0584  0.0627  0.2460
 3687TIP3    H111025   5.707   3.851   2.431  0.5448  0.7641  0.6102
 3687TIP3    H211026   5.776   3.847   2.566 -0.5395 -0.5688  1.1584
 3688TIP3   OH211027   6.157   4.365   4.780 -0.0903 -0.0389 -0.6315
 3688TIP3    H111028   6.231   4.366   4.840 -0.2054 -0.5058 -0.4752
 3688TIP3    H211029   6.104   4.441   4.805 -0.9072 -1.0448  0.8502
 3689TIP3   OH211030   5.323   5.235   1.843 -0.3075  0.0795 -0.1660
 3689TIP3    H111031   5.287   5.249   1.756  0.2523  1.4112 -0.2042
 3689TIP3    H211032   5.401   5.289   1.846  0.7173 -1.3574  0.5473
 3690TIP3   OH211033   4.819   0.520   1.664 -0.2613 -0.0747  0.0799
 3690TIP3    H111034   4.859   0.448   1.713 -0.4976  1.1117  2.1233
 3690TIP3    H211035   4.879   0.594   1.677 -0.6443  0.4361 -0.9558
 3691TIP3   OH211036   6.347   6.169   3.566  0.0375 -0.4183 -0.2945
 3691TIP3    H111037   6.349   6.262   3.588  1.4329 -0.2627 -0.9405
 3691TIP3    H211038   6.271   6.160   3.509  0.5304  0.5633 -1.1436
 3692TIP3   OH211039   5.956   2.146   5.081 -0.5598 -0.1229  0.3735
 3692TIP3    H111040   5.929   2.178   5.168  1.4436 -0.5411  1.1989
 3692TIP3    H211041   5.941   2.052   5.085  2.0310 -0.5734  1.3268
 3693TIP3   OH211042   1.718   4.149   3.295 -0.0936 -0.1913 -0.1581
 3693TIP3    H111043   1.696   4.232   3.337  2.0013 -0.2110  1.1161
 3693TIP3    H211044   1.746   4.173   3.206  1.5590  0.6597  0.5423
 3694TIP3   OH211045   6.192   6.337   3.400 -0.8940 -0.0092  0.3368
 3694TIP3    H111046   6.154   6.382   3.475  0.0946 -0.1848  0.9531
 3694TIP3    H211047   6.215   6.408   3.340  1.1145  0.4080  1.5154
 3695TIP3   OH211048   1.908   3.067   1.751  0.1497 -0.2783 -0.0677
 3695TIP3    H111049   1.940   3.128   1.817 -1.1421 -1.1216  1.4061
 3695TIP3    H211050   1.849   3.008   1.799  2.1616 -3.4203 -1.0980
 3696TIP3   OH211051   0.266   4.183   4.209  0.6121 -0.2921 -0.2411
 3696TIP3    H111052   0.346   4.235   4.216  0.1843  0.2549  1.0465
 3696TIP3    H211053   0.230   4.183   4.298 -0.9817 -0.2585 -0.8488
 3697TIP3   OH211054   5.382   2.057   2.585  0.5701 -0.4897  0.3178
 3697TIP3    H111055   5.400   1.990   2.520  2.2875 -0.1806  0.4351
 3697TIP3    H211056   5.397   2.140   2.539 -2.3630 -0.0568 -0.0884
 3698TIP3   OH211057   5.843   5.946   0.184  0.7490 -0.2282  0.0856
 3698TIP3    H111058   5.826   5.952   0.090 -3.1444 -0.3302  0.6337
 3698TIP3    H211059   5.812   6.029   0.220  2.2826 -0.1413  1.3326
 3699TIP3   OH211060   6.533   1.163   4.330 -0.1206  0.0587 -0.6473
 3699TIP3    H111061   6.452   1.172   4.279  0.6154 -0.2034 -1.9112
 3699TIP3    H211062   6.507   1.112   4.407 -1.1018 -0.3116 -1.1940
 3700TIP3   OH211063   2.726   2.048   1.514 -0.3190 -0.2959 -0.4061
 3700TIP3    H111064   2.678   2.093   1.444  0.5572  1.1164 -0.1487
 3700TIP3    H211065   2.799   2.107   1.534 -0.1909 -0.9673  1.2556
 3701TIP3   OH211066   2.111   5.205   3.822  0.3160  0.3485  0.0259
 3701TIP3    H111067   2.149   5.231   3.906  0.1780 -0.8692  0.4834
 3701TIP3    H211068   2.129   5.111   3.815  2.1783  0.7641 -2.2739
 3702TIP3   OH211069   2.271   3.612   2.185 -0.1459 -0.7619  0.5017
 3702TIP3    H111070   2.339   3.666   2.225  0.8703 -1.0241 -0.8158
 3702TIP3    H211071   2.214   3.673   2.140  1.4261 -0.7559 -1.6259
 3703TIP3   OH211072   2.139   6.011   3.715  0.6363 -0.0399  0.5318
 3703TIP3    H111073   2.209   6.076   3.717  0.3490  0.3262 -0.7673
 3703TIP3    H211074   2.154   5.962   3.634 -1.7004  1.2737 -0.7664
 3704TIP3   OH211075   6.326   2.500   4.113 -0.9322  0.6492 -0.1755
 3704TIP3    H111076   6.254   2.440   4.131 -0.5826  0.2659 -0.0490
 3704TIP3    H211077   6.285   2.587   4.114 -1.2912  0.4778  0.4370
 3705TIP3   OH211078   5.201   0.896   1.236 -0.1692  0.1877 -0.3910
 3705TIP3    H111079   5.261   0.865   1.168  0.2972 -0.3885  0.2693
 3705TIP3    H211080   5.219   0.990   1.243  0.5037  0.0600 -0.3512
 3706TIP3   OH211081   6.472   6.201   2.769 -0.1088  0.5037 -0.2154
 3706TIP3    H111082   6.496   6.160   2.852  0.6558 -1.1301 -1.2108
 3706TIP3    H211083   6.395   6.153   2.740  0.7815 -0.2633 -1.3883
 3707TIP3   OH211084   6.956   3.705   0.550  0.6863  0.1329  0.1249
 3707TIP3    H111085   6.965   3.633   0.611 -0.0803 -0.7116 -0.7288
 3707TIP3    H211086   6.923   3.665   0.469 -1.2599  1.6072  0.0963
 3708TIP3   OH211087   6.986   1.130   2.456 -0.1424  0.4986 -0.2100
 3708TIP3    H111088   6.940   1.060   2.409 -1.4230 -0.1116  1.7769
 3708TIP3    H211089   7.048   1.083   2.513  0.9101  1.1610 -0.7950
 3709TIP3   OH211090   5.381   4.212   4.218  0.4088  0.0517 -0.9212
 3709TIP3    H111091   5.411   4.268   4.289 -1.5233  0.4197 -0.3450
 3709TIP3    H211092   5.388   4.123   4.252 -2.0973  0.2928  0.4686
 3710TIP3   OH211093   6.068   5.677   1.096 -0.2533 -0.5294 -0.0837
 3710TIP3    H111094   6.026   5.645   1.176  0.3083 -2.1223 -0.3907
 3710TIP3    H211095   5.996   5.699   1.038 -0.6925  1.5468  1.1574
 3711TIP3   OH211096   6.552   1.633   2.361  0.0170  0.1206 -0.4029
 3711TIP3    H111097   6.537   1.718   2.319  3.3714  0.3752 -1.3817
 3711TIP3    H211098   6.610   1.586   2.301 -1.5340 -2.8306  0.2319
 3712TIP3   OH211099   2.453   5.525   4.338 -0.2312 -0.4676 -0.2759
 3712TIP3    H111100   2.509   5.602   4.340 -0.5879 -0.2174  0.2559
 3712TIP3    H211101   2.368   5.556   4.370 -0.5759 -0.9187 -0.7325
 3713TIP3   OH211102   0.774   5.704   4.508  0.4610  0.2049  0.3236
 3713TIP3    H111103   0.866   5.680   4.523  0.4041  0.7927  1.7482
 3713TIP3    H211104   0.740   5.723   4.596 -1.4688 -1.5432  0.0272
 3714TIP3   OH211105   4.439   5.099   3.503  0.8361  0.0560  0.4031
 3714TIP3    H111106   4.420   5.040   3.576  3.3484  0.4414  1.5025
 3714TIP3    H211107   4.360   5.152   3.493 -1.5026 -3.3013 -0.5674
 3715TIP3   OH211108   4.970   4.722   0.062 -0.0875 -0.1792 -0.1882
 3715TIP3    H111109   5.015   4.804   0.083 -0.4778 -0.3687  1.5973
 3715TIP3    H211110   4.906   4.711   0.133 -0.4868 -1.7165 -0.7343
 3716TIP3   OH211111   6.772   4.858   0.192  0.1882  0.0560  0.0907
 3716TIP3    H111112   6.773   4.950   0.166  0.1681  0.3920  1.2038
 3716TIP3    H211113   6.783   4.810   0.111  0.1295  1.0408 -0.5214
 3717TIP3   OH211114   2.796   5.639   2.805  0.0094 -0.1105  0.2862
 3717TIP3    H111115   2.811   5.731   2.782 -1.1189  0.2994  1.0612
 3717TIP3    H211116   2.754   5.643   2.891  2.5920 -1.5019  1.7086
 3718TIP3   OH211117   0.238   3.856   1.647 -0.3532 -0.1510 -0.4273
 3718TIP3    H111118   0.143   3.845   1.647 -0.7568  2.3227  2.0113
 3718TIP3    H211119   0.252   3.944   1.612  0.5927  1.2301  2.9982
 3719TIP3   OH211120   2.768   1.966   5.758 -0.5955 -0.1804  1.1003
 3719TIP3    H111121   2.691   1.963   5.701 -0.8126  2.2209  1.1315
 3719TIP3    H211122   2.840   1.933   5.704 -0.9663  1.1689 -0.3071
 3720TIP3   OH211123   5.799   1.649   3.606 -0.5976 -0.2293 -0.0412
 3720TIP3    H111124   5.752   1.723   3.567 -1.0719 -0.4899  0.0312
 3720TIP3    H211125   5.766   1.644   3.696 -1.5886 -1.3784 -0.4552
 3721TIP3   OH211126   1.494   2.313   3.112 -0.0759  0.2662  0.1326
 3721TIP3    H111127   1.472   2.270   3.029  0.5584 -1.1907  0.6850
 3721TIP3    H211128   1.447   2.262   3.178  0.1885  0.8257  0.7623
 3722TIP3   OH211129   4.242   2.055   4.069 -0.2159  0.0071 -0.0731
 3722TIP3    H111130   4.308   2.112   4.029 -2.1378  0.8506 -2.2477
 3722TIP3    H211131   4.293   1.994   4.122  2.1882  1.5068 -0.4848
 3723TIP3   OH211132   1.374   6.257   1.995  0.6852  0.1946 -0.4793
 3723TIP3    H111133   1.345   6.341   2.030  0.0923 -1.1128  2.4345
 3723TIP3    H211134   1.317   6.192   2.036  2.6070 -1.8482 -0.8190
 3724TIP3   OH211135   6.879   5.456   1.894 -0.1624  0.1419 -0.6868
 3724TIP3    H111136   6.888   5.472   1.801  2.2252  1.2175 -0.3587
 3724TIP3    H211137   6.950   5.395   1.915 -0.0097  0.7136  0.5824
 3725TIP3   OH211138   3.279   6.574   5.691 -0.6242 -0.7113  0.0075
 3725TIP3    H111139   3.338   6.619   5.751  0.4995 -2.3042  0.1355
 3725TIP3    H211140   3.318   6.587   5.605 -0.5267 -1.0907 -0.0047
 3726TIP3   OH211141   0.051   2.058   1.099 -0.2480  0.2585  0.2768
 3726TIP3    H111142  -0.035   2.047   1.138 -1.0732  3.9097 -0.1715
 3726TIP3    H211143   0.113   2.043   1.171 -1.1646 -2.2650  0.6286
 3727TIP3   OH211144   0.450   4.352   0.402  0.1830 -0.5146 -0.0636
 3727TIP3    H111145   0.393   4.360   0.478  0.7747  0.7182  0.2793
 3727TIP3    H211146   0.531   4.313   0.436  0.5916  0.3931  0.0394
 3728TIP3   OH211147   7.183   3.185   1.128 -0.1894 -0.0766  0.4473
 3728TIP3    H111148   7.237   3.126   1.181  2.6673  0.8522 -1.1924
 3728TIP3    H211149   7.194   3.154   1.039  0.0029  1.8860 -0.2566
 3729TIP3   OH211150   0.145   1.349   0.195  0.0421  0.3963 -0.4417
 3729TIP3    H111151   0.075   1.292   0.162 -2.2273  1.3949  2.2510
 3729TIP3    H211152   0.221   1.291   0.203 -0.8530 -1.0975 -2.0986
 3730TIP3   OH211153   3.074   5.913   3.104  0.2346  0.0782 -0.4325
 3730TIP3    H111154   3.071   6.004   3.133 -4.7016 -0.2942  1.2454
 3730TIP3    H211155   3.099   5.864   3.183  1.2424 -0.1397 -0.8797
 3731TIP3   OH211156   2.856   2.467   3.296 -0.3733  0.6940  0.0493
 3731TIP3    H111157   2.885   2.473   3.387  0.6474  3.8091 -0.3734
 3731TIP3    H211158   2.930   2.497   3.244 -0.8650 -1.1807 -1.9080
 3732TIP3   OH211159   0.010   2.510   4.489 -0.0084 -0.5928  0.5608
 3732TIP3    H111160   0.031   2.466   4.407 -0.0544 -0.5482  0.5251
 3732TIP3    H211161  -0.018   2.440   4.548 -0.3674 -0.5762  0.4125
 3733TIP3   OH211162   7.170   6.304   1.076 -0.3310  0.4594  0.0160
 3733TIP3    H111163   7.224   6.383   1.080  0.4503 -0.0449 -0.3141
 3733TIP3    H211164   7.184   6.261   1.160 -0.7409  0.6609  0.1879
 3734TIP3   OH211165   6.604   3.845   3.512 -0.3312  0.3398 -0.3162
 3734TIP3    H111166   6.680   3.850   3.570  0.7968  0.4364 -1.7483
 3734TIP3    H211167   6.552   3.922   3.534  0.7703  1.1174 -0.3473
 3735TIP3   OH211168   3.000   5.307   0.398 -0.7534 -0.5029 -0.5957
 3735TIP3    H111169   2.979   5.350   0.481  1.0813 -0.7144  0.0091
 3735TIP3    H211170   2.934   5.341   0.336 -1.2423  0.7815  0.5810
 3736TIP3   OH211171   0.502   2.946   1.668 -0.3234  0.3646  0.0538
 3736TIP3    H111172   0.537   2.965   1.755  1.6795 -0.3619 -0.5367
 3736TIP3    H211173   0.558   2.996   1.608  0.4950 -1.6965 -1.0122
 3737TIP3   OH211174   1.624   4.709   2.816 -0.5648 -0.4550 -0.3467
 3737TIP3    H111175   1.617   4.803   2.802 -1.7604 -0.3436  0.8142
 3737TIP3    H211176   1.659   4.701   2.905 -0.3235 -1.1216 -0.4946
 3738TIP3   OH211177   5.280   6.524   0.057 -0.3803  0.6689  0.8362
 3738TIP3    H111178   5.335   6.581   0.111  0.4195 -1.5725  2.5551
 3738TIP3    H211179   5.293   6.436   0.094 -2.0162 -0.5620 -1.2789
 3739TIP3   OH211180   3.632   0.313   1.995  0.0325  0.0790  0.2619
 3739TIP3    H111181   3.712   0.273   2.028  0.0270 -0.8041 -0.7363
 3739TIP3    H211182   3.586   0.242   1.950 -1.3824  0.5324  0.9131
 3740TIP3   OH211183   5.400   0.574   2.007  0.7939  0.0672  0.1750
 3740TIP3    H111184   5.365   0.655   2.042  1.0518  0.4531 -0.4360
 3740TIP3    H211185   5.377   0.576   1.914 -0.3885 -1.2062  0.4068
 3741TIP3   OH211186   4.649   5.508   4.164  0.0993  0.2090 -0.3589
 3741TIP3    H111187   4.710   5.509   4.090 -0.6109  0.0877 -0.9615
 3741TIP3    H211188   4.563   5.496   4.124 -0.1739 -1.1479  0.5793
 3742TIP3   OH211189   6.988   5.867   3.652  0.1316  0.0788 -0.0793
 3742TIP3    H111190   6.906   5.830   3.618 -0.0082  0.0226  0.3116
 3742TIP3    H211191   7.050   5.794   3.648 -0.0651 -0.1179  0.4157
 3743TIP3   OH211192   3.231   3.389   5.497 -0.2865  0.0716 -0.2072
 3743TIP3    H111193   3.302   3.338   5.535 -0.1812 -0.2242 -0.7865
 3743TIP3    H211194   3.266   3.422   5.414 -1.2955 -1.3222 -1.2320
 3744TIP3   OH211195   6.110   1.800   5.438  0.5789  0.0045 -0.0774
 3744TIP3    H111196   6.070   1.887   5.446 -0.1716 -0.3752  0.4584
 3744TIP3    H211197   6.080   1.753   5.516  1.3933 -0.5742 -0.1038
 3745TIP3   OH211198   6.402   1.008   2.357 -0.1116  0.3516 -0.7285
 3745TIP3    H111199   6.331   1.053   2.403  0.9554 -0.3766  1.8513
 3745TIP3    H211200   6.482   1.051   2.388  0.7613 -1.4024 -0.3973
 3746TIP3   OH211201   2.075   3.676   3.860 -0.1976  0.7839  0.4802
 3746TIP3    H111202   2.140   3.677   3.930 -0.7133 -0.3107  0.9956
 3746TIP3    H211203   2.067   3.584   3.836 -1.4655  0.9024  0.3517
 3747TIP3   OH211204   3.943   2.011   5.027  0.6309 -0.0092  0.0439
 3747TIP3    H111205   3.976   2.065   4.955 -0.7886  0.4025 -0.3299
 3747TIP3    H211206   3.919   1.928   4.985  0.3095  0.0380  0.1309
 3748TIP3   OH211207   0.164   5.457   2.444 -0.4242 -0.2701  0.2296
 3748TIP3    H111208   0.109   5.395   2.397 -0.2193 -0.2775  0.0022
 3748TIP3    H211209   0.243   5.465   2.391 -0.8868  0.9941 -0.3015
 3749TIP3   OH211210   5.171   2.911   3.872  0.0495  0.1806 -0.8874
 3749TIP3    H111211   5.139   2.827   3.839  0.9666  0.2707 -2.0670
 3749TIP3    H211212   5.242   2.887   3.932 -1.0177  0.0580  0.3836
 3750TIP3   OH211213   6.050   3.304   2.457 -0.2375  0.1471  0.8325
 3750TIP3    H111214   6.041   3.246   2.533  0.1558 -0.4811  0.4063
 3750TIP3    H211215   5.970   3.357   2.458 -1.4314 -1.5517  0.2777
 3751TIP3   OH211216   3.319   6.001   1.153  0.0045  0.2104 -0.1228
 3751TIP3    H111217   3.321   5.912   1.188  1.3424  0.9082  1.6958
 3751TIP3    H211218   3.231   6.009   1.115  0.4066 -2.4112 -1.9148
 3752TIP3   OH211219   4.021   0.896   2.880  0.3062 -0.0110  0.1561
 3752TIP3    H111220   4.022   0.991   2.864  0.4315 -0.1495 -0.7505
 3752TIP3    H211221   4.028   0.887   2.975 -1.1334  0.9110  0.3812
 3753TIP3   OH211222   6.806   6.255   2.769  0.0009 -0.3966 -0.5089
 3753TIP3    H111223   6.760   6.251   2.853  0.8689  0.5350  0.0440
 3753TIP3    H211224   6.744   6.294   2.708 -0.5244 -0.7665 -0.2107
 3754TIP3   OH211225   4.253   6.138   4.351 -0.1990  0.0190 -0.4065
 3754TIP3    H111226   4.270   6.091   4.269  0.6644  0.0247 -0.2345
 3754TIP3    H211227   4.194   6.209   4.326 -0.4999 -0.3997 -0.8977
 3755TIP3   OH211228   3.350   0.173   2.610  0.0862  0.3859  0.3415
 3755TIP3    H111229   3.291   0.130   2.548  0.5968  1.1231 -0.6771
 3755TIP3    H211230   3.341   0.122   2.691 -0.6633 -0.5318 -0.3002
 3756TIP3   OH211231   4.813   3.166   1.275  0.7488  0.1636 -0.1381
 3756TIP3    H111232   4.857   3.148   1.192 -1.3106 -5.3489 -0.4751
 3756TIP3    H211233   4.880   3.148   1.341  1.1309 -0.2505 -0.6255
 3757TIP3   OH211234   2.775   0.552   5.715  0.6453  0.1944  0.1034
 3757TIP3    H111235   2.843   0.485   5.705  0.9918  0.4896  0.4321
 3757TIP3    H211236   2.710   0.531   5.647  1.6960  0.6659 -1.0980
 3758TIP3   OH211237   3.745   1.533   0.079  0.1855 -0.1670 -0.3333
 3758TIP3    H111238   3.836   1.514   0.102 -0.1043 -0.2873  0.7392
 3758TIP3    H211239   3.731   1.488  -0.005  1.2512  0.2754 -0.7638
 3759TIP3   OH211240   3.750   0.899   2.775 -0.0975 -0.2650  0.1207
 3759TIP3    H111241   3.704   0.970   2.819  0.0182 -0.6045  0.7899
 3759TIP3    H211242   3.833   0.892   2.822 -0.7931 -1.9832  1.1768
 3760TIP3   OH211243   7.092   2.875   1.592 -0.0589  0.4507 -0.1249
 3760TIP3    H111244   7.002   2.905   1.579  0.2207  0.9483 -1.0213
 3760TIP3    H211245   7.139   2.954   1.622  0.4572  0.6627 -1.4543
 3761TIP3   OH211246   0.357   4.484   4.217 -0.2027  0.0073  0.6567
 3761TIP3    H111247   0.390   4.466   4.129 -2.2930 -0.6936 -0.0417
 3761TIP3    H211248   0.434   4.474   4.274  1.0113 -0.3890 -0.9761
 3762TIP3   OH211249   5.356   1.887   3.881  0.6751  0.1236  1.0701
 3762TIP3    H111250   5.329   1.803   3.844  0.5698 -0.2775  2.0208
 3762TIP3    H211251   5.420   1.864   3.948  1.1576  0.8596  0.8683
 3763TIP3   OH211252   5.664   1.848   3.475  0.1927 -0.4004  0.8170
 3763TIP3    H111253   5.568   1.853   3.481 -0.0356 -0.7372 -1.5149
 3763TIP3    H211254   5.684   1.890   3.391  2.0649 -0.7805  1.0456
 3764TIP3   OH211255   3.036   3.951   0.398  0.1965 -0.0456 -0.1035
 3764TIP3    H111256   3.068   3.955   0.488  2.1568  0.7152 -0.7888
 3764TIP3    H211257   3.022   4.043   0.374  3.0045  0.0681 -1.6472
 3765TIP3   OH211258   5.227   4.953   4.440 -0.2066 -0.6051  0.4436
 3765TIP3    H111259   5.223   4.934   4.346 -0.6984 -2.3373  0.7835
 3765TIP3    H211260   5.247   4.869   4.481  0.5846  0.2364  1.8619
 3766TIP3   OH211261   1.531   5.990   0.319 -0.5472 -0.2878 -0.3102
 3766TIP3    H111262   1.617   6.005   0.357 -0.0036  1.2492 -2.0225
 3766TIP3    H211263   1.475   6.055   0.361 -0.9723 -1.3930  0.9243
 3767TIP3   OH211264   3.870   3.826   2.587 -0.5703  0.5897 -0.1960
 3767TIP3    H111265   3.789   3.872   2.565 -0.5214  1.1692  0.7915
 3767TIP3    H211266   3.932   3.896   2.609 -0.4146  0.0666  1.0859
 3768TIP3   OH211267   6.195   1.625   0.249  0.0707 -0.2219 -0.2237
 3768TIP3    H111268   6.187   1.669   0.165 -2.1037  0.5479  0.3036
 3768TIP3    H211269   6.203   1.696   0.313 -0.2250 -0.7079  0.3735
 3769TIP3   OH211270   3.681   0.869   3.466  0.1582 -0.5323  0.1938
 3769TIP3    H111271   3.771   0.876   3.497 -0.5500  1.2191  2.0101
 3769TIP3    H211272   3.685   0.896   3.374  1.0037  3.2960  1.1950
 3770TIP3   OH211273   2.981   0.732   4.740 -0.0825 -0.3247  0.0958
 3770TIP3    H111274   2.945   0.648   4.709 -0.1076 -0.6923  1.0905
 3770TIP3    H211275   3.010   0.776   4.660  2.4428 -2.4496 -0.2933
 3771TIP3   OH211276   6.172   6.442   3.658 -0.3647  0.2916  0.6153
 3771TIP3    H111277   6.257   6.458   3.698 -0.7877  0.4266  1.4735
 3771TIP3    H211278   6.128   6.383   3.718 -0.6118 -0.3499 -0.1832
 3772TIP3   OH211279   1.799   4.946   0.139 -0.5242  0.3156 -0.0304
 3772TIP3    H111280   1.890   4.976   0.135  0.6502 -2.8319  0.1838
 3772TIP3    H211281   1.764   4.965   0.052  0.9906 -0.1289 -0.7827
 3773TIP3   OH211282   0.319   1.206   3.026  0.1795  0.9196 -0.0809
 3773TIP3    H111283   0.329   1.288   2.978  0.2815  1.3331  0.6195
 3773TIP3    H211284   0.355   1.139   2.968  2.9361  1.7523  0.4898
 3774TIP3   OH211285   4.566   6.732   2.552 -0.3900  0.5294  0.0741
 3774TIP3    H111286   4.500   6.801   2.546 -0.8468  0.0536 -0.4478
 3774TIP3    H211287   4.530   6.659   2.501 -0.5244 -0.5919  1.6952
 3775TIP3   OH211288   3.359   4.901   2.757 -0.3983 -0.2636 -0.0910
 3775TIP3    H111289   3.400   4.896   2.843  0.8067  2.3063 -0.4126
 3775TIP3    H211290   3.265   4.905   2.776 -0.1450  0.4736  1.1580
 3776TIP3   OH211291   6.213   4.855   4.029  0.0415  0.0442  0.9709
 3776TIP3    H111292   6.138   4.839   3.972  0.5731  0.6865  0.0670
 3776TIP3    H211293   6.257   4.931   3.990  0.9394 -0.0805  1.7058
 3777TIP3   OH211294   5.161   4.987   2.311  0.0900 -0.5761 -0.1035
 3777TIP3    H111295   5.152   5.054   2.242  1.8830  1.3763  1.4035
 3777TIP3    H211296   5.108   5.020   2.384 -0.6749 -1.9085 -0.0341
 3778TIP3   OH211297   0.532   3.717   5.711 -0.4461  0.6329 -0.1794
 3778TIP3    H111298   0.593   3.743   5.780 -1.3945 -1.5696  1.6367
 3778TIP3    H211299   0.479   3.795   5.695  0.4445  1.4858  0.8879
 3779TIP3   OH211300   2.549   5.678   5.364 -0.0064 -0.2956  0.0612
 3779TIP3    H111301   2.618   5.618   5.392 -1.1553 -2.2302 -1.0419
 3779TIP3    H211302   2.470   5.644   5.405 -0.9006 -0.3552 -1.6296
 3780TIP3   OH211303   4.520   3.665   3.493 -0.2391  0.1836 -0.3173
 3780TIP3    H111304   4.562   3.599   3.549  1.6727  0.8086 -0.9193
 3780TIP3    H211305   4.445   3.695   3.543 -0.3109 -1.3939  0.6007
 3781TIP3   OH211306   6.419   0.775   4.799  0.1413  0.5620 -0.0950
 3781TIP3    H111307   6.424   0.705   4.733  0.4721  2.2208 -1.9396
 3781TIP3    H211308   6.511   0.798   4.816  0.0203  2.0213 -1.2326
 3782TIP3   OH211309   1.665   4.289   0.322 -1.1887 -0.3457 -0.1417
 3782TIP3    H111310   1.673   4.195   0.305  1.0244 -0.4048  0.8730
 3782TIP3    H211311   1.660   4.295   0.418  1.4801  0.6329  0.0258
 3783TIP3   OH211312   2.273   2.641   3.953 -0.3298 -0.0529  0.4909
 3783TIP3    H111313   2.302   2.602   4.036 -2.1428 -1.4379  0.5370
 3783TIP3    H211314   2.300   2.578   3.886  0.2875  0.6101  0.0910
 3784TIP3   OH211315   0.485   4.732   1.485  0.7674  0.2185 -0.3252
 3784TIP3    H111316   0.459   4.675   1.557  3.1261 -0.2296  0.2684
 3784TIP3    H211317   0.540   4.676   1.429  2.3859  1.6035 -0.2072
 3785TIP3   OH211318   6.367   5.698   2.455 -0.8384  0.2381 -0.4278
 3785TIP3    H111319   6.386   5.768   2.391  2.8636 -0.6490 -0.5148
 3785TIP3    H211320   6.348   5.745   2.536  0.3847  1.3992 -0.7737
 3786TIP3   OH211321   0.231   0.534   4.591  0.0900  0.5419 -0.2806
 3786TIP3    H111322   0.177   0.602   4.632 -0.8571  0.0141 -0.6360
 3786TIP3    H211323   0.282   0.498   4.664 -0.5166  0.6040  0.1861
 3787TIP3   OH211324   5.803   1.489   2.277 -0.7647  0.0832  0.3099
 3787TIP3    H111325   5.881   1.439   2.299 -0.2769  0.3767 -0.6766
 3787TIP3    H211326   5.750   1.489   2.357  0.9454  1.1977  1.5108
 3788TIP3   OH211327   6.726   3.572   5.517  0.2180 -0.4224 -0.8303
 3788TIP3    H111328   6.677   3.572   5.599 -0.4905 -1.3323 -1.2290
 3788TIP3    H211329   6.659   3.568   5.449  0.8127 -0.5343 -1.4260
 3789TIP3   OH211330   3.069   5.742   2.008  0.1642 -1.0701 -0.2254
 3789TIP3    H111331   3.081   5.820   1.955 -2.8143  0.0832  0.5748
 3789TIP3    H211332   3.068   5.774   2.098 -0.5881 -2.0789  0.1473
 3790TIP3   OH211333   0.890   1.525   4.268 -0.3486  0.3868 -0.3475
 3790TIP3    H111334   0.832   1.458   4.304  1.3923 -0.2004  1.5257
 3790TIP3    H211335   0.907   1.584   4.341  2.1998 -0.0408 -0.5010
 3791TIP3   OH211336   0.060   5.268   2.278 -0.0711  0.5145 -0.1984
 3791TIP3    H111337   0.010   5.190   2.303  1.0990  0.2104  1.2622
 3791TIP3    H211338   0.079   5.254   2.185  0.4795 -1.1711  0.1214
 3792TIP3   OH211339   3.060   4.615   1.100  0.0125  0.4267 -0.0004
 3792TIP3    H111340   3.010   4.571   1.169 -0.1163  0.2549 -0.2000
 3792TIP3    H211341   3.000   4.616   1.025  0.9786 -1.5313 -0.8649
 3793TIP3   OH211342   6.470   2.437   2.739 -0.0033  0.0606 -0.5322
 3793TIP3    H111343   6.462   2.392   2.823  0.1613 -0.5196 -0.8244
 3793TIP3    H211344   6.557   2.477   2.742  0.8070 -1.5740 -1.1905
 3794TIP3   OH211345   4.585   4.743   0.075  0.4743 -0.0972 -0.4326
 3794TIP3    H111346   4.663   4.795   0.057 -0.4642  1.0783 -1.2726
 3794TIP3    H211347   4.555   4.774   0.160 -0.0327  0.7154 -0.8916
 3795TIP3   OH211348   7.001   3.380   1.170  0.2778 -0.1268  0.1452
 3795TIP3    H111349   7.040   3.446   1.227 -1.6017  1.3759 -0.2253
 3795TIP3    H211350   7.069   3.313   1.161  0.6958 -0.4832  4.1457
 3796TIP3   OH211351   1.619   5.145   5.493  0.3957 -0.1922  0.3460
 3796TIP3    H111352   1.526   5.141   5.514  0.1941  1.1695 -0.1388
 3796TIP3    H211353   1.658   5.196   5.565  0.0351  2.7387 -1.3418
 3797TIP3   OH211354   2.940   0.070   1.331  0.0515 -0.0994  0.0279
 3797TIP3    H111355   3.023   0.085   1.286 -0.2187 -0.4420 -0.6052
 3797TIP3    H211356   2.962   0.069   1.424  0.6996  0.1297 -0.1195
 3798TIP3   OH211357   3.754   4.586   1.390  0.1353 -0.0862  0.0711
 3798TIP3    H111358   3.743   4.519   1.458 -4.5355 -1.1901 -1.3961
 3798TIP3    H211359   3.741   4.669   1.436  0.4850 -0.5586  1.0557
 3799TIP3   OH211360   2.361   2.153   2.771 -0.4041  0.3519  0.4853
 3799TIP3    H111361   2.365   2.248   2.784  0.0105  0.2321  1.2911
 3799TIP3    H211362   2.330   2.118   2.854 -3.5570 -0.0186 -0.7095
 3800TIP3   OH211363   7.114   1.905   2.244  0.1255 -0.1875 -0.1175
 3800TIP3    H111364   7.089   1.851   2.319 -1.7720  0.4712 -0.2201
 3800TIP3    H211365   7.152   1.844   2.181 -2.0187 -1.4703 -0.2595
 3801TIP3   OH211366   6.581   6.666   0.816 -0.2674  0.1291  0.0504
 3801TIP3    H111367   6.586   6.717   0.736 -0.0071  0.4530  0.2711
 3801TIP3    H211368   6.672   6.642   0.835 -0.5878 -2.9442 -1.6501
 3802TIP3   OH211369   3.267   4.169   3.719  0.0856  0.2034 -0.2775
 3802TIP3    H111370   3.358   4.179   3.693 -0.0601  2.5425 -0.0812
 3802TIP3    H211371   3.221   4.148   3.637  0.5757  0.6850 -0.6838
 3803TIP3   OH211372   6.336   4.213   1.333  0.6230 -0.4218 -0.2280
 3803TIP3    H111373   6.309   4.207   1.241 -0.7156  2.0368 -0.0873
 3803TIP3    H211374   6.273   4.159   1.380  0.0486 -0.0616 -0.5706
 3804TIP3   OH211375   6.625   0.294   3.692  0.4976  0.3835  0.0633
 3804TIP3    H111376   6.659   0.381   3.671  1.6014  0.0931  0.5554
 3804TIP3    H211377   6.631   0.288   3.788 -1.3848  0.4722  0.2255
 3805TIP3   OH211378   2.120   4.036   4.349 -0.2916  0.1499  0.8718
 3805TIP3    H111379   2.077   4.037   4.434 -2.1316  0.9714 -0.0041
 3805TIP3    H211380   2.138   4.128   4.330 -0.4798  0.0464  0.1323
 3806TIP3   OH211381   4.600   0.989   5.420  0.2494  0.2632 -0.3716
 3806TIP3    H111382   4.596   1.085   5.419 -0.0909  0.2766  0.5320
 3806TIP3    H211383   4.616   0.968   5.512 -0.5746 -0.5685 -0.4115
 3807TIP3   OH211384   0.802   0.887   5.698  0.4003 -0.2125  0.4239
 3807TIP3    H111385   0.751   0.940   5.638  0.3594 -0.0912  0.5632
 3807TIP3    H211386   0.836   0.815   5.645  0.6311  0.0689  0.1873
 3808TIP3   OH211387   3.784   3.960   2.237 -0.5032 -0.5404 -0.2901
 3808TIP3    H111388   3.773   3.974   2.331  0.5004  0.3436 -0.2839
 3808TIP3    H211389   3.876   3.939   2.226 -0.1699  1.1926 -1.2553
 3809TIP3   OH211390   3.919   5.796   3.868  0.3022 -0.0856  0.3842
 3809TIP3    H111391   3.915   5.829   3.779 -0.4521  0.5359  0.6393
 3809TIP3    H211392   3.900   5.702   3.860  0.2846 -0.0404 -0.1079
 3810TIP3   OH211393   6.020   1.821   1.342 -0.3407  0.0709  0.1525
 3810TIP3    H111394   6.045   1.841   1.432  2.0491 -2.6798  0.2409
 3810TIP3    H211395   5.925   1.810   1.345 -0.5589  1.8312  1.8902
 3811TIP3   OH211396   2.774   2.152   4.104 -0.0624  0.1284 -0.0271
 3811TIP3    H111397   2.788   2.173   4.012  0.2537  0.1443  0.0258
 3811TIP3    H211398   2.851   2.102   4.130 -1.5857 -2.7430 -0.6524
 3812TIP3   OH211399   6.194   3.061   4.062  0.4624 -0.7590  0.1141
 3812TIP3    H111400   6.263   3.111   4.019  0.3309 -1.2787 -0.7285
 3812TIP3    H211401   6.113   3.089   4.019  0.2986 -1.0827  0.2015
 3813TIP3   OH211402   1.874   5.973   3.407  0.2679 -0.5621 -0.2977
 3813TIP3    H111403   1.810   6.040   3.383  0.1705 -0.6459 -0.2725
 3813TIP3    H211404   1.959   6.018   3.402  0.0594  0.2075  1.8398
 3814TIP3   OH211405   4.530   4.199   5.220  0.6232 -0.0459 -0.1789
 3814TIP3    H111406   4.544   4.107   5.200 -1.8485 -0.2225 -1.5437
 3814TIP3    H211407   4.504   4.200   5.312 -0.5234 -0.9128 -0.4644
 3815TIP3   OH211408   0.672   6.462   1.449  1.0739 -0.0829 -0.4599
 3815TIP3    H111409   0.754   6.456   1.400  0.7634 -1.6539 -0.8487
 3815TIP3    H211410   0.698   6.469   1.540  1.6483 -0.7049 -0.5713
 3816TIP3   OH211411   5.558   1.999   1.483 -0.3620 -0.3494  0.3870
 3816TIP3    H111412   5.585   2.091   1.480  3.1552 -1.2334  0.1719
 3816TIP3    H211413   5.528   1.987   1.573 -0.7922  0.9695  0.4486
 3817TIP3   OH211414   3.258   4.743   0.237  0.4299  0.1900  0.3546
 3817TIP3    H111415   3.341   4.695   0.234 -0.3715 -1.2380  0.4640
 3817TIP3    H211416   3.253   4.775   0.327 -0.3743 -2.0612  1.1910
 3818TIP3   OH211417   0.206   3.896   0.384 -0.0550  0.3292  0.0696
 3818TIP3    H111418   0.182   3.816   0.336 -1.0189  0.2744  0.6044
 3818TIP3    H211419   0.198   3.871   0.476 -2.9019  1.6796  0.3170
 3819TIP3   OH211420   2.590   2.161   2.030 -0.2950 -0.3745 -0.5541
 3819TIP3    H111421   2.571   2.147   1.938  0.8438  0.6025 -0.9617
 3819TIP3    H211422   2.659   2.227   2.031 -1.6919  1.1783  1.0449
 3820TIP3   OH211423   2.528   2.852   4.117 -0.0850 -0.4150  0.3420
 3820TIP3    H111424   2.491   2.882   4.034 -0.3034 -0.0978  0.5518
 3820TIP3    H211425   2.559   2.932   4.160 -1.0804 -0.4165  1.1028
 3821TIP3   OH211426   6.046   0.365   2.598  0.3813 -1.2145  0.2834
 3821TIP3    H111427   6.071   0.312   2.674  1.7337 -1.0625 -0.0236
 3821TIP3    H211428   6.096   0.446   2.608 -0.8052 -0.4372  0.1546
 3822TIP3   OH211429   5.995   2.950   3.465  0.5572  0.1914  0.1093
 3822TIP3    H111430   5.969   3.043   3.465  1.6270  0.5117 -0.9293
 3822TIP3    H211431   6.089   2.952   3.448  0.5212 -1.1034 -0.3125
 3823TIP3   OH211432   0.108   3.432   1.180  0.9056 -0.0696 -0.2358
 3823TIP3    H111433   0.071   3.344   1.171  1.3020 -0.3201  0.5497
 3823TIP3    H211434   0.131   3.458   1.091 -1.1449  0.0923 -0.7654
 3824TIP3   OH211435   6.500   0.549   5.054  0.1472  0.0240 -0.1188
 3824TIP3    H111436   6.507   0.540   4.959  0.0771 -0.6160 -0.0663
 3824TIP3    H211437   6.585   0.583   5.082  0.2224  0.0534 -0.3882
 3825TIP3   OH211438   4.025   2.147   5.815  0.0007  0.0552 -0.5758
 3825TIP3    H111439   3.935   2.153   5.847  0.1321  1.9742 -0.3920
 3825TIP3    H211440   4.079   2.179   5.888  0.7460 -0.2468 -0.9801
 3826TIP3   OH211441   2.842   6.125   2.007  0.2503 -0.2014  0.5920
 3826TIP3    H111442   2.936   6.126   2.021  0.3496  1.8207  0.1063
 3826TIP3    H211443   2.829   6.062   1.936  1.3143 -0.0936  0.2801
 3827TIP3   OH211444   3.681   2.962   1.755  0.7645 -0.0337  0.7943
 3827TIP3    H111445   3.699   2.903   1.828 -0.7186 -1.8304 -0.2072
 3827TIP3    H211446   3.760   2.959   1.701  0.6828 -1.1915  0.7233
 3828TIP3   OH211447   4.243   5.481   2.478  0.5758  0.3455 -0.1151
 3828TIP3    H111448   4.228   5.557   2.422  1.9188  1.5315  1.0814
 3828TIP3    H211449   4.174   5.486   2.545  1.0815  0.9165  0.3694
 3829TIP3   OH211450   1.186   4.535   0.725 -0.1300 -0.0709  0.4660
 3829TIP3    H111451   1.138   4.618   0.728 -1.6809 -0.8442 -1.1981
 3829TIP3    H211452   1.197   4.517   0.632  1.1712 -1.2061  0.8179
 3830TIP3   OH211453   5.185   2.026   5.631 -0.4105 -0.2513  0.0962
 3830TIP3    H111454   5.247   2.008   5.702  0.4065 -0.7656 -0.7249
 3830TIP3    H211455   5.131   1.947   5.626 -0.9358  0.0682  0.5994
 3831TIP3   OH211456   6.565   5.771   0.461  0.1931 -0.0430 -0.5566
 3831TIP3    H111457   6.615   5.725   0.528  0.0947  1.9262  0.9752
 3831TIP3    H211458   6.474   5.751   0.481  0.0784  1.5859  0.8355
 3832TIP3   OH211459   3.973   0.375   4.359 -0.0501  0.5809  0.1990
 3832TIP3    H111460   3.990   0.361   4.266 -0.2574  1.7858 -0.0370
 3832TIP3    H211461   4.032   0.315   4.403  0.9341  0.8634 -0.6899
 3833TIP3   OH211462   4.541   1.440   3.896  0.0375 -0.5242  0.5339
 3833TIP3    H111463   4.612   1.478   3.844  0.2382  0.1445  1.2883
 3833TIP3    H211464   4.513   1.364   3.845  0.2370  0.1020 -0.5544
 3834TIP3   OH211465   3.343   1.856   0.910 -0.0508 -0.3135 -0.5012
 3834TIP3    H111466   3.302   1.785   0.861  0.1102  0.5130 -1.8690
 3834TIP3    H211467   3.324   1.935   0.859  0.7015  0.4850  0.4172
 3835TIP3   OH211468   2.591   1.870   4.618  0.4320 -0.2555 -0.1742
 3835TIP3    H111469   2.524   1.803   4.626 -0.7065  0.8111 -0.4440
 3835TIP3    H211470   2.563   1.924   4.544 -0.1382  2.0576  1.5993
 3836TIP3   OH211471   0.140   3.532   1.992 -0.5119  1.1028  0.2526
 3836TIP3    H111472   0.079   3.527   2.066  0.1012  1.9515  0.8365
 3836TIP3    H211473   0.212   3.587   2.024 -0.2952  1.5935 -1.0164
 3837TIP3   OH211474   2.792   4.640   0.251  0.1036 -0.0154 -0.1407
 3837TIP3    H111475   2.847   4.595   0.315  0.8533  0.5554 -0.3813
 3837TIP3    H211476   2.851   4.697   0.202 -1.0209  2.3967  1.1198
 3838TIP3   OH211477   4.702   5.432   4.462  0.4895 -0.2872 -0.0799
 3838TIP3    H111478   4.694   5.454   4.369  1.3069  0.4478  0.0018
 3838TIP3    H211479   4.649   5.499   4.506 -2.4848 -2.4359 -0.1223
 3839TIP3   OH211480   2.093   6.741   3.424  0.0314  0.2902  0.3333
 3839TIP3    H111481   2.053   6.798   3.359  0.2025 -0.0884 -0.1054
 3839TIP3    H211482   2.186   6.743   3.405 -0.1042 -1.4382 -0.7705
 3840TIP3   OH211483   5.716   6.704   5.844  0.1772  0.0971  0.1379
 3840TIP3    H111484   5.643   6.755   5.808 -0.0854 -1.1599 -1.1908
 3840TIP3    H211485   5.731   6.635   5.780  1.5602 -0.5692  1.1318
 3841TIP3   OH211486   4.944   5.750   0.725 -0.4038  0.8901 -0.8382
 3841TIP3    H111487   4.927   5.787   0.812  0.8445  0.5156 -0.4181
 3841TIP3    H211488   4.906   5.662   0.729  1.9438 -0.1557  0.2888
 3842TIP3   OH211489   0.296   3.861   3.710  0.2047 -0.0241 -0.0369
 3842TIP3    H111490   0.336   3.866   3.797  1.4597 -0.8559 -0.5315
 3842TIP3    H211491   0.363   3.896   3.651  1.2841 -3.6164 -1.1857
 3843TIP3   OH211492   0.733   0.635   4.560  0.5228 -0.2295 -0.2561
 3843TIP3    H111493   0.665   0.622   4.494  0.3684  0.1171 -0.1617
 3843TIP3    H211494   0.690   0.678   4.633  0.6080 -0.9711  0.2424
 3844TIP3   OH211495   2.037   5.980   0.362  0.2561  0.3028 -0.1115
 3844TIP3    H111496   2.049   6.054   0.302  0.3544 -0.3370 -0.8934
 3844TIP3    H211497   2.105   5.991   0.428  0.5958  0.6302 -0.5131
 3845TIP3   OH211498   1.423   5.494   2.776 -0.5201  0.0004  0.3977
 3845TIP3    H111499   1.460   5.461   2.694  0.3783 -0.7881  1.0994
 3845TIP3    H211500   1.345   5.441   2.790  0.1502 -0.9152  0.7995
 3846TIP3   OH211501   3.760   1.515   5.769  0.3698  0.6830  0.5867
 3846TIP3    H111502   3.836   1.532   5.824  0.9021 -0.3202  0.1862
 3846TIP3    H211503   3.687   1.558   5.814  1.4757  3.4139 -0.0502
 3847TIP3   OH211504   6.146   4.977   1.503  0.0966 -0.3060  0.7553
 3847TIP3    H111505   6.226   4.932   1.477 -0.3986 -1.2813  0.8453
 3847TIP3    H211506   6.142   5.056   1.449  1.4195  0.0700  1.1814
 3848TIP3   OH211507   1.011   5.413   5.193 -0.1158  0.2606 -0.1909
 3848TIP3    H111508   1.012   5.320   5.214  1.3928  0.4422  0.6774
 3848TIP3    H211509   0.959   5.453   5.263  0.4175  0.2241  0.2329
 3849TIP3   OH211510   5.682   1.314   5.435 -0.4343 -0.1957  0.5148
 3849TIP3    H111511   5.647   1.260   5.506 -1.8996  0.7748  0.5739
 3849TIP3    H211512   5.607   1.332   5.379  0.3905  0.3411 -0.4481
 3850TIP3   OH211513   1.065   3.416   3.465 -0.0086  0.4340 -0.0620
 3850TIP3    H111514   1.109   3.465   3.534  1.1114 -0.3254 -0.2174
 3850TIP3    H211515   1.064   3.325   3.495 -0.8426  0.3204 -0.3872
 3851TIP3   OH211516   5.631   0.407   3.496 -0.5527 -0.0863  0.3567
 3851TIP3    H111517   5.653   0.433   3.406  0.5513 -1.6520  0.1262
 3851TIP3    H211518   5.549   0.453   3.515  0.0846  1.6247 -0.8142
 3852TIP3   OH211519   1.728   1.834   0.512 -0.5292 -0.4644 -0.2602
 3852TIP3    H111520   1.714   1.741   0.527  1.9372 -0.8420  0.0421
 3852TIP3    H211521   1.711   1.875   0.597  2.0172 -1.1614  0.6742
 3853TIP3   OH211522   3.397   2.824   1.536  0.2524 -0.5125 -0.1334
 3853TIP3    H111523   3.409   2.883   1.611  0.1731  0.5130 -0.8941
 3853TIP3    H211524   3.321   2.859   1.489  0.2392 -1.1943 -0.6430
 3854TIP3   OH211525   1.857   5.845   0.184  0.1520  0.2816 -0.2458
 3854TIP3    H111526   1.888   5.895   0.260  2.7463 -1.0443 -0.3083
 3854TIP3    H211527   1.797   5.904   0.139  0.6444  2.1220  1.3827
 3855TIP3   OH211528   3.597   6.682   5.246 -0.8004  0.1383 -0.2984
 3855TIP3    H111529   3.578   6.775   5.235 -1.7132 -0.1392 -1.2926
 3855TIP3    H211530   3.692   6.675   5.244 -0.7155  1.0749  0.1271
 3856TIP3   OH211531   1.580   2.521   1.947 -0.2801 -0.0334  0.2142
 3856TIP3    H111532   1.495   2.538   1.906 -0.2797 -0.5243  0.0041
 3856TIP3    H211533   1.641   2.517   1.873 -0.3160 -1.1501  0.2393
 3857TIP3   OH211534   0.293   0.945   4.633  0.4602  0.1343 -0.1321
 3857TIP3    H111535   0.205   0.937   4.670  1.0085 -1.4892  0.9166
 3857TIP3    H211536   0.278   0.955   4.539 -0.8441 -0.2624  0.0155
 3858TIP3   OH211537   2.287   3.481   5.422 -0.2455 -0.4592  0.4681
 3858TIP3    H111538   2.200   3.496   5.384  0.3909  1.3039 -0.3990
 3858TIP3    H211539   2.273   3.409   5.485 -1.8126 -1.9044 -1.3902
 3859TIP3   OH211540   6.047   0.430   0.119  0.0305 -0.0752 -0.0809
 3859TIP3    H111541   6.136   0.452   0.090  0.0126  1.0256  0.6346
 3859TIP3    H211542   5.994   0.434   0.039  0.0587  2.4524 -0.0575
 3860TIP3   OH211543   0.518   3.620   3.805  0.1778  0.9588 -0.1313
 3860TIP3    H111544   0.433   3.603   3.764  1.2128 -1.5935 -1.4271
 3860TIP3    H211545   0.508   3.706   3.846 -3.0175  0.7265 -0.1929
 3861TIP3   OH211546   1.154   6.381   4.167  0.0150 -0.2011 -0.4557
 3861TIP3    H111547   1.154   6.313   4.235 -1.0785  1.6808  1.5829
 3861TIP3    H211548   1.066   6.378   4.129  0.3808 -0.7461 -1.2797
 3862TIP3   OH211549   4.172   5.127   3.568 -0.3129 -0.7545 -0.4661
 3862TIP3    H111550   4.163   5.150   3.475  0.5591  0.0482 -0.3643
 3862TIP3    H211551   4.088   5.150   3.607  0.2038  1.5241 -0.5486
 3863TIP3   OH211552   6.823   1.210   3.796  0.3081  0.3844  0.5501
 3863TIP3    H111553   6.824   1.178   3.705  0.4271 -1.4560  1.1441
 3863TIP3    H211554   6.771   1.290   3.793  1.0015  0.8193 -1.2700
 3864TIP3   OH211555   5.343   2.515   2.192 -0.3258 -0.3547 -0.4708
 3864TIP3    H111556   5.319   2.552   2.107 -0.1535 -2.0660 -1.3234
 3864TIP3    H211557   5.431   2.550   2.209  0.4540 -1.4226 -1.9640
 3865TIP3   OH211558   1.989   6.080   3.048  0.0352  0.2364  0.0850
 3865TIP3    H111559   1.922   6.029   3.003  0.6950  1.6923 -2.7601
 3865TIP3    H211560   1.940   6.146   3.098 -0.7195  1.0505 -1.6659
 3866TIP3   OH211561   3.128   0.816   4.139  0.2463  0.0276 -0.5081
 3866TIP3    H111562   3.073   0.760   4.085  0.2379 -1.5077  1.0031
 3866TIP3    H211563   3.089   0.903   4.131 -0.9149 -0.5486 -1.3904
 3867TIP3   OH211564   0.488   0.038   5.168  0.2812 -0.4327 -0.1701
 3867TIP3    H111565   0.514  -0.018   5.242 -0.9594 -2.5038 -1.2095
 3867TIP3    H211566   0.520  -0.008   5.091 -0.8865  0.2139 -1.0784
 3868TIP3   OH211567   1.721   4.844   3.963 -0.1147  0.0173  0.2588
 3868TIP3    H111568   1.634   4.880   3.976 -0.0239  0.4499 -0.2540
 3868TIP3    H211569   1.777   4.921   3.951  0.1114 -0.2810 -0.7021
 3869TIP3   OH211570   6.362   2.307   5.231 -0.4666  0.3521  0.2692
 3869TIP3    H111571   6.338   2.396   5.257 -1.2137  0.0306  0.7107
 3869TIP3    H211572   6.336   2.253   5.306 -1.5783 -0.4483 -0.6680
 3870TIP3   OH211573   2.185   2.895   3.887  0.8616 -0.5710 -0.1567
 3870TIP3    H111574   2.224   2.812   3.917  0.1980 -0.9665 -0.3671
 3870TIP3    H211575   2.099   2.870   3.854  1.1966 -0.0128 -1.5301
 3871TIP3   OH211576   6.518   4.554   3.706  0.2661 -0.0981  0.0208
 3871TIP3    H111577   6.564   4.478   3.743 -0.7347 -0.6728  0.1473
 3871TIP3    H211578   6.453   4.577   3.773 -1.4241 -1.0017 -1.2145
 3872TIP3   OH211579   7.018   4.218   4.738  0.5373 -0.4087  0.3823
 3872TIP3    H111580   6.949   4.242   4.677  1.3469 -1.2057 -0.9053
 3872TIP3    H211581   7.088   4.183   4.682  1.6535 -0.3679  1.7059
 3873TIP3   OH211582   5.337   0.112   3.324  0.0703 -0.4535 -0.4248
 3873TIP3    H111583   5.253   0.068   3.334 -0.4842  0.5609 -0.4379
 3873TIP3    H211584   5.314   0.205   3.313  1.1445 -0.2548 -1.2113
 3874TIP3   OH211585   3.344   4.736   0.960  0.4051  0.5695  0.4112
 3874TIP3    H111586   3.256   4.711   0.988 -0.1537  0.1250 -1.6142
 3874TIP3    H211587   3.344   4.832   0.964 -0.7460  0.6661 -1.1033
 3875TIP3   OH211588   3.714   5.433   3.679  0.2816  0.1725 -0.5307
 3875TIP3    H111589   3.621   5.426   3.655  0.4299  0.4369 -1.2162
 3875TIP3    H211590   3.757   5.366   3.625  0.4337 -0.2656  0.1232
 3876TIP3   OH211591   0.507   1.469   0.781  0.0736  0.4619 -0.3911
 3876TIP3    H111592   0.601   1.456   0.793 -0.2261 -0.4138  1.1196
 3876TIP3    H211593   0.468   1.383   0.795 -1.0713  1.0611  0.2597
 3877TIP3   OH211594   2.205   1.542   4.339  0.9117  0.0345  0.2650
 3877TIP3    H111595   2.149   1.467   4.319 -0.4523  0.5279  2.0543
 3877TIP3    H211596   2.252   1.558   4.257 -0.9165 -0.9226 -1.0558
 3878TIP3   OH211597   0.211   3.061   2.706 -0.1841 -0.1238  0.0390
 3878TIP3    H111598   0.118   3.085   2.704 -0.0510  0.4566  0.4799
 3878TIP3    H211599   0.233   3.041   2.615 -0.1787  1.9517 -0.4752
 3879TIP3   OH211600   7.122   6.380   2.533 -0.3401  0.0775 -0.2611
 3879TIP3    H111601   7.038   6.421   2.556 -0.3986  0.9524 -1.9376
 3879TIP3    H211602   7.099   6.309   2.474 -0.0364 -1.0241  0.8878
 3880TIP3   OH211603   3.093   0.894   1.421 -0.1751 -0.4497  0.4139
 3880TIP3    H111604   3.003   0.896   1.391 -0.2602 -2.0584  0.5193
 3880TIP3    H211605   3.089   0.857   1.509  0.6575 -1.3527  0.0942
 3881TIP3   OH211606   3.953   4.443   0.404  0.4002 -0.5954  0.5060
 3881TIP3    H111607   3.968   4.530   0.368  0.8880 -0.5100  0.9046
 3881TIP3    H211608   3.866   4.447   0.443  0.9443  0.1229  1.6968
 3882TIP3   OH211609   2.204   3.437   1.969  0.3901 -0.3881 -0.2132
 3882TIP3    H111610   2.257   3.504   1.927  0.7298 -1.2752 -1.2657
 3882TIP3    H211611   2.208   3.457   2.062  1.2693  0.4838 -0.4278
 3883TIP3   OH211612   3.024   4.404   3.191 -0.1270 -0.1472 -0.2216
 3883TIP3    H111613   3.113   4.373   3.176 -0.6591 -1.4060 -0.9642
 3883TIP3    H211614   2.985   4.409   3.103 -1.4867 -1.9107  0.2205
 3884TIP3   OH211615   1.718   1.554   1.150 -0.2239 -0.1219 -0.0639
 3884TIP3    H111616   1.675   1.629   1.110  0.5184  0.2498 -0.1754
 3884TIP3    H211617   1.810   1.562   1.124 -0.0225 -0.7229  0.4413
 3885TIP3   OH211618   0.207   4.423   0.581 -0.1482 -0.0875  0.2234
 3885TIP3    H111619   0.242   4.344   0.623  1.1395 -0.2142 -1.0216
 3885TIP3    H211620   0.119   4.432   0.618 -0.5343 -2.3729  0.0281
 3886TIP3   OH211621   5.913   5.678   1.339 -0.0265  0.5596 -0.1684
 3886TIP3    H111622   5.922   5.604   1.398 -0.5568  0.0524 -0.7136
 3886TIP3    H211623   5.831   5.721   1.365 -1.3471 -0.8459 -1.7917
 3887TIP3   OH211624   3.729   4.090   0.788  0.4626 -0.0042  0.1236
 3887TIP3    H111625   3.658   4.106   0.726  0.5417  0.7442  0.2227
 3887TIP3    H211626   3.719   4.158   0.855  0.3432 -0.8335  0.9715
 3888TIP3   OH211627   7.183   0.945   2.645 -0.7137 -0.2556 -0.7455
 3888TIP3    H111628   7.242   0.882   2.686  0.2298  1.0370 -0.0169
 3888TIP3    H211629   7.224   0.966   2.561 -0.2071  0.4942 -0.3255
 3889TIP3   OH211630   4.362   4.404   1.066 -0.7976  0.0349  1.0033
 3889TIP3    H111631   4.403   4.368   1.145 -0.5451 -1.3592  0.2628
 3889TIP3    H211632   4.428   4.464   1.030 -0.6651  0.2000  1.5099
 3890TIP3   OH211633   3.054   1.985   3.629  0.1765  0.0121  0.7108
 3890TIP3    H111634   2.985   1.921   3.610 -0.6130  1.5941 -2.5262
 3890TIP3    H211635   3.132   1.948   3.587 -0.6218  1.6513 -2.5137
 3891TIP3   OH211636   5.335   0.372   3.196 -0.3378  0.1819  0.1486
 3891TIP3    H111637   5.389   0.300   3.163  0.9102  0.8807  0.6277
 3891TIP3    H211638   5.380   0.451   3.168 -0.5650  0.7772  1.3958
 3892TIP3   OH211639   1.251   5.218   3.240 -0.2411  0.0971  0.3851
 3892TIP3    H111640   1.216   5.201   3.328  0.8917 -0.0841  0.8148
 3892TIP3    H211641   1.300   5.300   3.249 -1.1280  0.7275 -0.3792
 3893TIP3   OH211642   1.290   0.654   3.553  0.3543 -0.0778  0.4914
 3893TIP3    H111643   1.312   0.698   3.635 -0.0866 -0.3501  0.7622
 3893TIP3    H211644   1.206   0.691   3.527  1.5215  1.6716 -1.0511
 3894TIP3   OH211645   3.484   5.378   2.412 -0.4957 -0.0425 -0.2708
 3894TIP3    H111646   3.548   5.311   2.435 -1.1251 -0.5731 -0.0032
 3894TIP3    H211647   3.519   5.460   2.447 -0.5477 -0.5295  0.9629
 3895TIP3   OH211648   4.226   1.203   2.082 -0.8245  0.1946  0.2689
 3895TIP3    H111649   4.140   1.161   2.094 -0.4186 -0.1121  2.6802
 3895TIP3    H211650   4.284   1.131   2.055 -1.0179  0.1141  0.0595
 3896TIP3   OH211651   7.216   2.505   0.930 -0.1611 -0.0481  0.1240
 3896TIP3    H111652   7.162   2.584   0.921 -0.5199 -0.1719  1.0609
 3896TIP3    H211653   7.161   2.435   0.895  1.2068  0.4434 -3.3824
 3897TIP3   OH211654   1.869   5.278   0.109  0.4198 -0.2147  0.1180
 3897TIP3    H111655   1.846   5.256   0.200 -0.3590  0.1781  0.0310
 3897TIP3    H211656   1.832   5.206   0.057 -0.2057  0.1690  0.0184
 3898TIP3   OH211657   3.097   6.686   4.533 -0.0190  0.4900 -0.9223
 3898TIP3    H111658   3.169   6.679   4.470  1.1192  2.4111  0.0737
 3898TIP3    H211659   3.018   6.678   4.479  0.9227  1.0487 -2.4605
 3899TIP3   OH211660   5.177   4.036   1.736  0.1554  0.7863  0.2253
 3899TIP3    H111661   5.231   4.019   1.659  0.5721  0.7773  0.5188
 3899TIP3    H211662   5.092   4.062   1.700  0.4494  1.1256 -0.2376
 3900TIP3   OH211663   1.419   1.741   1.497  0.2294  0.0142  0.0055
 3900TIP3    H111664   1.415   1.775   1.407  0.1311  2.3432  0.8140
 3900TIP3    H211665   1.490   1.791   1.538  1.6832 -2.4643  0.7272
 3901TIP3   OH211666   6.993   2.820   3.895 -0.3517  0.5016  0.3360
 3901TIP3    H111667   7.057   2.780   3.836  0.0654  0.1002  1.0453
 3901TIP3    H211668   7.043   2.884   3.945 -1.0197  2.0107 -0.8174
 3902TIP3   OH211669   6.833   0.755   4.920  0.5916 -0.6197 -0.1554
 3902TIP3    H111670   6.876   0.840   4.916 -0.1682 -0.2136  0.0197
 3902TIP3    H211671   6.793   0.744   4.834  0.4034 -0.6382 -0.0670
 3903TIP3   OH211672   6.369   3.042   2.877 -0.0324  0.1834  0.3946
 3903TIP3    H111673   6.383   3.132   2.906  0.1120 -0.2375  1.6803
 3903TIP3    H211674   6.318   3.002   2.947 -0.3656 -0.6566 -0.3086
 3904TIP3   OH211675   6.678   3.526   4.880  0.2772 -0.3230 -0.1011
 3904TIP3    H111676   6.684   3.495   4.790 -0.1640  0.9686 -0.6052
 3904TIP3    H211677   6.591   3.501   4.910 -0.1419  0.5475 -0.5638
 3905TIP3   OH211678   1.958   6.237   3.309 -0.0300 -0.0557  0.5398
 3905TIP3    H111679   1.943   6.332   3.309 -1.1941 -0.2042 -1.0156
 3905TIP3    H211680   2.040   6.226   3.357  1.5814  1.9746 -1.5296
 3906TIP3   OH211681   3.210   2.104   5.315 -0.1140 -0.3350 -0.4245
 3906TIP3    H111682   3.293   2.069   5.283  0.0172  1.1693 -1.9052
 3906TIP3    H211683   3.148   2.031   5.308  0.9847 -1.3755  0.3800
 3907TIP3   OH211684   0.837   0.107   0.326  0.1201 -0.1810 -0.2057
 3907TIP3    H111685   0.828   0.201   0.314 -0.1057 -0.1256  0.3680
 3907TIP3    H211686   0.844   0.072   0.237 -0.3957  0.3161 -0.4466
 3908TIP3   OH211687   4.823   5.427   4.706  0.7729  0.7189  0.1550
 3908TIP3    H111688   4.910   5.466   4.697  0.2269  2.0344  0.3841
 3908TIP3    H211689   4.808   5.384   4.622  2.4583 -1.3047  0.8205
 3909TIP3   OH211690   1.419   3.129   2.997 -0.2362  0.5385 -0.2087
 3909TIP3    H111691   1.422   3.034   3.012 -0.1066  0.1759 -2.2441
 3909TIP3    H211692   1.329   3.154   3.018 -0.1215  0.1006  0.9065
 3910TIP3   OH211693   2.757   2.407   3.795 -0.1084  0.4243  0.3734
 3910TIP3    H111694   2.837   2.400   3.744  0.5172  0.3986  1.3480
 3910TIP3    H211695   2.691   2.361   3.742  0.5140  0.4217 -0.4167
 3911TIP3   OH211696   1.223   6.726   4.979 -0.5597  0.9101  0.0928
 3911TIP3    H111697   1.263   6.768   5.055  0.7301  0.3441 -0.2523
 3911TIP3    H211698   1.172   6.795   4.937  2.1214  2.4188 -0.9281
 3912TIP3   OH211699   6.996   4.002   5.852  0.2825 -0.2754  0.0495
 3912TIP3    H111700   7.079   4.013   5.805  0.4289  0.4225  0.4552
 3912TIP3    H211701   6.946   3.942   5.797  1.0369 -0.6774 -0.2232
 3913TIP3   OH211702   0.800   4.559   0.646 -0.4713 -0.0698 -0.4026
 3913TIP3    H111703   0.761   4.485   0.692  1.7796 -0.9528  0.2021
 3913TIP3    H211704   0.873   4.521   0.598  2.6289  2.0535  2.2228
 3914TIP3   OH211705   3.809   6.287   4.403  0.0588 -0.1799 -0.1209
 3914TIP3    H111706   3.891   6.316   4.442  0.6408 -0.5934 -1.0295
 3914TIP3    H211707   3.743   6.347   4.440  0.9591  1.0479 -0.4599
 3915TIP3   OH211708   5.106   2.387   2.282 -0.1146 -0.2846 -0.6651
 3915TIP3    H111709   5.095   2.366   2.375  0.5236  0.2363 -0.4641
 3915TIP3    H211710   5.198   2.414   2.274  0.8612 -3.5604 -2.0835
 3916TIP3   OH211711   2.833   2.224   0.433  0.6293 -0.1461 -0.0427
 3916TIP3    H111712   2.777   2.193   0.504  1.0118 -0.6974  0.0195
 3916TIP3    H211713   2.886   2.293   0.472 -1.7559  2.2394 -0.7032
 3917TIP3   OH211714   3.115   5.318   3.176  0.3929 -0.0725 -0.2835
 3917TIP3    H111715   3.116   5.387   3.110 -1.3504 -0.3203 -0.5947
 3917TIP3    H211716   3.033   5.272   3.162  0.1274 -0.3423  1.8598
 3918TIP3   OH211717   5.640   2.264   3.649  0.1342 -0.7384 -0.9026
 3918TIP3    H111718   5.705   2.199   3.676 -0.6055 -0.3199  2.3002
 3918TIP3    H211719   5.556   2.221   3.668 -0.3762  0.6932  0.2302
 3919TIP3   OH211720   0.432   3.661   2.433 -0.3807 -0.0638 -0.3448
 3919TIP3    H111721   0.418   3.684   2.525 -2.9040  1.6469 -1.0473
 3919TIP3    H211722   0.454   3.744   2.391 -2.1040 -0.2454 -1.7139
 3920TIP3   OH211723   5.218   4.531   0.641 -0.2419  0.1630 -0.2668
 3920TIP3    H111724   5.195   4.570   0.557 -0.8045  1.7458  0.5743
 3920TIP3    H211725   5.309   4.556   0.655 -0.6241  1.3322  0.3076
 3921TIP3   OH211726   4.088   0.587   2.386 -0.4180  0.4165  0.0271
 3921TIP3    H111727   4.075   0.668   2.338 -0.9697  0.0089 -0.5183
 3921TIP3    H211728   4.052   0.519   2.330 -0.7410 -0.1144  0.8579
 3922TIP3   OH211729   4.965   1.548   0.244 -0.2936 -0.0875  0.1601
 3922TIP3    H111730   5.009   1.602   0.178  1.8309 -1.8499  0.0088
 3922TIP3    H211731   4.981   1.593   0.327 -1.0839  0.9987 -0.2558
 3923TIP3   OH211732   6.188   3.915   5.290 -0.9595 -0.3309  0.4367
 3923TIP3    H111733   6.222   3.835   5.248 -1.1610  0.2254 -0.8275
 3923TIP3    H211734   6.134   3.882   5.362 -2.6750 -1.4808 -1.2387
 3924TIP3   OH211735   3.774   3.264   2.515  0.0336  0.0631  0.1726
 3924TIP3    H111736   3.684   3.236   2.500 -0.4944  1.6456  0.2261
 3924TIP3    H211737   3.801   3.219   2.595 -0.5717 -0.6922 -0.0406
 3925TIP3   OH211738   0.387   0.352   2.495 -0.2612 -0.3192  0.4040
 3925TIP3    H111739   0.407   0.389   2.409  1.0724 -0.8236  0.4787
 3925TIP3    H211740   0.356   0.427   2.546  1.6454  0.5862  0.3266
 3926TIP3   OH211741   2.190   5.828   5.137  0.1306  0.1350 -0.2952
 3926TIP3    H111742   2.183   5.919   5.109  1.8822  0.2779 -0.4125
 3926TIP3    H211743   2.213   5.780   5.058  1.9775  0.0609  0.2284
 3927TIP3   OH211744   5.239   5.171   5.211 -0.4335  0.1060 -0.0733
 3927TIP3    H111745   5.204   5.139   5.128  0.1838  0.5343 -0.5113
 3927TIP3    H211746   5.317   5.220   5.186  0.2730 -0.5109  0.8375
 3928TIP3   OH211747   1.656   3.026   1.427 -0.1932 -0.3344 -0.4014
 3928TIP3    H111748   1.742   3.068   1.434  0.6172 -1.8605 -0.7592
 3928TIP3    H211749   1.604   3.087   1.374  0.7723  0.4387 -0.5057
 3929TIP3   OH211750   6.188   6.051   2.151 -0.1666 -0.0090 -0.3863
 3929TIP3    H111751   6.181   6.136   2.108 -1.6255 -0.1005 -0.3893
 3929TIP3    H211752   6.105   6.007   2.132 -1.5613  0.4662  3.5532
 3930TIP3   OH211753   6.306   5.206   0.573  0.0655  0.3696 -0.6558
 3930TIP3    H111754   6.256   5.288   0.576 -1.3118 -0.4541 -0.2880
 3930TIP3    H211755   6.323   5.184   0.664 -3.4723 -1.9762 -0.3520
 3931TIP3   OH211756   7.024   4.695   1.557  0.4243 -0.3227 -0.7408
 3931TIP3    H111757   6.935   4.716   1.530  0.6665  0.8010 -0.7460
 3931TIP3    H211758   7.072   4.778   1.548  1.6275 -1.0465 -1.3573
 3932TIP3   OH211759   6.712   1.506   2.193 -0.0858 -0.2675 -0.1075
 3932TIP3    H111760   6.785   1.447   2.211  0.4647  0.3382 -0.3407
 3932TIP3    H211761   6.698   1.498   2.098  1.7345  1.9373 -0.6354
 3933TIP3   OH211762   3.435   5.822   4.035  0.3737 -0.3289  0.4397
 3933TIP3    H111763   3.374   5.857   3.970 -1.2058 -2.3947  0.7046
 3933TIP3    H211764   3.452   5.896   4.093  0.5120  1.1108 -1.3358
 3934TIP3   OH211765   4.881   1.096   4.770 -0.6656  0.6524 -0.2439
 3934TIP3    H111766   4.856   1.043   4.694  0.6939  2.1495 -1.8353
 3934TIP3    H211767   4.877   1.186   4.738 -1.4594  1.4541  1.9279
 3935TIP3   OH211768   1.918   6.047   4.897 -0.1277 -0.3330  0.3671
 3935TIP3    H111769   1.921   6.093   4.981 -1.3676  0.8512 -0.2051
 3935TIP3    H211770   1.867   5.968   4.915  1.0908 -0.9702  1.1117
 3936TIP3   OH211771   2.045   5.473   0.437  1.1013  0.4001  0.2248
 3936TIP3    H111772   2.075   5.538   0.375  0.1789 -1.0762 -1.8958
 3936TIP3    H211773   2.057   5.389   0.392 -1.9586 -0.5685  0.9362
 3937TIP3   OH211774   2.491   0.728   4.649 -0.3411 -0.0811 -0.3191
 3937TIP3    H111775   2.477   0.792   4.580 -1.4410  1.7872  1.5080
 3937TIP3    H211776   2.572   0.683   4.625 -0.7076  0.4643 -2.7808
 3938TIP3   OH211777   4.040   0.516   0.843 -0.1303 -0.2342  0.0240
 3938TIP3    H111778   4.070   0.606   0.850 -1.2066  0.1387  0.0534
 3938TIP3    H211779   4.067   0.487   0.756  0.1485  0.1425 -0.0119
 3939TIP3   OH211780   2.363   1.061   0.663 -0.0767 -0.5170 -0.0558
 3939TIP3    H111781   2.308   1.031   0.591  0.4786 -4.5400  0.9812
 3939TIP3    H211782   2.302   1.102   0.724 -1.5104 -2.2763 -0.2456
 3940TIP3   OH211783   2.198   4.379   5.431  1.0741  0.1848  0.6863
 3940TIP3    H111784   2.284   4.398   5.394  0.6237  0.6323 -0.1529
 3940TIP3    H211785   2.173   4.460   5.476 -0.3979  1.3442 -2.0207
 3941TIP3   OH211786   0.540   5.568   4.701  0.1315 -0.3529  0.3254
 3941TIP3    H111787   0.511   5.625   4.630 -0.9815 -1.9196 -0.5197
 3941TIP3    H211788   0.634   5.586   4.710 -0.1301  1.3656 -0.1069
 3942TIP3   OH211789   4.295   3.638   2.598 -0.4365 -0.0751  0.3088
 3942TIP3    H111790   4.315   3.691   2.675  0.1945  0.8448 -0.4575
 3942TIP3    H211791   4.297   3.548   2.629  1.5374  0.1756  1.0370
 3943TIP3   OH211792   0.372   3.948   3.066 -0.6136 -0.5855 -0.8676
 3943TIP3    H111793   0.357   3.856   3.045 -1.7104 -0.5739 -0.2238
 3943TIP3    H211794   0.303   3.995   3.019  0.4874  0.0223 -1.9356
 3944TIP3   OH211795   5.101   3.170   3.374 -0.0075  0.2117  0.3516
 3944TIP3    H111796   5.094   3.262   3.398  0.2216  0.6647 -1.2194
 3944TIP3    H211797   5.090   3.123   3.457 -0.4396  1.6245  1.1316
 3945TIP3   OH211798   6.994   6.435   4.795  0.5788  0.6631  0.3100
 3945TIP3    H111799   7.028   6.476   4.715 -0.8889  1.3160 -0.0030
 3945TIP3    H211800   6.906   6.406   4.771  0.8844 -0.9977  1.0968
 3946TIP3   OH211801   1.219   2.747   3.611 -0.1395  0.9487 -0.5391
 3946TIP3    H111802   1.130   2.780   3.601 -0.4035  0.0385 -1.3362
 3946TIP3    H211803   1.219   2.702   3.696 -0.6990  0.2237 -0.9075
 3947TIP3   OH211804   0.225   3.193   0.932  0.3444 -0.3372  0.4973
 3947TIP3    H111805   0.295   3.250   0.900 -1.3290  1.3602 -0.3450
 3947TIP3    H211806   0.254   3.166   1.019  1.6296  1.0762  0.5545
 3948TIP3   OH211807   0.469   5.772   4.515  0.0264 -0.0960 -0.0863
 3948TIP3    H111808   0.441   5.842   4.574 -1.3232 -1.2670  0.7448
 3948TIP3    H211809   0.454   5.807   4.427 -1.6323  0.3224  0.3201
 3949TIP3   OH211810   5.450   2.005   5.316  0.1407  0.0975  0.1219
 3949TIP3    H111811   5.460   2.098   5.338  0.0900 -0.2673  1.7723
 3949TIP3    H211812   5.514   1.960   5.370 -0.2770 -0.8922 -0.1822
 3950TIP3   OH211813   6.806   1.377   2.954  0.1853  0.1173 -0.2641
 3950TIP3    H111814   6.803   1.435   2.878  1.9323  0.1819 -0.3141
 3950TIP3    H211815   6.894   1.388   2.990 -0.7961  0.6500  2.2244
 3951TIP3   OH211816   4.723   2.739   4.533 -0.1245 -0.6601 -0.2404
 3951TIP3    H111817   4.687   2.654   4.559 -2.1111  0.1012 -0.2622
 3951TIP3    H211818   4.728   2.788   4.615 -0.9911 -0.1237 -0.5007
 3952TIP3   OH211819   6.627   2.868   5.702  0.0223 -0.1593  0.3539
 3952TIP3    H111820   6.598   2.936   5.764 -1.6237 -0.3251 -0.1792
 3952TIP3    H211821   6.550   2.812   5.691 -0.1061  0.4317 -2.6113
 3953TIP3   OH211822   1.680   2.770   1.348  0.0570 -0.4207  0.0006
 3953TIP3    H111823   1.770   2.764   1.316  0.3357  1.3090  0.3351
 3953TIP3    H211824   1.669   2.863   1.370 -2.6531 -0.0078 -2.4752
 3954TIP3   OH211825   7.017   2.951   4.681 -0.0583  0.5283  0.3133
 3954TIP3    H111826   7.094   2.895   4.686  0.4408  0.9577 -1.6348
 3954TIP3    H211827   6.950   2.905   4.732  0.4479 -1.6614 -0.8730
 3955TIP3   OH211828   0.587   0.305   1.962  0.4054 -0.4941 -0.0097
 3955TIP3    H111829   0.630   0.363   2.025 -0.4395  1.1109 -0.8411
 3955TIP3    H211830   0.643   0.305   1.885 -0.4797  0.7336 -0.6906
 3956TIP3   OH211831   5.532   5.261   5.557  0.0850  0.4791  0.5216
 3956TIP3    H111832   5.477   5.333   5.526 -0.6291 -0.4214 -0.3711
 3956TIP3    H211833   5.492   5.183   5.520  0.0548 -0.5422  2.5705
 3957TIP3   OH211834   4.618   3.860   3.030  0.9639 -0.3266  0.5990
 3957TIP3    H111835   4.650   3.915   2.959  0.1934 -1.5433 -0.7355
 3957TIP3    H211836   4.697   3.838   3.080  1.8878 -1.2544 -1.1765
 3958TIP3   OH211837   5.344   2.815   4.109 -0.0299  0.7316  0.2743
 3958TIP3    H111838   5.332   2.723   4.132 -0.9506  0.8489  0.2910
 3958TIP3    H211839   5.308   2.864   4.182  1.2444  1.1279  0.6664
 3959TIP3   OH211840   2.289   0.516   5.511  0.7577  0.0404  0.5947
 3959TIP3    H111841   2.287   0.556   5.598  1.4649 -0.3333  0.7882
 3959TIP3    H211842   2.270   0.424   5.527 -2.6462  0.4941 -0.0193
 3960TIP3   OH211843   3.651   2.074   2.601  0.2192  0.0212 -0.0116
 3960TIP3    H111844   3.585   2.134   2.568 -0.0121  0.1069  0.5872
 3960TIP3    H211845   3.688   2.119   2.678  0.9926 -0.0098 -0.3548
 3961TIP3   OH211846   5.192   1.110   3.919  0.4222  0.0409  0.2748
 3961TIP3    H111847   5.249   1.067   3.855 -0.2360 -0.3181 -0.0866
 3961TIP3    H211848   5.248   1.174   3.963  0.9300  0.1446 -0.5174
 3962TIP3   OH211849   4.748   4.039   2.346 -0.4073 -0.5509 -0.3558
 3962TIP3    H111850   4.681   3.978   2.317  0.2415 -0.9096 -1.1481
 3962TIP3    H211851   4.804   3.988   2.404 -0.3842 -0.4652 -0.3028
 3963TIP3   OH211852   6.872   2.582   0.315  0.2040 -0.0036  0.5575
 3963TIP3    H111853   6.896   2.592   0.407 -0.1943 -0.1827  0.6865
 3963TIP3    H211854   6.949   2.542   0.274  0.2675 -0.2197  0.8828
 3964TIP3   OH211855   3.213   6.642   0.246  0.3267 -0.0827  0.3042
 3964TIP3    H111856   3.247   6.626   0.158 -0.1734 -1.1867  0.2936
 3964TIP3    H211857   3.122   6.614   0.242  0.8048 -2.0318  1.6769
 3965TIP3   OH211858   1.318   1.093   2.748  0.3690 -0.4274 -0.0177
 3965TIP3    H111859   1.342   1.170   2.697 -0.2380  0.2175  0.6417
 3965TIP3    H211860   1.258   1.045   2.692 -0.5942  0.4729  0.2006
 3966TIP3   OH211861   2.908   2.528   4.636 -0.5081 -0.3233  0.0080
 3966TIP3    H111862   2.883   2.505   4.726  0.0800 -1.2875 -0.0565
 3966TIP3    H211863   2.964   2.456   4.608  1.8408  1.4200 -0.0692
 3967TIP3   OH211864   4.669   5.002   2.651  0.3309  0.0517 -0.1577
 3967TIP3    H111865   4.640   4.915   2.624  2.8462 -0.7631 -0.4977
 3967TIP3    H211866   4.670   5.053   2.570  0.7174 -0.1859 -0.3043
 3968TIP3   OH211867   1.231   5.448   1.480 -0.0107 -0.3223 -0.2666
 3968TIP3    H111868   1.240   5.359   1.513  0.1136 -0.1158  0.2615
 3968TIP3    H211869   1.148   5.479   1.517  0.9307  0.5006  1.2691
 3969TIP3   OH211870   0.193   3.427   2.949  0.7389  0.1000  0.0997
 3969TIP3    H111871   0.266   3.372   2.921  1.8671  1.8752 -0.5506
 3969TIP3    H211872   0.121   3.401   2.891  1.5487  0.0025 -0.8894
 3970TIP3   OH211873   0.115   5.899   3.926  0.1475 -0.5752 -0.2624
 3970TIP3    H111874   0.186   5.855   3.878  0.8522  0.4478 -0.1887
 3970TIP3    H211875   0.082   5.965   3.865  0.0439 -0.2638  0.1324
 3971TIP3   OH211876   0.775   0.809   3.688 -0.4869  0.1354  0.2927
 3971TIP3    H111877   0.712   0.770   3.748 -0.9125  0.4045  0.0278
 3971TIP3    H211878   0.779   0.748   3.614  1.1250 -0.9432  1.2161
 3972TIP3   OH211879   6.955   1.882   5.046  0.5590  0.2758  0.2402
 3972TIP3    H111880   6.957   1.903   4.952  1.3970  1.4034  0.4965
 3972TIP3    H211881   7.040   1.910   5.079  0.3996 -0.4132  1.2969
 3973TIP3   OH211882   5.331   5.757   0.326 -0.3454  0.5446 -0.4339
 3973TIP3    H111883   5.320   5.834   0.382  0.8752  1.2363 -1.1173
 3973TIP3    H211884   5.285   5.779   0.245  0.9962  1.0606 -1.0784
 3974TIP3   OH211885   3.347   3.755   2.948  0.3025 -0.0184  0.2406
 3974TIP3    H111886   3.366   3.668   2.984  2.4374 -0.2433 -1.2422
 3974TIP3    H211887   3.381   3.816   3.013 -0.6387 -0.2711  0.9976
 3975TIP3   OH211888   0.197   0.842   3.214 -0.3857 -0.4803  0.3602
 3975TIP3    H111889   0.285   0.874   3.233  0.6677 -2.2466 -1.2083
 3975TIP3    H211890   0.210   0.764   3.160 -2.8887 -1.5380  1.1094
 3976TIP3   OH211891   6.933   3.196   3.482  0.3173  0.7447 -0.3734
 3976TIP3    H111892   6.843   3.203   3.513  0.2542  1.7546 -0.7202
 3976TIP3    H211893   6.925   3.183   3.388  0.5244 -0.8339 -0.1866
 3977TIP3   OH211894   2.190   4.001   2.352 -1.1039 -0.0991 -0.4450
 3977TIP3    H111895   2.151   4.054   2.283  0.3822  1.4023 -0.2027
 3977TIP3    H211896   2.271   3.966   2.314  0.8482  2.4525  1.0415
 3978TIP3   OH211897   6.927   3.543   2.577  0.1667  0.1606 -0.3345
 3978TIP3    H111898   6.859   3.607   2.597 -1.2604 -1.8268  1.8230
 3978TIP3    H211899   7.009   3.590   2.588 -0.7961  1.4837  1.9256
 3979TIP3   OH211900   5.204   1.266   3.625 -1.2753  0.4712  0.0238
 3979TIP3    H111901   5.248   1.313   3.695 -0.9227  0.1348  0.0315
 3979TIP3    H211902   5.123   1.234   3.665 -0.6048 -0.5825  0.5762
 3980TIP3   OH211903   2.373   5.102   2.820  0.3831  0.5725 -0.4437
 3980TIP3    H111904   2.291   5.138   2.784  0.7751  0.6341 -1.2894
 3980TIP3    H211905   2.428   5.086   2.743  2.0360  2.6363  0.2105
 3981TIP3   OH211906   0.578   3.925   2.497 -0.1027 -0.4944  0.1042
 3981TIP3    H111907   0.563   3.966   2.582 -2.5523  0.3793 -0.6563
 3981TIP3    H211908   0.664   3.958   2.469  0.4761 -0.3357  1.9347
 3982TIP3   OH211909   6.537   3.351   2.660  0.2340 -0.0980 -0.5394
 3982TIP3    H111910   6.537   3.279   2.597  0.8861 -0.7916  0.2292
 3982TIP3    H211911   6.465   3.408   2.632 -0.4683 -1.1912 -0.9928
 3983TIP3   OH211912   6.679   3.595   5.228  0.2808 -0.5661  0.2587
 3983TIP3    H111913   6.604   3.655   5.232  0.5421 -0.2850  1.0445
 3983TIP3    H211914   6.640   3.510   5.205 -0.2375 -0.3458  0.3063
 3984TIP3   OH211915   3.303   2.427   3.115 -0.5739  0.7604 -0.4220
 3984TIP3    H111916   3.249   2.348   3.109 -0.6263  0.7243  0.3799
 3984TIP3    H211917   3.246   2.491   3.159  0.4516  0.3053  1.7218
 3985TIP3   OH211918   1.405   5.709   3.137  0.0239  0.0048  0.1167
 3985TIP3    H111919   1.409   5.777   3.205 -1.9022  0.2153  0.0770
 3985TIP3    H211920   1.495   5.702   3.105  1.1865 -0.6358  3.1843
 3986TIP3   OH211921   2.045   0.140   0.433  0.1554 -0.3308  0.0270
 3986TIP3    H111922   2.130   0.167   0.468 -0.4633 -0.8800  2.0899
 3986TIP3    H211923   2.062   0.121   0.340  2.0429  0.5326  0.1547
 3987TIP3   OH211924   3.156   4.561   5.655  0.4838 -0.5163  0.4713
 3987TIP3    H111925   3.242   4.572   5.696  0.1468  1.5202  0.7446
 3987TIP3    H211926   3.121   4.481   5.694  1.9037 -0.9186  0.9857
 3988TIP3   OH211927   2.628   2.191   5.695  0.0899  0.3358  0.4371
 3988TIP3    H111928   2.717   2.159   5.711 -0.0703  0.3625  1.4368
 3988TIP3    H211929   2.587   2.124   5.641  1.1179  0.9405 -1.1716
 3989TIP3   OH211930   3.187   1.849   4.717  0.0950  0.0210 -0.1353
 3989TIP3    H111931   3.246   1.785   4.677 -0.3663  0.1113 -0.9720
 3989TIP3    H211932   3.099   1.819   4.692 -0.1268  0.9543 -0.4868
 3990TIP3   OH211933   4.726   3.053   0.950  0.6054 -0.0550  0.3743
 3990TIP3    H111934   4.709   2.992   1.022  1.1866  0.9633  1.4064
 3990TIP3    H211935   4.807   3.097   0.974  0.3587  0.9175 -0.4927
 3991TIP3   OH211936   1.145   2.183   0.954  0.2688  0.4766 -0.2112
 3991TIP3    H111937   1.221   2.225   0.915  0.4324  0.6050  0.2457
 3991TIP3    H211938   1.104   2.135   0.881  1.4122 -0.5257 -0.2325
 3992TIP3   OH211939   3.952   4.629   2.840  0.2254  0.6625  0.3041
 3992TIP3    H111940   3.908   4.605   2.759  1.4201  1.3456 -0.5879
 3992TIP3    H211941   3.885   4.673   2.892 -0.9285 -0.9976  0.2978
 3993TIP3   OH211942   4.534   6.204   2.596 -0.2204  0.1777 -0.2522
 3993TIP3    H111943   4.602   6.140   2.620 -0.2235 -0.5471 -2.0418
 3993TIP3    H211944   4.524   6.194   2.502 -2.3934  0.7072 -0.1298
 3994TIP3   OH211945   1.068  -0.010   5.617 -0.2305  0.5707 -0.2309
 3994TIP3    H111946   1.072   0.085   5.628  0.8492  0.5840 -0.6056
 3994TIP3    H211947   1.099  -0.046   5.701 -1.2087  0.5260  0.1265
 3995TIP3   OH211948   6.981   1.634   1.433  0.4539 -0.5484  0.2886
 3995TIP3    H111949   6.912   1.576   1.463 -0.0468  0.5971  1.4264
 3995TIP3    H211950   7.020   1.670   1.513  0.2400  1.2431 -0.3560
 3996TIP3   OH211951   3.750   3.792   4.706  0.5189 -0.6427 -0.0532
 3996TIP3    H111952   3.728   3.748   4.788  1.2564 -0.3641  0.2980
 3996TIP3    H211953   3.669   3.834   4.679  0.5746  0.3096  1.1832
 3997TIP3   OH211954   1.090   3.330   1.621 -0.4926  0.0831  0.1323
 3997TIP3    H111955   1.182   3.344   1.644  0.2241  1.5842 -3.0002
 3997TIP3    H211956   1.051   3.417   1.628 -1.1134 -0.1283 -0.5936
 3998TIP3   OH211957   2.822   3.360   1.369  0.6739  0.2335  0.0430
 3998TIP3    H111958   2.806   3.419   1.443  0.9630 -0.8267  0.9751
 3998TIP3    H211959   2.863   3.416   1.302  0.0160  1.3018  0.5052
 3999TIP3   OH211960   2.171   3.793   1.998  0.4357 -0.2745 -0.2050
 3999TIP3    H111961   2.206   3.799   1.909 -2.2182 -0.9942 -1.3810
 3999TIP3    H211962   2.097   3.853   1.999 -1.2291 -2.2400  0.6374
 4000TIP3   OH211963   3.989   3.878   3.210  0.1300 -0.3336 -0.2176
 4000TIP3    H111964   3.984   3.972   3.195 -0.1064 -0.2576  0.3355
 4000TIP3    H211965   4.083   3.861   3.219  0.2901 -0.3818 -1.7135
 4001TIP3   OH211966   4.758   3.210   5.378 -0.0828 -0.3028 -0.0175
 4001TIP3    H111967   4.778   3.142   5.314 -1.6903 -0.2581 -0.5924
 4001TIP3    H211968   4.759   3.164   5.462  2.2439 -0.3191  0.0168
 4002TIP3   OH211969   5.770   3.258   4.542 -0.6157  0.0476  0.0506
 4002TIP3    H111970   5.817   3.188   4.497 -0.6009  0.9105 -1.3306
 4002TIP3    H211971   5.681   3.225   4.550 -0.1717 -0.9541  1.2898
 4003TIP3   OH211972   1.618   0.092   1.596 -0.2627 -0.0228  0.0125
 4003TIP3    H111973   1.544   0.116   1.539  0.7907  0.9263 -0.9995
 4003TIP3    H211974   1.676   0.167   1.592  1.3218 -1.2133 -0.1563
 4004TIP3   OH211975   6.865   0.685   2.055  0.9302 -0.2928 -0.8075
 4004TIP3    H111976   6.845   0.599   2.090  4.1963 -1.2987 -1.0485
 4004TIP3    H211977   6.790   0.739   2.078 -1.3158 -3.1990 -0.7853
 4005TIP3   OH211978   0.550   1.141   3.969 -0.3520 -0.2063  0.7436
 4005TIP3    H111979   0.514   1.156   4.057 -1.4082  0.0294  0.2846
 4005TIP3    H211980   0.513   1.057   3.942 -0.4512 -0.0247  0.3086
 4006TIP3   OH211981   6.117   0.018   1.891 -0.4070  0.3263 -0.9687
 4006TIP3    H111982   6.149  -0.068   1.919 -3.2502 -1.0956 -1.7029
 4006TIP3    H211983   6.188   0.078   1.914  1.5666 -2.1286 -0.0976
 4007TIP3   OH211984   3.149   6.166   3.174  0.6007  0.4597  0.3059
 4007TIP3    H111985   3.142   6.261   3.173 -2.1479  0.3528 -1.8551
 4007TIP3    H211986   3.217   6.146   3.110 -0.2601  0.9804 -0.8072
 4008TIP3   OH211987   2.619   4.918   3.687  0.2918 -0.0031 -0.3458
 4008TIP3    H111988   2.535   4.955   3.658  1.4487  2.2410 -1.0588
 4008TIP3    H211989   2.600   4.881   3.773 -1.2039  1.3965 -0.0163
 4009TIP3   OH211990   5.870   1.371   0.488 -0.4748  0.1823  0.4817
 4009TIP3    H111991   5.785   1.409   0.467  0.2172  1.9178  0.6597
 4009TIP3    H211992   5.901   1.419   0.564  0.9495  0.0360  0.0454
 4010TIP3   OH211993   5.667   4.529   1.456  0.0371  0.4136  0.5324
 4010TIP3    H111994   5.723   4.452   1.469 -0.9400 -0.5262 -0.5588
 4010TIP3    H211995   5.579   4.498   1.479 -0.6960  0.5744 -1.7821
 4011TIP3   OH211996   6.408   6.463   5.575 -0.1010  0.2861 -0.4121
 4011TIP3    H111997   6.491   6.459   5.527 -0.4534 -0.1609 -1.0000
 4011TIP3    H211998   6.426   6.421   5.659  0.1526 -0.2185 -0.7153
 4012TIP3   OH211999   0.599   1.769   1.978  0.2005 -0.0312  0.3662
 4012TIP3    H112000   0.536   1.736   2.042  0.1533  1.1826  0.9876
 4012TIP3    H212001   0.682   1.773   2.025 -0.0885  2.0758  0.8159
 4013TIP3   OH212002   5.581   3.662   3.218  0.2599  0.9193  0.1283
 4013TIP3    H112003   5.556   3.717   3.292  2.5547  1.9836  0.1914
 4013TIP3    H212004   5.610   3.580   3.258 -2.1113 -0.0043  0.1012
 4014TIP3   OH212005   6.574   1.232   2.441 -0.3479  0.0141 -0.0090
 4014TIP3    H112006   6.540   1.314   2.406 -3.0359 -0.6827  0.7523
 4014TIP3    H212007   6.603   1.254   2.529  1.4260  0.6235 -0.6837
 4015TIP3   OH212008   7.101   2.624   1.473  0.1255  0.1224  0.0722
 4015TIP3    H112009   7.111   2.715   1.499  0.7178  0.3050 -0.7528
 4015TIP3    H212010   7.188   2.585   1.484 -0.4137 -0.7160  1.7182
 4016TIP3   OH212011   1.158   4.966   4.144 -0.1544 -0.0893  0.0015
 4016TIP3    H112012   1.118   5.052   4.127 -0.4023 -0.6928 -2.8867
 4016TIP3    H212013   1.250   4.978   4.121 -0.6920 -1.1972 -3.1086
 4017TIP3   OH212014   7.154   4.295   5.917  0.1142 -0.2007 -0.0534
 4017TIP3    H112015   7.183   4.210   5.884 -0.9186  0.0555 -1.7490
 4017TIP3    H212016   7.147   4.350   5.839 -1.2360  0.8314  0.7489
 4018TIP3   OH212017   1.837   6.041   1.576  0.1830  0.6369  0.1024
 4018TIP3    H112018   1.908   6.010   1.633 -1.6406 -1.0294  1.6493
 4018TIP3    H212019   1.866   6.127   1.545  1.7631  1.1850  2.7744
 4019TIP3   OH212020   3.243   1.263   0.663  0.3676 -0.3659  0.2098
 4019TIP3    H112021   3.189   1.315   0.604  0.5312  0.6918  0.9664
 4019TIP3    H212022   3.265   1.322   0.735  1.9415 -0.9750  0.2787
 4020TIP3   OH212023   3.667   0.298   0.803  0.0172  0.5107 -0.3004
 4020TIP3    H112024   3.579   0.324   0.831 -0.3205 -1.1432  0.2647
 4020TIP3    H212025   3.726   0.348   0.860 -0.6269 -0.5059  1.3332
 4021TIP3   OH212026   3.235   4.167   5.422  0.2405 -0.0841  0.0916
 4021TIP3    H112027   3.297   4.146   5.492  1.0897  0.1113 -0.5829
 4021TIP3    H212028   3.206   4.257   5.441 -1.9073 -1.0653  1.8883
 4022TIP3   OH212029   0.084   6.761   2.864 -0.1986 -0.0830 -0.0264
 4022TIP3    H112030   0.077   6.841   2.915 -0.0556  1.1201 -1.8152
 4022TIP3    H212031   0.074   6.789   2.773  2.1761 -1.7391 -0.9147
 4023TIP3   OH212032   3.165   2.973   0.601  0.1455 -0.1230  0.0496
 4023TIP3    H112033   3.227   3.026   0.652 -0.9215  0.4033  0.8362
 4023TIP3    H212034   3.219   2.933   0.533  1.2706  0.6963  0.4184
 4024TIP3   OH212035   5.095   3.493   4.926  0.7080  0.1749 -0.3024
 4024TIP3    H112036   5.044   3.514   5.004 -0.4571  1.1429 -1.2664
 4024TIP3    H212037   5.060   3.408   4.896  0.5791  0.2011 -0.2244
 4025TIP3   OH212038   6.853   1.256   5.228  0.4078 -0.0612 -0.6747
 4025TIP3    H112039   6.916   1.213   5.287  0.7015  1.1194 -0.0824
 4025TIP3    H212040   6.901   1.267   5.146  0.3992 -0.6505 -0.7658
 4026TIP3   OH212041   5.838   2.868   1.657 -0.3725  0.0837 -0.6147
 4026TIP3    H112042   5.873   2.931   1.594 -0.0978  0.3063 -0.2441
 4026TIP3    H212043   5.757   2.907   1.688  0.3899  0.8460  0.5099
 4027TIP3   OH212044   5.483   2.113   0.887 -0.4635 -0.2659  0.3632
 4027TIP3    H112045   5.533   2.173   0.943 -0.3133 -0.8421  0.8632
 4027TIP3    H212046   5.543   2.091   0.816 -0.0902 -0.7312  0.8089
 4028TIP3   OH212047   4.461   4.977   5.511  0.5291  0.0491 -0.1218
 4028TIP3    H112048   4.392   5.042   5.522 -2.3053 -2.5170 -1.4732
 4028TIP3    H212049   4.458   4.925   5.592  0.0362 -0.7824 -0.6647
 4029TIP3   OH212050   6.527   1.590   0.090  0.2098  0.5557 -0.4623
 4029TIP3    H112051   6.536   1.683   0.113 -2.1200  0.9555 -0.8931
 4029TIP3    H212052   6.485   1.551   0.167  0.5281 -0.0002 -0.5699
 4030TIP3   OH212053   6.716   2.689   5.389 -0.5267 -0.4378  0.4111
 4030TIP3    H112054   6.647   2.751   5.365  0.0804  0.4956  0.9939
 4030TIP3    H212055   6.774   2.686   5.314 -0.8105 -0.6649  0.2003
 4031TIP3   OH212056   2.518   0.486   0.186 -0.0847 -0.4458 -0.1924
 4031TIP3    H112057   2.485   0.573   0.164  0.8021 -0.7032 -2.8343
 4031TIP3    H212058   2.603   0.503   0.227  0.0402 -0.0589 -0.6024
 4032TIP3   OH212059   5.267   2.915   5.663 -0.5473 -0.4076  0.0360
 4032TIP3    H112060   5.221   2.954   5.738  0.2429 -0.1130  0.3808
 4032TIP3    H212061   5.356   2.899   5.696  0.7748  2.5763 -1.6939
 4033TIP3   OH212062   6.169   2.792   4.169  0.0742  0.0405 -0.5242
 4033TIP3    H112063   6.094   2.776   4.227 -0.0066  0.1377 -0.6016
 4033TIP3    H212064   6.177   2.888   4.166  0.3171  0.0251 -0.3667
 4034TIP3   OH212065   1.057   3.471   4.146 -0.0221 -0.5781 -0.0420
 4034TIP3    H112066   1.148   3.469   4.118 -0.0475  0.7519 -0.2949
 4034TIP3    H212067   1.046   3.391   4.199  1.5585 -0.2415  0.8606
 4035TIP3   OH212068   4.988   6.610   5.496 -0.2318  0.1294  0.6684
 4035TIP3    H112069   5.025   6.688   5.454  0.8487 -1.3324 -1.2060
 4035TIP3    H212070   4.985   6.633   5.589 -0.2184  2.5048  0.1376
 4036TIP3   OH212071   3.032   5.444   0.639  0.3098 -0.1234 -0.1864
 4036TIP3    H112072   3.114   5.443   0.687 -0.5529 -1.6861  1.3944
 4036TIP3    H212073   2.967   5.474   0.703 -0.7363 -1.3633 -0.6253
 4037TIP3   OH212074   0.385   1.922   3.244  0.1329  0.3453 -0.2592
 4037TIP3    H112075   0.476   1.948   3.260  0.9886 -1.7003 -1.4038
 4037TIP3    H212076   0.361   1.870   3.321 -0.2485  1.2336  0.2396
 4038TIP3   OH212077   5.442   3.533   5.030 -0.2343 -0.2224  0.0028
 4038TIP3    H112078   5.433   3.628   5.039  0.2464 -0.1814  0.0623
 4038TIP3    H212079   5.356   3.504   4.998 -0.1730  0.3159 -0.6849
 4039TIP3   OH212080   0.069   2.350   1.356  0.1094  0.1657  0.0471
 4039TIP3    H112081  -0.026   2.363   1.344  0.2973 -0.6531 -3.6916
 4039TIP3    H212082   0.078   2.257   1.378  0.0479 -0.5370 -2.5216
 4040TIP3   OH212083   4.150   0.822   2.629 -0.5418 -0.2188  0.0211
 4040TIP3    H112084   4.112   0.849   2.713 -0.5175  0.2445 -0.1142
 4040TIP3    H212085   4.109   0.737   2.610 -1.2395  0.1024  0.0557
 4041TIP3   OH212086   4.735   2.682   0.077  0.4252 -0.4740 -0.2297
 4041TIP3    H112087   4.671   2.611   0.067  0.3813 -0.4120 -0.4057
 4041TIP3    H212088   4.706   2.729   0.155  0.6169 -0.8159  0.0464
 4042TIP3   OH212089   4.622   5.573   1.001 -0.0081 -0.3406  0.0910
 4042TIP3    H112090   4.698   5.591   0.945 -0.5227  0.1494 -0.4541
 4042TIP3    H212091   4.557   5.536   0.941 -0.0907 -1.0492  0.6155
 4043TIP3   OH212092   1.085   3.134   0.685  0.1981 -0.0768  0.2446
 4043TIP3    H112093   1.016   3.152   0.621 -1.1326 -1.4721  1.2245
 4043TIP3    H212094   1.084   3.209   0.744 -2.0924 -1.0745  1.5833
 4044TIP3   OH212095   6.685   0.070   5.295  0.2664  0.1360  0.0317
 4044TIP3    H112096   6.657   0.135   5.360 -0.1219 -1.3516  1.4159
 4044TIP3    H212097   6.777   0.092   5.279 -0.2223  1.8837 -0.6321
 4045TIP3   OH212098   6.515   2.496   0.405 -0.1751  0.2875 -0.1725
 4045TIP3    H112099   6.556   2.446   0.475  0.6896 -0.8742 -1.4505
 4045TIP3    H212100   6.576   2.489   0.331 -2.3036 -0.8902 -1.9245
 4046TIP3   OH212101   3.555   5.010   4.823 -0.8821  0.3112 -0.0688
 4046TIP3    H112102   3.478   4.968   4.860 -1.2123  0.2770 -0.7789
 4046TIP3    H212103   3.608   4.938   4.789 -1.0023  0.3955 -0.4449
 4047TIP3   OH212104   1.501   6.132   3.027 -0.2001 -0.3919 -0.1132
 4047TIP3    H112105   1.508   6.085   3.110 -0.1096 -0.4892 -0.1761
 4047TIP3    H212106   1.408   6.155   3.020 -0.0155  0.6194  0.5631
 4048TIP3   OH212107   4.874   3.260   0.784  0.1721 -0.1335 -0.2962
 4048TIP3    H112108   4.837   3.178   0.817 -0.9140  0.6728  0.5926
 4048TIP3    H212109   4.955   3.234   0.740  0.7141 -1.4941  1.3904
 4049TIP3   OH212110   4.493   4.319   4.627  0.0306  0.1741 -0.5004
 4049TIP3    H112111   4.403   4.351   4.618  0.5319  1.3874 -1.5281
 4049TIP3    H212112   4.509   4.320   4.721 -1.5856 -1.7569 -0.1290
 4050TIP3   OH212113   3.042   2.788   2.366  0.2844 -0.4751 -0.2880
 4050TIP3    H112114   2.947   2.780   2.378  0.2059 -0.6121 -0.9567
 4050TIP3    H212115   3.069   2.702   2.333  0.3699  0.1071 -1.7758
 4051TIP3   OH212116   3.906   4.934   0.970  0.2543 -0.0673  0.2607
 4051TIP3    H112117   3.971   4.864   0.981 -1.6799 -1.5970  4.1675
 4051TIP3    H212118   3.839   4.914   1.036 -3.1031  2.6195 -1.9875
 4052TIP3   OH212119   0.985   0.365   1.560  0.7430 -0.0707 -0.4400
 4052TIP3    H112120   0.990   0.305   1.486 -0.6166 -1.5047  0.5712
 4052TIP3    H212121   1.005   0.312   1.637 -3.9804 -0.3551  0.9349
 4053TIP3   OH212122   7.150   4.044   0.080  0.1905  0.0683 -0.0625
 4053TIP3    H112123   7.114   4.132   0.084 -3.1759 -1.1468 -0.0217
 4053TIP3    H212124   7.135   4.008   0.168  0.9942 -0.7246 -0.2312
 4054TIP3   OH212125   5.226   0.146   2.128 -0.3885  0.3919 -0.6980
 4054TIP3    H112126   5.303   0.199   2.150 -0.7402  1.6853 -2.3482
 4054TIP3    H212127   5.233   0.069   2.184  1.0895  1.3612  0.5513
 4055TIP3   OH212128   0.597   0.084   1.676 -0.4028  0.4185 -0.0094
 4055TIP3    H112129   0.551   0.000   1.671 -2.2912  1.3825  0.0181
 4055TIP3    H212130   0.643   0.081   1.760 -1.2511 -0.2191  0.4509
 4056TIP3   OH212131   3.684   0.695   0.811  0.3012 -0.1669  0.1373
 4056TIP3    H112132   3.712   0.693   0.902 -0.9320 -0.0319  0.5314
 4056TIP3    H212133   3.764   0.715   0.762  0.6796  1.3605  1.3154
 4057TIP3   OH212134   1.166   6.136   1.160 -0.5023 -0.0255 -0.1194
 4057TIP3    H112135   1.250   6.159   1.200 -0.3186  1.6205 -1.3829
 4057TIP3    H212136   1.116   6.097   1.232  1.7490 -2.2605  0.3817
 4058TIP3   OH212137   4.950   2.406   4.071  0.2690  0.0712  0.3114
 4058TIP3    H112138   4.904   2.435   4.151 -1.5409 -1.2290 -0.1943
 4058TIP3    H212139   4.918   2.465   4.003  2.0352  1.3680  0.5461
 4059TIP3   OH212140   1.592   0.648   0.190 -0.2441  0.3916  0.4119
 4059TIP3    H112141   1.549   0.713   0.245  0.2614  2.0497 -1.0435
 4059TIP3    H212142   1.521   0.594   0.156 -0.8280  0.9827  0.6708
 4060TIP3   OH212143   0.014   1.919   4.863  0.7565 -0.3300 -0.4364
 4060TIP3    H112144   0.011   2.014   4.859 -1.9790 -0.3627 -0.9537
 4060TIP3    H212145   0.073   1.894   4.792  1.1103  0.9479 -0.6182
 4061TIP3   OH212146   1.003   4.411   1.360 -0.4913  0.0816 -0.5562
 4061TIP3    H112147   1.043   4.487   1.403 -1.5033  0.0458  0.5228
 4061TIP3    H212148   0.920   4.445   1.325 -1.4894 -0.7193  0.9049
 4062TIP3   OH212149   0.130   0.121   2.436  0.5914  0.1246 -0.1030
 4062TIP3    H112150   0.164   0.148   2.351  1.8974  0.2527  0.4368
 4062TIP3    H212151   0.059   0.060   2.416  1.1450 -0.1577 -1.2715
 4063TIP3   OH212152   5.083   6.590   0.967  0.6364  0.5564  0.1767
 4063TIP3    H112153   5.031   6.654   0.920  0.4650 -0.5195 -1.1727
 4063TIP3    H212154   5.027   6.561   1.039  0.6078  1.6792  0.6176
 4064TIP3   OH212155   3.475   1.614   1.115 -0.0713 -0.6744  0.9624
 4064TIP3    H112156   3.428   1.531   1.127  1.2519 -1.4541  0.9317
 4064TIP3    H212157   3.458   1.637   1.024 -0.9031 -0.6022  1.1224
 4065TIP3   OH212158   0.504   0.330   3.079  0.1220  0.6767 -0.9378
 4065TIP3    H112159   0.479   0.332   2.987 -1.5598 -0.3810 -0.5556
 4065TIP3    H212160   0.582   0.275   3.082 -0.1276  0.2768 -1.6629
 4066TIP3   OH212161   4.866   4.114   2.122  0.2185  0.6918 -0.1607
 4066TIP3    H112162   4.822   4.086   2.203  0.7349  0.3310  0.0034
 4066TIP3    H212163   4.959   4.099   2.139  0.1806 -2.9711 -2.1075
 4067TIP3   OH212164   1.942   6.357   5.134 -0.2263  0.1075 -0.6363
 4067TIP3    H112165   1.888   6.435   5.152 -0.2827 -0.0941  0.0910
 4067TIP3    H212166   1.903   6.288   5.187  0.9598  0.0431  0.1895
 4068TIP3   OH212167   6.106   6.146   4.217 -0.1881  0.5639  0.1586
 4068TIP3    H112168   6.126   6.087   4.143 -0.2039 -1.9679  2.0332
 4068TIP3    H212169   6.012   6.139   4.228  0.1747 -2.3877  2.8098
 4069TIP3   OH212170   4.346   5.850   3.370  0.1490 -0.8709 -0.5864
 4069TIP3    H112171   4.390   5.791   3.309 -1.2050  0.1694 -2.6917
 4069TIP3    H212172   4.404   5.854   3.446  3.0181 -0.5995 -2.6480
 4070TIP3   OH212173   5.909   4.075   0.724 -0.1195  0.0406 -0.3329
 4070TIP3    H112174   5.886   4.168   0.723  3.1013  1.0507  1.9997
 4070TIP3    H212175   5.880   4.043   0.809 -0.8502 -1.0244 -0.9577
 4071TIP3   OH212176   1.035   5.216   5.658  0.1952 -0.2529 -0.6336
 4071TIP3    H112177   1.130   5.212   5.647  0.2265 -1.5414  0.0316
 4071TIP3    H212178   1.022   5.259   5.742  0.3073 -2.7969  0.7752
 4072TIP3   OH212179   6.072   3.971   2.368  0.2835  0.2092  0.1260
 4072TIP3    H112180   6.016   4.046   2.350  0.3654  0.5651  1.2687
 4072TIP3    H212181   6.061   3.954   2.461  1.8086  0.0804  0.3226
 4073TIP3   OH212182   5.909   1.374   5.819 -0.3729 -0.0745  0.3179
 4073TIP3    H112183   5.948   1.324   5.747  1.5243  0.3366  1.0066
 4073TIP3    H212184   5.837   1.422   5.778 -0.1036 -0.7689 -1.0500
 4074TIP3   OH212185   4.275   4.875   4.736 -1.1055  0.2386  0.0234
 4074TIP3    H112186   4.180   4.869   4.727 -1.2126  0.7777  0.6930
 4074TIP3    H212187   4.290   4.880   4.830 -0.4606  0.8510 -0.1020
 4075TIP3   OH212188   6.669   5.272   5.114 -0.1678  0.3801 -0.3685
 4075TIP3    H112189   6.610   5.221   5.170  0.4562  0.0556  0.0127
 4075TIP3    H212190   6.637   5.361   5.121 -0.0077  0.3752  0.6627
 4076TIP3   OH212191   1.000   2.148   2.705 -0.0515  0.4696  0.0058
 4076TIP3    H112192   1.055   2.197   2.644  0.9709 -1.1468 -0.4332
 4076TIP3    H212193   0.965   2.076   2.652 -0.6809  0.1265  0.8738
 4077TIP3   OH212194   1.405   3.298   4.423  0.2453 -0.0983  0.1020
 4077TIP3    H112195   1.440   3.376   4.467  0.9207  0.0761 -0.7324
 4077TIP3    H212196   1.398   3.233   4.493 -2.3709  1.3008  1.2925
 4078TIP3   OH212197   5.885   1.861   5.840  0.5238 -0.5930 -0.2732
 4078TIP3    H112198   5.848   1.810   5.912  0.8879 -0.4071  0.0467
 4078TIP3    H212199   5.856   1.951   5.857  0.7230 -0.5271 -0.2862
 4079TIP3   OH212200   3.115   2.977   2.158 -0.6511  0.0604 -0.5942
 4079TIP3    H112201   3.072   2.932   2.085  0.2711 -0.4885 -0.8104
 4079TIP3    H212202   3.080   2.935   2.236 -0.9829  0.0554 -0.7410
 4080TIP3   OH212203   3.734   2.265   1.228  0.2886  0.0174 -0.1762
 4080TIP3    H112204   3.770   2.185   1.264  0.0751 -0.9056 -1.8823
 4080TIP3    H212205   3.668   2.293   1.291 -0.6872 -1.9905 -0.2356
 4081TIP3   OH212206   1.689   4.583   2.267  0.2562 -0.1535  0.0208
 4081TIP3    H112207   1.738   4.664   2.254 -0.5134  0.2797 -0.2373
 4081TIP3    H212208   1.712   4.528   2.192  0.9771 -0.2886  0.3288
 4082TIP3   OH212209   1.482   2.367   2.170 -0.3196 -0.0582  0.3514
 4082TIP3    H112210   1.395   2.401   2.190 -1.8378 -2.5520 -1.3708
 4082TIP3    H212211   1.511   2.418   2.094  0.7892  2.2606  2.2275
 4083TIP3   OH212212   6.512   1.403   0.865 -0.9130 -0.6823 -0.3617
 4083TIP3    H112213   6.469   1.409   0.950 -1.4413 -0.2415 -0.6520
 4083TIP3    H212214   6.443   1.426   0.802 -0.3255 -0.2318 -0.8516
 4084TIP3   OH212215   0.885   4.713   3.992  0.1259  0.0239  0.4900
 4084TIP3    H112216   0.848   4.629   3.962  0.1368  0.3286 -0.3910
 4084TIP3    H212217   0.855   4.720   4.083 -0.5090 -0.5785  0.3407
 4085TIP3   OH212218   5.746   4.673   3.241 -0.4693 -0.1466  0.2183
 4085TIP3    H112219   5.737   4.748   3.299  0.7840 -0.9640  1.5232
 4085TIP3    H212220   5.702   4.601   3.287  0.4353 -0.7780  0.1212
 4086TIP3   OH212221   3.732   0.807   4.343 -0.0834  0.3051 -0.3492
 4086TIP3    H112222   3.743   0.725   4.391  0.9601 -0.2143 -1.4202
 4086TIP3    H212223   3.821   0.844   4.337 -0.4955  1.3755 -0.1407
 4087TIP3   OH212224   6.453   1.228   1.760  0.0081 -0.0516 -0.5405
 4087TIP3    H112225   6.522   1.208   1.697 -0.2855 -1.0444 -0.5734
 4087TIP3    H212226   6.403   1.146   1.768  0.5060 -0.2143  1.5646
 4088TIP3   OH212227   2.941   5.594   1.391  0.1673 -0.7756 -0.0535
 4088TIP3    H112228   2.914   5.531   1.458  0.5935 -1.1516 -0.2352
 4088TIP3    H212229   3.035   5.584   1.385  0.2960  0.1615  0.1899
 4089TIP3   OH212230   4.742   6.097   5.717  0.3454 -1.1370  0.7962
 4089TIP3    H112231   4.802   6.164   5.750 -0.7349  0.5976 -0.6524
 4089TIP3    H212232   4.702   6.135   5.639 -0.7999 -3.2272  0.2733
 4090TIP3   OH212233   1.574   3.344   1.908 -0.5007  0.2186 -0.4744
 4090TIP3    H112234   1.634   3.418   1.907  0.3026 -0.4229 -0.7186
 4090TIP3    H212235   1.534   3.347   1.995  0.4634  0.2045 -0.0168
 4091TIP3   OH212236   5.952   4.440   4.045 -0.2840  0.3474 -0.1675
 4091TIP3    H112237   6.031   4.458   3.995  0.7525 -2.0417  0.4552
 4091TIP3    H212238   5.954   4.346   4.059 -3.1033  0.2685  0.1707
 4092TIP3   OH212239   6.116   5.476   1.409 -0.1659  0.1835 -0.3991
 4092TIP3    H112240   6.125   5.536   1.484  0.3995  0.0934 -0.3887
 4092TIP3    H212241   6.132   5.389   1.446 -1.4414 -0.0326 -0.3247
 4093TIP3   OH212242   2.089   3.976   5.011  0.0852  0.2181  0.1617
 4093TIP3    H112243   2.149   3.940   4.945 -0.7332  2.9701 -2.3017
 4093TIP3    H212244   2.130   4.057   5.040 -0.8843  0.4437  0.9598
 4094TIP3   OH212245   3.069   4.538   0.106 -0.1404  0.2268 -0.6006
 4094TIP3    H112246   3.063   4.515   0.199  3.6297 -0.0187 -0.2690
 4094TIP3    H212247   3.054   4.632   0.104 -0.9932  0.1230  0.1308
 4095TIP3   OH212248   6.023   3.322   5.116  0.0252  0.3285 -0.3974
 4095TIP3    H112249   6.098   3.352   5.166  1.3129 -0.7789 -1.5541
 4095TIP3    H212250   6.015   3.229   5.137 -2.7520  0.9008  1.7428
 4096TIP3   OH212251   0.221   6.118   3.112 -0.2205 -0.0286 -0.1443
 4096TIP3    H112252   0.216   6.029   3.077 -0.8922 -0.0225 -0.0767
 4096TIP3    H212253   0.151   6.165   3.067  0.2768  0.5314 -0.3474
 4097TIP3   OH212254   1.222   0.405   4.499 -0.2350 -0.0296 -0.6736
 4097TIP3    H112255   1.153   0.339   4.491  0.8953 -1.2110 -0.8737
 4097TIP3    H212256   1.291   0.375   4.440  0.4285  1.1839 -0.5378
 4098TIP3   OH212257   3.858   4.079   5.053  0.4144  0.3580 -0.0236
 4098TIP3    H112258   3.871   4.004   4.995  0.3745  1.0386 -0.9265
 4098TIP3    H212259   3.946   4.099   5.085  0.4277 -0.0608  0.2104
 4099TIP3   OH212260   5.172   2.369   3.776  0.6022  0.0957 -0.5527
 4099TIP3    H112261   5.083   2.338   3.792  0.0303  0.7974 -2.0883
 4099TIP3    H212262   5.207   2.389   3.862 -0.5284 -0.7210  0.1195
 4100TIP3   OH212263   4.359   5.091   2.664 -0.0768 -0.0866  0.1017
 4100TIP3    H112264   4.378   5.049   2.580  0.6638 -1.1466  0.7595
 4100TIP3    H212265   4.429   5.156   2.675  0.0033 -0.1599  0.0267
 4101TIP3   OH212266   6.980   6.554   3.804 -0.4689  0.2637 -0.0833
 4101TIP3    H112267   7.000   6.525   3.893  0.2461  1.3872  0.1443
 4101TIP3    H212268   7.028   6.637   3.794  0.0044 -0.1751 -1.7480
 4102TIP3   OH212269   1.999   5.657   1.196 -0.3144 -0.3823  0.5976
 4102TIP3    H112270   1.983   5.637   1.104  0.2328  0.1342  0.3748
 4102TIP3    H212271   1.942   5.731   1.215 -2.3036 -2.0298  1.4063
 4103TIP3   OH212272   6.907   1.969   4.784  0.4013  0.0222 -0.2296
 4103TIP3    H112273   6.907   2.062   4.761  3.8480  0.1425 -0.2356
 4103TIP3    H212274   6.946   1.926   4.708  0.7680 -1.1495  0.5977
 4104TIP3   OH212275   0.982   6.083   2.336 -0.0821 -0.1704  0.2870
 4104TIP3    H112276   0.967   5.993   2.307  0.1823  0.5799 -2.3855
 4104TIP3    H212277   0.933   6.137   2.274  2.5880  1.6747 -0.3944
 4105TIP3   OH212278   2.908   6.769   0.685  0.1801 -0.4524  0.5208
 4105TIP3    H112279   2.814   6.757   0.682  0.4631 -4.1358  1.7374
 4105TIP3    H212280   2.937   6.756   0.595 -0.3773  0.0287  0.2629
 4106TIP3   OH212281   5.177   5.801   1.100  0.5017  0.3222  0.5400
 4106TIP3    H112282   5.240   5.803   1.172  1.9368 -0.8193 -0.6123
 4106TIP3    H212283   5.209   5.868   1.039  0.0780  0.3349  0.3261
 4107TIP3   OH212284   5.987   2.743   0.622 -0.0732  0.0126  0.0048
 4107TIP3    H112285   5.910   2.706   0.579 -0.7501  1.4863 -0.1034
 4107TIP3    H212286   6.055   2.743   0.554 -0.4612  0.2149 -0.3885
 4108TIP3   OH212287   1.806   0.318   1.519  0.2049  0.2705  0.1169
 4108TIP3    H112288   1.889   0.282   1.486  0.1084 -1.6829  1.8135
 4108TIP3    H212289   1.833   0.380   1.587  0.3086 -0.4239  0.7245
 4109TIP3   OH212290   0.484   0.818   3.223  0.2755  0.4958  0.5100
 4109TIP3    H112291   0.542   0.881   3.266  0.4630  1.5816 -1.2481
 4109TIP3    H212292   0.539   0.741   3.209  1.8006  1.9292 -2.2156
 4110TIP3   OH212293   4.478   1.070   4.108 -0.0744 -0.3672  0.4285
 4110TIP3    H112294   4.559   1.119   4.098 -0.5524  0.5147  0.7843
 4110TIP3    H212295   4.484   1.000   4.043  0.8446 -0.1488  0.2631
 4111TIP3   OH212296   5.120   2.324   0.948  0.0805 -0.4733  0.3783
 4111TIP3    H112297   5.122   2.409   0.904  1.7664 -1.2909 -1.2701
 4111TIP3    H212298   5.028   2.298   0.948 -0.2954  0.8179 -0.1591
 4112TIP3   OH212299   4.756   0.642   3.552 -0.5052  0.0729 -0.1339
 4112TIP3    H112300   4.773   0.732   3.526 -1.7842  0.6795  1.0555
 4112TIP3    H212301   4.843   0.606   3.572  0.2039  0.4736 -2.2422
 4113TIP3   OH212302   5.291   5.168   3.231 -0.1011  0.2214 -0.0289
 4113TIP3    H112303   5.195   5.162   3.234 -0.0101 -1.1459  2.3395
 4113TIP3    H212304   5.320   5.078   3.219  0.9306  0.7515 -1.8929
 4114TIP3   OH212305   0.804   5.204   3.662 -0.0993  0.3308  0.0434
 4114TIP3    H112306   0.880   5.167   3.707 -0.2409  0.6435  0.5467
 4114TIP3    H212307   0.754   5.248   3.731 -1.3704 -0.8889 -0.0434
 4115TIP3   OH212308   2.137   0.707   2.964 -0.1206  0.1093 -0.1326
 4115TIP3    H112309   2.157   0.788   3.011 -0.4562 -0.7718  1.6126
 4115TIP3    H212310   2.041   0.706   2.959 -0.2175 -0.9636  1.3832
 4116TIP3   OH212311   0.449   0.109   5.557 -0.8628  0.1382  0.3176
 4116TIP3    H112312   0.384   0.119   5.487 -0.1850 -0.6145 -0.4468
 4116TIP3    H212313   0.405   0.140   5.636 -2.3758 -0.9727 -0.0579
 4117TIP3   OH212314   4.998   2.248   2.635  0.2952 -0.8030 -0.7483
 4117TIP3    H112315   4.938   2.178   2.607 -0.7800 -0.6793  1.1141
 4117TIP3    H212316   5.063   2.204   2.690  1.2479 -0.7359 -1.7775
 4118TIP3   OH212317   1.133   1.592   1.208  0.7072  0.3515 -0.2162
 4118TIP3    H112318   1.192   1.534   1.160  1.0115 -0.2023  0.7984
 4118TIP3    H212319   1.047   1.550   1.200  0.9518 -0.3408  0.6400
 4119TIP3   OH212320   4.844   2.819   2.578 -0.0680  0.1729  0.2262
 4119TIP3    H112321   4.810   2.811   2.489  0.3199 -0.7434  0.1465
 4119TIP3    H212322   4.938   2.803   2.569 -0.1861 -1.0181  0.9372
 4120TIP3   OH212323   2.785   3.841   0.575  0.2183  0.0360  0.2915
 4120TIP3    H112324   2.777   3.784   0.499 -0.3672  0.4709  0.0138
 4120TIP3    H212325   2.874   3.877   0.568 -0.0062  0.4752 -0.4858
 4121TIP3   OH212326   5.303   3.524   2.419 -0.1467 -0.1368  0.7352
 4121TIP3    H112327   5.363   3.564   2.482  0.7655 -0.9391  0.4182
 4121TIP3    H212328   5.243   3.472   2.473  0.5043 -0.6583  0.9816
 4122TIP3   OH212329   2.042   2.634   0.167 -0.5174  0.3035  0.1883
 4122TIP3    H112330   2.052   2.638   0.072 -2.5156  0.1689 -0.0827
 4122TIP3    H212331   1.976   2.565   0.181  2.3568 -2.3594  1.9441
 4123TIP3   OH212332   7.236   3.978   4.813  0.0248 -0.0267 -0.4510
 4123TIP3    H112333   7.151   3.954   4.849  0.2935  0.2696  0.3877
 4123TIP3    H212334   7.215   4.019   4.729 -0.4660 -3.0023 -1.9113
 4124TIP3   OH212335   0.145   5.989   0.752 -0.3983  0.1058 -0.7690
 4124TIP3    H112336   0.234   5.996   0.715 -0.4110 -0.5444 -0.9403
 4124TIP3    H212337   0.154   6.022   0.841  0.4206 -1.5579 -0.1803
 4125TIP3   OH212338   1.000   6.323   5.662 -0.2518 -0.1922  0.3338
 4125TIP3    H112339   1.028   6.272   5.586  1.3892  1.2900 -0.1145
 4125TIP3    H212340   0.904   6.320   5.658 -0.2336 -2.7515  0.0462
 4126TIP3   OH212341   1.984   6.575   2.644  0.0131 -0.1554  0.0146
 4126TIP3    H112342   1.943   6.551   2.562  0.3785 -2.7650  0.5171
 4126TIP3    H212343   1.916   6.561   2.710 -0.6643  3.0445  0.1457
 4127TIP3   OH212344   5.654   4.973   1.430  0.2329 -0.1682  0.2031
 4127TIP3    H112345   5.678   5.057   1.468  4.9496 -0.2276 -1.9792
 4127TIP3    H212346   5.604   4.995   1.351 -1.5676  0.2788  1.3914
 4128TIP3   OH212347   6.629   0.375   0.954 -0.5535  0.3015 -0.4186
 4128TIP3    H112348   6.699   0.356   1.016 -1.8269 -1.2377  0.6103
 4128TIP3    H212349   6.666   0.442   0.896  1.3900  0.2689  0.7075
 4129TIP3   OH212350   6.773   5.413   0.893 -0.7461 -0.1282  0.2432
 4129TIP3    H112351   6.766   5.507   0.876 -1.5588 -0.4179 -1.1959
 4129TIP3    H212352   6.851   5.386   0.845  0.9957  0.1945  2.7095
 4130TIP3   OH212353   4.979   1.306   0.922 -0.0360 -0.4836 -0.4268
 4130TIP3    H112354   5.004   1.357   0.999 -1.6847 -2.7410  1.7364
 4130TIP3    H212355   5.057   1.307   0.866  1.9304 -0.4114  2.1692
 4131TIP3   OH212356   0.464   3.826   4.563 -0.1158  0.2879 -0.3681
 4131TIP3    H112357   0.557   3.823   4.586 -0.4224  2.5959  1.6289
 4131TIP3    H212358   0.420   3.847   4.645 -2.4153 -0.4867 -1.3168
 4132TIP3   OH212359   5.186   5.840   2.779 -0.0211  0.6480 -0.2404
 4132TIP3    H112360   5.185   5.879   2.692 -4.5671 -0.5789 -0.9812
 4132TIP3    H212361   5.112   5.880   2.824 -0.5948 -1.9992  1.4027
 4133TIP3   OH212362   6.325   2.168   4.116  0.3990  0.6931 -0.0851
 4133TIP3    H112363   6.323   2.076   4.089 -1.1025  1.2662 -2.2134
 4133TIP3    H212364   6.418   2.187   4.128  0.8623 -0.7156 -1.1404
 4134TIP3   OH212365   1.846   5.279   3.751  0.1340  0.4894 -0.3619
 4134TIP3    H112366   1.778   5.345   3.762 -0.8928 -0.1185 -2.6480
 4134TIP3    H212367   1.927   5.330   3.743 -0.6511  1.5184 -2.1816
 4135TIP3   OH212368   1.265   2.709   2.401  0.3217 -0.1704 -0.0200
 4135TIP3    H112369   1.313   2.734   2.322 -0.7177  0.1974 -0.5473
 4135TIP3    H212370   1.173   2.727   2.381  0.2680  3.9755  2.7092
 4136TIP3   OH212371   1.885   3.885   3.865 -0.1010 -0.0170  0.4282
 4136TIP3    H112372   1.933   3.803   3.858 -0.5735 -0.2554 -0.0469
 4136TIP3    H212373   1.806   3.862   3.913 -1.4639 -0.4059 -1.8490
 4137TIP3   OH212374   4.588   3.423   0.362 -0.0536 -0.4431 -0.6409
 4137TIP3    H112375   4.541   3.495   0.403  0.1021  0.4419 -1.9385
 4137TIP3    H212376   4.569   3.433   0.269  1.4344 -0.9879 -1.0356
 4138TIP3   OH212377   1.101   4.247   3.677  0.5394  0.1935  0.0507
 4138TIP3    H112378   1.171   4.276   3.618  0.5474 -1.4228 -0.7752
 4138TIP3    H212379   1.140   4.250   3.764  0.4346  2.9194  0.0886
 4139TIP3   OH212380   6.580   4.718   2.714 -0.3624  0.7082  0.4863
 4139TIP3    H112381   6.559   4.625   2.727 -0.6019  0.7716  0.5591
 4139TIP3    H212382   6.674   4.723   2.728  0.0157  0.1271 -1.5482
 4140TIP3   OH212383   7.091   4.520   5.223  0.1429  0.0599  0.0647
 4140TIP3    H112384   7.034   4.581   5.176 -1.5076 -0.6321  1.0557
 4140TIP3    H212385   7.108   4.450   5.159 -2.0071 -0.8302  0.3703
 4141TIP3   OH212386   4.685   6.154   5.266 -0.1988 -0.2414  0.2823
 4141TIP3    H112387   4.727   6.106   5.194 -1.2058 -2.7832  1.2690
 4141TIP3    H212388   4.727   6.240   5.265  1.4774 -0.9814 -1.8421
 4142TIP3   OH212389   3.647   5.255   5.330  0.5554 -0.1744 -0.2869
 4142TIP3    H112390   3.591   5.268   5.253 -0.5319  1.2105  0.6743
 4142TIP3    H212391   3.717   5.319   5.320 -0.4828  1.1727  0.6115
 4143TIP3   OH212392   2.399   4.657   5.885  0.9654  0.7790  0.5268
 4143TIP3    H112393   2.418   4.740   5.841  1.5929  0.1586 -0.4055
 4143TIP3    H212394   2.405   4.591   5.816  1.4986 -0.1670  1.4486
 4144TIP3   OH212395   2.414   3.241   1.411 -0.1948  0.1204  0.6929
 4144TIP3    H112396   2.421   3.330   1.377  2.2964  0.0488  0.8431
 4144TIP3    H212397   2.351   3.247   1.482 -0.9751  1.4951 -0.0842
 4145TIP3   OH212398   2.739   3.798   2.268 -0.6090 -0.2662  0.4839
 4145TIP3    H112399   2.778   3.876   2.306  1.2541 -0.8968 -0.0136
 4145TIP3    H212400   2.781   3.725   2.314 -0.2842 -0.9866 -0.8776
 4146TIP3   OH212401   7.007   0.021   5.814  0.4585 -0.5172  0.0836
 4146TIP3    H112402   7.012  -0.045   5.882 -1.2816 -2.3202 -1.4035
 4146TIP3    H212403   6.913   0.041   5.806  0.9003  2.0927  0.3783
 4147TIP3   OH212404   6.262   3.646   5.186 -0.3133 -0.2259  0.1864
 4147TIP3    H112405   6.184   3.638   5.131  0.2727 -0.9436 -0.5632
 4147TIP3    H212406   6.257   3.571   5.246  1.0569 -1.7709 -1.5271
 4148TIP3   OH212407   3.086   3.878   2.360 -0.8274 -0.3924  0.0708
 4148TIP3    H112408   3.048   3.874   2.447  2.6392 -0.4969  1.7349
 4148TIP3    H212409   3.100   3.971   2.344 -0.7749 -0.4237 -0.0725
 4149TIP3   OH212410   1.414   6.321   4.030 -0.5625  0.3962  0.5084
 4149TIP3    H112411   1.395   6.228   4.047 -0.0278  0.2250  0.2088
 4149TIP3    H212412   1.336   6.367   4.059 -0.9972 -0.1861  0.2882
 4150TIP3   OH212413   4.041   0.965   3.178 -0.0665  0.6690 -0.0522
 4150TIP3    H112414   3.966   0.911   3.154  0.4400 -0.4257  0.7278
 4150TIP3    H212415   4.104   0.903   3.214  0.9504  1.6617 -0.0863
 4151TIP3   OH212416   4.835   3.067   2.341  0.0068 -0.1127  0.1314
 4151TIP3    H112417   4.787   3.126   2.398 -1.6228 -2.3386  1.2306
 4151TIP3    H212418   4.926   3.075   2.370 -0.1551  1.7686  0.2461
 4152TIP3   OH212419   4.466   4.087   5.759 -0.1748  0.4279  0.3350
 4152TIP3    H112420   4.455   4.014   5.821  0.6968 -1.3555 -1.4715
 4152TIP3    H212421   4.524   4.148   5.804 -0.2385 -0.4069  1.6087
 4153TIP3   OH212422   0.686   5.806   1.522  0.4329 -0.0897  0.6518
 4153TIP3    H112423   0.640   5.879   1.564  0.3099  0.3118 -0.1565
 4153TIP3    H212424   0.629   5.780   1.450  0.7326 -0.6394  0.6080
 4154TIP3   OH212425   0.619   5.084   2.978 -0.8671  0.0816  0.4060
 4154TIP3    H112426   0.610   5.064   2.885 -0.6385 -0.5982  0.5295
 4154TIP3    H212427   0.543   5.043   3.019  0.3447 -1.8340  0.8529
 4155TIP3   OH212428   4.238   4.908   3.888  0.4951 -0.3117 -0.4471
 4155TIP3    H112429   4.244   4.898   3.793 -0.2594 -1.6050 -0.3821
 4155TIP3    H212430   4.238   4.819   3.922 -1.5597  0.0314  0.6029
 4156TIP3   OH212431   0.581   6.513   4.091  0.2568  0.4214 -0.2802
 4156TIP3    H112432   0.615   6.600   4.071  2.7936 -0.7471 -1.4765
 4156TIP3    H212433   0.635   6.481   4.163 -2.5466  0.8349  2.2092
 4157TIP3   OH212434   1.749   3.628   1.435 -0.0622  0.1294  0.1508
 4157TIP3    H112435   1.780   3.549   1.391 -0.9392 -1.4119  2.0941
 4157TIP3    H212436   1.658   3.637   1.407 -0.6780 -0.9571  1.6205
 4158TIP3   OH212437   2.304   0.544   2.813 -0.1712 -0.1285 -0.6836
 4158TIP3    H112438   2.317   0.615   2.750 -0.1004  0.0056 -0.5218
 4158TIP3    H212439   2.227   0.570   2.863 -0.4287 -0.4037 -0.9424
 4159TIP3   OH212440   2.776   3.312   0.203 -0.6898  0.6427 -0.2148
 4159TIP3    H112441   2.789   3.320   0.108 -1.7876  1.6053 -0.3000
 4159TIP3    H212442   2.756   3.401   0.232  0.0600  0.4412  1.0090
 4160TIP3   OH212443   0.257   6.032   1.256  0.7427 -0.1792  0.1783
 4160TIP3    H112444   0.294   6.065   1.338  1.2952  0.0423 -0.1618
 4160TIP3    H212445   0.295   5.944   1.246 -0.2517 -0.7037  0.7648
 4161TIP3   OH212446   5.032   6.034   5.425  0.2130 -0.2988  0.1226
 4161TIP3    H112447   4.997   5.964   5.479 -0.8208 -0.0350 -0.1845
 4161TIP3    H212448   4.990   6.113   5.459  1.5854  0.2318  0.6567
 4162TIP3   OH212449   1.455   5.827   5.184  0.6347  0.0665  0.1070
 4162TIP3    H112450   1.471   5.823   5.089 -1.7629 -1.1332 -0.3305
 4162TIP3    H212451   1.360   5.819   5.192  0.7784  0.2022  2.6367
 4163TIP3   OH212452   1.269   3.748   1.571  0.0627  0.2636 -0.6343
 4163TIP3    H112453   1.197   3.801   1.603  0.9089  0.9163  0.2604
 4163TIP3    H212454   1.228   3.684   1.513 -1.8133 -1.9197  2.7685
 4164TIP3   OH212455   7.170   3.994   5.618  0.8352 -0.4608  0.2268
 4164TIP3    H112456   7.177   4.027   5.528 -2.2758 -0.5198 -0.1289
 4164TIP3    H212457   7.139   3.904   5.608 -0.9968 -0.0017  1.3214
 4165TIP3   OH212458   1.683   3.141   3.549  0.7006 -0.9967  0.0015
 4165TIP3    H112459   1.760   3.195   3.533  0.2919 -0.6426 -0.8302
 4165TIP3    H212460   1.617   3.203   3.581  0.0879 -0.8833 -1.3824
 4166TIP3   OH212461   1.492   0.786   0.607 -0.3674 -0.0401 -0.3099
 4166TIP3    H112462   1.510   0.837   0.528  0.1932  1.4294  0.7360
 4166TIP3    H212463   1.533   0.836   0.678 -1.9369 -0.6680  1.0911
 4167TIP3   OH212464   4.646   1.156   3.130 -0.8855  0.1706  0.1785
 4167TIP3    H112465   4.572   1.200   3.089 -1.5718 -1.8829 -0.9355
 4167TIP3    H212466   4.719   1.218   3.120 -2.0823  1.6169  0.0021
 4168TIP3   OH212467   4.899   6.488   1.464 -0.5025  1.2494 -0.2386
 4168TIP3    H112468   4.978   6.444   1.434  0.1737  0.5483  2.2894
 4168TIP3    H212469   4.843   6.494   1.386  1.1227 -0.2372 -1.5973
 4169TIP3   OH212470   1.849   0.418   3.007  0.2345 -0.0898  0.3253
 4169TIP3    H112471   1.782   0.395   3.073  0.2624  0.1172  0.4267
 4169TIP3    H212472   1.826   0.365   2.931  0.4651 -0.6697  0.6528
 4170TIP3   OH212473   0.047   2.077   4.657 -0.4202 -0.4034 -0.0320
 4170TIP3    H112474   0.019   2.022   4.585 -0.6237  1.1455 -1.1997
 4170TIP3    H212475   0.091   2.151   4.615  1.0900 -0.3484  1.5346
 4171TIP3   OH212476   3.899   2.993   4.677  0.1937 -0.1174 -0.2089
 4171TIP3    H112477   3.919   2.953   4.762  3.4690  3.9513  1.2864
 4171TIP3    H212478   3.832   3.058   4.696 -0.5342 -0.5544 -1.2166
 4172TIP3   OH212479   4.067   5.892   3.378  0.5314  0.7706  0.3996
 4172TIP3    H112480   4.162   5.897   3.389  0.6574  0.2510 -0.4160
 4172TIP3    H212481   4.054   5.885   3.284 -0.3954  2.3265  0.3702
 4173TIP3   OH212482   2.925   4.880   4.867  0.0438 -0.2595  0.4307
 4173TIP3    H112483   2.941   4.826   4.790  0.0012  0.7084 -0.2832
 4173TIP3    H212484   2.835   4.859   4.893  0.3338 -1.1823  0.7112
 4174TIP3   OH212485   4.260   4.259   5.315  0.1890 -0.0252 -0.1075
 4174TIP3    H112486   4.198   4.331   5.305  1.3228  0.8610 -1.0537
 4174TIP3    H212487   4.321   4.269   5.242 -0.4020 -2.7577 -1.1101
 4175TIP3   OH212488   0.979   2.213   3.923  0.2174  0.0108 -0.2120
 4175TIP3    H112489   0.988   2.291   3.977 -2.2285 -0.2855  0.7490
 4175TIP3    H212490   1.058   2.162   3.939  1.2217  1.6501  0.1800
 4176TIP3   OH212491   4.746   3.899   3.642  0.0784  0.5945  0.8659
 4176TIP3    H112492   4.740   3.827   3.580 -0.6616  1.1891  0.2222
 4176TIP3    H212493   4.824   3.880   3.694  0.6874  0.0536 -0.2064
 4177TIP3   OH212494   6.444   1.745   1.197 -0.2126 -0.0571  0.5905
 4177TIP3    H112495   6.369   1.802   1.179 -0.7425 -0.3772  1.6949
 4177TIP3    H212496   6.494   1.793   1.264  0.4444  0.0329  0.0506
 4178TIP3   OH212497   5.187   0.106   1.815 -0.6505  0.2118 -1.1678
 4178TIP3    H112498   5.174   0.012   1.822  0.0418  0.1284 -0.9528
 4178TIP3    H212499   5.248   0.127   1.886 -0.8504  0.8281 -1.1749
 4179TIP3   OH212500   2.667   5.419   5.203 -0.1430 -0.1169 -0.1524
 4179TIP3    H112501   2.726   5.458   5.267 -1.9708 -0.4021  1.8326
 4179TIP3    H212502   2.702   5.331   5.188  1.5089  0.6608 -1.3038
 4180TIP3   OH212503   6.810   6.491   1.154  0.0012 -0.1277  0.2666
 4180TIP3    H112504   6.754   6.483   1.232 -1.1863  0.9189 -0.4511
 4180TIP3    H212505   6.783   6.573   1.113  2.5471  0.7713  0.2345
 4181TIP3   OH212506   0.726   4.341   4.943  0.2379  0.2390  0.0188
 4181TIP3    H112507   0.634   4.368   4.947  0.7437  1.9383  1.7329
 4181TIP3    H212508   0.768   4.391   5.013  1.9261 -2.7972  1.3319
 4182TIP3   OH212509   3.380   5.367   1.868 -0.2277  0.3678  0.2311
 4182TIP3    H112510   3.322   5.443   1.871 -2.2311 -1.1021  1.4318
 4182TIP3    H212511   3.443   5.383   1.938 -0.4327  1.0592  0.2675
 4183TIP3   OH212512   4.612   0.139   5.183 -0.2655 -0.1804  0.4232
 4183TIP3    H112513   4.569   0.104   5.105 -2.2692  2.7854  0.0291
 4183TIP3    H212514   4.547   0.130   5.252  0.6428 -0.6998  1.2372
 4184TIP3   OH212515   4.935   0.588   0.562  0.2709  0.2477 -0.3577
 4184TIP3    H112516   4.928   0.533   0.484  1.4655  1.1821 -1.1723
 4184TIP3    H212517   5.029   0.606   0.570 -0.0894  2.6133 -0.4946
 4185TIP3   OH212518   4.043   2.277   2.828 -0.0107 -0.4345 -0.2281
 4185TIP3    H112519   4.016   2.324   2.906 -0.4475 -0.8498 -0.1228
 4185TIP3    H212520   4.085   2.343   2.773  2.1157 -0.5287  1.1946
 4186TIP3   OH212521   1.484   0.842   2.746  0.0159  0.1779  0.4403
 4186TIP3    H112522   1.426   0.779   2.789  0.0419  0.7242  1.3124
 4186TIP3    H212523   1.438   0.926   2.756  1.1312  0.6818  1.4962
 4187TIP3   OH212524   4.514   4.411   3.106  0.0446  0.2784 -0.0818
 4187TIP3    H112525   4.458   4.488   3.099 -1.3561 -0.8071 -1.1251
 4187TIP3    H212526   4.488   4.355   3.034  2.0781 -0.5512 -0.2425
 4188TIP3   OH212527   2.616   2.006   1.777  0.3786 -0.1767  0.0257
 4188TIP3    H112528   2.606   2.022   1.683 -0.8118  0.6497  0.2700
 4188TIP3    H212529   2.678   1.934   1.783  0.2537 -0.4231 -1.4101
 4189TIP3   OH212530   6.943   0.298   5.558 -0.4279 -0.2954 -0.0806
 4189TIP3    H112531   6.860   0.280   5.601 -0.3710  1.6540  0.9872
 4189TIP3    H212532   7.008   0.291   5.628 -0.1256  1.3377 -0.1444
 4190TIP3   OH212533   5.619   1.493   4.316  0.4642 -0.4932  0.4694
 4190TIP3    H112534   5.558   1.552   4.273 -0.6842 -2.0460 -0.1066
 4190TIP3    H212535   5.571   1.460   4.392  2.0439  1.3056  2.3958
 4191TIP3   OH212536   6.495   4.211   0.337  0.2433 -0.3879 -0.0795
 4191TIP3    H112537   6.450   4.281   0.383 -1.3109  0.0264 -2.0830
 4191TIP3    H212538   6.426   4.151   0.309  1.3207 -1.6202 -0.2526
 4192TIP3   OH212539   1.029   4.807   3.005  0.6063 -0.1306 -0.8972
 4192TIP3    H112540   1.087   4.802   2.929  0.9523  0.9224 -0.7267
 4192TIP3    H212541   0.984   4.891   2.995 -0.5024 -0.6938 -0.7478
 4193TIP3   OH212542   0.795   1.550   4.981  0.4223 -0.8541 -0.5363
 4193TIP3    H112543   0.719   1.596   4.947 -0.2265 -2.0311 -0.7472
 4193TIP3    H212544   0.784   1.460   4.950  0.7630 -1.5500  1.2363
 4194TIP3   OH212545   0.139   2.182   4.958  0.4452  0.3235 -0.7440
 4194TIP3    H112546   0.166   2.235   4.882  1.6336 -1.8202 -1.9190
 4194TIP3    H212547   0.192   2.102   4.951 -1.7971 -1.3800  0.4609
 4195TIP3   OH212548   7.124   5.870   2.425  0.7067 -0.0042  0.4477
 4195TIP3    H112549   7.107   5.899   2.336  4.5048  0.3564 -0.3123
 4195TIP3    H212550   7.158   5.781   2.415 -3.3740 -2.0370  2.1134
 4196TIP3   OH212551   0.722   1.368   4.013 -0.1269 -0.3395  0.3815
 4196TIP3    H112552   0.697   1.277   3.994 -0.1432 -0.1988 -0.2857
 4196TIP3    H212553   0.818   1.366   4.017  0.0903  0.1310 -2.5630
 4197TIP3   OH212554   1.737  -0.004   5.713  0.6980  0.0251 -0.0155
 4197TIP3    H112555   1.695   0.039   5.638  1.6267 -0.4404 -0.8245
 4197TIP3    H212556   1.668  -0.008   5.780 -0.2477  0.1599 -0.9498
 4198TIP3   OH212557   4.971   6.777   0.462 -0.1510 -0.5721  0.0283
 4198TIP3    H112558   5.003   6.863   0.489  0.6636 -1.0409  0.6040
 4198TIP3    H212559   5.049   6.729   0.436 -0.4440 -1.5080  0.7820
 4199TIP3   OH212560   0.697   6.059   2.114  0.1193 -0.3036 -0.3909
 4199TIP3    H112561   0.631   6.062   2.183  0.4365 -1.8585  0.0153
 4199TIP3    H212562   0.737   6.146   2.116 -2.1438  0.8493 -0.9284
 4200TIP3   OH212563   6.991   0.783   5.410 -0.1421 -0.2345 -0.0436
 4200TIP3    H112564   6.918   0.824   5.456 -1.0758 -1.3063 -0.5248
 4200TIP3    H212565   6.963   0.693   5.396  1.1648 -0.5904 -0.4902
 4201TIP3   OH212566   0.936   0.803   1.841 -0.0379 -0.0743 -0.0540
 4201TIP3    H112567   0.901   0.714   1.845  0.9826 -0.4941 -0.1511
 4201TIP3    H212568   0.887   0.851   1.908 -1.3651 -0.4193 -0.7418
 4202TIP3   OH212569   1.819   2.173   0.849 -0.1418  0.0895 -0.3123
 4202TIP3    H112570   1.732   2.213   0.850 -0.5552 -0.7799  1.2847
 4202TIP3    H212571   1.842   2.162   0.941  0.5704 -1.9438 -0.6687
 4203TIP3   OH212572   4.733   5.073   0.907  0.0832 -0.0618  0.1333
 4203TIP3    H112573   4.715   5.010   0.837 -0.6813 -0.1500  0.4035
 4203TIP3    H212574   4.732   5.022   0.987  0.1879  0.1663  0.2816
 4204TIP3   OH212575   7.200   6.049   3.740  0.4296  0.2810  0.2254
 4204TIP3    H112576   7.119   6.022   3.698  0.5257 -1.4495  1.0801
 4204TIP3    H212577   7.174   6.118   3.802 -0.5359 -0.8111  1.0674
 4205TIP3   OH212578   5.628   0.796   4.447 -0.0773 -0.0949 -0.0663
 4205TIP3    H112579   5.561   0.852   4.407  0.5024  0.7524  0.1354
 4205TIP3    H212580   5.711   0.831   4.415  0.2928 -1.0071 -0.1402
 4206TIP3   OH212581   4.093   5.202   4.690  0.0646 -0.7628 -0.3020
 4206TIP3    H112582   4.059   5.282   4.730 -0.0151 -1.8277  1.9157
 4206TIP3    H212583   4.170   5.230   4.642 -0.0931  0.6856  0.2286
 4207TIP3   OH212584   1.013   2.742   2.186 -0.0515 -0.2049  0.9082
 4207TIP3    H112585   1.023   2.730   2.092  0.4643 -0.2255  0.9641
 4207TIP3    H212586   1.070   2.816   2.207 -0.8150  0.3563  1.0685
 4208TIP3   OH212587   0.694   1.975   3.537 -0.2845 -0.6395 -0.3076
 4208TIP3    H112588   0.786   1.950   3.548 -0.1940 -1.0447 -1.7950
 4208TIP3    H212589   0.649   1.893   3.520 -0.6863 -0.2873 -0.9712
 4209TIP3   OH212590   5.579   2.691   1.375 -0.1209 -0.0943 -0.6788
 4209TIP3    H112591   5.543   2.669   1.461 -1.1882  1.2035 -0.7674
 4209TIP3    H212592   5.667   2.723   1.393 -0.0894 -0.4725 -0.1457
 4210TIP3   OH212593   6.019   3.844   2.607  0.0924 -0.3506 -0.1055
 4210TIP3    H112594   6.084   3.774   2.612 -0.3910 -0.7727  0.4085
 4210TIP3    H212595   6.038   3.899   2.684 -0.9862 -1.2258  0.8286
 4211TIP3   OH212596   5.619   6.528   1.872  0.1357 -0.6721  0.0547
 4211TIP3    H112597   5.557   6.514   1.801 -0.0531 -1.3467  0.3475
 4211TIP3    H212598   5.690   6.580   1.833  0.3263 -1.5423 -0.7775
 4212TIP3   OH212599   5.493   1.660   1.388 -0.0660  0.2197  0.2068
 4212TIP3    H112600   5.419   1.721   1.395 -0.2590 -0.0539  0.5815
 4212TIP3    H212601   5.460   1.589   1.333 -0.0904  0.0838  0.3971
 4213TIP3   OH212602   3.042   3.923   3.688 -0.0492 -0.3140  0.3345
 4213TIP3    H112603   3.061   3.991   3.624  0.4124 -0.6580  0.0984
 4213TIP3    H212604   3.128   3.900   3.725 -0.0785 -1.3692 -0.2124
 4214TIP3   OH212605   2.403   5.657   4.956  0.2992  0.2415 -1.0494
 4214TIP3    H112606   2.425   5.736   4.907 -1.4204  1.7859  0.5252
 4214TIP3    H212607   2.421   5.679   5.047  0.5524 -1.4852 -0.6503
 4215TIP3   OH212608   4.552   4.493   3.649  0.4611  0.0586  0.5130
 4215TIP3    H112609   4.634   4.445   3.662 -0.3132 -1.1309  1.0969
 4215TIP3    H212610   4.542   4.497   3.554  0.6856 -0.6888  0.4506
 4216TIP3   OH212611   1.317   6.752   5.312  0.6183 -0.2307 -0.3672
 4216TIP3    H112612   1.334   6.779   5.402 -0.4290  0.5866 -0.4010
 4216TIP3    H212613   1.368   6.813   5.258  1.6483 -1.0371 -0.3272
 4217TIP3   OH212614   1.496   4.887   2.213 -0.3608 -0.0330  0.0910
 4217TIP3    H112615   1.578   4.892   2.261  0.4480  0.3939 -1.2855
 4217TIP3    H212616   1.443   4.958   2.249  0.2173  0.2659  0.3686
 4218TIP3   OH212617   2.832   0.256   2.711  0.5098  0.5425 -0.2178
 4218TIP3    H112618   2.924   0.270   2.733  0.2347  1.7939  0.2163
 4218TIP3    H212619   2.833   0.207   2.629  1.5698  1.3003 -0.6721
 4219TIP3   OH212620   1.709   5.047   4.796 -0.3247 -0.0359  0.5485
 4219TIP3    H112621   1.623   5.082   4.817  0.5445  2.0205  0.8834
 4219TIP3    H212622   1.695   4.953   4.786 -2.5739  0.2480  0.6630
 4220TIP3   OH212623   6.192   3.562   1.849 -0.8068 -0.1436 -0.2557
 4220TIP3    H112624   6.248   3.639   1.857  0.7938 -1.2247 -0.8092
 4220TIP3    H212625   6.231   3.497   1.907 -2.2481 -0.5197  0.3587
 4221TIP3   OH212626   2.291   2.916   0.352  0.6425  0.1395 -0.1854
 4221TIP3    H112627   2.368   2.954   0.395 -0.6695  1.1536  1.3559
 4221TIP3    H212628   2.251   2.990   0.305  0.2096 -0.2278 -0.4037
 4222TIP3   OH212629   6.273   3.444   0.498  0.8083 -0.1521 -0.1399
 4222TIP3    H112630   6.303   3.442   0.407 -0.3373  0.6141 -0.5531
 4222TIP3    H212631   6.250   3.353   0.518  3.1110 -0.7274  0.1208
 4223TIP3   OH212632   0.211   2.290   4.530  0.5052  0.3601 -0.2303
 4223TIP3    H112633   0.187   2.329   4.445  0.2319 -0.2420 -0.4363
 4223TIP3    H212634   0.272   2.220   4.507 -0.1700 -0.3148 -0.0063
 4224TIP3   OH212635   5.488   5.044   3.547  0.1549 -0.4137 -0.1975
 4224TIP3    H112636   5.485   4.948   3.553 -0.5196 -0.4025 -0.2616
 4224TIP3    H212637   5.577   5.063   3.517  0.9351 -0.9094  1.6311
 4225TIP3   OH212638   0.797   4.267   5.858  0.0340 -0.0384  0.3592
 4225TIP3    H112639   0.755   4.353   5.858  0.4960  0.1887  0.6274
 4225TIP3    H212640   0.731   4.208   5.895  0.1884  0.4352  1.4190
 4226TIP3   OH212641   4.495   2.166   1.788 -0.5980 -0.4634 -0.7819
 4226TIP3    H112642   4.539   2.198   1.867 -0.0632  1.2848 -1.7346
 4226TIP3    H212643   4.505   2.071   1.792  0.7355 -0.3090  0.4993
 4227TIP3   OH212644   3.499   6.053   1.589 -0.1122  0.6553  0.0358
 4227TIP3    H112645   3.545   5.972   1.569 -0.8591 -0.0119  0.9050
 4227TIP3    H212646   3.548   6.091   1.662 -1.2990 -0.4276  1.4531
 4228TIP3   OH212647   0.084   5.781   5.809  0.2810  0.1371 -0.1270
 4228TIP3    H112648  -0.004   5.781   5.847  1.3152  0.1834  2.4622
 4228TIP3    H212649   0.089   5.699   5.761 -0.2243 -1.3037  2.1629
 4229TIP3   OH212650   0.931   4.872   1.345  0.2402 -0.8462 -0.1809
 4229TIP3    H112651   0.876   4.950   1.334  1.2912 -0.2695 -1.7959
 4229TIP3    H212652   0.894   4.827   1.420 -2.5887 -0.6270 -1.3028
 4230TIP3   OH212653   5.180   5.748   3.245 -0.2989 -0.5087 -0.1670
 4230TIP3    H112654   5.185   5.656   3.271  0.1754  0.2566  2.9139
 4230TIP3    H212655   5.266   5.768   3.208 -0.3179 -1.2328 -0.6124
 4231TIP3   OH212656   1.601   1.415   5.450 -0.2306  0.1155  0.1836
 4231TIP3    H112657   1.649   1.459   5.520 -2.0864  0.4875  1.3025
 4231TIP3    H212658   1.534   1.363   5.495 -1.5705  0.4755 -1.2795
 4232TIP3   OH212659   1.317   3.790   0.558 -0.2107 -0.1873 -0.3324
 4232TIP3    H112660   1.324   3.842   0.638 -1.6495  0.8185 -0.8135
 4232TIP3    H212661   1.302   3.854   0.489 -1.9028 -1.2035 -0.9768
 4233TIP3   OH212662   2.492   6.529   2.904  0.0014 -0.4335  0.1136
 4233TIP3    H112663   2.550   6.459   2.935  0.7043  0.2447  0.3769
 4233TIP3    H212664   2.537   6.609   2.930 -0.3616  0.1244 -0.9648
 4234TIP3   OH212665   7.076   5.743   2.749 -0.3832  0.3419  0.5505
 4234TIP3    H112666   7.155   5.718   2.701 -0.7167  0.3373 -0.0109
 4234TIP3    H212667   7.005   5.698   2.703 -0.6374 -0.2368  1.4941
 4235TIP3   OH212668   6.560   6.442   1.377  0.0873  0.0885  0.0915
 4235TIP3    H112669   6.491   6.408   1.434 -1.2073  0.7919 -0.9932
 4235TIP3    H212670   6.523   6.438   1.289  0.2660  3.1483 -0.2403
 4236TIP3   OH212671   6.117   5.753   4.522  0.3104  0.0061 -0.5059
 4236TIP3    H112672   6.037   5.700   4.531  0.5480 -0.5381 -1.4689
 4236TIP3    H212673   6.085   5.844   4.525 -0.2641 -0.1994 -0.1873
 4237TIP3   OH212674   2.882   2.960   1.333  0.1327 -0.3721  0.5656
 4237TIP3    H112675   2.904   2.959   1.239  1.1054 -0.5120  0.7790
 4237TIP3    H212676   2.802   3.012   1.339 -0.7620 -1.5518 -0.5064
 4238TIP3   OH212677   3.689   6.534   5.711 -0.2555  0.0473  0.1029
 4238TIP3    H112678   3.661   6.467   5.649 -0.2684 -0.4877  0.6736
 4238TIP3    H212679   3.749   6.488   5.770  0.6243  0.8079 -0.1679
 4239TIP3   OH212680   2.966   6.387   4.176  0.3101 -0.3040 -0.1494
 4239TIP3    H112681   2.955   6.295   4.150  0.5235  0.2356 -2.3714
 4239TIP3    H212682   3.051   6.411   4.140  0.5620  0.5888  1.0180
 4240TIP3   OH212683   7.095   0.313   1.041 -0.6340  0.1801 -1.0580
 4240TIP3    H112684   7.075   0.404   1.065  0.3268 -0.4714  2.8282
 4240TIP3    H212685   7.010   0.271   1.032 -1.0840  0.7704  0.2942
 4241TIP3   OH212686   7.029   4.955   2.812 -0.2277 -0.0901 -0.2046
 4241TIP3    H112687   6.971   4.968   2.887  1.7421 -0.6827  1.4939
 4241TIP3    H212688   7.011   4.865   2.783  0.7772 -0.7713  1.1991
 4242TIP3   OH212689   4.760   4.021   5.521  0.1668 -0.3327 -0.1995
 4242TIP3    H112690   4.803   4.100   5.552  2.3841 -0.8188 -1.7603
 4242TIP3    H212691   4.678   4.052   5.482  0.9232  1.2008 -0.6633
 4243TIP3   OH212692   3.715   6.028   3.849  0.0113 -0.0667  0.3809
 4243TIP3    H112693   3.776   6.102   3.841  0.7568 -0.7368 -0.3821
 4243TIP3    H212694   3.771   5.955   3.878 -0.0802 -1.0937 -1.8283
 4244TIP3   OH212695   6.161   2.408   4.564 -0.0488 -0.5835 -0.0197
 4244TIP3    H112696   6.073   2.429   4.532  0.2774  2.4443  0.6985
 4244TIP3    H212697   6.194   2.342   4.503 -2.5300 -1.2516 -0.7499
 4245TIP3   OH212698   3.814   5.715   0.540 -0.0331 -0.4877 -0.4960
 4245TIP3    H112699   3.888   5.674   0.585 -1.5561 -2.3596  0.4612
 4245TIP3    H212700   3.800   5.660   0.463 -1.3680 -1.0912  0.1601
 4246TIP3   OH212701   3.690   2.426   5.369  0.3985 -0.2219 -0.3910
 4246TIP3    H112702   3.600   2.415   5.398  0.5550  0.3181  0.3239
 4246TIP3    H212703   3.683   2.449   5.276 -0.0572 -2.9703 -1.1291
 4247TIP3   OH212704   2.497   5.780   4.605 -0.4243  0.4416  0.6873
 4247TIP3    H112705   2.410   5.739   4.607 -0.3642  0.3247  1.0584
 4247TIP3    H212706   2.497   5.838   4.682 -0.9008  1.9540 -0.4166
 4248TIP3   OH212707   6.621   3.604   2.532 -0.4155 -0.1074  0.3634
 4248TIP3    H112708   6.527   3.587   2.530 -0.6674  1.2455 -0.2740
 4248TIP3    H212709   6.632   3.673   2.596  0.5649 -2.2946  2.7255
 4249TIP3   OH212710   6.881   4.828   2.499  0.0975 -0.3012  0.0051
 4249TIP3    H112711   6.875   4.803   2.591 -2.6486 -2.3127 -0.5935
 4249TIP3    H212712   6.954   4.776   2.464 -1.8084 -3.2705  0.1089
 4250TIP3   OH212713   0.873   4.908   5.223  0.2342 -0.4157 -0.1937
 4250TIP3    H112714   0.884   4.977   5.157  0.5963  0.2469  0.5345
 4250TIP3    H212715   0.952   4.915   5.277  1.7159 -3.2825 -1.7467
 4251TIP3   OH212716   4.192   6.037   2.585  0.3771  0.5436 -0.4442
 4251TIP3    H112717   4.283   6.005   2.586  1.8491  4.2200 -1.1409
 4251TIP3    H212718   4.164   6.027   2.495  0.8418  1.2004 -0.6683
 4252TIP3   OH212719   4.485   3.281   2.326 -0.3400 -0.5062  0.3610
 4252TIP3    H112720   4.499   3.204   2.272 -0.4602 -1.3639  1.4980
 4252TIP3    H212721   4.393   3.303   2.314 -0.8034 -1.7102  1.4457
 4253TIP3   OH212722   7.140   5.277   1.535 -0.3430 -0.5403 -0.6270
 4253TIP3    H112723   7.181   5.219   1.471  1.8784 -1.4090  1.3950
 4253TIP3    H212724   7.133   5.223   1.614 -0.6903  1.1753  0.5622
 4254TIP3   OH212725   3.157   1.652   0.832  0.7991  0.6602  0.3681
 4254TIP3    H112726   3.082   1.604   0.799  0.2961  2.2767 -0.9805
 4254TIP3    H212727   3.120   1.719   0.889  1.2571  1.1159  0.1391
 4255TIP3   OH212728   7.200   2.518   2.684  0.7003 -0.2249 -0.1168
 4255TIP3    H112729   7.223   2.583   2.750 -0.2386 -1.6871  1.7505
 4255TIP3    H212730   7.174   2.569   2.608  0.1030  1.5947  1.2336
 4256TIP3   OH212731   5.359   3.387   5.682  0.1174 -0.3926 -0.0441
 4256TIP3    H112732   5.413   3.308   5.692 -0.1361 -0.6899 -0.9326
 4256TIP3    H212733   5.307   3.391   5.762 -2.3102 -3.0438 -1.2717
 4257TIP3   OH212734   1.167   5.767   3.587 -0.0025 -0.0526  0.2635
 4257TIP3    H112735   1.181   5.837   3.523 -0.6248 -0.2691 -0.1152
 4257TIP3    H212736   1.250   5.721   3.590  0.4959  0.8356  0.6853
 4258TIP3   OH212737   6.923   0.422   5.108  0.4282  0.5175  0.4888
 4258TIP3    H112738   6.876   0.504   5.125  1.4388  2.3303 -3.9819
 4258TIP3    H212739   6.855   0.359   5.087 -0.2792  1.4642 -0.1618
 4259TIP3   OH212740   2.684   3.222   1.666 -0.1276 -0.1417 -0.5864
 4259TIP3    H112741   2.777   3.206   1.651 -0.1319  0.0786 -0.8481
 4259TIP3    H212742   2.674   3.316   1.657 -0.5444 -0.2638 -1.5235
 4260TIP3   OH212743   5.267   6.672   1.380 -0.0098  0.5073 -0.8231
 4260TIP3    H112744   5.343   6.687   1.324  1.1513 -0.1638  0.4879
 4260TIP3    H212745   5.252   6.756   1.423  2.5492 -0.2321  1.8459
 4261TIP3   OH212746   0.837   3.435   4.302 -0.3040  0.4343 -0.5014
 4261TIP3    H112747   0.900   3.449   4.373  1.4775 -2.7918 -1.2326
 4261TIP3    H212748   0.880   3.470   4.224  1.8005 -3.5154 -1.3808
 4262TIP3   OH212749   6.453   6.068   0.441 -0.1437  0.0432 -0.4517
 4262TIP3    H112750   6.418   5.986   0.406  0.4341  0.1617 -1.3313
 4262TIP3    H212751   6.535   6.044   0.483 -1.1600 -0.2156  1.5217
 4263TIP3   OH212752   3.600   0.830   5.020 -0.5939  0.0410 -0.2859
 4263TIP3    H112753   3.577   0.760   5.081  2.5968 -0.8556  0.0694
 4263TIP3    H212754   3.533   0.897   5.035 -2.7774 -2.1694  0.5770
 4264TIP3   OH212755   4.164   2.738   4.395  0.3621 -0.2955 -0.3371
 4264TIP3    H112756   4.210   2.808   4.441 -3.0044  1.4955  0.5708
 4264TIP3    H212757   4.175   2.759   4.302  1.6232 -0.1287 -0.1666
 4265TIP3   OH212758   3.835   4.149   1.806 -0.2002 -0.4906  0.2648
 4265TIP3    H112759   3.846   4.225   1.749  0.7489  1.1000  2.4431
 4265TIP3    H212760   3.904   4.089   1.780  1.5286  1.0909  1.0151
 4266TIP3   OH212761   2.466   5.273   4.196  0.1291  0.9746  0.3265
 4266TIP3    H112762   2.541   5.265   4.137  0.5418  0.0582  0.9526
 4266TIP3    H212763   2.473   5.361   4.233  1.0009  0.8285  0.5187
 4267TIP3   OH212764   5.290   2.386   0.432  0.2326  0.3545 -0.2623
 4267TIP3    H112765   5.200   2.395   0.399 -0.7046  1.4480  2.3212
 4267TIP3    H212766   5.340   2.355   0.357 -1.7852  2.2113 -2.5387
 4268TIP3   OH212767   4.393   4.014   2.623  0.3181 -0.4358 -0.0379
 4268TIP3    H112768   4.463   3.952   2.601 -1.2011 -0.9657 -4.1665
 4268TIP3    H212769   4.412   4.091   2.570 -0.9258  0.3770  0.6487
 4269TIP3   OH212770   1.671   3.847   5.141  0.2272  0.0784  0.2289
 4269TIP3    H112771   1.694   3.778   5.079  1.9032  0.5787  0.2664
 4269TIP3    H212772   1.668   3.803   5.226 -1.2830 -0.4408 -0.0539
 4270TIP3   OH212773   0.355   5.667   2.087  0.1056 -0.2017 -0.6880
 4270TIP3    H112774   0.447   5.668   2.116  0.7637 -1.4656 -2.5417
 4270TIP3    H212775   0.314   5.739   2.134  1.9046  0.0286  0.6420
 4271TIP3   OH212776   5.590   5.704   5.032 -0.3000  0.5417 -0.4944
 4271TIP3    H112777   5.651   5.647   4.986 -0.9291  0.9862 -1.9421
 4271TIP3    H212778   5.646   5.760   5.087  0.7226  1.4830 -2.3769
 4272TIP3   OH212779   1.391   1.782   0.934 -1.1746  0.0009 -0.4367
 4272TIP3    H112780   1.382   1.758   1.026 -1.2490 -2.3350 -0.9943
 4272TIP3    H212781   1.485   1.771   0.916 -1.3939 -1.1418 -0.9964
 4273TIP3   OH212782   0.869   5.736   5.594 -0.1036 -0.2396  0.0799
 4273TIP3    H112783   0.882   5.825   5.627  0.4915 -0.2436 -0.1259
 4273TIP3    H212784   0.777   5.717   5.612 -0.0187  0.0889  0.9312
 4274TIP3   OH212785   5.003   0.493   4.638  0.2662  0.6614  0.3861
 4274TIP3    H112786   5.053   0.515   4.717 -0.3862 -1.5015  1.4800
 4274TIP3    H212787   4.912   0.494   4.666  0.0422 -0.4247 -0.2364
 4275TIP3   OH212788   6.234   5.898   1.102  0.2555 -0.3354 -0.0414
 4275TIP3    H112789   6.181   5.820   1.116 -1.6474  0.8633 -0.1391
 4275TIP3    H212790   6.320   5.875   1.136 -0.5337 -2.1053  0.9174
 4276TIP3   OH212791   7.081   0.949   5.666 -0.3571 -0.4664 -0.2119
 4276TIP3    H112792   7.096   0.855   5.671  0.0479 -0.4115 -0.3293
 4276TIP3    H212793   7.154   0.987   5.715 -1.2825 -0.2598  1.0459
 4277TIP3   OH212794   3.360   3.866   5.335 -0.2789  0.0405 -0.0820
 4277TIP3    H112795   3.408   3.943   5.305  1.4773 -1.1914 -0.5825
 4277TIP3    H212796   3.372   3.802   5.265 -3.0869 -0.2079 -0.4463
 4278TIP3   OH212797   3.780   5.380   2.208 -0.1244 -0.1571 -0.5873
 4278TIP3    H112798   3.762   5.352   2.298 -0.7748 -0.1033 -0.6959
 4278TIP3    H212799   3.875   5.371   2.199 -0.2773 -2.5913 -0.6702
 4279TIP3   OH212800   1.541   6.538   1.460  0.2831  0.5684 -0.1372
 4279TIP3    H112801   1.514   6.579   1.379  1.5858  2.0202  0.1147
 4279TIP3    H212802   1.543   6.609   1.524  0.2106 -0.3615  0.9334
 4280TIP3   OH212803   4.322   2.548   2.804  0.3521  0.4170  0.4567
 4280TIP3    H112804   4.334   2.586   2.891 -0.3686  1.1839  0.2303
 4280TIP3    H212805   4.228   2.551   2.789  0.0817 -2.5678  0.9032
 4281TIP3   OH212806   6.654   2.180   1.250 -0.4733  0.3956 -0.2118
 4281TIP3    H112807   6.588   2.202   1.315 -1.1579 -0.0688 -0.7296
 4281TIP3    H212808   6.662   2.259   1.196 -1.1230  0.2373 -0.5625
 4282TIP3   OH212809   5.505   0.128   1.119 -0.3386 -0.3466 -0.0703
 4282TIP3    H112810   5.454   0.097   1.044  0.5541 -1.4320 -0.2618
 4282TIP3    H212811   5.589   0.083   1.111 -0.2318 -0.5267  1.5923
 4283TIP3   OH212812   0.182   6.682   4.760 -0.2643 -0.1396  0.1567
 4283TIP3    H112813   0.243   6.756   4.757 -1.2559  0.6930 -2.4076
 4283TIP3    H212814   0.096   6.723   4.774 -0.4754 -1.2139  2.7094
 4284TIP3   OH212815   3.253   3.139   1.552  0.4632  0.4979  0.2536
 4284TIP3    H112816   3.346   3.121   1.569  0.6102  0.7613 -0.2582
 4284TIP3    H212817   3.232   3.213   1.609  0.4805  0.2287  0.6114
 4285TIP3   OH212818   6.147   1.100   2.471 -0.1173  0.8055  0.3465
 4285TIP3    H112819   6.130   1.157   2.545 -1.2967 -1.8010  2.2640
 4285TIP3    H212820   6.110   1.015   2.497  2.6593 -1.2308 -1.7117
 4286TIP3   OH212821   5.167   5.206   0.736  0.1262  0.0606 -0.6058
 4286TIP3    H112822   5.101   5.275   0.729 -0.3254 -0.2999  0.0000
 4286TIP3    H212823   5.118   5.125   0.723  0.5295 -0.1863 -0.6046
 4287TIP3   OH212824   3.235   5.143   5.563 -0.4780 -0.0008 -0.3757
 4287TIP3    H112825   3.274   5.216   5.514  0.6426  2.1370  3.3586
 4287TIP3    H212826   3.275   5.065   5.524 -0.4561  1.3876 -3.4423
 4288TIP3   OH212827   6.507   6.226   3.281 -0.2379 -0.4104  0.1629
 4288TIP3    H112828   6.533   6.166   3.351  1.8326 -0.2849 -0.4372
 4288TIP3    H212829   6.460   6.297   3.326 -0.4124 -1.1471  1.1890
 4289TIP3   OH212830   7.207   4.407   5.676  0.5073  0.4924  0.5820
 4289TIP3    H112831   7.145   4.337   5.655  2.0277 -0.7469  0.0814
 4289TIP3    H212832   7.200   4.468   5.603  0.4013 -0.0138  0.1640
 4290TIP3   OH212833   5.334   2.164   1.187 -0.2115 -0.2718  0.4967
 4290TIP3    H112834   5.317   2.091   1.126 -1.1582  1.6357 -1.6846
 4290TIP3    H212835   5.420   2.144   1.224  0.3598 -1.6238 -1.3835
 4291TIP3   OH212836   7.060   3.557   5.124 -0.1919 -0.4698 -0.1908
 4291TIP3    H112837   7.012   3.624   5.075  0.5352 -1.2917 -2.1137
 4291TIP3    H212838   7.011   3.477   5.111 -0.0156 -0.6939  0.4922
 4292TIP3   OH212839   2.737   6.351   5.717  0.3813  0.1326 -0.6292
 4292TIP3    H112840   2.831   6.353   5.732  0.6067 -0.1069 -1.8771
 4292TIP3    H212841   2.719   6.262   5.686 -0.2158  0.2352 -0.5915
 4293TIP3   OH212842   4.850   1.848   4.885  1.2380 -0.3433  0.4505
 4293TIP3    H112843   4.912   1.920   4.902  0.4339  0.1256  1.4902
 4293TIP3    H212844   4.765   1.891   4.875  0.5786 -1.2045  2.0444
 4294TIP3   OH212845   6.333   0.799   5.666 -0.2863  0.3004  0.0313
 4294TIP3    H112846   6.354   0.875   5.720 -2.0424  0.9843 -0.1800
 4294TIP3    H212847   6.389   0.807   5.589  0.1246  0.9277  0.3869
 4295TIP3   OH212848   0.197   2.887   3.988  0.7099 -0.1524 -0.5710
 4295TIP3    H112849   0.231   2.826   4.053 -0.1185 -0.0635 -0.0302
 4295TIP3    H212850   0.173   2.965   4.039  1.0168  0.3239 -1.1376
 4296TIP3   OH212851   1.997   6.234   2.521 -0.5929 -0.2240 -0.6897
 4296TIP3    H112852   2.032   6.315   2.486  0.0530 -0.1965 -0.0144
 4296TIP3    H212853   1.957   6.259   2.605 -0.6931 -0.5424 -0.6372
 4297TIP3   OH212854   5.656   1.671   0.349  0.1161 -0.0983 -0.0207
 4297TIP3    H112855   5.721   1.655   0.281 -0.7519  1.3501 -1.2318
 4297TIP3    H212856   5.572   1.664   0.305 -0.4539  1.4210  0.7647
 4298TIP3   OH212857   0.069   0.586   0.239 -0.0270 -0.0878 -0.1022
 4298TIP3    H112858   0.132   0.637   0.290  0.8760 -0.5501 -0.7447
 4298TIP3    H212859   0.023   0.533   0.305  0.5483 -0.0651  0.3263
 4299TIP3   OH212860   3.939   3.811   5.004  0.2454  0.0817  0.1345
 4299TIP3    H112861   3.870   3.770   5.055 -0.1510 -1.2739 -1.4196
 4299TIP3    H212862   3.944   3.759   4.924  0.3362  2.5372 -1.5585
 4300TIP3   OH212863   2.954   5.102   5.683 -0.2430  0.3148  0.7954
 4300TIP3    H112864   3.047   5.106   5.660 -0.6663  1.1550 -0.9581
 4300TIP3    H212865   2.938   5.182   5.733 -0.3954  1.1052 -0.4915
 4301TIP3   OH212866   4.753   5.949   4.690  0.4448 -0.3395  0.2216
 4301TIP3    H112867   4.731   5.878   4.629  0.5906 -0.4306  0.2757
 4301TIP3    H212868   4.671   5.996   4.702 -0.0984 -1.5450  1.5746
 4302TIP3   OH212869   4.040   3.827   1.137  0.0910  0.0351  0.3120
 4302TIP3    H112870   3.968   3.835   1.075 -0.3270  0.9622  0.9100
 4302TIP3    H212871   4.014   3.756   1.195  0.0888 -0.2445 -0.0230
 4303TIP3   OH212872   0.544   5.661   4.998 -0.0807  0.0190 -0.0280
 4303TIP3    H112873   0.609   5.648   5.067  0.4557  3.0101  0.1513
 4303TIP3    H212874   0.590   5.712   4.930 -1.1822 -1.0979 -1.6897
 4304TIP3   OH212875   6.262   1.614   4.735  0.2898  0.2154  0.0986
 4304TIP3    H112876   6.285   1.545   4.798  0.9809  1.0513  0.7815
 4304TIP3    H212877   6.168   1.630   4.750 -0.1468 -1.3065 -0.8103
 4305TIP3   OH212878   4.194   6.596   3.496 -0.0310  0.2246  0.0150
 4305TIP3    H112879   4.286   6.569   3.496 -0.3392 -0.9321 -0.9535
 4305TIP3    H212880   4.153   6.544   3.564 -0.4746 -1.3111 -1.3541
 4306TIP3   OH212881   3.556   3.732   2.760  0.1803  0.2986  0.2325
 4306TIP3    H112882   3.566   3.652   2.708 -0.3117  1.6416 -2.0639
 4306TIP3    H212883   3.464   3.732   2.786 -0.3036  0.9452 -1.3300
 4307TIP3   OH212884   6.396   6.137   0.022 -0.1012 -0.0795 -0.2712
 4307TIP3    H112885   6.436   6.182   0.097  0.4015 -0.7702 -0.1140
 4307TIP3    H212886   6.470   6.109  -0.031 -0.3048 -1.8761  0.3103
 4308TIP3   OH212887   7.092   4.407   0.477  0.1765 -0.1674 -0.1171
 4308TIP3    H112888   7.158   4.359   0.426  0.5926 -1.3404  1.4337
 4308TIP3    H212889   7.128   4.411   0.565 -1.9187 -1.0780  0.8586
 4309TIP3   OH212890   3.164   3.103   0.913 -0.3667 -0.2575 -0.3082
 4309TIP3    H112891   3.089   3.044   0.904 -0.9974  0.5563 -0.4993
 4309TIP3    H212892   3.232   3.049   0.954 -0.7806 -1.2308 -0.8682
 4310TIP3   OH212893   5.358   1.397   3.812 -0.0145 -0.8290  0.0422
 4310TIP3    H112894   5.451   1.381   3.793 -0.3893 -1.3906 -1.4183
 4310TIP3    H212895   5.350   1.377   3.905  1.8415  1.7490  0.8764
 4311TIP3   OH212896   0.422   4.714   3.584 -0.0821 -0.5073  0.3031
 4311TIP3    H112897   0.387   4.636   3.542  0.3958 -0.5622  0.0059
 4311TIP3    H212898   0.496   4.740   3.530 -1.0897  0.9917 -0.4462
 4312TIP3   OH212899   0.922   2.443   4.675  0.2890 -0.1973 -0.0509
 4312TIP3    H112900   1.013   2.421   4.655 -0.4001 -0.5777 -3.3191
 4312TIP3    H212901   0.881   2.359   4.695  0.1884 -0.3517 -0.8691
 4313TIP3   OH212902   1.826   2.018   3.258 -0.2300 -0.3293 -0.1177
 4313TIP3    H112903   1.755   2.068   3.298 -0.1264 -0.7607  0.6036
 4313TIP3    H212904   1.819   1.931   3.296  1.8735  0.1295  1.4807
 4314TIP3   OH212905   1.047   0.595   4.287  0.4219  0.4844 -0.8686
 4314TIP3    H112906   1.061   0.540   4.210 -0.4820 -0.0067 -0.7063
 4314TIP3    H212907   1.133   0.604   4.327  0.3669 -2.2304  0.0368
 4315TIP3   OH212908   2.994   5.953   4.606 -0.5882  0.6266 -0.3254
 4315TIP3    H112909   2.980   6.011   4.680  1.8773 -0.0925  0.8229
 4315TIP3    H212910   2.969   6.005   4.529 -2.0200  1.8213  0.9000
 4316TIP3   OH212911   5.372   0.079   3.857  1.0291  0.3644  0.4880
 4316TIP3    H112912   5.305   0.111   3.917  1.0483  1.5433 -0.0946
 4316TIP3    H212913   5.447   0.137   3.870  0.3635  1.9426 -2.0328
 4317TIP3   OH212914   3.625   0.674   3.795  0.0956  0.5878  0.4757
 4317TIP3    H112915   3.588   0.596   3.754  0.4746  0.6941 -0.0937
 4317TIP3    H212916   3.663   0.644   3.876  1.1889 -0.0213 -0.2485
 4318TIP3   OH212917   6.044   6.709   3.717  0.3896  0.1119 -0.6992
 4318TIP3    H112918   5.957   6.694   3.680 -0.1080  3.0270 -0.9676
 4318TIP3    H212919   6.097   6.741   3.644  1.1666  0.0766 -0.1711
 4319TIP3   OH212920   5.267   1.030   3.494  0.1677 -0.1582 -0.3884
 4319TIP3    H112921   5.191   1.032   3.435  0.5659  2.3943 -0.9370
 4319TIP3    H212922   5.273   1.120   3.527  2.6444 -0.4351  0.0586
 4320TIP3   OH212923   6.467   5.056   4.473  0.1573  0.2696 -0.1631
 4320TIP3    H112924   6.387   5.011   4.500 -1.0288  1.3907 -1.6484
 4320TIP3    H212925   6.455   5.071   4.379 -0.0220  4.5656  0.3485
 4321TIP3   OH212926   5.739   0.814   4.100 -0.2263  0.1336 -0.4354
 4321TIP3    H112927   5.704   0.740   4.051 -1.5752  0.1054  0.5132
 4321TIP3    H212928   5.676   0.885   4.086 -0.1625  0.3897  0.5051
 4322TIP3   OH212929   6.461   6.631   1.566  0.5868 -0.0965 -0.3935
 4322TIP3    H112930   6.437   6.612   1.475  0.4844 -1.0282 -0.1803
 4322TIP3    H212931   6.441   6.724   1.577  1.0372  0.1488 -1.4607
 4323TIP3   OH212932   1.220   3.247   1.363 -0.0540  0.2673 -0.4098
 4323TIP3    H112933   1.254   3.159   1.380  0.9411  0.1560 -2.6063
 4323TIP3    H212934   1.235   3.295   1.445  0.9734 -1.1280  0.2606
 4324TIP3   OH212935   3.017   2.384   0.596 -0.2828 -0.3270 -0.7000
 4324TIP3    H112936   3.041   2.459   0.542 -2.7870 -1.1205 -3.1621
 4324TIP3    H212937   2.999   2.421   0.682  0.1468  1.6414 -1.4045
 4325TIP3   OH212938   4.050   2.066   3.381  0.5497  0.4637  0.2926
 4325TIP3    H112939   4.142   2.040   3.383  0.3210 -0.4497 -0.2434
 4325TIP3    H212940   4.022   2.064   3.473  1.0858  0.8573  0.4682
 4326TIP3   OH212941   1.678   4.417   0.895  0.4245  0.5168 -0.7915
 4326TIP3    H112942   1.601   4.362   0.903 -0.5442  1.9224  0.0547
 4326TIP3    H212943   1.740   4.384   0.961 -0.5215  0.9959  0.3745
 4327TIP3   OH212944   4.261   3.326   2.610  0.5570 -0.1651 -0.8833
 4327TIP3    H112945   4.228   3.275   2.536 -2.0622 -0.6802  0.5113
 4327TIP3    H212946   4.250   3.268   2.685  0.5473  1.3134  0.2997
 4328TIP3   OH212947   7.032   6.363   3.236 -0.1856 -0.1466 -0.6685
 4328TIP3    H112948   6.951   6.317   3.257 -0.2442  0.0680 -0.4289
 4328TIP3    H212949   7.007   6.456   3.230  0.0957 -0.0458 -0.3182
 4329TIP3   OH212950   3.508   1.303   4.144  0.6097 -0.4770  0.1031
 4329TIP3    H112951   3.477   1.393   4.137 -3.0816 -1.3283  2.5330
 4329TIP3    H212952   3.558   1.301   4.225  0.5067 -0.6334  0.1632
 4330TIP3   OH212953   6.765   4.121   0.387  0.2115 -0.2097  0.1763
 4330TIP3    H112954   6.807   4.100   0.304 -2.0650 -0.4734 -0.9850
 4330TIP3    H212955   6.679   4.156   0.362 -1.9129 -3.2959  2.4014
 4331TIP3   OH212956   2.104   2.424   2.349 -0.1047  0.1655  0.0581
 4331TIP3    H112957   2.171   2.359   2.370  0.5074  0.5404 -0.6737
 4331TIP3    H212958   2.070   2.451   2.434 -2.9843 -3.6879  0.3855
 4332TIP3   OH212959   0.270   4.830   3.254  0.2106  0.2082 -0.1858
 4332TIP3    H112960   0.183   4.791   3.243 -0.7056  1.1870  2.6048
 4332TIP3    H212961   0.330   4.756   3.258 -0.9624 -0.7330  1.1183
 4333TIP3   OH212962   6.304   5.566   3.647 -0.3253  0.4091  0.2694
 4333TIP3    H112963   6.352   5.496   3.603 -1.4955  0.4442 -1.1418
 4333TIP3    H212964   6.256   5.522   3.718  0.7073  0.1731  0.8423
 4334TIP3   OH212965   3.690   3.548   5.647 -0.3734  0.5633 -0.0886
 4334TIP3    H112966   3.769   3.530   5.697 -0.4919 -3.1095 -0.8958
 4334TIP3    H212967   3.711   3.625   5.595  1.8002  1.0445  1.3933
 4335TIP3   OH212968   2.224   0.695   4.427 -0.4902 -0.0717 -0.4610
 4335TIP3    H112969   2.182   0.682   4.513  0.6790 -2.6299 -0.1892
 4335TIP3    H212970   2.306   0.740   4.447 -0.9838  0.8414 -0.4561
 4336TIP3   OH212971   3.508   1.658   0.034 -0.1317  0.4335  0.0202
 4336TIP3    H112972   3.479   1.708   0.111  1.6037  1.7632 -0.1340
 4336TIP3    H212973   3.583   1.608   0.066  0.8920  1.3520 -0.8858
 4337TIP3   OH212974   1.639   1.986   0.720 -0.3447  0.6490 -0.3855
 4337TIP3    H112975   1.566   2.046   0.704  0.5533  2.0269  0.4428
 4337TIP3    H212976   1.694   2.032   0.784  0.6373 -0.8608 -0.1008
 4338TIP3   OH212977   0.741   0.528   4.877 -1.0434 -0.1280 -0.4826
 4338TIP3    H112978   0.731   0.447   4.827  1.6425 -1.3957  0.8398
 4338TIP3    H212979   0.732   0.501   4.968 -2.7856  1.6131 -0.0556
 4339TIP3   OH212980   4.391   2.339   1.543 -0.2588 -0.6828  0.0819
 4339TIP3    H112981   4.332   2.375   1.477  0.7898  0.3541 -0.3277
 4339TIP3    H212982   4.429   2.262   1.501 -0.3435 -0.6004 -0.1502
 4340TIP3   OH212983   0.510   0.453   5.726 -0.8352 -0.4182 -0.8005
 4340TIP3    H112984   0.479   0.370   5.761  0.4276 -0.4863  0.2254
 4340TIP3    H212985   0.477   0.518   5.789  1.1112 -0.5053  0.3997
 4341TIP3   OH212986   1.279   3.672   4.095 -0.2251  0.6985 -0.2626
 4341TIP3    H112987   1.279   3.740   4.164  2.2971  0.8911 -0.3474
 4341TIP3    H212988   1.308   3.593   4.140 -3.5258 -0.5449 -0.0827
 4342TIP3   OH212989   2.569   5.233   3.850 -0.9793 -0.0559  0.2357
 4342TIP3    H112990   2.557   5.264   3.760  0.2590  1.4313  0.5474
 4342TIP3    H212991   2.655   5.190   3.849 -1.2873 -0.6982  0.5530
 4343TIP3   OH212992   1.003   5.818   1.103  0.0824  0.7571  0.2645
 4343TIP3    H112993   1.011   5.845   1.194 -1.5842 -1.6633  1.2251
 4343TIP3    H212994   0.911   5.793   1.093  0.8583 -1.9754 -1.1363
 4344TIP3   OH212995   3.788   3.741   1.547  0.1776  0.6834 -0.0757
 4344TIP3    H112996   3.750   3.666   1.592  1.9783 -1.2970 -1.6412
 4344TIP3    H212997   3.719   3.771   1.488 -0.3927 -0.0793  0.1874
 4345TIP3   OH212998   1.643   2.492   4.909 -0.3285  0.3035 -0.6042
 4345TIP3    H112999   1.697   2.423   4.947 -0.2944  1.0361  0.7571
 4345TIP3    H213000   1.627   2.464   4.819  1.3314 -0.4849 -0.6816
 4346TIP3   OH213001   5.266   0.982   5.534 -0.0086 -0.2323 -0.7602
 4346TIP3    H113002   5.291   1.006   5.623  1.1096 -0.1463 -1.0798
 4346TIP3    H213003   5.175   0.953   5.542  0.0593 -0.1925  0.3977
 4347TIP3   OH213004   4.783   3.594   4.586  0.3716 -0.6355  0.6019
 4347TIP3    H113005   4.714   3.536   4.553  1.4082 -1.3743 -0.3673
 4347TIP3    H213006   4.741   3.679   4.597 -0.4723 -0.8331 -0.8941
 4348TIP3   OH213007   6.739   0.527   3.652 -0.0641 -0.5181 -0.4458
 4348TIP3    H113008   6.735   0.622   3.649  1.7639 -0.4340 -1.1498
 4348TIP3    H213009   6.757   0.500   3.562 -1.9556 -1.6513 -0.5501
 4349TIP3   OH213010   7.140   0.463   0.467  0.1960  0.2782  0.3259
 4349TIP3    H113011   7.045   0.447   0.472  0.0745  1.0110  0.4886
 4349TIP3    H213012   7.175   0.422   0.546 -0.1209  0.8657  0.7843
 4350TIP3   OH213013   3.398   3.271   0.861 -0.1370  0.2062  0.2146
 4350TIP3    H113014   3.368   3.361   0.878 -0.4739 -0.1245  1.4566
 4350TIP3    H213015   3.359   3.219   0.932 -0.9467 -1.1407 -1.1590
 4351TIP3   OH213016   6.068   3.827   0.399  0.4301 -0.2946  0.0769
 4351TIP3    H113017   6.151   3.799   0.362 -0.1019 -0.9938 -0.6431
 4351TIP3    H213018   6.025   3.745   0.425 -0.5831 -0.0635 -0.7925
 4352TIP3   OH213019   3.144   3.060   5.170 -0.0541 -0.1555  0.6173
 4352TIP3    H113020   3.236   3.046   5.146  0.6577  3.3541  0.7386
 4352TIP3    H213021   3.144   3.063   5.265  0.2770  2.2601  0.6120
 4353TIP3   OH213022   5.580   0.176   4.888 -0.6084  0.0793  0.2249
 4353TIP3    H113023   5.630   0.234   4.945  0.0901 -0.7933  0.5189
 4353TIP3    H213024   5.528   0.122   4.947 -0.7065 -0.0913 -0.0128
 4354TIP3   OH213025   1.156   4.696   0.193  0.2841  0.3689  0.0580
 4354TIP3    H113026   1.123   4.769   0.245  0.8089  0.5704  0.1138
 4354TIP3    H213027   1.123   4.712   0.105 -1.1895 -0.3368  0.4475
 4355TIP3   OH213028   3.323   6.716   3.806  0.6084  0.1636  0.7369
 4355TIP3    H113029   3.416   6.714   3.827  0.8221  1.4508 -0.0395
 4355TIP3    H213030   3.309   6.800   3.762 -0.6285 -0.6384 -0.4898
 4356TIP3   OH213031   4.957   4.449   3.069 -0.0385 -0.1619  0.3427
 4356TIP3    H113032   4.894   4.380   3.093 -1.2452  1.3151  1.6210
 4356TIP3    H213033   4.942   4.462   2.975  0.2307 -1.6351  0.0700
 4357TIP3   OH213034   1.462   2.807   0.111  0.3375 -0.6993 -0.5727
 4357TIP3    H113035   1.382   2.810   0.059  1.1948  0.8973 -1.8764
 4357TIP3    H213036   1.525   2.860   0.062  1.3894  0.3701  1.7880
 4358TIP3   OH213037   2.468   4.792   3.081 -0.7482 -0.2903 -0.7365
 4358TIP3    H113038   2.412   4.844   3.139 -0.7303 -0.8631 -0.1977
 4358TIP3    H213039   2.532   4.855   3.048 -1.0206  0.1368 -0.4730
 4359TIP3   OH213040   0.836   1.165   0.721  0.6258 -0.5897  0.0635
 4359TIP3    H113041   0.879   1.120   0.649  0.0318 -0.1576 -0.5692
 4359TIP3    H213042   0.890   1.144   0.798  1.0267 -1.3880 -0.4224
 4360TIP3   OH213043   1.295   6.438   5.534 -0.0194  0.0683 -0.1556
 4360TIP3    H113044   1.317   6.390   5.454 -0.1379 -0.7330  0.2902
 4360TIP3    H213045   1.226   6.498   5.507  1.9815  1.9833 -1.3823
 4361TIP3   OH213046   6.197   5.279   4.717 -0.0576  0.0528  0.0638
 4361TIP3    H113047   6.131   5.261   4.784 -0.4962 -1.7192 -0.7911
 4361TIP3    H213048   6.249   5.351   4.753  0.0324 -1.1607  2.5568
 4362TIP3   OH213049   2.931   5.149   3.087  0.4762  0.2755 -0.5556
 4362TIP3    H113050   2.928   5.131   2.994  1.1151  0.1993 -0.5612
 4362TIP3    H213051   2.877   5.081   3.127 -0.6522  0.9133 -0.9504
 4363TIP3   OH213052   2.631   0.292   1.840 -0.0394 -0.2187 -0.3898
 4363TIP3    H113053   2.659   0.276   1.930  1.9140  0.7258 -0.7604
 4363TIP3    H213054   2.640   0.207   1.797 -2.4204 -1.0447  0.5758
 4364TIP3   OH213055   0.340   2.921   3.726  0.1828 -0.4914 -0.1005
 4364TIP3    H113056   0.296   2.937   3.810  0.9036 -2.2678  0.6828
 4364TIP3    H213057   0.273   2.934   3.660 -1.3702 -2.3723  0.9958
 4365TIP3   OH213058   2.242   0.553   3.847  0.3639  0.4976 -0.0392
 4365TIP3    H113059   2.286   0.630   3.810  0.0326  0.3655 -0.7176
 4365TIP3    H213060   2.160   0.546   3.798 -0.4100  0.7010  1.1667
 4366TIP3   OH213061   6.998   5.866   5.875  0.0057  0.2920  0.2121
 4366TIP3    H113062   6.992   5.770   5.880 -0.9279  0.3341  0.1563
 4366TIP3    H213063   6.948   5.889   5.797 -0.2228  0.8570  0.5176
 4367TIP3   OH213064   7.013   0.596   1.035 -0.0827  0.9107  0.2507
 4367TIP3    H113065   7.029   0.579   0.942  1.2265  0.3891  0.5487
 4367TIP3    H213066   7.064   0.674   1.054  0.8426  0.1864  0.8432
 4368TIP3   OH213067   5.719   2.972   4.440 -0.1639 -0.0570  0.4397
 4368TIP3    H113068   5.773   2.950   4.516  0.9812  2.0664  0.3097
 4368TIP3    H213069   5.644   3.020   4.477 -0.1495  0.0597  0.3190
 4369TIP3   OH213070   1.661   5.359   4.113  0.3711 -0.1364  0.1857
 4369TIP3    H113071   1.611   5.355   4.031  1.6548 -1.7169 -0.5669
 4369TIP3    H213072   1.596   5.381   4.179 -1.1528 -1.0982 -0.9195
 4370TIP3   OH213073   3.185   5.853   1.450 -0.0745 -0.0249  0.5415
 4370TIP3    H113074   3.137   5.871   1.369 -0.3157 -0.6281  0.5486
 4370TIP3    H213075   3.270   5.821   1.420  0.1983  0.6702  0.5321
 4371TIP3   OH213076   1.661   3.730   0.835  0.1608 -0.4461  0.0820
 4371TIP3    H113077   1.588   3.707   0.778  0.7304 -1.0402 -0.4063
 4371TIP3    H213078   1.679   3.651   0.886  1.3074 -0.7295 -0.7238
 4372TIP3   OH213079   2.388   5.306   5.319  0.0909  0.1312  0.0495
 4372TIP3    H113080   2.416   5.351   5.399  1.0398  0.6559 -0.5595
 4372TIP3    H213081   2.464   5.313   5.260 -0.6681 -0.0520 -0.9723
 4373TIP3   OH213082   6.460   0.820   2.685  0.8977  0.0440  0.7747
 4373TIP3    H113083   6.527   0.887   2.671  0.7573  0.0558  0.1577
 4373TIP3    H213084   6.498   0.763   2.752  2.2928 -0.9482 -0.7951
 4374TIP3   OH213085   5.725   3.392   2.197 -0.2918 -0.6159 -0.1331
 4374TIP3    H113086   5.803   3.446   2.183 -0.1401 -1.0162 -0.8882
 4374TIP3    H213087   5.652   3.449   2.174 -0.1662 -0.5325 -0.3289
 4375TIP3   OH213088   6.552   5.707   5.784 -0.1515  0.3576  0.3733
 4375TIP3    H113089   6.458   5.703   5.800 -0.0969  0.0861  0.6182
 4375TIP3    H213090   6.577   5.796   5.811 -0.0074 -0.1791  2.1007
 4376TIP3   OH213091   0.356   0.191  -0.006 -0.3456 -0.4076  0.0732
 4376TIP3    H113092   0.377   0.147   0.076 -1.6280  0.7519  1.0716
 4376TIP3    H213093   0.330   0.279   0.020 -3.4978 -0.8075 -1.2333
 4377TIP3   OH213094   7.014   5.532   4.060  0.0290 -0.0911  0.2621
 4377TIP3    H113095   7.086   5.512   4.121 -1.1665  0.3978  1.9047
 4377TIP3    H213096   7.042   5.613   4.017  0.4787  0.0811  0.8569
 4378TIP3   OH213097   4.994   3.675   3.829 -0.3703  0.0323 -0.1067
 4378TIP3    H113098   4.956   3.610   3.771  1.6226 -1.5658  0.2842
 4378TIP3    H213099   5.086   3.677   3.805 -0.1418  1.8118  0.7686
 4379TIP3   OH213100   4.821   3.011   4.194 -0.1454  0.3106  0.0240
 4379TIP3    H113101   4.827   3.106   4.204  0.1188  0.3001 -0.0218
 4379TIP3    H213102   4.771   2.982   4.270  0.7406  0.3694  0.6457
 4380TIP3   OH213103   4.983   3.017   3.164 -0.9859  0.4919  0.4533
 4380TIP3    H113104   5.040   2.940   3.156  1.1235  2.1548 -3.4841
 4380TIP3    H213105   5.017   3.064   3.240  0.2473 -0.5265  0.5643
 4381TIP3   OH213106   5.511   0.996   2.915  0.0924 -0.2869 -0.6059
 4381TIP3    H113107   5.561   1.011   2.835 -0.3264 -1.2746 -1.0714
 4381TIP3    H213108   5.433   1.051   2.905  1.1066  1.3879  0.1973
 4382TIP3   OH213109   1.065   1.227   0.398  0.4081 -0.5775  0.3857
 4382TIP3    H113110   1.149   1.273   0.398 -0.5775  1.3522  1.2227
 4382TIP3    H213111   1.046   1.212   0.306  1.3520 -0.4412  0.1523
 4383TIP3   OH213112   0.783   3.126   3.485 -0.2837  0.1886  0.4713
 4383TIP3    H113113   0.801   3.162   3.398 -1.4181 -0.2542  0.0394
 4383TIP3    H213114   0.730   3.193   3.529  1.1844  0.8976  1.2508
 4384TIP3   OH213115   6.377   4.722   4.908 -0.0498  0.2098  0.2446
 4384TIP3    H113116   6.324   4.686   4.978  1.2633  1.2396  1.8307
 4384TIP3    H213117   6.395   4.812   4.935 -0.2127  0.9283 -1.8407
 4385TIP3   OH213118   0.561   0.678   3.780 -0.3506 -0.0598 -0.6308
 4385TIP3    H113119   0.603   0.592   3.773 -0.3903 -0.0399 -1.1677
 4385TIP3    H213120   0.489   0.675   3.717 -1.3426 -0.1873  0.4727
 4386TIP3   OH213121   4.743   2.040   2.809 -0.0476  0.0712  0.2419
 4386TIP3    H113122   4.722   1.984   2.735  0.3472  1.6565 -1.1227
 4386TIP3    H213123   4.714   2.127   2.782  1.1011  0.8757  1.5047
 4387TIP3   OH213124   0.740   0.033   2.148 -0.2400 -0.7339 -0.5818
 4387TIP3    H113125   0.719   0.123   2.170  0.4074 -1.1143  1.9490
 4387TIP3    H213126   0.657  -0.014   2.155 -0.2586 -0.6335 -0.1030
 4388TIP3   OH213127   2.696   6.841   2.551  0.4539  0.4457  0.6026
 4388TIP3    H113128   2.656   6.803   2.629 -0.4578  2.3450  1.1352
 4388TIP3    H213129   2.743   6.769   2.510 -0.8306 -1.1174  1.7409
 4389TIP3   OH213130   2.600   6.669   5.702 -0.1927  0.2540  0.0763
 4389TIP3    H113131   2.661   6.633   5.639  0.6422  2.5430 -0.5393
 4389TIP3    H213132   2.638   6.649   5.787  1.1574  1.1328 -0.2859
 4390TIP3   OH213133   4.595   2.797   1.915  0.2186 -0.0366 -0.4909
 4390TIP3    H113134   4.655   2.870   1.904  0.0975  0.1725  0.1537
 4390TIP3    H213135   4.630   2.749   1.991 -0.6119  0.2923  0.1160
 4391TIP3   OH213136   5.142   2.906   0.991  0.1837 -0.8009 -0.0341
 4391TIP3    H113137   5.176   2.835   1.046  0.7249 -1.6095 -1.3648
 4391TIP3    H213138   5.214   2.969   0.987  0.2402 -0.8659 -0.0424
 4392TIP3   OH213139   4.515   4.903   5.191 -0.1467  0.1162 -0.3714
 4392TIP3    H113140   4.586   4.935   5.136  0.9678  0.4687  1.1884
 4392TIP3    H213141   4.512   4.965   5.264 -1.2001 -0.6388  0.2635
 4393TIP3   OH213142   3.702   4.245   1.005  0.1490 -0.3739  0.0774
 4393TIP3    H113143   3.704   4.321   1.064  1.1730  0.2763 -0.7700
 4393TIP3    H213144   3.614   4.209   1.016 -1.4267  2.5806 -1.5407
 4394TIP3   OH213145   1.946   6.714   0.136  0.0229 -0.6656 -0.7084
 4394TIP3    H113146   2.025   6.661   0.146 -0.2557 -0.7400  1.4065
 4394TIP3    H213147   1.948   6.775   0.209 -2.2449 -1.1607 -0.1607
 4395TIP3   OH213148   0.259   1.068   4.177  0.1220  0.0391 -0.0893
 4395TIP3    H113149   0.349   1.088   4.202  0.7182 -1.6607 -0.7020
 4395TIP3    H213150   0.226   1.013   4.248 -0.2030  0.1187 -0.1774
 4396TIP3   OH213151   1.885   0.329   4.431  0.4140 -0.4489 -0.1176
 4396TIP3    H113152   1.980   0.324   4.444  0.3191  0.9117  1.5600
 4396TIP3    H213153   1.863   0.248   4.386  2.2023 -1.4215  0.6274
 4397TIP3   OH213154   4.222   6.375   1.824 -0.1053  0.2483 -0.4168
 4397TIP3    H113155   4.281   6.337   1.889  0.2935 -0.1618 -0.9959
 4397TIP3    H213156   4.140   6.326   1.834  0.1297 -0.1902 -0.5772
 4398TIP3   OH213157   1.337   5.678   3.956  0.1783  0.5265  0.1619
 4398TIP3    H113158   1.408   5.716   4.007 -0.0587  0.2291  0.7229
 4398TIP3    H213159   1.363   5.587   3.942  0.2105  0.5891 -0.1957
 4399TIP3   OH213160   3.750   4.987   2.572  0.4674 -0.0589  0.1460
 4399TIP3    H113161   3.661   4.952   2.571  0.0208  0.9078 -2.2207
 4399TIP3    H213162   3.806   4.912   2.554 -0.1066 -0.2665 -0.8156
 4400TIP3   OH213163   4.049   5.074   3.293  0.1837  0.4686  0.4491
 4400TIP3    H113164   3.967   5.087   3.246 -0.2381 -0.0081  1.0374
 4400TIP3    H213165   4.070   4.982   3.281 -0.4402  0.0956  1.9656
 4401TIP3   OH213166   1.728   4.373   3.013 -0.6275  0.1236  0.5183
 4401TIP3    H113167   1.784   4.426   2.956  1.7881 -1.2469  1.4897
 4401TIP3    H213168   1.698   4.434   3.080 -1.4041  1.1744 -0.7407
 4402TIP3   OH213169   4.346   1.846   2.920 -0.2373 -0.0108  0.4721
 4402TIP3    H113170   4.339   1.930   2.875 -0.5021  0.6346  1.6646
 4402TIP3    H213171   4.440   1.836   2.938  0.0793 -1.0224 -1.5481
 4403TIP3   OH213172   2.375   5.876   4.197  0.0171 -0.6756 -0.0220
 4403TIP3    H113173   2.316   5.817   4.242 -0.1377  0.5301  1.4378
 4403TIP3    H213174   2.322   5.916   4.128 -0.1298 -1.5369 -0.4097
 4404TIP3   OH213175   2.675   2.131   1.245  0.3830  0.2495  0.2547
 4404TIP3    H113176   2.748   2.191   1.259  1.1207 -0.8771  1.5640
 4404TIP3    H213177   2.704   2.073   1.175  0.0234  0.8547 -0.4086
 4405TIP3   OH213178   4.678   3.430   4.972  0.1104  0.0036  0.3897
 4405TIP3    H113179   4.612   3.498   4.986 -0.2839 -0.5430  1.2119
 4405TIP3    H213180   4.759   3.467   5.007 -0.2149 -0.1475  1.3118
 4406TIP3   OH213181   1.299   2.887   4.922  1.1022 -0.2010  0.2537
 4406TIP3    H113182   1.386   2.926   4.914  1.1745 -0.3853  0.1627
 4406TIP3    H213183   1.314   2.800   4.957  0.9415 -0.1732  0.3960
 4407TIP3   OH213184   6.821   6.317   1.951  0.4502 -0.0529 -0.0426
 4407TIP3    H113185   6.838   6.406   1.981  0.5761 -0.3866  0.8980
 4407TIP3    H213186   6.741   6.290   1.996  0.7157 -0.6119  0.1106
 4408TIP3   OH213187   2.185   5.716   4.301  0.2606  0.0430  0.3694
 4408TIP3    H113188   2.116   5.769   4.341 -0.6180 -0.1190 -0.8568
 4408TIP3    H213189   2.140   5.666   4.233  1.5309 -0.3348 -0.2257
 4409TIP3   OH213190   4.761  -0.015   3.381  0.0339  0.1538  0.1821
 4409TIP3    H113191   4.745   0.073   3.415 -1.5110 -0.5276  1.2971
 4409TIP3    H213192   4.756  -0.005   3.286  1.1211  1.4714  0.2266
 4410TIP3   OH213193   0.349   1.426   1.725 -0.9347  0.1228 -0.1554
 4410TIP3    H113194   0.431   1.474   1.725 -0.0918 -1.1845 -2.4545
 4410TIP3    H213195   0.282   1.494   1.732  0.2406  1.5542 -1.8522
 4411TIP3   OH213196   1.232   4.984   4.753 -0.0403 -0.5145  0.1426
 4411TIP3    H113197   1.138   5.001   4.764 -0.3823 -2.2888  0.2650
 4411TIP3    H213198   1.239   4.889   4.748  1.7058 -0.3919 -0.4766
 4412TIP3   OH213199   0.720   2.419   0.450  0.2523  0.2019  0.3112
 4412TIP3    H113200   0.667   2.349   0.488 -1.0817  0.8716 -0.2291
 4412TIP3    H213201   0.758   2.464   0.525  2.0644 -1.7364  0.6533
 4413TIP3   OH213202   2.389   0.590   1.868  0.1173 -0.1650  0.2338
 4413TIP3    H113203   2.412   0.507   1.825  0.2450 -0.6855  1.2810
 4413TIP3    H213204   2.431   0.657   1.814  0.6720 -0.8295 -0.1880
 4414TIP3   OH213205   2.718   1.042   1.244  0.0070  0.0590  0.1603
 4414TIP3    H113206   2.694   0.999   1.162  1.7348 -0.8187  0.0829
 4414TIP3    H213207   2.648   1.105   1.259 -2.1650 -2.1171 -0.2044
 4415TIP3   OH213208   0.867   2.037   3.237 -0.4661  0.2107  0.0191
 4415TIP3    H113209   0.945   2.028   3.291  0.4076 -1.0299 -1.3450
 4415TIP3    H213210   0.845   1.947   3.213 -2.0044  0.5861 -0.0814
 4416TIP3   OH213211   4.166   0.723   3.317 -0.0690  0.5482  0.5389
 4416TIP3    H113212   4.203   0.668   3.248  3.7317  2.7011  0.5889
 4416TIP3    H213213   4.196   0.683   3.398  0.7739  1.3967  0.6579
 4417TIP3   OH213214   4.896   4.076   1.665 -0.0217 -0.2572 -0.2436
 4417TIP3    H113215   4.855   3.992   1.683 -0.4369  0.0977  0.5545
 4417TIP3    H213216   4.853   4.137   1.726 -0.6548  0.8067 -1.6968
 4418TIP3   OH213217   0.315   3.747   4.800  0.0171 -0.1928 -0.0418
 4418TIP3    H113218   0.281   3.668   4.758  0.7646 -0.4999 -0.0817
 4418TIP3    H213219   0.376   3.715   4.866  0.7027  0.3647 -0.3964
 4419TIP3   OH213220   6.077   0.509   1.018  0.0176  0.4076 -0.5963
 4419TIP3    H113221   6.158   0.467   1.046 -0.3442  1.0281  1.5343
 4419TIP3    H213222   6.024   0.437   0.982  0.7310 -0.3578 -0.1459
 4420TIP3   OH213223   4.192   0.076   3.048  0.4974  0.0032  0.3118
 4420TIP3    H113224   4.277   0.100   3.012  1.5025 -1.2753  1.6708
 4420TIP3    H213225   4.166   0.151   3.100  0.7367  0.4545 -0.2105
 4421TIP3   OH213226   5.765   6.526   0.221  0.1418 -0.3933 -0.0614
 4421TIP3    H113227   5.859   6.527   0.242  0.3424 -0.2905 -0.9252
 4421TIP3    H213228   5.760   6.562   0.133 -0.7466 -0.1316  0.0845
 4422TIP3   OH213229   1.407   2.309   5.221  0.0781 -0.1350  0.1470
 4422TIP3    H113230   1.446   2.228   5.253  0.3283  0.1789  0.6500
 4422TIP3    H213231   1.479   2.372   5.221 -0.3334  0.3552  0.7452
 4423TIP3   OH213232   6.858   6.183   5.676  0.1745  0.1555 -0.1517
 4423TIP3    H113233   6.815   6.097   5.676 -0.4246  0.4466 -0.6962
 4423TIP3    H213234   6.920   6.179   5.604  1.1815 -0.3042  0.7029
 4424TIP3   OH213235   6.631   3.196   0.891 -0.3484 -0.2545  0.0554
 4424TIP3    H113236   6.691   3.267   0.873  0.1313 -0.9300 -1.1616
 4424TIP3    H213237   6.644   3.135   0.818 -1.3262 -1.1913  0.6358
 4425TIP3   OH213238   6.923   6.579   4.461  0.3139  0.0938  0.2967
 4425TIP3    H113239   6.927   6.502   4.404  2.3591  1.4802 -1.6331
 4425TIP3    H213240   6.830   6.596   4.474 -0.4349  0.8637 -4.4508
 4426TIP3   OH213241   2.369   4.056   4.663  0.2663 -0.1642  0.0302
 4426TIP3    H113242   2.450   4.026   4.622 -0.1275 -0.5889 -0.4399
 4426TIP3    H213243   2.377   4.029   4.754  1.4744  1.4278  0.4529
 4427TIP3   OH213244   4.673   6.535   5.355  0.2957 -0.2198 -0.1392
 4427TIP3    H113245   4.696   6.628   5.353  0.4694 -0.2685 -1.4280
 4427TIP3    H213246   4.694   6.506   5.444 -1.0232  1.2753  0.6976
 4428TIP3   OH213247   6.311   0.209   5.610 -0.2121  0.1210  0.1006
 4428TIP3    H113248   6.364   0.274   5.656 -1.2274  0.1280  1.3200
 4428TIP3    H213249   6.227   0.253   5.594 -0.6076 -0.5970  0.1492
 4429TIP3   OH213250   4.305   0.430   1.847 -0.0648 -0.1917 -0.0907
 4429TIP3    H113251   4.373   0.473   1.795  2.5517 -2.0664  1.5202
 4429TIP3    H213252   4.349   0.353   1.884 -1.8994  0.5451  4.2494
 4430TIP3   OH213253   6.443   1.346   1.146  0.3348 -0.3261  0.3630
 4430TIP3    H113254   6.472   1.366   1.234  0.8763  2.8897 -0.4208
 4430TIP3    H213255   6.353   1.380   1.142  1.0255  1.5571 -0.8208
 4431TIP3   OH213256   0.679   2.092   2.898  0.4844  0.4579  0.4909
 4431TIP3    H113257   0.751   2.033   2.921 -0.7306 -1.0767  0.5170
 4431TIP3    H213258   0.665   2.145   2.977  2.6226  1.9821 -0.0490
 4432TIP3   OH213259   2.607   2.994   5.541  0.1997  0.2718  0.3925
 4432TIP3    H113260   2.682   2.964   5.491  0.0525  1.1182 -0.3472
 4432TIP3    H213261   2.644   3.045   5.613  0.3994 -0.7831  1.0736
 4433TIP3   OH213262   2.923   1.255   0.798 -0.2634 -0.1704 -0.1241
 4433TIP3    H113263   3.007   1.231   0.837 -0.1591 -0.1442 -0.3320
 4433TIP3    H213264   2.899   1.179   0.744  0.5316  0.5537 -1.5470
 4434TIP3   OH213265   6.138   1.144   4.529 -0.2670  0.2570  0.3088
 4434TIP3    H113266   6.138   1.237   4.552  1.9522  0.1758  0.9243
 4434TIP3    H213267   6.114   1.142   4.436 -1.9502  1.2634  0.6904
 4435TIP3   OH213268   5.608   3.927   5.164  0.0370  0.2459  0.1018
 4435TIP3    H113269   5.702   3.943   5.165 -0.1127  1.1690  0.9774
 4435TIP3    H213270   5.581   3.939   5.255 -1.0732  0.9291 -0.2968
 4436TIP3   OH213271   0.689   3.041   1.467 -0.1538 -0.1369 -0.0353
 4436TIP3    H113272   0.736   3.028   1.384  0.4410  2.6201 -0.2378
 4436TIP3    H213273   0.607   3.084   1.441 -1.2032 -1.6577  0.6352
 4437TIP3   OH213274   5.347   6.435   2.345  0.0341  0.1121 -0.2274
 4437TIP3    H113275   5.252   6.441   2.358  0.1157  0.6946  0.1392
 4437TIP3    H213276   5.358   6.437   2.250 -0.3496 -0.5108 -0.2898
 4438TIP3   OH213277   0.847   1.017   5.124 -0.3435  0.5067 -0.5513
 4438TIP3    H113278   0.802   0.951   5.070 -2.2031 -0.3664  1.8823
 4438TIP3    H213279   0.841   0.984   5.213  1.0744  2.7111  0.4555
 4439TIP3   OH213280   4.607   1.965   4.878 -0.0112 -0.2416  0.1142
 4439TIP3    H113281   4.512   1.959   4.883 -0.1099 -0.4496 -1.4939
 4439TIP3    H213282   4.623   2.054   4.846  0.1832 -0.9491 -1.9121
 4440TIP3   OH213283   7.160   6.512   3.502  0.4554  0.6385 -0.7704
 4440TIP3    H113284   7.197   6.469   3.425  0.9815 -1.5666  0.6025
 4440TIP3    H213285   7.082   6.460   3.522  1.2089  0.1233  1.0617
 4441TIP3   OH213286   0.120   4.290   3.109  0.3769 -0.4684  0.4323
 4441TIP3    H113287   0.060   4.348   3.156 -1.3527 -1.9247  0.1324
 4441TIP3    H213288   0.132   4.215   3.167  0.7378 -0.8631 -0.1413
 4442TIP3   OH213289   0.695   0.926   4.919 -0.2696 -0.2101  0.6667
 4442TIP3    H113290   0.619   0.871   4.937 -1.1245  0.4089 -0.8508
 4442TIP3    H213291   0.660   0.999   4.868  1.3744  0.0015 -0.2265
 4443TIP3   OH213292   5.585   4.646   2.959 -0.3185 -0.0995 -0.3696
 4443TIP3    H113293   5.525   4.592   2.907 -0.7353 -0.8315  0.8288
 4443TIP3    H213294   5.531   4.678   3.032 -0.1450  2.1598 -1.1475
 4444TIP3   OH213295   4.929   1.211   1.462  0.4802 -0.2659 -0.2875
 4444TIP3    H113296   4.997   1.247   1.405  0.7873  1.2768  0.9930
 4444TIP3    H213297   4.883   1.288   1.495  0.3622 -1.1104  1.6025
 4445TIP3   OH213298   1.344   5.876   2.517 -0.1338 -0.4439  0.5304
 4445TIP3    H113299   1.431   5.847   2.491 -0.2054 -0.0287 -0.1988
 4445TIP3    H213300   1.337   5.851   2.609  0.4698 -1.1409  0.3990
 4446TIP3   OH213301   3.776   3.269   2.008 -0.3347  0.2103 -0.3269
 4446TIP3    H113302   3.732   3.227   2.082  1.1242 -1.9276 -0.5999
 4446TIP3    H213303   3.705   3.290   1.947 -1.2805 -0.4412  0.5165
 4447TIP3   OH213304   2.565   5.252   0.557 -0.1840 -0.2132 -0.1284
 4447TIP3    H113305   2.569   5.312   0.483 -1.0404 -2.5625 -2.2232
 4447TIP3    H213306   2.479   5.268   0.596 -1.4541 -1.5535 -2.1529
 4448TIP3   OH213307   1.706   2.862   1.803 -0.6050 -0.0676 -0.1478
 4448TIP3    H113308   1.703   2.822   1.716 -2.9453 -0.9842  0.2571
 4448TIP3    H213309   1.683   2.790   1.862 -0.6095  0.8989  1.0507
 4449TIP3   OH213310   1.707   0.657   2.078 -0.1423 -0.1162  0.4282
 4449TIP3    H113311   1.653   0.654   2.157  0.1095 -1.6701  0.5678
 4449TIP3    H213312   1.699   0.748   2.047 -1.5439  0.1044  1.3283
 4450TIP3   OH213313   6.109   5.763   2.324 -0.7114 -0.5792 -0.1808
 4450TIP3    H113314   6.096   5.712   2.244 -1.0992 -1.8394  0.6521
 4450TIP3    H213315   6.193   5.806   2.311 -1.3969  0.3705 -1.8383
 4451TIP3   OH213316   5.498   6.466   5.019 -0.4220 -0.3316 -0.2461
 4451TIP3    H113317   5.444   6.418   4.956 -1.5303  0.3095  0.1926
 4451TIP3    H213318   5.471   6.431   5.104 -2.0902  1.8224  0.1761
 4452TIP3   OH213319   2.583   1.901   4.920  0.1011 -0.7921 -0.6258
 4452TIP3    H113320   2.565   1.868   4.832 -1.8268  0.0527 -0.5887
 4452TIP3    H213321   2.678   1.893   4.929  0.2104 -2.0243 -2.3099
 4453TIP3   OH213322   4.463   6.284   0.730  0.2252  0.1185 -0.3406
 4453TIP3    H113323   4.536   6.314   0.785 -0.8649  3.5391 -0.4865
 4453TIP3    H213324   4.505   6.240   0.656  2.0969  0.8153  0.2397
 4454TIP3   OH213325   3.560   4.367   5.207  0.1075 -0.3266 -0.3458
 4454TIP3    H113326   3.642   4.330   5.174  0.1223  0.3746 -1.1225
 4454TIP3    H213327   3.587   4.447   5.253 -0.1773  0.1949 -1.0665
 4455TIP3   OH213328   5.438   4.467   1.610 -0.0075  0.2740  0.3255
 4455TIP3    H113329   5.439   4.455   1.705 -1.1456 -0.6789  0.2261
 4455TIP3    H213330   5.384   4.545   1.597 -0.6331 -0.1442  0.4056
 4456TIP3   OH213331   4.598   2.729   0.354  0.3207  0.4151  0.0919
 4456TIP3    H113332   4.541   2.801   0.328  0.6691  0.4755 -0.5107
 4456TIP3    H213333   4.669   2.770   0.402 -0.1247  0.3386  0.8541
 4457TIP3   OH213334   0.198   2.663   5.485  0.6152 -0.1479 -0.4145
 4457TIP3    H113335   0.125   2.623   5.533  1.1844  0.0994  0.6898
 4457TIP3    H213336   0.200   2.617   5.401  0.1933 -1.2627  0.1688
 4458TIP3   OH213337   2.517   1.520   1.519  0.2850 -0.6686 -0.2574
 4458TIP3    H113338   2.548   1.609   1.504 -0.2135 -0.4572 -0.0731
 4458TIP3    H213339   2.549   1.470   1.444  1.0426 -0.4624 -0.0825
 4459TIP3   OH213340   5.835   4.849   2.603 -0.2419 -0.9399  0.5902
 4459TIP3    H113341   5.859   4.851   2.696  0.8809 -0.2324  0.3130
 4459TIP3    H213342   5.884   4.922   2.565 -1.1110 -0.8857 -0.4664
 4460TIP3   OH213343   2.074   5.988   0.782  0.7993 -0.3242  0.1546
 4460TIP3    H113344   2.000   6.044   0.802  0.5069  0.2241 -2.1218
 4460TIP3    H213345   2.118   5.975   0.866 -1.6293 -0.3753  1.5033
 4461TIP3   OH213346   3.743   5.656   2.343  0.6574 -0.5892  0.7002
 4461TIP3    H113347   3.707   5.605   2.416  0.2122 -0.0562  0.8672
 4461TIP3    H213348   3.789   5.592   2.290  1.5031 -0.8957  1.7623
 4462TIP3   OH213349   1.934   2.602   1.531 -0.7409 -0.2618 -0.2596
 4462TIP3    H113350   2.000   2.646   1.585 -0.6045 -0.7543 -0.0171
 4462TIP3    H213351   1.945   2.641   1.444 -1.3788  0.9761  0.1942
 4463TIP3   OH213352   2.244   0.368   0.903  0.1275  0.3364 -0.3756
 4463TIP3    H113353   2.290   0.449   0.927  0.0382 -0.2096  1.8736
 4463TIP3    H213354   2.158   0.397   0.874 -0.0281  1.0652  0.7345
 4464TIP3   OH213355   3.259   0.854   0.200 -0.2225 -0.1560 -0.0460
 4464TIP3    H113356   3.312   0.860   0.280  1.4496 -0.0752 -1.1169
 4464TIP3    H213357   3.246   0.945   0.173 -0.3714 -0.2025 -0.1275
 4465TIP3   OH213358   3.087   4.940   5.065 -0.7053 -0.1709 -0.3485
 4465TIP3    H113359   3.025   4.919   4.996 -2.7042  1.6977  0.7678
 4465TIP3    H213360   3.067   5.030   5.090  0.3694 -0.5279  2.1666
 4466TIP3   OH213361   0.439   5.875   4.242  0.5054  0.3225  0.2657
 4466TIP3    H113362   0.370   5.907   4.184  1.3233  1.6895 -0.0042
 4466TIP3    H213363   0.520   5.896   4.196  1.1192 -0.6761  0.8695
 4467TIP3   OH213364   2.834   3.391   3.079 -0.5439  0.2957 -0.0334
 4467TIP3    H113365   2.756   3.442   3.056 -0.0445  0.9013 -0.3872
 4467TIP3    H213366   2.874   3.369   2.995  2.0290  3.6383  0.1058
 4468TIP3   OH213367   0.033   6.022   0.509  0.4851 -0.1326  0.3052
 4468TIP3    H113368  -0.057   6.054   0.500  0.6519  0.2284 -0.1567
 4468TIP3    H213369   0.052   6.030   0.602  0.0681 -0.1278  0.3927
 4469TIP3   OH213370   7.161   5.098   5.018 -0.4447  0.3018  0.4310
 4469TIP3    H113371   7.195   5.157   4.950  0.4687 -1.0989 -0.3654
 4469TIP3    H213372   7.125   5.157   5.084  1.1934  1.8038  0.0653
 4470TIP3   OH213373   1.360   3.452   1.174 -0.1593 -0.2188 -0.0633
 4470TIP3    H113374   1.336   3.507   1.100 -1.0743 -0.0211  0.3719
 4470TIP3    H213375   1.356   3.362   1.139 -0.7893 -0.1404 -0.2059
 4471TIP3   OH213376   1.866   2.114   5.427  0.7607  0.4515  0.4816
 4471TIP3    H113377   1.818   2.188   5.391 -1.0413 -0.4152  0.9575
 4471TIP3    H213378   1.850   2.043   5.365 -1.5251 -0.7716  2.2697
 4472TIP3   OH213379   6.339   4.741   3.127 -0.4684 -0.1516 -0.6541
 4472TIP3    H113380   6.269   4.721   3.189 -0.6767 -0.4733 -0.9885
 4472TIP3    H213381   6.418   4.748   3.181 -1.0526  2.1784 -0.0110
 4473TIP3   OH213382   5.959   4.012   3.518  0.0553 -0.5082 -0.2645
 4473TIP3    H113383   6.028   4.061   3.562  0.6746 -0.8397 -0.8435
 4473TIP3    H213384   5.891   3.999   3.585  0.1205  0.6530  0.0374
 4474TIP3   OH213385   0.693   2.810   5.214 -0.5777  0.3134 -0.0746
 4474TIP3    H113386   0.651   2.882   5.166 -0.5231  0.3476 -0.0714
 4474TIP3    H213387   0.754   2.773   5.151  0.0663  0.8619  0.2162
 4475TIP3   OH213388   5.268   6.271   3.511  0.3183 -0.6954  0.4990
 4475TIP3    H113389   5.246   6.278   3.603 -0.0519 -0.4966  0.3973
 4475TIP3    H213390   5.184   6.272   3.466  0.5085 -0.4911  0.1402
 4476TIP3   OH213391   1.614   0.385   5.213  0.6861  0.3899 -0.4439
 4476TIP3    H113392   1.698   0.339   5.209  0.4326 -0.2469  1.0334
 4476TIP3    H213393   1.549   0.316   5.223  0.3320  1.0151  2.2279
 4477TIP3   OH213394   3.596   2.984   0.494 -0.6318 -0.2441  0.2639
 4477TIP3    H113395   3.650   3.045   0.442  0.1583 -0.3150  0.9681
 4477TIP3    H213396   3.523   2.962   0.437 -1.0185  1.4870  0.0420
 4478TIP3   OH213397   7.027   0.487   3.677 -0.1935 -0.0748 -0.1208
 4478TIP3    H113398   7.085   0.418   3.644  1.0228  0.9223 -0.1568
 4478TIP3    H213399   6.951   0.483   3.621 -0.0176 -1.1857 -0.3148
 4479TIP3   OH213400   2.156   5.871   1.043 -0.7935 -0.9625 -0.1852
 4479TIP3    H113401   2.179   5.828   1.125 -2.0271  0.2405  0.8383
 4479TIP3    H213402   2.220   5.837   0.980  0.5865 -1.4498  1.3867
 4480TIP3   OH213403   4.812   2.361   3.361  0.0638 -0.3074  0.0843
 4480TIP3    H113404   4.889   2.322   3.320  0.0330 -0.2197 -0.0601
 4480TIP3    H213405   4.765   2.402   3.288 -0.3603 -0.7607  0.1014
 4481TIP3   OH213406   0.642   2.162   2.551  0.1676 -0.3773 -0.3272
 4481TIP3    H113407   0.578   2.215   2.598 -1.1649 -1.3270 -1.0250
 4481TIP3    H213408   0.650   2.083   2.604 -0.6315 -1.0449 -1.1881
 4482TIP3   OH213409   6.508   3.250   0.201 -0.4361  0.0483  0.3155
 4482TIP3    H113410   6.470   3.162   0.205 -0.4596  0.0929  1.6589
 4482TIP3    H213411   6.436   3.306   0.172 -1.7944  0.2575  3.5569
 4483TIP3   OH213412   5.740   3.190   3.722  0.0531 -0.6522 -0.1942
 4483TIP3    H113413   5.732   3.194   3.627  0.3919 -2.5599 -0.3444
 4483TIP3    H213414   5.767   3.100   3.740 -0.8003 -0.5686  1.7713
 4484TIP3   OH213415   5.347   3.798   3.082  0.0703 -0.5796 -0.3396
 4484TIP3    H113416   5.366   3.803   2.988  2.2418 -1.8242 -0.0464
 4484TIP3    H213417   5.382   3.714   3.109 -0.6848 -0.3358  1.5787
 4485TIP3   OH213418   4.566   6.797   4.651  0.4754  0.3043  0.0870
 4485TIP3    H113419   4.547   6.719   4.703  1.8514 -0.3968 -0.4100
 4485TIP3    H213420   4.518   6.867   4.695  0.2969 -0.5726  1.3512
 4486TIP3   OH213421   3.831   4.864   5.011  0.2699 -0.2768  0.3925
 4486TIP3    H113422   3.856   4.880   4.920  2.3999 -0.9431  0.8007
 4486TIP3    H213423   3.813   4.951   5.046 -0.8826 -0.0379 -0.7135
 4487TIP3   OH213424   1.626   2.056   0.392 -0.5459 -0.2921  0.6916
 4487TIP3    H113425   1.626   2.001   0.470  0.1245  0.3889  1.1869
 4487TIP3    H213426   1.567   2.129   0.414  0.0374  0.1659  0.7639
 4488TIP3   OH213427   1.239   0.076   4.280 -0.4667 -0.0509 -0.5443
 4488TIP3    H113428   1.181   0.085   4.356 -0.0922 -1.1064 -0.1156
 4488TIP3    H213429   1.204   0.001   4.232 -1.0150  0.9296 -1.7301
 4489TIP3   OH213430   0.421   5.521   1.454  0.1927 -0.1211  0.1717
 4489TIP3    H113431   0.463   5.439   1.481  0.6168 -0.4914 -1.5359
 4489TIP3    H213432   0.329   5.509   1.480  0.4145 -0.7713  0.7102
 4490TIP3   OH213433   0.746   4.700   5.106  0.2799 -0.1311  0.2298
 4490TIP3    H113434   0.794   4.776   5.139 -1.6794  0.1790  2.6254
 4490TIP3    H213435   0.791   4.625   5.144  1.2285 -0.1298 -0.8229
 4491TIP3   OH213436   2.766   1.252   2.059  0.1033  0.3417  0.2095
 4491TIP3    H113437   2.723   1.168   2.076  2.0949 -0.4423  1.8584
 4491TIP3    H213438   2.703   1.318   2.087 -1.0959 -0.6174 -0.1438
 4492TIP3   OH213439   0.782   4.657   0.033  0.0868  0.1557  0.0476
 4492TIP3    H113440   0.858   4.611  -0.004  0.3117  0.8097 -0.3343
 4492TIP3    H213441   0.708   4.628  -0.021 -0.3107 -1.9596  1.6100
 4493TIP3   OH213442   0.459   4.354   5.383 -0.0662  0.9066  0.4124
 4493TIP3    H113443   0.393   4.348   5.452 -0.9907  1.7302 -0.3568
 4493TIP3    H213444   0.473   4.448   5.371 -0.0089  0.7856 -0.5786
 4494TIP3   OH213445   3.057   3.119   0.046 -0.1477 -0.0884  0.0214
 4494TIP3    H113446   3.063   3.106   0.141  3.3326  3.0422  0.4722
 4494TIP3    H213447   3.117   3.055   0.009 -0.0901 -0.0803  0.1008
 4495TIP3   OH213448   0.308   2.973   5.197 -0.4302  0.0273 -0.0454
 4495TIP3    H113449   0.351   2.936   5.120 -1.4174  0.7183 -0.9577
 4495TIP3    H213450   0.227   3.010   5.164 -0.3388  1.3843  1.1336
 4496TIP3   OH213451   6.037   6.277   3.804 -0.3731 -0.4038  0.0989
 4496TIP3    H113452   5.963   6.320   3.848  0.2821  0.5705  0.2879
 4496TIP3    H213453   5.999   6.199   3.764 -1.7400  0.6312 -0.7148
 4497TIP3   OH213454   7.028   2.574   5.453 -0.0049  0.1711 -0.2443
 4497TIP3    H113455   7.111   2.558   5.499 -0.3486 -1.3313 -0.0905
 4497TIP3    H213456   6.983   2.489   5.455 -0.8660  0.5620 -1.7006
 4498TIP3   OH213457   0.893   2.033   1.993  0.3480  0.3077 -1.3994
 4498TIP3    H113458   0.876   1.992   1.908 -1.5641  2.8890 -2.3526
 4498TIP3    H213459   0.830   1.992   2.052  1.0579 -0.8189 -1.3804
 4499TIP3   OH213460   2.633   2.216   4.455 -0.0752 -0.5321  0.1432
 4499TIP3    H113461   2.699   2.284   4.471 -1.7628  1.1437  0.2589
 4499TIP3    H213462   2.555   2.246   4.501 -0.5621 -3.2181  1.2978
 4500TIP3   OH213463   6.145   4.147   5.763 -0.1506 -0.7327 -0.2266
 4500TIP3    H113464   6.110   4.095   5.835 -2.2378 -0.5060 -1.0012
 4500TIP3    H213465   6.072   4.204   5.737  2.1024  3.1124  0.9721
 4501TIP3   OH213466   1.856   3.062   4.606  0.3065 -0.6754 -0.2105
 4501TIP3    H113467   1.799   3.057   4.683 -1.3508 -0.8874 -1.4024
 4501TIP3    H213468   1.801   3.101   4.538  1.7472 -0.4414 -1.2860
 4502TIP3   OH213469   6.166   1.201   3.017 -0.5073  0.1714  0.0503
 4502TIP3    H113470   6.202   1.275   3.066  0.4090  0.8646 -1.5783
 4502TIP3    H213471   6.204   1.210   2.929  0.9044 -3.1115  0.1801
 4503TIP3   OH213472   5.086   6.621   2.733  0.0213 -0.0506 -0.0052
 4503TIP3    H113473   5.067   6.556   2.800 -1.2015  1.0369  0.7444
 4503TIP3    H213474   5.146   6.682   2.775  2.6632 -1.5771 -1.2725
 4504TIP3   OH213475   5.817   4.905   5.076  0.5727  0.0519  0.3236
 4504TIP3    H113476   5.890   4.922   5.016  0.2058 -0.9600 -0.4386
 4504TIP3    H213477   5.830   4.815   5.104 -0.0919  0.0352  0.5915
 4505TIP3   OH213478   4.796   6.230   3.295  0.2226  0.6315 -0.6021
 4505TIP3    H113479   4.785   6.275   3.211 -1.3088  2.2394  0.3857
 4505TIP3    H213480   4.711   6.239   3.338  0.5686 -1.3125  0.6056
 4506TIP3   OH213481   0.943   3.574   3.277  0.2975 -0.1318  0.1488
 4506TIP3    H113482   1.023   3.581   3.226  0.7281 -0.8290  0.7161
 4506TIP3    H213483   0.970   3.532   3.358 -0.8060 -1.2303 -0.0329
 4507TIP3   OH213484   2.929   6.457   5.234 -0.2621 -0.0473  0.2335
 4507TIP3    H113485   3.001   6.504   5.276 -0.3548 -0.5855  1.0301
 4507TIP3    H213486   2.869   6.436   5.306 -0.4909 -0.8955 -0.1899
 4508TIP3   OH213487   5.728   0.846   5.331  0.6430 -0.7638  0.2195
 4508TIP3    H113488   5.704   0.811   5.245  0.6921  2.2310 -1.1459
 4508TIP3    H213489   5.651   0.896   5.358  0.6400 -1.6507  1.9613
 4509TIP3   OH213490   1.228   0.511   5.083 -0.0304  0.4694  0.6099
 4509TIP3    H113491   1.313   0.554   5.095 -0.3897  2.1202 -2.0512
 4509TIP3    H213492   1.164   0.581   5.093 -0.9513 -0.3287  0.4787
 4510TIP3   OH213493   2.337   0.021   4.728 -0.0419 -0.2460 -0.1576
 4510TIP3    H113494   2.274   0.048   4.662  0.1721  1.4711  0.3038
 4510TIP3    H213495   2.303   0.056   4.811  0.7653 -0.5588  0.3243
 4511TIP3   OH213496   2.617   4.557   2.899 -0.4129 -0.0642 -0.3887
 4511TIP3    H113497   2.592   4.628   2.957 -0.2219  0.6678 -1.1767
 4511TIP3    H213498   2.539   4.501   2.895 -0.3716 -0.2103  0.6782
 4512TIP3   OH213499   1.647   2.820   4.556 -0.4605 -0.7004 -1.0536
 4512TIP3    H113500   1.709   2.829   4.629 -1.5958  1.9484 -0.2671
 4512TIP3    H213501   1.702   2.814   4.478  0.7666 -2.0177 -0.1438
 4513TIP3   OH213502   2.678   1.068   1.799  0.2392  0.4879 -0.3648
 4513TIP3    H113503   2.606   1.055   1.860  0.4317  0.6605 -0.1002
 4513TIP3    H213504   2.694   1.162   1.800 -1.2470  0.8419 -2.3828
 4514TIP3   OH213505   4.985   6.300   0.045  0.1888  0.1517 -0.0239
 4514TIP3    H113506   4.908   6.317  -0.009 -0.0386 -1.5872 -0.2985
 4514TIP3    H213507   5.053   6.356   0.008 -0.7504  1.2048 -0.2007
 4515TIP3   OH213508   6.649   4.084   1.258  0.1296 -0.0287 -0.1527
 4515TIP3    H113509   6.628   4.176   1.276  0.7313 -0.0026  0.4780
 4515TIP3    H213510   6.739   4.086   1.223  0.0980 -0.3682 -0.2635
 4516TIP3   OH213511   6.542   3.958   2.469  0.4699 -0.0504  0.0464
 4516TIP3    H113512   6.469   3.904   2.437 -0.8156  0.5391  1.7934
 4516TIP3    H213513   6.590   3.983   2.391 -1.9951  0.6569 -1.3322
 4517TIP3   OH213514   6.649   2.512   1.308 -0.4824  0.3628  0.5344
 4517TIP3    H113515   6.592   2.585   1.283 -1.3086 -0.5220 -0.2377
 4517TIP3    H213516   6.733   2.532   1.266 -0.5166  1.1643  0.8303
 4518TIP3   OH213517   4.488   5.732   4.723 -0.0908 -0.2556 -0.4836
 4518TIP3    H113518   4.551   5.694   4.661  0.5564 -0.0047  0.0200
 4518TIP3    H213519   4.455   5.810   4.678 -1.4557 -1.3683 -1.5431
 4519TIP3   OH213520   2.137   6.487   4.878  0.1488 -0.4499  0.1424
 4519TIP3    H113521   2.111   6.451   4.963  1.1125 -0.1691  0.5722
 4519TIP3    H213522   2.099   6.427   4.814 -1.2555 -0.2384  0.7315
 4520TIP3   OH213523   6.406   2.587   5.225  0.4202  0.0121 -0.1149
 4520TIP3    H113524   6.457   2.667   5.233 -0.7298  0.7775 -0.2182
 4520TIP3    H213525   6.316   2.617   5.213  0.1422 -1.2649 -1.5619
 4521TIP3   OH213526   4.287   0.564   3.118  0.3172 -0.4245 -0.4330
 4521TIP3    H113527   4.358   0.501   3.124  2.1939  1.3870 -2.1263
 4521TIP3    H213528   4.231   0.531   3.047 -0.4062 -1.6984  0.7051
 4522TIP3   OH213529   0.293   3.507   0.933  0.8198 -0.5334  0.3172
 4522TIP3    H113530   0.368   3.458   0.898  0.6917 -1.6621  1.5405
 4522TIP3    H213531   0.270   3.569   0.863  2.0544 -1.0711 -0.6061
 4523TIP3   OH213532   4.521   0.824   3.059 -0.2080  0.2202 -0.7613
 4523TIP3    H113533   4.466   0.755   3.021  1.1844 -1.6579  0.4465
 4523TIP3    H213534   4.600   0.824   3.004  0.4753 -0.3104  0.1866
 4524TIP3   OH213535   0.061   0.902   1.537  0.2122  0.8876  0.1597
 4524TIP3    H113536   0.007   0.829   1.506 -0.2312  1.2176  0.1565
 4524TIP3    H213537   0.023   0.926   1.622  1.0434  0.3892  0.6964
 4525TIP3   OH213538   2.137   4.990   4.386 -0.4650  0.5491 -0.3711
 4525TIP3    H113539   2.231   4.979   4.371 -0.6835 -1.6463 -0.3312
 4525TIP3    H213540   2.117   4.931   4.457 -1.4921  2.7966  1.3349
 4526TIP3   OH213541   0.831   0.617   0.513 -0.3964  0.3037 -0.4402
 4526TIP3    H113542   0.826   0.681   0.584  0.1896  0.1663 -0.2678
 4526TIP3    H213543   0.886   0.547   0.547 -2.6617 -1.3150  0.1380
 4527TIP3   OH213544   7.022   1.409   0.909 -0.1526 -0.0806  0.0937
 4527TIP3    H113545   7.031   1.446   0.821 -1.3588 -0.1681 -0.0809
 4527TIP3    H213546   6.931   1.423   0.932 -0.0007 -0.6162  1.0921
 4528TIP3   OH213547   1.061   3.505   5.155  0.0332 -0.3382  0.3937
 4528TIP3    H113548   1.037   3.504   5.062 -0.0793 -1.0551  0.4219
 4528TIP3    H213549   1.016   3.429   5.191  0.7320 -0.5335  0.8665
 4529TIP3   OH213550   3.667   4.740   5.569 -0.1227  0.7496  0.1864
 4529TIP3    H113551   3.576   4.765   5.582 -0.3909 -0.3011  0.4236
 4529TIP3    H213552   3.708   4.753   5.655 -0.3879 -0.0945  0.4528
 4530TIP3   OH213553   6.372   1.065   3.617 -0.1140 -1.2617 -0.1974
 4530TIP3    H113554   6.464   1.061   3.593  0.3436 -2.1968  1.5571
 4530TIP3    H213555   6.330   0.996   3.565  0.3703 -1.5642 -0.1926
 4531TIP3   OH213556   2.107   4.483   2.910  0.9495 -0.2885  0.0713
 4531TIP3    H113557   2.115   4.494   3.005  3.0028  2.1464 -0.2733
 4531TIP3    H213558   2.018   4.513   2.891  0.9511  0.4880  1.1297
 4532TIP3   OH213559   1.476   3.891   4.011  0.5735 -0.3092  0.1746
 4532TIP3    H113560   1.501   3.834   3.939  1.6036 -0.3258  0.5336
 4532TIP3    H213561   1.552   3.892   4.069 -0.6516 -1.3149  1.9161
 4533TIP3   OH213562   0.813   3.194   3.162  0.1198  0.5073 -0.3486
 4533TIP3    H113563   0.879   3.179   3.095  0.4446 -0.3224  0.1376
 4533TIP3    H213564   0.776   3.107   3.178 -1.1658  0.9726 -0.6906
 4534TIP3   OH213565   6.837   0.319   2.169 -0.3010  0.1799 -0.3476
 4534TIP3    H113566   6.776   0.283   2.104 -0.1803  1.0263 -0.9472
 4534TIP3    H213567   6.899   0.248   2.185 -0.6901 -0.2475 -0.7012
 4535TIP3   OH213568   5.754   4.826   3.987 -0.8279 -0.4420  0.4825
 4535TIP3    H113569   5.791   4.750   3.942  0.4192 -0.9742  2.2915
 4535TIP3    H213570   5.723   4.883   3.917  0.4607 -1.4987 -1.0059
 4536TIP3   OH213571   3.997   4.189   1.039 -0.2386 -0.5936  0.2477
 4536TIP3    H113572   4.040   4.275   1.045  0.7598 -1.1600  1.9257
 4536TIP3    H213573   3.917   4.206   0.990  1.3007  0.7508 -2.0477
 4537TIP3   OH213574   1.416   3.764   2.216 -0.4845  0.2172  0.0341
 4537TIP3    H113575   1.471   3.759   2.295 -0.8873  0.4062  0.3355
 4537TIP3    H213576   1.377   3.677   2.208 -0.6381  0.2708  0.1903
 4538TIP3   OH213577   1.914   0.350   1.123 -0.0757 -0.4764 -0.1826
 4538TIP3    H113578   1.967   0.381   1.196  0.8042 -0.2669 -0.8882
 4538TIP3    H213579   1.950   0.264   1.102  1.0448  0.2969 -1.6416
 4539TIP3   OH213580   1.186   0.626   0.587 -0.5877  0.2717  0.4905
 4539TIP3    H113581   1.112   0.651   0.642  0.1999  2.5546  0.6177
 4539TIP3    H213582   1.263   0.645   0.640  0.2221  3.2631 -1.5070
 4540TIP3   OH213583   4.510   1.392   3.474 -0.0546 -0.0030 -0.8442
 4540TIP3    H113584   4.531   1.401   3.381 -2.7304 -0.7532 -1.6102
 4540TIP3    H213585   4.527   1.300   3.494 -0.4451 -0.0799 -0.8636
 4541TIP3   OH213586   2.040   5.943   2.615 -0.1889 -0.5093 -0.3097
 4541TIP3    H113587   2.086   5.996   2.679  2.6145  0.9059 -3.2572
 4541TIP3    H213588   1.965   5.996   2.589  0.7002  0.5235 -0.7958
 4542TIP3   OH213589   2.340   4.093   3.527 -0.0029 -0.1148 -0.2881
 4542TIP3    H113590   2.435   4.087   3.522 -0.0800 -3.5593  0.2477
 4542TIP3    H213591   2.320   4.095   3.621 -0.4535 -3.0746 -0.2251
 4543TIP3   OH213592   2.556   3.396   1.970  0.2626  0.0037  0.1338
 4543TIP3    H113593   2.539   3.304   1.987  1.4849 -0.1190  0.8689
 4543TIP3    H213594   2.554   3.437   2.056 -0.2553  0.6627 -0.1847
 4544TIP3   OH213595   3.753   0.132   3.310 -0.0848 -0.5578  0.3388
 4544TIP3    H113596   3.696   0.209   3.314 -0.9978 -1.2257  0.4489
 4544TIP3    H213597   3.702   0.067   3.262  0.4787 -1.2712  0.6910
 4545TIP3   OH213598   6.925   6.367   4.298  0.0183 -0.0644 -0.1030
 4545TIP3    H113599   6.844   6.317   4.313  0.2049 -0.9262 -1.7356
 4545TIP3    H213600   6.994   6.311   4.334 -0.0293  0.3707  0.6908
 4546TIP3   OH213601   1.418   2.636   0.590 -0.0989 -0.1524 -0.1990
 4546TIP3    H113602   1.362   2.698   0.543  1.0109  0.9106 -0.1699
 4546TIP3    H213603   1.475   2.599   0.523  0.5897  0.3713  0.0891
 4547TIP3   OH213604   5.730   3.976   4.023 -0.0836 -0.0090 -0.1521
 4547TIP3    H113605   5.643   3.949   4.052 -0.5190 -0.9173 -2.1330
 4547TIP3    H213606   5.790   3.913   4.063 -0.7703 -1.9268 -1.9839
 4548TIP3   OH213607   5.128   4.757   1.708  0.7833 -0.2616  0.3062
 4548TIP3    H113608   5.056   4.803   1.664 -0.9729 -1.4913  1.7465
 4548TIP3    H213609   5.163   4.821   1.770  0.3514  0.0597  0.2251
 4549TIP3   OH213610   4.030   4.467   2.150 -0.9550 -0.3924 -0.6808
 4549TIP3    H113611   3.947   4.456   2.104 -1.2694 -0.7359 -0.0510
 4549TIP3    H213612   4.078   4.386   2.133 -1.4003 -0.8684  0.2251
 4550TIP3   OH213613   2.202   4.635   0.882 -0.3042  0.5782 -0.1488
 4550TIP3    H113614   2.187   4.638   0.787  0.3835  0.2544 -0.2695
 4550TIP3    H213615   2.281   4.582   0.892 -1.1349 -0.5277  0.7002
 4551TIP3   OH213616   4.378   6.743   3.058  0.1184 -0.0592  0.0741
 4551TIP3    H113617   4.343   6.809   2.999  0.3604  0.1755  0.1900
 4551TIP3    H213618   4.319   6.745   3.134  0.4268  0.4019  0.3101
 4552TIP3   OH213619   2.786   6.513   0.972  0.3572 -0.0127  0.0567
 4552TIP3    H113620   2.855   6.526   0.908  0.5831  0.0380  0.3059
 4552TIP3    H213621   2.788   6.591   1.027  0.0787  0.0058  0.0444
 4553TIP3   OH213622   6.282   2.932   3.455 -0.3361 -0.2093  0.1650
 4553TIP3    H113623   6.292   2.929   3.550  1.4423 -2.5793 -0.0091
 4553TIP3    H213624   6.370   2.950   3.422 -1.0779  1.4620 -1.0723
 4554TIP3   OH213625   6.430   5.058   3.010 -0.2247 -0.0534 -0.1544
 4554TIP3    H113626   6.516   5.045   2.970 -0.1873  0.9154 -0.4084
 4554TIP3    H213627   6.385   5.118   2.952 -0.8058  0.0306  0.3684
 4555TIP3   OH213628   1.872   4.083   0.621 -0.4095 -0.5096  0.1992
 4555TIP3    H113629   1.791   4.104   0.666 -0.3955 -1.4416  0.6741
 4555TIP3    H213630   1.873   4.142   0.545 -0.7335  0.6266  1.0578
 4556TIP3   OH213631   2.388   2.713   4.357  0.1294 -0.0891 -0.1004
 4556TIP3    H113632   2.405   2.737   4.448 -0.8632 -0.7657  0.2739
 4556TIP3    H213633   2.454   2.761   4.307  1.1716 -0.2843  1.0333
 4557TIP3   OH213634   0.761   6.212   3.092  0.3756  0.0062  0.1680
 4557TIP3    H113635   0.812   6.254   3.023 -0.1341 -0.1792 -0.3197
 4557TIP3    H213636   0.679   6.186   3.050 -0.1961  0.4388  0.9790
 4558TIP3   OH213637   5.183   1.476   1.070  0.4440 -0.0478  0.6752
 4558TIP3    H113638   5.275   1.465   1.046 -0.2084 -0.2745 -1.9872
 4558TIP3    H213639   5.158   1.561   1.035 -0.7627 -0.6832 -0.0898
 4559TIP3   OH213640   2.268   1.130   4.848 -0.0430  0.2786 -0.1739
 4559TIP3    H113641   2.291   1.218   4.880  1.2090  0.6917 -2.0523
 4559TIP3    H213642   2.340   1.075   4.878 -0.3285  0.0861  0.1609
 4560TIP3   OH213643   0.874   0.545   1.931 -0.1013  0.3500 -0.0447
 4560TIP3    H113644   0.827   0.520   2.010 -0.8278 -0.4684 -0.7158
 4560TIP3    H213645   0.949   0.486   1.928 -0.5726 -0.2413 -0.4333
 4561TIP3   OH213646   5.637   5.692   3.316 -0.2638  0.2043 -0.2361
 4561TIP3    H113647   5.692   5.630   3.365 -2.2922 -0.6515  1.0653
 4561TIP3    H213648   5.699   5.757   3.283  1.3898  0.1490  2.4444
 4562TIP3   OH213649   3.175   1.881   4.105 -0.4074 -0.1637 -0.2909
 4562TIP3    H113650   3.258   1.928   4.099 -0.3868 -0.2700 -0.9360
 4562TIP3    H213651   3.110   1.948   4.124 -0.3284  0.0810 -0.8766
 4563TIP3   OH213652   3.647   3.013   3.924 -0.3280  0.4286 -0.9660
 4563TIP3    H113653   3.556   2.985   3.911 -0.1860 -1.2241  1.0489
 4563TIP3    H213654   3.642   3.084   3.987 -0.1314 -2.0680  2.1063
 4564TIP3   OH213655   2.992   5.136   2.801  0.0018  0.2546  0.3415
 4564TIP3    H113656   2.999   5.230   2.816  2.6558  0.5604 -2.0455
 4564TIP3    H213657   2.966   5.128   2.710  3.3017 -1.2017 -0.6114
 4565TIP3   OH213658   4.531   1.489   4.626 -0.5080 -0.7501  0.3665
 4565TIP3    H113659   4.595   1.545   4.670  0.1701  0.1902 -1.6723
 4565TIP3    H213660   4.583   1.417   4.591 -0.7625 -0.6421 -0.2392
 4566TIP3   OH213661   1.309   4.483   5.409 -0.2763 -0.0456 -0.3891
 4566TIP3    H113662   1.391   4.448   5.373 -0.8808 -0.4206 -1.4500
 4566TIP3    H213663   1.255   4.405   5.426 -0.5428  0.2148 -0.0199
 4567TIP3   OH213664   6.858   6.102   4.895  0.2468 -0.1761 -0.0913
 4567TIP3    H113665   6.824   6.179   4.850 -1.4144 -0.1954  1.0359
 4567TIP3    H213666   6.813   6.029   4.854  1.1740 -0.4861 -0.5728
 4568TIP3   OH213667   1.333   3.147   5.093  0.2965 -0.0945 -0.1498
 4568TIP3    H113668   1.401   3.085   5.067  3.0679  1.9220  1.6820
 4568TIP3    H213669   1.344   3.221   5.032 -1.3266 -0.3358 -0.7783
 4569TIP3   OH213670   1.066   0.337   1.071  0.1120 -0.4434 -0.1994
 4569TIP3    H113671   1.111   0.336   0.987 -1.2127 -1.3537 -0.9343
 4569TIP3    H213672   0.979   0.302   1.053 -0.4782  0.0628  1.4094
 4570TIP3   OH213673   1.715   5.589   0.223 -0.0796  0.6882  0.1816
 4570TIP3    H113674   1.776   5.662   0.212  1.1822 -0.1114  1.5764
 4570TIP3    H213675   1.768   5.511   0.209 -0.5137 -0.0577  2.3822
 4571TIP3   OH213676   1.668   4.643   5.275  0.0402 -0.0166  0.7594
 4571TIP3    H113677   1.667   4.737   5.291  1.1934 -0.0416  1.0676
 4571TIP3    H213678   1.655   4.604   5.362  3.1249 -0.1259  1.3054
 4572TIP3   OH213679   6.871   6.024   2.483  0.1715  0.2576  0.1923
 4572TIP3    H113680   6.919   6.098   2.445  1.1464 -0.2285  0.4411
 4572TIP3    H213681   6.939   5.962   2.507 -0.6705 -1.0643 -0.7088
 4573TIP3   OH213682   0.285   4.299   1.825 -0.0203 -0.2510  0.5977
 4573TIP3    H113683   0.366   4.293   1.773  0.4024  1.1715  1.0430
 4573TIP3    H213684   0.221   4.249   1.775  0.4928  0.6978 -1.0752
 4574TIP3   OH213685   5.818   0.335   1.472  0.2089 -0.0172  0.1640
 4574TIP3    H113686   5.882   0.402   1.498  0.4208  1.4133 -3.4130
 4574TIP3    H213687   5.750   0.385   1.427 -0.1962 -2.0774 -1.6407
 4575TIP3   OH213688   5.863   5.854   3.258  0.3376  0.0931 -0.3095
 4575TIP3    H113689   5.953   5.829   3.277  0.3081  0.4675  0.3480
 4575TIP3    H213690   5.870   5.906   3.177  0.6281 -0.3872 -0.6022
 4576TIP3   OH213691   2.412   3.201   3.488 -0.2706  0.0134 -0.1300
 4576TIP3    H113692   2.490   3.154   3.459 -0.2612  0.2101 -0.4219
 4576TIP3    H213693   2.348   3.132   3.508  0.1836 -0.1767  0.7146
 4577TIP3   OH213694   5.620   4.154   2.899  0.0852 -0.2405  0.1971
 4577TIP3    H113695   5.591   4.132   2.810  0.0670  1.4336 -0.2620
 4577TIP3    H213696   5.679   4.229   2.887 -0.5538  0.5454  1.6427
 4578TIP3   OH213697   5.714   6.264   0.894 -0.3459  0.2066  0.7281
 4578TIP3    H113698   5.649   6.323   0.855 -0.5310 -0.4876 -0.0372
 4578TIP3    H213699   5.797   6.312   0.888 -0.0332 -0.5256 -2.1230
 4579TIP3   OH213700   4.071   1.953   4.348  0.2785 -0.4982 -0.5196
 4579TIP3    H113701   4.083   2.047   4.340  0.2698 -0.5053 -0.6179
 4579TIP3    H213702   4.150   1.916   4.307 -0.0227 -0.5451 -1.0629
 4580TIP3   OH213703   6.917   3.658   4.051 -0.3123  0.0371  0.3730
 4580TIP3    H113704   6.864   3.688   4.125  1.5406  0.6347  1.5190
 4580TIP3    H213705   6.916   3.563   4.058 -2.1149 -0.0218 -0.2953
 4581TIP3   OH213706   6.721   3.037   3.034  0.0233  0.0396 -0.4591
 4581TIP3    H113707   6.743   3.056   2.943 -0.9426 -0.7512 -0.8780
 4581TIP3    H213708   6.745   2.945   3.046 -0.0419  0.0822  0.0210
 4582TIP3   OH213709   2.834   3.372   5.527  0.4134  0.2589 -0.2936
 4582TIP3    H113710   2.789   3.289   5.510  0.2269  0.0375  1.1130
 4582TIP3    H213711   2.767   3.427   5.569  1.1792  0.2282  1.0293
 4583TIP3   OH213712   3.851   0.075   0.594  0.1744  0.0303  0.2236
 4583TIP3    H113713   3.836  -0.009   0.637  0.5509 -0.9868 -1.5444
 4583TIP3    H213714   3.876   0.134   0.665  0.3193 -1.4528  1.4583
 4584TIP3   OH213715   2.062   0.092   3.552 -0.1594  0.0879 -0.5371
 4584TIP3    H113716   2.016   0.143   3.486 -0.8005 -0.0097 -0.1743
 4584TIP3    H213717   2.146   0.072   3.512  0.5438  2.2919 -0.3137
 4585TIP3   OH213718   3.767   4.051   3.387 -0.1082 -0.2108  0.4303
 4585TIP3    H113719   3.758   4.039   3.292 -0.0497  1.1682  0.2286
 4585TIP3    H213720   3.700   4.116   3.409 -0.0109 -0.3993  1.3087
 4586TIP3   OH213721   6.091   1.710   5.178  0.0624  0.4986  0.1939
 4586TIP3    H113722   6.105   1.722   5.272  1.3587  0.9091 -0.0275
 4586TIP3    H213723   6.135   1.785   5.137 -0.4633  0.3171 -0.7421
 4587TIP3   OH213724   0.743   1.083   2.531  0.8413 -0.2511 -0.1814
 4587TIP3    H113725   0.795   1.161   2.510  0.1546  0.1264 -0.5063
 4587TIP3    H213726   0.748   1.029   2.453 -0.6950  0.5933 -0.9079
 4588TIP3   OH213727   2.526   1.275   1.209  0.7985  0.2978  0.3414
 4588TIP3    H113728   2.465   1.302   1.140 -0.3426  1.5906  1.7972
 4588TIP3    H213729   2.551   1.357   1.252  1.2141 -0.5173  1.6896
 4589TIP3   OH213730   3.788   4.152   3.928  0.0078 -0.4149 -0.0515
 4589TIP3    H113731   3.862   4.188   3.977 -1.5917  1.5134  1.1282
 4589TIP3    H213732   3.763   4.073   3.976  1.4282 -1.2681 -0.6472
 4590TIP3   OH213733   3.627   2.978   1.144 -0.2079  0.0371 -0.5392
 4590TIP3    H113734   3.697   2.946   1.087  0.3885 -0.9621  0.7013
 4590TIP3    H213735   3.638   2.928   1.225  0.8049  3.4134  1.5746
 4591TIP3   OH213736   2.777   2.767   5.246  0.2708  0.1683 -0.2704
 4591TIP3    H113737   2.860   2.725   5.225 -0.6892 -0.7556 -2.5162
 4591TIP3    H213738   2.738   2.789   5.162  0.0864  4.5700  0.6967
 4592TIP3   OH213739   5.372   4.926   2.127  0.1893  1.0134  0.2409
 4592TIP3    H113740   5.458   4.937   2.168  1.0988 -0.1737 -1.2292
 4592TIP3    H213741   5.310   4.937   2.198  1.6557 -0.0263  1.7626
 4593TIP3   OH213742   4.537   0.178   0.250 -0.6947 -0.7685 -0.1726
 4593TIP3    H113743   4.596   0.231   0.304 -2.3913  1.1215 -0.0320
 4593TIP3    H213744   4.557   0.204   0.160 -1.2568 -0.1638 -0.1278
 4594TIP3   OH213745   6.720   0.272   0.014  0.1913 -0.0014  0.1884
 4594TIP3    H113746   6.630   0.266   0.047 -1.3355 -0.2745 -3.5465
 4594TIP3    H213747   6.736   0.365   0.002  0.5121  0.0555  0.9651
 4595TIP3   OH213748   6.955   1.146   1.456 -0.3002  0.0735  0.2946
 4595TIP3    H113749   6.979   1.162   1.548  2.0057  0.1887 -0.2685
 4595TIP3    H213750   6.911   1.226   1.429  2.0015  1.4730  0.4135
 4596TIP3   OH213751   3.512   3.405   0.199  0.2273 -0.1704 -0.1228
 4596TIP3    H113752   3.581   3.393   0.264 -0.1286  1.7666  0.6732
 4596TIP3    H213753   3.540   3.483   0.149  0.3440 -1.4251 -2.1219
 4597TIP3   OH213754   2.203   3.689   1.667  0.2266  0.7199 -0.5746
 4597TIP3    H113755   2.249   3.656   1.744 -0.8353  1.0821  0.2404
 4597TIP3    H213756   2.273   3.721   1.610  1.0554  0.1243  0.0785
 4598TIP3   OH213757   5.407   3.209   5.085 -0.1627  0.0256 -0.6987
 4598TIP3    H113758   5.467   3.279   5.111 -0.9783  1.4905 -2.4695
 4598TIP3    H213759   5.463   3.133   5.068  1.3194  1.4317 -2.6059
 4599TIP3   OH213760   5.760   2.793   3.447 -0.0580  0.1024  0.2382
 4599TIP3    H113761   5.835   2.852   3.457  0.5541 -0.7123  0.6471
 4599TIP3    H213762   5.684   2.850   3.440  0.6898  0.9678 -1.0406
 4600TIP3   OH213763   3.839   0.793   3.112 -0.0124  0.6624 -0.0117
 4600TIP3    H113764   3.797   0.780   3.028 -0.2378  0.5383  0.1196
 4600TIP3    H213765   3.882   0.710   3.131 -1.3840  0.1063  0.7885
 4601TIP3   OH213766   4.691   1.998   1.087 -0.2308  0.2198 -0.2229
 4601TIP3    H113767   4.639   2.052   1.146  0.6117 -0.5448  1.2662
 4601TIP3    H213768   4.658   2.019   0.999 -1.7978  1.0571  0.5407
 4602TIP3   OH213769   2.103   1.929   0.002  0.0464 -0.3852  0.2679
 4602TIP3    H113770   2.019   1.889   0.025 -0.5869  2.4014  3.6878
 4602TIP3    H213771   2.164   1.894   0.067  0.5692  0.5171  0.2813
 4603TIP3   OH213772   3.118   5.045   4.222  0.2918  0.0213  0.5567
 4603TIP3    H113773   3.026   5.068   4.211  0.2669 -1.0726 -2.7177
 4603TIP3    H213774   3.164   5.128   4.220 -0.4259  0.4197 -1.5036
 4604TIP3   OH213775   6.721   6.494   3.391  0.4805  0.8639  0.0588
 4604TIP3    H113776   6.748   6.556   3.323  1.9335  0.6950  0.4439
 4604TIP3    H213777   6.802   6.474   3.438 -0.6518  1.7297  2.4778
 4605TIP3   OH213778   3.283   0.665   1.007 -0.4010  0.4145  0.5197
 4605TIP3    H113779   3.269   0.741   1.064  0.5547  0.0509  1.2709
 4605TIP3    H213780   3.363   0.685   0.960 -0.9833  0.5410 -0.4430
 4606TIP3   OH213781   2.302   2.246   2.460 -0.4196 -0.2871 -0.0557
 4606TIP3    H113782   2.356   2.214   2.388 -1.4149 -0.6945 -0.6551
 4606TIP3    H213783   2.305   2.175   2.525 -2.1315 -1.4328 -1.1241
 4607TIP3   OH213784   5.642   2.556   3.024  0.4467 -0.3183  0.0270
 4607TIP3    H113785   5.573   2.523   3.082  0.3715 -2.3123 -1.1159
 4607TIP3    H213786   5.599   2.563   2.938  0.5774  2.5029  0.1156
 4608TIP3   OH213787   5.195   5.778   0.090 -0.0415  0.0607 -0.2360
 4608TIP3    H113788   5.125   5.735   0.041 -0.0353 -0.3735  0.1297
 4608TIP3    H213789   5.242   5.830   0.025  2.0348 -3.0260 -1.4163
 4609TIP3   OH213790   0.511   3.857   2.149  0.8607 -0.5228  0.0142
 4609TIP3    H113791   0.496   3.951   2.157  1.4314 -0.5326  1.6900
 4609TIP3    H213792   0.599   3.844   2.186  1.8316 -1.4269 -2.3781
 4610TIP3   OH213793   6.882   1.259   3.236  0.3471 -0.1440  0.1092
 4610TIP3    H113794   6.975   1.239   3.236 -0.0531 -2.3841  1.4813
 4610TIP3    H213795   6.877   1.354   3.243  2.4875  0.1629 -1.7370
 4611TIP3   OH213796   7.036   3.222   4.833  0.5258  0.6488  0.1077
 4611TIP3    H113797   7.045   3.129   4.810  1.8104  0.5717  0.8058
 4611TIP3    H213798   6.967   3.254   4.775  0.5063 -0.5892 -0.6048
 4612TIP3   OH213799   2.874   6.745   2.303  0.1742 -0.3581  0.0182
 4612TIP3    H113800   2.951   6.739   2.359  0.4102  0.4253 -0.2096
 4612TIP3    H213801   2.869   6.660   2.259 -0.1017 -1.0348  1.3120
 4613TIP3   OH213802   6.693   6.751   1.413 -0.1172 -0.0254 -0.1222
 4613TIP3    H113803   6.624   6.786   1.356 -0.9646 -0.4626  0.6085
 4613TIP3    H213804   6.651   6.680   1.461  0.8676 -0.3387  0.3059
 4614TIP3   OH213805   1.436   0.908   4.494 -0.1570  0.0928 -0.2949
 4614TIP3    H113806   1.345   0.934   4.506  0.0091 -0.0777  1.5939
 4614TIP3    H213807   1.462   0.872   4.578  1.8943  0.8688 -0.5362
 4615TIP3   OH213808   4.995   5.242   4.096  1.2158  0.0433  0.2335
 4615TIP3    H113809   4.994   5.321   4.149  0.1841  0.3566 -0.2164
 4615TIP3    H213810   4.913   5.197   4.119 -0.6889  1.4930 -2.9041
 4616TIP3   OH213811   2.577   4.691   0.626  0.6755  0.0567 -0.4726
 4616TIP3    H113812   2.537   4.608   0.602  1.3266 -0.8129  1.2396
 4616TIP3    H213813   2.628   4.717   0.550  0.1034 -0.8718 -1.1928
 4617TIP3   OH213814   6.579   6.145   1.464 -0.3132 -0.1410  0.4070
 4617TIP3    H113815   6.661   6.168   1.420 -0.5642 -2.5192 -1.5398
 4617TIP3    H213816   6.512   6.195   1.419 -0.0868  0.9057  1.2078
 4618TIP3   OH213817   3.095   3.843   4.751 -0.5729  0.0354 -0.0112
 4618TIP3    H113818   3.118   3.860   4.842  0.2262  1.1541 -0.3950
 4618TIP3    H213819   3.121   3.752   4.737 -1.3297 -0.3552  1.0523
 4619TIP3   OH213820   2.120   6.710   1.150 -0.2350 -0.0950  0.0579
 4619TIP3    H113821   2.135   6.623   1.186  0.4669  0.1998  0.5199
 4619TIP3    H213822   2.191   6.763   1.188 -0.4161  0.5785 -0.5343
 4620TIP3   OH213823   1.572   6.482   5.144 -0.3077  0.0159  0.3610
 4620TIP3    H113824   1.618   6.544   5.087 -1.3725  0.7474  0.2675
 4620TIP3    H213825   1.572   6.399   5.095 -0.9236  0.5503 -0.5721
 4621TIP3   OH213826   5.976   6.778   3.049 -0.2704  0.7608 -0.1183
 4621TIP3    H113827   6.038   6.816   2.987 -0.5024  0.3805 -0.5831
 4621TIP3    H213828   6.031   6.749   3.122 -0.0264  1.4543 -0.0141
 4622TIP3   OH213829   5.530   5.260   4.086 -0.2666 -0.3993 -0.6974
 4622TIP3    H113830   5.445   5.262   4.131 -0.2892 -0.2597 -0.7458
 4622TIP3    H213831   5.508   5.232   3.997 -0.3661  0.4174 -0.9363
 4623TIP3   OH213832   6.698   6.433   4.718  0.5484 -0.6035  0.3474
 4623TIP3    H113833   6.636   6.364   4.744  1.8238 -2.0699 -0.3303
 4623TIP3    H213834   6.689   6.438   4.623 -0.1546  0.8148  0.4710
 4624TIP3   OH213835   1.769   6.021   2.290  0.1286  0.3221  0.0008
 4624TIP3    H113836   1.744   6.105   2.331  0.1158  0.1450  0.3630
 4624TIP3    H213837   1.843   6.043   2.234 -0.8096  0.8664 -1.0938
 4625TIP3   OH213838   4.038   1.904   2.260 -0.6609 -0.4571 -0.2341
 4625TIP3    H113839   4.089   1.984   2.248  3.0688 -2.1206  2.4754
 4625TIP3    H213840   3.982   1.922   2.335  0.4087 -0.4028  0.5806
 4626TIP3   OH213841   4.289   3.448   4.727  0.3332  0.3163  0.6650
 4626TIP3    H113842   4.277   3.410   4.640 -1.8913 -1.1153  1.4864
 4626TIP3    H213843   4.357   3.394   4.768 -0.9548 -1.2108  0.9055
 4627TIP3   OH213844   4.665   5.051   0.362 -0.0546 -0.0073  0.0025
 4627TIP3    H113845   4.635   4.973   0.315  0.2220  0.0322 -0.2499
 4627TIP3    H213846   4.663   5.026   0.454  1.5087 -0.8620 -0.1556
 4628TIP3   OH213847   2.162   4.076   0.242 -0.1349 -0.2878  0.2966
 4628TIP3    H113848   2.223   4.002   0.241 -0.7571 -0.8151 -1.2235
 4628TIP3    H213849   2.198   4.139   0.180 -0.4324 -0.0055  0.4024
 4629TIP3   OH213850   6.724   6.191   4.409  0.0070  0.2767  0.1998
 4629TIP3    H113851   6.789   6.203   4.479 -1.9332  1.5141  1.8919
 4629TIP3    H213852   6.655   6.139   4.449 -0.4712 -0.2863 -1.3063
 4630TIP3   OH213853   3.147   5.755   2.561 -0.2224  0.2239  0.7574
 4630TIP3    H113854   3.097   5.755   2.642 -4.0430 -1.4886 -1.3293
 4630TIP3    H213855   3.159   5.662   2.539 -2.1248  0.5191 -2.0740
 4631TIP3   OH213856   3.094   2.506   2.005 -0.0652  0.1597 -0.0853
 4631TIP3    H113857   3.181   2.472   2.029 -0.1556 -0.5667 -0.7427
 4631TIP3    H213858   3.048   2.515   2.089  0.6101  0.4565  0.2597
 4632TIP3   OH213859   6.814   3.042   5.809 -0.0425 -0.1582 -0.6299
 4632TIP3    H113860   6.781   3.120   5.765  0.3411  0.1450 -0.3866
 4632TIP3    H213861   6.762   3.036   5.889 -0.3704 -0.4040 -0.8574
 4633TIP3   OH213862   0.983   6.519   3.469  0.7296  0.3780  0.0897
 4633TIP3    H113863   0.896   6.538   3.506  0.2455  1.1640 -1.3455
 4633TIP3    H213864   1.028   6.604   3.471 -0.2031  1.1303 -3.2344
 4634TIP3   OH213865   6.437   3.755   2.108  0.2961 -0.7108  0.2468
 4634TIP3    H113866   6.360   3.781   2.057  0.5858 -1.1462 -0.4128
 4634TIP3    H213867   6.412   3.773   2.199  0.4149  1.7511 -0.1366
 4635TIP3   OH213868   2.665   4.657   3.234 -0.4068 -0.1756 -0.0591
 4635TIP3    H113869   2.737   4.680   3.176  0.0267 -3.0085 -0.7816
 4635TIP3    H213870   2.586   4.676   3.183 -0.0734 -0.8949 -0.8546
 4636TIP3   OH213871   0.177   3.968   4.050  0.0521 -0.3938  0.4784
 4636TIP3    H113872   0.226   4.050   4.049  0.0160 -0.3759 -0.2427
 4636TIP3    H213873   0.215   3.918   4.122  0.6885 -0.1091  0.3454
 4637TIP3   OH213874   6.605   3.126   5.191  0.5636  0.0173  0.1670
 4637TIP3    H113875   6.648   3.075   5.260  2.3225  2.7201  1.2152
 4637TIP3    H213876   6.651   3.101   5.111  1.3034 -0.1522  0.6328
 4638TIP3   OH213877   5.715   3.418   1.467  0.0580 -0.3386  0.6348
 4638TIP3    H113878   5.797   3.379   1.497 -0.0971 -0.5515  0.7773
 4638TIP3    H213879   5.648   3.354   1.487 -0.3158  0.3425  1.6334
 4639TIP3   OH213880   0.232   1.625   5.322 -0.8464  0.0051 -0.0675
 4639TIP3    H113881   0.260   1.544   5.280 -0.1336 -0.0522  0.5116
 4639TIP3    H213882   0.144   1.640   5.288  0.1017  0.5955 -2.5813
 4640TIP3   OH213883   2.186   2.208   3.297 -0.4496 -0.3702 -0.1481
 4640TIP3    H113884   2.222   2.273   3.236 -0.3277 -1.0032 -0.7515
 4640TIP3    H213885   2.192   2.125   3.251 -0.1343 -0.8967  0.8173
 4641TIP3   OH213886   4.871   4.359   1.128  0.0913  0.1825 -0.4511
 4641TIP3    H113887   4.835   4.388   1.044 -0.7015 -0.6020 -0.3909
 4641TIP3    H213888   4.880   4.264   1.119 -0.5074  0.0250  0.5427
 4642TIP3   OH213889   1.925   4.685   4.713 -0.4090 -0.3375  0.3620
 4642TIP3    H113890   1.898   4.646   4.796  0.1363  0.9396  1.1718
 4642TIP3    H213891   2.018   4.667   4.706 -0.7080 -1.6136 -0.6636
 4643TIP3   OH213892   4.417   3.238   3.744 -0.3723 -0.2807 -0.5825
 4643TIP3    H113893   4.457   3.224   3.830 -1.3938  1.4273  0.2388
 4643TIP3    H213894   4.483   3.283   3.693  0.1964 -1.1974 -0.6817
 4644TIP3   OH213895   5.999   6.444   4.344  0.4583  0.0396  0.6919
 4644TIP3    H113896   6.077   6.423   4.292 -0.5355 -1.5893 -0.2393
 4644TIP3    H213897   6.034   6.486   4.422  2.0131  2.9227 -1.3419
 4645TIP3   OH213898   5.433   5.632   3.559  0.1473  0.4584  0.5285
 4645TIP3    H113899   5.389   5.562   3.510  0.2084  2.0345 -1.9499
 4645TIP3    H213900   5.369   5.703   3.561  1.1248  1.3502  0.4743
 4646TIP3   OH213901   2.794   5.057   3.871 -0.3293  0.3557  0.4980
 4646TIP3    H113902   2.739   5.014   3.807  1.7328  0.0059 -1.1540
 4646TIP3    H213903   2.814   4.988   3.935 -1.8172  0.5123  1.1589
 4647TIP3   OH213904   1.088   0.662   4.708 -0.1006 -0.2130 -0.4605
 4647TIP3    H113905   1.029   0.736   4.691 -1.4062 -1.0639  0.2019
 4647TIP3    H213906   1.038   0.604   4.765  0.9861 -1.5022 -0.7698
 4648TIP3   OH213907   0.225   1.574   2.158  0.1313 -0.2687 -0.2609
 4648TIP3    H113908   0.142   1.550   2.198  0.7119 -0.3637  0.9110
 4648TIP3    H213909   0.261   1.491   2.127  0.1170 -0.3227 -0.1329
 4649TIP3   OH213910   5.156   2.155   4.487  0.1887  0.1799  0.5322
 4649TIP3    H113911   5.157   2.179   4.394 -0.7559 -0.0461  0.4535
 4649TIP3    H213912   5.247   2.130   4.507  0.8979  2.3066  0.2245
 4650TIP3   OH213913   1.128   1.038   5.548 -0.0437  0.4274 -0.2005
 4650TIP3    H113914   1.218   1.042   5.515 -0.0585  1.0582 -0.1663
 4650TIP3    H213915   1.132   1.076   5.635 -0.4102  0.7814 -0.3357
 4651TIP3   OH213916   0.326   2.854   2.870  0.0986  0.3104 -0.3296
 4651TIP3    H113917   0.301   2.905   2.793 -1.6639 -1.0988 -0.7389
 4651TIP3    H213918   0.274   2.891   2.941  0.5849  0.6032 -0.1188
 4652TIP3   OH213919   3.031   5.199   3.925  0.1616  0.4558  0.6271
 4652TIP3    H113920   2.951   5.149   3.910  0.9184 -0.9422  1.0976
 4652TIP3    H213921   3.005   5.272   3.981 -1.0177  0.7969 -0.3272
 4653TIP3   OH213922   3.980   1.918   0.457 -0.0410 -0.4297  0.3693
 4653TIP3    H113923   3.985   2.009   0.485 -0.9629 -0.3188  0.1962
 4653TIP3    H213924   3.992   1.921   0.362  0.4056 -0.5364  0.4220
 4654TIP3   OH213925   3.668   1.144   2.877  0.7174 -0.4809 -0.5695
 4654TIP3    H113926   3.662   1.195   2.797  0.0483 -0.5404 -0.5669
 4654TIP3    H213927   3.714   1.200   2.939  1.7589 -0.6590 -1.1670
 4655TIP3   OH213928   2.944   6.118   4.833 -0.5302 -0.7662  0.0038
 4655TIP3    H113929   2.863   6.140   4.879 -0.6009  0.1897 -0.5356
 4655TIP3    H213930   3.014   6.137   4.895 -0.7053 -1.4618  0.4234
 4656TIP3   OH213931   2.956   0.576   0.018 -0.0208  0.0695  0.3335
 4656TIP3    H113932   2.936   0.569   0.112 -1.2246  0.6469  0.1403
 4656TIP3    H213933   2.873   0.558  -0.025  0.1893  1.2045 -0.5822
 4657TIP3   OH213934   5.834   6.086   4.229  0.3769  0.1487 -0.2612
 4657TIP3    H113935   5.836   6.069   4.135  2.0979  1.8854 -0.6125
 4657TIP3    H213936   5.773   6.159   4.238 -0.6140 -0.6995  0.1560
 4658TIP3   OH213937   5.904   4.722   5.542 -0.3231 -0.3540 -0.7247
 4658TIP3    H113938   5.827   4.671   5.516 -1.4014 -0.7150  2.6323
 4658TIP3    H213939   5.873   4.813   5.543 -1.0050 -0.5601  1.2449
 4659TIP3   OH213940   1.938   4.956   4.604 -0.3191 -0.3355  0.7017
 4659TIP3    H113941   1.889   5.024   4.649 -0.5789 -0.0371 -0.0130
 4659TIP3    H213942   1.903   4.874   4.639  0.6092 -0.1187  2.2038
 4660TIP3   OH213943   1.662   4.685   0.833  0.1922 -0.2319 -0.4666
 4660TIP3    H113944   1.648   4.591   0.839 -2.1649  0.0475 -0.6982
 4660TIP3    H213945   1.693   4.710   0.920 -1.5165 -0.9046  0.3707
 4661TIP3   OH213946   6.523   0.809   3.877 -0.6163 -0.1097 -0.0094
 4661TIP3    H113947   6.443   0.799   3.826 -0.4926 -1.9652  0.0612
 4661TIP3    H213948   6.508   0.887   3.931 -2.9580 -1.1120  0.9558
 4662TIP3   OH213949   6.123   0.617   2.400 -0.2230  0.3726  0.2869
 4662TIP3    H113950   6.051   0.668   2.363  0.4516 -0.0601 -1.7554
 4662TIP3    H213951   6.196   0.679   2.405 -0.4950  0.6142  1.6412
 4663TIP3   OH213952   5.163   0.392   3.795 -0.6396  0.0744 -0.3575
 4663TIP3    H113953   5.179   0.459   3.862  1.3534  0.0853 -0.7652
 4663TIP3    H213954   5.136   0.315   3.845  1.1463 -0.0283  0.5563
 4664TIP3   OH213955   2.468   1.922   3.561 -0.7796 -0.0457 -0.0011
 4664TIP3    H113956   2.376   1.904   3.540 -0.7418 -1.3131  0.8358
 4664TIP3    H213957   2.467   1.947   3.653 -0.2659 -0.2321  0.0550
 4665TIP3   OH213958   5.252   2.466   4.807 -0.2750 -0.4286  0.1964
 4665TIP3    H113959   5.275   2.513   4.727 -1.0436 -2.2887 -1.2127
 4665TIP3    H213960   5.332   2.418   4.830 -0.5021 -1.1386 -0.4296
 4666TIP3   OH213961   4.217   2.757   4.936 -0.4523  0.3649  0.6884
 4666TIP3    H113962   4.187   2.673   4.902 -0.7343  0.4490  0.7281
 4666TIP3    H213963   4.180   2.822   4.877 -0.4522  0.4755  0.8093
 4667TIP3   OH213964   0.509   0.486   4.191  0.1952  0.1202  0.1022
 4667TIP3    H113965   0.513   0.524   4.279  2.9595  0.1945  0.0247
 4667TIP3    H213966   0.504   0.562   4.133 -0.1779  0.1199  0.1294
 4668TIP3   OH213967   2.946   1.036   5.208  0.3887 -0.5588 -0.3826
 4668TIP3    H113968   2.851   1.040   5.205  0.3524 -0.0728  0.6816
 4668TIP3    H213969   2.966   1.019   5.301  1.3551  0.8525 -0.2935
 4669TIP3   OH213970   6.819   6.211   3.306  0.8530 -0.5999  0.5814
 4669TIP3    H113971   6.746   6.271   3.323  0.7072 -0.0963 -1.5811
 4669TIP3    H213972   6.778   6.134   3.269  1.3585 -0.6015  0.0206
 4670TIP3   OH213973   3.794   6.608   3.720 -0.1616 -0.2112  0.1048
 4670TIP3    H113974   3.771   6.604   3.627 -1.8153  1.4689  0.3860
 4670TIP3    H213975   3.780   6.699   3.744  0.5543 -0.5486  1.9495
 4671TIP3   OH213976   6.593   2.248   4.677  0.5405  0.3899 -0.5978
 4671TIP3    H113977   6.528   2.190   4.717  0.9032  2.3557  3.3164
 4671TIP3    H213978   6.542   2.319   4.640  0.3075  0.8133  0.4963
 4672TIP3   OH213979   6.427   4.027   3.603  0.8562 -0.3639 -0.6814
 4672TIP3    H113980   6.433   4.008   3.697 -0.9727  0.8812 -0.2632
 4672TIP3    H213981   6.355   3.972   3.573 -0.2238  1.0924 -0.8035
 4673TIP3   OH213982   0.324   0.053   0.824 -0.0472  0.1764  0.1486
 4673TIP3    H113983   0.343  -0.032   0.785  1.2905  0.5884 -0.1469
 4673TIP3    H213984   0.253   0.089   0.771 -0.1011 -0.4296 -0.1938
 4674TIP3   OH213985   0.142   0.160   0.234  0.5116  0.0474  0.4213
 4674TIP3    H113986   0.231   0.148   0.268  1.8851  1.3508 -2.3088
 4674TIP3    H213987   0.085   0.121   0.300  3.0415 -0.1401  2.6745
 4675TIP3   OH213988   4.745   4.342   2.704  0.0242 -0.4227 -0.2253
 4675TIP3    H113989   4.796   4.262   2.696  1.4140  0.5857 -2.3507
 4675TIP3    H213990   4.727   4.369   2.614  1.0490  2.4670  0.3000
 4676TIP3   OH213991   0.209   0.646   4.267  0.2163  0.0036  0.2227
 4676TIP3    H113992   0.254   0.565   4.291 -0.9010 -0.5072  0.6629
 4676TIP3    H213993   0.203   0.642   4.171  1.1313  0.1090  0.1499
 4677TIP3   OH213994   3.490   3.162   2.600  0.2902 -0.3893 -0.7207
 4677TIP3    H113995   3.540   3.144   2.680 -0.0301 -1.7837 -0.8277
 4677TIP3    H213996   3.407   3.117   2.612 -0.3424  0.5931 -1.2401
 4678TIP3   OH213997   3.131   0.690   5.434  0.5238 -0.3995 -0.2647
 4678TIP3    H113998   3.215   0.711   5.392  0.7138  1.1598  0.8303
 4678TIP3    H213999   3.104   0.609   5.392  1.6802  0.0295 -1.9660
 4679TIP3   OH214000   5.027   5.630   3.735  0.4175  0.0984  0.5968
 4679TIP3    H114001   5.084   5.569   3.781  0.7810  0.3160  0.4322
 4679TIP3    H214002   5.086   5.691   3.691  0.1157 -1.1765 -1.6778
 4680TIP3   OH214003   4.440   2.604   4.107  0.0652 -0.6969 -0.0813
 4680TIP3    H114004   4.443   2.574   4.198 -2.2200 -0.0379  0.2596
 4680TIP3    H214005   4.372   2.551   4.066  0.4554 -0.3754 -1.1941
 4681TIP3   OH214006   4.622   4.539   4.219 -0.0186 -0.6439  0.5252
 4681TIP3    H114007   4.697   4.542   4.278 -0.2218 -2.2569  0.9090
 4681TIP3    H214008   4.585   4.451   4.231 -1.1135 -0.3872 -0.7115
 4682TIP3   OH214009   1.518   0.596   5.052 -0.3057 -0.1551  0.4115
 4682TIP3    H114010   1.524   0.660   5.122 -0.3154  1.2677 -0.8418
 4682TIP3    H214011   1.552   0.515   5.091  0.3371  0.7594  1.8350
 4683TIP3   OH214012   1.629   3.453   3.483 -0.3734  0.2999 -0.1077
 4683TIP3    H114013   1.646   3.403   3.403 -0.2967 -2.5583  1.5667
 4683TIP3    H214014   1.712   3.496   3.502  0.1847 -0.5273 -0.5943
 4684TIP3   OH214015   2.460   0.445   0.462  0.1291  0.0101  0.1218
 4684TIP3    H114016   2.447   0.453   0.368  2.0946 -0.3538 -0.2154
 4684TIP3    H214017   2.546   0.405   0.472  0.9807  2.0998  2.1103
 4685TIP3   OH214018   1.974   1.896   3.638 -0.0806 -0.1366 -0.1006
 4685TIP3    H114019   2.019   1.816   3.667  1.3028  1.0785  1.3043
 4685TIP3    H214020   1.909   1.866   3.575  0.2680 -2.3896  0.5355
 4686TIP3   OH214021   7.033   5.720   5.569 -0.6941 -0.1842 -0.5771
 4686TIP3    H114022   6.950   5.734   5.612 -1.7324  0.6180 -2.6858
 4686TIP3    H214023   7.032   5.627   5.545 -1.4203  0.0244 -1.3985
 4687TIP3   OH214024   4.317   6.012   1.606 -0.1051 -0.0232 -0.8547
 4687TIP3    H114025   4.241   6.047   1.560 -1.1320 -0.4508  0.4302
 4687TIP3    H214026   4.330   5.925   1.568 -0.5824 -0.1420 -0.7632
 4688TIP3   OH214027   5.296   3.428   1.097 -0.4818  0.3255  0.1218
 4688TIP3    H114028   5.211   3.436   1.053 -0.4417  0.5059  0.0786
 4688TIP3    H214029   5.328   3.517   1.105  0.1734  0.1935 -0.7901
 4689TIP3   OH214030   1.737   6.069   4.089  0.0680 -0.1063 -0.6540
 4689TIP3    H114031   1.746   6.155   4.048 -0.2109  0.5150  0.5329
 4689TIP3    H214032   1.793   6.012   4.037  0.4023  0.8260 -1.3564
 4690TIP3   OH214033   1.149   5.653   1.981 -0.0302 -0.2474  0.0312
 4690TIP3    H114034   1.185   5.736   2.010  0.1090  0.0960 -1.0636
 4690TIP3    H214035   1.081   5.677   1.918 -1.1526 -0.9257  0.9372
 4691TIP3   OH214036   4.999   4.912   2.026 -0.4754  0.1710  0.1626
 4691TIP3    H114037   5.063   4.983   2.027 -1.9238  1.5394  0.2147
 4691TIP3    H214038   5.027   4.853   2.095  0.6787  0.7763  0.2409
 4692TIP3   OH214039   0.501   3.107   0.193 -0.7787  0.7215 -0.0736
 4692TIP3    H114040   0.512   3.016   0.165 -0.8517  1.0048 -1.0529
 4692TIP3    H214041   0.478   3.154   0.113 -0.7340  1.6038  0.4227
 4693TIP3   OH214042   0.852   4.143   5.367  1.2140 -0.2241 -0.0781
 4693TIP3    H114043   0.939   4.113   5.392  1.4174 -0.8211 -1.4148
 4693TIP3    H214044   0.850   4.134   5.272 -0.4387 -0.5840 -0.0389
 4694TIP3   OH214045   2.381   2.482   4.180 -0.3852  0.4368 -0.5967
 4694TIP3    H114046   2.413   2.548   4.241  0.9399  1.1241 -1.9688
 4694TIP3    H214047   2.460   2.439   4.147 -1.2012 -2.1065  0.4631
 4695TIP3   OH214048   3.166   5.535   1.878 -0.1568 -0.1198  0.2653
 4695TIP3    H114049   3.105   5.460   1.876  1.6532 -1.8009  2.4929
 4695TIP3    H214050   3.122   5.599   1.935  0.0568 -1.3130  1.8575
 4696TIP3   OH214051   2.787   1.285   3.446  0.1165  0.4838 -0.0342
 4696TIP3    H114052   2.810   1.283   3.353  0.6158 -1.1680  0.1009
 4696TIP3    H214053   2.822   1.369   3.477  1.7238  0.1738 -0.9110
 4697TIP3   OH214054   5.896   1.133   3.081 -0.4742  0.3305 -0.8410
 4697TIP3    H114055   5.985   1.120   3.049 -0.5514 -0.0369 -0.9117
 4697TIP3    H214056   5.853   1.182   3.011 -0.6797 -0.5858 -1.3650
 4698TIP3   OH214057   6.029   5.331   2.848  0.5554  0.0683 -0.1455
 4698TIP3    H114058   6.038   5.410   2.795 -1.1416 -0.0069 -0.6128
 4698TIP3    H214059   5.977   5.272   2.794 -1.0575 -0.0960  1.4754
 4699TIP3   OH214060   6.980   2.671   3.417  0.4277  0.1751  0.6947
 4699TIP3    H114061   7.019   2.743   3.367 -3.0398  2.4085  0.8987
 4699TIP3    H214062   6.887   2.692   3.422 -0.6509 -3.8365  1.7209
 4700TIP3   OH214063   1.420   0.840   3.761 -0.1393 -0.1095 -0.4753
 4700TIP3    H114064   1.371   0.868   3.839  0.4773 -1.3551  0.4029
 4700TIP3    H214065   1.512   0.849   3.786  0.0869  0.6625 -1.5236
 4701TIP3   OH214066   2.032   3.200   3.113  0.7368  0.3255 -0.2736
 4701TIP3    H114067   2.005   3.247   3.034 -0.7083  1.0865  0.6419
 4701TIP3    H214068   2.075   3.266   3.167  0.1455  0.2339  0.3216
 4702TIP3   OH214069   5.638   0.602   4.671 -0.1355 -0.2306 -0.5138
 4702TIP3    H114070   5.685   0.658   4.734 -1.5171 -0.1628  0.5132
 4702TIP3    H214071   5.624   0.658   4.595 -0.5633  0.5032  0.0841
 4703TIP3   OH214072   2.295   4.133   5.366  0.2012 -0.1456 -0.5408
 4703TIP3    H114073   2.337   4.053   5.397  0.5426  0.2870  0.1636
 4703TIP3    H214074   2.348   4.162   5.293  0.9011  0.1700  0.0789
 4704TIP3   OH214075   4.591   3.746   5.617  0.0437  0.3481  0.0871
 4704TIP3    H114076   4.588   3.687   5.541 -1.7874  0.6858 -0.1411
 4704TIP3    H214077   4.542   3.823   5.589  0.1229  0.8635  1.3190
 4705TIP3   OH214078   0.599   1.590   1.203 -0.7650 -0.4877  0.1200
 4705TIP3    H114079   0.545   1.564   1.128 -1.7485  0.5474  0.4430
 4705TIP3    H214080   0.561   1.673   1.233  0.7715  0.0843  0.6096
 4706TIP3   OH214081   3.818   6.071   1.068  0.1996  0.4305  0.9203
 4706TIP3    H114082   3.869   6.091   0.990  0.3517 -1.6139  0.4255
 4706TIP3    H214083   3.739   6.125   1.060  0.6736  0.9956 -0.1267
 4707TIP3   OH214084   4.808   4.722   2.323 -0.1834  0.0888  0.4720
 4707TIP3    H114085   4.794   4.775   2.245  1.6743  0.2397  0.1944
 4707TIP3    H214086   4.853   4.644   2.291 -0.4346 -0.3883  1.2445
 4708TIP3   OH214087   0.886   3.953   1.177 -1.0064  0.1182  0.3406
 4708TIP3    H114088   0.962   4.009   1.194 -2.0045  1.4646  0.4780
 4708TIP3    H214089   0.888   3.888   1.247 -2.0434  2.3714  2.6078
 4709TIP3   OH214090   0.694   0.910   2.957  0.0367  0.0588  0.4145
 4709TIP3    H114091   0.713   0.953   3.041 -1.1702 -0.6576  1.0754
 4709TIP3    H214092   0.653   0.827   2.981 -2.1430  0.6963 -0.8745
 4710TIP3   OH214093   5.056   3.628   0.253  0.1021  0.3782  0.0201
 4710TIP3    H114094   5.126   3.692   0.240  1.6659 -0.8313  1.8318
 4710TIP3    H214095   4.976   3.679   0.257  0.8695  1.8434 -1.9629
 4711TIP3   OH214096   4.407   2.800   1.549  0.2131 -0.2971  0.5145
 4711TIP3    H114097   4.312   2.788   1.553  0.0260  0.2838 -1.4976
 4711TIP3    H214098   4.440   2.754   1.627 -1.6980 -0.4853  1.2546
 4712TIP3   OH214099   6.345   1.781   3.094  0.4610  0.7436 -0.0545
 4712TIP3    H114100   6.296   1.864   3.099  0.7806  0.9188  0.1863
 4712TIP3    H214101   6.424   1.796   3.147  0.2044  0.0655  0.5477
 4713TIP3   OH214102   3.756   5.317   4.154 -0.2964  0.3493  0.2867
 4713TIP3    H114103   3.780   5.404   4.187 -1.7361  0.2799  1.5769
 4713TIP3    H214104   3.824   5.297   4.089  1.8385  1.0928  2.1729
 4714TIP3   OH214105   2.845   2.333   2.056 -0.0526  0.3195  0.3574
 4714TIP3    H114106   2.870   2.357   1.966 -1.3421 -0.9065 -0.3581
 4714TIP3    H214107   2.870   2.241   2.064  1.0031  0.6959  1.6399
 4715TIP3   OH214108   3.937   0.327   1.501  0.0280  0.1659  0.2585
 4715TIP3    H114109   3.871   0.271   1.542 -0.5969  1.9554  1.8463
 4715TIP3    H214110   3.915   0.416   1.530  2.9125  0.8787  0.5928
 4716TIP3   OH214111   6.948   1.345   4.340 -0.4059 -0.1914  0.1515
 4716TIP3    H114112   6.988   1.410   4.397  0.8865 -2.3077  1.8038
 4716TIP3    H214113   6.856   1.341   4.368  0.1757 -1.0837  2.0384
 4717TIP3   OH214114   3.957   6.100   4.290 -0.0918  0.5861 -0.2643
 4717TIP3    H114115   4.010   6.152   4.231  1.0362  1.0682  1.1237
 4717TIP3    H214116   3.877   6.152   4.303  0.6630  1.5963  0.4523
 4718TIP3   OH214117   4.554   3.590   4.273 -0.0616  0.3468  0.1636
 4718TIP3    H114118   4.555   3.566   4.366  0.7307 -2.9310 -0.5630
 4718TIP3    H214119   4.463   3.610   4.253 -0.7766 -1.7748  1.0672
 4719TIP3   OH214120   7.050   2.710   2.242 -0.0912  0.6531 -0.0279
 4719TIP3    H114121   7.074   2.761   2.164 -0.2152  0.7957  0.0244
 4719TIP3    H214122   6.973   2.756   2.277 -0.8309 -0.1487 -0.5512
 4720TIP3   OH214123   0.539   0.130   2.558 -0.3130  0.3175  0.1196
 4720TIP3    H114124   0.479   0.058   2.538  1.4627 -1.1121 -0.2865
 4720TIP3    H214125   0.497   0.207   2.520 -0.0365 -1.2570 -3.8074
 4721TIP3   OH214126   6.017   5.914   0.421  1.1555  0.7799 -0.4782
 4721TIP3    H114127   5.953   5.847   0.442  1.1712  0.4101 -1.5586
 4721TIP3    H214128   5.988   5.950   0.337  0.3767  3.0817  0.6969
 4722TIP3   OH214129   3.123   0.711   0.749 -0.2225 -0.4093  0.1684
 4722TIP3    H114130   3.193   0.770   0.777 -1.1014  1.0403 -0.5431
 4722TIP3    H214131   3.103   0.659   0.826  0.7549  0.0566  0.7553
 4723TIP3   OH214132   2.163   6.339   3.575  0.3623 -0.4000 -0.0654
 4723TIP3    H114133   2.246   6.387   3.580 -0.5644  1.5160 -1.5768
 4723TIP3    H214134   2.115   6.366   3.653  0.9807 -1.1887  0.5990
 4724TIP3   OH214135   0.547   0.100   0.507  1.0660 -0.0431 -0.2574
 4724TIP3    H114136   0.623   0.048   0.533  1.3485  0.8618  0.8184
 4724TIP3    H214137   0.549   0.175   0.566  0.1029  0.6785 -1.1217
 4725TIP3   OH214138   6.795   2.638   5.633  0.1088  0.2794  0.3294
 4725TIP3    H114139   6.865   2.573   5.632  0.7900  1.0026 -0.0132
 4725TIP3    H214140   6.774   2.652   5.541  0.9458  1.5565  0.3042
 4726TIP3   OH214141   5.025   3.461   3.426 -0.7204  0.1187 -0.8470
 4726TIP3    H114142   4.994   3.457   3.516  1.8145 -0.3299  0.0852
 4726TIP3    H214143   5.054   3.552   3.415 -0.4135  0.0064 -0.9766
 4727TIP3   OH214144   3.979   3.385   0.033 -0.4844  0.5204 -0.1679
 4727TIP3    H114145   3.943   3.306  -0.006 -0.3114 -0.3527  1.3725
 4727TIP3    H214146   3.958   3.378   0.126 -0.3193  2.2126  0.0299
 4728TIP3   OH214147   6.465   4.752   3.358 -0.0956  0.1091  0.3216
 4728TIP3    H114148   6.469   4.847   3.350  1.6534  0.1352  1.0202
 4728TIP3    H214149   6.432   4.737   3.447 -2.1006 -0.0004 -0.3840
 4729TIP3   OH214150   6.213   2.775   3.865 -0.2496  0.4487 -0.1586
 4729TIP3    H114151   6.304   2.749   3.851  0.0567  1.3969 -0.0089
 4729TIP3    H214152   6.208   2.797   3.958 -0.7284  0.0617 -0.0883
 4730TIP3   OH214153   1.740   2.540   1.723 -0.2046 -0.1863  0.4007
 4730TIP3    H114154   1.786   2.600   1.663  1.1246 -1.8632 -0.3671
 4730TIP3    H214155   1.796   2.462   1.725 -0.1653 -0.1925  3.9351
 4731TIP3   OH214156   4.020   6.067   3.893 -0.0830 -0.0605 -0.3515
 4731TIP3    H114157   4.042   6.058   3.800  0.3079  0.2251 -0.2877
 4731TIP3    H214158   4.036   5.980   3.930 -1.1352 -0.4351 -0.7283
 4732TIP3   OH214159   5.125   5.291   4.689 -0.2232 -0.4749 -0.0645
 4732TIP3    H114160   5.157   5.366   4.738 -0.9800 -0.4053  0.3348
 4732TIP3    H214161   5.188   5.281   4.617 -0.0124  0.4115 -0.0166
 4733TIP3   OH214162   3.269   1.110   3.446  0.2548 -0.7826 -0.1530
 4733TIP3    H114163   3.175   1.105   3.462  0.2883  0.7549  0.7231
 4733TIP3    H214164   3.301   1.021   3.458 -1.0647 -1.3047 -0.3750
 4734TIP3   OH214165   2.220   0.152   4.968  0.5165 -0.2330  0.0103
 4734TIP3    H114166   2.289   0.218   4.961 -0.0907  0.5671  1.2560
 4734TIP3    H214167   2.143   0.194   4.928  0.6368 -0.9819 -1.0485
 4735TIP3   OH214168   1.104   6.119   4.022  0.0753  0.2091 -0.7122
 4735TIP3    H114169   1.190   6.111   4.063 -0.4047  1.1102  0.5128
 4735TIP3    H214170   1.123   6.124   3.928  1.5545  2.8114 -0.3563
 4736TIP3   OH214171   5.870   5.994   2.644 -0.1129  0.3444  0.4654
 4736TIP3    H114172   5.863   6.028   2.555 -2.7957  1.4995  1.0156
 4736TIP3    H214173   5.854   6.070   2.700  1.9585 -0.2630  2.0083
 4737TIP3   OH214174   6.656   4.989   1.438 -0.0237 -0.0721  0.5183
 4737TIP3    H114175   6.724   5.027   1.382 -0.5144  0.4222  0.2552
 4737TIP3    H214176   6.692   4.904   1.464  1.3619  0.8046  1.6245
 4738TIP3   OH214177   4.705   2.935   1.603 -0.5996  0.3510  0.3353
 4738TIP3    H114178   4.780   2.921   1.546 -1.5232 -0.6491 -0.6948
 4738TIP3    H214179   4.660   2.851   1.604 -2.0654  1.1052  0.3690
 4739TIP3   OH214180   1.730   5.298   2.563 -0.1436 -0.1002  0.7824
 4739TIP3    H114181   1.801   5.285   2.501  0.3758 -1.2270  1.5869
 4739TIP3    H214182   1.675   5.221   2.554 -0.6675  0.2476  0.9443
 4740TIP3   OH214183   0.166   1.544   2.502  0.4533 -0.3120 -0.3630
 4740TIP3    H114184   0.153   1.455   2.468 -0.3723 -0.2944 -0.1282
 4740TIP3    H214185   0.217   1.532   2.582  0.1705 -0.5981 -0.2227
 4741TIP3   OH214186   7.113   5.738   3.358  0.1613  0.3380  0.3363
 4741TIP3    H114187   7.100   5.828   3.388  1.0324 -0.0535  2.0615
 4741TIP3    H214188   7.197   5.713   3.395 -1.5862 -2.3217  2.9916
 4742TIP3   OH214189   0.539   1.733   3.532 -0.0665 -0.4829 -0.0660
 4742TIP3    H114190   0.558   1.658   3.477 -0.5659 -1.2715  0.8009
 4742TIP3    H214191   0.510   1.695   3.615 -1.9982  0.6334 -0.1636
 4743TIP3   OH214192   6.479   2.339   2.493 -0.1859  0.0386  0.1047
 4743TIP3    H114193   6.555   2.381   2.452 -0.0932 -1.0938 -0.9326
 4743TIP3    H214194   6.451   2.401   2.561  1.5772  0.5378  0.4302
 4744TIP3   OH214195   5.938   1.307   0.949  0.0401  0.4139 -0.0135
 4744TIP3    H114196   5.978   1.260   1.021  1.1799 -0.3086 -1.0782
 4744TIP3    H214197   5.846   1.284   0.953  0.6832 -2.7952 -1.0838
 4745TIP3   OH214198   0.115   2.949   3.017  0.5741  0.0095  0.1435
 4745TIP3    H114199   0.039   3.007   3.008 -0.3502 -1.1009  0.5169
 4745TIP3    H214200   0.164   2.985   3.091 -0.9352 -0.6513  1.5267
 4746TIP3   OH214201   5.757   4.577   3.839  0.1613 -0.7015  0.4280
 4746TIP3    H114202   5.753   4.599   3.746 -0.4057  0.3719  0.6855
 4746TIP3    H214203   5.773   4.483   3.842  0.2953 -0.7209 -0.7514
 4747TIP3   OH214204   7.035   1.825   3.821  0.0375 -0.3412 -0.1436
 4747TIP3    H114205   7.037   1.754   3.885  2.2062 -0.4630 -0.2753
 4747TIP3    H214206   7.067   1.785   3.740 -0.6395  0.3242 -0.7533
 4748TIP3   OH214207   0.176   1.283   1.488 -0.7037 -0.2024 -0.1305
 4748TIP3    H114208   0.174   1.242   1.402  1.1095  0.2505 -0.4216
 4748TIP3    H214209   0.130   1.367   1.476 -1.0761 -0.4538 -0.4715
 4749TIP3   OH214210   6.673   5.460   4.182 -0.3021 -0.1165 -0.0424
 4749TIP3    H114211   6.695   5.544   4.220 -1.0124 -0.6798  1.7189
 4749TIP3    H214212   6.580   5.466   4.162 -0.3489 -0.4656  0.0573
 4750TIP3   OH214213   4.345   2.400   1.818 -1.0778  0.4191  0.5282
 4750TIP3    H114214   4.364   2.484   1.776 -0.5356  0.6761  1.2469
 4750TIP3    H214215   4.406   2.339   1.778 -0.7825  0.5937  0.7048
 4751TIP3   OH214216   0.190   2.632   5.872 -0.2441  0.1398 -0.6142
 4751TIP3    H114217   0.261   2.690   5.845 -1.4085  0.6373 -2.9003
 4751TIP3    H214218   0.219   2.544   5.846  0.5002 -0.0057  0.6424
 4752TIP3   OH214219   0.161   4.889   1.309  0.1144  0.5044  0.4527
 4752TIP3    H114220   0.200   4.974   1.291 -1.4197  1.0603 -0.4377
 4752TIP3    H214221   0.131   4.895   1.400  1.6636  0.2089  1.0142
 4753TIP3   OH214222   0.977   1.863   1.424 -0.0448  0.3999  0.1858
 4753TIP3    H114223   0.955   1.944   1.471 -1.5939 -0.7656  1.5565
 4753TIP3    H214224   1.071   1.852   1.439  0.0941  1.6815  0.3925
 4754TIP3   OH214225   2.088   3.418   0.572 -0.4882  0.4876 -0.6079
 4754TIP3    H114226   2.093   3.486   0.640  1.0343  1.6206 -1.7781
 4754TIP3    H214227   1.995   3.415   0.549 -1.1834 -0.4454  1.9633
 4755TIP3   OH214228   6.936   0.623   3.029  0.3220 -0.4115 -0.7693
 4755TIP3    H114229   6.972   0.668   2.952  0.9945 -1.3177 -1.0014
 4755TIP3    H214230   7.013   0.597   3.079  0.1851 -3.9071 -2.1310
 4756TIP3   OH214231   1.211   0.037   4.560 -0.0293  0.5144 -0.6807
 4756TIP3    H114232   1.256   0.110   4.603  0.7689 -0.3676  0.0030
 4756TIP3    H214233   1.277   0.000   4.501  0.9061 -2.0042  1.7172
 4757TIP3   OH214234   3.208   6.506   1.098 -0.4275 -0.5888 -0.1119
 4757TIP3    H114235   3.217   6.559   1.018  3.0313 -1.0829 -0.1901
 4757TIP3    H214236   3.244   6.420   1.074  0.8207 -0.7148  1.9587
 4758TIP3   OH214237   3.710   1.943   1.789  0.2785  0.2243 -0.4955
 4758TIP3    H114238   3.753   1.913   1.869  0.4481  1.6159 -0.0382
 4758TIP3    H214239   3.739   1.882   1.722  2.4940  0.7485 -0.0835
 4759TIP3   OH214240   0.642   6.492   5.166 -0.3677  0.3951  0.2001
 4759TIP3    H114241   0.638   6.588   5.160 -0.3535  0.6064  2.5991
 4759TIP3    H214242   0.551   6.464   5.160 -0.5440  0.7304  1.0540
 4760TIP3   OH214243   1.152   6.337   3.303  0.2731  0.8384  0.6559
 4760TIP3    H114244   1.094   6.413   3.298 -0.5136  0.2552  0.7631
 4760TIP3    H214245   1.111   6.280   3.368  0.9950  0.4369  0.7649
 4761TIP3   OH214246   2.014   5.380   4.664  0.4433  0.1016  0.4347
 4761TIP3    H114247   2.057   5.294   4.672 -1.4485 -0.8858  0.5770
 4761TIP3    H214248   1.926   5.365   4.698 -1.1599  1.1378 -2.8715
 4762TIP3   OH214249   4.073   0.798   1.939 -0.0594 -0.5347 -0.2870
 4762TIP3    H114250   3.983   0.773   1.921 -0.2228 -0.2796  0.1552
 4762TIP3    H214251   4.073   0.894   1.936  0.0230 -0.5058  0.4892
 4763TIP3   OH214252   5.920   4.472   0.006 -0.9438 -0.3949  0.1634
 4763TIP3    H114253   5.980   4.544  -0.011  0.3497 -2.1890 -4.3162
 4763TIP3    H214254   5.873   4.498   0.086  1.9213  3.5953  0.8530
 4764TIP3   OH214255   2.834   4.813   3.077  0.1633  0.3393  0.3359
 4764TIP3    H114256   2.828   4.811   2.981 -0.4175  1.9319  0.3086
 4764TIP3    H214257   2.916   4.767   3.096  0.6727  0.6342 -0.9810
 4765TIP3   OH214258   2.544   1.472   5.694  0.2105 -0.4075 -0.3186
 4765TIP3    H114259   2.463   1.448   5.741 -0.4810 -1.5761 -2.0278
 4765TIP3    H214260   2.574   1.552   5.739 -1.7287 -0.0895  0.5426
 4766TIP3   OH214261   0.625   2.246   1.958 -0.5510  0.0031 -0.7080
 4766TIP3    H114262   0.551   2.225   1.900 -0.6487 -1.1485 -0.1856
 4766TIP3    H214263   0.702   2.222   1.906 -0.6509 -1.3989 -0.2438
 4767TIP3   OH214264   6.775   4.908   1.109 -0.3246  0.2829 -0.3063
 4767TIP3    H114265   6.745   4.938   1.195 -2.0685 -0.5933 -0.5626
 4767TIP3    H214266   6.853   4.961   1.091 -1.3162  2.1937  0.7356
 4768TIP3   OH214267   2.219   5.045   5.845 -0.2531  0.1527 -0.1209
 4768TIP3    H114268   2.292   5.055   5.905 -1.1071 -2.8608  1.6302
 4768TIP3    H214269   2.151   5.104   5.878  0.4928  1.1070 -0.2710
 4769TIP3   OH214270   4.939   2.512   2.032 -0.1574 -0.0347  0.3814
 4769TIP3    H114271   4.929   2.420   2.007  0.4968 -0.3000  1.0720
 4769TIP3    H214272   4.986   2.552   1.959  0.8137 -0.5671  0.7026
 4770TIP3   OH214273   3.445   6.001   3.833 -0.5251 -0.5523 -0.0233
 4770TIP3    H114274   3.427   6.042   3.748 -0.3876 -0.2156  0.1089
 4770TIP3    H214275   3.540   6.001   3.840 -0.5532  0.7212  0.7502
 4771TIP3   OH214276   1.193   6.107   2.130  0.0825  0.3752 -0.1825
 4771TIP3    H114277   1.239   6.028   2.154  1.3871  0.8000 -1.1636
 4771TIP3    H214278   1.158   6.141   2.212  1.0083 -0.2789  0.5028
 4772TIP3   OH214279   7.014   4.294   1.582 -0.6579 -0.1553 -0.7587
 4772TIP3    H114280   7.044   4.277   1.493 -0.4042 -0.3234 -0.6410
 4772TIP3    H214281   6.919   4.280   1.578 -0.4063 -2.2573 -0.5155
 4773TIP3   OH214282   1.830   6.627   2.912 -0.4271  0.0551 -0.0825
 4773TIP3    H114283   1.857   6.699   2.970  4.7374 -0.8999 -0.7846
 4773TIP3    H214284   1.822   6.551   2.971  0.4031 -0.0056 -0.0294
 4774TIP3   OH214285   4.996   2.871   5.201  0.5052  0.2397 -0.1781
 4774TIP3    H114286   5.085   2.856   5.169  0.0182 -2.1994 -0.5838
 4774TIP3    H214287   4.950   2.910   5.126  0.3894 -1.7531 -1.2109
 4775TIP3   OH214288   0.053   3.386   0.684  0.0723 -0.4188  0.6395
 4775TIP3    H114289   0.106   3.438   0.623 -0.2434  0.5772  1.1917
 4775TIP3    H214290   0.103   3.306   0.697  1.5834  0.5980  1.3442
 4776TIP3   OH214291   1.002   1.967   3.674  0.1390 -0.4570  0.2454
 4776TIP3    H114292   1.088   1.957   3.714  0.1573 -2.4294 -0.1915
 4776TIP3    H214293   0.940   1.939   3.741 -0.0768 -0.2549  0.1334
 4777TIP3   OH214294   0.778   0.309   3.497 -0.0712  0.1222 -0.0496
 4777TIP3    H114295   0.799   0.260   3.418  1.5511  0.4683  0.1364
 4777TIP3    H214296   0.853   0.295   3.555  0.7005  3.1676 -0.1657
 4778TIP3   OH214297   2.524   6.098   0.910  0.3133 -0.3043 -0.3319
 4778TIP3    H114298   2.529   6.193   0.901 -2.0868  0.1462  1.6535
 4778TIP3    H214299   2.527   6.083   1.005  0.7458 -2.2323 -0.6013
 4779TIP3   OH214300   2.670   6.504   1.478  0.1587  0.5824  0.2271
 4779TIP3    H114301   2.652   6.465   1.564 -0.5412 -0.9390 -0.5594
 4779TIP3    H214302   2.626   6.445   1.416  2.9299  0.0592 -1.4028
 4780TIP3   OH214303   1.625   6.544   4.046  0.1437  0.0765  0.3219
 4780TIP3    H114304   1.549   6.490   4.067  0.0016 -0.2582 -0.9469
 4780TIP3    H214305   1.596   6.634   4.062 -0.8153  0.0189 -0.9155
 4781TIP3   OH214306   1.276   5.278   0.246 -0.4160 -0.0996 -0.0136
 4781TIP3    H114307   1.369   5.286   0.223  0.0171  0.9326  1.9085
 4781TIP3    H214308   1.241   5.367   0.235 -0.8894 -0.2307  0.4298
 4782TIP3   OH214309   0.586   6.378   3.566 -0.2671 -0.1163  0.2196
 4782TIP3    H114310   0.608   6.309   3.502  2.8557 -0.4449  1.4724
 4782TIP3    H214311   0.602   6.337   3.651  2.6200  2.2841  0.9965
 4783TIP3   OH214312   4.439   0.575   2.556  0.2492  0.4993 -0.4211
 4783TIP3    H114313   4.420   0.620   2.638 -0.6443 -0.3384 -0.1425
 4783TIP3    H214314   4.433   0.482   2.578  2.6069  0.1882 -0.8445
 4784TIP3   OH214315   0.940   6.623   3.900 -0.0534 -0.1375  0.8384
 4784TIP3    H114316   0.925   6.538   3.941 -1.1247 -0.3524  0.0374
 4784TIP3    H214317   1.004   6.607   3.832 -0.8525 -0.4812  0.1527
 4785TIP3   OH214318   3.454   0.794   2.794  0.0846  1.0356 -0.2386
 4785TIP3    H114319   3.505   0.810   2.873  2.1913 -0.1723 -1.2500
 4785TIP3    H214320   3.473   0.870   2.738  0.2198  0.9299 -0.3382
 4786TIP3   OH214321   0.451   2.095   0.242  0.5175  0.0238 -0.1139
 4786TIP3    H114322   0.388   2.158   0.206 -1.1239 -1.1478  0.5713
 4786TIP3    H214323   0.407   2.010   0.233  1.3792 -0.6669  1.7544
 4787TIP3   OH214324   5.369   1.292   0.527  0.4211  0.2082  0.4320
 4787TIP3    H114325   5.308   1.223   0.502 -0.6327  2.0434 -2.5769
 4787TIP3    H214326   5.317   1.354   0.578  0.8831 -0.2867  1.5199
 4788TIP3   OH214327   2.337   6.494   0.584 -0.2482  0.2165  0.5864
 4788TIP3    H114328   2.429   6.477   0.606 -0.3954 -0.1480  0.9230
 4788TIP3    H214329   2.289   6.421   0.623 -0.4345 -1.0282 -1.7335
 4789TIP3   OH214330   0.808   3.379   1.369 -0.3830  0.0293  0.2628
 4789TIP3    H114331   0.725   3.368   1.322 -0.2131  0.0864 -0.0526
 4789TIP3    H214332   0.861   3.304   1.341 -0.9588 -1.0330  1.8423
 4790TIP3   OH214333   0.077   2.644   1.698 -0.0485 -0.3276 -0.1961
 4790TIP3    H114334   0.122   2.729   1.704 -2.1398  0.7513  1.1733
 4790TIP3    H214335  -0.000   2.654   1.753 -1.0412 -2.7162 -1.0537
 4791TIP3   OH214336   6.935   2.701   2.863  0.0838 -0.1348 -0.2825
 4791TIP3    H114337   7.021   2.661   2.875  0.6142  0.7303 -1.1253
 4791TIP3    H214338   6.953   2.785   2.821 -1.1426  0.2352 -0.0947
 4792TIP3   OH214339   3.199   5.488   1.384 -0.3247 -0.3197 -0.6104
 4792TIP3    H114340   3.223   5.410   1.435  0.1794 -0.4542 -1.0308
 4792TIP3    H214341   3.280   5.539   1.380 -0.7092  0.3254 -0.1735
 4793TIP3   OH214342   2.848   2.724   1.455  0.1690  0.5475 -0.2057
 4793TIP3    H114343   2.882   2.803   1.414 -0.9551  1.2064  0.0682
 4793TIP3    H214344   2.755   2.724   1.432  0.4150 -1.4565 -1.3826
 4794TIP3   OH214345   5.257   0.366   0.204  0.1071 -0.3476  0.2273
 4794TIP3    H114346   5.217   0.369   0.291 -0.3488  2.0705  0.0045
 4794TIP3    H214347   5.328   0.430   0.209  0.5996 -0.8012 -0.9273
 4795TIP3   OH214348   6.312   5.143   0.310  0.1091 -0.0275  0.1792
 4795TIP3    H114349   6.312   5.145   0.405  1.2163  0.4627  0.1817
 4795TIP3    H214350   6.295   5.051   0.288 -3.3964  0.3374  0.7566
 4796TIP3   OH214351   4.196   4.006   5.313  0.2570 -0.1147  0.2048
 4796TIP3    H114352   4.275   3.954   5.327  0.4111 -0.0758 -0.4798
 4796TIP3    H214353   4.226   4.097   5.310  0.2119 -0.1077 -0.1783
 4797TIP3   OH214354   2.617   6.245   3.299 -0.0588 -0.2502 -0.5006
 4797TIP3    H114355   2.694   6.245   3.357 -1.1040  1.5372  1.0120
 4797TIP3    H214356   2.647   6.291   3.220  0.1585  1.4925  0.5502
 4798TIP3   OH214357   3.167   5.132   2.508  0.3412 -0.2601  0.2185
 4798TIP3    H114358   3.183   5.047   2.465 -0.1550 -0.5306  0.5670
 4798TIP3    H214359   3.135   5.188   2.437 -0.2587 -0.6409  0.1805
 4799TIP3   OH214360   6.996   4.249   5.592  0.3010  0.2613 -0.3217
 4799TIP3    H114361   7.035   4.161   5.598  0.0469  0.0410 -1.5913
 4799TIP3    H214362   6.913   4.242   5.639  1.0630  0.3151  1.0850
 4800TIP3   OH214363   2.709   3.953   4.897 -0.3166  0.4140  0.1701
 4800TIP3    H114364   2.700   3.872   4.948 -2.0715 -0.4017 -1.3049
 4800TIP3    H214365   2.626   3.999   4.911 -1.4951 -0.5193 -2.9126
 4801TIP3   OH214366   0.972   1.354   1.200  0.4433 -0.6816 -0.3342
 4801TIP3    H114367   1.048   1.297   1.198  2.2414  1.0297  4.5003
 4801TIP3    H214368   0.913   1.314   1.264  1.0049  1.7577  1.8928
 4802TIP3   OH214369   5.806   1.827   0.504 -0.1457 -0.3304  0.2649
 4802TIP3    H114370   5.769   1.787   0.426  0.3140 -0.1937 -0.0244
 4802TIP3    H214371   5.734   1.827   0.567 -0.5104 -0.4606 -0.1472
 4803TIP3   OH214372   1.052   4.423   4.645 -0.1689  0.6154 -0.2715
 4803TIP3    H114373   1.031   4.509   4.682 -0.4475  0.7610 -0.7595
 4803TIP3    H214374   1.032   4.432   4.552 -0.2409  0.0054 -0.3157
 4804TIP3   OH214375   2.556   1.519   3.706 -0.8743  0.2105  0.2351
 4804TIP3    H114376   2.533   1.599   3.753 -0.5212  0.6356 -0.2938
 4804TIP3    H214377   2.519   1.532   3.618  2.1507  1.3864 -0.9955
 4805TIP3   OH214378   1.879   6.333   0.504  0.2557  0.2761 -0.2027
 4805TIP3    H114379   1.965   6.314   0.465  1.0047 -0.2072  1.5652
 4805TIP3    H214380   1.886   6.424   0.532  0.9793 -0.2894  1.6716
 4806TIP3   OH214381   1.882   1.545   4.256  0.4847  0.0544 -0.2133
 4806TIP3    H114382   1.789   1.560   4.244  0.6978  0.7129 -1.1803
 4806TIP3    H214383   1.924   1.606   4.196  1.6046  1.4333  1.8667
 4807TIP3   OH214384   7.202   4.748   0.670 -0.1780 -0.7176 -0.2760
 4807TIP3    H114385   7.119   4.795   0.657 -1.0674 -2.3166 -0.7170
 4807TIP3    H214386   7.211   4.694   0.591  0.2101 -2.1128  0.6846
 4808TIP3   OH214387   6.583   0.056   3.229 -0.3523 -0.0786 -0.6464
 4808TIP3    H114388   6.658   0.097   3.273  0.4467 -0.2361 -1.8108
 4808TIP3    H214389   6.526   0.027   3.300 -0.2639  1.7913  0.2267
 4809TIP3   OH214390   5.788   1.108   3.873  0.3619  0.0410  0.4187
 4809TIP3    H114391   5.866   1.123   3.927  0.8928 -1.0640 -0.0101
 4809TIP3    H214392   5.823   1.077   3.789 -0.5494 -1.0506  0.4192
 4810TIP3   OH214393   3.452   1.370   1.339  0.2102 -0.0574 -0.3390
 4810TIP3    H114394   3.506   1.446   1.360  0.3902  0.5887 -2.8649
 4810TIP3    H214395   3.368   1.388   1.380  1.4192 -0.4488  2.5128
 4811TIP3   OH214396   4.327   2.653   2.456  0.3182  0.2911  0.2422
 4811TIP3    H114397   4.282   2.715   2.513 -0.6972 -0.5920  0.4339
 4811TIP3    H214398   4.393   2.612   2.512 -0.6820 -0.5812  0.7960
 4812TIP3   OH214399   5.543   6.143   4.920 -0.2128  0.0978 -0.4519
 4812TIP3    H114400   5.556   6.216   4.859 -0.0983 -0.3092 -0.9263
 4812TIP3    H214401   5.606   6.159   4.990  1.2460 -0.5809 -1.5419
 4813TIP3   OH214402   0.012   2.091   1.998 -0.3971 -0.0617  0.2455
 4813TIP3    H114403   0.039   2.103   1.907 -0.8385 -1.2064 -0.0478
 4813TIP3    H214404   0.077   2.032   2.035 -0.8002 -0.4206  0.3860
 4814TIP3   OH214405   3.432   5.400   5.199  0.2677 -0.2214  0.2396
 4814TIP3    H114406   3.469   5.477   5.157  0.0792 -0.8687 -1.1635
 4814TIP3    H214407   3.337   5.410   5.188  0.2938 -1.8894 -2.3597
 4815TIP3   OH214408   6.535   4.461   2.766  0.0389 -0.8402  0.0967
 4815TIP3    H114409   6.483   4.451   2.846  0.3546  0.7346  0.5284
 4815TIP3    H214410   6.492   4.405   2.702 -1.1127 -0.9635  0.9550
 4816TIP3   OH214411   1.827   2.468   4.140  0.1290 -0.2347  0.1178
 4816TIP3    H114412   1.734   2.452   4.125  0.7290 -3.1227 -1.1579
 4816TIP3    H214413   1.856   2.395   4.194  1.7396  0.4318  0.2178
 4817TIP3   OH214414   4.404   3.030   4.165 -0.2550 -0.1510  0.3933
 4817TIP3    H114415   4.342   2.957   4.158  0.4787 -0.7676  0.2397
 4817TIP3    H214416   4.457   3.009   4.241 -0.8452  0.8636  1.1095
 4818TIP3   OH214417   6.600   1.298   3.168 -0.0135  0.4705  0.0792
 4818TIP3    H114418   6.633   1.214   3.199 -0.9142  0.5818  1.4526
 4818TIP3    H214419   6.653   1.318   3.091  0.8899 -0.8646  0.3161
 4819TIP3   OH214420   0.949   3.157   1.294 -0.5407  0.0052  0.4618
 4819TIP3    H114421   1.038   3.179   1.320 -0.6791 -0.5906  1.4486
 4819TIP3    H214422   0.955   3.069   1.257 -0.4885  0.5198 -0.8379
 4820TIP3   OH214423   0.121   3.107   2.283 -0.4773 -0.2665  0.1456
 4820TIP3    H114424   0.068   3.151   2.349 -0.2745 -0.2345  0.2898
 4820TIP3    H214425   0.164   3.179   2.236 -0.5498 -0.2922  0.0400
 4821TIP3   OH214426   2.269   2.578   1.515  0.0546 -0.3365 -0.4915
 4821TIP3    H114427   2.320   2.620   1.584 -1.0506 -0.1733  0.2655
 4821TIP3    H214428   2.270   2.641   1.443  1.0391 -0.4084 -0.5457
 4822TIP3   OH214429   6.327   3.818   2.368  0.3644  0.0167 -0.5228
 4822TIP3    H114430   6.275   3.886   2.325 -1.4174 -0.9633 -0.0237
 4822TIP3    H214431   6.266   3.745   2.379  1.1784 -0.3609  2.1806
 4823TIP3   OH214432   0.178   5.626   3.524 -0.4802  0.0394 -0.5119
 4823TIP3    H114433   0.251   5.595   3.470 -0.1586 -1.3647  0.6633
 4823TIP3    H214434   0.198   5.718   3.540  0.0545  0.1620 -1.7380
 4824TIP3   OH214435   3.476   4.108   4.436 -0.8584 -0.4708 -0.3669
 4824TIP3    H114436   3.469   4.137   4.345 -2.8172  3.3805  0.8104
 4824TIP3    H214437   3.393   4.063   4.453 -0.7384 -0.6767 -0.3229
 4825TIP3   OH214438   4.866   5.785   0.132  0.4985 -0.4775  0.3778
 4825TIP3    H114439   4.912   5.863   0.100 -1.5744  1.3611  1.5872
 4825TIP3    H214440   4.786   5.782   0.081 -0.0015 -1.0929  1.1822
 4826TIP3   OH214441   5.792   1.765   5.389  0.1816  0.4224  0.5129
 4826TIP3    H114442   5.705   1.730   5.412 -0.6997  1.4566 -1.0677
 4826TIP3    H214443   5.788   1.857   5.415  0.5210  0.6582 -0.2343
 4827TIP3   OH214444   3.757   4.633   4.221 -0.4465  0.1103 -0.3394
 4827TIP3    H114445   3.680   4.627   4.165 -1.6951 -0.8598  1.3779
 4827TIP3    H214446   3.808   4.554   4.200 -0.3102  0.3357 -0.8875
 4828TIP3   OH214447   3.733   5.965   0.438 -0.5430  0.0469  0.2357
 4828TIP3    H114448   3.763   5.889   0.488  1.1995  0.2031 -0.4871
 4828TIP3    H214449   3.714   6.032   0.504  0.0064 -0.3179  0.7753
 4829TIP3   OH214450   3.237   5.797   4.504  0.4139  0.0102 -0.0490
 4829TIP3    H114451   3.144   5.774   4.512  0.2855 -0.2934 -1.9449
 4829TIP3    H214452   3.273   5.730   4.446  2.2525 -0.8811  1.9763
 4830TIP3   OH214453   2.248   1.348   0.231 -0.4565  0.1458 -0.2274
 4830TIP3    H114454   2.219   1.392   0.311  0.8100  2.4927 -0.9757
 4830TIP3    H214455   2.323   1.295   0.260  0.8055  1.9575  0.0115
 4831TIP3   OH214456   6.832   2.871   2.301 -0.2679  0.4740 -0.0794
 4831TIP3    H114457   6.854   2.959   2.273 -2.6749  1.3099  0.4640
 4831TIP3    H214458   6.740   2.860   2.278 -0.3785 -1.4334  1.0317
 4832TIP3   OH214459   4.737   0.807   0.598 -0.4378 -0.2737 -0.0278
 4832TIP3    H114460   4.804   0.860   0.640  0.3526 -1.5613  0.4002
 4832TIP3    H214461   4.772   0.718   0.599 -1.0373 -0.5872 -2.1015
 4833TIP3   OH214462   5.734   6.379   4.402 -0.2250  0.4248 -0.2618
 4833TIP3    H114463   5.807   6.423   4.358 -0.2097  1.1328  0.4406
 4833TIP3    H214464   5.669   6.365   4.334  1.2282 -1.8115 -1.3239
 4834TIP3   OH214465   5.907   6.635   3.344  0.3113 -0.0622 -0.4782
 4834TIP3    H114466   5.896   6.566   3.410 -1.1072  0.6558  0.0760
 4834TIP3    H214467   5.937   6.711   3.394  0.7514  0.0536 -0.9134
 4835TIP3   OH214468   5.811   4.332   4.741  0.3299 -0.0399 -0.1249
 4835TIP3    H114469   5.891   4.291   4.707  1.4083  1.3168  0.6738
 4835TIP3    H214470   5.759   4.350   4.662  1.5066  0.4236 -0.8365
 4836TIP3   OH214471   1.149   6.407   2.919 -0.1339 -0.8011 -0.4529
 4836TIP3    H114472   1.084   6.476   2.934  0.2760 -0.9374  2.6066
 4836TIP3    H214473   1.109   6.350   2.854 -0.8069  1.8437 -2.5165
 4837TIP3   OH214474   7.088   2.265   0.912  0.3492 -0.8394 -0.0168
 4837TIP3    H114475   6.999   2.239   0.936  0.2112 -1.4422 -1.1103
 4837TIP3    H214476   7.142   2.190   0.937  0.5838 -0.4260  0.7582
 4838TIP3   OH214477   2.737   4.827   0.450  0.0023 -0.1015  0.0329
 4838TIP3    H114478   2.806   4.892   0.434  1.0269 -0.9587  0.8371
 4838TIP3    H214479   2.764   4.750   0.399 -0.2801 -0.5014  0.4776
 4839TIP3   OH214480   1.142   6.278   0.137  0.4513 -0.0228 -0.0987
 4839TIP3    H114481   1.133   6.354   0.194 -0.9403 -0.3977  0.2268
 4839TIP3    H214482   1.119   6.310   0.050 -0.9297 -0.2255  0.1730
 4840TIP3   OH214483   6.897   3.522   0.935 -0.2167  0.3909  0.0342
 4840TIP3    H114484   6.805   3.501   0.920 -0.1197  0.7932 -1.1711
 4840TIP3    H214485   6.918   3.476   1.016 -1.2045 -0.5141 -0.1954
 4841TIP3   OH214486   6.022   3.161   2.693 -0.5267 -0.3775  0.4546
 4841TIP3    H114487   5.930   3.186   2.698 -0.1315  1.4911 -0.4676
 4841TIP3    H214488   6.021   3.066   2.694 -2.4756 -0.4026  0.3518
 4842TIP3   OH214489   4.120   0.183   0.414  0.0243  0.2782  0.1276
 4842TIP3    H114490   4.110   0.123   0.340  2.6889  0.6741 -0.6935
 4842TIP3    H214491   4.194   0.147   0.464 -0.6529  0.9417  1.6628
 4843TIP3   OH214492   3.065   6.249   4.617  0.7012  0.4301 -0.1617
 4843TIP3    H114493   3.156   6.221   4.608  0.7022  0.3428  0.1072
 4843TIP3    H214494   3.046   6.241   4.710  0.9803  2.2555  0.0810
 4844TIP3   OH214495   2.284   1.401   1.092 -0.0640 -0.0420 -0.6132
 4844TIP3    H114496   2.219   1.360   1.148 -0.3776  0.2608 -0.7539
 4844TIP3    H214497   2.279   1.495   1.113  1.0681 -0.1285  0.1504
 4845TIP3   OH214498   3.599   5.130   3.826  0.2375 -0.1080  0.2127
 4845TIP3    H114499   3.507   5.104   3.813  0.2211  0.8053 -1.9334
 4845TIP3    H214500   3.648   5.075   3.766  0.8535  0.7579 -0.1019
 4846TIP3   OH214501   0.516   5.125   2.688  0.4894 -0.2755  0.1224
 4846TIP3    H114502   0.492   5.217   2.691 -0.7081 -0.5738  2.2900
 4846TIP3    H214503   0.434   5.080   2.664  1.2016 -0.7593 -1.5076
 4847TIP3   OH214504   4.580   0.255   5.734 -0.2343 -0.1554  0.6201
 4847TIP3    H114505   4.527   0.178   5.716 -2.3438  0.6395  2.9437
 4847TIP3    H214506   4.519   0.319   5.771  2.2401  0.9292  3.2132
 4848TIP3   OH214507   4.529   1.856   1.971  0.1646 -0.1665  0.1982
 4848TIP3    H114508   4.582   1.874   2.049  2.2174 -0.0300 -1.1483
 4848TIP3    H214509   4.546   1.764   1.952 -1.7279 -0.7023  0.8618
 4849TIP3   OH214510   3.868   1.579   3.349  0.2542 -0.0686 -0.5642
 4849TIP3    H114511   3.844   1.670   3.366  0.5029  0.0221 -0.6811
 4849TIP3    H214512   3.952   1.585   3.303 -0.0446 -0.3276 -1.1672
 4850TIP3   OH214513   5.179   5.230   1.596  0.2038 -0.1199  0.2888
 4850TIP3    H114514   5.228   5.155   1.561  0.7742  0.0560  0.7130
 4850TIP3    H214515   5.162   5.285   1.519 -1.2555 -1.2451 -0.2459
 4851TIP3   OH214516   0.276   2.007   3.844 -0.3112 -0.0623  0.0007
 4851TIP3    H114517   0.273   1.967   3.757  2.1075  0.8820 -0.5992
 4851TIP3    H214518   0.321   2.091   3.830  0.9923 -0.3042  2.2887
 4852TIP3   OH214519   2.049   3.780   2.432 -0.3813  0.4376 -0.3097
 4852TIP3    H114520   1.967   3.805   2.475 -0.1009  3.1082 -1.1565
 4852TIP3    H214521   2.087   3.863   2.402  1.8798 -0.8649 -1.3073
 4853TIP3   OH214522   1.621   2.527   3.785 -0.7246  0.3991  0.2239
 4853TIP3    H114523   1.560   2.496   3.851 -0.2599  0.8223  0.8728
 4853TIP3    H214524   1.594   2.617   3.768 -0.3260  0.5761  0.4863
 4854TIP3   OH214525   5.880   2.392   1.095  0.2702  0.2111  0.5840
 4854TIP3    H114526   5.878   2.385   1.191  0.6213  0.1347  0.5863
 4854TIP3    H214527   5.902   2.484   1.079 -0.7714  0.4777  0.5667
 4855TIP3   OH214528   2.615   1.475   3.274  0.3720  0.5855 -0.1409
 4855TIP3    H114529   2.705   1.509   3.269  0.6881 -0.1288  0.5307
 4855TIP3    H214530   2.568   1.540   3.326  1.2255 -0.4325  2.0340
 4856TIP3   OH214531   2.289   2.024   0.751 -0.1136 -0.2214  0.3931
 4856TIP3    H114532   2.275   2.118   0.756 -0.4536 -0.2619  0.2150
 4856TIP3    H214533   2.244   1.997   0.671 -0.6067 -0.6348  0.7988
 4857TIP3   OH214534   6.959   5.286   4.563  0.2513 -0.4070  0.9111
 4857TIP3    H114535   6.880   5.337   4.547  0.4755 -0.0839  0.8285
 4857TIP3    H214536   7.009   5.291   4.481  0.9064  0.3725  1.3466
 4858TIP3   OH214537   2.194   6.553   0.111 -0.1166 -0.1678 -0.6876
 4858TIP3    H114538   2.192   6.628   0.051 -1.9333  0.7662  0.4373
 4858TIP3    H214539   2.168   6.479   0.057  0.6465  0.1908 -1.5824
 4859TIP3   OH214540   7.162   0.042   5.224 -0.1596 -0.3106 -0.1696
 4859TIP3    H114541   7.168   0.087   5.139  0.1263 -0.2380 -0.1121
 4859TIP3    H214542   7.248   0.001   5.235 -0.7083 -1.6168 -0.6310
 4860TIP3   OH214543   5.257   4.455   5.256  0.2824 -0.3773  0.3073
 4860TIP3    H114544   5.181   4.423   5.209 -0.1349  1.5349 -0.4317
 4860TIP3    H214545   5.292   4.379   5.302  0.7202 -2.3957 -3.0594
 4861TIP3   OH214546   6.640   5.601   1.944  0.6371  0.6019  0.7747
 4861TIP3    H114547   6.721   5.554   1.924  0.7852 -0.2123  3.0866
 4861TIP3    H214548   6.657   5.645   2.027 -1.4771 -0.0712  1.6266
 4862TIP3   OH214549   3.088   2.721   3.626 -0.4556 -0.3901  0.3161
 4862TIP3    H114550   3.030   2.793   3.650  1.5395  1.8019 -0.9792
 4862TIP3    H214551   3.144   2.757   3.557  2.7954 -2.1260  1.8061
 4863TIP3   OH214552   0.948   4.802   5.810  0.0259  0.0349  0.4563
 4863TIP3    H114553   0.893   4.772   5.883  0.8415  0.6597  1.3615
 4863TIP3    H214554   1.006   4.729   5.792 -0.4700 -0.2828  0.1366
 4864TIP3   OH214555   0.254   5.885   2.513 -0.3254  0.2566  0.8649
 4864TIP3    H114556   0.250   5.956   2.449  1.8963 -1.9510 -2.0065
 4864TIP3    H214557   0.324   5.911   2.573 -0.3661  1.0214  0.5941
 4865TIP3   OH214558   5.487   0.898   1.042 -0.2405 -0.0964  0.2174
 4865TIP3    H114559   5.491   0.803   1.032  0.4126 -0.0790  0.2761
 4865TIP3    H214560   5.489   0.932   0.952  0.5161 -0.1127  0.2178
 4866TIP3   OH214561   3.257   3.338   2.227  0.2890  0.0067 -0.2155
 4866TIP3    H114562   3.202   3.414   2.242 -0.5192 -0.2633 -1.6253
 4866TIP3    H214563   3.330   3.348   2.288  0.2058  1.9179 -0.3952
 4867TIP3   OH214564   2.945   4.680   4.245 -0.2915 -0.7734  0.1810
 4867TIP3    H114565   2.911   4.590   4.247  0.0589 -0.8994  0.8329
 4867TIP3    H214566   3.040   4.669   4.237 -0.2971 -0.4450 -0.4193
 4868TIP3   OH214567   0.669   3.415   5.421  0.1387 -0.1630  0.0460
 4868TIP3    H114568   0.577   3.393   5.439  0.0452  1.4789  1.8077
 4868TIP3    H214569   0.713   3.405   5.505  0.9023  2.1587 -0.0242
 4869TIP3   OH214570   5.295   5.690   5.847  0.1175  0.4667  0.4868
 4869TIP3    H114571   5.227   5.658   5.907  1.5962 -1.6018  1.1557
 4869TIP3    H214572   5.369   5.710   5.903  0.1157  2.7778 -0.2318
 4870TIP3   OH214573   0.492   5.020   1.417 -0.7104 -0.1306  0.0562
 4870TIP3    H114574   0.411   5.033   1.368 -0.0294 -0.2197 -1.1368
 4870TIP3    H214575   0.494   4.926   1.435 -2.0482  0.1846  2.2764
 4871TIP3   OH214576   4.429   0.204   3.890  0.5244  0.1983  0.2610
 4871TIP3    H114577   4.397   0.188   3.802 -0.8447 -0.4907  0.8614
 4871TIP3    H214578   4.416   0.121   3.936  0.5772  0.7469  1.2991
 4872TIP3   OH214579   2.260   2.808   3.440 -0.2759  0.7574 -0.8462
 4872TIP3    H114580   2.221   2.745   3.500  0.8737  0.8186  0.0008
 4872TIP3    H214581   2.187   2.864   3.413 -0.7978  0.7992  0.5863
 4873TIP3   OH214582   4.568   6.143   4.767  0.1379  0.1831  0.6009
 4873TIP3    H114583   4.521   6.116   4.846 -2.3405  3.2435  0.3670
 4873TIP3    H214584   4.500   6.171   4.706  2.1364  1.6380 -1.1329
 4874TIP3   OH214585   2.315   2.591   2.143  0.7677  0.4341 -0.5061
 4874TIP3    H114586   2.302   2.539   2.064  0.0120  0.7742 -0.6240
 4874TIP3    H214587   2.249   2.557   2.204  0.1929  1.3003 -0.6225
 4875TIP3   OH214588   0.227   3.920   2.081  0.1469 -0.1165  0.2131
 4875TIP3    H114589   0.258   3.829   2.086  0.3813 -0.1003 -0.7257
 4875TIP3    H214590   0.282   3.960   2.013 -0.1054  0.6706  0.4642
 4876TIP3   OH214591   4.630   3.812   4.599 -0.2463  0.0925 -0.1903
 4876TIP3    H114592   4.542   3.816   4.561 -0.0170  2.6679 -0.6299
 4876TIP3    H214593   4.635   3.888   4.656  1.5067 -0.3333  0.2790
 4877TIP3   OH214594   4.743   4.689   2.851 -0.1235 -0.3013  0.1233
 4877TIP3    H114595   4.721   4.636   2.774  0.5112  1.8428 -1.6657
 4877TIP3    H214596   4.701   4.645   2.924  1.1987 -3.7616 -1.0325
 4878TIP3   OH214597   3.041   3.547   3.487 -0.5008 -0.2115  0.6419
 4878TIP3    H114598   2.970   3.600   3.523 -1.5015  1.4412 -3.2126
 4878TIP3    H214599   2.997   3.485   3.429  1.0400 -1.1203  0.4107
 4879TIP3   OH214600   0.120   0.442   5.677  0.3103  0.1347 -0.0216
 4879TIP3    H114601   0.084   0.361   5.641 -1.6975  0.6356  0.6820
 4879TIP3    H214602   0.109   0.506   5.606  0.3884  0.1446 -0.0242
 4880TIP3   OH214603   5.460   5.741   4.606  0.0052 -0.3073 -0.1344
 4880TIP3    H114604   5.423   5.658   4.577 -1.9588  0.1298  0.9114
 4880TIP3    H214605   5.388   5.784   4.652  0.9112  2.0484 -0.7780
 4881TIP3   OH214606   6.636   5.174   0.909 -0.4138 -0.1769  0.3984
 4881TIP3    H114607   6.546   5.207   0.909 -0.6929 -0.9120  0.6787
 4881TIP3    H214608   6.691   5.252   0.911 -1.0331  0.3131 -0.7520
 4882TIP3   OH214609   2.191   0.034   4.489  0.2717  0.4911 -0.1487
 4882TIP3    H114610   2.167  -0.056   4.466  3.3616 -0.6294  0.3953
 4882TIP3    H214611   2.245   0.063   4.415  2.1421  0.5128  1.1365
 4883TIP3   OH214612   6.722   4.870   3.081 -0.2227 -0.0722 -0.3781
 4883TIP3    H114613   6.761   4.906   3.161  3.9699 -0.0679 -2.1236
 4883TIP3    H214614   6.733   4.940   3.016 -0.3936 -1.2315 -1.7019
 4884TIP3   OH214615   6.117   3.018   2.122  0.6321 -0.4021  0.7246
 4884TIP3    H114616   6.088   2.938   2.078 -1.4218  0.6636  0.0081
 4884TIP3    H214617   6.124   3.083   2.051  3.6377 -0.2196  1.0616
 4885TIP3   OH214618   2.613   6.676   3.940  0.1777  0.1258  0.2377
 4885TIP3    H114619   2.549   6.607   3.920  0.3549 -0.3644  1.2997
 4885TIP3    H214620   2.696   6.630   3.948  1.0712  0.9549 -2.7880
 4886TIP3   OH214621   5.613   4.955   4.559  0.1541  0.5030 -0.1573
 4886TIP3    H114622   5.615   4.906   4.477  0.2162  0.0080  0.1347
 4886TIP3    H214623   5.565   5.035   4.539  0.2491  0.4252 -0.6989
 4887TIP3   OH214624   6.346   1.869   1.942 -0.0978 -0.1093  0.1991
 4887TIP3    H114625   6.254   1.849   1.962 -0.3598  0.0761 -0.7824
 4887TIP3    H214626   6.388   1.873   2.028 -0.8540 -0.9219  0.6313
 4888TIP3   OH214627   4.795   4.950   1.160 -0.3768  0.3581 -0.1686
 4888TIP3    H114628   4.869   4.970   1.217 -2.4478  1.3137  2.3548
 4888TIP3    H214629   4.745   4.883   1.208 -1.5369  0.2625 -1.4472
 4889TIP3   OH214630   3.513   4.429   4.795 -0.2077 -0.3657  0.0342
 4889TIP3    H114631   3.530   4.471   4.880  1.0037  0.5536 -0.6300
 4889TIP3    H214632   3.575   4.356   4.793  0.9684  0.6181 -0.7342
 4890TIP3   OH214633   5.890   2.518   0.009  0.5219  0.2010  0.0635
 4890TIP3    H114634   5.864   2.572   0.083 -0.0329 -1.7860  1.3857
 4890TIP3    H214635   5.967   2.469   0.040  0.9806  0.1632 -1.0745
 4891TIP3   OH214636   2.598   4.147   3.512  0.7118 -0.3523  0.6249
 4891TIP3    H114637   2.654   4.199   3.454 -0.5598 -1.5168 -1.8117
 4891TIP3    H214638   2.653   4.129   3.589  2.6770  0.8542 -0.4233
 4892TIP3   OH214639   1.451   6.479   0.238 -0.0147 -0.0539  0.6412
 4892TIP3    H114640   1.440   6.466   0.143  0.1323 -1.6648  0.8133
 4892TIP3    H214641   1.407   6.562   0.255 -0.3321  0.1147 -0.7981
 4893TIP3   OH214642   2.611   4.152   1.754  0.1568  0.2789 -0.4340
 4893TIP3    H114643   2.682   4.170   1.816  0.3160 -0.0162 -0.5304
 4893TIP3    H214644   2.531   4.162   1.806  0.3164 -0.6990  0.0062
 4894TIP3   OH214645   4.540   1.820   3.419 -0.7220 -0.5345  0.5090
 4894TIP3    H114646   4.537   1.731   3.385 -1.5891 -0.4505  0.3475
 4894TIP3    H214647   4.454   1.856   3.399 -0.7833 -0.0413  1.6069
 4895TIP3   OH214648   1.475   4.221   2.134  0.2980  0.0500  0.7802
 4895TIP3    H114649   1.432   4.171   2.203  1.4105 -0.7665  0.9171
 4895TIP3    H214650   1.551   4.168   2.110 -0.2335  0.1450 -1.3154
 4896TIP3   OH214651   1.200   5.483   2.203  0.5569  0.4361  0.3988
 4896TIP3    H114652   1.202   5.508   2.110  1.3250 -1.9924 -0.3199
 4896TIP3    H214653   1.107   5.476   2.223  0.3763 -0.0148 -0.5166
 4897TIP3   OH214654   2.141   5.024   3.167  0.0562  0.2829 -0.3684
 4897TIP3    H114655   2.068   5.075   3.132  0.5737  1.6397  0.4562
 4897TIP3    H214656   2.217   5.082   3.159  1.4489 -1.6683 -2.7276
 4898TIP3   OH214657   0.447   3.677   2.713  0.0056 -0.1056  0.3790
 4898TIP3    H114658   0.360   3.682   2.752  0.6652  2.0306  1.7355
 4898TIP3    H214659   0.453   3.587   2.680 -3.5421  0.2761 -1.8711
 4899TIP3   OH214660   4.910   5.961   2.896 -0.4028 -0.3345 -0.0506
 4899TIP3    H114661   4.943   6.011   2.971 -0.8855  1.9320 -1.2587
 4899TIP3    H214662   4.935   6.013   2.820 -1.5006 -1.6551 -1.3634
 4900TIP3   OH214663   2.086   2.298   5.213 -0.1886 -0.1262 -0.2930
 4900TIP3    H114664   2.127   2.216   5.240  0.0857 -0.2013 -0.9138
 4900TIP3    H214665   2.069   2.287   5.120 -2.0207 -0.2442  0.0233
 4901TIP3   OH214666   0.219   0.450   2.854  0.5885  0.3279 -0.4755
 4901TIP3    H114667   0.194   0.411   2.770  3.1633  0.8202 -1.5930
 4901TIP3    H214668   0.311   0.425   2.865  0.6778  1.3624  1.5897
 4902TIP3   OH214669   3.343   4.459   0.028  0.4380  0.0567  0.4204
 4902TIP3    H114670   3.285   4.472   0.102 -1.1161  1.9303 -1.0000
 4902TIP3    H214671   3.299   4.394  -0.027  0.1953  0.6791 -0.1380
 4903TIP3   OH214672   2.915   2.942   3.663 -0.2821 -0.2607  0.1947
 4903TIP3    H114673   2.928   2.937   3.568 -0.8264 -2.3168  0.1721
 4903TIP3    H214674   2.845   3.005   3.675  0.3897  0.6832 -0.6881
 4904TIP3   OH214675   5.441   6.714   4.946  0.5282  0.9008  0.3636
 4904TIP3    H114676   5.353   6.708   4.907  0.4076  0.0856  0.7352
 4904TIP3    H214677   5.458   6.626   4.980  0.8744  1.4376  1.6243
 4905TIP3   OH214678   7.005   5.761   1.285  0.1739 -0.0464  0.1795
 4905TIP3    H114679   6.922   5.804   1.305 -0.4490 -1.5745  1.0204
 4905TIP3    H214680   7.063   5.788   1.357 -0.7568 -1.9509  1.7649
 4906TIP3   OH214681   2.084   1.471   5.735 -0.1265  0.5395 -0.0755
 4906TIP3    H114682   2.084   1.377   5.716  0.6662  0.6690 -0.8246
 4906TIP3    H214683   2.094   1.476   5.830  1.0021 -0.1491 -0.1321
 4907TIP3   OH214684   1.585   3.422   0.083  0.1768 -0.2892 -0.0705
 4907TIP3    H114685   1.552   3.343   0.039 -0.3596  0.6168 -1.3519
 4907TIP3    H214686   1.546   3.419   0.171 -0.5931 -0.9735 -0.4230
 4908TIP3   OH214687   3.049   3.329   0.450 -0.1495  0.1151 -0.1138
 4908TIP3    H114688   2.995   3.297   0.522 -0.4310  0.4074 -0.1966
 4908TIP3    H214689   3.006   3.409   0.421 -0.9103 -0.7948 -1.6176
 4909TIP3   OH214690   3.758   4.305   4.644  0.1830 -0.0742 -0.4453
 4909TIP3    H114691   3.822   4.293   4.574  0.8910 -1.9198  0.4554
 4909TIP3    H214692   3.694   4.365   4.607  0.7540 -0.6497 -2.5186
 4910TIP3   OH214693   2.905   2.436   1.762  0.8872 -0.3366 -0.1559
 4910TIP3    H114694   2.856   2.513   1.788 -0.3109 -1.3645  0.7997
 4910TIP3    H214695   2.842   2.381   1.715  0.1673 -2.8556  3.3179
 4911TIP3   OH214696   2.323   0.459   4.093  0.3637 -0.1325  0.6211
 4911TIP3    H114697   2.265   0.382   4.088  1.3895 -0.9288  0.6842
 4911TIP3    H214698   2.310   0.504   4.009 -1.2139  0.3693  1.0923
 4912TIP3   OH214699   4.886   3.153   5.142  0.2606 -0.1684  0.1536
 4912TIP3    H114700   4.965   3.206   5.157  0.7403 -1.0062  0.6609
 4912TIP3    H214701   4.901   3.114   5.056 -0.7744  1.6551 -0.9172
 4913TIP3   OH214702   2.398   1.655   2.133  0.1650  0.0502  0.2656
 4913TIP3    H114703   2.423   1.703   2.054 -1.1778 -0.8284 -0.7190
 4913TIP3    H214704   2.447   1.573   2.128 -0.0881 -0.0998  0.2327
 4914TIP3   OH214705   5.252   5.435   3.698 -0.3742  0.5048 -0.0404
 4914TIP3    H114706   5.239   5.409   3.789 -0.4408 -0.6086 -0.3578
 4914TIP3    H214707   5.319   5.375   3.666 -0.3524  0.8947 -0.7300
 4915TIP3   OH214708   6.779   5.179   5.397  0.6466  0.0374 -0.0609
 4915TIP3    H114709   6.749   5.112   5.458 -0.6098  0.0004 -0.6689
 4915TIP3    H214710   6.872   5.160   5.383  0.4060 -1.3508  0.0713
 4916TIP3   OH214711   1.507   2.424   4.368  0.0982 -0.7887  0.3656
 4916TIP3    H114712   1.422   2.459   4.340  1.1412  1.5225 -0.1548
 4916TIP3    H214713   1.485   2.349   4.424 -2.2696 -0.0841  0.4838
 4917TIP3   OH214714   2.959   1.168   0.107 -0.5388  0.1895 -0.4581
 4917TIP3    H114715   2.903   1.090   0.102 -0.0151 -0.1265 -2.8532
 4917TIP3    H214716   2.908   1.231   0.157 -1.1493 -1.5228  1.2153
 4918TIP3   OH214717   1.088   6.512   0.271 -0.0120 -0.1888 -0.1510
 4918TIP3    H114718   1.025   6.470   0.329 -0.9782  2.8357  1.1703
 4918TIP3    H214719   1.042   6.521   0.187 -1.2176  1.4157  0.6196
 4919TIP3   OH214720   5.490   2.801   3.236  0.2073 -0.1509 -0.0706
 4919TIP3    H114721   5.463   2.813   3.327 -0.2111 -1.9468  0.0795
 4919TIP3    H214722   5.477   2.707   3.219 -1.7447  0.4464 -2.6185
 4920TIP3   OH214723   2.098   0.101   5.248  0.5538 -0.1925  0.0499
 4920TIP3    H114724   2.117   0.182   5.201 -0.8408  0.8366  1.1699
 4920TIP3    H214725   2.173   0.044   5.230  2.0911  1.7221  0.1129
 4921TIP3   OH214726   5.319   1.328   4.073  0.5570 -0.1602  0.5819
 4921TIP3    H114727   5.328   1.272   4.150  0.0820 -0.3034  0.5429
 4921TIP3    H214728   5.293   1.413   4.107 -1.9790 -0.8110  0.4880
 4922TIP3   OH214729   5.457   0.858   1.765  0.4582 -0.2486 -0.4251
 4922TIP3    H114730   5.447   0.915   1.689  3.1134  0.6149 -0.2176
 4922TIP3    H214731   5.458   0.918   1.840  0.3391 -0.8471  0.0633
 4923TIP3   OH214732   6.910   6.759   5.871 -0.2066 -0.3229 -0.2178
 4923TIP3    H114733   6.972   6.822   5.910  0.9059 -2.1128  1.0457
 4923TIP3    H214734   6.898   6.790   5.781  0.4663  1.5605  0.2940
 4924TIP3   OH214735   1.424   5.238   1.164  0.8427 -0.0501  0.0494
 4924TIP3    H114736   1.495   5.186   1.201  1.1131  0.2650 -0.0186
 4924TIP3    H214737   1.433   5.227   1.069  0.0169 -1.0317  0.0736
 4925TIP3   OH214738   4.186   0.740   0.880  0.3121  0.2483  0.2045
 4925TIP3    H114739   4.229   0.780   0.955  0.4784 -1.1784  0.9146
 4925TIP3    H214740   4.239   0.766   0.805  1.3987 -0.0245  0.8547
 4926TIP3   OH214741   6.202   2.268   5.814 -0.7166  0.4260  0.1394
 4926TIP3    H114742   6.224   2.306   5.899 -2.6371  0.7347  0.5398
 4926TIP3    H214743   6.226   2.176   5.822  1.3670  0.9155  0.1347
 4927TIP3   OH214744   6.842   4.736   3.382 -0.2228 -0.5487 -0.7879
 4927TIP3    H114745   6.800   4.819   3.357 -2.3181 -1.1652  0.4450
 4927TIP3    H214746   6.935   4.757   3.386 -0.7470  2.0149  0.3268
 4928TIP3   OH214747   7.149   0.736   2.027  0.1999 -0.3435  0.4159
 4928TIP3    H114748   7.069   0.695   2.058  1.1824 -1.2049  1.9423
 4928TIP3    H214749   7.218   0.672   2.046  1.1880  0.1355 -1.3733
 4929TIP3   OH214750   2.281   5.707   0.847 -0.0261 -0.2882  0.2445
 4929TIP3    H114751   2.232   5.670   0.773 -1.2399  0.0492  0.8552
 4929TIP3    H214752   2.312   5.631   0.895 -2.4552 -0.6276  1.4565
 4930TIP3   OH214753   5.158   4.384   5.589  0.0701 -0.1808 -0.0476
 4930TIP3    H114754   5.220   4.373   5.518  0.4294 -1.5160  0.4286
 4930TIP3    H214755   5.207   4.430   5.657  0.7003 -1.5405  0.4648
 4931TIP3   OH214756   5.781   4.337   0.670  0.6090  0.1299  0.3183
 4931TIP3    H114757   5.851   4.371   0.614  1.0676  1.7421  1.7827
 4931TIP3    H214758   5.713   4.310   0.609  2.0383 -0.4219 -1.0982
 4932TIP3   OH214759   2.556   4.513   1.875 -0.2564  0.6275 -0.1396
 4932TIP3    H114760   2.640   4.512   1.831 -0.5765 -0.3043 -0.7500
 4932TIP3    H214761   2.495   4.473   1.813 -0.9383  0.3203  0.6995
 4933TIP3   OH214762   5.767   0.827   3.452 -0.3109  0.0791 -0.2605
 4933TIP3    H114763   5.760   0.817   3.357 -1.7140  0.6236 -0.2322
 4933TIP3    H214764   5.693   0.776   3.486 -0.4083  0.7156  0.4865
 4934TIP3   OH214765   5.608   6.706   5.530 -0.1362 -0.2138 -0.6816
 4934TIP3    H114766   5.698   6.681   5.506  0.0604 -0.6500  0.4577
 4934TIP3    H214767   5.619   6.779   5.591 -0.4684 -1.2733  0.6956
 4935TIP3   OH214768   1.795   3.360   1.293 -0.1098 -0.5022 -0.0780
 4935TIP3    H114769   1.858   3.406   1.237 -0.0735  0.9109  1.0579
 4935TIP3    H214770   1.849   3.314   1.357 -0.1810  0.8965  1.0397
 4936TIP3   OH214771   1.339   3.567   5.593  0.2361 -0.9749 -0.0413
 4936TIP3    H114772   1.268   3.555   5.530 -1.8216  0.8126  1.7746
 4936TIP3    H214773   1.376   3.480   5.604 -1.6799 -1.9777 -1.0529
 4937TIP3   OH214774   6.363   0.264   3.591 -0.2244  0.0917  0.3243
 4937TIP3    H114775   6.451   0.250   3.627  0.7358  0.8783 -1.5486
 4937TIP3    H214776   6.351   0.359   3.593 -1.0438 -0.0115  0.5846
 4938TIP3   OH214777   4.184   5.519   3.830  0.2182 -0.1627  0.4821
 4938TIP3    H114778   4.091   5.504   3.848 -0.0751  1.1345  0.1922
 4938TIP3    H214779   4.187   5.608   3.795  1.4474 -0.5571 -0.5107
 4939TIP3   OH214780   1.523   0.050   5.226  0.0541  0.0208  0.6482
 4939TIP3    H114781   1.559  -0.027   5.271  0.9962 -0.7870 -1.3524
 4939TIP3    H214782   1.547   0.037   5.135 -3.1701  0.7348 -0.4386
 4940TIP3   OH214783   4.691   3.912   1.718  0.3725  0.1464  0.4698
 4940TIP3    H114784   4.655   3.845   1.776 -0.8920  1.7609  1.6654
 4940TIP3    H214785   4.614   3.948   1.674  0.8265  1.7530  0.9308
 4941TIP3   OH214786   1.331   0.035   1.781 -0.2673  0.0783 -0.0710
 4941TIP3    H114787   1.313   0.040   1.687  0.9839  0.8640 -0.3060
 4941TIP3    H214788   1.426   0.051   1.787 -0.4503  0.7475  1.3715
 4942TIP3   OH214789   4.500   4.804   5.711  0.0336  0.4060 -0.1324
 4942TIP3    H114790   4.413   4.767   5.696 -0.2953  1.3564 -0.7210
 4942TIP3    H214791   4.515   4.794   5.805 -1.3841  1.5829  0.2692
 4943TIP3   OH214792   5.454   0.439   4.855 -0.0529  0.1512  1.0429
 4943TIP3    H114793   5.517   0.508   4.834 -0.6644  0.9615  1.8069
 4943TIP3    H214794   5.507   0.364   4.880  0.7802 -0.7830 -2.7782
 4944TIP3   OH214795   5.039   3.307   3.989  0.2544  0.3674 -0.0372
 4944TIP3    H114796   5.080   3.258   4.061  0.9317 -0.3126 -0.8698
 4944TIP3    H214797   5.095   3.383   3.977  0.4738  0.1710 -0.2456
 4945TIP3   OH214798   0.320   6.498   1.331 -0.1147 -0.4123  0.0044
 4945TIP3    H114799   0.370   6.511   1.412 -0.2557 -2.4033  0.4562
 4945TIP3    H214800   0.369   6.546   1.264 -0.6355  2.3039  1.4400
 4946TIP3   OH214801   3.336   1.068   1.055 -0.2055  0.6521 -0.2178
 4946TIP3    H114802   3.304   0.985   1.092 -0.3162 -0.3149 -2.3119
 4946TIP3    H214803   3.256   1.117   1.034 -0.2586  0.0929 -1.4447
 4947TIP3   OH214804   2.181   1.221   3.309 -0.1431  0.1293  0.3823
 4947TIP3    H114805   2.190   1.160   3.382  0.3566  1.5345  1.5476
 4947TIP3    H214806   2.242   1.188   3.243  1.1256  0.1105  1.5246
 4948TIP3   OH214807   7.105   3.449   0.118 -0.1639  0.1124 -0.0689
 4948TIP3    H114808   7.157   3.449   0.038  0.1451 -0.5509  0.1261
 4948TIP3    H214809   7.014   3.443   0.088 -0.0833  0.4544 -0.3837
 4949TIP3   OH214810   4.445   5.440   2.303  0.1939 -0.1624  0.1447
 4949TIP3    H114811   4.379   5.455   2.371 -0.5291 -0.8751 -0.3802
 4949TIP3    H214812   4.429   5.351   2.273  2.4129 -0.9537  1.0915
 4950TIP3   OH214813   5.395   2.642   5.091 -0.1613  0.5206 -0.1656
 4950TIP3    H114814   5.367   2.679   5.175 -1.0512  1.0620 -0.6896
 4950TIP3    H214815   5.386   2.547   5.103  0.9284  0.5123  0.7614
 4951TIP3   OH214816   5.766   2.999   0.943  0.4865 -0.1998  0.4005
 4951TIP3    H114817   5.701   2.943   0.986 -1.2782  0.9308 -0.6702
 4951TIP3    H214818   5.745   2.992   0.850 -0.1022  2.5366  0.2560
 4952TIP3   OH214819   3.699   2.421   5.105  0.1733 -0.1892 -0.1277
 4952TIP3    H114820   3.790   2.441   5.083 -0.4301  0.4483 -2.4078
 4952TIP3    H214821   3.684   2.334   5.067 -0.3350  0.0178 -0.4253
 4953TIP3   OH214822   3.625   5.655   3.286 -0.7490  0.2667  0.0063
 4953TIP3    H114823   3.603   5.661   3.378 -0.6177  0.6880  0.0143
 4953TIP3    H214824   3.566   5.717   3.242  1.8024  3.1625  0.2953
 4954TIP3   OH214825   3.941   0.757   0.203 -0.5768  0.4622  0.3305
 4954TIP3    H114826   3.926   0.776   0.296 -0.8082  0.8575  0.2166
 4954TIP3    H214827   3.937   0.843   0.160 -0.2315  0.3081 -0.0120
 4955TIP3   OH214828   2.254   4.299   4.781 -0.0302 -0.0397 -0.0157
 4955TIP3    H114829   2.316   4.228   4.763 -0.1212 -0.3720  0.9296
 4955TIP3    H214830   2.214   4.275   4.865  0.0123  1.1833  0.3675
 4956TIP3   OH214831   6.513   3.385   5.226 -0.0687  0.1249  0.4730
 4956TIP3    H114832   6.530   3.291   5.213 -1.3100  0.0675 -1.0369
 4956TIP3    H214833   6.427   3.387   5.269  0.7066  0.5534  2.0546
 4957TIP3   OH214834   1.874   6.285   4.347  0.8519  0.2419  0.4363
 4957TIP3    H114835   1.965   6.315   4.355  0.9040 -0.1359  1.3411
 4957TIP3    H214836   1.864   6.220   4.416 -0.7344  1.8403  1.8377
 4958TIP3   OH214837   3.025   2.831   5.117  0.0735 -0.4744 -0.0244
 4958TIP3    H114838   3.068   2.915   5.131 -1.5857  0.2429  1.0083
 4958TIP3    H214839   3.014   2.825   5.022  1.1002 -0.0102 -0.1801
 4959TIP3   OH214840   1.909   4.865   2.844  0.1698  0.4013  0.0409
 4959TIP3    H114841   1.827   4.912   2.826  0.7978  0.8527 -1.8774
 4959TIP3    H214842   1.908   4.790   2.784  0.8362 -0.0114  0.5227
 4960TIP3   OH214843   2.504   6.330   2.426  0.3565 -0.2847 -0.0056
 4960TIP3    H114844   2.471   6.292   2.507 -0.9268 -0.0097 -0.3803
 4960TIP3    H214845   2.576   6.272   2.399  1.3024  0.0378  1.6926
 4961TIP3   OH214846   6.452   6.372   2.254 -0.2226 -0.1989 -0.4976
 4961TIP3    H114847   6.419   6.356   2.166  1.0670 -1.8049 -0.7365
 4961TIP3    H214848   6.425   6.294   2.304 -1.3276  0.8773  0.6932
 4962TIP3   OH214849   1.437   0.479   1.999 -0.1573 -0.0044  0.0339
 4962TIP3    H114850   1.524   0.509   1.972 -0.9538  0.4363 -2.2735
 4962TIP3    H214851   1.450   0.445   2.087  2.4285 -0.2991 -0.3766
 4963TIP3   OH214852   5.917   4.812   0.394  0.1581  0.0863  0.9162
 4963TIP3    H114853   5.990   4.772   0.346 -0.3063 -1.1301  1.1912
 4963TIP3    H214854   5.850   4.827   0.327 -0.4171 -1.4428  1.0875
 4964TIP3   OH214855   6.638   3.270   5.791  0.2739 -0.1168 -0.4592
 4964TIP3    H114856   6.662   3.298   5.879  2.1707 -0.2474 -0.8689
 4964TIP3    H214857   6.577   3.337   5.760 -1.1118 -0.5457  1.2446
 4965TIP3   OH214858   0.971   0.040   2.272  0.2399  0.3896 -0.6651
 4965TIP3    H114859   0.992  -0.052   2.288  1.3398  0.8376  0.6291
 4965TIP3    H214860   0.898   0.037   2.210  0.7473 -1.3327 -1.2473
 4966TIP3   OH214861   7.103   4.358   3.934 -0.0017 -0.5067  0.3167
 4966TIP3    H114862   7.164   4.353   4.007 -0.6394  0.0928  0.9028
 4966TIP3    H214863   7.017   4.356   3.974 -0.4910  4.1536  0.0468
 4967TIP3   OH214864   5.319   1.204   1.415  0.1961 -0.0259  0.7953
 4967TIP3    H114865   5.344   1.273   1.476 -1.1320  0.8130  0.4298
 4967TIP3    H214866   5.257   1.246   1.355 -1.5640 -1.8115  1.2839
 4968TIP3   OH214867   2.779   3.902   3.935 -0.0954 -0.5318 -0.4248
 4968TIP3    H114868   2.847   3.839   3.963  2.8057  2.0240 -1.1491
 4968TIP3    H214869   2.728   3.918   4.014  1.7051 -0.7832  0.8535
 4969TIP3   OH214870   1.376   6.283   1.280  1.3262  0.4487  0.0079
 4969TIP3    H114871   1.440   6.266   1.350  1.3921 -1.7084 -0.5007
 4969TIP3    H214872   1.340   6.369   1.301  0.4934 -0.5840  3.4115
 4970TIP3   OH214873   3.801   4.300   2.488 -0.6105 -0.4268  0.2302
 4970TIP3    H114874   3.869   4.357   2.451  0.2745 -0.9036  1.0588
 4970TIP3    H214875   3.719   4.345   2.470 -0.2964 -0.7836 -2.6120
 4971TIP3   OH214876   3.943   3.333   0.570  0.8782  0.3825  0.0902
 4971TIP3    H114877   3.907   3.296   0.651 -0.1531  0.7386 -0.1895
 4971TIP3    H214878   4.030   3.366   0.596  0.9319 -0.3115  0.8332
 4972TIP3   OH214879   0.569   6.765   0.934 -0.1395  0.0589 -0.2033
 4972TIP3    H114880   0.520   6.833   0.888  0.6194  1.3629  0.8272
 4972TIP3    H214881   0.514   6.743   1.009  0.5797  1.2154  0.7152
 4973TIP3   OH214882   5.018   6.668   1.259 -0.0814 -0.5756 -0.4049
 4973TIP3    H114883   5.112   6.666   1.273 -0.0280  0.8505 -0.4235
 4973TIP3    H214884   4.992   6.576   1.259  1.3564 -1.0036 -0.7948
 4974TIP3   OH214885   6.941   5.318   4.964  0.1159 -0.3796  0.8440
 4974TIP3    H114886   6.869   5.283   5.017  0.6044  0.6776  2.2697
 4974TIP3    H214887   7.007   5.344   5.028  1.8155 -1.3703 -0.4236
 4975TIP3   OH214888   5.226   4.596   1.992  0.1358  0.1537  0.4177
 4975TIP3    H114889   5.170   4.641   2.055 -1.2861 -0.0872 -0.6429
 4975TIP3    H214890   5.282   4.665   1.956  1.2606  0.2291  2.2017
 4976TIP3   OH214891   4.529   0.034   1.729 -0.1425 -0.2863 -0.4736
 4976TIP3    H114892   4.463   0.055   1.796  0.9230 -1.0326  0.8499
 4976TIP3    H214893   4.480  -0.012   1.661 -1.5001  1.5888 -0.8705
 4977TIP3   OH214894   5.402   6.163   4.332 -0.0506  0.6356 -0.4342
 4977TIP3    H114895   5.332   6.114   4.290 -3.1346  1.1209  3.4566
 4977TIP3    H214896   5.465   6.097   4.361  0.2234 -0.0129 -2.3834
 4978TIP3   OH214897   4.414   1.724   2.529  0.0051  0.0825  0.0809
 4978TIP3    H114898   4.330   1.680   2.516 -0.0971  0.3004  0.0123
 4978TIP3    H214899   4.455   1.724   2.443 -0.0184  0.1745  0.0704
 4979TIP3   OH214900   4.214   4.565   0.435  0.8533 -1.0107 -1.0119
 4979TIP3    H114901   4.185   4.634   0.375  0.9729  0.8649  0.9170
 4979TIP3    H214902   4.309   4.563   0.425  0.8751 -0.6884 -0.8999
 4980TIP3   OH214903   0.051   1.748   3.337 -0.2230 -0.5972  0.5225
 4980TIP3    H114904   0.061   1.674   3.397  0.4107 -1.8201 -1.0479
 4980TIP3    H214905  -0.044   1.757   3.325 -0.4471  0.3562  2.4617
 4981TIP3   OH214906   2.416   5.382   4.578  0.0581 -0.2353  0.0384
 4981TIP3    H114907   2.446   5.418   4.494 -1.7956  0.1351 -0.5124
 4981TIP3    H214908   2.368   5.453   4.619 -1.1521 -1.1558  0.2754
 4982TIP3   OH214909   5.086   2.215   5.444 -0.6564 -0.2770 -0.5641
 4982TIP3    H114910   5.113   2.146   5.504 -0.5797 -1.5573 -1.9951
 4982TIP3    H214911   5.093   2.296   5.495  1.3064 -1.0789  0.5460
 4983TIP3   OH214912   2.060   5.009   0.171 -0.6342  0.1665 -0.4182
 4983TIP3    H114913   2.107   5.055   0.102 -0.0579 -0.1066 -0.2145
 4983TIP3    H214914   2.122   4.944   0.204 -1.1600 -0.2154 -0.1556
 4984TIP3   OH214915   2.644   3.460   5.177  0.3621  0.4299 -0.2615
 4984TIP3    H114916   2.614   3.524   5.241  0.0467 -1.0809  1.1605
 4984TIP3    H214917   2.646   3.377   5.224  0.6964 -0.6463 -2.0546
 4985TIP3   OH214918   3.738   2.163   0.509 -0.1014  0.6750  0.1812
 4985TIP3    H114919   3.690   2.231   0.556  0.7103  2.3330 -1.2627
 4985TIP3    H214920   3.823   2.158   0.553 -0.4094  0.0563  0.7255
 4986TIP3   OH214921   6.281   5.232   2.855  0.1020  0.6597 -0.1021
 4986TIP3    H114922   6.298   5.321   2.826 -0.8879  1.4544  1.6075
 4986TIP3    H214923   6.185   5.224   2.853  0.1867 -0.4532 -0.4549
 4987TIP3   OH214924   7.168   5.098   1.222 -0.2349  0.7881  0.3703
 4987TIP3    H114925   7.092   5.131   1.175 -0.0651 -2.3138 -2.3897
 4987TIP3    H214926   7.241   5.109   1.161 -0.4465 -5.8091 -1.8160
 4988TIP3   OH214927   0.067   3.663   0.811 -0.6201 -0.7771 -0.1669
 4988TIP3    H114928   0.028   3.587   0.769 -3.2824  0.6795 -0.5173
 4988TIP3    H214929   0.002   3.692   0.875 -0.0021  1.5446 -0.4835
 4989TIP3   OH214930   6.649   1.162   2.139 -0.4394 -0.0311  0.0928
 4989TIP3    H114931   6.646   1.092   2.205 -0.3856  0.4531  0.6098
 4989TIP3    H214932   6.565   1.206   2.148  0.0182  0.7454  0.6124
 4990TIP3   OH214933   1.016   5.836   3.009  0.2378 -0.4476  0.3920
 4990TIP3    H114934   1.045   5.764   3.065 -0.8609 -0.8544  0.4588
 4990TIP3    H214935   0.928   5.858   3.041  0.3576  0.6037  0.0585
 4991TIP3   OH214936   0.894   1.907   0.841 -0.0551  0.0819  0.5547
 4991TIP3    H114937   0.901   1.899   0.936 -0.7167  0.8120  0.6734
 4991TIP3    H214938   0.901   2.001   0.824 -2.5525  0.2459  0.1235
 4992TIP3   OH214939   3.202   0.906   5.874  0.7384 -0.1144 -0.2735
 4992TIP3    H114940   3.235   0.850   5.804  0.4152 -1.2570  0.4603
 4992TIP3    H214941   3.180   0.988   5.830  1.9792 -0.2661 -1.2356
 4993TIP3   OH214942   3.908   0.572   1.626 -0.7906 -0.6181 -0.2945
 4993TIP3    H114943   3.926   0.601   1.715  0.7016 -0.6696 -0.5488
 4993TIP3    H214944   3.827   0.617   1.602 -0.7194  0.1098  0.7641
 4994TIP3   OH214945   0.745   2.490   3.177  0.1173  0.2945 -0.3358
 4994TIP3    H114946   0.698   2.523   3.254  0.5785  2.1914 -0.8350
 4994TIP3    H214947   0.823   2.447   3.214  0.4817  1.4325  0.2566
 4995TIP3   OH214948   3.588   0.909   1.737 -0.1053 -0.1070  0.1222
 4995TIP3    H114949   3.605   0.923   1.830 -2.0358 -0.7806  0.6396
 4995TIP3    H214950   3.493   0.923   1.728  0.0157 -0.1890 -1.7184
 4996TIP3   OH214951   5.121   6.596   3.293 -0.0847 -0.5001 -0.1143
 4996TIP3    H114952   5.213   6.619   3.301 -0.3947  0.6785  0.3552
 4996TIP3    H214953   5.076   6.657   3.352 -1.1891 -0.8486 -0.5674
 4997TIP3   OH214954   4.352   0.083   0.809 -0.8746 -0.5461  0.7182
 4997TIP3    H114955   4.293   0.038   0.749 -0.5803 -0.5150  0.3998
 4997TIP3    H214956   4.333   0.046   0.895 -0.5637 -1.3636  0.4473
 4998TIP3   OH214957   2.617   3.763   2.962  0.0480 -0.0321  0.0403
 4998TIP3    H114958   2.664   3.801   2.888 -1.2802 -1.1110 -1.4434
 4998TIP3    H214959   2.557   3.832   2.990  0.7458  0.4783  0.3004
 4999TIP3   OH214960   4.031   3.923   3.827  0.7983  0.2989  0.1917
 4999TIP3    H114961   4.036   4.011   3.865 -0.9550  0.4384  0.1886
 4999TIP3    H214962   3.980   3.934   3.747  1.0916 -0.6281 -0.1349
 5000TIP3   OH214963   0.959   5.167   0.720  0.4385  0.1332  0.0357
 5000TIP3    H114964   1.020   5.227   0.763 -0.0340 -0.7688  2.0350
 5000TIP3    H214965   0.985   5.080   0.749  0.5487 -0.6277 -2.1192
 5001TIP3   OH214966   2.571   5.370   2.058 -0.0216 -0.4983  0.2004
 5001TIP3    H114967   2.664   5.384   2.078 -0.1236 -1.3035  1.3435
 5001TIP3    H214968   2.549   5.288   2.103 -1.2708 -0.3662 -0.1300
 5002TIP3   OH214969   1.021   4.424   5.731 -0.2715 -0.2613  0.0855
 5002TIP3    H114970   0.967   4.474   5.670 -1.4551  0.3964  1.6098
 5002TIP3    H214971   1.099   4.478   5.744  0.2042 -0.6057 -1.1137
 5003TIP3   OH214972   6.195   2.641   1.670  0.8490  0.0841 -0.6069
 5003TIP3    H114973   6.244   2.716   1.705  0.8338  0.1357 -0.6952
 5003TIP3    H214974   6.262   2.586   1.630  1.1176 -0.8885  1.0866
 5004TIP3   OH214975   6.436   3.365   5.628 -0.3416 -0.6751  0.5131
 5004TIP3    H114976   6.476   3.294   5.577 -1.1189  0.7753 -2.3277
 5004TIP3    H214977   6.357   3.388   5.579 -0.7192  1.3989  1.9552
 5005TIP3   OH214978   0.592   5.233   2.170  0.4057  0.6101  0.2991
 5005TIP3    H114979   0.679   5.233   2.128  0.1592 -0.3712 -0.2408
 5005TIP3    H214980   0.608   5.268   2.257  1.3946  0.2352  0.2820
 5006TIP3   OH214981   1.319   1.570   5.268 -0.6615  0.0326  0.7430
 5006TIP3    H114982   1.278   1.638   5.321 -1.6269  0.7536 -0.8607
 5006TIP3    H214983   1.283   1.488   5.302 -2.4262  0.5663  0.2812
 5007TIP3   OH214984   6.552   2.131   5.421 -0.2788  0.3278 -0.1338
 5007TIP3    H114985   6.462   2.128   5.388 -0.2856  1.1433 -0.2101
 5007TIP3    H214986   6.572   2.224   5.427  0.5858  0.1512 -0.1726
 5008TIP3   OH214987   2.600   4.933   4.807  0.0676 -0.0350 -0.4357
 5008TIP3    H114988   2.629   5.008   4.756 -1.9033  0.5051 -0.8612
 5008TIP3    H214989   2.534   4.970   4.867  0.0126 -1.2012  0.2461
 5009TIP3   OH214990   3.291   3.092   2.355 -0.0824 -0.3282  0.0420
 5009TIP3    H114991   3.385   3.100   2.375 -0.0809 -1.1170  0.3814
 5009TIP3    H214992   3.249   3.084   2.440 -0.8535  3.2202  0.1657
 5010TIP3   OH214993   4.514   6.701   1.787  0.0630 -0.3600  0.1340
 5010TIP3    H114994   4.425   6.704   1.753 -0.9273 -1.2249  2.4824
 5010TIP3    H214995   4.570   6.701   1.708 -1.8908  1.6681 -1.3760
 5011TIP3   OH214996   1.425   0.814   0.325 -0.2517  0.0160 -0.1329
 5011TIP3    H114997   1.357   0.747   0.331 -2.0337  1.7863  1.3297
 5011TIP3    H214998   1.383   0.886   0.278  0.5672  1.1817  0.8461
 5012TIP3   OH214999   0.373   3.199   1.188  0.5860  0.5732  0.0320
 5012TIP3    H115000   0.386   3.214   1.281  1.3875 -1.9041  0.4008
 5012TIP3    H215001   0.442   3.138   1.164 -0.4487  0.0607 -1.8628
 5013TIP3   OH215002   5.088   6.585   0.275  0.2131  0.5364 -0.0614
 5013TIP3    H115003   5.111   6.516   0.336  0.6038  0.0150 -0.7939
 5013TIP3    H215004   5.151   6.578   0.204  0.8864  2.2648  0.2941
 5014TIP3   OH215005   1.785   2.303   5.234  0.0276 -0.2161 -0.0554
 5014TIP3    H115006   1.766   2.286   5.142 -0.5616  0.8000 -0.1411
 5014TIP3    H215007   1.881   2.309   5.238  0.0563 -0.2649 -0.5988
 5015TIP3   OH215008   1.652   4.983   2.755  0.0262 -0.6328 -0.3511
 5015TIP3    H115009   1.628   5.017   2.841  1.5715  0.1128 -0.1780
 5015TIP3    H215010   1.590   5.023   2.695 -0.5549 -0.5121  0.3129
 5016TIP3   OH215011   4.437   6.512   0.426 -0.0307 -0.0820 -0.0438
 5016TIP3    H115012   4.401   6.551   0.506 -0.9728 -0.9899  0.0065
 5016TIP3    H215013   4.375   6.442   0.405  0.9274 -0.7076 -0.8297
 5017TIP3   OH215014   3.899   4.470   4.818  0.0291  0.2778  0.2583
 5017TIP3    H115015   3.850   4.521   4.883 -0.9519  0.2896 -0.4586
 5017TIP3    H215016   3.831   4.433   4.761  0.8711  0.7987 -1.1370
 5018TIP3   OH215017   5.029   6.635   2.270 -0.0534 -0.2077 -0.4195
 5018TIP3    H115018   4.955   6.584   2.301 -0.5460  0.5867 -0.2584
 5018TIP3    H215019   5.075   6.577   2.210 -1.2838 -0.4346 -1.1802
 5019TIP3   OH215020   0.153   3.864   5.064  0.8638  0.0853  0.2685
 5019TIP3    H115021   0.065   3.851   5.100  1.1301 -0.1078  0.8633
 5019TIP3    H215022   0.141   3.928   4.994  0.2151 -0.0975  0.2085
 5020TIP3   OH215023   2.019   2.765   3.002 -0.5808 -0.1656  0.2444
 5020TIP3    H115024   2.065   2.711   3.066  0.7098 -1.0150 -1.3200
 5020TIP3    H215025   2.077   2.839   2.987 -0.5383 -0.3307 -0.4374
 5021TIP3   OH215026   1.143   3.237   3.668  0.1177 -0.2873  0.2684
 5021TIP3    H115027   1.097   3.157   3.693 -0.0616  0.0817  1.1648
 5021TIP3    H215028   1.215   3.207   3.612 -2.1588 -0.7653 -2.6752
 5022TIP3   OH215029   4.737   5.267   3.877 -0.2482 -0.6642 -0.1648
 5022TIP3    H115030   4.829   5.243   3.863  0.1259  0.4062  0.2812
 5022TIP3    H215031   4.711   5.218   3.955  0.8693  1.1489  1.4641
 5023TIP3   OH215032   3.642   4.451   1.158 -0.5088 -0.0147  0.2375
 5023TIP3    H115033   3.690   4.474   1.238  0.6505 -0.2053 -0.3811
 5023TIP3    H215034   3.554   4.429   1.189 -0.0035 -0.3796  1.4982
 5024TIP3   OH215035   3.695   0.111  -0.014  0.4585 -0.1930  0.0200
 5024TIP3    H115036   3.755   0.137   0.055  0.4167 -0.3573  0.1182
 5024TIP3    H215037   3.633   0.183  -0.021  1.3173  0.4954 -0.8422
 5025TIP3   OH215038   1.319   1.767   4.826  0.1392  0.2242 -0.4493
 5025TIP3    H115039   1.380   1.840   4.831  2.3717 -1.3400 -2.4597
 5025TIP3    H215040   1.348   1.707   4.895 -0.6979  0.4968  0.1613
 5026TIP3   OH215041   0.398   5.574   0.175  0.0172  0.0362  0.2569
 5026TIP3    H115042   0.436   5.662   0.173 -0.3103  0.1926  0.7641
 5026TIP3    H215043   0.433   5.534   0.255  0.2107 -0.3244  0.0015
 5027TIP3   OH215044   2.431   4.159   1.384  0.1296 -0.4814  0.3454
 5027TIP3    H115045   2.431   4.221   1.311 -3.1760  2.0332  2.1766
 5027TIP3    H215046   2.496   4.194   1.445 -0.6736  0.4059  0.7228
 5028TIP3   OH215047   5.578   5.509   2.242  0.0341  0.7994  0.4318
 5028TIP3    H115048   5.591   5.463   2.325 -1.0305 -0.9401 -0.3178
 5028TIP3    H215049   5.500   5.563   2.257  0.0070  0.7061  0.6372
 5029TIP3   OH215050   2.533   6.494   0.285 -0.5464  0.6402 -0.2398
 5029TIP3    H115051   2.537   6.532   0.197  1.4374  0.5389 -0.2392
 5029TIP3    H215052   2.471   6.421   0.277 -0.2065  0.4762 -1.6261
 5030TIP3   OH215053   0.143   4.256   5.430  0.5483  0.4100  0.0896
 5030TIP3    H115054   0.108   4.182   5.380  1.0391  0.6454 -0.6180
 5030TIP3    H215055   0.157   4.221   5.518  0.9055 -0.3875 -0.2737
 5031TIP3   OH215056   4.424   0.967   2.063  0.3854  0.8548 -0.1129
 5031TIP3    H115057   4.424   0.877   2.096  2.1678  1.4842  1.8361
 5031TIP3    H215058   4.453   0.960   1.972 -1.3980 -0.6664 -0.6160
 5032TIP3   OH215059   1.498   5.762   4.933 -0.4404  0.0906 -0.2475
 5032TIP3    H115060   1.459   5.711   4.862  1.5149 -0.9980 -0.6399
 5032TIP3    H215061   1.585   5.786   4.900  0.0143  0.7002  1.2826
 5033TIP3   OH215062   2.781   2.607   0.587 -0.6430 -0.1108 -0.1014
 5033TIP3    H115063   2.717   2.649   0.645 -0.5332 -0.6095  0.3991
 5033TIP3    H215064   2.849   2.574   0.646 -0.5143 -0.6087 -0.5185
 5034TIP3   OH215065   5.513   3.302   0.959 -0.3485  0.3167 -0.9042
 5034TIP3    H115066   5.443   3.362   0.981  0.3624  0.8697 -0.0767
 5034TIP3    H215067   5.593   3.354   0.965  0.3425 -0.8144  0.4230
 5035TIP3   OH215068   6.413   0.080   3.024  0.3934  0.2605  0.4252
 5035TIP3    H115069   6.429   0.163   2.979 -1.2044 -0.5707 -1.8934
 5035TIP3    H215070   6.481   0.076   3.092  1.5536  2.6608 -0.4624
 5036TIP3   OH215071   6.572   5.249   4.732 -0.0595 -0.0446 -0.0082
 5036TIP3    H115072   6.651   5.212   4.771  0.5253  0.3612 -0.7899
 5036TIP3    H215073   6.516   5.173   4.716  0.5144 -0.4265 -0.2212
 5037TIP3   OH215074   1.394   4.449   3.771 -0.6172 -0.6184  0.4906
 5037TIP3    H115075   1.407   4.366   3.727  0.3750 -0.1547 -0.1304
 5037TIP3    H215076   1.445   4.443   3.851  0.8982 -0.0090 -0.3766
 5038TIP3   OH215077   3.342   5.109   2.069  0.4052 -0.4919  0.3315
 5038TIP3    H115078   3.340   5.141   1.980  2.4304 -1.4361 -0.1121
 5038TIP3    H215079   3.254   5.125   2.103  0.3510  2.3231 -0.9123
 5039TIP3   OH215080   4.177   5.679   2.808 -0.3630  0.5794  0.1716
 5039TIP3    H115081   4.231   5.749   2.772 -0.4093 -0.3808 -1.9852
 5039TIP3    H215082   4.209   5.665   2.897  0.9286  2.0118 -0.0488
 5040TIP3   OH215083   5.680   6.530   2.827  0.2722 -0.2244 -0.0770
 5040TIP3    H115084   5.595   6.492   2.806  1.4586 -2.4371 -1.2392
 5040TIP3    H215085   5.722   6.465   2.883  1.1686  0.9106  0.6282
 5041TIP3   OH215086   3.021   2.857   5.697  0.4225 -0.3670  0.5504
 5041TIP3    H115087   2.933   2.880   5.668  0.4970 -0.3682  0.3257
 5041TIP3    H215088   3.033   2.767   5.667  0.2301 -0.6150  1.2027
 5042TIP3   OH215089   0.584   2.403   1.564  0.0054 -0.1170 -0.1053
 5042TIP3    H115090   0.634   2.367   1.490  2.0563  0.3648  0.9759
 5042TIP3    H215091   0.557   2.490   1.535  0.5903 -0.0222 -0.3814
 5043TIP3   OH215092   5.455   6.313   2.818 -0.0330  0.3327 -0.1689
 5043TIP3    H115093   5.366   6.326   2.786  0.0148  1.8764  0.2361
 5043TIP3    H215094   5.445   6.267   2.901 -0.3605 -0.6127 -0.7212
 5044TIP3   OH215095   1.182   5.316   3.723  0.7449  0.1529  0.0808
 5044TIP3    H115096   1.121   5.387   3.744 -1.9126 -2.0368  0.3423
 5044TIP3    H215097   1.250   5.322   3.789  0.0459  1.8358  0.6972
 5045TIP3   OH215098   5.656   1.098   5.638  0.0610  0.4335  0.1945
 5045TIP3    H115099   5.743   1.058   5.634  0.3577  1.1039 -0.1615
 5045TIP3    H215100   5.600   1.029   5.674  1.2075  0.7916  2.9110
 5046TIP3   OH215101   4.014   1.065   1.877 -0.6555  1.0903  0.0946
 5046TIP3    H115102   3.999   1.142   1.933 -3.1898  0.4775  0.3584
 5046TIP3    H215103   3.938   1.063   1.819  0.6144  0.1693 -1.6101
 5047TIP3   OH215104   6.646   0.173   1.254 -0.4979 -0.1304 -0.1920
 5047TIP3    H115105   6.557   0.207   1.258  0.3817  2.2670  1.2721
 5047TIP3    H215106   6.682   0.190   1.342  1.6729 -0.2140 -1.0032
 5048TIP3   OH215107   5.939   0.161   1.263  0.0579  0.7387 -0.1913
 5048TIP3    H115108   6.022   0.142   1.306 -0.5820  0.9479  1.2185
 5048TIP3    H215109   5.878   0.176   1.336 -1.6042 -1.0086 -1.1267
 5049TIP3   OH215110   2.529   1.730   0.416  0.3250  0.2651 -0.2676
 5049TIP3    H115111   2.583   1.800   0.377  0.3341 -1.2789 -3.3414
 5049TIP3    H215112   2.585   1.653   0.412  0.2643 -0.0495  2.9641
 5050TIP3   OH215113   4.068   1.663   3.953 -0.2596 -0.2974  0.2120
 5050TIP3    H115114   4.053   1.578   3.911  0.6217 -1.1043  1.4434
 5050TIP3    H215115   4.115   1.641   4.034 -0.2670  1.3499  0.6916
 5051TIP3   OH215116   3.440   3.926   3.527 -0.2515  0.1210  0.1062
 5051TIP3    H115117   3.418   3.988   3.457 -0.2205 -2.8113 -2.6912
 5051TIP3    H215118   3.375   3.856   3.518  1.1759 -1.4680  1.5388
 5052TIP3   OH215119   2.434   4.572   2.410 -0.2968  0.2181  0.1886
 5052TIP3    H115120   2.497   4.640   2.434  0.3302 -0.2179 -0.1873
 5052TIP3    H215121   2.440   4.508   2.481  0.3828 -0.2853 -0.3126
 5053TIP3   OH215122   4.784   1.037   4.486 -0.8150 -0.2234  0.4097
 5053TIP3    H115123   4.705   1.087   4.506 -0.7068  0.0760  0.0939
 5053TIP3    H215124   4.758   0.980   4.413 -0.8907 -0.5157  0.6612
 5054TIP3   OH215125   5.137   0.037   0.411  0.3044  0.6200  0.4122
 5054TIP3    H115126   5.148   0.039   0.316  0.5807 -0.3145  0.4226
 5054TIP3    H215127   5.063  -0.021   0.426  0.2456  0.7821  0.7720
 5055TIP3   OH215128   3.514   1.202   5.345  0.0504  0.4254 -0.4962
 5055TIP3    H115129   3.499   1.206   5.439  0.0309  2.1645 -0.5380
 5055TIP3    H215130   3.436   1.157   5.311 -0.1420  0.1596  0.2696
 5056TIP3   OH215131   2.992   6.467   1.498 -0.4457 -0.2506  0.4064
 5056TIP3    H115132   3.033   6.406   1.437 -2.6840 -0.7770 -0.7010
 5056TIP3    H215133   2.980   6.417   1.578 -0.0583 -0.4712  0.3272
 5057TIP3   OH215134   1.820   0.119   5.277 -0.3377  0.0980  0.0219
 5057TIP3    H115135   1.811   0.037   5.229  0.1044 -0.0424  0.1818
 5057TIP3    H215136   1.914   0.128   5.294 -0.5871 -0.4483  1.9169
 5058TIP3   OH215137   1.849   2.428   0.111  0.1692  0.1916 -0.3750
 5058TIP3    H115138   1.820   2.345   0.150  0.2518  0.0468 -0.6158
 5058TIP3    H215139   1.885   2.403   0.026  1.0866  0.3540 -0.0513
 5059TIP3   OH215140   3.032   4.678   3.182  0.0023  0.0730  0.0370
 5059TIP3    H115141   3.018   4.594   3.226  2.5218 -1.8491 -2.4851
 5059TIP3    H215142   3.101   4.720   3.233  1.0083 -0.9162 -0.4525
 5060TIP3   OH215143   3.764   1.846   5.680  0.2403 -0.0654 -0.2029
 5060TIP3    H115144   3.691   1.907   5.693 -0.0100 -0.4328  0.1318
 5060TIP3    H215145   3.797   1.867   5.593 -2.0608 -1.7587 -1.5967
 5061TIP3   OH215146   2.108   1.788   4.772  0.0941  0.0559 -0.0509
 5061TIP3    H115147   2.137   1.813   4.684  1.2764  2.4959  0.9304
 5061TIP3    H215148   2.048   1.715   4.758  1.8069 -0.9893 -2.7053
 5062TIP3   OH215149   5.369   5.533   4.074 -0.6705  0.2504 -0.1589
 5062TIP3    H115150   5.418   5.610   4.043 -1.7006  0.8370 -0.3850
 5062TIP3    H215151   5.305   5.517   4.005  0.2810 -1.5525 -0.6682
 5063TIP3   OH215152   3.673   5.758   1.289  0.3270 -0.7600  0.9284
 5063TIP3    H115153   3.715   5.843   1.300 -0.3565 -0.4059  0.8510
 5063TIP3    H215154   3.723   5.715   1.220 -0.0795  0.0865  0.0733
 5064TIP3   OH215155   6.732   3.924   3.126 -0.0205 -0.0787  0.7246
 5064TIP3    H115156   6.667   3.947   3.060 -0.6386  0.7712  1.6090
 5064TIP3    H215157   6.804   3.986   3.111  0.7077 -1.1217 -0.3577
 5065TIP3   OH215158   6.663   4.380   4.967 -0.5061  0.4580  0.5813
 5065TIP3    H115159   6.756   4.401   4.963  0.2228 -2.5128 -1.2429
 5065TIP3    H215160   6.646   4.364   5.059  0.9406  0.4620  0.8700
 5066TIP3   OH215161   2.679   3.200   5.349 -0.0863 -0.0892 -0.1238
 5066TIP3    H115162   2.600   3.152   5.375 -0.1264 -0.5020 -0.9817
 5066TIP3    H215163   2.748   3.134   5.347  0.2127  0.2088  0.3044
 5067TIP3   OH215164   3.830   2.653   4.444  0.1274  0.0377 -0.3657
 5067TIP3    H115165   3.749   2.697   4.468  0.6799 -0.1529  2.1397
 5067TIP3    H215166   3.815   2.620   4.355 -3.0541 -1.2216  0.5300
 5068TIP3   OH215167   5.460   2.831   2.738  1.3800 -0.1668  0.6023
 5068TIP3    H115168   5.555   2.842   2.745  1.5599 -1.4067  0.3391
 5068TIP3    H215169   5.440   2.756   2.795  0.5521  0.1210  0.7013
 5069TIP3   OH215170   2.265   2.314   4.798 -0.0359 -0.0574  0.0184
 5069TIP3    H115171   2.175   2.339   4.776  0.3264 -0.4547 -2.1203
 5069TIP3    H215172   2.272   2.332   4.892 -2.0806  0.7535  0.0794
 5070TIP3   OH215173   0.182   2.632   0.169  0.9050 -0.2618  0.0283
 5070TIP3    H115174   0.248   2.699   0.185  0.6929  0.2328 -1.1145
 5070TIP3    H215175   0.108   2.658   0.223  0.5593  0.8388 -0.9518
 5071TIP3   OH215176   0.373   2.468   3.846 -0.2377  0.0202  0.3343
 5071TIP3    H115177   0.417   2.492   3.765 -1.1193  2.4231  0.4892
 5071TIP3    H215178   0.288   2.512   3.842 -0.8602 -0.9216  1.9739
 5072TIP3   OH215179   6.668   3.187   0.436  0.1130 -0.1883  0.0714
 5072TIP3    H115180   6.635   3.228   0.356 -2.6453 -2.2406 -0.0002
 5072TIP3    H215181   6.739   3.129   0.407 -2.0623 -2.3287 -1.3150
 5073TIP3   OH215182   2.585   3.814   0.056  0.4833 -0.4625  0.4936
 5073TIP3    H115183   2.567   3.906   0.076 -0.5076 -0.2925 -1.0124
 5073TIP3    H215184   2.566   3.806  -0.038 -1.1369 -2.5791  0.9321
 5074TIP3   OH215185   0.223   6.553   2.942 -0.1734  0.0789  0.5580
 5074TIP3    H115186   0.223   6.564   3.037  2.1797  1.9109  0.4325
 5074TIP3    H215187   0.193   6.637   2.907  0.8457  0.1215 -0.2988
 5075TIP3   OH215188   5.848   2.167   2.097 -0.3535 -0.0857  0.4515
 5075TIP3    H115189   5.840   2.256   2.129  0.7075  0.3931 -0.5322
 5075TIP3    H215190   5.869   2.176   2.004 -0.0597 -1.3450  0.3672
 5076TIP3   OH215191   3.916   4.665   3.744 -0.1418  0.2106 -0.2111
 5076TIP3    H115192   3.898   4.600   3.812 -0.6575 -1.4340 -1.8301
 5076TIP3    H215193   3.968   4.618   3.679 -0.3588  1.4764 -1.3497
 5077TIP3   OH215194   2.651   3.133   5.767  0.2126 -0.0187 -0.3158
 5077TIP3    H115195   2.569   3.150   5.813  0.9168  1.0484  0.6076
 5077TIP3    H215196   2.719   3.163   5.828  1.2110  0.5924 -1.6850
 5078TIP3   OH215197   2.251   2.322   3.032  0.0050 -0.2995  0.8271
 5078TIP3    H115198   2.220   2.405   2.995  0.2942 -0.9631 -1.0164
 5078TIP3    H215199   2.346   2.333   3.040  0.0179 -0.3822  0.7903
 5079TIP3   OH215200   2.092   4.835   0.532  0.0157 -0.1920  0.2948
 5079TIP3    H115201   2.094   4.889   0.453  1.1123  0.0794  0.4908
 5079TIP3    H215202   2.011   4.860   0.577 -0.2821  0.1277 -0.4055
 5080TIP3   OH215203   6.784   5.470   3.890 -0.4033 -0.2457 -0.5400
 5080TIP3    H115204   6.844   5.482   3.963 -1.7055 -1.8892  0.8756
 5080TIP3    H215205   6.728   5.547   3.892  0.7876  0.6629 -1.0647
 5081TIP3   OH215206   0.243   4.496   1.184  0.1061  0.3602 -0.2236
 5081TIP3    H115207   0.307   4.552   1.140 -0.2955  0.7724 -0.2843
 5081TIP3    H215208   0.215   4.434   1.117  1.1691 -0.4643  0.0638
 5082TIP3   OH215209   6.851   2.656   4.067  0.0328 -0.4091  0.3525
 5082TIP3    H115210   6.875   2.719   3.999  0.8737 -1.7595 -0.6483
 5082TIP3    H215211   6.896   2.576   4.043 -0.5870 -1.2672  1.8883
 5083TIP3   OH215212   6.389   6.662   3.559 -0.0451  0.5554 -0.4266
 5083TIP3    H115213   6.464   6.716   3.536 -0.2229  0.9037 -0.2020
 5083TIP3    H215214   6.414   6.619   3.641 -0.3616  1.2257  0.0306
 5084TIP3   OH215215   1.057   0.594   2.676  0.5056 -0.3078  0.5626
 5084TIP3    H115216   1.047   0.501   2.697  0.6216 -0.0221  1.9820
 5084TIP3    H215217   0.968   0.626   2.663  0.5330 -0.8844 -1.2806
 5085TIP3   OH215218   6.876   5.720   2.308  0.1383  0.0696 -0.2212
 5085TIP3    H115219   6.934   5.781   2.262  0.0730  0.3428  0.0549
 5085TIP3    H215220   6.802   5.709   2.248  0.0670  0.4037 -0.2008
 5086TIP3   OH215221   1.223   6.408   1.777 -0.2384 -0.3308 -0.2644
 5086TIP3    H115222   1.209   6.381   1.686 -1.4297  0.7219 -0.4184
 5086TIP3    H215223   1.248   6.327   1.821 -0.6992 -1.0763 -1.3123
 5087TIP3   OH215224   7.170   1.271   5.206  0.0386  0.1357 -0.1604
 5087TIP3    H115225   7.139   1.194   5.253  0.8390  0.8192  1.5759
 5087TIP3    H215226   7.185   1.337   5.274  0.8024  1.3362 -1.4254
 5088TIP3   OH215227   4.837   0.090   5.787  0.0949  0.2246 -0.1054
 5088TIP3    H115228   4.856   0.027   5.718 -0.8628  0.3709 -0.5237
 5088TIP3    H215229   4.786   0.159   5.744  2.5351  2.2185 -0.0480
 5089TIP3   OH215230   5.901   0.187   1.894  0.1332  0.4186  0.3490
 5089TIP3    H115231   5.857   0.161   1.813  0.0613  1.6149 -0.0272
 5089TIP3    H215232   5.980   0.133   1.898  0.4175  0.7155 -0.8229
 5090TIP3   OH215233   5.597   1.646   2.589 -0.5744 -0.1751  0.1785
 5090TIP3    H115234   5.692   1.646   2.577 -0.6922 -0.2381 -0.8460
 5090TIP3    H215235   5.569   1.559   2.560 -1.0884  0.3147 -0.8378
 5091TIP3   OH215236   2.966   1.818   0.413 -0.1720 -0.3298 -0.4230
 5091TIP3    H115237   2.982   1.880   0.484 -1.0765 -0.0431 -0.4582
 5091TIP3    H215238   2.944   1.736   0.457 -0.6872 -0.1643 -0.3745
 5092TIP3   OH215239   4.079   2.317   5.081 -0.1875 -0.4281  0.5355
 5092TIP3    H115240   4.097   2.223   5.091  0.7142 -0.3411 -0.2062
 5092TIP3    H215241   4.165   2.358   5.078 -0.5321  0.2282 -1.0327
 5093TIP3   OH215242   0.888   5.667   1.831 -0.4321 -0.1908 -0.2673
 5093TIP3    H115243   0.797   5.649   1.809 -0.1157 -0.3282 -1.5200
 5093TIP3    H215244   0.888   5.759   1.859 -0.8262  0.0695 -1.0865
 5094TIP3   OH215245   7.102   0.825   4.337  0.1420 -0.4171  0.1080
 5094TIP3    H115246   7.134   0.768   4.267 -0.2203  2.7251 -2.8888
 5094TIP3    H215247   7.007   0.823   4.327  0.0242 -0.6627  1.1910
 5095TIP3   OH215248   1.005   2.471   2.242  0.3326  0.0600 -1.0706
 5095TIP3    H115249   0.924   2.441   2.283  0.9799  0.8626  0.9543
 5095TIP3    H215250   0.997   2.566   2.240  1.5609  0.2114 -0.0201
 5096TIP3   OH215251   2.588   3.471   0.803 -0.3045 -0.0509 -0.1365
 5096TIP3    H115252   2.510   3.510   0.763 -0.6978  1.0139  1.5724
 5096TIP3    H215253   2.560   3.382   0.826 -0.8816  0.1836  0.0826
 5097TIP3   OH215254   0.774   0.355   4.444  0.2083  0.0300  0.4300
 5097TIP3    H115255   0.746   0.434   4.491  1.0714  1.0061 -0.6173
 5097TIP3    H215256   0.701   0.294   4.452 -1.2006  1.5713 -0.1575
 5098TIP3   OH215257   1.404   3.929   4.542  0.6048  0.0818  0.2186
 5098TIP3    H115258   1.391   4.020   4.567  2.1971  0.1407  0.9420
 5098TIP3    H215259   1.356   3.920   4.459 -0.7823  1.1578  0.8540
 5099TIP3   OH215260   3.369   0.368   1.765 -0.2668 -0.2387 -0.2249
 5099TIP3    H115261   3.334   0.390   1.851 -3.1952  0.7064 -1.5464
 5099TIP3    H215262   3.414   0.284   1.778 -2.8341 -1.4436  1.7410
 5100TIP3   OH215263   6.277   4.306   2.890  0.4453  0.4113 -0.1248
 5100TIP3    H115264   6.332   4.346   2.957  0.9533 -0.0329 -0.2766
 5100TIP3    H215265   6.190   4.346   2.904  0.6981  0.8003  0.3762
 5101TIP3   OH215266   0.775   5.428   4.133  0.5058 -0.2586  0.7703
 5101TIP3    H115267   0.748   5.513   4.099  0.1874 -2.0308 -4.2300
 5101TIP3    H215268   0.695   5.375   4.133  1.2337 -1.4124  0.6638
 5102TIP3   OH215269   0.298   2.049   0.518  0.1790 -0.1970  0.1428
 5102TIP3    H115270   0.359   1.988   0.476 -0.1206 -0.5239  0.1817
 5102TIP3    H215271   0.213   2.029   0.479 -0.3961 -1.5354  1.9843
 5103TIP3   OH215272   0.707   0.171   2.770  0.1161  0.3210  0.0557
 5103TIP3    H115273   0.699   0.264   2.747 -1.6687  0.6526  1.7520
 5103TIP3    H215274   0.636   0.128   2.723 -0.0091  0.0754  0.4672
 5104TIP3   OH215275   5.415   4.142   2.389 -0.5616 -1.1284 -0.8647
 5104TIP3    H115276   5.335   4.139   2.336 -1.1463 -1.2331 -0.0053
 5104TIP3    H215277   5.426   4.234   2.412 -1.2543 -1.2912  0.1964
 5105TIP3   OH215278   3.962   2.947   3.386 -0.1408 -0.3163 -0.0001
 5105TIP3    H115279   3.978   2.992   3.469  1.9915 -3.2127  1.3719
 5105TIP3    H215280   3.986   3.011   3.319 -0.0545  1.4974  1.6591
 5106TIP3   OH215281   2.038   6.626   5.296  0.0148 -0.3407 -0.7672
 5106TIP3    H115282   2.132   6.640   5.310 -0.4232 -0.1112  2.5718
 5106TIP3    H215283   2.033   6.537   5.261  1.4774 -0.1291 -1.6220
 5107TIP3   OH215284   2.258   4.808   0.223 -0.0578 -0.5586  0.3965
 5107TIP3    H115285   2.286   4.754   0.149 -0.8919 -0.6721  0.1523
 5107TIP3    H215286   2.321   4.789   0.292 -0.5014 -2.0817  0.4198
 5108TIP3   OH215287   6.629   2.139   2.665 -0.8095 -0.2461 -0.1533
 5108TIP3    H115288   6.539   2.135   2.632 -1.0329  0.2844  0.3811
 5108TIP3    H215289   6.677   2.187   2.598 -0.7134 -1.3459 -0.8892
 5109TIP3   OH215290   2.405   2.865   2.445  0.0001 -0.3807  0.1910
 5109TIP3    H115291   2.393   2.805   2.372  0.6349  1.0433 -1.1404
 5109TIP3    H215292   2.485   2.837   2.488  0.1222 -0.6638 -0.2238
 5110TIP3   OH215293   4.653   5.517   3.860 -0.0821 -0.5485 -0.0856
 5110TIP3    H115294   4.702   5.435   3.856 -2.0017 -1.7952  0.2172
 5110TIP3    H215295   4.578   5.503   3.803 -0.8487  0.7198  0.5608
 5111TIP3   OH215296   0.805   6.502   0.324  0.0755 -0.2897 -0.1529
 5111TIP3    H115297   0.823   6.593   0.348  0.0635 -0.3495  0.0852
 5111TIP3    H215298   0.737   6.474   0.384 -2.3239  0.5383 -2.3239
 5112TIP3   OH215299   0.604   0.343   0.936 -0.0437  0.2267 -0.0705
 5112TIP3    H115300   0.538   0.411   0.922 -0.9449 -0.5979  0.1353
 5112TIP3    H215301   0.559   0.261   0.920  0.9515 -0.3563  0.0156
 5113TIP3   OH215302   4.779   1.276   0.709  0.3870  0.4498 -0.6530
 5113TIP3    H115303   4.841   1.283   0.782  0.2430 -1.5193 -0.2857
 5113TIP3    H215304   4.826   1.311   0.634  1.1326  1.0114  0.0566
 5114TIP3   OH215305   4.734   1.133   3.672  0.1128 -0.4533  0.7929
 5114TIP3    H115306   4.776   1.146   3.757 -1.5569  0.9786  1.4434
 5114TIP3    H215307   4.657   1.189   3.674  0.1068 -0.2533 -1.7517
 5115TIP3   OH215308   0.775   1.864   4.664  0.1437  0.0315  0.0699
 5115TIP3    H115309   0.708   1.920   4.704  0.6680 -0.7701  2.2594
 5115TIP3    H215310   0.854   1.882   4.716  1.1994 -0.2635 -1.3865
 5116TIP3   OH215311   4.276   5.541   5.547  0.3614 -0.0422 -0.3137
 5116TIP3    H115312   4.252   5.605   5.481 -1.4079 -0.7315 -0.3942
 5116TIP3    H215313   4.372   5.536   5.543  0.4407  1.7162 -1.0927
 5117TIP3   OH215314   5.885   2.652   1.023 -0.1467  0.1278  0.6406
 5117TIP3    H115315   5.794   2.659   0.993 -0.0878 -1.5910 -0.0134
 5117TIP3    H215316   5.896   2.728   1.081 -0.9317  2.3795 -1.9268
 5118TIP3   OH215317   5.362   3.473   5.298  0.2957  0.1167  0.2126
 5118TIP3    H115318   5.315   3.543   5.345 -0.3110 -0.7950  0.9907
 5118TIP3    H215319   5.374   3.508   5.210  1.8333  2.0436  1.1162
 5119TIP3   OH215320   2.459   4.771   1.961 -0.3514  0.1760  0.5215
 5119TIP3    H115321   2.497   4.797   2.045  1.2481 -1.3953  0.3508
 5119TIP3    H215322   2.496   4.684   1.943 -1.8217 -0.1905 -1.1001
 5120TIP3   OH215323   2.311   3.186   0.611 -0.2187 -0.5156 -0.0774
 5120TIP3    H115324   2.351   3.107   0.647 -1.6760 -0.6126  1.4818
 5120TIP3    H215325   2.255   3.219   0.682 -1.8962  0.2804 -1.6838
 5121TIP3   OH215326   2.982   2.471   1.494 -0.0534  0.0226 -0.5157
 5121TIP3    H115327   2.956   2.561   1.472 -0.3934  0.3312  1.0684
 5121TIP3    H215328   3.033   2.480   1.574 -1.1055 -1.3248  0.3250
 5122TIP3   OH215329   4.279   5.363   3.436  0.3731 -0.5082 -0.3925
 5122TIP3    H115330   4.198   5.391   3.478  0.1161 -0.6060 -0.8100
 5122TIP3    H215331   4.262   5.374   3.342  0.7503 -0.7708 -0.4954
 5123TIP3   OH215332   6.379   6.040   4.916 -0.1076  0.5094 -0.2079
 5123TIP3    H115333   6.311   6.081   4.970 -1.0933 -1.5553  0.2156
 5123TIP3    H215334   6.331   5.985   4.855  1.1417 -1.5483  0.5526
 5124TIP3   OH215335   0.610   6.653   2.841 -0.0732  0.2694 -0.4969
 5124TIP3    H115336   0.579   6.596   2.771  0.1942 -0.7274  0.1637
 5124TIP3    H215337   0.549   6.727   2.841 -1.2304 -0.6529 -0.5324
 5125TIP3   OH215338   3.411   2.686   3.082 -0.4570 -0.0035  0.5878
 5125TIP3    H115339   3.412   2.592   3.100 -1.1222  0.1795  1.7090
 5125TIP3    H215340   3.319   2.706   3.064 -0.1008  0.1820 -1.2395
 5126TIP3   OH215341   4.925   3.010   2.745  0.5511  0.5878  0.0332
 5126TIP3    H115342   4.877   2.953   2.685 -1.2138 -1.4190  3.1554
 5126TIP3    H215343   4.974   2.951   2.801  2.9154  2.4445  0.0842
 5127TIP3   OH215344   5.590   1.404   0.408 -0.1351 -0.0981 -0.5769
 5127TIP3    H115345   5.580   1.498   0.390  0.9157  0.1326 -0.0492
 5127TIP3    H215346   5.513   1.382   0.460 -0.1521  0.5930 -0.2919
 5128TIP3   OH215347   1.171   2.602   0.731  0.3005 -0.1092 -0.1044
 5128TIP3    H115348   1.162   2.690   0.767 -1.2167 -0.5486  0.6662
 5128TIP3    H215349   1.257   2.602   0.689  0.6920  1.4601  0.6274
 5129TIP3   OH215350   3.958   0.408   3.826 -0.5413 -0.0546 -0.2190
 5129TIP3    H115351   3.977   0.338   3.764  0.4017  0.7997 -0.9345
 5129TIP3    H215352   3.871   0.387   3.860 -0.3583 -1.4535 -0.5482
 5130TIP3   OH215353   4.400   5.425   3.699  0.6217 -0.2971 -0.2575
 5130TIP3    H115354   4.318   5.443   3.746  0.2425 -1.4636 -0.4398
 5130TIP3    H215355   4.372   5.384   3.617  1.4190 -1.7887  0.1847
 5131TIP3   OH215356   1.540   1.789   5.548 -0.2823  0.3003  0.3119
 5131TIP3    H115357   1.566   1.881   5.556 -1.0526  0.5825 -0.2757
 5131TIP3    H215358   1.621   1.742   5.533  0.3349  0.6635  2.1861
 5132TIP3   OH215359   5.266   2.244   3.531 -0.6073  0.3672  0.0133
 5132TIP3    H115360   5.301   2.165   3.571 -0.0898 -0.0798 -1.2504
 5132TIP3    H215361   5.241   2.300   3.605  1.2554  0.0216  0.9816
 5133TIP3   OH215362   7.154   0.057   2.735  0.1356  0.0248  0.9985
 5133TIP3    H115363   7.118   0.142   2.759  0.1291 -0.1291  1.5356
 5133TIP3    H215364   7.090   0.021   2.672  1.2670  1.3793 -1.0429
 5134TIP3   OH215365   0.643   2.730   1.617 -0.4323  0.5930  0.4770
 5134TIP3    H115366   0.593   2.688   1.547  0.3775  0.0495  0.2179
 5134TIP3    H215367   0.602   2.816   1.627 -0.7153  0.5831 -0.4989
 5135TIP3   OH215368   0.888   4.415   3.767  0.6494 -0.4232 -0.3229
 5135TIP3    H115369   0.948   4.341   3.753  1.0691 -0.1186 -0.1755
 5135TIP3    H215370   0.865   4.443   3.678  1.2633 -0.1271 -0.4022
 5136TIP3   OH215371   1.226   4.924   5.128 -0.0211  0.1191 -0.1613
 5136TIP3    H115372   1.315   4.910   5.097 -0.0016 -0.2733  0.0751
 5136TIP3    H215373   1.195   4.999   5.078  0.3177  0.0333 -0.4998
 5137TIP3   OH215374   2.453   0.905   2.289 -0.4124  0.4905 -0.2647
 5137TIP3    H115375   2.433   0.830   2.233  0.4522  1.1779 -1.5504
 5137TIP3    H215376   2.507   0.869   2.360  0.4668 -0.0400 -1.1730
 5138TIP3   OH215377   1.134   4.835   3.897 -0.0305  0.4933  0.4038
 5138TIP3    H115378   1.062   4.776   3.921  1.2135 -1.5968 -0.7301
 5138TIP3    H215379   1.172   4.863   3.980 -0.5020 -0.4824  0.9594
 5139TIP3   OH215380   6.019   5.235   1.890 -0.2351 -0.0173 -0.1246
 5139TIP3    H115381   6.067   5.286   1.955  1.9636  1.1688 -2.4414
 5139TIP3    H215382   6.002   5.297   1.819  0.9484 -1.9754 -2.2958
 5140TIP3   OH215383   3.172   4.877   5.774  0.2459  0.4119 -0.4432
 5140TIP3    H115384   3.095   4.863   5.719 -1.5205  2.7839  1.2047
 5140TIP3    H215385   3.161   4.816   5.846 -1.0831  1.8333  0.6358
 5141TIP3   OH215386   1.279   1.745   5.496  0.2277 -0.4459 -0.0265
 5141TIP3    H115387   1.257   1.659   5.532  0.6285 -0.7799 -0.5637
 5141TIP3    H215388   1.365   1.766   5.533 -0.0221 -0.1136  0.3773
 5142TIP3   OH215389   5.085   0.480   2.456  0.6029 -0.0622 -0.2197
 5142TIP3    H115390   5.023   0.409   2.444  0.8802 -0.5504  1.0142
 5142TIP3    H215391   5.073   0.537   2.381 -0.6215 -0.6797 -0.5011
 5143TIP3   OH215392   6.414   5.666   3.373 -0.8143 -0.7446  0.3242
 5143TIP3    H115393   6.367   5.641   3.452 -1.1889 -1.9937 -0.2629
 5143TIP3    H215394   6.503   5.632   3.387 -0.7907 -0.6748  0.3440
 5144TIP3   OH215395   3.801   6.764   5.582  0.5397  0.4474 -0.3085
 5144TIP3    H115396   3.812   6.732   5.492  0.8835 -0.8328  0.1618
 5144TIP3    H215397   3.842   6.850   5.582  1.8930 -0.1606 -1.0242
 5145TIP3   OH215398   5.394   4.624   3.188  0.0201  0.2717  0.0228
 5145TIP3    H115399   5.312   4.650   3.230 -0.6161  1.4171 -1.8238
 5145TIP3    H215400   5.404   4.531   3.208 -1.5381  0.2045  0.5612
 5146TIP3   OH215401   2.158   6.378   1.675  0.7755  0.2627  0.1444
 5146TIP3    H115402   2.141   6.367   1.769 -1.8703  0.6432 -0.2160
 5146TIP3    H215403   2.216   6.455   1.671 -1.0280  1.7819  1.3986
 5147TIP3   OH215404   0.765   5.884   3.083  0.1005  0.0020  0.2024
 5147TIP3    H115405   0.685   5.896   3.134 -0.4168  0.3118 -0.6580
 5147TIP3    H215406   0.735   5.882   2.992  0.9794 -0.7658 -0.0785
 5148TIP3   OH215407   4.880   5.621   3.146 -0.0405 -0.2045  0.2189
 5148TIP3    H115408   4.962   5.639   3.100  0.0644 -0.0730  0.4537
 5148TIP3    H215409   4.835   5.558   3.090 -0.9765  1.6742 -1.2771
 5149TIP3   OH215410   5.744   2.253   3.366  0.2220  0.0503  0.0847
 5149TIP3    H115411   5.733   2.299   3.449 -0.1593 -1.5782  0.9834
 5149TIP3    H215412   5.655   2.235   3.336  0.3578  0.4034 -0.5576
 5150TIP3   OH215413   0.481   0.600   0.951  0.3353  0.0791 -0.0034
 5150TIP3    H115414   0.559   0.619   1.002  0.8175 -0.4724 -0.5235
 5150TIP3    H215415   0.488   0.657   0.874  0.7444 -0.6927 -0.5479
 5151TIP3   OH215416   5.110   2.678   4.942 -0.1445  0.2653  0.2661
 5151TIP3    H115417   5.184   2.738   4.929  1.0120 -1.0895  0.4546
 5151TIP3    H215418   5.150   2.591   4.948 -1.8503 -0.6464 -0.8228
 5152TIP3   OH215419   4.861   4.094   1.144 -0.1490 -0.2037  0.2229
 5152TIP3    H115420   4.819   4.024   1.094 -1.1143  0.2017  0.4507
 5152TIP3    H215421   4.805   4.105   1.221 -0.2925  1.1699 -0.0655
 5153TIP3   OH215422   3.957   1.604   5.286 -0.2239 -0.6182 -0.1858
 5153TIP3    H115423   3.932   1.531   5.229  1.0075 -0.6222 -0.7603
 5153TIP3    H215424   4.052   1.596   5.295 -0.0727  0.8647 -0.1817
 5154TIP3   OH215425   5.035   6.712   4.304 -0.1840  0.4103 -0.2118
 5154TIP3    H115426   5.007   6.632   4.349  1.7778  1.1825  2.6660
 5154TIP3    H215427   5.055   6.683   4.215  1.2068 -2.5565  0.9089
 5155TIP3   OH215428   1.519   1.590   0.125 -0.2102  0.1100 -0.0388
 5155TIP3    H115429   1.501   1.654   0.194  1.8746  0.7627 -0.0210
 5155TIP3    H215430   1.586   1.532   0.163 -0.5861 -0.8398 -0.7788
 5156TIP3   OH215431   3.413   4.341   1.295  0.8362 -0.4101  0.3250
 5156TIP3    H115432   3.351   4.414   1.288  1.3007 -0.0728 -0.2973
 5156TIP3    H215433   3.415   4.321   1.389  1.1074  0.7301  0.5750
 5157TIP3   OH215434   2.094   3.734   1.381 -0.2984  0.1544  0.2271
 5157TIP3    H115435   2.032   3.800   1.348  1.4443  0.9241 -1.7454
 5157TIP3    H215436   2.090   3.743   1.476 -2.1533  1.1369  0.1120
 5158TIP3   OH215437   0.773   0.733   3.324 -0.1033  0.1774  0.4319
 5158TIP3    H115438   0.843   0.741   3.259 -1.9453  1.0140 -1.5941
 5158TIP3    H215439   0.748   0.824   3.343 -0.9270 -0.1049  0.7441
 5159TIP3   OH215440   6.217   1.396   3.854  0.1580  0.1463  0.2154
 5159TIP3    H115441   6.203   1.490   3.844 -0.5425 -0.0279 -0.5360
 5159TIP3    H215442   6.234   1.384   3.947 -0.9738  0.8707  0.5321
 5160TIP3   OH215443   5.974   4.638   2.238 -0.4956  0.0904 -0.2099
 5160TIP3    H115444   5.920   4.584   2.181 -2.2087  0.4900  0.9290
 5160TIP3    H215445   6.044   4.670   2.182 -0.9356 -1.1757 -1.5493
 5161TIP3   OH215446   4.136   3.473   3.285  0.5034  0.0767  0.3155
 5161TIP3    H115447   4.049   3.511   3.293  0.1695 -0.6928  0.4132
 5161TIP3    H215448   4.142   3.410   3.356  0.0004 -2.0381 -1.4139
 5162TIP3   OH215449   4.007   5.892   5.286 -0.2620 -0.3850  0.1240
 5162TIP3    H115450   3.996   5.857   5.375 -0.0073  3.6709  1.9639
 5162TIP3    H215451   4.101   5.882   5.269 -0.4689 -2.1095 -0.2052
 5163TIP3   OH215452   4.561   5.867   1.374 -0.0408  0.3986  0.2212
 5163TIP3    H115453   4.646   5.822   1.374  0.4070  1.2190 -0.1704
 5163TIP3    H215454   4.499   5.800   1.402  0.4769 -0.7212 -1.1920
 5164TIP3   OH215455   6.456   4.033   1.043  0.2131 -0.6832  0.4302
 5164TIP3    H115456   6.535   4.083   1.063 -0.3155  0.8542 -1.0286
 5164TIP3    H215457   6.385   4.095   1.059 -0.5285 -1.2823 -0.4867
 5165TIP3   OH215458   5.465   1.992   4.202  0.6421  0.0341  0.4746
 5165TIP3    H115459   5.378   2.026   4.178  0.7663  0.0194 -0.0097
 5165TIP3    H215460   5.486   2.036   4.284  2.1326  3.5823 -1.5975
 5166TIP3   OH215461   1.383   3.423   2.507  0.0721  0.0171 -0.0141
 5166TIP3    H115462   1.445   3.496   2.513 -0.7143  0.6308  1.0481
 5166TIP3    H215463   1.413   3.361   2.573 -0.4245  0.3182  0.5067
 5167TIP3   OH215464   3.757   5.150   1.696  0.2697 -0.0582  0.1162
 5167TIP3    H115465   3.815   5.196   1.756 -1.5506 -0.2464  2.1318
 5167TIP3    H215466   3.761   5.058   1.723 -0.9313 -0.0776  0.2973
 5168TIP3   OH215467   4.962   2.382   1.756  0.3160  0.2290  0.6626
 5168TIP3    H115468   4.976   2.291   1.784  0.9607  0.3216  0.6573
 5168TIP3    H215469   5.047   2.410   1.723 -0.1320  0.5132 -0.2802
 5169TIP3   OH215470   1.486   6.666   2.113 -0.1879 -0.0155  0.0743
 5169TIP3    H115471   1.462   6.583   2.154  3.2476 -0.7782  0.9148
 5169TIP3    H215472   1.532   6.641   2.033 -0.8244  1.1918 -0.6957
 5170TIP3   OH215473   6.433   5.435   1.998  0.2903 -0.3546 -0.4172
 5170TIP3    H115474   6.396   5.489   2.068  1.0781 -0.8333  0.3799
 5170TIP3    H215475   6.509   5.485   1.967 -1.5946  1.2576 -2.9190
 5171TIP3   OH215476   1.185   5.375   0.519  0.5855 -0.0748  0.3427
 5171TIP3    H115477   1.091   5.391   0.513  0.5119 -0.4731  0.3864
 5171TIP3    H215478   1.215   5.374   0.428  1.1028  3.1137  0.3662
 5172TIP3   OH215479   7.086   3.089   0.623  0.2868 -0.0223  0.4529
 5172TIP3    H115480   7.180   3.086   0.639  0.2536  2.6123  1.6818
 5172TIP3    H215481   7.054   3.161   0.677 -2.3293 -0.2790 -0.5654
 5173TIP3   OH215482   3.325   5.246   3.322  0.2639 -0.4192  0.5644
 5173TIP3    H115483   3.242   5.294   3.325  1.6597  2.3596 -1.1993
 5173TIP3    H215484   3.351   5.249   3.230  2.6488 -0.5307  1.1755
 5174TIP3   OH215485   4.428   0.070   5.629  0.4083  0.1223 -0.2676
 5174TIP3    H115486   4.437  -0.017   5.666  0.3085  0.2312  0.0127
 5174TIP3    H215487   4.344   0.102   5.661  1.3603  1.1429  1.3691
 5175TIP3   OH215488   6.745   1.036   4.009 -0.4976 -0.5246 -0.1813
 5175TIP3    H115489   6.782   1.082   3.933 -0.6396  0.7581  0.4901
 5175TIP3    H215490   6.651   1.056   4.005 -0.3588  0.4233  0.8895
 5176TIP3   OH215491   5.463   2.632   0.632 -0.1321 -0.0383  0.0493
 5176TIP3    H115492   5.487   2.667   0.717 -0.5131 -0.6780  0.4281
 5176TIP3    H215493   5.461   2.708   0.574  1.7107  0.1800  0.2358
 5177TIP3   OH215494   7.037   1.594   2.520  0.4862  0.6383 -0.1982
 5177TIP3    H115495   7.079   1.508   2.521 -0.1106  0.3340 -0.7402
 5177TIP3    H215496   6.988   1.596   2.438 -3.0317 -0.2341  1.6803
 5178TIP3   OH215497   2.834   5.781   0.728  0.6991  0.1501 -0.5969
 5178TIP3    H115498   2.902   5.795   0.794 -0.9776 -1.7889  1.7278
 5178TIP3    H215499   2.771   5.851   0.743 -1.6807 -2.4127  2.8214
 5179TIP3   OH215500   4.265   1.999   1.957  0.3689  0.1596 -0.8204
 5179TIP3    H115501   4.333   1.932   1.957  0.3099  0.0946 -1.2622
 5179TIP3    H215502   4.257   2.025   2.049  1.1228  0.3092 -0.7958
 5180TIP3   OH215503   0.904   4.482   5.160  0.2013  0.0747 -0.5579
 5180TIP3    H115504   0.926   4.473   5.253  0.7924 -1.0714 -0.7995
 5180TIP3    H215505   0.980   4.448   5.113 -0.7046 -0.7952 -1.4396
 5181TIP3   OH215506   0.888   0.491   2.965  0.1121 -0.1264  0.4458
 5181TIP3    H115507   0.841   0.457   2.889 -0.3150  0.0293  0.6373
 5181TIP3    H215508   0.978   0.462   2.953 -0.2874 -1.5906  0.7553
 5182TIP3   OH215509   3.579   5.713   0.705  0.0629  0.1295  0.0348
 5182TIP3    H115510   3.652   5.715   0.643 -0.5591 -1.5062 -0.8324
 5182TIP3    H215511   3.553   5.804   0.716  0.5867  0.5208 -1.6700
 5183TIP3   OH215512   6.322   0.980   0.898  0.1302 -0.0811  0.3827
 5183TIP3    H115513   6.256   1.045   0.876 -0.6133 -0.3819  1.6372
 5183TIP3    H215514   6.273   0.899   0.913  1.0278 -0.9357 -1.0299
 5184TIP3   OH215515   4.332   2.954   0.006 -0.3496  0.3667 -0.1286
 5184TIP3    H115516   4.389   2.927  -0.067 -2.0195  1.5710 -1.9697
 5184TIP3    H215517   4.379   2.925   0.084  1.5842 -0.9002 -1.6484
 5185TIP3   OH215518   0.286   3.348   4.033 -0.1900 -0.2822 -0.1404
 5185TIP3    H115519   0.301   3.442   4.042  0.4515 -0.3422 -0.4928
 5185TIP3    H215520   0.212   3.340   3.974  1.2023 -0.0058 -2.0171
 5186TIP3   OH215521   1.728   0.836   2.624  0.4749 -0.2570 -0.2486
 5186TIP3    H115522   1.661   0.817   2.689 -1.2009 -0.1170 -1.8496
 5186TIP3    H215523   1.810   0.839   2.674 -0.6047 -1.0346  1.6798
 5187TIP3   OH215524   3.843   6.161   0.823  0.0313 -0.0096  0.3541
 5187TIP3    H115525   3.935   6.156   0.798  0.5838  1.1780  2.0208
 5187TIP3    H215526   3.808   6.234   0.772  0.1766 -0.0251  0.2311
 5188TIP3   OH215527   6.412   1.489   3.575  0.1985 -0.0571  0.6907
 5188TIP3    H115528   6.333   1.476   3.523  0.7834 -0.3519 -0.1398
 5188TIP3    H215529   6.380   1.519   3.660 -1.0726 -3.3361  1.5610
 5189TIP3   OH215530   0.159   3.597   0.306  0.1231  0.3570 -0.1312
 5189TIP3    H115531   0.160   3.541   0.228  0.5618  0.0480  0.0939
 5189TIP3    H215532   0.075   3.579   0.347 -0.7516  1.5894 -1.2911
 5190TIP3   OH215533   3.210   1.249   4.370 -0.3193  0.0593 -0.7250
 5190TIP3    H115534   3.187   1.181   4.432 -2.0578  0.7669 -0.5325
 5190TIP3    H215535   3.251   1.202   4.297 -0.4242 -1.0509 -0.0895
 5191TIP3   OH215536   3.011   1.157   0.418 -0.0698  0.3813  0.6707
 5191TIP3    H115537   3.056   1.137   0.336  0.1738  0.5759  0.7554
 5191TIP3    H215538   3.045   1.243   0.444  0.5239 -0.0615  1.4307
 5192TIP3   OH215539   6.615   3.320   4.190  0.2488 -0.2739  0.1851
 5192TIP3    H115540   6.573   3.236   4.169  0.8288 -1.0187  1.8259
 5192TIP3    H215541   6.549   3.386   4.169 -1.5779 -1.3655  2.0758
 5193TIP3   OH215542   0.067   4.577   4.773 -0.0720  0.7515 -0.2847
 5193TIP3    H115543   0.104   4.533   4.696 -1.4184 -1.3466  0.1888
 5193TIP3    H215544   0.086   4.517   4.846 -0.0971  1.9975  0.7742
 5194TIP3   OH215545   3.247   4.603   5.260 -0.0693 -0.2711 -0.1368
 5194TIP3    H115546   3.162   4.585   5.300 -1.0785  0.5389 -1.7824
 5194TIP3    H215547   3.264   4.695   5.282  0.6404 -0.5849  0.6327
 5195TIP3   OH215548   0.784   3.135   4.370 -0.4976 -0.0127  0.4237
 5195TIP3    H115549   0.781   3.230   4.356 -3.6033 -0.1425 -0.6663
 5195TIP3    H215550   0.843   3.103   4.302 -0.3704  1.0201  0.0234
 5196TIP3   OH215551   4.547   4.774   0.929  1.0151  0.3456 -0.3032
 5196TIP3    H115552   4.559   4.725   1.011  0.5653  0.0378 -0.4166
 5196TIP3    H215553   4.621   4.747   0.875 -0.3547 -1.9294 -1.1913
 5197TIP3   OH215554   6.743   0.651   5.144 -0.4328  0.0788  0.0845
 5197TIP3    H115555   6.712   0.710   5.212  0.6055  0.9235 -0.1550
 5197TIP3    H215556   6.767   0.708   5.071  2.0507 -0.4505  0.4095
 5198TIP3   OH215557   3.655   5.518   2.836 -0.0499  0.1365 -0.5001
 5198TIP3    H115558   3.624   5.608   2.838 -0.1679  0.0867  0.1353
 5198TIP3    H215559   3.739   5.521   2.883  0.4228  0.0870 -1.3195
 5199TIP3   OH215560   4.697   0.208   0.499  0.9897 -0.1663  0.7811
 5199TIP3    H115561   4.740   0.130   0.464  0.4256  0.2662 -0.9790
 5199TIP3    H215562   4.712   0.203   0.594  0.4562 -2.7269  0.8212
 5200TIP3   OH215563   0.042   5.467   0.054 -0.5571 -0.2203  0.3312
 5200TIP3    H115564  -0.041   5.499   0.089 -0.6753 -1.1620  0.9410
 5200TIP3    H215565   0.098   5.456   0.131 -0.0770 -0.2088 -0.0105
 5201TIP3   OH215566   2.463   0.424   1.644  0.2844 -0.3739  0.0459
 5201TIP3    H115567   2.432   0.347   1.597  0.0469 -0.5379  0.4631
 5201TIP3    H215568   2.545   0.396   1.685  0.5074 -0.2220 -0.2862
 5202TIP3   OH215569   6.913   5.970   1.654 -0.5152  0.0454 -0.0218
 5202TIP3    H115570   6.936   6.024   1.729  1.0891 -0.4667 -0.1144
 5202TIP3    H215571   6.930   6.026   1.578  1.4842 -0.6222 -0.1353
 5203TIP3   OH215572   2.490   3.771   5.693 -0.4960 -0.4328  0.7285
 5203TIP3    H115573   2.487   3.844   5.632  2.1384  0.2455  1.2855
 5203TIP3    H215574   2.399   3.756   5.718 -1.1745  2.2057  0.0892
 5204TIP3   OH215575   4.666   5.808   1.692  0.1185  0.1606 -0.1266
 5204TIP3    H115576   4.697   5.845   1.610  0.1920 -0.7994 -0.5473
 5204TIP3    H215577   4.619   5.728   1.666  1.4027 -0.9535  0.8666
 5205TIP3   OH215578   5.595   6.793   3.365 -0.0720  0.1792  0.1802
 5205TIP3    H115579   5.664   6.831   3.311 -1.1529  2.0240  0.0347
 5205TIP3    H215580   5.634   6.713   3.401  1.7408  0.5884 -0.7713
 5206TIP3   OH215581   3.157   3.592   1.565 -0.0020 -0.7571 -0.3631
 5206TIP3    H115582   3.244   3.607   1.527 -0.0445 -1.8424 -0.9505
 5206TIP3    H215583   3.103   3.661   1.528  0.5645 -0.1922 -0.1539
 5207TIP3   OH215584   2.000   6.328   3.839  0.2580  0.1327  0.0370
 5207TIP3    H115585   2.018   6.422   3.843  1.2402  0.2917 -4.0281
 5207TIP3    H215586   2.074   6.287   3.884 -0.0327  1.2146  1.5917
 5208TIP3   OH215587   1.264   4.594   3.422  0.1922 -0.7232  0.6814
 5208TIP3    H115588   1.217   4.659   3.370  0.4473 -0.3605  0.9030
 5208TIP3    H215589   1.270   4.632   3.510  2.8677  0.2884  0.1616
 5209TIP3   OH215590   2.362   1.745   5.077  0.2818  0.4791 -0.7786
 5209TIP3    H115591   2.410   1.780   5.002  1.1110  1.8723  0.3496
 5209TIP3    H215592   2.427   1.740   5.147 -0.3115 -1.4201 -0.2936
 5210TIP3   OH215593   5.097   6.636   3.019 -0.2758  0.3920 -0.1843
 5210TIP3    H115594   5.114   6.620   3.112  1.0443 -0.9873 -0.6127
 5210TIP3    H215595   5.150   6.713   2.998  1.0453 -0.4783 -0.2036
 5211TIP3   OH215596   6.334   4.671   0.892 -0.4346  0.4043  0.4557
 5211TIP3    H115597   6.307   4.607   0.958 -0.2173  0.5155  0.6530
 5211TIP3    H215598   6.425   4.650   0.874 -0.7596 -0.2582 -0.5367
 5212TIP3   OH215599   2.412   1.850   1.944 -0.7329 -0.6489  0.2491
 5212TIP3    H115600   2.480   1.912   1.918  0.1545 -1.5117  0.4999
 5212TIP3    H215601   2.359   1.839   1.864 -0.1399 -0.5532 -0.1665
 5213TIP3   OH215602   1.059   3.422   5.602 -0.5363  0.7486  0.7120
 5213TIP3    H115603   1.120   3.441   5.531  1.0082 -0.3219  1.6871
 5213TIP3    H215604   1.033   3.332   5.587 -1.7509  1.1368  0.4230
 5214TIP3   OH215605   6.533   3.659   0.381 -0.2691  0.4515 -0.8864
 5214TIP3    H115606   6.550   3.580   0.433 -0.1505 -0.2609 -1.9674
 5214TIP3    H215607   6.533   3.730   0.444 -0.9058 -0.4742  0.1973
 5215TIP3   OH215608   1.805   3.782   3.137  0.2147  0.1759  0.4455
 5215TIP3    H115609   1.796   3.706   3.079  1.6584  0.8769 -0.7867
 5215TIP3    H215610   1.716   3.817   3.144  0.2041  1.4126 -3.3668
 5216TIP3   OH215611   5.283   3.633   4.050  0.2120 -0.0777 -0.4765
 5216TIP3    H115612   5.352   3.567   4.064  1.9351  1.5663 -0.8161
 5216TIP3    H215613   5.326   3.716   4.070 -1.1355  1.1705 -2.5099
 5217TIP3   OH215614   4.328   6.269   5.106 -0.6782 -0.1970  0.2963
 5217TIP3    H115615   4.361   6.357   5.087 -0.5181  0.1162  1.9259
 5217TIP3    H215616   4.397   6.210   5.073 -0.2802  0.3168  0.1992
 5218TIP3   OH215617   2.977   2.091   2.846 -0.2941  0.6372  0.3345
 5218TIP3    H115618   2.910   2.030   2.818  0.6365 -0.1114 -0.3369
 5218TIP3    H215619   3.032   2.104   2.768 -0.5247  2.4218  0.4196
 5219TIP3   OH215620   2.448   0.513   5.288  0.0621 -0.1052 -0.1150
 5219TIP3    H115621   2.376   0.526   5.351 -0.1722  0.5849 -0.5130
 5219TIP3    H215622   2.434   0.581   5.222  1.7082  0.7692  0.3730
 5220TIP3   OH215623   5.383   0.958   1.528 -0.0340 -0.1045  0.0937
 5220TIP3    H115624   5.362   1.044   1.491 -0.9822  0.7324  2.4217
 5220TIP3    H215625   5.301   0.910   1.524  0.0348 -0.2509  0.4686
 5221TIP3   OH215626   5.833   2.304   4.909  0.4753 -0.0001  0.5594
 5221TIP3    H115627   5.822   2.391   4.946  1.1773 -0.0424  0.8935
 5221TIP3    H215628   5.901   2.263   4.964  0.3544 -0.6516  0.2358
 5222TIP3   OH215629   4.729   2.342   2.665 -0.2015  0.1890 -0.5802
 5222TIP3    H115630   4.724   2.425   2.713  1.6444 -0.4363  0.7989
 5222TIP3    H215631   4.819   2.338   2.634  0.0446 -1.7787  0.2944
 5223TIP3   OH215632   4.959   1.967   3.716 -0.2204  0.2517  0.2359
 5223TIP3    H115633   4.922   1.937   3.798 -1.3742 -1.5859 -0.8949
 5223TIP3    H215634   4.888   1.960   3.653  1.4209 -1.3373 -1.5600
 5224TIP3   OH215635   3.821   1.156   1.109  0.2454  0.2251  0.6389
 5224TIP3    H115636   3.772   1.169   1.190 -0.8458 -1.6271  0.3327
 5224TIP3    H215637   3.754   1.138   1.043  1.2328 -0.4343 -0.2163
 5225TIP3   OH215638   6.208   1.069   1.721  0.2318 -0.3421 -0.4428
 5225TIP3    H115639   6.283   1.013   1.705  1.1415 -0.0251  2.1474
 5225TIP3    H215640   6.206   1.079   1.817 -3.2595 -0.5208 -0.3743
 5226TIP3   OH215641   1.822   0.641   1.316  0.0932  0.4164  0.1459
 5226TIP3    H115642   1.736   0.607   1.289 -0.5467  2.6883 -0.9467
 5226TIP3    H215643   1.867   0.661   1.234  1.1225  0.5554  0.7272
 5227TIP3   OH215644   4.730   1.755   0.692 -0.2486  0.2969 -0.0462
 5227TIP3    H115645   4.762   1.833   0.738 -1.0372  0.4258  0.3002
 5227TIP3    H215646   4.724   1.688   0.761 -0.5904  0.2371 -0.1322
 5228TIP3   OH215647   3.395   2.795   2.002 -0.1603 -0.2828  0.6474
 5228TIP3    H115648   3.308   2.755   2.001 -0.7006  0.8093 -1.2868
 5228TIP3    H215649   3.409   2.820   2.094 -2.6585  1.1023  0.7376
 5229TIP3   OH215650   1.647   0.264   1.874 -0.2795 -0.0720  0.1429
 5229TIP3    H115651   1.736   0.295   1.890 -0.3439 -0.1337  0.6131
 5229TIP3    H215652   1.605   0.337   1.827 -0.2911  0.3772  0.8325
 5230TIP3   OH215653   6.648   4.531   3.288  0.5182 -0.0191 -0.2649
 5230TIP3    H115654   6.729   4.582   3.293 -0.6436  1.8368  2.0786
 5230TIP3    H215655   6.581   4.591   3.320 -1.2680 -2.4304  0.8088
 5231TIP3   OH215656   1.722   5.816   0.532 -0.3357 -0.3029  0.0480
 5231TIP3    H115657   1.749   5.904   0.506  1.3312 -0.1208  2.1016
 5231TIP3    H215658   1.804   5.773   0.556 -1.0742 -2.5817 -1.2753
 5232TIP3   OH215659   4.911   3.779   1.225  0.2058 -0.4880 -0.1776
 5232TIP3    H115660   4.836   3.720   1.230  1.5855 -2.3734 -0.1984
 5232TIP3    H215661   4.912   3.823   1.310 -0.3161 -1.2481  0.2407
 5233TIP3   OH215662   0.959   2.133   1.301 -0.0538 -0.0204  0.0090
 5233TIP3    H115663   0.916   2.129   1.386 -0.7930 -1.3780 -0.4129
 5233TIP3    H215664   1.043   2.176   1.320 -0.5256  0.3993  1.2767
 5234TIP3   OH215665   3.051   3.797   1.816 -0.0397 -0.0320 -0.1386
 5234TIP3    H115666   3.144   3.777   1.824  0.1368  1.3008  1.8372
 5234TIP3    H215667   3.034   3.792   1.722  2.0561 -0.1752 -0.5683
 5235TIP3   OH215668   6.339   4.999   3.269 -0.2346 -0.0858 -0.3461
 5235TIP3    H115669   6.280   5.069   3.294  1.0041  0.5033  1.0562
 5235TIP3    H215670   6.356   5.013   3.176 -1.0330  0.6719 -0.3812
 5236TIP3   OH215671   5.614   4.411   5.683  0.3067  0.1660 -0.3834
 5236TIP3    H115672   5.551   4.479   5.661  3.0407  2.8292 -0.5271
 5236TIP3    H215673   5.576   4.367   5.759 -2.2652  0.7581 -1.2289
 5237TIP3   OH215674   0.740   1.704   0.111  0.0636 -0.8335  0.4427
 5237TIP3    H115675   0.800   1.761   0.062  0.3671 -1.1101  0.4891
 5237TIP3    H215676   0.690   1.658   0.045  0.1629 -0.8765  0.3971
 5238TIP3   OH215677   1.382   5.726   4.402  0.0580  0.5999 -0.0952
 5238TIP3    H115678   1.291   5.755   4.401  0.1550  0.9119 -1.1127
 5238TIP3    H215679   1.411   5.740   4.492 -1.2943 -0.7705  0.5936
 5239TIP3   OH215680   3.748   3.253   3.524 -0.4386  0.2804 -0.9249
 5239TIP3    H115681   3.817   3.200   3.565  0.4693  2.0940  0.0020
 5239TIP3    H215682   3.685   3.269   3.594 -1.6160 -0.9337 -1.6391
 5240TIP3   OH215683   4.947   5.680   2.075 -0.3095 -0.2659 -0.0665
 5240TIP3    H115684   4.986   5.677   1.988 -0.5454 -0.1556 -0.1748
 5240TIP3    H215685   4.854   5.666   2.062 -0.6310  1.5648 -0.0439
 5241TIP3   OH215686   2.303   3.198   2.819  0.0401 -0.5037 -0.2535
 5241TIP3    H115687   2.350   3.241   2.891  0.4524 -0.4975 -0.5249
 5241TIP3    H215688   2.259   3.124   2.860 -0.8414  0.2836  0.2591
 5242TIP3   OH215689   4.417   6.502   3.794 -0.9417 -0.6960  0.5767
 5242TIP3    H115690   4.414   6.519   3.700 -0.1584 -0.1357  0.6411
 5242TIP3    H215691   4.510   6.489   3.813 -0.9210  0.6385  1.5038
 5243TIP3   OH215692   1.337   0.656   4.482 -0.2460  0.3198  0.5232
 5243TIP3    H115693   1.379   0.741   4.467 -1.0835  0.5528 -0.7140
 5243TIP3    H215694   1.351   0.608   4.400  0.3364 -0.7998  1.2646
 5244TIP3   OH215695   3.862   3.385   4.516 -0.1435  0.1104  0.3356
 5244TIP3    H115696   3.801   3.455   4.496 -1.1549 -0.5502  1.0073
 5244TIP3    H215697   3.820   3.336   4.587  1.7598  0.3936  1.7478
 5245TIP3   OH215698   4.081   1.958   5.376 -0.3387  0.1531 -0.6229
 5245TIP3    H115699   4.006   1.919   5.420  1.2789 -0.6511  1.5826
 5245TIP3    H215700   4.091   2.044   5.417  0.3397 -0.0143 -0.4262
 5246TIP3   OH215701   1.053   5.757   1.421  0.0422 -0.5219 -0.4447
 5246TIP3    H115702   0.967   5.719   1.401 -0.3790 -0.2036  0.6665
 5246TIP3    H215703   1.036   5.815   1.496  1.1237 -0.0063 -0.5884
 5247TIP3   OH215704   6.160   2.171   1.746  0.3734 -0.2564 -0.5500
 5247TIP3    H115705   6.100   2.119   1.800  1.6576  0.8946  2.1649
 5247TIP3    H215706   6.202   2.230   1.808  2.5944  0.5957 -2.7354
 5248TIP3   OH215707   0.997   4.213   2.031 -0.0182 -0.1702  0.7102
 5248TIP3    H115708   1.088   4.236   2.049  0.0738  0.1658 -0.1639
 5248TIP3    H215709   0.982   4.241   1.941 -1.2091  0.4506  1.0793
 5249TIP3   OH215710   4.504   4.111   5.490  0.1266  0.2086 -0.0239
 5249TIP3    H115711   4.490   4.110   5.584  1.9405  0.6213  0.2812
 5249TIP3    H215712   4.495   4.019   5.463 -3.3245  0.4184  0.0094
 5250TIP3   OH215713   5.935   6.580   5.263  0.3871  0.1336  0.0544
 5250TIP3    H115714   6.021   6.562   5.223  1.3925  1.0463  1.6982
 5250TIP3    H215715   5.938   6.674   5.283 -1.0008  0.1632  0.1833
 5251TIP3   OH215716   5.741   2.197   4.680  0.0126 -0.2057  0.7762
 5251TIP3    H115717   5.693   2.118   4.705  0.8294 -1.1803 -0.5576
 5251TIP3    H215718   5.773   2.232   4.763  0.2439 -1.6989  1.3622
 5252TIP3   OH215719   6.530   2.930   3.310 -0.2279  0.4347  0.1869
 5252TIP3    H115720   6.590   2.994   3.347  1.7387 -0.4484 -1.2613
 5252TIP3    H215721   6.537   2.943   3.215  0.3029 -1.9109 -0.1556
 5253TIP3   OH215722   0.296   5.729   1.142 -0.4947  0.3190 -0.7076
 5253TIP3    H115723   0.321   5.775   1.062 -0.9565  1.4399 -0.2321
 5253TIP3    H215724   0.279   5.639   1.114  0.9165  0.2953 -1.5793
 5254TIP3   OH215725   6.844   0.920   2.306  0.3907 -0.0026  0.3787
 5254TIP3    H115726   6.892   0.842   2.334  0.4765  0.0411  0.3549
 5254TIP3    H215727   6.769   0.886   2.256 -0.2488 -0.1152  1.3886
 5255TIP3   OH215728   2.034   6.420   1.134 -0.3341  0.0681 -0.1704
 5255TIP3    H115729   2.059   6.357   1.202  0.4629  0.4274 -0.1265
 5255TIP3    H215730   1.942   6.400   1.116 -0.2919 -0.6393  0.3529
 5256TIP3   OH215731   4.385   3.387   1.168 -0.6105  0.6930 -0.1483
 5256TIP3    H115732   4.448   3.384   1.239 -0.2072  1.1277 -0.4813
 5256TIP3    H215733   4.420   3.326   1.103 -2.4082 -1.9238  1.1478
 5257TIP3   OH215734   1.476   3.912   4.948  0.0876  0.2440  0.1131
 5257TIP3    H115735   1.528   3.915   5.028 -1.5797 -2.4338  1.4712
 5257TIP3    H215736   1.404   3.974   4.963  0.3667  0.5410  0.2188
 5258TIP3   OH215737   0.521   3.235   3.677  0.1167 -0.4350  0.3391
 5258TIP3    H115738   0.506   3.141   3.666  2.2869 -1.1999  2.8611
 5258TIP3    H215739   0.496   3.253   3.767  1.5818  0.9555  0.5108
 5259TIP3   OH215740   7.235   2.768   4.322 -0.6784  0.1481  0.4272
 5259TIP3    H115741   7.229   2.727   4.236  0.1613 -0.9123  0.8613
 5259TIP3    H215742   7.156   2.738   4.368 -0.5552 -0.2037  0.4112
 5260TIP3   OH215743   0.606   2.915   0.506 -0.4856  0.0584  0.4642
 5260TIP3    H115744   0.675   2.939   0.568  1.9723  0.3549 -2.1667
 5260TIP3    H215745   0.642   2.841   0.458 -1.5883  0.8088 -1.6367
 5261TIP3   OH215746   2.287   0.906   1.586  0.0236 -0.0672  0.1289
 5261TIP3    H115747   2.209   0.888   1.638 -0.0918 -0.8626 -0.3205
 5261TIP3    H215748   2.278   0.852   1.508  0.3660  0.8620 -0.5738
 5262TIP3   OH215749   1.007   0.318   2.715  0.3530  0.0585  0.1519
 5262TIP3    H115750   1.031   0.257   2.784  0.9685  0.1411  0.0177
 5262TIP3    H215751   0.933   0.276   2.671 -0.0632  0.0261  0.8786
 5263TIP3   OH215752   5.017   5.230   3.216  0.3874  0.2892  0.0514
 5263TIP3    H115753   4.983   5.281   3.289  0.5493  0.1126  0.2526
 5263TIP3    H215754   4.944   5.223   3.155  0.0475 -0.1145  0.4960
 5264TIP3   OH215755   5.613   3.372   5.200 -0.0069 -0.2117 -0.1533
 5264TIP3    H115756   5.565   3.433   5.143  0.4835  0.5818  0.2615
 5264TIP3    H215757   5.649   3.428   5.269  1.0257 -0.8846 -0.1344
 5265TIP3   OH215758   1.504   1.781   1.905  0.0510  1.2140 -0.5946
 5265TIP3    H115759   1.493   1.876   1.896 -2.5661  0.8728 -1.9293
 5265TIP3    H215760   1.433   1.754   1.963  2.4706  0.3068  2.1871
 5266TIP3   OH215761   4.073   2.377   1.851 -0.5258 -0.1977 -0.1331
 5266TIP3    H115762   4.064   2.282   1.846  0.7765 -0.3677  0.3042
 5266TIP3    H215763   4.162   2.394   1.823 -0.7628  0.9076 -0.2507
 5267TIP3   OH215764   5.262   4.319   3.336  0.6334  0.2689  0.4661
 5267TIP3    H115765   5.328   4.294   3.401  1.0281  0.0543 -0.0179
 5267TIP3    H215766   5.301   4.298   3.252 -0.5305 -1.0019  0.2062
 5268TIP3   OH215767   3.267   6.674   4.296 -0.2101 -0.2959 -0.5954
 5268TIP3    H115768   3.351   6.687   4.253 -0.1231 -1.7449 -0.9220
 5268TIP3    H215769   3.203   6.673   4.225 -0.7199  2.1195 -0.2456
 5269TIP3   OH215770   6.815   1.736   0.165 -0.2630  0.2426  0.2589
 5269TIP3    H115771   6.753   1.741   0.237 -1.3674  0.6267 -0.6821
 5269TIP3    H215772   6.790   1.808   0.107  0.5833 -0.0676 -0.5176
 5270TIP3   OH215773   2.703   2.919   5.017 -0.7148 -0.2017 -0.4220
 5270TIP3    H115774   2.703   2.978   5.092  0.4690 -1.0588  0.2856
 5270TIP3    H215775   2.611   2.898   5.003 -1.0411  0.8115  0.1063
 5271TIP3   OH215776   3.622   1.566   1.444  0.3782 -0.3542  0.1227
 5271TIP3    H115777   3.574   1.647   1.430  0.3560  0.0122  2.0716
 5271TIP3    H215778   3.613   1.548   1.538  4.0105 -0.2271  0.6637
 5272TIP3   OH215779   7.019   5.382   0.735  0.4732 -0.1819 -0.9098
 5272TIP3    H115780   6.989   5.366   0.646 -0.5326 -1.4311 -0.3794
 5272TIP3    H215781   7.054   5.298   0.765  1.9389  0.5244 -0.5189
 5273TIP3   OH215782   0.594   2.204   5.583  0.0681  0.1679 -0.1802
 5273TIP3    H115783   0.529   2.273   5.572 -0.9751 -0.6993  0.3788
 5273TIP3    H215784   0.605   2.196   5.678  2.7495  1.8723 -0.2517
 5274TIP3   OH215785   1.301   1.966   0.541 -0.5044 -0.0402 -0.0931
 5274TIP3    H115786   1.259   2.052   0.533 -0.0494  0.1428 -0.5600
 5274TIP3    H215787   1.325   1.961   0.633 -1.6112 -0.1841  0.2066
 5275TIP3   OH215788   0.488   2.824   2.579 -0.1158  0.0504 -0.7113
 5275TIP3    H115789   0.399   2.804   2.550 -0.5493  2.1114 -1.0028
 5275TIP3    H215790   0.515   2.748   2.631 -0.8555 -1.9645 -3.0976
 5276TIP3   OH215791   3.962   6.441   3.110 -0.3555 -0.0626  0.0119
 5276TIP3    H115792   3.920   6.526   3.102 -0.2612  0.2077  1.9571
 5276TIP3    H215793   4.046   6.459   3.154 -0.3369 -1.1398  0.4535
 5277TIP3   OH215794   3.276   3.482   1.982  0.7558 -0.3847 -0.2366
 5277TIP3    H115795   3.282   3.564   2.030  0.7915  0.0466 -0.9680
 5277TIP3    H215796   3.233   3.422   2.044  0.9230  0.1123  0.3791
 5278TIP3   OH215797   3.302   5.081   0.041  0.3287  0.1318 -0.1861
 5278TIP3    H115798   3.279   5.108   0.130 -0.0512  0.2100 -0.3071
 5278TIP3    H215799   3.340   5.160   0.001 -1.3721  0.7196 -0.7493
 5279TIP3   OH215800   6.518   2.123   4.383  0.4106 -0.4308  0.0618
 5279TIP3    H115801   6.546   2.091   4.469  1.7714  0.3041 -0.0837
 5279TIP3    H215802   6.426   2.146   4.395  0.7766  0.3728  1.5410
 5280TIP3   OH215803   0.787   0.653   1.577  0.5055 -0.5116 -0.4944
 5280TIP3    H115804   0.776   0.725   1.640 -2.4188 -2.2974  1.2289
 5280TIP3    H215805   0.736   0.681   1.500 -3.1463 -1.7759  1.2659
 5281TIP3   OH215806   1.703   3.334   3.248 -0.0482  0.3206  0.1171
 5281TIP3    H115807   1.634   3.381   3.203 -0.9330 -1.8272 -0.8974
 5281TIP3    H215808   1.753   3.291   3.178  1.3072  0.4741  0.9398
 5282TIP3   OH215809   6.316   5.371   5.011  0.4608 -0.0229  0.2875
 5282TIP3    H115810   6.361   5.421   4.943 -1.4162 -0.1517 -1.1232
 5282TIP3    H215811   6.349   5.409   5.093  1.0024  1.8016 -0.7038
 5283TIP3   OH215812   5.461   1.141   4.576 -0.0232  0.3659 -0.6319
 5283TIP3    H115813   5.466   1.132   4.481  2.1509 -1.6833 -0.4053
 5283TIP3    H215814   5.380   1.191   4.591  1.0613  3.3906 -3.6205
 5284TIP3   OH215815   1.863   3.935   4.516 -0.2415 -0.5723  0.2931
 5284TIP3    H115816   1.819   3.862   4.473 -0.8484 -0.4533  0.7052
 5284TIP3    H215817   1.935   3.894   4.564 -0.4353 -0.8756  0.3286
 5285TIP3   OH215818   6.387   4.732   0.081  0.1648 -0.1270 -0.0908
 5285TIP3    H115819   6.308   4.701   0.036  0.1115 -1.6099  0.9431
 5285TIP3    H215820   6.455   4.731   0.014 -0.5493  0.5897 -0.8476
 5286TIP3   OH215821   5.786   1.797   2.860 -0.5622  0.5051 -0.1661
 5286TIP3    H115822   5.819   1.870   2.807  1.1992 -0.1475 -0.0412
 5286TIP3    H215823   5.792   1.829   2.950  1.5948 -0.2171  0.0155
 5287TIP3   OH215824   0.063   6.779   0.367  0.1340  0.3338 -0.0705
 5287TIP3    H115825   0.130   6.711   0.366  1.6246  1.6991 -2.2226
 5287TIP3    H215826  -0.019   6.733   0.347  0.7761 -1.0689  0.3974
 5288TIP3   OH215827   1.422   3.573   0.778  0.0596  0.0528 -0.1671
 5288TIP3    H115828   1.370   3.520   0.717  0.2923 -0.6178  0.2168
 5288TIP3    H215829   1.359   3.635   0.815 -0.6300 -1.1880  0.7985
 5289TIP3   OH215830   0.793   2.374   0.127 -0.0444  0.2743 -0.1465
 5289TIP3    H115831   0.739   2.320   0.184  0.6531  1.6631  1.9607
 5289TIP3    H215832   0.731   2.417   0.069 -1.1347  0.9041  1.4137
 5290TIP3   OH215833   3.531   3.870   4.571 -0.2623 -0.0408 -0.2408
 5290TIP3    H115834   3.466   3.940   4.568 -0.3015 -0.0424  0.5679
 5290TIP3    H215835   3.550   3.852   4.479 -3.1251 -1.6339 -0.6300
 5291TIP3   OH215836   5.652   6.575   1.364 -0.1620 -0.4996  0.1192
 5291TIP3    H115837   5.626   6.663   1.393  0.6544  0.4704 -1.9162
 5291TIP3    H215838   5.572   6.523   1.369 -0.5241  0.1605  1.9395
 5292TIP3   OH215839   4.879   2.566   2.811 -0.0958  0.2031 -0.3181
 5292TIP3    H115840   4.879   2.494   2.874 -0.9518  1.1636  0.8424
 5292TIP3    H215841   4.786   2.590   2.802  0.0342  0.2381 -1.7880
 5293TIP3   OH215842   3.476   4.952   0.444  0.3638  0.1796  1.0753
 5293TIP3    H115843   3.526   5.032   0.425 -0.3709  0.3083 -0.4085
 5293TIP3    H215844   3.498   4.892   0.372 -0.0189 -0.5249  1.5341
 5294TIP3   OH215845   4.226   6.348   2.626 -0.0658  0.0271 -0.3062
 5294TIP3    H115846   4.248   6.425   2.679 -0.2931 -0.6808  0.8676
 5294TIP3    H215847   4.265   6.275   2.673 -0.4628 -0.6540 -1.0148
 5295TIP3   OH215848   5.832   2.943   4.980 -0.3704  0.4995  0.2101
 5295TIP3    H115849   5.827   3.021   5.036 -1.4889  0.5546  0.0572
 5295TIP3    H215850   5.853   2.978   4.893 -2.8153  0.8940 -0.3025
 5296TIP3   OH215851   1.525   4.447   4.022  0.5555 -0.3095 -0.6732
 5296TIP3    H115852   1.481   4.432   4.106 -0.4210 -1.6849 -1.3826
 5296TIP3    H215853   1.612   4.478   4.046  0.0394  0.0665  0.8326
 5297TIP3   OH215854   4.743   1.251   2.211 -0.2181 -0.1817  0.2954
 5297TIP3    H115855   4.738   1.339   2.248 -0.0138  1.4358 -3.1598
 5297TIP3    H215856   4.664   1.207   2.244 -0.7463  1.5472  1.4866
 5298TIP3   OH215857   5.711   1.506   5.634  0.8257 -0.4813 -0.0737
 5298TIP3    H115858   5.693   1.434   5.573 -0.3695 -0.0596 -0.2501
 5298TIP3    H215859   5.642   1.570   5.615  1.3112  0.2906  0.7318
 5299TIP3   OH215860   1.696   4.859   1.052  0.1054 -0.3677 -0.0174
 5299TIP3    H115861   1.776   4.899   1.086 -0.4021  0.2011  0.5167
 5299TIP3    H215862   1.629   4.879   1.116 -0.5327 -0.6171 -0.5890
 5300TIP3   OH215863   6.297   4.554   1.524 -0.1546 -0.3263  0.1890
 5300TIP3    H115864   6.249   4.586   1.600 -0.6919 -2.6072  0.8946
 5300TIP3    H215865   6.230   4.543   1.457 -0.1875 -1.0400  0.3324
 5301TIP3   OH215866   3.889   0.642   3.382 -0.4952 -0.1032 -0.1991
 5301TIP3    H115867   3.875   0.680   3.469 -2.0732 -1.1030  0.0178
 5301TIP3    H215868   3.977   0.672   3.357  0.5629 -0.8369  2.2822
 5302TIP3   OH215869   4.852   4.338   5.723 -0.5991 -0.5733 -0.5340
 5302TIP3    H115870   4.855   4.411   5.661 -2.9342 -0.8553 -1.0844
 5302TIP3    H215871   4.882   4.262   5.673  5.0045  0.2952  0.8811
 5303TIP3   OH215872   2.115   6.483   4.202 -0.4622  0.1642  0.4463
 5303TIP3    H115873   2.149   6.553   4.147 -1.2100 -0.6150 -1.0866
 5303TIP3    H215874   2.020   6.495   4.201 -0.5576 -0.5020  0.6519
 5304TIP3   OH215875   1.993   3.380   2.906  0.2882  0.4341  0.0642
 5304TIP3    H115876   1.972   3.331   2.826  1.6995  0.4455 -0.3458
 5304TIP3    H215877   2.077   3.422   2.886  0.5449  0.6287  1.4820
 5305TIP3   OH215878   6.689   3.126   2.770 -0.1362  0.0938  0.2080
 5305TIP3    H115879   6.686   3.073   2.691  0.1506 -1.7125  1.3326
 5305TIP3    H215880   6.608   3.177   2.769  0.7375  1.5660 -2.1454
 5306TIP3   OH215881   3.735   4.848   1.490  0.3869 -0.2807  0.2126
 5306TIP3    H115882   3.733   4.869   1.584 -2.4238  0.5663  0.0456
 5306TIP3    H215883   3.821   4.877   1.461  0.5186  1.4277  2.1017
 5307TIP3   OH215884   5.977   6.662   4.143 -0.3857  0.3415 -0.3817
 5307TIP3    H115885   5.987   6.593   4.208  2.1318  2.5483  1.8284
 5307TIP3    H215886   6.041   6.641   4.075 -0.9061 -0.3993 -0.6566
 5308TIP3   OH215887   0.652   3.083   1.179 -0.1116 -0.2926 -0.2192
 5308TIP3    H115888   0.709   3.144   1.132 -0.5586 -1.2113 -2.0611
 5308TIP3    H215889   0.628   3.017   1.113 -1.3537 -1.2666  1.1376
 5309TIP3   OH215890   3.234   6.432   4.117 -0.4982  0.4045  0.3971
 5309TIP3    H115891   3.308   6.401   4.065 -0.1499  0.0813  1.0659
 5309TIP3    H215892   3.242   6.386   4.201 -1.9389 -0.2841  0.1960
 5310TIP3   OH215893   0.134   3.085   0.689  0.1664 -0.2221  0.0812
 5310TIP3    H115894   0.161   3.109   0.777 -0.8024  0.8679  0.1055
 5310TIP3    H215895   0.212   3.043   0.651  0.0880 -2.3434  1.9968
 5311TIP3   OH215896   3.010   1.314   2.554 -0.7150 -0.7699  0.1094
 5311TIP3    H115897   3.011   1.380   2.623 -0.7120 -0.5943 -0.0578
 5311TIP3    H215898   2.918   1.305   2.531 -0.5701  0.5642 -1.1851
 5312TIP3   OH215899   2.972   1.769   2.809  0.1960 -0.2192  0.2903
 5312TIP3    H115900   3.034   1.817   2.863 -1.2612  1.3101  0.7102
 5312TIP3    H215901   2.894   1.825   2.806 -0.6950 -1.4305 -1.2985
 5313TIP3   OH215902   5.207   1.387   5.857 -0.7836 -0.4240 -0.0407
 5313TIP3    H115903   5.113   1.374   5.864 -0.9749  1.0743  0.5391
 5313TIP3    H215904   5.241   1.361   5.942 -0.8922  0.6160  0.3318
 5314TIP3   OH215905   2.787   3.131   3.193  0.8961  0.1922 -0.0566
 5314TIP3    H115906   2.770   3.213   3.145  1.0785 -0.9145 -2.1119
 5314TIP3    H215907   2.715   3.073   3.167  0.3318 -0.1066  1.9765
 5315TIP3   OH215908   3.364   6.019   2.992  0.2129  0.0057 -0.6022
 5315TIP3    H115909   3.423   6.085   2.955  0.3123  0.1286 -0.2291
 5315TIP3    H215910   3.288   6.020   2.934  0.1083  0.6201 -0.4660
 5316TIP3   OH215911   1.074   5.717   2.509  0.0754  0.1403 -0.1473
 5316TIP3    H115912   1.159   5.694   2.471 -0.3425 -0.0134 -1.0053
 5316TIP3    H215913   1.097   5.770   2.586  1.0561 -2.8261  1.7842
 5317TIP3   OH215914   7.116   0.360   2.783  0.1476 -0.5568  0.7542
 5317TIP3    H115915   7.046   0.373   2.720  0.0168  0.1912  1.0479
 5317TIP3    H215916   7.197   0.370   2.732  0.0433 -0.3167  0.6382
 5318TIP3   OH215917   4.209   4.086   4.149  0.3517  0.2308 -0.0486
 5318TIP3    H115918   4.241   4.063   4.237 -0.8688 -0.6255  0.2081
 5318TIP3    H215919   4.270   4.152   4.117  2.6263 -1.6152  0.2268
 5319TIP3   OH215920   1.297   5.756   0.389  0.4621  0.4668 -0.2018
 5319TIP3    H115921   1.352   5.790   0.318 -0.4643 -0.7331 -1.5716
 5319TIP3    H215922   1.275   5.667   0.361  0.4236 -0.2166  1.8344
 5320TIP3   OH215923   0.141   0.280   4.847  0.7565 -0.2910  0.3472
 5320TIP3    H115924   0.180   0.362   4.878 -0.9963  1.2410 -1.1670
 5320TIP3    H215925   0.213   0.233   4.805  1.7623  0.5842  1.0417
 5321TIP3   OH215926   3.234   3.396   3.606  0.2385  0.0461  0.0319
 5321TIP3    H115927   3.166   3.428   3.546 -0.8927 -0.2214  1.1164
 5321TIP3    H215928   3.263   3.314   3.567  0.3984  0.4676 -0.7684
 5322TIP3   OH215929   4.287   0.980   5.526 -0.2881  0.4860  0.0638
 5322TIP3    H115930   4.370   0.966   5.480 -1.4225 -0.8810 -1.7067
 5322TIP3    H215931   4.258   1.066   5.495  0.2076  0.7370  0.2829
 5323TIP3   OH215932   4.971   3.836   2.972  0.3684  0.4123 -0.0497
 5323TIP3    H115933   4.890   3.799   3.006  1.2454 -1.9019 -0.2830
 5323TIP3    H215934   4.987   3.790   2.890  2.5612 -0.1912  0.6393
 5324TIP3   OH215935   3.638   4.874   1.221 -0.1148 -0.1559  0.4063
 5324TIP3    H115936   3.678   4.854   1.306  0.8346 -0.2001 -0.0321
 5324TIP3    H215937   3.677   4.810   1.161 -1.0095 -0.3203 -0.0030
 5325TIP3   OH215938   5.553   3.599   4.339 -0.2754  0.3463  0.4896
 5325TIP3    H115939   5.575   3.623   4.429  2.1134 -0.4446  0.2000
 5325TIP3    H215940   5.483   3.534   4.347 -0.1531  0.3527  1.7670
 5326TIP3   OH215941   5.156   3.825   2.470  0.4081 -0.4541 -0.2120
 5326TIP3    H115942   5.126   3.742   2.434 -2.0140 -1.0059  2.6749
 5326TIP3    H215943   5.218   3.800   2.539 -0.3318  0.0939  0.6709
 5327TIP3   OH215944   6.062   5.731   3.699 -0.3401  0.4538 -0.7357
 5327TIP3    H115945   6.127   5.797   3.673  1.1283 -0.3144  0.7929
 5327TIP3    H215946   6.114   5.653   3.719 -1.8695 -0.5932 -0.6650
 5328TIP3   OH215947   4.404   6.330   2.851  0.3530 -0.6513  0.3865
 5328TIP3    H115948   4.477   6.303   2.795 -0.0855 -1.1327  0.0292
 5328TIP3    H215949   4.443   6.386   2.917  0.9469 -0.3776 -0.1876
 5329TIP3   OH215950   5.865   1.334   2.567  0.4944 -0.4253 -0.0074
 5329TIP3    H115951   5.903   1.364   2.649 -1.7733  1.6087  0.4085
 5329TIP3    H215952   5.932   1.351   2.501  2.1851 -1.6977  1.3077
 5330TIP3   OH215953   0.512   5.260   5.052 -0.0443 -0.0124  0.3165
 5330TIP3    H115954   0.468   5.208   5.120  0.5423 -1.9414 -0.7127
 5330TIP3    H215955   0.495   5.213   4.971  2.2095  0.2960 -0.3922
 5331TIP3   OH215956   2.574   4.118   4.196  0.1888  0.1421  0.5402
 5331TIP3    H115957   2.611   4.035   4.224 -1.4340 -0.5831  0.6535
 5331TIP3    H215958   2.528   4.151   4.273  0.7429  1.0993  0.4701
 5332TIP3   OH215959   5.308   4.569   0.149 -0.1269 -0.2354 -0.2158
 5332TIP3    H115960   5.259   4.599   0.225 -0.5366 -0.1449 -0.5105
 5332TIP3    H215961   5.330   4.478   0.169  1.1792  0.2520  0.7114
 5333TIP3   OH215962   6.804   3.846   3.709 -1.2295 -0.7320 -0.3319
 5333TIP3    H115963   6.729   3.810   3.756 -0.9798 -2.8139 -1.4315
 5333TIP3    H215964   6.867   3.774   3.705 -0.7624 -0.2846 -2.7619
 5334TIP3   OH215965   5.501   2.528   3.475  0.2796  0.5533  0.0066
 5334TIP3    H115966   5.486   2.511   3.382  1.9134  0.8424 -0.3320
 5334TIP3    H215967   5.594   2.549   3.481 -0.0393  1.6745  1.5434
 5335TIP3   OH215968   5.897   0.032   2.208  0.1049  0.0008 -0.5770
 5335TIP3    H115969   5.908   0.073   2.293  0.9218  0.6599 -0.9793
 5335TIP3    H215970   5.803   0.038   2.190  0.0651  0.7662 -0.1628
 5336TIP3   OH215971   6.276   2.401   3.689  0.4874 -0.0568 -0.0505
 5336TIP3    H115972   6.264   2.322   3.742  0.1266 -1.1737 -1.7355
 5336TIP3    H215973   6.370   2.419   3.694  0.7212 -1.1494 -0.4166
 5337TIP3   OH215974   4.398   4.480   2.294 -0.3065  0.1643 -0.4134
 5337TIP3    H115975   4.350   4.535   2.357  1.1825 -1.6209  2.5369
 5337TIP3    H215976   4.479   4.528   2.277  0.3992 -0.4149  1.1107
 5338TIP3   OH215977   6.665   5.557   3.278  0.0814  0.1702  0.2669
 5338TIP3    H115978   6.739   5.499   3.294  2.0236  2.5825  0.6697
 5338TIP3    H215979   6.688   5.604   3.198 -1.4956  0.3127 -0.1448
 5339TIP3   OH215980   7.030   0.459   1.923 -0.1855 -0.5320  1.0860
 5339TIP3    H115981   7.019   0.458   2.018 -1.5371 -0.1203  0.9502
 5339TIP3    H215982   7.076   0.378   1.903  1.6379  0.1469  2.2505
 5340TIP3   OH215983   4.416   4.687   5.334  0.1393 -0.3128  0.8263
 5340TIP3    H115984   4.413   4.723   5.422  1.5891  0.4081  0.6101
 5340TIP3    H215985   4.418   4.764   5.277  0.0207 -0.7646  0.2027
 5341TIP3   OH215986   0.399   2.758   0.283  0.6976 -0.0422  0.2971
 5341TIP3    H115987   0.423   2.665   0.295  1.0903 -0.0151 -0.2389
 5341TIP3    H215988   0.477   2.797   0.244 -0.0537  0.1518 -1.0784
 5342TIP3   OH215989   3.752   3.087   0.285 -0.0812 -0.0637 -0.1359
 5342TIP3    H115990   3.801   3.168   0.282 -0.1576  0.0265  0.8408
 5342TIP3    H215991   3.818   3.019   0.296 -0.1756  0.0964  1.6582
 5343TIP3   OH215992   0.195   4.876   3.956  0.1494 -0.0271  0.2156
 5343TIP3    H115993   0.184   4.829   4.039 -0.9836 -1.1641 -0.5303
 5343TIP3    H215994   0.278   4.843   3.921  0.7335  0.6085  0.9787
 5344TIP3   OH215995   0.030   2.759   4.643  0.6967 -0.2677  0.5380
 5344TIP3    H115996   0.004   2.681   4.691 -2.0549  0.5752  0.6095
 5344TIP3    H215997   0.038   2.731   4.552 -0.0501 -0.7120  0.6004
 5345TIP3   OH215998   7.054   2.643   1.936 -0.5768 -0.3333 -0.8367
 5345TIP3    H115999   7.084   2.564   1.980  1.0561  0.2822 -0.8000
 5345TIP3    H216000   7.035   2.614   1.846  0.4279 -0.6921 -0.9416
 5346TIP3   OH216001   4.169   4.572   5.268 -0.1689 -0.0607  0.8319
 5346TIP3    H116002   4.187   4.542   5.179 -0.1268 -0.3364  0.9320
 5346TIP3    H216003   4.255   4.596   5.303 -0.4451  2.6084 -0.0938
 5347TIP3   OH216004   2.425   4.428   5.720  0.1221 -0.0527  0.4363
 5347TIP3    H116005   2.441   4.334   5.728  0.3187  0.1217  3.0666
 5347TIP3    H216006   2.493   4.459   5.660 -0.5727 -1.6904 -1.2958
 5348TIP3   OH216007   4.523   1.898   3.971  0.1398 -0.7471 -0.0405
 5348TIP3    H116008   4.470   1.830   4.012 -1.6858 -0.7101 -2.1571
 5348TIP3    H216009   4.575   1.852   3.906 -0.0101 -0.3300 -0.4627
 5349TIP3   OH216010   0.515   5.006   0.702  0.4052  0.3523 -0.1892
 5349TIP3    H116011   0.560   4.924   0.678  0.5881  0.5444 -0.5094
 5349TIP3    H216012   0.486   5.042   0.618 -3.2519 -1.4032  0.1449
 5350TIP3   OH216013   5.824   6.251   4.809 -0.2788 -0.6407  0.0666
 5350TIP3    H116014   5.808   6.215   4.722 -0.0991 -0.0029 -0.2397
 5350TIP3    H216015   5.918   6.269   4.810  0.0380 -2.1584  0.9929
 5351TIP3   OH216016   5.910   0.125   3.360  0.8627  0.2941 -0.4637
 5351TIP3    H116017   5.956   0.091   3.284  1.7713 -1.5644  0.8358
 5351TIP3    H216018   5.829   0.074   3.364  0.9700  0.1553 -0.0175
 5352TIP3   OH216019   3.979   0.292   5.908 -0.2227 -0.9421 -0.5123
 5352TIP3    H116020   3.929   0.212   5.893 -2.9544  0.5652 -0.1079
 5352TIP3    H216021   3.974   0.340   5.825  0.0259 -0.4911 -0.2733
 5353TIP3   OH216022   5.725   3.283   0.712  0.3562 -0.0189 -0.1560
 5353TIP3    H116023   5.777   3.207   0.685 -1.7076 -1.2975 -0.7326
 5353TIP3    H216024   5.647   3.246   0.753 -0.0322  1.8286  0.9052
 5354TIP3   OH216025   1.646   5.679   1.038 -0.2732  0.1937 -0.0661
 5354TIP3    H116026   1.609   5.759   1.002  0.0612 -0.1520 -1.2398
 5354TIP3    H216027   1.625   5.611   0.974 -0.9325 -0.7584  1.1195
 5355TIP3   OH216028   0.710   3.427   2.601 -0.2483 -0.7091  0.5631
 5355TIP3    H116029   0.723   3.522   2.612  1.3712 -0.7606 -0.5696
 5355TIP3    H216030   0.617   3.417   2.586 -0.4815  0.6884  0.9140
 5356TIP3   OH216031   7.066   3.544   2.065 -0.3476  0.6709  0.0065
 5356TIP3    H116032   7.086   3.636   2.081 -0.2574  0.6557 -0.0206
 5356TIP3    H216033   6.998   3.523   2.130  0.4335  0.4526  0.7765
 5357TIP3   OH216034   2.043   0.983   4.136 -0.2991  0.0776  0.5309
 5357TIP3    H116035   2.129   0.949   4.111 -0.3150  1.2773 -1.2914
 5357TIP3    H216036   1.986   0.906   4.137  0.3492 -0.4300 -0.3133
 5358TIP3   OH216037   0.398   3.357   5.391 -0.0141 -0.0032 -0.0189
 5358TIP3    H116038   0.399   3.263   5.411 -1.3401 -0.5354 -2.1578
 5358TIP3    H216039   0.307   3.376   5.368  0.4189  1.6043 -0.5439
 5359TIP3   OH216040   4.460   4.252   2.491  0.0367  0.2976 -0.1151
 5359TIP3    H116041   4.411   4.327   2.456 -0.6514 -0.8985 -1.9010
 5359TIP3    H216042   4.552   4.274   2.474 -0.0813  1.1381  0.2657
 5360TIP3   OH216043   2.606   6.063   3.621 -0.5338 -0.0081  0.1958
 5360TIP3    H116044   2.665   6.137   3.631 -0.7230  0.1856 -0.1118
 5360TIP3    H216045   2.663   5.986   3.623 -0.5277 -0.0332  2.8414
 5361TIP3   OH216046   0.244   5.116   5.917  0.1476 -0.5038 -0.8127
 5361TIP3    H116047   0.265   5.059   5.843  1.5826 -2.3479  0.8990
 5361TIP3    H216048   0.310   5.185   5.914  0.8479 -1.1613 -0.6638
 5362TIP3   OH216049   0.536   0.983   1.880 -0.4881 -0.2656  0.3398
 5362TIP3    H116050   0.515   0.914   1.816 -1.1014 -1.5920  1.9058
 5362TIP3    H216051   0.619   0.954   1.920 -0.9734 -0.3485  1.3105
 5363TIP3   OH216052   4.805   2.791   0.843  0.2913 -0.0588  0.5549
 5363TIP3    H116053   4.857   2.815   0.767  1.1785 -0.8883  0.8813
 5363TIP3    H216054   4.781   2.874   0.883 -2.1250  0.5379 -1.8426
 5364TIP3   OH216055   1.019   3.836   4.300  0.6910  0.2904 -0.4083
 5364TIP3    H116056   0.984   3.774   4.363 -1.6571  0.8845 -1.0045
 5364TIP3    H216057   1.006   3.794   4.215  2.0711  0.2896 -0.6522
 5365TIP3   OH216058   2.714   1.115   3.635  0.3725 -0.0590  0.1091
 5365TIP3    H116059   2.739   1.189   3.579  1.0123  1.0622  1.8014
 5365TIP3    H216060   2.695   1.044   3.573 -0.2336  1.4754 -1.5832
 5366TIP3   OH216061   6.292   6.626   2.121  0.4526 -0.3494  0.0616
 5366TIP3    H116062   6.238   6.626   2.042 -1.2343  1.3980  1.1292
 5366TIP3    H216063   6.382   6.630   2.089 -0.2226  2.5396 -1.8707
 5367TIP3   OH216064   5.262   5.417   5.697  0.0061 -0.2504  0.0108
 5367TIP3    H116065   5.343   5.365   5.698 -1.3064 -2.4800  1.8581
 5367TIP3    H216066   5.285   5.497   5.743  0.9657 -1.3091  1.4747
 5368TIP3   OH216067   1.110   5.211   2.276 -0.1240  0.2468 -0.4529
 5368TIP3    H116068   1.154   5.269   2.338  1.7436 -0.5238 -1.0094
 5368TIP3    H216069   1.029   5.185   2.321 -0.1553  1.8726  0.5036
 5369TIP3   OH216070   5.113   2.601   0.895 -0.3471 -0.4425  0.2001
 5369TIP3    H116071   5.050   2.658   0.940  1.1425  0.0582  1.7324
 5369TIP3    H216072   5.088   2.607   0.802 -3.8144 -1.8774  0.8790
 5370TIP3   OH216073   1.145   6.610   3.722 -0.3524  0.2029 -0.3766
 5370TIP3    H116074   1.174   6.520   3.736 -0.7692  0.2992  1.2651
 5370TIP3    H216075   1.222   6.663   3.742 -0.5623  0.2757  0.2632
 5371TIP3   OH216076   7.023   3.168   4.460  0.1512  0.0294 -0.0759
 5371TIP3    H116077   6.952   3.211   4.507  0.1649  0.9771 -0.9035
 5371TIP3    H216078   7.027   3.080   4.498 -1.0484  0.1702  0.4106
 5372TIP3   OH216079   6.144   4.399   0.378 -0.6667  0.6002  0.3232
 5372TIP3    H116080   6.214   4.359   0.428 -2.1875 -0.5848  1.6350
 5372TIP3    H216081   6.079   4.329   0.367 -1.8253  1.7400 -0.4925
 5373TIP3   OH216082   4.809   2.963   1.857  0.4108 -0.6097 -0.4840
 5373TIP3    H116083   4.832   2.972   1.765  1.5574 -0.5734 -0.2046
 5373TIP3    H216084   4.836   3.046   1.897 -1.6313  0.0773 -0.3952
 5374TIP3   OH216085   3.856   5.879   1.873  0.3221 -0.1877  0.5550
 5374TIP3    H116086   3.872   5.934   1.796 -1.5719 -0.6427 -0.2056
 5374TIP3    H216087   3.773   5.910   1.908 -0.2211 -1.8268  0.7778
 5375TIP3   OH216088   4.917   4.334   3.911 -0.0172 -0.5979  0.1148
 5375TIP3    H116089   4.951   4.413   3.868  2.1657 -1.3225  0.3750
 5375TIP3    H216090   4.924   4.353   4.005 -1.5723 -0.3056  0.1984
 5376TIP3   OH216091   2.166   6.671   2.857  0.7117 -0.5352  0.0151
 5376TIP3    H116092   2.105   6.619   2.805  1.1398 -0.1339 -0.9149
 5376TIP3    H216093   2.144   6.650   2.948 -1.6952  0.5710 -0.2222
 5377TIP3   OH216094   4.778   4.043   2.893 -0.1970  0.1412  0.3820
 5377TIP3    H116095   4.763   4.115   2.954 -0.3386 -0.2456  0.8172
 5377TIP3    H216096   4.856   4.068   2.844  0.5469  0.0020  1.4457
 5378TIP3   OH216097   0.317   1.190   5.030 -0.0640  0.3998 -0.1413
 5378TIP3    H116098   0.382   1.157   4.967  0.3248  0.2789  0.3180
 5378TIP3    H216099   0.358   1.178   5.116 -0.6349  0.4635  0.1463
 5379TIP3   OH216100   2.993   4.770   2.050  0.1257 -0.3651  0.2826
 5379TIP3    H116101   3.082   4.764   2.017  0.1963 -0.9791  0.5658
 5379TIP3    H216102   2.937   4.752   1.974  0.1683  1.8275 -0.3327
 5380TIP3   OH216103   5.341   2.685   2.523  0.2827  0.7362 -0.5257
 5380TIP3    H116104   5.380   2.752   2.580  1.6088  1.5414 -2.2805
 5380TIP3    H216105   5.363   2.714   2.435  0.2069 -1.6339 -1.3745
 5381TIP3   OH216106   4.458   5.439   2.985 -0.3625  0.6732  0.4994
 5381TIP3    H116107   4.482   5.357   3.028  0.5326  1.6363  1.9359
 5381TIP3    H216108   4.362   5.436   2.978 -0.4115 -0.0982  1.3576
 5382TIP3   OH216109   2.919   5.620   5.662  0.1132 -0.6278  0.1396
 5382TIP3    H116110   2.966   5.563   5.722 -0.5870 -2.0707 -0.6517
 5382TIP3    H216111   2.982   5.688   5.639  0.4688 -0.1797  2.2833
 5383TIP3   OH216112   1.370   6.434   4.373 -0.2590  0.5410  0.5353
 5383TIP3    H116113   1.282   6.426   4.337 -0.3277  0.3373  0.7421
 5383TIP3    H216114   1.417   6.358   4.337 -0.4130  0.1671  1.1080
 5384TIP3   OH216115   2.180   6.472   2.463  0.2840 -0.0731  0.0938
 5384TIP3    H116116   2.274   6.463   2.475  0.2293 -1.2482 -0.2568
 5384TIP3    H216117   2.151   6.523   2.538  1.4313  1.8267 -0.6923
 5385TIP3   OH216118   6.397   5.503   4.161  0.3281  0.0935 -0.3512
 5385TIP3    H116119   6.397   5.487   4.255  2.0290 -1.0878 -0.4839
 5385TIP3    H216120   6.311   5.473   4.131 -0.1190  0.2050  0.7739
 5386TIP3   OH216121   3.945   5.950   0.292 -0.2733  0.5320 -0.1969
 5386TIP3    H116122   3.937   5.903   0.209 -0.9205  0.6328 -0.1941
 5386TIP3    H216123   3.855   5.960   0.323 -0.0263  0.3456  0.6027
 5387TIP3   OH216124   1.976   5.293   0.833 -0.0789  0.4854 -0.3626
 5387TIP3    H116125   2.017   5.210   0.811  0.0986  0.7287 -0.9571
 5387TIP3    H216126   1.977   5.296   0.929  0.6529  0.1747 -0.3559
 5388TIP3   OH216127   4.915   4.493   5.419  0.7651  0.6027 -0.0170
 5388TIP3    H116128   4.858   4.428   5.378  0.8871  0.5760 -0.1458
 5388TIP3    H216129   4.974   4.442   5.473  1.2048  0.5613 -0.5312
 5389TIP3   OH216130   5.676   0.689   5.779 -0.6351 -0.1632  0.2053
 5389TIP3    H116131   5.734   0.728   5.714 -0.2009 -0.8068  0.1916
 5389TIP3    H216132   5.628   0.763   5.816  1.4594  0.6498  1.4879
 5390TIP3   OH216133   1.890   3.314   3.528  0.3565  0.0306  0.0084
 5390TIP3    H116134   1.908   3.329   3.435  0.3332  0.0303  0.0038
 5390TIP3    H216135   1.890   3.402   3.567  0.2808  0.0379 -0.0076
 5391TIP3   OH216136   0.922   5.322   4.356 -0.4122  0.1290 -0.3604
 5391TIP3    H116137   0.876   5.365   4.284 -1.4541  1.0563  0.8091
 5391TIP3    H216138   0.858   5.320   4.427  0.6514 -0.5710  0.6132
 5392TIP3   OH216139   1.828   1.577   3.274  0.1865  0.3968 -0.4310
 5392TIP3    H116140   1.904   1.529   3.308  2.0151  1.9337 -2.0518
 5392TIP3    H216141   1.831   1.563   3.180 -2.3506 -0.4861 -0.4460
 5393TIP3   OH216142   3.660   3.161   1.401 -0.4310  0.2215  0.3152
 5393TIP3    H116143   3.594   3.150   1.332 -0.1466  1.2082 -0.1332
 5393TIP3    H216144   3.610   3.161   1.482 -1.1067  1.8276 -0.0659
 5394TIP3   OH216145   3.739   2.562   3.496 -0.4070  0.1773 -0.2346
 5394TIP3    H116146   3.751   2.469   3.516  0.7370  0.2005 -0.7834
 5394TIP3    H216147   3.736   2.605   3.581 -1.1229 -0.3668  0.0309
 5395TIP3   OH216148   6.581   2.155   3.641 -0.0072  0.0285  0.1541
 5395TIP3    H116149   6.546   2.245   3.640  0.7035  0.3246 -1.5041
 5395TIP3    H216150   6.649   2.155   3.574 -0.6115 -2.0070 -0.5354
 5396TIP3   OH216151   1.933   1.906   4.023  0.1897 -0.3052  0.3116
 5396TIP3    H116152   1.954   1.817   3.996 -0.0380 -0.7200  1.4604
 5396TIP3    H216153   1.909   1.898   4.115  1.7587  1.1809  0.9063
 5397TIP3   OH216154   6.848   1.003   0.201 -0.7028  0.6430 -0.2651
 5397TIP3    H116155   6.859   1.009   0.296  0.5487 -2.1950 -0.1459
 5397TIP3    H216156   6.839   1.094   0.173  1.4649  1.7863  2.2858
 5398TIP3   OH216157   4.677   3.482   0.877 -0.4058 -0.1757  0.1146
 5398TIP3    H116158   4.744   3.423   0.841  0.5306  1.4536 -0.9235
 5398TIP3    H216159   4.598   3.428   0.881  0.1673 -1.2624 -1.7171
 5399TIP3   OH216160   0.513   5.846   0.168 -0.4320  0.0159 -0.2229
 5399TIP3    H116161   0.605   5.847   0.196 -0.1292  1.3321 -1.1280
 5399TIP3    H216162   0.514   5.893   0.084 -1.8830 -0.2896 -0.4274
 5400TIP3   OH216163   4.963   5.797   5.532  0.6155 -0.2999 -0.3682
 5400TIP3    H116164   4.896   5.774   5.596  0.8690 -1.1542 -0.3948
 5400TIP3    H216165   4.954   5.730   5.463  2.3942 -1.2968  0.2955
 5401TIP3   OH216166   1.248   4.352   2.094  0.1733  0.7003 -0.6241
 5401TIP3    H116167   1.327   4.302   2.111 -0.8135 -0.5784  0.4438
 5401TIP3    H216168   1.261   4.389   2.006  1.9422  0.5828 -0.4499
 5402TIP3   OH216169   6.444   5.072   1.184  0.0489 -0.2638 -0.1897
 5402TIP3    H116170   6.498   5.150   1.175 -1.6224  0.9237 -0.2666
 5402TIP3    H216171   6.424   5.047   1.093  1.2591 -1.3163 -0.1986
 5403TIP3   OH216172   0.058   4.359   4.169  0.1113 -0.7469 -0.2504
 5403TIP3    H116173   0.067   4.454   4.168 -1.6465 -0.5421 -1.0478
 5403TIP3    H216174   0.146   4.326   4.186  0.5819  1.0291  0.9911
 5404TIP3   OH216175   0.730   3.746   1.422  0.0712  0.4626 -0.0498
 5404TIP3    H116176   0.753   3.749   1.515  0.3069 -1.0137 -0.0338
 5404TIP3    H216177   0.634   3.740   1.422  0.0843  0.2013  0.1188
 5405TIP3   OH216178   5.087   5.315   1.128  0.5939  0.4397  0.2608
 5405TIP3    H116179   5.021   5.319   1.059 -0.9742  1.7252  1.7176
 5405TIP3    H216180   5.171   5.316   1.082 -0.3804  0.4145 -1.6184
 5406TIP3   OH216181   0.367   3.241   2.418 -0.4323 -0.7062  0.4712
 5406TIP3    H116182   0.430   3.188   2.467 -2.3402 -3.4477  0.1509
 5406TIP3    H216183   0.379   3.214   2.327 -0.2919  0.7376  0.0319
 5407TIP3   OH216184   7.015   6.001   3.375  0.6897  0.0113 -0.5123
 5407TIP3    H116185   6.998   6.087   3.414  0.2888 -0.1395 -0.3491
 5407TIP3    H216186   6.933   5.977   3.333  0.8116 -0.2777 -0.5875
 5408TIP3   OH216187   4.947   4.573   3.689 -0.0424  0.7592 -0.1103
 5408TIP3    H116188   5.029   4.534   3.656  0.5522  2.1899 -0.3838
 5408TIP3    H216189   4.975   4.651   3.736 -1.1422  0.3924  1.2156
 5409TIP3   OH216190   3.332   4.834   2.128 -0.6908 -0.3108  0.1412
 5409TIP3    H116191   3.402   4.899   2.126  0.6596 -1.6854 -2.5995
 5409TIP3    H216192   3.286   4.846   2.045 -1.6018 -1.6168  0.4245
 5410TIP3   OH216193   4.006   1.956   3.107  0.4250 -0.6811  0.6816
 5410TIP3    H116194   3.916   1.965   3.075  0.3682 -1.1423  0.6998
 5410TIP3    H216195   4.014   2.021   3.176  0.5646  0.3686 -0.3018
 5411TIP3   OH216196   3.570   4.353   1.954  0.2499  0.5110 -0.7603
 5411TIP3    H116197   3.579   4.279   1.894  1.2132  0.2141 -0.2658
 5411TIP3    H216198   3.476   4.372   1.955  0.2809  1.0639 -2.9962
 5412TIP3   OH216199   6.342   4.954   0.939  0.0428 -0.3840 -0.0081
 5412TIP3    H116200   6.315   4.980   0.852 -0.9616 -1.0727  0.0824
 5412TIP3    H216201   6.362   4.861   0.932 -0.8627 -0.6470  0.6656
 5413TIP3   OH216202   7.088   3.371   5.875  0.3643  0.4272 -0.3090
 5413TIP3    H116203   7.165   3.329   5.836  1.8170 -0.0849  2.8064
 5413TIP3    H216204   7.106   3.465   5.871  1.6442  0.2894  1.1121
 5414TIP3   OH216205   2.483   4.490   5.355  0.1939  0.3333  0.9539
 5414TIP3    H116206   2.576   4.475   5.335 -0.2419 -0.4436 -0.6181
 5414TIP3    H216207   2.484   4.543   5.434  1.9718 -0.3772  1.4553
 5415TIP3   OH216208   1.956   2.824   0.685  0.3585 -0.1879  0.9437
 5415TIP3    H116209   2.007   2.809   0.605 -0.1743 -0.8902  0.7235
 5415TIP3    H216210   1.940   2.918   0.686 -0.6798 -0.3305 -0.4380
 5416TIP3   OH216211   3.530   3.452   5.040  0.1497 -0.6132  0.3382
 5416TIP3    H116212   3.458   3.390   5.025 -1.9865  2.0049 -1.3770
 5416TIP3    H216213   3.516   3.484   5.129 -2.0758  1.1403 -0.5315
 5417TIP3   OH216214   0.314   6.119   1.948  0.1168  0.0642 -0.0338
 5417TIP3    H116215   0.238   6.065   1.969  0.6792  0.0396  2.0779
 5417TIP3    H216216   0.281   6.209   1.952  0.5454  0.1644  2.7567
 5418TIP3   OH216217   7.168   4.242   2.795 -0.5308  0.0137 -0.0976
 5418TIP3    H116218   7.245   4.245   2.739  0.0967  1.4587  0.7890
 5418TIP3    H216219   7.202   4.230   2.883 -1.4760 -1.6804  0.0893
 5419TIP3   OH216220   3.548   6.485   4.792 -0.0543 -0.4269  0.4276
 5419TIP3    H116221   3.514   6.463   4.879  1.5471  1.3262  1.5868
 5419TIP3    H216222   3.612   6.417   4.773 -0.3511 -0.7710  0.6492
 5420TIP3   OH216223   3.934   1.122   4.924 -0.3057  0.2767 -0.3219
 5420TIP3    H116224   4.022   1.130   4.963 -1.1412 -0.7189  1.9659
 5420TIP3    H216225   3.922   1.028   4.912 -1.0382  0.4120 -0.7143
 5421TIP3   OH216226   6.630   1.021   3.203  0.2813 -0.2301 -0.1252
 5421TIP3    H116227   6.662   1.047   3.117 -0.0686 -1.0767 -0.5334
 5421TIP3    H216228   6.535   1.016   3.192  0.2825 -0.9426  0.1272
 5422TIP3   OH216229   4.978   0.199   1.426  0.7239 -0.5154 -0.4322
 5422TIP3    H116230   5.014   0.239   1.505 -0.8849  0.0612  0.0365
 5422TIP3    H216231   5.055   0.180   1.372  1.8086 -0.4712  1.0492
 5423TIP3   OH216232   1.722   5.365   4.706 -0.4146 -0.8542 -0.3121
 5423TIP3    H116233   1.687   5.289   4.658 -1.1020  0.0288 -1.2737
 5423TIP3    H216234   1.645   5.406   4.744 -0.0428 -0.6435  0.2153
 5424TIP3   OH216235   1.019   5.560   4.553  0.1478 -0.2683  0.5052
 5424TIP3    H116236   1.088   5.580   4.616 -0.1882  1.2424  0.4346
 5424TIP3    H216237   1.065   5.525   4.476  0.9710  1.6517  0.0721
 5425TIP3   OH216238   5.073   5.348   5.483 -0.1504 -0.1603 -0.6954
 5425TIP3    H116239   5.064   5.417   5.417 -0.4159 -1.0434 -1.6078
 5425TIP3    H216240   5.114   5.391   5.558 -3.4363  1.8544  0.1177
 5426TIP3   OH216241   5.137   1.265   2.453  0.2216  0.4195 -0.1263
 5426TIP3    H116242   5.066   1.275   2.516 -0.1657  0.4577 -0.5570
 5426TIP3    H216243   5.098   1.214   2.382  0.2834  1.4023 -0.8918
 5427TIP3   OH216244   4.507   3.204   0.648  0.5218  0.0517 -0.4767
 5427TIP3    H116245   4.586   3.191   0.596  0.0334 -1.5542 -0.8579
 5427TIP3    H216246   4.439   3.156   0.601 -0.4867  0.6310  0.3478
 5428TIP3   OH216247   2.330   6.224   4.830 -0.0635 -0.1515 -0.5709
 5428TIP3    H116248   2.397   6.292   4.825 -0.3533  0.1321 -0.6353
 5428TIP3    H216249   2.267   6.247   4.762 -1.0061  0.4398  0.4724
 5429TIP3   OH216250   4.860   6.594   1.906 -0.1863  0.3243  0.1348
 5429TIP3    H116251   4.808   6.642   1.970 -0.5228  2.8467 -1.8391
 5429TIP3    H216252   4.880   6.659   1.838  1.8559 -1.6623 -1.3325
 5430TIP3   OH216253   0.224   6.145   5.395 -0.0032 -0.1325  0.2738
 5430TIP3    H116254   0.259   6.120   5.309  2.7007 -1.0532  1.5188
 5430TIP3    H216255   0.167   6.072   5.420 -1.5953  0.5820 -1.0693
 5431TIP3   OH216256   6.618   3.846   5.457 -0.6794  0.0823  0.5154
 5431TIP3    H116257   6.558   3.845   5.382 -0.4102  0.7196  0.2851
 5431TIP3    H216258   6.608   3.759   5.496  0.1917 -0.7801 -1.0725
 5432TIP3   OH216259   5.790   3.521   3.733  0.6454  0.4593  0.3755
 5432TIP3    H116260   5.823   3.484   3.814  0.5318 -0.3140  0.0734
 5432TIP3    H216261   5.837   3.604   3.723  0.7933  0.4725  1.1263
 5433TIP3   OH216262   1.205   1.668   3.350 -0.2198 -0.3303  0.4042
 5433TIP3    H116263   1.215   1.593   3.409 -1.1948 -0.4653  0.4081
 5433TIP3    H216264   1.118   1.702   3.369 -0.1486  0.2423 -0.2572
 5434TIP3   OH216265   0.062   0.129   4.337  0.1780 -0.5196 -0.4240
 5434TIP3    H116266   0.000   0.078   4.390  1.1415 -0.6534  0.6082
 5434TIP3    H216267   0.137   0.072   4.326  0.0496 -0.4378 -1.8608
 5435TIP3   OH216268   2.195   2.250   3.955 -0.0215 -0.1369  0.3462
 5435TIP3    H116269   2.207   2.155   3.956  1.2076 -0.0227 -0.8388
 5435TIP3    H216270   2.215   2.278   4.044  0.4030 -0.9152  0.5023
 5436TIP3   OH216271   0.899   4.443   2.144  0.0281 -0.1496 -0.3087
 5436TIP3    H116272   0.940   4.358   2.132 -2.0865 -1.5387  1.6376
 5436TIP3    H216273   0.965   4.494   2.192  0.3708 -1.5605  0.7742
 5437TIP3   OH216274   5.409   3.942   0.860 -0.0220 -0.0553 -0.5507
 5437TIP3    H116275   5.361   3.958   0.778 -1.4426  0.2453  0.3002
 5437TIP3    H216276   5.455   4.024   0.877 -0.0407  0.0174 -0.8410
 5438TIP3   OH216277   2.103   4.882   4.123  0.1282 -0.3191 -0.6096
 5438TIP3    H116278   2.091   4.952   4.058 -0.2682 -0.8837 -1.1616
 5438TIP3    H216279   2.129   4.928   4.203 -0.1553  0.4606 -0.9509
 5439TIP3   OH216280   0.869   3.203   5.860 -0.3627  0.0775  0.1859
 5439TIP3    H116281   0.855   3.285   5.813 -1.2739  0.5607  1.2622
 5439TIP3    H216282   0.839   3.135   5.800 -1.5868  0.6933  0.0743
 5440TIP3   OH216283   7.072   0.286   4.254 -0.3151  0.0280 -0.3783
 5440TIP3    H116284   7.137   0.217   4.268  0.2767  0.7510  0.4980
 5440TIP3    H216285   7.090   0.351   4.321 -1.4764  0.6039 -0.5898
 5441TIP3   OH216286   1.419   5.907   3.377 -0.0495  0.2696  0.0652
 5441TIP3    H116287   1.440   5.925   3.468  0.5135 -0.7452  0.1450
 5441TIP3    H216288   1.342   5.961   3.359 -0.3307  0.2680  1.2196
 5442TIP3   OH216289   3.600   0.226   3.012  0.4317 -0.5150 -0.1360
 5442TIP3    H116290   3.570   0.285   2.943 -1.0658 -1.5507 -0.4011
 5442TIP3    H216291   3.539   0.240   3.084  0.1479 -1.6234 -0.1447
 5443TIP3   OH216292   4.937   1.341   5.874 -0.0904  0.5579  0.1886
 5443TIP3    H116293   4.869   1.384   5.925 -0.7329  0.0736 -0.2512
 5443TIP3    H216294   4.898   1.260   5.844  0.2021  0.9117 -1.2277
 5444TIP3   OH216295   2.415   4.831   0.427  0.6012 -0.4382 -0.1644
 5444TIP3    H116296   2.459   4.906   0.466 -2.6685  1.0640  0.9630
 5444TIP3    H216297   2.426   4.761   0.492 -2.9018  1.4231  2.8318
 5445TIP3   OH216298   4.196   0.160   4.243 -0.0623 -0.2553 -0.3360
 5445TIP3    H116299   4.184   0.181   4.335  3.4087  1.2665 -0.0709
 5445TIP3    H216300   4.168   0.238   4.195  0.2860 -0.1616 -0.3893
 5446TIP3   OH216301   2.443   5.099   1.792  0.5107  0.1888  0.1316
 5446TIP3    H116302   2.506   5.067   1.857  0.2313 -0.6551  0.0030
 5446TIP3    H216303   2.452   5.038   1.718 -0.3616  0.1387  0.0572
 5447TIP3   OH216304   5.396   6.532   5.628  0.1947  0.4125 -0.2670
 5447TIP3    H116305   5.368   6.466   5.564 -0.8873  0.1280  0.4680
 5447TIP3    H216306   5.482   6.560   5.597  0.3701 -0.8328 -0.9859
 5448TIP3   OH216307   1.551   1.000   0.863 -0.0204  0.7766  0.2144
 5448TIP3    H116308   1.579   0.939   0.932 -0.5007  1.5033  1.0748
 5448TIP3    H216309   1.627   1.008   0.805  0.6361  0.7020  1.0500
 5449TIP3   OH216310   6.980   6.256   2.339 -0.1987 -0.5866  0.5512
 5449TIP3    H116311   6.902   6.305   2.315 -0.7419 -0.9446  1.5329
 5449TIP3    H216312   7.011   6.219   2.257  1.5798  3.1865 -0.7271
 5450TIP3   OH216313   0.870   2.212   2.387 -0.2456 -0.5364  0.1547
 5450TIP3    H116314   0.800   2.192   2.450  0.4244 -0.0815  1.0699
 5450TIP3    H216315   0.950   2.178   2.429  0.3611  0.6675  0.0193
 5451TIP3   OH216316   5.814   2.596   3.257 -0.1676  0.2491  0.3427
 5451TIP3    H116317   5.805   2.513   3.304  1.5409 -0.6483 -0.8263
 5451TIP3    H216318   5.815   2.663   3.326  1.9733 -0.9929  1.6211
 5452TIP3   OH216319   3.020   4.566   2.256 -0.4871 -0.2568  0.4708
 5452TIP3    H116320   3.053   4.596   2.340 -0.0847 -0.2511  0.3094
 5452TIP3    H216321   3.008   4.646   2.204 -1.4963 -0.1868  0.7928
 5453TIP3   OH216322   0.631   0.648   3.050  0.2307 -0.0866 -0.3036
 5453TIP3    H116323   0.587   0.619   2.971 -0.1101 -0.0828 -0.1173
 5453TIP3    H216324   0.715   0.602   3.049 -0.3632 -1.2212  0.0762
 5454TIP3   OH216325   3.978   5.099   5.406  0.1958 -0.2533 -0.1507
 5454TIP3    H116326   4.006   5.188   5.428 -1.1694  0.3718 -0.8421
 5454TIP3    H216327   3.907   5.111   5.343 -0.4027 -1.8162  0.1802
 5455TIP3   OH216328   2.185   3.018   2.967  0.0140  0.1049  0.2846
 5455TIP3    H116329   2.117   3.059   3.021 -1.1480 -1.8297  0.3677
 5455TIP3    H216330   2.265   3.029   3.018 -0.6972  0.1392  1.4363
 5456TIP3   OH216331   3.428   4.770   3.690  0.5080 -0.3048 -0.2389
 5456TIP3    H116332   3.371   4.694   3.682  0.3290 -0.6963  3.2273
 5456TIP3    H216333   3.368   4.845   3.685  0.2523 -0.5308 -0.5913
 5457TIP3   OH216334   6.320   5.797   2.714 -0.0941  0.2490  0.7011
 5457TIP3    H116335   6.232   5.779   2.681  0.8740 -1.8352 -0.9540
 5457TIP3    H216336   6.305   5.840   2.798 -2.7024 -0.7887  0.8760
 5458TIP3   OH216337   3.945   2.318   2.430  0.4281 -0.0507  0.0710
 5458TIP3    H116338   3.984   2.406   2.431 -1.2342  0.7356  1.3485
 5458TIP3    H216339   3.857   2.331   2.394  0.4745 -1.3691 -0.5771
 5459TIP3   OH216340   3.077   5.144   5.265  0.0403  0.6079  0.7951
 5459TIP3    H116341   3.136   5.105   5.330  0.0384  0.6663  0.8322
 5459TIP3    H216342   3.011   5.190   5.317 -0.4594 -0.0594  0.7692
 5460TIP3   OH216343   3.180   2.635   5.252  0.3482 -0.2743  0.0847
 5460TIP3    H116344   3.245   2.618   5.184  1.0813  3.2963 -0.3157
 5460TIP3    H216345   3.106   2.674   5.206  0.6896  1.8282  1.2197
 5461TIP3   OH216346   0.194   5.151   0.200 -0.1094 -0.1558  0.6843
 5461TIP3    H116347   0.175   5.223   0.260 -1.4867 -0.5440  0.7288
 5461TIP3    H216348   0.173   5.072   0.249 -1.1992 -0.4805 -0.2662
 5462TIP3   OH216349   3.495   6.443   0.807  0.2535 -0.2525  0.3230
 5462TIP3    H116350   3.559   6.399   0.751  0.7313 -1.2139  1.5723
 5462TIP3    H216351   3.427   6.377   0.823  0.4939 -0.2552  1.4442
 5463TIP3   OH216352   6.300   0.818   3.738 -0.6097  0.2976 -0.5287
 5463TIP3    H116353   6.233   0.790   3.800 -0.9171  1.0277 -0.5164
 5463TIP3    H216354   6.258   0.813   3.652  0.3383 -2.3734 -0.9354
 5464TIP3   OH216355   4.989   4.541   0.384 -0.1014 -0.3493  0.0510
 5464TIP3    H116356   5.028   4.459   0.415 -0.3688  0.1192  1.7006
 5464TIP3    H216357   5.063   4.601   0.377 -0.0170 -0.5028 -0.3928
 5465TIP3   OH216358   2.309   2.465   2.622  0.0457  0.1567  0.2445
 5465TIP3    H116359   2.331   2.394   2.562 -1.6206  0.5915 -0.9550
 5465TIP3    H216360   2.379   2.529   2.610 -0.5589  0.4992 -1.7259
 5466TIP3   OH216361   1.954   3.633   5.652  0.1702 -0.0788  0.2899
 5466TIP3    H116362   1.939   3.653   5.744 -1.0393 -0.8738  0.2916
 5466TIP3    H216363   1.985   3.543   5.652  1.0529  0.2179 -0.0261
 5467TIP3   OH216364   4.290   2.028   5.634  0.0832  0.2529 -0.4286
 5467TIP3    H116365   4.356   1.995   5.574 -0.3711  0.7170 -1.2112
 5467TIP3    H216366   4.340   2.065   5.707  0.6033 -2.4134  0.6846
 5468TIP3   OH216367   4.634   2.642   5.677  0.3246 -0.2672  0.2530
 5468TIP3    H116368   4.555   2.659   5.728 -0.7027 -0.8234 -1.0582
 5468TIP3    H216369   4.616   2.683   5.592  1.2423 -0.8257 -0.2216
 5469TIP3   OH216370   4.628   0.336   3.743 -0.3470  0.2601  0.0354
 5469TIP3    H116371   4.574   0.317   3.820 -0.5287 -1.0873 -0.4007
 5469TIP3    H216372   4.713   0.362   3.779  0.4178 -2.8211  0.7563
 5470TIP3   OH216373   2.522   5.951   0.463 -0.4337  0.0237  0.3514
 5470TIP3    H116374   2.573   5.934   0.384 -1.7669  0.5418 -0.6622
 5470TIP3    H216375   2.587   5.978   0.528  0.6328  0.1307 -0.7261
 5471TIP3   OH216376   2.398   4.998   4.221 -0.3118 -0.1768  0.2154
 5471TIP3    H116377   2.399   4.998   4.125 -3.6361 -0.3491  0.0578
 5471TIP3    H216378   2.418   5.088   4.245 -1.8534  0.4728 -0.7978
 5472TIP3   OH216379   4.401   4.846   1.679  0.6543 -0.7980  0.3791
 5472TIP3    H116380   4.322   4.831   1.628 -0.1338 -1.5019  1.7548
 5472TIP3    H216381   4.383   4.926   1.729  0.8938 -0.8409  0.5397
 5473TIP3   OH216382   3.045   2.096   4.234  0.2019 -0.2701 -0.2371
 5473TIP3    H116383   2.974   2.091   4.298 -0.8725 -1.5360 -1.4610
 5473TIP3    H216384   3.120   2.056   4.277 -0.4926 -1.0683  0.2653
 5474TIP3   OH216385   3.344   6.205   0.312 -0.1173 -0.1008 -0.2911
 5474TIP3    H116386   3.261   6.241   0.283  0.3083  1.0900 -0.0532
 5474TIP3    H216387   3.359   6.243   0.398  0.8647  0.0178 -0.5013
 5475TIP3   OH216388   5.623   1.793   5.084  0.4014 -0.0442 -0.2935
 5475TIP3    H116389   5.607   1.705   5.049 -1.7358  0.3604 -0.4850
 5475TIP3    H216390   5.546   1.844   5.057  1.7926  2.0353 -0.6038
 5476TIP3   OH216391   0.418   1.722   1.494  0.2928 -0.3285  0.0577
 5476TIP3    H116392   0.436   1.793   1.556  0.3774  0.2785 -0.6483
 5476TIP3    H216393   0.484   1.656   1.514  0.8270  0.2030  0.0912
 5477TIP3   OH216394   0.976   4.473   0.133 -0.1817 -0.0596 -0.3901
 5477TIP3    H116395   1.059   4.466   0.086 -0.3419  2.5834 -1.2295
 5477TIP3    H216396   0.984   4.551   0.187 -1.5474 -0.6868  0.8143
 5478TIP3   OH216397   0.118   0.524   2.099 -0.1652  0.2908 -0.2291
 5478TIP3    H116398   0.164   0.569   2.170 -0.1997  0.8726 -0.5688
 5478TIP3    H216399   0.188   0.488   2.044 -0.1401 -1.1118  0.6809
 5479TIP3   OH216400   6.074   3.231   4.503  0.4918  0.0654  0.8391
 5479TIP3    H116401   6.084   3.238   4.408 -1.7782 -0.4150  0.5028
 5479TIP3    H216402   6.164   3.232   4.537  1.3670 -0.0113 -1.3153
 5480TIP3   OH216403   6.316   6.329   1.452 -0.3040  0.4882 -0.0347
 5480TIP3    H116404   6.267   6.249   1.434 -1.4416  1.1581 -0.0139
 5480TIP3    H216405   6.254   6.387   1.496 -0.0314  1.9999 -1.5001
 5481TIP3   OH216406   3.994   5.101   1.971  0.3832  0.6280 -0.1826
 5481TIP3    H116407   3.950   5.082   2.053  2.4950  1.2630  1.1832
 5481TIP3    H216408   3.950   5.179   1.937  0.0073  0.8355  0.7613
 5482TIP3   OH216409   1.790   0.579   5.520 -0.0376  0.0208 -0.2670
 5482TIP3    H116410   1.882   0.593   5.499  0.4499 -2.0028  0.3375
 5482TIP3    H216411   1.784   0.598   5.613 -0.1979  0.0206 -0.2773
 5483TIP3   OH216412   2.903   0.094   5.671 -0.5263 -0.6316 -0.3790
 5483TIP3    H116413   2.853   0.038   5.612  2.0012 -0.5576 -2.7764
 5483TIP3    H216414   2.953   0.034   5.726 -1.5814 -0.6924  0.5389
 5484TIP3   OH216415   4.966   2.241   2.086  0.1050  0.0561 -0.0157
 5484TIP3    H116416   5.008   2.208   2.006  0.0470  2.2533 -1.0225
 5484TIP3    H216417   5.039   2.256   2.146  0.1500 -1.6156  0.4017
 5485TIP3   OH216418   6.234   5.552   5.460  0.2276 -0.1941  0.2011
 5485TIP3    H116419   6.282   5.634   5.473  0.5731 -0.2946 -0.3592
 5485TIP3    H216420   6.270   5.493   5.525  0.8100 -0.2360 -0.1437
 5486TIP3   OH216421   2.779   1.837   2.498  0.0503  0.0692  0.1290
 5486TIP3    H116422   2.760   1.750   2.532 -0.2083 -0.2848 -0.9058
 5486TIP3    H216423   2.709   1.892   2.534 -0.3924 -0.3585 -0.0635
 5487TIP3   OH216424   2.152   0.609   5.748 -0.4137 -0.4159  0.1882
 5487TIP3    H116425   2.110   0.528   5.775  0.0355 -1.2071 -1.4046
 5487TIP3    H216426   2.084   0.658   5.704 -0.2519 -0.6842 -0.3614
 5488TIP3   OH216427   7.190   2.911   3.335 -0.1160  0.6245  0.1886
 5488TIP3    H116428   7.262   2.865   3.290  0.2510  0.2358  1.1408
 5488TIP3    H216429   7.124   2.925   3.267 -0.0693 -0.9830 -0.2411
 5489TIP3   OH216430   6.537   2.213   0.721  0.5086  0.2006 -0.3914
 5489TIP3    H116431   6.588   2.264   0.658 -0.2886 -0.1261 -1.3247
 5489TIP3    H216432   6.504   2.139   0.670 -0.0347 -0.1396  0.4509
 5490TIP3   OH216433   2.721   6.084   2.297 -0.0871  0.0404 -0.1368
 5490TIP3    H116434   2.718   6.156   2.235 -0.8196 -0.6111 -0.8896
 5490TIP3    H216435   2.702   6.006   2.244 -0.0467 -0.6103  0.7812
 5491TIP3   OH216436   2.734   4.073   0.809  0.0968 -0.4682 -0.4565
 5491TIP3    H116437   2.648   4.115   0.808  0.5135  0.4069 -0.1715
 5491TIP3    H216438   2.715   3.981   0.790 -0.8121 -0.1395 -1.2414
 5492TIP3   OH216439   1.087   1.673   2.348 -0.6557  0.1148  0.1682
 5492TIP3    H116440   1.035   1.747   2.317 -2.6481 -0.7210  1.2940
 5492TIP3    H216441   1.078   1.607   2.279  0.5623  0.6323 -0.5214
 5493TIP3   OH216442   3.527   5.755   5.854  0.0887  0.0839  0.2544
 5493TIP3    H116443   3.475   5.802   5.789  0.2502 -0.3814 -0.2183
 5493TIP3    H216444   3.478   5.767   5.936 -0.4117  0.2098 -0.0544
 5494TIP3   OH216445   3.995   2.582   5.165  0.2327  0.1832 -0.1709
 5494TIP3    H116446   4.029   2.632   5.239  0.7911  0.5221 -0.6474
 5494TIP3    H216447   4.048   2.502   5.164 -0.1216 -0.0587  0.1036
 5495TIP3   OH216448   6.738   3.660   4.586 -0.1341  0.8217 -0.0670
 5495TIP3    H116449   6.726   3.742   4.537 -0.0186  0.4653 -0.7032
 5495TIP3    H216450   6.690   3.595   4.535  0.7314  0.2691 -0.1795
 5496TIP3   OH216451   5.751   6.691   3.961  0.7619 -0.4509  0.2485
 5496TIP3    H116452   5.705   6.755   4.015  0.5407  0.3742 -0.8924
 5496TIP3    H216453   5.844   6.705   3.983  0.9056  1.5909 -1.2937
 5497TIP3   OH216454   5.179   6.732   2.480 -0.3804 -0.3831  0.1833
 5497TIP3    H116455   5.141   6.704   2.397  0.3721 -0.6298 -0.0920
 5497TIP3    H216456   5.131   6.683   2.547 -0.0567 -1.2594 -0.2042
 5498TIP3   OH216457   1.541   6.280   1.520 -0.2028 -0.1621  0.0219
 5498TIP3    H116458   1.636   6.270   1.526 -0.0170  1.4115  0.1309
 5498TIP3    H216459   1.528   6.374   1.509 -1.5682 -0.5907 -3.5921
 5499TIP3   OH216460   4.878   4.919   5.500 -0.6484 -0.1705  0.1513
 5499TIP3    H116461   4.831   4.982   5.555 -0.4870 -0.3092  0.4489
 5499TIP3    H216462   4.956   4.966   5.471  0.3608 -0.7621  1.7580
 5500TIP3   OH216463   0.425   1.779   5.464 -0.1810  0.0781  0.7457
 5500TIP3    H116464   0.428   1.872   5.442  0.6876  0.0794  0.8569
 5500TIP3    H216465   0.355   1.744   5.409  0.8817  0.3884 -0.8865
 5501TIP3   OH216466   5.382   3.098   3.728  0.4811 -0.3125 -0.5988
 5501TIP3    H116467   5.427   3.015   3.709  0.5364 -0.3710 -0.2182
 5501TIP3    H216468   5.308   3.099   3.668  0.8081 -0.3660 -1.0113
 5502TIP3   OH216469   1.001   3.620   1.963  0.3878  0.6272 -0.0708
 5502TIP3    H116470   1.006   3.598   2.056 -0.1193  0.4185 -0.0906
 5502TIP3    H216471   0.907   3.615   1.942  0.6896 -2.0984 -1.2457
 5503TIP3   OH216472   5.915   3.481   4.495  0.6082  0.0038  0.0720
 5503TIP3    H116473   5.896   3.393   4.528 -0.5503  0.5815  1.0547
 5503TIP3    H216474   5.947   3.467   4.406 -2.2019 -1.3169 -0.8617
 5504TIP3   OH216475   7.241   6.309   0.506  0.3318  0.0206  0.7979
 5504TIP3    H116476   7.163   6.272   0.547 -0.1393  1.4108  1.2156
 5504TIP3    H216477   7.225   6.301   0.412  0.1368 -0.5972  0.8777
 5505TIP3   OH216478   6.319   1.445   0.662  0.4231 -0.0032  0.2292
 5505TIP3    H116479   6.224   1.428   0.663 -0.0828  2.4889  0.9902
 5505TIP3    H216480   6.338   1.466   0.570 -0.2330  1.5770  0.4196
 5506TIP3   OH216481   4.416   5.201   5.180 -0.3300 -0.0675 -0.0263
 5506TIP3    H116482   4.375   5.266   5.124  0.9263  0.1186 -0.7575
 5506TIP3    H216483   4.349   5.133   5.191 -0.9798  0.4253 -0.8282
 5507TIP3   OH216484   0.441   4.637   1.036 -0.5280  0.0120  0.3907
 5507TIP3    H116485   0.410   4.727   1.048 -1.3871  0.3339 -3.1894
 5507TIP3    H216486   0.475   4.635   0.947  0.3105 -3.0423  0.6582
 5508TIP3   OH216487   0.138   3.081   5.020 -0.6822 -0.4545  0.1585
 5508TIP3    H116488   0.129   3.001   4.969  1.9523 -1.6231  1.3109
 5508TIP3    H216489   0.163   3.148   4.956 -3.2178 -0.3596 -0.8629
 5509TIP3   OH216490   5.270   2.464   4.353 -0.0892  0.1981  0.2748
 5509TIP3    H116491   5.309   2.494   4.435 -1.1735 -1.9679  1.6704
 5509TIP3    H216492   5.208   2.533   4.330  1.0848  1.4048  0.5843
 5510TIP3   OH216493   4.982   4.959   0.415 -0.3060  0.2679  0.3576
 5510TIP3    H116494   4.959   5.052   0.418  0.1979  0.4264 -0.3153
 5510TIP3    H216495   5.036   4.951   0.336 -1.0784 -0.7613 -0.0854
 5511TIP3   OH216496   2.725   2.639   1.759  0.4866  0.4680  0.1988
 5511TIP3    H116497   2.778   2.670   1.685  0.5973  0.2101  0.1687
 5511TIP3    H216498   2.722   2.713   1.819 -1.8460  1.6519 -1.2612
 5512TIP3   OH216499   7.118   0.243   5.006 -0.2009  0.0098 -0.8175
 5512TIP3    H116500   7.190   0.275   4.952 -0.4712 -0.0070 -1.1848
 5512TIP3    H216501   7.061   0.319   5.018  0.5211  0.3736  0.5465
 5513TIP3   OH216502   4.884   1.276   1.958  0.0375  0.3685  0.1923
 5513TIP3    H116503   4.902   1.238   2.044  1.0591  0.4884  0.0468
 5513TIP3    H216504   4.803   1.325   1.970 -1.0361 -1.3929  0.5132
 5514TIP3   OH216505   2.322   5.383   5.825  0.3656  0.2936 -0.4213
 5514TIP3    H116506   2.276   5.359   5.906  0.5343  1.0053 -0.1082
 5514TIP3    H216507   2.408   5.344   5.834  0.3467  0.2767 -0.3084
 5515TIP3   OH216508   1.122   3.189   3.035 -0.4318  0.2041 -0.4092
 5515TIP3    H116509   1.081   3.253   2.977  0.0635 -1.4119 -2.6829
 5515TIP3    H216510   1.097   3.104   2.999  1.3062 -0.8692  0.7527
 5516TIP3   OH216511   6.553   5.343   0.462  0.2603  0.3446  0.1044
 5516TIP3    H116512   6.467   5.325   0.500  0.1635  1.5434  0.4714
 5516TIP3    H216513   6.602   5.262   0.475 -0.5080 -0.0284  0.7402
 5517TIP3   OH216514   6.028   5.275   4.930 -0.6088 -0.0882  0.0020
 5517TIP3    H116515   5.947   5.265   4.980 -0.0372 -1.8565  0.6812
 5517TIP3    H216516   6.097   5.274   4.997  0.0858 -0.8907 -0.7023
 5518TIP3   OH216517   0.497   4.134   4.901  0.2152  0.6161  0.0064
 5518TIP3    H116518   0.436   4.106   4.833  0.2633  0.6611 -0.0551
 5518TIP3    H216519   0.469   4.086   4.979 -0.0633  0.8403  0.0431
 5519TIP3   OH216520   2.961   0.338   4.952  0.1633  0.0985 -0.2431
 5519TIP3    H116521   3.053   0.353   4.972  0.3339 -1.3951  0.2789
 5519TIP3    H216522   2.919   0.333   5.038 -0.2075 -0.2676 -0.4404
 5520TIP3   OH216523   4.167   0.614   5.899  0.1129 -0.2152 -0.3851
 5520TIP3    H116524   4.128   0.580   5.818 -1.4552 -1.7671  0.9252
 5520TIP3    H216525   4.095   0.661   5.942  0.3929 -0.8832  0.8738
 5521TIP3   OH216526   0.282   5.169   2.397 -0.1379 -0.5481  0.9740
 5521TIP3    H116527   0.335   5.247   2.412 -0.5733 -0.4707  2.2046
 5521TIP3    H216528   0.203   5.201   2.355  0.1074 -0.4585  0.5785
 5522TIP3   OH216529   0.715   2.882   4.507  0.4895  0.0517 -0.3520
 5522TIP3    H116530   0.767   2.911   4.582  1.5140 -0.2012 -0.9502
 5522TIP3    H216531   0.740   2.940   4.436  0.4700 -0.5198 -0.8341
 5523TIP3   OH216532   1.324   1.323   0.398 -0.0505 -0.3691 -0.8023
 5523TIP3    H116533   1.353   1.321   0.489  0.3951 -0.5710 -0.9473
 5523TIP3    H216534   1.401   1.299   0.347  0.8664  3.4222 -1.5223
 5524TIP3   OH216535   0.047   5.767   0.358 -0.1951 -0.8846  0.6951
 5524TIP3    H116536   0.039   5.820   0.437 -1.9804 -2.7874  1.8902
 5524TIP3    H216537   0.121   5.708   0.375  1.6617  0.9473 -0.5528
 5525TIP3   OH216538   5.601   2.256   5.059 -0.2118 -0.4779 -0.1033
 5525TIP3    H116539   5.649   2.233   5.138  1.8892  0.0500 -1.1705
 5525TIP3    H216540   5.667   2.263   4.991 -1.8284  0.1424 -1.7060
 5526TIP3   OH216541   1.361   2.115   2.379 -0.5227  0.0300  0.2421
 5526TIP3    H116542   1.288   2.079   2.427 -0.8846 -0.5198 -0.6981
 5526TIP3    H216543   1.323   2.146   2.296  0.1935  0.3317  0.0138
 5527TIP3   OH216544   0.325   3.298   3.486  0.0992  0.9809 -0.6125
 5527TIP3    H116545   0.277   3.375   3.517  1.4046  1.2684  0.8079
 5527TIP3    H216546   0.387   3.279   3.556  0.7812 -0.5130 -1.5763
 5528TIP3   OH216547   5.808   5.036   3.782 -0.4245  0.0137 -0.1370
 5528TIP3    H116548   5.749   5.110   3.797 -1.0195 -0.4754 -0.0046
 5528TIP3    H216549   5.765   4.986   3.712 -1.2978 -1.5196  1.4322
 5529TIP3   OH216550   5.748   4.059   3.687 -0.0104  0.5642 -0.4212
 5529TIP3    H116551   5.771   4.145   3.723  1.6718 -0.2279  0.5062
 5529TIP3    H216552   5.670   4.033   3.737  0.5500  0.7798  0.6014
 5530TIP3   OH216553   6.746   1.521   3.815 -0.3650 -0.4244  0.4877
 5530TIP3    H116554   6.765   1.515   3.909  0.2310 -1.7522  0.3096
 5530TIP3    H216555   6.706   1.607   3.804  2.5983  1.2207  1.4320
 5531TIP3   OH216556   3.907   1.008   0.303  0.2604  0.4402 -0.4080
 5531TIP3    H116557   3.959   1.021   0.382  0.8196  0.1221 -0.7176
 5531TIP3    H216558   3.829   1.063   0.316  0.6164  0.8295  0.1132
 5532TIP3   OH216559   3.215   0.578   1.502 -0.5101  0.0567 -0.5635
 5532TIP3    H116560   3.161   0.648   1.540  0.1908  0.2673  0.0621
 5532TIP3    H216561   3.196   0.583   1.408 -2.2070 -0.4262 -0.2798
 5533TIP3   OH216562   3.842   5.228   2.919  0.6809 -1.0799 -0.5919
 5533TIP3    H116563   3.747   5.212   2.923  0.6676 -1.0428 -0.7633
 5533TIP3    H216564   3.850   5.323   2.909  0.7316 -1.0956 -0.7092
 5534TIP3   OH216565   1.150   3.396   0.319  0.0892  0.5953  0.3214
 5534TIP3    H116566   1.171   3.424   0.408 -0.1944  0.8438  0.3144
 5534TIP3    H216567   1.066   3.439   0.300 -0.0111  0.2838  0.0542
 5535TIP3   OH216568   2.786   0.548   0.640 -0.0003  0.1203 -0.4443
 5535TIP3    H116569   2.854   0.486   0.664  1.7192  0.8592 -2.9912
 5535TIP3    H216570   2.765   0.594   0.721  1.4143 -1.1947  0.7143
 5536TIP3   OH216571   4.089   6.099   0.712  0.1227 -0.6518 -0.2666
 5536TIP3    H116572   4.108   6.153   0.635  1.1364 -1.5694 -0.6938
 5536TIP3    H216573   4.158   6.032   0.712 -0.1224 -0.9460  1.1848
 5537TIP3   OH216574   4.481   0.473   0.227  0.2393 -0.2047 -0.2231
 5537TIP3    H116575   4.472   0.385   0.190  0.1390 -0.2180 -0.1692
 5537TIP3    H216576   4.524   0.524   0.158  0.1312 -0.2511 -0.3262
 5538TIP3   OH216577   7.176   4.856   5.236 -0.2874 -0.2785  0.2945
 5538TIP3    H116578   7.193   4.885   5.147 -0.6532 -0.0489  0.2994
 5538TIP3    H216579   7.104   4.794   5.228  0.6996 -1.4491  0.2428
 5539TIP3   OH216580   0.404   3.416   3.163 -0.8053  0.4547 -0.4331
 5539TIP3    H116581   0.398   3.470   3.242 -0.9771  0.2736 -0.3204
 5539TIP3    H216582   0.325   3.362   3.166 -0.3295 -0.2407 -0.2244
 5540TIP3   OH216583   2.808   0.704   5.280 -0.2884 -0.6238 -0.2573
 5540TIP3    H116584   2.855   0.723   5.199  0.2670 -2.6394 -0.4498
 5540TIP3    H216585   2.719   0.685   5.253 -0.6634  0.8459 -0.1363
 5541TIP3   OH216586   0.610   2.551   4.981 -0.0489 -0.1058  0.2123
 5541TIP3    H116587   0.541   2.618   4.972  0.8996  0.8740  0.0042
 5541TIP3    H216588   0.679   2.594   5.031  0.6625 -0.8717 -0.0833
 5542TIP3   OH216589   5.117   1.399   1.369 -0.1007  0.0070  0.4752
 5542TIP3    H116590   5.086   1.478   1.414 -0.1506 -0.8422  1.9972
 5542TIP3    H216591   5.190   1.429   1.315 -1.2374  1.3951 -0.3556
 5543TIP3   OH216592   0.687   6.294   0.727 -0.0904 -0.0511 -0.0822
 5543TIP3    H116593   0.752   6.364   0.721 -1.8363  1.6469 -0.1347
 5543TIP3    H216594   0.678   6.278   0.821 -0.1653  0.2724 -0.0325
 5544TIP3   OH216595   0.945   2.492   3.566  0.2942 -0.4471 -0.0216
 5544TIP3    H116596   0.972   2.465   3.479  3.6247 -0.1699  0.8149
 5544TIP3    H216597   0.946   2.412   3.619 -0.5820 -0.4191  0.0629
 5545TIP3   OH216598   0.852   6.374   2.573  0.5436  0.2460  0.1177
 5545TIP3    H116599   0.916   6.324   2.624  0.8388  0.4200 -0.0792
 5545TIP3    H216600   0.862   6.464   2.603 -0.0293  0.1833  0.5145
 5546TIP3   OH216601   4.001   3.230   1.868 -0.2840  0.7419 -0.4512
 5546TIP3    H116602   4.044   3.310   1.839  0.5841  0.7245  0.7087
 5546TIP3    H216603   3.930   3.260   1.925  1.2969  0.6975  1.6480
 5547TIP3   OH216604   3.717   5.428   3.154  0.4829 -0.2324 -0.0923
 5547TIP3    H116605   3.698   5.511   3.198 -1.9185 -1.1727  0.8221
 5547TIP3    H216606   3.781   5.451   3.087 -0.7190  2.5488 -0.4390
 5548TIP3   OH216607   5.414   5.498   1.347 -0.4720 -0.2298  0.0119
 5548TIP3    H116608   5.486   5.514   1.286 -0.8465  1.1757 -0.0860
 5548TIP3    H216609   5.457   5.479   1.430  0.0463  1.4772  0.1753
 5549TIP3   OH216610   6.403   4.370   5.832  0.1112  0.0764 -0.3880
 5549TIP3    H116611   6.478   4.409   5.877 -0.5009  0.9528 -0.1010
 5549TIP3    H216612   6.436   4.347   5.745  1.0847 -0.8618  0.2077
 5550TIP3   OH216613   6.860   3.426   4.203 -0.0491 -0.0529  0.5027
 5550TIP3    H116614   6.790   3.362   4.188 -0.7527  0.4435  1.5380
 5550TIP3    H216615   6.940   3.374   4.207 -0.4714 -0.7393  0.2107
 5551TIP3   OH216616   2.423   6.736   0.449 -0.1305 -0.0650  0.2646
 5551TIP3    H116617   2.412   6.653   0.403  1.0114 -0.3852  0.5424
 5551TIP3    H216618   2.442   6.711   0.539 -0.1175  0.5086  0.4267
 5552TIP3   OH216619   4.460   6.469   3.514  0.0270  0.0798 -0.4601
 5552TIP3    H116620   4.547   6.500   3.486  0.2067  0.4060  0.4471
 5552TIP3    H216621   4.442   6.395   3.456  0.7175  0.2829 -0.9512
 5553TIP3   OH216622   1.162   2.210   5.048 -0.0371  0.6192 -0.7025
 5553TIP3    H116623   1.109   2.290   5.045  2.1291  2.2076  0.1548
 5553TIP3    H216624   1.237   2.234   5.103  2.1432 -1.0851 -2.7249
 5554TIP3   OH216625   3.097   4.904   2.841  0.0335 -0.9373 -0.1714
 5554TIP3    H116626   3.082   4.998   2.839  1.3183 -0.6824  0.9300
 5554TIP3    H216627   3.039   4.869   2.773 -0.9645  0.5595 -0.1295
 5555TIP3   OH216628   2.088   2.725   1.696 -0.7865  0.1417  0.3938
 5555TIP3    H116629   2.140   2.805   1.705 -0.3890 -0.1540  0.8150
 5555TIP3    H216630   2.113   2.672   1.772 -1.4342 -0.1621  0.4007
 5556TIP3   OH216631   1.565   4.680   1.452 -0.5933  0.1529  0.5328
 5556TIP3    H116632   1.660   4.681   1.442 -0.6294  1.3855  0.0376
 5556TIP3    H216633   1.550   4.693   1.545 -0.2702  0.1060  0.5926
 5557TIP3   OH216634   0.977   0.712   3.108  0.4198  0.3628  0.5135
 5557TIP3    H116635   0.942   0.631   3.071  1.8657 -0.4028  0.7473
 5557TIP3    H216636   1.016   0.758   3.034  2.9777 -0.9920  0.9126
 5558TIP3   OH216637   4.975   1.858   0.576  0.5639  0.5049  0.2078
 5558TIP3    H116638   4.966   1.803   0.653  0.6058 -0.7991 -0.6893
 5558TIP3    H216639   4.952   1.946   0.606 -1.2295 -0.2900  1.2820
 5559TIP3   OH216640   6.706   1.010   5.046  0.0421  0.3467  0.8620
 5559TIP3    H116641   6.654   0.969   5.115 -2.7793  1.9975 -0.1397
 5559TIP3    H216642   6.648   1.013   4.970  2.9248 -1.1587 -1.6397
 5560TIP3   OH216643   3.253   0.301   4.184 -0.3061  0.5313 -0.5144
 5560TIP3    H116644   3.289   0.249   4.255 -0.3803  0.7207 -0.3399
 5560TIP3    H216645   3.325   0.356   4.154 -0.5711  1.2726  0.1625
 5561TIP3   OH216646   4.737   3.303   3.618 -0.1724  0.5386  0.2274
 5561TIP3    H116647   4.730   3.215   3.583  1.5246 -0.0095  1.1360
 5561TIP3    H216648   4.739   3.360   3.541  2.6925 -0.5660 -0.6422
 5562TIP3   OH216649   0.026   5.212   0.556  1.2850 -0.2265 -0.2730
 5562TIP3    H116650   0.018   5.144   0.490 -0.5454  0.6206 -0.9946
 5562TIP3    H216651   0.031   5.294   0.507  1.9130  0.2883  0.6122
 5563TIP3   OH216652   0.926   5.418   0.257 -0.6220  0.7918  0.2650
 5563TIP3    H116653   0.873   5.375   0.190  0.9838  0.5941 -0.9358
 5563TIP3    H216654   0.904   5.373   0.338 -0.2299 -1.1988 -0.6796
 5564TIP3   OH216655   4.383   6.539   4.207 -0.0969  0.0092  0.2144
 5564TIP3    H116656   4.363   6.462   4.153  0.7901 -0.5604  0.6775
 5564TIP3    H216657   4.469   6.568   4.176  0.5387 -0.4677  1.4396
 5565TIP3   OH216658   0.320   6.050   4.050  0.2685 -0.4099  0.5991
 5565TIP3    H116659   0.388   6.026   3.987 -0.6818  0.2528 -0.7329
 5565TIP3    H216660   0.238   6.025   4.007 -0.4241  0.4265  1.3947
 5566TIP3   OH216661   3.259   0.217   3.745 -0.0235 -0.7798 -0.3832
 5566TIP3    H116662   3.308   0.141   3.713  3.1119  1.1222 -0.5732
 5566TIP3    H216663   3.235   0.265   3.666  0.7915 -0.0482 -0.2090
 5567TIP3   OH216664   2.693   5.286   0.949 -0.1409  0.4789  0.1046
 5567TIP3    H116665   2.688   5.346   1.023 -1.3858  0.8781 -0.2755
 5567TIP3    H216666   2.704   5.342   0.872  0.1266  0.1295 -0.1205
 5568TIP3   OH216667   0.809   1.659   0.509 -0.2705  0.0721 -0.5345
 5568TIP3    H116668   0.899   1.654   0.540  0.1565  1.9643 -1.2793
 5568TIP3    H216669   0.765   1.583   0.547  1.7119 -1.0967 -0.4425
 5569TIP3   OH216670   1.497   1.972   4.878 -0.1521  0.5596 -0.1998
 5569TIP3    H116671   1.548   1.952   4.799  3.1149  2.7595  1.0894
 5569TIP3    H216672   1.563   1.981   4.947 -2.4311  2.5064  1.9433
 5570TIP3   OH216673   0.175   4.027   0.888 -0.5127 -0.0293 -0.1459
 5570TIP3    H116674   0.219   3.990   0.965 -0.2211  0.1323 -0.2329
 5570TIP3    H216675   0.086   3.991   0.892  0.2135 -2.0907 -1.1295
 5571TIP3   OH216676   5.036   3.199   5.649  0.0662  0.9803  0.0573
 5571TIP3    H116677   5.008   3.270   5.706 -0.3676  2.8929 -2.3429
 5571TIP3    H216678   5.097   3.240   5.587  1.3399 -1.1971 -0.2400
 5572TIP3   OH216679   1.486   2.805   2.834 -0.4226 -0.2906  0.1522
 5572TIP3    H116680   1.397   2.785   2.807 -0.8572  1.9826 -0.2664
 5572TIP3    H216681   1.539   2.792   2.755 -0.9064  1.4163 -0.4844
 5573TIP3   OH216682   2.668   6.424   2.672 -0.1702  0.1058 -0.0642
 5573TIP3    H116683   2.716   6.367   2.611  0.4670 -0.6122  1.0721
 5573TIP3    H216684   2.607   6.365   2.716 -1.3717  0.8157 -0.7303
 5574TIP3   OH216685   4.280   0.521   3.772  0.1089 -0.8246  0.0331
 5574TIP3    H116686   4.280   0.438   3.725 -0.7886 -0.4933 -0.5879
 5574TIP3    H216687   4.202   0.517   3.827  0.6747 -0.8453  0.8471
 5575TIP3   OH216688   5.200   5.351   1.363 -0.1473  0.2728 -0.4620
 5575TIP3    H116689   5.162   5.322   1.279 -1.0321 -1.1660  0.3887
 5575TIP3    H216690   5.268   5.414   1.338 -0.9697  0.5296 -2.2123
 5576TIP3   OH216691   2.563   2.555   2.581 -0.0445 -0.0374 -0.0959
 5576TIP3    H116692   2.627   2.592   2.521 -0.9049 -0.0580 -1.0471
 5576TIP3    H216693   2.593   2.582   2.668  1.3975 -0.2788 -0.4942
 5577TIP3   OH216694   4.997   3.744   3.370  0.3790 -0.0123 -0.0425
 5577TIP3    H116695   5.067   3.763   3.307  0.3556  1.5222  0.3681
 5577TIP3    H216696   4.994   3.821   3.427 -2.1828  0.3285 -0.5329
 5578TIP3   OH216697   2.777   2.873   0.849  0.3888 -0.3920 -0.5980
 5578TIP3    H116698   2.741   2.792   0.813 -1.3383 -0.1825  0.5532
 5578TIP3    H216699   2.829   2.910   0.778 -0.6325 -1.3833 -1.9058
 5579TIP3   OH216700   3.808   2.372   1.949 -0.0370 -0.8326 -0.7616
 5579TIP3    H116701   3.815   2.321   2.029  0.1811  0.5276  0.1134
 5579TIP3    H216702   3.899   2.390   1.924 -0.1154 -0.2793 -0.6650
 5580TIP3   OH216703   1.523   1.449   0.858  0.0403  0.6454  0.7365
 5580TIP3    H116704   1.591   1.391   0.890 -0.1445 -1.5480 -2.4232
 5580TIP3    H216705   1.570   1.514   0.806 -0.1345 -1.6191 -2.5301
 5581TIP3   OH216706   4.163   1.597   4.241 -0.2046 -0.0895  0.0813
 5581TIP3    H116707   4.186   1.522   4.186 -0.0497  0.1647 -0.2039
 5581TIP3    H216708   4.225   1.593   4.314 -0.3083 -0.3391  0.1550
 5582TIP3   OH216709   4.017   6.611   4.965  0.1310 -0.1577  0.2666
 5582TIP3    H116710   4.066   6.657   5.033  2.4474 -0.7799 -0.8714
 5582TIP3    H216711   3.938   6.664   4.953  0.0023  0.3636  2.8717
 5583TIP3   OH216712   0.306   4.933   2.609  0.0262  0.1199 -0.4549
 5583TIP3    H116713   0.251   4.954   2.685 -0.9579 -0.5510 -0.9487
 5583TIP3    H216714   0.263   4.978   2.536  0.2454 -0.2593 -0.8164
 5584TIP3   OH216715   0.917   5.059   4.485  0.1303  0.7344 -0.0312
 5584TIP3    H116716   0.930   5.140   4.436  0.8113  0.8321  0.3053
 5584TIP3    H216717   0.907   4.992   4.417  0.4690  0.9634 -0.3108
 5585TIP3   OH216718   0.463   3.810   0.874 -0.7528 -0.2415  0.1561
 5585TIP3    H116719   0.395   3.824   0.940  0.9573  0.6861  1.8310
 5585TIP3    H216720   0.525   3.751   0.917 -0.5211 -1.1478 -1.3689
 5586TIP3   OH216721   1.794   2.620   2.992 -0.6580  0.3714 -0.3992
 5586TIP3    H116722   1.759   2.701   3.031 -0.0474  0.8589 -0.8440
 5586TIP3    H216723   1.871   2.648   2.944 -0.2301 -0.5444 -0.2656
 5587TIP3   OH216724   5.439   5.992   5.763  0.1034 -0.1783  0.6679
 5587TIP3    H116725   5.348   5.975   5.736  1.0000 -0.8220 -2.3507
 5587TIP3    H216726   5.457   5.924   5.828 -1.0103 -1.3180 -0.1553
 5588TIP3   OH216727   2.926   6.487   2.211  0.6799  0.5218  0.4541
 5588TIP3    H116728   2.858   6.426   2.183  0.9465  0.4295 -0.0088
 5588TIP3    H216729   2.967   6.517   2.129  0.9588  0.8433  0.7081
 5589TIP3   OH216730   6.073   4.415   3.719 -0.5043  0.0735  0.0284
 5589TIP3    H116731   6.136   4.421   3.790  0.7848 -1.7645 -0.8875
 5589TIP3    H216732   6.093   4.491   3.663 -0.7529  0.8617  0.9800
 5590TIP3   OH216733   3.237   0.050   5.823 -0.2411  0.6025 -0.1915
 5590TIP3    H116734   3.185  -0.014   5.871 -0.9876  1.2344 -0.1288
 5590TIP3    H216735   3.231   0.023   5.732  1.9859 -1.1714  0.1027
 5591TIP3   OH216736   3.894   2.646   4.897  0.1463 -0.0063 -0.0003
 5591TIP3    H116737   3.922   2.572   4.843  1.8254  1.8970 -1.9100
 5591TIP3    H216738   3.938   2.632   4.981  0.3326 -1.2391 -0.2802
 5592TIP3   OH216739   6.880   2.341   5.447 -0.7928 -0.1778 -0.0408
 5592TIP3    H116740   6.837   2.333   5.533 -0.6416  0.3136  0.0837
 5592TIP3    H216741   6.953   2.279   5.451 -0.9671 -0.3793  0.0692
 5593TIP3   OH216742   3.614   3.296   4.061  0.1988  0.0298 -0.1607
 5593TIP3    H116743   3.556   3.356   4.108  0.9053  1.6167 -1.2408
 5593TIP3    H216744   3.702   3.327   4.081  0.5449  0.0008 -1.5304
 5594TIP3   OH216745   1.196   4.966   1.398 -0.0637 -0.0335 -0.4451
 5594TIP3    H116746   1.103   4.945   1.396 -0.0447 -0.0658 -0.9976
 5594TIP3    H216747   1.219   4.982   1.307  0.4452  0.0928 -0.2953
 5595TIP3   OH216748   4.467   1.649   5.600 -0.2757  0.5249  0.6721
 5595TIP3    H116749   4.535   1.633   5.534 -0.0787 -0.8964  1.1866
 5595TIP3    H216750   4.486   1.737   5.632  0.6275  0.5916  0.0026
 5596TIP3   OH216751   3.986   0.675   5.669 -0.0340  0.1675 -0.2048
 5596TIP3    H116752   4.027   0.719   5.595 -0.0656 -0.5528 -0.6593
 5596TIP3    H216753   3.908   0.727   5.688 -0.1470  0.2300 -0.8197
 5597TIP3   OH216754   3.635   3.084   2.827 -0.4653 -0.5799  0.6235
 5597TIP3    H116755   3.577   3.050   2.895 -0.2573 -0.2206  0.9854
 5597TIP3    H216756   3.669   3.166   2.863 -3.1350  1.5702 -1.3043
 5598TIP3   OH216757   0.326   1.986   4.848  0.3835 -0.6816 -0.1230
 5598TIP3    H116758   0.329   1.935   4.767 -0.6125 -2.3675  0.8137
 5598TIP3    H216759   0.415   2.019   4.860  0.7120 -0.9873 -1.5276
 5599TIP3   OH216760   7.212   3.706   1.819  0.4193 -0.3483  0.2110
 5599TIP3    H116761   7.268   3.640   1.859  2.2816  0.2533 -1.2430
 5599TIP3    H216762   7.132   3.659   1.794 -0.2357 -1.0222  3.2200
 5600TIP3   OH216763   6.690   1.484   5.492  0.1338  0.5938 -0.0497
 5600TIP3    H116764   6.598   1.476   5.517  0.3168  1.1919  0.8767
 5600TIP3    H216765   6.702   1.418   5.423 -0.5552 -0.7649  1.0685
 5601TIP3   OH216766   4.827   4.238   4.925 -0.0696 -0.6475 -0.1469
 5601TIP3    H116767   4.859   4.251   5.015  3.3329  0.5287 -1.3433
 5601TIP3    H216768   4.745   4.287   4.921  0.1817  0.0739  2.0553
 5602TIP3   OH216769   3.531   4.563   2.731 -1.0813  0.3464  0.7509
 5602TIP3    H116770   3.556   4.472   2.748  1.3250  0.3490 -2.0531
 5602TIP3    H216771   3.590   4.615   2.785  1.6096  0.2307 -1.8533
 5603TIP3   OH216772   1.325   0.674   5.840  0.3646 -0.0730  0.0599
 5603TIP3    H116773   1.372   0.594   5.815  1.8504  0.9467 -0.5798
 5603TIP3    H216774   1.395   0.736   5.862 -0.7705  0.1249  3.6797
 5604TIP3   OH216775   0.931   1.602   5.599 -0.4673  0.1341  0.5219
 5604TIP3    H116776   0.933   1.696   5.616  0.5317  0.1206  0.5761
 5604TIP3    H216777   0.846   1.573   5.633 -0.2626  0.8113  1.6884
 5605TIP3   OH216778   5.490   0.778   3.457 -0.1608  0.1390 -0.1686
 5605TIP3    H116779   5.420   0.717   3.432 -0.4893 -0.1923  1.4156
 5605TIP3    H216780   5.470   0.858   3.408 -1.6572  0.0400  0.2024
 5606TIP3   OH216781   4.552   5.318   2.010 -0.1240 -0.1222 -0.1971
 5606TIP3    H116782   4.607   5.303   1.933 -0.0938  0.6055 -0.3283
 5606TIP3    H216783   4.469   5.350   1.974 -0.8314 -1.7200 -0.0260
 5607TIP3   OH216784   0.834   3.231   1.045  0.3246  0.0033  0.9236
 5607TIP3    H116785   0.866   3.321   1.043  0.1768  0.0973  2.0331
 5607TIP3    H216786   0.906   3.181   1.083  0.2322 -0.2736  0.7377
 5608TIP3   OH216787   2.843   0.921   0.091  0.0458  0.1138 -0.0626
 5608TIP3    H116788   2.750   0.936   0.075  0.5340  1.5707 -1.9940
 5608TIP3    H216789   2.846   0.866   0.169 -2.4561 -0.8426 -0.5554
 5609TIP3   OH216790   1.040   2.302   4.290  0.2405  0.1798  0.2244
 5609TIP3    H116791   1.002   2.217   4.311 -0.6255  0.0772 -1.5756
 5609TIP3    H216792   1.126   2.301   4.331  0.6480 -1.9582 -0.5935
 5610TIP3   OH216793   4.938   0.604   5.223  0.4282  0.4095 -0.4944
 5610TIP3    H116794   4.908   0.695   5.225 -0.4905  0.1672 -2.1165
 5610TIP3    H216795   4.892   0.562   5.296 -1.1269  0.6811 -1.2788
 5611TIP3   OH216796   4.984   6.223   3.510  0.1483 -0.3799  0.1742
 5611TIP3    H116797   4.906   6.229   3.455  0.4513  0.6492 -0.1778
 5611TIP3    H216798   5.033   6.148   3.476 -1.1089 -1.5960  0.9814
 5612TIP3   OH216799   0.031   1.796   3.628  0.2459 -0.2178  0.3448
 5612TIP3    H116800  -0.017   1.865   3.582  1.4896 -0.2579 -1.1086
 5612TIP3    H216801   0.118   1.796   3.587  0.7307 -1.7044  1.2849
 5613TIP3   OH216802   1.274   2.030   1.192 -0.1795  0.2920  0.0600
 5613TIP3    H116803   1.253   2.111   1.238 -0.8696  0.2675 -0.2049
 5613TIP3    H216804   1.262   2.051   1.099  1.0524  0.2986 -0.1088
 5614TIP3   OH216805   4.993   4.929   4.025  0.1885  0.1336 -0.0576
 5614TIP3    H116806   4.923   4.970   4.075  1.2171  1.0978  0.6429
 5614TIP3    H216807   4.952   4.901   3.944 -1.5167 -1.4450  1.2773
 5615TIP3   OH216808   3.606   1.139   0.137  0.4878  0.0466 -0.3596
 5615TIP3    H116809   3.669   1.092   0.083  0.5687  0.9431 -1.0641
 5615TIP3    H216810   3.537   1.166   0.077 -0.5550 -0.8646  0.3920
 5616TIP3   OH216811   6.214   1.854   2.686 -0.1455  0.3109  0.3664
 5616TIP3    H116812   6.224   1.872   2.593  0.1845 -0.1653  0.3069
 5616TIP3    H216813   6.303   1.859   2.721 -0.0842 -0.8341  0.4079
 5617TIP3   OH216814   1.841   6.572   4.199 -0.5463 -0.0441 -0.0130
 5617TIP3    H116815   1.766   6.533   4.154 -1.0503 -1.3985  1.8917
 5617TIP3    H216816   1.802   6.621   4.271  0.3335  0.5696  0.0520
 5618TIP3   OH216817   0.442   5.308   1.779  0.6954  0.0821  0.1466
 5618TIP3    H116818   0.396   5.385   1.814  2.7630  0.7061  1.6915
 5618TIP3    H216819   0.410   5.235   1.832 -0.2998  0.0823 -0.4370
 5619TIP3   OH216820   2.673   3.766   5.118 -0.4869 -0.2645  0.4925
 5619TIP3    H116821   2.620   3.705   5.168 -1.7313 -1.3157 -1.9036
 5619TIP3    H216822   2.755   3.719   5.102  0.1133  0.2702  1.8909
 5620TIP3   OH216823   3.831   1.820   5.414 -0.6328 -0.2640  0.1682
 5620TIP3    H116824   3.791   1.850   5.332 -1.2227 -1.6136 -0.0698
 5620TIP3    H216825   3.893   1.753   5.387  0.9700  0.9815  0.6454
 5621TIP3   OH216826   3.230   2.138   2.302  0.3094  0.1498  0.1924
 5621TIP3    H116827   3.278   2.090   2.234 -0.9900  0.7935 -1.2500
 5621TIP3    H216828   3.145   2.095   2.307  0.1180  0.5927  0.8840
 5622TIP3   OH216829   3.568   5.090   4.098  0.2166  0.1568  0.4425
 5622TIP3    H116830   3.582   5.091   4.003 -2.4860  3.2810 -0.1108
 5622TIP3    H216831   3.618   5.165   4.130  0.2690 -0.2612  1.3566
 5623TIP3   OH216832   1.531   3.797   3.254  0.4684 -0.1039 -0.4979
 5623TIP3    H116833   1.512   3.705   3.272  2.7269 -0.7567 -1.0381
 5623TIP3    H216834   1.450   3.831   3.216 -1.4756 -0.9659  2.5094
 5624TIP3   OH216835   4.217   4.740   0.212 -0.0613 -0.0187  0.1386
 5624TIP3    H116836   4.121   4.736   0.212 -0.1033  0.7829 -0.0167
 5624TIP3    H216837   4.241   4.731   0.120  0.0009 -0.0924  0.1627
 5625TIP3   OH216838   6.496   1.630   1.766  0.3753  0.0004  0.5913
 5625TIP3    H116839   6.426   1.593   1.713  2.0529 -0.7180 -1.2669
 5625TIP3    H216840   6.451   1.675   1.838 -1.9815  0.1666 -0.8798
 5626TIP3   OH216841   7.077   4.772   5.683 -0.0846  0.3505 -0.6123
 5626TIP3    H116842   6.996   4.819   5.704 -0.9156 -0.1988 -2.4193
 5626TIP3    H216843   7.135   4.839   5.647 -0.8784  0.2513 -2.1691
 5627TIP3   OH216844   0.676   4.177   2.710 -0.5945  0.0164 -0.3051
 5627TIP3    H116845   0.624   4.217   2.641  0.2715 -0.9532 -1.5660
 5627TIP3    H216846   0.619   4.109   2.747 -0.5231 -0.5055 -1.1346
 5628TIP3   OH216847   1.506   2.046   5.294  0.2978  0.1046  0.5976
 5628TIP3    H116848   1.422   2.042   5.340 -0.2170 -0.4817 -0.3673
 5628TIP3    H216849   1.518   1.958   5.259  1.8891 -0.1482  1.7007
 5629TIP3   OH216850   1.156   3.495   2.731  0.0981  0.6434  0.3087
 5629TIP3    H116851   1.191   3.575   2.693  0.4026  0.0842 -0.6392
 5629TIP3    H216852   1.096   3.461   2.664 -1.4382  1.0050  1.4465
 5630TIP3   OH216853   1.021   3.229   0.036 -0.1659 -0.1826 -0.7397
 5630TIP3    H116854   1.048   3.140   0.016  1.0174  0.1622 -0.7586
 5630TIP3    H216855   1.100   3.271   0.069 -1.0802  0.4207  0.7908
 5631TIP3   OH216856   0.896   5.364   0.506  0.2375 -0.6607 -0.0497
 5631TIP3    H116857   0.938   5.320   0.580  0.6971  0.6470  0.4893
 5631TIP3    H216858   0.827   5.417   0.546  1.5104  1.3031 -0.3503
 5632TIP3   OH216859   5.396   1.431   1.262  0.0482  0.1849  0.1758
 5632TIP3    H116860   5.446   1.359   1.301 -0.7430 -0.4602  0.0498
 5632TIP3    H216861   5.418   1.428   1.169 -0.4101 -0.2796  0.0719
 5633TIP3   OH216862   5.510   0.258   1.490 -0.5526  0.4016  0.1003
 5633TIP3    H116863   5.552   0.312   1.556 -0.8351  0.1011  0.5281
 5633TIP3    H216864   5.438   0.312   1.456 -0.2728  0.6397 -0.1283
 5634TIP3   OH216865   0.432   0.162   4.734  0.3047 -0.0458  0.5264
 5634TIP3    H116866   0.420   0.068   4.748 -0.4760 -0.5891 -2.8663
 5634TIP3    H216867   0.459   0.170   4.643 -0.3023  3.0818  0.4901
 5635TIP3   OH216868   0.507   4.947   1.712 -0.5574 -0.3270 -0.0676
 5635TIP3    H116869   0.593   4.987   1.717 -1.0601  0.8804 -0.6487
 5635TIP3    H216870   0.511   4.891   1.634 -0.1733 -0.6327  0.1651
 5636TIP3   OH216871   2.533   0.202   1.017  0.5505 -0.0337  0.3096
 5636TIP3    H116872   2.537   0.109   1.039  0.0270  0.1667  1.3160
 5636TIP3    H216873   2.474   0.207   0.942  0.7526 -0.5399  0.1193
 5637TIP3   OH216874   0.146   3.280   1.896  0.0253 -0.4396  0.0177
 5637TIP3    H116875   0.065   3.234   1.917  0.5389 -0.7729  1.4031
 5637TIP3    H216876   0.133   3.369   1.929  0.4127 -0.6488  0.7630
 5638TIP3   OH216877   0.912   6.731   0.947  0.7532  0.2036 -0.2049
 5638TIP3    H116878   0.863   6.717   0.867  1.7046 -0.2678 -0.7275
 5638TIP3    H216879   0.983   6.791   0.922  0.2918  1.1111  0.6000
 5639TIP3   OH216880   6.663   5.208   0.140  0.2586 -0.3147 -0.2675
 5639TIP3    H116881   6.632   5.275   0.200  0.8411 -2.0173  2.0466
 5639TIP3    H216882   6.624   5.232   0.055 -2.4745  0.9186  1.2220
 5640TIP3   OH216883   6.957   2.739   5.251  0.4248  0.0691  0.3687
 5640TIP3    H116884   6.984   2.831   5.247  2.4931 -0.4552  0.9249
 5640TIP3    H216885   6.960   2.718   5.344 -0.1038 -0.5466  0.2481
 5641TIP3   OH216886   2.808   2.440   5.152 -0.0595 -0.0323 -0.2781
 5641TIP3    H116887   2.835   2.351   5.176 -1.2697  0.0082  1.5018
 5641TIP3    H216888   2.722   2.450   5.193  0.1836  2.0604 -0.1826
 5642TIP3   OH216889   6.276   3.887   3.120  0.3156 -1.0849  0.1147
 5642TIP3    H116890   6.301   3.979   3.123  1.3158 -1.3478  0.2691
 5642TIP3    H216891   6.190   3.884   3.161 -0.0419 -0.1264 -0.5301
 5643TIP3   OH216892   6.994   1.607   3.626  0.0888 -0.3881 -0.4294
 5643TIP3    H116893   6.907   1.592   3.663  0.2515  0.8861  0.5322
 5643TIP3    H216894   6.978   1.664   3.551  0.1864  0.9146  0.5091
 5644TIP3   OH216895   2.723   1.711   1.799 -0.0632 -0.0848  0.3059
 5644TIP3    H116896   2.637   1.674   1.816 -0.4430 -0.5612 -2.3259
 5644TIP3    H216897   2.784   1.648   1.837 -0.8170 -0.4449  0.9590
 5645TIP3   OH216898   5.927   6.253   1.760  0.5984  0.4963 -0.1815
 5645TIP3    H116899   5.939   6.229   1.668 -2.3933 -0.2458 -0.4944
 5645TIP3    H216900   5.880   6.336   1.757 -2.0369 -0.8470  0.4728
 5646TIP3   OH216901   1.639   3.823   3.513  0.4440  0.0675  0.1767
 5646TIP3    H116902   1.643   3.825   3.418  0.4312  2.0554  0.1817
 5646TIP3    H216903   1.555   3.864   3.534  1.1689  1.1552  1.0616
 5647TIP3   OH216904   5.530   3.248   3.875  0.1979  0.2710 -0.3877
 5647TIP3    H116905   5.481   3.176   3.835  0.5372 -0.4897  0.5314
 5647TIP3    H216906   5.613   3.249   3.829  0.0017  0.4155 -0.7468
 5648TIP3   OH216907   2.884   5.362   4.402 -0.1016  0.3256  0.1946
 5648TIP3    H116908   2.892   5.391   4.492  1.4857  1.6062 -0.3077
 5648TIP3    H216909   2.811   5.300   4.402 -0.5011  0.7592  2.2210
 5649TIP3   OH216910   3.175   0.724   0.458 -0.5740 -0.3990 -0.1984
 5649TIP3    H116911   3.226   0.804   0.445  1.6844 -1.7559 -0.1787
 5649TIP3    H216912   3.173   0.712   0.553 -1.6745  0.0758 -0.1503
 5650TIP3   OH216913   6.001   6.135   1.518  0.2900  0.4867 -0.5872
 5650TIP3    H116914   6.033   6.056   1.561 -0.7944  0.0071 -0.6338
 5650TIP3    H216915   6.070   6.157   1.455  0.9019 -0.0374 -0.1219
 5651TIP3   OH216916   4.888   1.371   4.684 -0.3261 -0.0727 -0.2875
 5651TIP3    H116917   4.912   1.390   4.775  0.1641 -1.2637 -0.1383
 5651TIP3    H216918   4.971   1.355   4.640 -0.6589 -1.8675 -0.3510
 5652TIP3   OH216919   0.726   4.675   3.109  0.2085 -0.6501  0.0010
 5652TIP3    H116920   0.819   4.665   3.131  0.4210  2.4605  1.1138
 5652TIP3    H216921   0.726   4.702   3.017  0.6670  1.1948  0.4852
 5653TIP3   OH216922   1.800   3.443   0.484  0.4777 -0.0491 -0.0833
 5653TIP3    H116923   1.790   3.410   0.573  2.5696  1.4182  0.7701
 5653TIP3    H216924   1.753   3.526   0.483  1.0627  0.2855 -0.1249
 5654TIP3   OH216925   5.967   2.098   3.097 -0.1233  0.0277  0.1652
 5654TIP3    H116926   5.979   2.088   3.002 -0.7060 -1.8975  0.2410
 5654TIP3    H216927   6.053   2.081   3.134  0.2511  1.3859 -0.0087
 5655TIP3   OH216928   4.496   0.059   4.249  0.3859  0.3576  0.1081
 5655TIP3    H116929   4.545   0.139   4.265  0.0638  0.1158  2.7118
 5655TIP3    H216930   4.417   0.068   4.303  0.5636 -1.8584  0.8442
 5656TIP3   OH216931   1.264   4.117   1.685 -0.0250 -0.0421 -0.0306
 5656TIP3    H116932   1.262   4.212   1.673 -1.2118 -0.2505 -1.9802
 5656TIP3    H216933   1.339   4.102   1.743  0.3896  2.0385  0.0786
 5657TIP3   OH216934   5.414   2.611   3.724  0.1416  0.0777 -0.0570
 5657TIP3    H116935   5.440   2.586   3.636  0.8239  1.0398 -0.1419
 5657TIP3    H216936   5.320   2.630   3.717 -0.2143 -1.5943 -0.1620
 5658TIP3   OH216937   2.695   2.249   3.239 -0.1849  0.4698  0.0601
 5658TIP3    H116938   2.746   2.328   3.254 -1.3633  1.4176 -0.7174
 5658TIP3    H216939   2.704   2.199   3.320  0.1913  1.6406  0.7618
 5659TIP3   OH216940   3.355   3.895   5.594 -0.1362 -0.3738 -0.2002
 5659TIP3    H116941   3.434   3.948   5.605 -0.5696  0.0519  1.0516
 5659TIP3    H216942   3.342   3.890   5.499  0.2092  1.3319 -0.3622
 5660TIP3   OH216943   3.542   4.438   2.481 -0.0252 -0.6715  0.2303
 5660TIP3    H116944   3.557   4.505   2.414 -0.1827  0.1398  0.9927
 5660TIP3    H216945   3.536   4.487   2.563  0.4299 -1.6779  0.8766
 5661TIP3   OH216946   2.886   3.523   2.780 -0.7298 -0.6582 -0.2135
 5661TIP3    H116947   2.899   3.609   2.740 -1.8935 -0.3128  0.1234
 5661TIP3    H216948   2.969   3.505   2.824 -0.3531  0.1458 -0.5716
 5662TIP3   OH216949   0.487   4.321   2.538 -0.2826 -0.3698 -0.1711
 5662TIP3    H116950   0.567   4.374   2.535  0.8833 -2.1089 -1.9821
 5662TIP3    H216951   0.459   4.315   2.446 -1.8610 -0.7720  0.3084
 5663TIP3   OH216952   4.471   4.430   5.804  0.6064  0.0603  0.1916
 5663TIP3    H116953   4.396   4.422   5.862  0.1960 -1.7250 -0.5108
 5663TIP3    H216954   4.433   4.447   5.718  1.0677  0.2134  0.0138
 5664TIP3   OH216955   4.159   6.322   0.142  0.0589 -0.0789  0.0966
 5664TIP3    H116956   4.071   6.297   0.170 -0.1475  1.5745  1.0566
 5664TIP3    H216957   4.144   6.383   0.069  0.4074  0.2301  0.2818
 5665TIP3   OH216958   5.599   4.673   4.698 -0.7119 -0.4167 -0.1480
 5665TIP3    H116959   5.675   4.615   4.687 -0.1830  0.2114  0.1345
 5665TIP3    H216960   5.619   4.749   4.642 -0.7533  0.1133  0.5470
 5666TIP3   OH216961   3.519   4.110   0.562 -0.0022 -0.0198 -0.2264
 5666TIP3    H116962   3.470   4.134   0.641 -0.2529 -0.5642 -0.2109
 5666TIP3    H216963   3.463   4.046   0.518  1.1341 -1.4201  0.3060
 5667TIP3   OH216964   4.746   1.799   5.893  0.0872 -0.2269  0.1763
 5667TIP3    H116965   4.821   1.855   5.913 -0.9394  2.3945 -2.5889
 5667TIP3    H216966   4.785   1.714   5.872  2.0907  0.5265  0.6231
 5668TIP3   OH216967   2.368   4.072   1.009 -0.3279 -0.4895 -0.0994
 5668TIP3    H116968   2.409   4.022   1.081  1.3124 -0.1825 -0.7729
 5668TIP3    H216969   2.393   4.025   0.930 -0.6716  0.1389 -0.5903
 5669TIP3   OH216970   1.744   2.664   0.075  0.5452 -0.3634 -0.1536
 5669TIP3    H116971   1.790   2.581   0.064 -0.5829 -0.8755 -1.2766
 5669TIP3    H216972   1.693   2.674  -0.005 -0.2800  0.8228  0.4855
 5670TIP3   OH216973   0.767   2.653   0.643 -0.4238 -0.1758  0.0106
 5670TIP3    H116974   0.701   2.701   0.693  0.3835  0.2275  0.7135
 5670TIP3    H216975   0.835   2.718   0.623  0.1051 -0.7413 -0.0788
 5671TIP3   OH216976   6.895   6.569   2.020 -0.3319 -0.8628  0.4641
 5671TIP3    H116977   6.863   6.629   2.087 -2.2979 -0.5129 -0.6849
 5671TIP3    H216978   6.870   6.610   1.937  3.2446 -0.5890 -0.6275
 5672TIP3   OH216979   3.003   5.321   4.926 -0.0658  0.1135  0.2217
 5672TIP3    H116980   2.933   5.321   4.992 -1.9362 -1.0836 -1.6298
 5672TIP3    H216981   2.978   5.391   4.866  0.7816  0.2038 -0.0277
 5673TIP3   OH216982   4.795   4.321   3.649  0.2782  0.7671  0.0688
 5673TIP3    H116983   4.844   4.389   3.694  1.7132 -0.5319  0.5713
 5673TIP3    H216984   4.821   4.240   3.692 -0.9526 -0.1723 -0.8575
 5674TIP3   OH216985   0.720   4.775   2.857 -0.0866 -0.3394 -0.1096
 5674TIP3    H116986   0.788   4.808   2.797  0.1830 -0.8768 -0.1145
 5674TIP3    H216987   0.638   4.797   2.814  0.0981 -0.1624 -0.3782
 5675TIP3   OH216988   5.653   4.349   4.086 -0.8102  0.2548  0.6148
 5675TIP3    H116989   5.733   4.400   4.087 -0.0693 -0.8512 -0.2705
 5675TIP3    H216990   5.584   4.413   4.105  0.2243  1.2812  1.0562
 5676TIP3   OH216991   0.036   0.192   0.772  0.1570  0.1007  1.2672
 5676TIP3    H116992   0.020   0.279   0.809  0.4114  2.4565 -3.4244
 5676TIP3    H216993  -0.050   0.150   0.773 -1.2977  2.6850 -1.1585
 5677TIP3   OH216994   2.673   4.268   1.520  0.4045  0.5102 -0.1116
 5677TIP3    H116995   2.654   4.220   1.600  0.3584 -2.2428 -1.6435
 5677TIP3    H216996   2.720   4.346   1.548 -0.5318  0.1697  2.6351
 5678TIP3   OH216997   2.580   5.889   2.586  0.6583  0.1956 -0.0678
 5678TIP3    H116998   2.553   5.824   2.522  2.0691 -0.4463 -0.0384
 5678TIP3    H216999   2.505   5.897   2.645  0.3889 -1.2605 -0.1750
 5679TIP3   OH217000   0.444   5.250   3.609  0.4104 -0.5288 -0.4861
 5679TIP3    H117001   0.377   5.219   3.670  1.5577 -0.4041  0.8695
 5679TIP3    H217002   0.455   5.177   3.547 -2.9243  0.4677 -2.5291
 5680TIP3   OH217003   5.251   3.306   1.662  0.1379  0.7205  0.5152
 5680TIP3    H117004   5.283   3.389   1.625  1.6476 -1.1560 -2.8917
 5680TIP3    H217005   5.156   3.315   1.662  0.2735  2.5864  0.6604
 5681TIP3   OH217006   0.231   0.988   5.295 -0.4902 -0.0205  0.0428
 5681TIP3    H117007   0.299   0.957   5.355 -0.8738  2.1825  1.7488
 5681TIP3    H217008   0.163   0.921   5.301  0.4759 -1.0326  0.2110
 5682TIP3   OH217009   4.396   5.680   5.054  0.0372 -0.4119  0.2069
 5682TIP3    H117010   4.362   5.702   4.968  2.2176  0.8206 -0.4152
 5682TIP3    H217011   4.451   5.603   5.040  1.9735  0.9237  0.0305
 5683TIP3   OH217012   1.168   5.533   0.212  0.0231 -0.2260  0.1913
 5683TIP3    H117013   1.075   5.510   0.210 -0.5879  1.9511  0.7018
 5683TIP3    H217014   1.185   5.568   0.124  0.7282 -1.7369 -0.3143
 5684TIP3   OH217015   1.331   5.698   5.650 -0.8073  0.0173  0.0145
 5684TIP3    H117016   1.417   5.715   5.688 -0.4691  0.1573 -0.7848
 5684TIP3    H217017   1.275   5.674   5.724  0.5410 -2.6132  0.2799
 5685TIP3   OH217018   6.156   2.669   2.286 -0.1379 -0.2147  0.1538
 5685TIP3    H117019   6.205   2.747   2.313 -1.6606  0.4851  0.9992
 5685TIP3    H217020   6.142   2.682   2.192  1.9774 -0.8452 -0.2972
 5686TIP3   OH217021   2.683   1.556   0.989 -0.2454 -0.5608 -0.3406
 5686TIP3    H117022   2.673   1.461   0.996 -0.5888 -0.4701  0.5842
 5686TIP3    H217023   2.603   1.591   1.028  0.5696  0.1143  0.7708
 5687TIP3   OH217024   1.856   4.836   0.708 -0.1534  0.3092 -0.4081
 5687TIP3    H117025   1.792   4.768   0.731 -0.3287  0.1882 -1.2474
 5687TIP3    H217026   1.923   4.829   0.777 -0.3829 -0.4334 -0.2455
 5688TIP3   OH217027   3.285   2.098   0.776 -0.5261  0.6326  0.5284
 5688TIP3    H117028   3.303   2.128   0.687 -1.5714 -0.1041  0.0451
 5688TIP3    H217029   3.256   2.177   0.822 -2.1997  0.6269 -0.4267
 5689TIP3   OH217030   0.527   5.389   2.685  1.1105  0.5181  0.2290
 5689TIP3    H117031   0.494   5.472   2.651  0.2685  0.8782  1.8525
 5689TIP3    H217032   0.568   5.411   2.768  0.8918 -0.6781  0.6731
 5690TIP3   OH217033   4.745   0.921   3.475 -0.3786  0.3099 -0.0307
 5690TIP3    H117034   4.659   0.923   3.432  0.2643 -0.1769 -1.4200
 5690TIP3    H217035   4.736   0.980   3.550 -1.3733  1.7606 -1.2270
 5691TIP3   OH217036   0.351   1.059   5.801  0.0689 -0.2096 -0.1824
 5691TIP3    H117037   0.337   1.149   5.830 -0.6968 -0.6286  0.8342
 5691TIP3    H217038   0.413   1.065   5.729 -0.1299  1.1465 -0.2480
 5692TIP3   OH217039   5.668   1.209   1.838  0.0113  0.5994 -0.4006
 5692TIP3    H117040   5.689   1.218   1.931  0.2315  0.6723 -0.4567
 5692TIP3    H217041   5.726   1.139   1.807 -2.3253 -1.8179  0.2465
 5693TIP3   OH217042   5.305   0.492   4.262  0.5143  0.0748  0.7513
 5693TIP3    H117043   5.271   0.406   4.238  0.1195  0.3050  0.4575
 5693TIP3    H217044   5.371   0.475   4.329  0.8396 -0.4996  0.2918
 5694TIP3   OH217045   7.018   1.279   4.995  0.2605 -0.2461 -0.2266
 5694TIP3    H117046   7.016   1.362   4.947 -0.5278  0.0825  0.3420
 5694TIP3    H217047   7.088   1.290   5.059  1.1242 -0.5788 -1.1009
 5695TIP3   OH217048   0.200   1.919   3.045  0.1535  0.2888 -0.5713
 5695TIP3    H117049   0.138   1.925   3.117  0.2341  0.3546 -0.5065
 5695TIP3    H217050   0.284   1.901   3.087  0.0050 -0.8319 -0.7326
 5696TIP3   OH217051   2.831   1.494   3.659 -0.0361 -0.4757 -0.5948
 5696TIP3    H117052   2.744   1.483   3.698  0.4798  0.2188  0.8411
 5696TIP3    H217053   2.880   1.418   3.691  0.1345 -0.3843 -0.6412
 5697TIP3   OH217054   5.252   2.168   1.504 -0.3406 -0.1184 -0.2293
 5697TIP3    H117055   5.298   2.249   1.529 -3.1822  0.8411  2.4513
 5697TIP3    H217056   5.204   2.192   1.425  0.4643  0.1241 -0.6595
 5698TIP3   OH217057   4.852   0.439   3.881  0.1335 -0.5951  0.0794
 5698TIP3    H117058   4.888   0.451   3.969 -1.0378 -0.7357  0.6039
 5698TIP3    H217059   4.875   0.519   3.834 -2.3279  1.1798  1.6447
 5699TIP3   OH217060   3.560   2.541   4.458  0.3009 -0.1670 -0.0468
 5699TIP3    H117061   3.469   2.529   4.484  0.3880 -0.0888  0.2903
 5699TIP3    H217062   3.604   2.573   4.536  0.8179 -1.0984  0.0572
 5700TIP3   OH217063   3.110   1.597   5.660 -0.3424  0.1871 -0.4643
 5700TIP3    H117064   3.167   1.652   5.714  1.8110 -0.8723 -1.5169
 5700TIP3    H217065   3.167   1.525   5.631 -2.6161 -1.7193 -0.4752
 5701TIP3   OH217066   1.006   1.188   0.123  0.2216  0.2823 -0.3457
 5701TIP3    H117067   1.022   1.182   0.029  0.1046 -1.4193 -0.2733
 5701TIP3    H217068   0.917   1.224   0.130 -0.6165 -1.5952 -0.9428
 5702TIP3   OH217069   7.201   2.067   3.170  0.0012  0.4919  0.0316
 5702TIP3    H117070   7.157   2.145   3.204 -0.4191  0.6586 -0.8598
 5702TIP3    H217071   7.229   2.092   3.083  1.7068  0.3057  0.4985
 5703TIP3   OH217072   4.762   6.779   1.179  0.2012  0.9678  0.1680
 5703TIP3    H117073   4.850   6.814   1.166  1.3556 -0.9217  2.0919
 5703TIP3    H217074   4.731   6.822   1.259  0.9601 -0.9244  1.5905
 5704TIP3   OH217075   5.208   2.679   1.216 -0.4383 -0.0429 -0.0772
 5704TIP3    H117076   5.270   2.608   1.200  0.0014  0.2416  0.3269
 5704TIP3    H217077   5.123   2.642   1.195 -0.0794 -0.2706 -1.1893
 5705TIP3   OH217078   5.175   4.357   2.747 -0.3305 -0.1335 -0.6787
 5705TIP3    H117079   5.172   4.322   2.657  1.5361 -0.2375 -0.7583
 5705TIP3    H217080   5.114   4.430   2.746 -0.0346  0.1458 -2.1860
 5706TIP3   OH217081   1.266   1.069   0.715  0.2282  0.0445  0.2824
 5706TIP3    H117082   1.319   0.992   0.735 -0.6408 -0.8307 -0.6991
 5706TIP3    H217083   1.327   1.128   0.670  0.2132 -1.3105 -1.6317
 5707TIP3   OH217084   5.119   6.302   0.944  0.3559 -0.0999  0.4505
 5707TIP3    H117085   5.108   6.281   0.851 -1.2791  0.0608  0.5764
 5707TIP3    H217086   5.115   6.398   0.947  0.7214 -0.0915  0.6482
 5708TIP3   OH217087   2.997   3.248   0.784 -0.3916 -0.4020  0.1960
 5708TIP3    H117088   3.068   3.220   0.842 -2.2961 -2.2132  1.8106
 5708TIP3    H217089   2.930   3.283   0.843 -1.4268 -0.0580 -1.1431
 5709TIP3   OH217090   6.972   2.896   5.614 -0.8510 -0.0025  0.0204
 5709TIP3    H117091   6.962   2.990   5.601 -1.2749  0.3238  2.3101
 5709TIP3    H217092   7.059   2.876   5.580 -0.7001  1.2245 -0.3540
 5710TIP3   OH217093   1.853   5.568   1.407  0.0671  0.1875 -0.1644
 5710TIP3    H117094   1.944   5.551   1.385  0.7484  1.1529  1.6919
 5710TIP3    H217095   1.835   5.655   1.372 -0.6311 -0.5718 -1.7933
 5711TIP3   OH217096   4.943   4.111   0.152 -0.6499  0.0859  0.1317
 5711TIP3    H117097   4.869   4.071   0.198 -1.5910 -1.7360 -2.6939
 5711TIP3    H217098   4.905   4.148   0.073  1.2123  0.7659 -0.5026
 5712TIP3   OH217099   1.740   2.231   5.642  0.3698 -0.1110 -0.3781
 5712TIP3    H117100   1.684   2.154   5.651 -2.0769  1.3154 -2.2164
 5712TIP3    H217101   1.800   2.209   5.571 -0.2537 -0.4066 -0.8301
 5713TIP3   OH217102   1.561   4.303   5.710  0.6050 -0.1893 -0.3783
 5713TIP3    H117103   1.495   4.234   5.716  1.8477 -1.3372  0.5966
 5713TIP3    H217104   1.640   4.259   5.679  1.9074  0.3918  1.8684
 5714TIP3   OH217105   2.945   4.087   5.053 -0.4113 -0.0492  0.0240
 5714TIP3    H117106   2.891   4.067   4.977 -1.6182  0.8468  0.6010
 5714TIP3    H217107   3.018   4.138   5.018 -1.3976  1.0927 -0.4534
 5715TIP3   OH217108   5.427   2.270   2.943  0.4305 -0.5836  0.2684
 5715TIP3    H117109   5.356   2.289   2.881  1.1330  0.9159 -0.1205
 5715TIP3    H217110   5.411   2.329   3.016  0.6659 -1.0387  0.6935
 5716TIP3   OH217111   4.395   1.642   4.058 -0.1852  0.1017 -0.5727
 5716TIP3    H117112   4.453   1.611   3.988  0.5031  0.8330 -0.3474
 5716TIP3    H217113   4.357   1.562   4.094  1.4107 -0.4911 -0.1135
 5717TIP3   OH217114   5.433   0.827   4.909  0.4312 -0.5931  0.0035
 5717TIP3    H117115   5.452   0.918   4.887 -2.3737 -0.1611 -1.1845
 5717TIP3    H217116   5.396   0.791   4.828  1.7512 -2.9093  0.3616
 5718TIP3   OH217117   4.783   5.222   3.048 -0.2669 -0.0569 -0.3001
 5718TIP3    H117118   4.794   5.131   3.018  1.8909 -0.2538  0.8970
 5718TIP3    H217119   4.727   5.215   3.125 -1.1523 -0.2006 -0.9421
 5719TIP3   OH217120   1.096   0.264   2.430  0.0578  0.8916  0.5881
 5719TIP3    H117121   1.127   0.201   2.495  1.3378  0.6638 -0.1972
 5719TIP3    H217122   1.161   0.334   2.433  1.3019 -0.0434 -1.7822
 5720TIP3   OH217123   1.606   1.585   4.245  0.2258  0.1304  0.0487
 5720TIP3    H117124   1.583   1.501   4.206  1.5042 -0.5819  0.7335
 5720TIP3    H217125   1.525   1.636   4.244 -0.3269 -0.7321 -1.2991
 5721TIP3   OH217126   6.869   4.544   1.265  0.4429  0.0967  0.5509
 5721TIP3    H117127   6.964   4.556   1.264  0.3856  0.6019  1.1808
 5721TIP3    H217128   6.857   4.450   1.247  1.0276  0.1732 -0.2954
 5722TIP3   OH217129   2.495   6.155   5.422  0.1450 -0.2202  0.4903
 5722TIP3    H117130   2.423   6.170   5.361 -0.2096  2.7222  1.4675
 5722TIP3    H217131   2.474   6.072   5.464 -2.3802  0.2325  0.2746
 5723TIP3   OH217132   0.155   5.013   4.401  0.0540  0.3545 -0.5679
 5723TIP3    H117133   0.174   5.057   4.317 -0.5343  1.7285 -0.0202
 5723TIP3    H217134   0.073   4.967   4.385  1.0622 -1.2282 -1.3778
 5724TIP3   OH217135   5.924   3.581   1.885 -0.4753  0.6622  0.0898
 5724TIP3    H117136   6.020   3.581   1.884 -0.4736  1.5146 -0.2683
 5724TIP3    H217137   5.899   3.571   1.793 -0.7358  0.2816  0.1999
 5725TIP3   OH217138   4.973   4.996   3.023 -0.2424 -0.5751 -0.0204
 5725TIP3    H117139   5.056   4.948   3.025  0.8645  1.2547  0.1179
 5725TIP3    H217140   4.940   4.989   3.113  0.3178 -0.3860  0.2018
 5726TIP3   OH217141   4.321   1.987   4.882 -0.3776 -0.2361 -0.2608
 5726TIP3    H117142   4.282   2.072   4.860  0.7428  0.1722 -0.7615
 5726TIP3    H217143   4.318   1.984   4.978  0.7157  0.9589 -0.1564
 5727TIP3   OH217144   2.814   2.177   0.729  0.0665 -0.5585  0.1422
 5727TIP3    H117145   2.786   2.268   0.736 -1.7549 -1.0180 -0.6038
 5727TIP3    H217146   2.773   2.133   0.803  0.4263 -0.9052  0.1418
 5728TIP3   OH217147   4.335   2.333   2.109 -0.3851 -0.0814  0.4671
 5728TIP3    H117148   4.338   2.355   2.016  1.5391 -0.1873  0.4527
 5728TIP3    H217149   4.409   2.380   2.147  0.2504 -1.7985  1.5131
 5729TIP3   OH217150   4.083   2.467   3.030  0.0131 -0.6057 -0.2248
 5729TIP3    H117151   4.005   2.512   2.997 -0.4672 -0.8446  0.5492
 5729TIP3    H217152   4.148   2.536   3.040 -0.5417 -0.1696  0.4260
 5730TIP3   OH217153   1.339   2.718   2.150  0.3537 -0.2897 -0.8267
 5730TIP3    H117154   1.348   2.664   2.072 -0.7529  0.6175 -1.6122
 5730TIP3    H217155   1.338   2.808   2.118  0.3937  0.1309  0.2873
 5731TIP3   OH217156   3.266   4.315   0.272  0.5134  0.9292  0.0116
 5731TIP3    H117157   3.355   4.321   0.306  1.0132  1.1320 -1.2506
 5731TIP3    H217158   3.274   4.256   0.197 -0.5664  0.3564  0.3329
 5732TIP3   OH217159   5.862   2.966   5.409  0.0958  0.4226  0.1983
 5732TIP3    H117160   5.781   2.994   5.367 -0.4510  1.2968  1.7651
 5732TIP3    H217161   5.839   2.886   5.455 -0.3409  1.4768  1.9153
 5733TIP3   OH217162   3.847   1.839   3.428 -0.9448 -0.0999  0.1711
 5733TIP3    H117163   3.873   1.814   3.516  1.6799 -1.1859 -0.8082
 5733TIP3    H217164   3.910   1.907   3.402 -0.5118 -1.0501 -1.4496
 5734TIP3   OH217165   1.202   2.362   4.624  0.0822 -0.2672 -0.5176
 5734TIP3    H117166   1.215   2.290   4.686 -1.0072 -0.1015 -0.0745
 5734TIP3    H217167   1.227   2.440   4.673  1.8616 -0.3591 -1.1945
 5735TIP3   OH217168   5.913   0.786   2.291  0.1707  0.6988  0.4313
 5735TIP3    H117169   5.898   0.850   2.361 -1.5489 -0.4317  1.1755
 5735TIP3    H217170   5.842   0.801   2.229 -1.7317 -1.8633  1.7637
 5736TIP3   OH217171   1.323   1.638   2.474 -0.3710  0.7494  0.7093
 5736TIP3    H117172   1.396   1.623   2.413 -1.2838  1.2284 -0.5460
 5736TIP3    H217173   1.246   1.645   2.418 -1.3649  0.4528  1.9984
 5737TIP3   OH217174   3.659   3.926   4.188 -0.3070  0.3249 -0.9137
 5737TIP3    H117175   3.669   3.870   4.266 -0.6520  0.1220 -1.0134
 5737TIP3    H217176   3.665   3.865   4.114  0.0214  0.5170 -1.0521
 5738TIP3   OH217177   6.260   0.243   1.864 -0.3738 -0.1438 -0.0218
 5738TIP3    H117178   6.256   0.321   1.920 -0.4968  0.5012 -0.9193
 5738TIP3    H217179   6.242   0.276   1.776  0.5735 -1.0327 -0.5575
 5739TIP3   OH217180   4.532   1.520   0.620 -0.5223 -0.9451  0.0557
 5739TIP3    H117181   4.537   1.472   0.538  1.2547 -0.0286 -0.4129
 5739TIP3    H217182   4.570   1.461   0.686  0.2479 -0.7719 -0.2309
 5740TIP3   OH217183   5.900   1.962   2.458 -0.2132 -0.1374 -0.2516
 5740TIP3    H117184   5.864   1.972   2.546  1.0833 -1.3234  0.4604
 5740TIP3    H217185   5.981   2.014   2.459 -0.8371  0.9076 -1.1934
 5741TIP3   OH217186   6.895   3.853   5.367  0.0681 -0.2880  0.3136
 5741TIP3    H117187   6.881   3.947   5.355  1.5906  0.1985  1.9326
 5741TIP3    H217188   6.807   3.815   5.361 -0.5529  1.1921 -0.5906
 5742TIP3   OH217189   1.413   3.750   2.948 -0.0813  0.2197  0.1807
 5742TIP3    H117190   1.367   3.814   3.002 -1.4809 -0.4880 -0.1348
 5742TIP3    H217191   1.396   3.666   2.991  2.0031  0.0362  0.7749
 5743TIP3   OH217192   4.656   6.180   1.781 -0.0167 -0.0218 -0.4495
 5743TIP3    H117193   4.624   6.147   1.697  1.4146 -0.0879 -0.9864
 5743TIP3    H217194   4.622   6.269   1.786  1.4352  0.6730 -2.0039
 5744TIP3   OH217195   1.135   4.748   1.190  0.9002  0.0951 -0.0875
 5744TIP3    H117196   1.063   4.779   1.246 -0.2321 -0.1479 -1.3667
 5744TIP3    H217197   1.168   4.827   1.148 -0.0100 -0.0120 -1.0604
 5745TIP3   OH217198   0.303   1.452   4.888 -0.2146 -0.7171 -0.3695
 5745TIP3    H117199   0.284   1.410   4.804  0.3518  0.1430 -0.9466
 5745TIP3    H217200   0.386   1.414   4.916  0.3776  0.1067 -0.9692
 5746TIP3   OH217201   0.575   1.898   0.506 -0.6176  0.2290  0.6277
 5746TIP3    H117202   0.668   1.907   0.485 -1.3500  1.6160 -2.6069
 5746TIP3    H217203   0.561   1.804   0.514  0.8341 -0.0763 -0.0682
 5747TIP3   OH217204   2.031   1.686   0.409  0.4966 -0.0087 -0.4921
 5747TIP3    H117205   2.100   1.629   0.443 -1.6890 -2.2162  0.4695
 5747TIP3    H217206   2.020   1.658   0.318  1.1391  0.6510 -0.7808
 5748TIP3   OH217207   1.514   4.915   3.322 -0.2229  0.3339 -0.2111
 5748TIP3    H117208   1.453   4.854   3.280  0.3573 -0.8398  0.5839
 5748TIP3    H217209   1.458   4.984   3.359 -0.8717  0.4325 -1.3345
 5749TIP3   OH217210   4.860   6.635   0.036  0.3963 -0.2613  0.5451
 5749TIP3    H117211   4.837   6.727   0.020  3.3852  0.5289  0.0841
 5749TIP3    H217212   4.833   6.619   0.126 -0.6762  0.8974  0.4569
 5750TIP3   OH217213   5.431   3.611   0.061  0.0743 -0.0924 -0.5615
 5750TIP3    H117214   5.381   3.559   0.124 -0.2070 -0.0453 -0.7461
 5750TIP3    H217215   5.505   3.554   0.036  1.7760  0.8874  1.8788
 5751TIP3   OH217216   6.186   2.640   0.982  0.3193 -0.1820 -0.0593
 5751TIP3    H117217   6.097   2.605   0.979  0.4494 -0.4739 -0.6801
 5751TIP3    H217218   6.181   2.725   0.939  0.1991  0.1376  0.5708
 5752TIP3   OH217219   2.221   2.262   4.284 -0.3322  0.0775  0.4522
 5752TIP3    H117220   2.265   2.344   4.260 -0.0886 -0.6081 -1.6275
 5752TIP3    H217221   2.278   2.193   4.252 -1.3155 -0.8947  0.7185
 5753TIP3   OH217222   0.584   4.706   2.315 -0.1554 -0.0591  0.9119
 5753TIP3    H117223   0.662   4.740   2.359  0.2144 -0.7654  0.8092
 5753TIP3    H217224   0.614   4.682   2.228 -0.5380 -0.1312  0.7996
 5754TIP3   OH217225   7.074   0.892   0.978 -0.4230  0.1378  0.0651
 5754TIP3    H117226   7.032   0.876   0.893  1.0788 -0.9809 -0.4960
 5754TIP3    H217227   7.045   0.980   1.002 -2.5232 -0.3007 -0.6023
 5755TIP3   OH217228   0.754   0.350   4.130  0.5237 -0.5549  0.3443
 5755TIP3    H117229   0.771   0.333   4.223 -0.6844  0.5018  0.7805
 5755TIP3    H217230   0.672   0.398   4.129  1.3200  0.8536 -1.1651
 5756TIP3   OH217231   2.694   5.014   1.880  0.2800 -0.1649  0.3165
 5756TIP3    H117232   2.728   5.000   1.969  1.0009 -1.9085 -0.1945
 5756TIP3    H217233   2.765   4.985   1.823 -0.5523  0.0154 -0.8324
 5757TIP3   OH217234   3.128   5.795   3.349 -0.5050  0.1888 -0.4172
 5757TIP3    H117235   3.176   5.827   3.426 -1.1111  0.5739 -0.1902
 5757TIP3    H217236   3.125   5.700   3.361 -2.2168  0.3725  1.0373
 5758TIP3   OH217237   1.290   4.543   1.872 -0.5724 -0.5490  0.1225
 5758TIP3    H117238   1.360   4.598   1.908 -1.3167  0.5883 -0.0947
 5758TIP3    H217239   1.227   4.606   1.835 -0.5212 -1.6100 -1.9270
 5759TIP3   OH217240   3.519   4.265   3.685 -0.7428  0.7441 -0.1723
 5759TIP3    H117241   3.511   4.354   3.719 -0.7930  0.5788  0.2541
 5759TIP3    H217242   3.610   4.259   3.656 -0.8674  1.0855 -0.6377
 5760TIP3   OH217243   4.110   6.259   4.907  0.5930 -0.1317  0.0265
 5760TIP3    H117244   4.018   6.270   4.934  0.5383  0.1659 -0.2793
 5760TIP3    H217245   4.158   6.253   4.989  0.2769 -0.4565  0.1889
 5761TIP3   OH217246   6.310   1.086   1.991 -0.2615  0.2871  0.2343
 5761TIP3    H117247   6.345   1.161   2.039  0.8172 -1.8358  3.0158
 5761TIP3    H217248   6.224   1.070   2.030 -0.7254  0.3514 -0.7209
 5762TIP3   OH217249   1.583   1.185   0.215 -0.2502 -0.1959 -0.2051
 5762TIP3    H117250   1.632   1.167   0.134 -1.4209 -1.6792 -0.6281
 5762TIP3    H217251   1.650   1.192   0.283  0.5977 -1.7207 -0.8393
 5763TIP3   OH217252   2.467   6.117   5.835  0.4402  0.5754  0.0181
 5763TIP3    H117253   2.529   6.051   5.865 -0.9204 -1.0536 -0.6383
 5763TIP3    H217254   2.407   6.129   5.908  0.8859  1.4014  0.2715
 5764TIP3   OH217255   0.815   6.149   3.843  0.1391 -0.0219 -0.1453
 5764TIP3    H117256   0.812   6.058   3.873  0.8110 -0.3011 -0.8822
 5764TIP3    H217257   0.728   6.183   3.860 -0.2421 -0.9311 -0.2311
 5765TIP3   OH217258   4.042   2.599   0.645 -0.4025  0.1246 -0.1550
 5765TIP3    H117259   3.977   2.611   0.576 -1.6540 -0.3246  0.9084
 5765TIP3    H217260   3.991   2.584   0.724  0.9564  2.2605  1.2129
 5766TIP3   OH217261   1.553   4.151   5.134 -0.4563  0.1023  0.2814
 5766TIP3    H117262   1.600   4.218   5.184  0.2908 -1.1049  1.2478
 5766TIP3    H217263   1.513   4.199   5.061  2.4447  1.1714 -0.7509
 5767TIP3   OH217264   7.033   1.290   0.194 -0.4314 -0.4664  0.0680
 5767TIP3    H117265   7.026   1.384   0.213 -2.7756  0.0028 -2.4661
 5767TIP3    H217266   7.076   1.286   0.109 -1.3010 -1.6131 -0.3346
 5768TIP3   OH217267   3.682   1.538   0.882  0.0746 -0.3151 -0.4498
 5768TIP3    H117268   3.759   1.538   0.825 -1.4493 -0.0241 -2.6456
 5768TIP3    H217269   3.703   1.600   0.951  0.6156  2.3008 -2.8095
 5769TIP3   OH217270   3.772   2.295   0.212 -0.1224  0.2128  1.0223
 5769TIP3    H117271   3.796   2.279   0.303 -1.5461  0.4810  1.4788
 5769TIP3    H217272   3.713   2.371   0.216 -0.5170 -0.0143 -0.0736
 5770TIP3   OH217273   6.493   4.792   1.819 -0.0166  0.2229 -0.2391
 5770TIP3    H117274   6.455   4.880   1.824 -1.4446 -0.3795 -0.0480
 5770TIP3    H217275   6.556   4.790   1.891 -0.9487  0.6671  0.6300
 5771TIP3   OH217276   5.839   0.633   0.813 -0.5193 -0.2022  0.0096
 5771TIP3    H117277   5.838   0.599   0.902 -0.1239 -0.3276 -0.0289
 5771TIP3    H217278   5.747   0.637   0.787 -0.6409 -0.1006  0.4461
 5772TIP3   OH217279   6.033   1.993   0.963  0.0491  0.2220 -0.1952
 5772TIP3    H117280   6.027   2.087   0.946 -1.6962  0.1659 -0.0879
 5772TIP3    H217281   6.028   1.952   0.876 -1.9222  0.1762 -0.1121
 5773TIP3   OH217282   1.864   5.008   2.523  0.4867  0.5466 -0.4976
 5773TIP3    H117283   1.876   4.914   2.539  1.0685  0.7746  0.4807
 5773TIP3    H217284   1.799   5.012   2.453  1.4644 -0.6175 -1.5171
 5774TIP3   OH217285   1.789   0.562   4.554  0.2150 -0.7819  0.3144
 5774TIP3    H117286   1.814   0.491   4.494  0.1217 -0.3126 -0.2828
 5774TIP3    H217287   1.742   0.518   4.625  0.7671 -1.4038  0.3015
 5775TIP3   OH217288   3.255   0.316   3.031 -0.2740  0.9529  0.3161
 5775TIP3    H117289   3.190   0.246   3.037  1.7058 -1.0854 -0.1670
 5775TIP3    H217290   3.304   0.310   3.113  1.0527  0.5020 -0.4790
 5776TIP3   OH217291   6.729   2.065   3.000 -0.4170 -0.0278  0.2569
 5776TIP3    H117292   6.802   2.008   2.975 -0.4367 -0.4950  1.2102
 5776TIP3    H217293   6.683   2.015   3.068 -1.2956  0.5029  0.0626
 5777TIP3   OH217294   1.759   6.323   3.955  0.3729  0.3983 -0.1377
 5777TIP3    H117295   1.716   6.403   3.984 -2.1198 -0.4969 -1.1072
 5777TIP3    H217296   1.849   6.350   3.936  0.1348  2.5078  1.3937
 5778TIP3   OH217297   3.441   5.138   4.424 -0.0991 -0.1182 -0.2447
 5778TIP3    H117298   3.389   5.084   4.483 -0.8089  0.7504 -0.0693
 5778TIP3    H217299   3.511   5.079   4.394 -0.3361 -0.8671  0.6331
 5779TIP3   OH217300   3.389   5.659   0.285  0.0115 -0.1542 -0.4887
 5779TIP3    H117301   3.366   5.752   0.286  0.7401  0.0455 -1.2302
 5779TIP3    H217302   3.449   5.650   0.210 -0.3785 -1.2982 -0.6789
 5780TIP3   OH217303   0.829   5.023   5.703 -0.0299 -0.3716 -0.1907
 5780TIP3    H117304   0.888   5.098   5.708  0.9891 -1.1966  0.5502
 5780TIP3    H217305   0.868   4.957   5.761 -0.8452 -1.5156 -0.8928
 5781TIP3   OH217306   4.769   3.523   1.978  0.0744  0.4796  0.1227
 5781TIP3    H117307   4.763   3.541   2.072  0.4534  0.8933  0.0727
 5781TIP3    H217308   4.711   3.587   1.938 -1.3434 -0.7369  0.1698
 5782TIP3   OH217309   7.177   5.757   4.406  0.3635 -0.4502 -0.6055
 5782TIP3    H117310   7.133   5.789   4.327  1.0045  0.4576 -0.6086
 5782TIP3    H217311   7.255   5.811   4.414  0.5544 -0.8473  0.3970
 5783TIP3   OH217312   5.418   3.881   2.806 -0.2079  0.0869  1.1213
 5783TIP3    H117313   5.345   3.942   2.801 -1.1412 -0.7434  3.2916
 5783TIP3    H217314   5.492   3.934   2.836 -0.4810  0.5377  0.9977
 5784TIP3   OH217315   5.003   3.401   3.709 -0.0335  0.1775  0.2040
 5784TIP3    H117316   4.923   3.349   3.699  0.2228 -0.0419 -0.8617
 5784TIP3    H217317   5.055   3.352   3.774 -0.5903  0.1189  0.6137
 5785TIP3   OH217318   1.653   0.622   3.384 -0.3671 -0.1432 -0.0528
 5785TIP3    H117319   1.748   0.628   3.401 -0.6763  0.5162  1.6472
 5785TIP3    H217320   1.644   0.547   3.325  0.9727 -1.9712  1.9121
 5786TIP3   OH217321   0.498   3.347   5.819 -0.4929  0.1290 -0.1369
 5786TIP3    H117322   0.471   3.376   5.907 -1.2976 -0.7013 -0.0948
 5786TIP3    H217323   0.438   3.393   5.760 -1.1022 -0.6487 -0.1335
 5787TIP3   OH217324   5.147   5.960   5.185 -0.2289  0.3001  0.2106
 5787TIP3    H117325   5.103   5.891   5.135 -0.3216  1.8786 -2.0054
 5787TIP3    H217326   5.086   5.979   5.257 -1.0180 -0.6817 -0.1650
 5788TIP3   OH217327   6.000   6.013   4.540  0.0761 -0.3226 -0.2031
 5788TIP3    H117328   5.929   6.063   4.500  0.3852  1.7086  1.6089
 5788TIP3    H217329   5.970   5.997   4.630  1.7060  0.2252  0.4826
 5789TIP3   OH217330   5.958   2.136   0.324  0.2375  0.9082  0.0302
 5789TIP3    H117331   5.981   2.131   0.417  0.8540 -0.1846 -0.1754
 5789TIP3    H217332   6.014   2.072   0.281 -2.4748 -1.1951 -0.6306
 5790TIP3   OH217333   3.952   3.868   1.747  0.6218 -0.2082  0.2112
 5790TIP3    H117334   3.943   3.821   1.664  1.4598  1.2518 -0.7621
 5790TIP3    H217335   4.008   3.812   1.801  0.6437 -0.8595 -0.4755
 5791TIP3   OH217336   5.158   5.567   4.862 -0.0712  0.5160 -0.5301
 5791TIP3    H117337   5.162   5.654   4.901 -1.8559 -0.2699  1.6513
 5791TIP3    H217338   5.216   5.513   4.916  0.0836  0.1013 -1.0971
 5792TIP3   OH217339   4.004   5.511   4.174  0.0868 -0.2730  0.3423
 5792TIP3    H117340   4.066   5.441   4.155  1.0410  0.9113 -1.1122
 5792TIP3    H217341   3.983   5.500   4.267  0.3591 -2.3384  0.1955
 5793TIP3   OH217342   2.772   3.984   3.674  0.0122  0.0746 -0.6700
 5793TIP3    H117343   2.758   3.940   3.758 -2.0593 -0.8042 -1.4081
 5793TIP3    H217344   2.863   3.963   3.651 -0.0276 -1.3919  0.3700
 5794TIP3   OH217345   4.988   5.379   2.691  0.4200 -0.1736 -0.2654
 5794TIP3    H117346   5.045   5.405   2.763  0.1947 -1.2255  0.3111
 5794TIP3    H217347   4.957   5.292   2.715  0.2447 -0.5004 -1.5813
 5795TIP3   OH217348   2.548   0.195   2.995  0.5360 -0.1181  0.0860
 5795TIP3    H117349   2.492   0.254   3.045 -1.1558 -0.3238 -1.4858
 5795TIP3    H217350   2.584   0.250   2.925 -1.4472 -0.9842 -1.6895
 5796TIP3   OH217351   6.700   6.462   3.701 -0.1887  0.2036  0.0044
 5796TIP3    H117352   6.724   6.454   3.609  0.1232  0.1414  0.0913
 5796TIP3    H217353   6.672   6.553   3.711  0.5457  0.4295  0.0309
 5797TIP3   OH217354   0.681   2.324   4.093  0.0663 -0.2091  0.1797
 5797TIP3    H117355   0.701   2.231   4.084 -1.3487 -0.3860 -1.7971
 5797TIP3    H217356   0.703   2.362   4.008  0.5505  1.2727  0.9324
 5798TIP3   OH217357   4.238   4.081   2.336 -0.4404 -0.6584 -0.0159
 5798TIP3    H117358   4.219   4.128   2.418 -1.6312 -1.8299  0.4128
 5798TIP3    H217359   4.286   4.004   2.363  0.5903 -0.2451 -0.6143
 5799TIP3   OH217360   2.848   5.582   4.886  0.1503 -0.1697 -0.2099
 5799TIP3    H117361   2.855   5.673   4.916 -0.3510  0.1989 -1.1898
 5799TIP3    H217362   2.756   5.561   4.897 -0.0854  0.0337 -1.6388
 5800TIP3   OH217363   2.646   0.032   1.706  0.5849 -0.4498  0.0589
 5800TIP3    H117364   2.561   0.020   1.749  1.1238 -1.0873  0.9804
 5800TIP3    H217365   2.708  -0.012   1.763  1.3764 -1.0827 -1.2494
 5801TIP3   OH217366   3.949   3.063   3.656 -0.0748  0.0795 -0.5099
 5801TIP3    H117367   3.894   3.001   3.705 -1.0575  0.6735 -0.8400
 5801TIP3    H217368   3.994   3.114   3.724 -0.1394 -0.2242 -0.2353
 5802TIP3   OH217369   6.440   0.020   2.049 -0.4704  0.0093  0.2172
 5802TIP3    H117370   6.423   0.102   2.004 -0.9741 -0.1939  0.0181
 5802TIP3    H217371   6.456  -0.043   1.978 -1.5489 -0.3733  0.2839
 5803TIP3   OH217372   2.330   5.294   1.997 -0.3473  0.5290  0.0837
 5803TIP3    H117373   2.408   5.335   2.032 -0.4101  0.1514  0.6771
 5803TIP3    H217374   2.355   5.268   1.908  0.5887 -0.6042  0.6476
 5804TIP3   OH217375   0.004   2.563   4.073 -0.4763  0.1212  0.8274
 5804TIP3    H117376   0.065   2.633   4.048 -0.1476 -0.5158 -0.2421
 5804TIP3    H217377   0.052   2.512   4.138 -0.5682  0.6538  1.3240
 5805TIP3   OH217378   4.631   3.940   5.002  0.0390  0.2786 -0.0004
 5805TIP3    H117379   4.552   3.888   4.994 -1.0951  1.3859  2.7712
 5805TIP3    H217380   4.627   4.001   4.928 -1.8745  0.5062  0.2427
 5806TIP3   OH217381   6.016   5.132   3.958 -0.4521 -0.5162 -0.6666
 5806TIP3    H117382   5.943   5.087   3.916 -1.0952 -0.4241  0.3186
 5806TIP3    H217383   6.029   5.086   4.041  0.5940 -0.5077 -0.8080
 5807TIP3   OH217384   0.717   6.332   5.701  0.2519  0.5968 -0.0166
 5807TIP3    H117385   0.640   6.381   5.672  0.7492  1.5888  0.2728
 5807TIP3    H217386   0.681   6.254   5.742 -0.4913 -0.6645 -2.8291
 5808TIP3   OH217387   4.913   2.546   1.406 -0.2183  0.3985 -0.4433
 5808TIP3    H117388   4.973   2.478   1.436  0.2218 -0.1834 -2.4420
 5808TIP3    H217389   4.882   2.588   1.485  1.8162 -0.1644  0.7259
 5809TIP3   OH217390   6.563   4.913   4.793 -0.1520 -0.2950  0.5595
 5809TIP3    H117391   6.578   4.820   4.776 -1.4268 -0.2308 -1.1594
 5809TIP3    H217392   6.603   4.928   4.879  1.6303 -2.0142  0.1202
 5810TIP3   OH217393   1.921   0.570   1.590  0.0203 -0.0567  0.1644
 5810TIP3    H117394   2.011   0.539   1.581  0.4836  1.1931  0.3504
 5810TIP3    H217395   1.894   0.592   1.501  0.7493  1.8251  0.3764
 5811TIP3   OH217396   5.552   6.383   2.538  0.4141  0.0660 -0.1044
 5811TIP3    H117397   5.488   6.402   2.468  1.8068  1.1301 -1.1479
 5811TIP3    H217398   5.505   6.404   2.619 -0.5619  0.8353 -0.8372
 5812TIP3   OH217399   3.996   3.717   2.327 -0.2938  0.2930  0.3903
 5812TIP3    H117400   3.918   3.666   2.304 -0.3074  0.3756  0.2484
 5812TIP3    H217401   3.978   3.752   2.414  0.6978 -1.9206  1.5984
 5813TIP3   OH217402   4.224   2.410   5.822 -0.4334  0.0404 -0.4041
 5813TIP3    H117403   4.168   2.414   5.899  0.1326  1.3660 -0.0477
 5813TIP3    H217404   4.282   2.335   5.838 -1.2073 -0.5268 -0.1820
 5814TIP3   OH217405   5.999   0.600   3.194  0.3233 -0.1723 -0.4817
 5814TIP3    H117406   6.018   0.535   3.262  1.4390  1.1974  0.5585
 5814TIP3    H217407   6.086   0.630   3.165 -0.1568  1.9912  0.1947
 5815TIP3   OH217408   2.048   3.649   4.894  0.4756 -0.2910 -0.2197
 5815TIP3    H117409   2.053   3.652   4.990 -1.3237  1.2396 -0.1312
 5815TIP3    H217410   2.116   3.586   4.869  0.8513 -0.8805  2.0578
 5816TIP3   OH217411   2.678   4.346   3.322 -0.0122 -0.2195  0.0608
 5816TIP3    H117412   2.674   4.288   3.246 -0.8900 -0.7111  0.4686
 5816TIP3    H217413   2.723   4.424   3.290  0.7046 -0.9059 -0.6382
 5817TIP3   OH217414   0.309   6.687   5.119  0.1130 -0.3548  0.5754
 5817TIP3    H117415   0.308   6.593   5.136 -1.0924 -0.0505  2.4760
 5817TIP3    H217416   0.270   6.726   5.197 -1.7611  1.5770 -1.2012
 5818TIP3   OH217417   5.446   5.814   1.936 -0.2573 -0.1816  1.0098
 5818TIP3    H117418   5.538   5.798   1.960  0.6101  0.2417 -1.6821
 5818TIP3    H217419   5.399   5.738   1.969  0.6822  0.4542  4.0952
 5819TIP3   OH217420   5.616   3.097   1.387 -0.0233 -0.5914  0.0757
 5819TIP3    H117421   5.600   3.158   1.316 -0.6265 -0.4940  0.2858
 5819TIP3    H217422   5.555   3.025   1.371  1.7985 -1.9674 -1.0904
 5820TIP3   OH217423   6.961   3.250   1.581  0.1785  0.4838  0.4959
 5820TIP3    H117424   6.985   3.314   1.648  1.1595  0.7794 -0.1227
 5820TIP3    H217425   6.873   3.221   1.606  0.4386  0.7503  1.7826
 5821TIP3   OH217426   6.700   0.292   5.745  0.0192  0.2202 -0.3886
 5821TIP3    H117427   6.716   0.201   5.771 -0.4445 -0.0838 -1.1311
 5821TIP3    H217428   6.745   0.344   5.811 -0.8463 -0.5202  0.8316
 5822TIP3   OH217429   6.067   2.026   2.851 -0.0353  0.2745  0.3221
 5822TIP3    H117430   6.108   1.970   2.785 -1.5950  1.0782 -1.4420
 5822TIP3    H217431   6.134   2.091   2.872  0.8841 -0.6806  0.4045
 5823TIP3   OH217432   6.140   2.662   4.669  0.3061  0.2214 -0.2942
 5823TIP3    H117433   6.152   2.753   4.641  1.2949  0.1417 -0.1754
 5823TIP3    H217434   6.191   2.611   4.607 -0.4614 -0.2866 -0.5181
 5824TIP3   OH217435   7.160   3.481   0.395  0.2160 -0.4118 -0.2728
 5824TIP3    H117436   7.094   3.510   0.458  1.0434  0.1489  0.3600
 5824TIP3    H217437   7.110   3.460   0.316 -0.5826  1.4597 -0.3239
 5825TIP3   OH217438   1.945   3.937   5.881 -0.0845  0.0619  0.0924
 5825TIP3    H117439   1.916   4.009   5.826 -0.4450 -0.4395 -0.3830
 5825TIP3    H217440   2.026   3.968   5.921  1.2576 -0.2811 -2.2282
 5826TIP3   OH217441   6.172   2.779   1.230  0.3231 -0.2326 -0.0859
 5826TIP3    H117442   6.119   2.831   1.170  1.7245  1.0821 -0.2512
 5826TIP3    H217443   6.175   2.692   1.190 -2.1906 -0.5500  0.2707
 5827TIP3   OH217444   1.073   2.994   0.377 -0.0861 -0.3160  0.1754
 5827TIP3    H117445   1.028   2.951   0.304 -0.9997 -0.5971  0.8913
 5827TIP3    H217446   1.013   3.064   0.404  0.6859  0.4161  0.0378
 5828TIP3   OH217447   0.687   6.584   1.975  0.1932 -0.4628  0.2388
 5828TIP3    H117448   0.655   6.519   2.036 -0.7495  0.0666  0.3179
 5828TIP3    H217449   0.776   6.603   2.005  0.0796 -0.8965  0.8675
 5829TIP3   OH217450   4.155   3.959   4.944 -0.0902 -0.4667 -0.2511
 5829TIP3    H117451   4.169   3.929   4.854  0.0136 -1.1034 -0.0311
 5829TIP3    H217452   4.084   3.904   4.976 -0.0330 -0.3325  0.1021
 5830TIP3   OH217453   5.501   2.352   5.629  0.4053  0.0643 -0.0338
 5830TIP3    H117454   5.596   2.358   5.622  0.8389 -3.0130  1.3728
 5830TIP3    H217455   5.474   2.307   5.549  0.4287 -0.8535  0.4612
 5831TIP3   OH217456   0.971   2.635   5.391 -0.3066  0.1999 -0.1277
 5831TIP3    H117457   0.979   2.563   5.454  0.3069  0.1379 -0.2663
 5831TIP3    H217458   0.997   2.713   5.440 -0.1501  0.2013 -0.2130
 5832TIP3   OH217459   3.838   0.195   0.247 -0.0034 -0.3844  0.0829
 5832TIP3    H117460   3.824   0.289   0.260  1.8877 -0.1684  0.8569
 5832TIP3    H217461   3.829   0.158   0.335 -0.7910 -0.9512 -0.2275
 5833TIP3   OH217462   2.584   3.989   2.534 -0.0540 -0.1392 -0.2298
 5833TIP3    H117463   2.511   4.042   2.504 -0.7463 -0.2150  1.2188
 5833TIP3    H217464   2.654   4.051   2.552 -0.3536  0.1246  0.0288
 5834TIP3   OH217465   0.864   2.560   2.485 -0.7421  0.3780 -0.4897
 5834TIP3    H117466   0.845   2.466   2.480 -0.6849  0.3441 -0.0431
 5834TIP3    H217467   0.936   2.567   2.547 -0.7258  0.7158 -0.5471
 5835TIP3   OH217468   1.843   2.291   2.070  0.1837  0.1703 -0.0935
 5835TIP3    H117469   1.832   2.384   2.090  0.4490  0.8344 -2.6756
 5835TIP3    H217470   1.868   2.289   1.978 -0.2694 -2.5023 -0.2403
 5836TIP3   OH217471   3.960   3.627   5.756 -0.8363 -0.1462  0.3175
 5836TIP3    H117472   3.968   3.635   5.851 -1.0691 -1.4991  0.4734
 5836TIP3    H217473   4.046   3.598   5.727 -0.2176  1.9901 -0.1374
 5837TIP3   OH217474   1.093   3.376   0.807 -0.3848 -0.8221 -0.0457
 5837TIP3    H117475   1.067   3.425   0.885  1.4289 -1.0478  0.7536
 5837TIP3    H217476   1.137   3.440   0.752  2.7474 -1.5300  1.3678
 5838TIP3   OH217477   2.289   4.628   3.395  0.0131  0.2977  0.2474
 5838TIP3    H117478   2.342   4.551   3.374 -1.2549 -1.0747  1.7398
 5838TIP3    H217479   2.225   4.634   3.324 -0.0436 -0.2035  0.2544
 5839TIP3   OH217480   4.298   1.571   3.534 -0.2654  0.4437  0.3760
 5839TIP3    H117481   4.376   1.521   3.508  0.3054  2.1582 -1.4634
 5839TIP3    H217482   4.238   1.505   3.568  0.9992 -1.2827 -0.5597
 5840TIP3   OH217483   0.263   4.763   4.506  0.3593  0.0371  0.1170
 5840TIP3    H117484   0.350   4.772   4.545  0.3138  0.0314  0.2199
 5840TIP3    H217485   0.235   4.853   4.490 -0.2285  0.1096  1.4405
 5841TIP3   OH217486   6.969   6.147   1.453  0.6712  0.2645  0.0935
 5841TIP3    H117487   7.055   6.140   1.411  0.4626 -1.3689 -0.0888
 5841TIP3    H217488   6.936   6.232   1.424  1.4527  0.1175 -1.3064
 5842TIP3   OH217489   4.836   5.367   3.394 -0.0242 -0.5201 -0.4296
 5842TIP3    H117490   4.859   5.460   3.399  0.0318 -0.4616 -1.5098
 5842TIP3    H217491   4.794   5.348   3.477 -0.7623  0.6706 -0.5102
 5843TIP3   OH217492   2.634   4.304   4.982 -0.2298  0.2671  0.0979
 5843TIP3    H117493   2.704   4.290   4.917  0.8039 -0.7083  1.3561
 5843TIP3    H217494   2.580   4.373   4.944  1.2538  0.8674 -1.0666
 5844TIP3   OH217495   1.109   4.253   2.377 -0.0283  0.0719  0.7133
 5844TIP3    H117496   1.166   4.323   2.409  0.1451  1.2210 -1.8058
 5844TIP3    H217497   1.021   4.282   2.400  0.1108  0.6843  0.5147
 5845TIP3   OH217498   3.064   3.319   3.851 -0.0919 -0.1516 -0.1910
 5845TIP3    H117499   2.999   3.351   3.789  0.2774  1.2106  0.1017
 5845TIP3    H217500   3.133   3.385   3.851  0.1465 -0.3544  1.2911
 5846TIP3   OH217501   1.244   2.360   0.266  0.0966 -0.0737 -0.5748
 5846TIP3    H117502   1.199   2.417   0.328  1.0764  1.3239 -1.0918
 5846TIP3    H217503   1.185   2.287   0.253 -1.5058  1.1339 -0.3685
 5847TIP3   OH217504   5.765   5.784   5.622 -0.2158  0.0584  0.3708
 5847TIP3    H117505   5.751   5.750   5.711  1.2231  1.8249  1.3600
 5847TIP3    H217506   5.829   5.725   5.583 -1.3224 -1.0969  0.2312
 5848TIP3   OH217507   1.262   3.659   3.810  0.1995  0.0842  0.9172
 5848TIP3    H117508   1.281   3.677   3.902  0.1877 -1.6115  1.2843
 5848TIP3    H217509   1.327   3.594   3.784 -0.7732 -0.6310  0.1896
 5849TIP3   OH217510   1.758   3.331   5.450  0.6697 -0.6673  1.0022
 5849TIP3    H117511   1.828   3.370   5.397  0.3700 -1.2232  0.1784
 5849TIP3    H217512   1.773   3.365   5.538  1.3612  0.0357  0.6247
 5850TIP3   OH217513   6.015   0.938   4.663  0.2669 -0.7371  0.2984
 5850TIP3    H117514   6.052   1.016   4.623 -0.7755  0.1919  1.0851
 5850TIP3    H217515   6.056   0.933   4.750 -0.7979 -0.1473  0.8639
 5851TIP3   OH217516   1.006   5.795   0.633  0.3102  0.6971  0.1199
 5851TIP3    H117517   1.024   5.727   0.698  0.1603  0.1271 -0.4190
 5851TIP3    H217518   0.977   5.746   0.555 -0.2875  1.4077 -0.1154
 5852TIP3   OH217519   1.363   3.077   3.578  0.7053 -0.2211 -0.0035
 5852TIP3    H117520   1.289   3.023   3.549  0.0956 -0.5831  2.0251
 5852TIP3    H217521   1.428   3.067   3.509 -0.3471 -1.5538 -0.8744
 5853TIP3   OH217522   3.483   5.646   2.218  0.6054  0.2950 -0.0907
 5853TIP3    H117523   3.562   5.676   2.263  1.9433 -2.3796 -0.4608
 5853TIP3    H217524   3.513   5.573   2.164 -1.9402 -0.0498 -1.1656
 5854TIP3   OH217525   6.412   0.547   3.641  0.1914  0.0204  0.0305
 5854TIP3    H117526   6.441   0.603   3.568 -0.7646  0.3727 -0.0863
 5854TIP3    H217527   6.394   0.608   3.712  2.1426 -0.3902  0.9582
 5855TIP3   OH217528   6.771   1.486   0.941 -0.0528  0.2225 -0.9298
 5855TIP3    H117529   6.711   1.414   0.958 -0.4430  0.6312 -0.5605
 5855TIP3    H217530   6.715   1.562   0.929  0.3816  0.5943 -0.6490
 5856TIP3   OH217531   1.489   1.683   2.827 -0.6082  0.0813  0.0249
 5856TIP3    H117532   1.517   1.774   2.835 -1.5909  0.2609  2.0606
 5856TIP3    H217533   1.544   1.635   2.890 -0.6603 -0.5910 -0.4327
 5857TIP3   OH217534   1.780   4.807   3.703 -0.7296 -0.0861 -0.1685
 5857TIP3    H117535   1.725   4.729   3.691 -0.5735 -0.2384  0.1048
 5857TIP3    H217536   1.806   4.804   3.795  1.3203 -1.0711 -0.7099
 5858TIP3   OH217537   1.931   0.812   5.785 -0.6432  0.0744  0.0931
 5858TIP3    H117538   1.850   0.766   5.806 -0.8121  0.0777 -0.5466
 5858TIP3    H217539   1.988   0.795   5.860 -0.3588 -1.9415 -0.5096
 5859TIP3   OH217540   4.972   1.392   4.032 -0.6581 -0.3368 -0.5565
 5859TIP3    H117541   5.012   1.462   4.084  0.0441 -0.5647 -0.7831
 5859TIP3    H217542   4.969   1.317   4.092 -2.5852  0.2196  0.1067
 5860TIP3   OH217543   0.937   0.792   4.504  0.4658  0.1275  0.1771
 5860TIP3    H117544   0.854   0.832   4.531 -0.2328  1.1634 -3.1065
 5860TIP3    H217545   0.918   0.699   4.498  0.5684 -0.1277  2.5791
 5861TIP3   OH217546   1.371   1.046   5.417 -0.6169  0.0748  0.1911
 5861TIP3    H117547   1.377   1.076   5.326 -0.2661 -0.0058  0.1886
 5861TIP3    H217548   1.430   0.971   5.421 -1.5624 -0.6893  0.1670
 5862TIP3   OH217549   2.050   0.071   3.885  0.1363  0.6845 -0.4830
 5862TIP3    H117550   2.121   0.096   3.943  0.9274 -2.5750  0.1395
 5862TIP3    H217551   2.092   0.057   3.800  0.1826 -0.7299 -0.2439
 5863TIP3   OH217552   1.814   4.469   1.180 -0.5395  0.0513  0.1271
 5863TIP3    H117553   1.743   4.508   1.130 -1.4081 -0.4950  0.9034
 5863TIP3    H217554   1.894   4.506   1.142 -1.1597 -0.3452 -1.6593
 5864TIP3   OH217555   0.928   3.531   1.572  0.1588  0.2143  0.0914
 5864TIP3    H117556   0.860   3.485   1.522  0.5311 -2.5272  1.8559
 5864TIP3    H217557   0.886   3.612   1.601 -1.5296 -0.2507 -0.8782
 5865TIP3   OH217558   4.294   4.663   1.888 -0.2860 -1.2506  0.3369
 5865TIP3    H117559   4.318   4.572   1.871 -0.1032 -1.2124  0.3947
 5865TIP3    H217560   4.277   4.700   1.801 -1.3743 -1.6191  0.3711
 5866TIP3   OH217561   2.960   2.769   3.161  0.0888 -0.0438 -0.1963
 5866TIP3    H117562   2.906   2.747   3.085 -0.6412  0.8785  0.0326
 5866TIP3    H217563   3.016   2.841   3.130  2.6139 -2.1968 -1.0149
 5867TIP3   OH217564   3.033   4.356   2.913 -0.3628  0.0459 -0.4984
 5867TIP3    H117565   3.100   4.422   2.900 -0.3812 -0.0319 -1.0160
 5867TIP3    H217566   3.081   4.273   2.907 -0.6116 -0.0291 -1.5842
 5868TIP3   OH217567   6.236   6.101   5.846 -0.0618 -0.5266 -0.5616
 5868TIP3    H117568   6.266   6.161   5.778  4.0053 -1.4143  0.1817
 5868TIP3    H217569   6.181   6.038   5.800  0.4539  0.3552 -2.4957
 5869TIP3   OH217570   5.026   6.481   0.700 -0.4187  0.3382 -0.1617
 5869TIP3    H117571   4.982   6.396   0.696 -1.5075  0.9331 -3.2258
 5869TIP3    H217572   4.979   6.528   0.769 -2.3409 -0.2755 -0.9658
 5870TIP3   OH217573   6.254   4.588   3.585 -0.1570  0.2549 -0.2130
 5870TIP3    H117574   6.240   4.574   3.492 -2.2229  1.8562 -0.2219
 5870TIP3    H217575   6.347   4.571   3.599  0.7766  2.3604 -3.0500
 5871TIP3   OH217576   5.830   1.225   0.116 -0.6080  0.4423 -0.1899
 5871TIP3    H117577   5.842   1.130   0.117 -1.8526  0.2636 -0.5663
 5871TIP3    H217578   5.915   1.260   0.144  0.5963 -0.7036 -2.1243
 5872TIP3   OH217579   6.947   2.918   3.188 -0.3768  0.0962  0.0188
 5872TIP3    H117580   6.859   2.881   3.185 -0.9036  0.9073  2.6850
 5872TIP3    H217581   6.933   3.012   3.196  0.8185  0.4040 -1.1134
 5873TIP3   OH217582   0.287   6.429   4.822  0.3744 -0.4200 -0.4441
 5873TIP3    H117583   0.227   6.501   4.801 -0.5324 -1.3651 -1.2124
 5873TIP3    H217584   0.341   6.419   4.744  1.2389  0.1239  0.0739
 5874TIP3   OH217585   2.775   0.073   4.672 -0.3572  0.1448 -0.1234
 5874TIP3    H117586   2.856   0.108   4.635  0.0821 -0.3533  0.3539
 5874TIP3    H217587   2.799   0.046   4.760 -1.2547  0.7854  0.3322
 5875TIP3   OH217588   3.141   2.220   5.571  0.2834  0.6898  0.4013
 5875TIP3    H117589   3.204   2.183   5.633 -0.4023 -1.5937 -0.1977
 5875TIP3    H217590   3.183   2.210   5.486 -0.8579 -0.9253 -0.0130
 5876TIP3   OH217591   2.784   0.626   3.020 -0.1947  0.1508  1.0729
 5876TIP3    H117592   2.740   0.546   2.992  0.4074 -0.4563  1.7842
 5876TIP3    H217593   2.876   0.602   3.026  0.1573  1.2174  0.2325
 5877TIP3   OH217594   0.833   6.808   0.413 -0.3550 -0.0629 -0.5770
 5877TIP3    H117595   0.918   6.780   0.447 -1.3036 -2.0438  0.3258
 5877TIP3    H217596   0.781   6.826   0.491 -0.3594  2.7798 -1.1129
 5878TIP3   OH217597   4.665   4.959   1.828 -0.3342 -0.6340 -0.5387
 5878TIP3    H117598   4.684   4.979   1.919  0.6682  0.5394 -0.9766
 5878TIP3    H217599   4.620   5.037   1.795 -0.5743 -0.9959 -1.0816
 5879TIP3   OH217600   3.571   3.856   1.405 -0.2179 -0.2278 -0.2248
 5879TIP3    H117601   3.514   3.933   1.411  1.1159  0.7348  0.4720
 5879TIP3    H217602   3.610   3.862   1.318 -0.1452 -0.1370 -0.1861
 5880TIP3   OH217603   1.460   4.462   4.598  0.2976  0.3561  0.2255
 5880TIP3    H117604   1.488   4.433   4.685 -0.9855 -0.3362  0.4305
 5880TIP3    H217605   1.542   4.480   4.551  1.0354 -0.3477  1.2084
 5881TIP3   OH217606   4.485   0.069   4.849 -0.3253 -0.1914  0.0480
 5881TIP3    H117607   4.481   0.003   4.780 -0.2335  1.1365 -1.2641
 5881TIP3    H217608   4.466   0.020   4.929  1.0911 -2.0781 -0.6711
 5882TIP3   OH217609   4.766   3.720   0.740 -0.4686 -0.2105  0.7027
 5882TIP3    H117610   4.683   3.757   0.712  0.3905  1.3810  0.1630
 5882TIP3    H217611   4.741   3.648   0.799 -2.2116 -0.1841  0.0692
 5883TIP3   OH217612   6.361   4.329   4.503 -0.3040  0.0697 -0.0293
 5883TIP3    H117613   6.299   4.286   4.562  0.1261  0.8815  1.0448
 5883TIP3    H217614   6.334   4.421   4.502  1.5168  0.6728  1.3668
 5884TIP3   OH217615   6.828   1.719   5.587 -0.0769 -0.0151 -0.0195
 5884TIP3    H117616   6.856   1.773   5.513 -0.6845  1.0781  0.5352
 5884TIP3    H217617   6.788   1.642   5.547  0.5226  0.0738 -0.8166
 5885TIP3   OH217618   1.120   1.107   1.300  0.4295 -0.1305 -0.1769
 5885TIP3    H117619   1.068   1.026   1.293  1.2323 -0.7843  1.0278
 5885TIP3    H217620   1.202   1.086   1.255  1.1749 -0.4780  1.2992
 5886TIP3   OH217621   2.501   4.956   1.549  0.2360  0.2799  0.1483
 5886TIP3    H117622   2.551   5.011   1.488  0.2597  0.1903  0.0876
 5886TIP3    H217623   2.542   4.870   1.544  0.5017  0.3751  0.6034
 5887TIP3   OH217624   4.760   2.930   5.704  0.5882 -0.2961  0.2056
 5887TIP3    H117625   4.821   2.940   5.630 -0.6609  0.4444 -0.7759
 5887TIP3    H217626   4.723   2.843   5.694 -0.4182  0.2114 -0.7560
 5888TIP3   OH217627   5.535   3.131   4.549 -0.2186 -0.3322  0.3531
 5888TIP3    H117628   5.489   3.136   4.465 -1.1308 -0.1834  0.8508
 5888TIP3    H217629   5.467   3.144   4.615  0.4567 -0.6132  1.1282
 5889TIP3   OH217630   1.392   3.703   0.065 -0.0363  0.5732  0.1996
 5889TIP3    H117631   1.479   3.697   0.025 -0.2718  0.2027 -0.2696
 5889TIP3    H217632   1.373   3.797   0.068  1.1755  0.8079  2.0803
 5890TIP3   OH217633   6.597   4.572   0.838 -0.1830  0.2213  0.0331
 5890TIP3    H117634   6.649   4.598   0.913  0.2335 -0.3303 -0.0614
 5890TIP3    H217635   6.613   4.640   0.772 -1.2326  1.1824  0.7288
 5891TIP3   OH217636   6.264   5.958   4.689 -0.3820  0.3722  0.4376
 5891TIP3    H117637   6.246   5.884   4.631 -3.3780  1.1449  0.1969
 5891TIP3    H217638   6.250   6.035   4.635 -0.6391  1.0998  1.5204
 5892TIP3   OH217639   3.194   1.644   0.112 -0.2344 -0.5451  0.1040
 5892TIP3    H117640   3.254   1.622   0.184  0.7623  0.2737 -0.4550
 5892TIP3    H217641   3.155   1.727   0.137 -1.2171 -1.1095  0.4975
 5893TIP3   OH217642   4.943   5.869   1.825 -0.2156  0.2703  0.0130
 5893TIP3    H117643   4.869   5.864   1.765  0.6905  0.8829 -1.2034
 5893TIP3    H217644   4.954   5.963   1.842  1.0042  0.2991 -0.7947
 5894TIP3   OH217645   1.822   4.116   2.225  0.2603  0.2396  0.3165
 5894TIP3    H117646   1.763   4.191   2.220 -0.0678  0.2119  2.6168
 5894TIP3    H217647   1.784   4.061   2.293  1.3690 -1.2496 -0.2114
 5895TIP3   OH217648   2.928   0.346   2.320 -0.4074 -0.7391  0.2234
 5895TIP3    H117649   2.926   0.365   2.226  0.0475  0.1744  0.3914
 5895TIP3    H217650   2.857   0.399   2.356  0.0142 -0.3755  0.5210
 5896TIP3   OH217651   1.105   3.737   0.814 -0.2688 -0.0842  0.1726
 5896TIP3    H117652   1.029   3.747   0.756  0.4845 -2.8806 -1.4666
 5896TIP3    H217653   1.138   3.827   0.824 -2.8160  1.0206 -0.3256
 5897TIP3   OH217654   2.219   2.876   0.834  0.3071 -0.0009 -0.2712
 5897TIP3    H117655   2.129   2.904   0.814  0.6977  0.0264 -2.2425
 5897TIP3    H217656   2.227   2.792   0.788  0.9403 -0.5734  0.8613
 5898TIP3   OH217657   3.182   6.089   5.848 -0.0527  0.6909  0.6729
 5898TIP3    H117658   3.121   6.131   5.788 -0.4471 -1.7669 -0.8068
 5898TIP3    H217659   3.126   6.050   5.915  0.1352  0.9282  0.9657
 5899TIP3   OH217660   6.402   4.797   5.444  0.7044  0.0556  0.0172
 5899TIP3    H117661   6.320   4.834   5.410  0.9132  1.8629  1.3185
 5899TIP3    H217662   6.395   4.703   5.426 -1.4221  0.2252 -0.3583
 5900TIP3   OH217663   6.192   1.903   5.004  0.4729  0.5216  0.2067
 5900TIP3    H117664   6.170   1.983   4.956  0.9827  1.2881  1.2071
 5900TIP3    H217665   6.178   1.833   4.941  0.3623  1.4262 -0.8125
 5901TIP3   OH217666   4.907   3.620   1.588  0.1322 -0.1102  0.7931
 5901TIP3    H117667   4.874   3.548   1.535 -3.0318  1.1000  0.8474
 5901TIP3    H217668   4.960   3.579   1.655 -0.1265 -2.1915 -0.2094
 5902TIP3   OH217669   5.746   1.121   4.498  0.5849  0.5117  0.1338
 5902TIP3    H117670   5.776   1.058   4.433 -0.3020 -1.6576  1.7012
 5902TIP3    H217671   5.748   1.074   4.581 -0.4484  2.4522  1.3619
 5903TIP3   OH217672   4.821   5.401   1.205  0.3232  0.0625 -0.2095
 5903TIP3    H117673   4.789   5.465   1.141 -1.4437  1.1305  1.6388
 5903TIP3    H217674   4.760   5.327   1.197 -0.6791  0.7252  1.0594
 5904TIP3   OH217675   3.187   3.399   5.029  0.1340 -0.3356  0.1287
 5904TIP3    H117676   3.097   3.375   5.010  0.5499 -0.8726 -1.3302
 5904TIP3    H217677   3.236   3.317   5.017  0.6974 -0.3176  1.9847
 5905TIP3   OH217678   6.632   5.103   2.233  0.0742 -0.9329 -0.3282
 5905TIP3    H117679   6.694   5.117   2.162 -0.1578  0.6610 -0.2612
 5905TIP3    H217680   6.686   5.095   2.312  0.2365 -0.1931 -0.3585
 5906TIP3   OH217681   0.671   1.644   4.007  0.1289  0.1355  0.4276
 5906TIP3    H117682   0.580   1.656   4.032 -0.2170  0.0250 -0.7078
 5906TIP3    H217683   0.676   1.552   3.981 -0.0642  0.6856 -1.8146
 5907TIP3   OH217684   5.104   2.155   1.857 -0.7670 -0.0815 -0.6839
 5907TIP3    H117685   5.130   2.069   1.891 -1.3290 -0.2348 -0.6218
 5907TIP3    H217686   5.182   2.209   1.866 -0.4491 -0.5444 -0.5810
 5908TIP3   OH217687   0.495   1.169   1.276 -0.8204 -0.0514  0.0440
 5908TIP3    H117688   0.466   1.088   1.319 -1.5295 -0.3794 -1.0053
 5908TIP3    H217689   0.413   1.212   1.249 -0.4154 -0.5111 -2.1116
 5909TIP3   OH217690   5.103   2.512   5.338 -0.3955  0.0598  0.3032
 5909TIP3    H117691   5.062   2.539   5.420 -0.8936  0.7182 -0.1616
 5909TIP3    H217692   5.170   2.578   5.322 -0.3885  0.0051  0.1077
 5910TIP3   OH217693   1.087   0.650   1.546  0.0326 -0.1266  0.1161
 5910TIP3    H117694   1.166   0.606   1.576  0.2349  0.5284  0.5617
 5910TIP3    H217695   1.100   0.742   1.570  1.1382  0.9246 -3.6718
 5911TIP3   OH217696   2.970   0.405   0.323 -0.4714 -0.1006  0.2551
 5911TIP3    H117697   3.065   0.402   0.309 -0.1482  0.4031  2.1016
 5911TIP3    H217698   2.944   0.313   0.330  0.0639 -0.2187  0.7695
 5912TIP3   OH217699   3.982   2.490   1.517 -0.0791 -0.0944 -0.1177
 5912TIP3    H117700   3.961   2.512   1.608  1.1000 -0.8432  0.3681
 5912TIP3    H217701   3.909   2.435   1.488 -0.8383  0.7731  0.1112
 5913TIP3   OH217702   0.435   1.370   0.372  0.2149 -0.2506  0.2004
 5913TIP3    H117703   0.342   1.363   0.395  0.2046 -1.3161 -0.1137
 5913TIP3    H217704   0.470   1.281   0.387  0.6798 -0.4490 -1.8523
 5914TIP3   OH217705   2.641   6.714   0.709  0.1003 -0.0186  0.0287
 5914TIP3    H117706   2.640   6.651   0.637  0.5674 -0.0615  0.0572
 5914TIP3    H217707   2.567   6.688   0.764  0.7100 -0.9898  0.4196
 5915TIP3   OH217708   3.610   5.309   2.665 -0.0072  0.5957  0.1808
 5915TIP3    H117709   3.590   5.390   2.712 -1.8087  0.0700  0.3880
 5915TIP3    H217710   3.531   5.256   2.673  0.6274 -0.6324 -1.1393
 5916TIP3   OH217711   0.735   3.911   2.981 -0.3786  0.6628  0.5806
 5916TIP3    H117712   0.805   3.951   3.032  0.1608  0.3298  0.1130
 5916TIP3    H217713   0.655   3.932   3.029  0.3155 -2.1135  3.2535
 5917TIP3   OH217714   4.855   2.189   1.207 -0.1749 -0.1588 -0.0400
 5917TIP3    H117715   4.794   2.222   1.272  1.1867  0.4217  1.0011
 5917TIP3    H217716   4.800   2.161   1.133 -1.5195  3.1872 -0.4746
 5918TIP3   OH217717   1.394   5.061   3.534 -0.0370 -0.0927  0.4449
 5918TIP3    H117718   1.389   5.051   3.629 -0.9673 -0.2035  0.3932
 5918TIP3    H217719   1.430   5.149   3.521 -0.3423  0.1013  0.9001
 5919TIP3   OH217720   6.646   2.689   5.009  0.0707 -0.4275  0.6352
 5919TIP3    H117721   6.571   2.631   5.010  0.7518 -1.4087 -1.0663
 5919TIP3    H217722   6.722   2.631   5.001  0.7706  0.6165 -1.0758
 5920TIP3   OH217723   2.312   4.130   3.798 -0.4702  0.0651 -0.2548
 5920TIP3    H117724   2.402   4.129   3.828 -0.8686 -2.1703  1.1047
 5920TIP3    H217725   2.273   4.207   3.838 -0.2610 -1.3507  2.9346
 5921TIP3   OH217726   1.049   1.478   2.168  0.2643 -0.5615 -0.7595
 5921TIP3    H117727   1.068   1.388   2.195  0.7257 -0.1175  0.4847
 5921TIP3    H217728   1.082   1.484   2.079  1.1666 -1.3432 -0.5010
 5922TIP3   OH217729   0.806   3.649   2.997 -0.4122 -0.7468 -0.6394
 5922TIP3    H117730   0.816   3.741   2.974  2.9057 -0.8880 -0.3000
 5922TIP3    H217731   0.832   3.601   2.918  0.3460 -1.3248 -0.0631
 5923TIP3   OH217732   0.572   5.713   5.579 -0.4989  0.2894 -0.7122
 5923TIP3    H117733   0.612   5.690   5.496 -1.6201  2.2361 -1.8786
 5923TIP3    H217734   0.515   5.788   5.558 -1.8137  0.0173  1.5492
 5924TIP3   OH217735   5.570   2.344   1.460  0.2173  0.5074 -0.2752
 5924TIP3    H117736   5.491   2.388   1.492  0.1823  0.1665  0.1190
 5924TIP3    H217737   5.585   2.382   1.374 -0.1717  0.8354 -0.2042
 5925TIP3   OH217738   2.871   2.179   5.552 -0.5154  0.2334 -1.2016
 5925TIP3    H117739   2.877   2.084   5.561 -1.8720  0.2449  0.3086
 5925TIP3    H217740   2.961   2.209   5.548 -0.0237 -0.9782  0.1164
 5926TIP3   OH217741   1.220   2.627   1.293 -0.5643 -0.4871 -0.4811
 5926TIP3    H117742   1.164   2.627   1.370  0.9544 -0.1615  0.6743
 5926TIP3    H217743   1.299   2.674   1.320  1.1325 -2.6148 -1.3478
 5927TIP3   OH217744   2.835   6.533   3.993 -0.3452  0.0661 -0.7174
 5927TIP3    H117745   2.868   6.495   4.074 -1.0826  0.9007  0.0033
 5927TIP3    H217746   2.912   6.573   3.952  0.0818 -0.5940 -0.5738
 5928TIP3   OH217747   3.901   5.579   5.891  0.4184  0.1066 -0.6989
 5928TIP3    H117748   3.873   5.488   5.881  1.1369  0.0623 -2.7462
 5928TIP3    H217749   3.983   5.585   5.842  0.8848  1.6490  0.1995
 5929TIP3   OH217750   1.876   2.288   1.791  0.4692 -0.0483 -0.5019
 5929TIP3    H117751   1.965   2.253   1.800  0.5907 -0.0465 -1.5866
 5929TIP3    H217752   1.859   2.287   1.697 -0.3165  0.8654 -0.3876
 5930TIP3   OH217753   4.087   0.142   3.912  0.0340 -0.1813 -0.3082
 5930TIP3    H117754   4.182   0.152   3.914  0.0811 -0.0841  3.1631
 5930TIP3    H217755   4.070   0.065   3.967 -1.9175  1.0621  0.9545
 5931TIP3   OH217756   5.412   3.706   1.931  0.2513 -0.6152 -0.7086
 5931TIP3    H117757   5.487   3.764   1.941 -0.5539  0.7836 -2.2826
 5931TIP3    H217758   5.397   3.702   1.836 -2.4091  0.2025 -0.4075
 5932TIP3   OH217759   4.211   2.629   3.366 -0.4713 -0.5556  0.1288
 5932TIP3    H117760   4.215   2.606   3.459 -0.8399  0.8279  0.4994
 5932TIP3    H217761   4.118   2.619   3.343 -0.1669 -2.3226 -0.4958
 5933TIP3   OH217762   0.218   5.207   5.543 -0.1448 -0.0441  0.6009
 5933TIP3    H117763   0.216   5.242   5.632  1.1238  2.5954 -0.2898
 5933TIP3    H217764   0.298   5.155   5.539  0.8315  1.4025  0.5408
 5934TIP3   OH217765   4.634   4.281   0.731 -0.7115 -0.0690 -0.4542
 5934TIP3    H117766   4.664   4.301   0.642 -1.3556 -1.0854 -0.9186
 5934TIP3    H217767   4.673   4.195   0.750  0.0592  0.4756  0.5652
 5935TIP3   OH217768   5.947   0.288   0.725  0.1550 -0.1798 -0.8234
 5935TIP3    H117769   5.974   0.261   0.813  0.8069  0.6971 -0.7433
 5935TIP3    H217770   5.851   0.281   0.727  0.1592 -0.1907 -0.0429
 5936TIP3   OH217771   4.358   4.037   0.839 -0.3447  0.0718  0.5964
 5936TIP3    H117772   4.326   4.123   0.867  0.0254  0.0164  1.2214
 5936TIP3    H217773   4.453   4.048   0.833 -0.0544 -0.7837  2.6203
 5937TIP3   OH217774   0.295   1.737   1.914  0.3721  0.7019 -0.1559
 5937TIP3    H117775   0.271   1.688   1.993  1.0466  1.5049  0.5692
 5937TIP3    H217776   0.243   1.698   1.844 -1.2543  0.8452  0.9256
 5938TIP3   OH217777   1.274   2.784   2.657  0.0793  0.1856 -0.0537
 5938TIP3    H117778   1.267   2.740   2.572  1.5495  0.3536 -0.2820
 5938TIP3    H217779   1.304   2.872   2.635  0.4874  0.2243  0.6379
 5939TIP3   OH217780   3.811   3.563   2.635 -0.0901  0.2877  0.3347
 5939TIP3    H117781   3.871   3.638   2.639 -0.5345  0.6010  1.8561
 5939TIP3    H217782   3.862   3.490   2.669 -0.8161  0.7920  2.7653
 5940TIP3   OH217783   6.607   3.158   2.471  0.0783  0.2003 -0.3862
 5940TIP3    H117784   6.513   3.143   2.462  0.0807  1.5092 -3.9421
 5940TIP3    H217785   6.644   3.070   2.481 -1.3685 -0.4659 -0.6060
 5941TIP3   OH217786   2.843   3.955   4.655 -0.2149 -0.0398 -0.2995
 5941TIP3    H117787   2.778   3.945   4.724  0.6887 -0.5123  0.5170
 5941TIP3    H217788   2.922   3.914   4.690  1.6422  3.5489  0.2602
 5942TIP3   OH217789   6.925   4.696   5.069 -0.5356 -0.2021  0.0612
 5942TIP3    H117790   6.868   4.650   5.008 -0.7706  0.8213 -0.5151
 5942TIP3    H217791   6.934   4.784   5.031  1.6414 -0.4093 -0.0269
 5943TIP3   OH217792   4.550   1.236   0.873 -0.7204  0.2917 -0.3386
 5943TIP3    H117793   4.622   1.246   0.811  0.1436 -0.1483  0.5809
 5943TIP3    H217794   4.530   1.143   0.872 -1.1572  0.3821 -0.4443
 5944TIP3   OH217795   6.724   0.805   5.521  0.2154  0.4073 -0.2246
 5944TIP3    H117796   6.672   0.725   5.521  0.2774  0.3657  0.0263
 5944TIP3    H217797   6.661   0.875   5.506  0.2963  0.2286 -1.4525
 5945TIP3   OH217798   2.285   3.265   0.186  0.4283 -0.0360 -0.2074
 5945TIP3    H117799   2.367   3.216   0.187  1.3440  1.4250  0.7614
 5945TIP3    H217800   2.232   3.224   0.254 -0.2158 -1.8081 -1.6940
 5946TIP3   OH217801   1.459   6.447   2.308  0.0003 -0.2098 -0.0231
 5946TIP3    H117802   1.416   6.409   2.384 -0.3260 -0.0739 -0.1350
 5946TIP3    H217803   1.551   6.425   2.318 -0.1667 -0.9229 -0.0308
 5947TIP3   OH217804   5.102   0.797   3.546 -0.2049  0.0263 -0.0736
 5947TIP3    H117805   5.063   0.781   3.460 -1.4518  1.7160  0.1320
 5947TIP3    H217806   5.163   0.869   3.531 -0.5018  0.3952  0.4527
 5948TIP3   OH217807   3.546   2.785   0.190 -0.1592 -0.2280 -0.2842
 5948TIP3    H117808   3.562   2.694   0.167  2.6776  0.2871 -0.6109
 5948TIP3    H217809   3.549   2.832   0.106  0.2152  0.3907  0.0708
 5949TIP3   OH217810   3.858   2.000   1.237  0.4344 -0.7611 -0.2284
 5949TIP3    H117811   3.836   1.907   1.248  0.7459 -0.8654 -0.4874
 5949TIP3    H217812   3.951   2.005   1.258  0.3691 -0.4693 -0.0038
 5950TIP3   OH217813   0.850   6.416   4.816 -0.1041  0.0268  0.1616
 5950TIP3    H117814   0.930   6.440   4.863 -0.3217 -0.6374  0.8864
 5950TIP3    H217815   0.846   6.478   4.743  1.2128 -0.0942 -0.0424
 5951TIP3   OH217816   5.777   1.926   4.163  0.3541 -0.0834 -0.4796
 5951TIP3    H117817   5.755   1.878   4.243  1.7867 -0.3335 -0.2077
 5951TIP3    H217818   5.745   2.015   4.179 -0.2777 -0.3844 -0.0412
 5952TIP3   OH217819   1.587   1.949   2.832 -0.2199 -0.5168 -0.5908
 5952TIP3    H117820   1.536   2.018   2.790 -1.4931 -0.7957  0.4356
 5952TIP3    H217821   1.657   1.996   2.878 -0.9601  0.0932 -0.0655
 5953TIP3   OH217822   4.331   2.643   5.466 -0.3145  0.4307  0.0183
 5953TIP3    H117823   4.285   2.559   5.458 -0.2055  0.0504  2.4992
 5953TIP3    H217824   4.310   2.672   5.555 -1.0099  3.4655 -1.0320
 5954TIP3   OH217825   2.829   3.416   3.731 -0.0430 -0.0717  0.5219
 5954TIP3    H117826   2.763   3.484   3.745  0.8404  1.2619 -1.2928
 5954TIP3    H217827   2.879   3.447   3.655  1.5157 -1.9188  0.7181
 5955TIP3   OH217828   6.635   1.418   4.235 -0.2518  0.3556  0.5118
 5955TIP3    H117829   6.634   1.373   4.319 -2.0774 -0.4023  0.1229
 5955TIP3    H217830   6.579   1.366   4.178  1.7000  0.2746 -1.5150
 5956TIP3   OH217831   5.633   3.147   2.055  0.4819  0.0939  0.0685
 5956TIP3    H117832   5.591   3.196   1.984 -1.5529  1.6852  2.2123
 5956TIP3    H217833   5.665   3.214   2.115  1.9681 -1.2081  0.7921
 5957TIP3   OH217834   6.539   4.028   2.947  0.0475  0.0769 -0.3528
 5957TIP3    H117835   6.561   4.072   2.865  0.6943 -0.1330 -0.2988
 5957TIP3    H217836   6.472   4.083   2.987 -0.7312 -0.1461 -1.3190
 5958TIP3   OH217837   0.394   2.050   5.440  0.6519 -0.2455  0.2504
 5958TIP3    H117838   0.470   2.094   5.478  0.6970 -0.2644  0.1827
 5958TIP3    H217839   0.382   2.093   5.355 -0.1212  0.5521  0.7510
 5959TIP3   OH217840   6.338   3.048   4.493  0.2080 -0.2445 -0.4576
 5959TIP3    H117841   6.415   2.996   4.471 -0.3804 -0.6292 -1.7213
 5959TIP3    H217842   6.331   3.112   4.421  0.7812  1.4669  0.9350
 5960TIP3   OH217843   0.867   5.402   2.826 -0.7811  0.3511  0.2939
 5960TIP3    H117844   0.932   5.414   2.895  0.2348  0.1740 -0.6026
 5960TIP3    H217845   0.816   5.483   2.827  0.0784  0.9077  0.3822
 5961TIP3   OH217846   1.858   1.368   1.324  0.1591  0.0953  0.3666
 5961TIP3    H117847   1.803   1.442   1.297 -0.0627 -0.3816 -0.5239
 5961TIP3    H217848   1.798   1.293   1.324  0.6207 -0.2780  0.1906
 5962TIP3   OH217849   1.234   0.189   0.109 -0.2611  0.0198  0.2227
 5962TIP3    H117850   1.182   0.117   0.144  0.4871 -1.1268 -0.9390
 5962TIP3    H217851   1.169   0.255   0.082 -1.0106 -0.6621  0.3452
 5963TIP3   OH217852   7.215   1.163   3.513  0.8709  0.1880  0.0316
 5963TIP3    H117853   7.204   1.106   3.437  0.6211  2.3363 -1.6408
 5963TIP3    H217854   7.128   1.201   3.526  0.9834  0.0566  1.2386
 5964TIP3   OH217855   0.242   2.482   0.809 -0.4958 -0.3464  0.0017
 5964TIP3    H117856   0.230   2.395   0.771  1.6039  0.1188 -1.9123
 5964TIP3    H217857   0.164   2.495   0.864 -0.9887 -3.2837  0.1389
 5965TIP3   OH217858   5.607   2.697   5.722  0.2952  0.0846  0.4968
 5965TIP3    H117859   5.646   2.716   5.636 -0.4792 -1.6364 -0.2821
 5965TIP3    H217860   5.676   2.651   5.770 -0.2697 -1.8022 -0.4103
 5966TIP3   OH217861   4.842   5.997   2.399  0.1586  0.3568  0.2001
 5966TIP3    H117862   4.822   5.928   2.463 -0.0259 -0.5859 -0.8387
 5966TIP3    H217863   4.791   6.072   2.429  0.1430 -0.0355  1.2063
 5967TIP3   OH217864   6.067   2.595   4.919 -0.0594  0.1027  0.1838
 5967TIP3    H117865   6.110   2.616   4.837  1.5673  2.0205  1.4460
 5967TIP3    H217866   6.089   2.503   4.935 -2.2699 -1.0268 -2.5130
 5968TIP3   OH217867   2.463   1.414   3.060 -0.2138  0.5003  0.2427
 5968TIP3    H117868   2.472   1.504   3.028  2.1155  0.5909  0.9814
 5968TIP3    H217869   2.503   1.415   3.147  0.4025 -1.3749  0.0312
 5969TIP3   OH217870   4.247   0.251   0.168 -0.4063  0.1610 -0.1608
 5969TIP3    H117871   4.201   0.271   0.250  2.0418  2.0609  0.8907
 5969TIP3    H217872   4.319   0.194   0.195  1.1102  1.7303 -0.7316
 5970TIP3   OH217873   0.671   3.729   3.275  0.3826  0.2936 -0.2499
 5970TIP3    H117874   0.634   3.817   3.260 -0.8708  0.1214  1.4810
 5970TIP3    H217875   0.676   3.722   3.370  1.4575 -1.1408 -0.3930
 5971TIP3   OH217876   5.279   5.104   2.737  0.1609 -0.1789  0.2521
 5971TIP3    H117877   5.234   5.126   2.818  2.9081 -0.0767  1.8641
 5971TIP3    H217878   5.354   5.164   2.733  0.7549 -0.9446 -1.7741
 5972TIP3   OH217879   0.938   3.046   4.160 -0.6511 -0.1853  0.4054
 5972TIP3    H117880   0.899   3.036   4.073  0.2084 -0.1991  0.0119
 5972TIP3    H217881   1.003   2.975   4.165  0.9013  1.1477  0.1582
 5973TIP3   OH217882   1.218   4.650   5.721 -0.1400 -0.8934  0.2465
 5973TIP3    H117883   1.288   4.627   5.659  0.0979 -0.6643  0.4301
 5973TIP3    H217884   1.264   4.684   5.797 -0.4963  0.2950 -0.0621
 5974TIP3   OH217885   2.553   4.508   0.278  0.0126  0.5170  0.5022
 5974TIP3    H117886   2.519   4.511   0.188  0.9628  0.8706  0.1310
 5974TIP3    H217887   2.643   4.540   0.269  0.4074 -0.3057  1.4510
 5975TIP3   OH217888   6.548   1.653   4.327  0.2157 -0.0843  0.0050
 5975TIP3    H117889   6.604   1.721   4.289 -0.6474  0.8422  0.3511
 5975TIP3    H217890   6.596   1.572   4.312  1.2927  0.5997 -0.3807
 5976TIP3   OH217891   2.270   5.525   0.599 -0.1562  0.2319  0.3989
 5976TIP3    H117892   2.284   5.590   0.531 -0.1096  1.1375  1.2503
 5976TIP3    H217893   2.177   5.502   0.592  0.1145 -0.5681 -0.7243
 5977TIP3   OH217894   0.824   4.969   3.537  0.2196 -0.1809  0.0209
 5977TIP3    H117895   0.917   4.955   3.522  0.7390  1.9726  0.9038
 5977TIP3    H217896   0.819   5.051   3.586 -2.1106 -0.6013  0.6205
 5978TIP3   OH217897   3.175   6.420   0.490  0.1568  0.4177  0.2550
 5978TIP3    H117898   3.243   6.482   0.516  2.3574 -1.3605 -0.8821
 5978TIP3    H217899   3.153   6.373   0.570 -1.5564  2.5542  1.1357
 5979TIP3   OH217900   3.656   6.219   1.442 -0.3200  0.1766  0.4190
 5979TIP3    H117901   3.582   6.192   1.496  2.1116 -2.1239  2.9420
 5979TIP3    H217902   3.686   6.301   1.480  0.2750 -0.4964  1.4309
 5980TIP3   OH217903   5.575   2.034   1.213 -0.0635  0.2218 -0.1861
 5980TIP3    H117904   5.569   1.982   1.293  0.0249 -2.2111 -1.6646
 5980TIP3    H217905   5.662   2.074   1.218 -0.6346  1.3486  1.5887
 5981TIP3   OH217906   0.809   0.771   0.749  0.4964  0.6846  0.2196
 5981TIP3    H117907   0.746   0.841   0.736 -0.8477 -0.6343 -0.8010
 5981TIP3    H217908   0.806   0.753   0.843 -1.7235 -0.2345  0.0323
 5982TIP3   OH217909   5.929   4.973   2.051 -0.4361 -0.4393 -0.3333
 5982TIP3    H117910   5.957   5.032   1.981  0.1424 -0.2436  0.0546
 5982TIP3    H217911   5.836   4.991   2.062 -0.6136 -0.7202 -1.2865
 5983TIP3   OH217912   4.313   4.567   4.621 -0.4971 -0.3826  0.4877
 5983TIP3    H117913   4.407   4.573   4.605 -0.5984  1.6859  0.3738
 5983TIP3    H217914   4.286   4.657   4.639 -2.7966 -0.5881 -1.4218
 5984TIP3   OH217915   6.261   4.865   2.891 -0.0298  0.1110 -0.0433
 5984TIP3    H117916   6.309   4.945   2.911 -0.6128  0.1277  1.4423
 5984TIP3    H217917   6.281   4.806   2.964 -1.1849 -0.3558 -0.0756
 5985TIP3   OH217918   0.379   2.501   3.214 -0.2649  0.4359  0.1569
 5985TIP3    H117919   0.458   2.536   3.254 -0.4405  0.5177  0.4316
 5985TIP3    H217920   0.410   2.430   3.157  0.0889  1.0508 -0.4219
 5986TIP3   OH217921   4.986   6.752   1.715 -0.7371  0.1141 -0.0128
 5986TIP3    H117922   5.028   6.837   1.728  0.3615 -0.3641 -0.3175
 5986TIP3    H217923   4.939   6.760   1.631 -1.7572  0.8331  0.6054
 5987TIP3   OH217924   3.979   6.619   1.769  0.0892  0.1387  1.0000
 5987TIP3    H117925   3.926   6.575   1.836  3.4781 -1.5032  2.8708
 5987TIP3    H217926   3.970   6.564   1.691  0.5159 -1.2232  1.8814
 5988TIP3   OH217927   0.953   0.197   1.350  0.4808  0.1643 -0.5471
 5988TIP3    H117928   0.877   0.147   1.380  0.5841 -0.3231 -1.0750
 5988TIP3    H217929   0.928   0.231   1.265  0.0219  1.9325  0.2600
 5989TIP3   OH217930   6.212   4.552   4.447  0.4027  0.5343 -0.5184
 5989TIP3    H117931   6.241   4.602   4.523 -1.8765  1.6196 -0.3058
 5989TIP3    H217932   6.190   4.618   4.381 -1.5422 -0.1841 -0.6466
 5990TIP3   OH217933   3.707   0.784   4.683  0.1397 -0.0863  0.1272
 5990TIP3    H117934   3.690   0.703   4.634 -0.7881 -0.3695  0.8723
 5990TIP3    H217935   3.620   0.815   4.708  0.5855 -0.3073  2.1300
 5991TIP3   OH217936   1.466   4.484   2.696 -0.1251 -0.3316  0.2177
 5991TIP3    H117937   1.522   4.408   2.714 -0.2451 -0.5299 -0.2199
 5991TIP3    H217938   1.517   4.559   2.726  1.2231 -0.3106 -1.8789
 5992TIP3   OH217939   3.367   2.895   0.388 -0.2424 -0.5980  1.0356
 5992TIP3    H117940   3.281   2.927   0.361 -0.2602  0.6442  2.4053
 5992TIP3    H217941   3.406   2.859   0.309 -0.5904  2.1038 -0.4720
 5993TIP3   OH217942   1.337   3.052   2.602 -0.4796 -0.0084  0.2265
 5993TIP3    H117943   1.368   3.109   2.672  0.0731  0.0352 -0.0485
 5993TIP3    H217944   1.301   3.112   2.536 -0.2926 -0.0050  0.1284
 5994TIP3   OH217945   3.711   3.942   2.775 -0.6009  0.7242 -0.3423
 5994TIP3    H117946   3.661   3.865   2.751  0.4801  0.4080 -1.7277
 5994TIP3    H217947   3.781   3.908   2.832  0.1859  0.5586 -1.3703
 5995TIP3   OH217948   2.686   1.001   0.956 -0.4406 -0.5044 -0.4639
 5995TIP3    H117949   2.664   0.945   0.882 -0.6504  0.6080 -1.2740
 5995TIP3    H217950   2.782   0.995   0.962 -0.2972  0.3293 -1.6150
 5996TIP3   OH217951   7.026   5.106   5.784 -0.0591  0.1716  0.0724
 5996TIP3    H117952   7.099   5.128   5.842  0.7226 -1.0778 -0.3976
 5996TIP3    H217953   6.948   5.133   5.833  0.5284 -1.3740  2.0143
 5997TIP3   OH217954   4.620   4.931   0.681 -0.7652 -0.3153  0.0547
 5997TIP3    H117955   4.637   4.838   0.668 -1.0606 -0.4954  0.8818
 5997TIP3    H217956   4.526   4.935   0.698 -0.4911 -0.0544  1.5877
 5998TIP3   OH217957   1.625   0.554   0.664 -0.6622  0.2633  0.4074
 5998TIP3    H117958   1.553   0.494   0.644 -1.2570  0.5301  1.6841
 5998TIP3    H217959   1.588   0.641   0.651  0.0193  0.3902 -0.8299
 5999TIP3   OH217960   4.847   0.361   4.375  0.4650 -0.1719  0.3464
 5999TIP3    H117961   4.833   0.456   4.371  0.6454 -0.1968 -1.9678
 5999TIP3    H217962   4.848   0.342   4.469  0.0180  2.0429  0.8761
 6000TIP3   OH217963   1.615   5.146   4.311  0.0696 -0.2802 -0.4307
 6000TIP3    H117964   1.661   5.218   4.268 -0.1843  0.5603  0.6340
 6000TIP3    H217965   1.682   5.079   4.325  0.4354 -0.0317 -0.9455
 6001TIP3   OH217966   2.630   1.190   4.674 -0.2876 -0.0575 -0.5758
 6001TIP3    H117967   2.642   1.098   4.696 -1.8976 -0.0539  0.5439
 6001TIP3    H217968   2.715   1.230   4.688 -0.2792 -0.8291  1.9481
 6002TIP3   OH217969   0.205   4.716   4.169 -0.0927  0.7012  0.2857
 6002TIP3    H117970   0.162   4.751   4.247 -0.3882  0.0596  0.4253
 6002TIP3    H217971   0.231   4.627   4.194  0.5048  0.7634 -0.0972
 6003TIP3   OH217972   2.191   3.934   3.989 -0.2233 -0.5617 -0.0931
 6003TIP3    H117973   2.197   4.002   3.922  0.4215 -1.6835 -1.2287
 6003TIP3    H217974   2.282   3.915   4.013 -0.3707 -1.2157 -0.0188
 6004TIP3   OH217975   6.020   1.122   5.072  0.6323 -0.3986 -0.0743
 6004TIP3    H117976   5.933   1.129   5.111  0.5400 -0.2607 -0.3054
 6004TIP3    H217977   6.055   1.211   5.074  0.3719 -0.2721 -0.8934
 6005TIP3   OH217978   5.622   1.770   0.773  0.2729  0.1562 -0.3940
 6005TIP3    H117979   5.642   1.782   0.865  0.0636 -0.3082 -0.2859
 6005TIP3    H217980   5.658   1.684   0.751 -0.2922 -0.0419 -0.5654
 6006TIP3   OH217981   6.600   2.047   5.699  0.7164  0.3937  0.1737
 6006TIP3    H117982   6.586   1.963   5.743 -0.0593  1.0633  1.2572
 6006TIP3    H217983   6.543   2.044   5.622 -0.4665  0.4954  1.0179
 6007TIP3   OH217984   5.644   3.467   0.499 -0.3712 -0.1591 -0.0076
 6007TIP3    H117985   5.563   3.438   0.458 -0.9371  1.0771  0.2131
 6007TIP3    H217986   5.675   3.390   0.546 -0.4434 -1.1902 -1.5603
 6008TIP3   OH217987   6.663   4.971   5.041 -0.0558 -0.2526  0.2702
 6008TIP3    H117988   6.755   4.949   5.025  0.3436  1.0284  0.6867
 6008TIP3    H217989   6.666   5.054   5.088 -1.4682  0.6246 -1.0861
 6009TIP3   OH217990   4.014   2.164   0.547 -0.0839 -0.9391 -0.0354
 6009TIP3    H117991   4.084   2.200   0.493  0.9010 -2.0734  0.4317
 6009TIP3    H217992   4.040   2.184   0.637 -1.4918  0.5608  0.0903
 6010TIP3   OH217993   2.666   3.467   0.523  0.0265  0.3680 -0.6016
 6010TIP3    H117994   2.667   3.510   0.609 -1.5532  1.4075 -1.0489
 6010TIP3    H217995   2.638   3.377   0.542 -0.7755  0.7163 -0.0459
 6011TIP3   OH217996   4.991   1.144   2.248 -0.2581  0.2934 -0.4212
 6011TIP3    H117997   4.986   1.057   2.209 -1.1866  0.5408 -0.8794
 6011TIP3    H217998   4.905   1.183   2.232 -0.3754  0.7307  1.1475
 6012TIP3   OH217999   4.056   2.593   2.717 -0.0656  0.1585  0.1034
 6012TIP3    H118000   3.979   2.538   2.701  1.0197 -1.1016 -1.1662
 6012TIP3    H218001   4.089   2.612   2.629  3.7184 -3.3229  0.4701
 6013TIP3   OH218002   0.425   5.745   2.796  0.8667  0.4081 -0.3985
 6013TIP3    H118003   0.431   5.657   2.833  2.1802  0.5743 -0.1858
 6013TIP3    H218004   0.331   5.762   2.791  0.5614  0.4969  3.1574
 6014TIP3   OH218005   2.459   1.984   1.272 -0.1848  0.6481  0.1230
 6014TIP3    H118006   2.390   2.048   1.258  0.8387  1.4366 -1.6453
 6014TIP3    H218007   2.541   2.033   1.262  0.6304 -0.7186 -0.2634
 6015TIP3   OH218008   2.898   1.518   1.916 -0.4042  0.1867  0.9432
 6015TIP3    H118009   2.971   1.577   1.897  0.8163 -0.6496  2.8196
 6015TIP3    H218010   2.903   1.502   2.010 -1.7252 -1.5915  0.7724
 6016TIP3   OH218011   3.508   3.741   0.012  0.4569  0.1827 -0.7375
 6016TIP3    H118012   3.575   3.677  -0.014  0.2761  0.1256 -1.0686
 6016TIP3    H218013   3.514   3.744   0.107  1.1165  0.3797 -0.7804
 6017TIP3   OH218014   7.133   3.158   3.044 -0.1467 -0.1958  0.1151
 6017TIP3    H118015   7.106   3.209   3.120 -1.7265  0.1959 -0.6575
 6017TIP3    H218016   7.054   3.111   3.018  0.1546  0.2448 -1.7206
 6018TIP3   OH218017   2.693   6.167   2.565  0.0605 -0.5721  0.5724
 6018TIP3    H118018   2.694   6.122   2.481  2.2928 -2.2256  1.3578
 6018TIP3    H218019   2.647   6.107   2.624  2.1218 -1.4625  1.3860
 6019TIP3   OH218020   0.124   6.460   4.252  0.5413  0.1236  0.1216
 6019TIP3    H118021   0.196   6.398   4.240  1.4320  0.7271  1.9145
 6019TIP3    H218022   0.050   6.406   4.279  1.0120 -0.2851  0.6137
 6020TIP3   OH218023   6.185   3.780   4.518  0.5003 -0.5634 -0.1624
 6020TIP3    H118024   6.177   3.708   4.581  0.9732 -0.3562  0.1377
 6020TIP3    H218025   6.095   3.798   4.491  0.3499 -1.0590 -0.0049
 6021TIP3   OH218026   1.373   0.275   1.520  0.2759 -0.3964 -0.4373
 6021TIP3    H118027   1.327   0.354   1.549 -0.7568 -0.5020 -1.6833
 6021TIP3    H218028   1.305   0.208   1.515  0.8321 -0.9307 -1.0015
 6022TIP3   OH218029   6.706   0.025   0.526 -0.2689 -0.1952 -0.6890
 6022TIP3    H118030   6.622   0.069   0.543 -0.2007 -0.0558 -0.7085
 6022TIP3    H218031   6.712  -0.042   0.594 -0.0319  0.3086 -0.2028
 6023TIP3   OH218032   4.574   4.047   4.725 -0.6258  0.5048  0.2769
 6023TIP3    H118033   4.478   4.043   4.725 -0.5889 -0.7842 -0.0278
 6023TIP3    H218034   4.595   4.123   4.670 -1.4847  2.0959  2.0548
 6024TIP3   OH218035   3.394   6.161   1.815 -0.2823  0.1313 -0.2894
 6024TIP3    H118036   3.470   6.203   1.777 -1.0967  1.2632 -0.7263
 6024TIP3    H218037   3.359   6.106   1.745 -0.1343 -0.0234 -0.2414
 6025TIP3   OH218038   3.577   5.191   5.865 -0.1767 -0.4057 -0.2666
 6025TIP3    H118039   3.672   5.199   5.876  0.0682 -0.2072 -2.1816
 6025TIP3    H218040   3.564   5.101   5.836 -0.4302 -0.0595 -1.2476
 6026TIP3   OH218041   4.157   1.059   5.738 -0.3565 -0.1704 -0.1007
 6026TIP3    H118042   4.208   1.039   5.659 -1.7522  0.7811 -1.2937
 6026TIP3    H218043   4.165   0.980   5.792  1.8897 -0.2617 -0.4634
 6027TIP3   OH218044   5.606   1.379   2.464  0.1709  0.5228  0.6145
 6027TIP3    H118045   5.537   1.353   2.525 -0.2703  0.2729  0.0157
 6027TIP3    H218046   5.684   1.330   2.493 -0.6681 -1.6387 -0.5677
 6028TIP3   OH218047   3.934   0.293   1.795  0.0001 -0.7105  0.4503
 6028TIP3    H118048   3.978   0.374   1.821  0.2958 -0.3644 -0.9959
 6028TIP3    H218049   3.995   0.223   1.817  0.6804 -0.3456 -0.2355
 6029TIP3   OH218050   0.732   5.303   4.804  0.6681 -0.1122 -0.1103
 6029TIP3    H118051   0.741   5.398   4.794  0.8075 -0.1335 -0.1874
 6029TIP3    H218052   0.643   5.291   4.837  0.6543  0.0462 -0.0892
 6030TIP3   OH218053   1.190   2.250   1.365  0.4617 -0.5779  0.2726
 6030TIP3    H118054   1.126   2.317   1.391  1.7243 -0.2783  2.8822
 6030TIP3    H218055   1.274   2.297   1.363  0.6948 -0.8337 -3.6068
 6031TIP3   OH218056   1.749   5.299   0.367 -0.5460 -0.3988  0.1530
 6031TIP3    H118057   1.801   5.353   0.425  1.4546  0.1543 -1.9911
 6031TIP3    H218058   1.738   5.216   0.414  0.5143  0.2096  1.5256
 6032TIP3   OH218059   2.290   4.936   4.683  0.6430 -0.3989  0.2706
 6032TIP3    H118060   2.359   4.936   4.616  0.6189  0.3869  0.2348
 6032TIP3    H218061   2.249   4.850   4.676  0.8240 -0.4254 -0.5397
 6033TIP3   OH218062   5.201   4.656   0.990 -0.4703 -0.5406 -0.0499
 6033TIP3    H118063   5.143   4.709   0.936  0.7860 -0.0689 -0.9782
 6033TIP3    H218064   5.174   4.566   0.972 -0.1866 -0.3824 -1.3493
 6034TIP3   OH218065   4.862   6.101   1.534 -0.0279  0.2497  0.7602
 6034TIP3    H118066   4.767   6.088   1.541  0.0187  0.3051  1.5346
 6034TIP3    H218067   4.876   6.190   1.567  0.3879 -0.0572  1.4129
 6035TIP3   OH218068   4.017   0.729   4.380  0.2510 -0.1840  0.8101
 6035TIP3    H118069   3.967   0.651   4.405 -1.2171 -0.1964 -1.7453
 6035TIP3    H218070   4.108   0.706   4.397 -0.1630 -2.4100  0.2879
 6036TIP3   OH218071   3.799   3.743   3.401 -0.3229  0.4114  0.1810
 6036TIP3    H118072   3.724   3.734   3.342  0.3726  2.1009 -1.0119
 6036TIP3    H218073   3.845   3.821   3.371  1.3805 -0.0124  1.5182
 6037TIP3   OH218074   3.643   3.985   5.667 -0.2590 -0.1137  0.6751
 6037TIP3    H118075   3.624   4.041   5.592 -0.0908 -0.6056  0.2653
 6037TIP3    H218076   3.594   4.025   5.739  0.4799  1.0197  0.5765
 6038TIP3   OH218077   6.737   6.528   0.332  0.3628 -0.2246  0.3800
 6038TIP3    H118078   6.749   6.437   0.360  0.6851 -1.1210 -2.4352
 6038TIP3    H218079   6.826   6.559   0.313  0.1114  0.1134 -0.2619
 6039TIP3   OH218080   0.212   2.415   4.790 -0.1365 -0.0137 -0.4792
 6039TIP3    H118081   0.264   2.493   4.810 -0.9751  0.7266 -1.0814
 6039TIP3    H218082   0.235   2.393   4.699  0.0490 -0.4227 -0.3327
 6040TIP3   OH218083   5.137   2.736   4.539 -0.0318  0.0712  0.2908
 6040TIP3    H118084   5.150   2.718   4.446 -1.3062 -1.3454  0.3467
 6040TIP3    H218085   5.070   2.673   4.566 -0.4133  1.1272  1.9406
 6041TIP3   OH218086   2.904   5.438   4.133 -0.2570 -0.1641  0.3676
 6041TIP3    H118087   2.810   5.455   4.127 -0.3166  0.7232  2.9313
 6041TIP3    H218088   2.922   5.435   4.226  2.5593  1.3648 -0.0339
 6042TIP3   OH218089   3.411   1.436   5.205  0.1665 -0.1618 -0.2114
 6042TIP3    H118090   3.411   1.429   5.109 -2.4527 -1.3102 -0.2399
 6042TIP3    H218091   3.460   1.359   5.234  2.0540  0.8554 -0.5861
 6043TIP3   OH218092   3.205   5.463   4.051  0.4225  0.3799 -0.0949
 6043TIP3    H118093   3.110   5.476   4.055  0.1843 -0.6984 -1.6285
 6043TIP3    H218094   3.222   5.389   4.110  0.3925  0.8645  0.5351
 6044TIP3   OH218095   2.174   5.979   4.040  0.1926 -0.3137 -0.1806
 6044TIP3    H118096   2.088   5.999   4.078  0.7248  0.1892  0.7943
 6044TIP3    H218097   2.160   5.984   3.945 -0.8124 -0.0697 -0.0340
 6045TIP3   OH218098   4.583   5.325   0.330 -0.4674  0.2774 -0.0587
 6045TIP3    H118099   4.654   5.386   0.346 -1.0123  0.8198  0.3336
 6045TIP3    H218100   4.612   5.242   0.367  0.0844  0.4141 -0.1847
 6046TIP3   OH218101   3.264   1.902   5.045 -0.0465  0.0390  0.2597
 6046TIP3    H118102   3.319   1.954   5.104  0.3444  0.7572 -0.6898
 6046TIP3    H218103   3.327   1.847   4.997  0.0443  1.7202 -1.6823
 6047TIP3   OH218104   4.250   4.136   3.352 -0.7858  0.2930  0.2778
 6047TIP3    H118105   4.328   4.105   3.306 -1.7598  0.1779 -1.3651
 6047TIP3    H218106   4.178   4.121   3.291 -1.8412  2.2522  0.9401
 6048TIP3   OH218107   2.521   2.429   5.630 -0.0271 -0.2547 -0.1192
 6048TIP3    H118108   2.446   2.404   5.684  0.6310 -1.6957  0.1945
 6048TIP3    H218109   2.580   2.353   5.635  1.7916  1.1169  0.2402
 6049TIP3   OH218110   3.561   3.606   2.439  0.2972  0.2059 -0.0915
 6049TIP3    H118111   3.604   3.628   2.521 -2.3721 -2.3370  2.2371
 6049TIP3    H218112   3.544   3.690   2.397  0.1161  1.7899  2.8946
 6050TIP3   OH218113   2.985   1.993   0.605 -0.0445  0.1155 -0.4683
 6050TIP3    H118114   2.921   2.050   0.649 -0.0586 -0.1172 -0.1876
 6050TIP3    H218115   3.069   2.016   0.644  0.3953  1.9166 -2.2868
 6051TIP3   OH218116   1.359   6.355   2.538  0.7296  0.0276 -0.2131
 6051TIP3    H118117   1.322   6.267   2.527  1.1880 -0.0655 -1.0943
 6051TIP3    H218118   1.394   6.355   2.627 -0.3660 -0.2612  0.2408
 6052TIP3   OH218119   6.652   4.258   3.250  0.0123 -0.0163 -0.3836
 6052TIP3    H118120   6.653   4.351   3.272  0.1646  0.3341 -1.8025
 6052TIP3    H218121   6.645   4.214   3.335  2.4737  1.1938  0.5451
 6053TIP3   OH218122   1.968   0.997   0.779 -0.7862 -0.4786  0.3675
 6053TIP3    H118123   2.033   0.956   0.836  0.0892  1.3491  0.7529
 6053TIP3    H218124   1.916   0.924   0.746  0.9595 -1.9198  0.6542
 6054TIP3   OH218125   5.763   6.703   0.821  0.1657  0.4400  0.4539
 6054TIP3    H118126   5.747   6.675   0.731 -1.7063 -0.6673  1.0684
 6054TIP3    H218127   5.832   6.645   0.853 -1.7045 -1.7257  0.8185
 6055TIP3   OH218128   6.004   3.259   3.064 -0.1699  0.3746 -0.4475
 6055TIP3    H118129   6.081   3.264   3.008  0.4016  2.1408  0.4092
 6055TIP3    H218130   6.038   3.272   3.153 -1.1486 -1.5703  0.2739
 6056TIP3   OH218131   0.633   6.234   5.396  0.1451 -0.0037  0.6909
 6056TIP3    H118132   0.601   6.145   5.383  1.9855 -0.7008  0.6913
 6056TIP3    H218133   0.673   6.258   5.312  1.3124  0.0954  1.2558
 6057TIP3   OH218134   4.476   5.756   3.132 -0.8474 -0.3147  0.0046
 6057TIP3    H118135   4.552   5.796   3.175 -0.4628 -0.1891 -0.7904
 6057TIP3    H218136   4.511   5.719   3.051 -1.4159 -1.2821  0.1912
 6058TIP3   OH218137   5.687   5.471   0.456 -0.2522 -0.4984  0.5741
 6058TIP3    H118138   5.677   5.551   0.508  0.2558 -0.0907  0.0653
 6058TIP3    H218139   5.598   5.451   0.426 -0.4040 -0.1894  0.8039
 6059TIP3   OH218140   0.637   0.374   5.511 -0.3010 -0.1902  0.2384
 6059TIP3    H118141   0.568   0.336   5.456 -0.5608  0.9374 -0.2536
 6059TIP3    H218142   0.595   0.391   5.595  0.0098 -1.6181  0.7091
 6060TIP3   OH218143   2.846   4.088   2.874  0.3183 -0.1671 -0.2572
 6060TIP3    H118144   2.929   4.075   2.919 -0.8777 -2.2510  1.5661
 6060TIP3    H218145   2.829   4.004   2.830 -0.5587  0.4278 -1.1140
 6061TIP3   OH218146   6.654   4.318   3.803 -0.3177  0.3962 -0.4892
 6061TIP3    H118147   6.745   4.291   3.793 -0.5217 -0.0879 -1.0751
 6061TIP3    H218148   6.632   4.293   3.893  0.0714  0.3497 -0.4027
 6062TIP3   OH218149   0.727   4.418   3.982 -0.7186  0.0843 -0.8141
 6062TIP3    H118150   0.772   4.420   3.897  0.1068 -0.4869 -0.4110
 6062TIP3    H218151   0.635   4.428   3.961 -0.9979 -3.7626 -2.1402
 6063TIP3   OH218152   5.340   0.207   4.680  0.4433 -0.5872 -0.0654
 6063TIP3    H118153   5.414   0.243   4.727 -0.6153  0.0987  1.1446
 6063TIP3    H218154   5.333   0.117   4.711  0.2580 -0.3896  0.4712
 6064TIP3   OH218155   3.524   4.684   4.464  0.1425 -0.7355 -0.1138
 6064TIP3    H118156   3.445   4.630   4.452  0.7938 -1.5749 -0.7606
 6064TIP3    H218157   3.536   4.727   4.380  0.9650 -1.4456 -0.3773
 6065TIP3   OH218158   0.868   6.720   4.981  0.1117  0.1570 -0.7779
 6065TIP3    H118159   0.838   6.756   4.897  0.0500  2.3762  0.1372
 6065TIP3    H218160   0.788   6.691   5.024 -0.2753  1.8527 -0.2595
 6066TIP3   OH218161   5.082   6.385   4.170 -0.0766 -0.1368 -0.2428
 6066TIP3    H118162   5.115   6.449   4.108 -0.5675 -0.0956 -0.4609
 6066TIP3    H218163   5.129   6.404   4.251  0.3757 -0.0255 -0.5280
 6067TIP3   OH218164   4.799   5.495   2.459 -0.2965 -0.5128 -0.6321
 6067TIP3    H118165   4.788   5.505   2.364 -1.5274 -2.1332 -0.7081
 6067TIP3    H218166   4.871   5.553   2.481  0.0815 -0.1729 -2.5819
 6068TIP3   OH218167   0.962   1.907   0.079 -0.4527  0.1408  0.5174
 6068TIP3    H118168   1.032   1.858   0.037  0.6632  1.6904  0.4743
 6068TIP3    H218169   0.991   1.917   0.170 -0.7861  0.4944  0.5873
 6069TIP3   OH218170   4.875   0.091   5.293  0.7056  0.1188 -0.2272
 6069TIP3    H118171   4.862   0.019   5.230  2.3272  1.4344 -2.2281
 6069TIP3    H218172   4.788   0.109   5.328 -0.6853  0.4088 -3.4353
 6070TIP3   OH218173   0.460   1.716   0.726  0.1425 -0.0172 -0.1293
 6070TIP3    H118174   0.540   1.738   0.774  0.8370 -0.1118 -1.2128
 6070TIP3    H218175   0.459   1.620   0.724 -0.6765 -0.0522  0.9596
 6071TIP3   OH218176   3.416   4.679   3.965  0.4454 -0.1930 -0.5190
 6071TIP3    H118177   3.417   4.774   3.969 -0.7868 -0.2125  1.8810
 6071TIP3    H218178   3.342   4.658   3.907 -2.5175  0.4180  2.7105
 6072TIP3   OH218179   0.219   2.731   3.508  0.6791  0.3168 -0.2294
 6072TIP3    H118180   0.222   2.827   3.501 -0.5595  0.2474 -2.6388
 6072TIP3    H218181   0.301   2.708   3.551  1.1600  2.4240  0.1056
 6073TIP3   OH218182   5.541   5.422   1.576 -0.2897  0.0549  0.0221
 6073TIP3    H118183   5.633   5.447   1.583 -0.0312 -0.4870 -1.1927
 6073TIP3    H218184   5.510   5.422   1.666  1.2219 -0.8918  0.5872
 6074TIP3   OH218185   4.067   5.688   0.663 -0.2019  0.5741 -0.2522
 6074TIP3    H118186   4.146   5.666   0.712 -0.3102 -0.1599 -0.4007
 6074TIP3    H218187   4.094   5.760   0.606  0.2288  0.6478  0.0332
 6075TIP3   OH218188   1.014   6.225   2.736 -0.5076  0.3047  0.0770
 6075TIP3    H118189   1.014   6.132   2.756 -1.2001  0.7056  2.1398
 6075TIP3    H218190   1.068   6.233   2.657 -1.1460 -1.9201 -0.6427
 6076TIP3   OH218191   0.765   3.015   5.683 -0.1251  0.2006  0.6434
 6076TIP3    H118192   0.823   3.053   5.618 -0.7552  1.2601  0.6733
 6076TIP3    H218193   0.728   2.937   5.641  0.3389  0.2401  0.1625
 6077TIP3   OH218194   3.635   2.851   3.095 -0.0402  0.3615 -0.2322
 6077TIP3    H118195   3.560   2.796   3.072 -1.3859  1.5843  0.9519
 6077TIP3    H218196   3.649   2.833   3.188 -1.0560  2.5232  0.4094
 6078TIP3   OH218197   0.478   3.336   0.838  0.9185  0.8366  0.2697
 6078TIP3    H118198   0.534   3.258   0.841 -0.9504 -0.6631 -0.9367
 6078TIP3    H218199   0.439   3.333   0.751  0.6102  3.0364  0.2915
 6079TIP3   OH218200   6.154   6.678   1.419 -0.1778  0.0359 -0.2689
 6079TIP3    H118201   6.189   6.669   1.330 -1.7118 -1.2097 -0.7778
 6079TIP3    H218202   6.124   6.591   1.442  0.6735  0.2219  1.7198
 6080TIP3   OH218203   2.803   0.022   2.864 -0.5071 -0.6070  0.2510
 6080TIP3    H118204   2.823   0.108   2.827 -1.0778 -0.0154  1.2521
 6080TIP3    H218205   2.713   0.030   2.895 -0.0466 -1.0262  1.7964
 6081TIP3   OH218206   0.738   4.555   5.823  0.1036 -0.1569  0.3396
 6081TIP3    H118207   0.652   4.555   5.781  0.2943 -0.2009 -0.0627
 6081TIP3    H218208   0.761   4.647   5.830  0.5205 -0.1805 -0.6086
 6082TIP3   OH218209   4.807   3.522   2.855 -0.0767  0.4276 -0.5844
 6082TIP3    H118210   4.794   3.497   2.947  1.3103 -0.3573 -0.5847
 6082TIP3    H218211   4.813   3.439   2.808 -1.8965  0.8171 -1.5960
 6083TIP3   OH218212   2.389   5.539   1.053  0.0162 -0.1405  0.4415
 6083TIP3    H118213   2.364   5.446   1.052  1.8176 -0.6573  0.0758
 6083TIP3    H218214   2.485   5.538   1.053  0.0860  1.7232 -0.7672
 6084TIP3   OH218215   5.066   4.413   1.313 -0.2742  0.0524 -0.5283
 6084TIP3    H118216   5.007   4.374   1.377 -0.6979  0.4318 -0.6794
 6084TIP3    H218217   5.020   4.404   1.229 -0.0961  0.3114 -0.6562
 6085TIP3   OH218218   4.320   3.615   5.736 -0.0126  0.0313  0.2238
 6085TIP3    H118219   4.321   3.699   5.781 -2.5874  0.8990 -1.1407
 6085TIP3    H218220   4.283   3.553   5.800 -0.0611  0.3792  0.5334
 6086TIP3   OH218221   5.079   4.465   1.760 -0.3346  0.5001 -0.0308
 6086TIP3    H118222   5.114   4.554   1.759  0.4827  0.1823 -0.5878
 6086TIP3    H218223   5.057   4.449   1.852  2.0482  0.3186  0.5507
 6087TIP3   OH218224   7.034   6.132   5.454  0.2977  0.8279 -0.3112
 6087TIP3    H118225   7.101   6.065   5.466  0.0963  0.8379  0.9095
 6087TIP3    H218226   6.977   6.097   5.385  1.7265  0.9809 -1.6327
 6088TIP3   OH218227   3.681   6.164   1.785  0.6664  0.0185 -0.3165
 6088TIP3    H118228   3.680   6.246   1.835 -1.6778  1.1690 -2.0538
 6088TIP3    H218229   3.666   6.096   1.851  1.9325  1.0275  1.0648
 6089TIP3   OH218230   3.674   3.921   1.822  0.2780  0.4649  0.0855
 6089TIP3    H118231   3.706   4.009   1.840 -1.2073  1.0639 -0.0344
 6089TIP3    H218232   3.744   3.880   1.771  1.6204  1.0544  1.3842
 6090TIP3   OH218233   5.865   3.557   4.988  0.5583 -0.4809 -0.5523
 6090TIP3    H118234   5.919   3.636   4.986 -0.1560  0.0194 -1.4329
 6090TIP3    H218235   5.927   3.485   4.994  1.2052  0.1573  1.1081
 6091TIP3   OH218236   6.017   1.081   5.870 -0.2754  0.1622 -0.1702
 6091TIP3    H118237   6.068   1.003   5.846 -0.4388 -0.3577  1.0948
 6091TIP3    H218238   6.042   1.147   5.805 -0.3552 -1.0236 -1.4526
 6092TIP3   OH218239   0.798   5.683   2.563  0.3119  0.0188 -0.3115
 6092TIP3    H118240   0.887   5.706   2.536 -0.5329  1.9046 -1.6889
 6092TIP3    H218241   0.776   5.607   2.510  1.0639 -0.4017 -0.0337
 6093TIP3   OH218242   2.301   5.434   2.876  0.7247 -0.8455 -0.4075
 6093TIP3    H118243   2.248   5.463   2.802  0.4212  1.3738  0.5971
 6093TIP3    H218244   2.296   5.338   2.873 -2.4143 -0.7492 -1.0047
 6094TIP3   OH218245   0.722   3.834   0.320 -0.3762  0.1261  0.3681
 6094TIP3    H118246   0.749   3.906   0.376  0.0718 -0.6257  1.1272
 6094TIP3    H218247   0.627   3.842   0.314 -0.3722  0.4943  0.8303
 6095TIP3   OH218248   4.473   3.672   3.222  0.5776 -0.0541  0.6267
 6095TIP3    H118249   4.508   3.652   3.308  0.5962 -1.4775  0.2992
 6095TIP3    H218250   4.550   3.696   3.169  0.8184 -1.1358  0.4737
 6096TIP3   OH218251   6.827   1.996   3.813 -0.5063 -0.0204 -0.2946
 6096TIP3    H118252   6.900   1.935   3.805 -0.1609  0.3810 -0.2775
 6096TIP3    H218253   6.818   2.034   3.725 -0.5466  0.0930 -0.2425
 6097TIP3   OH218254   3.463   1.011   2.615 -0.5156 -0.1487 -0.0935
 6097TIP3    H118255   3.548   1.044   2.644 -0.3807  0.2455 -0.9157
 6097TIP3    H218256   3.432   1.076   2.552 -1.6476 -0.0414  0.5429
 6098TIP3   OH218257   5.226   1.743   0.891 -0.1269  0.4015 -0.0621
 6098TIP3    H118258   5.291   1.796   0.937 -1.2555  2.4649 -0.7304
 6098TIP3    H218259   5.259   1.737   0.802  0.6100 -1.1543  0.2729
 6099TIP3   OH218260   2.687   4.248   2.541 -0.1575 -1.1161  0.1008
 6099TIP3    H118261   2.721   4.315   2.601  1.4629 -1.4523 -0.3829
 6099TIP3    H218262   2.598   4.277   2.522  0.3433  0.6862  0.2247
 6100TIP3   OH218263   2.080   5.384   1.287  1.0167 -0.4821  0.3222
 6100TIP3    H118264   2.028   5.334   1.224 -1.7132  1.1560  1.1206
 6100TIP3    H218265   2.064   5.475   1.264  0.9524  0.1373  2.6035
 6101TIP3   OH218266   0.325   2.668   0.624  0.1306 -0.5346 -0.3484
 6101TIP3    H118267   0.297   2.592   0.675 -0.7750 -0.6892 -1.0440
 6101TIP3    H218268   0.296   2.648   0.534  0.0247  0.5519 -0.5690
 6102TIP3   OH218269   3.676   0.286   3.844  0.0219  0.3102 -0.2173
 6102TIP3    H118270   3.677   0.249   3.756  0.4901  0.6639 -0.3615
 6102TIP3    H218271   3.641   0.374   3.833 -0.5943  0.1105  0.0558
 6103TIP3   OH218272   1.625   6.377   5.804  0.8675 -0.3875  0.3655
 6103TIP3    H118273   1.647   6.342   5.890 -1.7075 -0.4787  1.0817
 6103TIP3    H218274   1.639   6.304   5.744 -0.2487 -1.3178  1.1922
 6104TIP3   OH218275   1.459   3.350   0.512 -0.4169 -0.4561 -0.1076
 6104TIP3    H118276   1.460   3.420   0.447  0.4000 -0.3990 -0.0404
 6104TIP3    H218277   1.509   3.279   0.471  1.8015  0.2717  1.1936
 6105TIP3   OH218278   5.519   6.538   4.040  0.3685  0.2697  0.5729
 6105TIP3    H118279   5.586   6.603   4.020 -0.3626  0.5143 -1.2167
 6105TIP3    H218280   5.522   6.476   3.967  0.2116 -1.0493  1.6268
 6106TIP3   OH218281   3.282   1.549   3.192 -0.0685 -0.2478  0.4624
 6106TIP3    H118282   3.242   1.531   3.107  2.1355  1.8013 -1.1452
 6106TIP3    H218283   3.311   1.463   3.223 -1.9802 -1.1920 -0.2365
 6107TIP3   OH218284   1.590   4.445   0.101  0.1093  0.0660  0.2267
 6107TIP3    H118285   1.587   4.536   0.132  0.2919  0.3686 -0.6189
 6107TIP3    H218286   1.619   4.395   0.178 -0.0863  0.7038  0.7325
 6108TIP3   OH218287   3.679   0.711   2.506 -0.6737  0.1204  0.1559
 6108TIP3    H118288   3.630   0.629   2.517 -3.1612  1.6886  1.7676
 6108TIP3    H218289   3.741   0.711   2.579 -1.2645  0.0440  0.6670
 6109TIP3   OH218290   3.167   4.609   2.915 -0.0907  0.1373 -0.3930
 6109TIP3    H118291   3.130   4.657   2.990  1.2386 -1.4808  1.3996
 6109TIP3    H218292   3.221   4.674   2.870  1.9100  0.4096  2.1365
 6110TIP3   OH218293   7.011   3.921   4.922  0.2934  0.1602 -0.0757
 6110TIP3    H118294   6.944   3.976   4.883  0.3599  0.5872  0.3941
 6110TIP3    H218295   6.969   3.836   4.933  0.2362  0.0716 -0.9423
 6111TIP3   OH218296   2.981   6.527   0.757 -0.1052 -0.3473  0.1294
 6111TIP3    H118297   3.076   6.534   0.765 -0.1895  0.1004  0.8387
 6111TIP3    H218298   2.952   6.616   0.740 -0.4318 -0.4215  0.2944
 6112TIP3   OH218299   5.854   2.476   3.526  0.5057  0.1043 -0.2040
 6112TIP3    H118300   5.906   2.413   3.575  0.7637  0.7928  0.4191
 6112TIP3    H218301   5.875   2.561   3.565  0.8635  0.7016 -1.6112
 6113TIP3   OH218302   2.247   4.054   3.239  0.4321 -0.7605 -0.0012
 6113TIP3    H118303   2.278   4.026   3.324 -1.1017  1.7419  1.5179
 6113TIP3    H218304   2.152   4.043   3.243  0.3730 -1.1734 -1.6495
 6114TIP3   OH218305   1.984   3.910   0.801 -0.4965  0.4023 -0.5775
 6114TIP3    H118306   1.904   3.959   0.781  0.0916  1.2677 -0.8432
 6114TIP3    H218307   2.035   3.912   0.720  0.1551  0.5637 -0.1729
 6115TIP3   OH218308   4.243   0.600   4.653 -0.2599 -0.0210 -0.6795
 6115TIP3    H118309   4.189   0.657   4.708  0.5710  0.8534 -0.7373
 6115TIP3    H218310   4.274   0.657   4.583  0.2115 -0.6609 -1.0044
 6116TIP3   OH218311   4.902   4.271   0.860  0.0446 -0.1065  0.2851
 6116TIP3    H118312   4.860   4.198   0.815 -0.8650 -0.0292  1.0014
 6116TIP3    H218313   4.925   4.332   0.789 -2.6713  0.6829 -0.0146
 6117TIP3   OH218314   2.253   2.969   1.569 -0.1970  0.0745  0.4210
 6117TIP3    H118315   2.228   3.059   1.551 -0.2780 -0.1044 -0.4320
 6117TIP3    H218316   2.331   2.976   1.625  0.2391  0.6844 -0.2476
 6118TIP3   OH218317   4.646   1.630   5.394 -0.6472  0.2309 -0.4945
 6118TIP3    H118318   4.655   1.708   5.341 -1.1711  0.8231  0.2685
 6118TIP3    H218319   4.735   1.608   5.421 -0.5576  0.9133 -0.2262
 6119TIP3   OH218320   4.959   4.115   2.688  0.2581 -0.5630  0.0394
 6119TIP3    H118321   4.942   4.035   2.638  2.0253 -0.6858 -0.4007
 6119TIP3    H218322   5.033   4.156   2.644  0.6907  0.2704  1.4862
 6120TIP3   OH218323   4.498   2.239   3.473 -0.1405 -0.1141  0.2016
 6120TIP3    H118324   4.432   2.219   3.539 -1.7850 -1.3909 -1.6798
 6120TIP3    H218325   4.450   2.289   3.406  1.2948  0.6223 -0.3179
 6121TIP3   OH218326   2.091   4.113   2.964 -0.1055  0.1708 -0.0713
 6121TIP3    H118327   2.148   4.037   2.955  2.2543  1.5113  2.2579
 6121TIP3    H218328   2.034   4.092   3.038 -0.3694  0.1716 -0.2712
 6122TIP3   OH218329   2.439   6.324   2.007 -0.2721 -0.3755 -0.5405
 6122TIP3    H118330   2.350   6.356   2.023 -0.3916 -0.9858  0.0747
 6122TIP3    H218331   2.427   6.238   1.967  0.0444  0.4507 -2.5345
 6123TIP3   OH218332   2.929   2.516   3.548 -0.1683 -0.4276  0.4151
 6123TIP3    H118333   2.994   2.446   3.558  1.0700  0.5946 -0.0902
 6123TIP3    H218334   2.979   2.596   3.562 -1.5890  0.3686  1.1319
 6124TIP3   OH218335   2.775   2.287   2.896  0.2986  0.3801 -0.8815
 6124TIP3    H118336   2.775   2.301   2.801 -1.1999 -0.8159 -1.1016
 6124TIP3    H218337   2.853   2.234   2.912  0.0451 -0.2407 -1.6137
 6125TIP3   OH218338   7.150   2.249   2.693 -0.3024  0.1249  0.2874
 6125TIP3    H118339   7.064   2.281   2.721  0.4776  2.1253  0.5474
 6125TIP3    H218340   7.192   2.324   2.651  1.9744 -0.2834  1.6491
 6126TIP3   OH218341   1.533   5.367   0.201 -0.6536  0.7093  0.4334
 6126TIP3    H118342   1.605   5.317   0.239 -0.2733  0.7253 -0.2500
 6126TIP3    H218343   1.569   5.454   0.185 -0.6465  0.5537 -0.4439
 6127TIP3   OH218344   4.526   0.712   5.199  0.4433  0.6471  0.1741
 6127TIP3    H118345   4.615   0.734   5.226  0.4758 -0.4680  1.0371
 6127TIP3    H218346   4.491   0.661   5.271 -1.0431  1.3926  0.0053
 6128TIP3   OH218347   4.321   5.254   0.575 -0.4037 -0.2615 -0.0601
 6128TIP3    H118348   4.415   5.244   0.590 -0.6035  0.1090  1.7058
 6128TIP3    H218349   4.283   5.172   0.607 -0.7748  0.1204  0.5053
 6129TIP3   OH218350   1.582   5.622   5.522  0.1736 -0.7473 -0.4504
 6129TIP3    H118351   1.526   5.545   5.530  0.6241 -0.9331  1.2444
 6129TIP3    H218352   1.669   5.592   5.549  0.6356  0.0400 -1.0205
 6130TIP3   OH218353   4.879   4.922   3.805  0.1576 -0.0248  0.6675
 6130TIP3    H118354   4.902   5.010   3.778  2.2059 -0.9803 -0.9276
 6130TIP3    H218355   4.814   4.893   3.741 -0.1631  0.1300  0.9162
 6131TIP3   OH218356   2.449   6.079   1.174 -0.5950  0.1448 -0.5267
 6131TIP3    H118357   2.433   5.992   1.211  1.4174 -0.4697 -1.0152
 6131TIP3    H218358   2.483   6.131   1.247 -0.2763  0.0537 -0.6101
 6132TIP3   OH218359   2.003   6.594   3.844 -0.3193  0.4313  0.1169
 6132TIP3    H118360   1.974   6.655   3.913 -1.1373  0.5270 -0.2976
 6132TIP3    H218361   2.076   6.639   3.802 -1.8111  1.8204 -1.1221
 6133TIP3   OH218362   0.340   3.248   2.107  0.1594  0.7382 -0.0909
 6133TIP3    H118363   0.427   3.288   2.118  0.2507  0.5659 -0.1836
 6133TIP3    H218364   0.297   3.302   2.041 -0.0605  1.2402  0.4559
 6134TIP3   OH218365   3.063   3.237   2.035 -0.3870  0.1089  0.7277
 6134TIP3    H118366   3.052   3.183   1.957 -0.4278  0.4406  0.4989
 6134TIP3    H218367   2.984   3.292   2.037  0.3129  1.1824  0.1385
 6135TIP3   OH218368   3.188   0.232   0.894  0.5199  0.3131 -0.0561
 6135TIP3    H118369   3.114   0.288   0.873  1.1598  0.5680 -1.7077
 6135TIP3    H218370   3.157   0.178   0.967 -1.0492  0.8787 -0.2824
 6136TIP3   OH218371   5.356   0.575   2.476 -0.0900  0.5871  0.1783
 6136TIP3    H118372   5.362   0.660   2.521 -1.7954  0.7674  0.1346
 6136TIP3    H218373   5.264   0.551   2.483  0.3319 -1.2003  0.0404
 6137TIP3   OH218374   0.230   3.192   0.134  0.5785  0.3819 -0.2686
 6137TIP3    H118375   0.205   3.280   0.108 -0.7123  0.3590  0.8251
 6137TIP3    H218376   0.241   3.196   0.229 -2.0624 -1.1618  0.1973
 6138TIP3   OH218377   6.812   1.365   1.539 -0.5142  0.1703 -0.9149
 6138TIP3    H118378   6.826   1.331   1.627 -1.6160 -0.1931 -0.8617
 6138TIP3    H218379   6.774   1.452   1.552  0.0907  0.4592 -1.0424
 6139TIP3   OH218380   4.752   4.251   3.105  0.2102 -0.6390  0.8858
 6139TIP3    H118381   4.662   4.282   3.092  0.2315 -1.0752 -0.5663
 6139TIP3    H218382   4.776   4.280   3.193 -0.5331  1.4631  0.4325
 6140TIP3   OH218383   6.117   2.759   2.017  0.2653 -0.7548 -0.3523
 6140TIP3    H118384   6.157   2.806   1.943 -1.8102 -1.3674 -1.9388
 6140TIP3    H218385   6.059   2.695   1.977 -0.1149 -1.8765  1.8333
 6141TIP3   OH218386   2.014   1.731   0.705  0.0190  0.3209 -0.4972
 6141TIP3    H118387   1.976   1.755   0.620  2.2107  0.9812 -1.3594
 6141TIP3    H218388   2.039   1.815   0.744 -0.4583 -0.0189  0.5781
 6142TIP3   OH218389   6.610   0.971   4.713 -0.1612 -0.3923  0.1965
 6142TIP3    H118390   6.654   0.892   4.684 -0.6402 -0.9945  1.0630
 6142TIP3    H218391   6.679   1.036   4.722  0.6702 -1.4881  2.1517
 6143TIP3   OH218392   5.540   1.443   3.331 -0.4373 -0.2515 -0.0642
 6143TIP3    H118393   5.461   1.452   3.384  0.1655 -0.7921  0.9366
 6143TIP3    H218394   5.529   1.360   3.285 -1.0412  0.3017 -0.9621
 6144TIP3   OH218395   1.514   4.830   1.717 -0.2203 -0.0462 -0.5024
 6144TIP3    H118396   1.487   4.823   1.808  0.0240 -1.1414 -0.4947
 6144TIP3    H218397   1.607   4.809   1.718  0.0441  1.0445 -0.8714
 6145TIP3   OH218398   0.791   2.985   3.920  0.4218 -0.8207 -0.3826
 6145TIP3    H118399   0.747   3.064   3.950  1.7682  1.5869 -4.0795
 6145TIP3    H218400   0.732   2.948   3.854  1.3639 -0.8458 -1.2341
 6146TIP3   OH218401   2.618   3.788   0.781  0.0723 -0.2307 -0.2894
 6146TIP3    H118402   2.526   3.814   0.788  0.1432 -0.0030 -0.1802
 6146TIP3    H218403   2.639   3.800   0.689  1.0030  3.2823  0.2187
 6147TIP3   OH218404   1.747   2.855   3.605  0.0472  0.4764  0.2294
 6147TIP3    H118405   1.717   2.944   3.585 -3.2883 -0.7274 -1.0067
 6147TIP3    H218406   1.685   2.823   3.670  1.4615 -0.8250  1.0007
 6148TIP3   OH218407   1.084   2.504   2.663  0.2577  0.6368  0.2956
 6148TIP3    H118408   1.024   2.509   2.737 -1.2497 -0.6946 -0.7646
 6148TIP3    H218409   1.170   2.495   2.703 -0.4086  0.9749  1.8734
 6149TIP3   OH218410   0.991   3.334   1.929 -0.0787  0.2078 -0.2818
 6149TIP3    H118411   0.971   3.415   1.976 -1.2130 -0.9184  1.2777
 6149TIP3    H218412   1.007   3.362   1.839 -0.1073  2.1922  0.2807
 6150TIP3   OH218413   4.881   3.873   2.548 -0.2779  0.5439 -0.4428
 6150TIP3    H118414   4.899   3.823   2.627 -1.6020  0.4207 -0.2003
 6150TIP3    H218415   4.940   3.837   2.482 -0.4247 -0.5679  0.0258
 6151TIP3   OH218416   3.869   1.209   3.078 -0.3882  0.2083 -0.4383
 6151TIP3    H118417   3.853   1.139   3.141  2.0216  0.0134  0.0398
 6151TIP3    H218418   3.910   1.279   3.130 -1.9945  1.6941 -1.0564
 6152TIP3   OH218419   3.888   5.462   0.708  0.0835 -0.5917 -0.5203
 6152TIP3    H118420   3.869   5.502   0.792 -0.0404 -3.0096  0.6985
 6152TIP3    H218421   3.984   5.462   0.702  0.0812  1.7553 -1.5802
 6153TIP3   OH218422   7.145   1.343   2.556 -0.2840  0.7390  0.8057
 6153TIP3    H118423   7.202   1.309   2.625  0.7073  1.9092  0.5928
 6153TIP3    H218424   7.093   1.267   2.528  0.8144 -0.2391  1.3527
 6154TIP3   OH218425   5.135   5.517   2.488 -0.2761  0.1171  0.1116
 6154TIP3    H118426   5.212   5.553   2.531 -0.6757 -0.6234  1.5226
 6154TIP3    H218427   5.094   5.463   2.555 -2.4918  1.1621 -0.3062
 6155TIP3   OH218428   5.498   5.750   2.757 -0.3301  0.0459 -0.5157
 6155TIP3    H118429   5.407   5.779   2.753 -0.3264  0.0868 -0.3313
 6155TIP3    H218430   5.549   5.829   2.738 -0.2293  0.8922  2.6615
 6156TIP3   OH218431   3.560   4.728   0.785  0.3562  0.3782 -0.7650
 6156TIP3    H118432   3.479   4.715   0.835  1.0197 -0.7295  0.0456
 6156TIP3    H218433   3.564   4.823   0.772 -1.5635  0.3911 -1.6762
 6157TIP3   OH218434   2.910   3.030   0.641  0.1893 -0.0242  0.8702
 6157TIP3    H118435   2.926   3.108   0.694 -0.0852 -1.1432  2.6630
 6157TIP3    H218436   2.992   3.016   0.593 -0.0884  1.9195 -0.3062
 6158TIP3   OH218437   2.585   1.199   0.596  0.0583  0.2982 -0.2538
 6158TIP3    H118438   2.582   1.270   0.660  0.1227 -0.3884  0.5204
 6158TIP3    H218439   2.505   1.149   0.611 -0.6481  0.9249 -1.6715
 6159TIP3   OH218440   6.906   0.468   0.284 -0.1362  0.2438  0.0942
 6159TIP3    H118441   6.992   0.433   0.260 -0.7250 -0.5542 -0.9646
 6159TIP3    H218442   6.923   0.560   0.305  1.0732 -0.0623  0.5624
 6160TIP3   OH218443   4.414   1.459   4.870  0.1468 -0.3063  0.1408
 6160TIP3    H118444   4.328   1.418   4.866  1.1330 -2.4076 -0.8989
 6160TIP3    H218445   4.443   1.464   4.778  0.6490  1.5231  0.3563
 6161TIP3   OH218446   6.910   0.363   0.588  0.2010  0.3723 -0.4961
 6161TIP3    H118447   6.817   0.383   0.594  0.6886  2.9845 -0.3500
 6161TIP3    H218448   6.915   0.286   0.532 -1.9771  0.8273 -1.4249
 6162TIP3   OH218449   3.503   2.025   1.056 -0.6062  0.2787 -0.0523
 6162TIP3    H118450   3.463   1.977   0.983  0.5922  0.8702 -1.1382
 6162TIP3    H218451   3.495   1.966   1.131 -1.6036 -0.4707 -0.7284
 6163TIP3   OH218452   6.083   3.582   4.673  0.4147  0.0826 -0.0486
 6163TIP3    H118453   6.030   3.574   4.593  0.3365  0.9082 -0.0823
 6163TIP3    H218454   6.128   3.498   4.680 -2.8122 -1.7179  1.3698
 6164TIP3   OH218455   0.770   2.096   5.064 -0.1820 -0.4248  0.6824
 6164TIP3    H118456   0.702   2.043   5.107 -0.8366  0.3271  0.6000
 6164TIP3    H218457   0.819   2.134   5.137 -1.0098  0.4869  0.7968
 6165TIP3   OH218458   3.621   6.484   1.551 -0.0736  0.2984 -0.3729
 6165TIP3    H118459   3.684   6.551   1.524 -0.2493  0.7532  0.3184
 6165TIP3    H218460   3.544   6.499   1.496 -0.4518  1.2568  0.3756
 6166TIP3   OH218461   4.387   1.370   1.561  0.5076 -0.2203 -0.4017
 6166TIP3    H118462   4.327   1.374   1.487 -1.2260 -2.1574  0.7953
 6166TIP3    H218463   4.331   1.375   1.638  1.9267 -1.4449  0.7662
 6167TIP3   OH218464   0.946   3.076   4.985  0.4680  0.3113 -0.0269
 6167TIP3    H118465   0.918   3.164   4.959 -0.8812  0.3628  1.4852
 6167TIP3    H218466   0.970   3.084   5.077  0.8453 -0.8044 -0.0121
 6168TIP3   OH218467   5.545   1.773   2.175  0.1369 -0.1492  0.5411
 6168TIP3    H118468   5.600   1.821   2.114  1.4422 -1.1808  0.8634
 6168TIP3    H218469   5.546   1.683   2.142  1.4443 -0.8910  2.4070
 6169TIP3   OH218470   6.198   0.369   4.584 -0.3845  0.1579  0.2067
 6169TIP3    H118471   6.164   0.456   4.564  0.1660  0.3982  0.3152
 6169TIP3    H218472   6.131   0.309   4.551 -0.2039  0.5862 -0.9720
 6170TIP3   OH218473   1.325   2.312   1.871 -0.4392 -0.5523  0.3763
 6170TIP3    H118474   1.245   2.262   1.883 -1.3554  0.8657  0.4544
 6170TIP3    H218475   1.297   2.404   1.871  1.1040 -0.0333 -0.2342
 6171TIP3   OH218476   5.268   1.413   3.405 -0.4332  0.5769 -0.2830
 6171TIP3    H118477   5.213   1.353   3.456 -0.9201 -0.3209 -1.8036
 6171TIP3    H218478   5.212   1.489   3.391 -0.0514  1.1450  1.0698
 6172TIP3   OH218479   3.345   5.556   0.661  0.2563  0.1831  0.0626
 6172TIP3    H118480   3.438   5.578   0.657  0.6452 -1.1411  1.1931
 6172TIP3    H218481   3.302   5.639   0.682  1.1355  0.8703 -0.7502
 6173TIP3   OH218482   0.915   2.197   4.806  0.1723 -0.0655 -0.1127
 6173TIP3    H118483   0.868   2.191   4.889  0.9601  0.5363  0.3956
 6173TIP3    H218484   0.925   2.107   4.778 -0.9033 -0.2255 -0.0204
 6174TIP3   OH218485   1.934   4.508   0.104  0.0470 -0.1314 -0.3320
 6174TIP3    H118486   1.896   4.521   0.191 -2.6031 -1.6246 -1.1420
 6174TIP3    H218487   1.900   4.580   0.051  1.0213  0.3385 -0.3400
 6175TIP3   OH218488   3.221   4.902   4.008  0.7070 -0.1848 -0.4577
 6175TIP3    H118489   3.166   4.954   4.067  2.5419  0.3405  0.8841
 6175TIP3    H218490   3.268   4.966   3.956 -2.0856 -0.6133 -3.9088
 6176TIP3   OH218491   0.242   2.624   1.447  0.3569 -0.1458  0.3895
 6176TIP3    H118492   0.270   2.556   1.386  0.0797 -0.7121  0.8841
 6176TIP3    H218493   0.177   2.581   1.502 -2.1630  1.3048 -1.2357
 6177TIP3   OH218494   5.402   6.398   1.073 -0.1037  0.3397 -0.3050
 6177TIP3    H118495   5.363   6.356   0.996  0.7850 -2.1592  0.5241
 6177TIP3    H218496   5.468   6.457   1.037  0.2075 -0.6859 -1.4757
 6178TIP3   OH218497   3.418   6.196   0.566  0.0924 -0.2424 -0.1768
 6178TIP3    H118498   3.368   6.238   0.636  0.7484  0.0668  0.1220
 6178TIP3    H218499   3.377   6.111   0.554 -0.1632 -0.2103  0.4398
 6179TIP3   OH218500   3.528   1.516   1.695  0.4772  0.4412 -0.3157
 6179TIP3    H118501   3.489   1.429   1.691  0.2599  0.5611 -0.8942
 6179TIP3    H218502   3.453   1.575   1.701  0.6074  0.4681  3.6473
 6180TIP3   OH218503   6.729   6.422   2.299 -0.0145 -0.4835 -1.0638
 6180TIP3    H118504   6.733   6.514   2.274 -1.9336 -0.5289 -1.6630
 6180TIP3    H218505   6.652   6.388   2.254 -0.2437 -2.0083  0.3768
 6181TIP3   OH218506   7.139   2.162   5.693  0.0237  0.2095 -1.1212
 6181TIP3    H118507   7.101   2.130   5.611 -0.7542 -0.3547 -0.5484
 6181TIP3    H218508   7.094   2.244   5.710 -2.2731 -1.2628  0.4370
 6182TIP3   OH218509   3.826   6.110   5.497 -0.1812  0.2370 -0.6305
 6182TIP3    H118510   3.851   6.200   5.477  2.3178 -0.3988 -0.7501
 6182TIP3    H218511   3.881   6.056   5.439 -1.3607 -1.3691 -0.3233
 6183TIP3   OH218512   4.959   4.800   4.552 -0.4071 -0.7192 -0.0344
 6183TIP3    H118513   4.977   4.776   4.461 -1.2051 -1.4331 -0.0192
 6183TIP3    H218514   4.968   4.896   4.554 -2.7144 -0.3877 -1.4611
 6184TIP3   OH218515   6.542   5.824   4.998  1.0497  0.3768 -0.0955
 6184TIP3    H118516   6.481   5.890   4.964  2.3392  1.4616 -0.3880
 6184TIP3    H218517   6.610   5.875   5.041  1.2978 -0.8472  1.0348
 6185TIP3   OH218518   5.744   3.487   1.011  0.0123 -0.1618 -0.5478
 6185TIP3    H118519   5.781   3.551   1.071 -1.4781  0.9875 -0.7959
 6185TIP3    H218520   5.784   3.507   0.927  0.7957 -0.6482 -0.2983
 6186TIP3   OH218521   6.246   0.225   3.948  0.7891 -0.0322 -0.2210
 6186TIP3    H118522   6.335   0.255   3.969  0.6538  0.1600  0.0879
 6186TIP3    H218523   6.201   0.223   4.033  0.5206 -0.1989 -0.3681
 6187TIP3   OH218524   3.472   1.488   3.561 -0.4891 -1.2618  0.7404
 6187TIP3    H118525   3.567   1.482   3.545 -0.0682  1.2425  1.8721
 6187TIP3    H218526   3.458   1.439   3.641 -0.4194 -2.7880 -0.1464
 6188TIP3   OH218527   7.167   3.328   2.352  0.0407 -0.0799 -0.4001
 6188TIP3    H118528   7.088   3.382   2.349  0.3380  0.4958  1.2017
 6188TIP3    H218529   7.237   3.387   2.325  0.0540 -0.3294 -0.9146
 6189TIP3   OH218530   0.205   5.672   4.774 -0.3815  0.1875 -0.3879
 6189TIP3    H118531   0.257   5.752   4.778 -0.7779  0.4169  0.3118
 6189TIP3    H218532   0.261   5.605   4.814 -0.0370  0.0944 -1.0029
 6190TIP3   OH218533   5.962   1.577   1.854 -0.1418  0.2884 -0.0083
 6190TIP3    H118534   5.949   1.484   1.837 -0.8129  0.3195  0.3471
 6190TIP3    H218535   5.898   1.600   1.921  1.1255  0.6336  1.1319
 6191TIP3   OH218536   4.520   5.631   0.669  0.2765 -0.6921  0.2792
 6191TIP3    H118537   4.603   5.584   0.680  0.5790 -0.9373 -2.4878
 6191TIP3    H218538   4.503   5.629   0.575 -0.6241  3.2430  0.2190
 6192TIP3   OH218539   2.811   4.982   2.174 -0.1238 -0.0724  0.2929
 6192TIP3    H118540   2.857   4.899   2.163  0.0917 -0.2202  2.0475
 6192TIP3    H218541   2.719   4.957   2.184 -0.5074  0.1475 -2.0758
 6193TIP3   OH218542   0.071   0.897   0.324 -0.0758  0.0048 -0.1483
 6193TIP3    H118543   0.026   0.981   0.336  0.9585  0.4731  0.6271
 6193TIP3    H218544   0.038   0.864   0.240 -2.5912 -0.1821  0.8208
 6194TIP3   OH218545   3.284   1.648   4.175  0.1580  0.2014  0.0680
 6194TIP3    H118546   3.213   1.586   4.194  1.3616 -2.1033 -2.2726
 6194TIP3    H218547   3.239   1.730   4.156 -1.7417 -0.6568  0.5712
 6195TIP3   OH218548   5.733   6.750   3.692  0.2668  0.5779 -0.0955
 6195TIP3    H118549   5.736   6.845   3.679  0.9794  0.5244 -0.3664
 6195TIP3    H218550   5.731   6.739   3.787 -2.9625  0.9228 -0.0017
 6196TIP3   OH218551   2.958   4.230   1.177 -0.3278 -0.2344  0.0241
 6196TIP3    H118552   2.904   4.260   1.104  0.7503 -1.6238 -1.3854
 6196TIP3    H218553   3.047   4.255   1.153 -0.1644  1.4386  2.0197
 6197TIP3   OH218554   5.025   0.434   4.113  0.3214  0.1283 -0.2947
 6197TIP3    H118555   4.984   0.452   4.197  4.7545  0.8290  2.0218
 6197TIP3    H218556   5.059   0.345   4.121 -0.3745 -0.3474 -2.0038
 6198TIP3   OH218557   6.044   1.006   3.979 -0.1440 -0.0481  0.0891
 6198TIP3    H118558   6.093   1.045   3.907  2.4706  0.2742  1.9034
 6198TIP3    H218559   6.058   0.912   3.969 -1.2954 -0.1472 -0.7882
 6199TIP3   OH218560   3.455   2.744   2.759  0.2064 -0.0138  0.5495
 6199TIP3    H118561   3.374   2.783   2.791 -1.2940 -1.6034 -1.0855
 6199TIP3    H218562   3.469   2.668   2.816  0.0223 -0.2764  0.2457
 6200TIP3   OH218563   4.181   1.352   5.163 -0.1714 -0.1051 -0.2923
 6200TIP3    H118564   4.150   1.380   5.077  1.1074  1.3710 -0.3104
 6200TIP3    H218565   4.261   1.402   5.177 -0.1227 -0.6455  1.5782
 6201TIP3   OH218566   1.947   4.279   1.651 -0.4361  0.7069  0.0147
 6201TIP3    H118567   1.907   4.262   1.736 -1.7266 -0.0190 -0.6965
 6201TIP3    H218568   1.875   4.270   1.589  0.6768  0.1593 -1.2553
 6202TIP3   OH218569   6.133   1.570   5.854  0.0519 -0.2826  0.0506
 6202TIP3    H118570   6.055   1.548   5.906  1.5442 -1.4430  1.9213
 6202TIP3    H218571   6.103   1.566   5.763 -2.4714  1.0104  0.7434
 6203TIP3   OH218572   5.029   0.935   3.045  0.4491 -0.1128 -0.3020
 6203TIP3    H118573   4.936   0.949   3.066  0.0438 -2.1180 -0.5733
 6203TIP3    H218574   5.028   0.901   2.956  1.5444  0.6126 -0.6099
 6204TIP3   OH218575   7.058   2.163   2.207  0.2227 -0.3625 -0.0132
 6204TIP3    H118576   7.111   2.094   2.166 -0.6028 -1.0404  0.0316
 6204TIP3    H218577   7.073   2.152   2.301 -0.1932 -0.7318  0.0152
 6205TIP3   OH218578   6.140   4.797   2.051  0.2681 -0.3963 -0.5471
 6205TIP3    H118579   6.076   4.869   2.047  0.5606  0.0255  1.3899
 6205TIP3    H218580   6.201   4.823   2.120  0.2910 -2.5822  0.3239
 6206TIP3   OH218581   2.629   0.135   0.491  0.2574  0.2054  0.2867
 6206TIP3    H118582   2.678   0.075   0.547  0.8517 -0.2242 -0.6680
 6206TIP3    H218583   2.558   0.083   0.455 -0.0662  0.4551  0.5573
 6207TIP3   OH218584   4.962   1.875   5.610  0.1959 -0.1686  0.5166
 6207TIP3    H118585   4.929   1.818   5.540 -1.9424  1.0152  0.4660
 6207TIP3    H218586   4.963   1.819   5.688  0.5944 -0.9349 -0.0230
 6208TIP3   OH218587   5.545   4.637   1.895 -0.9111  0.2514  0.1842
 6208TIP3    H118588   5.525   4.652   1.987 -2.5825  1.1322 -0.2861
 6208TIP3    H218589   5.520   4.546   1.879  1.7779 -0.7568  1.1514
 6209TIP3   OH218590   3.961   3.500   2.060 -0.7229  0.3798 -0.7222
 6209TIP3    H118591   3.989   3.474   2.148 -0.4155  1.3579 -0.5224
 6209TIP3    H218592   3.871   3.468   2.053 -0.5230 -0.2957 -0.3080
 6210TIP3   OH218593   6.143   2.869   0.842 -0.5404  0.6295 -0.3627
 6210TIP3    H118594   6.082   2.835   0.777  1.2774 -1.6073 -1.0066
 6210TIP3    H218595   6.087   2.911   0.907 -2.6204  0.2152 -1.7749
 6211TIP3   OH218596   0.175   3.291   5.196  0.0912 -0.2413  0.9385
 6211TIP3    H118597   0.143   3.374   5.161  1.4506  0.3405  1.0234
 6211TIP3    H218598   0.131   3.224   5.143 -0.6828  0.5254  0.5808
 6212TIP3   OH218599   5.756   5.067   4.139 -0.1511  0.4082 -0.1546
 6212TIP3    H118600   5.708   5.112   4.070  0.9874  1.1577 -0.4865
 6212TIP3    H218601   5.765   4.977   4.107  0.5632  0.8043 -1.1083
 6213TIP3   OH218602   6.794   5.575   5.633  0.1209 -0.1952 -0.1089
 6213TIP3    H118603   6.722   5.616   5.681  0.6663  0.6255  0.0291
 6213TIP3    H218604   6.780   5.481   5.644 -0.1605 -0.0302  1.0710
 6214TIP3   OH218605   1.850   5.816   3.999  0.0347  0.5275  0.0549
 6214TIP3    H118606   1.905   5.775   3.932 -0.8409 -1.3723  0.4498
 6214TIP3    H218607   1.847   5.752   4.070 -2.3442  0.7419  0.2092
 6215TIP3   OH218608   3.929   4.226   0.093  0.0620 -0.0232  0.2077
 6215TIP3    H118609   3.987   4.151   0.102 -1.2166 -0.9413  1.0923
 6215TIP3    H218610   3.889   4.236   0.179 -0.3775  1.1930 -0.1162
 6216TIP3   OH218611   0.510   5.168   0.446  0.3673  0.2895 -0.3118
 6216TIP3    H118612   0.488   5.260   0.458 -0.6255  0.1253 -0.7872
 6216TIP3    H218613   0.594   5.169   0.400  1.1187  0.9366  1.0410
 6217TIP3   OH218614   0.089   1.687   4.525  0.1666  0.0251  0.1960
 6217TIP3    H118615   0.155   1.751   4.552 -0.5676  0.0764  2.0151
 6217TIP3    H218616   0.098   1.683   4.430  3.2089 -0.4528  0.3903
 6218TIP3   OH218617   6.728   1.985   0.030  0.7604 -0.5368 -0.3226
 6218TIP3    H118618   6.648   2.038   0.032  0.0019 -1.6051 -1.0784
 6218TIP3    H218619   6.798   2.046   0.056 -0.4993 -0.0048  2.1071
 6219TIP3   OH218620   3.704   4.050   3.078 -0.6885  0.6187  0.1159
 6219TIP3    H118621   3.710   4.145   3.081  0.0050  0.5939 -0.1404
 6219TIP3    H218622   3.765   4.025   3.009 -0.2717 -0.0622  0.7186
 6220TIP3   OH218623   2.934   2.861   1.058  0.2572 -0.3686 -0.2726
 6220TIP3    H118624   2.862   2.877   0.997 -0.8443 -0.8656  0.8499
 6220TIP3    H218625   2.999   2.814   1.007 -0.2996 -0.0797 -1.2691
 6221TIP3   OH218626   3.796   2.793   4.119 -0.5488 -0.5464 -0.1241
 6221TIP3    H118627   3.760   2.870   4.075 -0.2207 -0.8892 -1.0124
 6221TIP3    H218628   3.759   2.796   4.207 -1.7268 -0.1856 -0.6077
 6222TIP3   OH218629   1.635   5.966   3.204 -0.0725  0.5884 -0.2532
 6222TIP3    H118630   1.696   6.030   3.239  0.2870 -0.0201  0.2629
 6222TIP3    H218631   1.584   5.938   3.281  0.6450 -0.6753 -0.2192
 6223TIP3   OH218632   0.243   2.663   2.581  0.2208 -0.7994  0.4073
 6223TIP3    H118633   0.248   2.580   2.534 -1.1965 -0.7198  0.0908
 6223TIP3    H218634   0.180   2.715   2.532 -0.5376 -0.3421  1.8135
 6224TIP3   OH218635   2.145   3.394   3.270 -0.8018 -0.5105 -0.2391
 6224TIP3    H118636   2.236   3.392   3.242  0.1881  0.8955  2.4823
 6224TIP3    H218637   2.109   3.473   3.231  0.1880  0.7484  1.2592
 6225TIP3   OH218638   1.816   6.540   2.403 -0.1241 -0.0754  0.2230
 6225TIP3    H118639   1.866   6.582   2.333  0.7831 -2.2890 -0.5306
 6225TIP3    H218640   1.727   6.571   2.390  0.5851  2.1537  0.1759
 6226TIP3   OH218641   3.106   3.078   4.241  0.2197 -0.5037  0.0938
 6226TIP3    H118642   3.039   3.010   4.248  1.1094 -1.4379 -0.3619
 6226TIP3    H218643   3.112   3.114   4.329 -0.4452 -0.8222  0.2789
 6227TIP3   OH218644   3.012   4.458   3.974 -0.4633 -0.6078 -0.2481
 6227TIP3    H118645   2.985   4.368   3.956 -2.3384 -0.5366  1.6863
 6227TIP3    H218646   3.057   4.453   4.059  0.7662  0.1020 -0.8266
 6228TIP3   OH218647   5.799   5.729   1.013 -0.1528  0.1687 -0.1799
 6228TIP3    H118648   5.786   5.729   1.108  0.6338 -0.1815 -0.0720
 6228TIP3    H218649   5.710   5.734   0.977 -0.5401 -1.1146  0.5566
 6229TIP3   OH218650   1.781   0.923   2.056 -0.5828  0.1020  0.0265
 6229TIP3    H118651   1.828   0.946   2.136 -0.4329 -2.3845  0.7490
 6229TIP3    H218652   1.837   0.954   1.985 -0.2045  1.4038  0.8689
 6230TIP3   OH218653   3.969   3.065   5.180  0.2375 -0.5518  0.1715
 6230TIP3    H118654   3.971   3.076   5.275  0.2683  0.4464  0.0687
 6230TIP3    H218655   3.918   3.140   5.148  2.4478  0.6301 -0.7794
 6231TIP3   OH218656   2.239   3.367   5.709 -0.3928 -0.1036 -0.3197
 6231TIP3    H118657   2.307   3.309   5.675  0.7151  0.7760  0.3512
 6231TIP3    H218658   2.274   3.402   5.790 -0.9468  1.6496 -0.7855
 6232TIP3   OH218659   3.304   5.145   3.900 -0.4624  0.5676  0.3683
 6232TIP3    H118660   3.222   5.193   3.911 -0.3963  0.8856 -0.4785
 6232TIP3    H218661   3.372   5.212   3.905 -0.3657  0.5644 -0.7822
 6233TIP3   OH218662   2.047   5.439   3.633 -0.2820  0.5123  0.2216
 6233TIP3    H118663   2.112   5.369   3.626 -0.5213  0.3015  0.0407
 6233TIP3    H218664   2.043   5.476   3.545  1.4146  2.2112  0.8057
 6234TIP3   OH218665   6.858   3.363   5.105 -0.1711  0.3373  0.2705
 6234TIP3    H118666   6.796   3.368   5.178 -0.1054  0.0940  0.3454
 6234TIP3    H218667   6.811   3.400   5.031 -0.4733 -0.0038  0.2848
 6235TIP3   OH218668   5.076   0.869   3.984 -0.3263  0.2588 -0.2446
 6235TIP3    H118669   5.128   0.833   4.056  0.7954  1.2449 -0.5126
 6235TIP3    H218670   5.122   0.950   3.960 -1.2806  0.5008 -1.3657
 6236TIP3   OH218671   5.108   0.759   0.035  0.2262  0.5962 -0.2916
 6236TIP3    H118672   5.033   0.699   0.034 -2.3854  3.6009 -1.2412
 6236TIP3    H218673   5.127   0.773   0.128  0.1008 -0.7419 -0.0516
 6237TIP3   OH218674   4.076   0.776   4.815  0.5242 -0.2570 -0.5687
 6237TIP3    H118675   4.135   0.743   4.883  0.9589  2.0705  0.2706
 6237TIP3    H218676   4.000   0.809   4.863 -0.2644 -0.7716 -1.4295
 6238TIP3   OH218677   1.796   4.845   2.233 -0.3171  0.1390 -0.3058
 6238TIP3    H118678   1.774   4.877   2.145  0.7799  0.4697 -0.4780
 6238TIP3    H218679   1.891   4.836   2.232 -0.4795 -2.0331  0.1341
 6239TIP3   OH218680   4.281   3.566   3.033  0.5304  0.0852  0.5509
 6239TIP3    H118681   4.206   3.556   3.091  0.2805 -1.7529 -0.0002
 6239TIP3    H218682   4.357   3.562   3.090  0.2818 -1.5341  0.8249
 6240TIP3   OH218683   4.920   0.829   4.877 -0.0344  0.6459  0.2760
 6240TIP3    H118684   4.838   0.809   4.832  0.5409  1.2903 -1.1215
 6240TIP3    H218685   4.935   0.922   4.860 -0.3828  1.2425  2.8487
 6241TIP3   OH218686   5.522   6.451   4.567  0.2778  0.1438  0.3390
 6241TIP3    H118687   5.592   6.424   4.509  1.2481  0.8906  1.1269
 6241TIP3    H218688   5.456   6.489   4.510  1.0674  0.5653 -0.3025
 6242TIP3   OH218689   5.354   1.330   5.165 -0.1255  0.2053 -0.3121
 6242TIP3    H118690   5.326   1.334   5.074  0.1089  0.5665 -0.3699
 6242TIP3    H218691   5.362   1.237   5.183 -0.8100  0.1101 -0.4614
 6243TIP3   OH218692   5.053   1.685   4.042 -0.5464 -0.1082  0.3636
 6243TIP3    H118693   4.982   1.677   3.978  0.3633  3.7695 -1.4313
 6243TIP3    H218694   5.031   1.762   4.094  1.7531  0.5711  0.4561
 6244TIP3   OH218695   1.607   5.709   3.890  0.3210  0.0345 -0.6561
 6244TIP3    H118696   1.634   5.724   3.980 -0.2993  0.8558 -0.5958
 6244TIP3    H218697   1.649   5.779   3.840 -1.5852  1.3422 -0.5605
 6245TIP3   OH218698   5.886   4.098   1.960  0.3042  0.3129  0.5646
 6245TIP3    H118699   5.964   4.060   1.999  0.1975 -1.4461 -0.7905
 6245TIP3    H218700   5.908   4.108   1.867 -0.7170  0.7636  0.3561
 6246TIP3   OH218701   0.562   5.306   3.177  0.1235 -0.0021  0.2663
 6246TIP3    H118702   0.568   5.265   3.263 -0.2446  0.7619  0.6587
 6246TIP3    H218703   0.603   5.242   3.118  2.5186  0.4684  1.3203
 6247TIP3   OH218704   4.848   1.031   2.573  0.0739 -0.1897  0.1868
 6247TIP3    H118705   4.805   1.000   2.653 -1.5592 -0.1367 -0.6293
 6247TIP3    H218706   4.803   1.113   2.551 -0.9319 -1.2099 -1.8596
 6248TIP3   OH218707   6.570   1.918   3.229  0.1747  0.6955 -0.5058
 6248TIP3    H118708   6.593   1.828   3.206 -2.5714 -0.3767  0.5018
 6248TIP3    H218709   6.569   1.919   3.325 -0.0323  1.7564 -0.5050
 6249TIP3   OH218710   1.401   0.058   2.949  0.4741  0.0238  0.5619
 6249TIP3    H118711   1.407   0.084   2.857 -0.3544  3.1213  1.2901
 6249TIP3    H218712   1.492   0.048   2.977  0.7350 -0.9852 -0.5494
 6250TIP3   OH218713   1.846   3.153   2.479  0.6285  0.1357  0.0186
 6250TIP3    H118714   1.810   3.064   2.474  0.4117  0.2695 -1.0363
 6250TIP3    H218715   1.899   3.162   2.400 -0.6264  1.4845 -0.7091
 6251TIP3   OH218716   1.317   6.522   0.565 -0.3349  0.1155 -0.5754
 6251TIP3    H118717   1.401   6.481   0.547  1.5684  3.6383 -0.5412
 6251TIP3    H218718   1.299   6.575   0.487 -2.3600 -0.2280 -0.3973
 6252TIP3   OH218719   0.731   5.440   5.866  0.5125  0.1110  0.2838
 6252TIP3    H118720   0.671   5.513   5.850  1.0708  0.7198  0.8675
 6252TIP3    H218721   0.775   5.463   5.948  1.7360 -0.1835 -0.2648
 6253TIP3   OH218722   5.762   4.197   4.311  0.2759  0.0020 -0.3197
 6253TIP3    H118723   5.851   4.231   4.314  0.8625 -1.3807 -1.3154
 6253TIP3    H218724   5.733   4.212   4.221 -0.7379  0.9704  0.1432
 6254TIP3   OH218725   0.878   6.714   4.191  0.1587 -0.8331  0.7477
 6254TIP3    H118726   0.792   6.756   4.190 -0.0238 -1.1978 -0.3531
 6254TIP3    H218727   0.859   6.622   4.213  0.0853 -1.2055 -0.7036
 6255TIP3   OH218728   2.544   4.219   3.929  0.2090 -0.7200 -0.2148
 6255TIP3    H118729   2.572   4.172   4.007  1.4348 -0.6013 -0.5550
 6255TIP3    H218730   2.506   4.300   3.962  2.3498  0.1752  0.2493
 6256TIP3   OH218731   6.596   1.214   5.341 -0.6546  0.3460  0.0498
 6256TIP3    H118732   6.666   1.211   5.275 -1.0227  0.0858 -0.3386
 6256TIP3    H218733   6.622   1.151   5.407 -0.9975 -0.4738 -0.5869
 6257TIP3   OH218734   3.764   3.868   3.938  0.4628  0.4157 -0.0428
 6257TIP3    H118735   3.851   3.894   3.909 -0.3209  1.3822 -1.6634
 6257TIP3    H218736   3.730   3.815   3.866 -0.6075  0.7814  0.1754
 6258TIP3   OH218737   0.083   4.300   2.286 -0.1594 -0.1754  0.3100
 6258TIP3    H118738   0.063   4.246   2.210  2.0029  0.6481 -0.9173
 6258TIP3    H218739   0.042   4.385   2.267 -0.9706 -0.4357  0.8361
 6259TIP3   OH218740   4.764   0.854   5.197 -0.0711  0.2568  0.1366
 6259TIP3    H118741   4.702   0.890   5.261 -1.3650  0.0115 -0.9263
 6259TIP3    H218742   4.781   0.927   5.136 -0.9557 -0.2438 -0.7444
 6260TIP3   OH218743   4.654   0.260   5.469  0.2161 -0.5624  0.1165
 6260TIP3    H118744   4.573   0.235   5.425 -0.3144  1.3798 -0.0920
 6260TIP3    H218745   4.633   0.255   5.563 -0.3561  0.5101  0.0580
 6261TIP3   OH218746   3.948   2.352   4.838  0.2948  0.2082  0.3319
 6261TIP3    H118747   3.939   2.279   4.776 -2.4755 -0.3559  1.2767
 6261TIP3    H218748   3.958   2.310   4.923  1.4877  0.9974  0.6134
 6262TIP3   OH218749   6.775   5.698   0.978 -0.1082 -0.4532 -0.5136
 6262TIP3    H118750   6.700   5.661   1.023  0.1044  0.4622  0.6331
 6262TIP3    H218751   6.818   5.753   1.043  1.7496 -1.1948 -1.0499
 6263TIP3   OH218752   2.121   1.984   1.466 -0.0089  0.1734  0.5521
 6263TIP3    H118753   2.153   1.996   1.556  0.5461  1.0710  0.2442
 6263TIP3    H218754   2.111   1.889   1.457  1.1592 -0.0254  1.1467
 6264TIP3   OH218755   2.193   2.784   2.012 -0.4275  0.4662 -0.2471
 6264TIP3    H118756   2.270   2.831   1.979 -1.3850  1.5163 -1.0730
 6264TIP3    H218757   2.229   2.716   2.068  1.3596 -1.4629 -3.4198
 6265TIP3   OH218758   4.240   5.197   3.823  0.4200 -0.3635  0.0931
 6265TIP3    H118759   4.238   5.190   3.727 -1.3642  2.0388 -0.1528
 6265TIP3    H218760   4.228   5.107   3.854  0.6046 -1.1481 -1.9369
 6266TIP3   OH218761   6.483   1.859   2.248  0.3727  0.0138  0.0963
 6266TIP3    H118762   6.393   1.856   2.279  0.6614 -0.3815  0.9331
 6266TIP3    H218763   6.512   1.948   2.267  0.4126 -0.1004  0.5737
 6267TIP3   OH218764   0.901   1.314   2.473  0.3448  0.1045  0.5310
 6267TIP3    H118765   0.943   1.291   2.391 -0.3907  1.2092 -0.1882
 6267TIP3    H218766   0.946   1.394   2.502  0.7269 -0.3793  1.3124
 6268TIP3   OH218767   7.145   1.618   5.518  0.1077  0.5708  0.1056
 6268TIP3    H118768   7.147   1.640   5.611  0.1201  0.7249  0.0699
 6268TIP3    H218769   7.130   1.524   5.516 -0.8789  0.7122  0.2598
 6269TIP3   OH218770   1.934   1.196   0.967  0.2968  0.0867  0.2617
 6269TIP3    H118771   1.989   1.162   0.896 -1.4112 -1.7763 -0.2731
 6269TIP3    H218772   1.997   1.231   1.031  2.1733 -2.1794 -0.1682
 6270TIP3   OH218773   6.190   1.987   0.289 -0.3710 -0.2428 -0.3084
 6270TIP3    H118774   6.268   2.043   0.282  0.0877 -1.0715 -3.0187
 6270TIP3    H218775   6.215   1.920   0.352  0.3860  0.5967  0.3098
 6271TIP3   OH218776   3.637   3.552   1.649 -0.0897 -0.2679  0.1178
 6271TIP3    H118777   3.691   3.563   1.727  1.0537  1.6789 -0.8815
 6271TIP3    H218778   3.663   3.467   1.613  0.0847 -0.7289  1.2988
 6272TIP3   OH218779   6.799   2.997   0.232  0.4496 -0.1010  0.5266
 6272TIP3    H118780   6.762   3.071   0.183  1.8400  0.4993  0.3504
 6272TIP3    H218781   6.888   2.989   0.200 -0.2406 -3.2200 -0.9800
 6273TIP3   OH218782   3.025   5.399   2.803 -0.1609 -0.2447  0.0334
 6273TIP3    H118783   3.110   5.440   2.792 -0.2045 -0.2789 -0.4528
 6273TIP3    H218784   2.965   5.472   2.819 -0.4974  0.0734 -2.2986
 6274TIP3   OH218785   6.407   1.484   0.332  0.2433 -0.7497 -0.3242
 6274TIP3    H118786   6.382   1.391   0.333  1.7976 -1.4172  4.4614
 6274TIP3    H218787   6.328   1.530   0.304 -1.8167 -3.3789  0.6802
 6275TIP3   OH218788   3.872   6.258   3.763 -0.1484 -0.0826 -0.3437
 6275TIP3    H118789   3.883   6.220   3.675  1.1185  1.7829 -1.0630
 6275TIP3    H218790   3.957   6.242   3.805 -0.3519  0.0740  0.1188
 6276TIP3   OH218791   2.962   4.983   3.633  0.7910 -0.1910  0.4192
 6276TIP3    H118792   2.913   4.996   3.715  0.7101 -0.7030  0.4559
 6276TIP3    H218793   2.899   4.941   3.574  0.7814  0.3753  0.0136
 6277TIP3   OH218794   5.329   2.434   1.124  0.2265 -0.6146  0.1347
 6277TIP3    H118795   5.283   2.432   1.040  0.2522 -3.0309  0.0885
 6277TIP3    H218796   5.353   2.343   1.139  1.9233  0.0675  1.8631
 6278TIP3   OH218797   4.524   0.477   3.536 -0.3351  0.0151  0.7094
 6278TIP3    H118798   4.541   0.414   3.606  1.7500 -2.2339 -1.6147
 6278TIP3    H218799   4.607   0.524   3.525 -0.7287  0.5583 -0.0525
 6279TIP3   OH218800   1.176   3.667   1.076 -0.0278  0.0907 -0.4434
 6279TIP3    H118801   1.141   3.676   0.987  0.7565  0.6123 -0.7085
 6279TIP3    H218802   1.231   3.744   1.088 -0.4320  0.2232  0.6447
 6280TIP3   OH218803   0.687   3.601   0.486  0.7926  0.0040  0.2698
 6280TIP3    H118804   0.713   3.651   0.408  0.8396  0.0411  0.3094
 6280TIP3    H218805   0.602   3.639   0.511  1.4041  0.9195  1.0399
 6281TIP3   OH218806   2.401   1.706   0.682 -0.0989 -0.2600  0.3649
 6281TIP3    H118807   2.450   1.722   0.602  0.4730  0.0375  0.7661
 6281TIP3    H218808   2.329   1.769   0.679  0.9820  1.0561  0.9635
 6282TIP3   OH218809   6.360   5.386   5.676  0.1810 -0.4531 -0.0820
 6282TIP3    H118810   6.278   5.397   5.724 -1.8386  0.9625 -3.4763
 6282TIP3    H218811   6.373   5.291   5.671 -1.4387 -0.7193  0.2795
 6283TIP3   OH218812   1.843   2.947   2.880 -0.1310  0.4203  0.1812
 6283TIP3    H118813   1.814   2.999   2.955  0.6955  1.7767 -0.4072
 6283TIP3    H218814   1.905   2.884   2.918 -0.6715  0.2659  0.8149
 6284TIP3   OH218815   3.029   0.329   1.158  0.6060  0.0734 -0.7805
 6284TIP3    H118816   3.048   0.238   1.133  1.9283  0.1259 -0.0122
 6284TIP3    H218817   2.934   0.336   1.148  0.2185 -1.9217  0.8078
 6285TIP3   OH218818   4.696   0.611   2.374  0.4316 -0.1178  0.5796
 6285TIP3    H118819   4.698   0.705   2.355 -0.3727  0.3133  2.4312
 6285TIP3    H218820   4.607   0.595   2.406  0.8148 -1.3338  1.0802
 6286TIP3   OH218821   3.034   0.621   2.726  0.2736 -0.6559  0.2176
 6286TIP3    H118822   2.989   0.676   2.790 -0.0576 -0.6207 -0.0458
 6286TIP3    H218823   3.002   0.651   2.641  0.7364 -0.6813  0.0284
 6287TIP3   OH218824   3.291   4.585   1.213  0.3710 -0.2777  0.1699
 6287TIP3    H118825   3.205   4.596   1.172  0.2052  2.2529  1.0372
 6287TIP3    H218826   3.350   4.567   1.139 -0.5006  0.5154 -0.7538
 6288TIP3   OH218827   6.808   3.078   1.996  0.4117  0.1835  0.3404
 6288TIP3    H118828   6.717   3.054   2.016  0.6921 -0.6239  0.6834
 6288TIP3    H218829   6.845   3.104   2.080  0.4321  0.7657  0.1571
 6289TIP3   OH218830   5.895   2.944   3.748  0.2466  0.3438  0.0992
 6289TIP3    H118831   5.848   2.870   3.786 -1.2629  0.5132 -1.3409
 6289TIP3    H218832   5.924   2.912   3.662  1.2568  0.8241  0.2465
 6290TIP3   OH218833   5.227   5.948   1.892 -0.1896 -0.4529  0.2531
 6290TIP3    H118834   5.313   5.923   1.925 -0.6912 -1.7124  0.6767
 6290TIP3    H218835   5.174   5.961   1.971  0.0816  2.3294  0.0868
 6291TIP3   OH218836   3.315   1.315   5.832 -0.0263  0.0329 -0.1056
 6291TIP3    H118837   3.304   1.238   5.888 -0.1488  0.4198  0.4143
 6291TIP3    H218838   3.267   1.294   5.752  1.8006 -1.3644 -0.9348
 6292TIP3   OH218839   0.417   2.110   0.981 -0.0811  0.2664 -0.4338
 6292TIP3    H118840   0.409   2.070   0.894 -0.0065 -0.0303 -0.3048
 6292TIP3    H218841   0.511   2.120   0.995 -0.0871  0.1718 -0.3232
 6293TIP3   OH218842   6.133   3.028   5.514  0.4198  0.4275 -0.4853
 6293TIP3    H118843   6.045   3.064   5.502  0.6864  0.9695 -0.8233
 6293TIP3    H218844   6.191   3.103   5.508  0.8445  0.2216  0.6989
 6294TIP3   OH218845   2.233   1.128   2.565  0.4738  0.4921  0.0478
 6294TIP3    H118846   2.300   1.069   2.599 -0.0763 -0.7844 -0.9869
 6294TIP3    H218847   2.211   1.092   2.479 -1.2399  1.1009  0.1886
 6295TIP3   OH218848   6.336   4.523   1.158  1.0488 -0.4484 -0.5928
 6295TIP3    H118849   6.252   4.525   1.204 -0.6904  1.4065 -3.5133
 6295TIP3    H218850   6.395   4.574   1.213 -0.1785 -0.4184  0.7538
 6296TIP3   OH218851   7.038   5.410   3.713 -0.2379  0.0208  0.6277
 6296TIP3    H118852   7.133   5.401   3.722 -0.1550  0.9750  0.8780
 6296TIP3    H218853   7.004   5.403   3.802 -0.4816 -1.0027  0.4653
 6297TIP3   OH218854   1.435   1.921   5.856 -0.0366  0.5206 -0.2851
 6297TIP3    H118855   1.417   1.936   5.764  0.7813 -0.9061 -0.7157
 6297TIP3    H218856   1.530   1.920   5.863 -0.0789 -0.2628  0.4059
 6298TIP3   OH218857   1.306   4.643   4.051  0.7024  0.4441  0.0793
 6298TIP3    H118858   1.259   4.638   3.968 -0.5508  1.4321  0.6868
 6298TIP3    H218859   1.398   4.634   4.028  0.3669  0.5633 -1.3951
 6299TIP3   OH218860   0.358   0.956   2.883  0.3092 -0.3368 -0.2716
 6299TIP3    H118861   0.290   0.895   2.858  1.3968 -1.8380  0.2659
 6299TIP3    H218862   0.386   0.927   2.970 -0.8662  2.4932  1.1847
 6300TIP3   OH218863   0.264   5.623   0.477 -0.0549 -0.5314 -0.8134
 6300TIP3    H118864   0.288   5.716   0.478  1.5975 -0.8775 -2.1340
 6300TIP3    H218865   0.282   5.592   0.566  0.5660  0.1600 -0.6889
 6301TIP3   OH218866   3.259   5.864   3.645  0.0159  0.1278 -0.3440
 6301TIP3    H118867   3.305   5.926   3.588  1.1275 -0.2452  0.1173
 6301TIP3    H218868   3.306   5.781   3.633 -0.6696 -0.3207 -0.0026
 6302TIP3   OH218869   2.957   5.837   5.313  0.2636  0.1834 -0.1027
 6302TIP3    H118870   2.908   5.903   5.263  2.1100  0.8110 -1.1875
 6302TIP3    H218871   3.021   5.803   5.251 -0.1342 -2.1153  0.6688
 6303TIP3   OH218872   0.179   3.013   3.499 -0.0389 -0.0473  0.6365
 6303TIP3    H118873   0.202   3.102   3.473 -0.5920  1.0561  3.5168
 6303TIP3    H218874   0.091   3.020   3.536 -0.2713 -1.8781  0.5411
 6304TIP3   OH218875   0.718   5.630   2.826  0.5535  0.0001  0.3481
 6304TIP3    H118876   0.754   5.664   2.744 -2.5152 -0.0100 -1.1364
 6304TIP3    H218877   0.703   5.708   2.880 -1.0990  0.5027 -0.7580
 6305TIP3   OH218878   3.721   1.121   5.164  0.2101 -0.8359 -0.3045
 6305TIP3    H118879   3.699   1.148   5.074  0.8472  1.6604  0.2084
 6305TIP3    H218880   3.649   1.154   5.217  1.2400  0.3195  0.4190
 6306TIP3   OH218881   1.988   5.512   4.406  0.4114  0.2158 -0.3060
 6306TIP3    H118882   2.014   5.425   4.374  1.1665  0.2326  0.2386
 6306TIP3    H218883   1.955   5.496   4.495  1.1826  0.5742  0.0484
 6307TIP3   OH218884   6.740   0.080   4.417  0.4437 -0.5147  0.0591
 6307TIP3    H118885   6.695   0.057   4.498 -2.0805 -0.7332 -1.3012
 6307TIP3    H218886   6.793   0.003   4.396 -0.7479 -1.4255  0.2865
 6308TIP3   OH218887   0.504   5.966   1.628  0.5738 -0.1767 -0.4309
 6308TIP3    H118888   0.473   5.998   1.712  0.6047  0.5598 -0.6920
 6308TIP3    H218889   0.463   6.024   1.564  0.3644 -0.8728 -0.9406
 6309TIP3   OH218890   5.530   6.435   0.303 -0.2302 -0.0740  0.3814
 6309TIP3    H118891   5.622   6.448   0.279 -0.6602  0.1149 -1.2891
 6309TIP3    H218892   5.497   6.373   0.238 -1.6889  1.1145 -0.0543
 6310TIP3   OH218893   0.282   5.107   3.802  0.1729  0.2330 -0.2224
 6310TIP3    H118894   0.235   5.029   3.830  1.9073 -0.4884  0.7763
 6310TIP3    H218895   0.361   5.109   3.855  0.3587  2.4872 -0.4761
 6311TIP3   OH218896   6.920   2.602   4.936 -0.3723 -0.0422  0.2189
 6311TIP3    H118897   6.903   2.548   5.013  0.4050 -0.1142  0.3452
 6311TIP3    H218898   7.012   2.587   4.916 -0.8948 -1.1193 -1.5836
 6312TIP3   OH218899   0.685   0.341   0.054  0.3368 -0.2851  0.2841
 6312TIP3    H118900   0.692   0.256   0.098  3.5891  0.3089  1.2125
 6312TIP3    H218901   0.684   0.405   0.125  0.7966  0.5357 -0.4276
 6313TIP3   OH218902   2.146   5.210   2.727  0.5615 -0.0068  0.4145
 6313TIP3    H118903   2.060   5.172   2.746  0.9476 -1.3632 -0.3659
 6313TIP3    H218904   2.133   5.304   2.731 -0.6528 -0.1950  1.6170
 6314TIP3   OH218905   4.934   4.341   4.244  0.3329 -0.0506  0.2797
 6314TIP3    H118906   4.877   4.265   4.248  0.5540 -0.3794 -1.7903
 6314TIP3    H218907   4.903   4.398   4.316  1.3048 -2.7553  3.0381
 6315TIP3   OH218908   1.033   1.293   4.136 -0.7698  0.2163  0.0667
 6315TIP3    H118909   0.968   1.329   4.197 -1.1509 -2.2097  1.2433
 6315TIP3    H218910   1.105   1.265   4.192  0.4005  0.9879 -1.0127
 6316TIP3   OH218911   0.831   6.244   0.158 -0.2613  0.2634  0.8451
 6316TIP3    H118912   0.897   6.207   0.216  0.8997  0.1309 -0.5019
 6316TIP3    H218913   0.829   6.337   0.179  0.7756  0.3704  0.5383
 6317TIP3   OH218914   2.151   5.024   2.516 -0.4571  0.7038 -0.1940
 6317TIP3    H118915   2.150   5.056   2.606 -0.2287  0.4498 -0.1009
 6317TIP3    H218916   2.058   5.017   2.492 -0.5425 -0.1986  0.3682
 6318TIP3   OH218917   0.905   0.209   0.868  0.0747  0.1329 -0.0341
 6318TIP3    H118918   0.920   0.223   0.774  0.6811  0.8984  0.1745
 6318TIP3    H218919   0.938   0.120   0.884 -1.4764 -0.6356 -0.8500
 6319TIP3   OH218920   2.040   6.359   5.671 -0.0206 -0.3152  0.0995
 6319TIP3    H118921   1.968   6.318   5.622 -1.0784  0.1186  1.2334
 6319TIP3    H218922   2.118   6.314   5.640 -1.0072 -2.4460  0.4804
 6320TIP3   OH218923   1.197   0.058   1.535  0.3390 -0.1918 -0.1159
 6320TIP3    H118924   1.109   0.025   1.549  0.4840 -0.4865  0.1155
 6320TIP3    H218925   1.242  -0.013   1.489  0.2605  0.2268 -0.8457
 6321TIP3   OH218926   4.545   4.328   4.890 -0.0207 -0.0607 -0.4343
 6321TIP3    H118927   4.477   4.280   4.938 -0.3965  0.6124 -0.2839
 6321TIP3    H218928   4.544   4.416   4.929  0.4402  0.1652 -0.9239
 6322TIP3   OH218929   5.574   0.526   5.242  0.2645  0.0047  0.5700
 6322TIP3    H118930   5.601   0.610   5.205  1.4332 -0.8488 -0.5871
 6322TIP3    H218931   5.496   0.547   5.294 -1.0044  1.4139 -1.7347
 6323TIP3   OH218932   4.905   5.109   2.773 -0.7010 -0.1693 -0.3306
 6323TIP3    H118933   4.924   5.065   2.856 -1.3801 -0.5324 -0.3636
 6323TIP3    H218934   4.813   5.088   2.755 -1.5622  2.5024  0.4456
 6324TIP3   OH218935   4.837   4.531   4.425  0.3506 -0.4805 -0.1734
 6324TIP3    H118936   4.876   4.610   4.464 -3.9771  2.2632 -0.7398
 6324TIP3    H218937   4.820   4.475   4.500  0.1608  0.7937  0.7828
 6325TIP3   OH218938   1.632   6.068   4.813  0.2878 -0.1367 -0.4934
 6325TIP3    H118939   1.689   5.993   4.829  0.8172  0.2342 -0.5887
 6325TIP3    H218940   1.679   6.120   4.747  0.4474  0.8122  0.3392
 6326TIP3   OH218941   6.123   3.936   1.642 -0.3272  0.1683 -0.3590
 6326TIP3    H118942   6.206   3.944   1.688 -0.7470 -0.2493  0.4910
 6326TIP3    H218943   6.127   3.850   1.600 -0.2635  0.2136 -0.4448
 6327TIP3   OH218944   4.713   0.116   4.662 -0.6219  0.7100  0.7884
 6327TIP3    H118945   4.681   0.108   4.752 -0.5588 -1.7476  0.6384
 6327TIP3    H218946   4.642   0.161   4.616 -1.6221  0.0142  1.6012
 6328TIP3   OH218947   1.163   2.284   2.519 -0.3993 -0.2863 -0.1760
 6328TIP3    H118948   1.231   2.299   2.454 -0.6747 -0.6571 -0.5475
 6328TIP3    H218949   1.137   2.372   2.546 -0.8410 -0.1158 -1.1441
 6329TIP3   OH218950   1.994   0.661   1.111 -0.4932  0.1605 -0.2540
 6329TIP3    H118951   2.016   0.752   1.088  0.4234 -0.1831 -0.7838
 6329TIP3    H218952   1.999   0.614   1.028 -0.8201 -0.4041  0.0445
 6330TIP3   OH218953   3.200   2.306   0.893 -0.0368 -0.3096 -0.3526
 6330TIP3    H118954   3.152   2.352   0.824 -0.5237 -0.8484 -0.3840
 6330TIP3    H218955   3.175   2.352   0.973 -0.5537 -0.5336 -0.3770
 6331TIP3   OH218956   6.149   5.407   4.108  0.0446  0.1822  0.0630
 6331TIP3    H118957   6.100   5.478   4.148  2.5483  0.6947  2.5065
 6331TIP3    H218958   6.130   5.331   4.162  0.2913 -0.1108 -0.2547
 6332TIP3   OH218959   0.973   3.391   2.918 -0.2889  0.1914 -0.0617
 6332TIP3    H118960   0.880   3.381   2.897 -0.4732  1.1722  0.2090
 6332TIP3    H218961   1.014   3.413   2.834 -0.8466  2.9755  0.2978
 6333TIP3   OH218962   5.903   6.472   0.951 -0.3283  0.5432 -0.0289
 6333TIP3    H118963   5.986   6.433   0.925 -0.0237  0.6222  0.8152
 6333TIP3    H218964   5.919   6.510   1.037 -1.3434  0.2330  0.3111
 6334TIP3   OH218965   1.699   5.353   1.497  0.0146 -0.2506  0.1387
 6334TIP3    H118966   1.781   5.327   1.539 -0.5445 -1.5000  0.5236
 6334TIP3    H218967   1.717   5.439   1.459  0.8348  0.4898  2.0892
 6335TIP3   OH218968   3.301   1.654   1.649  0.5371 -0.8155  0.1812
 6335TIP3    H118969   3.261   1.741   1.646  2.5063  0.1879  1.1936
 6335TIP3    H218970   3.273   1.612   1.567 -3.4081 -0.6601  1.2658
 6336TIP3   OH218971   6.058   1.376   5.114  0.2069 -0.6897  0.1157
 6336TIP3    H118972   6.024   1.411   5.197  1.2366 -0.6692  0.5437
 6336TIP3    H218973   6.029   1.438   5.048  1.3568  0.5978  0.7703
 6337TIP3   OH218974   0.612   3.712   0.093 -0.5543 -0.3302  0.5636
 6337TIP3    H118975   0.551   3.779   0.123 -1.8289 -1.3831  0.4005
 6337TIP3    H218976   0.696   3.736   0.133 -1.4386  0.2231  2.1534
 6338TIP3   OH218977   2.635   2.968   2.217  1.1639  0.3926 -0.4669
 6338TIP3    H118978   2.667   3.045   2.263 -1.2268  0.3558  1.4328
 6338TIP3    H218979   2.661   2.895   2.273  0.9543  0.0615 -0.8037
 6339TIP3   OH218980   1.541   3.446   2.181 -0.4757  0.3519  0.0371
 6339TIP3    H118981   1.540   3.350   2.189 -2.1647  0.1028 -2.1175
 6339TIP3    H218982   1.451   3.473   2.195 -0.0746  1.6262  0.3208
 6340TIP3   OH218983   0.939   4.279   2.733  0.0822 -0.1216 -0.6997
 6340TIP3    H118984   0.852   4.244   2.713 -0.3288  0.1574  0.5134
 6340TIP3    H218985   0.924   4.340   2.805  1.4460 -0.9066  0.2847
 6341TIP3   OH218986   0.552   3.448   4.319  0.2564 -0.5138  0.4304
 6341TIP3    H118987   0.647   3.439   4.332  0.2872  0.4765  0.9758
 6341TIP3    H218988   0.526   3.365   4.279  1.7944  0.1956 -2.3311
 6342TIP3   OH218989   3.335   6.642   1.658  0.2768  0.2093 -0.6571
 6342TIP3    H118990   3.362   6.733   1.658 -1.1948  0.6763 -0.9199
 6342TIP3    H218991   3.390   6.600   1.591  0.9215  0.9090 -0.5693
 6343TIP3   OH218992   4.002   6.255   2.476  0.4258 -0.0853  0.4162
 6343TIP3    H118993   4.061   6.204   2.532  0.8346 -0.6307 -0.4909
 6343TIP3    H218994   4.053   6.332   2.452  0.1898  0.2347  0.9071
 6344TIP3   OH218995   4.796   6.376   4.239  0.7285 -0.1113  0.3520
 6344TIP3    H118996   4.889   6.383   4.217  0.4540 -0.6482 -1.1688
 6344TIP3    H218997   4.787   6.289   4.276  0.9561  0.2392  1.2415
 6345TIP3   OH218998   0.192   0.761   5.039 -0.5902  0.0152 -0.0246
 6345TIP3    H118999   0.097   0.745   5.040 -0.4378 -0.9749  0.2850
 6345TIP3    H219000   0.201   0.853   5.014 -1.5789 -0.2868 -1.6462
 6346TIP3   OH219001   4.258   1.100   3.605 -0.6421 -0.2984  0.1193
 6346TIP3    H119002   4.306   1.020   3.585 -0.8884 -0.3485 -0.2886
 6346TIP3    H219003   4.194   1.108   3.535 -0.0286  0.7391 -0.3430
 6347TIP3   OH219004   4.117   3.198   2.374 -0.4020 -0.1501  0.0715
 6347TIP3    H119005   4.080   3.285   2.360 -0.4006 -0.0877  0.4630
 6347TIP3    H219006   4.055   3.139   2.331 -1.7975 -0.1970  2.0223
 6348TIP3   OH219007   4.237   3.479   3.718  0.1488 -0.2302  0.2102
 6348TIP3    H119008   4.234   3.413   3.648 -0.0840 -1.2043  1.1215
 6348TIP3    H219009   4.220   3.562   3.673 -1.8340 -1.0386 -0.6420
 6349TIP3   OH219010   1.070   1.686   4.998 -0.2982 -0.4085  0.6927
 6349TIP3    H119011   1.157   1.677   4.958 -0.6380  0.4935 -0.2991
 6349TIP3    H219012   1.056   1.780   5.004 -0.9637 -0.5440  1.4174
 6350TIP3   OH219013   5.976   3.456   5.610  0.6602 -0.1805 -0.0129
 6350TIP3    H119014   6.019   3.443   5.695 -0.4313 -1.3597  0.4033
 6350TIP3    H219015   6.041   3.428   5.546  1.1327 -0.2991  0.5084
 6351TIP3   OH219016   5.445   5.952   3.519 -0.0694 -0.2174  0.0053
 6351TIP3    H119017   5.437   5.969   3.612  0.9044  2.9584 -0.3747
 6351TIP3    H219018   5.540   5.946   3.504 -0.1918 -0.1542 -0.8640
 6352TIP3   OH219019   6.943   2.514   4.461  0.2191 -0.7599  0.1131
 6352TIP3    H119020   7.027   2.494   4.420 -0.0181 -1.0515 -0.2450
 6352TIP3    H219021   6.949   2.606   4.486  1.5246 -1.3290  2.2152
 6353TIP3   OH219022   3.917   3.052   2.280 -0.6279  0.3566  0.0469
 6353TIP3    H119023   3.835   3.097   2.300 -1.5645 -1.4484  0.4892
 6353TIP3    H219024   3.918   3.045   2.185 -1.5230 -0.5433  0.0953
 6354TIP3   OH219025   3.390   0.997   5.022  0.0773 -0.2813  0.1949
 6354TIP3    H119026   3.351   1.071   5.069  1.2003  1.0766 -0.9099
 6354TIP3    H219027   3.320   0.931   5.020 -0.9640  0.7388  1.2246
 6355TIP3   OH219028   6.920   4.178   4.324 -0.0362 -0.3472  0.0023
 6355TIP3    H119029   7.008   4.145   4.304  0.0999 -0.2841  0.4736
 6355TIP3    H219030   6.935   4.266   4.359 -0.2760 -0.3924  0.2208
 6356TIP3   OH219031   5.967   5.558   4.265 -0.0200 -0.0717  0.0277
 6356TIP3    H119032   5.901   5.499   4.301  1.1411 -1.0249  0.6408
 6356TIP3    H219033   5.922   5.642   4.258 -1.0789 -0.5148  1.1527
 6357TIP3   OH219034   1.136   4.787   1.851 -0.6775 -0.2522 -0.1777
 6357TIP3    H119035   1.165   4.811   1.763  0.1997  1.2000  0.4822
 6357TIP3    H219036   1.081   4.860   1.879 -0.2522 -0.2879  0.7966
 6358TIP3   OH219037   6.146   1.406   5.416 -0.2451  0.1622 -0.1103
 6358TIP3    H119038   6.059   1.443   5.401 -0.6775 -0.9276 -0.3738
 6358TIP3    H219039   6.130   1.315   5.442  0.8059 -0.0010  0.0146
 6359TIP3   OH219040   0.219   4.726   5.856  0.4403  0.2122 -0.2659
 6359TIP3    H119041   0.218   4.642   5.811 -1.4021 -0.3784  0.7699
 6359TIP3    H219042   0.206   4.791   5.787 -2.5769 -0.6732 -0.6639
 6360TIP3   OH219043   5.684   2.041   0.714 -0.0607 -0.1621  0.3483
 6360TIP3    H119044   5.779   2.047   0.724  0.3537 -0.5585 -2.4195
 6360TIP3    H219045   5.659   1.964   0.766  1.2332 -0.4307  0.6009
 6361TIP3   OH219046   6.743   5.855   1.223  0.0037 -0.0544 -0.2833
 6361TIP3    H119047   6.692   5.864   1.303 -1.3071 -3.0341 -0.6612
 6361TIP3    H219048   6.713   5.927   1.167 -1.5473  0.0780  0.6520
 6362TIP3   OH219049   2.934   1.693   4.431 -0.2840  0.7588 -0.5636
 6362TIP3    H119050   2.894   1.763   4.484 -1.3901  0.4154 -0.9206
 6362TIP3    H219051   2.965   1.629   4.496  0.0244  1.2074 -0.2641
 6363TIP3   OH219052   2.281   5.740   0.425 -0.2625  0.8469  0.3348
 6363TIP3    H119053   2.302   5.833   0.439  1.5209  0.6247 -0.5399
 6363TIP3    H219054   2.222   5.741   0.349 -2.5915  1.4045  2.0433
 6364TIP3   OH219055   7.140   2.990   3.598 -0.6815  0.2142  0.0662
 6364TIP3    H119056   7.121   3.083   3.611 -0.1382  0.0834  2.3983
 6364TIP3    H219057   7.092   2.966   3.519  0.6894  2.8969 -1.7717
 6365TIP3   OH219058   7.172   0.439   3.916  0.3799  0.2158  0.8351
 6365TIP3    H119059   7.170   0.517   3.973 -0.0947  0.1292  0.9430
 6365TIP3    H219060   7.109   0.458   3.847  1.6397  0.7152 -0.2091
 6366TIP3   OH219061   7.252   6.225   0.064  0.1639 -0.1328  0.5409
 6366TIP3    H119062   7.189   6.215   0.135  1.0364  0.8124  1.4906
 6366TIP3    H219063   7.205   6.272  -0.004 -0.4208 -0.2426  0.8674
 6367TIP3   OH219064   0.405   3.042   0.713 -0.3451  0.4226 -0.7855
 6367TIP3    H119065   0.463   2.981   0.666  0.5702  0.0043  0.8013
 6367TIP3    H219066   0.409   3.123   0.662  1.5789  0.3669 -0.8033
 6368TIP3   OH219067   3.961   2.961   0.538  0.1387  0.2271  0.2436
 6368TIP3    H119068   3.903   3.029   0.571 -0.9666 -0.1625 -0.8312
 6368TIP3    H219069   4.017   2.940   0.613  1.3184  3.0856  0.2869
 6369TIP3   OH219070   4.213   4.312   0.287  0.4406 -0.3761 -0.1061
 6369TIP3    H119071   4.189   4.224   0.256  1.4998 -0.8762  0.4133
 6369TIP3    H219072   4.199   4.369   0.211 -1.0316 -0.8439 -0.2167
 6370TIP3   OH219073   2.462   3.989   3.067  0.1774 -0.0163 -0.1365
 6370TIP3    H119074   2.394   4.001   3.133 -0.6959 -1.8991 -0.6363
 6370TIP3    H219075   2.530   4.052   3.091 -0.8562  0.5202  1.5442
 6371TIP3   OH219076   3.935   6.809   0.051 -0.1562 -0.3768  0.0081
 6371TIP3    H119077   3.902   6.725   0.085 -0.5383 -0.3718 -0.3395
 6371TIP3    H219078   3.876   6.875   0.087 -0.4469 -0.3532 -0.4938
 6372TIP3   OH219079   1.951   2.632   5.624  0.0391  0.0012 -0.4667
 6372TIP3    H119080   2.020   2.673   5.676 -0.7989  0.0513  0.6434
 6372TIP3    H219081   1.997   2.564   5.575  0.6076 -1.4983  1.9329
 6373TIP3   OH219082   6.586   0.245   5.494 -0.4432 -0.1631  0.4434
 6373TIP3    H119083   6.519   0.182   5.518 -0.6781  0.2994  1.0423
 6373TIP3    H219084   6.610   0.287   5.577  0.7904 -0.5198  0.2931
 6374TIP3   OH219085   7.033   5.430   5.638 -0.4078  0.2227  0.4835
 6374TIP3    H119086   6.946   5.406   5.672 -0.0197 -1.5354  0.3518
 6374TIP3    H219087   7.027   5.412   5.544  0.0824  0.1597  0.4629
 6375TIP3   OH219088   1.387   5.902   1.552  0.1170 -0.5011 -0.3149
 6375TIP3    H119089   1.462   5.925   1.606 -0.6298 -0.9329  0.9274
 6375TIP3    H219090   1.374   5.809   1.567  0.0118 -0.6764 -1.4006
 6376TIP3   OH219091   0.151   3.867   0.655 -0.1901 -0.5293  0.0346
 6376TIP3    H119092   0.133   3.799   0.720  0.3276 -0.4316  0.2920
 6376TIP3    H219093   0.106   3.945   0.688 -0.8168 -0.7534 -0.2816
 6377TIP3   OH219094   4.848   5.199   4.357  0.1915  0.8739 -0.3968
 6377TIP3    H119095   4.798   5.117   4.351  1.2943 -0.0124  1.5151
 6377TIP3    H219096   4.786   5.262   4.393 -0.6100  0.8355 -1.6759
 6378TIP3   OH219097   5.825   0.465   5.889 -0.3075 -0.1656  0.4303
 6378TIP3    H119098   5.856   0.537   5.944  1.7453  0.5182 -1.4701
 6378TIP3    H219099   5.767   0.507   5.825  2.0453  0.1879 -1.6123
 6379TIP3   OH219100   6.717   4.816   3.686 -0.0482 -0.6449 -0.5217
 6379TIP3    H119101   6.641   4.852   3.732  0.6210 -0.0391  0.1367
 6379TIP3    H219102   6.694   4.821   3.594 -0.3081  0.7602 -0.4066
 6380TIP3   OH219103   4.941   1.593   2.990 -0.4351 -0.4211 -0.3627
 6380TIP3    H119104   4.915   1.646   3.065 -3.0076 -0.7651 -0.9091
 6380TIP3    H219105   5.032   1.570   3.007 -0.2560  1.3968  1.5007
 6381TIP3   OH219106   4.227   0.633   4.987  0.1787  0.3289  0.5933
 6381TIP3    H119107   4.236   0.667   5.076  0.6674 -0.0475  0.6943
 6381TIP3    H219108   4.317   0.625   4.955 -0.0194  0.9642 -0.1308
 6382TIP3   OH219109   5.082   0.162   3.926 -0.1605 -0.3913  0.3657
 6382TIP3    H119110   5.071   0.067   3.924 -0.4232 -0.3505 -0.5064
 6382TIP3    H219111   5.028   0.191   4.000 -0.7553 -0.8351  0.1098
 6383TIP3   OH219112   6.427   0.386   5.272  0.1564  0.2851  0.0908
 6383TIP3    H119113   6.485   0.416   5.202  0.4943  0.1006  0.2887
 6383TIP3    H219114   6.360   0.454   5.278 -1.9009 -1.3060 -2.7269
 6384TIP3   OH219115   3.161   6.479   5.016  0.6506 -0.0649  0.8033
 6384TIP3    H119116   3.162   6.493   4.921  0.0869  0.8073  0.9107
 6384TIP3    H219117   3.122   6.559   5.051  0.2528 -0.6554  1.7299
 6385TIP3   OH219118   4.489   4.924   1.358  0.3094  0.4975 -0.0399
 6385TIP3    H119119   4.517   4.834   1.346  1.3619  0.6788  0.9008
 6385TIP3    H219120   4.414   4.934   1.298  0.1105 -1.0104 -0.0863
 6386TIP3   OH219121   6.225   3.794   2.848 -0.1731  0.1498  0.0010
 6386TIP3    H119122   6.238   3.800   2.942  1.2406  0.1852 -0.1698
 6386TIP3    H219123   6.195   3.881   2.822  2.5582  1.2074  0.0234
 6387TIP3   OH219124   2.335   5.075   0.271 -0.0083 -0.1246 -0.0072
 6387TIP3    H119125   2.421   5.092   0.234 -0.0121  1.3139  0.5728
 6387TIP3    H219126   2.337   4.983   0.295  1.7706  0.1170  0.9687
 6388TIP3   OH219127   5.817   5.493   1.596 -0.1917 -0.2889 -0.2379
 6388TIP3    H119128   5.809   5.512   1.690 -0.0428  0.9687 -0.4608
 6388TIP3    H219129   5.776   5.569   1.553  1.8098  0.2996 -1.2157
 6389TIP3   OH219130   1.584   3.935   2.085  0.0441 -0.2984 -0.1705
 6389TIP3    H119131   1.528   3.877   2.136  1.8280 -1.4529  0.5695
 6389TIP3    H219132   1.631   3.877   2.025 -1.0570  0.8825 -2.3278
 6390TIP3   OH219133   6.373   3.215   3.909 -0.1922 -0.2615  0.2855
 6390TIP3    H119134   6.444   3.208   3.844  0.2587 -0.9315  0.8367
 6390TIP3    H219135   6.400   3.287   3.966  0.5267 -1.1207  1.0567
 6391TIP3   OH219136   0.730   0.443   2.757  0.0292 -0.1685  0.0985
 6391TIP3    H119137   0.653   0.491   2.788  0.8475  0.8878  0.5775
 6391TIP3    H219138   0.755   0.488   2.677 -0.8827 -1.6342 -1.0531
 6392TIP3   OH219139   2.158   6.442   0.363 -0.0395  0.7727  0.0925
 6392TIP3    H119140   2.179   6.479   0.277  1.1763 -1.7644 -0.7993
 6392TIP3    H219141   2.227   6.474   0.421  0.0990  1.1389 -0.2714
 6393TIP3   OH219142   1.377   5.552   1.817 -0.4291 -0.5868  0.5394
 6393TIP3    H119143   1.390   5.610   1.741  0.3449 -4.3658 -2.5012
 6393TIP3    H219144   1.284   5.558   1.836 -0.4485  1.2698  0.1299
 6394TIP3   OH219145   7.202   6.609   4.529 -0.3993 -0.0085 -0.6334
 6394TIP3    H119146   7.206   6.688   4.583 -0.6932 -2.4893  3.4588
 6394TIP3    H219147   7.109   6.591   4.521 -0.2983 -0.7163 -0.2371
 6395TIP3   OH219148   6.456   6.486   0.391 -0.2394  0.7425  0.1469
 6395TIP3    H119149   6.547   6.500   0.364 -0.3231 -1.6901 -1.6795
 6395TIP3    H219150   6.463   6.434   0.471 -0.0672  2.3667  1.2392
 6396TIP3   OH219151   0.162   5.269   4.929  0.4417 -0.3016 -0.3606
 6396TIP3    H119152   0.238   5.255   4.872  1.2745  0.9318  0.4039
 6396TIP3    H219153   0.171   5.359   4.960 -0.4890 -0.6408  0.9806
 6397TIP3   OH219154   3.663   4.201   4.892 -0.9543  0.1680  0.1838
 6397TIP3    H119155   3.688   4.183   4.801  0.9922  2.1638  0.2300
 6397TIP3    H219156   3.723   4.147   4.944 -1.1110  0.0998  0.2947
 6398TIP3   OH219157   1.919   5.609   2.422 -0.5872 -0.1928  0.0068
 6398TIP3    H119158   1.921   5.585   2.330 -1.7124 -0.7625  0.1241
 6398TIP3    H219159   1.960   5.696   2.425 -0.0394 -0.4081 -0.9373
 6399TIP3   OH219160   0.317   0.383   1.965 -0.2718  0.0481 -0.0147
 6399TIP3    H119161   0.351   0.468   1.991 -0.1961  0.3095 -0.9645
 6399TIP3    H219162   0.391   0.323   1.977  0.2938  0.4688 -1.2520
 6400TIP3   OH219163   1.252   2.005   2.973 -0.0900  0.1288  0.2517
 6400TIP3    H119164   1.161   2.034   2.970  0.0136  0.4067 -0.6486
 6400TIP3    H219165   1.290   2.039   2.892  0.8686  0.1836  0.7108
 6401TIP3   OH219166   4.317   5.646   2.120 -0.1786  0.6106  0.1278
 6401TIP3    H119167   4.287   5.596   2.044  0.4343  0.3733  0.0345
 6401TIP3    H219168   4.347   5.579   2.182 -1.1048  0.7763  0.7755
 6402TIP3   OH219169   6.709   1.767   2.098 -0.0751 -0.5084  0.1713
 6402TIP3    H119170   6.619   1.775   2.131 -1.1839 -0.9332 -2.4192
 6402TIP3    H219171   6.761   1.820   2.157 -2.0574 -0.1344  1.7048
 6403TIP3   OH219172   5.855   4.316   1.435 -0.0044  0.4903  0.1515
 6403TIP3    H119173   5.918   4.346   1.501  0.8774 -0.3702 -0.2721
 6403TIP3    H219174   5.854   4.221   1.444 -1.2695  0.4829  0.1494
 6404TIP3   OH219175   2.551   3.779   0.392 -0.2040  0.4125  0.1057
 6404TIP3    H119176   2.607   3.781   0.314  0.9992  1.0013  0.9565
 6404TIP3    H219177   2.551   3.687   0.420  3.4189  0.8549  2.1800
 6405TIP3   OH219178   5.739   2.874   2.367 -0.6561  0.2942 -0.6475
 6405TIP3    H119179   5.696   2.881   2.282 -2.7279  0.4865  0.3412
 6405TIP3    H219180   5.828   2.904   2.352 -0.6045 -0.7985 -2.9828
 6406TIP3   OH219181   0.745   0.013   1.403 -0.2850 -0.1079  0.1221
 6406TIP3    H119182   0.690   0.086   1.431 -0.5658 -0.7233  1.2392
 6406TIP3    H219183   0.700  -0.022   1.326 -0.3793  0.6220 -0.1625
 6407TIP3   OH219184   5.360   3.358   0.576  0.1065 -0.0390  0.4108
 6407TIP3    H119185   5.285   3.410   0.546  1.7400  1.5011 -1.1964
 6407TIP3    H219186   5.386   3.398   0.659 -0.5812 -0.3470  0.7862
 6408TIP3   OH219187   6.813   2.411   1.025  0.2068 -0.0394 -0.3441
 6408TIP3    H119188   6.843   2.331   0.983  0.0915  0.2365 -0.9523
 6408TIP3    H219189   6.881   2.431   1.090  0.4471 -0.3939 -0.4865
 6409TIP3   OH219190   2.103   2.617   3.557 -0.5421  0.2237  0.2368
 6409TIP3    H119191   2.016   2.582   3.577 -0.8913  0.7488 -0.3348
 6409TIP3    H219192   2.162   2.542   3.567 -0.9975 -0.0386  1.0415
 6410TIP3   OH219193   5.340   0.821   2.155 -0.0248  0.1251 -0.4541
 6410TIP3    H119194   5.317   0.763   2.228  1.1965 -0.9276 -0.8769
 6410TIP3    H219195   5.291   0.901   2.173 -1.4253 -0.8586  0.3898
 6411TIP3   OH219196   5.126   0.659   1.825  0.8045  0.0300 -0.1500
 6411TIP3    H119197   5.077   0.616   1.895 -0.9159  1.4390 -0.4156
 6411TIP3    H219198   5.133   0.750   1.853  1.2926  0.3170 -1.1757
 6412TIP3   OH219199   0.454   2.211   1.706 -0.3328 -0.9169  0.1483
 6412TIP3    H119200   0.378   2.268   1.715  0.1361 -0.4289  1.1755
 6412TIP3    H219201   0.514   2.260   1.649  0.1437 -0.2722  1.1711
 6413TIP3   OH219202   6.164   1.134   3.777 -0.2393 -0.2196  0.0873
 6413TIP3    H119203   6.181   1.228   3.780  1.1055 -0.4664  0.8898
 6413TIP3    H219204   6.235   1.097   3.725 -1.2560 -0.7142 -1.0059
 6414TIP3   OH219205   2.186   0.101   3.094  0.1504  0.3338  0.0786
 6414TIP3    H119206   2.151   0.189   3.110  0.1720  0.2824  0.4232
 6414TIP3    H219207   2.197   0.097   2.999  0.8650  0.9779  0.1218
 6415TIP3   OH219208   3.411   1.201   4.789 -0.0670  0.3947 -0.1317
 6415TIP3    H119209   3.439   1.156   4.709 -0.9976 -1.1987  0.3917
 6415TIP3    H219210   3.477   1.177   4.854  1.2553  2.5015 -0.5886
 6416TIP3   OH219211   1.025   1.934   5.508 -0.2615  0.1526 -0.3253
 6416TIP3    H119212   1.011   1.909   5.600 -0.9911  3.3529  0.5845
 6416TIP3    H219213   0.937   1.953   5.476  0.1022  0.1569 -1.3354
 6417TIP3   OH219214   3.197   6.101   1.538 -0.4405  0.1055 -0.3034
 6417TIP3    H119215   3.290   6.089   1.558 -0.5544  0.7447  0.6958
 6417TIP3    H219216   3.162   6.012   1.533 -0.1898 -0.1467  1.4923
 6418TIP3   OH219217   0.126   3.551   5.151  0.0921  0.2168 -0.1030
 6418TIP3    H119218   0.034   3.543   5.125 -0.1912  2.3696  0.0288
 6418TIP3    H219219   0.160   3.623   5.098  2.9245 -2.9788 -3.0960
 6419TIP3   OH219220   4.827   4.516   5.074 -0.6520  0.2949 -0.1390
 6419TIP3    H119221   4.914   4.479   5.060 -0.1869  1.7513 -1.3421
 6419TIP3    H219222   4.789   4.463   5.144  0.3952 -1.6760 -1.0031
 6420TIP3   OH219223   1.208   6.684   1.813 -0.3191 -0.5875 -0.2731
 6420TIP3    H119224   1.272   6.645   1.873 -1.1379 -0.9002  0.4099
 6420TIP3    H219225   1.175   6.611   1.762 -1.2945 -0.6937  0.4825
 6421TIP3   OH219226   5.983   1.207   1.208  0.2497  0.0815 -0.1149
 6421TIP3    H119227   6.058   1.213   1.267  0.6594  1.0297 -0.7073
 6421TIP3    H219228   5.930   1.136   1.244  1.2974 -0.4353  0.4552
 6422TIP3   OH219229   5.328   0.087   5.868  0.0403  0.3613 -0.1215
 6422TIP3    H119230   5.357   0.169   5.908 -0.1335  0.2605  0.2148
 6422TIP3    H219231   5.291   0.113   5.783  0.5190  0.5625 -0.2693
 6423TIP3   OH219232   5.815   4.314   3.802 -0.0864 -0.7823 -0.1242
 6423TIP3    H119233   5.901   4.327   3.761  0.2994 -0.2766  0.7991
 6423TIP3    H219234   5.832   4.253   3.874 -0.2589  0.2050  0.7783
 6424TIP3   OH219235   5.151   5.255   2.935  0.4716  0.0199  0.4930
 6424TIP3    H119236   5.176   5.327   2.994 -0.9945  0.4203  0.6567
 6424TIP3    H219237   5.092   5.201   2.987 -1.7531  0.9796 -0.8682
 6425TIP3   OH219238   0.166   0.291   3.386  0.5297 -0.6298 -0.0473
 6425TIP3    H119239   0.215   0.248   3.316  2.0856  0.8831  0.0415
 6425TIP3    H219240   0.152   0.380   3.354  0.4949 -0.1735  1.1851
 6426TIP3   OH219241   1.570   0.836   4.722  0.4861 -0.0431 -0.2682
 6426TIP3    H119242   1.575   0.911   4.780  0.9853 -0.1566 -0.1625
 6426TIP3    H219243   1.652   0.838   4.673  0.2184 -0.1414 -0.7354
 6427TIP3   OH219244   6.684   2.458   2.321 -0.2705  0.0984 -0.2529
 6427TIP3    H119245   6.754   2.440   2.258  0.9106  1.0945  0.7273
 6427TIP3    H219246   6.607   2.476   2.267 -0.1533 -2.2175 -1.3506
 6428TIP3   OH219247   5.043   1.719   1.699  1.1286 -0.1783 -0.1081
 6428TIP3    H119248   4.950   1.738   1.711  1.1017 -1.5258  2.5346
 6428TIP3    H219249   5.078   1.797   1.656 -1.0128  0.8135 -0.1861
 6429TIP3   OH219250   1.921   0.676   1.896  0.1271  0.6123  0.2470
 6429TIP3    H119251   1.869   0.677   1.976  0.9828 -0.4609  0.8557
 6429TIP3    H219252   1.859   0.693   1.825 -0.9229 -0.0339  1.0020
 6430TIP3   OH219253   5.835   0.816   1.638 -0.4340 -0.0817  0.0332
 6430TIP3    H119254   5.813   0.736   1.590  0.0315  0.5383 -1.2541
 6430TIP3    H219255   5.784   0.884   1.594 -0.2011  0.4636  0.6002
 6431TIP3   OH219256   1.867   0.391   0.035  0.3673 -0.7639  0.0737
 6431TIP3    H119257   1.795   0.449   0.057 -0.1867 -0.9089 -1.2399
 6431TIP3    H219258   1.882   0.340   0.114  0.3588  0.6235  1.0022
 6432TIP3   OH219259   3.108   4.918   1.377  0.0334 -1.0210  0.3009
 6432TIP3    H119260   3.153   4.942   1.296  0.8438 -2.4895  0.2768
 6432TIP3    H219261   3.176   4.917   1.444 -0.8178  1.2545  1.2907
 6433TIP3   OH219262   0.131   1.795   2.800 -0.0984  0.2289  0.4022
 6433TIP3    H119263   0.061   1.731   2.811  0.6460 -0.7995 -0.7131
 6433TIP3    H219264   0.154   1.820   2.890 -0.8060 -0.6092  0.8318
 6434TIP3   OH219265   1.446   4.200   2.858 -0.0227 -0.8234 -0.2299
 6434TIP3    H119266   1.353   4.204   2.834 -0.1880 -1.4305  0.2858
 6434TIP3    H219267   1.446   4.210   2.953  0.5615  0.7427 -0.3637
 6435TIP3   OH219268   0.477   2.267   5.252  0.2114  0.1154  0.4413
 6435TIP3    H119269   0.568   2.293   5.268 -0.1319  1.9653 -0.3825
 6435TIP3    H219270   0.457   2.302   5.165 -1.7802  1.2117  1.2742
 6436TIP3   OH219271   1.352   2.105   3.230  0.3759 -0.1634  0.0538
 6436TIP3    H119272   1.357   2.050   3.151 -2.3627 -0.6879  0.1583
 6436TIP3    H219273   1.325   2.045   3.299  0.9422  0.6441  0.9899
 6437TIP3   OH219274   0.728   4.371   5.475  0.4006  0.1101 -0.1087
 6437TIP3    H119275   0.762   4.284   5.454 -1.0005 -1.3778  3.0337
 6437TIP3    H219276   0.653   4.382   5.416  0.4601 -0.9202 -0.3964
 6438TIP3   OH219277   2.946   6.735   2.910 -0.4633  0.0428 -0.0379
 6438TIP3    H119278   2.856   6.764   2.904 -0.0625  1.0572 -1.8756
 6438TIP3    H219279   2.954   6.666   2.844  0.2191  0.3151 -0.2534
 6439TIP3   OH219280   3.056   2.262   3.636 -0.3768  0.2975  0.4467
 6439TIP3    H119281   3.058   2.168   3.617  0.0577  0.3157  0.3995
 6439TIP3    H219282   3.055   2.267   3.732  0.3899  0.2532  0.4639
 6440TIP3   OH219283   5.774   0.949   0.781  0.2786 -0.3445  0.0878
 6440TIP3    H119284   5.817   1.014   0.724  0.2912 -0.1894  0.2742
 6440TIP3    H219285   5.835   0.875   0.782 -0.3669 -0.9195 -1.2311
 6441TIP3   OH219286   5.532   0.912   5.814  0.3348 -0.3438 -0.2551
 6441TIP3    H119287   5.442   0.945   5.814  0.5078  0.1431 -0.6590
 6441TIP3    H219288   5.565   0.933   5.902  0.2635  0.0716 -0.3259
 6442TIP3   OH219289   5.716   5.910   5.155  0.3451 -0.2953 -0.3869
 6442TIP3    H119290   5.626   5.918   5.187  0.0808  0.1485 -1.2239
 6442TIP3    H219291   5.744   6.001   5.141  2.2597 -0.0920  3.4051
 6443TIP3   OH219292   3.813   2.432   2.663  0.3011  0.4637  0.1505
 6443TIP3    H119293   3.830   2.379   2.585 -1.5292  1.0227 -0.6987
 6443TIP3    H219294   3.793   2.368   2.731  0.3892 -0.0017 -0.2543
 6444TIP3   OH219295   3.955   5.780   5.524 -0.1954  0.5036  0.2306
 6444TIP3    H119296   3.900   5.703   5.507 -0.4469  0.4319  1.3251
 6444TIP3    H219297   3.934   5.805   5.614  1.3883  0.6271  0.5889
 6445TIP3   OH219298   5.765   2.140   4.379 -0.7100 -0.0966 -0.1325
 6445TIP3    H119299   5.719   2.058   4.393 -0.1495 -0.5386 -0.8182
 6445TIP3    H219300   5.797   2.165   4.465 -1.4172 -0.2673  0.1865
 6446TIP3   OH219301   1.993   4.396   3.298  0.4376  0.1842 -0.6201
 6446TIP3    H119302   2.002   4.320   3.355 -0.8352  0.0990 -0.5117
 6446TIP3    H219303   2.074   4.397   3.247  1.5114  0.1374  1.0126
 6447TIP3   OH219304   2.977   2.504   2.904 -0.2400  0.3590  0.2883
 6447TIP3    H119305   3.015   2.462   2.981 -1.4124  0.4477  0.9360
 6447TIP3    H219306   2.886   2.472   2.901 -0.2084  0.3378 -1.0736
 6448TIP3   OH219307   2.029   2.367   3.764 -0.7728  0.4626  0.0919
 6448TIP3    H119308   1.981   2.290   3.736 -0.7043  0.4923 -0.1044
 6448TIP3    H219309   2.083   2.336   3.837 -0.0986  0.1209 -0.5369
 6449TIP3   OH219310   1.054   5.977   4.684 -0.0177  0.5994  0.2159
 6449TIP3    H119311   1.015   6.057   4.649  0.1769  0.3123 -0.6833
 6449TIP3    H219312   1.056   5.991   4.779  1.5394  2.3842 -0.0144
 6450TIP3   OH219313   3.432   1.105   0.354  0.2282 -0.6320  0.2992
 6450TIP3    H119314   3.510   1.113   0.298 -0.3627 -0.8136 -0.5717
 6450TIP3    H219315   3.358   1.116   0.294 -0.4405 -1.6674  0.9042
 6451TIP3   OH219316   5.293   3.390   3.770  0.5791 -0.0492 -0.4792
 6451TIP3    H119317   5.292   3.393   3.674 -0.3824  0.8622 -0.4595
 6451TIP3    H219318   5.361   3.326   3.791  0.5849 -0.5007 -1.7686
 6452TIP3   OH219319   6.004   2.601   5.736 -0.0745  0.2041  0.2505
 6452TIP3    H119320   6.044   2.577   5.652 -1.2101 -0.2574 -0.1867
 6452TIP3    H219321   6.074   2.643   5.785  0.8061 -0.1587 -0.6578
 6453TIP3   OH219322   1.409   5.100   0.903  1.0558 -0.2847 -0.4835
 6453TIP3    H119323   1.439   5.024   0.854  1.1174 -0.2905 -0.4372
 6453TIP3    H219324   1.322   5.118   0.868  1.1302 -0.2430 -0.6453
 6454TIP3   OH219325   4.558   0.537   0.932  0.4925  0.2598 -0.7920
 6454TIP3    H119326   4.653   0.544   0.926  0.7093 -0.8350  0.6822
 6454TIP3    H219327   4.533   0.594   1.004 -0.0339  0.8607 -1.4352
 6455TIP3   OH219328   0.946   0.936   1.215  0.2528 -0.4932  0.9146
 6455TIP3    H119329   0.865   0.976   1.248 -0.8855  0.5887 -2.6798
 6455TIP3    H219330   0.916   0.862   1.161  1.6669 -0.3447 -0.1351
 6456TIP3   OH219331   4.940   2.618   1.149 -0.0484 -0.4582  0.2920
 6456TIP3    H119332   4.861   2.580   1.110  0.5479  0.6444 -2.1875
 6456TIP3    H219333   4.915   2.637   1.240 -2.5455 -0.3468 -0.3517
 6457TIP3   OH219334   4.938   1.611   4.432  0.0839  0.1250 -0.5855
 6457TIP3    H119335   4.908   1.686   4.484  1.3437  1.0948 -1.1923
 6457TIP3    H219336   4.932   1.536   4.492  1.5359  1.2065  1.0192
 6458TIP3   OH219337   2.708   5.291   1.795 -0.3854 -0.0703  0.4782
 6458TIP3    H119338   2.709   5.215   1.854  2.0326  1.2720  2.3349
 6458TIP3    H219339   2.621   5.329   1.806 -0.0559  0.0638  3.1815
 6459TIP3   OH219340   6.009   5.219   1.148  0.0969 -0.4393 -0.4431
 6459TIP3    H119341   6.056   5.219   1.230 -2.7020 -0.5016  1.3034
 6459TIP3    H219342   5.933   5.276   1.163 -1.7187 -2.2145 -2.1346
 6460TIP3   OH219343   4.642   3.912   1.012 -0.5796  0.4032 -0.3233
 6460TIP3    H119344   4.627   3.942   1.101 -0.1276 -0.0906 -0.0727
 6460TIP3    H219345   4.620   3.819   1.015  1.4370 -0.1228 -0.1914
 6461TIP3   OH219346   3.190   4.133   2.277  0.3525 -0.3438  0.3607
 6461TIP3    H119347   3.258   4.190   2.311  1.0313 -1.8677  1.7204
 6461TIP3    H219348   3.177   4.162   2.187  1.8477  0.8481  0.4874
 6462TIP3   OH219349   5.222   4.708   0.428  0.0784 -0.4926  0.0420
 6462TIP3    H119350   5.207   4.782   0.487 -0.7262 -0.5454 -0.0748
 6462TIP3    H219351   5.316   4.707   0.412  0.0853  0.5578 -0.0176
 6463TIP3   OH219352   4.578   2.723   5.425  0.6948 -0.3228  0.5554
 6463TIP3    H119353   4.484   2.719   5.407  0.4744 -0.0406  1.6146
 6463TIP3    H219354   4.610   2.792   5.367  0.0135  0.4963  1.1335
 6464TIP3   OH219355   6.747   2.871   1.350 -0.1459  0.1680  0.0015
 6464TIP3    H119356   6.836   2.907   1.355 -0.4438  0.8621  4.0239
 6464TIP3    H219357   6.691   2.948   1.338 -0.3241  0.1253  0.5155
 6465TIP3   OH219358   2.257   6.561   4.444 -0.6681  0.1276 -0.1091
 6465TIP3    H119359   2.218   6.479   4.473 -0.4101 -0.2328 -0.7465
 6465TIP3    H219360   2.247   6.560   4.348 -0.9357  0.9802 -0.1031
 6466TIP3   OH219361   6.452   6.648   4.048  0.0762 -0.3425 -0.4583
 6466TIP3    H119362   6.494   6.733   4.038 -0.0789 -0.3137 -0.8847
 6466TIP3    H219363   6.524   6.589   4.073  0.4135 -0.3388 -1.3962
 6467TIP3   OH219364   0.969   5.027   4.752 -0.5544 -0.0013 -0.3722
 6467TIP3    H119365   0.970   5.054   4.660 -0.2766 -0.3153 -0.4627
 6467TIP3    H219366   0.903   4.957   4.755 -0.7956  0.2287 -0.2670
 6468TIP3   OH219367   3.238   5.402   4.532 -0.1857  0.2150 -0.2158
 6468TIP3    H119368   3.169   5.456   4.571  0.0891  0.8369 -0.5730
 6468TIP3    H219369   3.227   5.316   4.572 -1.2151  0.2863 -0.3184
 6469TIP3   OH219370   0.849   6.057   1.285  0.3004 -0.2445  0.2009
 6469TIP3    H119371   0.918   6.056   1.352 -0.9087 -1.6062  1.4827
 6469TIP3    H219372   0.770   6.083   1.332 -0.2716  0.3523 -1.0483
 6470TIP3   OH219373   5.621   2.856   4.082  0.2073 -0.7032 -0.1813
 6470TIP3    H119374   5.656   2.767   4.091 -3.2190 -2.3450 -1.3476
 6470TIP3    H219375   5.535   2.853   4.123  1.5491  3.4484  3.7851
 6471TIP3   OH219376   4.176   6.741   0.292 -0.5699  0.2318  0.0895
 6471TIP3    H119377   4.091   6.701   0.312 -0.6379  0.5923  0.5773
 6471TIP3    H219378   4.209   6.769   0.378 -0.4300  1.0027 -0.2021
 6472TIP3   OH219379   1.588   0.389   4.171  0.4891  0.1729 -0.1050
 6472TIP3    H119380   1.568   0.340   4.091 -0.2190  1.6127 -0.8399
 6472TIP3    H219381   1.668   0.437   4.151  0.7393 -0.0538  0.3359
 6473TIP3   OH219382   3.243   6.709   2.076  0.2262 -0.0700  0.0369
 6473TIP3    H119383   3.176   6.646   2.051 -1.1158  1.1677  0.3700
 6473TIP3    H219384   3.219   6.736   2.165  1.1925  0.3657  0.1816
 6474TIP3   OH219385   4.413   3.274   5.446  0.1663 -0.1418 -0.4991
 6474TIP3    H119386   4.413   3.369   5.459  0.4777 -0.2906  0.6530
 6474TIP3    H219387   4.485   3.242   5.500  0.1042 -1.0364 -0.9237
 6475TIP3   OH219388   3.793   0.721   1.937 -0.3481  0.1398  0.6798
 6475TIP3    H119389   3.736   0.652   1.903 -1.2707 -0.2259  2.8153
 6475TIP3    H219390   3.739   0.799   1.938  0.2269  0.5698 -0.3036
 6476TIP3   OH219391   1.351   1.662   2.108  0.3445 -0.6297  0.4885
 6476TIP3    H119392   1.410   1.593   2.138  0.2287 -1.0857 -0.3107
 6476TIP3    H219393   1.291   1.618   2.048  0.8650  0.3424 -0.7799
 6477TIP3   OH219394   3.457   6.236   2.871  0.5653  0.1020 -0.1609
 6477TIP3    H119395   3.533   6.290   2.850  1.0706 -1.2816 -2.2184
 6477TIP3    H219396   3.382   6.294   2.860  0.9730  0.1918 -3.7547
 6478TIP3   OH219397   0.740   2.797   2.476 -0.2996 -0.2423  0.0449
 6478TIP3    H119398   0.648   2.777   2.490 -0.2342 -0.3566  0.3232
 6478TIP3    H219399   0.783   2.711   2.470 -0.1381 -0.1908  0.4261
 6479TIP3   OH219400   2.150   1.751   5.282 -0.1786  0.6253  0.0346
 6479TIP3    H119401   2.153   1.668   5.235  1.0066  1.8899 -2.2778
 6479TIP3    H219402   2.211   1.739   5.355 -0.3369 -0.6499 -0.0204
 6480TIP3   OH219403   7.030   2.997   5.275  0.4016  0.0645  0.1467
 6480TIP3    H119404   7.123   2.987   5.297  0.2410  0.8403  1.2465
 6480TIP3    H219405   7.026   3.080   5.227  0.3213 -0.1284 -0.1788
 6481TIP3   OH219406   5.414   2.248   0.227 -0.2916 -0.1672  0.2876
 6481TIP3    H119407   5.363   2.240   0.147  0.4740 -1.2637 -0.1211
 6481TIP3    H219408   5.489   2.302   0.203  0.2753 -1.0278  0.0670
 6482TIP3   OH219409   2.600   3.727   3.383  0.1034 -0.4272 -0.2711
 6482TIP3    H119410   2.508   3.705   3.368 -0.3894  2.2042 -1.8358
 6482TIP3    H219411   2.646   3.694   3.306  0.1589 -0.1337 -0.3643
 6483TIP3   OH219412   0.953   4.847   2.670  0.9017 -0.0757 -0.0472
 6483TIP3    H119413   1.004   4.928   2.662  1.1478 -0.0235  1.5514
 6483TIP3    H219414   1.015   4.783   2.705  0.0832 -0.2109  1.2426
 6484TIP3   OH219415   4.990   0.135   1.057  0.4463  0.4426 -0.1927
 6484TIP3    H119416   4.912   0.174   1.096  0.6723 -0.0346  0.7723
 6484TIP3    H219417   5.048   0.209   1.038  1.2460  0.5774  2.4506
 6485TIP3   OH219418   1.484   1.309   4.255 -0.0216  0.4950 -0.1155
 6485TIP3    H119419   1.554   1.250   4.281  0.0588  0.2210 -0.9343
 6485TIP3    H219420   1.469   1.290   4.162  0.2103  1.9518 -0.4786
 6486TIP3   OH219421   1.369   3.269   2.770  0.2761 -0.1680 -0.5524
 6486TIP3    H119422   1.336   3.358   2.779  2.3358  0.5973 -0.1220
 6486TIP3    H219423   1.325   3.220   2.840 -1.5381  0.2487 -1.3427
 6487TIP3   OH219424   0.745   4.821   4.809 -0.5590 -0.1809 -0.1320
 6487TIP3    H119425   0.698   4.742   4.783  1.8559 -2.2563  1.3461
 6487TIP3    H219426   0.710   4.843   4.895 -0.8624  0.0543 -0.3141
 6488TIP3   OH219427   4.044   5.436   4.424  0.2242 -0.1589  0.5390
 6488TIP3    H119428   4.066   5.456   4.515  0.6235 -1.4938  0.7586
 6488TIP3    H219429   4.068   5.344   4.413 -0.7784 -0.3081 -0.6225
 6489TIP3   OH219430   4.431   2.587   0.516  0.4983  0.3918  0.0267
 6489TIP3    H119431   4.421   2.540   0.433  0.5480  0.1165  0.1773
 6489TIP3    H219432   4.476   2.668   0.492 -0.1098  0.6409 -0.3289
 6490TIP3   OH219433   5.769   3.838   1.602  0.4463  0.0489  0.3807
 6490TIP3    H119434   5.772   3.836   1.698 -0.9600 -0.7035  0.4321
 6490TIP3    H219435   5.816   3.760   1.574  0.0900 -0.2087  0.4932
 6491TIP3   OH219436   0.316   1.894   5.132  0.1059 -0.4264 -0.2856
 6491TIP3    H119437   0.272   1.833   5.192 -1.4052  0.4646 -0.4449
 6491TIP3    H219438   0.299   1.857   5.045 -0.1903 -0.1812 -0.3343
 6492TIP3   OH219439   7.029   0.458   4.806  0.2133 -0.2578  0.0472
 6492TIP3    H119440   7.087   0.499   4.741  0.0887 -1.4605 -0.8711
 6492TIP3    H219441   7.026   0.520   4.878  1.2480  0.6286 -0.6334
 6493TIP3   OH219442   6.582   4.201   4.571  0.2977 -0.6127 -0.7290
 6493TIP3    H119443   6.502   4.252   4.575 -1.4139 -3.0906  3.3490
 6493TIP3    H219444   6.589   4.172   4.480 -1.7121  2.0554 -1.8460
 6494TIP3   OH219445   2.591   4.626   3.507  0.2556 -0.5794 -0.3025
 6494TIP3    H119446   2.596   4.652   3.415  2.4133  0.9265  0.1683
 6494TIP3    H219447   2.673   4.658   3.546 -0.2622 -1.8082  1.9972
 6495TIP3   OH219448   5.795   2.037   3.635  0.6163  0.1435 -0.8780
 6495TIP3    H119449   5.748   1.974   3.581 -0.1078 -0.1656  0.0801
 6495TIP3    H219450   5.799   1.996   3.722 -1.7462  2.2516  0.3594
 6496TIP3   OH219451   1.331   0.486   4.774  0.2103  0.1825 -0.4607
 6496TIP3    H119452   1.421   0.493   4.807  0.8324 -1.8380 -1.5963
 6496TIP3    H219453   1.289   0.422   4.831  0.8616 -2.2332 -2.5388
 6497TIP3   OH219454   2.358   0.900   3.480 -0.0332  0.0526 -0.3210
 6497TIP3    H119455   2.423   0.962   3.447 -0.4509 -0.4391 -2.1570
 6497TIP3    H219456   2.275   0.934   3.448 -0.5311 -0.2283  0.6270
 6498TIP3   OH219457   2.149   1.882   5.030  0.1600  0.0892 -0.3608
 6498TIP3    H119458   2.214   1.829   5.074 -0.7206  0.5256  1.5967
 6498TIP3    H219459   2.144   1.846   4.941  1.1914 -1.5926  0.2192
 6499TIP3   OH219460   1.705   4.337   0.600  0.1361  0.3090  0.1323
 6499TIP3    H119461   1.667   4.288   0.673 -0.6536  1.4126  0.4949
 6499TIP3    H219462   1.784   4.376   0.637  0.2946  0.0240  0.0959
 6500TIP3   OH219463   2.712   6.187   4.990 -0.2411 -0.0430  0.6123
 6500TIP3    H119464   2.710   6.281   4.975  1.7218  0.0699  0.8203
 6500TIP3    H219465   2.622   6.165   5.013 -0.6692  1.8263  0.9075
 6501TIP3   OH219466   6.770   4.720   1.465  0.2129 -0.2850 -0.1559
 6501TIP3    H119467   6.692   4.681   1.505  0.4058  0.2259  0.7397
 6501TIP3    H219468   6.787   4.666   1.387 -1.0707 -0.3555 -0.4081
 6502TIP3   OH219469   6.351   1.365   5.158 -0.0135  0.2459 -0.3727
 6502TIP3    H119470   6.412   1.438   5.161 -0.2999  0.4665  0.2126
 6502TIP3    H219471   6.264   1.405   5.157 -0.2521 -0.0570  1.9766
 6503TIP3   OH219472   4.336   2.005   3.373 -0.0036  0.2933  0.4206
 6503TIP3    H119473   4.383   2.073   3.422  0.0261  0.4614  0.1587
 6503TIP3    H219474   4.344   2.031   3.281 -0.9925  0.5653  0.4033
 6504TIP3   OH219475   6.261   3.821   1.913  0.0698 -0.2083  0.4718
 6504TIP3    H119476   6.190   3.855   1.966 -0.3336  1.6043 -1.1161
 6504TIP3    H219477   6.279   3.890   1.849  1.5349 -1.6554 -0.7880
 6505TIP3   OH219478   4.158   5.476   1.198 -0.0010 -0.3375  0.2695
 6505TIP3    H119479   4.230   5.536   1.175 -1.2477  0.6660 -1.2052
 6505TIP3    H219480   4.202   5.393   1.218  1.6255  0.4936  0.3635
 6506TIP3   OH219481   6.742   2.733   3.767 -0.2772  0.2204 -0.0592
 6506TIP3    H119482   6.817   2.782   3.799  0.0019 -0.3675  0.1964
 6506TIP3    H219483   6.774   2.644   3.755 -0.9851 -0.0852  0.2533
 6507TIP3   OH219484   5.272   5.149   3.674 -0.4690  0.5016  0.0895
 6507TIP3    H119485   5.358   5.137   3.633 -0.9599  1.4742 -1.2697
 6507TIP3    H219486   5.212   5.100   3.618 -1.0947  1.5294 -0.1604
 6508TIP3   OH219487   4.397   4.655   4.328  0.1779  0.4239 -0.4461
 6508TIP3    H119488   4.469   4.597   4.303  0.2350 -0.1636  0.9941
 6508TIP3    H219489   4.430   4.704   4.403 -0.2882  1.5082 -0.9256
 6509TIP3   OH219490   0.486   3.868   3.923 -0.1057  0.6555  0.2550
 6509TIP3    H119491   0.574   3.904   3.927 -0.6119  2.0985 -0.6773
 6509TIP3    H219492   0.442   3.902   4.001  0.0796  0.1260  0.5969
 6510TIP3   OH219493   3.777   6.541   1.949 -0.1226  0.1266  0.6840
 6510TIP3    H119494   3.767   6.446   1.952 -0.1946  0.1374  0.8053
 6510TIP3    H219495   3.723   6.573   2.022 -0.1336  0.2625  0.6171
 6511TIP3   OH219496   0.948   3.883   3.417  0.5205 -0.0719  0.5682
 6511TIP3    H119497   1.035   3.900   3.451  0.7316 -0.8584  0.4377
 6511TIP3    H219498   0.923   3.800   3.455 -0.0225 -0.0306  0.3102
 6512TIP3   OH219499   4.563   3.556   3.981  0.4298 -0.5372  0.1102
 6512TIP3    H119500   4.556   3.495   4.054 -0.7537  0.5621  0.9651
 6512TIP3    H219501   4.566   3.643   4.022 -2.0741  0.2543 -1.1081
 6513TIP3   OH219502   2.863   3.723   3.091  0.2400  0.1536  0.2198
 6513TIP3    H119503   2.889   3.633   3.071 -0.3136  0.0693 -0.1406
 6513TIP3    H219504   2.776   3.732   3.053 -0.1274  0.5359  1.1168
 6514TIP3   OH219505   2.105   0.860   2.425  0.3700 -0.3289 -0.7807
 6514TIP3    H119506   2.055   0.778   2.429 -0.0455 -0.0337  1.7293
 6514TIP3    H219507   2.190   0.838   2.464 -0.1465  0.6601  0.9679
 6515TIP3   OH219508   2.336   1.151   1.724 -0.0997  0.2931 -0.1321
 6515TIP3    H119509   2.318   1.069   1.679  3.1834 -0.1819 -0.8493
 6515TIP3    H219510   2.358   1.125   1.814  0.0883  0.4880 -0.1211
 6516TIP3   OH219511   6.993   5.831   5.301 -0.2575  0.1903 -0.0567
 6516TIP3    H119512   6.939   5.759   5.270  0.4048 -0.6447  0.7081
 6516TIP3    H219513   7.016   5.808   5.391  0.7038  0.9162 -0.0973
 6517TIP3   OH219514   1.418   4.787   4.274 -0.0250  0.0291 -0.3725
 6517TIP3    H119515   1.387   4.853   4.336 -0.3529 -1.0948  0.6934
 6517TIP3    H219516   1.494   4.747   4.317 -0.2445 -0.7550 -0.6893
 6518TIP3   OH219517   6.559   2.796   2.245 -0.2490 -0.0964 -0.4510
 6518TIP3    H119518   6.545   2.720   2.189 -2.4744  0.7173 -1.0969
 6518TIP3    H219519   6.506   2.778   2.323  1.6966 -0.5630  0.8693
 6519TIP3   OH219520   5.320   3.051   2.644  0.3606  0.1495 -0.0342
 6519TIP3    H119521   5.340   2.959   2.626 -2.1676 -0.3405 -0.7812
 6519TIP3    H219522   5.283   3.051   2.733  1.5245  0.6763  0.4720
 6520TIP3   OH219523   6.416   2.996   1.364  0.4781 -0.0330  0.7132
 6520TIP3    H119524   6.380   3.021   1.279 -0.8850 -1.4866  0.8097
 6520TIP3    H219525   6.340   2.994   1.422  0.8057 -2.2304  1.1730
 6521TIP3   OH219526   5.049   0.729   3.257 -0.3850  0.0982 -1.0353
 6521TIP3    H119527   5.140   0.720   3.229 -0.3777  0.3175 -1.0856
 6521TIP3    H219528   5.012   0.792   3.195 -0.8801 -0.8645 -1.7386
 6522TIP3   OH219529   2.618   5.676   4.109 -0.9703  0.2247  0.2233
 6522TIP3    H119530   2.538   5.694   4.060  0.6916 -0.1783 -2.8567
 6522TIP3    H219531   2.675   5.751   4.091 -0.3406  0.1738  1.8069
 6523TIP3   OH219532   3.802   0.868   3.863 -0.1427 -0.2186  0.2754
 6523TIP3    H119533   3.755   0.938   3.909  0.7374  0.1778  0.5990
 6523TIP3    H219534   3.738   0.797   3.856 -1.1131  0.6829 -0.2375
 6524TIP3   OH219535   4.207   6.469   3.253 -0.1944 -0.5149  0.6012
 6524TIP3    H119536   4.249   6.404   3.310 -0.9642  1.9736  4.3632
 6524TIP3    H219537   4.166   6.531   3.313 -0.0214  3.1911 -2.6751
 6525TIP3   OH219538   1.250   2.120   4.813  0.5823 -0.1048 -0.3746
 6525TIP3    H119539   1.323   2.068   4.848  0.6446  0.2265 -0.0025
 6525TIP3    H219540   1.226   2.179   4.884  0.5112  0.3749 -0.7866
 6526TIP3   OH219541   0.699   5.677   3.753 -0.2958  0.2738  0.4755
 6526TIP3    H119542   0.752   5.745   3.711 -0.6128 -0.2840 -0.8816
 6526TIP3    H219543   0.737   5.595   3.723  0.6747 -0.2288  2.8397
 6527TIP3   OH219544   6.120   2.599   2.549  0.4062 -0.1338  0.8537
 6527TIP3    H119545   6.149   2.601   2.458 -1.7476 -1.2328  0.0568
 6527TIP3    H219546   6.045   2.539   2.548 -1.2365  1.7513  2.8536
 6528TIP3   OH219547   1.979   3.742   1.035 -0.1524 -0.0116  0.4188
 6528TIP3    H119548   2.023   3.792   0.966  0.8678  0.4939  1.4046
 6528TIP3    H219549   1.978   3.801   1.110 -0.8722 -0.7010  0.9613
 6529TIP3   OH219550   4.021   5.835   1.320 -0.2451  0.2823  0.3298
 6529TIP3    H119551   3.955   5.904   1.309 -0.0074  0.3842 -0.5100
 6529TIP3    H219552   4.086   5.853   1.252  1.0128  0.5899  1.5862
 6530TIP3   OH219553   2.711   0.617   4.517  0.2500 -0.3251  0.1554
 6530TIP3    H119554   2.685   0.625   4.426  0.0366 -1.9076  0.0428
 6530TIP3    H219555   2.793   0.569   4.515  0.6210  0.2625  0.7708
 6531TIP3   OH219556   1.842   0.892   0.400 -0.3927  0.3104  0.0273
 6531TIP3    H119557   1.831   0.808   0.355 -0.9311  0.2607  0.2392
 6531TIP3    H219558   1.921   0.930   0.362 -0.7576  0.2064 -0.8653
 6532TIP3   OH219559   2.365   5.933   4.796  0.0285  0.5968 -0.5054
 6532TIP3    H119560   2.391   6.024   4.807  0.0151  0.5124  0.2981
 6532TIP3    H219561   2.279   5.937   4.754 -0.1572  0.9686 -0.0959
 6533TIP3   OH219562   0.468   4.449   3.912  0.1103  0.1151  0.0697
 6533TIP3    H119563   0.387   4.403   3.892 -0.0175  0.3978 -0.0769
 6533TIP3    H219564   0.459   4.534   3.868  0.2884  0.3232  0.4234
 6534TIP3   OH219565   4.288   5.376   0.307  0.2690 -0.3598  0.2509
 6534TIP3    H119566   4.370   5.351   0.263  0.4331 -1.0665  0.9256
 6534TIP3    H219567   4.312   5.382   0.400 -0.2935  0.1215  0.3659
 6535TIP3   OH219568   1.365   6.076   4.124 -0.1720  0.1178 -0.2297
 6535TIP3    H119569   1.320   6.078   4.209  0.6916 -0.7583  0.2607
 6535TIP3    H219570   1.404   5.989   4.120  0.8508  0.5962 -0.9773
 6536TIP3   OH219571   4.400   5.363   1.315 -0.2785  0.7691 -0.5415
 6536TIP3    H119572   4.433   5.302   1.250  1.1416  0.7728  0.1391
 6536TIP3    H219573   4.447   5.444   1.299 -1.1950  1.3096 -0.6004
 6537TIP3   OH219574   2.714   4.567   1.121 -0.2654 -0.4065 -0.4687
 6537TIP3    H119575   2.626   4.531   1.125 -0.7737  0.9071  0.9780
 6537TIP3    H219576   2.710   4.632   1.051 -0.3489 -0.5642 -0.6124
 6538TIP3   OH219577   5.594   0.502   5.581 -0.0939  0.1272 -0.0497
 6538TIP3    H119578   5.639   0.561   5.641  1.5419 -0.4944 -0.5972
 6538TIP3    H219579   5.524   0.555   5.543 -0.1981  0.9728  1.2479
 6539TIP3   OH219580   0.149   4.081   3.297  0.2472 -0.0776 -0.6568
 6539TIP3    H119581   0.187   3.996   3.274 -0.4313 -0.3827 -0.6748
 6539TIP3    H219582   0.108   4.067   3.382  1.0291  0.5210 -0.1611
 6540TIP3   OH219583   0.542   2.747   0.786  0.2662 -0.0024 -0.0120
 6540TIP3    H119584   0.459   2.768   0.827  0.9899  1.4605  0.7616
 6540TIP3    H219585   0.519   2.718   0.698 -0.9965  1.2703 -0.1261
 6541TIP3   OH219586   6.851   0.825   4.237  0.3375 -0.6935  0.6422
 6541TIP3    H119587   6.831   0.860   4.151 -0.3428  0.3415  1.1990
 6541TIP3    H219588   6.771   0.780   4.264  0.4154 -0.6896  0.8844
 6542TIP3   OH219589   6.676   4.979   5.849  0.9815  0.2209 -0.4510
 6542TIP3    H119590   6.726   4.909   5.889  1.9778  2.0907  1.8050
 6542TIP3    H219591   6.731   5.010   5.776  1.0194 -0.5943 -0.7777
 6543TIP3   OH219592   3.327   0.027   1.345 -0.4791 -0.3291  1.0832
 6543TIP3    H119593   3.295  -0.024   1.419 -0.3916  0.3304  1.5846
 6543TIP3    H219594   3.406   0.070   1.378  0.7018 -1.5870 -0.0070
 6544TIP3   OH219595   2.437   2.073   3.783  0.5144  0.3010 -0.9009
 6544TIP3    H119596   2.511   2.040   3.833 -0.1414  1.5206  1.0021
 6544TIP3    H219597   2.373   2.100   3.850 -0.8859  0.9608 -2.4330
 6545TIP3   OH219598   6.017   5.864   4.987 -0.0394 -0.4640  0.5796
 6545TIP3    H119599   5.960   5.875   4.911 -1.9171 -3.8807  1.3045
 6545TIP3    H219600   6.087   5.806   4.957 -1.2103 -2.4679  1.5263
 6546TIP3   OH219601   0.578   1.569   1.688  0.2190  0.8638 -0.1004
 6546TIP3    H119602   0.585   1.624   1.766  0.4416  0.5203  0.1254
 6546TIP3    H219603   0.656   1.590   1.636  0.4214  0.6024  0.0930
 6547TIP3   OH219604   4.403   0.453   1.517 -0.1651  0.6940 -0.1227
 6547TIP3    H119605   4.447   0.508   1.582 -0.5975  0.1077  0.6631
 6547TIP3    H219606   4.321   0.499   1.498  0.5215  1.5453 -1.2491
 6548TIP3   OH219607   6.732   0.621   3.937 -0.2222 -0.2659  0.1428
 6548TIP3    H119608   6.716   0.575   3.854 -1.1646 -2.9948  1.7070
 6548TIP3    H219609   6.680   0.701   3.930 -0.9511 -0.8453 -1.5759
 6549TIP3   OH219610   1.132   5.622   3.145  0.1171 -0.0908  0.0729
 6549TIP3    H119611   1.119   5.615   3.240 -0.9132 -0.4576 -0.0775
 6549TIP3    H219612   1.216   5.667   3.135 -0.0776  0.5421  1.1580
 6550TIP3   OH219613   3.634   0.619   5.342 -0.2086 -0.3497 -0.4876
 6550TIP3    H119614   3.719   0.627   5.298  0.0620  0.2332  0.1270
 6550TIP3    H219615   3.653   0.634   5.434 -0.5850 -2.6483  0.0413
 6551TIP3   OH219616   1.997   1.190   1.592  0.0366  0.3475  0.7855
 6551TIP3    H119617   2.064   1.137   1.634  0.8700  0.9587  0.2607
 6551TIP3    H219618   2.046   1.258   1.546 -0.9056  0.4121 -0.1649
 6552TIP3   OH219619   3.056   3.235   2.636 -0.8817  0.1106 -0.3395
 6552TIP3    H119620   3.137   3.284   2.646 -1.2013  0.4622  0.6155
 6552TIP3    H219621   2.990   3.302   2.617 -0.8280 -0.2474 -1.9620
 6553TIP3   OH219622   1.917   1.937   5.225 -0.2772 -0.5169  0.1078
 6553TIP3    H119623   1.937   1.970   5.137 -1.9668  0.2097 -0.0486
 6553TIP3    H219624   1.985   1.872   5.243  0.4307 -0.2616 -1.4924
 6554TIP3   OH219625   6.631   3.796   4.360  0.0617  0.3633  0.0294
 6554TIP3    H119626   6.629   3.729   4.292 -2.2540  0.5378 -0.1588
 6554TIP3    H219627   6.542   3.832   4.361  0.5676  1.7215  1.8195
 6555TIP3   OH219628   1.061   4.918   5.419 -0.6424  1.0170 -0.0070
 6555TIP3    H119629   1.052   4.952   5.508 -0.3809  1.0655  0.0014
 6555TIP3    H219630   1.052   4.823   5.429  1.2645  0.8431  0.3354
 6556TIP3   OH219631   5.897   1.123   0.590 -0.4963 -0.0575 -0.4450
 6556TIP3    H119632   5.872   1.211   0.560  1.9134  1.3270  1.2998
 6556TIP3    H219633   5.974   1.101   0.538 -1.0361 -1.1290 -0.8101
 6557TIP3   OH219634   2.353   3.427   3.797  1.0299  0.2369  0.3047
 6557TIP3    H119635   2.299   3.394   3.725  2.0741  1.3471 -1.0580
 6557TIP3    H219636   2.291   3.461   3.860  0.0955 -0.1141 -0.4009
 6558TIP3   OH219637   4.122   2.838   3.894 -0.4011  0.0466 -0.1917
 6558TIP3    H119638   4.186   2.822   3.824  0.8562  0.4747  0.8421
 6558TIP3    H219639   4.095   2.929   3.882 -0.4125  0.0295 -0.2973
 6559TIP3   OH219640   5.585   5.769   5.403  0.0830  0.1011 -0.0017
 6559TIP3    H119641   5.527   5.839   5.373  1.2923  0.6429 -1.1854
 6559TIP3    H219642   5.637   5.809   5.472  0.9853  0.5014 -0.8859
 6560TIP3   OH219643   0.011   0.256   2.142  0.1297  0.2064 -0.2803
 6560TIP3    H119644   0.012   0.349   2.119  1.2073  0.3024  0.1129
 6560TIP3    H219645   0.101   0.227   2.126 -0.5561 -1.1560 -1.9262
 6561TIP3   OH219646   1.187   6.746   2.893 -0.1020 -0.0768  0.1054
 6561TIP3    H119647   1.122   6.798   2.942  0.0014 -0.0050  0.1673
 6561TIP3    H219648   1.219   6.806   2.825 -1.1119 -0.5511 -0.8166
 6562TIP3   OH219649   1.030   3.385   4.491 -0.2897 -0.0290 -0.1056
 6562TIP3    H119650   1.097   3.447   4.521 -1.5156  1.4185 -0.2138
 6562TIP3    H219651   1.077   3.321   4.438  1.0134  0.8828 -0.0801
 6563TIP3   OH219652   6.712   2.548   2.723 -1.2215 -0.4936 -0.6694
 6563TIP3    H119653   6.763   2.603   2.784  0.6236 -1.5031 -1.2322
 6563TIP3    H219654   6.743   2.574   2.636 -0.3829 -2.3022 -0.9540
 6564TIP3   OH219655   6.762   5.191   4.262 -0.2179  0.0175  0.0380
 6564TIP3    H119656   6.718   5.274   4.240 -1.0641 -0.4558 -0.1076
 6564TIP3    H219657   6.842   5.192   4.210  1.1672  1.9497  2.0371
 6565TIP3   OH219658   4.789   3.653   0.453  0.4661 -0.5112 -0.6142
 6565TIP3    H119659   4.832   3.575   0.488  1.4801  0.0383 -0.5854
 6565TIP3    H219660   4.763   3.703   0.531 -0.5930 -1.0194 -0.6259
 6566TIP3   OH219661   1.571   4.924   4.575  0.8546  0.2280  0.3584
 6566TIP3    H119662   1.508   4.996   4.583  0.2545 -0.4310  2.3372
 6566TIP3    H219663   1.622   4.944   4.497 -0.0659  2.1811  0.2098
 6567TIP3   OH219664   2.621   2.828   0.403 -0.3874  0.3639  0.4328
 6567TIP3    H119665   2.706   2.786   0.413  0.9137  2.5955 -0.4079
 6567TIP3    H219666   2.571   2.768   0.348  0.2045 -1.4928  1.7975
 6568TIP3   OH219667   3.793   6.005   1.318 -0.0924 -0.1111  0.1822
 6568TIP3    H119668   3.814   6.043   1.232 -3.1475  0.9518 -0.2098
 6568TIP3    H219669   3.784   6.081   1.376  0.8096 -0.7562  1.2113
 6569TIP3   OH219670   0.130   4.506   2.712 -0.0195 -0.5172 -0.0895
 6569TIP3    H119671   0.152   4.414   2.722  0.6624 -0.2932  0.5855
 6569TIP3    H219672   0.205   4.544   2.666 -0.2034 -0.2661 -0.1848
 6570TIP3   OH219673   5.414   5.833   3.172 -0.4303  0.1255  0.4041
 6570TIP3    H119674   5.475   5.763   3.150 -0.1594  0.4432  0.1409
 6570TIP3    H219675   5.431   5.851   3.264 -0.4455 -0.0953  0.4525
 6571TIP3   OH219676   0.677   4.135   4.697  0.7048  0.6529 -0.0331
 6571TIP3    H119677   0.628   4.129   4.779  0.2553  1.2047 -0.2561
 6571TIP3    H219678   0.660   4.224   4.665  0.7770  0.4029 -0.7857
 6572TIP3   OH219679   0.150   3.260   0.388  0.1108 -0.2620  0.4634
 6572TIP3    H119680   0.092   3.330   0.360 -1.1171 -1.6409 -0.6073
 6572TIP3    H219681   0.106   3.220   0.463  0.0433 -0.8337  0.1255
 6573TIP3   OH219682   5.198   3.117   2.880  0.2158 -0.0816 -0.3129
 6573TIP3    H119683   5.147   3.185   2.924  1.5794 -0.1320  1.4425
 6573TIP3    H219684   5.179   3.037   2.929 -0.2695 -0.7064 -1.4777
 6574TIP3   OH219685   2.461   6.811   1.836 -0.2169 -0.1586  0.0334
 6574TIP3    H119686   2.488   6.835   1.748 -0.0965  1.6202  0.5143
 6574TIP3    H219687   2.469   6.716   1.839  0.5592 -0.1716 -1.6037
 6575TIP3   OH219688   5.852   2.382   0.279  0.2621 -0.0299  0.6699
 6575TIP3    H119689   5.883   2.292   0.293  1.6394  0.3638  0.3311
 6575TIP3    H219690   5.909   2.436   0.334  0.3774  0.7591 -0.1959
 6576TIP3   OH219691   0.387   2.418   4.118 -0.0608  0.4852 -0.3543
 6576TIP3    H119692   0.363   2.456   4.033 -0.3593 -2.8565 -1.9444
 6576TIP3    H219693   0.479   2.395   4.108 -0.4896 -1.3381 -0.4378
 6577TIP3   OH219694   5.766   1.122   5.208  0.3767  0.1368 -0.3429
 6577TIP3    H119695   5.826   1.174   5.261 -0.0350  0.4401 -0.1778
 6577TIP3    H219696   5.768   1.035   5.248  1.5884 -0.1780 -1.0260
 6578TIP3   OH219697   5.280   4.957   0.570 -0.4478  0.3485  0.1372
 6578TIP3    H119698   5.313   5.017   0.504 -1.6152  2.1368  1.0963
 6578TIP3    H219699   5.285   5.006   0.652  2.4211 -2.3343  1.7626
 6579TIP3   OH219700   6.357   0.745   2.444  0.1682  0.3693 -0.4824
 6579TIP3    H119701   6.383   0.763   2.535 -1.8526 -0.5359  0.3558
 6579TIP3    H219702   6.395   0.816   2.393  2.9235 -0.0691  0.7564
 6580TIP3   OH219703   3.708   0.553   0.501  0.5011  0.2726  0.0115
 6580TIP3    H119704   3.792   0.535   0.459  0.8342  2.4605 -0.3645
 6580TIP3    H219705   3.697   0.648   0.494 -2.4042 -0.0237 -0.6879
 6581TIP3   OH219706   2.542   3.711   1.515 -0.2606  0.0250  0.2890
 6581TIP3    H119707   2.471   3.775   1.506 -0.2153 -0.0277 -0.5871
 6581TIP3    H219708   2.602   3.750   1.579 -1.5021 -0.3455  1.7227
 6582TIP3   OH219709   0.433   2.641   5.298 -0.2107 -0.3847  0.1624
 6582TIP3    H119710   0.374   2.570   5.273 -0.2388 -0.1517 -0.4692
 6582TIP3    H219711   0.415   2.710   5.234 -0.5139  0.3710  1.0315
 6583TIP3   OH219712   1.001   6.755   5.241 -0.3365  0.5147 -0.7574
 6583TIP3    H119713   0.998   6.777   5.147 -0.1850 -0.3624 -0.9756
 6583TIP3    H219714   1.095   6.757   5.262 -0.2176 -1.0011 -1.0560
 6584TIP3   OH219715   0.609   1.872   3.846 -0.1877  0.0198  0.4661
 6584TIP3    H119716   0.516   1.870   3.823  0.0659 -0.1037 -0.5698
 6584TIP3    H219717   0.631   1.781   3.866 -0.2807  0.0446  0.6834
 6585TIP3   OH219718   6.051   4.845   3.543  0.0060 -0.2445 -0.3447
 6585TIP3    H119719   5.964   4.875   3.515 -0.6380 -0.4015  1.3943
 6585TIP3    H219720   6.050   4.751   3.527 -1.2690 -0.7502  2.3487
 6586TIP3   OH219721   6.871  -0.002   5.013 -0.2514 -0.1493 -0.1880
 6586TIP3    H119722   6.818   0.076   5.029 -1.1576 -0.4333 -1.5706
 6586TIP3    H219723   6.959   0.022   5.043 -1.1073  0.3437  2.1679
 6587TIP3   OH219724   6.430   6.482   3.342 -0.9061 -0.1882  0.1876
 6587TIP3    H119725   6.523   6.501   3.344 -1.1670  1.3350 -0.4256
 6587TIP3    H219726   6.399   6.503   3.430 -0.7455 -0.2437  0.2567
 6588TIP3   OH219727   1.237   0.102   0.916 -0.3969  0.4526 -0.5002
 6588TIP3    H119728   1.241   0.195   0.893  0.6673  0.6844  0.5624
 6588TIP3    H219729   1.206   0.100   1.007 -1.9217 -0.3322 -0.9882
 6589TIP3   OH219730   5.752   2.676   0.442 -0.2549  0.1460  0.3047
 6589TIP3    H119731   5.743   2.593   0.395 -1.2170  0.3622  0.0757
 6589TIP3    H219732   5.663   2.712   0.444  0.5015  2.4523 -1.9121
 6590TIP3   OH219733   1.601   6.687   3.181 -0.4732 -0.5164 -0.7409
 6590TIP3    H119734   1.669   6.732   3.130  0.7873 -1.6661 -0.1557
 6590TIP3    H219735   1.635   6.598   3.190 -0.9185 -0.4849  1.6353
 6591TIP3   OH219736   0.332   1.878   3.590 -0.0556 -0.4000  0.3279
 6591TIP3    H119737   0.348   1.969   3.565  0.8586 -0.3283  1.1034
 6591TIP3    H219738   0.403   1.830   3.547 -1.5784 -1.0388 -1.6140
 6592TIP3   OH219739   4.472   4.172   0.121 -0.1880 -0.1542  0.4400
 6592TIP3    H119740   4.535   4.162   0.192  1.4047 -4.5821 -1.2228
 6592TIP3    H219741   4.395   4.122   0.150 -0.8947  0.8512  0.3471
 6593TIP3   OH219742   5.298   5.555   0.996 -0.0629 -0.2449 -0.3045
 6593TIP3    H119743   5.215   5.595   0.973  0.3945  1.2886  0.5648
 6593TIP3    H219744   5.296   5.548   1.092  1.2384  0.9139 -0.1508
 6594TIP3   OH219745   6.163   2.369   3.167 -0.0741  0.2171 -0.5573
 6594TIP3    H119746   6.187   2.451   3.212  1.0553  0.2794 -1.2409
 6594TIP3    H219747   6.151   2.306   3.238  1.9973  0.2311 -0.1215
 6595TIP3   OH219748   5.571   2.350   0.552  0.1609 -0.2092  0.1765
 6595TIP3    H119749   5.659   2.364   0.586 -0.2310  0.0865  1.1083
 6595TIP3    H219750   5.565   2.255   0.537  1.2865 -0.0291 -1.8095
 6596TIP3   OH219751   6.207   2.198   3.875 -0.0180  0.0220 -0.5599
 6596TIP3    H119752   6.254   2.229   3.953 -1.5337  0.6937  0.1316
 6596TIP3    H219753   6.180   2.109   3.897  0.5249 -0.2006 -0.7797
 6597TIP3   OH219754   1.600   4.344   3.465 -0.2348  0.5704  0.0083
 6597TIP3    H119755   1.655   4.406   3.513  0.7549 -1.6707  1.9626
 6597TIP3    H219756   1.554   4.295   3.532 -0.3118 -1.3938 -1.3800
 6598TIP3   OH219757   5.488   0.986   2.002 -0.4339  0.2845  0.3210
 6598TIP3    H119758   5.461   0.924   2.069  0.8451  0.9337  1.4840
 6598TIP3    H219759   5.441   1.067   2.023  1.0808  0.9307  1.3746
 6599TIP3   OH219760   2.540   4.653   1.569 -0.6814  0.3000 -0.6807
 6599TIP3    H119761   2.507   4.658   1.479 -3.2154 -2.0281 -0.0389
 6599TIP3    H219762   2.500   4.573   1.604  2.8965 -0.7211  1.5155
 6600TIP3   OH219763   4.405   6.475   5.543 -0.2667 -0.1101  0.2817
 6600TIP3    H119764   4.394   6.549   5.484 -1.5382  0.3872  1.0999
 6600TIP3    H219765   4.471   6.504   5.606  1.4305 -0.8080 -1.0865
 6601TIP3   OH219766   3.002   6.694   0.440  0.1196  0.4821  0.2201
 6601TIP3    H119767   2.969   6.658   0.358 -0.4898 -0.0204  0.6754
 6601TIP3    H219768   3.082   6.644   0.458  0.5995  1.0191 -0.3741
 6602TIP3   OH219769   5.312   1.655   3.165 -0.1972  0.6070 -0.1912
 6602TIP3    H119770   5.299   1.568   3.126  0.8246 -1.0888  2.8261
 6602TIP3    H219771   5.406   1.670   3.158 -0.2891  1.1780 -0.1882
 6603TIP3   OH219772   6.122   3.559   2.728 -0.7619  0.4928  0.1546
 6603TIP3    H119773   6.031   3.549   2.758 -0.5212 -0.1284  0.6686
 6603TIP3    H219774   6.154   3.636   2.776 -0.8780  0.4509  0.3013
 6604TIP3   OH219775   6.941   5.416   5.362  0.1697  0.5792 -0.3876
 6604TIP3    H119776   6.901   5.497   5.330 -0.9183  0.7471  1.3063
 6604TIP3    H219777   6.868   5.355   5.372  0.7747 -0.1284 -0.1662
 6605TIP3   OH219778   2.925   2.076   1.932 -0.1906  0.0984 -0.4576
 6605TIP3    H119779   3.019   2.091   1.931 -0.0121 -0.9270 -0.7443
 6605TIP3    H219780   2.892   2.120   1.854 -0.0158  0.8060 -0.1383
 6606TIP3   OH219781   1.591   6.462   1.937  0.4392 -0.2828 -0.0088
 6606TIP3    H119782   1.663   6.439   1.878  0.1471  0.1354 -0.5368
 6606TIP3    H219783   1.525   6.394   1.923  0.3496 -0.1562 -0.1996
 6607TIP3   OH219784   2.622   6.516   0.536  0.0974  0.2405  0.3291
 6607TIP3    H119785   2.705   6.469   0.546 -0.2614 -0.1108  1.9273
 6607TIP3    H219786   2.603   6.511   0.443  1.0939 -1.0388  0.1656
 6608TIP3   OH219787   6.767   0.392   2.921 -0.1870  0.3191  0.1937
 6608TIP3    H119788   6.823   0.317   2.900 -0.5517 -0.4770  1.9399
 6608TIP3    H219789   6.827   0.456   2.959  0.2783  1.3350 -2.0371
 6609TIP3   OH219790   0.344   5.659   3.313 -0.5946 -0.3000  0.1584
 6609TIP3    H119791   0.274   5.679   3.250 -0.0606  1.7793  0.1610
 6609TIP3    H219792   0.418   5.634   3.259 -0.8272 -0.8167  0.0748
 6610TIP3   OH219793   4.960   6.701   5.781  0.4528 -0.2442  0.5073
 6610TIP3    H119794   4.910   6.762   5.836  1.9415  0.4660  1.1533
 6610TIP3    H219795   5.044   6.746   5.766  0.2292 -0.5580 -2.1107
 6611TIP3   OH219796   2.902   4.284   4.851  0.1243  0.4554 -0.3281
 6611TIP3    H119797   2.968   4.217   4.834 -0.1972  0.1258 -0.2899
 6611TIP3    H219798   2.952   4.363   4.871  0.5083  0.3127 -0.7041
 6612TIP3   OH219799   0.885   1.486   3.239  0.0704  0.1359  0.2446
 6612TIP3    H119800   0.922   1.401   3.263  0.5711  0.2089 -0.2529
 6612TIP3    H219801   0.915   1.501   3.149 -0.7171  0.4530  0.0277
 6613TIP3   OH219802   5.283   4.299   1.473 -0.0811 -0.9284  0.2555
 6613TIP3    H119803   5.202   4.339   1.504 -0.4480 -1.3919 -0.0745
 6613TIP3    H219804   5.353   4.342   1.523 -0.3993  0.5055 -0.4828
 6614TIP3   OH219805   3.567   6.032   4.138  0.5999 -0.3378 -0.3451
 6614TIP3    H119806   3.556   6.036   4.233 -0.7380  0.5306 -0.5059
 6614TIP3    H219807   3.617   6.110   4.116 -0.3334  0.2452 -0.4767
 6615TIP3   OH219808   6.062   4.758   3.226  0.4760  0.1290 -0.0896
 6615TIP3    H119809   5.986   4.757   3.167 -0.6872 -0.6674  1.3299
 6615TIP3    H219810   6.069   4.849   3.255 -0.4496  0.0789  0.3442
 6616TIP3   OH219811   5.641   3.599   5.431  0.3172 -0.8679  0.3261
 6616TIP3    H119812   5.716   3.586   5.489  1.0925  1.4670 -0.0174
 6616TIP3    H219813   5.633   3.694   5.424  2.2608 -0.7342 -5.7411
 6617TIP3   OH219814   7.090   5.771   3.928 -0.1776  0.0976  0.0129
 6617TIP3    H119815   7.091   5.731   3.841 -0.5687  1.5563 -0.6891
 6617TIP3    H219816   7.179   5.806   3.939 -0.5515  1.2544 -0.4737
 6618TIP3   OH219817   1.429   4.168   0.969 -0.0567  0.0584 -0.1427
 6618TIP3    H119818   1.366   4.123   1.025 -0.3513  1.0109  0.3200
 6618TIP3    H219819   1.474   4.229   1.028 -0.5838  1.2937 -0.9844
 6619TIP3   OH219820   3.600   0.284   4.113 -0.4218 -0.3458 -0.7166
 6619TIP3    H119821   3.555   0.200   4.105  0.1545 -0.7479  0.1078
 6619TIP3    H219822   3.652   0.291   4.033  0.2727 -1.2414 -0.3628
 6620TIP3   OH219823   3.480   1.559   4.015  0.3140  0.1465  0.3633
 6620TIP3    H119824   3.512   1.613   3.943  1.8384  0.7699  1.4657
 6620TIP3    H219825   3.404   1.606   4.048  1.3118  1.3925  0.9676
 6621TIP3   OH219826   3.525   0.496   2.442 -0.6419 -0.5510 -0.2797
 6621TIP3    H119827   3.516   0.522   2.350 -0.3156 -1.4917 -0.5914
 6621TIP3    H219828   3.435   0.488   2.473 -0.8019 -1.4946 -0.9097
 6622TIP3   OH219829   5.316   5.201   0.991  0.5364 -0.2732 -0.2852
 6622TIP3    H119830   5.381   5.268   0.969  0.8309 -0.1554  0.8389
 6622TIP3    H219831   5.268   5.185   0.910  1.1783  0.5159 -0.8325
 6623TIP3   OH219832   0.818   6.167   0.987  0.1523 -0.4151 -0.4489
 6623TIP3    H119833   0.849   6.091   0.937  0.8892 -1.1542  1.0302
 6623TIP3    H219834   0.792   6.130   1.072  0.5223  0.9775  0.3089
 6624TIP3   OH219835   0.227   6.695   4.378 -0.1662  0.1481 -0.2029
 6624TIP3    H119836   0.227   6.610   4.336  1.3587 -0.8961  1.7513
 6624TIP3    H219837   0.176   6.682   4.458 -0.3481  1.2161 -0.1265
 6625TIP3   OH219838   3.365   1.390   4.546  0.6628  0.0354 -0.4133
 6625TIP3    H119839   3.300   1.361   4.482  3.0623  0.2582 -3.1397
 6625TIP3    H219840   3.413   1.310   4.568  0.0068  0.0057  1.0231
 6626TIP3   OH219841   6.194   6.450   5.179 -0.3377  0.0392  0.2927
 6626TIP3    H119842   6.250   6.510   5.228 -0.7102 -0.5130  1.4241
 6626TIP3    H219843   6.174   6.497   5.098  2.3033 -0.0085 -0.4826
 6627TIP3   OH219844   3.317   0.799   5.638 -0.2366 -0.6185  0.3923
 6627TIP3    H119845   3.274   0.719   5.668  0.5681 -1.8565 -1.5661
 6627TIP3    H219846   3.299   0.801   5.544  1.5578  0.3672  0.0373
 6628TIP3   OH219847   5.111   5.647   1.831 -0.1127  0.7517 -0.6127
 6628TIP3    H119848   5.117   5.621   1.739  0.0962  2.0048 -0.9826
 6628TIP3    H219849   5.076   5.736   1.828  0.1025  0.8903  0.5111
 6629TIP3   OH219850   2.706   3.792   2.711 -0.2469  0.3119  0.1651
 6629TIP3    H119851   2.660   3.856   2.656 -0.1904  0.3695  0.1842
 6629TIP3    H219852   2.669   3.708   2.687  0.0634  0.2922 -0.2504
 6630TIP3   OH219853   1.171   1.488   1.920 -0.6804 -0.3706  0.3836
 6630TIP3    H119854   1.250   1.439   1.896 -0.0331  0.9503 -0.3515
 6630TIP3    H219855   1.114   1.481   1.843 -1.0660 -0.9030  0.7159
 6631TIP3   OH219856   6.475   6.278   5.824  0.2836 -0.6610  0.2554
 6631TIP3    H119857   6.493   6.189   5.793  2.0375 -0.8759  1.6777
 6631TIP3    H219858   6.560   6.309   5.856 -0.2881  1.5560 -0.2471
 6632TIP3   OH219859   1.419   3.859   1.037 -0.1233 -0.0066  0.3624
 6632TIP3    H119860   1.394   3.907   1.116 -0.5129 -0.1263  0.3156
 6632TIP3    H219861   1.512   3.839   1.049 -0.1452  0.1070  0.7208
 6633TIP3   OH219862   1.498   5.263   4.523 -0.2220 -0.4334 -0.0673
 6633TIP3    H119863   1.474   5.341   4.473 -1.9146 -1.9247 -1.7135
 6633TIP3    H219864   1.541   5.206   4.460 -0.2671 -1.4247  0.7627
 6634TIP3   OH219865   4.132   0.732   5.438  0.2112  0.0331  0.1660
 6634TIP3    H119866   4.165   0.645   5.413 -0.0862  0.5143 -2.1297
 6634TIP3    H219867   4.211   0.785   5.451  0.4447 -0.7804  2.7569
 6635TIP3   OH219868   4.592   3.830   2.530  0.0891 -0.1526 -0.2247
 6635TIP3    H119869   4.596   3.802   2.622  0.1059  0.7671  0.0724
 6635TIP3    H219870   4.680   3.817   2.497 -0.1206 -1.2750 -0.3554
 6636TIP3   OH219871   1.855   3.890   4.887  0.2757 -0.1753 -0.1724
 6636TIP3    H119872   1.876   3.797   4.883  0.1217 -0.2183 -0.0043
 6636TIP3    H219873   1.918   3.927   4.949 -1.0246 -0.5601  1.4360
 6637TIP3   OH219874   4.459   5.163   1.757 -0.4227 -0.4897  0.3464
 6637TIP3    H119875   4.412   5.153   1.675  0.7422  1.3671 -0.6160
 6637TIP3    H219876   4.399   5.130   1.824 -1.7773 -1.1283 -1.1305
 6638TIP3   OH219877   0.589   4.185   5.644  0.6458  0.1156 -0.4399
 6638TIP3    H119878   0.559   4.156   5.558 -0.5401 -0.3196  0.0962
 6638TIP3    H219879   0.631   4.269   5.629 -3.1381  2.1090 -0.9447
 6639TIP3   OH219880   3.443   1.714   2.082  0.2668 -0.0730 -0.0900
 6639TIP3    H119881   3.491   1.709   2.165 -0.5071 -0.2540  0.3572
 6639TIP3    H219882   3.466   1.633   2.036  1.2678  0.3585 -0.3836
 6640TIP3   OH219883   6.507   4.860   4.159  0.1509 -0.3704  0.0441
 6640TIP3    H119884   6.425   4.895   4.125  0.2929  0.1302  0.2081
 6640TIP3    H219885   6.480   4.799   4.228 -0.0826 -0.0193  0.2712
 6641TIP3   OH219886   4.024   3.026   1.085  0.2423 -0.5479 -0.2482
 6641TIP3    H119887   4.080   3.006   1.160  0.7138  1.4569 -0.0072
 6641TIP3    H219888   3.962   2.953   1.082 -0.0965 -0.4749  2.4096
 6642TIP3   OH219889   1.406   4.051   2.337 -0.3755 -0.3045 -0.1631
 6642TIP3    H119890   1.476   3.985   2.330 -0.2500 -0.2909  0.7858
 6642TIP3    H219891   1.438   4.111   2.404 -0.8167  0.3203 -0.5148
 6643TIP3   OH219892   6.394   0.598   4.086 -0.4557  0.0927  0.1717
 6643TIP3    H119893   6.482   0.610   4.123  0.2798  1.0094 -1.7342
 6643TIP3    H219894   6.358   0.687   4.083 -1.9577 -0.3763  1.9470
 6644TIP3   OH219895   0.401   3.096   5.447  0.2253  0.0021 -0.0317
 6644TIP3    H119896   0.375   3.040   5.520 -1.7942  0.2780 -0.4809
 6644TIP3    H219897   0.387   3.042   5.369  3.1895 -0.6152 -0.2902
 6645TIP3   OH219898   6.870   4.153   2.778 -0.2970 -0.9146 -0.0097
 6645TIP3    H119899   6.965   4.158   2.774 -0.3842  0.3697 -2.8692
 6645TIP3    H219900   6.849   4.171   2.869  2.1833 -1.5477  0.7695
 6646TIP3   OH219901   1.075   2.285   5.379  0.1533 -0.2220  0.2465
 6646TIP3    H119902   1.044   2.351   5.441  1.1153  0.1408  0.3566
 6646TIP3    H219903   1.084   2.333   5.297 -0.7554 -0.6164 -0.0985
 6647TIP3   OH219904   4.901   0.482   3.315 -0.1920 -0.4475 -0.2842
 6647TIP3    H119905   4.864   0.529   3.389  1.5342 -1.5879  1.3882
 6647TIP3    H219906   4.952   0.548   3.268 -0.5906  0.0911  0.0232
 6648TIP3   OH219907   1.257   6.226   3.080  0.3922  0.2474  0.6493
 6648TIP3    H119908   1.247   6.271   3.164 -1.0849  0.7533  0.2326
 6648TIP3    H219909   1.211   6.282   3.017 -0.4869 -1.2520 -0.0939
 6649TIP3   OH219910   6.902   1.215   3.531 -0.3269 -0.2014  0.0750
 6649TIP3    H119911   6.853   1.280   3.580  0.3570  0.7154 -0.4109
 6649TIP3    H219912   6.879   1.231   3.439  0.8276  0.2477 -0.1657
 6650TIP3   OH219913   4.356   2.390   3.275  0.0867  0.5535 -0.0642
 6650TIP3    H119914   4.302   2.462   3.308 -0.8938 -0.6747  1.1438
 6650TIP3    H219915   4.300   2.345   3.211  0.9220  1.1865 -1.2933
 6651TIP3   OH219916   4.659   0.065   2.466 -0.1821  0.4011  0.3892
 6651TIP3    H119917   4.734   0.014   2.434 -0.5324 -0.1011  0.3618
 6651TIP3    H219918   4.625   0.109   2.388 -0.1933  0.2670  0.3172
 6652TIP3   OH219919   7.021   0.495   2.206 -0.5952 -0.2646 -0.2652
 6652TIP3    H119920   7.004   0.574   2.257 -0.4413  0.7369 -1.6974
 6652TIP3    H219921   6.938   0.447   2.207 -1.1196  0.6107 -0.5230
 6653TIP3   OH219922   0.312   2.588   2.824  0.4474 -0.2746  0.6703
 6653TIP3    H119923   0.334   2.680   2.837 -0.9063 -0.1172  2.1808
 6653TIP3    H219924   0.264   2.587   2.741 -0.0826  0.5111  0.9477
 6654TIP3   OH219925   1.990   3.909  -0.003  0.4434  0.4104 -0.2817
 6654TIP3    H119926   2.021   3.987  -0.049  0.0348  2.0076  1.9891
 6654TIP3    H219927   1.924   3.942   0.058  1.5903 -1.3949  2.0833
 6655TIP3   OH219928   4.263   4.683   5.573 -0.1477 -0.1221 -0.7141
 6655TIP3    H119929   4.248   4.593   5.603 -0.2907 -0.4181 -1.6292
 6655TIP3    H219930   4.177   4.724   5.578  0.5060  1.1901  3.3616
 6656TIP3   OH219931   5.530   1.739   4.056  0.8645 -0.0843  0.0180
 6656TIP3    H119932   5.515   1.803   4.125  3.1659 -0.2093  0.7145
 6656TIP3    H219933   5.481   1.662   4.084  1.5350 -0.0419  1.4346
 6657TIP3   OH219934   3.646   1.872   4.952 -0.2141 -0.9959  0.1449
 6657TIP3    H119935   3.708   1.800   4.964 -0.0912 -0.7792  0.8204
 6657TIP3    H219936   3.561   1.835   4.977 -0.2355 -1.0617 -0.0234
 6658TIP3   OH219937   1.888   4.750   4.139  0.3378 -0.0065  0.1197
 6658TIP3    H119938   1.823   4.790   4.081 -0.3068 -0.4482  0.5281
 6658TIP3    H219939   1.969   4.795   4.118  0.0905 -0.0622 -1.0435
 6659TIP3   OH219940   4.395   4.976   2.408  0.0101  0.5573  0.0241
 6659TIP3    H119941   4.369   5.029   2.332  1.0106  2.4353  0.9139
 6659TIP3    H219942   4.490   4.983   2.410  0.1774 -1.3053  0.2152
 6660TIP3   OH219943   5.801   6.180   5.059 -0.4111  0.6117 -0.1093
 6660TIP3    H119944   5.880   6.204   5.109  0.0437 -0.4408 -0.3033
 6660TIP3    H219945   5.820   6.211   4.970 -0.7248  1.4206  0.0956
 6661TIP3   OH219946   0.191   1.426   5.146  0.6902 -0.4960  0.4062
 6661TIP3    H119947   0.114   1.373   5.124  0.9422 -1.0788  0.8835
 6661TIP3    H219948   0.254   1.404   5.077 -0.1992  1.4487 -1.1179
 6662TIP3   OH219949   2.480   3.150   2.033  0.0755 -0.0395  0.1746
 6662TIP3    H119950   2.418   3.110   1.973  0.2786 -0.2337  0.0934
 6662TIP3    H219951   2.517   3.077   2.082 -0.5764  0.1654  1.0066
 6663TIP3   OH219952   4.058   1.070   1.599 -0.3671  0.0793 -0.1868
 6663TIP3    H119953   3.964   1.053   1.608 -0.1907  0.1185  3.1689
 6663TIP3    H219954   4.090   1.071   1.689  3.1423 -1.4285 -1.2617
 6664TIP3   OH219955   6.139   0.157   0.157  0.3091  0.0017 -0.0053
 6664TIP3    H119956   6.135   0.217   0.082  0.5289 -1.0925 -0.9211
 6664TIP3    H219957   6.047   0.138   0.177  0.2524 -1.3833 -1.4187
 6665TIP3   OH219958   3.032   3.312   4.673  0.4870 -0.2857 -0.0229
 6665TIP3    H119959   2.987   3.331   4.591 -3.7920  0.8259  2.2767
 6665TIP3    H219960   3.020   3.218   4.685  0.5086 -0.3282 -0.3260
 6666TIP3   OH219961   3.583   0.345   5.826  0.2633  0.0512  0.7339
 6666TIP3    H119962   3.626   0.366   5.743  1.1779 -1.6147  0.7498
 6666TIP3    H219963   3.642   0.284   5.870 -0.7515 -0.0090  2.1021
 6667TIP3   OH219964   3.201   2.999   3.699  0.2164  0.0286  0.0211
 6667TIP3    H119965   3.120   2.949   3.707  0.5037 -0.3006  0.9663
 6667TIP3    H219966   3.221   3.027   3.788  1.3187 -0.1765 -0.1538
 6668TIP3   OH219967   2.465   3.411   4.415  0.4840 -0.5823 -0.0793
 6668TIP3    H119968   2.400   3.363   4.363 -0.7371  1.2706 -0.3948
 6668TIP3    H219969   2.539   3.351   4.424  0.2156 -1.4686 -2.8543
 6669TIP3   OH219970   3.140   4.037   4.051 -0.3303 -0.3928  0.1735
 6669TIP3    H119971   3.145   4.131   4.034 -0.2793 -0.3889  0.2082
 6669TIP3    H219972   3.050   4.024   4.083 -0.7352 -0.5565 -0.9984
 6670TIP3   OH219973   0.211   0.218   1.787  0.1230  0.2660  0.2931
 6670TIP3    H119974   0.259   0.285   1.836 -0.9697 -0.2913  2.2289
 6670TIP3    H219975   0.119   0.237   1.804 -0.2694 -0.4725 -0.8897
 6671TIP3   OH219976   0.138   5.760   1.403  0.2165 -0.6023 -0.1747
 6671TIP3    H119977   0.158   5.756   1.309 -0.4460  1.7028 -0.4712
 6671TIP3    H219978   0.090   5.679   1.420 -1.3238 -0.2370 -2.2901
 6672TIP3   OH219979   0.958   5.548   5.425 -0.3061  0.0569  0.6597
 6672TIP3    H119980   1.027   5.584   5.369 -2.0198 -1.4753 -2.7268
 6672TIP3    H219981   0.919   5.625   5.467  1.8225  1.1617  0.7480
 6673TIP3   OH219982   2.982   1.035   3.763  0.0984 -0.1884  0.0161
 6673TIP3    H119983   3.010   1.059   3.851 -2.9886 -1.4227  1.4875
 6673TIP3    H219984   2.900   1.084   3.750 -0.3469 -1.2632 -1.5160
 6674TIP3   OH219985   5.524   3.240   1.588 -0.3213  0.2091  0.1806
 6674TIP3    H119986   5.439   3.260   1.628 -0.3987  2.5091 -0.9832
 6674TIP3    H219987   5.502   3.211   1.499  0.0731 -0.1719  0.2078
 6675TIP3   OH219988   7.086   6.253   3.904 -0.5738  0.1910  0.3871
 6675TIP3    H119989   7.115   6.284   3.991  1.4177 -1.2406  0.3098
 6675TIP3    H219990   6.992   6.267   3.904 -0.5706  0.6531  2.6234
 6676TIP3   OH219991   0.813   3.796   1.688 -0.1853  0.1641 -0.3181
 6676TIP3    H119992   0.894   3.840   1.713 -0.6007  1.9528 -1.8417
 6676TIP3    H219993   0.746   3.834   1.745 -0.4189  0.9935 -1.1192
 6677TIP3   OH219994   6.364   4.382   4.957  0.3760  0.2418 -0.2946
 6677TIP3    H119995   6.339   4.449   5.021  2.7708  0.4442  0.5350
 6677TIP3    H219996   6.456   4.400   4.939  1.0184 -2.6428 -0.2742
 6678TIP3   OH219997   2.578   2.983   4.464 -0.0107 -0.0163 -0.3349
 6678TIP3    H119998   2.613   2.944   4.544 -1.4061  0.2475  0.4407
 6678TIP3    H219999   2.487   3.003   4.485  0.3636  2.8474 -0.9749
 6679TIP3   OH220000   5.551   5.833   0.877  0.1759 -0.1249 -0.0700
 6679TIP3    H120001   5.493   5.882   0.936  1.3574  0.3441  0.7581
 6679TIP3    H220002   5.603   5.901   0.833  2.6050 -0.5695  1.8930
 6680TIP3   OH220003   4.286   5.427   1.920 -0.1336 -0.0106  0.3761
 6680TIP3    H120004   4.236   5.346   1.930  0.6073 -0.5628 -0.1995
 6680TIP3    H220005   4.261   5.460   1.833 -0.2310  0.2398  0.4968
 6681TIP3   OH220006   2.321   6.742   3.121 -0.1469  0.3212  0.0185
 6681TIP3    H120007   2.258   6.670   3.115 -0.1339  0.3759 -0.9440
 6681TIP3    H220008   2.357   6.751   3.033 -0.3597  1.6942  0.0368
 6682TIP3   OH220009   2.452   3.217   0.877  0.0647  0.2804  0.3543
 6682TIP3    H120010   2.472   3.138   0.826 -0.7111 -0.2822  0.8918
 6682TIP3    H220011   2.356   3.224   0.872  0.1525  1.3509  0.0819
 6683TIP3   OH220012   6.223   0.034   0.393 -0.6298 -0.2883 -0.0516
 6683TIP3    H120013   6.163   0.055   0.465 -1.0529 -0.1374 -0.4448
 6683TIP3    H220014   6.175   0.059   0.314 -0.0111 -0.0742 -0.3634
 6684TIP3   OH220015   4.485   5.944   5.762 -0.3147 -0.0465 -0.2260
 6684TIP3    H120016   4.405   5.958   5.711  0.3359 -1.2884 -1.6547
 6684TIP3    H220017   4.544   6.014   5.737  0.0914 -0.7859 -1.4257
 6685TIP3   OH220018   4.628   1.994   0.136  0.1219 -0.3748  0.4108
 6685TIP3    H120019   4.680   1.957   0.207 -0.2676  0.1470  0.9706
 6685TIP3    H220020   4.562   1.927   0.118  0.9349 -1.0203 -0.2705
 6686TIP3   OH220021   6.247   5.170   5.345  0.6344 -0.4709 -0.4829
 6686TIP3    H120022   6.249   5.167   5.441  2.2833  0.5180 -0.4515
 6686TIP3    H220023   6.168   5.122   5.321  0.3749 -1.0254  1.3573
 6687TIP3   OH220024   5.631   2.698   1.668  0.4117  0.3929  0.4655
 6687TIP3    H120025   5.556   2.753   1.691 -0.3311 -0.2835 -0.2751
 6687TIP3    H220026   5.706   2.756   1.676 -0.0572  0.7980  2.2877
 6688TIP3   OH220027   4.961   5.220   5.895 -0.4012 -0.5130 -0.1709
 6688TIP3    H120028   4.943   5.296   5.840  0.8205 -0.9335 -1.2095
 6688TIP3    H220029   5.056   5.222   5.909 -0.1818 -2.3080 -1.0042
 6689TIP3   OH220030   2.963   4.307   3.445  0.4772 -0.4527 -0.8495
 6689TIP3    H120031   2.959   4.351   3.361  1.5431 -0.0033 -0.6780
 6689TIP3    H220032   2.892   4.243   3.442 -2.3067  2.3572 -0.4437
 6690TIP3   OH220033   6.490   6.123   5.339  0.1831 -0.2120 -0.1636
 6690TIP3    H120034   6.543   6.193   5.301  0.6685  0.4582  1.6577
 6690TIP3    H220035   6.428   6.100   5.270 -0.6730  2.6943 -0.5020
 6691TIP3   OH220036   3.395   4.181   0.794 -0.2381 -0.2072  0.4046
 6691TIP3    H120037   3.450   4.146   0.863 -0.8543 -2.0464  0.0232
 6691TIP3    H220038   3.322   4.223   0.840 -0.7459 -1.5880  0.9051
 6692TIP3   OH220039   3.394   2.204   2.522 -0.0932  0.3354  0.1557
 6692TIP3    H120040   3.315   2.170   2.480  0.0033  1.3845 -0.9294
 6692TIP3    H220041   3.380   2.299   2.526  0.7817  0.4507  0.6704
 6693TIP3   OH220042   3.761   0.076   5.553 -0.2336 -0.3631  0.5992
 6693TIP3    H120043   3.753   0.063   5.648  1.0463 -0.8745  0.6601
 6693TIP3    H220044   3.711   0.155   5.535 -1.7465 -1.0813  1.4649
 6694TIP3   OH220045   3.408   3.458   4.119  0.0468 -0.2442 -0.0060
 6694TIP3    H120046   3.357   3.463   4.038  2.6462  0.6413 -1.7263
 6694TIP3    H220047   3.433   3.549   4.136  0.3492 -0.5494  1.2667
 6695TIP3   OH220048   3.795   3.604   1.884 -0.2104  0.1583 -0.1522
 6695TIP3    H120049   3.758   3.656   1.956  0.4571  0.2888  0.1011
 6695TIP3    H220050   3.876   3.568   1.920  0.2664  0.4481 -0.9366
 6696TIP3   OH220051   5.853   5.445   4.002  0.6617  0.1147 -0.3317
 6696TIP3    H120052   5.888   5.498   4.073 -0.8461  0.2887  0.3262
 6696TIP3    H220053   5.874   5.355   4.027 -0.9824  0.0669  1.0518
 6697TIP3   OH220054   0.360   4.337   2.296  0.0369 -0.2241 -0.5782
 6697TIP3    H120055   0.369   4.431   2.280  0.5212 -0.1528  0.0801
 6697TIP3    H220056   0.266   4.323   2.302 -0.0051  0.4458  0.5816
 6698TIP3   OH220057   3.164   6.601   5.342 -0.1058 -0.0052  0.3126
 6698TIP3    H120058   3.244   6.651   5.327  0.4023 -0.1282  2.4012
 6698TIP3    H220059   3.125   6.640   5.420 -1.6436 -0.5119 -0.1597
 6699TIP3   OH220060   5.062   4.867   1.437 -0.5731 -0.5390  0.2252
 6699TIP3    H120061   5.090   4.951   1.398  0.8626 -0.6815  0.8733
 6699TIP3    H220062   5.090   4.801   1.373 -0.8304 -0.5934  0.1671
 6700TIP3   OH220063   3.685   4.490   2.180 -0.0096  0.1918 -0.1472
 6700TIP3    H120064   3.618   4.558   2.194  2.6447  2.4771  3.0776
 6700TIP3    H220065   3.639   4.421   2.132 -4.3809  1.9335  1.0319
 6701TIP3   OH220066   1.696   3.063   3.078 -0.2013 -0.1092 -0.8877
 6701TIP3    H120067   1.613   3.057   3.031 -0.5222 -0.3891 -0.2898
 6701TIP3    H220068   1.676   3.036   3.167  0.5635 -0.3311 -0.7722
 6702TIP3   OH220069   4.191   6.136   0.981 -0.2258  0.2318  0.3386
 6702TIP3    H120070   4.270   6.092   1.011 -0.2460  0.9598  1.5112
 6702TIP3    H220071   4.137   6.066   0.946 -0.1383 -0.6693  1.9069
 6703TIP3   OH220072   1.495   1.939   3.628  0.0280 -0.5319 -0.3213
 6703TIP3    H120073   1.508   1.949   3.723 -0.5906  2.6849 -0.4666
 6703TIP3    H220074   1.580   1.959   3.590  0.3532 -2.1162 -0.4929
 6704TIP3   OH220075   3.028   0.484   4.231 -0.7613 -0.6416 -0.2487
 6704TIP3    H120076   2.965   0.429   4.278  0.0522 -0.1402  1.5479
 6704TIP3    H220077   3.111   0.436   4.238 -0.8298 -1.1000 -2.2241
 6705TIP3   OH220078   4.378   2.185   0.786  0.1072 -0.0382  0.2953
 6705TIP3    H120079   4.359   2.275   0.760  1.2649 -0.3800 -2.0765
 6705TIP3    H220080   4.304   2.134   0.752  0.3321 -0.1786  0.0084
 6706TIP3   OH220081   3.314   2.036   3.807 -0.5681 -0.0515 -0.3113
 6706TIP3    H120082   3.358   1.952   3.816 -0.0205  0.0992 -1.4057
 6706TIP3    H220083   3.226   2.013   3.778 -0.9241 -0.3004  0.8855
 6707TIP3   OH220084   4.069   5.368   2.186  0.0804 -0.4948  0.1429
 6707TIP3    H120085   4.146   5.328   2.145  0.0941  0.5095 -0.8774
 6707TIP3    H220086   4.087   5.365   2.280  2.6762  2.1982 -0.1305
 6708TIP3   OH220087   3.889   1.412   5.091  0.0938 -0.0718 -0.0295
 6708TIP3    H120088   3.934   1.376   5.015 -1.0376  0.0218 -0.7662
 6708TIP3    H220089   3.844   1.337   5.130 -0.0719  0.0537  0.0191
 6709TIP3   OH220090   2.816   2.738   2.647  0.5447  0.1020 -0.2700
 6709TIP3    H120091   2.785   2.738   2.557  0.5511  0.3538 -0.2708
 6709TIP3    H220092   2.906   2.708   2.641  0.7683  0.7941 -0.4214
 6710TIP3   OH220093   6.522   3.045   4.137 -0.1276 -0.3185  0.5719
 6710TIP3    H120094   6.535   3.061   4.044 -2.8543 -0.1455  0.1472
 6710TIP3    H220095   6.519   2.950   4.145 -2.1084 -0.3426  0.0529
 6711TIP3   OH220096   1.038   0.593   3.770 -0.6258 -0.4692  0.2329
 6711TIP3    H120097   0.996   0.537   3.835 -0.7752  1.1048  1.5524
 6711TIP3    H220098   0.968   0.649   3.737  0.1794  1.6525  1.8920
 6712TIP3   OH220099   2.682   2.674   3.859 -0.1031  0.2718 -0.0088
 6712TIP3    H120100   2.595   2.672   3.899 -0.0894 -3.9326  0.2193
 6712TIP3    H220101   2.713   2.584   3.865  3.0389  0.9752 -2.8491
 6713TIP3   OH220102   4.117   0.374   4.746 -0.0186  0.7410  0.2525
 6713TIP3    H120103   4.196   0.337   4.785 -0.1969 -1.7112 -1.4785
 6713TIP3    H220104   4.149   0.439   4.684  0.5771  0.4350  0.2351
 6714TIP3   OH220105   6.653   2.488   3.109  0.3126  0.0755  0.1285
 6714TIP3    H120106   6.746   2.471   3.089  1.1392  2.4487  1.5582
 6714TIP3    H220107   6.648   2.481   3.204 -0.9705  0.0645  0.0668
 6715TIP3   OH220108   0.263   3.639   5.403  0.6410  0.0961 -0.2221
 6715TIP3    H120109   0.351   3.674   5.388  0.8184  0.1788  0.9305
 6715TIP3    H220110   0.227   3.626   5.315  2.0778 -0.6654 -0.7311
 6716TIP3   OH220111   2.843   2.815   3.429 -0.0860 -0.3848 -0.2482
 6716TIP3    H120112   2.875   2.805   3.339 -1.5950  1.5083 -1.0593
 6716TIP3    H220113   2.813   2.727   3.453  1.0987 -1.1084 -1.2558
 6717TIP3   OH220114   6.913   2.493   2.137  0.8729  0.1142 -0.6142
 6717TIP3    H120115   6.949   2.575   2.172 -0.4131  0.1616  0.6637
 6717TIP3    H220116   6.952   2.486   2.049  2.2975  1.2311 -0.1149
 6718TIP3   OH220117   1.653   1.402   2.997 -0.3104 -0.3082  0.4933
 6718TIP3    H120118   1.573   1.423   3.045 -0.5551 -1.0624  0.4286
 6718TIP3    H220119   1.637   1.315   2.960  0.3532 -0.2631  0.0761
 6719TIP3   OH220120   5.743   2.617   2.121 -0.6781 -0.1230 -0.2234
 6719TIP3    H120121   5.794   2.640   2.043  0.8307  0.4839  0.9070
 6719TIP3    H220122   5.702   2.699   2.149  2.8615  0.9751  2.4695
 6720TIP3   OH220123   2.197   4.906   4.961 -0.3559 -0.3768 -0.3837
 6720TIP3    H120124   2.243   4.890   4.879 -1.6097  1.0989 -1.4356
 6720TIP3    H220125   2.121   4.960   4.936  0.3809  1.9851  2.0104
 6721TIP3   OH220126   2.227   6.327   3.077 -0.2788  0.0196 -0.0263
 6721TIP3    H120127   2.278   6.342   3.156  1.9003 -3.1524 -0.6317
 6721TIP3    H220128   2.172   6.251   3.098 -1.2380  0.4297 -0.9469
 6722TIP3   OH220129   0.398   0.108   1.490  0.3657 -0.6579  0.4192
 6722TIP3    H120130   0.468   0.133   1.551 -0.2605  1.1951  0.4338
 6722TIP3    H220131   0.344   0.186   1.483  0.1753 -0.9541 -2.1938
 6723TIP3   OH220132   0.076   4.810   1.049  0.3779  0.1568  0.1869
 6723TIP3    H120133   0.129   4.833   1.126  1.7413 -0.4983 -0.5395
 6723TIP3    H220134   0.044   4.722   1.067 -1.3326  0.8954  1.0541
 6724TIP3   OH220135   7.190   2.487   2.285 -0.2849  0.1434 -0.1491
 6724TIP3    H120136   7.126   2.426   2.247  0.0594 -1.1604  1.2735
 6724TIP3    H220137   7.146   2.572   2.285 -2.1423 -0.7664  1.0320
 6725TIP3   OH220138   1.385   0.571   0.025  0.1155  0.5820 -0.1558
 6725TIP3    H120139   1.390   0.667   0.022 -2.7753  0.8521  0.6738
 6725TIP3    H220140   1.309   0.550  -0.030  0.8335 -1.2727 -0.4912
 6726TIP3   OH220141   1.115   1.176   2.969  0.4911 -0.0132 -0.1630
 6726TIP3    H120142   1.055   1.108   2.939  0.8517  0.1988 -1.4660
 6726TIP3    H220143   1.118   1.239   2.896 -0.2643  1.7037  1.2046
 6727TIP3   OH220144   4.179   0.995   0.155 -0.4425 -0.0146 -0.5180
 6727TIP3    H120145   4.247   0.937   0.189  0.3460  0.8854 -0.5450
 6727TIP3    H220146   4.112   0.995   0.223 -0.1001 -0.3566 -0.1769
 6728TIP3   OH220147   0.211   0.111   2.701  0.2404 -0.3517  0.4294
 6728TIP3    H120148   0.128   0.073   2.728  0.2485  0.1644  1.2373
 6728TIP3    H220149   0.216   0.095   2.607  0.2300 -2.2682  0.7296
 6729TIP3   OH220150   4.800   3.262   2.717  0.1191 -0.4195 -0.3634
 6729TIP3    H120151   4.862   3.190   2.707  1.1942  0.1667  1.6748
 6729TIP3    H220152   4.715   3.219   2.726  0.9486 -1.6699  2.8127
 6730TIP3   OH220153   4.824   2.464   0.718  0.0008  0.3022 -0.2082
 6730TIP3    H120154   4.878   2.515   0.658 -1.1895  1.5353 -0.2790
 6730TIP3    H220155   4.756   2.425   0.663 -1.2409  1.6397  0.3279
 6731TIP3   OH220156   0.968   2.249   0.479  0.1802  0.0496  0.3674
 6731TIP3    H120157   0.902   2.312   0.451  0.4985  0.1053 -0.2748
 6731TIP3    H220158   0.996   2.206   0.399  0.4101 -0.4814  0.7251
 6732TIP3   OH220159   5.012   5.932   2.177  0.4876 -0.1337  0.6047
 6732TIP3    H120160   4.950   5.958   2.244 -0.2140 -0.1845 -0.0064
 6732TIP3    H220161   4.966   5.865   2.126  0.9627 -0.0314  0.0197
 6733TIP3   OH220162   2.120   4.914   5.400  0.2611 -0.2799  0.7065
 6733TIP3    H120163   2.108   4.870   5.317 -2.7108  1.1618  0.2418
 6733TIP3    H220164   2.128   5.007   5.377  0.9980 -0.0043  1.9624
 6734TIP3   OH220165   3.648   0.903   5.510 -0.5171 -0.2471  0.6128
 6734TIP3    H120166   3.602   0.956   5.446 -0.7459  0.6906  1.5248
 6734TIP3    H220167   3.579   0.860   5.560 -0.3362 -1.3851 -0.0705
 6735TIP3   OH220168   5.393   0.703   0.055  0.2534 -0.8443 -0.6311
 6735TIP3    H120169   5.373   0.759   0.131  0.2839 -2.2536  0.4663
 6735TIP3    H220170   5.332   0.733  -0.013  0.1301  0.3692 -0.0184
 6736TIP3   OH220171   5.488   2.165   3.964  0.4374  0.1495  0.4095
 6736TIP3    H120172   5.508   2.084   4.010 -0.1145 -0.5434 -0.5247
 6736TIP3    H220173   5.451   2.136   3.880 -1.2344  1.3437  0.6731
 6737TIP3   OH220174   4.616   1.831   2.990  0.1428  0.8543 -0.3917
 6737TIP3    H120175   4.584   1.908   3.038 -0.0189  0.9292 -0.6134
 6737TIP3    H220176   4.676   1.867   2.924  1.9145  0.5842  1.0080
 6738TIP3   OH220177   6.797   5.311   2.588  0.5043 -0.2000  0.3537
 6738TIP3    H120178   6.832   5.400   2.594 -0.3370  0.5019 -2.9048
 6738TIP3    H220179   6.709   5.318   2.625 -1.0770  1.4699 -3.2278
 6739TIP3   OH220180   4.026   1.683   2.692 -0.6919  0.7285  0.0042
 6739TIP3    H120181   3.932   1.691   2.678 -0.9832 -1.8193  0.1346
 6739TIP3    H220182   4.061   1.658   2.606 -0.3457  0.2688  0.2718
 6740TIP3   OH220183   0.845   5.981   3.400 -0.6181  0.3876  0.7638
 6740TIP3    H120184   0.908   5.968   3.329 -2.0552 -1.3754 -0.2870
 6740TIP3    H220185   0.781   6.042   3.365 -0.7620  0.3289  0.9224
 6741TIP3   OH220186   6.000   3.795   5.007 -0.5426  0.2435 -0.1209
 6741TIP3    H120187   6.074   3.850   4.981 -1.3455  1.8475  0.8245
 6741TIP3    H220188   5.927   3.857   5.017 -2.1791 -1.3581 -1.5852
 6742TIP3   OH220189   5.229   1.751   5.068  0.0074  0.1473 -0.1228
 6742TIP3    H120190   5.192   1.780   5.152  0.0161  0.3998 -0.2035
 6742TIP3    H220191   5.226   1.656   5.071 -0.1793  0.1603  0.0821
 6743TIP3   OH220192   3.663   3.035   5.070  0.1553 -0.4942 -0.1699
 6743TIP3    H120193   3.633   3.080   5.149 -0.9449 -0.4233 -0.6096
 6743TIP3    H220194   3.728   3.095   5.032 -0.4918  0.2263 -0.1646
 6744TIP3   OH220195   3.145   6.662   1.312 -0.6251  0.2187  0.0353
 6744TIP3    H120196   3.203   6.735   1.293  0.5732 -0.8992 -0.7559
 6744TIP3    H220197   3.148   6.607   1.233 -1.7878 -0.5101  0.4597
 6745TIP3   OH220198   6.458   0.325   0.095  0.2597  0.6777  0.2248
 6745TIP3    H120199   6.435   0.332   0.188  2.3641  0.1268  0.8327
 6745TIP3    H220200   6.375   0.336   0.050 -0.7361  1.6651  2.1378
 6746TIP3   OH220201   6.701   5.623   4.712 -0.0477 -0.0830  0.2054
 6746TIP3    H120202   6.713   5.575   4.630  0.8634  0.4854 -0.0032
 6746TIP3    H220203   6.787   5.623   4.753 -0.7338 -1.4176  1.7867
 6747TIP3   OH220204   1.356   4.093   5.806 -0.2004  0.1029 -0.0299
 6747TIP3    H120205   1.400   4.063   5.727 -0.6846 -0.7827  0.0243
 6747TIP3    H220206   1.423   4.089   5.875  0.1566  0.6511 -0.3442
 6748TIP3   OH220207   3.356   5.759   1.948  0.2761 -0.0132  0.4103
 6748TIP3    H120208   3.342   5.758   2.043 -0.3964 -1.8186  0.3183
 6748TIP3    H220209   3.298   5.692   1.914  1.1246  0.0222 -1.2041
 6749TIP3   OH220210   2.169   0.917   5.733 -0.3786  0.2371  0.1425
 6749TIP3    H120211   2.198   0.910   5.642 -0.3740  0.4184  0.1297
 6749TIP3    H220212   2.085   0.873   5.735 -0.2564  0.0016  0.1066
 6750TIP3   OH220213   7.048   3.915   1.691 -0.3371 -0.6224  0.3563
 6750TIP3    H120214   7.105   3.898   1.766 -0.7814  0.2875  0.9270
 6750TIP3    H220215   6.990   3.985   1.721 -1.7599 -1.5234 -0.1997
 6751TIP3   OH220216   2.642   5.811   1.393  0.0806 -0.1832  0.0613
 6751TIP3    H120217   2.670   5.829   1.303 -0.1886  1.4853  0.2723
 6751TIP3    H220218   2.597   5.727   1.388  3.2137 -2.0062 -0.6793
 6752TIP3   OH220219   4.453   0.095   2.900 -0.2271  0.0055  0.2988
 6752TIP3    H120220   4.419   0.115   2.813  0.0018  1.7467  0.5793
 6752TIP3    H220221   4.513   0.022   2.886 -2.1014 -1.4413 -0.5905
 6753TIP3   OH220222   3.752   6.685   4.903  0.4828  0.0027  0.3589
 6753TIP3    H120223   3.685   6.647   4.846 -0.4287  0.9227  0.7849
 6753TIP3    H220224   3.727   6.777   4.911  2.8911  0.8785 -1.0426
 6754TIP3   OH220225   1.853   4.035   5.188 -0.2162 -0.4279  0.4282
 6754TIP3    H120226   1.779   3.981   5.160  0.0010 -0.4879 -0.0432
 6754TIP3    H220227   1.918   4.024   5.119 -0.2713  0.6468  0.1821
 6755TIP3   OH220228   4.989   6.063   2.655 -0.3484  0.0369 -0.1877
 6755TIP3    H120229   4.991   6.012   2.574 -1.8161 -0.6188  0.1367
 6755TIP3    H220230   4.994   6.154   2.626  1.6591 -0.2308 -0.8227
 6756TIP3   OH220231   5.963   2.931   1.096 -0.1092  0.1177  0.5370
 6756TIP3    H120232   5.910   2.976   1.030  1.5782 -0.4647 -1.3155
 6756TIP3    H220233   5.961   2.989   1.172 -2.5569  0.5728  0.2186
 6757TIP3   OH220234   6.001   1.747   4.817 -0.0843  0.1789  0.4117
 6757TIP3    H120235   5.985   1.832   4.858  0.7239 -0.5072  2.3004
 6757TIP3    H220236   5.947   1.686   4.868 -1.9878 -0.2824 -1.9780
 6758TIP3   OH220237   5.658   5.052   2.825 -0.2141  0.5542 -0.3002
 6758TIP3    H120238   5.668   4.992   2.898 -1.2823  0.2543 -0.3913
 6758TIP3    H220239   5.697   5.134   2.856  1.6565 -0.2736 -0.3356
 6759TIP3   OH220240   4.797   4.661   3.479  0.1408 -0.3261  0.4868
 6759TIP3    H120241   4.774   4.591   3.418  1.5307  0.6236 -1.2439
 6759TIP3    H220242   4.853   4.619   3.544  1.4549 -0.7869 -0.8707
 6760TIP3   OH220243   3.932   5.864   0.832 -0.3827  0.3367 -0.3370
 6760TIP3    H120244   3.919   5.952   0.796 -1.5419  0.5325  0.5087
 6760TIP3    H220245   3.964   5.812   0.758  1.2260  1.6681 -0.6455
 6761TIP3   OH220246   5.243   6.381   2.634 -0.3160 -0.7691 -0.0911
 6761TIP3    H120247   5.150   6.370   2.612  0.0075 -1.0570 -1.3882
 6761TIP3    H220248   5.251   6.472   2.662 -0.8129 -0.4440 -0.9680
 6762TIP3   OH220249   6.608   1.307   5.887  0.6033  0.3299  0.1816
 6762TIP3    H120250   6.642   1.388   5.924  0.0998 -0.3116  2.1547
 6762TIP3    H220251   6.524   1.332   5.847 -0.2651  0.5801  2.0479
 6763TIP3   OH220252   4.027   6.323   5.807  0.1390 -0.5727 -0.2616
 6763TIP3    H120253   4.078   6.379   5.866 -0.9972  0.0788  0.1349
 6763TIP3    H220254   4.066   6.337   5.721 -0.0547  0.7633 -0.1482
 6764TIP3   OH220255   4.140   2.268   4.518 -0.0794  0.1116  0.3047
 6764TIP3    H120256   4.104   2.356   4.531 -0.4876 -0.2012  1.3918
 6764TIP3    H220257   4.143   2.257   4.423 -0.4845  1.1098  0.1629
 6765TIP3   OH220258   6.147   5.421   3.811 -0.1410  0.1407  0.2952
 6765TIP3    H120259   6.149   5.389   3.902  0.7167  0.2637  0.3272
 6765TIP3    H220260   6.117   5.345   3.760  1.6684 -0.7100  0.4001
 6766TIP3   OH220261   6.185   6.701   2.510  0.0721  0.4190  0.0076
 6766TIP3    H120262   6.256   6.764   2.499 -0.1470  0.4463 -1.3691
 6766TIP3    H220263   6.229   6.617   2.518  0.2660  0.4122 -1.0357
 6767TIP3   OH220264   1.397   3.361   4.913  0.0873 -0.0734 -0.6321
 6767TIP3    H120265   1.479   3.377   4.960  0.3619 -0.7594 -0.8566
 6767TIP3    H220266   1.365   3.448   4.890  1.7018  0.1711 -2.1620
 6768TIP3   OH220267   4.490   1.662   2.260 -0.1477  0.0417  0.3696
 6768TIP3    H120268   4.561   1.708   2.216 -0.6837 -0.2800 -0.9032
 6768TIP3    H220269   4.411   1.706   2.229 -0.5623 -0.4393  0.7356
 6769TIP3   OH220270   2.186   0.801   1.962 -0.3135 -0.3239  0.3762
 6769TIP3    H120271   2.257   0.737   1.968 -0.1646 -0.2874 -0.7576
 6769TIP3    H220272   2.107   0.748   1.961 -0.2128 -0.4733 -0.0865
 6770TIP3   OH220273   6.372   0.041   4.701  0.1074 -0.8335 -0.3161
 6770TIP3    H120274   6.310   0.026   4.773 -0.2656 -0.2024 -0.4986
 6770TIP3    H220275   6.318   0.075   4.630  0.5291 -1.1331 -0.7855
 6771TIP3   OH220276   6.109   5.246   3.593  0.3734 -0.1759  0.0528
 6771TIP3    H120277   6.069   5.305   3.529 -1.3107 -0.4356  0.8192
 6771TIP3    H220278   6.062   5.164   3.583  1.3999 -0.8192  0.3352
 6772TIP3   OH220279   1.412   3.758   5.771  0.0189 -0.7610  0.1489
 6772TIP3    H120280   1.369   3.688   5.722  0.4611  0.1941 -1.6604
 6772TIP3    H220281   1.448   3.816   5.705  1.1970  0.2659  1.6189
 6773TIP3   OH220282   2.948   1.052   1.877  0.5395  0.0324 -0.0115
 6773TIP3    H120283   2.858   1.080   1.859  0.6678  1.4266  1.2793
 6773TIP3    H220284   2.948   0.958   1.860 -2.2058 -0.8424  3.6107
 6774TIP3   OH220285   3.013   0.330   2.022 -0.5036 -0.4911  0.9722
 6774TIP3    H120286   2.997   0.236   2.013 -0.2598 -0.3859 -1.0116
 6774TIP3    H220287   3.025   0.361   1.932 -1.1333  1.5479  1.5412
 6775TIP3   OH220288   5.748   4.581   0.202 -0.0052 -0.4791  0.3269
 6775TIP3    H120289   5.762   4.674   0.219  0.5150 -0.6598  0.9146
 6775TIP3    H220290   5.676   4.556   0.260  0.3310 -0.6029  0.6940
 6776TIP3   OH220291   4.068   2.012   3.833 -0.6358  0.4676  0.1474
 6776TIP3    H120292   4.116   2.035   3.913 -0.3079  0.2772  0.0078
 6776TIP3    H220293   4.010   1.941   3.859 -0.4488  0.3300  0.1918
 6777TIP3   OH220294   3.116   4.030   1.293 -0.1820 -0.3759  0.0062
 6777TIP3    H120295   3.064   4.091   1.241  1.0569  0.3192 -0.4480
 6777TIP3    H220296   3.171   3.985   1.229  1.2000  0.3317  0.6712
 6778TIP3   OH220297   5.353   2.643   2.897  0.4471  0.1176  0.0242
 6778TIP3    H120298   5.346   2.627   2.991  1.7889  1.8629  0.4786
 6778TIP3    H220299   5.312   2.567   2.856  0.0621 -0.7990  2.0069
 6779TIP3   OH220300   6.942   5.460   1.594 -0.4192 -0.5406 -0.2039
 6779TIP3    H120301   7.005   5.388   1.592  0.3551  0.1354 -1.3727
 6779TIP3    H220302   6.918   5.474   1.502 -1.7545 -0.3137  0.1498
 6780TIP3   OH220303   3.576   5.119   2.971 -0.2014 -0.0382  0.0699
 6780TIP3    H120304   3.544   5.208   2.985 -1.0777 -0.2083 -0.7519
 6780TIP3    H220305   3.506   5.063   3.004  0.2011 -0.4319  0.2685
 6781TIP3   OH220306   3.062   1.646   2.453 -0.0256  0.6189 -0.1004
 6781TIP3    H120307   2.981   1.610   2.491  0.6619 -0.9034 -0.0093
 6781TIP3    H220308   3.071   1.732   2.494 -1.6514  0.8677 -0.1951
 6782TIP3   OH220309   3.897   3.698   0.712  0.1199 -0.6501 -0.0552
 6782TIP3    H120310   3.937   3.634   0.771  2.6037  0.0473 -0.8298
 6782TIP3    H220311   3.967   3.718   0.649 -2.0479 -0.5476 -2.5719
 6783TIP3   OH220312   5.575   4.968   1.899  0.0963  0.6791  0.3116
 6783TIP3    H120313   5.570   5.033   1.830  1.2822  0.9743  0.4808
 6783TIP3    H220314   5.530   5.008   1.974 -0.6190  0.6180 -0.0771
 6784TIP3   OH220315   2.969   5.903   1.235  0.2927 -0.4850  0.1253
 6784TIP3    H120316   2.944   5.960   1.163  0.9652 -0.3160  0.0225
 6784TIP3    H220317   2.939   5.816   1.208 -1.4326 -0.0788  0.6250
 6785TIP3   OH220318   2.028   0.843   1.668 -0.1796  0.7764  0.1478
 6785TIP3    H120319   2.028   0.755   1.705 -0.0941  0.0420 -1.5025
 6785TIP3    H220320   1.976   0.835   1.588 -1.7944  2.6702  0.9187
 6786TIP3   OH220321   5.787   4.074   5.748 -0.0332  0.4374 -0.0827
 6786TIP3    H120322   5.807   4.167   5.742  0.3429  0.2962 -1.2872
 6786TIP3    H220323   5.730   4.057   5.673 -0.8939 -0.1129  0.6818
 6787TIP3   OH220324   0.739   0.155   3.061 -0.3995  0.9886  0.3851
 6787TIP3    H120325   0.821   0.166   3.109 -0.6913 -0.2757  1.2123
 6787TIP3    H220326   0.765   0.156   2.968  0.8602 -1.3203  0.6326
 6788TIP3   OH220327   5.348   0.677   2.805 -0.6781 -0.1825  0.2091
 6788TIP3    H120328   5.354   0.710   2.894 -2.0418 -0.2665  0.3534
 6788TIP3    H220329   5.358   0.582   2.813 -0.4217 -0.1575  0.2140
 6789TIP3   OH220330   1.789   4.487   4.129  1.0070  0.1038  0.7272
 6789TIP3    H120331   1.873   4.451   4.098  2.3328  1.6372  2.2870
 6789TIP3    H220332   1.789   4.577   4.097 -0.6333 -0.1995 -0.2167
 6790TIP3   OH220333   2.162   2.701   4.598 -0.2487 -0.4681 -0.3306
 6790TIP3    H120334   2.171   2.795   4.582 -0.9447 -0.6073 -1.6115
 6790TIP3    H220335   2.250   2.674   4.626 -0.4797  0.8840  1.9737
 6791TIP3   OH220336   4.655   0.903   4.272 -0.1692  0.0544 -0.3241
 6791TIP3    H120337   4.700   0.845   4.210 -0.6097 -1.0993  0.4068
 6791TIP3    H220338   4.602   0.960   4.216  0.0600 -0.4275 -1.0522
 6792TIP3   OH220339   0.009   6.168   1.313 -0.3436 -0.0699 -0.4093
 6792TIP3    H120340   0.049   6.083   1.294  0.8864 -0.2092  2.2167
 6792TIP3    H220341   0.056   6.199   1.391 -0.4321  3.2623 -1.5240
 6793TIP3   OH220342   0.462   3.225   1.435  0.2475 -0.0118  0.2963
 6793TIP3    H120343   0.428   3.228   1.525 -0.0555 -1.9570  0.2992
 6793TIP3    H220344   0.506   3.309   1.423 -2.1546  1.4806  1.2695
 6794TIP3   OH220345   1.069   5.777   3.905 -0.4775 -0.1984 -0.2684
 6794TIP3    H120346   1.066   5.775   3.810  0.2753 -0.5439 -0.2859
 6794TIP3    H220347   1.158   5.752   3.928 -0.6605 -0.1663  0.5303
 6795TIP3   OH220348   3.549   2.003   5.535 -0.3760 -0.2661 -0.4859
 6795TIP3    H120349   3.618   2.067   5.517 -1.0202  0.8800  0.9132
 6795TIP3    H220350   3.579   1.923   5.492  1.2540  0.5173 -0.9025
 6796TIP3   OH220351   4.531   6.451   2.489 -0.0484  0.4306 -0.5052
 6796TIP3    H120352   4.475   6.374   2.495  0.0364  0.2473 -1.7660
 6796TIP3    H220353   4.586   6.447   2.567  0.7226 -1.4195 -1.0966
 6797TIP3   OH220354   2.920   2.299   1.300  0.4872  0.0224  0.2072
 6797TIP3    H120355   2.963   2.216   1.321  0.6530  0.2420  0.7752
 6797TIP3    H220356   2.950   2.359   1.369 -0.8948  0.1309  0.7588
 6798TIP3   OH220357   4.649   0.300   1.750  0.3756  0.2870  0.4858
 6798TIP3    H120358   4.675   0.311   1.659  1.9671 -2.1806  0.5338
 6798TIP3    H220359   4.587   0.227   1.748  1.1447 -0.4149  1.4494
 6799TIP3   OH220360   6.476   6.662   1.903  0.4269 -0.6323 -0.1071
 6799TIP3    H120361   6.476   6.579   1.855  0.5813  0.3375 -1.8695
 6799TIP3    H220362   6.508   6.726   1.840 -0.9970  1.0153  0.7658
 6800TIP3   OH220363   2.370   4.753   3.668 -0.4249 -0.1345  0.5553
 6800TIP3    H120364   2.394   4.726   3.580  0.0506  1.0782  0.2779
 6800TIP3    H220365   2.444   4.726   3.722  0.0526  0.5740  0.2795
 6801TIP3   OH220366   4.641   2.720   3.234  0.2541  0.0025 -0.0239
 6801TIP3    H120367   4.627   2.792   3.173  1.9006 -0.0334 -0.5034
 6801TIP3    H220368   4.736   2.722   3.251  0.5625 -2.8319 -1.0280
 6802TIP3   OH220369   5.801   4.866   2.317  0.2283  0.6041  0.4120
 6802TIP3    H120370   5.873   4.811   2.286  1.8798  2.4141  0.7961
 6802TIP3    H220371   5.795   4.845   2.410 -1.0993 -0.9422  0.0158
 6803TIP3   OH220372   4.530   3.795   0.638 -0.1954 -0.0141  0.7291
 6803TIP3    H120373   4.470   3.721   0.642 -0.4702  0.2346  1.4055
 6803TIP3    H220374   4.478   3.870   0.665  0.1362  0.3957  0.2517
 6804TIP3   OH220375   2.688   4.822   4.342 -0.0159 -0.1738 -0.3592
 6804TIP3    H120376   2.699   4.727   4.337  1.9956 -0.0933  1.4653
 6804TIP3    H220377   2.765   4.857   4.298 -0.5795  0.6485 -0.7216
 6805TIP3   OH220378   6.227   3.542   3.838  0.4945  0.5224  0.1969
 6805TIP3    H120379   6.228   3.519   3.931  0.7903 -1.4487 -0.2506
 6805TIP3    H220380   6.320   3.543   3.813  0.3752 -3.0164 -0.9160
 6806TIP3   OH220381   2.602   2.670   0.774 -0.0069 -0.4333 -0.0023
 6806TIP3    H120382   2.560   2.661   0.860 -0.6875 -1.1092 -0.3943
 6806TIP3    H220383   2.529   2.674   0.712  0.4690  0.3829 -0.5293
 6807TIP3   OH220384   5.281   5.925   2.247 -0.1184  0.1589 -0.2681
 6807TIP3    H120385   5.188   5.909   2.234  0.0028 -2.0678  1.1713
 6807TIP3    H220386   5.286   5.976   2.328 -0.0830  0.3523 -0.3914
 6808TIP3   OH220387   5.181   0.520   4.851  0.1906 -0.8195 -0.1855
 6808TIP3    H120388   5.169   0.523   4.946 -1.6766 -3.3322 -0.2258
 6808TIP3    H220389   5.273   0.499   4.839  0.5976  0.1976  1.0247
 6809TIP3   OH220390   0.357   1.398   4.289 -0.2387 -0.4080  0.0455
 6809TIP3    H120391   0.314   1.312   4.285  0.0400 -0.5277 -0.3663
 6809TIP3    H220392   0.312   1.451   4.224 -1.3191  0.1820  1.2210
 6810TIP3   OH220393   1.197   4.289   0.305  0.4189 -0.3087 -0.1184
 6810TIP3    H120394   1.240   4.279   0.220  1.0996  1.3475 -0.0115
 6810TIP3    H220395   1.219   4.378   0.333 -1.6620 -0.0026  0.7597
 6811TIP3   OH220396   2.678   2.006   3.118 -0.3806 -0.4286 -0.2958
 6811TIP3    H120397   2.583   2.007   3.119 -0.4281 -0.7505 -1.5938
 6811TIP3    H220398   2.704   2.095   3.142 -0.9116 -0.9092  2.3635
 6812TIP3   OH220399   4.742   5.055   2.068 -0.4336 -0.2378  0.4464
 6812TIP3    H120400   4.765   5.147   2.059  0.4301 -0.5171 -0.4027
 6812TIP3    H220401   4.824   5.008   2.050 -1.2519 -1.2316 -0.8721
 6813TIP3   OH220402   3.225   3.225   0.261 -0.1641 -0.5573  0.5174
 6813TIP3    H120403   3.188   3.275   0.333 -0.5305  0.0336 -0.0640
 6813TIP3    H220404   3.149   3.184   0.219  0.1672 -1.9594  1.2353
 6814TIP3   OH220405   4.916   1.385   0.482  0.2034 -0.0692 -0.1690
 6814TIP3    H120406   4.948   1.364   0.394  0.7355  0.3196 -0.0770
 6814TIP3    H220407   4.863   1.463   0.471 -0.1931 -0.3448 -0.2260
 6815TIP3   OH220408   1.245   3.160   0.238 -0.0397 -0.2980 -0.1945
 6815TIP3    H120409   1.226   3.253   0.244  2.1966  0.1289  2.0249
 6815TIP3    H220410   1.177   3.118   0.291  1.3790  0.6082  2.5720
 6816TIP3   OH220411   6.227   3.281   1.403 -0.7900  0.0841 -0.5734
 6816TIP3    H120412   6.253   3.371   1.384  1.1851 -0.4850 -0.8104
 6816TIP3    H220413   6.285   3.253   1.474 -0.9547 -1.1881 -0.9085
 6817TIP3   OH220414   6.371   4.892   0.546 -0.0223  0.1720  0.1742
 6817TIP3    H120415   6.320   4.886   0.465 -0.7717 -1.6607  0.7187
 6817TIP3    H220416   6.440   4.955   0.526  0.3932 -0.9105 -2.2220
 6818TIP3   OH220417   5.253   6.351   5.827 -0.0551  0.0241 -0.0663
 6818TIP3    H120418   5.291   6.412   5.763  0.1669 -0.9984 -0.9348
 6818TIP3    H220419   5.303   6.366   5.907  1.4035 -0.4399 -0.8511
 6819TIP3   OH220420   2.725   0.748   2.028 -0.1988 -0.3349  0.0066
 6819TIP3    H120421   2.709   0.700   1.947 -0.2973  0.8187 -0.6893
 6819TIP3    H220422   2.814   0.726   2.053 -1.0448 -2.8400  1.1149
 6820TIP3   OH220423   3.035   1.565   3.931 -0.2010  0.4001 -0.0459
 6820TIP3    H120424   3.052   1.526   4.017  0.4896 -2.0939 -1.2340
 6820TIP3    H220425   2.940   1.580   3.931 -0.4979 -1.2370  0.5383
 6821TIP3   OH220426   3.200   2.726   4.808 -0.0102 -0.3064 -0.1781
 6821TIP3    H120427   3.105   2.741   4.802  0.0733  1.2898  1.6179
 6821TIP3    H220428   3.238   2.800   4.760  0.3223  0.2984  0.9874
 6822TIP3   OH220429   6.982   3.715   0.188 -0.0053 -0.1109 -0.5929
 6822TIP3    H120430   6.896   3.684   0.216 -0.6467  0.3204 -1.9859
 6822TIP3    H220431   7.030   3.635   0.164 -0.4737 -0.2749 -1.0071
 6823TIP3   OH220432   1.499   1.882   0.228  0.2032 -0.2036  0.3689
 6823TIP3    H120433   1.567   1.930   0.275  0.6182 -1.0318  0.6281
 6823TIP3    H220434   1.451   1.835   0.296  0.1314 -0.5700  0.0714
 6824TIP3   OH220435   0.302   1.337   4.629 -0.1468 -0.1268  0.7021
 6824TIP3    H120436   0.370   1.332   4.562  0.5202 -0.9510  1.4049
 6824TIP3    H220437   0.220   1.321   4.583  0.1305  0.9211 -0.1698
 6825TIP3   OH220438   5.168   4.458   3.579 -0.0986  0.4878  0.2262
 6825TIP3    H120439   5.209   4.390   3.631  1.0838  0.1069 -1.1238
 6825TIP3    H220440   5.183   4.431   3.488  1.4288  3.0774 -0.3967
 6826TIP3   OH220441   2.536   2.466   0.391 -0.2761  0.0688  0.5181
 6826TIP3    H120442   2.520   2.548   0.343  0.5313  0.9814  1.7304
 6826TIP3    H220443   2.450   2.439   0.422 -1.0212 -1.1767 -2.3200
 6827TIP3   OH220444   2.489   3.418   2.428  0.2604  0.1372  0.3504
 6827TIP3    H120445   2.531   3.443   2.345 -2.1133  1.5310 -0.5577
 6827TIP3    H220446   2.441   3.338   2.407 -0.4635  0.5729  0.2919
 6828TIP3   OH220447   5.889   5.017   5.546  0.0922  0.3020  0.7124
 6828TIP3    H120448   5.823   5.049   5.608 -0.7554 -1.8746  1.0129
 6828TIP3    H220449   5.971   5.053   5.579 -0.7870  2.4113  0.7991
 6829TIP3   OH220450   0.175   0.863   4.384  0.0502 -0.1750 -0.0148
 6829TIP3    H120451   0.189   0.788   4.327 -1.3346  1.3907 -2.5802
 6829TIP3    H220452   0.082   0.858   4.407  0.3205 -0.1048  1.2060
 6830TIP3   OH220453   0.331   2.886   3.294 -0.2792  0.3181 -0.3090
 6830TIP3    H120454   0.268   2.899   3.365  0.6531 -2.1818  1.0991
 6830TIP3    H220455   0.288   2.826   3.234  0.0112  0.1339 -0.3383
 6831TIP3   OH220456   2.599   5.009   2.949  0.1618 -0.0764 -0.0843
 6831TIP3    H120457   2.535   5.055   2.895 -0.3257  0.2312  0.7375
 6831TIP3    H220458   2.672   4.990   2.889 -0.2924  0.3973 -0.8002
 6832TIP3   OH220459   1.440   2.654   4.596  0.3924  0.1568  0.3740
 6832TIP3    H120460   1.517   2.710   4.584 -0.2749  1.2807  1.1115
 6832TIP3    H220461   1.415   2.627   4.508 -0.3308  2.5235 -0.2025
 6833TIP3   OH220462   3.444   2.375   5.412 -0.5231  0.1682 -0.0610
 6833TIP3    H120463   3.362   2.359   5.366 -0.2056 -1.4249 -0.1197
 6833TIP3    H220464   3.441   2.317   5.488 -0.1624  1.3205  0.8821
 6834TIP3   OH220465   1.947   4.010   3.240 -0.0761 -0.7846 -0.5140
 6834TIP3    H120466   1.901   3.935   3.202 -1.3959  0.1522 -0.8596
 6834TIP3    H220467   1.877   4.068   3.269  0.9254 -0.0219  0.4329
 6835TIP3   OH220468   5.309   4.260   0.466 -0.1000  0.5918 -0.3223
 6835TIP3    H120469   5.330   4.168   0.479  0.6329  0.7507 -0.3191
 6835TIP3    H220470   5.214   4.263   0.460 -0.2698  0.0601  1.5534
 6836TIP3   OH220471   5.127   4.016   2.290  0.4773 -0.0224 -0.6117
 6836TIP3    H120472   5.124   3.935   2.341 -1.2713 -0.3911 -1.2166
 6836TIP3    H220473   5.147   3.987   2.201  1.6782  0.4337 -0.5143
 6837TIP3   OH220474   7.080   4.899   1.395  0.1629  0.2110 -0.2379
 6837TIP3    H120475   7.122   4.953   1.328  0.0704  1.8115  0.9426
 6837TIP3    H220476   7.038   4.828   1.346  1.5766  0.3363 -1.7027
 6838TIP3   OH220477   2.055   2.955   3.285 -0.4419 -0.4735 -0.6311
 6838TIP3    H120478   1.984   2.901   3.321  0.3250 -1.6007 -0.7427
 6838TIP3    H220479   2.011   3.030   3.246 -1.5444 -0.9713 -0.3871
 6839TIP3   OH220480   5.213   5.846   4.697  0.2178 -0.4333  0.5246
 6839TIP3    H120481   5.131   5.891   4.722  1.0731  0.9182  1.0089
 6839TIP3    H220482   5.274   5.868   4.767  0.8371 -1.9635  0.4924
 6840TIP3   OH220483   3.671   2.808   2.590  0.6156 -0.2900  0.9679
 6840TIP3    H120484   3.602   2.795   2.655 -0.5304  0.0002 -0.1516
 6840TIP3    H220485   3.691   2.902   2.596 -2.2564  0.6717 -1.6487
 6841TIP3   OH220486   3.220   1.003   0.699  0.5135  0.5945  0.9764
 6841TIP3    H120487   3.192   0.994   0.607  1.8461 -1.6662  0.7045
 6841TIP3    H220488   3.222   1.097   0.715 -1.0175  1.0017 -0.9058
 6842TIP3   OH220489   2.891   1.327   4.091 -0.1678 -0.5492 -0.4790
 6842TIP3    H120490   2.842   1.353   4.013 -0.1370  2.3710  0.3580
 6842TIP3    H220491   2.824   1.309   4.157 -0.2204  1.5473  0.1021
 6843TIP3   OH220492   1.309   6.368   3.787  0.3372 -0.1483  0.1356
 6843TIP3    H120493   1.382   6.352   3.846  0.1874 -0.0819  0.3387
 6843TIP3    H220494   1.288   6.282   3.751  0.6715 -0.1303 -0.1099
 6844TIP3   OH220495   6.990   5.787   0.357 -0.0670 -0.0245 -0.1288
 6844TIP3    H120496   6.985   5.755   0.447  2.3820  2.6842  1.1234
 6844TIP3    H220497   7.082   5.778   0.333 -0.1481  1.8078 -1.3241
 6845TIP3   OH220498   1.194   4.875   2.114 -0.1052  0.0845 -0.3552
 6845TIP3    H120499   1.157   4.792   2.083  0.5593  0.0622 -1.1320
 6845TIP3    H220500   1.166   4.881   2.206 -2.1983  0.1869 -0.9452
 6846TIP3   OH220501   0.708   6.763   3.819  0.2660  0.1057  0.7207
 6846TIP3    H120502   0.723   6.854   3.796 -1.3539  0.6502  1.6604
 6846TIP3    H220503   0.781   6.740   3.876  0.9248  0.6507  0.1142
 6847TIP3   OH220504   3.444   0.525   0.632  0.3601  0.4351  0.5814
 6847TIP3    H120505   3.537   0.502   0.634  0.2917  0.1768  0.9021
 6847TIP3    H220506   3.441   0.616   0.662  0.5303  0.5146  0.3575
 6848TIP3   OH220507   2.439   0.161   3.286  0.6529  0.4277  0.2032
 6848TIP3    H120508   2.370   0.148   3.221  0.8952  1.9956 -0.4122
 6848TIP3    H220509   2.500   0.088   3.272  0.8912  0.9196 -1.6078
 6849TIP3   OH220510   4.279   1.593   2.806  0.5805  0.1839 -0.4986
 6849TIP3    H120511   4.326   1.664   2.850 -0.2255  0.7417 -0.5147
 6849TIP3    H220512   4.192   1.629   2.789 -0.3066 -1.2797  0.7284
 6850TIP3   OH220513   1.253   2.018   5.632  0.0401  0.0456 -0.0548
 6850TIP3    H120514   1.181   1.991   5.576  0.5414 -1.6515  0.0691
 6850TIP3    H220515   1.291   2.094   5.587 -2.1561  1.3689  0.1925
 6851TIP3   OH220516   3.749   2.074   0.901  0.6143  0.0774  0.0326
 6851TIP3    H120517   3.840   2.065   0.929  1.0191  1.2368 -0.8507
 6851TIP3    H220518   3.698   2.065   0.981  1.5309 -0.1586  0.5984
 6852TIP3   OH220519   5.878   5.060   3.163 -0.3373 -0.1063 -0.0427
 6852TIP3    H120520   5.801   5.026   3.119  1.0038 -2.5065 -0.6954
 6852TIP3    H220521   5.877   5.018   3.249  1.5298 -2.2900 -0.9874
 6853TIP3   OH220522   1.285   4.047   1.176 -0.2344  0.2334  0.6105
 6853TIP3    H120523   1.202   4.075   1.214 -1.1882 -0.8034 -0.6005
 6853TIP3    H220524   1.346   4.043   1.250 -1.3631  0.6077  1.5870
 6854TIP3   OH220525   0.772   3.698   0.889  0.1201 -0.4253 -0.2588
 6854TIP3    H120526   0.765   3.602   0.880  1.5119 -0.5764 -0.0862
 6854TIP3    H220527   0.782   3.713   0.983  0.3847 -0.1603 -0.3273
 6855TIP3   OH220528   0.200   6.067   5.801  0.4445 -0.1734 -0.0817
 6855TIP3    H120529   0.264   6.084   5.870 -1.8333  4.1375  1.3069
 6855TIP3    H220530   0.126   6.028   5.847 -0.4749  1.2112 -0.3576
 6856TIP3   OH220531   7.123   4.887   0.089 -0.1434  0.1158  0.2399
 6856TIP3    H120532   7.106   4.848   0.175 -0.2661 -0.5844 -0.0886
 6856TIP3    H220533   7.038   4.885   0.045 -0.4795  2.0620  0.7020
 6857TIP3   OH220534   1.856   3.533   3.978 -0.0455  0.2188 -0.0116
 6857TIP3    H120535   1.887   3.461   3.923 -0.9418 -0.1902 -0.0107
 6857TIP3    H220536   1.929   3.594   3.983  0.4447 -0.3072 -0.6893
 6858TIP3   OH220537   4.408   0.152   5.372  0.6426  0.1606  0.0499
 6858TIP3    H120538   4.407   0.118   5.462  1.4412  0.9946  0.3920
 6858TIP3    H220539   4.316   0.159   5.348  0.4094 -2.8769 -0.3288
 6859TIP3   OH220540   6.952   1.975   4.262 -0.2625 -0.5993 -0.6911
 6859TIP3    H120541   6.929   2.046   4.203 -1.2399 -1.9760 -2.0694
 6859TIP3    H220542   6.946   1.896   4.208  1.3883 -1.6855  0.6126
 6860TIP3   OH220543   6.264   3.284   5.836 -0.0743 -0.1966  0.3489
 6860TIP3    H120544   6.195   3.350   5.836 -1.6269 -1.7347  1.5720
 6860TIP3    H220545   6.336   3.325   5.787 -2.3619  0.9228 -2.3635
 6861TIP3   OH220546   0.620   2.488   2.864 -0.0755  0.1961 -0.3910
 6861TIP3    H120547   0.602   2.582   2.866 -3.3007 -0.3289  0.9010
 6861TIP3    H220548   0.555   2.452   2.804  1.9649 -1.1392 -1.9376
 6862TIP3   OH220549   3.383   2.004   3.152  0.5858 -0.3633  0.3016
 6862TIP3    H120550   3.371   2.099   3.148  0.6532 -0.3603  0.1772
 6862TIP3    H220551   3.477   1.991   3.156  0.7068 -0.4974 -1.9482
 6863TIP3   OH220552   2.188   4.257   2.735 -0.3686  1.1177 -0.2425
 6863TIP3    H120553   2.186   4.349   2.763  2.9275  0.9257  1.1185
 6863TIP3    H220554   2.159   4.208   2.812  0.0875  0.9525 -0.1708
 6864TIP3   OH220555   2.966   4.896   0.866  0.2317  0.1415 -0.2325
 6864TIP3    H120556   2.882   4.914   0.907 -0.2167  0.7478 -1.3837
 6864TIP3    H220557   3.012   4.980   0.867  0.0292  0.2854 -1.3511
 6865TIP3   OH220558   2.050   3.633   3.188  0.0468 -0.6929  0.4711
 6865TIP3    H120559   1.971   3.674   3.153  1.0035  0.4348 -0.4604
 6865TIP3    H220560   2.052   3.660   3.280 -0.2444 -0.0448  0.2976
 6866TIP3   OH220561   1.220   2.073   3.914 -0.2083 -0.1963 -0.2379
 6866TIP3    H120562   1.311   2.100   3.920 -0.2064 -0.2022 -0.2400
 6866TIP3    H220563   1.223   1.989   3.867 -0.0857 -0.9022  1.0039
 6867TIP3   OH220564   3.476   3.726   4.297  0.1019  0.4124 -0.0190
 6867TIP3    H120565   3.540   3.679   4.244 -0.4606  0.2599 -0.5854
 6867TIP3    H220566   3.416   3.764   4.233  0.2588  1.4825  0.4605
 6868TIP3   OH220567   7.222   0.829   5.290  0.0383  0.2211 -0.2808
 6868TIP3    H120568   7.201   0.822   5.197 -0.9278 -0.4027 -0.0275
 6868TIP3    H220569   7.142   0.804   5.335  0.6003  0.1662  0.7222
 6869TIP3   OH220570   4.752   3.951   4.300  0.0423 -0.1549  0.6929
 6869TIP3    H120571   4.755   4.010   4.225  0.6834  1.8292  2.1800
 6869TIP3    H220572   4.781   4.005   4.374  0.7166 -2.3599  2.1528
 6870TIP3   OH220573   1.156   0.059   2.637  0.5286 -0.3877 -0.0263
 6870TIP3    H120574   1.223   0.001   2.601  0.2192  0.2886 -1.8045
 6870TIP3    H220575   1.112   0.006   2.704  3.3600 -0.5644  1.8766
 6871TIP3   OH220576   5.195   4.248   0.759  0.0407 -0.2564 -0.6455
 6871TIP3    H120577   5.214   4.308   0.687  0.5683  0.2607 -0.0890
 6871TIP3    H220578   5.278   4.241   0.807 -0.2425 -0.7722 -0.2261
 6872TIP3   OH220579   6.964   5.436   2.898  0.3877  0.6508 -0.0408
 6872TIP3    H120580   6.927   5.521   2.874  0.4205  0.5991 -0.2850
 6872TIP3    H220581   7.024   5.415   2.825  0.2706  0.3548 -0.0529
 6873TIP3   OH220582   3.401   3.503   0.584  0.1089  0.4517  0.0729
 6873TIP3    H120583   3.379   3.413   0.608  1.1184  0.5656  1.5875
 6873TIP3    H220584   3.495   3.511   0.605  0.3478  1.4684 -1.2660
 6874TIP3   OH220585   2.879   3.934   1.000 -0.2627 -0.0608  0.3956
 6874TIP3    H120586   2.867   3.850   0.955  1.0049  0.3564 -0.8123
 6874TIP3    H220587   2.832   3.997   0.945 -0.0588  0.2191  0.5424
 6875TIP3   OH220588   4.684   2.037   3.539 -0.4744  0.0642 -0.8678
 6875TIP3    H120589   4.649   1.976   3.473 -1.0963  1.1843 -1.5979
 6875TIP3    H220590   4.624   2.111   3.536  0.1452  0.6170  0.1796
 6876TIP3   OH220591   1.687   3.769   1.893 -0.5753  0.4531 -0.1892
 6876TIP3    H120592   1.598   3.748   1.867 -0.7430 -1.6589  1.8476
 6876TIP3    H220593   1.739   3.695   1.863 -0.0958  0.0156  1.6432
 6877TIP3   OH220594   5.956   5.847   5.259 -0.3383  0.3284  0.0428
 6877TIP3    H120595   5.864   5.865   5.281 -0.0062  2.0962  0.1253
 6877TIP3    H220596   5.961   5.856   5.164 -0.5379 -1.3463 -0.1616
 6878TIP3   OH220597   0.164   6.192   5.040 -0.2571  0.6110 -0.0539
 6878TIP3    H120598   0.079   6.160   5.008 -1.1529  2.1995  0.6394
 6878TIP3    H220599   0.215   6.112   5.053 -1.4149 -0.3522 -1.0859
 6879TIP3   OH220600   1.812   6.125   5.633 -0.1836 -0.5062 -0.1518
 6879TIP3    H120601   1.789   6.061   5.566 -0.2244  0.1910 -0.8268
 6879TIP3    H220602   1.768   6.205   5.605  0.8568  0.1410  0.0036
 6880TIP3   OH220603   5.702   6.145   1.889  0.1875 -0.2673  0.3691
 6880TIP3    H120604   5.771   6.184   1.836 -0.6780  1.1535  0.2237
 6880TIP3    H220605   5.711   6.186   1.974  0.1769 -0.8731  0.6671
 6881TIP3   OH220606   3.810   2.686   0.517 -0.0219 -0.1777 -0.3292
 6881TIP3    H120607   3.714   2.691   0.517 -0.1544 -1.7312 -1.9075
 6881TIP3    H220608   3.838   2.771   0.549 -1.9288 -0.4622  2.4531
 6882TIP3   OH220609   5.928   5.017   4.362 -0.4241 -0.1404 -0.1602
 6882TIP3    H120610   5.902   5.069   4.438 -0.2628 -0.2680 -0.0176
 6882TIP3    H220611   5.853   5.022   4.303 -0.5387 -0.0170 -0.0056
 6883TIP3   OH220612   1.802   4.199   4.596  0.2113  0.9117  0.3756
 6883TIP3    H120613   1.764   4.205   4.684 -0.6646  0.5996  0.0320
 6883TIP3    H220614   1.808   4.105   4.579 -2.1016  0.9312 -0.9113
 6884TIP3   OH220615   2.807   0.361   4.343  0.2600 -0.4304  0.2186
 6884TIP3    H120616   2.746   0.359   4.269 -0.1997  0.2921  0.5639
 6884TIP3    H220617   2.770   0.300   4.406 -1.1828  1.3485  1.2130
 6885TIP3   OH220618   6.824   6.383   1.461 -0.3206 -0.4430 -0.7357
 6885TIP3    H120619   6.820   6.407   1.553 -0.1624 -2.4637 -0.1401
 6885TIP3    H220620   6.732   6.383   1.432 -0.3136  0.9472 -0.8265
 6886TIP3   OH220621   2.274   6.551   1.360  0.0498 -0.2612  0.0598
 6886TIP3    H120622   2.229   6.528   1.441 -0.5149  0.2750 -0.0998
 6886TIP3    H220623   2.279   6.647   1.361  0.5748 -0.2797 -0.2540
 6887TIP3   OH220624   0.275   2.831   0.911 -0.5089 -0.0822 -0.5158
 6887TIP3    H120625   0.247   2.918   0.941 -0.0004  0.1922 -0.8186
 6887TIP3    H220626   0.204   2.802   0.853 -0.4890  0.3088 -0.7381
 6888TIP3   OH220627   4.586   2.229   0.323 -0.3223  0.0893  0.2477
 6888TIP3    H120628   4.542   2.306   0.287 -1.4466  0.7885  2.8475
 6888TIP3    H220629   4.523   2.158   0.311  0.1970 -0.1795 -1.0216
 6889TIP3   OH220630   7.198   5.111   2.643 -0.5454 -0.2951  0.2503
 6889TIP3    H120631   7.130   5.058   2.684 -3.5694  0.1804 -3.6018
 6889TIP3    H220632   7.207   5.075   2.555  1.4337  2.1091 -0.6459
 6890TIP3   OH220633   7.202   6.418   0.812  0.3519  0.5143 -0.3070
 6890TIP3    H120634   7.157   6.502   0.812  0.8358  0.7856  0.8135
 6890TIP3    H220635   7.132   6.353   0.805 -0.0253  0.9984 -1.1679
 6891TIP3   OH220636   4.667   5.864   3.440  0.2688  0.1099 -0.0903
 6891TIP3    H120637   4.710   5.894   3.360 -1.8470  1.0283 -0.9326
 6891TIP3    H220638   4.728   5.798   3.476  2.1027  0.9697 -1.4556
 6892TIP3   OH220639   2.521   2.982   0.762  0.2784  0.4000  0.5466
 6892TIP3    H120640   2.465   2.905   0.765  1.1968 -0.2727  0.7765
 6892TIP3    H220641   2.603   2.954   0.803  0.9721  1.2140 -0.2459
 6893TIP3   OH220642   3.738   0.480   4.270 -0.1639 -0.0820 -0.5098
 6893TIP3    H120643   3.694   0.399   4.246  0.4930 -0.5583 -0.1474
 6893TIP3    H220644   3.816   0.452   4.318 -0.6298  0.7869  0.8306
 6894TIP3   OH220645   1.686   6.700   4.954 -0.1925  0.1030 -0.3193
 6894TIP3    H120646   1.697   6.637   4.883 -1.5960  1.7036 -2.0748
 6894TIP3    H220647   1.686   6.785   4.910  1.9673  1.4368  1.9807
 6895TIP3   OH220648   3.253   6.784   3.329 -0.2815  0.4431 -0.1418
 6895TIP3    H120649   3.163   6.816   3.330 -0.2882  0.4614  1.3930
 6895TIP3    H220650   3.250   6.704   3.381  0.8185  1.1790  1.1053
 6896TIP3   OH220651   6.484   2.002   0.561  0.0788  0.1556  0.3225
 6896TIP3    H120652   6.557   2.011   0.500 -0.3753  0.7481 -0.1491
 6896TIP3    H220653   6.496   1.916   0.600 -0.3757 -0.8642 -1.6422
 6897TIP3   OH220654   1.113   3.883   5.118  0.0437 -0.0729  0.4784
 6897TIP3    H120655   1.137   3.956   5.062 -0.6754 -0.9987 -1.1095
 6897TIP3    H220656   1.196   3.857   5.160  0.6001  0.6585 -0.1440
 6898TIP3   OH220657   6.609   1.038   3.498 -0.5599 -0.3616  0.5394
 6898TIP3    H120658   6.667   1.114   3.505 -1.1225  0.0339  1.0320
 6898TIP3    H220659   6.591   1.029   3.405 -1.3195  0.7537  0.5665
 6899TIP3   OH220660   4.170   2.510   4.830  0.1832  0.3371  0.3947
 6899TIP3    H120661   4.172   2.510   4.735 -0.2730  1.8174  0.3592
 6899TIP3    H220662   4.105   2.444   4.853 -0.8200  1.0412 -0.3727
 6900TIP3   OH220663   1.949   6.285   1.506 -0.6215 -0.0874  0.0409
 6900TIP3    H120664   2.007   6.321   1.573 -1.9297  0.1479  1.0913
 6900TIP3    H220665   1.922   6.361   1.454 -0.0819 -0.1823 -0.3847
 6901TIP3   OH220666   6.216   3.953   4.953 -0.1251 -0.0926  0.4902
 6901TIP3    H120667   6.296   3.987   4.992  0.5714 -0.8065 -0.2972
 6901TIP3    H220668   6.241   3.871   4.912 -1.4131 -0.6905  0.8405
 6902TIP3   OH220669   3.686   0.115   2.704  0.5374  0.0917  0.1112
 6902TIP3    H120670   3.748   0.064   2.651  0.3380  0.7797 -0.8233
 6902TIP3    H220671   3.719   0.205   2.698 -0.6707  0.5011 -0.5984
 6903TIP3   OH220672   5.973   0.672   4.146 -0.0050 -0.0393 -0.0961
 6903TIP3    H120673   5.888   0.713   4.129  0.7865  2.3101  1.2826
 6903TIP3    H220674   5.951   0.583   4.174 -1.7939 -0.5758 -2.8836
 6904TIP3   OH220675   5.740   0.634   0.426  0.0602  0.5410  0.0401
 6904TIP3    H120676   5.795   0.670   0.356 -2.0408 -1.7086 -3.0471
 6904TIP3    H220677   5.792   0.562   0.461 -0.5466 -1.3619 -2.6228
 6905TIP3   OH220678   1.565   3.718   4.697  0.2633 -0.1812  0.3544
 6905TIP3    H120679   1.507   3.782   4.655 -0.1449 -1.6490 -1.4340
 6905TIP3    H220680   1.616   3.769   4.760 -2.0922  1.3802  1.1112
 6906TIP3   OH220681   4.131   6.582   4.287  0.9093 -0.2708  0.0454
 6906TIP3    H120682   4.125   6.672   4.256  2.3956  0.1715  0.9530
 6906TIP3    H220683   4.224   6.561   4.283  0.7314 -1.3589  0.9441
 6907TIP3   OH220684   5.851   1.665   2.092  0.2531  0.1042  0.4303
 6907TIP3    H120685   5.847   1.751   2.134  0.3547  1.0667 -1.4264
 6907TIP3    H220686   5.819   1.604   2.159 -1.3178  1.7703  1.3008
 6908TIP3   OH220687   5.682   5.085   5.220 -0.2143 -0.1516 -1.0289
 6908TIP3    H120688   5.722   5.014   5.169 -1.1898 -0.4891 -1.3630
 6908TIP3    H220689   5.741   5.159   5.209  0.6925 -0.8302 -0.8983
 6909TIP3   OH220690   0.471   5.106   4.014 -0.0718  0.5555  0.1589
 6909TIP3    H120691   0.481   5.183   4.070  1.5961  0.9743 -0.6574
 6909TIP3    H220692   0.528   5.040   4.055 -0.1171  0.3382 -0.1274
 6910TIP3   OH220693   2.721   6.279   5.342 -0.3259  0.2302  0.1867
 6910TIP3    H120694   2.667   6.215   5.389  1.0486 -1.4436 -0.4571
 6910TIP3    H220695   2.659   6.348   5.318 -2.2987 -1.7783 -0.8482
 6911TIP3   OH220696   4.834   1.083   5.795 -0.2884 -0.4097 -0.1958
 6911TIP3    H120697   4.869   1.019   5.857  1.5033  1.0652  0.3905
 6911TIP3    H220698   4.887   1.071   5.716  0.6371  0.8619  0.2031
 6912TIP3   OH220699   6.766   5.401   2.308  0.2288  0.6077 -0.6311
 6912TIP3    H120700   6.825   5.354   2.249  2.0913  2.0442  0.0273
 6912TIP3    H220701   6.742   5.336   2.374  0.8146 -0.0702 -1.0659
 6913TIP3   OH220702   5.608   1.053   4.100  0.0005  0.3924  0.0531
 6913TIP3    H120703   5.622   1.079   4.009  0.0380  0.2663  0.0228
 6913TIP3    H220704   5.658   1.117   4.151  2.0138 -0.9625 -0.1171
 6914TIP3   OH220705   5.725   3.762   1.850  0.0820 -0.6666  0.3774
 6914TIP3    H120706   5.688   3.810   1.924 -0.6206 -0.8263  0.1317
 6914TIP3    H220707   5.791   3.705   1.889 -1.0781 -1.5848  1.0360
 6915TIP3   OH220708   6.593   2.564   5.798  0.4293 -0.1205  0.0776
 6915TIP3    H120709   6.520   2.610   5.756  0.2754  0.9197  1.4233
 6915TIP3    H220710   6.670   2.592   5.750  0.0403 -0.5967 -0.8419
 6916TIP3   OH220711   3.305   2.349   2.118  0.3567 -0.2145  0.3062
 6916TIP3    H120712   3.395   2.349   2.083  0.0945 -1.3514 -0.4233
 6916TIP3    H220713   3.304   2.279   2.182  0.3790  0.7927  1.4405
 6917TIP3   OH220714   2.607   1.966   3.984  0.3651 -0.3062  0.1440
 6917TIP3    H120715   2.619   1.915   4.063  0.3516  0.0493  0.3769
 6917TIP3    H220716   2.689   2.014   3.973 -0.5502  1.6757  1.4163
 6918TIP3   OH220717   5.284   1.199   4.326 -0.3058  0.3680  0.3413
 6918TIP3    H120718   5.293   1.285   4.368  0.7042 -0.6235  2.2513
 6918TIP3    H220719   5.216   1.155   4.377 -0.2190 -0.2864 -0.1010
 6919TIP3   OH220720   2.615   4.524   2.132 -0.0358  0.2680  0.3794
 6919TIP3    H120721   2.598   4.531   2.039  0.2094 -0.8679  0.2338
 6919TIP3    H220722   2.701   4.483   2.138 -0.4596 -0.5603  1.0868
 6920TIP3   OH220723   1.739   0.263   4.665  0.0033  0.5952  0.0326
 6920TIP3    H120724   1.817   0.267   4.610  0.6534 -0.3122  0.8430
 6920TIP3    H220725   1.720   0.169   4.674 -1.5916  0.8087 -0.6801
 6921TIP3   OH220726   2.406   4.159   1.949  0.1457 -0.3192  0.1171
 6921TIP3    H120727   2.349   4.088   1.920 -0.6712  0.8658 -1.2998
 6921TIP3    H220728   2.349   4.216   2.001 -0.4222  1.5555 -2.3609
 6922TIP3   OH220729   3.348   2.566   3.399 -0.2954  0.9572 -0.0015
 6922TIP3    H120730   3.386   2.488   3.440 -1.1529  1.5659  2.0835
 6922TIP3    H220731   3.399   2.639   3.434 -1.0109  1.5066 -0.0902
 6923TIP3   OH220732   6.065   4.662   2.827 -0.2761  0.6391  0.3737
 6923TIP3    H120733   6.002   4.666   2.899 -1.4577  2.5118 -0.6699
 6923TIP3    H220734   6.124   4.736   2.842  0.1278  0.4040 -0.0221
 6924TIP3   OH220735   1.791  -0.000   0.576 -0.1177 -0.5781  0.3340
 6924TIP3    H120736   1.723   0.065   0.590  0.3941 -0.0225  0.2455
 6924TIP3    H220737   1.851   0.039   0.513 -1.5101 -2.3907 -2.3080
 6925TIP3   OH220738   1.806   1.584   5.854  0.1455 -0.2973  0.2379
 6925TIP3    H120739   1.764   1.570   5.939 -2.1311 -0.3854 -0.8431
 6925TIP3    H220740   1.837   1.498   5.828 -1.2144 -0.7174 -0.0382
 6926TIP3   OH220741   7.005   1.664   5.802 -0.1008  0.4666  0.4370
 6926TIP3    H120742   7.029   1.754   5.823  0.8212  0.5123 -0.7231
 6926TIP3    H220743   6.967   1.669   5.715  0.8712 -0.3961 -0.0568
 6927TIP3   OH220744   1.133   1.637   0.413  0.3401 -0.1459 -0.8830
 6927TIP3    H120745   1.137   1.545   0.385  1.4348  0.2283 -2.0517
 6927TIP3    H220746   1.097   1.633   0.501 -0.3032 -1.6464 -1.1784
 6928TIP3   OH220747   6.928   0.006   4.228 -0.7512  0.5806  0.0627
 6928TIP3    H120748   6.944  -0.062   4.163 -2.3560  0.0631  0.1762
 6928TIP3    H220749   6.908   0.084   4.177 -2.1013  0.1519 -0.0833
 6929TIP3   OH220750   3.470   4.697   1.850  0.2752  0.0957 -0.6862
 6929TIP3    H120751   3.505   4.609   1.837 -2.2466 -1.1614  0.3157
 6929TIP3    H220752   3.528   4.737   1.915 -0.3774 -2.0795  1.3667
 6930TIP3   OH220753   2.101   5.996   4.713 -0.1525  0.2531  0.0996
 6930TIP3    H120754   2.041   6.021   4.784  0.2032  0.3974  0.3504
 6930TIP3    H220755   2.102   6.072   4.655  1.1119  0.9539  0.9830
 6931TIP3   OH220756   3.729   5.217   1.420 -0.5642  0.1710  0.1434
 6931TIP3    H120757   3.691   5.305   1.412 -0.5142  0.1112 -0.8127
 6931TIP3    H220758   3.747   5.208   1.514  1.1751  1.9115  0.0582
 6932TIP3   OH220759   3.429   0.383   0.928  0.4244  0.1736  0.3678
 6932TIP3    H120760   3.386   0.458   0.886  0.0497 -0.4844 -0.4605
 6932TIP3    H220761   3.363   0.314   0.926  0.7281 -0.1531  1.2245
 6933TIP3   OH220762   1.843   3.636   3.526  0.5983 -0.2167 -0.0253
 6933TIP3    H120763   1.914   3.693   3.497  1.3636 -1.4379 -0.6175
 6933TIP3    H220764   1.767   3.693   3.532  1.6608  1.1596  0.7969
 6934TIP3   OH220765   4.265   4.214   4.941  0.0476 -0.2606 -0.0814
 6934TIP3    H120766   4.240   4.133   4.986 -0.1671  0.4538  1.1358
 6934TIP3    H220767   4.203   4.221   4.868 -0.8848 -0.4447  0.6756
 6935TIP3   OH220768   3.774   4.436   3.516  0.0414  0.0416  0.0215
 6935TIP3    H120769   3.816   4.505   3.567 -0.3960  1.0134 -0.8976
 6935TIP3    H220770   3.773   4.360   3.575 -0.8750  1.2392  1.6552
 6936TIP3   OH220771   5.852   6.118   2.342  0.0759 -0.4818  0.3016
 6936TIP3    H120772   5.761   6.095   2.362 -0.0748  0.1780  0.3762
 6936TIP3    H220773   5.846   6.183   2.273  0.5895 -2.4954 -1.7681
 6937TIP3   OH220774   5.034   5.554   0.927  0.1912  0.6260 -0.4068
 6937TIP3    H120775   4.975   5.601   0.986  0.2777 -0.1169  0.2811
 6937TIP3    H220776   4.976   5.504   0.870  0.1315 -0.1851  0.3361
 6938TIP3   OH220777   2.103   2.752   0.468 -0.2485 -0.4439  0.0204
 6938TIP3    H120778   2.149   2.681   0.423  0.7187  0.1437  0.0676
 6938TIP3    H220779   2.151   2.831   0.445 -0.6102  0.0488  0.9121
 6939TIP3   OH220780   0.168   6.107   2.351 -1.0975 -0.2611  0.0191
 6939TIP3    H120781   0.152   6.199   2.332 -0.4019  0.4082  2.4021
 6939TIP3    H220782   0.097   6.081   2.409 -1.4212 -1.3218 -0.8116
 6940TIP3   OH220783   4.571   2.229   4.815  0.1273 -0.1732  0.1902
 6940TIP3    H120784   4.623   2.299   4.856  2.4046 -1.1729 -0.8242
 6940TIP3    H220785   4.529   2.271   4.740  0.0502  0.4914  0.5968
 6941TIP3   OH220786   1.895   0.657   2.410 -1.0861  0.1752  0.1552
 6941TIP3    H120787   1.925   0.568   2.431  0.9810  1.2705  2.2961
 6941TIP3    H220788   1.821   0.672   2.468 -0.0701  0.5581  1.4002
 6942TIP3   OH220789   4.072   0.482   1.979  0.4012 -0.1723  0.0980
 6942TIP3    H120790   4.155   0.445   1.950  0.3163 -0.8671  0.7221
 6942TIP3    H220791   4.090   0.575   1.992  0.8714 -0.1717 -0.5172
 6943TIP3   OH220792   2.343   1.857   0.180  0.5150  0.0457 -0.1592
 6943TIP3    H120793   2.420   1.855   0.123  0.0032 -1.0373 -0.8371
 6943TIP3    H220794   2.369   1.809   0.259  0.1236 -1.5443 -0.9609
 6944TIP3   OH220795   3.518   0.380   0.398  0.0877 -0.0748 -0.8570
 6944TIP3    H120796   3.576   0.450   0.427  0.7520 -1.1204  0.4225
 6944TIP3    H220797   3.435   0.398   0.443  0.5505 -0.6289  0.2591
 6945TIP3   OH220798   2.424   3.511   1.387 -0.1720 -0.0082  0.4222
 6945TIP3    H120799   2.476   3.570   1.441 -0.0634  0.2182  0.0756
 6945TIP3    H220800   2.406   3.561   1.307 -1.1237 -0.0010  0.6344
 6946TIP3   OH220801   3.333   4.560   2.066 -0.7018  0.2498 -0.3707
 6946TIP3    H120802   3.361   4.651   2.054  1.2008 -0.3108 -0.4283
 6946TIP3    H220803   3.289   4.538   1.984 -1.7757  1.2885 -0.1098
 6947TIP3   OH220804   5.428   1.019   3.772 -0.6437  0.0010  0.3360
 6947TIP3    H120805   5.463   1.089   3.717 -2.0019  0.8192  0.4522
 6947TIP3    H220806   5.470   0.940   3.739 -1.0188  0.5215 -1.5800
 6948TIP3   OH220807   5.379   4.909   3.214  0.6625  0.1036 -0.0779
 6948TIP3    H120808   5.366   4.863   3.297  2.4359 -2.1781 -0.9806
 6948TIP3    H220809   5.314   4.873   3.155  1.1272 -0.2193 -0.3988
 6949TIP3   OH220810   2.015   5.501   1.729 -0.1871 -0.5515 -0.0460
 6949TIP3    H120811   2.039   5.454   1.649  1.1816 -1.1241  0.6557
 6949TIP3    H220812   1.935   5.458   1.759 -1.4442  0.5115 -1.7583
 6950TIP3   OH220813   1.870   1.749   5.645  0.0675 -0.0957 -0.6052
 6950TIP3    H120814   1.837   1.692   5.714 -1.1028  1.1718 -0.0731
 6950TIP3    H220815   1.820   1.722   5.567 -0.0127 -0.2304 -0.5088
 6951TIP3   OH220816   2.029   2.438   0.589  0.0615 -0.2005 -0.2491
 6951TIP3    H120817   2.022   2.343   0.593 -2.4491 -0.0991 -0.6718
 6951TIP3    H220818   2.038   2.458   0.496 -1.5781  0.0065 -0.4052
 6952TIP3   OH220819   2.144   6.686   0.597  0.3637  0.0193 -0.5886
 6952TIP3    H120820   2.131   6.694   0.692  0.3334  0.0191 -0.5924
 6952TIP3    H220821   2.203   6.611   0.586 -0.1348 -0.3775 -0.6021
 6953TIP3   OH220822   7.001   0.975   4.934 -0.5263  0.0630  0.1477
 6953TIP3    H120823   7.020   0.997   4.843  0.9956 -1.2821  0.0958
 6953TIP3    H220824   6.993   1.060   4.977  1.0002  0.7466 -0.8183
 6954TIP3   OH220825   2.959   5.191   0.914  0.7753  0.1174  0.1700
 6954TIP3    H120826   2.876   5.237   0.928  1.0193  1.0231 -1.1894
 6954TIP3    H220827   3.023   5.244   0.960  0.6543 -0.4833  1.0650
 6955TIP3   OH220828   0.252   0.923   1.972 -0.2194 -0.3815 -0.2633
 6955TIP3    H120829   0.217   0.918   2.061 -0.8518 -1.2650 -0.5609
 6955TIP3    H220830   0.321   0.989   1.979 -2.8097  2.5358  0.0379
 6956TIP3   OH220831   1.325   0.620   1.185  0.4988 -0.2614 -0.3454
 6956TIP3    H120832   1.278   0.546   1.223 -0.1719  0.0344 -0.5875
 6956TIP3    H220833   1.361   0.667   1.259  0.3942 -0.4753 -0.1582
 6957TIP3   OH220834   2.062   4.846   2.156  0.3974 -0.3520 -0.1910
 6957TIP3    H120835   2.121   4.921   2.154 -0.5100  0.3913 -2.1613
 6957TIP3    H220836   2.084   4.796   2.077 -1.5761 -0.0245 -1.0232
 6958TIP3   OH220837   6.418   1.564   5.481  0.2199  1.0736  0.0353
 6958TIP3    H120838   6.341   1.510   5.464  0.6820  0.8196 -1.4005
 6958TIP3    H220839   6.453   1.584   5.394  1.2953  1.8944  0.6282
 6959TIP3   OH220840   0.355   3.675   2.985 -0.6417  0.0808 -0.4043
 6959TIP3    H120841   0.392   3.601   3.033  0.7659  0.5135 -0.7729
 6959TIP3    H220842   0.291   3.635   2.926 -0.8548 -0.6851  0.3230
 6960TIP3   OH220843   1.585   2.540   1.422 -0.2364  0.0308  0.3046
 6960TIP3    H120844   1.608   2.619   1.373  2.5094 -0.0992  1.2200
 6960TIP3    H220845   1.532   2.572   1.495 -1.1112  0.6840 -0.5752
 6961TIP3   OH220846   6.892   6.662   5.390 -0.3031 -0.6611  0.0720
 6961TIP3    H120847   6.903   6.746   5.346  1.6600  0.2985  2.1642
 6961TIP3    H220848   6.962   6.608   5.355 -0.2191 -0.6995  0.3016
 6962TIP3   OH220849   2.433   1.594   3.474  0.4796 -0.0700 -0.2464
 6962TIP3    H120850   2.395   1.670   3.517 -2.0841 -2.2019  1.6274
 6962TIP3    H220851   2.375   1.577   3.399 -1.8622 -2.6185  1.9159
 6963TIP3   OH220852   2.885   1.844   1.605  0.4877  0.2932  0.1940
 6963TIP3    H120853   2.837   1.783   1.661  0.3071  0.2566  0.0010
 6963TIP3    H220854   2.824   1.915   1.587  0.8241  0.7281  0.7297
 6964TIP3   OH220855   5.132   2.039   2.748 -0.0858  0.2114  0.3832
 6964TIP3    H120856   5.155   1.969   2.809  0.3922  0.4020  0.4259
 6964TIP3    H220857   5.208   2.046   2.690  0.5318  1.7291  1.3252
 6965TIP3   OH220858   3.748   5.222   2.432 -0.2708 -0.3038 -0.7327
 6965TIP3    H120859   3.757   5.301   2.486  1.0441 -0.0111 -1.3393
 6965TIP3    H220860   3.728   5.152   2.495  1.7256 -0.0677  0.2336
 6966TIP3   OH220861   6.228   4.022   4.628 -0.1347  0.0453 -0.1062
 6966TIP3    H120862   6.201   3.931   4.619 -0.6028  0.1470  0.2641
 6966TIP3    H220863   6.289   4.022   4.702 -2.9147  0.5831  2.3757
 6967TIP3   OH220864   4.291   4.013   1.241 -0.3453  0.2559  0.3169
 6967TIP3    H120865   4.199   4.022   1.263 -0.6214  0.9063 -1.0215
 6967TIP3    H220866   4.298   3.927   1.200 -0.1890 -0.1263  1.1131
 6968TIP3   OH220867   6.686   0.885   1.752 -0.3164  0.3184 -0.5554
 6968TIP3    H120868   6.754   0.891   1.685 -1.1907 -1.1252 -1.6510
 6968TIP3    H220869   6.707   0.805   1.800 -0.6845  0.3995 -0.2515
 6969TIP3   OH220870   3.044   2.159   2.533  0.3238 -0.1695  0.6233
 6969TIP3    H120871   2.999   2.243   2.523  1.7166  0.8888  2.5948
 6969TIP3    H220872   3.023   2.111   2.453 -2.1755  1.2297  0.3386
 6970TIP3   OH220873   0.834   3.662   4.519 -0.3783  0.0892 -0.3456
 6970TIP3    H120874   0.790   3.597   4.572  0.4502 -1.9917 -2.0671
 6970TIP3    H220875   0.823   3.744   4.567 -2.4460 -1.0814  1.3271
 6971TIP3   OH220876   3.977   6.396   0.499 -0.1848 -0.0583 -0.4855
 6971TIP3    H120877   3.981   6.444   0.582  2.0843  0.8048 -1.0173
 6971TIP3    H220878   3.954   6.463   0.434 -3.8917 -1.0758 -0.4116
 6972TIP3   OH220879   3.742   4.497   0.571  0.8071  0.4224 -0.1793
 6972TIP3    H120880   3.648   4.505   0.589  0.4988 -0.7810 -1.1415
 6972TIP3    H220881   3.782   4.564   0.626 -0.5270  0.3660  0.9218
 6973TIP3   OH220882   4.105   5.857   1.054 -0.2097  0.0697  0.1620
 6973TIP3    H120883   4.050   5.852   0.976 -2.2180  1.7746  1.3585
 6973TIP3    H220884   4.167   5.785   1.044 -1.3165 -0.6648 -2.2775
 6974TIP3   OH220885   0.464   3.419   0.301 -0.3376  0.2992  0.0806
 6974TIP3    H120886   0.478   3.455   0.214  0.7189 -0.6225 -0.1576
 6974TIP3    H220887   0.377   3.449   0.326 -1.3202 -0.6515 -1.9327
 6975TIP3   OH220888   6.493   2.789   3.876  0.5031 -0.2442  0.4796
 6975TIP3    H120889   6.545   2.864   3.904 -0.5486  0.0079  1.8754
 6975TIP3    H220890   6.558   2.721   3.858  1.4353  0.7940 -0.2228
 6976TIP3   OH220891   6.842   0.892   2.809  0.4481  0.0702 -0.0156
 6976TIP3    H120892   6.773   0.827   2.819  0.6705 -0.6761 -2.6142
 6976TIP3    H220893   6.920   0.841   2.784  0.8383  1.2233 -1.2734
 6977TIP3   OH220894   2.600   5.457   4.933 -0.4782  0.1403  0.4858
 6977TIP3    H120895   2.511   5.491   4.939 -0.3062  0.6210  0.3779
 6977TIP3    H220896   2.627   5.446   5.025  0.8465  4.0286  0.7257
 6978TIP3   OH220897   1.597   1.975   4.284  0.0318  0.2144  0.1192
 6978TIP3    H120898   1.640   1.929   4.357  0.5419  1.9360  0.9666
 6978TIP3    H220899   1.520   1.922   4.264 -0.5625  0.0540  2.4655
 6979TIP3   OH220900   5.299   2.436   1.525 -0.2556 -0.1277 -0.5077
 6979TIP3    H120901   5.281   2.463   1.616  0.8624  1.1307 -0.6348
 6979TIP3    H220902   5.236   2.486   1.473  0.8202  1.1701 -0.6150
 6980TIP3   OH220903   3.538   3.388   5.832 -0.2059  0.1543  0.5390
 6980TIP3    H120904   3.597   3.361   5.902 -0.2821  1.0321  0.9462
 6980TIP3    H220905   3.587   3.453   5.782 -0.2547 -0.2592 -0.0575
 6981TIP3   OH220906   0.219   3.343   4.896  0.2564  0.1159  0.1626
 6981TIP3    H120907   0.274   3.416   4.926 -1.5893  1.2614  0.9602
 6981TIP3    H220908   0.183   3.374   4.812  1.9323 -1.2414 -1.1086
 6982TIP3   OH220909   6.776   0.319   4.547  0.5205 -0.7422 -0.0976
 6982TIP3    H120910   6.681   0.310   4.541  0.3134  0.0633  1.5471
 6982TIP3    H220911   6.809   0.234   4.515 -0.8237 -1.7889  1.1381
 6983TIP3   OH220912   0.170   1.883   5.851  0.3073 -0.1900  0.0353
 6983TIP3    H120913   0.174   1.838   5.767  0.8456 -0.1826  0.0531
 6983TIP3    H220914   0.077   1.887   5.872  0.0788  0.9064 -1.1332
 6984TIP3   OH220915   4.380   2.899   0.292 -0.2583 -0.4096  0.1544
 6984TIP3    H120916   4.408   2.988   0.313 -0.3836 -0.7326  1.8107
 6984TIP3    H220917   4.288   2.896   0.318 -0.4433 -0.8464 -0.5166
 6985TIP3   OH220918   2.092   1.484   1.386 -0.0017  0.2116  0.3856
 6985TIP3    H120919   2.017   1.438   1.347 -0.7463  1.0233  0.7991
 6985TIP3    H220920   2.149   1.415   1.418 -1.2424 -0.4296  1.2840
 6986TIP3   OH220921   6.765   3.486   3.310  0.4164 -0.8813 -0.0991
 6986TIP3    H120922   6.805   3.546   3.372 -2.0739  0.5994  0.2210
 6986TIP3    H220923   6.773   3.529   3.225  0.3162 -1.0084 -0.1752
 6987TIP3   OH220924   1.501   1.661   3.386  0.8792 -0.0946  0.1305
 6987TIP3    H120925   1.543   1.575   3.389  0.8322 -0.2165 -1.5986
 6987TIP3    H220926   1.430   1.651   3.324  0.9345  1.2160 -0.1822
 6988TIP3   OH220927   5.945   4.579   2.504 -0.2376  0.2114 -0.0702
 6988TIP3    H120928   5.906   4.580   2.417  1.2420 -0.6858 -0.7777
 6988TIP3    H220929   5.916   4.661   2.544 -1.0544  0.5699 -1.3549
 6989TIP3   OH220930   4.907   4.042   4.754 -0.3822 -0.1110  0.0561
 6989TIP3    H120931   4.914   3.967   4.814  0.1386 -0.5117 -0.4839
 6989TIP3    H220932   4.899   4.118   4.811 -1.2828 -0.6048  0.6188
 6990TIP3   OH220933   6.813   5.026   5.630 -1.3061  0.3851  0.2496
 6990TIP3    H120934   6.822   4.972   5.551 -0.0066  3.7567 -2.1649
 6990TIP3    H220935   6.903   5.040   5.659 -1.7261  0.0203  1.7980
 6991TIP3   OH220936   0.622   0.676   5.522 -0.2292 -0.1956  0.1093
 6991TIP3    H120937   0.600   0.623   5.599 -0.2970 -0.1158  0.1452
 6991TIP3    H220938   0.716   0.691   5.529  0.0070 -1.3351 -0.5507
 6992TIP3   OH220939   2.198   1.848   3.481  0.7121  0.0705 -0.0698
 6992TIP3    H120940   2.134   1.890   3.539  1.7933  0.3638  0.9733
 6992TIP3    H220941   2.175   1.878   3.393 -0.0786  0.8174  0.3749
 6993TIP3   OH220942   0.586   2.095   3.251 -0.2506 -0.3734 -0.1093
 6993TIP3    H120943   0.576   2.175   3.199  0.8564 -1.4013 -1.9998
 6993TIP3    H220944   0.679   2.090   3.269 -0.3300 -1.1688  0.0936
 6994TIP3   OH220945   5.663   4.974   4.837 -0.6145 -0.1970  0.1352
 6994TIP3    H120946   5.651   4.941   4.748 -1.0857 -0.3506  0.2511
 6994TIP3    H220947   5.753   4.950   4.859 -0.8755 -1.2390  0.1399
 6995TIP3   OH220948   1.444   0.057   0.547  0.1240  0.2618 -0.3159
 6995TIP3    H120949   1.467  -0.020   0.599  0.6945 -0.2327 -1.2699
 6995TIP3    H220950   1.354   0.041   0.519  0.2750 -0.1009 -0.5938
 6996TIP3   OH220951   5.164   1.182   1.163  0.7108  0.1459 -0.0059
 6996TIP3    H120952   5.198   1.198   1.075 -1.4087 -2.4900 -1.4846
 6996TIP3    H220953   5.099   1.252   1.177  0.1292 -0.1459 -1.1353
 6997TIP3   OH220954   2.687   3.523   2.209  0.0146  0.2779 -0.5913
 6997TIP3    H120955   2.682   3.613   2.177  2.0766  0.6006 -0.1571
 6997TIP3    H220956   2.737   3.529   2.290  0.6596 -1.3109 -0.8264
 6998TIP3   OH220957   4.903   3.170   4.573  0.5399  0.0589 -0.0079
 6998TIP3    H120958   4.807   3.180   4.573  0.5864  0.5221  0.4598
 6998TIP3    H220959   4.926   3.169   4.480 -0.1092 -2.0350 -0.1927
 6999TIP3   OH220960   0.931   6.395   1.342  0.0840 -0.0052  0.3497
 6999TIP3    H120961   0.973   6.454   1.280  0.8403  0.4376  1.2411
 6999TIP3    H220962   0.931   6.309   1.299  1.6075  0.0595  0.1730
 7000TIP3   OH220963   2.928   2.397   2.455  0.3329  0.0149  0.2478
 7000TIP3    H120964   2.980   2.450   2.516 -0.0197  0.4696  0.1548
 7000TIP3    H220965   2.941   2.439   2.370  1.5528 -1.1504 -0.1671
 7001TIP3   OH220966   5.097   0.212   5.137  0.5261 -0.0429 -0.1024
 7001TIP3    H120967   5.040   0.229   5.062 -0.9709  1.5044  1.3022
 7001TIP3    H220968   5.037   0.191   5.209  1.5764  2.3602  1.6290
 7002TIP3   OH220969   5.100   5.808   2.490  0.2332  0.2790  0.4633
 7002TIP3    H120970   5.027   5.798   2.550 -0.8242  1.5423 -0.5442
 7002TIP3    H220971   5.086   5.740   2.424  0.7526 -0.3582  0.9910
 7003TIP3   OH220972   2.489   2.275   0.120 -0.4901  0.6536 -0.5535
 7003TIP3    H120973   2.436   2.246   0.194 -0.6360  0.4635 -0.7345
 7003TIP3    H220974   2.471   2.212   0.051  1.3399 -0.5219 -0.0594
 7004TIP3   OH220975   0.348   5.808   3.807  1.0992  0.0507 -0.3114
 7004TIP3    H120976   0.363   5.783   3.716  0.8538  2.6108 -1.1400
 7004TIP3    H220977   0.431   5.849   3.834  1.1479 -0.6413  0.6061
 7005TIP3   OH220978   4.232   1.715   5.389  0.1603  0.2247  0.2650
 7005TIP3    H120979   4.182   1.790   5.420 -0.0600  0.5583 -0.8407
 7005TIP3    H220980   4.278   1.683   5.466 -1.4666  0.1306  1.2223
 7006TIP3   OH220981   2.075   3.807   5.289 -0.0982 -0.2174  0.1545
 7006TIP3    H120982   2.062   3.713   5.287 -0.9852 -0.3044  3.6490
 7006TIP3    H220983   1.988   3.844   5.277 -0.0383  0.0767  0.6010
 7007TIP3   OH220984   1.444   5.884   3.664  0.1774 -0.1626 -0.8078
 7007TIP3    H120985   1.429   5.803   3.712 -0.9862  1.0193  0.9723
 7007TIP3    H220986   1.539   5.892   3.657  0.3078 -1.4206 -0.5704
 7008TIP3   OH220987   5.928   4.310   5.705  0.6116 -0.6583  0.1285
 7008TIP3    H120988   5.877   4.303   5.624  2.5478  0.0316 -1.2178
 7008TIP3    H220989   5.910   4.398   5.737 -1.2873 -1.3976  1.3411
 7009TIP3   OH220990   4.293   6.206   3.615  0.7291 -0.4255  0.0475
 7009TIP3    H120991   4.228   6.276   3.630 -0.5697 -1.6477  0.3584
 7009TIP3    H220992   4.306   6.205   3.521 -1.2373 -1.4213 -0.2641
 7010TIP3   OH220993   6.735   3.053   5.410  0.6589  0.4641 -0.2600
 7010TIP3    H120994   6.820   3.093   5.424  0.5775  0.0670  1.6168
 7010TIP3    H220995   6.754   2.961   5.393  0.6247  0.4464 -0.2039
 7011TIP3   OH220996   3.883   1.854   3.983  0.0109 -0.4298 -0.0677
 7011TIP3    H120997   3.830   1.868   4.062 -2.2408  1.0505 -1.7115
 7011TIP3    H220998   3.945   1.785   4.008 -1.9369 -1.4614  2.3799
 7012TIP3   OH220999   5.094   1.059   2.766  0.0730 -0.1174 -0.4040
 7012TIP3    H121000   5.073   0.966   2.764 -0.5430 -0.1082  2.2956
 7012TIP3    H221001   5.027   1.101   2.712  0.4623 -1.1980 -1.7838
 7013TIP3   OH221002   0.741   1.657   2.553 -0.0696  0.2253  0.5051
 7013TIP3    H121003   0.686   1.724   2.594  0.2629 -0.1702  1.6316
 7013TIP3    H221004   0.682   1.583   2.541 -0.4438  0.7004 -0.7634
 7014TIP3   OH221005   4.784   4.304   5.288  0.0158  0.4967  0.5919
 7014TIP3    H121006   4.787   4.210   5.271  0.4351  0.7858 -1.1647
 7014TIP3    H221007   4.696   4.331   5.262 -0.2998  0.5188  1.6371
 7015TIP3   OH221008   5.801   2.635   4.153  0.1899 -0.3922  0.3396
 7015TIP3    H121009   5.725   2.578   4.142 -0.0042 -0.0983  0.1275
 7015TIP3    H221010   5.824   2.663   4.064  0.0686  0.1244  0.4619
 7016TIP3   OH221011   6.669   2.479   0.152  0.0174 -0.2749 -0.8812
 7016TIP3    H121012   6.721   2.529   0.214 -0.0308 -0.8784 -0.3533
 7016TIP3    H221013   6.706   2.502   0.066 -1.8491  2.9708 -1.0031
 7017TIP3   OH221014   6.230   1.470   4.152 -0.0751 -0.5142 -0.4287
 7017TIP3    H121015   6.149   1.464   4.204  0.3663 -1.4271  0.1965
 7017TIP3    H221016   6.274   1.547   4.185  1.1166 -2.1036  2.0009
 7018TIP3   OH221017   0.525   5.731   1.312 -0.5587 -0.0423  0.0356
 7018TIP3    H121018   0.436   5.734   1.277 -0.2120  0.7711 -0.8002
 7018TIP3    H221019   0.528   5.647   1.359 -1.3522 -0.7209 -1.0502
 7019TIP3   OH221020   3.038   0.654   3.467 -0.4487  0.5631 -0.1774
 7019TIP3    H121021   3.034   0.728   3.406 -0.8304  1.1843  0.5830
 7019TIP3    H221022   3.061   0.693   3.551 -1.4753 -0.0733  0.4143
 7020TIP3   OH221023   3.764   6.256   3.020 -0.0250 -0.0561  0.2163
 7020TIP3    H121024   3.832   6.303   3.068 -0.0111  0.5898 -0.4251
 7020TIP3    H221025   3.773   6.285   2.929  0.7766 -2.1964 -0.4515
 7021TIP3   OH221026   5.677   5.222   2.477 -0.4051  0.0643  0.4481
 7021TIP3    H121027   5.622   5.150   2.505 -0.0121 -0.3085  0.2780
 7021TIP3    H221028   5.712   5.260   2.558 -2.3094  1.4537  0.6808
 7022TIP3   OH221029   7.148   5.381   5.172  0.5741 -0.4167 -0.2312
 7022TIP3    H121030   7.210   5.341   5.233 -0.6381 -2.4150 -0.2050
 7022TIP3    H221031   7.081   5.420   5.228  0.0698 -1.2440 -0.2271
 7023TIP3   OH221032   0.564   5.285   4.186 -0.4766  0.4447 -0.1913
 7023TIP3    H121033   0.501   5.320   4.250 -1.5021  0.0521 -0.9467
 7023TIP3    H221034   0.598   5.205   4.227 -0.3495  0.7481  0.2966
 7024TIP3   OH221035   2.040   4.269   0.784 -0.7765  0.2919  1.1721
 7024TIP3    H121036   2.054   4.243   0.875  0.8235 -0.7113  0.6603
 7024TIP3    H221037   1.987   4.199   0.746  1.1995 -0.9247  0.5344
 7025TIP3   OH221038   5.597   2.556   2.734  0.0160  0.4109 -0.1559
 7025TIP3    H121039   5.660   2.609   2.684  0.0828 -0.8314 -1.4543
 7025TIP3    H221040   5.511   2.586   2.704 -0.0122  1.4361  0.9027
 7026TIP3   OH221041   6.681   6.280   0.473 -0.4509 -0.3896 -0.3286
 7026TIP3    H121042   6.651   6.321   0.554 -0.4839 -0.1889 -0.4405
 7026TIP3    H221043   6.701   6.190   0.497  0.2009 -0.1485  0.0573
 7027TIP3   OH221044   1.672   2.142   2.235 -0.5290 -0.2400 -0.8637
 7027TIP3    H121045   1.585   2.154   2.198 -1.0474 -0.5882  0.2085
 7027TIP3    H221046   1.729   2.195   2.180 -1.3280 -0.4602 -1.9267
 7028TIP3   OH221047   3.837   3.885   0.949  0.4562  0.0850  0.0374
 7028TIP3    H121048   3.796   3.966   0.920 -1.4441 -0.6035  0.5828
 7028TIP3    H221049   3.839   3.830   0.871 -1.2089 -0.4342  0.3092
 7029TIP3   OH221050   2.191   4.637   4.633  0.2623  0.0035 -0.2682
 7029TIP3    H121051   2.174   4.543   4.631  1.1716 -0.1795  0.1115
 7029TIP3    H221052   2.179   4.665   4.542  1.2846 -0.7281 -0.6526
 7030TIP3   OH221053   3.840   5.858   0.050 -0.9279  0.1264 -0.1864
 7030TIP3    H121054   3.911   5.860  -0.015 -0.5735  2.0747  0.1813
 7030TIP3    H221055   3.807   5.768   0.047  0.2415 -0.3063 -1.7919
 7031TIP3   OH221056   7.157   5.655   3.662 -0.1876 -0.8862 -0.2310
 7031TIP3    H121057   7.110   5.574   3.640  0.9653 -1.3173 -1.2369
 7031TIP3    H221058   7.246   5.639   3.632 -0.3590  1.4878 -2.2636
 7032TIP3   OH221059   4.844   0.344   2.359 -0.3908 -0.2812 -0.1577
 7032TIP3    H121060   4.880   0.318   2.274 -0.7120 -0.3179 -0.2831
 7032TIP3    H221061   4.807   0.431   2.343 -0.3880 -0.2585 -0.0393
 7033TIP3   OH221062   4.651   1.468   2.335  0.3921  0.6800  0.3445
 7033TIP3    H121063   4.737   1.500   2.362  0.8271  1.9021 -2.2079
 7033TIP3    H221064   4.602   1.546   2.311 -0.5480 -0.1644 -0.6124
 7034TIP3   OH221065   6.341   3.187   3.247  0.0499  0.0013 -0.2838
 7034TIP3    H121066   6.414   3.210   3.305  0.2013 -0.2323 -0.3803
 7034TIP3    H221067   6.323   3.268   3.199  1.7801 -0.5129 -1.9211
 7035TIP3   OH221068   2.199   4.936   3.777  0.0606 -0.6239 -0.1086
 7035TIP3    H121069   2.125   4.877   3.763  0.8589 -1.1088 -2.8877
 7035TIP3    H221070   2.272   4.894   3.734  1.7152  0.4566  1.4703
 7036TIP3   OH221071   1.256   5.821   2.205  0.4244 -0.4984 -0.0622
 7036TIP3    H121072   1.278   5.837   2.297  0.8061  0.7406 -0.3484
 7036TIP3    H221073   1.330   5.770   2.172  1.3001  0.7977 -0.1749
 7037TIP3   OH221074   3.574   6.015   5.590  0.6240  0.2456 -0.1236
 7037TIP3    H121075   3.647   5.988   5.533  0.1447  1.3443 -1.3155
 7037TIP3    H221076   3.519   5.937   5.596  2.0901 -0.7420  1.1653
 7038TIP3   OH221077   3.728   5.806   4.504  0.3249  0.3838  0.0137
 7038TIP3    H121078   3.678   5.762   4.436  0.2050 -0.2407  0.4919
 7038TIP3    H221079   3.808   5.835   4.460  0.3888 -0.2812 -0.3227
 7039TIP3   OH221080   7.072   0.602   0.021 -0.2551  0.0416  0.1380
 7039TIP3    H121081   7.143   0.611   0.084 -1.0292 -0.6639  1.1642
 7039TIP3    H221082   7.075   0.510  -0.005 -0.5013  0.1183 -0.1686
 7040TIP3   OH221083   0.532   4.650   4.913 -0.2925 -0.7291  0.1546
 7040TIP3    H121084   0.478   4.571   4.914  0.1521 -1.1184 -2.1585
 7040TIP3    H221085   0.598   4.635   4.981 -3.0249 -0.1988  3.1633
 7041TIP3   OH221086   1.004   1.559   2.572 -0.4951  0.6411 -0.1229
 7041TIP3    H121087   0.916   1.597   2.578 -0.3148  1.0908 -0.2911
 7041TIP3    H221088   1.045   1.605   2.499  0.6821  2.1096  1.3809
 7042TIP3   OH221089   2.310   5.634   1.421  0.3812  0.0691 -0.2138
 7042TIP3    H121090   2.261   5.559   1.454 -0.0234 -0.4498 -1.9202
 7042TIP3    H221091   2.401   5.606   1.423  0.0899 -1.4583 -3.0365
 7043TIP3   OH221092   0.947   4.670   0.851 -0.4103 -0.2236  0.4099
 7043TIP3    H121093   0.890   4.630   0.785  0.5248 -0.6430 -0.1453
 7043TIP3    H221094   0.963   4.601   0.915  0.9556 -0.6650 -0.3906
 7044TIP3   OH221095   4.991   3.858   0.730 -0.1987  0.5039 -0.0669
 7044TIP3    H121096   4.915   3.808   0.698  0.9680  0.0685 -2.3518
 7044TIP3    H221097   5.010   3.819   0.815  0.1835 -2.5393 -1.3982
 7045TIP3   OH221098   0.096   1.786   4.251 -0.6030 -0.3062  0.0962
 7045TIP3    H121099   0.179   1.809   4.210 -1.2233 -0.1751 -1.1554
 7045TIP3    H221100   0.048   1.869   4.255 -1.9868 -0.8673 -2.4014
 7046TIP3   OH221101   5.083   3.000   5.855 -0.1610 -0.0214  0.0265
 7046TIP3    H121102   5.056   3.065   5.791  0.8382 -0.8413 -1.2813
 7046TIP3    H221103   5.000   2.963   5.888 -0.7155  1.4371  0.3288
 7047TIP3   OH221104   6.927   4.557   5.621 -0.2631 -0.1508  0.2590
 7047TIP3    H121105   6.892   4.503   5.692  0.6034 -0.8968  0.1342
 7047TIP3    H221106   6.989   4.616   5.664 -0.9213  0.4894  0.3395
 7048TIP3   OH221107   3.266   2.508   4.073 -0.2502  0.3305 -0.1648
 7048TIP3    H121108   3.307   2.423   4.057 -0.6438  0.3851 -1.6557
 7048TIP3    H221109   3.214   2.495   4.153 -0.4511 -0.8969 -0.4686
 7049TIP3   OH221110   3.897   4.950   3.848 -0.1053  0.1651  0.0009
 7049TIP3    H121111   3.899   4.858   3.821  2.0115 -0.0147  0.6184
 7049TIP3    H221112   3.950   4.952   3.928 -0.6086  1.8373  0.3160
 7050TIP3   OH221113   6.715   1.878   2.547 -0.0830  0.0401 -0.0424
 7050TIP3    H121114   6.739   1.884   2.454  2.0278  0.7162  0.4703
 7050TIP3    H221115   6.683   1.966   2.569 -1.9470 -0.5105 -0.4240
 7051TIP3   OH221116   6.871   2.277   4.365  0.3008 -0.0356  0.1123
 7051TIP3    H121117   6.890   2.368   4.389  0.4116  0.2259 -0.9336
 7051TIP3    H221118   6.792   2.282   4.312 -0.1516 -0.6466  0.7084
 7052TIP3   OH221119   0.061   1.587   0.097 -0.3495  0.4645  0.0080
 7052TIP3    H121120   0.104   1.507   0.129 -0.7678  0.3760  0.3678
 7052TIP3    H221121   0.107   1.658   0.141 -0.8827  0.3449  0.7858
 7053TIP3   OH221122   6.999   3.699   1.561 -0.0782 -0.4456  0.3345
 7053TIP3    H121123   6.907   3.707   1.538  0.4260 -0.8591 -2.1406
 7053TIP3    H221124   7.025   3.786   1.589 -0.3543  0.7541 -2.7586
 7054TIP3   OH221125   7.063   5.631   2.049 -0.1582  0.1047 -0.2552
 7054TIP3    H121126   7.099   5.586   1.973 -0.3710  0.9603 -0.8897
 7054TIP3    H221127   6.995   5.573   2.082  2.2753 -1.9354  1.4811
 7055TIP3   OH221128   5.943   2.470   4.381 -0.0507 -0.0474 -0.0512
 7055TIP3    H121129   5.858   2.492   4.344  0.1885  0.1423 -0.5053
 7055TIP3    H221130   5.999   2.454   4.304  0.1421 -0.8696  0.2459
 7056TIP3   OH221131   7.161   2.922   2.092  0.3921 -0.0866 -0.0957
 7056TIP3    H121132   7.218   2.877   2.030 -0.4150 -1.9062  0.4115
 7056TIP3    H221133   7.220   2.964   2.154  1.1846  0.2253 -1.0462
 7057TIP3   OH221134   5.559   3.640   1.411 -0.0585 -0.2568 -0.3667
 7057TIP3    H121135   5.584   3.697   1.338  1.8091  2.5783  2.2173
 7057TIP3    H221136   5.634   3.583   1.425  0.4881  0.6563  0.5653
 7058TIP3   OH221137   0.296   1.796   0.983 -1.1323  0.4984 -0.0221
 7058TIP3    H121138   0.331   1.875   0.941 -0.5452 -0.0289 -0.5310
 7058TIP3    H221139   0.308   1.812   1.077  1.1118  0.0496 -0.1986
 7059TIP3   OH221140   6.778   1.526   5.187 -0.2165 -0.1444  0.1584
 7059TIP3    H121141   6.788   1.433   5.208 -1.5509 -0.2700  0.3596
 7059TIP3    H221142   6.786   1.571   5.271 -1.8021 -0.3027  0.4212
 7060TIP3   OH221143   5.753   1.391   3.518  0.9578  0.0188  0.0466
 7060TIP3    H121144   5.718   1.382   3.429  0.1003 -0.6963  0.4308
 7060TIP3    H221145   5.736   1.482   3.542  0.7121  0.0761 -0.3311
 7061TIP3   OH221146   3.963   0.394   0.433  0.1820  0.2787 -0.5358
 7061TIP3    H121147   3.938   0.410   0.524 -1.0814 -3.8644  0.0665
 7061TIP3    H221148   4.026   0.322   0.438  0.2196  0.0611 -2.9372
 7062TIP3   OH221149   0.643   3.413   1.681  0.5037  0.4298  0.5745
 7062TIP3    H121150   0.710   3.348   1.660  0.9711  0.5995  1.4545
 7062TIP3    H221151   0.604   3.437   1.597 -0.5947 -1.9310  0.3120
 7063TIP3   OH221152   2.234   0.388   2.028 -0.4473 -0.1741  0.2064
 7063TIP3    H121153   2.287   0.457   1.989 -2.9510  1.4623 -0.5791
 7063TIP3    H221154   2.280   0.364   2.108  0.6784  2.2533  0.3681
 7064TIP3   OH221155   1.947   3.496   1.126  0.0934  0.2874  0.4113
 7064TIP3    H121156   2.036   3.476   1.156  0.5655 -0.3697 -1.3156
 7064TIP3    H221157   1.956   3.581   1.082  0.5963 -1.0829 -2.3982
 7065TIP3   OH221158   1.746   0.839   4.995 -0.3556  0.8577  0.0748
 7065TIP3    H121159   1.770   0.888   5.073  0.6732 -1.1834  1.1238
 7065TIP3    H221160   1.658   0.806   5.014  0.6998 -1.4158  1.3954
 7066TIP3   OH221161   3.260   2.284   0.569 -0.0602  0.1065 -0.1477
 7066TIP3    H121162   3.305   2.329   0.640  0.1708 -0.2655 -0.0534
 7066TIP3    H221163   3.167   2.304   0.582  0.0392  0.5683 -0.1226
 7067TIP3   OH221164   2.406   5.773   0.132 -0.4365 -0.0824 -0.3708
 7067TIP3    H121165   2.471   5.799   0.198 -1.4476 -1.3248  1.1962
 7067TIP3    H221166   2.458   5.736   0.061  0.6073 -1.4072  1.0083
 7068TIP3   OH221167   6.048   1.359   2.076  0.6276 -0.2573 -0.8252
 7068TIP3    H121168   6.120   1.407   2.034  1.4701 -1.1490 -0.4394
 7068TIP3    H221169   6.021   1.294   2.012  1.2386 -0.9557 -0.3970
 7069TIP3   OH221170   7.151   6.109   4.892 -0.1162  0.2577  0.7362
 7069TIP3    H121171   7.191   6.030   4.928  1.1232  0.3945 -0.2654
 7069TIP3    H221172   7.057   6.092   4.894 -0.1758  0.2849  4.0298
 7070TIP3   OH221173   1.692   2.492   5.790  0.7819  0.5988  0.5350
 7070TIP3    H121174   1.708   2.435   5.715 -1.6244 -1.3540  1.3873
 7070TIP3    H221175   1.693   2.580   5.753 -1.0729 -0.3191 -1.9916
 7071TIP3   OH221176   2.784   5.404   3.287 -0.0172 -0.0318 -0.5541
 7071TIP3    H121177   2.723   5.337   3.257 -0.7157 -0.2571  1.2380
 7071TIP3    H221178   2.836   5.361   3.355  0.3930  0.8805 -0.2638
 7072TIP3   OH221179   3.750   1.941   4.690 -0.3300  0.6804 -0.1438
 7072TIP3    H121180   3.713   1.877   4.629  0.8454 -1.1274  0.9651
 7072TIP3    H221181   3.698   1.931   4.770 -0.3525  1.3637 -0.0660
 7073TIP3   OH221182   2.686   6.471   3.660  0.9830  0.3352  0.3220
 7073TIP3    H121183   2.726   6.408   3.719 -0.3019  0.8091  1.7717
 7073TIP3    H221184   2.741   6.549   3.666 -0.2904  1.1481  2.6666
 7074TIP3   OH221185   3.499   0.051   4.571 -0.5352 -0.9111 -0.7593
 7074TIP3    H121186   3.553   0.124   4.600  0.3390 -1.2817 -1.4072
 7074TIP3    H221187   3.559  -0.023   4.566 -1.1911 -1.4351 -1.1101
 7075TIP3   OH221188   6.054   3.563   3.103  0.2209 -0.0525 -0.0030
 7075TIP3    H121189   6.006   3.621   3.162 -0.6094 -1.2554  0.5485
 7075TIP3    H221190   5.997   3.554   3.026  0.1706 -0.4023  0.0700
 7076TIP3   OH221191   0.279   0.730   1.529 -0.5288 -0.2059  0.4138
 7076TIP3    H121192   0.204   0.773   1.569 -0.1670  1.7646 -0.8941
 7076TIP3    H221193   0.240   0.666   1.469 -1.0660 -2.1495  2.6815
 7077TIP3   OH221194   0.472   5.433   0.434  0.5456  0.3065 -0.2038
 7077TIP3    H121195   0.417   5.466   0.506  1.3204 -0.3905  0.7408
 7077TIP3    H221196   0.553   5.484   0.441  0.6550  0.1761 -0.5312
 7078TIP3   OH221197   0.699   3.065   1.916  0.3827  0.0912  0.6507
 7078TIP3    H121198   0.718   3.158   1.906  2.6293 -0.5492 -2.1881
 7078TIP3    H221199   0.604   3.061   1.925  0.2718  2.6533  1.4982
 7079TIP3   OH221200   1.675   6.193   3.381 -0.4122 -0.1813 -0.5806
 7079TIP3    H121201   1.638   6.225   3.464  0.3532  1.5723 -0.8804
 7079TIP3    H221202   1.764   6.228   3.379  0.1231 -1.5075 -1.4456
 7080TIP3   OH221203   6.733   1.113   2.955  0.0361 -0.6061  0.1276
 7080TIP3    H121204   6.789   1.048   2.912  1.1640  0.3159  0.1424
 7080TIP3    H221205   6.794   1.182   2.982 -1.1101  0.3781  0.2603
 7081TIP3   OH221206   3.608   1.083   0.938 -0.0383  0.0232 -0.5394
 7081TIP3    H121207   3.563   1.164   0.912  0.7223  0.0213 -2.0236
 7081TIP3    H221208   3.538   1.024   0.966 -1.0178  0.0356 -2.7045
 7082TIP3   OH221209   1.634   1.678   2.341  0.2946  0.1719  0.6563
 7082TIP3    H121210   1.591   1.594   2.326 -1.7451  1.3131 -0.3254
 7082TIP3    H221211   1.674   1.700   2.257  2.5205 -0.6581  1.4367
 7083TIP3   OH221212   5.383   6.428   3.167 -0.1504 -0.1139 -0.0614
 7083TIP3    H121213   5.434   6.471   3.100 -0.3152 -1.3621 -1.0310
 7083TIP3    H221214   5.436   6.435   3.247 -0.2602  1.9645 -0.1391
 7084TIP3   OH221215   2.706   3.558   4.309 -0.0832 -0.2834  0.1353
 7084TIP3    H121216   2.624   3.555   4.359 -0.5721 -0.4857 -0.6665
 7084TIP3    H221217   2.770   3.516   4.367 -0.8998 -1.5912  0.1318
 7085TIP3   OH221218   0.344   1.861   0.214 -0.1805 -0.0163  0.4188
 7085TIP3    H121219   0.383   1.779   0.242 -0.2455  0.0264  0.6389
 7085TIP3    H221220   0.250   1.851   0.234 -0.3108 -0.1824 -0.2578
 7086TIP3   OH221221   2.364   5.007   5.491 -0.0311 -0.4074  0.1388
 7086TIP3    H121222   2.289   4.955   5.462 -1.0232  0.8198  0.4460
 7086TIP3    H221223   2.341   5.097   5.470  1.1026  0.0645  0.8165
 7087TIP3   OH221224   0.832   3.224   1.631 -0.7248  0.1073 -0.3382
 7087TIP3    H121225   0.919   3.256   1.606 -0.7018 -0.1927 -0.6469
 7087TIP3    H221226   0.810   3.159   1.565 -1.0918  0.0194 -0.1350
 7088TIP3   OH221227   0.981   4.615   4.821 -0.2387 -0.5098 -0.4235
 7088TIP3    H121228   0.920   4.682   4.790 -0.4864 -0.4376  0.2044
 7088TIP3    H221229   0.993   4.634   4.913  1.1442 -0.2281 -0.6521
 7089TIP3   OH221230   4.897   3.453   3.168  0.3474 -0.0523 -0.7291
 7089TIP3    H121231   4.957   3.439   3.240 -0.1825  1.2817  0.0194
 7089TIP3    H221232   4.917   3.384   3.105  0.2544 -1.7713  1.0553
 7090TIP3   OH221233   1.288   3.876   4.303 -0.2372 -0.1933  0.4596
 7090TIP3    H121234   1.194   3.872   4.324 -0.3458 -1.0472 -0.1256
 7090TIP3    H221235   1.299   3.960   4.259 -0.7094 -0.0420  0.6206
 7091TIP3   OH221236   2.803   0.869   4.367 -0.6909 -0.3766  0.2103
 7091TIP3    H121237   2.794   0.939   4.304  2.3907 -0.7434 -0.8051
 7091TIP3    H221238   2.748   0.798   4.334 -0.8715  0.2463 -0.8360
 7092TIP3   OH221239   5.384   3.661   5.623 -0.3573 -0.1425 -0.1230
 7092TIP3    H121240   5.384   3.567   5.641 -1.1142 -0.5044 -1.8327
 7092TIP3    H221241   5.469   3.678   5.583 -0.4012 -0.2057 -0.2457
 7093TIP3   OH221242   5.840   2.727   5.531  0.0876 -0.5813  0.6290
 7093TIP3    H121243   5.819   2.664   5.463 -0.5208  1.5408 -1.2599
 7093TIP3    H221244   5.893   2.678   5.594  2.1293 -2.2767 -2.1667
 7094TIP3   OH221245   1.004   4.141   0.171  0.1037 -0.3140 -0.0894
 7094TIP3    H121246   0.969   4.185   0.094 -0.3419 -1.5837 -0.6267
 7094TIP3    H221247   1.054   4.209   0.217  0.2312  0.4967 -1.3969
 7095TIP3   OH221248   4.456   3.165   0.361  0.0824  0.2522  0.6040
 7095TIP3    H121249   4.365   3.194   0.355  0.0444  0.5099  1.9846
 7095TIP3    H221250   4.506   3.244   0.380  0.5192  0.0316  0.3990
 7096TIP3   OH221251   4.372   5.559   4.037 -0.0771  0.3138  0.2122
 7096TIP3    H121252   4.286   5.600   4.032 -0.0477  0.2448 -1.0324
 7096TIP3    H221253   4.367   5.486   3.975  0.7018 -0.0384  0.5511
 7097TIP3   OH221254   2.701   4.466   0.740  0.1614 -0.2626  0.3842
 7097TIP3    H121255   2.724   4.414   0.663  1.0479 -1.4461  1.4038
 7097TIP3    H221256   2.673   4.550   0.704  1.2606 -0.5140 -1.1889
 7098TIP3   OH221257   1.490   3.148   4.152  0.3196  0.0510  0.2344
 7098TIP3    H121258   1.457   3.154   4.241  0.8152 -0.0544  0.4321
 7098TIP3    H221259   1.538   3.230   4.139  0.6096 -0.1192  0.2180
 7099TIP3   OH221260   5.421   4.217   0.924 -0.6110 -0.3371  0.2488
 7099TIP3    H121261   5.479   4.292   0.911 -3.2793  1.9586  0.5467
 7099TIP3    H221262   5.386   4.230   1.013 -1.4413 -1.7018  0.1415
 7100TIP3   OH221263   6.503   5.106   5.254 -0.0534 -0.5764  0.0826
 7100TIP3    H121264   6.426   5.155   5.285  0.3073 -0.4675  0.8034
 7100TIP3    H221265   6.514   5.035   5.317  0.0335 -0.9979 -0.4028
 7101TIP3   OH221266   0.446   3.887   4.238 -0.4181  0.0416  0.1560
 7101TIP3    H121267   0.513   3.820   4.227 -0.6649 -0.0390 -0.9764
 7101TIP3    H221268   0.386   3.851   4.303 -2.6600 -2.6198 -3.0862
 7102TIP3   OH221269   2.370   0.937   1.024 -0.4959  0.0110 -0.2000
 7102TIP3    H121270   2.453   0.932   0.978 -0.0762 -0.2421  0.5707
 7102TIP3    H221271   2.394   0.944   1.117 -1.3408 -1.0318  0.1114
 7103TIP3   OH221272   5.805   3.786   3.469 -0.2360 -0.4224  0.1562
 7103TIP3    H121273   5.720   3.826   3.488  0.6940  2.6867 -1.4695
 7103TIP3    H221274   5.868   3.840   3.516  1.1020  0.1817 -2.1534
 7104TIP3   OH221275   1.346   0.979   4.236  0.0734 -0.1314  0.0257
 7104TIP3    H121276   1.295   1.052   4.270 -1.4665 -0.8793 -0.5737
 7104TIP3    H221277   1.413   0.964   4.303  3.3259  4.5220 -1.6946
 7105TIP3   OH221278   0.541   3.110   2.604 -0.0927  0.1583 -0.9855
 7105TIP3    H121279   0.528   3.016   2.587 -1.3318 -0.0257  0.7324
 7105TIP3    H221280   0.523   3.120   2.697 -1.4754  2.3418 -1.4167
 7106TIP3   OH221281   2.393   2.100   1.610 -0.0783  0.2760  0.0686
 7106TIP3    H121282   2.412   2.168   1.674 -0.5679  0.3796  0.1099
 7106TIP3    H221283   2.330   2.140   1.550 -0.6786 -0.2537  0.3205
 7107TIP3   OH221284   2.580   1.027   5.318  0.2506 -0.7509  0.5273
 7107TIP3    H121285   2.625   1.111   5.318 -0.5431 -0.2386 -2.0336
 7107TIP3    H221286   2.501   1.043   5.370  0.8127 -0.3653  1.2836
 7108TIP3   OH221287   6.549   2.539   2.109 -0.5307  0.3422 -0.1763
 7108TIP3    H121288   6.469   2.486   2.105  0.0854 -0.6025 -0.4138
 7108TIP3    H221289   6.596   2.518   2.028  0.1105  0.6399  0.1106
 7109TIP3   OH221290   0.891   3.670   4.108  0.2028  0.1943 -0.1501
 7109TIP3    H121291   0.956   3.601   4.121  0.7449  0.5142 -1.0788
 7109TIP3    H221292   0.819   3.627   4.062  0.4009  0.1612 -0.4364
 7110TIP3   OH221293   0.092   1.019   5.042 -0.7231 -0.1372 -0.0970
 7110TIP3    H121294   0.150   1.049   5.113 -0.4586  0.5924 -0.6094
 7110TIP3    H221295   0.065   1.099   4.998  0.7819 -0.6468 -2.1264
 7111TIP3   OH221296   2.998   3.481   1.179  0.0320  0.2362 -0.4031
 7111TIP3    H121297   2.951   3.564   1.182 -1.6907 -0.6961 -0.2015
 7111TIP3    H221298   2.950   3.428   1.115  0.8744 -0.7249 -0.2681
 7112TIP3   OH221299   4.120   2.449   0.201 -0.1397 -0.2346  0.1394
 7112TIP3    H121300   4.043   2.499   0.228  0.5382  0.3244  1.0963
 7112TIP3    H221301   4.086   2.362   0.183 -1.4617  0.6796 -2.1924
 7113TIP3   OH221302   5.328   5.595   2.004  0.1635  0.1166  0.1590
 7113TIP3    H121303   5.302   5.595   2.096 -1.0622 -0.4574 -0.1656
 7113TIP3    H221304   5.247   5.616   1.957  1.1192  2.1392 -0.7207
 7114TIP3   OH221305   5.404   6.446   1.361  0.2863 -0.1299  0.1938
 7114TIP3    H121306   5.320   6.491   1.370 -0.6554 -1.6797 -0.3253
 7114TIP3    H221307   5.418   6.440   1.266  0.8049 -0.1811  0.2721
 7115TIP3   OH221308   6.174   2.508   2.915 -0.1188 -0.1652 -0.8863
 7115TIP3    H121309   6.261   2.548   2.908  0.1960 -0.9458 -1.5782
 7115TIP3    H221310   6.189   2.429   2.968 -0.7925  0.7610  0.7657
 7116TIP3   OH221311   3.589   2.582   2.460  0.2911  0.1102  0.6299
 7116TIP3    H121312   3.639   2.500   2.465  0.1888 -0.0647 -0.8190
 7116TIP3    H221313   3.646   2.648   2.498  0.3972 -0.6097  1.7777
 7117TIP3   OH221314   1.345   2.009   0.808 -0.2201 -0.5398  0.1528
 7117TIP3    H121315   1.339   1.927   0.858 -1.1087 -0.6173 -0.0739
 7117TIP3    H221316   1.405   2.063   0.859  0.8703 -1.5443 -0.0042
 7118TIP3   OH221317   6.011   3.048   5.199 -0.6448  0.0304 -0.1514
 7118TIP3    H121318   5.964   3.010   5.273 -1.2751  0.6092 -0.2501
 7118TIP3    H221319   6.102   3.054   5.229 -0.9137  0.3437  0.5999
 7119TIP3   OH221320   4.612   3.186   2.080  0.3858 -0.0298 -0.1042
 7119TIP3    H121321   4.609   3.277   2.048 -2.1765  0.2889  0.8625
 7119TIP3    H221322   4.706   3.166   2.082  0.9591  2.0000 -1.9228
 7120TIP3   OH221323   5.849   6.095   3.690  0.0568 -0.4150 -0.2142
 7120TIP3    H121324   5.826   6.035   3.619 -0.3272  0.3595 -0.7733
 7120TIP3    H221325   5.804   6.177   3.667 -2.1466 -0.8057  2.1732
 7121TIP3   OH221326   2.205   5.708   1.701  0.2328  0.0634 -0.0299
 7121TIP3    H121327   2.167   5.742   1.782 -0.0610  1.2456 -0.6335
 7121TIP3    H221328   2.139   5.650   1.665  0.1160  0.0093  0.2731
 7122TIP3   OH221329   3.109   1.413   0.450 -0.6212  0.5608 -0.0939
 7122TIP3    H121330   3.053   1.490   0.461 -1.1167  0.1058  0.6484
 7122TIP3    H221331   3.180   1.443   0.394 -2.3849  0.7550 -2.3702
 7123TIP3   OH221332   4.145   4.520   5.863 -0.0974  0.0914 -0.2768
 7123TIP3    H121333   4.172   4.455   5.798  2.8654  1.3425 -0.4746
 7123TIP3    H221334   4.117   4.596   5.811  3.2395  1.4760 -0.3322
 7124TIP3   OH221335   1.664   6.093   0.838 -0.5001  0.3467 -0.1818
 7124TIP3    H121336   1.580   6.056   0.865 -0.5050  0.9726  0.7145
 7124TIP3    H221337   1.714   6.102   0.919  1.2929 -2.0028 -0.9196
 7125TIP3   OH221338   1.544   4.333   1.144  0.1036 -0.3675  0.3124
 7125TIP3    H121339   1.559   4.426   1.157  3.5364 -0.5513 -1.2909
 7125TIP3    H221340   1.498   4.305   1.223  0.6153  2.3557  1.6794
 7126TIP3   OH221341   2.587   6.568   5.339 -0.5871 -0.0848  0.1392
 7126TIP3    H121342   2.623   6.624   5.270 -0.6226 -1.7900 -1.3360
 7126TIP3    H221343   2.647   6.580   5.413  1.0860 -0.2762 -1.1097
 7127TIP3   OH221344   6.475   0.178   0.532 -0.2165 -0.1836 -0.4341
 7127TIP3    H121345   6.411   0.243   0.562  1.0987  1.5796 -1.2848
 7127TIP3    H221346   6.434   0.137   0.456 -1.4540 -1.0747  0.6768
 7128TIP3   OH221347   1.388   4.634   2.319 -0.1634  0.2570  1.0545
 7128TIP3    H121348   1.387   4.718   2.273 -0.9170 -0.2420  0.1163
 7128TIP3    H221349   1.472   4.595   2.296 -0.0750  0.4864  0.9906
 7129TIP3   OH221350   6.157   4.498   5.796 -0.1713  0.2844 -0.3330
 7129TIP3    H121351   6.158   4.470   5.705 -2.5282 -1.4960  0.0747
 7129TIP3    H221352   6.235   4.459   5.835 -1.0416 -2.0933 -0.8267
 7130TIP3   OH221353   1.927   3.205   4.928  0.2032 -0.1011  0.0689
 7130TIP3    H121354   1.884   3.260   4.862  0.5693 -0.7170 -0.6905
 7130TIP3    H221355   1.993   3.262   4.967  0.5384  0.0276 -0.6680
 7131TIP3   OH221356   1.595   6.811   1.890 -0.0963 -0.9543 -0.4375
 7131TIP3    H121357   1.672   6.757   1.909  0.3980 -0.0849  0.0575
 7131TIP3    H221358   1.561   6.776   1.808 -0.1523 -2.4319  0.1803
 7132TIP3   OH221359   0.563   6.640   4.387  0.0523 -0.5834  0.3782
 7132TIP3    H121360   0.558   6.632   4.292  1.6437 -0.8773  0.2928
 7132TIP3    H221361   0.602   6.727   4.401 -0.7312 -0.2947  0.7805
 7133TIP3   OH221362   1.430   2.894   5.835  0.4045  0.2639  0.2274
 7133TIP3    H121363   1.434   2.862   5.926  0.5668  1.4326  0.6482
 7133TIP3    H221364   1.375   2.973   5.840 -0.1437 -0.0355 -0.8114
 7134TIP3   OH221365   0.757   0.988   4.604 -0.1009  0.3703  0.7703
 7134TIP3    H121366   0.823   0.956   4.666 -0.7931 -0.2527  1.1934
 7134TIP3    H221367   0.769   1.083   4.605  0.4111  0.3119  1.2811
 7135TIP3   OH221368   3.553   6.485   1.144  0.1535 -0.0867  0.1354
 7135TIP3    H121369   3.530   6.393   1.155 -1.8810  0.2365 -0.9032
 7135TIP3    H221370   3.545   6.501   1.050  2.4792  0.7072  0.0031
 7136TIP3   OH221371   4.219   3.544   2.333  0.2179 -0.3465  0.4802
 7136TIP3    H121372   4.217   3.524   2.426  0.4706  0.8671  0.7481
 7136TIP3    H221373   4.131   3.578   2.314  0.6050  0.7294  0.5787
 7137TIP3   OH221374   0.847   6.025   4.972 -0.1321 -0.1402 -0.0226
 7137TIP3    H121375   0.923   6.082   4.986 -0.1152 -0.1873  0.0870
 7137TIP3    H221376   0.771   6.083   4.977 -0.1616 -0.2255  0.7965
 7138TIP3   OH221377   5.862   4.003   0.987 -0.0723  0.5368 -0.0408
 7138TIP3    H121378   5.778   4.018   1.031 -0.4628 -1.2004 -0.1573
 7138TIP3    H221379   5.927   4.030   1.052 -0.6856  0.3239  0.6831
 7139TIP3   OH221380   2.171   2.896   2.681 -0.3254  0.0891  0.3127
 7139TIP3    H121381   2.226   2.939   2.616 -1.5579  1.0784 -0.1099
 7139TIP3    H221382   2.177   2.953   2.758 -0.1605 -0.2023  0.5156
 7140TIP3   OH221383   6.779   2.182   2.166 -0.0325  0.2615 -0.3803
 7140TIP3    H121384   6.732   2.176   2.083  0.9412  2.7810 -1.1999
 7140TIP3    H221385   6.872   2.175   2.142  0.2750  1.2125  0.4510
 7141TIP3   OH221386   4.295   3.219   5.177 -0.9037 -0.1157 -0.4295
 7141TIP3    H121387   4.326   3.254   5.260  0.4549 -1.4897 -0.3099
 7141TIP3    H221388   4.282   3.295   5.121  1.2998  0.6419  0.0122
 7142TIP3   OH221389   2.757   4.690   5.660 -0.0902 -0.6996  0.3513
 7142TIP3    H121390   2.737   4.766   5.716 -0.3867 -0.1156 -0.5250
 7142TIP3    H221391   2.835   4.716   5.611  0.3052 -1.2983  0.6565
 7143TIP3   OH221392   5.058   1.660   1.402 -0.4828 -0.0038 -0.1551
 7143TIP3    H121393   5.091   1.693   1.319 -0.1088 -1.1597 -0.4857
 7143TIP3    H221394   5.116   1.697   1.468 -0.1193  0.0640 -0.5090
 7144TIP3   OH221395   1.371   2.584   5.555  0.1327 -0.1752 -0.2411
 7144TIP3    H121396   1.345   2.640   5.628 -0.0063 -0.1262 -0.3282
 7144TIP3    H221397   1.467   2.583   5.558  0.1120 -0.9077  0.4997
 7145TIP3   OH221398   0.204   6.323   0.704 -0.3028  0.3977  0.5944
 7145TIP3    H121399   0.127   6.356   0.751 -0.2490 -0.8224  1.6183
 7145TIP3    H221400   0.169   6.281   0.626 -0.7817 -0.7877  1.4171
 7146TIP3   OH221401   4.804   4.722   5.251 -0.1383 -0.5339  0.0203
 7146TIP3    H121402   4.774   4.656   5.188 -3.2026 -0.5436  1.2992
 7146TIP3    H221403   4.790   4.806   5.206 -0.7882 -0.6016  0.0824
 7147TIP3   OH221404   1.135   0.270   5.134  0.2758  0.6944 -0.6773
 7147TIP3    H121405   1.167   0.358   5.112  1.0602  1.2252  2.1619
 7147TIP3    H221406   1.042   0.283   5.153  0.5917  1.1131  0.6282
 7148TIP3   OH221407   0.811   4.706   4.372 -0.1918 -0.3919  0.3678
 7148TIP3    H121408   0.810   4.787   4.321  0.6086  0.2594  1.3460
 7148TIP3    H221409   0.749   4.722   4.444  1.4333  0.1924  1.7309
 7149TIP3   OH221410   3.236   1.119   1.455 -1.1474  0.2515  0.2180
 7149TIP3    H121411   3.296   1.121   1.381 -0.5387  0.5259  0.7085
 7149TIP3    H221412   3.179   1.045   1.438  0.3353 -1.0110  0.5034
 7150TIP3   OH221413   2.373   5.158   3.102  0.2949  0.2868 -0.6778
 7150TIP3    H121414   2.462   5.182   3.127  0.0639 -0.3296  0.8540
 7150TIP3    H221415   2.368   5.177   3.008  2.7158 -1.7177 -1.3042
 7151TIP3   OH221416   7.031   6.414   5.407 -0.3697 -0.5050 -0.1543
 7151TIP3    H121417   7.039   6.329   5.450 -1.5075 -1.2958 -1.4010
 7151TIP3    H221418   7.076   6.403   5.323 -0.0418  0.3026 -0.0870
 7152TIP3   OH221419   3.135   5.378   1.130  0.0336 -0.1082  0.3909
 7152TIP3    H121420   3.147   5.391   1.224  0.0345  0.1987  0.3469
 7152TIP3    H221421   3.223   5.388   1.093  0.0076 -0.0789  0.3374
 7153TIP3   OH221422   6.034   4.757   0.742  0.0672  0.5928 -0.7194
 7153TIP3    H121423   6.069   4.846   0.742 -2.1594  1.5701  1.2280
 7153TIP3    H221424   6.041   4.729   0.834 -1.2129 -0.4092 -0.9036
 7154TIP3   OH221425   3.625   1.463   2.190  0.1273  0.2428  0.4763
 7154TIP3    H121426   3.568   1.402   2.143 -0.4755  0.4928  0.8776
 7154TIP3    H221427   3.599   1.456   2.282  0.4589  0.6686  0.6104
 7155TIP3   OH221428   5.550   2.083   5.695  0.3782  0.7385  0.0166
 7155TIP3    H121429   5.475   2.067   5.752 -0.3911  2.1009 -0.5417
 7155TIP3    H221430   5.559   2.178   5.693  2.1639  0.6078  0.0870
 7156TIP3   OH221431   0.185   5.311   0.772 -0.1164 -0.8834  0.3018
 7156TIP3    H121432   0.147   5.298   0.685 -1.1228 -1.0670  0.7547
 7156TIP3    H221433   0.213   5.224   0.799  0.9219 -0.7098 -0.1398
 7157TIP3   OH221434   0.028   2.160   4.085 -0.5199  0.4091  0.0839
 7157TIP3    H121435  -0.048   2.199   4.042 -0.5112 -0.0138 -0.3319
 7157TIP3    H221436   0.097   2.164   4.018 -0.1750  0.7966  0.4593
 7158TIP3   OH221437   1.408   0.215   4.643 -0.2071 -0.1298  0.4340
 7158TIP3    H121438   1.442   0.197   4.556 -0.5193 -0.8089  0.4477
 7158TIP3    H221439   1.418   0.310   4.654  0.1875 -0.0982 -0.1823
 7159TIP3   OH221440   4.904   1.507   3.307 -0.2483  0.4163  0.5385
 7159TIP3    H121441   4.951   1.590   3.307 -1.4628  1.2524 -2.5862
 7159TIP3    H221442   4.960   1.448   3.358  0.5172  3.1341  3.1156
 7160TIP3   OH221443   1.578   2.357   4.126  0.3922  0.1418  0.2437
 7160TIP3    H121444   1.567   2.368   4.220 -0.8385  0.5606  0.0632
 7160TIP3    H221445   1.580   2.262   4.113  1.5141  0.0716  0.7718
 7161TIP3   OH221446   3.716   5.125   4.577  0.2680  0.3986 -0.3398
 7161TIP3    H121447   3.731   5.220   4.578  1.0565  0.2761  0.9613
 7161TIP3    H221448   3.660   5.109   4.652  0.3458 -0.2026 -0.4088
 7162TIP3   OH221449   0.710   4.412   0.173 -0.3866  0.4990 -0.3309
 7162TIP3    H121450   0.669   4.496   0.192 -2.4565 -0.6444  0.5930
 7162TIP3    H221451   0.804   4.431   0.169 -0.8095  2.8511 -0.3133
 7163TIP3   OH221452   6.062   0.371   3.332 -0.4674  0.4809 -0.6101
 7163TIP3    H121453   6.045   0.403   3.420  0.1126 -0.6421 -0.0652
 7163TIP3    H221454   6.027   0.282   3.332  2.4121 -0.7653 -0.4266
 7164TIP3   OH221455   3.924   5.220   3.659 -0.1098 -0.2253 -0.4613
 7164TIP3    H121456   3.929   5.218   3.755 -2.4645  0.5617 -0.2615
 7164TIP3    H221457   3.876   5.140   3.637  0.7328 -0.5869 -1.0527
 7165TIP3   OH221458   5.430   2.240   4.625 -0.2024 -0.3838 -0.1853
 7165TIP3    H121459   5.462   2.163   4.673 -0.0482  0.3460  0.9046
 7165TIP3    H221460   5.496   2.307   4.640  0.5289 -0.4970 -2.5322
 7166TIP3   OH221461   4.951   1.555   2.400 -0.3574  0.2565 -0.0639
 7166TIP3    H121462   4.961   1.650   2.397 -0.5557  0.2398 -1.9655
 7166TIP3    H221463   4.954   1.534   2.494  0.6754  2.0139  0.3382
 7167TIP3   OH221464   2.686   1.700   2.153 -0.6633 -0.1053  0.3132
 7167TIP3    H121465   2.770   1.742   2.133 -1.3689  1.4898  0.6263
 7167TIP3    H221466   2.626   1.733   2.086 -0.5717 -3.1167 -1.4753
 7168TIP3   OH221467   3.227   3.577   0.384  0.0530 -0.0995  0.2081
 7168TIP3    H121468   3.228   3.520   0.307 -0.4502 -0.0936  0.1938
 7168TIP3    H221469   3.284   3.534   0.447  0.7174  0.0463 -0.2706
 7169TIP3   OH221470   3.924   0.384   2.761 -0.1736  0.7557  0.6317
 7169TIP3    H121471   3.851   0.405   2.703 -0.2681  1.2768  0.9425
 7169TIP3    H221472   3.889   0.316   2.819 -0.5914  1.4107  1.1537
 7170TIP3   OH221473   5.619   3.784   1.185 -0.5333  0.1932 -0.0742
 7170TIP3    H121474   5.595   3.768   1.094  0.7930  1.9784 -0.8097
 7170TIP3    H221475   5.686   3.719   1.204  0.1577  0.6477 -0.8625
 7171TIP3   OH221476   2.698   1.610   5.273  0.1262 -0.1290 -0.3626
 7171TIP3    H121477   2.628   1.548   5.294 -0.0365 -0.0052 -0.5427
 7171TIP3    H221478   2.752   1.612   5.352  1.7855 -2.6828 -1.2924
 7172TIP3   OH221479   3.480   6.048   4.433 -0.2787 -0.0055  0.4481
 7172TIP3    H121480   3.411   6.036   4.497  0.3750  0.0495  1.1818
 7172TIP3    H221481   3.549   6.095   4.480 -0.1064  0.7515 -0.5216
 7173TIP3   OH221482   5.152   6.104   1.142  0.3809 -0.1075 -1.0559
 7173TIP3    H121483   5.246   6.114   1.157  0.0863  0.4675  0.5820
 7173TIP3    H221484   5.145   6.088   1.047  2.2443 -1.8905 -0.9747
 7174TIP3   OH221485   3.763   6.760   1.074  0.1278 -0.1210 -0.9239
 7174TIP3    H121486   3.687   6.716   1.035 -1.0206 -1.0122  2.0330
 7174TIP3    H221487   3.797   6.815   1.003 -2.0495 -1.1876 -2.9785
 7175TIP3   OH221488   1.201   3.978   3.483  0.2382 -0.1914 -0.1169
 7175TIP3    H121489   1.238   3.938   3.562 -1.0622 -0.9549  0.1288
 7175TIP3    H221490   1.274   4.029   3.447  1.0078 -0.2137  1.2943
 7176TIP3   OH221491   6.311   4.066   0.096  0.0993 -0.5537 -0.8751
 7176TIP3    H121492   6.247   4.008   0.136 -0.4974  0.6612 -0.0031
 7176TIP3    H221493   6.261   4.117   0.032  0.8503 -1.7952 -2.5143
 7177TIP3   OH221494   1.405   4.765   0.743  0.2651  0.1701 -0.2960
 7177TIP3    H121495   1.498   4.745   0.750  0.5089  1.5516  0.6993
 7177TIP3    H221496   1.362   4.697   0.795  0.8043  0.2122  0.2099
 7178TIP3   OH221497   2.902   2.185   5.235 -0.5846  0.0278 -0.1861
 7178TIP3    H121498   2.916   2.134   5.315  0.7750 -0.6265 -0.8183
 7178TIP3    H221499   2.962   2.146   5.171 -1.2806  0.8728 -1.3818
 7179TIP3   OH221500   2.643   1.458   0.472 -0.1097  0.2140 -0.4283
 7179TIP3    H121501   2.625   1.365   0.462 -0.7916  0.1691  1.0100
 7179TIP3    H221502   2.601   1.482   0.555 -0.3319  1.8939 -0.9893
 7180TIP3   OH221503   1.328   0.780   4.877  0.8907  0.3260  0.0410
 7180TIP3    H121504   1.418   0.757   4.855  0.4435 -1.4171 -0.0630
 7180TIP3    H221505   1.280   0.698   4.874 -0.6946  1.2009  0.2286
 7181TIP3   OH221506   0.476   6.397   2.627 -0.5864  0.0177  0.3705
 7181TIP3    H121507   0.383   6.378   2.613 -0.3159 -0.5471 -0.7704
 7181TIP3    H221508   0.492   6.369   2.717 -0.7706 -3.1506 -0.4494
 7182TIP3   OH221509   5.818   5.491   0.833 -0.1145  0.0366 -0.1587
 7182TIP3    H121510   5.750   5.478   0.767  1.8765 -0.2309 -2.2648
 7182TIP3    H221511   5.790   5.568   0.883 -2.0680 -0.2446 -0.7637
 7183TIP3   OH221512   1.488   4.480   3.265  0.2990 -0.1533  0.0970
 7183TIP3    H121513   1.411   4.522   3.305  0.5357 -0.1270  0.5296
 7183TIP3    H221514   1.528   4.430   3.336  1.4937  0.9629  0.2472
 7184TIP3   OH221515   6.663   5.959   2.763  0.5332  0.1964 -0.0627
 7184TIP3    H121516   6.714   6.024   2.713  1.6616  0.7036  1.6724
 7184TIP3    H221517   6.728   5.914   2.817 -0.5659 -0.7985  0.4801
 7185TIP3   OH221518   5.700   6.028   0.760 -0.4035  0.1638 -0.8173
 7185TIP3    H121519   5.684   6.047   0.667 -0.0764  0.4102 -0.8259
 7185TIP3    H221520   5.691   6.112   0.804 -0.6042  0.0400 -0.6164
 7186TIP3   OH221521   5.479   0.419   4.488 -0.1010 -0.3594  0.0056
 7186TIP3    H121522   5.476   0.325   4.473 -2.3094 -0.1191 -1.5409
 7186TIP3    H221523   5.492   0.429   4.582 -1.3805 -2.2344  0.4239
 7187TIP3   OH221524   3.774   4.047   4.441  0.8271  0.3445 -0.1094
 7187TIP3    H121525   3.684   4.069   4.465  1.5076  1.6503  1.4054
 7187TIP3    H221526   3.769   4.026   4.348 -0.9141  1.1929 -0.2480
 7188TIP3   OH221527   4.950   5.503   1.419 -0.1052 -0.2175 -0.3964
 7188TIP3    H121528   5.044   5.487   1.425 -0.3018 -0.8254  1.9013
 7188TIP3    H221529   4.925   5.466   1.334  1.4915 -1.3215 -0.4319
 7189TIP3   OH221530   2.688   5.652   3.507 -0.6405  0.5184  0.1922
 7189TIP3    H121531   2.634   5.677   3.582 -0.3479 -1.9278  1.3395
 7189TIP3    H221532   2.771   5.695   3.521 -0.8135  0.6232  0.9333
 7190TIP3   OH221533   5.080   2.542   3.206  0.0867  0.5025  0.3513
 7190TIP3    H121534   5.176   2.540   3.209  0.1578  2.3922  0.4215
 7190TIP3    H221535   5.058   2.499   3.123  0.8923 -1.0871  0.9053
 7191TIP3   OH221536   4.791   4.029   5.200  0.1694  0.2824  0.4988
 7191TIP3    H121537   4.730   4.015   5.127 -1.2185  0.2619  1.6277
 7191TIP3    H221538   4.827   3.942   5.218 -0.1608  0.1263  0.4145
 7192TIP3   OH221539   5.521   0.239   5.588 -0.5704  0.0543 -0.1035
 7192TIP3    H121540   5.526   0.331   5.616 -0.7122 -0.5307  2.0203
 7192TIP3    H221541   5.595   0.196   5.631 -2.1148 -1.3535  1.3114
 7193TIP3   OH221542   1.646   2.576   5.273  0.8557 -0.0735  0.4261
 7193TIP3    H121543   1.706   2.502   5.264  0.3565 -0.4068 -0.2794
 7193TIP3    H221544   1.668   2.634   5.200  1.2531  0.4948  0.9811
 7194TIP3   OH221545   6.556   2.451   3.699  0.3378  0.2128 -0.2762
 7194TIP3    H121546   6.636   2.485   3.658  0.9081 -0.1007  0.5425
 7194TIP3    H221547   6.576   2.452   3.793 -0.1922 -0.9442 -0.1356
 7195TIP3   OH221548   4.192   0.500   0.605 -0.2781  0.0701 -0.0829
 7195TIP3    H121549   4.182   0.519   0.512  0.2923 -1.2987 -0.4561
 7195TIP3    H221550   4.279   0.459   0.612  0.2608  1.3404  1.2611
 7196TIP3   OH221551   3.884   1.701   4.987  0.0742  0.4914  0.1706
 7196TIP3    H121552   3.970   1.688   4.945 -0.3647  0.9575 -0.9253
 7196TIP3    H221553   3.893   1.661   5.073  0.2618 -2.8811 -1.2430
 7197TIP3   OH221554   0.692   3.190   0.797 -0.0931 -0.1719  0.3905
 7197TIP3    H121555   0.708   3.277   0.761 -1.0010 -0.0268  0.3124
 7197TIP3    H221556   0.732   3.192   0.884 -0.7053  0.5583  0.6631
 7198TIP3   OH221557   7.007   4.344   2.504  1.1862  0.0492 -0.2641
 7198TIP3    H121558   6.913   4.334   2.491  1.1312  0.5430 -0.2502
 7198TIP3    H221559   7.042   4.362   2.417  0.8541  3.0545  0.1244
 7199TIP3   OH221560   4.224   4.483   2.775 -0.2012  0.6889 -0.8635
 7199TIP3    H121561   4.296   4.515   2.720  1.6011  0.8672  1.4517
 7199TIP3    H221562   4.181   4.562   2.807 -0.1435  0.6231 -0.6248
 7200TIP3   OH221563   6.080   1.962   3.906 -0.2157 -0.6958 -0.3057
 7200TIP3    H121564   6.106   1.960   3.814 -1.3274  1.9707 -0.7691
 7200TIP3    H221565   5.994   1.921   3.907 -0.2744 -0.5763 -0.4673
 7201TIP3   OH221566   3.194   2.184   3.021 -0.7543  0.6851  0.1688
 7201TIP3    H121567   3.237   2.192   2.936 -0.6051  0.7035  0.2445
 7201TIP3    H221568   3.119   2.127   3.005 -0.1104 -0.2136  0.2450
 7202TIP3   OH221569   2.689   3.259   4.973 -0.2025  0.2891  0.2030
 7202TIP3    H121570   2.695   3.355   4.968  1.5124  0.1659 -1.0640
 7202TIP3    H221571   2.746   3.235   5.046 -0.5303  0.2244  0.4377
 7203TIP3   OH221572   3.797   2.312   4.117 -0.1245  0.1656 -0.1402
 7203TIP3    H121573   3.750   2.390   4.146  0.0816 -0.0337  0.7893
 7203TIP3    H221574   3.740   2.271   4.053 -1.5206 -0.3961  1.4031
 7204TIP3   OH221575   6.944   6.770   2.798  0.2112 -0.3535 -0.0710
 7204TIP3    H121576   6.850   6.785   2.783  0.5212  0.4997 -1.3369
 7204TIP3    H221577   6.949   6.681   2.832 -1.0870 -0.2861  0.3473
 7205TIP3   OH221578   4.292   4.064   2.860  0.2056 -0.0071  0.0980
 7205TIP3    H121579   4.281   3.987   2.916 -2.2400 -1.2238 -1.8330
 7205TIP3    H221580   4.322   4.029   2.776 -0.5469  1.1745 -0.6973
 7206TIP3   OH221581   1.519   5.468   4.907  0.1505  0.4536 -0.2933
 7206TIP3    H121582   1.453   5.401   4.892  0.7967 -0.3843  0.5061
 7206TIP3    H221583   1.475   5.532   4.963 -0.6320  0.9901 -1.4827
 7207TIP3   OH221584   3.717   4.790   0.475  0.1896 -0.1313 -0.4595
 7207TIP3    H121585   3.789   4.845   0.505 -0.5242  1.3969 -1.3961
 7207TIP3    H221586   3.642   4.815   0.529  0.0032 -0.6801 -0.4493
 7208TIP3   OH221587   2.696   6.329   2.099  0.0850  0.5064 -0.1497
 7208TIP3    H121588   2.608   6.330   2.060 -0.2162  0.8518  0.5219
 7208TIP3    H221589   2.743   6.262   2.049 -0.9586 -0.6272  0.3402
 7209TIP3   OH221590   6.537   5.438   3.533  0.7050 -0.2776  0.2123
 7209TIP3    H121591   6.613   5.402   3.579  0.2379 -0.1714  1.0695
 7209TIP3    H221592   6.561   5.431   3.440  1.5602 -0.6950  0.4506
 7210TIP3   OH221593   5.027   5.695   0.326  0.2895 -0.7785  0.1339
 7210TIP3    H121594   4.973   5.740   0.261  0.1997 -1.0380  0.0279
 7210TIP3    H221595   5.116   5.700   0.290  0.1363 -1.5711 -0.3806
 7211TIP3   OH221596   2.754   3.203   2.380 -0.1609 -0.3469  0.0016
 7211TIP3    H121597   2.770   3.224   2.472  1.1213  1.1556 -0.5177
 7211TIP3    H221598   2.658   3.203   2.371 -0.2857 -0.2089  1.2534
 7212TIP3   OH221599   6.629   5.844   5.459 -0.4558  0.3272 -0.0290
 7212TIP3    H121600   6.599   5.914   5.400 -3.1130  0.2926  1.1185
 7212TIP3    H221601   6.615   5.763   5.410 -1.7349  0.3585  0.2499
 7213TIP3   OH221602   6.018   1.484   0.741  0.3853 -0.4843 -0.8962
 7213TIP3    H121603   5.986   1.417   0.801 -0.4257 -1.6908 -2.5903
 7213TIP3    H221604   6.097   1.518   0.783  0.3388 -1.8958  0.4155
 7214TIP3   OH221605   2.303   5.476   3.157 -0.2165 -1.1047 -0.0697
 7214TIP3    H121606   2.380   5.511   3.203 -0.7667 -1.1728  0.9326
 7214TIP3    H221607   2.338   5.441   3.076  0.4713  1.1698 -0.8431
 7215TIP3   OH221608   6.857   3.095   4.029  0.1467  0.6257 -0.1125
 7215TIP3    H121609   6.904   3.167   3.987  0.0673  0.0096 -1.2805
 7215TIP3    H221610   6.924   3.051   4.082  0.4364  0.9194 -0.2265
 7216TIP3   OH221611   0.251   2.955   1.414  0.2423 -0.1181  0.6620
 7216TIP3    H121612   0.247   2.876   1.467 -1.4865 -0.5324 -0.0061
 7216TIP3    H221613   0.344   2.969   1.397  0.7834 -0.5232  2.9250
 7217TIP3   OH221614   2.575   5.567   0.057  0.2485  0.0952  0.6871
 7217TIP3    H121615   2.532   5.558   0.142  0.8062  0.2030  0.9842
 7217TIP3    H221616   2.579   5.478   0.023 -1.5565  0.2413 -0.0265
 7218TIP3   OH221617   3.272   1.925   5.572  0.4559 -0.1292  0.5017
 7218TIP3    H121618   3.234   1.985   5.508 -0.2780 -0.3987  0.6852
 7218TIP3    H221619   3.363   1.916   5.545  0.0290 -0.6684 -0.8227
 7219TIP3   OH221620   1.208   2.862   4.568  0.7745  0.6141  0.3639
 7219TIP3    H121621   1.153   2.798   4.614  0.5238  1.8555  1.8795
 7219TIP3    H221622   1.298   2.837   4.590  0.7184  0.2229  0.1547
 7220TIP3   OH221623   5.792   3.999   4.699 -0.1360 -0.1345  0.2297
 7220TIP3    H121624   5.821   3.908   4.708 -1.1007 -0.8104 -2.6215
 7220TIP3    H221625   5.873   4.050   4.700  0.4281 -0.9969  1.6913
 7221TIP3   OH221626   0.248   0.162   5.366  0.1949  0.6384 -0.2677
 7221TIP3    H121627   0.170   0.193   5.413 -0.1310 -1.1258  0.4528
 7221TIP3    H221628   0.213   0.109   5.294  0.7146  0.1983 -0.2022
 7222TIP3   OH221629   6.601   2.123   4.128  0.9923 -0.3691  0.0166
 7222TIP3    H121630   6.695   2.143   4.132  0.6601  1.3397 -0.0046
 7222TIP3    H221631   6.578   2.100   4.218  1.2404  0.2075  0.2315
 7223TIP3   OH221632   4.553   3.463   2.545 -0.1618 -0.4316 -0.2963
 7223TIP3    H121633   4.574   3.457   2.452  1.4923 -0.5960  0.0607
 7223TIP3    H221634   4.469   3.417   2.554 -0.4959 -0.1431 -1.7340
 7224TIP3   OH221635   5.007   6.388   1.217 -0.1325  0.3251 -0.3714
 7224TIP3    H121636   5.073   6.338   1.169 -0.7145 -1.0723  0.2128
 7224TIP3    H221637   4.926   6.339   1.204 -0.0785 -0.9513  3.0770
 7225TIP3   OH221638   3.056   6.291   1.700 -0.3980 -0.5132  0.0216
 7225TIP3    H121639   3.119   6.331   1.759 -1.4943  0.6092  0.4852
 7225TIP3    H221640   3.107   6.230   1.647  0.9222 -0.1871  0.8798
 7226TIP3   OH221641   0.873   5.266   1.671  0.2021 -0.0114  0.5124
 7226TIP3    H121642   0.915   5.324   1.607  0.3997 -0.2808  0.3985
 7226TIP3    H221643   0.824   5.326   1.727 -1.0080  0.1421 -0.6437
 7227TIP3   OH221644   3.431   2.024   4.188  0.2735 -0.4027  0.2005
 7227TIP3    H121645   3.516   2.066   4.177 -0.0101  0.3823  0.9018
 7227TIP3    H221646   3.444   1.962   4.259 -0.0492  0.6513  1.2109
 7228TIP3   OH221647   0.349   1.839   4.600  0.6521  0.0467 -0.0481
 7228TIP3    H121648   0.412   1.865   4.533  0.8251  0.3737  0.2469
 7228TIP3    H221649   0.382   1.755   4.632 -0.0407 -0.6826 -1.1725
 7229TIP3   OH221650   6.096   6.131   4.953  0.0266  0.1214  0.4048
 7229TIP3    H121651   6.126   6.155   5.041 -0.0952 -2.1198  1.1078
 7229TIP3    H221652   6.028   6.065   4.968 -0.9341  0.6408 -1.3631
 7230TIP3   OH221653   4.599   5.238   5.386  0.1049  0.3668  0.2722
 7230TIP3    H121654   4.513   5.245   5.344  0.4585 -0.0574 -0.5575
 7230TIP3    H221655   4.605   5.146   5.413  0.5947  0.2118 -0.3478
 7231TIP3   OH221656   3.420   2.757   0.726  0.7401 -0.0950  0.2900
 7231TIP3    H121657   3.337   2.733   0.768 -0.4073 -0.3752 -1.9675
 7231TIP3    H221658   3.412   2.851   0.710  0.5540 -0.2320 -0.4838
 7232TIP3   OH221659   2.857   3.005   5.397 -0.4243 -0.3146 -0.4545
 7232TIP3    H121660   2.942   3.047   5.409 -0.4541 -0.0166 -1.1963
 7232TIP3    H221661   2.875   2.933   5.336 -0.3834 -1.3621  0.7650
 7233TIP3   OH221662   4.678   6.418   0.501 -0.3002 -0.4049  0.2347
 7233TIP3    H121663   4.595   6.435   0.458  0.1325 -0.2132 -0.5372
 7233TIP3    H221664   4.682   6.481   0.573 -0.1472  0.6362 -0.6565
 7234TIP3   OH221665   7.047   0.703   3.946 -0.0933  0.3588 -1.0947
 7234TIP3    H121666   6.960   0.672   3.921 -0.5934  0.4116  0.4888
 7234TIP3    H221667   7.054   0.790   3.905 -1.6154  1.2225  0.3614
 7235TIP3   OH221668   1.640   3.221   4.776  0.4882  0.1091 -0.3994
 7235TIP3    H121669   1.670   3.303   4.736  0.9548  0.4222  0.5336
 7235TIP3    H221670   1.590   3.177   4.708 -2.1793  2.4532 -0.1350
 7236TIP3   OH221671   5.226   4.249   3.776  0.1150  0.1252  0.0968
 7236TIP3    H121672   5.200   4.161   3.748 -1.5132  0.2779  1.0017
 7236TIP3    H221673   5.277   4.234   3.856 -1.9657  0.0362  1.4961
 7237TIP3   OH221674   4.976   0.746   1.357 -0.3462 -0.1267  0.0756
 7237TIP3    H121675   5.044   0.809   1.329  0.0954 -0.1992  0.9441
 7237TIP3    H221676   4.898   0.800   1.368 -0.3067  0.0462 -0.4689
 7238TIP3   OH221677   2.037   4.343   3.960 -0.5627  0.1267  0.0287
 7238TIP3    H121678   1.999   4.393   3.889 -1.2425 -3.1441 -2.1072
 7238TIP3    H221679   1.993   4.259   3.958  1.7168 -1.2998  2.2070
 7239TIP3   OH221680   3.834   6.449   3.380 -0.4059  0.1587  0.3647
 7239TIP3    H121681   3.789   6.510   3.321 -1.0537 -0.8470 -0.2173
 7239TIP3    H221682   3.778   6.371   3.380 -0.7707  0.3406  2.8196
 7240TIP3   OH221683   2.355   6.170   3.738 -0.0654 -0.2113  0.7192
 7240TIP3    H121684   2.377   6.245   3.682  0.7837 -0.4860  0.6764
 7240TIP3    H221685   2.431   6.112   3.732 -0.1480 -0.4575  1.7937
 7241TIP3   OH221686   0.783   1.050   4.154  0.1084 -0.4221 -0.1370
 7241TIP3    H121687   0.828   1.052   4.070 -0.0217 -0.4459 -0.2082
 7241TIP3    H221688   0.792   0.959   4.185 -0.4239 -0.5824 -0.4451
 7242TIP3   OH221689   0.659   3.724   3.572  0.6613  1.1077  0.2312
 7242TIP3    H121690   0.734   3.732   3.631  2.2177 -2.5428 -0.9387
 7242TIP3    H221691   0.593   3.676   3.623  1.3732 -0.6043 -0.3947
 7243TIP3   OH221692   5.776   1.949   4.857  0.5509  0.5139 -0.1251
 7243TIP3    H121693   5.753   1.927   4.947 -0.0574  0.6764 -0.2376
 7243TIP3    H221694   5.704   1.914   4.805  1.3584 -0.4565 -0.6520
 7244TIP3   OH221695   1.748   6.565   0.356 -0.2040 -0.4358 -0.0607
 7244TIP3    H121696   1.805   6.612   0.418  2.0500 -0.9495 -1.6169
 7244TIP3    H221697   1.714   6.634   0.298  0.9817 -0.3696 -0.7164
 7245TIP3   OH221698   0.503   2.823   4.229 -0.3238 -0.1320 -0.7650
 7245TIP3    H121699   0.571   2.794   4.168 -0.7099 -3.0209  0.0261
 7245TIP3    H221700   0.551   2.859   4.303  0.2217  0.3955 -1.3587
 7246TIP3   OH221701   0.940   1.506   0.160 -0.2916  0.4896  0.3104
 7246TIP3    H121702   0.925   1.596   0.131 -0.9260  0.3113  0.0576
 7246TIP3    H221703   0.852   1.471   0.173 -0.0280  0.3214  1.7111
 7247TIP3   OH221704   7.151   5.636   1.647  0.0075 -0.0324  0.1172
 7247TIP3    H121705   7.085   5.574   1.616  0.2248  0.1272 -0.6845
 7247TIP3    H221706   7.174   5.604   1.734 -0.6382 -0.4759  0.1372
 7248TIP3   OH221707   6.723   0.174   1.960 -0.2728 -0.1461  0.8415
 7248TIP3    H121708   6.717   0.080   1.945  2.7706 -0.5152  1.4390
 7248TIP3    H221709   6.716   0.213   1.872  1.9931 -1.2310  0.1125
 7249TIP3   OH221710   2.958   5.057   0.578  0.1823 -0.1171 -0.5137
 7249TIP3    H121711   2.896   5.070   0.650 -1.7181 -1.0695 -1.8860
 7249TIP3    H221712   3.037   5.104   0.606 -0.4555 -0.4586  2.1626
 7250TIP3   OH221713   6.169   1.518   1.444 -0.4298  0.4944 -0.2448
 7250TIP3    H121714   6.074   1.526   1.449 -0.3495  1.5406 -0.3030
 7250TIP3    H221715   6.192   1.455   1.513 -1.3211 -1.1977 -1.4196
 7251TIP3   OH221716   6.557   2.404   3.968 -0.0527 -0.7230  0.3805
 7251TIP3    H121717   6.524   2.314   3.962 -0.3318 -0.6056  0.1654
 7251TIP3    H221718   6.481   2.456   3.994 -0.1951 -0.3542 -0.7254
 7252TIP3   OH221719   0.136   1.579   1.760  0.1646 -0.0440  0.2282
 7252TIP3    H121720   0.089   1.647   1.712  0.5724  0.8639  1.0862
 7252TIP3    H221721   0.067   1.524   1.798 -0.2177  0.9253  0.9808
 7253TIP3   OH221722   7.068   4.397   1.837  0.6103  0.1317 -0.0966
 7253TIP3    H121723   7.052   4.387   1.744  0.7833  0.6550 -0.1869
 7253TIP3    H221724   7.130   4.328   1.859 -0.3861 -0.8024 -0.1054
 7254TIP3   OH221725   2.814   6.733   4.445 -0.2098 -0.4097  0.5578
 7254TIP3    H121726   2.758   6.774   4.511  0.4009 -0.3880  1.0692
 7254TIP3    H221727   2.753   6.699   4.379 -0.8011 -0.0666  0.9247
 7255TIP3   OH221728   0.806   5.207   2.671  0.0042 -0.0446 -0.6402
 7255TIP3    H121729   0.829   5.281   2.726 -1.2611 -0.2327  0.1781
 7255TIP3    H221730   0.710   5.205   2.672  0.0088 -1.6342 -0.7133
 7256TIP3   OH221731   7.155   0.199   1.834 -0.0724  0.2414 -0.0034
 7256TIP3    H121732   7.129   0.133   1.898  3.0587 -0.1734  1.0107
 7256TIP3    H221733   7.131   0.161   1.749  0.4599 -1.6165  0.6337
 7257TIP3   OH221734   6.407   5.159   5.859 -0.1184  0.2693  0.5918
 7257TIP3    H121735   6.402   5.171   5.953 -1.2783 -0.5318  0.6393
 7257TIP3    H221736   6.487   5.108   5.846  0.1442  0.5389  1.1124
 7258TIP3   OH221737   5.730   5.738   4.646 -0.5003  0.0550 -0.0557
 7258TIP3    H121738   5.638   5.751   4.623 -0.6718  1.1843  1.1704
 7258TIP3    H221739   5.744   5.644   4.636 -1.3921  0.0437 -1.5918
 7259TIP3   OH221740   3.306   2.113   4.724  0.4415 -0.0905 -0.3087
 7259TIP3    H121741   3.248   2.038   4.712 -0.2274  0.0028  1.9741
 7259TIP3    H221742   3.281   2.150   4.808  1.8264  1.7727 -0.6512
 7260TIP3   OH221743   0.597   4.296   3.254  0.1232  0.0699  0.0471
 7260TIP3    H121744   0.688   4.322   3.272  0.6105 -1.3155 -0.3352
 7260TIP3    H221745   0.554   4.304   3.339  0.7130  0.2733  0.3396
 7261TIP3   OH221746   7.161   1.093   4.389 -0.3231  0.7075  0.2702
 7261TIP3    H121747   7.123   1.024   4.335  1.9448  0.7331 -1.4855
 7261TIP3    H221748   7.137   1.175   4.344  3.0105  0.6737 -1.9369
 7262TIP3   OH221749   4.315   0.287   4.888 -0.1268 -0.4218  0.2829
 7262TIP3    H121750   4.372   0.213   4.869  0.9516  0.2751  0.6983
 7262TIP3    H221751   4.297   0.280   4.982  0.2509  0.0081  0.3946
 7263TIP3   OH221752   3.930   0.803   0.730  0.1745  0.2049 -0.5322
 7263TIP3    H121753   3.880   0.880   0.757  0.8399  0.5270 -0.1736
 7263TIP3    H221754   4.001   0.797   0.794 -1.4929 -2.4684  1.2530
 7264TIP3   OH221755   5.052   2.230   3.357 -0.3001  0.3271 -0.5496
 7264TIP3    H121756   5.106   2.235   3.279  1.7694 -3.1907  0.4093
 7264TIP3    H221757   5.115   2.236   3.430 -1.9326  1.6788  0.8234
 7265TIP3   OH221758   2.328   0.571   4.807 -0.2627 -0.1597 -0.3251
 7265TIP3    H121759   2.237   0.602   4.805 -0.1324  0.1842 -2.1528
 7265TIP3    H221760   2.375   0.631   4.748  0.5217 -2.2226 -1.9022
 7266TIP3   OH221761   5.115   5.570   0.578 -0.2222  0.0334  0.1941
 7266TIP3    H121762   5.079   5.593   0.493  0.8313  1.3712  0.0745
 7266TIP3    H221763   5.051   5.602   0.641  0.6151  2.3020 -0.0180
 7267TIP3   OH221764   5.458   4.670   4.946 -0.1632 -0.1715  0.0453
 7267TIP3    H121765   5.520   4.650   5.016 -0.4020 -2.2732 -0.2647
 7267TIP3    H221766   5.514   4.697   4.872  0.1954  0.3700  0.5064
 7268TIP3   OH221767   5.074   0.515   3.553 -0.2015  0.0574 -0.3961
 7268TIP3    H121768   5.096   0.518   3.646 -0.5462 -0.0475 -0.3080
 7268TIP3    H221769   5.085   0.605   3.522 -0.6034  0.2016 -0.1282
 7269TIP3   OH221770   5.387   6.083   3.047  0.1108 -0.0898  0.0379
 7269TIP3    H121771   5.372   6.131   3.129 -1.5069  0.0425 -0.2936
 7269TIP3    H221772   5.398   5.992   3.074  1.5856  0.2084  0.5418
 7270TIP3   OH221773   6.657   6.478   5.477 -0.0638  0.1358 -0.1057
 7270TIP3    H121774   6.715   6.516   5.411 -0.1469 -1.0637 -0.8981
 7270TIP3    H221775   6.716   6.429   5.535 -0.0084  1.0667  0.6647
 7271TIP3   OH221776   5.586   4.799   1.616  0.4135  0.0851 -0.7947
 7271TIP3    H121777   5.620   4.871   1.563 -2.8340  4.2145  2.0647
 7271TIP3    H221778   5.509   4.769   1.568 -0.1678  0.9465 -0.4188
 7272TIP3   OH221779   6.630   0.080   2.711  0.4964 -0.2948  0.4042
 7272TIP3    H121780   6.682  -0.000   2.718  0.9788 -0.0299 -0.1685
 7272TIP3    H221781   6.567   0.061   2.642  0.1075 -0.4520  0.7931
 7273TIP3   OH221782   1.578   5.872   1.302  0.3710  0.1672  0.4145
 7273TIP3    H121783   1.564   5.779   1.285  1.8993  0.1556 -1.1232
 7273TIP3    H221784   1.494   5.914   1.282 -0.7043 -0.9717  2.3150
 7274TIP3   OH221785   3.944   2.526   3.327  0.4510 -0.1211  0.4118
 7274TIP3    H121786   3.869   2.530   3.386  1.9197 -2.1435  2.6067
 7274TIP3    H221787   3.947   2.436   3.297  1.9559 -0.0868  0.3545
 7275TIP3   OH221788   2.162   0.341   4.508  0.8403 -0.5352  0.0198
 7275TIP3    H121789   2.236   0.354   4.449  0.7190 -1.9903 -0.4936
 7275TIP3    H221790   2.173   0.408   4.575  0.1805  2.2398 -2.3937
 7276TIP3   OH221791   5.919   2.394   3.033  0.2454 -0.7574 -0.4254
 7276TIP3    H121792   6.012   2.401   3.057 -0.3543  0.6515  1.9042
 7276TIP3    H221793   5.895   2.305   3.056  1.0903 -1.2640 -1.4327
 7277TIP3   OH221794   1.141   4.775   3.264 -0.1654 -0.1572 -0.5807
 7277TIP3    H121795   1.101   4.774   3.177  1.9254 -0.4298 -1.5896
 7277TIP3    H221796   1.088   4.837   3.313 -2.7513 -1.5754 -1.3296
 7278TIP3   OH221797   2.496   3.954   5.475  0.3238 -0.0290  0.0444
 7278TIP3    H121798   2.538   4.034   5.445 -0.4289  0.4412  0.2216
 7278TIP3    H221799   2.500   3.895   5.399  1.3971 -0.0464  0.0984
 7279TIP3   OH221800   2.575   1.583   2.381  0.0728 -0.1824  0.1031
 7279TIP3    H121801   2.506   1.639   2.417 -0.6999 -1.7344  1.1477
 7279TIP3    H221802   2.618   1.637   2.315  0.2052  2.0874  1.9226
 7280TIP3   OH221803   0.858   6.486   2.886 -0.1721  0.0088  0.1882
 7280TIP3    H121804   0.774   6.522   2.913 -0.2846 -0.1126  0.0046
 7280TIP3    H221805   0.874   6.525   2.800  0.0876  0.2393  0.3383
 7281TIP3   OH221806   0.532   4.294   3.519 -0.1390  0.0159  0.4500
 7281TIP3    H121807   0.459   4.348   3.547 -0.9912 -1.9320  2.2501
 7281TIP3    H221808   0.570   4.261   3.600  0.9966 -1.2372 -0.5415
 7282TIP3   OH221809   4.581   5.019   4.312 -0.3465  0.4490 -0.0071
 7282TIP3    H121810   4.511   5.080   4.333 -0.5906  0.3774 -0.5895
 7282TIP3    H221811   4.591   4.966   4.392 -0.8205  0.5845  0.1460
 7283TIP3   OH221812   6.650   2.898   2.575  0.2187 -0.0079 -0.2967
 7283TIP3    H121813   6.690   2.828   2.523 -0.6364  0.0334 -1.0275
 7283TIP3    H221814   6.606   2.853   2.647 -0.5837 -0.2633 -0.9323
 7284TIP3   OH221815   4.047   0.215   2.361 -0.1651 -0.1647 -0.5888
 7284TIP3    H121816   3.991   0.277   2.314  0.2556  0.7086  0.0305
 7284TIP3    H221817   4.083   0.266   2.434 -0.8266 -1.4952  0.7153
 7285TIP3   OH221818   2.156   4.858   2.945 -0.3836  0.0561 -0.1462
 7285TIP3    H121819   2.075   4.861   2.894 -0.8876 -1.3516  0.4995
 7285TIP3    H221820   2.144   4.924   3.013 -0.5172  0.6088 -0.6989
 7286TIP3   OH221821   7.098   5.613   5.860  0.3222  0.0751  0.1547
 7286TIP3    H121822   7.062   5.579   5.778 -1.0294  1.2107  0.2292
 7286TIP3    H221823   7.079   5.546   5.925  1.6777 -0.9777 -0.4657
 7287TIP3   OH221824   2.513   6.233   4.240  0.0528  0.3676 -0.2873
 7287TIP3    H121825   2.422   6.261   4.234  0.9171  3.3367 -0.8877
 7287TIP3    H221826   2.537   6.210   4.150 -0.0156 -0.3031 -0.1468
 7288TIP3   OH221827   6.158   1.145   1.427 -0.1259  0.0716 -0.2070
 7288TIP3    H121828   6.239   1.103   1.397 -0.4403  0.3260 -1.4435
 7288TIP3    H221829   6.121   1.083   1.489  0.6615 -0.3639 -0.1560
 7289TIP3   OH221830   1.714   6.066   1.142  0.6197 -0.3875  0.3059
 7289TIP3    H121831   1.672   6.016   1.211  2.4896 -0.1051  1.7423
 7289TIP3    H221832   1.773   6.003   1.100 -0.6973 -0.6293 -1.2780
 7290TIP3   OH221833   5.316   3.861   1.190  0.5249  0.5203 -0.2738
 7290TIP3    H121834   5.399   3.821   1.214  0.1797  0.7733  1.5331
 7290TIP3    H221835   5.330   3.955   1.204  0.4998  0.7741 -1.8127
 7291TIP3   OH221836   3.828   1.685   2.481 -1.0299 -0.2591 -0.0464
 7291TIP3    H121837   3.872   1.770   2.474  1.7511 -1.6564 -0.9117
 7291TIP3    H221838   3.735   1.706   2.473 -0.3725  2.5665 -1.7007
 7292TIP3   OH221839   2.902   5.996   3.570 -0.3383  0.0328  0.5472
 7292TIP3    H121840   2.984   6.025   3.530  0.0931  0.3028  1.6000
 7292TIP3    H221841   2.919   5.906   3.598 -1.6517 -1.3501 -2.6412
 7293TIP3   OH221842   2.493   1.876   2.747  0.9686  0.2324  0.5157
 7293TIP3    H121843   2.427   1.826   2.700  1.3159 -0.2351  0.5174
 7293TIP3    H221844   2.471   1.967   2.729  0.5448  0.0751  0.2139
 7294TIP3   OH221845   0.160   5.503   5.088  0.2347 -0.1170  0.2789
 7294TIP3    H121846   0.068   5.504   5.061  0.0366  0.2052  0.9390
 7294TIP3    H221847   0.163   5.435   5.156  0.2631  0.5717  0.9791
 7295TIP3   OH221848   0.985   4.465   3.063  0.1396 -0.8078  0.1178
 7295TIP3    H121849   1.057   4.526   3.077 -0.8988  0.4387  0.3089
 7295TIP3    H221850   0.972   4.424   3.148  1.1620 -1.6844 -0.1333
 7296TIP3   OH221851   6.376   0.577   1.695  0.5904  0.3511 -0.1196
 7296TIP3    H121852   6.349   0.549   1.607  1.5881  0.7696 -0.5835
 7296TIP3    H221853   6.422   0.501   1.730 -0.8436 -0.2411  0.5354
 7297TIP3   OH221854   0.751   6.628   3.567 -0.1403  0.0716  0.1674
 7297TIP3    H121855   0.691   6.555   3.573 -0.2423  0.1790  0.5067
 7297TIP3    H221856   0.726   6.686   3.640 -1.9059  1.8407 -1.7040
 7298TIP3   OH221857   0.686   1.245   2.802  0.1713 -0.6248 -0.8112
 7298TIP3    H121858   0.780   1.229   2.807  0.1011 -1.2075 -1.2487
 7298TIP3    H221859   0.646   1.167   2.842 -0.1292 -0.3799 -0.6251
 7299TIP3   OH221860   5.633   1.486   5.100 -0.4355 -0.3788  0.1921
 7299TIP3    H121861   5.590   1.413   5.143  0.3680 -0.5051  0.8086
 7299TIP3    H221862   5.669   1.448   5.019  1.5451 -1.1555  1.3560
 7300TIP3   OH221863   4.240   5.241   3.132  0.3496  0.2079 -0.4009
 7300TIP3    H121864   4.317   5.185   3.141 -0.9077 -1.6356 -0.5145
 7300TIP3    H221865   4.173   5.198   3.186 -1.1473  0.6630 -1.8103
 7301TIP3   OH221866   1.433   5.318   2.236 -0.1906 -0.0154 -0.0378
 7301TIP3    H121867   1.341   5.331   2.258 -0.3851 -0.2723 -0.6716
 7301TIP3    H221868   1.480   5.379   2.292 -0.6874 -0.4497  0.8674
 7302TIP3   OH221869   6.245   3.117   4.745  0.1442 -0.3490 -0.0242
 7302TIP3    H121870   6.237   3.040   4.801 -2.8629 -0.6406 -0.6749
 7302TIP3    H221871   6.295   3.087   4.669  0.5691 -1.1268  0.5550
 7303TIP3   OH221872   6.828   1.656   4.935 -0.0446 -0.6067  0.1611
 7303TIP3    H121873   6.881   1.723   4.978  0.0708 -0.1183 -0.7124
 7303TIP3    H221874   6.808   1.593   5.004 -0.4960  0.5286  1.1095
 7304TIP3   OH221875   4.458   2.939   3.903  0.1583 -0.0999  0.6179
 7304TIP3    H121876   4.442   3.004   3.971 -0.0246 -0.2954  0.7650
 7304TIP3    H221877   4.535   2.971   3.855 -1.0736  1.2250 -0.5467
 7305TIP3   OH221878   6.207   1.530   3.116  0.9702 -0.2936 -0.5282
 7305TIP3    H121879   6.222   1.624   3.111  1.7588 -0.3672  0.1109
 7305TIP3    H221880   6.275   1.498   3.176  0.1695 -1.1397 -0.0381
 7306TIP3   OH221881   4.767   1.405   1.582 -0.4482 -0.2021 -0.4570
 7306TIP3    H121882   4.710   1.371   1.651  0.5997 -0.1293  0.4884
 7306TIP3    H221883   4.772   1.499   1.599 -0.1897 -0.1841 -0.6302
 7307TIP3   OH221884   5.142   5.136   4.945 -0.3558 -0.2085  0.3267
 7307TIP3    H121885   5.211   5.071   4.931 -0.0037  0.4161 -0.9768
 7307TIP3    H221886   5.138   5.185   4.863 -2.0068  0.1065  0.5646
 7308TIP3   OH221887   2.779   3.337   2.627  0.2353 -0.2926 -0.2164
 7308TIP3    H121888   2.701   3.296   2.663 -2.1856  1.8895 -2.5530
 7308TIP3    H221889   2.810   3.396   2.696 -0.1989 -1.1265  0.7067
 7309TIP3   OH221890   3.698   1.170   3.453  0.0744 -0.2924 -0.4073
 7309TIP3    H121891   3.747   1.147   3.374 -0.5290  0.8407 -1.1234
 7309TIP3    H221892   3.646   1.093   3.472  1.7686 -1.3749  0.1198
 7310TIP3   OH221893   1.197   1.805   3.808 -0.0872 -0.1481 -0.2891
 7310TIP3    H121894   1.114   1.758   3.811 -0.1232 -0.0735 -0.0892
 7310TIP3    H221895   1.256   1.747   3.761 -0.4180  0.0569 -0.9843
 7311TIP3   OH221896   4.294   5.216   1.548 -0.0025  0.2728 -0.2481
 7311TIP3    H121897   4.353   5.251   1.481 -0.5129  0.9583 -0.3382
 7311TIP3    H221898   4.215   5.269   1.542 -0.3906 -0.2257  0.3108
 7312TIP3   OH221899   2.437   4.885   5.739  0.7143  0.0334 -0.8649
 7312TIP3    H121900   2.508   4.915   5.796 -0.4611 -0.0861  0.7264
 7312TIP3    H221901   2.378   4.960   5.733 -1.3084 -1.1890  1.6320
 7313TIP3   OH221902   1.320   4.556   1.270  0.4558  0.3598 -0.4471
 7313TIP3    H121903   1.243   4.610   1.251 -0.3001 -0.4623  0.2170
 7313TIP3    H221904   1.393   4.618   1.274 -0.4396  1.3800  0.6029
 7314TIP3   OH221905   6.128   6.588   0.583  0.3352  0.4596 -0.0485
 7314TIP3    H121906   6.121   6.620   0.673 -0.4426 -0.8243  0.3791
 7314TIP3    H221907   6.206   6.531   0.584 -0.5348 -0.7797  0.2474
 7315TIP3   OH221908   4.618   6.704   3.169 -0.2396  0.0437 -0.4340
 7315TIP3    H121909   4.536   6.726   3.125  0.2279 -0.2730 -1.4969
 7315TIP3    H221910   4.658   6.789   3.190 -1.1933  0.2143  0.8273
 7316TIP3   OH221911   1.076   1.937   5.095 -0.3322  0.0540 -0.8376
 7316TIP3    H121912   1.100   2.027   5.074  0.2754  0.1955  0.3437
 7316TIP3    H221913   1.137   1.911   5.164 -1.0478 -0.9720 -0.5555
 7317TIP3   OH221914   3.891   5.801   2.891  0.4914 -0.2752  0.4679
 7317TIP3    H121915   3.797   5.818   2.891  0.4378 -0.5485  1.0508
 7317TIP3    H221916   3.917   5.806   2.983  0.8793 -1.0594  0.4160
 7318TIP3   OH221917   3.321   5.997   2.549 -0.3403  0.0384 -0.3613
 7318TIP3    H121918   3.273   5.915   2.545 -0.9074  0.2939  0.7937
 7318TIP3    H221919   3.365   6.004   2.464  3.1289 -3.4752  0.8196
 7319TIP3   OH221920   5.939   4.669   5.056  1.3751  0.0634 -0.4048
 7319TIP3    H121921   5.944   4.584   5.098  0.4564  0.5281  0.6984
 7319TIP3    H221922   5.945   4.650   4.962 -1.3941 -1.5210 -0.3620
 7320TIP3   OH221923   1.837   2.171   3.688 -0.2854 -0.2481  0.1690
 7320TIP3    H121924   1.881   2.087   3.698 -1.9690 -1.1344  0.3645
 7320TIP3    H221925   1.843   2.191   3.595  0.2376 -0.4876  0.1452
 7321TIP3   OH221926   2.893   1.683   1.112  0.5308  0.5402  0.8259
 7321TIP3    H121927   2.937   1.744   1.052 -1.2165  1.9917  0.9500
 7321TIP3    H221928   2.812   1.659   1.066  0.0278  0.2498  1.8524
 7322TIP3   OH221929   5.489   0.271   0.667 -0.4360  0.5131 -0.1543
 7322TIP3    H121930   5.507   0.227   0.583 -1.2193  0.7545 -0.4531
 7322TIP3    H221931   5.394   0.283   0.668 -0.2862  1.8088  0.1237
 7323TIP3   OH221932   4.107   1.429   4.630  0.0169  0.8567  0.4313
 7323TIP3    H121933   4.145   1.503   4.582 -0.8124  1.4334  0.6533
 7323TIP3    H221934   4.013   1.438   4.617 -0.1020 -0.0841  0.5881
 7324TIP3   OH221935   6.915   5.675   3.174 -0.2794 -0.6435  0.3319
 7324TIP3    H121936   6.975   5.682   3.248 -0.4672  2.4263  0.3571
 7324TIP3    H221937   6.966   5.633   3.105  0.6723 -1.4196  1.4802
 7325TIP3   OH221938   1.135   0.038   5.363 -0.4382  0.2334 -0.1487
 7325TIP3    H121939   1.115   0.023   5.455  1.2096 -0.5695  0.1028
 7325TIP3    H221940   1.186   0.119   5.362 -0.9449  0.5570 -0.4356
 7326TIP3   OH221941   2.690   5.014   0.946 -0.5219  0.1078  0.2400
 7326TIP3    H121942   2.703   5.015   0.851  0.2149 -0.0931  0.3283
 7326TIP3    H221943   2.672   5.105   0.969  0.0215  0.2794 -0.0045
 7327TIP3   OH221944   7.048   3.410   1.831  0.5606  0.0794 -0.3358
 7327TIP3    H121945   7.082   3.322   1.851  0.9249 -0.0147 -1.3073
 7327TIP3    H221946   7.075   3.464   1.906  0.4908 -0.5881  0.1832
 7328TIP3   OH221947   2.925   0.450   3.310 -0.5337  1.1717 -0.0807
 7328TIP3    H121948   2.946   0.512   3.380  1.3396 -1.6047  2.0428
 7328TIP3    H221949   2.853   0.398   3.345  0.5973 -0.4237 -0.0102
 7329TIP3   OH221950   7.216   4.998   5.602  0.4748  0.0696  0.3555
 7329TIP3    H121951   7.139   5.052   5.621  0.6970  0.3983  0.3349
 7329TIP3    H221952   7.290   5.049   5.635  1.0071  1.2017 -2.2890
 7330TIP3   OH221953   4.267   3.388   0.905 -0.6098  0.3341 -0.1569
 7330TIP3    H121954   4.259   3.427   0.992  0.5075 -0.4137  0.3026
 7330TIP3    H221955   4.359   3.362   0.899 -0.8213 -0.1833 -1.3211
 7331TIP3   OH221956   4.339   2.206   5.242  0.4390 -0.4232 -1.0510
 7331TIP3    H121957   4.368   2.208   5.333  1.1744  0.2868 -1.2860
 7331TIP3    H221958   4.328   2.113   5.222  1.8559 -0.6873 -0.7143
 7332TIP3   OH221959   4.213   6.683   1.267 -0.1515  0.2604  0.3147
 7332TIP3    H121960   4.303   6.673   1.297  0.4338  0.5775 -1.2639
 7332TIP3    H221961   4.208   6.772   1.232 -0.0479 -0.8103 -2.7253
 7333TIP3   OH221962   0.905   1.931   1.129  0.6508  0.4268 -0.0011
 7333TIP3    H121963   0.927   2.000   1.192  0.5077 -1.6804  2.4730
 7333TIP3    H221964   0.937   1.850   1.169 -0.4435 -1.1632 -2.1565
 7334TIP3   OH221965   5.137   3.299   5.176 -0.6233  0.5618 -0.4421
 7334TIP3    H121966   5.213   3.294   5.118  0.0874  1.5997  0.3555
 7334TIP3    H221967   5.174   3.318   5.262 -1.5212 -2.3463  0.7136
 7335TIP3   OH221968   1.490   2.210   0.629 -0.1593 -0.6508  0.0654
 7335TIP3    H121969   1.405   2.246   0.651 -0.3936 -0.7630 -0.6478
 7335TIP3    H221970   1.545   2.286   0.612 -0.1068 -0.5785  0.5370
 7336TIP3   OH221971   0.824   1.238   4.354  0.2852  0.8920  0.3875
 7336TIP3    H121972   0.831   1.175   4.282 -0.4592  1.2437 -0.0053
 7336TIP3    H221973   0.909   1.233   4.398  0.4379  0.0293  0.0192
 7337TIP3   OH221974   7.012   5.643   0.111 -0.0682 -0.2958  0.4462
 7337TIP3    H121975   6.965   5.682   0.185 -1.4429 -1.5351  0.2790
 7337TIP3    H221976   7.035   5.717   0.055  0.7775  0.6472  1.9581
 7338TIP3   OH221977   1.599   5.482   2.398 -0.6916  0.1909 -0.0864
 7338TIP3    H121978   1.639   5.432   2.469 -1.3286  1.1650  1.0019
 7338TIP3    H221979   1.665   5.547   2.373 -0.7926  0.4159  0.2285
 7339TIP3   OH221980   4.693   3.495   5.353  0.1332  0.2036  0.4086
 7339TIP3    H121981   4.712   3.402   5.360 -0.9475  0.0655  2.1131
 7339TIP3    H221982   4.599   3.502   5.368  0.2680  1.6172  0.7746
 7340TIP3   OH221983   3.638   2.040   1.420  0.1533  0.2903 -0.1084
 7340TIP3    H121984   3.697   2.052   1.494 -0.2701  0.4367  0.2083
 7340TIP3    H221985   3.694   2.007   1.349  0.2320 -1.8451  0.8621
 7341TIP3   OH221986   2.383   6.512   3.933  0.3601 -0.5100  0.0569
 7341TIP3    H121987   2.304   6.555   3.967  1.3819  1.2837  0.2607
 7341TIP3    H221988   2.367   6.419   3.947 -0.3797 -0.0374  3.1770
 7342TIP3   OH221989   3.298   2.238   4.059  0.1819 -0.2339  0.2071
 7342TIP3    H121990   3.242   2.255   4.135 -0.6888 -1.3795 -0.1621
 7342TIP3    H221991   3.352   2.163   4.085 -0.4247 -0.9030 -0.4625
 7343TIP3   OH221992   3.192   5.466   2.509 -0.7278 -0.1176 -0.4018
 7343TIP3    H121993   3.245   5.472   2.430 -0.8516  1.1469 -0.4188
 7343TIP3    H221994   3.115   5.416   2.482  0.5348 -2.2412 -0.2960
 7344TIP3   OH221995   0.316   0.422   0.693  0.6142 -0.1716 -0.1371
 7344TIP3    H121996   0.368   0.477   0.634  0.8632  1.8883  1.9032
 7344TIP3    H221997   0.239   0.475   0.714  0.4021 -0.9701  1.1880
 7345TIP3   OH221998   1.382   5.132   4.154  0.2124 -0.3269  0.1176
 7345TIP3    H121999   1.458   5.137   4.212  1.6053 -0.8630 -1.5582
 7345TIP3    H222000   1.387   5.211   4.100 -0.6380 -0.1850  0.2360
 7346TIP3   OH222001   3.090   0.840   3.644 -0.2767 -0.2538  0.4100
 7346TIP3    H122002   3.042   0.921   3.661 -0.5443 -0.4560  0.6112
 7346TIP3    H222003   3.180   0.861   3.670 -0.4137 -0.1308  0.8048
 7347TIP3   OH222004   2.184   4.616   0.612 -0.0475  0.0770  0.1107
 7347TIP3    H122005   2.165   4.700   0.571  1.6016  1.6354  2.3117
 7347TIP3    H222006   2.270   4.591   0.578 -0.1701 -0.3097  0.0820
 7348TIP3   OH222007   1.612   1.812   1.110 -0.0562  0.2775  0.2754
 7348TIP3    H122008   1.660   1.874   1.164  0.2265 -0.8199  1.3348
 7348TIP3    H222009   1.522   1.815   1.144  0.0172 -0.0774  0.5049
 7349TIP3   OH222010   2.079   0.867   3.339  0.2553  0.4744 -0.4137
 7349TIP3    H122011   2.042   0.917   3.266  0.8954  0.1147 -0.9954
 7349TIP3    H222012   2.089   0.932   3.409  0.6208  1.0576 -0.9957
 7350TIP3   OH222013   1.060   4.857   0.391 -0.1867  0.3252 -0.7657
 7350TIP3    H122014   1.142   4.881   0.434  0.1483 -1.6870 -0.1757
 7350TIP3    H222015   0.993   4.873   0.457  0.0162 -0.1440 -0.4339
 7351TIP3   OH222016   0.680   0.017   0.904  0.1537 -0.3309  0.9610
 7351TIP3    H122017   0.719   0.100   0.931 -2.2975  0.9427  0.8723
 7351TIP3    H222018   0.750  -0.027   0.856  1.6218  1.5527  1.2269
 7352TIP3   OH222019   3.849   1.726   1.224 -0.3138  0.1659  0.4330
 7352TIP3    H122020   3.908   1.677   1.167 -0.0178 -0.4005  1.1924
 7352TIP3    H222021   3.766   1.678   1.221 -0.3875  0.3024  0.2596
 7353TIP3   OH222022   1.686   4.728   3.425 -0.2668  0.0343 -0.0893
 7353TIP3    H122023   1.640   4.746   3.508 -1.1816 -0.5746 -0.4450
 7353TIP3    H222024   1.675   4.809   3.375 -1.7904 -0.4095 -0.5279
 7354TIP3   OH222025   6.583   1.621   3.195 -0.0845  0.2727  0.0560
 7354TIP3    H122026   6.651   1.596   3.257 -1.8482  0.2318  2.0994
 7354TIP3    H222027   6.527   1.544   3.188 -2.5103  1.6428  2.1715
 7355TIP3   OH222028   4.929   3.239   4.321 -0.1514 -0.6517  0.1098
 7355TIP3    H122029   4.848   3.282   4.292 -0.8655  0.5921  3.4763
 7355TIP3    H222030   4.998   3.303   4.304 -0.5389  0.0283  1.0459
 7356TIP3   OH222031   2.122   3.044   5.060 -0.0827  0.4171  0.1876
 7356TIP3    H122032   2.136   3.106   5.131 -0.0658  0.1948  0.3777
 7356TIP3    H222033   2.045   3.077   5.014 -0.8356 -0.1220  1.0451
 7357TIP3   OH222034   4.752   5.051   4.105 -0.1302  0.1821 -0.0658
 7357TIP3    H122035   4.708   5.030   4.188 -0.1075 -0.8634 -0.3087
 7357TIP3    H222036   4.700   5.006   4.038 -0.6518  1.7163 -0.7260
 7358TIP3   OH222037   2.239   2.261   5.636  0.1952 -0.3961 -0.1042
 7358TIP3    H122038   2.157   2.299   5.602 -1.0317 -1.8114  1.1250
 7358TIP3    H222039   2.240   2.286   5.728  0.4737 -1.4692  0.1927
 7359TIP3   OH222040   6.824   2.506   3.689 -0.2761 -0.6291 -0.2958
 7359TIP3    H122041   6.876   2.488   3.611 -0.4518 -2.0308 -0.1318
 7359TIP3    H222042   6.866   2.453   3.758 -1.4377 -1.1801  0.0171
 7360TIP3   OH222043   6.665   4.059   4.283 -0.2100  0.5427 -0.2347
 7360TIP3    H122044   6.748   4.096   4.311  0.6835  0.3142 -2.4042
 7360TIP3    H222045   6.672   3.966   4.305 -1.5363  1.0843  3.1045
 7361TIP3   OH222046   5.592   5.009   2.258  0.5597 -0.2155  0.1988
 7361TIP3    H122047   5.657   4.940   2.272  0.0070 -0.4354  2.0611
 7361TIP3    H222048   5.618   5.079   2.317 -0.7746 -0.2524  0.8762
 7362TIP3   OH222049   0.620   6.580  -0.031 -0.1339 -0.3676  0.2500
 7362TIP3    H122050   0.575   6.505   0.009 -1.5145  0.2779 -0.0374
 7362TIP3    H222051   0.667   6.622   0.041  1.6695 -2.1636  0.2143
 7363TIP3   OH222052   3.147   3.726   5.389  0.1008  0.1277 -1.0078
 7363TIP3    H122053   3.128   3.808   5.343  0.6971  0.5661 -0.4910
 7363TIP3    H222054   3.239   3.733   5.413 -0.4635  0.4325  1.2811
 7364TIP3   OH222055   6.736   3.387   2.840 -0.2417 -0.4931 -0.6347
 7364TIP3    H122056   6.650   3.404   2.801 -0.3872  0.4640  0.0644
 7364TIP3    H222057   6.772   3.315   2.788 -1.3654 -0.7537 -1.0835
 7365TIP3   OH222058   3.671   1.471   5.509  0.5700 -0.4545  0.1460
 7365TIP3    H122059   3.742   1.426   5.462  0.4114 -0.2300 -0.3139
 7365TIP3    H222060   3.716   1.521   5.578  0.9393  0.2860 -0.6116
 7366TIP3   OH222061   5.913   5.267   5.741  1.1778  0.0522 -0.2033
 7366TIP3    H122062   6.000   5.298   5.767  0.5319  0.4982  1.6222
 7366TIP3    H222063   5.902   5.186   5.790 -0.3226  1.2050  1.5024
 7367TIP3   OH222064   3.584   0.524   1.155  0.5556  0.5105 -0.0022
 7367TIP3    H122065   3.569   0.538   1.061 -0.2315  1.4852  0.2535
 7367TIP3    H222066   3.512   0.468   1.183  1.1691 -0.3550 -0.0952
 7368TIP3   OH222067   2.343   4.742   4.074 -0.3406 -0.0572  0.1841
 7368TIP3    H122068   2.259   4.785   4.055 -0.0535  0.3234 -0.2698
 7368TIP3    H222069   2.360   4.762   4.166 -0.6022  0.1250  0.1945
 7369TIP3   OH222070   6.189   6.427   1.200 -0.0541 -0.0123 -0.3613
 7369TIP3    H122071   6.122   6.360   1.211  0.2624 -0.3080 -0.2327
 7369TIP3    H222072   6.270   6.386   1.229  0.4089 -0.0544 -1.6446
 7370TIP3   OH222073   3.492   0.898   1.356  0.1854  0.1186 -0.5185
 7370TIP3    H122074   3.535   0.849   1.426 -0.5419  0.1335 -0.0471
 7370TIP3    H222075   3.533   0.984   1.359 -1.1104  0.7438  1.1679
 7371TIP3   OH222076   6.817   1.102   1.855  0.0830  0.7526 -0.0168
 7371TIP3    H122077   6.785   1.096   1.945  2.5160 -4.2294  0.8725
 7371TIP3    H222078   6.775   1.028   1.810  2.4281  0.2455 -1.5452
 7372TIP3   OH222079   2.945   2.848   4.210 -0.5372  0.0663  0.0965
 7372TIP3    H122080   2.873   2.809   4.260 -0.4342 -0.3226 -0.0538
 7372TIP3    H222081   2.917   2.841   4.118 -0.4862  0.2817  0.0652
 7373TIP3   OH222082   7.021   0.712   0.359 -0.0555  0.7419 -0.3070
 7373TIP3    H122083   7.081   0.665   0.417  0.7299 -0.3199 -1.9082
 7373TIP3    H222084   7.077   0.775   0.313 -0.4685  0.8582 -0.6572
 7374TIP3   OH222085   3.009   4.214   3.858 -0.3919 -0.3254 -0.2909
 7374TIP3    H122086   3.087   4.233   3.806 -1.3296  3.2640 -0.6591
 7374TIP3    H222087   2.984   4.126   3.833  1.7957 -0.4273 -2.4665
 7375TIP3   OH222088   2.776   5.432   2.567 -0.2866 -0.1700 -0.2698
 7375TIP3    H122089   2.681   5.421   2.556 -0.2825  1.2310 -2.2752
 7375TIP3    H222090   2.783   5.497   2.638 -0.8623  0.2535 -0.5869
 7376TIP3   OH222091   5.039   6.134   4.048  0.1675  0.1703  0.0193
 7376TIP3    H122092   5.033   6.210   4.105  0.2098 -0.6546  1.1381
 7376TIP3    H222093   5.001   6.062   4.098 -0.0225 -0.5221 -1.0815
 7377TIP3   OH222094   1.252   0.902   3.986 -0.1975  0.1771  0.0715
 7377TIP3    H122095   1.287   0.950   4.061 -0.0316 -1.1958  0.8997
 7377TIP3    H222096   1.193   0.964   3.943 -0.2380  1.0077  1.2841
 7378TIP3   OH222097   4.969   5.176   3.770  0.2588  0.0288  0.2383
 7378TIP3    H122098   5.053   5.154   3.811  0.6356 -1.1163 -1.0477
 7378TIP3    H222099   4.992   5.195   3.679 -0.8962 -0.5363 -0.1916
 7379TIP3   OH222100   5.511   1.536   2.050  0.4331 -0.7659 -0.4556
 7379TIP3    H122101   5.477   1.473   2.114 -1.1344  1.7988  1.4600
 7379TIP3    H222102   5.496   1.494   1.966  0.2585 -3.2726  0.7236
 7380TIP3   OH222103   3.794   5.296   3.406  0.2710 -0.2195  0.1792
 7380TIP3    H122104   3.888   5.305   3.425  0.4356 -0.3116 -0.5511
 7380TIP3    H222105   3.786   5.326   3.315 -0.5934  0.8526  0.5876
 7381TIP3   OH222106   0.350   5.531   2.935 -0.2824  0.1569 -0.4323
 7381TIP3    H122107   0.355   5.440   2.964 -0.6210  0.7333  1.6125
 7381TIP3    H222108   0.261   5.558   2.959  0.5207  1.6430  1.1263
 7382TIP3   OH222109   6.241   4.375   3.947 -0.3256  0.2576  0.6209
 7382TIP3    H122110   6.309   4.441   3.935  2.7271 -2.6632  0.5718
 7382TIP3    H222111   6.239   4.359   4.041 -2.4171  1.6356  0.8727
 7383TIP3   OH222112   7.077   2.083   2.469 -0.6802  0.1289  0.3629
 7383TIP3    H122113   7.084   1.989   2.486 -0.8980  0.3504  1.8348
 7383TIP3    H222114   7.119   2.124   2.545 -0.3911  1.2261 -0.3587
 7384TIP3   OH222115   4.271   3.687   4.206 -0.4319 -0.1264 -0.0181
 7384TIP3    H122116   4.267   3.660   4.114  1.2977  0.0141 -0.1722
 7384TIP3    H222117   4.209   3.760   4.213  0.0125  0.3985 -1.2757
 7385TIP3   OH222118   4.989   1.484   2.665  0.0911 -0.0164  0.7733
 7385TIP3    H122119   4.981   1.579   2.673  0.0819  0.4113 -2.5669
 7385TIP3    H222120   5.064   1.460   2.719  0.2757  1.9251  1.4366
 7386TIP3   OH222121   2.162   5.168   5.247 -0.1478 -0.2548 -0.2527
 7386TIP3    H122122   2.166   5.186   5.153 -0.2401 -0.7840 -0.3610
 7386TIP3    H222123   2.247   5.196   5.281 -0.1740  0.0893 -0.4630
 7387TIP3   OH222124   3.779   5.544   1.632  0.1984 -0.0216 -0.0846
 7387TIP3    H122125   3.827   5.517   1.711 -0.5317 -0.3685  0.2437
 7387TIP3    H222126   3.688   5.548   1.659  0.1480  1.7971 -0.4030
 7388TIP3   OH222127   5.550   6.238   3.853  0.3638  0.0530  0.1345
 7388TIP3    H122128   5.533   6.145   3.844  0.1786  0.2377 -1.6939
 7388TIP3    H222129   5.464   6.278   3.864  0.4087  0.0545  0.4894
 7389TIP3   OH222130   0.018   2.737   5.048 -0.3745  0.3870  0.4088
 7389TIP3    H122131   0.009   2.642   5.058  0.0531  0.4732  1.7699
 7389TIP3    H222132   0.064   2.748   4.965  1.0254 -0.6796  1.0110
 7390TIP3   OH222133   6.207   6.138   2.703 -0.3025  0.1751  0.3259
 7390TIP3    H122134   6.189   6.232   2.711 -0.5992  0.2110 -0.6328
 7390TIP3    H222135   6.159   6.111   2.626  0.5488 -0.5777  0.0389
 7391TIP3   OH222136   1.887   6.092   5.195 -0.0843 -0.0984 -0.5406
 7391TIP3    H122137   1.911   6.066   5.284 -0.3200 -1.9672 -0.9780
 7391TIP3    H222138   1.791   6.087   5.194 -0.1123  0.3811 -0.7874
 7392TIP3   OH222139   7.177   0.874   3.021 -0.2444  0.7934  0.6688
 7392TIP3    H122140   7.181   0.969   3.032  0.3967  0.8248  0.2172
 7392TIP3    H222141   7.233   0.839   3.091 -0.5286  0.7459  0.8727
 7393TIP3   OH222142   5.222   6.325   1.763 -0.4120  0.2462 -0.3773
 7393TIP3    H122143   5.267   6.249   1.726 -0.3424 -0.5365  1.2439
 7393TIP3    H222144   5.137   6.326   1.720  0.5701  0.9087 -2.4322
 7394TIP3   OH222145   1.598   0.494   1.710 -0.4638 -0.6675  0.2777
 7394TIP3    H122146   1.611   0.583   1.743 -1.3497 -0.7933  0.9911
 7394TIP3    H222147   1.622   0.500   1.617  0.3488  0.0999  0.5203
 7395TIP3   OH222148   6.772   1.032   4.399  0.5995 -0.3060 -0.4150
 7395TIP3    H122149   6.797   0.954   4.350  0.4149 -0.0520 -0.9139
 7395TIP3    H222150   6.695   1.066   4.355 -0.5186 -0.9429  0.9841
 7396TIP3   OH222151   1.081   5.546   3.419  0.6320  0.0808  0.4668
 7396TIP3    H122152   1.027   5.483   3.466 -2.8168  0.9418 -1.9679
 7396TIP3    H222153   1.106   5.611   3.485 -1.3410 -0.3931  1.7485
 7397TIP3   OH222154   4.192   2.924   5.446  0.0095  1.0485 -0.6369
 7397TIP3    H122155   4.210   2.927   5.352  1.4059 -0.9033 -0.4928
 7397TIP3    H222156   4.225   2.839   5.475 -2.2911  0.6700  1.2751
 7398TIP3   OH222157   6.930   6.217   4.573 -0.2999  0.5219  0.1832
 7398TIP3    H122158   7.018   6.251   4.556 -0.7203  0.8753 -1.4945
 7398TIP3    H222159   6.937   6.123   4.552 -0.4161  0.6355 -0.3834
 7399TIP3   OH222160   4.776   3.769   0.204 -0.5478  0.0777 -0.3996
 7399TIP3    H122161   4.768   3.728   0.291 -1.2749 -0.3897 -0.6808
 7399TIP3    H222162   4.743   3.858   0.217  1.4296  0.7774  0.3131
 7400TIP3   OH222163   2.207   1.680   1.055  0.7534 -0.2768  0.5442
 7400TIP3    H122164   2.163   1.752   1.009  0.1529 -1.8041 -1.4595
 7400TIP3    H222165   2.300   1.695   1.040  0.6836  0.5622  0.9213
 7401TIP3   OH222166   6.665   3.693   0.119 -0.5195 -0.4754  0.2082
 7401TIP3    H122167   6.578   3.678   0.084 -0.6944  0.1171  0.3856
 7401TIP3    H222168   6.655   3.685   0.214 -0.3376 -0.6043  0.2192
 7402TIP3   OH222169   1.042   4.171   1.252  0.3284 -0.0755 -0.4978
 7402TIP3    H122170   1.059   4.261   1.279 -1.8449  0.0200  0.7811
 7402TIP3    H222171   1.021   4.125   1.333  0.6189 -1.5502 -1.2313
 7403TIP3   OH222172   6.607   1.149   1.531 -0.2431  0.0266  0.0561
 7403TIP3    H122173   6.659   1.206   1.474 -0.4561  0.8420  0.6479
 7403TIP3    H222174   6.638   1.061   1.511  0.0904  0.3430 -0.8923
 7404TIP3   OH222175   6.166   1.314   0.060  0.2246 -0.1787 -0.5583
 7404TIP3    H122176   6.241   1.276   0.107 -0.2982 -0.0302  0.4234
 7404TIP3    H222177   6.110   1.350   0.129 -0.8625 -0.4762 -1.2584
 7405TIP3   OH222178   3.734   6.581   1.329  0.2559  0.0287 -0.2099
 7405TIP3    H122179   3.657   6.555   1.279 -0.2438  2.3576 -0.7740
 7405TIP3    H222180   3.768   6.659   1.283  2.5195 -0.4851  0.4419
 7406TIP3   OH222181   5.177   5.572   5.254  0.1525  0.5726  0.0063
 7406TIP3    H122182   5.224   5.536   5.179  0.2697 -1.9668  1.1822
 7406TIP3    H222183   5.238   5.565   5.327 -1.3858 -1.3329  1.2426
 7407TIP3   OH222184   2.160   4.637   4.344  0.1945  0.3259 -0.0245
 7407TIP3    H122185   2.136   4.707   4.284  0.3928  0.8880  0.5324
 7407TIP3    H222186   2.173   4.561   4.288  0.3108  0.8177 -0.6864
 7408TIP3   OH222187   7.135   5.402   2.617  0.0576 -0.2799 -0.2573
 7408TIP3    H122188   7.229   5.407   2.597  0.3453  0.7654  1.1527
 7408TIP3    H222189   7.115   5.308   2.615  1.5445 -0.6771  1.0169
 7409TIP3   OH222190   6.350   4.017   1.743  0.2771  0.4380 -0.4643
 7409TIP3    H122191   6.425   3.976   1.698 -0.3036 -1.0315 -0.1512
 7409TIP3    H222192   6.357   4.109   1.721  1.2250  0.0760 -1.8248
 7410TIP3   OH222193   3.929   0.367   5.648  0.5009  0.1993  0.8307
 7410TIP3    H122194   3.905   0.459   5.658  1.1269  0.2224  2.3071
 7410TIP3    H222195   3.977   0.364   5.565 -0.7992  0.9077  0.0129
 7411TIP3   OH222196   2.402   4.214   4.409  0.5242  0.0991  0.6314
 7411TIP3    H122197   2.378   4.165   4.487  1.4078 -1.2197  0.1122
 7411TIP3    H222198   2.318   4.236   4.367  0.0317  1.1260  2.1040
 7412TIP3   OH222199   6.126   4.814   5.342  0.1881  0.6899 -0.4186
 7412TIP3    H122200   6.067   4.772   5.405  0.6332  1.6798  0.6907
 7412TIP3    H222201   6.076   4.890   5.311  0.7467  1.3679  0.3089
 7413TIP3   OH222202   5.993   0.461   1.813 -0.0100 -0.0064  0.3329
 7413TIP3    H122203   5.921   0.513   1.849 -0.3953 -0.9290  0.9105
 7413TIP3    H222204   5.971   0.371   1.835  0.2438 -0.5178 -1.3446
 7414TIP3   OH222205   6.820   2.065   1.493 -0.0819 -0.0264 -0.0719
 7414TIP3    H122206   6.733   2.034   1.466  0.6823 -0.3407 -2.4608
 7414TIP3    H222207   6.803   2.133   1.557 -2.1369  0.2964 -0.8907
 7415TIP3   OH222208   4.819   6.380   5.809 -0.2682  0.2802  0.7709
 7415TIP3    H122209   4.898   6.344   5.768 -1.1780 -0.8088 -0.0789
 7415TIP3    H222210   4.849   6.408   5.896  1.1093  0.1186  0.3761
 7416TIP3   OH222211   0.444   0.835   2.284  0.0018  0.3042  0.0039
 7416TIP3    H122212   0.509   0.857   2.217 -0.9488  0.5915 -0.8418
 7416TIP3    H222213   0.420   0.920   2.322 -0.5679  0.2975 -0.3375
 7417TIP3   OH222214   5.877   3.639   1.209  0.0268 -0.0659  0.0982
 7417TIP3    H122215   5.907   3.549   1.214  0.8062  0.0825 -1.3373
 7417TIP3    H222216   5.952   3.688   1.175 -0.1441  1.2640  1.5010
 7418TIP3   OH222217   3.276   0.824   1.230 -1.0682  0.0838  0.1433
 7418TIP3    H122218   3.354   0.837   1.284 -0.9564  1.8531 -0.3854
 7418TIP3    H222219   3.204   0.856   1.284 -1.3995 -1.1065  0.4431
 7419TIP3   OH222220   6.245   4.657   5.128 -0.0955  0.4175 -0.0762
 7419TIP3    H122221   6.265   4.599   5.201 -0.2297  0.4971  0.0219
 7419TIP3    H222222   6.174   4.713   5.159  0.7624  1.3792  0.2243
 7420TIP3   OH222223   2.833   0.224   3.615 -0.2790 -0.0081 -0.0662
 7420TIP3    H122224   2.825   0.132   3.640  1.7159 -0.5976 -1.3539
 7420TIP3    H222225   2.894   0.223   3.541 -1.0878  2.2510 -0.8290
 7421TIP3   OH222226   6.428   3.642   3.430 -0.7131 -0.1157  0.6678
 7421TIP3    H122227   6.419   3.632   3.335  1.8003  1.6486  0.1474
 7421TIP3    H222228   6.494   3.710   3.441  0.3828 -1.4938  3.7060
 7422TIP3   OH222229   3.428   2.836   3.963 -0.0476 -0.1099  0.2675
 7422TIP3    H122230   3.362   2.796   3.906  0.1714  0.3465 -0.3119
 7422TIP3    H222231   3.393   2.824   4.051 -1.4833  1.1298 -0.0948
 7423TIP3   OH222232   2.803   0.800   0.474  0.1525  0.2596 -0.1002
 7423TIP3    H122233   2.850   0.874   0.512  2.1379 -1.1289  0.3344
 7423TIP3    H222234   2.797   0.737   0.545  1.4178 -1.2599 -1.2506
 7424TIP3   OH222235   5.863   3.005   4.672 -0.1849  0.2001 -0.6290
 7424TIP3    H122236   5.846   3.097   4.690 -1.4026 -0.1820  0.3079
 7424TIP3    H222237   5.955   3.002   4.646  1.1198  1.2231  3.1654
 7425TIP3   OH222238   0.427   1.648   3.783  0.2625  0.0216  0.2756
 7425TIP3    H122239   0.341   1.681   3.810  0.7806  1.6266  0.0491
 7425TIP3    H222240   0.431   1.560   3.821 -1.1642  0.2052  0.9402
 7426TIP3   OH222241   5.723   6.632   5.062  0.3999 -0.5752 -0.0706
 7426TIP3    H122242   5.654   6.570   5.037 -1.5982  0.5519  2.3057
 7426TIP3    H222243   5.771   6.588   5.132 -0.5939  0.2354  1.1522
 7427TIP3   OH222244   1.403   2.867   3.091 -0.0749  0.2551  0.1131
 7427TIP3    H122245   1.435   2.798   3.148 -0.1463 -1.0843 -1.4093
 7427TIP3    H222246   1.438   2.845   3.005 -0.5967  1.7978 -0.5211
 7428TIP3   OH222247   5.933   3.708   3.996  0.5249 -0.6065 -0.0147
 7428TIP3    H122248   5.943   3.745   3.908 -0.8251 -0.0870  0.0162
 7428TIP3    H222249   5.921   3.614   3.982  1.4184 -0.6888 -0.2880
 7429TIP3   OH222250   3.647   6.325   2.047  0.5494 -0.2626  0.1366
 7429TIP3    H122251   3.578   6.368   1.996  1.3529 -0.2196 -0.9463
 7429TIP3    H222252   3.607   6.310   2.133 -0.8198 -0.2820 -0.4739
 7430TIP3   OH222253   7.047   4.287   0.895  0.3436  0.6452  0.2398
 7430TIP3    H122254   7.107   4.213   0.893 -0.1239 -0.0110  3.8274
 7430TIP3    H222255   6.960   4.247   0.889 -0.0229  0.4697  4.1306
 7431TIP3   OH222256   7.135   6.154   2.135  0.4822 -0.1649  0.1433
 7431TIP3    H122257   7.196   6.209   2.184  0.3303 -1.1707  1.5416
 7431TIP3    H222258   7.130   6.194   2.048  3.7524 -0.5203 -0.3069
 7432TIP3   OH222259   0.010   6.710   2.401 -0.2001 -0.5097  0.2803
 7432TIP3    H122260   0.093   6.732   2.358 -0.6519  0.0470 -0.3340
 7432TIP3    H222261  -0.019   6.630   2.357 -0.4917 -0.1316 -0.2258
 7433TIP3   OH222262   2.717   0.549   2.317 -0.0065 -0.5825  0.6436
 7433TIP3    H122263   2.674   0.623   2.362 -0.0568 -0.3484  0.2189
 7433TIP3    H222264   2.728   0.580   2.227  0.4622 -0.8954  0.5948
 7434TIP3   OH222265   3.313   1.107   4.162  0.0958  0.5107  0.7029
 7434TIP3    H122266   3.373   1.175   4.134 -0.0964  0.3230 -0.1955
 7434TIP3    H222267   3.369   1.031   4.180  0.0850  0.1211 -0.8053
 7435TIP3   OH222268   5.248   1.090   2.147 -0.2811 -0.4038 -0.6577
 7435TIP3    H122269   5.174   1.115   2.202  0.1459 -0.4191 -0.0535
 7435TIP3    H222270   5.232   1.131   2.063  0.7189  2.5067  0.4626
 7436TIP3   OH222271   6.707   2.564   1.824 -0.5548 -0.0513  0.6113
 7436TIP3    H122272   6.711   2.659   1.818  0.3756 -0.1366 -0.3996
 7436TIP3    H222273   6.794   2.534   1.797 -0.1482 -1.1321  2.7976
 7437TIP3   OH222274   2.180   2.334   1.535  0.8853  0.5460  0.0396
 7437TIP3    H122275   2.161   2.315   1.627 -1.4796  0.3875 -0.4363
 7437TIP3    H222276   2.193   2.429   1.533  0.5346  0.6063  0.4698
 7438TIP3   OH222277   1.913   5.527   2.160 -0.0460  0.7980 -0.1441
 7438TIP3    H122278   1.986   5.498   2.106  1.7950  0.7498  2.1943
 7438TIP3    H222279   1.844   5.549   2.097  1.1970 -1.1429 -2.3608
 7439TIP3   OH222280   0.042   5.748   0.653  0.9661 -0.3415 -0.0280
 7439TIP3    H122281   0.093   5.811   0.704 -0.4564 -0.1965  1.2871
 7439TIP3    H222282  -0.000   5.693   0.719  1.1406 -1.8515 -1.1366
 7440TIP3   OH222283   4.495   2.061   3.069 -0.3750 -0.0024 -0.3955
 7440TIP3    H122284   4.565   2.080   3.131  0.7456 -1.0195 -1.2888
 7440TIP3    H222285   4.484   2.142   3.019  0.1198  0.1885 -0.1960
 7441TIP3   OH222286   6.655   0.992   2.624 -0.0930  0.5141 -0.0522
 7441TIP3    H122287   6.659   1.087   2.631 -0.3749  0.4928  0.4736
 7441TIP3    H222288   6.741   0.962   2.653 -0.2260  0.5786  0.4137
 7442TIP3   OH222289   0.895   2.280   1.052  0.4878  0.2220  0.2521
 7442TIP3    H122290   0.886   2.281   1.147  1.3902  0.7314  0.3424
 7442TIP3    H222291   0.973   2.228   1.035 -0.4613 -1.0691 -0.3012
 7443TIP3   OH222292   2.220   3.528   2.791 -0.0470 -0.3608 -0.2494
 7443TIP3    H122293   2.249   3.575   2.712  1.7063 -0.1296  0.4998
 7443TIP3    H222294   2.235   3.436   2.770 -0.4194 -0.3637 -0.5113
 7444TIP3   OH222295   2.534   0.863   0.773  0.3108 -0.0763 -0.4091
 7444TIP3    H122296   2.469   0.932   0.757  0.7784  0.6197  0.5631
 7444TIP3    H222297   2.490   0.782   0.748 -1.7392  0.1095  2.2237
 7445TIP3   OH222298   5.901  -0.011   5.651 -0.1382 -0.6944  0.7241
 7445TIP3    H122299   5.828   0.019   5.705  0.0976  1.4662 -0.0334
 7445TIP3    H222300   5.872   0.005   5.561  0.7537 -1.0803  0.3560
 7446TIP3   OH222301   0.718   6.724   3.290  0.3890 -0.0718  0.1679
 7446TIP3    H122302   0.744   6.645   3.243  3.5084 -0.0743  1.6682
 7446TIP3    H222303   0.753   6.712   3.378 -0.7799  2.1532  1.0067
 7447TIP3   OH222304   5.511   3.537   0.753  0.4593 -0.2361 -0.2892
 7447TIP3    H122305   5.533   3.628   0.771 -1.0053 -0.0843  1.0203
 7447TIP3    H222306   5.588   3.501   0.708  2.0078  1.0178  1.2275
 7448TIP3   OH222307   3.505   2.042   3.530  0.4165 -0.3972 -0.4850
 7448TIP3    H122308   3.519   2.087   3.448 -0.3228 -2.1347 -1.6267
 7448TIP3    H222309   3.437   1.977   3.511 -0.0362 -0.6210  1.5787
 7449TIP3   OH222310   1.849   4.231   0.090  0.2570  0.0431  0.1904
 7449TIP3    H122311   1.883   4.319   0.104 -0.6653  0.6829 -1.3623
 7449TIP3    H222312   1.914   4.189   0.033 -0.0351  0.2164 -0.2684
 7450TIP3   OH222313   0.648   5.902   2.844  0.3923 -0.2801 -0.0720
 7450TIP3    H122314   0.600   5.984   2.858  0.1755 -0.1590 -1.3596
 7450TIP3    H222315   0.580   5.839   2.819  0.5366 -0.9079  1.0579
 7451TIP3   OH222316   4.904   6.632   4.935  0.0325  0.2411 -0.6404
 7451TIP3    H122317   4.853   6.551   4.934 -1.0918  0.9269 -0.8753
 7451TIP3    H222318   4.838   6.702   4.937  0.8486  1.2256 -3.3696
 7452TIP3   OH222319   2.835   1.830   0.037 -0.6240 -0.1867  0.0400
 7452TIP3    H122320   2.857   1.739   0.017 -0.4742  0.1568 -1.4246
 7452TIP3    H222321   2.914   1.879   0.014 -0.2965  0.2342  1.8313
 7453TIP3   OH222322   3.926   5.522   2.973  0.0114  0.1851 -0.1756
 7453TIP3    H122323   3.919   5.604   2.924 -0.1230  0.7068  0.7037
 7453TIP3    H222324   3.988   5.542   3.043 -0.6911 -0.2021  0.5644
 7454TIP3   OH222325   6.903   6.525   2.541  0.4595 -0.0323  0.0153
 7454TIP3    H122326   6.890   6.620   2.538 -1.5694 -0.2794 -1.3722
 7454TIP3    H222327   6.829   6.490   2.490  2.6099 -2.2193 -1.8187
 7455TIP3   OH222328   3.941   6.753   2.785 -0.2490  0.1676  0.3151
 7455TIP3    H122329   4.004   6.761   2.713 -1.1337 -0.8320 -0.6171
 7455TIP3    H222330   3.985   6.791   2.860  1.0772  0.3882 -0.5393
 7456TIP3   OH222331   6.843   0.263   1.698 -0.2037 -0.6987  0.1673
 7456TIP3    H122332   6.863   0.351   1.729 -3.1115 -0.4120  1.5366
 7456TIP3    H222333   6.929   0.224   1.680  1.1786  2.1932  0.0215
 7457TIP3   OH222334   1.248   6.541   1.317 -0.5141 -0.1970 -0.5256
 7457TIP3    H122335   1.319   6.590   1.275  0.0335 -0.7908 -0.3151
 7457TIP3    H222336   1.175   6.602   1.320 -0.1786  0.2505 -1.2334
 7458TIP3   OH222337   4.182   3.272   3.478 -0.8176  0.3552  0.0938
 7458TIP3    H122338   4.255   3.224   3.516 -0.8416  0.8807  0.8409
 7458TIP3    H222339   4.150   3.216   3.407 -0.1329 -0.1914  0.2036
 7459TIP3   OH222340   5.958   0.171   5.269 -0.8297 -0.2348 -0.6833
 7459TIP3    H122341   6.052   0.183   5.288 -1.1124  0.2445  0.5484
 7459TIP3    H222342   5.932   0.252   5.226 -0.9456  0.1963  0.1679
 7460TIP3   OH222343   6.392   1.784   3.945 -0.4068 -0.1461  0.2405
 7460TIP3    H122344   6.358   1.778   4.035 -1.1870 -0.1800 -0.0477
 7460TIP3    H222345   6.396   1.878   3.928 -1.5625 -0.1487 -0.1535
 7461TIP3   OH222346   2.251   0.870   0.476 -0.2297 -0.0456  0.4056
 7461TIP3    H122347   2.171   0.816   0.478 -0.4258  0.1714 -0.8329
 7461TIP3    H222348   2.292   0.850   0.392 -1.5783  3.4612 -1.3203
 7462TIP3   OH222349   2.446   1.299   2.004  0.5807 -0.5655 -0.2940
 7462TIP3    H122350   2.448   1.205   2.020  1.8429 -0.8816 -2.0309
 7462TIP3    H222351   2.354   1.323   2.016  0.5692 -1.5531  2.3381
 7463TIP3   OH222352   4.480   1.240   3.732  0.1367  0.6445 -0.3161
 7463TIP3    H122353   4.476   1.152   3.769  0.4978  0.2565 -1.1599
 7463TIP3    H222354   4.393   1.255   3.695  0.4306  0.1450 -1.2396
 7464TIP3   OH222355   4.563   5.666   0.389  0.1409  0.5566 -0.1697
 7464TIP3    H122356   4.645   5.617   0.395 -0.7851 -0.8815  1.5055
 7464TIP3    H222357   4.591   5.758   0.386  1.8109  0.1719  1.5102
 7465TIP3   OH222358   6.362   6.502   4.436  0.1745  0.4886 -0.4187
 7465TIP3    H122359   6.292   6.531   4.495  1.2337 -1.9906  2.2648
 7465TIP3    H222360   6.318   6.492   4.351 -2.3501  0.5754  0.7836
 7466TIP3   OH222361   2.815   5.372   3.697 -0.6075 -0.2810 -0.7724
 7466TIP3    H122362   2.727   5.398   3.671 -0.4489  0.4563 -0.5918
 7466TIP3    H222363   2.838   5.302   3.637 -0.9175  0.2153 -1.4834
 7467TIP3   OH222364   6.861   5.507   1.341  0.4040  0.6791 -0.3268
 7467TIP3    H122365   6.770   5.479   1.350  0.3944  0.6584 -0.4757
 7467TIP3    H222366   6.856   5.595   1.304  0.4120  1.2673  1.0296
 7468TIP3   OH222367   3.510   1.651   5.869 -0.2357  0.1032 -0.2241
 7468TIP3    H122368   3.514   1.674   5.962  1.5773 -1.2011  0.0867
 7468TIP3    H222369   3.426   1.686   5.839  0.3666  3.0811  1.1790
 7469TIP3   OH222370   3.607   6.548   0.448 -0.1161 -0.8738 -0.2003
 7469TIP3    H122371   3.572   6.471   0.405 -1.4942 -0.7117  0.5663
 7469TIP3    H222372   3.643   6.516   0.530 -1.3066 -0.6605  0.4409
 7470TIP3   OH222373   0.603   1.015   0.749 -0.9227 -0.8307 -0.2768
 7470TIP3    H122374   0.692   1.050   0.749 -0.5839 -1.6349  0.5919
 7470TIP3    H222375   0.547   1.089   0.771 -0.4827 -0.3055 -0.8888
 7471TIP3   OH222376   1.770   4.451   2.554  0.2137 -0.1600 -0.0737
 7471TIP3    H122377   1.695   4.471   2.498 -0.0108 -1.3426 -0.2252
 7471TIP3    H222378   1.779   4.355   2.549  1.6064 -0.0611  0.1002
 7472TIP3   OH222379   3.092   6.196   3.929  0.1967 -1.0402  0.0380
 7472TIP3    H122380   3.100   6.207   3.834 -0.0457 -0.3916  0.0921
 7472TIP3    H222381   3.135   6.273   3.966 -0.3807 -0.9097  0.4477
 7473TIP3   OH222382   2.850   4.959   3.323 -0.2788 -0.0967  0.6366
 7473TIP3    H122383   2.777   4.941   3.382  0.5440  0.1146  1.7360
 7473TIP3    H222384   2.842   4.893   3.254 -2.7273  1.1697 -0.4367
 7474TIP3   OH222385   5.348   0.216   5.045 -0.3242  0.5035  0.2186
 7474TIP3    H122386   5.353   0.306   5.014  0.0285 -0.2648 -2.1901
 7474TIP3    H222387   5.260   0.208   5.083 -0.1387  1.9894  1.0142
 7475TIP3   OH222388   7.169   5.495   0.503 -0.4003 -0.5485 -0.0168
 7475TIP3    H122389   7.198   5.586   0.499  0.5980 -0.8108  0.7693
 7475TIP3    H222390   7.130   5.485   0.590 -3.5859 -0.0511 -1.2493
 7476TIP3   OH222391   5.258   3.022   1.346  0.1638  0.1038  0.0510
 7476TIP3    H122392   5.314   3.099   1.347  0.3913 -0.0621  0.3783
 7476TIP3    H222393   5.292   2.969   1.274  0.1172  0.2290 -0.0634
 7477TIP3   OH222394   6.385   0.878   4.313  0.3182 -0.2895  0.0454
 7477TIP3    H122395   6.341   0.794   4.329  0.2484 -0.3778 -0.5879
 7477TIP3    H222396   6.380   0.924   4.397  0.6287 -1.0427  0.4936
 7478TIP3   OH222397   6.653   4.908   5.441 -0.1376 -0.2311 -0.6348
 7478TIP3    H122398   6.564   4.875   5.455  0.2101 -0.8902  0.1428
 7478TIP3    H222399   6.692   4.846   5.380 -0.3514  0.3235 -1.3447
 7479TIP3   OH222400   5.867   5.923   4.779  0.3039  0.0641  0.3767
 7479TIP3    H122401   5.804   5.992   4.758 -0.6249 -0.0717  2.5029
 7479TIP3    H222402   5.827   5.842   4.747  0.2117  0.1897  0.1748
 7480TIP3   OH222403   2.236   2.025   2.134 -0.0791 -0.3654  0.0829
 7480TIP3    H122404   2.304   1.989   2.077  0.5605 -0.3667  0.8344
 7480TIP3    H222405   2.165   2.048   2.074  0.3450 -0.9083 -0.6459
 7481TIP3   OH222406   4.300   6.602   2.204 -0.2104  0.7297 -0.3248
 7481TIP3    H122407   4.263   6.570   2.286  0.2592 -1.5934 -0.9614
 7481TIP3    H222408   4.224   6.624   2.150 -0.6646 -1.3076 -0.5942
 7482TIP3   OH222409   3.711   1.388   0.465  0.0133 -0.1770 -0.2936
 7482TIP3    H122410   3.655   1.324   0.509 -2.2288  1.2972 -0.7945
 7482TIP3    H222411   3.667   1.404   0.381  1.6834  0.4393 -1.0995
 7483TIP3   OH222412   3.586   2.561   0.984 -0.3998  0.1772 -0.3463
 7483TIP3    H122413   3.574   2.480   1.033 -0.8433  0.7456  0.4977
 7483TIP3    H222414   3.531   2.625   1.028  0.2707  1.0564 -0.7402
 7484TIP3   OH222415   6.804   5.872   1.972  0.1069 -0.0663  0.6709
 7484TIP3    H122416   6.866   5.934   1.934 -0.6480 -0.2863 -1.0165
 7484TIP3    H222417   6.848   5.839   2.051  1.9132  0.1253 -0.2068
 7485TIP3   OH222418   1.934   1.982   0.368  0.0219 -0.2205 -0.1183
 7485TIP3    H122419   1.902   1.967   0.279  0.9413 -0.6899 -0.3821
 7485TIP3    H222420   1.873   1.932   0.424 -0.0267 -0.6691 -0.5636
 7486TIP3   OH222421   3.426   5.321   3.067 -0.3626  0.3385  0.3874
 7486TIP3    H122422   3.375   5.400   3.050  1.0952  1.2567  0.0731
 7486TIP3    H222423   3.507   5.353   3.107  0.6386 -0.8978 -0.5487
 7487TIP3   OH222424   5.704   3.416   2.639  0.2323  0.2519  0.6801
 7487TIP3    H122425   5.746   3.402   2.724 -0.2355 -1.3135  0.6803
 7487TIP3    H222426   5.624   3.364   2.642  0.0420  0.4222 -0.6091
 7488TIP3   OH222427   3.093   3.755   2.812  0.2669 -0.3123 -0.2211
 7488TIP3    H122428   3.147   3.787   2.885 -3.3639  0.2306  2.5492
 7488TIP3    H222429   3.094   3.660   2.821  0.6108 -0.3031 -0.1259
 7489TIP3   OH222430   6.515   4.679   1.293 -0.1538  0.3069  0.3267
 7489TIP3    H122431   6.594   4.716   1.253  0.2992 -0.3553  0.6093
 7489TIP3    H222432   6.468   4.756   1.325 -0.0636  0.7802 -0.6212
 7490TIP3   OH222433   2.563   5.386   3.582 -0.1126 -0.2541  0.0543
 7490TIP3    H122434   2.562   5.470   3.535  0.5962  0.0511  0.5691
 7490TIP3    H222435   2.530   5.323   3.518 -2.3888  0.6853  0.2033
 7491TIP3   OH222436   0.520   0.976   4.475  0.4668  0.8724  0.5433
 7491TIP3    H122437   0.611   0.961   4.502  0.3160  0.4261  0.8204
 7491TIP3    H222438   0.470   0.970   4.557  0.3178  2.2880  0.5787
 7492TIP3   OH222439   3.683   5.803   1.550 -0.6798  0.0973  0.5920
 7492TIP3    H122440   3.760   5.791   1.606 -0.8385 -1.1865  0.5636
 7492TIP3    H222441   3.714   5.782   1.462 -0.8828  0.2987  0.4717
 7493TIP3   OH222442   2.934   4.763   4.571  0.6859  0.0392 -0.1153
 7493TIP3    H122443   2.961   4.671   4.570  2.4088  0.5010  0.1732
 7493TIP3    H222444   3.000   4.807   4.518 -1.3970  0.8359 -2.2326
 7494TIP3   OH222445   0.936   2.165   0.757 -0.0745 -0.3934 -0.3819
 7494TIP3    H122446   0.934   2.258   0.781 -0.8466 -0.2806 -0.8251
 7494TIP3    H222447   0.923   2.165   0.662 -1.6678 -0.9954 -0.1959
 7495TIP3   OH222448   2.776   4.787   2.815 -0.3029 -0.3411  0.2418
 7495TIP3    H122449   2.781   4.692   2.814 -2.0829 -0.5811  2.9905
 7495TIP3    H222450   2.725   4.809   2.737  1.3851 -1.4309 -1.2556
 7496TIP3   OH222451   4.195   1.269   0.635  0.2497 -0.5413 -0.7210
 7496TIP3    H122452   4.131   1.336   0.610 -0.7088 -0.2655  2.0729
 7496TIP3    H222453   4.280   1.308   0.617 -0.2798  1.6134  1.0815
 7497TIP3   OH222454   5.323   1.936   4.565 -0.7680 -0.1195  0.2525
 7497TIP3    H122455   5.261   1.899   4.502 -0.1608 -0.2407 -0.2785
 7497TIP3    H222456   5.309   1.885   4.645 -1.4955 -0.0118  0.1986
 7498TIP3   OH222457   2.884   4.053   5.484 -0.4817  0.1810  0.0945
 7498TIP3    H122458   2.856   4.113   5.415  0.7596  0.3285 -0.3105
 7498TIP3    H222459   2.859   3.966   5.453 -1.8569  0.4260  0.4628
 7499TIP3   OH222460   3.432   1.679   3.370  0.3643  0.6438 -0.5269
 7499TIP3    H122461   3.370   1.644   3.305  0.2027 -0.1787  0.0581
 7499TIP3    H222462   3.442   1.609   3.434  0.2308  1.5831  0.5485
 7500TIP3   OH222463   6.586   6.176   0.785  0.0792 -0.1852  0.0917
 7500TIP3    H122464   6.515   6.112   0.784  1.7517 -2.1498  0.0293
 7500TIP3    H222465   6.636   6.155   0.864  1.0468  0.5957 -0.2850
 7501TIP3   OH222466   4.209   5.976   4.830  0.1408 -0.5771  0.3966
 7501TIP3    H122467   4.117   5.999   4.848  0.0860 -0.6724  0.2434
 7501TIP3    H222468   4.204   5.890   4.790  0.0377  0.6038 -2.3802
 7502TIP3   OH222469   1.835   0.231   5.896  0.5197  0.2366  0.3588
 7502TIP3    H122470   1.833   0.163   5.962 -0.1656  0.3249  0.4291
 7502TIP3    H222471   1.821   0.185   5.813  0.2459  0.2684  0.3875
 7503TIP3   OH222472   3.884   2.691   1.712 -0.0804  0.3672  0.4093
 7503TIP3    H122473   3.918   2.691   1.801 -1.4045 -0.9604  0.9546
 7503TIP3    H222474   3.914   2.774   1.675  0.6653  0.8514  2.0117
 7504TIP3   OH222475   2.369   2.239   5.377 -0.0641  0.3991  0.4519
 7504TIP3    H122476   2.302   2.181   5.340  2.8465 -3.4085  0.4937
 7504TIP3    H222477   2.346   2.247   5.469 -1.7132  1.2192 -0.0001
 7505TIP3   OH222478   0.842   4.307   2.372 -0.7442  0.2928  0.3335
 7505TIP3    H122479   0.835   4.364   2.295  1.4227  0.1809 -0.0021
 7505TIP3    H222480   0.826   4.365   2.446  1.1651  1.3544 -0.0221
 7506TIP3   OH222481   3.284   2.934   4.638  0.0388  0.1807  0.2700
 7506TIP3    H122482   3.376   2.954   4.656 -0.0242  1.0542 -0.2900
 7506TIP3    H222483   3.281   2.920   4.544 -0.1247 -1.4990  0.5033
 7507TIP3   OH222484   5.399   6.128   3.316 -0.2359 -0.8178  0.5622
 7507TIP3    H122485   5.372   6.194   3.380 -0.1086 -1.8137  1.6768
 7507TIP3    H222486   5.426   6.053   3.369  3.4974 -0.4175 -0.4767
 7508TIP3   OH222487   3.818   3.152   0.768  0.1278  0.0002  0.5612
 7508TIP3    H122488   3.756   3.081   0.782  1.3311 -1.3361 -0.5842
 7508TIP3    H222489   3.872   3.153   0.847  0.1840 -0.4309  0.5280
 7509TIP3   OH222490   5.083   5.447   2.179 -0.0959  0.2162 -0.1423
 7509TIP3    H122491   5.121   5.486   2.257  1.3033  0.7602 -1.0635
 7509TIP3    H222492   5.027   5.516   2.143  1.2313  0.8880 -0.9712
 7510TIP3   OH222493   2.681   4.734   0.889  0.2944 -0.0841 -0.5170
 7510TIP3    H122494   2.612   4.722   0.824  0.8510 -0.5131 -1.0296
 7510TIP3    H222495   2.668   4.824   0.921 -1.0710 -0.4668  0.0703
 7511TIP3   OH222496   2.920   4.025   2.078  0.0035  0.1538 -0.4945
 7511TIP3    H122497   2.933   3.932   2.059 -1.3425 -0.2409  0.3399
 7511TIP3    H222498   2.899   4.028   2.172  1.1098  1.4296 -0.2585
 7512TIP3   OH222499   6.241   3.743   0.876 -0.3371 -0.7033  0.2232
 7512TIP3    H122500   6.255   3.746   0.782 -0.7191 -0.9177  0.1605
 7512TIP3    H222501   6.291   3.667   0.905  0.8338  0.0982  0.3781
 7513TIP3   OH222502   6.307   4.264   1.639  0.1595  0.3702 -0.7370
 7513TIP3    H122503   6.291   4.321   1.714  0.4487  0.2814 -0.6112
 7513TIP3    H222504   6.314   4.325   1.565 -0.7831  0.4185 -0.8061
 7514TIP3   OH222505   0.749   4.589   1.799 -0.3331 -1.1254  0.0651
 7514TIP3    H122506   0.731   4.632   1.883  1.7636 -0.0031  0.0239
 7514TIP3    H222507   0.716   4.500   1.810 -1.9443 -0.4284  1.3156
 7515TIP3   OH222508   4.020   4.679   1.000 -0.7040  0.1675  0.2465
 7515TIP3    H122509   4.060   4.593   0.988 -1.4844 -0.2582  0.6373
 7515TIP3    H222510   3.926   4.661   1.005 -0.9347  1.1311 -0.4495
 7516TIP3   OH222511   4.212   4.688   2.369 -0.1750 -0.7374 -0.2522
 7516TIP3    H122512   4.210   4.734   2.453  1.3112 -1.0106 -0.0339
 7516TIP3    H222513   4.249   4.751   2.308 -0.6861 -0.7390 -0.5640
 7517TIP3   OH222514   6.191   0.560   5.706 -0.3074  0.5337 -0.3181
 7517TIP3    H122515   6.278   0.598   5.706 -0.3508  0.6394  0.0850
 7517TIP3    H222516   6.176   0.534   5.797 -0.2213 -0.5637 -0.5976
 7518TIP3   OH222517   6.640   1.594   0.456  0.1622 -1.0890  0.0719
 7518TIP3    H122518   6.700   1.521   0.471 -2.4245 -3.2954  0.3501
 7518TIP3    H222519   6.561   1.554   0.421 -0.8550  1.8066 -1.2945
 7519TIP3   OH222520   1.445   4.677   0.167  0.2241 -0.2032 -0.2900
 7519TIP3    H122521   1.363   4.632   0.147 -0.4155  0.6855  0.3101
 7519TIP3    H222522   1.438   4.700   0.259  0.2446  1.7157 -0.7222
 7520TIP3   OH222523   0.592   1.149   5.710  0.1305  0.2819 -0.0240
 7520TIP3    H122524   0.625   1.171   5.623  2.0818  0.3534  0.6924
 7520TIP3    H222525   0.635   1.212   5.769 -1.9316  0.9128  0.9161
 7521TIP3   OH222526   0.159   1.706   5.628 -0.1052 -0.2647 -0.1120
 7521TIP3    H122527   0.234   1.653   5.599 -0.0514 -0.5415  0.5208
 7521TIP3    H222528   0.104   1.714   5.550  0.9640  0.6241 -0.8284
 7522TIP3   OH222529   4.443   6.656   0.191  0.8986  0.0670 -0.1699
 7522TIP3    H122530   4.351   6.671   0.214  0.6299  0.0544 -1.1634
 7522TIP3    H222531   4.481   6.613   0.268  0.4834  1.4913  0.8625
 7523TIP3   OH222532   0.881   0.650   5.591 -0.4261  0.1554  0.5167
 7523TIP3    H122533   0.930   0.611   5.518  1.0356  1.1763  0.9140
 7523TIP3    H222534   0.925   0.618   5.669 -1.0757  0.2300  0.9182
 7524TIP3   OH222535   5.890   3.503   2.872  0.3212  0.3847  0.2123
 7524TIP3    H122536   5.814   3.560   2.864  0.3462  0.4190  0.2176
 7524TIP3    H222537   5.856   3.421   2.908  0.4055  0.6607  0.9264
 7525TIP3   OH222538   6.700   2.388   0.551  0.2388 -0.5449  0.2841
 7525TIP3    H122539   6.769   2.322   0.543  2.0774  1.1680  1.0863
 7525TIP3    H222540   6.741   2.459   0.600 -1.9769  0.7770  0.3432
 7526TIP3   OH222541   0.861   6.267   2.177  0.4339  0.0486 -0.3152
 7526TIP3    H122542   0.896   6.305   2.096  1.8735 -0.8686 -0.1562
 7526TIP3    H222543   0.875   6.335   2.243  0.9399  0.0979 -0.4711
 7527TIP3   OH222544   1.303   0.459   5.518 -0.4900 -0.3101  0.1828
 7527TIP3    H122545   1.233   0.400   5.544 -1.4056 -0.1772 -1.7795
 7527TIP3    H222546   1.383   0.419   5.554 -1.2463 -1.9825  0.0932
 7528TIP3   OH222547   4.177   2.700   1.659  0.1265  0.1124 -0.0663
 7528TIP3    H122548   4.201   2.722   1.749  0.5288  1.1914 -0.4225
 7528TIP3    H222549   4.118   2.625   1.668  2.0219 -1.3329  0.9410
 7529TIP3   OH222550   6.540   5.205   3.237  0.1920  0.2608  0.2251
 7529TIP3    H122551   6.496   5.135   3.190  0.7663  0.2659 -0.3389
 7529TIP3    H222552   6.521   5.284   3.186 -0.0579  0.4490  0.5955
 7530TIP3   OH222553   3.870   6.689   3.126 -0.3635  0.8466 -0.3159
 7530TIP3    H122554   3.861   6.734   3.210  0.6845  0.9841 -0.2642
 7530TIP3    H222555   3.899   6.757   3.066 -1.2996  0.7877 -0.8360
 7531TIP3   OH222556   2.144   5.601   5.865 -0.8116  0.3784 -0.1064
 7531TIP3    H122557   2.102   5.636   5.786 -1.6683 -0.3670 -0.0036
 7531TIP3    H222558   2.201   5.531   5.834 -0.8858  0.3155 -0.1020
 7532TIP3   OH222559   6.877   6.519   2.915 -0.1656 -0.4195  0.3858
 7532TIP3    H122560   6.790   6.504   2.878  0.3239  1.5346 -1.8625
 7532TIP3    H222561   6.933   6.456   2.869  0.1022  0.6309 -0.8045
 7533TIP3   OH222562   2.681   6.367   3.045 -0.2945 -0.1011  0.2145
 7533TIP3    H122563   2.770   6.349   3.015  0.0226  1.1970  0.3426
 7533TIP3    H222564   2.681   6.459   3.069 -0.9719 -0.6615  2.7097
 7534TIP3   OH222565   0.879   2.305   3.339 -0.0719  0.0686 -0.4505
 7534TIP3    H122566   0.850   2.257   3.416  1.4047 -0.4495 -0.1805
 7534TIP3    H222567   0.910   2.238   3.278 -1.8172  0.4191 -1.8024
 7535TIP3   OH222568   0.128   0.350   2.628  0.4262  0.0046 -0.8056
 7535TIP3    H122569   0.184   0.277   2.652  0.3458  0.2431  0.1400
 7535TIP3    H222570   0.092   0.326   2.543  0.1999 -1.1688 -0.3904
 7536TIP3   OH222571   2.676   0.395   4.841 -0.4218  0.1748 -0.0076
 7536TIP3    H122572   2.738   0.347   4.896  1.1285 -0.0086 -1.8134
 7536TIP3    H222573   2.649   0.470   4.894  0.8797 -0.0803  1.0572
 7537TIP3   OH222574   2.173   2.045   5.260  0.4963 -0.1527  0.1477
 7537TIP3    H122575   2.188   1.984   5.188 -0.8434 -0.4803  0.1312
 7537TIP3    H222576   2.129   1.992   5.327  0.3090  0.5290  0.5707
 7538TIP3   OH222577   7.217   1.479   1.421  0.3412  0.1782 -0.6868
 7538TIP3    H122578   7.188   1.421   1.351  0.7676  0.1587 -0.8485
 7538TIP3    H222579   7.145   1.540   1.433 -0.3714 -0.7426 -0.1075
 7539TIP3   OH222580   5.726   6.338   5.403  0.2755  0.0168  0.0049
 7539TIP3    H122581   5.793   6.334   5.336  0.9074  0.9845  0.5654
 7539TIP3    H222582   5.652   6.383   5.362  1.0003  1.4420  0.2251
 7540TIP3   OH222583   1.385   6.804   4.397  0.1403 -0.5578  0.1756
 7540TIP3    H122584   1.360   6.873   4.337 -0.1014 -0.4650  0.3845
 7540TIP3    H222585   1.338   6.726   4.367  1.6590 -1.0587 -1.0639
 7541TIP3   OH222586   3.826   3.287   5.039  0.4666 -0.0416 -0.2309
 7541TIP3    H122587   3.895   3.351   5.056  0.2908 -0.0447  0.5143
 7541TIP3    H222588   3.744   3.338   5.043  0.2445 -0.4826  1.4345
 7542TIP3   OH222589   0.713   2.776   1.912  0.4953  0.0017  0.2654
 7542TIP3    H122590   0.740   2.867   1.905  1.6308 -0.3614 -0.2367
 7542TIP3    H222591   0.723   2.756   2.005  0.4641  0.3175  0.3382
 7543TIP3   OH222592   2.563   6.278   3.963 -1.0665  0.1843  0.0904
 7543TIP3    H122593   2.643   6.267   3.912 -1.2930 -1.8128  0.0602
 7543TIP3    H222594   2.564   6.369   3.991  2.0628 -0.1367  1.4856
 7544TIP3   OH222595   3.110   5.488   5.855 -0.2015  0.4655  0.2975
 7544TIP3    H122596   3.144   5.515   5.940  0.2557 -0.9645  0.5951
 7544TIP3    H222597   3.188   5.480   5.800 -0.5273  1.7655 -0.3937
 7545TIP3   OH222598   1.914   1.614   3.989  0.7865 -0.1055 -0.5021
 7545TIP3    H122599   1.957   1.574   3.913  0.2877  1.9803 -2.0093
 7545TIP3    H222600   1.825   1.580   3.987  1.3622 -1.7610  0.5326
 7546TIP3   OH222601   7.110   3.152   1.955  0.0408  0.1743 -0.0594
 7546TIP3    H122602   7.017   3.130   1.957 -0.7476  3.0625  2.4017
 7546TIP3    H222603   7.153   3.075   1.992 -1.2329 -1.3779 -1.5969
 7547TIP3   OH222604   4.547   3.630   5.075  0.0541 -0.0062 -0.1455
 7547TIP3    H122605   4.486   3.703   5.068 -1.3620 -0.8873  1.8524
 7547TIP3    H222606   4.617   3.662   5.133 -1.1559 -0.4934  1.6876
 7548TIP3   OH222607   1.746   5.363   3.058 -0.6956  0.4884  0.2034
 7548TIP3    H122608   1.747   5.406   2.973  0.1136 -1.1168 -0.6498
 7548TIP3    H222609   1.730   5.433   3.121  0.4711  1.9940 -1.1172
 7549TIP3   OH222610   1.652   4.258   1.820  0.1801  0.2671  1.1270
 7549TIP3    H122611   1.740   4.254   1.856  0.7287  0.4467 -0.1271
 7549TIP3    H222612   1.662   4.231   1.728 -1.0684  0.2681  0.9681
 7550TIP3   OH222613   5.796   1.053   2.285  0.2307 -0.6523 -0.1141
 7550TIP3    H122614   5.716   1.008   2.315 -0.2779  0.1795 -0.1774
 7550TIP3    H222615   5.768   1.144   2.273  1.3686 -0.1909  0.5720
 7551TIP3   OH222616   4.997   3.367   0.301 -0.1021 -0.0064 -0.3368
 7551TIP3    H122617   4.954   3.373   0.386 -0.7776 -1.7287 -0.5126
 7551TIP3    H222618   4.990   3.455   0.264 -3.5040 -0.1492 -0.3300
 7552TIP3   OH222619   6.364   3.539   2.580 -0.4463 -0.4782  0.4674
 7552TIP3    H122620   6.269   3.538   2.592 -0.3174  0.5605  1.7147
 7552TIP3    H222621   6.396   3.606   2.640  0.7517  1.7997 -2.4682
 7553TIP3   OH222622   2.001   5.832   2.282 -0.1585 -0.6290 -0.0845
 7553TIP3    H122623   2.000   5.820   2.187  2.4089  0.2099 -0.2814
 7553TIP3    H222624   1.984   5.925   2.295 -0.1290 -0.6714  0.2641
 7554TIP3   OH222625   1.009   6.389   1.954  0.0007  0.3862 -0.4225
 7554TIP3    H122626   1.100   6.393   1.925 -0.1475  1.1556 -0.8146
 7554TIP3    H222627   0.996   6.468   2.006  0.1003 -0.6935  1.3568
 7555TIP3   OH222628   1.212   2.983   3.358  0.4652 -0.5476  0.0178
 7555TIP3    H122629   1.297   2.968   3.316 -0.8931  0.5739 -3.4991
 7555TIP3    H222630   1.154   2.919   3.318 -0.6253 -0.4628  1.4126
 7556TIP3   OH222631   5.974   6.617   2.362 -0.4714 -0.3671  0.3930
 7556TIP3    H122632   5.921   6.571   2.427  0.2959  0.8128  1.9155
 7556TIP3    H222633   6.051   6.647   2.410  0.3010  0.2543 -1.1487
 7557TIP3   OH222634   3.510   2.375   3.490  0.7561  0.1150 -0.3512
 7557TIP3    H122635   3.443   2.348   3.553  0.3350 -0.5277 -1.0534
 7557TIP3    H222636   3.593   2.352   3.531  0.4291 -1.9481 -0.7463
 7558TIP3   OH222637   4.492   2.192   1.138 -0.0821  0.5048 -0.2915
 7558TIP3    H122638   4.451   2.197   1.225 -0.5537 -0.3979 -0.4506
 7558TIP3    H222639   4.499   2.283   1.110 -3.3645  0.7095 -0.8820
 7559TIP3   OH222640   4.588   5.250   0.676 -0.5690  0.5390 -0.5019
 7559TIP3    H122641   4.644   5.179   0.706 -1.3623  0.0491 -0.1352
 7559TIP3    H222642   4.647   5.323   0.660  0.3688 -0.4349 -1.6444
 7560TIP3   OH222643   1.531   5.247   2.925  0.3403  0.3261  0.5201
 7560TIP3    H122644   1.512   5.318   2.864 -0.6754  0.4168  0.9192
 7560TIP3    H222645   1.590   5.286   2.990  1.6660  0.1486 -0.5265
 7561TIP3   OH222646   5.384   4.418   2.383 -0.3968 -0.0579  0.1553
 7561TIP3    H122647   5.383   4.503   2.425  0.3313 -0.6071  1.3307
 7561TIP3    H222648   5.325   4.427   2.308 -0.4490  1.4147  0.3544
 7562TIP3   OH222649   3.681   2.882   0.776  0.0433  0.3168 -0.2326
 7562TIP3    H122650   3.678   2.927   0.692  0.2153 -0.5759 -0.7291
 7562TIP3    H222651   3.604   2.825   0.776  1.0095 -1.0702 -0.6135
 7563TIP3   OH222652   1.500   3.168   2.190  0.1353 -0.3205  0.3343
 7563TIP3    H122653   1.559   3.122   2.130 -0.0942 -0.2917  0.0869
 7563TIP3    H222654   1.499   3.114   2.269  0.0351 -0.6269  0.1235
 7564TIP3   OH222655   7.026   1.111   5.404  0.8037  0.6241  0.2166
 7564TIP3    H122656   7.039   1.021   5.373  0.2736  1.2581 -1.9600
 7564TIP3    H222657   6.983   1.101   5.489 -1.0431 -1.1783 -0.8611
 7565TIP3   OH222658   7.057   1.156   1.726 -0.7160  0.3004  0.0901
 7565TIP3    H122659   6.980   1.164   1.782 -0.2180 -0.4497  0.9164
 7565TIP3    H222660   7.099   1.074   1.754 -0.5568 -0.2136 -1.5158
 7566TIP3   OH222661   6.477   3.561   3.708  0.3750 -0.4120 -0.0757
 7566TIP3    H122662   6.477   3.581   3.615  0.0359  1.8848  0.3478
 7566TIP3    H222663   6.525   3.634   3.748 -1.5077 -0.0756  1.7334
 7567TIP3   OH222664   4.764   4.528   1.329  0.1377 -0.0736 -0.0134
 7567TIP3    H122665   4.811   4.535   1.412 -0.8759  0.6833  0.5132
 7567TIP3    H222666   4.811   4.460   1.281  2.3549  1.2864  0.0789
 7568TIP3   OH222667   4.472   0.980   3.819 -0.0616  0.3208 -0.2931
 7568TIP3    H122668   4.378   0.966   3.806  0.0042 -0.5967  0.1630
 7568TIP3    H222669   4.513   0.901   3.783  0.3716 -0.4318  1.7264
 7569TIP3   OH222670   3.155   0.352   5.484  0.0656  0.4218 -0.0446
 7569TIP3    H122671   3.163   0.396   5.569 -1.0573  3.2226 -1.2761
 7569TIP3    H222672   3.063   0.361   5.461 -0.0651 -2.0393 -0.7432
 7570TIP3   OH222673   7.175   4.474   0.728  0.5374  0.2409  0.2801
 7570TIP3    H122674   7.169   4.558   0.774  0.4566  0.3627  0.0467
 7570TIP3    H222675   7.116   4.417   0.776  1.6954 -0.1035  1.3465
 7571TIP3   OH222676   6.768   4.652   1.024 -0.0641 -0.9339 -0.4191
 7571TIP3    H122677   6.814   4.593   1.084  0.9611 -1.3180 -1.5647
 7571TIP3    H222678   6.786   4.739   1.058 -0.9608 -1.2032  0.8424
 7572TIP3   OH222679   6.097   1.649   2.258  0.3061  0.6415  0.0929
 7572TIP3    H122680   6.121   1.597   2.335 -0.8961 -1.6322 -0.9744
 7572TIP3    H222681   6.019   1.607   2.224  0.4493  1.9601 -2.0469
 7573TIP3   OH222682   5.410   4.225   5.390  0.1338  0.4983  0.2726
 7573TIP3    H122683   5.492   4.228   5.340  0.2890  2.6471  0.5372
 7573TIP3    H222684   5.438   4.210   5.480  0.2625  1.2229  0.3616
 7574TIP3   OH222685   4.715   3.559   1.260  0.0207  0.1894  0.2647
 7574TIP3    H122686   4.641   3.560   1.199  0.0086  1.6486  0.2738
 7574TIP3    H222687   4.696   3.629   1.322  0.1670 -1.1067  1.8271
 7575TIP3   OH222688   6.687   1.284   2.713  0.3523  0.0908 -0.2097
 7575TIP3    H122689   6.730   1.263   2.796 -0.0343  0.5079  0.0996
 7575TIP3    H222690   6.678   1.379   2.714  0.2868  0.0939 -0.7038
 7576TIP3   OH222691   3.447   0.857   4.719 -0.1654  0.0065 -0.5499
 7576TIP3    H122692   3.360   0.831   4.689 -0.1885 -2.3009  1.2012
 7576TIP3    H222693   3.433   0.886   4.809  0.7086  0.9523 -0.7046
 7577TIP3   OH222694   0.977   6.009   0.020  0.1228 -0.1455  0.1923
 7577TIP3    H122695   1.036   6.005  -0.056  0.6782  1.4678  0.5161
 7577TIP3    H222696   1.030   6.047   0.090 -1.1989  1.0390  0.5873
 7578TIP3   OH222697   4.133   2.171   2.565 -0.2842 -0.0556 -0.4217
 7578TIP3    H122698   4.209   2.172   2.507  0.9301 -0.6229  1.0790
 7578TIP3    H222699   4.066   2.221   2.518  0.6487 -0.4333 -2.2413
 7579TIP3   OH222700   0.289   0.641   3.032  0.3063 -0.9375 -0.0351
 7579TIP3    H122701   0.286   0.572   2.965  2.3265 -1.9715  0.8343
 7579TIP3    H222702   0.382   0.648   3.054 -0.0862  0.7409  1.2956
 7580TIP3   OH222703   6.808   1.485   1.212  0.5053  0.1404  0.2615
 7580TIP3    H122704   6.851   1.519   1.133 -2.0222  0.2509 -1.1588
 7580TIP3    H222705   6.796   1.392   1.194 -0.4562  0.2491  0.3002
 7581TIP3   OH222706   4.935   4.651   4.064 -0.4346 -0.4623  0.7649
 7581TIP3    H122707   4.850   4.609   4.055 -1.5100  1.5376  1.0776
 7581TIP3    H222708   4.935   4.721   3.999  1.2474 -0.8183  0.3282
 7582TIP3   OH222709   0.479   3.127   3.320  0.0562  0.1976  0.0950
 7582TIP3    H122710   0.434   3.196   3.368 -1.6738 -1.3911  0.8901
 7582TIP3    H222711   0.410   3.064   3.299  1.8585 -2.4051  1.4211
 7583TIP3   OH222712   5.513   3.327   1.863 -0.3571 -0.2085 -0.3432
 7583TIP3    H122713   5.469   3.411   1.852 -0.0134 -0.1746 -1.5247
 7583TIP3    H222714   5.539   3.300   1.775  1.9158 -0.2635  0.2740
 7584TIP3   OH222715   1.078   1.048   3.840 -0.0109 -0.6571  0.4411
 7584TIP3    H122716   1.078   1.141   3.818 -0.9096 -0.4887  1.0993
 7584TIP3    H222717   0.987   1.029   3.862 -0.0521 -1.9568 -0.7508
 7585TIP3   OH222718   1.925   3.334   2.650  0.0211 -0.5002 -0.0711
 7585TIP3    H122719   1.979   3.387   2.592  1.2719 -1.0871  0.5224
 7585TIP3    H222720   1.896   3.260   2.595 -1.6579  0.6807 -0.8750
 7586TIP3   OH222721   3.939   2.940   4.928 -0.9770  0.3450 -0.4408
 7586TIP3    H122722   3.949   2.982   5.013 -1.0907  0.8849 -0.6849
 7586TIP3    H222723   3.961   2.848   4.943 -0.5511  0.5265  0.0714
 7587TIP3   OH222724   6.811   0.907   1.485  0.4149 -0.2511  0.5464
 7587TIP3    H122725   6.778   0.881   1.399 -0.2548  0.1248  0.6825
 7587TIP3    H222726   6.865   0.984   1.468 -1.1601  0.9131  0.6580
 7588TIP3   OH222727   2.759   0.928   4.625 -0.9063 -0.3853 -0.5831
 7588TIP3    H122728   2.768   0.929   4.530 -0.3988 -0.6653 -0.5408
 7588TIP3    H222729   2.766   0.835   4.649 -0.8165 -0.2958 -0.2557
 7589TIP3   OH222730   4.747   6.714   0.598  0.2729  0.5901 -0.3440
 7589TIP3    H122731   4.678   6.772   0.565 -0.2244  0.0896 -0.2037
 7589TIP3    H222732   4.821   6.727   0.538 -0.6669 -0.4345 -1.8029
 7590TIP3   OH222733   3.536   0.881   3.056 -0.1186  0.3274  0.1507
 7590TIP3    H122734   3.490   0.844   3.131 -1.2371 -2.1558 -1.6335
 7590TIP3    H222735   3.492   0.965   3.039 -1.2277 -0.0697  1.0007
 7591TIP3   OH222736   3.345   0.123   4.367 -0.3805 -0.1984  0.4213
 7591TIP3    H122737   3.365   0.055   4.302  4.1449  1.5391 -0.4534
 7591TIP3    H222738   3.394   0.097   4.445 -0.1657  1.0605  0.7331
 7592TIP3   OH222739   2.014   2.087   1.135 -0.3127  0.6218  0.5021
 7592TIP3    H122740   1.953   2.082   1.209  0.3001  0.7600  1.0222
 7592TIP3    H222741   2.028   2.180   1.121 -1.4036  0.6414 -0.6171
 7593TIP3   OH222742   3.956   0.405   2.208 -0.0159  0.1558 -0.0890
 7593TIP3    H122743   4.008   0.434   2.134  1.7077  4.5106  2.4793
 7593TIP3    H222744   3.893   0.475   2.222  2.1066  1.5069  4.5441
 7594TIP3   OH222745   6.954   0.067   0.767  0.3127 -0.2228 -0.4013
 7594TIP3    H122746   6.979  -0.021   0.797  0.8061  0.5937  1.8101
 7594TIP3    H222747   6.859   0.061   0.753  0.5325 -1.4235 -1.5451
 7595TIP3   OH222748   0.354   3.574   4.465  0.0525  0.0594 -0.6656
 7595TIP3    H122749   0.414   3.540   4.398  1.8749  0.6878  0.5936
 7595TIP3    H222750   0.379   3.665   4.476 -1.1887  0.3606 -0.1190
 7596TIP3   OH222751   2.442   0.341   4.392 -0.5065  0.3558 -0.3499
 7596TIP3    H122752   2.480   0.328   4.479 -0.1738 -2.1331 -0.8071
 7596TIP3    H222753   2.503   0.400   4.348  1.6829 -1.7329 -0.2897
 7597TIP3   OH222754   2.442   0.441   3.637 -0.5759  0.1539 -0.1543
 7597TIP3    H122755   2.391   0.475   3.711  0.0107  1.6253 -0.3838
 7597TIP3    H222756   2.514   0.393   3.678  0.0494  1.4138  0.2840
 7598TIP3   OH222757   3.544   6.571   3.413  0.1066 -0.4244  0.3327
 7598TIP3    H122758   3.524   6.569   3.507  0.2310  0.3236  0.3823
 7598TIP3    H222759   3.587   6.655   3.400  0.4853 -0.7145 -0.3224
 7599TIP3   OH222760   1.750   1.109   1.621 -0.7281  0.2655 -0.1804
 7599TIP3    H122761   1.759   1.043   1.552 -0.3615 -1.0773  1.0992
 7599TIP3    H222762   1.838   1.146   1.630 -0.3143 -0.8831  0.7955
 7600TIP3   OH222763   5.478   6.448   5.289 -0.1717  0.4255 -0.4779
 7600TIP3    H122764   5.465   6.543   5.288  1.3177  0.7193  1.2479
 7600TIP3    H222765   5.398   6.413   5.328 -1.2850  0.8167 -2.3392
 7601TIP3   OH222766   4.846   4.961   4.805 -0.2317  0.2295  0.3737
 7601TIP3    H122767   4.927   4.964   4.752  0.0002 -0.0693  0.7102
 7601TIP3    H222768   4.797   5.039   4.777 -0.3800 -0.2274 -0.7067
 7602TIP3   OH222769   2.892   6.028   2.936  0.3174  0.4264 -0.0340
 7602TIP3    H122770   2.882   5.974   2.858  1.2837  0.4728 -0.2044
 7602TIP3    H222771   2.941   5.973   2.997 -2.0478 -0.3288  1.2980
 7603TIP3   OH222772   5.214   6.768   4.530  0.2465 -0.0427 -0.0146
 7603TIP3    H122773   5.149   6.762   4.460  1.1622  1.5462 -1.0480
 7603TIP3    H222774   5.195   6.692   4.586 -2.3179  0.2223 -0.3895
 7604TIP3   OH222775   0.060   2.175   2.944 -0.0577  0.0641  0.2312
 7604TIP3    H122776   0.023   2.187   2.856 -1.3052  0.6787  0.8165
 7604TIP3    H222777   0.147   2.137   2.928 -0.6112 -0.6871 -1.2302
 7605TIP3   OH222778   0.537   5.539   0.958 -0.4024 -0.0030  0.5594
 7605TIP3    H122779   0.588   5.471   0.915 -2.2864 -1.6168  0.7559
 7605TIP3    H222780   0.603   5.603   0.988  1.1818 -0.1531 -2.2433
 7606TIP3   OH222781   2.055   0.662   5.466  0.3913  0.0289 -0.2443
 7606TIP3    H122782   2.147   0.641   5.479  0.4379 -1.0240 -1.9409
 7606TIP3    H222783   2.055   0.747   5.422  0.4928  0.4926  0.6330
 7607TIP3   OH222784   1.379   5.466   3.286 -0.1570 -0.5004 -0.2076
 7607TIP3    H122785   1.408   5.542   3.237  1.1319 -0.8707 -0.0487
 7607TIP3    H222786   1.329   5.503   3.360  1.1479  0.2435  0.3330
 7608TIP3   OH222787   3.450   0.089   4.022 -0.4906 -0.3887 -0.3231
 7608TIP3    H122788   3.425   0.106   3.931 -1.5925 -0.9929 -0.1437
 7608TIP3    H222789   3.377   0.039   4.058 -0.7326  1.0252  1.2953
 7609TIP3   OH222790   1.223   4.273   3.950 -0.4468 -0.1345  0.3307
 7609TIP3    H122791   1.318   4.275   3.955 -0.2474 -0.7737 -1.9799
 7609TIP3    H222792   1.196   4.219   4.025  0.8527  1.2063  1.8367
 7610TIP3   OH222793   2.412   1.809   2.402  0.9188  0.3929  0.1484
 7610TIP3    H122794   2.384   1.871   2.469  0.0029  0.7123 -0.5101
 7610TIP3    H222795   2.480   1.856   2.353  1.5558  0.1766  0.7967
 7611TIP3   OH222796   6.755   5.625   5.282 -0.0425 -0.2913  0.3827
 7611TIP3    H122797   6.689   5.610   5.350 -1.7731  2.2715 -0.5907
 7611TIP3    H222798   6.710   5.609   5.200  1.1941 -0.4922 -0.2890
 7612TIP3   OH222799   6.096   4.433   3.037  0.1823  0.0601 -0.2604
 7612TIP3    H122800   6.162   4.446   3.104  0.2100  0.6972 -0.4041
 7612TIP3    H222801   6.044   4.513   3.038 -2.4007 -1.4811  1.8067
 7613TIP3   OH222802   1.153   4.725   4.250  0.1068 -0.8761  0.2640
 7613TIP3    H122803   1.129   4.817   4.236 -1.2619 -0.8292  2.4348
 7613TIP3    H222804   1.236   4.715   4.203  0.7070  1.6944  0.6058
 7614TIP3   OH222805   6.362   1.124   5.286  0.2762 -0.2918  0.8654
 7614TIP3    H122806   6.442   1.150   5.333  0.3024  1.1870  0.0614
 7614TIP3    H222807   6.344   1.197   5.228 -0.0616 -1.8240 -1.0596
 7615TIP3   OH222808   5.797   4.559   4.298 -0.4272 -0.4415  0.0466
 7615TIP3    H122809   5.761   4.489   4.351 -1.8543  0.3002  0.1009
 7615TIP3    H222810   5.852   4.515   4.233 -1.6816 -1.6373 -0.2252
 7616TIP3   OH222811   0.665   6.252   4.976 -0.7673  0.2394  0.2037
 7616TIP3    H122812   0.643   6.312   5.047 -0.8659  1.0982 -0.5234
 7616TIP3    H222813   0.732   6.300   4.926 -0.3051 -0.5786  0.0269
 7617TIP3   OH222814   4.951   1.394   4.950 -0.4849 -0.1082  0.2889
 7617TIP3    H122815   4.912   1.470   4.992 -0.1682  0.6735 -0.7844
 7617TIP3    H222816   4.949   1.326   5.017 -4.2095 -0.3218  0.1965
 7618TIP3   OH222817   5.557   4.377   0.360  0.6936  0.4853  0.2584
 7618TIP3    H122818   5.616   4.322   0.308  1.0618 -0.9706  2.0999
 7618TIP3    H222819   5.470   4.339   0.347  0.6932  0.5095  0.1936
 7619TIP3   OH222820   1.946   2.725   1.250 -0.0655  0.1822  0.0972
 7619TIP3    H122821   2.027   2.735   1.201  1.0073 -1.0242  1.5436
 7619TIP3    H222822   1.895   2.661   1.200  0.1531  0.4304 -0.4540
 7620TIP3   OH222823   6.172   1.424   4.561  0.0659  0.0466  0.0602
 7620TIP3    H122824   6.249   1.463   4.602 -0.8958  0.7999  1.2056
 7620TIP3    H222825   6.127   1.497   4.520 -0.4364 -0.2647  0.0468
 7621TIP3   OH222826   2.642   5.152   3.179 -0.0961  0.2672  0.1484
 7621TIP3    H122827   2.618   5.093   3.107  0.1519 -0.0377  0.3090
 7621TIP3    H222828   2.653   5.094   3.255 -1.7769  0.7356  0.8012
 7622TIP3   OH222829   2.288   3.960   1.772 -0.2060  0.5966 -0.1810
 7622TIP3    H122830   2.257   4.050   1.761 -0.7760  0.3665 -0.4789
 7622TIP3    H222831   2.240   3.909   1.707  0.8580  0.2369 -0.7058
 7623TIP3   OH222832   4.326   2.109   3.662  0.0082 -0.1381 -0.5371
 7623TIP3    H122833   4.279   2.027   3.678  1.3842 -0.8553  0.0460
 7623TIP3    H222834   4.373   2.126   3.744 -0.5727  1.4753 -0.5082
 7624TIP3   OH222835   6.837   4.202   3.044 -0.4437  0.1998 -0.0708
 7624TIP3    H122836   6.913   4.200   3.102 -1.4408 -1.5206  1.2861
 7624TIP3    H222837   6.763   4.219   3.102 -1.1066  2.4247 -1.4343
 7625TIP3   OH222838   5.607   0.969   4.738  0.0653 -0.6393  0.1153
 7625TIP3    H122839   5.559   1.021   4.673  2.0588 -1.0015 -1.7745
 7625TIP3    H222840   5.604   1.021   4.818  0.7644  1.7336 -1.3039
 7626TIP3   OH222841   4.783   6.469   2.692  1.0300 -0.1339 -0.0465
 7626TIP3    H122842   4.801   6.559   2.721  1.0090  0.0935 -0.7073
 7626TIP3    H222843   4.803   6.414   2.768 -3.0722  0.7321  1.9625
 7627TIP3   OH222844   4.418   0.880   3.540  0.4268 -0.2598  0.7574
 7627TIP3    H122845   4.433   0.910   3.450 -2.1669  3.0790  1.2653
 7627TIP3    H222846   4.379   0.793   3.530 -1.2941  0.6930 -1.4759
 7628TIP3   OH222847   0.518   1.856   1.736  0.9326 -0.7073  0.4608
 7628TIP3    H122848   0.557   1.813   1.812 -0.6365 -0.3956  1.4955
 7628TIP3    H222849   0.536   1.949   1.749  0.3000 -0.6124  0.6738
 7629TIP3   OH222850   0.605   2.022   4.846  0.0906  0.4020  0.2552
 7629TIP3    H122851   0.578   2.105   4.806  0.1433  0.4334  0.2849
 7629TIP3    H222852   0.659   2.048   4.921 -0.4014  0.3550  0.6293
 7630TIP3   OH222853   5.218   1.422   3.022 -0.4080 -0.2298 -0.0513
 7630TIP3    H122854   5.259   1.360   2.962  0.3420  0.8398 -0.6686
 7630TIP3    H222855   5.174   1.367   3.087 -0.2771 -1.3980 -0.9293
 7631TIP3   OH222856   6.051   4.388   2.137 -0.3545  0.0660  0.2198
 7631TIP3    H122857   6.095   4.306   2.117 -2.6122 -1.5075  1.1849
 7631TIP3    H222858   5.996   4.406   2.061  1.0449  1.4355 -0.5278
 7632TIP3   OH222859   5.307   3.112   0.989  0.1325  0.3435 -0.3635
 7632TIP3    H122860   5.342   3.201   0.997  1.3070 -0.2068  1.2577
 7632TIP3    H222861   5.368   3.068   0.929 -0.5140  0.6458 -1.2558
 7633TIP3   OH222862   3.244   1.155   0.160 -0.0896  0.1869  0.1758
 7633TIP3    H122863   3.157   1.187   0.135 -0.2494 -0.2633  0.1515
 7633TIP3    H222864   3.300   1.182   0.087 -0.4477 -0.6218 -0.4159
 7634TIP3   OH222865   4.820   0.971   0.789 -0.3823 -0.2394 -0.1126
 7634TIP3    H122866   4.794   1.052   0.746  0.7468 -0.4960 -1.3559
 7634TIP3    H222867   4.891   0.996   0.849  0.1741 -0.3362 -0.7200
 7635TIP3   OH222868   6.169   4.162   3.590 -0.1124 -0.7262  0.1669
 7635TIP3    H122869   6.258   4.129   3.594  0.0102 -0.5774 -0.8862
 7635TIP3    H222870   6.163   4.225   3.661  0.1987 -1.6965  1.0758
 7636TIP3   OH222871   6.492   0.356   4.020 -0.2432  0.0850  0.4678
 7636TIP3    H122872   6.474   0.450   4.026 -0.6176  0.0394  0.0980
 7636TIP3    H222873   6.539   0.335   4.101 -0.5353  0.5079  0.7491
 7637TIP3   OH222874   2.779   0.851   1.675 -0.2890 -0.0861 -0.1748
 7637TIP3    H122875   2.729   0.774   1.703  0.0429 -0.8148 -1.4657
 7637TIP3    H222876   2.740   0.924   1.722  0.0228 -1.1531  1.8726
 7638TIP3   OH222877   2.814   6.260   3.829  0.3917  0.4324 -0.3386
 7638TIP3    H122878   2.864   6.196   3.878 -0.5132  0.8526  1.1970
 7638TIP3    H222879   2.879   6.319   3.793  1.0978 -0.0365  0.1466
 7639TIP3   OH222880   6.932   5.728   4.551 -0.5118  0.1014  0.5670
 7639TIP3    H122881   6.925   5.632   4.560  0.9528 -0.0011  0.9525
 7639TIP3    H222882   7.017   5.741   4.508 -1.1358  1.2072 -0.3630
 7640TIP3   OH222883   0.867   3.126   0.498  0.4699 -0.2547  0.0795
 7640TIP3    H122884   0.791   3.178   0.469  0.2901 -0.0808  0.8394
 7640TIP3    H222885   0.837   3.082   0.578  1.1567 -0.2197  0.3633
 7641TIP3   OH222886   5.808   4.801   1.842  0.5852 -0.8945 -0.5130
 7641TIP3    H122887   5.850   4.840   1.765 -0.4343  0.9396 -0.1958
 7641TIP3    H222888   5.881   4.781   1.901  1.3888 -2.3702 -1.9141
 7642TIP3   OH222889   4.199   4.623   3.886  0.0653  0.2602  0.3299
 7642TIP3    H122890   4.253   4.569   3.828 -0.6918  0.3503 -0.4913
 7642TIP3    H222891   4.110   4.590   3.873 -0.4644  1.8487 -0.3927
 7643TIP3   OH222892   1.123   3.590   3.033  0.1211 -0.0175  0.3600
 7643TIP3    H122893   1.162   3.522   3.087 -1.4812  0.5496  2.3499
 7643TIP3    H222894   1.063   3.542   2.975  0.9128 -0.5124 -0.0660
 7644TIP3   OH222895   1.190   5.942   5.207  0.2033  0.0599 -0.3017
 7644TIP3    H122896   1.149   6.012   5.258  0.2992  1.0086 -1.4726
 7644TIP3    H222897   1.164   5.861   5.251 -0.3722  0.8041  0.7602
 7645TIP3   OH222898   3.185   5.478   3.691 -0.0940 -0.0134  0.8127
 7645TIP3    H122899   3.237   5.543   3.738 -2.1395  1.8430  0.6621
 7645TIP3    H222900   3.122   5.447   3.755 -1.5425  0.9739 -0.0757
 7646TIP3   OH222901   4.243   4.355   1.449 -0.0567  0.3069  0.8311
 7646TIP3    H122902   4.178   4.418   1.419 -0.2616 -0.1803  0.2422
 7646TIP3    H222903   4.199   4.305   1.517 -0.5351 -0.4789 -0.0405
 7647TIP3   OH222904   1.658   1.750   4.764 -0.1435 -0.7499  0.6347
 7647TIP3    H122905   1.708   1.789   4.836  1.0140 -1.0983  0.0307
 7647TIP3    H222906   1.600   1.687   4.807  1.1057 -1.5434  1.1958
 7648TIP3   OH222907   5.173   5.987   5.731 -0.3391  0.2733  0.6478
 7648TIP3    H122908   5.136   5.950   5.811  0.2989  1.9156  1.7577
 7648TIP3    H222909   5.115   6.059   5.709  1.4252  2.1344  1.7422
 7649TIP3   OH222910   4.511   3.251   0.933 -0.0205  0.1980  0.3092
 7649TIP3    H122911   4.498   3.215   0.845  0.7721  0.8976 -0.1099
 7649TIP3    H222912   4.572   3.189   0.975 -0.5267 -0.2247  0.4333
 7650TIP3   OH222913   4.315   2.642   3.078  0.3210  0.3241  0.3571
 7650TIP3    H122914   4.398   2.688   3.069  0.3138  0.1773 -0.5679
 7650TIP3    H222915   4.291   2.653   3.170  1.4335  0.2324  0.6692
 7651TIP3   OH222916   4.326   4.308   0.811  0.2126  0.1211 -0.5442
 7651TIP3    H122917   4.421   4.296   0.802  0.2013  0.0961 -0.6334
 7651TIP3    H222918   4.314   4.335   0.902  0.3263  0.3451 -0.5954
 7652TIP3   OH222919   0.184   3.735   2.709 -0.0620 -0.2668 -0.3319
 7652TIP3    H122920   0.191   3.827   2.683  0.4264 -0.2563 -0.1864
 7652TIP3    H222921   0.096   3.708   2.683 -0.6445  0.5675  0.6835
 7653TIP3   OH222922   4.838   2.178   0.223 -0.5016 -0.7392  0.1915
 7653TIP3    H122923   4.783   2.200   0.298 -0.7370  0.3389 -0.2753
 7653TIP3    H222924   4.779   2.186   0.148  0.3648  0.8197 -0.3545
 7654TIP3   OH222925   1.185   1.013   4.807 -0.2693  0.4213  0.6258
 7654TIP3    H122926   1.233   0.935   4.837 -0.6948  0.5089  1.5573
 7654TIP3    H222927   1.241   1.086   4.831 -0.2442  0.4475  0.4868
 7655TIP3   OH222928   1.351   2.285   1.594  0.0607 -0.2089 -0.5274
 7655TIP3    H122929   1.401   2.363   1.570 -2.0931  1.4368  0.0679
 7655TIP3    H222930   1.366   2.275   1.688  0.1114 -0.3524 -0.5505
 7656TIP3   OH222931   0.561   3.734   5.149 -0.2056  0.0705 -0.1436
 7656TIP3    H122932   0.645   3.763   5.115 -0.4913 -1.2042 -2.1163
 7656TIP3    H222933   0.569   3.742   5.244  1.9997  0.3188 -0.3043
 7657TIP3   OH222934   0.350   6.407   2.214  0.0072  0.2512 -1.1698
 7657TIP3    H122935   0.319   6.382   2.127 -0.0883  0.3164 -1.1538
 7657TIP3    H222936   0.286   6.371   2.275 -0.8994  1.7079 -1.2114
 7658TIP3   OH222937   1.830   4.537   0.353 -0.1774  0.3130 -0.2538
 7658TIP3    H122938   1.768   4.466   0.340 -0.1578  0.3259 -0.4117
 7658TIP3    H222939   1.848   4.536   0.447  0.1932 -0.1951 -0.3248
 7659TIP3   OH222940   5.454   5.033   5.423  0.0504  0.2297  0.2096
 7659TIP3    H122941   5.527   5.059   5.366 -0.0213  2.4980  1.0627
 7659TIP3    H222942   5.389   4.997   5.363  0.1638  2.1147 -1.1599
 7660TIP3   OH222943   0.255   2.868   4.416 -0.1953  0.4334 -0.1106
 7660TIP3    H122944   0.178   2.850   4.362 -0.0112  0.2610 -0.3214
 7660TIP3    H222945   0.306   2.788   4.411 -0.1009  0.4749  0.1955
 7661TIP3   OH222946   5.366   4.546   5.712  0.3171  0.2843 -0.0656
 7661TIP3    H122947   5.377   4.553   5.807  0.6570 -1.9268  0.1009
 7661TIP3    H222948   5.393   4.632   5.679  1.9371  0.5284  1.7012
 7662TIP3   OH222949   4.405   0.473   2.140 -0.7633 -0.3450  0.7489
 7662TIP3    H122950   4.482   0.438   2.095 -1.5628 -1.6481  0.3230
 7662TIP3    H222951   4.367   0.535   2.078 -0.8279 -0.7597  0.3651
 7663TIP3   OH222952   0.965   0.235   1.990 -0.5690 -0.3611  0.3976
 7663TIP3    H122953   1.049   0.202   2.021 -0.6181 -0.9108 -0.0500
 7663TIP3    H222954   0.920   0.264   2.070  1.0392  2.3644  0.4482
 7664TIP3   OH222955   0.177   1.805   2.391 -0.0873  0.0557  0.0478
 7664TIP3    H122956   0.095   1.848   2.415 -0.1500 -0.4402  0.7518
 7664TIP3    H222957   0.164   1.713   2.414  0.3185 -0.2121 -0.7393
 7665TIP3   OH222958   3.696   3.062   5.862 -0.2797 -0.1352  0.1152
 7665TIP3    H122959   3.630   3.117   5.903  0.5063  0.7626  0.2278
 7665TIP3    H222960   3.680   3.070   5.768 -0.0318  0.4889  0.1203
 7666TIP3   OH222961   4.652   1.000   2.779 -0.1431 -0.7327  0.2659
 7666TIP3    H122962   4.715   1.071   2.785  0.7478 -1.4880 -0.0663
 7666TIP3    H222963   4.683   0.934   2.841 -0.6243 -1.1055  0.1232
 7667TIP3   OH222964   1.681   6.485   3.501  0.3827 -0.9908  0.0920
 7667TIP3    H122965   1.700   6.564   3.553  1.0158 -0.6468 -0.6509
 7667TIP3    H222966   1.644   6.424   3.565  1.3047 -0.6406  1.0008
 7668TIP3   OH222967   2.022   2.424   4.753 -0.2815  0.1464 -0.1675
 7668TIP3    H122968   2.061   2.501   4.711  0.4473 -0.2000 -0.1448
 7668TIP3    H222969   1.941   2.409   4.706  0.8332 -0.6502 -1.9430
 7669TIP3   OH222970   2.440   0.798   5.592  0.1805 -0.1157 -0.0678
 7669TIP3    H122971   2.496   0.724   5.569  2.0552  1.4218 -0.6695
 7669TIP3    H222972   2.444   0.803   5.688 -0.9486 -1.4703  0.0899
 7670TIP3   OH222973   3.035   5.651   4.327 -0.2272 -0.0439  0.0373
 7670TIP3    H122974   2.985   5.650   4.246  0.6654 -0.3213 -0.5207
 7670TIP3    H222975   2.971   5.678   4.394 -1.3167 -1.1499 -0.5087
 7671TIP3   OH222976   6.357   5.871   2.252 -0.1394 -0.0066  0.1593
 7671TIP3    H122977   6.446   5.871   2.216 -0.6064  0.1058 -1.0521
 7671TIP3    H222978   6.317   5.950   2.215 -1.5756 -1.4474 -1.5366
 7672TIP3   OH222979   7.087   2.129   5.424  0.5221 -0.1278 -0.1237
 7672TIP3    H122980   7.170   2.084   5.411  0.0774 -1.1669  0.5039
 7672TIP3    H222981   7.026   2.084   5.366 -0.0793 -0.8032  0.9958
 7673TIP3   OH222982   0.916   5.996   5.693  0.4319  0.3518 -0.4308
 7673TIP3    H122983   0.955   5.969   5.776 -0.8578  0.3611  0.1925
 7673TIP3    H222984   0.829   6.026   5.716  0.7859  2.3406 -1.5079
 7674TIP3   OH222985   0.356   4.414   3.166  0.6664  0.1136 -0.2432
 7674TIP3    H122986   0.437   4.364   3.159  0.8905  0.6649 -2.2270
 7674TIP3    H222987   0.291   4.361   3.120  0.5661  0.9264 -1.0752
 7675TIP3   OH222988   5.244   5.144   3.975  0.1333  0.6018 -0.2640
 7675TIP3    H122989   5.245   5.096   3.892 -1.4868  1.0083 -0.5622
 7675TIP3    H222990   5.151   5.153   3.996  0.4694 -2.2895  3.2653
 7676TIP3   OH222991   2.446   1.657   2.938 -0.4528  0.4286  0.5129
 7676TIP3    H122992   2.495   1.727   2.895 -0.7696 -0.1505 -0.8563
 7676TIP3    H222993   2.374   1.638   2.878 -1.3817  0.1113  1.6898
 7677TIP3   OH222994   0.502  -0.003   4.198 -0.2072 -0.1129  0.6449
 7677TIP3    H122995   0.589   0.015   4.163 -0.2822 -0.5000  0.2520
 7677TIP3    H222996   0.455   0.080   4.190  0.3183  0.2785  1.4581
 7678TIP3   OH222997   5.034   0.207   0.704 -0.0370 -0.4466  0.1772
 7678TIP3    H122998   4.941   0.215   0.726 -0.4518 -1.6743 -1.0077
 7678TIP3    H222999   5.051   0.113   0.704  1.5078 -0.2148  1.4631
 7679TIP3   OH223000   4.419   2.106   1.385  0.1397 -0.1319  0.0086
 7679TIP3    H123001   4.376   2.066   1.461  0.4713  1.0036  0.8240
 7679TIP3    H223002   4.496   2.052   1.370 -0.2965 -0.7719  0.0483
 7680TIP3   OH223003   5.433   1.312   5.579  0.1505 -0.4675 -0.0739
 7680TIP3    H123004   5.412   1.314   5.486  2.4926  1.8019 -0.6451
 7680TIP3    H223005   5.361   1.359   5.621 -0.1017 -0.0886 -0.9124
 7681TIP3   OH223006   3.499   3.340   2.380 -0.0559 -0.6910 -0.0144
 7681TIP3    H123007   3.487   3.278   2.452  2.6081  0.0461  1.1828
 7681TIP3    H223008   3.529   3.420   2.423  0.0699  0.2833 -1.8409
 7682TIP3   OH223009   0.446   4.640   0.734  0.6925 -0.5238 -0.4278
 7682TIP3    H123010   0.484   4.697   0.668  0.0605  0.6519  0.1988
 7682TIP3    H223011   0.356   4.671   0.744  1.0549 -0.0372  1.6769
 7683TIP3   OH223012   1.459   0.904   5.075 -0.0998  0.1871  0.4481
 7683TIP3    H123013   1.483   0.976   5.018 -0.6014  0.2405  0.2955
 7683TIP3    H223014   1.364   0.896   5.064 -0.1161 -0.1756  0.8344
 7684TIP3   OH223015   6.639   3.169   1.348 -0.0705  0.4653 -0.2252
 7684TIP3    H123016   6.563   3.114   1.329  0.3427 -0.3816  0.4800
 7684TIP3    H223017   6.634   3.183   1.443  0.7448  0.2400 -0.1421
 7685TIP3   OH223018   6.925   4.528   0.275 -0.5862 -0.3384  0.1931
 7685TIP3    H123019   6.968   4.483   0.348 -1.0057  0.0129  0.6692
 7685TIP3    H223020   6.873   4.597   0.317  0.5932  1.0553 -0.5471
 7686TIP3   OH223021   5.095   5.602   2.907 -0.2197  0.0575  0.4112
 7686TIP3    H123022   5.157   5.662   2.866 -0.3344  0.7147  1.1676
 7686TIP3    H223023   5.149   5.545   2.962 -0.2837  0.6532  1.0975
 7687TIP3   OH223024   4.808   3.393   1.455 -0.0072  0.1097 -0.1518
 7687TIP3    H123025   4.727   3.430   1.421  0.4557  0.6674 -0.6786
 7687TIP3    H223026   4.844   3.342   1.383  0.7524  0.9303 -0.3732
 7688TIP3   OH223027   1.186   3.963   0.332  0.3746 -0.1924 -0.1646
 7688TIP3    H123028   1.137   3.884   0.309  0.1529 -0.2855  0.5803
 7688TIP3    H223029   1.128   4.035   0.307  0.2154 -0.2869 -0.0715
 7689TIP3   OH223030   6.934   3.607   4.387 -0.1093 -0.0613 -0.0295
 7689TIP3    H123031   6.896   3.613   4.475 -0.6783  0.0924 -0.2781
 7689TIP3    H223032   6.884   3.538   4.344  0.2866 -0.2589 -0.1734
 7690TIP3   OH223033   5.607   2.385   2.034  0.1089 -0.2825  0.6545
 7690TIP3    H123034   5.599   2.391   1.938 -2.0586  1.7785  0.8782
 7690TIP3    H223035   5.656   2.463   2.058 -1.5596  0.5725  1.3860
 7691TIP3   OH223036   6.805   0.380   1.434  0.2449 -0.5709  0.3657
 7691TIP3    H123037   6.837   0.451   1.379  1.5327 -1.4915 -0.1272
 7691TIP3    H223038   6.848   0.394   1.519  0.1197 -0.4890  0.4158
 7692TIP3   OH223039   1.132   1.077   3.438  0.0889  0.3382 -0.6475
 7692TIP3    H123040   1.190   1.139   3.483  1.6706  0.4018 -2.6419
 7692TIP3    H223041   1.113   1.010   3.504  2.3812  0.3611  0.1314
 7693TIP3   OH223042   0.173   4.921   0.386  0.0873  0.1641  0.1543
 7693TIP3    H123043   0.185   4.827   0.399  0.9307  0.0164 -1.4435
 7693TIP3    H223044   0.078   4.934   0.387 -0.0238 -0.6676  0.6324
 7694TIP3   OH223045   0.308   3.854   3.346 -0.1239  0.2157 -0.2587
 7694TIP3    H123046   0.348   3.895   3.269 -1.2358 -0.0818 -1.0265
 7694TIP3    H223047   0.346   3.900   3.421  1.9161 -0.3092 -0.9101
 7695TIP3   OH223048   1.482   3.163   0.077 -0.7291 -0.7811 -0.1046
 7695TIP3    H123049   1.555   3.108   0.105 -1.0096  0.3593  3.2549
 7695TIP3    H223050   1.413   3.147   0.141 -1.4339  2.1390  0.0305
 7696TIP3   OH223051   6.463   4.313   2.546 -0.0556  0.6116 -0.0107
 7696TIP3    H123052   6.501   4.242   2.598  1.0756 -1.8778 -3.8251
 7696TIP3    H223053   6.373   4.285   2.530  0.5457 -0.3810 -1.9680
 7697TIP3   OH223054   0.853   5.231   2.087 -0.8189 -0.0177  0.2382
 7697TIP3    H123055   0.842   5.228   1.992  0.0979  0.0072  0.1225
 7697TIP3    H223056   0.899   5.313   2.104  0.0466 -0.5644  0.5866
 7698TIP3   OH223057   1.466   2.054   1.957 -0.9692 -0.1770 -0.5057
 7698TIP3    H123058   1.436   2.053   2.048 -1.9907 -0.2633 -0.8315
 7698TIP3    H223059   1.434   2.136   1.921 -0.7200 -0.2233 -0.8439
 7699TIP3   OH223060   2.516   0.189   5.532  0.6621  0.1260  0.2830
 7699TIP3    H123061   2.442   0.172   5.590  1.0718 -0.7080  0.5807
 7699TIP3    H223062   2.522   0.111   5.477  0.5794  0.7043 -0.5531
 7700TIP3   OH223063   6.000   4.466   5.446 -0.5466 -0.6310  0.1065
 7700TIP3    H123064   6.088   4.442   5.473 -0.3760 -0.0067  0.1148
 7700TIP3    H223065   5.976   4.539   5.502 -0.7148 -0.2059 -0.5052
 7701TIP3   OH223066   3.923   0.962   5.222  0.4971 -0.0574 -0.6774
 7701TIP3    H123067   3.849   1.019   5.203  1.3472  1.7569  1.1167
 7701TIP3    H223068   4.000   1.015   5.200  1.3712  0.2478  2.6610
 7702TIP3   OH223069   1.680   0.285   1.270  0.3236 -0.0459  0.3544
 7702TIP3    H123070   1.722   0.307   1.353  0.7725 -0.5983  0.2771
 7702TIP3    H223071   1.739   0.319   1.203 -0.4896  1.2300  0.2493
 7703TIP3   OH223072   5.966   3.550   0.433  0.1824 -0.1806  0.0462
 7703TIP3    H123073   5.997   3.497   0.506 -1.7478  0.1065  1.1630
 7703TIP3    H223074   5.875   3.521   0.420  0.1683  0.4801 -1.5988
 7704TIP3   OH223075   7.205   0.106   0.007  0.0906  0.0854 -0.4120
 7704TIP3    H123076   7.179   0.178  -0.049  1.2553 -0.4649 -1.7091
 7704TIP3    H223077   7.258   0.146   0.075 -1.1365  0.7254  0.2012
 7705TIP3   OH223078   4.096   3.721   1.925  0.5424 -0.3781 -0.0568
 7705TIP3    H123079   4.019   3.692   1.974 -0.3756  1.9039 -0.0595
 7705TIP3    H223080   4.170   3.694   1.980 -0.3472 -0.5781  1.0843
 7706TIP3   OH223081   4.238   0.823   1.163 -0.3602 -0.3837  0.2605
 7706TIP3    H123082   4.246   0.820   1.258 -2.6100 -1.5553  0.4735
 7706TIP3    H223083   4.149   0.794   1.145  0.1351 -0.5983 -2.2482
 7707TIP3   OH223084   0.486   4.674   3.222  0.4671  0.5161  0.6364
 7707TIP3    H123085   0.572   4.690   3.182  0.4229  0.0535  0.3494
 7707TIP3    H223086   0.486   4.580   3.243 -0.2623  0.3456 -0.0736
 7708TIP3   OH223087   2.620   2.618   1.334  0.5575  0.1331  0.0036
 7708TIP3    H123088   2.688   2.586   1.275 -1.1067 -0.9663 -1.4096
 7708TIP3    H223089   2.564   2.542   1.349  0.0133  0.8308  1.6913
 7709TIP3   OH223090   0.963   6.324   4.487 -0.2179 -0.1319 -0.4682
 7709TIP3    H123091   1.046   6.285   4.512 -1.6319 -2.5556  0.8413
 7709TIP3    H223092   0.897   6.275   4.536 -2.5035  1.1511 -2.0217
 7710TIP3   OH223093   0.441   5.865   3.065  0.3593 -0.4161 -0.1578
 7710TIP3    H123094   0.438   5.786   3.118  0.4722  0.4219  1.1394
 7710TIP3    H223095   0.444   5.833   2.975 -0.3282 -1.8667  0.2994
 7711TIP3   OH223096   0.469   0.477   3.308  0.4844 -0.5909 -0.1949
 7711TIP3    H123097   0.550   0.528   3.311  1.2055 -1.5739 -1.6426
 7711TIP3    H223098   0.476   0.426   3.227 -1.3990 -1.0174 -0.1274
 7712TIP3   OH223099   0.672   4.737   3.450  0.1129  0.7843  0.1290
 7712TIP3    H123100   0.729   4.798   3.496 -1.1130  1.3735  0.9272
 7712TIP3    H223101   0.663   4.772   3.362 -0.5866  1.7778  0.5841
 7713TIP3   OH223102   5.770   6.483   5.661 -0.5398  0.4063  0.3117
 7713TIP3    H123103   5.745   6.456   5.573 -0.6346  1.7997 -0.1183
 7713TIP3    H223104   5.862   6.508   5.654  0.8766 -3.7069  1.6601
 7714TIP3   OH223105   0.888   0.237   0.595 -0.1320 -0.1428  0.0798
 7714TIP3    H123106   0.860   0.184   0.521  1.4366 -1.1160  0.1327
 7714TIP3    H223107   0.976   0.267   0.572  0.4379 -0.5575  1.5738
 7715TIP3   OH223108   1.710   1.328   0.567  0.1137  0.2707 -0.5414
 7715TIP3    H123109   1.735   1.318   0.659 -0.2716  0.0104 -0.4606
 7715TIP3    H223110   1.681   1.419   0.560 -0.3885  0.1362 -0.2669
 7716TIP3   OH223111   5.968   0.647   0.266 -0.1153  0.1119 -0.0384
 7716TIP3    H123112   5.987   0.555   0.245  0.4890  0.1964  0.1166
 7716TIP3    H223113   6.025   0.667   0.341 -0.5271  0.5021  0.1801
 7717TIP3   OH223114   4.204   1.248   5.430 -1.0259  0.5896  0.1390
 7717TIP3    H123115   4.216   1.297   5.349 -2.2834  0.5627 -0.0812
 7717TIP3    H223116   4.158   1.309   5.489  0.6831  0.9408  1.1899
 7718TIP3   OH223117   5.528   3.710   3.838 -0.3833  0.3192  0.0541
 7718TIP3    H123118   5.548   3.801   3.857  2.0440 -0.1153 -0.1565
 7718TIP3    H223119   5.547   3.664   3.920  0.5126 -0.2626 -0.4642
 7719TIP3   OH223120   3.546   6.367   3.646 -0.1970 -1.0188  0.3134
 7719TIP3    H123121   3.595   6.365   3.728  0.7033  4.1161  0.2348
 7719TIP3    H223122   3.606   6.330   3.582  0.6788 -1.4966  1.3745
 7720TIP3   OH223123   1.741   5.630   1.671 -0.0576  0.3734 -0.3607
 7720TIP3    H123124   1.805   5.627   1.600  0.4627 -2.9142  0.1140
 7720TIP3    H223125   1.660   5.600   1.631 -0.3746  0.8143 -0.0670
 7721TIP3   OH223126   7.220   4.513   1.481  0.4686  0.3585  0.4670
 7721TIP3    H123127   7.132   4.547   1.495  1.1381  1.9279  1.0393
 7721TIP3    H223128   7.271   4.546   1.554  2.3557  2.5894 -1.6663
 7722TIP3   OH223129   7.156   0.404   5.267 -0.3506 -0.2627  0.3810
 7722TIP3    H123130   7.095   0.388   5.195 -0.4482 -2.3425  0.8424
 7722TIP3    H223131   7.231   0.446   5.226 -1.0850  0.1176 -0.6225
 7723TIP3   OH223132   5.155   5.893   0.602  0.4069  0.7956  0.0901
 7723TIP3    H123133   5.098   5.828   0.644 -1.2310  3.8929  3.1122
 7723TIP3    H223134   5.111   5.914   0.520 -1.2447  0.9805  0.9906
 7724TIP3   OH223135   5.646   6.066   0.479  0.1748 -0.1219  0.2025
 7724TIP3    H123136   5.554   6.058   0.457  0.4480  0.1672 -1.1181
 7724TIP3    H223137   5.683   6.121   0.410  1.3379 -0.2357  0.7053
 7725TIP3   OH223138   3.576   6.487   4.427 -0.3964  0.2801 -0.7579
 7725TIP3    H123139   3.591   6.555   4.492  1.5173  0.0721 -0.9477
 7725TIP3    H223140   3.532   6.532   4.355 -0.1119  1.0807 -0.4343
 7726TIP3   OH223141   0.038   4.712   3.199  0.0192  0.1636 -0.2000
 7726TIP3    H123142   0.003   4.623   3.208  0.3723 -0.0884 -1.2336
 7726TIP3    H223143   0.050   4.724   3.105  0.9796  0.9197  0.0045
 7727TIP3   OH223144   1.905   6.210   0.759  0.1188 -0.1376  0.4413
 7727TIP3    H123145   1.880   6.285   0.706  1.9930  1.7719  2.0593
 7727TIP3    H223146   1.822   6.176   0.793 -0.7393  1.9549  0.5875
 7728TIP3   OH223147   4.385   4.626   3.009 -0.2357 -0.2692  0.1171
 7728TIP3    H123148   4.420   4.605   2.923  0.8588  2.6187 -0.2237
 7728TIP3    H223149   4.303   4.672   2.991 -0.3034 -0.1694  0.6572
 7729TIP3   OH223150   6.241   1.356   1.644 -0.0807  0.4123  0.0336
 7729TIP3    H123151   6.312   1.312   1.691 -1.7283  0.5249  2.8808
 7729TIP3    H223152   6.183   1.286   1.616 -0.4639  0.4929  0.6108
 7730TIP3   OH223153   5.934   3.140   3.969  0.6482 -0.0215 -0.3926
 7730TIP3    H123154   5.907   3.081   3.898  1.0875 -0.4185 -0.2354
 7730TIP3    H223155   5.871   3.123   4.039 -1.0394  1.8216 -1.3787
 7731TIP3   OH223156   5.529   0.103   5.254  0.3655 -0.1965 -0.9981
 7731TIP3    H123157   5.497   0.184   5.213 -1.1693 -1.0790 -1.6004
 7731TIP3    H223158   5.452   0.048   5.263  1.1355 -1.0604  0.7373
 7732TIP3   OH223159   5.318   3.757   5.132  0.1040 -0.5774  0.0024
 7732TIP3    H123160   5.247   3.760   5.196  0.7577  0.0380  0.7181
 7732TIP3    H223161   5.367   3.838   5.146 -0.1581 -0.0766 -1.7815
 7733TIP3   OH223162   3.024   3.017   3.048  0.2649 -0.0941 -0.1212
 7733TIP3    H123163   2.983   3.071   2.981  0.0886 -0.4272 -0.2858
 7733TIP3    H223164   2.992   3.053   3.131 -0.3237 -0.3185 -0.2463
 7734TIP3   OH223165   1.263   5.183   1.563 -0.0153 -0.1960  0.7034
 7734TIP3    H123166   1.210   5.118   1.517  0.2981  0.5091 -0.7157
 7734TIP3    H223167   1.352   5.167   1.533  0.1709  0.4083  0.9208
 7735TIP3   OH223168   4.100   2.727   0.961 -0.3163 -0.1166 -0.2939
 7735TIP3    H123169   4.025   2.682   0.999 -0.0878 -2.5159 -2.3480
 7735TIP3    H223170   4.174   2.668   0.978  0.7415  1.2367 -0.0151
 7736TIP3   OH223171   5.443   1.713   4.389 -0.3106 -0.1570  0.4184
 7736TIP3    H123172   5.355   1.748   4.380 -0.6765 -1.1757 -0.0809
 7736TIP3    H223173   5.440   1.661   4.470 -0.0410  0.1514  0.6318
 7737TIP3   OH223174   3.502   4.195   1.671 -0.3011  0.0773  0.4162
 7737TIP3    H123175   3.435   4.263   1.661 -0.9589 -0.5145  0.6726
 7737TIP3    H223176   3.457   4.113   1.647  0.9336 -0.0965 -1.5601
 7738TIP3   OH223177   0.180   6.129   0.287  0.0710 -0.1288  0.6765
 7738TIP3    H123178   0.144   6.097   0.370  1.2119 -0.4726  1.0517
 7738TIP3    H223179   0.209   6.218   0.305 -0.7439  0.2200  0.3206
 7739TIP3   OH223180   6.371   5.641   3.080  0.8046 -0.3106 -0.2743
 7739TIP3    H123181   6.460   5.668   3.058  0.6252  1.4613  0.9408
 7739TIP3    H223182   6.367   5.651   3.175 -1.1191  1.1466 -0.4495
 7740TIP3   OH223183   4.657   0.045   2.022  0.0692 -0.1256 -0.2728
 7740TIP3    H123184   4.648  -0.039   2.066 -2.3862 -0.2157 -0.7935
 7740TIP3    H223185   4.704   0.026   1.941 -1.5153 -1.2672 -0.9744
 7741TIP3   OH223186   6.021   2.191   0.605 -0.7276 -0.1625  0.3550
 7741TIP3    H123187   6.030   2.107   0.650 -1.4575  1.1246  3.0530
 7741TIP3    H223188   6.094   2.244   0.637 -0.6339  0.4595 -0.8331
 7742TIP3   OH223189   6.839   3.001   3.667 -0.0980 -0.0886  0.0268
 7742TIP3    H123190   6.906   2.947   3.708  0.3840 -0.0309 -0.6710
 7742TIP3    H223191   6.887   3.074   3.628 -0.4441 -0.5280 -1.2737
 7743TIP3   OH223192   0.844   1.277   3.634  0.1625  0.5872 -0.4391
 7743TIP3    H123193   0.912   1.340   3.656  0.1988  0.7265 -0.9279
 7743TIP3    H223194   0.767   1.330   3.616  0.5186  0.5956 -2.0656
 7744TIP3   OH223195   5.490   1.311   2.220 -0.6498  0.3306  0.5373
 7744TIP3    H123196   5.404   1.351   2.231 -0.9964 -0.3741  0.4829
 7744TIP3    H223197   5.530   1.315   2.307 -1.2796 -0.5203  0.8853
 7745TIP3   OH223198   5.453   0.960   4.314  0.8465  0.0091 -0.5336
 7745TIP3    H123199   5.509   0.974   4.238  0.0549 -0.2241 -1.1781
 7745TIP3    H223200   5.393   1.035   4.313  0.1867 -0.5144 -0.7325
 7746TIP3   OH223201   3.990   6.012   5.711 -0.4969 -0.1111 -0.7439
 7746TIP3    H123202   3.924   5.946   5.734 -0.9929  0.2147 -1.1951
 7746TIP3    H223203   3.939   6.084   5.674  0.1399  0.0026 -1.4296
 7747TIP3   OH223204   4.862   1.876   0.340 -0.3381 -0.2351 -0.1603
 7747TIP3    H123205   4.921   1.883   0.416  1.4200 -0.2931 -1.4578
 7747TIP3    H223206   4.904   1.930   0.273 -0.9086 -1.6153 -1.6683
 7748TIP3   OH223207   1.715   4.318   1.492  0.2559  0.6555  0.3334
 7748TIP3    H123208   1.764   4.301   1.412  0.8337 -0.6801  0.9399
 7748TIP3    H223209   1.623   4.314   1.465  0.3881 -1.6234  0.0201
 7749TIP3   OH223210   2.918   0.487   5.415 -0.3789  0.1713 -0.0079
 7749TIP3    H123211   2.878   0.553   5.359 -2.7127 -1.5992 -0.5766
 7749TIP3    H223212   2.851   0.469   5.481  0.8469 -0.5146  1.0952
 7750TIP3   OH223213   0.641   2.328   4.366  0.0700  0.2320 -0.4016
 7750TIP3    H123214   0.635   2.324   4.271 -3.1473  1.1000 -0.3623
 7750TIP3    H223215   0.682   2.412   4.385  0.5035  0.1623 -1.0135
 7751TIP3   OH223216   0.219   4.237   2.716 -0.3266 -0.2157  0.5095
 7751TIP3    H123217   0.304   4.236   2.672 -0.6029  1.3056 -0.1110
 7751TIP3    H223218   0.237   4.200   2.803  0.7593 -0.7937  0.0587
 7752TIP3   OH223219   3.899   6.234   0.227 -0.4279  0.2460 -0.1136
 7752TIP3    H123220   3.908   6.142   0.253 -0.6257  0.0458 -0.7496
 7752TIP3    H223221   3.887   6.281   0.310  0.2248 -0.2322  0.2572
 7753TIP3   OH223222   6.167   3.749   4.165 -0.6444  0.1449 -0.5916
 7753TIP3    H123223   6.229   3.679   4.144 -0.8416  0.2938 -1.7465
 7753TIP3    H223224   6.097   3.739   4.100 -1.2973  0.6380  0.0249
 7754TIP3   OH223225   4.692   0.822   2.010  0.3583  0.2320 -0.0771
 7754TIP3    H123226   4.646   0.884   1.954 -0.7594  1.2640  1.8586
 7754TIP3    H223227   4.666   0.847   2.099  0.6732 -2.3959  0.8353
 7755TIP3   OH223228   1.899   0.020   4.321 -0.5325 -0.5009  0.0313
 7755TIP3    H123229   1.845   0.016   4.242  0.7414 -1.7568 -0.8174
 7755TIP3    H223230   1.836   0.008   4.393 -1.6381  0.0900 -0.7981
 7756TIP3   OH223231   6.282   3.034   1.126 -0.9300  0.2547  0.1221
 7756TIP3    H123232   6.299   3.116   1.080 -0.6248 -0.5099 -1.2015
 7756TIP3    H223233   6.289   2.967   1.058 -1.4830 -0.8423  1.1091
 7757TIP3   OH223234   4.413   2.827   3.469  0.7665  0.6555 -0.1981
 7757TIP3    H123235   4.487   2.808   3.411  1.9104 -1.2734  1.7550
 7757TIP3    H223236   4.345   2.766   3.442  0.7307  0.8246 -0.4942
 7758TIP3   OH223237   2.456   4.942   1.089 -0.1691  0.2279  0.2402
 7758TIP3    H123238   2.535   4.932   1.037  0.1476  0.1123  0.7357
 7758TIP3    H223239   2.385   4.952   1.025 -0.3543 -3.5580 -0.3681
 7759TIP3   OH223240   3.437   5.414   0.422 -0.3414  0.7590 -0.3406
 7759TIP3    H123241   3.370   5.426   0.489 -1.6119 -0.6938 -1.2757
 7759TIP3    H223242   3.438   5.497   0.374 -1.1411  0.9734 -0.0093
 7760TIP3   OH223243   0.888   1.029   2.757  0.3338  0.5692 -0.1472
 7760TIP3    H123244   0.838   1.056   2.679  0.2592  2.0574  0.3794
 7760TIP3    H223245   0.823   0.986   2.813 -0.3409  2.1518  0.3658
 7761TIP3   OH223246   6.572   4.376   1.383  0.0707  0.3472 -0.1668
 7761TIP3    H123247   6.543   4.467   1.388 -0.4222  0.1368  1.5064
 7761TIP3    H223248   6.493   4.326   1.364  0.2802  0.2317 -0.7507
 7762TIP3   OH223249   3.827   6.631   4.286  0.5069  0.5369 -0.2736
 7762TIP3    H123250   3.883   6.570   4.333  0.2081  0.1286 -0.4380
 7762TIP3    H223251   3.812   6.590   4.201 -0.0137  0.6466 -0.2437
 7763TIP3   OH223252   2.339   4.447   2.198 -0.0775  0.5171  0.1752
 7763TIP3    H123253   2.424   4.448   2.153 -0.4272  0.0708 -0.5143
 7763TIP3    H223254   2.347   4.513   2.266  0.3629  1.4722 -0.7709
 7764TIP3   OH223255   4.596   0.977   5.685 -0.6400  0.8138  0.1179
 7764TIP3    H123256   4.513   0.986   5.732  0.1662 -0.5114  1.9305
 7764TIP3    H223257   4.658   1.030   5.734  0.6613 -2.0719  1.8873
 7765TIP3   OH223258   0.811   6.705   1.573 -0.3658 -0.7243  0.0036
 7765TIP3    H123259   0.734   6.753   1.605  0.7307  0.2021  1.3593
 7765TIP3    H223260   0.827   6.638   1.640 -0.2506 -1.2159 -0.5090
 7766TIP3   OH223261   2.369   0.748   0.223 -0.3567 -0.5095 -0.1669
 7766TIP3    H123262   2.317   0.797   0.159 -0.1764 -1.0343 -0.7338
 7766TIP3    H223263   2.316   0.670   0.242 -0.3822 -0.3839  0.2820
 7767TIP3   OH223264   0.699   4.277   0.534  0.2850 -0.0589 -0.1629
 7767TIP3    H123265   0.780   4.313   0.499 -0.5320 -0.5143 -2.6908
 7767TIP3    H223266   0.695   4.309   0.624  2.8483  0.6213 -0.2303
 7768TIP3   OH223267   5.340   6.052   0.462  0.5981 -0.6684 -0.0298
 7768TIP3    H123268   5.288   6.062   0.381 -0.9751  0.7949  1.0906
 7768TIP3    H223269   5.291   5.988   0.513  1.9844 -2.1482 -0.4771
 7769TIP3   OH223270   4.600   0.390   4.075 -0.0227  0.2127 -0.3821
 7769TIP3    H123271   4.589   0.458   4.008 -0.7230 -1.6341 -2.2615
 7769TIP3    H223272   4.672   0.337   4.042 -0.0131 -0.4324  0.6434
 7770TIP3   OH223273   6.332   0.244   5.022 -0.0133  0.3498  0.5938
 7770TIP3    H123274   6.357   0.283   5.105 -1.6103 -0.5216  1.5300
 7770TIP3    H223275   6.410   0.199   4.992  0.5651  0.6112  1.6674
 7771TIP3   OH223276   3.546   2.708   0.490  0.9321 -0.0020 -0.0153
 7771TIP3    H123277   3.501   2.686   0.572  1.2374 -0.9007 -0.0834
 7771TIP3    H223278   3.495   2.781   0.455  1.3345  1.0341  1.4265
 7772TIP3   OH223279   4.661   2.714   3.951  0.5435 -0.1440  0.1240
 7772TIP3    H123280   4.580   2.693   3.997  0.0989 -1.5182 -1.1954
 7772TIP3    H223281   4.633   2.770   3.878  0.5557 -1.6430 -1.0768
 7773TIP3   OH223282   3.531   2.927   2.349  0.0064 -0.3980  0.5679
 7773TIP3    H123283   3.450   2.887   2.317  0.0974  0.1163 -0.3368
 7773TIP3    H223284   3.574   2.857   2.398 -0.2360 -1.1609 -0.2859
 7774TIP3   OH223285   0.343   3.655   2.113  0.3368  0.0119  0.2001
 7774TIP3    H123286   0.407   3.724   2.131  0.0993  0.1453  0.5600
 7774TIP3    H223287   0.379   3.578   2.156  0.0560  0.1892  0.7659
 7775TIP3   OH223288   4.833   1.863   1.946 -0.0750 -0.0684  0.4161
 7775TIP3    H123289   4.831   1.956   1.925  2.6922  0.4693  2.0157
 7775TIP3    H223290   4.795   1.820   1.870 -1.2163  2.3364 -0.4660
 7776TIP3   OH223291   1.427   3.539   3.271 -0.1417 -0.2951 -0.0317
 7776TIP3    H123292   1.464   3.504   3.352  0.7733 -2.7323 -1.3820
 7776TIP3    H223293   1.349   3.485   3.256  1.1139 -1.7029 -2.0032
 7777TIP3   OH223294   1.514   0.302   0.119 -0.5489  0.2753 -0.0952
 7777TIP3    H123295   1.492   0.367   0.052 -0.1649 -0.8727 -1.3743
 7777TIP3    H223296   1.434   0.250   0.129 -0.7766  0.7697  0.7441
 7778TIP3   OH223297   4.358   0.046   3.655 -0.0725 -0.7933  0.1599
 7778TIP3    H123298   4.436  -0.000   3.626  0.6038  0.1346  0.4528
 7778TIP3    H223299   4.301   0.047   3.578 -0.3960 -2.6751  0.3467
 7779TIP3   OH223300   0.563   1.608   5.215  0.1306  0.1994  0.4845
 7779TIP3    H123301   0.536   1.628   5.126  0.8789 -0.0979  0.1822
 7779TIP3    H223302   0.604   1.521   5.208  0.8119  0.4713  0.9842
 7780TIP3   OH223303   0.609   5.641   1.790 -0.2847  0.5493  0.0397
 7780TIP3    H123304   0.560   5.722   1.805 -3.0269 -1.3273  2.6182
 7780TIP3    H223305   0.566   5.600   1.715  1.3224  1.5411 -1.4835
 7781TIP3   OH223306   5.311   6.153   4.608  0.3268  0.2426 -0.2987
 7781TIP3    H123307   5.389   6.100   4.623  1.6815  1.5349 -2.2957
 7781TIP3    H223308   5.254   6.097   4.556  1.1066  0.1951 -1.1339
 7782TIP3   OH223309   0.758   3.876   4.686 -0.1652  0.1757 -0.2349
 7782TIP3    H123310   0.824   3.856   4.753 -2.3025 -0.0519  1.9241
 7782TIP3    H223311   0.732   3.966   4.704 -2.1446 -0.5088  0.5721
 7783TIP3   OH223312   0.773   3.021   2.325  0.4182 -0.2510 -0.2210
 7783TIP3    H123313   0.755   2.949   2.385  0.7279 -0.7718 -0.7392
 7783TIP3    H223314   0.803   2.978   2.245 -1.9536  0.3043 -1.4786
 7784TIP3   OH223315   0.919   3.777   0.615 -0.0070  1.1993 -0.1585
 7784TIP3    H123316   0.824   3.786   0.612 -0.1147  0.5052  0.6952
 7784TIP3    H223317   0.947   3.785   0.523 -0.7426  2.7131 -0.2747
 7785TIP3   OH223318   6.906   2.618   0.598 -0.5056 -0.2333 -0.4574
 7785TIP3    H123319   6.826   2.616   0.652 -1.2169 -0.7056 -1.4920
 7785TIP3    H223320   6.948   2.534   0.614 -0.7416 -0.3931 -0.6782
 7786TIP3   OH223321   6.068   3.086   1.303 -0.3268 -0.1603 -0.5953
 7786TIP3    H123322   6.133   3.041   1.249  0.1942  1.6160 -1.5275
 7786TIP3    H223323   6.116   3.159   1.342 -1.1276 -0.4162  0.9276
 7787TIP3   OH223324   3.631   6.545   3.952 -0.2730 -0.2639 -0.1040
 7787TIP3    H123325   3.700   6.564   3.888 -1.2823  0.1099 -1.1274
 7787TIP3    H223326   3.660   6.466   3.996 -0.5939 -1.9158 -2.6563
 7788TIP3   OH223327   0.454   1.079   4.802  0.2538 -0.2808  0.1901
 7788TIP3    H123328   0.450   1.150   4.737 -0.4726  1.4024  1.9868
 7788TIP3    H223329   0.405   1.008   4.761  1.4402  0.0033 -1.8945
 7789TIP3   OH223330   0.943   4.080   4.425  0.0379 -0.0588 -0.3851
 7789TIP3    H123331   0.921   4.139   4.352  0.2824  0.0856 -0.3413
 7789TIP3    H223332   0.934   3.992   4.388 -0.0120  0.0107 -0.5396
 7790TIP3   OH223333   5.861   3.191   0.300  0.0771 -0.0445 -0.6480
 7790TIP3    H123334   5.906   3.170   0.382  0.7084 -1.6367 -1.3780
 7790TIP3    H223335   5.894   3.127   0.237 -1.0412  0.6138 -1.9443
 7791TIP3   OH223336   6.835   5.080   2.414  0.5401  0.4240 -0.1101
 7791TIP3    H123337   6.833   4.994   2.456 -1.7537  0.6855  0.4353
 7791TIP3    H223338   6.821   5.142   2.486 -0.2563  1.0811 -0.8170
 7792TIP3   OH223339   1.864   4.537   2.808  0.0745  0.5403 -0.0878
 7792TIP3    H123340   1.800   4.608   2.811  0.0544  0.7745 -3.0789
 7792TIP3    H223341   1.841   4.488   2.729  1.5824 -1.3540  0.5928
 7793TIP3   OH223342   6.392   1.015   1.359 -0.0245  0.3930  0.0341
 7793TIP3    H123343   6.456   1.071   1.404  0.3581  1.0767 -1.2958
 7793TIP3    H223344   6.421   0.926   1.376  0.3052  0.6463  0.8338
 7794TIP3   OH223345   0.328   4.228   0.742  0.6428 -0.5791 -0.5953
 7794TIP3    H123346   0.395   4.170   0.706  0.9207  0.5760 -2.0402
 7794TIP3    H223347   0.264   4.169   0.781  1.9804 -1.7491 -0.0871
 7795TIP3   OH223348   1.527   1.741   5.246 -0.3701 -0.0698 -0.0753
 7795TIP3    H123349   1.446   1.691   5.246 -0.5217  0.1473 -0.9044
 7795TIP3    H223350   1.559   1.736   5.335 -1.9072  0.8031  0.5754
 7796TIP3   OH223351   6.544   2.421   5.483  0.3465  0.3086  0.0940
 7796TIP3    H123352   6.617   2.438   5.542  0.8867  0.2615 -0.5530
 7796TIP3    H223353   6.560   2.478   5.408 -1.1285  1.4785  0.6238
 7797TIP3   OH223354   1.440   2.918   0.742 -0.2438  0.1745 -0.7437
 7797TIP3    H123355   1.495   2.877   0.676 -0.6156 -0.2153 -0.8185
 7797TIP3    H223356   1.496   2.983   0.784  0.2205 -0.1082 -0.9239
 7798TIP3   OH223357   0.502   0.813   5.093 -0.2425  0.1694 -0.2031
 7798TIP3    H123358   0.537   0.736   5.136  1.3867  1.1677  0.3465
 7798TIP3    H223359   0.414   0.823   5.129  0.2653 -0.2845  1.2323
 7799TIP3   OH223360   6.626   3.926   5.781 -0.1122  0.2452 -0.2837
 7799TIP3    H123361   6.535   3.952   5.766 -0.1706  0.1544 -0.0945
 7799TIP3    H223362   6.622   3.831   5.795 -0.0479  0.3095  0.1943
 7800TIP3   OH223363   2.405   6.419   3.642 -0.3192  0.0285 -0.0251
 7800TIP3    H123364   2.497   6.407   3.622 -0.2125  0.5924  0.1028
 7800TIP3    H223365   2.404   6.463   3.727 -0.6727  0.9016 -0.4683
 7801TIP3   OH223366   0.072   4.413   0.248 -0.3064 -0.1414 -0.4148
 7801TIP3    H123367  -0.009   4.393   0.201  0.2888 -2.4820 -0.5845
 7801TIP3    H223368   0.142   4.387   0.187  0.5019 -0.9544  0.8094
 7802TIP3   OH223369   5.450   1.990   3.268 -0.1015 -0.0423  0.4248
 7802TIP3    H123370   5.509   1.998   3.193 -0.4624  1.7968  0.2840
 7802TIP3    H223371   5.452   2.077   3.309 -0.5860 -0.7628  2.0360
 7803TIP3   OH223372   3.818   4.482   1.927  0.2515 -0.0367  0.0540
 7803TIP3    H123373   3.803   4.510   2.018  2.0110  0.0377  0.3484
 7803TIP3    H223374   3.737   4.439   1.902 -0.5133  0.5227  1.4424
 7804TIP3   OH223375   4.911   5.276   0.920  0.1955 -0.5196 -0.0363
 7804TIP3    H123376   4.859   5.334   0.865  0.0970  0.7113  1.2909
 7804TIP3    H223377   4.865   5.192   0.919  0.1326 -0.4911 -1.6802
 7805TIP3   OH223378   4.692   3.459   2.300  0.3971  0.1317 -0.0091
 7805TIP3    H123379   4.758   3.421   2.359  0.8435  0.0631 -0.5531
 7805TIP3    H223380   4.633   3.386   2.282  1.7981 -0.6278 -1.8428
 7806TIP3   OH223381   6.346   0.821   3.450  0.3689 -0.6264 -0.3164
 7806TIP3    H123382   6.360   0.738   3.404  0.6482  0.2592 -1.9157
 7806TIP3    H223383   6.307   0.878   3.384  0.4951  0.6265  0.6561
 7807TIP3   OH223384   3.155   1.538   2.918 -0.7660  0.2656  0.0471
 7807TIP3    H123385   3.119   1.547   2.830  0.5307  2.7177 -0.3312
 7807TIP3    H223386   3.237   1.491   2.906  0.4143  2.3410 -0.4222
 7808TIP3   OH223387   3.474   1.301   2.030 -1.4082 -0.8612  0.4812
 7808TIP3    H123388   3.472   1.213   2.068  1.8027 -1.7821 -1.0813
 7808TIP3    H223389   3.458   1.287   1.937 -1.8232  0.3625  0.3577
 7809TIP3   OH223390   4.213   6.323   0.428 -0.3392 -0.0146  0.3232
 7809TIP3    H123391   4.132   6.356   0.466 -0.4246 -0.0010  0.1301
 7809TIP3    H223392   4.198   6.327   0.333 -0.2665 -0.3983  0.2967
 7810TIP3   OH223393   2.857   5.156   5.435  0.0773 -0.2454 -0.0795
 7810TIP3    H123394   2.930   5.143   5.496  1.1160  1.5129 -0.8620
 7810TIP3    H223395   2.795   5.087   5.457  1.5142 -1.1724  1.3077
 7811TIP3   OH223396   3.348   5.747   1.248 -0.5088 -0.3531  0.2098
 7811TIP3    H123397   3.437   5.773   1.269 -0.9682  2.4561 -0.7915
 7811TIP3    H223398   3.357   5.664   1.201  1.6160  0.0632 -0.1968
 7812TIP3   OH223399   5.980   1.912   0.718 -0.2481  0.1573  0.5452
 7812TIP3    H123400   6.039   1.837   0.710 -0.4668 -0.1467  1.6956
 7812TIP3    H223401   5.919   1.902   0.645  0.6010  0.0252 -0.1716
 7813TIP3   OH223402   2.046   2.929   4.485  0.3525  0.3763 -0.0914
 7813TIP3    H123403   1.986   2.955   4.555  0.5803 -1.2501  0.7541
 7813TIP3    H223404   2.026   2.836   4.469  0.6153  0.5831 -1.8922
 7814TIP3   OH223405   5.150   1.807   1.195  0.1619 -0.0134  0.4295
 7814TIP3    H123406   5.237   1.825   1.159  0.3582  0.5757  1.1575
 7814TIP3    H223407   5.095   1.879   1.164  0.0001 -0.2290  0.2097
 7815TIP3   OH223408   0.758   3.764   2.170 -0.0880 -0.2322 -0.0050
 7815TIP3    H123409   0.817   3.690   2.176 -0.2224 -0.7732 -3.4183
 7815TIP3    H223410   0.813   3.836   2.140 -0.9640 -0.7634 -3.2927
 7816TIP3   OH223411   1.731   5.637   5.094 -0.6673  0.0465  0.1186
 7816TIP3    H123412   1.662   5.570   5.085 -0.6141  0.1015 -0.7555
 7816TIP3    H223413   1.813   5.586   5.095 -0.7152 -0.0318  1.3261
 7817TIP3   OH223414   3.637   3.113   3.145  0.2460 -0.1414 -0.1507
 7817TIP3    H123415   3.669   3.023   3.135  1.9121  0.2695  1.1947
 7817TIP3    H223416   3.614   3.120   3.237 -0.0946  0.7782 -0.2967
 7818TIP3   OH223417   0.948   5.068   2.964  0.1093  0.1141  0.2714
 7818TIP3    H123418   0.867   5.092   2.918 -0.5027  0.5890  1.5561
 7818TIP3    H223419   0.938   5.104   3.052 -0.0429 -3.1582  1.7715
 7819TIP3   OH223420   0.117   1.985   5.471 -0.4464  0.0152 -0.1285
 7819TIP3    H123421   0.197   2.036   5.459 -1.0641  1.2030  0.5963
 7819TIP3    H223422   0.135   1.929   5.546 -0.2588  0.1832 -0.0493
 7820TIP3   OH223423  -0.012   4.123   4.573 -0.2624  0.2014  0.8658
 7820TIP3    H123424  -0.030   4.042   4.525  0.2976  0.1720  0.6975
 7820TIP3    H223425   0.080   4.143   4.552 -0.9425  1.9721 -0.7243
 7821TIP3   OH223426   1.333   5.004   2.771 -0.3993  0.7091  0.4057
 7821TIP3    H123427   1.336   5.028   2.863 -0.6305  1.2249  0.2824
 7821TIP3    H223428   1.268   4.934   2.766 -1.1058  1.3415  0.4978
 7822TIP3   OH223429   0.446   3.657   1.694 -0.0565  0.5276 -0.6213
 7822TIP3    H123430   0.515   3.711   1.733 -0.2486  0.4367 -0.1496
 7822TIP3    H223431   0.366   3.684   1.738 -0.0047 -0.9013  0.4312
 7823TIP3   OH223432   2.028   3.605   4.271  0.2241 -0.6177 -0.0677
 7823TIP3    H123433   2.122   3.587   4.277  0.3206  0.3266  3.5814
 7823TIP3    H223434   2.022   3.684   4.218  1.2579 -1.6279 -1.7973
 7824TIP3   OH223435   6.733   4.618   3.912  0.4879  0.6974  0.1377
 7824TIP3    H123436   6.703   4.708   3.905 -0.5055  0.3415 -0.5263
 7824TIP3    H223437   6.741   4.588   3.821 -0.8499 -0.3728  0.3257
 7825TIP3   OH223438   4.513   6.145   2.319  0.1554 -0.2276 -0.3239
 7825TIP3    H123439   4.489   6.085   2.248 -0.7862  0.6520 -0.7677
 7825TIP3    H223440   4.505   6.232   2.282 -0.7611  0.2750  0.9724
 7826TIP3   OH223441   2.389   3.013   3.179 -0.7304  0.2795  0.1333
 7826TIP3    H123442   2.475   2.973   3.187 -1.2450 -1.1668 -1.0796
 7826TIP3    H223443   2.336   2.970   3.246 -1.1286 -0.6876 -0.7746
 7827TIP3   OH223444   2.732   1.908   0.307  0.0917 -0.0539  0.2104
 7827TIP3    H123445   2.818   1.890   0.345 -0.5200 -2.0929  0.7512
 7827TIP3    H223446   2.749   1.928   0.215  1.3356  2.1727  0.8405
 7828TIP3   OH223447   0.520   1.133   4.254  0.5464 -0.2138 -0.6700
 7828TIP3    H123448   0.525   1.071   4.326  1.3778  0.3878 -0.1849
 7828TIP3    H223449   0.611   1.152   4.233  0.3281 -0.6166 -2.1052
 7829TIP3   OH223450   4.625   3.380   3.075  0.4258  0.1751  0.0623
 7829TIP3    H123451   4.559   3.387   3.006  1.8908  0.2463 -1.4120
 7829TIP3    H223452   4.609   3.295   3.115 -0.5268  0.1746 -0.2883
 7830TIP3   OH223453   0.137   5.151   1.029 -0.0960  0.4496  0.4564
 7830TIP3    H123454   0.211   5.211   1.026 -0.3895  0.8391  0.7690
 7830TIP3    H223455   0.168   5.071   0.987 -0.2244  1.3949 -1.6149
 7831TIP3   OH223456   3.212   1.390   3.543 -0.1445  0.3529  0.2987
 7831TIP3    H123457   3.194   1.394   3.449  0.1693 -0.2738  0.2082
 7831TIP3    H223458   3.306   1.403   3.551 -0.3467  1.8332  0.6435
 7832TIP3   OH223459   1.664   5.609   0.751 -0.3240  0.0972 -0.2138
 7832TIP3    H123460   1.622   5.660   0.682  0.2369 -1.2913 -1.6309
 7832TIP3    H223461   1.742   5.572   0.710 -0.6245 -1.7692  0.7987
 7833TIP3   OH223462   4.236   3.125   0.647 -0.6765  0.2088 -0.5872
 7833TIP3    H123463   4.187   3.172   0.715 -2.2723 -0.7165 -1.0533
 7833TIP3    H223464   4.216   3.032   0.662  3.8459 -0.7364  1.4920
 7834TIP3   OH223465   3.854   3.375   4.145  0.8926  0.6206 -0.3165
 7834TIP3    H123466   3.907   3.304   4.181 -0.3759  0.0715  0.5483
 7834TIP3    H223467   3.883   3.453   4.194 -0.2381  0.0244  1.3971
 7835TIP3   OH223468   4.044   4.049   4.399 -0.0582 -0.3822  0.5710
 7835TIP3    H123469   4.092   4.119   4.442 -0.4706  0.7074 -0.6725
 7835TIP3    H223470   3.954   4.056   4.432 -0.4016  0.5282 -0.5109
 7836TIP3   OH223471   4.729   5.382   2.847 -0.0691 -0.4911 -0.0842
 7836TIP3    H123472   4.771   5.317   2.904  0.8428  0.1697  0.0156
 7836TIP3    H223473   4.801   5.437   2.817 -0.7702  0.1788 -0.5590
 7837TIP3   OH223474   3.006   1.189   2.947  0.5260 -0.3334 -0.4583
 7837TIP3    H123475   2.973   1.106   2.912  0.1166 -0.9417  1.3110
 7837TIP3    H223476   3.102   1.178   2.945  0.4965 -0.5578 -0.8989
 7838TIP3   OH223477   5.913   0.704   3.732  0.4557 -0.1315 -0.4235
 7838TIP3    H123478   5.989   0.674   3.781 -0.5198 -1.0431  0.6021
 7838TIP3    H223479   5.931   0.796   3.714  1.7319 -0.2973 -0.1031
 7839TIP3   OH223480   3.896   5.281   5.857 -0.6957  0.1692  0.3184
 7839TIP3    H123481   3.899   5.255   5.949  1.2986 -0.5187  0.0911
 7839TIP3    H223482   3.973   5.240   5.817 -0.1952  2.3786 -1.1548
 7840TIP3   OH223483   3.989   1.735   3.693 -0.0229 -0.0268 -0.1532
 7840TIP3    H123484   4.048   1.774   3.629  0.3130 -0.5142 -0.1355
 7840TIP3    H223485   4.034   1.744   3.777  0.0056 -0.3633 -0.1334
 7841TIP3   OH223486   0.305   1.882   4.094  0.3223  0.4767 -0.6820
 7841TIP3    H123487   0.328   1.790   4.088 -1.6927 -0.1631  0.3000
 7841TIP3    H223488   0.308   1.914   4.004 -0.9347 -1.1130 -1.3453
 7842TIP3   OH223489   2.388   5.857   2.823  0.2696 -0.0466  0.0374
 7842TIP3    H123490   2.414   5.837   2.913  1.1704  2.0033  0.2805
 7842TIP3    H223491   2.326   5.930   2.832 -0.2541 -0.3474 -0.9814
 7843TIP3   OH223492   2.400   1.011   1.999 -0.2235  0.3128 -0.1959
 7843TIP3    H123493   2.318   1.017   2.049 -0.9173  0.1872 -1.2907
 7843TIP3    H223494   2.466   0.992   2.065 -1.0675  0.4423  0.7211
 7844TIP3   OH223495   5.560   6.732   0.590 -0.4882  0.3006  0.2893
 7844TIP3    H123496   5.643   6.687   0.571 -0.9964 -0.3296 -0.5084
 7844TIP3    H223497   5.500   6.662   0.614 -1.5143  0.4117 -1.7575
 7845TIP3   OH223498   0.547   4.812   4.126  0.1785  0.3806 -0.4045
 7845TIP3    H123499   0.489   4.771   4.190  1.3877  1.0343  1.1963
 7845TIP3    H223500   0.518   4.778   4.041 -0.7712 -1.4235  0.5815
 7846TIP3   OH223501   1.184   0.966   4.521  0.6763  0.2515  0.4451
 7846TIP3    H123502   1.189   0.954   4.616 -1.4222 -1.1749  0.4486
 7846TIP3    H223503   1.128   0.894   4.491  2.6762 -0.3690 -2.1272
 7847TIP3   OH223504   4.980   4.154   5.603 -0.8921 -0.6997 -0.0763
 7847TIP3    H123505   4.997   4.066   5.568  0.9443  0.1684 -1.5421
 7847TIP3    H223506   5.062   4.201   5.588 -1.3153  0.8375  2.0979
 7848TIP3   OH223507   4.562   2.412   3.866  0.5462 -0.0726  0.4807
 7848TIP3    H123508   4.633   2.459   3.909  0.1677 -0.6750  1.8400
 7848TIP3    H223509   4.591   2.403   3.775  1.5080  1.0132  0.6500
 7849TIP3   OH223510   0.302   5.118   1.265  0.1167 -0.0087  0.4239
 7849TIP3    H123511   0.364   5.178   1.224  1.6314 -0.5455  1.8254
 7849TIP3    H223512   0.249   5.173   1.323 -1.5352  0.6279 -1.5553
 7850TIP3   OH223513   5.323   1.931   0.532 -0.3395 -0.3417  0.0066
 7850TIP3    H123514   5.294   1.938   0.441  0.7252 -0.9740 -0.4026
 7850TIP3    H223515   5.267   1.992   0.580 -0.9896 -0.0798 -1.0523
 7851TIP3   OH223516   1.053   5.660   0.870  0.0160 -0.5431  0.0366
 7851TIP3    H123517   1.078   5.700   0.954 -1.7272  0.5913  0.0793
 7851TIP3    H223518   1.133   5.620   0.837  1.3202  1.0663  1.0984
 7852TIP3   OH223519   3.942   3.306   0.285  0.1121 -0.0546  0.9450
 7852TIP3    H123520   4.034   3.290   0.263  0.1924  2.4767 -1.0361
 7852TIP3    H223521   3.942   3.317   0.380  1.5742 -1.6025  1.1663
 7853TIP3   OH223522   1.844   4.677   1.396 -0.2686  0.6283  0.0413
 7853TIP3    H123523   1.883   4.740   1.336 -0.1689 -0.3315 -0.9244
 7853TIP3    H223524   1.839   4.596   1.346  1.0992 -0.5898  1.7507
 7854TIP3   OH223525   0.673   4.769   5.591  0.0352  0.2656  0.3104
 7854TIP3    H123526   0.613   4.698   5.609 -0.3143  0.3808 -0.3814
 7854TIP3    H223527   0.658   4.832   5.662  0.8113 -0.6201  1.3003
 7855TIP3   OH223528   6.596   6.503   2.825 -0.8204 -0.1293 -0.0538
 7855TIP3    H123529   6.600   6.467   2.736 -1.4132 -0.1085 -0.0955
 7855TIP3    H223530   6.515   6.466   2.861  0.5547 -2.0276  1.3053
 7856TIP3   OH223531   4.477   2.314   2.779 -0.0748 -0.1660  0.1821
 7856TIP3    H123532   4.549   2.338   2.721 -0.3052 -0.9622 -0.4660
 7856TIP3    H223533   4.417   2.389   2.775 -1.0489 -0.9652 -2.2165
 7857TIP3   OH223534   6.712   1.234   1.189 -0.0735  0.1979  0.4372
 7857TIP3    H123535   6.658   1.284   1.249 -1.0046  0.3873 -0.5166
 7857TIP3    H223536   6.681   1.144   1.198  0.4931  0.0498  0.9762
 7858TIP3   OH223537   1.656   2.449   4.652 -0.5977  0.4543  0.1501
 7858TIP3    H123538   1.735   2.422   4.606 -2.4208 -1.2096 -2.2931
 7858TIP3    H223539   1.619   2.519   4.597 -0.2982  2.0387  1.8748
 7859TIP3   OH223540   5.775   5.398   5.554 -0.6862 -0.7052 -0.5737
 7859TIP3    H123541   5.694   5.349   5.541 -0.2875 -0.9863 -2.2331
 7859TIP3    H223542   5.833   5.337   5.600 -1.7080 -0.1559  1.5624
 7860TIP3   OH223543   6.761   1.433   0.060 -0.0261 -0.3224  0.1504
 7860TIP3    H123544   6.709   1.513   0.063 -1.5930 -1.1392 -2.3405
 7860TIP3    H223545   6.753   1.395   0.147 -0.1383  1.6561  1.0455
 7861TIP3   OH223546   5.721   6.033   5.730  0.4675  0.5738  0.1705
 7861TIP3    H123547   5.753   5.944   5.718  0.3556  0.7894 -2.1666
 7861TIP3    H223548   5.627   6.023   5.745  0.2037  0.3266 -1.4798
 7862TIP3   OH223549   3.945   4.825   2.252  0.3390 -0.1017 -0.4688
 7862TIP3    H123550   4.029   4.820   2.206  0.1283  1.4856 -1.0935
 7862TIP3    H223551   3.925   4.919   2.255 -0.1356 -0.2162  2.0399
 7863TIP3   OH223552   3.231   6.785   2.776  0.3916  0.1785  0.2542
 7863TIP3    H123553   3.323   6.802   2.756  0.5268 -0.8728 -0.0731
 7863TIP3    H223554   3.226   6.783   2.872  1.0947 -1.6262  0.2903
 7864TIP3   OH223555   3.277   2.264   1.218 -0.1717 -0.1629  0.6493
 7864TIP3    H123556   3.221   2.333   1.182 -0.4371 -1.1059 -0.8713
 7864TIP3    H223557   3.357   2.268   1.166  0.9053  0.6354  2.2697
 7865TIP3   OH223558   1.184   0.080   1.212 -0.0053 -0.3574 -0.0091
 7865TIP3    H123559   1.109   0.118   1.258  0.5365 -0.1849  0.7545
 7865TIP3    H223560   1.260   0.124   1.251  0.4868 -0.4819 -0.8186
 7866TIP3   OH223561   3.910   0.931   2.205  0.6660 -0.0871 -0.3635
 7866TIP3    H123562   3.996   0.956   2.238 -0.0413  1.2852  0.5530
 7866TIP3    H223563   3.859   1.013   2.205 -0.2168 -0.5579 -2.2839
 7867TIP3   OH223564   1.839   2.679   4.417 -0.0088 -0.1485 -0.0869
 7867TIP3    H123565   1.854   2.584   4.419  2.7268  0.2192  0.6131
 7867TIP3    H223566   1.907   2.712   4.359 -0.5747  1.4711  0.1404
 7868TIP3   OH223567   4.806   2.679   3.624 -0.3636  0.4894 -0.3358
 7868TIP3    H123568   4.881   2.638   3.579 -0.8319  0.3943 -1.0445
 7868TIP3    H223569   4.730   2.636   3.586 -0.8507  1.6994 -0.7671
 7869TIP3   OH223570   3.249   5.241   0.275 -0.2432  0.1982 -0.0031
 7869TIP3    H123571   3.314   5.255   0.344  0.8048 -0.7113 -0.7641
 7869TIP3    H223572   3.166   5.270   0.314  0.7434  2.2989  0.6586
 7870TIP3   OH223573   5.195   4.417   4.165  0.3026 -0.2092  0.0032
 7870TIP3    H123574   5.237   4.339   4.202 -2.1373 -1.9624 -0.6382
 7870TIP3    H223575   5.103   4.407   4.189 -0.6588  0.7387 -2.9169
 7871TIP3   OH223576   1.002   2.127   2.965 -0.8890 -0.8869 -0.3350
 7871TIP3    H123577   0.998   2.140   2.870  2.2347 -1.1964 -0.6261
 7871TIP3    H223578   0.954   2.045   2.980 -0.9544 -1.1364 -1.7353
 7872TIP3   OH223579   1.638   4.933   5.314  0.3461  0.1977 -0.1365
 7872TIP3    H123580   1.729   4.931   5.286  0.2110 -0.1510 -0.5565
 7872TIP3    H223581   1.634   5.004   5.377  1.2876 -0.9039  1.2152
 7873TIP3   OH223582   2.801   5.441   1.553  0.2977 -0.4910  0.3052
 7873TIP3    H123583   2.795   5.519   1.608  3.0073 -0.3140  0.4596
 7873TIP3    H223584   2.744   5.377   1.596 -0.5497  0.8036  1.1852
 7874TIP3   OH223585   0.515   1.933   4.392  0.2830 -0.2943 -0.4592
 7874TIP3    H123586   0.586   1.869   4.392  0.1939 -0.3984 -1.0301
 7874TIP3    H223587   0.471   1.920   4.308  0.5404  0.8146 -0.7854
 7875TIP3   OH223588   0.691   2.113   0.996 -0.6668  0.0558  0.0537
 7875TIP3    H123589   0.754   2.184   0.995  0.1722 -0.6566 -1.8935
 7875TIP3    H223590   0.739   2.038   1.029 -0.8163 -0.2029 -0.3014
 7876TIP3   OH223591   1.960   4.180   5.396  0.3508 -0.4840  0.7516
 7876TIP3    H123592   1.920   4.267   5.404 -0.0708 -0.4154 -1.5478
 7876TIP3    H223593   1.923   4.144   5.316  2.8338 -1.5513  0.0022
 7877TIP3   OH223594   7.067   4.697   1.919  0.2461 -0.3987  0.2169
 7877TIP3    H123595   7.130   4.664   1.983  0.7135 -0.2731 -0.1761
 7877TIP3    H223596   7.072   4.636   1.846  0.8252  0.2982 -0.3404
 7878TIP3   OH223597   4.188   4.771   2.905  0.4926  0.5235 -0.5939
 7878TIP3    H123598   4.098   4.740   2.918  1.3995 -2.1907 -0.0823
 7878TIP3    H223599   4.188   4.859   2.941 -1.2324 -0.5331  2.3913
 7879TIP3   OH223600   2.490   5.290   1.597 -0.0559 -0.1365  0.4130
 7879TIP3    H123601   2.463   5.226   1.663 -0.1556 -1.1624 -0.5940
 7879TIP3    H223602   2.443   5.370   1.621 -0.4340 -0.6194  1.3296
 7880TIP3   OH223603   5.445   6.681   2.423  0.1220 -0.0684  0.0324
 7880TIP3    H123604   5.431   6.597   2.380  0.8350  0.0396 -0.4274
 7880TIP3    H223605   5.356   6.714   2.440 -0.1605 -0.7653 -0.0551
 7881TIP3   OH223606   4.511   4.614   4.993  0.2122 -0.5102 -0.3020
 7881TIP3    H123607   4.575   4.663   4.941  1.2687 -0.1374  1.2849
 7881TIP3    H223608   4.443   4.678   5.014  0.4079 -0.3343 -0.2017
 7882TIP3   OH223609   7.094   0.864   0.133  0.3835  0.0987  0.3466
 7882TIP3    H123610   7.068   0.773   0.120 -1.6137  0.3657  1.9519
 7882TIP3    H223611   7.011   0.913   0.134  1.4104  2.0392 -0.8846
 7883TIP3   OH223612   1.834   1.096   4.696  0.4353  0.5344  0.5296
 7883TIP3    H123613   1.854   1.014   4.652 -0.8510  0.6307 -0.2676
 7883TIP3    H223614   1.900   1.157   4.663  1.2167 -0.0899  0.9034
 7884TIP3   OH223615   7.035   5.342   3.298  0.2147  0.1890  0.4083
 7884TIP3    H123616   6.977   5.280   3.342  1.8477 -0.8455  1.2072
 7884TIP3    H223617   7.029   5.422   3.351 -1.4703  0.5835 -0.3036
 7885TIP3   OH223618   5.903   0.035   0.201 -0.2868 -0.3521  0.1451
 7885TIP3    H123619   5.891  -0.060   0.198  0.2163 -0.4578  1.2301
 7885TIP3    H223620   5.859   0.067   0.122 -2.6878 -1.2494  1.0305
 7886TIP3   OH223621   1.709   1.231   0.837  0.1478 -0.1820 -0.1034
 7886TIP3    H123622   1.787   1.221   0.892  0.1093 -0.6681 -0.1349
 7886TIP3    H223623   1.644   1.172   0.876 -0.4795  0.8106  0.4130
 7887TIP3   OH223624   6.559   3.015   2.059  0.4990  0.2485  0.0732
 7887TIP3    H123625   6.538   3.077   2.128  0.0989  0.2786 -0.0754
 7887TIP3    H223626   6.549   2.929   2.101 -2.2782  0.1477 -0.5912
 7888TIP3   OH223627   0.609   4.233   1.027 -0.1308  0.1081  0.4133
 7888TIP3    H123628   0.605   4.161   0.964 -1.1532  0.7623 -0.2962
 7888TIP3    H223629   0.685   4.284   1.000  0.2480 -0.3772  0.5573
 7889TIP3   OH223630   2.034   2.762   4.239 -0.0153 -0.5776  0.0060
 7889TIP3    H123631   2.015   2.744   4.147  0.8768  1.1924 -0.5898
 7889TIP3    H223632   2.129   2.754   4.246  0.0715  0.5336  0.4339
 7890TIP3   OH223633   6.063   1.639   4.417  0.0789  0.0865  0.1997
 7890TIP3    H123634   6.004   1.699   4.463  1.0862  0.2052  1.3786
 7890TIP3    H223635   6.006   1.566   4.391 -1.1830  1.5043 -1.3105
 7891TIP3   OH223636   0.994   3.120   5.540 -0.4210  0.8286 -0.0457
 7891TIP3    H123637   0.966   3.142   5.451 -0.7452 -0.5925 -0.3151
 7891TIP3    H223638   1.040   3.037   5.531 -0.4510  0.6702  1.1119
 7892TIP3   OH223639   2.894   5.206   3.461 -0.6436 -0.4562  0.0548
 7892TIP3    H123640   2.950   5.172   3.531 -0.5496  1.6551  1.0728
 7892TIP3    H223641   2.899   5.140   3.392  0.5740 -1.8167  1.3733
 7893TIP3   OH223642   1.859   2.531   3.638  0.2945  0.0558 -0.2028
 7893TIP3    H123643   1.919   2.473   3.684  0.9242 -0.0534 -1.1456
 7893TIP3    H223644   1.784   2.540   3.698  1.6855  1.0643  1.4812
 7894TIP3   OH223645   3.032   6.766   2.575 -0.0614  0.4529 -0.3410
 7894TIP3    H123646   3.109   6.766   2.631 -1.1158 -0.2322  1.1886
 7894TIP3    H223647   2.976   6.697   2.611 -1.5582  1.1866 -1.1360
 7895TIP3   OH223648   4.972   6.012   0.049 -0.9387  0.3360 -0.3448
 7895TIP3    H123649   5.049   5.998  -0.006  1.5150 -2.0236  3.2341
 7895TIP3    H223650   4.962   6.107   0.052  1.8316  0.7204 -1.0009
 7896TIP3   OH223651   1.323   4.591   5.002 -0.3460  0.8653 -0.1733
 7896TIP3    H123652   1.265   4.664   5.026 -0.0033  1.8446 -2.1131
 7896TIP3    H223653   1.332   4.598   4.907  1.2327 -0.5883 -0.1806
 7897TIP3   OH223654   0.114   4.349   0.977 -0.1180  0.3818 -0.1427
 7897TIP3    H123655   0.019   4.342   0.964 -0.1438 -2.3699  0.8949
 7897TIP3    H223656   0.151   4.288   0.914  0.5998 -2.1360  2.5157
 7898TIP3   OH223657   3.613   6.357   5.294 -0.2883 -0.2867  0.5584
 7898TIP3    H123658   3.706   6.350   5.272 -0.7321 -4.1618 -0.9152
 7898TIP3    H223659   3.573   6.402   5.219  0.2716  0.8408  0.9204
 7899TIP3   OH223660   4.605   3.184   3.950  0.5550 -0.5677 -0.0556
 7899TIP3    H123661   4.566   3.166   4.036 -0.4541 -0.4650 -0.4823
 7899TIP3    H223662   4.688   3.228   3.971  0.0377  0.0212  0.8615
 7900TIP3   OH223663   4.856   0.387   0.393 -0.3780 -0.5752 -0.1537
 7900TIP3    H123664   4.788   0.328   0.424  0.6117 -1.7548 -0.1293
 7900TIP3    H223665   4.839   0.396   0.299  0.2566 -2.0631 -0.4433
 7901TIP3   OH223666   4.712   6.395   0.038  0.2356  0.1002 -0.4338
 7901TIP3    H123667   4.626   6.436   0.028 -1.8761 -3.9579 -0.6945
 7901TIP3    H223668   4.755   6.447   0.107 -3.1150  1.2434  1.0140
 7902TIP3   OH223669   6.825   2.230   0.202 -0.1988  0.0987  0.0125
 7902TIP3    H123670   6.874   2.225   0.120  1.2610 -0.1018  0.8615
 7902TIP3    H223671   6.766   2.305   0.189  0.3221  0.3552 -1.0473
 7903TIP3   OH223672   6.056   2.473   0.472 -0.2578 -0.6922 -0.3936
 7903TIP3    H123673   6.106   2.549   0.441 -1.9857  0.9170  0.5397
 7903TIP3    H223674   6.081   2.402   0.413  2.2913  0.2767 -0.6095
 7904TIP3   OH223675   2.620   0.667   4.255  0.4547 -0.0154 -0.1586
 7904TIP3    H123676   2.626   0.576   4.226 -0.4483 -0.1112 -0.0910
 7904TIP3    H223677   2.574   0.712   4.184 -0.0229  0.1612  0.2550
 7905TIP3   OH223678   5.587   1.129   0.295 -0.7940  0.0290  0.3795
 7905TIP3    H123679   5.626   1.187   0.230 -0.4465 -0.3827  0.2199
 7905TIP3    H223680   5.561   1.187   0.366  0.1272  0.3074  0.4978
 7906TIP3   OH223681   4.092   5.750   1.833 -0.4876  0.7695  0.4132
 7906TIP3    H123682   4.020   5.813   1.841 -1.0564  0.6163 -2.2681
 7906TIP3    H223683   4.169   5.797   1.865 -0.9058  2.8864 -1.3750
 7907TIP3   OH223684   1.533   2.314   0.215 -0.2774 -0.4242  0.1192
 7907TIP3    H123685   1.534   2.255   0.140 -0.6027 -1.1465  0.6647
 7907TIP3    H223686   1.448   2.358   0.208 -1.0120 -1.6377  0.8987
 7908TIP3   OH223687   1.088   6.772   3.336 -0.0270  0.5459  0.3529
 7908TIP3    H123688   1.162   6.712   3.347  1.9051  2.5923 -0.7061
 7908TIP3    H223689   1.059   6.758   3.247  0.1269  0.8224  0.2562
 7909TIP3   OH223690   0.792   1.424   5.851  0.3172 -0.3189 -0.0294
 7909TIP3    H123691   0.831   1.389   5.931 -1.0698 -1.5187  0.1483
 7909TIP3    H223692   0.817   1.517   5.851 -0.4805 -0.0388  2.3280
 7910TIP3   OH223693   4.882   2.144   0.624 -0.6566  0.3294  0.0273
 7910TIP3    H123694   4.810   2.204   0.606  0.5797  1.8470 -0.0796
 7910TIP3    H223695   4.917   2.173   0.708  1.5706  1.5189 -1.1916
 7911TIP3   OH223696   5.568   4.688   2.169 -0.1165  0.0549 -0.4979
 7911TIP3    H123697   5.499   4.693   2.235 -0.0967  0.5824 -0.5094
 7911TIP3    H223698   5.634   4.630   2.207  0.6170  1.5437  0.6362
 7912TIP3   OH223699   5.370   3.269   1.353 -0.0485  0.1169 -0.1977
 7912TIP3    H123700   5.407   3.293   1.268  4.7693 -0.1101  1.5149
 7912TIP3    H223701   5.359   3.352   1.399 -0.7023  0.1165 -0.3508
 7913TIP3   OH223702   5.823   2.691   3.858  0.6434 -0.0412  0.1140
 7913TIP3    H123703   5.742   2.639   3.857  0.7852 -0.2601 -0.0025
 7913TIP3    H223704   5.885   2.640   3.806  0.8656  0.1142  0.2251
 7914TIP3   OH223705   4.922   1.659   5.087 -0.4013  0.2830 -0.1739
 7914TIP3    H123706   4.829   1.637   5.096 -0.2119 -2.8469 -3.4239
 7914TIP3    H223707   4.924   1.725   5.018 -0.2187 -0.7798 -1.2215
 7915TIP3   OH223708   3.122   6.454   2.422  0.0732  0.1211 -0.4971
 7915TIP3    H123709   3.143   6.366   2.390  1.1931  0.7014 -1.4469
 7915TIP3    H223710   3.061   6.489   2.358  1.2722  0.7930 -1.3006
 7916TIP3   OH223711   1.860   5.066   3.581  0.3287  0.2416  0.4852
 7916TIP3    H123712   1.836   5.141   3.635  1.1801  0.1750  0.9757
 7916TIP3    H223713   1.828   4.989   3.629 -0.6900  0.2799 -0.0966
 7917TIP3   OH223714   3.777   2.309   3.574  0.1177  0.3524  0.3117
 7917TIP3    H123715   3.775   2.214   3.568 -0.8759  0.3735  0.1322
 7917TIP3    H223716   3.846   2.328   3.638 -0.7228 -0.5412  1.5214
 7918TIP3   OH223717   0.745   4.478   3.554  0.4163  0.0584 -0.0394
 7918TIP3    H123718   0.679   4.409   3.546  0.8638 -0.2141 -2.0246
 7918TIP3    H223719   0.699   4.557   3.526  0.4881  0.1520  0.1124
 7919TIP3   OH223720   6.724   1.373   4.497 -0.0304 -0.0333 -0.3376
 7919TIP3    H123721   6.712   1.299   4.557  3.7848 -0.4640  0.1158
 7919TIP3    H223722   6.775   1.436   4.547 -0.2658  1.4119 -1.8509
 7920TIP3   OH223723   0.781   2.960   0.708  0.1782  0.1739 -0.1511
 7920TIP3    H123724   0.748   3.046   0.734 -2.0943 -0.8507  0.6561
 7920TIP3    H223725   0.840   2.935   0.779 -0.5190  0.3464  0.5024
 7921TIP3   OH223726   1.746   1.108   3.158 -0.2384 -0.2467  0.1699
 7921TIP3    H123727   1.729   1.014   3.161  1.1224 -0.5139  0.2037
 7921TIP3    H223728   1.670   1.145   3.113 -0.2442 -1.4986 -0.9068
 7922TIP3   OH223729   0.573   0.702   4.778  0.0654 -0.1800 -0.4594
 7922TIP3    H123730   0.636   0.640   4.813 -0.2988  0.1431  0.8200
 7922TIP3    H223731   0.488   0.666   4.803 -0.2780 -0.4570 -1.9031
 7923TIP3   OH223732   0.132   5.190   3.516  0.4810  0.4779 -0.0544
 7923TIP3    H123733   0.045   5.153   3.503  1.2641 -1.4210 -0.2302
 7923TIP3    H223734   0.125   5.242   3.596 -0.8203  0.4617 -0.1378
 7924TIP3   OH223735   1.014   2.232   0.185 -0.0866 -0.1524 -0.1293
 7924TIP3    H123736   0.997   2.142   0.155  2.2523 -1.0461  1.0024
 7924TIP3    H223737   0.929   2.276   0.178 -1.1383 -2.2277 -1.4187
 7925TIP3   OH223738   5.894   2.642   1.868  0.4234  0.1074 -0.2196
 7925TIP3    H123739   5.893   2.575   1.800 -1.5109 -0.2927  0.1595
 7925TIP3    H223740   5.890   2.725   1.820  0.3151 -0.1239 -0.6176
 7926TIP3   OH223741   5.323   1.204   2.863  0.4069  0.4420  0.0481
 7926TIP3    H123742   5.256   1.137   2.853  1.5978 -0.7818 -0.0299
 7926TIP3    H223743   5.343   1.232   2.774  1.0935 -0.3449 -0.0625
 7927TIP3   OH223744   0.418   5.928   0.656 -0.3063 -0.4758  0.0912
 7927TIP3    H123745   0.430   6.023   0.658  0.2224 -0.4874 -1.4444
 7927TIP3    H223746   0.388   5.909   0.567 -0.3921 -1.7513  0.3707
 7928TIP3   OH223747   6.075   4.754   1.232  0.1863 -0.4601 -0.4034
 7928TIP3    H123748   6.130   4.806   1.291  1.7082 -1.1378 -1.1388
 7928TIP3    H223749   6.054   4.814   1.160  1.5246 -0.6756 -1.0073
 7929TIP3   OH223750   1.457   2.906   1.571 -0.1589 -0.0199  0.1571
 7929TIP3    H123751   1.516   2.971   1.535  0.9150 -0.9092  0.2610
 7929TIP3    H223752   1.429   2.942   1.655  0.3916  0.3251  0.1947
 7930TIP3   OH223753   5.646   0.551   4.294 -0.6698  0.2478 -0.4747
 7930TIP3    H123754   5.609   0.511   4.373  1.7716 -0.7005  0.2645
 7930TIP3    H223755   5.649   0.644   4.314  0.9907 -0.0832  1.1166
 7931TIP3   OH223756   1.734   5.664   4.467 -0.2736  0.3301 -0.5708
 7931TIP3    H123757   1.804   5.609   4.430 -0.1435  0.1103 -0.0197
 7931TIP3    H223758   1.746   5.749   4.426  0.9813  0.5960  0.2601
 7932TIP3   OH223759   1.026   1.971   4.441 -0.4244 -0.4827  0.0990
 7932TIP3    H123760   0.977   2.032   4.495  0.9660  2.6475 -1.8617
 7932TIP3    H223761   0.978   1.967   4.358 -0.1026 -1.4770 -0.0539
 7933TIP3   OH223762   4.041   4.237   4.760 -0.0804  0.2442 -0.2927
 7933TIP3    H123763   3.987   4.308   4.796 -0.0575 -0.5384  1.3822
 7933TIP3    H223764   3.977   4.173   4.728 -0.1190  0.3086 -0.3457
 7934TIP3   OH223765   5.141   5.705   1.450  0.0135  0.1124  0.0224
 7934TIP3    H123766   5.155   5.744   1.364 -2.6134  0.8496 -0.1586
 7934TIP3    H223767   5.146   5.780   1.510  1.0866 -0.2881  0.4624
 7935TIP3   OH223768   3.715   3.551   0.034  0.1927 -0.0074  0.4321
 7935TIP3    H123769   3.733   3.460   0.011 -0.5486 -0.2944  0.9512
 7935TIP3    H223770   3.802   3.590   0.046  0.6017  0.0345 -2.2247
 7936TIP3   OH223771   4.176   5.072   5.207  0.0535 -0.1399  0.4138
 7936TIP3    H123772   4.148   4.998   5.153  0.4970 -0.2150  0.2834
 7936TIP3    H223773   4.112   5.076   5.278 -0.0912 -0.5189  0.3048
 7937TIP3   OH223774   5.201   2.919   4.734  0.6162 -0.0331  0.6277
 7937TIP3    H123775   5.172   2.862   4.663  1.2522 -1.8517  1.7630
 7937TIP3    H223776   5.294   2.899   4.744  0.8803  1.3200  0.9799
 7938TIP3   OH223777   1.160   5.989   2.797 -0.4073  0.0928  0.3448
 7938TIP3    H123778   1.085   5.947   2.840  0.7797 -3.1906 -0.5169
 7938TIP3    H223779   1.232   5.927   2.808  1.9521  2.6019  0.1255
 7939TIP3   OH223780   1.945   0.424   2.186  0.1934  0.5144 -0.0520
 7939TIP3    H123781   1.891   0.502   2.200  1.1630  1.0175  1.1111
 7939TIP3    H223782   2.033   0.459   2.172  0.3060 -0.3048 -1.4775
 7940TIP3   OH223783   5.710   4.395   3.288  0.1751 -0.9028 -0.2039
 7940TIP3    H123784   5.775   4.378   3.221 -0.1097  0.6911 -0.9145
 7940TIP3    H223785   5.631   4.349   3.257 -0.1240  0.2973 -1.2795
 7941TIP3   OH223786   3.123   6.196   5.028 -0.2206  0.0975  0.2265
 7941TIP3    H123787   3.136   6.153   5.113  0.3505 -0.6993 -0.2494
 7941TIP3    H223788   3.135   6.289   5.045  1.9719 -0.2154  0.6418
 7942TIP3   OH223789   0.693   5.773   1.064 -0.1895 -0.6408  0.3546
 7942TIP3    H123790   0.641   5.786   1.143  0.0434  0.3128  0.3578
 7942TIP3    H223791   0.723   5.860   1.040  0.4653 -1.0311 -0.2944
 7943TIP3   OH223792   3.698   4.972   5.353  0.3096 -0.1951 -0.1698
 7943TIP3    H123793   3.662   4.980   5.441 -1.8384  0.1176 -1.0136
 7943TIP3    H223794   3.682   5.057   5.312  0.2052 -0.6989 -1.2216
 7944TIP3   OH223795   1.674   3.109   1.977 -0.2803  0.6257  0.5285
 7944TIP3    H123796   1.659   3.035   1.918 -0.8770  0.7380  0.5318
 7944TIP3    H223797   1.663   3.186   1.922 -3.8538  0.8656  1.3108
 7945TIP3   OH223798   6.494   6.253   0.233  0.8525  0.6817 -0.3132
 7945TIP3    H123799   6.486   6.195   0.309  0.8763 -1.0031 -1.5375
 7945TIP3    H223800   6.455   6.336   0.261  1.0395  0.1676  1.5826
 7946TIP3   OH223801   7.071   6.162   2.751  0.4425  0.5697  0.2322
 7946TIP3    H123802   6.978   6.184   2.745  0.4271  0.1794 -1.3093
 7946TIP3    H223803   7.113   6.244   2.777 -0.2568  0.9472  0.1864
 7947TIP3   OH223804   5.270   3.658   3.752 -0.3305  0.6424  0.0344
 7947TIP3    H123805   5.265   3.568   3.782  1.4010  1.0579  1.7505
 7947TIP3    H223806   5.348   3.694   3.795  0.9016  2.0434 -3.0441
 7948TIP3   OH223807   4.423   0.188   1.942  0.6269  0.0521 -0.2376
 7948TIP3    H123808   4.511   0.162   1.968  0.9172 -0.9244 -2.0718
 7948TIP3    H223809   4.372   0.182   2.023  1.9317 -0.7367  0.5650
 7949TIP3   OH223810   5.635   4.542   3.524  0.6490  0.1210 -0.5835
 7949TIP3    H123811   5.632   4.457   3.480 -0.5514  0.0390 -0.3910
 7949TIP3    H223812   5.560   4.540   3.583 -0.2359  1.8661 -1.5812
 7950TIP3   OH223813   2.069   3.498   2.457  0.3513 -0.1814 -0.0594
 7950TIP3    H123814   2.088   3.590   2.474 -1.1237  0.1046  0.1666
 7950TIP3    H223815   2.136   3.471   2.394  1.0520  0.9206  0.1843
 7951TIP3   OH223816   5.739   6.110   4.562  0.0209  0.3475 -0.7814
 7951TIP3    H123817   5.679   6.181   4.539 -1.0152  0.2508  1.3864
 7951TIP3    H223818   5.696   6.031   4.529 -0.2912  0.4430 -0.6106
 7952TIP3   OH223819   4.681   6.733   4.420 -0.0006 -0.1531 -0.6860
 7952TIP3    H123820   4.628   6.739   4.499  0.4460  0.0095 -0.3944
 7952TIP3    H223821   4.622   6.758   4.349 -0.9296 -2.0465 -0.6330
 7953TIP3   OH223822   0.730   1.645   2.897  0.1444  0.0259 -0.0464
 7953TIP3    H123823   0.682   1.639   2.979  0.9134  1.2893  0.5212
 7953TIP3    H223824   0.810   1.596   2.912 -0.1332 -0.5497 -0.3856
 7954TIP3   OH223825   5.870   4.041   5.108  0.1186  0.3420 -0.0460
 7954TIP3    H123826   5.838   4.115   5.055 -0.5305 -0.3239 -0.6105
 7954TIP3    H223827   5.958   4.067   5.135 -0.7824  2.1785  1.4093
 7955TIP3   OH223828   1.464   1.225   3.184 -0.3382 -0.1575  0.1869
 7955TIP3    H123829   1.445   1.295   3.122 -0.0756 -0.7967 -0.6340
 7955TIP3    H223830   1.424   1.147   3.146 -0.2973 -0.5335  0.8932
 7956TIP3   OH223831   5.598   5.371   3.543 -0.1136  0.2007 -0.3421
 7956TIP3    H123832   5.684   5.330   3.536  0.5172  1.5971 -1.1914
 7956TIP3    H223833   5.617   5.462   3.566 -1.3854  0.4496 -0.2183
 7957TIP3   OH223834   0.539   0.897   0.504 -1.1021  0.0756 -0.5809
 7957TIP3    H123835   0.606   0.854   0.452 -1.7377  0.0932 -1.4396
 7957TIP3    H223836   0.587   0.945   0.571 -0.2829 -0.2070 -0.9566
 7958TIP3   OH223837   7.128   5.770   1.037  0.5473 -0.0127  0.3507
 7958TIP3    H123838   7.079   5.756   1.118  0.1744 -0.0243  0.1296
 7958TIP3    H223839   7.220   5.767   1.063  0.4291  0.4188  0.8422
 7959TIP3   OH223840   6.804   4.377   4.591  0.2967 -0.5469  0.0129
 7959TIP3    H123841   6.726   4.321   4.594 -0.4434  0.4574 -0.0450
 7959TIP3    H223842   6.782   4.446   4.529  0.7985  0.3810  0.8296
 7960TIP3   OH223843   2.844   5.964   1.484  0.1560  0.1805 -0.2393
 7960TIP3    H123844   2.908   5.943   1.415 -1.4877 -0.2711 -1.7055
 7960TIP3    H223845   2.766   5.913   1.461 -1.4484  2.2244  0.2820
 7961TIP3   OH223846   3.450   4.168   1.064 -0.4328 -0.4566 -0.5350
 7961TIP3    H123847   3.436   4.221   1.142  1.7704  0.7940 -0.8917
 7961TIP3    H223848   3.400   4.088   1.079  1.3707 -1.1042  3.0329
 7962TIP3   OH223849   5.566   5.826   0.091  0.1009  0.7053 -0.5430
 7962TIP3    H123850   5.570   5.920   0.070  0.6449  0.5248 -1.2997
 7962TIP3    H223851   5.620   5.817   0.169  0.1330  1.0083 -0.5264
 7963TIP3   OH223852   7.171   1.828   2.573  0.2573  0.3687 -0.5972
 7963TIP3    H123853   7.234   1.812   2.643  0.1904  1.3944 -0.2802
 7963TIP3    H223854   7.132   1.743   2.554  0.7105 -0.0176  0.2024
 7964TIP3   OH223855   5.279   0.758   4.160  0.4771 -0.3671 -0.1909
 7964TIP3    H123856   5.309   0.831   4.214 -1.6624  0.9753 -0.6960
 7964TIP3    H223857   5.299   0.680   4.211  1.7129  0.6393  0.9184
 7965TIP3   OH223858   2.860   6.385   0.509 -0.4830 -0.5871 -0.2872
 7965TIP3    H123859   2.914   6.456   0.543 -0.7604 -0.1773 -0.6899
 7965TIP3    H223860   2.914   6.306   0.520 -0.3495 -0.3841  0.5711
 7966TIP3   OH223861   2.897   3.702   3.652  0.8679 -0.4476  0.1131
 7966TIP3    H123862   2.961   3.756   3.698 -0.6074 -0.4644  2.3185
 7966TIP3    H223863   2.812   3.737   3.678 -0.0880 -1.2785 -1.6606
 7967TIP3   OH223864   7.115   0.757   5.039 -0.5196  0.2516 -0.1476
 7967TIP3    H123865   7.093   0.847   5.013  0.5343  0.8231  0.8482
 7967TIP3    H223866   7.035   0.707   5.022 -1.6629  1.6875  0.7450
 7968TIP3   OH223867   0.179   5.491   1.607  0.0630  0.2291 -0.1108
 7968TIP3    H123868   0.217   5.566   1.653 -0.7121  1.2625 -1.1069
 7968TIP3    H223869   0.085   5.500   1.619 -0.0552 -0.3832 -0.5416
 7969TIP3   OH223870   1.594   5.198   5.028  0.0854 -0.7323 -0.3667
 7969TIP3    H123871   1.563   5.116   5.066 -0.2091 -0.8217 -0.7881
 7969TIP3    H223872   1.535   5.213   4.953  0.0385 -0.0587 -0.1993
 7970TIP3   OH223873   6.961   5.313   1.145 -0.4433 -0.6311  0.0720
 7970TIP3    H123874   7.038   5.369   1.135  0.3053 -1.6333  0.1236
 7970TIP3    H223875   6.892   5.360   1.098  0.7137 -0.7149 -1.8026
 7971TIP3   OH223876   3.144   5.664   0.482  0.0543  0.8075 -0.4701
 7971TIP3    H123877   3.221   5.616   0.453 -0.0395 -0.3525  1.0442
 7971TIP3    H223878   3.089   5.597   0.524 -1.8956  1.5475 -1.7005
 7972TIP3   OH223879   5.155   6.305   1.450 -0.0602  0.6263  0.2423
 7972TIP3    H123880   5.114   6.303   1.363 -0.8865  0.6870  0.6202
 7972TIP3    H223881   5.249   6.298   1.432 -0.1486  1.6199 -0.7057
 7973TIP3   OH223882   2.587   2.086   5.347  0.3369  0.0596 -0.6697
 7973TIP3    H123883   2.503   2.133   5.346  0.1090 -0.3233 -0.0423
 7973TIP3    H223884   2.653   2.155   5.357 -0.1201  0.1733  2.8951
 7974TIP3   OH223885   4.573   5.866   3.755  0.3976  0.3900  0.3752
 7974TIP3    H123886   4.665   5.841   3.768 -0.2280 -2.7792 -0.3734
 7974TIP3    H223887   4.555   5.843   3.664 -1.5594 -0.7555  1.0037
 7975TIP3   OH223888   4.050   5.344   5.484  0.2355 -0.2806 -0.0840
 7975TIP3    H123889   3.979   5.376   5.540 -0.5254  0.3408 -1.3602
 7975TIP3    H223890   4.079   5.421   5.435  1.1930 -0.7161 -0.2213
 7976TIP3   OH223891   6.913   5.595   2.565  0.1405  0.5554 -0.2333
 7976TIP3    H123892   6.892   5.630   2.479 -1.9588 -2.8765 -1.3100
 7976TIP3    H223893   6.992   5.543   2.552 -0.4407 -0.3477 -0.2500
 7977TIP3   OH223894   4.852   1.850   4.525 -0.2862 -0.4874 -0.1577
 7977TIP3    H123895   4.874   1.924   4.582 -2.3850 -0.6499  0.9709
 7977TIP3    H223896   4.868   1.883   4.436 -1.7199  1.5835  0.2793
 7978TIP3   OH223897   6.824   1.808   2.809  0.0257  0.1129 -0.2668
 7978TIP3    H123898   6.787   1.853   2.733 -1.0305  1.1773  0.8223
 7978TIP3    H223899   6.896   1.864   2.837 -1.1564  1.1050  0.9620
 7979TIP3   OH223900   6.019   1.981   4.531 -0.3026 -0.5895 -0.1440
 7979TIP3    H123901   5.967   1.901   4.540  1.1808 -1.5827 -0.0157
 7979TIP3    H223902   6.095   1.954   4.480  0.4538  0.6384  0.2974
 7980TIP3   OH223903   2.357   0.671   0.646 -0.0089 -0.1790 -0.2307
 7980TIP3    H123904   2.341   0.743   0.585  0.6906  0.1365 -0.0550
 7980TIP3    H223905   2.358   0.592   0.591 -0.9557 -0.0846 -0.4003
 7981TIP3   OH223906   3.759   1.792   2.756  1.2048 -0.2197 -0.1032
 7981TIP3    H123907   3.786   1.728   2.823  1.5708 -0.9403 -0.9241
 7981TIP3    H223908   3.792   1.876   2.789  0.6948 -0.4402  1.0041
 7982TIP3   OH223909   2.784   3.572   2.460 -0.3348 -0.1485 -0.0831
 7982TIP3    H123910   2.865   3.556   2.509  0.1552 -1.6609 -1.2627
 7982TIP3    H223911   2.715   3.537   2.515 -0.0173 -0.1077  0.3446
 7983TIP3   OH223912   3.703   6.342   2.744  0.1466  0.3658  0.3705
 7983TIP3    H123913   3.670   6.309   2.661  0.1584 -0.5650  0.7259
 7983TIP3    H223914   3.799   6.342   2.734  0.2452 -1.4017  0.9636
 7984TIP3   OH223915   1.906   1.625   5.097  0.8402 -0.5527  0.2833
 7984TIP3    H123916   2.000   1.617   5.112  0.8029 -1.5858  0.0343
 7984TIP3    H223917   1.888   1.567   5.023  0.0137 -0.3513  0.3149
 7985TIP3   OH223918   4.935   2.011   3.008  0.4886 -0.4462  0.5273
 7985TIP3    H123919   5.016   2.060   2.996 -0.3452  1.2937  1.6125
 7985TIP3    H223920   4.886   2.027   2.927  0.9297 -0.9295  0.1590
 7986TIP3   OH223921   3.948   2.264   3.188 -0.2033  0.2089 -0.3463
 7986TIP3    H123922   4.022   2.312   3.152 -0.5898  1.6297  0.6721
 7986TIP3    H223923   3.986   2.212   3.259 -0.1108  0.6587 -0.0602
 7987TIP3   OH223924   6.642   5.551   5.041 -0.4530 -0.2858  0.3927
 7987TIP3    H123925   6.702   5.532   4.969  0.0172  0.5807  0.5534
 7987TIP3    H223926   6.598   5.632   5.016  0.0909  0.3071  1.3131
 7988TIP3   OH223927   3.245   4.654   1.659 -0.0826 -0.3345 -0.0764
 7988TIP3    H123928   3.312   4.656   1.728 -0.0918 -1.3293 -0.0288
 7988TIP3    H223929   3.289   4.692   1.583  0.3236 -0.3568  0.1411
 7989TIP3   OH223930   1.591   3.105   0.416 -0.0477  0.2136 -0.2775
 7989TIP3    H123931   1.640   3.049   0.476 -0.8230  0.1327  0.3028
 7989TIP3    H223932   1.503   3.067   0.415 -0.0688  0.2605 -1.4143
 7990TIP3   OH223933   5.641   0.516   2.436  0.0510 -1.1095 -0.0115
 7990TIP3    H123934   5.626   0.535   2.344  1.3931  0.7067  0.0773
 7990TIP3    H223935   5.560   0.541   2.480  0.2632  0.4990 -0.4462
 7991TIP3   OH223936   6.596   5.346   2.798  0.5347 -0.0066 -0.0447
 7991TIP3    H123937   6.586   5.403   2.874  1.0888 -0.2963  0.2550
 7991TIP3    H223938   6.530   5.377   2.736  0.1435  0.2951  0.5122
 7992TIP3   OH223939   2.370   1.153   3.691 -0.6888 -0.1484 -0.0938
 7992TIP3    H123940   2.391   1.072   3.738 -1.4197 -0.7328 -0.7606
 7992TIP3    H223941   2.414   1.144   3.607  0.1693  0.6649  0.2381
 7993TIP3   OH223942   1.755   3.614   5.475  0.2757  0.1162 -0.2217
 7993TIP3    H123943   1.829   3.639   5.531  0.7439  0.8413 -1.1305
 7993TIP3    H223944   1.795   3.567   5.402 -0.0626  1.1188 -1.0791
 7994TIP3   OH223945   0.828   4.118   5.072  0.7012  0.4317 -0.2467
 7994TIP3    H123946   0.906   4.097   5.020  1.7797 -0.1672  1.5378
 7994TIP3    H223947   0.787   4.191   5.025  1.8109  0.1673 -1.7097
 7995TIP3   OH223948   5.670   6.798   4.491 -0.4127 -0.0508  0.2996
 7995TIP3    H123949   5.609   6.733   4.455 -0.1306 -0.1922  0.0626
 7995TIP3    H223950   5.675   6.778   4.584 -2.1473  1.1316  0.6888
 7996TIP3   OH223951   4.160   6.497   4.740 -0.1569  0.2729  0.0272
 7996TIP3    H123952   4.164   6.407   4.772  0.8496 -0.3606 -1.6850
 7996TIP3    H223953   4.095   6.540   4.795  1.8863 -0.4676  3.2945
 7997TIP3   OH223954   4.518   4.737   2.054  0.1343 -0.0730 -0.0112
 7997TIP3    H123955   4.600   4.689   2.044 -0.0783 -0.4910  0.2048
 7997TIP3    H223956   4.462   4.704   1.983  0.3040  0.5332 -0.4299
 7998TIP3   OH223957   6.216   3.190   0.423  0.1991  0.1988  0.0419
 7998TIP3    H123958   6.293   3.145   0.459  0.4260  0.2506 -0.3695
 7998TIP3    H223959   6.204   3.151   0.336 -1.4118 -1.1879  0.8430
 7999TIP3   OH223960   3.882   1.041   5.471 -0.1996  0.0622 -0.2575
 7999TIP3    H123961   3.818   0.977   5.503 -0.0159  0.7528  1.6322
 7999TIP3    H223962   3.929   0.995   5.402 -0.0340 -1.9246  1.0774
 8000TIP3   OH223963   0.616   4.081   1.240 -0.3729 -0.3821 -0.3407
 8000TIP3    H123964   0.701   4.040   1.225  0.4666  1.2371 -0.1447
 8000TIP3    H223965   0.609   4.147   1.172 -1.2912 -0.2112 -0.0873
 8001TIP3   OH223966   3.694   0.428   3.287  0.0161  0.1726 -0.1988
 8001TIP3    H123967   3.668   0.488   3.217  2.0082 -0.2870 -1.4332
 8001TIP3    H223968   3.773   0.467   3.325  0.3663 -0.7936  0.1270
 8002TIP3   OH223969   6.719   3.162   1.680 -0.1035 -0.5565 -0.3698
 8002TIP3    H123970   6.726   3.090   1.743 -3.3577 -0.7926 -0.0847
 8002TIP3    H223971   6.702   3.239   1.734 -0.9878 -0.4099 -0.8448
 8003TIP3   OH223972   1.312   3.944   0.787  0.4320 -0.0712 -0.0119
 8003TIP3    H123973   1.337   3.920   0.876  2.0627  0.3367 -0.3140
 8003TIP3    H223974   1.321   4.039   0.784  1.7134 -0.1905 -0.9503
 8004TIP3   OH223975   1.078   6.087   1.428  0.3885  0.0861 -0.0029
 8004TIP3    H123976   1.149   6.140   1.463 -0.7108  0.9279  1.0754
 8004TIP3    H223977   1.041   6.042   1.504 -0.6283  0.1850 -0.4160
 8005TIP3   OH223978   4.729   0.756   2.859  0.2230 -0.2861  0.1551
 8005TIP3    H123979   4.751   0.666   2.884  0.3223 -0.3329 -0.0971
 8005TIP3    H223980   4.679   0.748   2.778 -0.5900 -0.1646  0.6390
 8006TIP3   OH223981   1.093   3.980   5.457 -0.0516 -0.5412 -0.5839
 8006TIP3    H123982   1.046   3.903   5.424 -0.0583  0.1851 -2.3782
 8006TIP3    H223983   1.179   3.974   5.415  0.7243 -0.6902  0.9586
 8007TIP3   OH223984   0.972   6.646   2.636 -0.0348 -0.0295 -0.0525
 8007TIP3    H123985   1.059   6.640   2.597  0.3296 -1.0802  0.8848
 8007TIP3    H223986   0.980   6.715   2.703 -0.1368  0.4013 -0.4785
 8008TIP3   OH223987   2.838   3.655   0.957  0.4586  0.4083  0.5407
 8008TIP3    H123988   2.789   3.674   0.877  1.1663 -3.3964 -0.9902
 8008TIP3    H223989   2.776   3.676   1.027 -1.8527 -0.2571 -1.1564
 8009TIP3   OH223990   2.754   1.360   2.906 -0.0032 -0.4016  0.0685
 8009TIP3    H123991   2.809   1.410   2.966  0.3700  0.8476 -1.2418
 8009TIP3    H223992   2.666   1.368   2.942 -0.0494  1.7268 -0.3461
 8010TIP3   OH223993   4.193   3.746   5.521  0.1510 -0.0916 -0.1507
 8010TIP3    H123994   4.272   3.783   5.480 -0.9025  0.4046 -1.8469
 8010TIP3    H223995   4.226   3.676   5.577  1.7770 -0.1329 -1.0803
 8011TIP3   OH223996   1.831   4.516   3.511 -0.7074  1.3231 -0.2442
 8011TIP3    H123997   1.885   4.482   3.441 -0.1914  0.3242  0.6124
 8011TIP3    H223998   1.807   4.604   3.482  1.5705  1.9071 -0.5529
 8012TIP3   OH223999   0.293   5.159   4.621 -0.0105  0.2565 -0.1490
 8012TIP3    H124000   0.239   5.093   4.577  0.1617  0.5034 -0.7533
 8012TIP3    H224001   0.233   5.232   4.637  0.0426  0.3734 -0.4610
 8013TIP3   OH224002   0.901   0.775   4.858 -0.7113  0.5180 -0.0076
 8013TIP3    H124003   0.827   0.834   4.874 -2.5547 -1.5480 -0.4567
 8013TIP3    H224004   0.861   0.693   4.831  1.8263 -0.3166 -1.5901
 8014TIP3   OH224005   4.798   3.707   3.173  0.0993 -0.0859  0.9584
 8014TIP3    H124006   4.850   3.737   3.247  2.2046  0.7800 -0.7772
 8014TIP3    H224007   4.812   3.612   3.170  1.6560  0.1349  0.5100
 8015TIP3   OH224008   2.738   1.333   1.759 -0.5460 -0.2172  0.1950
 8015TIP3    H124009   2.793   1.393   1.811  0.7426  0.7964 -2.1731
 8015TIP3    H224010   2.773   1.339   1.671 -3.6577 -0.6124 -1.1943
 8016TIP3   OH224011   4.103   5.510   1.736  0.1130 -0.2733  0.2690
 8016TIP3    H124012   4.085   5.583   1.795 -1.6117 -1.0081  0.7163
 8016TIP3    H224013   4.087   5.545   1.649 -0.8638 -0.1512  0.4939
 8017TIP3   OH224014   5.028   5.065   4.601  0.2738  0.7453 -0.2819
 8017TIP3    H124015   5.092   5.054   4.530 -2.0971 -1.1704 -2.3089
 8017TIP3    H224016   5.046   5.152   4.636  1.1816  2.0649 -3.6570
 8018TIP3   OH224017   5.958   0.235   4.642 -0.6128  0.4024 -0.0704
 8018TIP3    H124018   5.989   0.180   4.714 -0.9258  1.3977  0.8509
 8018TIP3    H224019   5.864   0.219   4.637 -0.7238  0.9049  0.2686
 8019TIP3   OH224020   2.167   3.406   4.710 -0.1531  0.0816  0.1550
 8019TIP3    H124021   2.260   3.414   4.692 -0.3293 -0.5292 -1.1018
 8019TIP3    H224022   2.163   3.369   4.799  0.7665  0.9295  0.5678
 8020TIP3   OH224023   3.187   2.847   3.421  0.4856  0.0230 -0.1431
 8020TIP3    H124024   3.174   2.938   3.392 -0.1823 -0.2709 -0.8174
 8020TIP3    H224025   3.280   2.841   3.440  1.0217  0.2264 -2.4040
 8021TIP3   OH224026   5.711   2.895   2.098 -0.1998  0.3161  0.0630
 8021TIP3    H124027   5.790   2.898   2.045 -0.2378 -0.3843 -0.0500
 8021TIP3    H224028   5.669   2.980   2.085  0.6678  0.8009  0.3429
 8022TIP3   OH224029   0.155   3.557   3.890 -0.6196 -0.4873 -0.5839
 8022TIP3    H124030   0.076   3.526   3.934 -1.1690  0.0249 -1.1826
 8022TIP3    H224031   0.149   3.653   3.893  0.9400 -0.3983  1.0331
 8023TIP3   OH224032   6.399   6.576   5.332  0.6142  0.1144 -0.4564
 8023TIP3    H124033   6.426   6.554   5.421 -0.4605 -2.0975 -0.6032
 8023TIP3    H224034   6.480   6.574   5.281  1.0273 -0.1157  0.1987
 8024TIP3   OH224035   4.288   1.564   1.796  0.6462 -0.5914 -0.1444
 8024TIP3    H124036   4.198   1.583   1.821  0.8419 -0.2124  0.2903
 8024TIP3    H224037   4.297   1.602   1.709  0.7487  0.4947  0.3239
 8025TIP3   OH224038   0.669   2.826   5.504 -0.0611 -0.0128  0.0114
 8025TIP3    H124039   0.576   2.850   5.511  0.1955  0.8700  0.5918
 8025TIP3    H224040   0.685   2.819   5.410 -0.6592  0.0511 -0.1036
 8026TIP3   OH224041   5.770   6.291   1.350 -0.3848 -0.4644 -0.4055
 8026TIP3    H124042   5.725   6.239   1.417 -0.9084 -0.4209 -0.7125
 8026TIP3    H224043   5.730   6.378   1.358  1.1864  0.1838  0.7825
 8027TIP3   OH224044   1.307   0.366   0.322 -0.0235 -0.1249  0.1535
 8027TIP3    H124045   1.270   0.311   0.252  0.0749  1.3537 -1.1314
 8027TIP3    H224046   1.343   0.442   0.276  1.1096  0.3522  1.7365
 8028TIP3   OH224047   6.193   6.274   5.586 -0.0677 -0.4128 -0.1911
 8028TIP3    H124048   6.105   6.313   5.595  0.0894 -0.1373  0.1748
 8028TIP3    H224049   6.249   6.349   5.565 -0.1211 -0.7671 -1.6703
 8029TIP3   OH224050   6.214   4.719   1.796  0.7010 -0.5767  0.5379
 8029TIP3    H124051   6.178   4.755   1.876 -1.1747  1.8741 -1.2568
 8029TIP3    H224052   6.303   4.754   1.791  0.0111  1.2600  0.4328
 8030TIP3   OH224053   1.112   3.238   4.270 -0.6919  0.2854 -0.0485
 8030TIP3    H124054   1.148   3.185   4.342  0.4972 -0.9072 -1.4510
 8030TIP3    H224055   1.073   3.174   4.211  0.1641  1.0348 -1.4595
 8031TIP3   OH224056   0.546   5.977   3.900  0.1877  0.8206 -0.2003
 8031TIP3    H124057   0.565   6.007   3.811 -2.2589 -1.2765 -1.5525
 8031TIP3    H224058   0.631   5.948   3.934  0.9955  0.5227 -2.3346
 8032TIP3   OH224059   5.865   1.685   2.518 -0.0945 -0.1231 -0.2895
 8032TIP3    H124060   5.905   1.757   2.468 -0.4828  0.4201  0.1697
 8032TIP3    H224061   5.936   1.652   2.573 -0.0665  0.3002 -0.0691
 8033TIP3   OH224062   5.280   3.809   0.213 -0.2821 -0.1366 -0.1287
 8033TIP3    H124063   5.314   3.786   0.127 -0.3421 -0.7833  0.0146
 8033TIP3    H224064   5.345   3.869   0.249  0.8918 -1.5692  0.2582
 8034TIP3   OH224065   6.769   5.887   5.696 -0.2175 -0.1489  0.3277
 8034TIP3    H124066   6.733   5.878   5.608 -0.2265 -0.0203  0.3187
 8034TIP3    H224067   6.699   5.929   5.747 -0.2203 -0.2412  0.4009
 8035TIP3   OH224068   2.238   3.058   3.653 -0.1734 -0.0393  0.2363
 8035TIP3    H124069   2.160   3.112   3.661  1.1393  1.9214  0.3788
 8035TIP3    H224070   2.222   2.985   3.713 -1.4264  0.8955  1.0941
 8036TIP3   OH224071   3.447   5.102   3.522  0.6470  0.9412  0.1225
 8036TIP3    H124072   3.373   5.051   3.555  1.1223 -0.0775 -0.3385
 8036TIP3    H224073   3.410   5.154   3.451  0.2175  1.0192  0.3959
 8037TIP3   OH224074   4.543   2.414   2.456  0.3748 -0.1627  0.3345
 8037TIP3    H124075   4.627   2.380   2.485  0.6360 -0.5253 -0.7940
 8037TIP3    H224076   4.562   2.460   2.374 -0.4157  0.3574  0.4241
 8038TIP3   OH224077   5.396   1.988   5.053 -0.3959 -0.2180 -0.1564
 8038TIP3    H124078   5.325   1.924   5.053 -1.9541  1.3889  2.3136
 8038TIP3    H224079   5.424   1.993   5.144  0.7119  1.5497 -0.5523
 8039TIP3   OH224080   2.950   1.667   5.877  0.0652 -0.2946 -0.2313
 8039TIP3    H124081   2.942   1.580   5.916 -2.5464 -0.4966 -0.9792
 8039TIP3    H224082   3.032   1.664   5.828  2.0087 -0.9611  2.8190
 8040TIP3   OH224083   2.388   1.684   4.694  0.1616  0.0053 -0.4993
 8040TIP3    H124084   2.296   1.704   4.677  0.2163  0.9102  0.2285
 8040TIP3    H224085   2.386   1.599   4.738 -0.2610 -0.3667 -1.2181
 8041TIP3   OH224086   2.819   4.062   5.791 -0.0506 -0.1634  0.5738
 8041TIP3    H124087   2.778   3.995   5.846 -0.5103  0.1769  0.6485
 8041TIP3    H224088   2.775   4.143   5.814 -0.1006  0.0207 -0.1436
 8042TIP3   OH224089   5.366   1.657   0.312  0.1686  0.1360 -0.8169
 8042TIP3    H124090   5.346   1.695   0.227 -0.5137 -0.5583 -0.9781
 8042TIP3    H224091   5.281   1.633   0.349  0.0068  3.9724  1.8205
 8043TIP3   OH224092   0.478   5.688   2.505 -0.4037  0.1331 -0.2417
 8043TIP3    H124093   0.549   5.735   2.548 -0.5413  0.0250  0.1067
 8043TIP3    H224094   0.412   5.755   2.487 -0.6352  0.0634  0.3287
 8044TIP3   OH224095   0.267   3.776   5.889  0.7006 -1.0870 -0.0241
 8044TIP3    H124096   0.332   3.784   5.959  0.6526 -0.1058 -0.0724
 8044TIP3    H224097   0.316   3.788   5.808  0.1976  2.1653  0.0006
 8045TIP3   OH224098   0.662   4.777   0.575 -0.1344  0.3562  0.4154
 8045TIP3    H124099   0.736   4.717   0.583  0.2865  0.7701 -0.2338
 8045TIP3    H224100   0.700   4.857   0.538 -0.7138  0.9753  1.1230
 8046TIP3   OH224101   0.625   3.074   5.108 -0.4434  0.0522 -0.3842
 8046TIP3    H124102   0.648   3.056   5.016  0.9001 -1.3262  0.1812
 8046TIP3    H224103   0.586   3.162   5.106 -0.6137 -0.0203 -2.2932
 8047TIP3   OH224104   4.533   2.884   4.958  0.2101 -0.6750 -0.2978
 8047TIP3    H124105   4.485   2.811   4.997  2.1691 -2.6041 -1.3120
 8047TIP3    H224106   4.572   2.930   5.033 -0.2540 -1.2537  0.3061
 8048TIP3   OH224107   2.389   2.698   0.612 -0.2772 -0.8278 -0.0282
 8048TIP3    H124108   2.390   2.727   0.521  1.5458  0.9112  0.4700
 8048TIP3    H224109   2.306   2.651   0.621 -0.0081 -2.1107 -2.8590
 8049TIP3   OH224110   3.062   1.016   2.627  0.0571  0.2441 -0.0362
 8049TIP3    H124111   3.093   1.090   2.575  2.5596 -0.6388  0.0648
 8049TIP3    H224112   3.138   0.990   2.679 -1.7529 -0.2406  2.5492
 8050TIP3   OH224113   6.107   4.649   0.256 -0.1704  0.0617  0.2696
 8050TIP3    H124114   6.135   4.562   0.283  0.6157  0.3246  0.3190
 8050TIP3    H224115   6.095   4.642   0.161 -1.5322 -0.4756  0.4608
 8051TIP3   OH224116   1.912   3.192   2.216 -0.4340  0.3455  0.6239
 8051TIP3    H124117   1.861   3.272   2.212  0.9926  1.2610  0.0223
 8051TIP3    H224118   1.949   3.183   2.129 -0.8770 -1.1952  0.5670
 8052TIP3   OH224119   5.216   2.475   1.791 -0.1414 -0.5089  0.3965
 8052TIP3    H124120   5.257   2.557   1.818 -0.9114 -0.2302  0.7561
 8052TIP3    H224121   5.257   2.408   1.845  0.8777 -0.4462 -0.2745
 8053TIP3   OH224122   5.274   4.955   1.857 -0.4143  0.1624  0.5473
 8053TIP3    H124123   5.317   4.945   1.942 -0.9746  0.5478  0.8861
 8053TIP3    H224124   5.266   5.049   1.845  0.6095  0.1349 -0.4338
 8054TIP3   OH224125   6.342   2.867   2.418  0.5922  0.2352 -0.3206
 8054TIP3    H124126   6.369   2.855   2.509  2.1434 -0.0166 -0.7803
 8054TIP3    H224127   6.348   2.961   2.403 -1.6253  0.5292  0.3809
 8055TIP3   OH224128   0.290   1.444   5.612 -0.2293 -0.3504 -0.1687
 8055TIP3    H124129   0.284   1.392   5.692  2.6444 -1.5052 -0.5793
 8055TIP3    H224130   0.245   1.391   5.546 -1.2374 -0.1307  0.3233
 8056TIP3   OH224131   4.968   4.518   2.752  0.1944  0.1046 -1.2934
 8056TIP3    H124132   4.905   4.447   2.752 -1.5671  1.5988 -1.1159
 8056TIP3    H224133   4.922   4.591   2.793  3.1829  0.3056  2.1847
 8057TIP3   OH224134   1.608   0.279   2.603  0.2680 -0.2181 -0.3328
 8057TIP3    H124135   1.695   0.256   2.634 -0.4568  1.0518  2.9564
 8057TIP3    H224136   1.612   0.373   2.586 -0.5700 -0.0520  0.3322
 8058TIP3   OH224137   3.369   0.746   2.030  0.0379  0.7620  0.3118
 8058TIP3    H124138   3.378   0.719   2.121 -2.0928 -1.7793 -0.0946
 8058TIP3    H224139   3.437   0.698   1.983  0.4079  1.1985  0.3909
 8059TIP3   OH224140   6.458   4.074   5.343 -0.1149  0.0795  0.0579
 8059TIP3    H124141   6.468   4.024   5.262 -1.7493  0.2552 -0.2914
 8059TIP3    H224142   6.364   4.089   5.350 -0.0513 -0.2047  2.1701
 8060TIP3   OH224143   6.819   4.198   5.815  0.4993  0.2432 -0.2028
 8060TIP3    H124144   6.895   4.148   5.845  0.1953  0.4041  0.8665
 8060TIP3    H224145   6.752   4.182   5.882 -0.3379  0.2919 -1.0087
 8061TIP3   OH224146   5.489   2.157   2.153 -0.2744  0.1612  0.0916
 8061TIP3    H124147   5.517   2.149   2.245 -3.1132  0.4885  1.0944
 8061TIP3    H224148   5.539   2.231   2.120  1.7675 -0.7635  0.9257
 8062TIP3   OH224149   0.999   2.374   1.492  0.1646  0.6915  0.5372
 8062TIP3    H124150   0.947   2.450   1.466 -0.0554  0.6287  0.7906
 8062TIP3    H224151   1.004   2.381   1.587  1.0727  0.9935  0.4762
 8063TIP3   OH224152   2.466   5.225   3.404 -0.0346 -0.1528 -0.0296
 8063TIP3    H124153   2.470   5.150   3.344 -1.9153 -0.6782  0.4430
 8063TIP3    H224154   2.432   5.297   3.350  0.1505 -0.0918 -0.0659
 8064TIP3   OH224155   6.702   3.011   0.720  0.1920 -0.6997 -0.0547
 8064TIP3    H124156   6.622   2.961   0.725  0.1316 -0.4912  1.5713
 8064TIP3    H224157   6.733   2.999   0.630 -3.3657  1.8979 -1.9034
 8065TIP3   OH224158   5.568   4.792   3.704 -0.0980  0.1874 -0.3535
 8065TIP3    H124159   5.627   4.777   3.630  0.2661 -0.6354  0.0953
 8065TIP3    H224160   5.500   4.725   3.694  0.1384 -0.1444  0.2441
 8066TIP3   OH224161   1.020   6.609   1.171  0.0669  0.2806 -0.1661
 8066TIP3    H124162   0.988   6.625   1.082 -0.2215 -0.2583 -0.1629
 8066TIP3    H224163   0.982   6.680   1.223 -0.8026 -0.1116 -0.2415
 8067TIP3   OH224164   0.373   2.332   0.487  0.2354 -0.0141  0.4374
 8067TIP3    H124165   0.330   2.246   0.481 -2.2495  1.2220 -1.1657
 8067TIP3    H224166   0.454   2.314   0.535 -0.3288 -3.1788  0.4796
 8068TIP3   OH224167   5.271   1.587   4.153 -0.4374  0.2004  0.3819
 8068TIP3    H124168   5.256   1.633   4.235  2.0065  1.2381  0.3541
 8068TIP3    H224169   5.220   1.635   4.088 -0.6838  0.7227  0.9541
 8069TIP3   OH224170   3.209   0.634   2.305 -0.5696 -0.2611 -0.1966
 8069TIP3    H124171   3.280   0.691   2.332 -0.7274  0.5645 -1.4298
 8069TIP3    H224172   3.191   0.579   2.382  0.4211  0.4909  0.5959
 8070TIP3   OH224173   4.904   5.527   0.053 -0.1263 -0.0295  0.2763
 8070TIP3    H124174   4.903   5.607   0.104  3.2734 -0.3200  1.0070
 8070TIP3    H224175   4.922   5.555  -0.037 -0.9203  0.1145  0.1520
 8071TIP3   OH224176   4.084   4.546   3.539 -0.0522 -0.0999 -0.2546
 8071TIP3    H124177   4.114   4.510   3.456 -1.2295  0.0417 -0.7580
 8071TIP3    H224178   4.113   4.483   3.605  1.8180  0.2984 -0.6272
 8072TIP3   OH224179   3.167   4.395   0.835 -0.1530  0.3901 -0.3570
 8072TIP3    H124180   3.103   4.330   0.806 -0.7599  1.2188 -0.9440
 8072TIP3    H224181   3.114   4.469   0.864  0.2031 -1.0790  5.1352
 8073TIP3   OH224182   6.659   3.390   1.834  0.3010  0.4361  0.5198
 8073TIP3    H124183   6.617   3.414   1.917 -0.1503  0.2649  0.3467
 8073TIP3    H224184   6.730   3.453   1.824 -0.4528  1.3040  0.3918
 8074TIP3   OH224185   3.550   6.223   3.230 -0.0448 -0.2013 -0.0645
 8074TIP3    H124186   3.493   6.298   3.243 -0.4862  0.0291 -2.7619
 8074TIP3    H224187   3.601   6.244   3.152  3.0114 -0.8993  1.5642
 8075TIP3   OH224188   3.039   5.835   5.573  0.0838 -0.0505  0.1510
 8075TIP3    H124189   2.973   5.853   5.506 -1.6251  0.1581  1.7748
 8075TIP3    H224190   3.063   5.922   5.606  3.2978  0.1133 -2.2041
 8076TIP3   OH224191   2.213   5.626   2.220 -0.3663 -0.0092  0.2989
 8076TIP3    H124192   2.155   5.615   2.145  1.0835  1.3011 -1.1247
 8076TIP3    H224193   2.165   5.682   2.281 -1.7013 -1.3771  0.5418
 8077TIP3   OH224194   3.516   0.608   3.150 -0.2529 -0.4568  0.1158
 8077TIP3    H124195   3.566   0.663   3.089 -0.5629  0.9261  1.0542
 8077TIP3    H224196   3.427   0.611   3.117 -0.4917  0.5953  0.8010
 8078TIP3   OH224197   0.187   4.116   0.251  0.9030 -0.3760 -0.2129
 8078TIP3    H124198   0.185   4.031   0.294 -2.9854 -0.1608  0.4055
 8078TIP3    H224199   0.206   4.178   0.322 -0.3633 -0.4608  0.2343
 8079TIP3   OH224200   0.865   2.800   0.942  0.0214  0.2188 -0.0390
 8079TIP3    H124201   0.903   2.713   0.934 -1.8872 -0.6806  0.0228
 8079TIP3    H224202   0.812   2.795   1.022  0.3336  1.6373  0.2820
 8080TIP3   OH224203   3.647   5.724   5.307 -0.0030  0.1604  0.2015
 8080TIP3    H124204   3.729   5.677   5.296  1.0026  1.7330  0.6536
 8080TIP3    H224205   3.618   5.701   5.396  1.0111  1.1599  0.8062
 8081TIP3   OH224206   3.882   6.323   5.215  0.3228  0.0226  0.3272
 8081TIP3    H124207   3.975   6.305   5.229  0.2291 -0.2262  0.6494
 8081TIP3    H224208   3.862   6.283   5.131  0.6674  0.6814 -0.0753
 8082TIP3   OH224209   2.171   2.597   0.794 -0.0900 -0.1320  0.1805
 8082TIP3    H124210   2.136   2.541   0.724 -0.6003 -0.7353  0.9072
 8082TIP3    H224211   2.218   2.537   0.852 -0.8655  0.1437  1.1124
 8083TIP3   OH224212   0.350   0.666   2.022 -0.3621 -0.6444  0.2826
 8083TIP3    H124213   0.303   0.729   1.967 -0.1685 -1.7319 -1.1884
 8083TIP3    H224214   0.430   0.711   2.048 -1.3546  0.5956  1.3499
 8084TIP3   OH224215   3.643   2.720   1.903 -0.0231 -0.4921  0.6114
 8084TIP3    H124216   3.634   2.657   1.832  0.0415 -0.7301  0.8118
 8084TIP3    H224217   3.554   2.754   1.917  0.2152  0.7958 -0.6918
 8085TIP3   OH224218   3.264   5.266   4.265 -0.3211  0.1870 -0.1424
 8085TIP3    H124219   3.356   5.241   4.276  0.0551  0.8427 -1.5357
 8085TIP3    H224220   3.230   5.275   4.354  1.0273  0.1823  0.3926
 8086TIP3   OH224221   4.694   5.646   1.905  0.0082 -0.0363  0.2054
 8086TIP3    H124222   4.669   5.563   1.864  0.9696 -0.2100 -0.0479
 8086TIP3    H224223   4.650   5.713   1.853  0.5580 -0.3027 -0.6110
 8087TIP3   OH224224   4.056   2.554   2.405 -0.4358  0.6758  0.2382
 8087TIP3    H124225   4.023   2.634   2.364  0.2879  0.9139  0.1110
 8087TIP3    H224226   4.151   2.565   2.408 -0.3546 -0.0193  0.5568
 8088TIP3   OH224227   5.040   2.327   4.690 -0.5502  0.0174  0.3798
 8088TIP3    H124228   5.089   2.267   4.634 -1.3819 -0.1180 -0.2166
 8088TIP3    H224229   5.106   2.366   4.747 -0.1990 -2.7018  1.9655
 8089TIP3   OH224230   0.033   3.300   5.437 -0.2513  0.1951 -0.3526
 8089TIP3    H124231  -0.022   3.377   5.422  0.5297  0.8658  0.1109
 8089TIP3    H224232   0.089   3.296   5.360 -0.2921  0.0974 -0.3766
 8090TIP3   OH224233   7.117   5.155   1.781  0.1690 -0.3836 -0.6972
 8090TIP3    H124234   7.184   5.087   1.768  0.8763  0.3263 -0.8296
 8090TIP3    H224235   7.034   5.107   1.779  0.6448 -1.2242 -0.9412
 8091TIP3   OH224236   2.752   1.115   2.788  0.3292  0.2675  0.2573
 8091TIP3    H124237   2.716   1.065   2.861 -1.3956  1.0106 -0.0328
 8091TIP3    H224238   2.749   1.206   2.817  1.7646  0.4015  0.0971
 8092TIP3   OH224239   3.637   2.402   5.824 -0.2776 -0.0550  0.0025
 8092TIP3    H124240   3.675   2.470   5.769 -1.4655  0.3134 -0.3985
 8092TIP3    H224241   3.652   2.430   5.913  0.3040  0.1199 -0.1490
 8093TIP3   OH224242   1.487   5.124   2.562  0.6678 -0.7055 -0.2784
 8093TIP3    H124243   1.421   5.077   2.613 -0.1181 -0.2217 -0.8316
 8093TIP3    H224244   1.467   5.102   2.471 -0.5603  1.6850 -0.6673
 8094TIP3   OH224245   6.567   4.521   5.424 -0.4818  0.1142  0.0822
 8094TIP3    H124246   6.583   4.586   5.492 -1.9057  0.4084  0.1540
 8094TIP3    H224247   6.644   4.527   5.367 -0.0289  0.9956  0.7619
 8095TIP3   OH224248   6.055   5.013   2.291  0.0559 -0.3752 -0.1183
 8095TIP3    H124249   6.022   5.003   2.201  1.7286 -0.3229 -0.7700
 8095TIP3    H224250   6.130   4.954   2.295  0.3698  0.0901  1.0603
 8096TIP3   OH224251   6.372   4.017   5.676 -0.3691 -0.2389 -0.0390
 8096TIP3    H124252   6.394   4.075   5.604 -0.2151 -0.9095 -0.5393
 8096TIP3    H224253   6.289   4.052   5.710 -0.6396 -0.1414 -0.7842
 8097TIP3   OH224254   6.913   0.127   0.149 -0.2738 -0.0318 -0.2485
 8097TIP3    H124255   6.832   0.173   0.128 -1.1470 -1.8566 -1.1417
 8097TIP3    H224256   6.894   0.035   0.129  2.2015 -0.4447 -1.0648
 8098TIP3   OH224257   0.677   2.546   5.377  0.2040  0.2792 -0.0222
 8098TIP3    H124258   0.594   2.570   5.337  0.3147 -1.9056 -1.7819
 8098TIP3    H224259   0.730   2.625   5.372 -1.6314  1.6174  0.8461
 8099TIP3   OH224260   2.571   4.224   5.473 -0.2726  0.4115  0.1552
 8099TIP3    H124261   2.587   4.292   5.538 -1.1792  1.9466 -1.1650
 8099TIP3    H224262   2.588   4.266   5.389  1.8842 -1.8153 -0.6453
 8100TIP3   OH224263   2.783   4.491   4.155  0.1611  0.3334 -0.3593
 8100TIP3    H124264   2.829   4.477   4.072  1.1647 -0.2949  0.2776
 8100TIP3    H224265   2.707   4.545   4.132  0.3355  0.0357 -1.6998
 8101TIP3   OH224266   4.469   5.660   3.544 -0.5384 -0.1315 -0.2546
 8101TIP3    H124267   4.462   5.578   3.593  1.1306 -0.2280 -0.1077
 8101TIP3    H224268   4.561   5.663   3.517  0.4383  3.3085  2.6434
 8102TIP3   OH224269   5.925   4.605   3.485 -0.0104 -0.0074 -0.6000
 8102TIP3    H124270   5.904   4.660   3.409  1.9242  0.9395 -0.5308
 8102TIP3    H224271   5.841   4.570   3.514 -1.0928  1.4807 -1.7622
 8103TIP3   OH224272   0.931   3.922   2.680 -0.1389 -0.2005  0.4024
 8103TIP3    H124273   1.022   3.899   2.698  0.2729  2.3159  2.0266
 8103TIP3    H224274   0.915   3.999   2.734 -2.7439  0.4284 -1.1074
 8104TIP3   OH224275   1.112   1.404   2.782  0.9704 -0.1586  0.2005
 8104TIP3    H124276   1.200   1.416   2.746  1.3456 -0.1138  1.1207
 8104TIP3    H224277   1.055   1.451   2.721  1.9884  3.2769  1.6544
 8105TIP3   OH224278   0.283   0.395   1.006 -0.2755 -0.0340 -0.2074
 8105TIP3    H124279   0.254   0.396   0.915 -0.7879  0.6402 -0.0461
 8105TIP3    H224280   0.337   0.474   1.015 -0.5424  0.1102  0.1715
 8106TIP3   OH224281   0.702   2.960   3.258  0.2234 -0.0536 -0.3464
 8106TIP3    H124282   0.653   2.883   3.228  0.5016  0.1335 -1.3131
 8106TIP3    H224283   0.638   3.011   3.308  0.1562 -1.1302  0.7162
 8107TIP3   OH224284   3.741   6.575   0.129 -0.3545  0.4558  0.1715
 8107TIP3    H124285   3.655   6.569   0.169 -0.3569  1.2519  0.3182
 8107TIP3    H224286   3.726   6.564   0.035 -0.4946 -0.2839  0.2765
 8108TIP3   OH224287   2.843   4.008   0.063 -0.1650  0.1231 -0.5745
 8108TIP3    H124288   2.763   4.030   0.111 -0.4180  1.8418 -1.6924
 8108TIP3    H224289   2.895   4.089   0.065  1.5584 -0.9418  0.0948
 8109TIP3   OH224290   0.402   1.541   1.034  0.2219 -0.5268  0.4518
 8109TIP3    H124291   0.447   1.498   0.962  2.0619  1.3026  0.4240
 8109TIP3    H224292   0.383   1.629   1.002 -1.7890 -0.6614  1.1335
 8110TIP3   OH224293   3.360   1.981   2.120 -0.1599 -0.2835  0.1350
 8110TIP3    H124294   3.362   1.890   2.092 -0.9807  0.5614 -3.0516
 8110TIP3    H224295   3.400   2.029   2.048 -2.0028  2.1004  0.5710
 8111TIP3   OH224296   6.022   5.615   2.103  0.3035  0.3271 -0.0342
 8111TIP3    H124297   6.089   5.631   2.037  0.0586  1.0734 -0.1124
 8111TIP3    H224298   5.982   5.531   2.077  1.5770 -0.4195  0.3527
 8112TIP3   OH224299   4.301   5.738   0.340 -0.4035  0.9085 -0.3555
 8112TIP3    H124300   4.322   5.826   0.307  0.5378  1.7813  2.3457
 8112TIP3    H224301   4.385   5.693   0.345 -0.6124  0.5745  0.2180
 8113TIP3   OH224302   3.896   5.439   1.284  0.2730  0.1114 -0.0569
 8113TIP3    H124303   3.844   5.417   1.207  0.7422  0.5121 -0.4987
 8113TIP3    H224304   3.987   5.426   1.256  0.4472  0.3018  0.4111
 8114TIP3   OH224305   1.393   4.727   3.032 -0.2032 -0.3131 -0.5311
 8114TIP3    H124306   1.481   4.710   3.064 -0.5990 -1.2509  0.1074
 8114TIP3    H224307   1.373   4.816   3.060  1.3716  0.8027 -2.6614
 8115TIP3   OH224308   1.983   4.252   5.868 -0.5107 -0.2177  0.3852
 8115TIP3    H124309   1.999   4.337   5.828  1.4058 -0.8580 -0.3097
 8115TIP3    H224310   1.967   4.272   5.961 -2.6928  1.0791 -0.1982
 8116TIP3   OH224311   0.433   0.446   1.396  0.2782  0.1088 -0.5064
 8116TIP3    H124312   0.420   0.513   1.329  1.8833 -0.3889 -1.3466
 8116TIP3    H224313   0.499   0.483   1.454  0.3307 -0.2788 -0.3184
 8117TIP3   OH224314   3.604   4.733   4.732 -0.7629 -0.1622  1.0254
 8117TIP3    H124315   3.588   4.737   4.637 -0.1304 -0.5594  0.8936
 8117TIP3    H224316   3.570   4.648   4.759  0.5664 -0.7791  0.8393
 8118TIP3   OH224317   4.241   5.068   1.869  0.2427  0.1325  0.0773
 8118TIP3    H124318   4.156   5.100   1.900  0.9146  0.7348  1.3444
 8118TIP3    H224319   4.259   4.991   1.922  0.3216 -0.2347 -0.4672
 8119TIP3   OH224320   4.448   2.650   1.324  0.1094 -0.1119 -0.3735
 8119TIP3    H124321   4.473   2.696   1.404  2.0374 -3.3195  1.0891
 8119TIP3    H224322   4.356   2.672   1.311  0.6470  3.2537  0.6520
 8120TIP3   OH224323   4.203   0.691   0.087  0.1779  0.3868 -0.5351
 8120TIP3    H124324   4.117   0.729   0.070 -0.4108 -0.3864  0.6180
 8120TIP3    H224325   4.211   0.621   0.022  0.2164  0.8583 -1.0482
 8121TIP3   OH224326   2.336   5.701   5.645 -0.0664  0.2583  0.3827
 8121TIP3    H124327   2.289   5.704   5.561 -0.6965  0.1204  0.7237
 8121TIP3    H224328   2.281   5.754   5.704  0.6703  0.8336  0.5629
 8122TIP3   OH224329   5.703   0.479   1.774 -0.3272 -0.2896 -0.1174
 8122TIP3    H124330   5.644   0.517   1.709 -0.7309 -0.0324  0.3918
 8122TIP3    H224331   5.714   0.548   1.839  1.6810  0.2220 -0.9002
 8123TIP3   OH224332   4.226   2.274   0.430  0.0741 -0.0998  0.2903
 8123TIP3    H124333   4.247   2.340   0.364 -0.5245  1.0303  1.1964
 8123TIP3    H224334   4.300   2.213   0.427  1.3408  1.3630  0.3617
 8124TIP3   OH224335   6.922   5.865   4.132  0.3599 -0.4195 -0.1930
 8124TIP3    H124336   6.843   5.895   4.087  0.4074 -1.3142 -0.9242
 8124TIP3    H224337   6.980   5.837   4.061  0.8125 -0.9899  0.3865
 8125TIP3   OH224338   4.606   6.655   0.993  0.0131 -0.0302 -0.2120
 8125TIP3    H124339   4.633   6.708   1.069  0.9790  0.1381 -0.6540
 8125TIP3    H224340   4.511   6.645   1.003 -0.0959  1.2339  0.2345
 8126TIP3   OH224341   6.155   6.520   4.608 -0.3785 -0.2868  0.2901
 8126TIP3    H124342   6.132   6.432   4.637 -1.5727 -0.1018 -0.0652
 8126TIP3    H224343   6.112   6.579   4.670  0.0260  0.0669  0.2476
 8127TIP3   OH224344   2.133   0.931   4.675  0.1426 -1.0600  0.5091
 8127TIP3    H124345   2.129   0.956   4.583 -0.3831  3.0612  1.4795
 8127TIP3    H224346   2.177   1.004   4.718 -0.6940 -2.2885  3.7052
 8128TIP3   OH224347   5.792   0.560   1.071  0.2094  0.0405  0.4964
 8128TIP3    H124348   5.777   0.465   1.078 -1.0742  0.2501  0.8670
 8128TIP3    H224349   5.847   0.581   1.146 -0.8297 -0.1708  1.3403
 8129TIP3   OH224350   3.416   3.644   1.479  0.3106 -0.5160  0.1538
 8129TIP3    H124351   3.482   3.599   1.530 -0.1885  1.0036  2.2778
 8129TIP3    H224352   3.456   3.729   1.458  0.1450 -0.7509 -1.2039
 8130TIP3   OH224353   6.732   6.119   1.070 -0.5247  0.0335 -0.3215
 8130TIP3    H124354   6.763   6.192   1.124 -1.4315  0.5358 -0.4595
 8130TIP3    H224355   6.806   6.099   1.013 -0.1176  0.5694  0.0007
 8131TIP3   OH224356   4.104   2.922   0.302  0.0141  0.0041  0.2567
 8131TIP3    H124357   4.064   2.932   0.388 -1.3341  0.6779 -0.4225
 8131TIP3    H224358   4.057   2.848   0.262  1.4091 -1.0599  0.5083
 8132TIP3   OH224359   1.426   1.634   3.668 -0.5026 -0.0201 -0.3945
 8132TIP3    H124360   1.366   1.571   3.629 -1.6727  1.6466 -1.4413
 8132TIP3    H224361   1.489   1.654   3.598 -2.1101  2.3500 -1.3133
 8133TIP3   OH224362   4.125   5.710   2.400 -0.2080  0.6230  0.0814
 8133TIP3    H124363   4.033   5.729   2.380 -0.9233  3.5695  4.7678
 8133TIP3    H224364   4.172   5.789   2.374 -0.0338  1.4301  2.5690
 8134TIP3   OH224365   6.497   2.948   4.898  0.1482 -0.2381 -0.4102
 8134TIP3    H124366   6.561   2.877   4.907  0.0008 -0.3354 -0.1516
 8134TIP3    H224367   6.543   3.014   4.845 -0.1443 -1.0488 -1.7132
 8135TIP3   OH224368   3.582   2.435   1.368  0.3356  0.9507 -0.2363
 8135TIP3    H124369   3.491   2.424   1.396  0.9795 -2.6225  0.9750
 8135TIP3    H224370   3.617   2.502   1.427 -1.0001  0.9207  0.6289
 8136TIP3   OH224371   4.502   6.450   3.224  0.1457 -0.9871 -0.2532
 8136TIP3    H124372   4.468   6.534   3.192  0.3536 -0.7908  0.0407
 8136TIP3    H224373   4.541   6.409   3.147  0.2924 -0.6929 -0.3365
 8137TIP3   OH224374   3.653   6.257   0.368  0.1198  0.5314  0.0462
 8137TIP3    H124375   3.694   6.238   0.283  1.1800  0.6803  0.5088
 8137TIP3    H224376   3.585   6.190   0.377  0.9967 -0.4367 -0.2543
 8138TIP3   OH224377   2.754   2.010   1.012 -0.1835 -0.4747 -0.2220
 8138TIP3    H124378   2.707   2.093   1.001 -0.7151 -0.7055  0.2518
 8138TIP3    H224379   2.706   1.948   0.958 -0.5351 -0.7547  0.4134
 8139TIP3   OH224380   4.669   4.969   2.949  0.2353 -0.0190 -0.5125
 8139TIP3    H124381   4.624   4.963   2.864 -0.3889 -1.1683 -0.1201
 8139TIP3    H224382   4.723   4.890   2.953  0.8196  0.3920 -0.1446
 8140TIP3   OH224383   4.024   5.443   3.517  0.4721 -0.3096 -0.2824
 8140TIP3    H124384   4.008   5.380   3.588  0.3544  2.0817  1.9710
 8140TIP3    H224385   4.018   5.529   3.560 -0.6693  1.3359 -3.4339
 8141TIP3   OH224386   4.588   5.895   5.467 -0.2062 -0.2278  0.1467
 8141TIP3    H124387   4.542   5.848   5.398 -0.1014 -0.0133 -0.0723
 8141TIP3    H224388   4.601   5.983   5.431  0.9276 -0.4565 -0.0440
 8142TIP3   OH224389   3.539   1.752   5.403 -0.5158  0.0770  0.2111
 8142TIP3    H124390   3.519   1.658   5.411 -0.3985  0.1059  0.8778
 8142TIP3    H224391   3.633   1.758   5.422 -0.1582  0.1398 -1.3871
 8143TIP3   OH224392   6.976   4.901   2.127 -0.2506 -0.2891  0.5280
 8143TIP3    H124393   6.956   4.912   2.034  0.4136 -1.0180  0.2839
 8143TIP3    H224394   6.956   4.809   2.145  0.8398 -0.4880  0.7811
 8144TIP3   OH224395   5.495   3.119   0.690 -0.8215  0.3047  1.0739
 8144TIP3    H124396   5.472   3.210   0.674  2.1027  1.0016  0.0895
 8144TIP3    H224397   5.539   3.090   0.610  0.9021 -0.9906  2.3965
 8145TIP3   OH224398   4.207   1.319   3.769 -0.4390 -0.6441 -0.1756
 8145TIP3    H124399   4.195   1.233   3.729 -0.8788  0.0709 -1.6458
 8145TIP3    H224400   4.119   1.345   3.797 -0.5487 -0.0698 -1.0311
 8146TIP3   OH224401   3.544   0.922   4.150 -0.2707  0.5615  0.6377
 8146TIP3    H124402   3.587   0.983   4.091  1.7539  0.0832  1.5436
 8146TIP3    H224403   3.615   0.878   4.196 -1.6150 -2.3087  0.2370
 8147TIP3   OH224404   5.066   2.056   1.053 -0.3303 -0.4177  0.3819
 8147TIP3    H124405   5.003   2.080   1.121  1.3535  0.3881  1.7544
 8147TIP3    H224406   5.112   2.137   1.033  0.2636 -0.9704 -0.5985
 8148TIP3   OH224407   6.312   0.284   1.585  0.6667  0.5845 -0.5720
 8148TIP3    H124408   6.282   0.213   1.529  0.6106  0.3828 -0.2836
 8148TIP3    H224409   6.407   0.285   1.575  0.5466  1.7250 -2.1043
 8149TIP3   OH224410   0.745   5.379   1.277 -0.2440  0.5682 -0.7913
 8149TIP3    H124411   0.810   5.422   1.221 -0.7587 -0.0994 -1.9380
 8149TIP3    H224412   0.761   5.416   1.364  1.2771  0.8563 -1.1533
 8150TIP3   OH224413   1.751   5.927   4.319 -0.3312 -0.0068  0.4084
 8150TIP3    H124414   1.684   5.968   4.374 -1.6324 -0.4405 -0.8152
 8150TIP3    H224415   1.741   5.969   4.234  2.4883  1.5556  0.7458
 8151TIP3   OH224416   0.051   4.136   2.040  0.3410  0.2982 -0.0177
 8151TIP3    H124417  -0.018   4.075   2.066 -0.2339  0.9737  0.0931
 8151TIP3    H224418   0.132   4.086   2.047  0.0405 -0.0440  1.4965
 8152TIP3   OH224419   5.624   1.662   5.852  0.5201  0.7334 -0.0370
 8152TIP3    H124420   5.681   1.614   5.792  0.0320 -1.1507  0.9046
 8152TIP3    H224421   5.646   1.626   5.939 -0.9187  1.1593  0.5306
 8153TIP3   OH224422   3.003   6.700   3.666 -0.6310  0.1400  0.0711
 8153TIP3    H124423   3.053   6.740   3.595 -0.9302 -0.2682 -0.3779
 8153TIP3    H224424   2.994   6.769   3.732  0.1703  0.3363 -0.0170
 8154TIP3   OH224425   6.561   0.261   2.346 -0.1036  0.1961  0.1232
 8154TIP3    H124426   6.550   0.352   2.320 -0.4554 -0.0727 -0.6828
 8154TIP3    H224427   6.487   0.243   2.403  1.2288  1.1008  2.2984
 8155TIP3   OH224428   6.156   0.944   2.830 -0.0917  0.3124  0.2202
 8155TIP3    H124429   6.162   1.018   2.890  0.6813 -0.6237  1.3419
 8155TIP3    H224430   6.247   0.918   2.815 -0.1619  1.2792 -2.3900
 8156TIP3   OH224431   0.993   0.653   5.320 -0.1732 -0.4453 -0.4229
 8156TIP3    H124432   1.008   0.658   5.225 -0.4584 -2.4237 -0.6097
 8156TIP3    H224433   0.921   0.592   5.329 -1.8009  1.5561  0.9943
 8157TIP3   OH224434   5.292   3.493   3.081 -0.4539 -0.1951  0.1947
 8157TIP3    H124435   5.377   3.451   3.090 -0.1015  0.4083 -0.2197
 8157TIP3    H224436   5.269   3.521   3.170 -0.4167 -0.7299  0.3730
 8158TIP3   OH224437   4.890   2.519   3.823  0.1438  0.0042  0.3687
 8158TIP3    H124438   4.841   2.454   3.772  1.8012 -1.2423  0.3039
 8158TIP3    H224439   4.870   2.602   3.780 -0.8856 -0.6287 -0.4326
 8159TIP3   OH224440   6.415   6.305   0.609 -0.5362 -0.1407  0.5079
 8159TIP3    H124441   6.362   6.248   0.555 -0.4994 -1.3566  1.7056
 8159TIP3    H224442   6.473   6.246   0.657  0.6824  1.0293  0.5408
 8160TIP3   OH224443   5.450   5.953   3.807 -0.5182  0.2435 -0.2082
 8160TIP3    H124444   5.370   6.000   3.833 -1.1400 -0.8669 -0.0433
 8160TIP3    H224445   5.456   5.881   3.870  1.4587  1.1555  0.7350
 8161TIP3   OH224446   5.889   0.612   2.615 -0.6147 -0.2217 -0.3476
 8161TIP3    H124447   5.922   0.696   2.584 -0.1235 -0.9142 -1.7701
 8161TIP3    H224448   5.921   0.605   2.705 -2.2589  1.9367  0.5136
 8162TIP3   OH224449   3.559   3.011   4.659  0.3069  0.4814  0.3051
 8162TIP3    H124450   3.591   2.971   4.740  1.1861  1.5145  0.4868
 8162TIP3    H224451   3.597   2.957   4.589 -1.1150 -0.9091  0.5586
 8163TIP3   OH224452   3.932   0.321   5.376 -0.0541  0.0258 -0.2456
 8163TIP3    H124453   3.863   0.277   5.426  0.1589  0.2767  0.2859
 8163TIP3    H224454   3.901   0.321   5.286  0.0801 -1.4786 -0.3203
 8164TIP3   OH224455   6.990   6.008   0.911  0.5433  0.2535 -0.7346
 8164TIP3    H124456   7.024   5.925   0.944  0.9605  1.2459  1.4798
 8164TIP3    H224457   7.066   6.065   0.906  0.0013  0.9937 -0.6605
 8165TIP3   OH224458   2.116   6.006   1.636 -0.1351  0.0296  0.1246
 8165TIP3    H124459   2.094   5.943   1.568  1.9063 -0.6942  0.0620
 8165TIP3    H224460   2.167   6.073   1.591 -0.5331  0.6488  0.5762
 8166TIP3   OH224461   4.041   6.388   3.578  0.1967  0.0731 -0.5735
 8166TIP3    H124462   3.980   6.408   3.506 -0.3619  1.8425  0.3398
 8166TIP3    H224463   3.989   6.403   3.657  0.9422 -1.4019  0.2330
 8167TIP3   OH224464   5.030   0.449   5.608  0.4592  0.6880 -0.1446
 8167TIP3    H124465   5.075   0.365   5.614  1.2219  0.9893 -1.1321
 8167TIP3    H224466   4.954   0.441   5.664 -0.3274 -1.2025 -1.3986
 8168TIP3   OH224467   2.126   4.666   3.141  1.1520  0.5600  0.2220
 8168TIP3    H124468   2.170   4.724   3.080 -0.0677  0.1925 -1.0805
 8168TIP3    H224469   2.036   4.699   3.145  0.5730 -0.8722 -0.1294
 8169TIP3   OH224470   3.012   1.922   5.268 -0.7842  0.3060  0.5474
 8169TIP3    H124471   2.930   1.925   5.220 -0.9526 -1.8574  0.5917
 8169TIP3    H224472   3.036   1.829   5.269  1.2111  0.7707  1.2904
 8170TIP3   OH224473   6.444   3.802   2.680 -0.0360  0.1939 -0.5078
 8170TIP3    H124474   6.381   3.860   2.722 -1.4075 -1.2488 -0.4802
 8170TIP3    H224475   6.498   3.860   2.626  0.2709  1.7842  1.3910
 8171TIP3   OH224476   2.085   4.908   1.666 -0.2339  0.4549 -0.0464
 8171TIP3    H124477   2.030   4.835   1.637  0.1499  0.4492 -0.7858
 8171TIP3    H224478   2.151   4.868   1.722 -0.4268  0.3285  0.0911
 8172TIP3   OH224479   3.585   5.980   0.194 -0.3209  0.6054  0.3182
 8172TIP3    H124480   3.625   5.958   0.279  0.1932 -0.0269 -0.0784
 8172TIP3    H224481   3.648   5.949   0.129 -0.9521  0.6070 -0.3085
 8173TIP3   OH224482   2.775   0.889   5.462 -0.4506  0.0942  0.4149
 8173TIP3    H124483   2.780   0.819   5.397 -3.5112 -0.3115  0.4767
 8173TIP3    H224484   2.700   0.943   5.434  1.4514  3.1130  0.6545
 8174TIP3   OH224485   3.335   2.595   5.028  0.2540  0.5570  0.3767
 8174TIP3    H124486   3.427   2.605   5.007  0.3052 -1.8537 -0.8990
 8174TIP3    H224487   3.289   2.624   4.950 -0.0012  0.5977  0.5413
 8175TIP3   OH224488   6.368   3.241   0.955 -0.2694 -0.4396  0.1670
 8175TIP3    H124489   6.459   3.215   0.939 -1.3014 -3.3149 -1.8903
 8175TIP3    H224490   6.345   3.297   0.881 -0.6447 -1.2397 -0.3445
 8176TIP3   OH224491   6.112   4.175   5.063 -0.5509 -0.2548 -0.0584
 8176TIP3    H124492   6.137   4.095   5.017 -1.6098 -0.3924 -0.4064
 8176TIP3    H224493   6.176   4.182   5.134  1.7704  0.5162 -2.0689
 8177TIP3   OH224494   0.813   6.493   4.337 -0.5362 -0.1338 -0.2829
 8177TIP3    H124495   0.750   6.527   4.401 -0.1047 -0.4495  0.3075
 8177TIP3    H224496   0.874   6.440   4.388 -0.0083 -0.1418 -0.9103
 8178TIP3   OH224497   4.127   1.683   0.542 -0.1097  0.1316  0.0663
 8178TIP3    H124498   4.113   1.603   0.493 -2.2934  1.0864 -1.0021
 8178TIP3    H224499   4.052   1.739   0.519  2.0010  3.0236 -0.3191
 8179TIP3   OH224500   6.700   1.883   0.443 -0.1947  0.4736  0.6752
 8179TIP3    H124501   6.793   1.889   0.461 -0.3386  0.9669  1.2837
 8179TIP3    H224502   6.681   1.789   0.442  0.3453  0.3683  0.3283
 8180TIP3   OH224503   1.514   3.550   4.465 -0.1748  0.1152  0.2856
 8180TIP3    H124504   1.597   3.566   4.419 -0.4595 -1.0820 -0.6918
 8180TIP3    H224505   1.532   3.576   4.556  0.4850  2.2717 -0.4010
 8181TIP3   OH224506   3.535   4.040   3.851 -0.4316 -0.3317  0.2542
 8181TIP3    H124507   3.612   3.985   3.837  0.6365  1.3040 -0.5983
 8181TIP3    H224508   3.556   4.123   3.807 -1.7933  0.9213  1.8224
 8182TIP3   OH224509   2.904   6.237   0.815 -0.2569 -0.0062 -0.0100
 8182TIP3    H124510   2.886   6.330   0.807  0.6560  0.2879  1.1317
 8182TIP3    H224511   2.996   6.228   0.790 -0.9420 -0.9941 -2.5106
 8183TIP3   OH224512   3.020   0.703   4.436  0.1304  0.3345  0.1595
 8183TIP3    H124513   2.942   0.739   4.394 -0.5928 -0.9659  0.3287
 8183TIP3    H224514   3.045   0.629   4.381 -0.0040 -0.5344  1.2349
 8184TIP3   OH224515   4.913   5.156   5.219  0.1683 -0.1786  0.0707
 8184TIP3    H124516   4.913   5.193   5.308 -1.1334  0.0880 -0.0063
 8184TIP3    H224517   5.002   5.124   5.205 -0.0412 -1.8888  2.1607
 8185TIP3   OH224518   5.086   6.183   2.067 -0.1308 -0.3156  0.2649
 8185TIP3    H124519   5.012   6.192   2.007 -0.6688  0.1618  0.9805
 8185TIP3    H224520   5.068   6.103   2.116 -0.1384 -0.2393  0.3880
 8186TIP3   OH224521   7.189   2.659   0.378 -0.0623  0.6942 -0.2665
 8186TIP3    H124522   7.239   2.583   0.407 -1.2233 -0.7486 -1.8216
 8186TIP3    H224523   7.198   2.722   0.449 -0.8444 -1.7019  2.1466
 8187TIP3   OH224524   0.231   2.869   1.723 -0.2802  0.3706 -0.9984
 8187TIP3    H124525   0.323   2.885   1.700 -0.0225  0.8876  0.2770
 8187TIP3    H224526   0.186   2.951   1.700  0.1337  1.2223  0.9658
 8188TIP3   OH224527   0.285   2.953   2.437  0.5853  0.0931 -0.4544
 8188TIP3    H124528   0.337   2.929   2.361 -0.0341 -1.5229 -0.4134
 8188TIP3    H224529   0.221   3.015   2.404  0.2911 -0.6283 -1.2770
 8189TIP3   OH224530   1.066   1.898   5.799 -0.0268  0.3652 -0.0316
 8189TIP3    H124531   1.128   1.842   5.847  0.0142  0.5996  0.1847
 8189TIP3    H224532   1.121   1.963   5.756 -0.2610  1.9311  1.9045
 8190TIP3   OH224533   2.411   4.492   0.509 -0.6169 -0.3725 -0.4150
 8190TIP3    H124534   2.378   4.403   0.499  2.4266 -1.5292 -1.1570
 8190TIP3    H224535   2.430   4.520   0.420 -2.5612  1.5646 -0.3238
 8191TIP3   OH224536   1.902   0.879   1.435  0.3495 -0.4108  0.4182
 8191TIP3    H124537   1.866   0.794   1.410 -0.8102  0.3013 -0.4348
 8191TIP3    H224538   1.921   0.923   1.352  1.6950 -0.1225  0.8447
 8192TIP3   OH224539   2.698   5.161   4.458  0.2662 -0.2514 -0.6687
 8192TIP3    H124540   2.622   5.194   4.506  0.4774  0.7415 -0.9962
 8192TIP3    H224541   2.746   5.108   4.522 -0.3345 -0.3219 -0.2672
 8193TIP3   OH224542   0.798   4.587   1.104  0.1934 -0.1622 -0.0822
 8193TIP3    H124543   0.716   4.608   1.149 -0.8109 -1.9172 -0.9711
 8193TIP3    H224544   0.841   4.672   1.091 -0.3198  0.5571  2.5136
 8194TIP3   OH224545   5.422   5.148   4.437 -0.2476  0.2164  0.0398
 8194TIP3    H124546   5.379   5.217   4.386 -1.8032 -0.8112 -0.0809
 8194TIP3    H224547   5.356   5.080   4.447  1.0841 -1.0513  0.6143
 8195TIP3   OH224548   4.719   1.674   4.707  0.0363  0.1516  0.0496
 8195TIP3    H124549   4.721   1.697   4.800 -2.1269  0.5550  0.0650
 8195TIP3    H224550   4.769   1.742   4.664 -1.8220  2.0029  0.6284
 8196TIP3   OH224551   0.254   3.473   0.061 -0.2076  0.7356 -0.0149
 8196TIP3    H124552   0.185   3.491  -0.003 -0.7946  0.7020  0.6115
 8196TIP3    H224553   0.334   3.465   0.007 -0.8257 -0.1382 -0.8464
 8197TIP3   OH224554   1.589   6.680   0.960  0.3030 -0.7271 -0.1268
 8197TIP3    H124555   1.559   6.723   0.880  0.7112  0.2710  0.2393
 8197TIP3    H224556   1.555   6.591   0.954 -0.2983 -0.4458 -1.0563
 8198TIP3   OH224557   7.139   5.071   3.133 -0.1734 -1.0468 -0.5067
 8198TIP3    H124558   7.191   4.993   3.152  0.4815 -1.0063 -2.0115
 8198TIP3    H224559   7.203   5.143   3.130 -0.4742 -0.8043 -1.2276
 8199TIP3   OH224560   1.365   5.583   3.660 -0.5990 -0.3111 -0.1698
 8199TIP3    H124561   1.354   5.488   3.671 -3.6170 -0.0305 -0.1553
 8199TIP3    H224562   1.378   5.616   3.749  2.3224 -0.7865 -0.3011
 8200TIP3   OH224563   3.256   4.391   1.572 -0.4167 -0.1247 -0.7996
 8200TIP3    H124564   3.175   4.364   1.528 -0.1134 -0.6325 -1.0565
 8200TIP3    H224565   3.246   4.486   1.583 -0.8991 -0.1284 -1.1358
 8201TIP3   OH224566   3.969   3.434   2.411 -0.1904  0.2757 -0.3170
 8201TIP3    H124567   3.929   3.512   2.449  1.0659  0.1437  1.3859
 8201TIP3    H224568   3.913   3.362   2.440  0.0509  0.3129  0.2688
 8202TIP3   OH224569   3.140   1.076   4.570  0.9121  0.1282  0.0403
 8202TIP3    H124570   3.184   0.991   4.565 -1.2724 -1.0477 -0.4765
 8202TIP3    H224571   3.144   1.100   4.662  1.3205 -0.6789  0.2453
 8203TIP3   OH224572   6.268   3.708   0.597 -0.2141 -0.7630  0.2261
 8203TIP3    H124573   6.244   3.775   0.533  1.7450 -1.1200 -0.9808
 8203TIP3    H224574   6.248   3.625   0.554 -0.1713 -0.9928  0.6423
 8204TIP3   OH224575   3.471   3.111   0.125  0.0506  0.0554  0.0247
 8204TIP3    H124576   3.476   3.046   0.196 -0.7861  0.5171  0.5239
 8204TIP3    H224577   3.521   3.072   0.053  0.6948 -0.5416  0.7748
 8205TIP3   OH224578   3.897   1.158   5.702 -0.1858 -0.6927 -0.1096
 8205TIP3    H124579   3.894   1.127   5.612 -0.0302 -0.8346 -0.0668
 8205TIP3    H224580   3.986   1.137   5.732 -0.6674 -1.9076  0.5199
 8206TIP3   OH224581   0.545   4.448   1.199 -0.7351  0.3261  0.0440
 8206TIP3    H124582   0.579   4.385   1.136  2.4288  1.9401 -0.0053
 8206TIP3    H224583   0.486   4.504   1.148 -0.2476  0.0309 -0.8570
 8207TIP3   OH224584   4.016   4.753   5.720 -0.0679 -0.0347  0.4032
 8207TIP3    H124585   3.953   4.785   5.785  1.8486  2.8837  1.0218
 8207TIP3    H224586   3.978   4.778   5.636 -0.3163  0.6218  0.6992
 8208TIP3   OH224587   3.095   0.835  -0.017 -0.3387  0.8313  0.2973
 8208TIP3    H124588   3.003   0.831   0.011 -0.4827 -0.5102 -0.3002
 8208TIP3    H224589   3.145   0.838   0.065 -0.8223 -1.2915  0.7269
 8209TIP3   OH224590   2.978   4.476   1.997  0.1796 -0.5858 -0.5383
 8209TIP3    H124591   2.937   4.390   1.992  0.9548 -1.0831  0.8438
 8209TIP3    H224592   3.009   4.482   2.088 -0.6705  1.5415 -0.3331
 8210TIP3   OH224593   6.048   3.872   2.091  0.4646 -0.1696  0.3497
 8210TIP3    H124594   5.988   3.798   2.084 -1.3054  1.0376  1.6723
 8210TIP3    H224595   6.060   3.885   2.185  0.5450  1.3144  0.1629
 8211TIP3   OH224596   3.897   5.445   2.557  0.1347 -0.6928  0.2426
 8211TIP3    H124597   3.867   5.530   2.589  0.8669 -0.2147 -0.3151
 8211TIP3    H224598   3.960   5.416   2.623  1.4462  0.1729 -0.5772
 8212TIP3   OH224599   0.832   5.104   2.331  0.1321  0.0284 -0.1362
 8212TIP3    H124600   0.845   5.132   2.240 -0.5816  0.1327 -0.2167
 8212TIP3    H224601   0.756   5.153   2.360 -0.0073 -0.4505  0.3258
 8213TIP3   OH224602   1.653   0.055   3.035 -0.4899  0.4344 -0.4207
 8213TIP3    H124603   1.679   0.142   3.068 -2.6986  0.1480  2.4349
 8213TIP3    H224604   1.728  -0.001   3.056 -0.0702  1.1595  0.0952
 8214TIP3   OH224605   2.607   5.529   1.393 -0.0842  0.1391 -0.9490
 8214TIP3    H124606   2.696   5.519   1.427  0.3454  0.0513 -2.0683
 8214TIP3    H224607   2.567   5.442   1.405 -0.0234  0.1689 -0.4798
 8215TIP3   OH224608   1.952   0.477   5.089 -0.1749 -0.0401  0.4455
 8215TIP3    H124609   1.894   0.402   5.073  0.5398 -0.9616  1.9205
 8215TIP3    H224610   1.970   0.473   5.183  0.8888  1.2537  0.3159
 8216TIP3   OH224611   0.551   3.090   5.850  0.3475 -0.0296 -0.5044
 8216TIP3    H124612   0.539   3.180   5.820 -1.8496 -0.8222 -2.2832
 8216TIP3    H224613   0.609   3.051   5.785 -0.8972 -0.5789 -1.3236
 8217TIP3   OH224614   3.441   0.794   0.726 -0.2222  0.5258 -0.1225
 8217TIP3    H124615   3.526   0.783   0.769 -1.1065 -2.6551  1.0981
 8217TIP3    H224616   3.408   0.878   0.761  1.0560  0.2779  1.8980
 8218TIP3   OH224617   1.018   0.207   4.406  0.5720 -0.0704 -0.1216
 8218TIP3    H124618   0.991   0.123   4.444  1.7469 -1.7754 -2.7033
 8218TIP3    H224619   0.940   0.262   4.413 -0.2245 -1.3085  1.7496
 8219TIP3   OH224620   3.585   0.115   0.477  0.2528  0.3978 -0.7918
 8219TIP3    H124621   3.673   0.127   0.512 -0.3099  1.2722  0.3472
 8219TIP3    H224622   3.550   0.203   0.468 -1.2418 -0.0143  0.6946
 8220TIP3   OH224623   6.182   2.890   1.497 -0.1984  0.1271 -0.4086
 8220TIP3    H124624   6.156   2.859   1.410 -0.2280 -0.3597 -0.2309
 8220TIP3    H224625   6.165   2.815   1.554  0.0093  0.3798 -0.0169
 8221TIP3   OH224626   6.089   0.424   4.933 -0.3500 -0.4607 -0.4552
 8221TIP3    H124627   6.151   0.494   4.957  0.2508 -0.6583 -1.3860
 8221TIP3    H224628   6.080   0.432   4.838  0.0593 -1.9223 -0.6310
 8222TIP3   OH224629   0.438   1.752   2.222 -0.0091  0.8180  0.0667
 8222TIP3    H124630   0.438   1.806   2.300 -1.3505  2.1224 -0.7773
 8222TIP3    H224631   0.351   1.711   2.222  0.1941  0.3718 -0.4449
 8223TIP3   OH224632   3.185   5.992   4.320  0.0624 -0.1717  0.0699
 8223TIP3    H124633   3.205   5.946   4.402 -0.7929 -1.0248 -0.1838
 8223TIP3    H224634   3.246   5.956   4.256 -0.8784 -1.3054 -0.2285
 8224TIP3   OH224635   1.654   1.719   0.816 -0.1465 -0.2294  0.0472
 8224TIP3    H124636   1.652   1.814   0.807 -1.8594 -0.2988 -0.8744
 8224TIP3    H224637   1.723   1.701   0.880  0.0033  1.6431  0.4498
 8225TIP3   OH224638   6.906   6.667   3.219  0.3161 -0.0982 -0.4747
 8225TIP3    H124639   6.908   6.637   3.128  1.3657  1.5667 -1.0544
 8225TIP3    H224640   6.915   6.762   3.213  1.7390 -0.0489  1.4146
 8226TIP3   OH224641   2.150   1.056   4.392 -0.6191 -0.1980  0.9550
 8226TIP3    H124642   2.173   1.145   4.367 -0.3695 -0.3848  0.5103
 8226TIP3    H224643   2.113   1.017   4.313  0.6185 -0.9419  0.7174
 8227TIP3   OH224644   3.275   4.135   0.045 -0.1488 -0.5734  0.3659
 8227TIP3    H124645   3.255   4.181  -0.037  0.4042 -1.6754 -0.4038
 8227TIP3    H224646   3.212   4.063   0.049 -1.2455  0.4076  1.7488
 8228TIP3   OH224647   5.071   4.252   4.570  0.7588  0.0896 -0.7159
 8228TIP3    H124648   5.143   4.209   4.617  0.4887 -1.0694 -1.3286
 8228TIP3    H224649   5.110   4.332   4.535  1.1405  0.6518  0.8843
 8229TIP3   OH224650   3.200   2.547   2.335 -0.0305  0.3643 -0.2524
 8229TIP3    H124651   3.174   2.475   2.276  2.1762  0.1209 -1.0308
 8229TIP3    H224652   3.242   2.503   2.409  0.6519  0.7926 -0.3724
 8230TIP3   OH224653   5.254   3.439   4.706 -0.5094  0.0937  0.4494
 8230TIP3    H124654   5.241   3.347   4.726  1.1803 -0.1154  0.7186
 8230TIP3    H224655   5.209   3.486   4.777 -2.8084 -0.4501 -0.5801
 8231TIP3   OH224656   6.353   2.666   3.290 -0.2523 -0.3870 -0.4352
 8231TIP3    H124657   6.270   2.644   3.333  1.7640 -2.1338  3.0525
 8231TIP3    H224658   6.369   2.757   3.314 -0.8400 -0.2482 -0.5568
 8232TIP3   OH224659   6.811   3.856  -0.012 -0.4171 -0.5411  0.2924
 8232TIP3    H124660   6.773   3.787   0.043 -1.7387 -0.3752 -0.3684
 8232TIP3    H224661   6.744   3.925  -0.013 -0.3198 -0.4441 -1.3003
 8233TIP3   OH224662   2.294   3.025   4.461  0.2051  0.0909 -0.2327
 8233TIP3    H124663   2.302   3.107   4.412  0.9424  0.4469  0.4618
 8233TIP3    H224664   2.199   3.008   4.464  0.0994  0.4768 -1.0835
 8234TIP3   OH224665   0.336   5.583   5.306 -0.2181  0.0121 -0.0771
 8234TIP3    H124666   0.429   5.600   5.290 -0.1360  0.1241  0.5011
 8234TIP3    H224667   0.331   5.489   5.323 -0.1778  0.0406  0.0967
 8235TIP3   OH224668   6.060   0.938   3.301 -0.5153  0.7547 -0.7488
 8235TIP3    H124669   5.979   0.986   3.284 -0.6102  0.5482 -0.8850
 8235TIP3    H224670   6.033   0.861   3.351 -0.1930  1.5548  0.7235
 8236TIP3   OH224671   0.209   2.449   2.418 -0.4856 -0.0944 -0.1754
 8236TIP3    H124672   0.125   2.463   2.374  0.7739  2.1451 -2.1427
 8236TIP3    H224673   0.256   2.388   2.360 -0.5137 -0.8690  0.6038
 8237TIP3   OH224674   2.071   4.533   1.662  0.1242  0.6177 -0.1641
 8237TIP3    H124675   2.024   4.452   1.681 -0.6796  1.7826  3.6216
 8237TIP3    H224676   2.056   4.548   1.568 -0.9411 -2.7662 -0.6492
 8238TIP3   OH224677   3.898   3.422   3.756 -0.1662 -0.1353  0.0389
 8238TIP3    H124678   3.828   3.369   3.716  0.5948 -1.6419  0.6258
 8238TIP3    H224679   3.923   3.373   3.835  1.9141  0.0884 -0.4331
 8239TIP3   OH224680   5.018   3.965   3.541 -0.7926 -0.2036 -0.0385
 8239TIP3    H124681   4.961   3.981   3.616 -1.6837  0.0306 -0.7491
 8239TIP3    H224682   5.021   4.049   3.495  0.5622 -0.0628  0.2622
 8240TIP3   OH224683   6.113   2.573   3.386 -0.4818 -0.4353  0.1438
 8240TIP3    H124684   6.093   2.619   3.468 -0.0814 -0.1516  0.0831
 8240TIP3    H224685   6.034   2.522   3.368 -0.5286 -0.5980  0.7760
 8241TIP3   OH224686   4.575   0.275   0.905 -0.2017  1.0935 -0.4857
 8241TIP3    H124687   4.553   0.357   0.949 -1.6331 -0.1067  1.1905
 8241TIP3    H224688   4.491   0.239   0.877  0.1385 -0.7600  0.6662
 8242TIP3   OH224689   5.765   5.301   3.072 -0.2857 -0.4424 -0.1765
 8242TIP3    H124690   5.826   5.374   3.085  0.3267 -1.0744  0.6205
 8242TIP3    H224691   5.809   5.225   3.110 -1.6183 -0.8976  0.5487
 8243TIP3   OH224692   4.048   4.046   0.457  0.8964  0.2176 -0.4954
 8243TIP3    H124693   3.953   4.050   0.465  0.8260 -2.1378  0.5238
 8243TIP3    H224694   4.064   4.035   0.363 -0.0505 -2.1730 -0.4375
 8244TIP3   OH224695   4.106   5.410   2.775  0.0989 -0.3808 -0.1394
 8244TIP3    H124696   4.071   5.416   2.864  1.2814 -1.1766  0.4053
 8244TIP3    H224697   4.196   5.440   2.783  0.1773 -0.3292 -1.1123
 8245TIP3   OH224698   1.658   2.699   2.638  0.6951 -0.1586  0.2700
 8245TIP3    H124699   1.656   2.606   2.662  0.1617 -0.2251 -0.0249
 8245TIP3    H224700   1.751   2.719   2.629  0.9613 -0.0562  2.6756
 8246TIP3   OH224701   6.374   2.200   4.896  0.4666  0.6907  0.1933
 8246TIP3    H124702   6.361   2.121   4.844 -0.2161  0.7651  0.2344
 8246TIP3    H224703   6.297   2.254   4.877  0.2304  0.7423  1.2230
 8247TIP3   OH224704   3.579   3.686   3.265 -0.3901  0.1288  0.5827
 8247TIP3    H124705   3.559   3.758   3.205  0.6837  0.3830  0.5151
 8247TIP3    H224706   3.502   3.629   3.260 -0.7875  0.7087 -0.1916
 8248TIP3   OH224707   6.454   5.004   2.689  0.2931 -0.5135  0.2102
 8248TIP3    H124708   6.480   4.913   2.696 -1.7245 -1.2605 -0.9990
 8248TIP3    H224709   6.512   5.051   2.748  0.6634 -2.7198  1.6992
 8249TIP3   OH224710   4.802   5.449   5.792  0.0780  0.0312  0.2281
 8249TIP3    H124711   4.775   5.531   5.749  0.8711  0.8475  1.2193
 8249TIP3    H224712   4.725   5.420   5.840 -0.1509  0.3032  0.0259
 8250TIP3   OH224713   7.069   0.713   2.816  0.4356 -0.7521  0.3995
 8250TIP3    H124714   7.113   0.769   2.880  0.0701 -1.6642  1.4758
 8250TIP3    H224715   7.138   0.658   2.780  0.5303 -0.6903  0.4861
 8251TIP3   OH224716   3.226   0.385   0.582  0.3444  0.1863  0.4398
 8251TIP3    H124717   3.298   0.418   0.635  0.2674 -0.0727  0.7046
 8251TIP3    H224718   3.225   0.442   0.505  2.4472 -1.3249 -0.7987
 8252TIP3   OH224719   2.119   5.195   3.526 -0.2423 -0.4388 -0.3425
 8252TIP3    H124720   2.084   5.217   3.440 -0.1797  1.2230  0.0270
 8252TIP3    H224721   2.046   5.152   3.572 -1.8859  2.7632  0.3393
 8253TIP3   OH224722   3.465   4.082   2.834 -0.3840  0.3330 -0.0615
 8253TIP3    H124723   3.400   4.016   2.857 -0.0236  0.0640  0.1963
 8253TIP3    H224724   3.545   4.033   2.816  0.0006  0.7236  0.5370
 8254TIP3   OH224725   2.292   3.605   4.281 -0.2997 -0.1668  0.1714
 8254TIP3    H124726   2.335   3.691   4.278  2.2034 -1.3594 -1.9317
 8254TIP3    H224727   2.351   3.550   4.332 -0.3864 -1.3314 -0.9318
 8255TIP3   OH224728   7.091   1.689   1.685 -0.5636 -0.2016  0.6205
 8255TIP3    H124729   7.024   1.682   1.753  0.3894  1.0994  1.7486
 8255TIP3    H224730   7.090   1.781   1.660 -0.2130 -0.4760 -0.4257
 8256TIP3   OH224731   6.471   0.492   3.067  0.3179  0.6664 -0.1440
 8256TIP3    H124732   6.471   0.559   2.999 -2.1985 -0.5124 -1.4555
 8256TIP3    H224733   6.516   0.417   3.027  2.7163  1.2906  1.1539
 8257TIP3   OH224734   0.017   4.946   4.733 -0.6505 -0.9578  0.2634
 8257TIP3    H124735  -0.019   5.025   4.773 -0.1207 -0.4123 -0.3034
 8257TIP3    H224736   0.010   4.962   4.639 -1.5330 -2.0552  0.1120
 8258TIP3   OH224737   2.277   6.344   2.812  0.0562 -0.1306  0.3580
 8258TIP3    H124738   2.241   6.343   2.900  0.1095 -0.4844  0.3751
 8258TIP3    H224739   2.341   6.416   2.813 -2.3111  2.1449 -0.3474
 8259TIP3   OH224740   6.054   0.039   1.601  0.5431  0.7066 -0.1317
 8259TIP3    H124741   5.974   0.069   1.643  0.6908  2.5886 -1.0954
 8259TIP3    H224742   6.113   0.017   1.673 -0.4196  0.3985  0.5829
 8260TIP3   OH224743   6.350   5.254   0.843 -0.3127 -0.2093 -0.0906
 8260TIP3    H124744   6.256   5.246   0.856 -0.2916  1.3585  1.4557
 8260TIP3    H224745   6.376   5.326   0.900  1.6382  0.2558 -1.4653
 8261TIP3   OH224746   2.308   2.035   4.470  0.3849  0.2869  0.0922
 8261TIP3    H124747   2.324   2.020   4.563  0.5598  2.4588  0.4667
 8261TIP3    H224748   2.318   2.130   4.459 -1.4141  0.3200 -1.7918
 8262TIP3   OH224749   2.360   3.895   4.262 -0.2159  0.0862 -0.2262
 8262TIP3    H124750   2.278   3.943   4.271  0.0183  0.4570 -0.0038
 8262TIP3    H224751   2.387   3.910   4.171  0.1290  0.8473 -0.0139
 8263TIP3   OH224752   0.384   3.912   5.621  0.1099 -0.0717 -0.6425
 8263TIP3    H124753   0.408   3.941   5.533 -1.1885 -3.9680 -2.5317
 8263TIP3    H224754   0.295   3.945   5.634 -0.9386 -2.0075 -2.2879
 8264TIP3   OH224755   1.764   3.566   1.722 -0.0950  0.0229 -0.4920
 8264TIP3    H124756   1.822   3.621   1.669 -1.0346  1.4710 -0.0816
 8264TIP3    H224757   1.721   3.509   1.658 -0.9537  1.5068 -1.2937
 8265TIP3   OH224758   4.256   2.055   1.057 -0.2698  0.1410  0.1415
 8265TIP3    H124759   4.290   1.972   1.024  0.9190  0.1584  1.2442
 8265TIP3    H224760   4.333   2.111   1.065 -0.5183  0.2594  2.5104
 8266TIP3   OH224761   5.917   6.283   2.084  0.5630 -1.0554  0.8804
 8266TIP3    H124762   5.929   6.374   2.111  2.0449 -1.4869  1.8031
 8266TIP3    H224763   5.989   6.266   2.023 -0.3214 -1.3233 -0.1327
 8267TIP3   OH224764   4.597   0.632   5.722  0.2922  0.1024 -0.1318
 8267TIP3    H124765   4.538   0.586   5.782  0.8751 -0.1331  0.2729
 8267TIP3    H224766   4.655   0.682   5.779  1.1721 -0.5040 -0.4591
 8268TIP3   OH224767   0.443   5.314   5.896 -0.1546  0.0312 -0.4896
 8268TIP3    H124768   0.528   5.342   5.861 -0.0605  0.6476  0.2282
 8268TIP3    H224769   0.390   5.393   5.898  0.5885  0.5737  2.9724
 8269TIP3   OH224770   1.672   0.762   1.717 -0.2223  0.1123  0.0363
 8269TIP3    H124771   1.701   0.853   1.715  0.0047  0.0252 -0.9478
 8269TIP3    H224772   1.577   0.766   1.709 -0.2109  0.2623 -0.0214
 8270TIP3   OH224773   0.238   0.812   5.723 -0.3349  0.0179 -0.1717
 8270TIP3    H124774   0.271   0.893   5.763 -1.2922  0.1568  0.3949
 8270TIP3    H224775   0.315   0.770   5.685  0.1318  1.3610 -0.7762
 8271TIP3   OH224776   2.464   1.703   1.125 -0.6654  0.2672 -0.4805
 8271TIP3    H124777   2.419   1.699   1.209  0.5848 -0.4100  0.1920
 8271TIP3    H224778   2.504   1.790   1.123 -1.6408  0.7235 -0.9098
 8272TIP3   OH224779   6.104   5.486   0.844  0.0515 -0.5946 -0.1411
 8272TIP3    H124780   6.017   5.525   0.853 -0.0737 -0.3067 -2.0315
 8272TIP3    H224781   6.096   5.399   0.882 -0.5811  0.0402  1.2178
 8273TIP3   OH224782   1.708   6.671   5.627 -0.2848 -0.2839  0.7628
 8273TIP3    H124783   1.613   6.672   5.629 -0.2921 -1.1439  1.3405
 8273TIP3    H224784   1.733   6.596   5.681  0.6942 -0.7124 -0.2334
 8274TIP3   OH224785   0.332   3.314   1.701 -0.5159  0.4348  0.0633
 8274TIP3    H124786   0.418   3.336   1.736 -0.0318  0.9303 -1.3465
 8274TIP3    H224787   0.278   3.298   1.778  0.5723  1.1066  1.0013
 8275TIP3   OH224788   2.966   6.756   4.766 -0.3872 -0.3359 -0.0818
 8275TIP3    H124789   3.018   6.709   4.700  0.0785 -0.4467  0.3575
 8275TIP3    H224790   3.009   6.736   4.849 -0.7852  0.0566  0.2226
 8276TIP3   OH224791   0.628   3.286   4.886  0.0839 -0.0021 -0.0632
 8276TIP3    H124792   0.589   3.365   4.923 -0.2267 -0.0578 -0.2693
 8276TIP3    H224793   0.592   3.280   4.798 -1.8538 -1.6997  0.7676
 8277TIP3   OH224794   2.056   4.357   4.583  0.0027  0.5080 -0.4490
 8277TIP3    H124795   2.109   4.325   4.656 -0.3045  2.2573  0.6348
 8277TIP3    H224796   1.976   4.304   4.587  1.0850 -1.2607 -1.2790
 8278TIP3   OH224797   5.115   5.488   3.968  0.2695 -0.0763  0.2064
 8278TIP3    H124798   5.044   5.550   3.985  0.9652  0.7810  0.0675
 8278TIP3    H224799   5.101   5.418   4.032  0.0541  0.7249  1.0669
 8279TIP3   OH224800   6.371   6.176   2.423 -0.3317 -0.1057  0.3789
 8279TIP3    H124801   6.406   6.095   2.462 -0.6051 -1.2829 -1.6933
 8279TIP3    H224802   6.277   6.160   2.417 -0.3183  0.1286 -0.5364
 8280TIP3   OH224803   6.844   3.855   1.239 -0.1023  0.1266  0.0062
 8280TIP3    H124804   6.767   3.806   1.210  1.4869 -3.5371  1.3302
 8280TIP3    H224805   6.815   3.900   1.319 -0.6717 -2.1508  1.1607
 8281TIP3   OH224806   6.555   5.437   5.882  0.1876 -0.6609  0.5101
 8281TIP3    H124807   6.564   5.527   5.852  1.1821 -0.5995  0.9511
 8281TIP3    H224808   6.479   5.403   5.834  0.9770 -0.1982 -1.1585
 8282TIP3   OH224809   6.927   6.403   3.571 -0.2775  0.0789  0.0075
 8282TIP3    H124810   6.933   6.450   3.654  1.0609 -2.2615  1.3091
 8282TIP3    H224811   6.918   6.311   3.595 -1.4871 -0.5368 -2.4652
 8283TIP3   OH224812   1.270   4.455   2.516 -0.7844 -0.2494  0.4773
 8283TIP3    H124813   1.297   4.521   2.452  1.6858 -1.4328  0.1782
 8283TIP3    H224814   1.342   4.452   2.579 -0.9802 -2.4006  0.6785
 8284TIP3   OH224815   4.644   2.690   2.780 -0.0634  0.1581 -0.6057
 8284TIP3    H124816   4.559   2.694   2.735 -1.3452 -1.3037  1.5187
 8284TIP3    H224817   4.696   2.759   2.738 -2.8491  2.2932 -0.8715
 8285TIP3   OH224818   1.024   1.259   4.602  0.5910  0.7555  0.1556
 8285TIP3    H124819   0.994   1.209   4.678 -1.0689  1.5294  0.0407
 8285TIP3    H224820   1.098   1.310   4.634  1.2354 -0.4597  0.7010
 8286TIP3   OH224821   1.599   6.735   2.350  0.0004 -0.0259  0.1106
 8286TIP3    H124822   1.553   6.717   2.268 -0.2226  1.2348 -0.0611
 8286TIP3    H224823   1.623   6.828   2.344  0.6697 -0.1182  1.1362
 8287TIP3   OH224824   4.943   3.022   3.827  0.6331 -0.2056  0.3287
 8287TIP3    H124825   4.929   3.082   3.900 -0.5188  0.8758 -0.7361
 8287TIP3    H224826   5.026   2.979   3.848  0.9875  1.0071  1.6283
 8288TIP3   OH224827   5.759   1.531   0.707 -0.0786 -0.0009 -0.1379
 8288TIP3    H124828   5.854   1.545   0.701 -0.2227  0.3787 -2.2447
 8288TIP3    H224829   5.748   1.477   0.786  1.9994 -1.0547 -0.4944
 8289TIP3   OH224830   3.388   1.759   2.813  0.0682  0.2502 -0.6181
 8289TIP3    H124831   3.326   1.819   2.855 -0.0818 -0.0487 -0.4086
 8289TIP3    H224832   3.423   1.707   2.885 -0.7977 -0.8238 -0.9533
 8290TIP3   OH224833   0.139   4.799   4.917  0.0663 -0.0988 -0.2249
 8290TIP3    H124834   0.103   4.866   4.859 -0.2821 -1.4837 -1.7057
 8290TIP3    H224835   0.134   4.718   4.865  2.3555 -0.9267  0.7239
 8291TIP3   OH224836   5.114   2.973   3.598 -0.8765  0.2347 -1.1582
 8291TIP3    H124837   5.067   3.020   3.667  0.5104  0.9261 -0.6228
 8291TIP3    H224838   5.125   2.884   3.632  0.3788  0.7406 -0.1242
 8292TIP3   OH224839   6.490   2.029   3.883 -0.1463  0.0347 -0.2592
 8292TIP3    H124840   6.543   2.050   3.960 -0.9038  0.3348  0.1928
 8292TIP3    H224841   6.541   2.062   3.809  0.2787  0.3619  0.1706
 8293TIP3   OH224842   3.414   4.883   3.062 -0.0595  0.2630  0.4573
 8293TIP3    H124843   3.332   4.908   3.105  0.2506  0.7826  0.7649
 8293TIP3    H224844   3.459   4.827   3.126 -0.8313 -1.2876 -0.2995
 8294TIP3   OH224845   6.586   1.724   0.958 -0.4830 -0.4774  0.2005
 8294TIP3    H124846   6.553   1.706   1.046  0.6964 -0.4175  0.6697
 8294TIP3    H224847   6.606   1.818   0.959  2.0752 -0.9563  0.7878
 8295TIP3   OH224848   4.891   4.311   1.496  0.0843  0.4680 -0.1854
 8295TIP3    H124849   4.895   4.330   1.590 -1.0637  0.7935 -0.1931
 8295TIP3    H224850   4.834   4.235   1.489  1.2528 -0.4165 -0.5278
 8296TIP3   OH224851   1.658   2.938   3.324  0.0990  0.2892  0.6168
 8296TIP3    H124852   1.698   2.988   3.395 -0.8813  1.1191  0.6051
 8296TIP3    H224853   1.580   2.900   3.363  1.8317 -3.0058  1.2145
 8297TIP3   OH224854   6.976   4.864   0.592 -0.4640 -0.2372  0.0323
 8297TIP3    H124855   6.952   4.789   0.537  0.0122  2.0348 -3.6445
 8297TIP3    H224856   6.896   4.885   0.641 -1.4775 -1.4089 -1.0603
 8298TIP3   OH224857   6.579   4.310   1.040  0.2173 -0.1891 -0.4044
 8298TIP3    H124858   6.630   4.376   0.992  0.3670  0.8964  1.1764
 8298TIP3    H224859   6.526   4.360   1.101  0.3503 -1.5319  0.8726
 8299TIP3   OH224860   5.515   3.927   5.414 -0.2887 -0.0648  0.4623
 8299TIP3    H124861   5.468   3.991   5.468  0.3170  2.1036 -1.4438
 8299TIP3    H224862   5.607   3.937   5.440 -0.0641  0.6075 -0.5445
 8300TIP3   OH224863   1.704   4.918   1.981 -0.4025  0.6716  0.2364
 8300TIP3    H124864   1.616   4.944   2.007 -1.0029 -0.0590 -1.0056
 8300TIP3    H224865   1.701   4.823   1.975  0.7249  0.5726  1.0468
 8301TIP3   OH224866   5.242   5.694   5.545  0.2321 -0.3764 -0.8066
 8301TIP3    H124867   5.264   5.711   5.637 -0.7025 -0.5640 -0.5411
 8301TIP3    H224868   5.152   5.726   5.536 -0.2539 -1.8085 -1.2444
 8302TIP3   OH224869   5.355   4.957   4.939  0.3174 -0.3271  0.2591
 8302TIP3    H124870   5.427   4.996   4.888  0.4864 -1.8167 -0.7199
 8302TIP3    H224871   5.373   4.863   4.937 -1.8344 -0.7889 -0.3173
 8303TIP3   OH224872   1.936   3.920   2.047 -0.0806  0.1715 -0.1503
 8303TIP3    H124873   1.863   3.902   1.988 -0.9750  3.3299 -0.1527
 8303TIP3    H224874   1.899   3.976   2.115  1.5322 -1.2213  2.0422
 8304TIP3   OH224875   1.039   5.308   4.757 -0.1658 -0.2387 -0.3651
 8304TIP3    H124876   1.033   5.214   4.775 -0.8039  0.1561  1.6942
 8304TIP3    H224877   0.949   5.336   4.746 -0.1746  0.5235  1.3938
 8305TIP3   OH224878   2.735   5.634   3.105  0.1912 -0.0843  0.1309
 8305TIP3    H124879   2.733   5.691   3.183  0.2587  0.6032 -0.3635
 8305TIP3    H224880   2.730   5.545   3.141 -0.7158  0.2454  0.8912
 8306TIP3   OH224881   4.542   4.754   2.528 -0.0886 -0.1107  0.6100
 8306TIP3    H124882   4.627   4.741   2.486  0.2720  0.6671  1.0600
 8306TIP3    H224883   4.492   4.807   2.466  0.3030  0.7012  0.9652
 8307TIP3   OH224884   5.450   3.291   2.659  0.1492  0.5645  0.5414
 8307TIP3    H124885   5.410   3.338   2.586  0.0598  0.2342  0.3744
 8307TIP3    H224886   5.420   3.201   2.648 -0.0794  0.5669  1.1435
 8308TIP3   OH224887   2.089   6.755   4.608  0.6184  0.3828  0.0740
 8308TIP3    H124888   2.061   6.837   4.566  0.2344 -0.2844 -1.0154
 8308TIP3    H224889   2.164   6.726   4.557 -0.7129 -1.1697 -1.1120
 8309TIP3   OH224890   2.739   4.017   5.230 -0.1799 -0.0024 -0.0007
 8309TIP3    H124891   2.789   4.055   5.158 -1.6627  0.5757 -0.7644
 8309TIP3    H224892   2.724   3.926   5.203  0.1555 -0.0861  0.0832
 8310TIP3   OH224893   5.954   5.941   2.116  0.1263 -0.7738  0.3589
 8310TIP3    H124894   5.916   6.021   2.152  0.7490  0.1858 -1.0350
 8310TIP3    H224895   5.968   5.885   2.192 -0.4766  0.3738  1.3469
 8311TIP3   OH224896   2.350   3.496   0.520 -0.6696 -0.4710 -0.0593
 8311TIP3    H124897   2.403   3.417   0.510  0.7469  0.1936  1.6013
 8311TIP3    H224898   2.260   3.464   0.528 -0.2117 -1.8449 -0.1867
 8312TIP3   OH224899   5.550   3.545   3.633 -0.3649 -0.3074 -0.1203
 8312TIP3    H124900   5.634   3.518   3.670  0.3225  0.8606 -0.7341
 8312TIP3    H224901   5.510   3.599   3.701  0.0152  0.2468 -0.3261
 8313TIP3   OH224902   0.028   5.552   4.224 -0.0241 -0.5530 -0.1556
 8313TIP3    H124903   0.123   5.559   4.211  0.1072 -2.7851 -0.7252
 8313TIP3    H224904   0.012   5.601   4.305  1.5762  0.0791 -0.1769
 8314TIP3   OH224905   0.164   4.632   0.404  0.1940 -0.2738 -0.2456
 8314TIP3    H124906   0.192   4.573   0.334  1.2127 -0.8265  0.5929
 8314TIP3    H224907   0.165   4.577   0.483 -0.6768  0.4009  0.2534
 8315TIP3   OH224908   5.410   5.865   4.888  0.1410 -0.1040  0.4591
 8315TIP3    H124909   5.469   5.816   4.945  1.1567  1.0593  0.4614
 8315TIP3    H224910   5.445   5.955   4.889  0.9118 -0.2281 -2.8519
 8316TIP3   OH224911   2.009   1.469   5.420  0.0156  0.5899  0.2866
 8316TIP3    H124912   2.003   1.412   5.497 -1.7243  1.2831  0.7135
 8316TIP3    H224913   2.011   1.409   5.346  2.8014 -0.1285  0.8546
 8317TIP3   OH224914   3.281   2.638   3.803  0.2237  0.3488  0.2920
 8317TIP3    H124915   3.225   2.637   3.880  0.1331 -0.8804  0.2345
 8317TIP3    H224916   3.220   2.642   3.729  0.1805 -0.9617  0.2302
 8318TIP3   OH224917   5.940   0.414   5.154 -0.4161 -0.0235  0.1870
 8318TIP3    H124918   5.931   0.503   5.188 -0.0909  0.4770 -1.0213
 8318TIP3    H224919   6.008   0.420   5.087 -0.9940 -1.0076 -0.5030
 8319TIP3   OH224920   1.725   1.011   0.641 -0.7612 -0.4337 -0.2790
 8319TIP3    H124921   1.794   1.071   0.668 -0.8117 -0.6842  0.4247
 8319TIP3    H224922   1.762   0.964   0.566  0.5166 -1.7828  1.1190
 8320TIP3   OH224923   6.063   3.203   3.699 -0.3641  0.3016  0.1453
 8320TIP3    H124924   6.124   3.130   3.715  0.6081  1.0438 -0.1043
 8320TIP3    H224925   6.007   3.204   3.777  1.9834  1.5890  1.9449
 8321TIP3   OH224926   3.872   1.382   2.839  0.1266 -0.1407 -0.3287
 8321TIP3    H124927   3.937   1.364   2.771 -0.3730  0.6599 -1.0331
 8321TIP3    H224928   3.895   1.322   2.910  0.5225 -1.1412 -1.2778
 8322TIP3   OH224929   2.124   5.328   3.265 -0.0126  0.2394 -0.5284
 8322TIP3    H124930   2.197   5.389   3.255 -0.4688  0.5409 -2.2960
 8322TIP3    H224931   2.110   5.293   3.178 -1.6618 -0.2012 -0.1129
 8323TIP3   OH224932   1.659   3.111   0.721 -0.2882  0.0763  0.3319
 8323TIP3    H124933   1.649   3.183   0.658 -0.1104  0.0995  0.3280
 8323TIP3    H224934   1.712   3.046   0.675 -0.6300 -0.1545  0.2590
 8324TIP3   OH224935   2.306   4.917   0.780  0.5614  0.1676 -0.1561
 8324TIP3    H124936   2.212   4.902   0.785  0.7529 -1.0302  0.1863
 8324TIP3    H224937   2.327   4.911   0.687  0.4067 -0.3239 -0.1618
 8325TIP3   OH224938   6.349   3.737   5.844  0.3267  0.2250  0.0280
 8325TIP3    H124939   6.337   3.819   5.796  0.4185  0.6697  0.7372
 8325TIP3    H224940   6.348   3.764   5.936  1.2625 -0.4474  0.2449
 8326TIP3   OH224941   1.549   3.178   5.392 -0.8104  0.1792 -0.2702
 8326TIP3    H124942   1.579   3.091   5.416 -1.0158  0.7664  2.4397
 8326TIP3    H224943   1.628   3.233   5.398 -0.9563  0.4309 -0.6124
 8327TIP3   OH224944   1.081   4.718   5.082  0.4302 -0.2849  0.2534
 8327TIP3    H124945   1.060   4.694   5.172 -2.7141  1.2771  0.0864
 8327TIP3    H224946   1.121   4.805   5.089  1.5914 -0.8023  0.2004
 8328TIP3   OH224947   7.103   6.668   0.795  0.2240 -0.3079 -0.4860
 8328TIP3    H124948   7.128   6.759   0.807  0.1765 -0.5191  1.5660
 8328TIP3    H224949   7.038   6.670   0.724 -0.7518  1.4404  0.3888
 8329TIP3   OH224950   4.674   4.845   3.638 -0.7517  0.8511  0.3632
 8329TIP3    H124951   4.716   4.792   3.570  0.1363  0.6111  1.0708
 8329TIP3    H224952   4.583   4.852   3.611 -0.7013 -0.3632 -0.1695
 8330TIP3   OH224953   3.284   2.252   4.395 -0.1981  0.4448  0.2792
 8330TIP3    H124954   3.273   2.157   4.385 -0.7786  0.1254  3.1814
 8330TIP3    H224955   3.374   2.268   4.366  0.0331 -1.0557  0.0431
 8331TIP3   OH224956   7.203   2.063   4.357  0.3760  0.4636  0.2076
 8331TIP3    H124957   7.225   2.093   4.269  0.8078 -0.1395  0.1058
 8331TIP3    H224958   7.118   2.021   4.347  0.8971 -0.5354 -0.1360
 8332TIP3   OH224959   1.729   4.831   0.386  0.6872 -0.0437 -0.5432
 8332TIP3    H124960   1.761   4.741   0.392  1.9389  0.2897 -1.6047
 8332TIP3    H224961   1.759   4.861   0.300 -0.9097  0.9384 -0.7876
 8333TIP3   OH224962   3.914   1.989   2.476 -0.5270  0.6792  0.2232
 8333TIP3    H124963   3.835   2.032   2.511 -1.1382  0.8300 -1.2877
 8333TIP3    H224964   3.976   1.991   2.549 -2.2405 -0.3169  1.7828
 8334TIP3   OH224965   2.673   5.863   2.157 -0.5888 -0.0063 -0.0852
 8334TIP3    H124966   2.738   5.794   2.141 -2.2232 -1.5462 -0.3521
 8334TIP3    H224967   2.639   5.884   2.071  0.7844  2.1186 -0.1700
 8335TIP3   OH224968   0.029   2.856   0.541 -0.9112  0.5507  0.4277
 8335TIP3    H124969  -0.026   2.935   0.550 -0.7696  0.6015  0.8826
 8335TIP3    H224970   0.117   2.891   0.529 -0.9926  0.4717 -0.4958
 8336TIP3   OH224971   2.185   0.509   1.506 -0.1020 -0.0404 -0.1181
 8336TIP3    H124972   2.248   0.508   1.579 -0.0277  0.6789 -0.1666
 8336TIP3    H224973   2.210   0.585   1.455 -0.4246 -0.3037 -0.6695
 8337TIP3   OH224974   2.110   3.001   0.096 -0.1891 -0.1671 -0.3463
 8337TIP3    H124975   2.066   2.942   0.035 -0.4604  1.2201 -1.5487
 8337TIP3    H224976   2.194   3.020   0.056  1.1221 -1.8959  1.3974
 8338TIP3   OH224977   1.347   2.404   0.981  0.4097 -0.5047 -0.3219
 8338TIP3    H124978   1.407   2.463   0.935  0.5809  1.4673  2.1471
 8338TIP3    H224979   1.264   2.452   0.983  0.5852 -0.1583  1.8454
 8339TIP3   OH224980   7.186   4.124   2.457 -0.4413  0.5637 -0.4487
 8339TIP3    H124981   7.224   4.174   2.385  2.4777  1.2725  1.4078
 8339TIP3    H224982   7.132   4.188   2.504 -1.2203  0.4679 -1.2034
 8340TIP3   OH224983   5.099   2.794   2.497  0.2577 -0.5960 -0.4359
 8340TIP3    H124984   5.186   2.758   2.516  1.1633  1.2243 -0.8770
 8340TIP3    H224985   5.111   2.889   2.500 -0.9330 -0.2032 -3.7748
 8341TIP3   OH224986   6.352   5.072   5.004  0.1319  0.0498 -0.0311
 8341TIP3    H124987   6.339   5.166   5.018  0.8101  0.2436 -0.6302
 8341TIP3    H224988   6.422   5.048   5.065 -0.2534 -0.1441  0.3457
 8342TIP3   OH224989   0.623   5.645   5.313  0.0421 -0.3000 -0.5432
 8342TIP3    H124990   0.660   5.556   5.314  2.1330  0.4740  1.8843
 8342TIP3    H224991   0.681   5.695   5.256 -1.7605 -0.5796 -2.8202
 8343TIP3   OH224992   1.934   3.033   4.178  0.0752  0.3895 -0.5430
 8343TIP3    H124993   1.983   2.964   4.222 -0.6946 -0.3065 -0.7532
 8343TIP3    H224994   1.843   3.006   4.185 -0.2300  1.3240 -0.7456
 8344TIP3   OH224995   5.796   5.360   1.209 -0.3847 -0.2548 -0.0491
 8344TIP3    H124996   5.764   5.311   1.285  1.7782  0.4039  1.3814
 8344TIP3    H224997   5.737   5.434   1.201 -0.5517 -0.2584  1.0848
 8345TIP3   OH224998   4.718   5.713   4.556 -0.7487  0.4041 -0.2236
 8345TIP3    H124999   4.788   5.660   4.594 -0.9959 -0.3918 -0.8421
 8345TIP3    H225000   4.746   5.730   4.466 -0.9642  0.7953 -0.2186
 8346TIP3   OH225001   3.088   3.984   5.276 -0.0984  0.3870  0.2422
 8346TIP3    H125002   3.040   4.033   5.209  1.1097  1.4196  0.0950
 8346TIP3    H225003   3.132   4.051   5.328  0.4408 -0.4908  0.9424
 8347TIP3   OH225004   4.543   5.776   4.026  0.2386  0.5116  0.1868
 8347TIP3    H125005   4.526   5.808   3.937  0.5790  0.0125 -0.0604
 8347TIP3    H225006   4.486   5.699   4.034  0.2758  0.5039  0.3665
 8348TIP3   OH225007   3.804   1.806   1.550  0.0621 -0.3414 -0.3241
 8348TIP3    H125008   3.818   1.771   1.462  2.4591  1.1602 -0.6613
 8348TIP3    H225009   3.877   1.771   1.601 -0.5408 -0.1133  0.7193
 8349TIP3   OH225010   6.619   0.831   2.147  0.0391  0.4404 -0.1334
 8349TIP3    H125011   6.585   0.865   2.229 -0.3861  0.2011 -0.2043
 8349TIP3    H225012   6.541   0.811   2.095  0.2517 -1.0506  0.0724
 8350TIP3   OH225013   4.505   5.751   2.582  0.1319  0.1201  0.4350
 8350TIP3    H125014   4.562   5.744   2.505 -0.3730  0.6055  0.0104
 8350TIP3    H225015   4.437   5.685   2.566  0.0267  0.2223  0.4614
 8351TIP3   OH225016   3.396   0.212   5.537  0.4985  0.1593  0.4441
 8351TIP3    H125017   3.368   0.121   5.541  1.1150 -0.3227 -3.1518
 8351TIP3    H225018   3.319   0.260   5.506  0.2230  0.9307  2.1679
 8352TIP3   OH225019   4.333   6.648   0.987 -0.3902  0.2281  0.2690
 8352TIP3    H125020   4.276   6.647   0.911 -1.3118 -3.0149  0.8582
 8352TIP3    H225021   4.275   6.638   1.062  0.7464 -1.1411  1.0335
 8353TIP3   OH225022   3.506   0.513   1.527  0.0935  1.1990 -0.1250
 8353TIP3    H125023   3.413   0.533   1.519  0.0572  0.6819 -1.2484
 8353TIP3    H225024   3.511   0.447   1.596 -0.4464  0.8294 -0.4344
 8354TIP3   OH225025   1.266   3.982   2.592  0.5227 -0.4032  0.2343
 8354TIP3    H125026   1.341   4.041   2.592 -0.7295  1.2511  1.1426
 8354TIP3    H225027   1.241   3.975   2.499  0.7330  0.4269  0.1089
 8355TIP3   OH225028   6.021   2.269   3.662  0.0219  0.1015 -0.3195
 8355TIP3    H125029   6.084   2.273   3.733  0.1420 -0.2129 -0.4077
 8355TIP3    H225030   5.947   2.219   3.697 -0.5072  1.0868  0.0301
 8356TIP3   OH225031   2.233   2.520   0.350 -0.4760  0.6674  0.4774
 8356TIP3    H125032   2.207   2.552   0.264 -2.3669 -0.6608  0.4998
 8356TIP3    H225033   2.219   2.426   0.346  2.8163  0.0051  1.1213
 8357TIP3   OH225034   7.052   5.163   3.882  0.6864 -0.4988 -0.4221
 8357TIP3    H125035   6.996   5.130   3.812 -0.1206  0.2539 -0.1424
 8357TIP3    H225036   7.140   5.136   3.857  0.7295  1.5744 -2.8333
 8358TIP3   OH225037   3.440   2.808   5.732  0.6815 -0.4768 -0.4828
 8358TIP3    H125038   3.399   2.887   5.767 -0.0091 -1.2319  0.4958
 8358TIP3    H225039   3.533   2.819   5.750  0.5165 -0.1493  0.1973
 8359TIP3   OH225040   6.442   2.896   0.849  0.1159 -0.0033  0.2452
 8359TIP3    H125041   6.359   2.879   0.804  1.2167  1.1159 -2.3802
 8359TIP3    H225042   6.472   2.810   0.878 -1.2071 -0.6226 -0.1516
 8360TIP3   OH225043   0.268   6.325   3.542 -0.4249  0.3571 -0.1109
 8360TIP3    H125044   0.201   6.356   3.603  0.8792  3.1375  0.0927
 8360TIP3    H225045   0.338   6.293   3.598 -1.0963 -1.5860 -0.3100
 8361TIP3   OH225046   4.162   0.958   2.288 -0.0007  0.7840  0.8990
 8361TIP3    H125047   4.248   0.918   2.275  1.7943  4.6626 -0.7386
 8361TIP3    H225048   4.168   1.000   2.373 -0.5218  0.6273  1.0194
 8362TIP3   OH225049   2.044   1.954   5.540 -0.1405 -0.4081  0.1262
 8362TIP3    H125050   1.979   1.885   5.556  0.3595 -1.1696 -0.9921
 8362TIP3    H225051   1.992   2.032   5.524 -0.7626 -0.7923  0.2109
 8363TIP3   OH225052   3.368   5.592   3.856  0.0424 -0.0003 -0.3593
 8363TIP3    H125053   3.408   5.659   3.911  0.6817 -1.3420  0.8539
 8363TIP3    H225054   3.318   5.537   3.917 -1.4187  0.0158 -1.4786
 8364TIP3   OH225055   3.740   6.193   2.518 -0.7274 -0.0435  0.1803
 8364TIP3    H125056   3.826   6.228   2.495 -1.4748  1.4250 -0.5468
 8364TIP3    H225057   3.752   6.099   2.522  0.5899  0.0270 -1.3114
 8365TIP3   OH225058   0.505   3.045   2.248 -0.1394  0.0172  0.4656
 8365TIP3    H125059   0.601   3.040   2.256 -0.0043 -0.8849 -1.3516
 8365TIP3    H225060   0.479   2.960   2.215 -1.7272 -0.1082  1.8727
 8366TIP3   OH225061   4.237   3.741   3.456  0.1229  0.0209  0.3682
 8366TIP3    H125062   4.169   3.674   3.447 -0.2404  0.1198  2.0023
 8366TIP3    H225063   4.262   3.762   3.366 -1.7345 -0.3114 -0.2782
 8367TIP3   OH225064   5.452   1.453   0.963 -0.5604  0.1428 -0.5176
 8367TIP3    H125065   5.543   1.478   0.944 -0.8909  1.9214  0.0997
 8367TIP3    H225066   5.454   1.357   0.963  1.4234  0.1281 -0.0677
 8368TIP3   OH225067   5.812   0.855   5.594  0.7886 -0.2940 -0.5517
 8368TIP3    H125068   5.777   0.885   5.510  1.0790  0.4372 -0.4144
 8368TIP3    H225069   5.905   0.840   5.578  1.4134  2.2660  0.2312
 8369TIP3   OH225070   4.175   0.586   1.487 -0.2508  0.0601 -0.5729
 8369TIP3    H125071   4.088   0.570   1.524 -0.4058 -0.2735 -1.0669
 8369TIP3    H225072   4.184   0.682   1.489 -0.3512  0.0637  0.0906
 8370TIP3   OH225073   5.085   1.435   1.759 -0.0415  0.1766  0.8141
 8370TIP3    H125074   5.050   1.522   1.775  2.4791  1.1725  1.3466
 8370TIP3    H225075   5.053   1.412   1.671  2.4980  3.4791 -1.2101
 8371TIP3   OH225076   6.025   6.487   5.510  0.9991  0.1688  0.0108
 8371TIP3    H125077   6.003   6.502   5.419  2.8995 -0.1352 -0.5417
 8371TIP3    H225078   6.106   6.536   5.524  1.8932 -1.4739  0.9091
 8372TIP3   OH225079   3.517   1.452   2.427  0.2753 -0.2200  0.0935
 8372TIP3    H125080   3.421   1.455   2.434  0.3293  2.0330  0.9251
 8372TIP3    H225081   3.546   1.523   2.484  2.4297 -0.5188 -0.5668
 8373TIP3   OH225082   0.399   6.690   3.139  0.3429  0.4093  0.0594
 8373TIP3    H125083   0.417   6.724   3.052  2.0093  0.6159  0.4633
 8373TIP3    H225084   0.470   6.628   3.157 -1.9191 -2.4868 -0.1717
 8374TIP3   OH225085   2.257   0.155   4.064 -0.4560  0.1862  0.1734
 8374TIP3    H125086   2.291   0.172   4.151  0.0596  0.5964 -0.1012
 8374TIP3    H225087   2.333   0.166   4.006 -1.0258  1.0172 -0.4391
 8375TIP3   OH225088   5.089   1.979   1.588  0.2038 -0.0666  0.0753
 8375TIP3    H125089   5.003   1.998   1.553  0.0494 -0.1428  0.4045
 8375TIP3    H225090   5.139   2.060   1.576  0.4721 -0.4140 -1.2395
 8376TIP3   OH225091   3.620   2.340   1.735 -0.8507  0.0730 -0.4119
 8376TIP3    H125092   3.623   2.421   1.684 -0.6441 -0.4281 -1.1958
 8376TIP3    H225093   3.661   2.363   1.818 -2.4149  1.2794  0.0890
 8377TIP3   OH225094   4.654   2.518   5.161  0.2158 -0.2970 -0.3379
 8377TIP3    H125095   4.644   2.611   5.182  0.0533 -0.7653  1.8560
 8377TIP3    H225096   4.731   2.514   5.105 -0.9600  1.3457 -2.2127
 8378TIP3   OH225097   6.872   3.842   5.655 -0.0879 -0.0802 -0.4045
 8378TIP3    H125098   6.869   3.810   5.565  0.0196  1.2970 -0.9299
 8378TIP3    H225099   6.781   3.864   5.675  0.1147  1.2525 -0.8319
 8379TIP3   OH225100   5.695   5.058   1.078  0.3299  0.6800 -0.0039
 8379TIP3    H125101   5.785   5.080   1.102  0.6433 -0.1271 -0.4303
 8379TIP3    H225102   5.701   4.973   1.035 -0.6349  0.6325 -0.0650
 8380TIP3   OH225103   5.999   5.086   2.588 -0.2185 -0.5077 -0.0584
 8380TIP3    H125104   6.006   5.150   2.517 -0.7245  0.7711  1.0106
 8380TIP3    H225105   6.079   5.034   2.582  0.6244  0.8054 -0.4030
 8381TIP3   OH225106   4.023   5.011   0.205 -0.0090  0.0428  0.6161
 8381TIP3    H125107   3.973   5.024   0.286 -1.1624  2.1678 -0.3692
 8381TIP3    H225108   3.968   4.953   0.152 -1.1699  1.8155 -0.1841
 8382TIP3   OH225109   7.130   1.037   2.162  0.2118 -0.5792  0.2713
 8382TIP3    H125110   7.077   1.096   2.216  1.0761  0.8046 -0.3393
 8382TIP3    H225111   7.067   0.973   2.129 -1.4072  1.6697 -1.3601
 8383TIP3   OH225112   3.736   1.010   2.533 -0.5845 -0.3536  0.4316
 8383TIP3    H125113   3.703   0.938   2.479  1.7805 -1.6682  0.6179
 8383TIP3    H225114   3.744   0.972   2.620 -1.0088  0.7102  0.9453
 8384TIP3   OH225115   6.777   3.065   4.996  0.2516  0.4904  0.0465
 8384TIP3    H125116   6.831   3.143   4.978 -0.3754  0.5859 -1.5566
 8384TIP3    H225117   6.840   2.993   4.999  0.5362  0.6117 -1.7422
 8385TIP3   OH225118   6.705   5.960   5.202  0.0299  0.2235 -0.2424
 8385TIP3    H125119   6.743   6.042   5.169  0.8534 -0.3198 -0.6929
 8385TIP3    H225120   6.781   5.903   5.217 -0.5502 -0.5647 -0.2413
 8386TIP3   OH225121   6.940   6.641   0.561 -0.1953  0.1786  0.4818
 8386TIP3    H125122   6.857   6.687   0.571 -0.8210 -0.7384 -0.3315
 8386TIP3    H225123   6.975   6.671   0.477  1.2423  1.9688  1.6400
 8387TIP3   OH225124   2.819   6.617   5.552 -0.3156 -0.2596 -0.2429
 8387TIP3    H125125   2.886   6.684   5.563 -1.3669  1.0726 -1.4992
 8387TIP3    H225126   2.859   6.536   5.585  0.5837  1.1539  2.3778
 8388TIP3   OH225127   0.372   6.153   1.469 -0.3498 -0.1031 -0.2073
 8388TIP3    H125128   0.325   6.205   1.534 -1.3732 -0.3465 -0.7371
 8388TIP3    H225129   0.465   6.173   1.485 -0.6147  0.2558  0.9615
 8389TIP3   OH225130   6.198   4.246   2.533  0.3544 -0.0967 -0.1078
 8389TIP3    H125131   6.176   4.303   2.607 -0.3057 -1.4873  0.8320
 8389TIP3    H225132   6.126   4.258   2.471 -0.8153 -1.2815  0.9516
 8390TIP3   OH225133   6.067   6.258   0.657  0.4199  0.2274 -0.0444
 8390TIP3    H125134   6.029   6.173   0.680  0.1451  0.8118  1.7880
 8390TIP3    H225135   6.122   6.280   0.732  0.7126  1.5481 -0.6281
 8391TIP3   OH225136   3.059   3.546   2.533 -0.2549 -0.0056 -0.1441
 8391TIP3    H125137   3.139   3.595   2.552 -0.5387  0.6677 -0.6455
 8391TIP3    H225138   3.051   3.549   2.438 -0.3232 -0.9727 -0.1759
 8392TIP3   OH225139   4.529   0.908   0.185 -0.0650 -0.0258 -0.5249
 8392TIP3    H125140   4.602   0.887   0.127 -1.7373 -2.4876 -1.9445
 8392TIP3    H225141   4.540   0.850   0.260 -1.1607 -1.4082 -1.3655
 8393TIP3   OH225142   5.662   5.065   5.727 -0.6186 -0.4102 -0.0607
 8393TIP3    H125143   5.645   5.074   5.821 -1.1760 -2.5520  0.0955
 8393TIP3    H225144   5.599   5.125   5.686 -0.0192  0.9314  0.9195
 8394TIP3   OH225145   0.988   3.877   3.124 -0.2431  0.0708 -0.1612
 8394TIP3    H125146   1.052   3.826   3.075 -0.5035 -0.3142 -0.1003
 8394TIP3    H225147   0.993   3.842   3.213  0.2670  0.7990  0.1107
 8395TIP3   OH225148   2.955   4.263   0.031  0.2191 -0.0800  0.1518
 8395TIP3    H125149   2.883   4.323   0.016  0.9518  0.6463 -0.5753
 8395TIP3    H225150   3.034   4.314   0.011  1.0926 -0.2427  2.7172
 8396TIP3   OH225151   2.330   6.575   5.668  0.1620 -0.6803 -0.1430
 8396TIP3    H125152   2.415   6.585   5.711 -0.2569 -0.5870  0.6835
 8396TIP3    H225153   2.313   6.481   5.669 -0.2240 -0.6077  0.6543
 8397TIP3   OH225154   2.427   0.657   1.517 -0.0805 -0.1130 -0.1484
 8397TIP3    H125155   2.445   0.569   1.549  1.7107  0.0028 -0.7258
 8397TIP3    H225156   2.417   0.647   1.423 -3.3257 -0.1526  0.0905
 8398TIP3   OH225157   1.741   2.351   2.979 -0.0626  0.0865  0.1297
 8398TIP3    H125158   1.766   2.444   2.987 -0.4472  0.4895 -2.5968
 8398TIP3    H225159   1.660   2.344   3.029  0.0323  1.1710  0.4724
 8399TIP3   OH225160   6.778   2.680   2.483 -0.0116  0.2095 -0.0103
 8399TIP3    H125161   6.802   2.745   2.418 -2.6399  0.9887 -0.3246
 8399TIP3    H225162   6.721   2.618   2.436  0.6620 -1.0813  0.8071
 8400TIP3   OH225163   4.455   2.731   5.848 -0.7914  0.4797 -0.8873
 8400TIP3    H125164   4.419   2.657   5.897 -0.0317 -1.1485 -2.6570
 8400TIP3    H225165   4.443   2.806   5.906 -0.6061 -1.1789  1.4545
 8401TIP3   OH225166   3.159   1.918   0.241  0.6732 -0.2039  0.2312
 8401TIP3    H125167   3.086   1.903   0.301 -0.6937  1.6626 -0.8808
 8401TIP3    H225168   3.142   2.003   0.202  0.5542 -1.9059 -4.0202
 8402TIP3   OH225169   4.573   3.148   3.271 -0.0105 -0.2586  0.4362
 8402TIP3    H125170   4.506   3.116   3.331 -0.6862 -1.0018 -0.6580
 8402TIP3    H225171   4.639   3.188   3.327 -1.0672 -0.0644  1.5915
 8403TIP3   OH225172   5.812   5.792   2.830  0.4305  0.6011 -0.5646
 8403TIP3    H125173   5.770   5.770   2.746 -0.6354  0.4778 -0.0189
 8403TIP3    H225174   5.797   5.886   2.840 -0.1949  0.4641 -0.1279
 8404TIP3   OH225175   4.408   1.471   5.287  0.2769  0.2751  0.0047
 8404TIP3    H125176   4.422   1.539   5.353 -0.4303  1.0308 -0.6150
 8404TIP3    H225177   4.488   1.417   5.292  0.9006  1.2052  0.4231
 8405TIP3   OH225178   4.320   1.388   1.279 -0.4833 -0.0636  0.0528
 8405TIP3    H125179   4.309   1.413   1.187 -0.4442 -1.8566 -0.4638
 8405TIP3    H225180   4.343   1.296   1.277  1.0630  0.2175  1.8007
 8406TIP3   OH225181   0.328   6.752   0.661  0.0779 -0.1537  0.2390
 8406TIP3    H125182   0.359   6.704   0.738 -0.2533 -0.5450  0.1356
 8406TIP3    H225183   0.273   6.689   0.615  2.0777 -0.7010 -1.5422
 8407TIP3   OH225184   1.654   3.999   3.738 -0.0320 -0.3459  0.2586
 8407TIP3    H125185   1.730   3.941   3.750 -0.1295 -0.8152 -1.1993
 8407TIP3    H225186   1.680   4.081   3.781  1.5204 -0.3277 -0.6442
 8408TIP3   OH225187   3.688   5.714   3.628  0.2308  0.3074  0.0259
 8408TIP3    H125188   3.711   5.623   3.646  0.5897  0.6249  1.2747
 8408TIP3    H225189   3.660   5.749   3.713 -0.4696  1.2009 -0.5519
 8409TIP3   OH225190   0.256   0.686   3.657 -0.1918  0.1977 -0.2700
 8409TIP3    H125191   0.163   0.705   3.641 -1.1226  1.2570  4.7848
 8409TIP3    H225192   0.301   0.769   3.637 -0.8822  0.7543  0.4168
 8410TIP3   OH225193   4.085   1.781   0.808 -0.0623 -0.3621 -0.1435
 8410TIP3    H125194   3.991   1.785   0.794 -0.4751 -4.1824  0.4239
 8410TIP3    H225195   4.123   1.803   0.723 -1.4338  1.0808 -0.4184
 8411TIP3   OH225196   5.413   4.045   0.269 -0.2069 -0.2726 -0.0599
 8411TIP3    H125197   5.494   4.048   0.217 -1.1984  0.0873 -1.6423
 8411TIP3    H225198   5.368   4.126   0.248 -0.5093  0.0517  1.6741
 8412TIP3   OH225199   1.541   2.794   3.757 -0.0074  0.0799  0.6689
 8412TIP3    H125200   1.465   2.779   3.701  0.5134  0.1036 -0.0590
 8412TIP3    H225201   1.517   2.871   3.809  0.5805  1.8510 -1.5362
 8413TIP3   OH225202   7.116   6.801   3.783  0.0939 -0.0361 -0.3718
 8413TIP3    H125203   7.202   6.762   3.770 -0.3346 -1.6544  1.2842
 8413TIP3    H225204   7.085   6.821   3.695  1.6582 -0.5162 -1.0622
 8414TIP3   OH225205   1.660   1.867   3.854 -0.3910 -0.2351  0.1639
 8414TIP3    H125206   1.672   1.790   3.908  0.1037  0.2229  0.7226
 8414TIP3    H225207   1.717   1.933   3.893 -0.8807  0.4433 -0.2424
 8415TIP3   OH225208   0.446   0.883   5.437 -0.4700 -0.4896  0.3148
 8415TIP3    H125209   0.513   0.949   5.421  0.2092 -1.4996 -1.2217
 8415TIP3    H225210   0.493   0.811   5.478 -0.8711 -0.7168  0.3795
 8416TIP3   OH225211   1.045   1.084   0.872  0.1221 -0.2946  0.3167
 8416TIP3    H125212   1.117   1.101   0.811 -1.8023  1.9771 -1.5164
 8416TIP3    H225213   1.087   1.079   0.958  2.6220 -0.7603 -0.8445
 8417TIP3   OH225214   5.749   0.318   2.620 -0.5913  0.3601 -0.1518
 8417TIP3    H125215   5.790   0.274   2.694 -0.5170 -0.9502 -0.9494
 8417TIP3    H225216   5.666   0.272   2.607 -0.8983  0.9851 -0.5011
 8418TIP3   OH225217   4.564   4.363   1.918 -1.1930 -0.3050 -0.3831
 8418TIP3    H125218   4.477   4.385   1.886 -0.2508 -0.1967 -3.2006
 8418TIP3    H225219   4.558   4.271   1.942 -1.9750 -0.4567 -1.1097
 8419TIP3   OH225220   1.409   2.959   3.905 -0.0620 -0.2784 -0.4664
 8419TIP3    H125221   1.423   3.028   3.970  0.5882 -0.8452  0.0017
 8419TIP3    H225222   1.339   2.905   3.941  0.8808 -1.0943  0.1966
 8420TIP3   OH225223   4.439   0.051   2.629  0.4728 -0.7245 -0.1977
 8420TIP3    H125224   4.402  -0.037   2.627  0.0541 -0.6155  1.3911
 8420TIP3    H225225   4.533   0.038   2.640  0.2750 -1.0009  1.4116
 8421TIP3   OH225226   4.735   0.415   5.137  0.5369  0.2896 -0.0154
 8421TIP3    H125227   4.768   0.427   5.226 -0.2421 -0.4629  0.3827
 8421TIP3    H225228   4.689   0.332   5.139  0.7025  0.1525 -1.1904
 8422TIP3   OH225229   5.047   4.994   3.472 -0.0821  0.0022  0.0838
 8422TIP3    H125230   5.126   4.942   3.463  0.2305  0.5371 -0.3450
 8422TIP3    H225231   5.009   4.995   3.384 -2.0755 -2.5387  0.7775
 8423TIP3   OH225232   2.277   3.893   2.885  0.9263 -0.0951 -0.2028
 8423TIP3    H125233   2.270   3.821   2.948  0.3687  0.0051 -0.1399
 8423TIP3    H225234   2.337   3.955   2.925 -1.3251  1.1835  1.4540
 8424TIP3   OH225235   1.302   5.737   1.061 -0.3645  0.0546 -0.2478
 8424TIP3    H125236   1.291   5.800   1.132 -0.6404 -0.6741  0.3711
 8424TIP3    H225237   1.346   5.663   1.102 -1.1422 -0.6593 -0.6654
 8425TIP3   OH225238   3.107   5.768   2.853 -0.0967 -0.0505  0.9433
 8425TIP3    H125239   3.100   5.861   2.833  3.0191 -0.2897 -1.9504
 8425TIP3    H225240   3.114   5.765   2.949  2.3413  2.9731  1.0073
 8426TIP3   OH225241   0.652   5.189   3.397  0.3583 -0.7042  0.0385
 8426TIP3    H125242   0.601   5.108   3.405  0.7771 -1.0116 -0.3329
 8426TIP3    H225243   0.711   5.188   3.472  0.7272 -1.0070 -0.2553
 8427TIP3   OH225244   3.788   4.195   2.067  0.0568  0.6994  0.1212
 8427TIP3    H125245   3.811   4.117   2.117 -0.2781  0.3284 -0.2965
 8427TIP3    H225246   3.835   4.185   1.984 -0.3550  0.7109 -0.1162
 8428TIP3   OH225247   2.326   3.846   0.210  0.6885  0.1416  0.2300
 8428TIP3    H125248   2.247   3.799   0.238 -0.5628  2.7927  1.5135
 8428TIP3    H225249   2.382   3.849   0.288  0.6690  0.8786  0.2261
 8429TIP3   OH225250   4.949   1.175   4.189 -0.1105  0.1729  0.0693
 8429TIP3    H125251   5.005   1.108   4.229 -0.7020 -1.9856 -2.3875
 8429TIP3    H225252   4.875   1.184   4.250  0.0306 -1.4058  0.5334
 8430TIP3   OH225253   1.114   0.338   4.158  0.2051  0.3141  0.5343
 8430TIP3    H125254   1.204   0.306   4.157 -0.0654 -0.4562  0.6539
 8430TIP3    H225255   1.071   0.287   4.226 -0.1887  1.0720  0.8716
 8431TIP3   OH225256   3.523   3.333   1.922  0.8705  0.7487 -0.9757
 8431TIP3    H125257   3.488   3.289   2.000 -0.2077  1.4332 -1.0490
 8431TIP3    H225258   3.465   3.408   1.909  1.1119  0.7174 -2.3596
 8432TIP3   OH225259   3.002   1.330   3.770  0.7553  0.1750  0.0918
 8432TIP3    H125260   3.032   1.398   3.829 -0.7346  0.4562  0.5546
 8432TIP3    H225261   3.079   1.309   3.716  1.9197  0.4355  1.6060
 8433TIP3   OH225262   6.408   5.762   4.317  0.0724 -0.5414 -0.1300
 8433TIP3    H125263   6.470   5.758   4.390  1.5765  0.3490 -1.2973
 8433TIP3    H225264   6.355   5.683   4.326 -0.7702  0.2401  2.7279
 8434TIP3   OH225265   1.349   1.912   4.095 -0.6469 -0.4904 -0.7093
 8434TIP3    H125266   1.270   1.867   4.124  0.8467 -1.4585  2.2372
 8434TIP3    H225267   1.414   1.842   4.083  1.0446  0.5188  1.6321
 8435TIP3   OH225268   0.354   0.628   1.199 -0.1363 -0.1983 -0.1067
 8435TIP3    H125269   0.296   0.704   1.203 -0.2752 -0.3220  0.3312
 8435TIP3    H225270   0.374   0.617   1.106 -1.8660 -0.9550 -0.4394
 8436TIP3   OH225271   7.158   0.490   1.642 -0.2518 -0.5292  0.1490
 8436TIP3    H125272   7.078   0.477   1.692  0.8370 -2.7645  1.4846
 8436TIP3    H225273   7.228   0.491   1.708  0.9342  0.2842 -1.0533
 8437TIP3   OH225274   0.149   1.671   5.031  0.0379  0.0350 -0.5388
 8437TIP3    H125275   0.097   1.689   5.109 -0.4476 -0.5880 -0.7091
 8437TIP3    H225276   0.174   1.579   5.040  1.7671  0.5118 -0.0903
 8438TIP3   OH225277   5.085   0.047   5.461  0.0776 -0.1114 -0.5654
 8438TIP3    H125278   5.028   0.048   5.385 -1.5089 -0.8781  0.5688
 8438TIP3    H225279   5.026   0.038   5.536  1.7430 -2.6664  0.5736
 8439TIP3   OH225280   4.963   1.971   4.270  0.6839  0.5562 -0.2804
 8439TIP3    H125281   5.028   2.041   4.266  0.4851  0.6934 -1.4015
 8439TIP3    H225282   4.879   2.017   4.262  0.4625  0.3378  0.6864
 8440TIP3   OH225283   5.396   5.554   2.589 -0.0411  0.2708  0.1898
 8440TIP3    H125284   5.453   5.598   2.652 -1.8966 -0.1976  2.3444
 8440TIP3    H225285   5.412   5.461   2.602  1.0724  0.1822 -1.5896
 8441TIP3   OH225286   1.875   6.777   1.053  0.0346 -0.9690  0.0373
 8441TIP3    H125287   1.965   6.761   1.083  0.1732 -1.9558 -0.8660
 8441TIP3    H225288   1.829   6.695   1.070 -0.4507 -0.7903 -0.3869
 8442TIP3   OH225289   4.351   0.721   2.306 -0.3914 -0.1973  0.0848
 8442TIP3    H125290   4.350   0.658   2.378  1.2895 -1.6218 -1.0756
 8442TIP3    H225291   4.351   0.668   2.227  0.0334  1.2907 -0.9583
 8443TIP3   OH225292   0.464   1.604   4.696  0.4960  0.0118 -0.3777
 8443TIP3    H125293   0.381   1.561   4.717  0.8937 -0.4525  0.2500
 8443TIP3    H225294   0.507   1.544   4.635  0.7829 -0.1919  0.0254
 8444TIP3   OH225295   5.228   0.288   2.613  0.8124 -0.1707  0.4894
 8444TIP3    H125296   5.184   0.363   2.573  0.1144  0.2096  1.9295
 8444TIP3    H225297   5.173   0.213   2.590  0.5357  0.0123  0.5606
 8445TIP3   OH225298   3.186   0.366   3.519  0.0711  1.0135 -0.4562
 8445TIP3    H125299   3.117   0.313   3.478  1.2900  0.3298 -1.7108
 8445TIP3    H225300   3.163   0.456   3.497 -0.7223  0.8397 -0.3709
 8446TIP3   OH225301   0.840   6.227   1.771 -0.2672  0.3010  0.4405
 8446TIP3    H125302   0.746   6.228   1.791 -0.7200  0.9815 -1.5102
 8446TIP3    H225303   0.878   6.287   1.836 -1.3527  0.8918  0.5614
 8447TIP3   OH225304   3.179   2.497   1.700 -0.0814  0.5821  0.2738
 8447TIP3    H125305   3.239   2.424   1.715  0.0177  0.5039 -0.4725
 8447TIP3    H225306   3.146   2.519   1.787 -0.6787 -0.8221  0.4320
 8448TIP3   OH225307   1.395   1.590   5.003  0.3539  0.2632  0.5043
 8448TIP3    H125308   1.463   1.534   4.966  0.6369  1.4828 -0.9204
 8448TIP3    H225309   1.379   1.554   5.091  0.7217 -1.8310 -0.2325
 8449TIP3   OH225310   5.760   4.849   0.175  0.0698 -0.2819  0.4714
 8449TIP3    H125311   5.758   4.817   0.085  1.6072 -0.6302  0.5245
 8449TIP3    H225312   5.686   4.910   0.181 -0.2659 -0.5247 -0.9129
 8450TIP3   OH225313   2.674   3.837   4.219  0.4231  0.5651  0.4954
 8450TIP3    H125314   2.688   3.743   4.230  0.4017  0.6754  1.6078
 8450TIP3    H225315   2.675   3.872   4.309  1.8584  1.8271  0.0366
 8451TIP3   OH225316   6.404   6.329   5.030  0.0620  0.1608 -0.2770
 8451TIP3    H125317   6.338   6.327   5.100 -0.3024  2.3432 -0.5016
 8451TIP3    H225318   6.487   6.329   5.077 -0.0753 -1.2856  0.0368
 8452TIP3   OH225319   5.459   6.145   0.164 -0.4474  0.2946 -0.5480
 8452TIP3    H125320   5.511   6.184   0.093  0.8528 -1.3631 -0.5725
 8452TIP3    H225321   5.373   6.185   0.156  0.1123  1.2643 -2.1147
 8453TIP3   OH225322   2.374   0.747   3.137 -0.1041 -0.0179 -0.3993
 8453TIP3    H125323   2.308   0.698   3.186  1.0015  0.1965  1.4102
 8453TIP3    H225324   2.453   0.693   3.143  0.9194  1.5030  0.9325
 8454TIP3   OH225325   1.579   6.307   0.412  0.2621 -0.4109 -0.2135
 8454TIP3    H125326   1.658   6.356   0.389  1.2776 -1.2181  1.3647
 8454TIP3    H225327   1.509   6.350   0.363  1.5185  0.9610 -0.8835
 8455TIP3   OH225328   4.559   1.244   4.454  0.2104  0.2322  0.3113
 8455TIP3    H125329   4.466   1.240   4.436  0.2498  1.1639 -0.1669
 8455TIP3    H225330   4.601   1.229   4.369  0.4845  0.3197  0.4282
 8456TIP3   OH225331   6.808   3.752   3.330 -0.2669 -0.1993  0.0527
 8456TIP3    H125332   6.789   3.811   3.257  1.4045  0.5213  0.1606
 8456TIP3    H225333   6.732   3.760   3.388 -1.1059  0.0712 -1.0510
 8457TIP3   OH225334   0.676   1.023   1.049  0.8820 -0.4885 -0.5062
 8457TIP3    H125335   0.702   0.931   1.050  0.6831 -0.5392  0.7370
 8457TIP3    H225336   0.622   1.031   0.970  2.6970 -0.9057 -1.8651
 8458TIP3   OH225337   5.686   4.705   0.530  0.4686 -0.1635  0.4733
 8458TIP3    H125338   5.709   4.679   0.619  0.2161 -1.5296  0.1682
 8458TIP3    H225339   5.768   4.741   0.494  0.4523  0.8142  1.3805
 8459TIP3   OH225340   3.532   4.817   2.575  0.5408 -0.1720 -0.4520
 8459TIP3    H125341   3.589   4.768   2.634  2.2643  2.1458 -0.0479
 8459TIP3    H225342   3.463   4.851   2.631  1.4331  0.9201  0.0102
 8460TIP3   OH225343   1.293   0.791   2.117  0.5444  0.5096 -0.0488
 8460TIP3    H125344   1.225   0.733   2.081  0.5475  0.4605  0.0246
 8460TIP3    H225345   1.364   0.732   2.141  1.5143  0.7368 -2.1043
 8461TIP3   OH225346   5.803   1.579   0.148 -0.5985 -0.4637 -0.0337
 8461TIP3    H125347   5.874   1.523   0.118 -1.3589 -0.5011 -1.9169
 8461TIP3    H225348   5.726   1.546   0.102 -1.4505  0.8157  0.4231
 8462TIP3   OH225349   4.331   4.671   1.396 -0.3529  0.3585 -0.1649
 8462TIP3    H125350   4.256   4.694   1.341 -0.8091 -1.0710 -0.1815
 8462TIP3    H225351   4.297   4.674   1.485 -0.1445  0.7520 -0.0995
 8463TIP3   OH225352   6.499   5.554   0.818 -0.1216 -0.4177 -0.2077
 8463TIP3    H125353   6.416   5.600   0.819  0.6655  1.0628  0.1655
 8463TIP3    H225354   6.501   5.505   0.900 -0.8142 -0.8430 -0.4402
 8464TIP3   OH225355   0.963   3.785   4.864 -0.3713  0.2119 -0.3652
 8464TIP3    H125356   1.036   3.774   4.803 -0.7541  0.1385 -0.8139
 8464TIP3    H225357   0.938   3.696   4.889 -0.4003  0.2323 -0.3204
 8465TIP3   OH225358   3.444   0.531   4.137  0.0027  0.6117  0.1873
 8465TIP3    H125359   3.477   0.619   4.156  0.2534  0.5222  0.1748
 8465TIP3    H225360   3.523   0.477   4.128 -0.1463  0.4077  0.0870
 8466TIP3   OH225361   3.178   5.168   4.628  0.4090 -0.1795 -0.2109
 8466TIP3    H125362   3.217   5.081   4.626 -0.3167 -0.5324  0.4479
 8466TIP3    H225363   3.089   5.154   4.659 -0.0846  0.6710 -1.1789
 8467TIP3   OH225364   1.094   1.983   3.371 -0.0371  0.2338  0.0487
 8467TIP3    H125365   1.183   1.952   3.384  0.9278  3.0128  0.6095
 8467TIP3    H225366   1.064   2.010   3.458 -1.7739 -1.3505  0.0189
 8468TIP3   OH225367   0.586   2.513   1.853 -0.2449 -0.4759  0.6997
 8468TIP3    H125368   0.495   2.540   1.843 -0.5761 -1.9090 -0.6338
 8468TIP3    H225369   0.581   2.419   1.870  0.9911 -0.7057 -0.0713
 8469TIP3   OH225370   1.985   1.015   1.874 -0.3387  0.5849 -0.0475
 8469TIP3    H125371   1.987   0.999   1.779  1.7993  0.2332  0.0107
 8469TIP3    H225372   2.072   0.989   1.904 -1.2925 -0.2017  2.1823
 8470TIP3   OH225373   0.681   5.784   0.725  0.2301  0.1689 -0.1411
 8470TIP3    H125374   0.595   5.815   0.700  0.3548  0.2712 -0.4467
 8470TIP3    H225375   0.739   5.858   0.711  0.2948  0.2522  0.5234
 8471TIP3   OH225376   0.747   5.032   1.750 -0.1008  0.1061 -1.0741
 8471TIP3    H125377   0.831   5.011   1.792 -1.6446 -0.6770  1.9176
 8471TIP3    H225378   0.763   5.115   1.705  2.2815 -0.0680 -0.6970
 8472TIP3   OH225379   4.646   6.559   5.645  0.1763  0.1413 -0.5016
 8472TIP3    H125380   4.710   6.499   5.685  0.6801  0.6783 -0.4963
 8472TIP3    H225381   4.664   6.644   5.684 -0.3228  0.3715 -0.7575
 8473TIP3   OH225382   5.749   5.961   3.479  0.5515  0.3402 -0.2029
 8473TIP3    H125383   5.726   5.878   3.519  0.9079  0.0830 -0.5320
 8473TIP3    H225384   5.781   5.939   3.391  0.1541  0.8636 -0.4868
 8474TIP3   OH225385   2.838   3.390   0.982 -0.5224 -0.1822 -0.2238
 8474TIP3    H125386   2.754   3.377   1.026 -0.6537  1.0607 -0.0863
 8474TIP3    H225387   2.829   3.473   0.936  0.4077 -0.3581 -0.7645
 8475TIP3   OH225388   3.979   6.687   2.286  0.6560 -0.0399 -0.2503
 8475TIP3    H125389   3.993   6.749   2.214 -0.2632  1.2946  0.6953
 8475TIP3    H225390   3.890   6.654   2.272 -0.6532  2.3544  1.7844
 8476TIP3   OH225391   0.145   3.996   2.634 -0.0708 -0.5720 -0.6041
 8476TIP3    H125392   0.187   3.988   2.548 -0.7999  0.2345 -1.0481
 8476TIP3    H225393   0.151   4.089   2.656 -0.0998 -0.7312  0.1146
 8477TIP3   OH225394   6.904   1.674   2.290  0.3197 -0.3316 -0.2856
 8477TIP3    H125395   6.828   1.617   2.279  0.3425 -0.3907 -0.1464
 8477TIP3    H225396   6.870   1.762   2.274  0.4054 -0.4331 -1.0312
 8478TIP3   OH225397   0.900   5.962   1.909  0.4274 -0.4926 -0.8912
 8478TIP3    H125398   0.966   6.031   1.906  0.9347 -1.0055 -2.5348
 8478TIP3    H225399   0.824   6.004   1.949  1.4041  0.3899  0.1245
 8479TIP3   OH225400   4.007   5.561   0.957  0.1768  0.5427  0.4855
 8479TIP3    H125401   4.066   5.530   0.888  1.6356  4.3581 -0.2503
 8479TIP3    H225402   4.057   5.551   1.038 -0.4583 -1.3756  0.6879
 8480TIP3   OH225403   4.324   5.624   1.468  0.6448  0.4062  0.2415
 8480TIP3    H125404   4.339   5.589   1.380  1.4251 -0.3435  0.6641
 8480TIP3    H225405   4.229   5.629   1.476  0.5277  2.7953 -1.5401
 8481TIP3   OH225406   3.690   2.897   3.687 -0.1966  0.5200  0.3549
 8481TIP3    H125407   3.689   2.958   3.761 -0.2840 -0.3706  1.0973
 8481TIP3    H225408   3.686   2.810   3.727 -1.0818  0.0419 -0.7235
 8482TIP3   OH225409   6.289   2.308   1.043 -0.2417 -0.2861  0.1291
 8482TIP3    H125410   6.296   2.219   1.079  0.8989  0.5120  2.0320
 8482TIP3    H225411   6.377   2.326   1.009  0.3512  1.0281  2.1778
 8483TIP3   OH225412   6.610   3.742   3.876  0.0946  0.3251 -0.0346
 8483TIP3    H125413   6.576   3.830   3.896  0.7581  0.5124  0.2936
 8483TIP3    H225414   6.644   3.710   3.959 -0.5358 -0.4221 -0.0655
 8484TIP3   OH225415   0.139   2.386   4.249  0.6230 -0.4068  0.1167
 8484TIP3    H125416   0.219   2.389   4.196  0.5147  0.9723  0.0051
 8484TIP3    H225417   0.096   2.305   4.223  0.0989  0.6522 -2.6005
 8485TIP3   OH225418   2.411   4.464   0.923  0.1396 -0.2267 -0.4826
 8485TIP3    H125419   2.358   4.407   0.868  1.8068 -2.3537 -0.0179
 8485TIP3    H225420   2.496   4.468   0.879  0.5441  0.6308  0.3314
 8486TIP3   OH225421   6.384   5.237   2.522 -0.0399  0.7543  0.3906
 8486TIP3    H125422   6.390   5.163   2.583 -1.8718 -0.7121 -1.0816
 8486TIP3    H225423   6.299   5.277   2.541  1.5959  3.6700  2.3088
 8487TIP3   OH225424   6.200   3.032   5.813  0.0409  1.3591 -0.1629
 8487TIP3    H125425   6.173   2.999   5.728 -3.2375  0.4841  1.0666
 8487TIP3    H225426   6.190   3.127   5.807 -2.3491  1.1660 -0.1923
 8488TIP3   OH225427   6.861   5.101   1.305  0.1073 -0.3648 -0.3761
 8488TIP3    H125428   6.939   5.055   1.337  0.4738  0.6314  0.2078
 8488TIP3    H225429   6.895   5.183   1.269 -0.6452 -0.0501 -0.3805
 8489TIP3   OH225430   6.797   6.745   2.209 -0.0665  0.0227 -0.1745
 8489TIP3    H125431   6.724   6.803   2.232 -0.0514  0.7328 -1.7609
 8489TIP3    H225432   6.875   6.796   2.228  0.1001 -1.0069  2.2232
 8490TIP3   OH225433   1.874   0.741   0.722 -0.8706  0.1824 -0.2989
 8490TIP3    H125434   1.809   0.675   0.699 -1.3005  0.1804  0.8747
 8490TIP3    H225435   1.942   0.693   0.769 -0.1416  0.2364 -1.2591
 8491TIP3   OH225436   6.321   1.361   5.815  0.4183  0.1190  0.6811
 8491TIP3    H125437   6.320   1.323   5.903  1.4267 -4.1317 -0.8609
 8491TIP3    H225438   6.272   1.442   5.823  0.0571 -0.2741  5.0174
 8492TIP3   OH225439   6.716   0.563   3.225 -0.1584  0.1193  0.3591
 8492TIP3    H125440   6.640   0.599   3.180 -0.3354 -1.0345 -0.2850
 8492TIP3    H225441   6.790   0.583   3.166 -0.0494  0.6727  0.6791
 8493TIP3   OH225442   4.830   5.127   5.652  0.4194 -0.0249 -0.1969
 8493TIP3    H125443   4.785   5.087   5.727 -0.3066  0.6664 -0.2488
 8493TIP3    H225444   4.849   5.216   5.680  0.8470  0.0032 -0.5608
 8494TIP3   OH225445   1.926   5.785   3.576 -0.4556  0.0969  0.3914
 8494TIP3    H125446   1.930   5.707   3.521  2.0769  0.3338  0.1317
 8494TIP3    H225447   1.922   5.858   3.513  2.5562  0.3750  0.3442
 8495TIP3   OH225448   7.002   2.433   4.008  0.1255  0.6176 -0.6884
 8495TIP3    H125449   7.022   2.386   3.927  1.0746 -0.4710  0.1520
 8495TIP3    H225450   7.084   2.476   4.032  0.8796 -1.7753  1.4232
 8496TIP3   OH225451   5.519   3.762   3.461 -0.2114 -0.7325  0.3313
 8496TIP3    H125452   5.453   3.814   3.508  1.0130 -0.1200  1.4482
 8496TIP3    H225453   5.539   3.690   3.520  1.6462  0.2731  1.0123
 8497TIP3   OH225454   2.977   3.877   1.535  0.1365 -0.1073 -0.1145
 8497TIP3    H125455   2.886   3.888   1.562 -0.0099 -0.3978 -0.4842
 8497TIP3    H225456   2.975   3.890   1.440  0.4018 -0.6095 -0.1888
 8498TIP3   OH225457   6.823   0.165   2.449  0.1145 -0.1402 -0.0391
 8498TIP3    H125458   6.753   0.210   2.402 -1.0965 -1.7561  0.1540
 8498TIP3    H225459   6.874   0.236   2.490 -2.1699  1.0483  0.9170
 8499TIP3   OH225460   0.045   4.520   5.436 -0.0202 -0.0701 -0.1991
 8499TIP3    H125461   0.090   4.435   5.429 -0.0169 -0.1075  0.2279
 8499TIP3    H225462  -0.021   4.518   5.366 -1.4897 -1.3396  1.1126
 8500TIP3   OH225463   3.185   6.089   0.040 -0.5294 -0.5826  0.1009
 8500TIP3    H125464   3.150   6.063  -0.045  0.3790 -1.7421  0.0550
 8500TIP3    H225465   3.127   6.160   0.070 -0.9710 -0.2929 -1.3798
 8501TIP3   OH225466   0.252   5.012   0.828  0.0789  0.2275 -0.1717
 8501TIP3    H125467   0.342   5.015   0.794  0.8777 -1.1599  1.6856
 8501TIP3    H225468   0.232   4.919   0.836 -0.9818  0.5194  0.7853
 8502TIP3   OH225469   0.247   2.449   5.309  0.0066  0.1765  0.2478
 8502TIP3    H125470   0.279   2.360   5.301 -0.0412  0.2052 -0.2963
 8502TIP3    H225471   0.158   2.446   5.272  0.9044  0.9700 -2.2152
 8503TIP3   OH225472   5.739   1.294   2.088 -0.2504 -0.1078  0.1553
 8503TIP3    H125473   5.643   1.304   2.089 -0.1683  0.7952  1.5245
 8503TIP3    H225474   5.771   1.371   2.135  1.1997 -0.0465 -0.8931
 8504TIP3   OH225475   6.871   4.450   2.718 -0.2599 -0.0055  0.8656
 8504TIP3    H125476   6.929   4.441   2.643 -0.1315  0.4297  0.9111
 8504TIP3    H225477   6.844   4.361   2.738  0.0833 -0.1702  0.6016
 8505TIP3   OH225478   7.119   5.207   4.768  0.6442 -0.6668  0.7607
 8505TIP3    H125479   7.076   5.215   4.683  2.2555  0.2548 -0.0238
 8505TIP3    H225480   7.060   5.250   4.829  0.3171  0.3327 -0.2319
 8506TIP3   OH225481   0.766   2.951   2.961  0.4367 -0.3434  0.2056
 8506TIP3    H125482   0.793   2.896   3.035  0.2052  1.6246  1.8321
 8506TIP3    H225483   0.848   2.970   2.915  0.6274 -1.3240  0.1170
 8507TIP3   OH225484   6.526   0.281   2.878  0.2475  0.0053  0.3899
 8507TIP3    H125485   6.549   0.201   2.830  0.5370  0.9058 -1.0299
 8507TIP3    H225486   6.605   0.334   2.875  0.1071  0.2960  1.4621
 8508TIP3   OH225487   4.277   0.169   2.178 -0.0144  0.0433 -0.0851
 8508TIP3    H125488   4.202   0.164   2.237 -0.6402 -0.7546 -0.9297
 8508TIP3    H225489   4.339   0.225   2.225 -1.6608  1.8920  0.0500
 8509TIP3   OH225490   3.271   3.602   5.727  0.3061 -0.0698  0.4425
 8509TIP3    H125491   3.177   3.590   5.735  0.1115  0.5763 -0.7015
 8509TIP3    H225492   3.288   3.601   5.633  1.6877 -1.9512  0.6330
 8510TIP3   OH225493   0.757   1.009   3.203 -0.0387  0.2215 -0.2755
 8510TIP3    H125494   0.729   1.016   3.295 -1.7928 -0.0946 -0.7572
 8510TIP3    H225495   0.833   1.067   3.197 -0.0376  0.4387  1.3126
 8511TIP3   OH225496   2.611   1.372   4.266 -0.2697  0.4054  1.1173
 8511TIP3    H125497   2.549   1.412   4.205 -1.9699 -0.7449  2.0068
 8511TIP3    H225498   2.618   1.434   4.338  1.7746  1.7865 -0.1933
 8512TIP3   OH225499   2.269   1.960   2.563 -0.3614  0.9852  0.5517
 8512TIP3    H125500   2.260   2.004   2.647 -0.7401  0.0041  1.0374
 8512TIP3    H225501   2.181   1.960   2.526 -0.8395 -1.2229  1.5319
 8513TIP3   OH225502   5.541   3.992   3.231 -0.4624 -0.0738  0.0442
 8513TIP3    H125503   5.551   3.919   3.291  1.2385 -0.0625 -0.1617
 8513TIP3    H225504   5.464   3.971   3.179 -0.4768 -1.3138  0.5404
 8514TIP3   OH225505  -0.011   0.509   4.405  0.0408 -0.0002 -0.2763
 8514TIP3    H125506   0.074   0.552   4.402  0.8965 -1.5138  1.1911
 8514TIP3    H225507  -0.039   0.517   4.497 -1.1429 -0.0373 -0.6098
 8515TIP3   OH225508   6.967   4.070   2.201 -0.3822 -0.4682 -0.4933
 8515TIP3    H125509   6.992   3.996   2.146 -0.1250  0.3049 -1.4212
 8515TIP3    H225510   6.899   4.034   2.259  0.7262 -1.7925  0.0418
 8516TIP3   OH225511   6.363   0.987   3.125  0.1952  0.7358 -0.3546
 8516TIP3    H125512   6.296   1.047   3.158  2.1082  1.6724  2.1433
 8516TIP3    H225513   6.386   1.021   3.039 -1.4146  1.2560 -0.6231
 8517TIP3   OH225514   5.036   2.126   0.048  0.2719 -0.3207 -0.1165
 8517TIP3    H125515   4.991   2.135   0.132  2.3791 -0.9480  1.1755
 8517TIP3    H225516   5.079   2.210   0.034 -0.7539  0.0812 -1.0564
 8518TIP3   OH225517   2.681   3.595   5.628 -0.4005  0.1644  0.2947
 8518TIP3    H125518   2.619   3.667   5.641 -0.0473  0.1332  2.5700
 8518TIP3    H225519   2.720   3.582   5.714  1.4697 -1.0207 -0.6808
 8519TIP3   OH225520   2.242   1.345   4.549  0.0719 -0.3309  0.3444
 8519TIP3    H125521   2.222   1.381   4.463 -0.6711  0.6598  0.9100
 8519TIP3    H225522   2.299   1.270   4.531 -0.6588 -0.5878 -1.0527
 8520TIP3   OH225523   3.728   1.990   5.222 -0.6604  0.0803 -0.4879
 8520TIP3    H125524   3.777   2.037   5.156  0.3914  0.5291  0.5778
 8520TIP3    H225525   3.747   2.036   5.304 -1.6438 -0.6602  0.1884
 8521TIP3   OH225526   1.345   1.749   4.335 -0.4852 -0.1916 -0.3541
 8521TIP3    H125527   1.306   1.743   4.422 -0.8062 -0.9700 -0.5405
 8521TIP3    H225528   1.334   1.662   4.298 -0.1367  0.0669 -1.0869
 8522TIP3   OH225529   1.875   6.488   1.819 -0.0224 -0.6943  0.6261
 8522TIP3    H125530   1.836   6.404   1.795  1.6163 -1.6456  1.1675
 8522TIP3    H225531   1.908   6.524   1.737 -0.3138 -0.7870  0.4657
 8523TIP3   OH225532   3.089   6.189   1.050  0.1941  0.0332  0.4243
 8523TIP3    H125533   3.134   6.226   0.974  0.8751 -1.4191  0.0757
 8523TIP3    H225534   3.000   6.172   1.018 -0.4815  2.3033  0.9229
 8524TIP3   OH225535   4.653   5.009   2.332  0.4477 -0.9912  0.1419
 8524TIP3    H125536   4.719   5.071   2.363  0.3554 -1.2239  0.8427
 8524TIP3    H225537   4.652   5.019   2.237 -0.6112  1.1492  0.3096
 8525TIP3   OH225538   5.856   2.403   2.253 -0.8095 -0.2663 -0.6039
 8525TIP3    H125539   5.829   2.489   2.221 -2.0778 -0.8137 -1.0442
 8525TIP3    H225540   5.795   2.384   2.324  0.7590  0.0798  0.9163
 8526TIP3   OH225541   5.754   5.363   4.285  0.4370  0.1632  0.5509
 8526TIP3    H125542   5.754   5.326   4.196 -0.7956 -0.3866  0.7543
 8526TIP3    H225543   5.751   5.287   4.342 -3.2714  0.4594  0.9635
 8527TIP3   OH225544   1.265   0.617   0.924  0.0230  0.0416 -0.2586
 8527TIP3    H125545   1.263   0.614   1.020  0.0841 -0.4402 -0.2663
 8527TIP3    H225546   1.207   0.689   0.901 -1.1026 -0.7014  0.1132
 8528TIP3   OH225547   2.143   0.511   2.473 -0.0266  0.0019  0.1720
 8528TIP3    H125548   2.232   0.501   2.439  0.1703  0.5777  0.4891
 8528TIP3    H225549   2.151   0.582   2.538 -0.9794  1.0279 -0.7939
 8529TIP3   OH225550   1.345   4.179   4.952 -0.4212  0.5693 -0.2677
 8529TIP3    H125551   1.250   4.175   4.962 -0.2548  0.3901  1.4825
 8529TIP3    H225552   1.360   4.171   4.857 -2.1216  0.3919 -0.5399
 8530TIP3   OH225553   2.262   5.617   4.553 -0.3550  0.3589  0.1406
 8530TIP3    H125554   2.206   5.601   4.629 -1.9225  1.4541 -0.7209
 8530TIP3    H225555   2.201   5.637   4.482  1.0936  0.0575 -1.2390
 8531TIP3   OH225556   1.103   0.150   4.862  0.1095 -0.1966  0.2767
 8531TIP3    H125557   1.105   0.152   4.958  0.3564 -1.2675  0.3048
 8531TIP3    H225558   1.031   0.091   4.841 -0.3993  0.5771 -0.2255
 8532TIP3   OH225559   4.236   5.644   4.815 -0.7790 -0.4415 -0.3716
 8532TIP3    H125560   4.325   5.647   4.780 -0.6530  1.5418 -0.0413
 8532TIP3    H225561   4.179   5.646   4.738 -0.4971  1.7215 -0.5964
 8533TIP3   OH225562   1.038   2.988   2.888 -0.3769 -0.5512 -0.4247
 8533TIP3    H125563   1.069   2.898   2.896  0.7562 -0.1735 -0.4375
 8533TIP3    H225564   1.021   2.998   2.794  2.6138  0.1957 -0.9943
 8534TIP3   OH225565   2.836   0.017   0.057  0.2986  0.3214 -0.3792
 8534TIP3    H125566   2.816  -0.047   0.125  2.6159  0.7723  0.8024
 8534TIP3    H225567   2.928   0.039   0.070  0.6360  1.0121 -3.1990
 8535TIP3   OH225568   6.478   4.305   5.570  0.1862 -0.3163  0.5779
 8535TIP3    H125569   6.522   4.375   5.522 -2.8675 -0.8205 -3.4777
 8535TIP3    H225570   6.539   4.231   5.564  0.8567  0.2935 -0.6271
 8536TIP3   OH225571   2.490   6.231   0.369  0.1356  0.2164  0.2301
 8536TIP3    H125572   2.522   6.281   0.444  1.0988  0.0336 -0.0564
 8536TIP3    H225573   2.510   6.140   0.390  1.5631  0.2751 -0.8020
 8537TIP3   OH225574   4.092   3.764   0.547  0.1203  0.0530 -0.5673
 8537TIP3    H125575   4.101   3.742   0.455 -0.9186  1.5914 -1.0758
 8537TIP3    H225576   4.091   3.859   0.549  1.3132  0.0699  1.1735
 8538TIP3   OH225577   0.203   3.503   3.637 -0.1129  0.3531  0.0587
 8538TIP3    H125578   0.165   3.568   3.578 -1.0306  0.6667  0.9700
 8538TIP3    H225579   0.198   3.543   3.724 -0.6363 -0.8889  0.6297
 8539TIP3   OH225580   6.201   4.208   5.321 -0.8054 -0.1095 -0.1978
 8539TIP3    H125581   6.152   4.248   5.393  1.2089 -0.8112  1.6955
 8539TIP3    H225582   6.165   4.119   5.315  0.4207 -0.7747  1.4887
 8540TIP3   OH225583   6.705   3.010   4.591 -0.0204  0.3454 -0.1646
 8540TIP3    H125584   6.751   2.941   4.639  0.3709  0.7706  0.0782
 8540TIP3    H225585   6.620   2.971   4.570 -0.1242  0.0726  0.6979
 8541TIP3   OH225586   0.631   1.445   0.531 -0.2795 -0.5247 -0.2074
 8541TIP3    H125587   0.579   1.428   0.610  0.5812 -2.6196 -0.0284
 8541TIP3    H225588   0.567   1.449   0.460 -0.7925 -2.8397  0.0421
 8542TIP3   OH225589   6.553  -0.008   4.113 -0.2538 -0.1605 -0.3589
 8542TIP3    H125590   6.605   0.064   4.149  0.4281 -0.6724 -0.2886
 8542TIP3    H225591   6.607  -0.043   4.042  0.2279 -1.6633  0.6877
 8543TIP3   OH225592   1.800   2.092   2.980 -0.2086  0.5861  0.2587
 8543TIP3    H125593   1.818   2.084   3.074 -1.7862 -0.6899  0.4893
 8543TIP3    H225594   1.765   2.181   2.970 -3.1384 -0.2981  1.5077
 8544TIP3   OH225595   2.511   0.785   1.735 -0.2029 -0.5409 -0.0839
 8544TIP3    H125596   2.488   0.757   1.646 -0.2004  0.3897 -0.3916
 8544TIP3    H225597   2.480   0.876   1.740 -0.1840 -0.5770  0.8621
 8545TIP3   OH225598   3.900   1.320   5.394 -0.6839 -0.2200  0.1177
 8545TIP3    H125599   3.985   1.294   5.359 -0.5333  0.9454 -0.4423
 8545TIP3    H225600   3.848   1.240   5.395  0.0018 -0.6932 -0.7891
 8546TIP3   OH225601   1.457   3.507   3.696  0.0551 -0.3156  0.0134
 8546TIP3    H125602   1.466   3.426   3.746 -0.4362 -0.3443  0.0659
 8546TIP3    H225603   1.506   3.492   3.616 -0.1606 -0.7269 -0.0469
 8547TIP3   OH225604   7.040   4.290   0.096  0.2475  0.3987 -0.2014
 8547TIP3    H125605   6.954   4.256   0.070  0.0841 -0.0556  0.8872
 8547TIP3    H225606   7.028   4.385   0.100  0.5313  0.6074 -2.6332
 8548TIP3   OH225607   4.523   1.879   5.759 -0.3157 -0.1242 -0.6021
 8548TIP3    H125608   4.599   1.866   5.815 -0.9043 -1.0229  0.0102
 8548TIP3    H225609   4.464   1.934   5.811 -1.2070 -1.6163  0.0268
 8549TIP3   OH225610   1.427   2.640   5.007 -0.1408 -0.2395 -0.5100
 8549TIP3    H125611   1.401   2.606   5.093  0.0068  1.0906  0.0840
 8549TIP3    H225612   1.496   2.581   4.978  0.7012  0.0254  0.8767
 8550TIP3   OH225613   1.465   2.137   3.998  0.0880 -0.0321  0.0685
 8550TIP3    H125614   1.428   2.063   4.046  0.1215  0.4150  0.7869
 8550TIP3    H225615   1.536   2.098   3.946  0.3030 -0.4499  0.6700
 8551TIP3   OH225616   4.087   4.827   3.575  0.4023  0.0394  0.0774
 8551TIP3    H125617   4.077   4.736   3.546  1.4450  0.2710 -1.0930
 8551TIP3    H225618   4.002   4.849   3.613 -0.2774 -1.0257 -0.7591
 8552TIP3   OH225619   5.746   2.565   5.299  0.0410 -0.1277  0.0823
 8552TIP3    H125620   5.780   2.604   5.218 -1.0109  0.8459  0.0890
 8552TIP3    H225621   5.762   2.471   5.288  0.1723  0.0161 -1.1371
 8553TIP3   OH225622   0.409   2.014   1.960  0.1416  0.6430  0.5227
 8553TIP3    H125623   0.404   1.919   1.958 -0.3764  0.6432  1.2477
 8553TIP3    H225624   0.406   2.041   1.868  0.8097 -0.0580  0.2957
 8554TIP3   OH225625   4.728   0.233   3.494  0.0462 -0.2833  0.0800
 8554TIP3    H125626   4.809   0.228   3.546 -0.4030 -2.2922  0.6659
 8554TIP3    H225627   4.661   0.260   3.558 -0.6831 -3.6148  0.9095
 8555TIP3   OH225628   4.931   3.678   5.833  0.1244 -0.2194  0.4555
 8555TIP3    H125629   4.927   3.742   5.903  0.1862 -0.9650  1.1576
 8555TIP3    H225630   4.997   3.712   5.772  0.7898 -0.0442  1.2624
 8556TIP3   OH225631   4.118   1.428   4.910 -0.2591  0.6893  0.7135
 8556TIP3    H125632   4.130   1.373   4.833  2.2035  0.1296  1.4069
 8556TIP3    H225633   4.123   1.517   4.877 -0.6820  0.4766  0.0528
 8557TIP3   OH225634   6.141   2.385   2.278 -0.1438 -0.1024  0.1853
 8557TIP3    H125635   6.145   2.480   2.267 -0.1937 -0.3060 -2.2356
 8557TIP3    H225636   6.048   2.364   2.272 -0.0350 -0.3934 -0.6133
 8558TIP3   OH225637   1.843   4.173   2.565  0.5735 -0.2384  0.1281
 8558TIP3    H125638   1.855   4.103   2.629 -0.3206  0.1918  0.7864
 8558TIP3    H225639   1.932   4.203   2.545  1.1883 -3.0812 -1.9725
 8559TIP3   OH225640   1.735   0.860   3.868  0.6573 -0.3221  0.4592
 8559TIP3    H125641   1.786   0.781   3.850  0.0795 -0.4115 -0.8877
 8559TIP3    H225642   1.691   0.841   3.951 -1.8523 -2.7051 -1.2730
 8560TIP3   OH225643   6.727   2.412   4.848 -0.0982 -0.2382  0.8540
 8560TIP3    H125644   6.818   2.420   4.819  0.0492 -1.4088  0.9521
 8560TIP3    H225645   6.684   2.362   4.778 -1.3728  2.5933 -0.5794
 8561TIP3   OH225646   1.159   5.328   2.544  0.8866 -0.0147 -0.0946
 8561TIP3    H125647   1.205   5.321   2.627  0.4185  0.2529  0.1963
 8561TIP3    H225648   1.143   5.422   2.534 -1.6406 -0.2432  0.9763
 8562TIP3   OH225649   3.360   4.029   1.451 -0.3725  0.2273  0.5787
 8562TIP3    H125650   3.366   3.991   1.539 -0.8754  0.1523  0.5813
 8562TIP3    H225651   3.268   4.019   1.426 -0.0947 -0.3806 -0.2430
 8563TIP3   OH225652   2.500   1.194   0.325  0.3977  0.1215 -0.1847
 8563TIP3    H125653   2.555   1.159   0.255  0.5227  0.2254 -0.1420
 8563TIP3    H225654   2.521   1.140   0.401 -1.0945 -1.1893 -0.6519
 8564TIP3   OH225655   5.003   1.622   0.747 -0.0270 -0.5917  0.5087
 8564TIP3    H125656   4.930   1.599   0.805 -1.6881 -0.6136 -1.4902
 8564TIP3    H225657   5.063   1.671   0.803 -2.7055  1.5491  1.7595
 8565TIP3   OH225658   5.289   1.966   1.928  0.2502  0.4570 -0.2573
 8565TIP3    H125659   5.297   1.872   1.916  1.7021  0.3521  1.2025
 8565TIP3    H225660   5.360   2.003   1.876  0.3876  0.6580  0.0696
 8566TIP3   OH225661   6.028   4.984   1.779 -0.3156  0.0621  0.7360
 8566TIP3    H125662   6.088   4.989   1.704 -0.6434  0.5635  0.5032
 8566TIP3    H225663   6.029   5.072   1.816 -3.4077  1.0692 -1.2290
 8567TIP3   OH225664   1.188   6.563   2.507 -0.4076 -0.2924 -0.5802
 8567TIP3    H125665   1.249   6.632   2.481 -0.1507  0.1742  1.1219
 8567TIP3    H225666   1.243   6.485   2.516 -0.1475 -0.0346  0.2543
 8568TIP3   OH225667   4.933   3.870   1.471 -0.6805 -0.0072 -0.4842
 8568TIP3    H125668   4.949   3.935   1.539 -2.1127 -0.0464 -0.0908
 8568TIP3    H225669   4.918   3.788   1.519  1.3380 -0.7379 -0.9748
 8569TIP3   OH225670   5.137   6.443   2.099 -0.0264  0.0589  0.2884
 8569TIP3    H125671   5.112   6.351   2.097 -1.0946  0.3217  1.0152
 8569TIP3    H225672   5.138   6.470   2.007  2.1090 -1.1265 -0.0930
 8570TIP3   OH225673   1.729   4.267   3.856  0.2878  0.8595  0.0330
 8570TIP3    H125674   1.801   4.217   3.895  0.1776  1.2898  0.8209
 8570TIP3    H225675   1.770   4.347   3.824  0.1613  1.1179  0.5086
 8571TIP3   OH225676   3.860   2.459   0.789  0.4492  0.5587  0.4127
 8571TIP3    H125677   3.788   2.403   0.760  1.3776 -0.4498 -0.0312
 8571TIP3    H225678   3.831   2.492   0.874  1.1234 -3.2338  2.3534
 8572TIP3   OH225679   2.572   3.361   1.058 -0.1633  0.1695 -0.6244
 8572TIP3    H125680   2.523   3.307   0.996 -0.6751 -0.1348  0.0268
 8572TIP3    H225681   2.577   3.307   1.137 -1.4299  1.3864  0.3361
 8573TIP3   OH225682   6.047   4.086   1.156 -0.2476  0.0379  0.5619
 8573TIP3    H125683   6.105   4.039   1.216  1.5872  0.5707 -0.7037
 8573TIP3    H225684   6.092   4.169   1.139 -0.8841  0.0674 -1.2218
 8574TIP3   OH225685   3.374   2.098   1.443  0.1188 -0.0220 -0.5007
 8574TIP3    H125686   3.361   2.144   1.360  0.6393 -1.1968 -1.2601
 8574TIP3    H225687   3.461   2.060   1.436 -0.6367 -1.9233 -0.3249
 8575TIP3   OH225688   1.448   2.560   3.992 -0.0846 -0.4723 -0.1891
 8575TIP3    H125689   1.447   2.648   4.030  0.6370  0.9274 -3.1154
 8575TIP3    H225690   1.485   2.504   4.061  0.3975  1.6800  1.3965
 8576TIP3   OH225691   1.954   3.797   2.705 -0.0474  0.0629 -0.7617
 8576TIP3    H125692   2.002   3.874   2.674  3.0599 -1.7887 -0.9312
 8576TIP3    H225693   2.005   3.765   2.779 -1.6447 -1.4707 -0.2597
 8577TIP3   OH225694   4.961   3.395   5.843  0.5861  0.6181 -0.1284
 8577TIP3    H125695   5.051   3.379   5.870  1.1103 -0.0440 -2.0976
 8577TIP3    H225696   4.952   3.490   5.845  1.5823  0.7369 -0.6133
 8578TIP3   OH225697   5.444   4.225   3.958 -0.0037  0.5856  0.2651
 8578TIP3    H125698   5.518   4.284   3.972  0.8752 -0.5112  0.4427
 8578TIP3    H225699   5.401   4.219   4.043  0.5861  0.0979  0.5374
 8579TIP3   OH225700   0.948   3.097   2.057  0.3088 -0.1142 -0.0660
 8579TIP3    H125701   0.869   3.066   2.013  0.0935  0.6935 -0.2633
 8579TIP3    H225702   0.963   3.185   2.022 -0.0550  0.6929  1.6766
 8580TIP3   OH225703   4.101   5.138   4.366 -0.2367 -0.0169 -0.1360
 8580TIP3    H125704   4.010   5.113   4.351 -0.4678 -0.6730  2.0446
 8580TIP3    H225705   4.147   5.056   4.383  0.2652  0.4822  1.0433
 8581TIP3   OH225706   0.429   5.156   0.081 -0.4922 -0.2915 -0.0484
 8581TIP3    H125707   0.464   5.076   0.119  0.3372 -0.7546 -1.7076
 8581TIP3    H225708   0.346   5.170   0.127 -0.1285 -1.4808  1.0196
 8582TIP3   OH225709   4.671   1.243   2.506  0.1747  0.2420 -0.5851
 8582TIP3    H125710   4.644   1.328   2.472  0.6090 -0.3751 -2.5738
 8582TIP3    H225711   4.623   1.180   2.453 -1.9831 -0.8418  2.3726
 8583TIP3   OH225712   3.283   3.508   3.857  0.3403  0.2930  0.1334
 8583TIP3    H125713   3.231   3.585   3.835  0.5409  0.9406  1.7657
 8583TIP3    H225714   3.296   3.463   3.773 -1.2600  1.0856 -0.5795
 8584TIP3   OH225715   4.847   5.668   4.005 -0.1129 -0.1033 -0.8425
 8584TIP3    H125716   4.761   5.644   3.969 -0.9250  1.6442 -0.1684
 8584TIP3    H225717   4.876   5.741   3.949  0.0442  0.5555  0.0775
 8585TIP3   OH225718   4.511   1.111   2.312  0.2982 -0.1613 -0.1212
 8585TIP3    H125719   4.447   1.178   2.337  0.4486  0.2580 -0.8229
 8585TIP3    H225720   4.498   1.099   2.218  1.8091  0.5612 -0.4544
 8586TIP3   OH225721   5.244   1.439   2.248 -0.4169  0.2217 -0.6505
 8586TIP3    H125722   5.182   1.509   2.226 -0.9949 -1.1136 -3.8582
 8586TIP3    H225723   5.198   1.384   2.311 -1.4278  0.6878 -0.9579
 8587TIP3   OH225724   0.321   4.619   2.967 -0.7136 -0.1517 -0.4231
 8587TIP3    H125725   0.322   4.536   3.015  1.9310 -1.5009 -2.5365
 8587TIP3    H225726   0.355   4.683   3.030 -0.1848 -1.2434  0.4344
 8588TIP3   OH225727   1.592   6.117   5.175  0.3707 -0.3229 -0.7040
 8588TIP3    H125728   1.547   6.116   5.260  1.5366 -0.6416 -0.0591
 8588TIP3    H225729   1.539   6.059   5.120  0.2113 -1.0282  0.1539
 8589TIP3   OH225730   2.636   2.901   0.095  0.3453  0.0509  0.0432
 8589TIP3    H125731   2.698   2.916   0.023 -0.3300  1.7072 -0.2560
 8589TIP3    H225732   2.691   2.883   0.171  1.1015 -0.9444 -0.7109
 8590TIP3   OH225733   4.707   0.576   4.269 -0.0640  0.4066 -0.2311
 8590TIP3    H125734   4.728   0.626   4.190  0.6898  0.3112 -0.0948
 8590TIP3    H225735   4.702   0.485   4.239 -1.3633  0.5337 -0.4650
 8591TIP3   OH225736   2.976   3.909   2.619  0.1419  0.6491  0.0354
 8591TIP3    H125737   3.036   3.845   2.656 -0.4073 -0.1256 -0.3697
 8591TIP3    H225738   2.889   3.873   2.638 -0.1768  1.3231 -0.1270
 8592TIP3   OH225739   1.616   3.425   2.788 -0.1862  0.1858  0.1655
 8592TIP3    H125740   1.679   3.366   2.745 -1.3189 -0.6194 -0.4282
 8592TIP3    H225741   1.531   3.388   2.767 -0.9045  1.6876  0.3282
 8593TIP3   OH225742   7.025   0.891   0.709 -0.0748  0.2270 -0.1907
 8593TIP3    H125743   7.095   0.869   0.648  0.4226  0.5499  0.2632
 8593TIP3    H225744   7.036   0.984   0.727 -0.9910  0.4265 -0.5875
 8594TIP3   OH225745   1.131   2.646   1.564  0.1148 -0.2907 -0.3199
 8594TIP3    H125746   1.081   2.591   1.625 -0.3547 -0.1017 -0.5288
 8594TIP3    H225747   1.078   2.725   1.554  0.9840  0.3974  0.3049
 8595TIP3   OH225748   6.034   5.518   4.785  0.1596 -0.7631  0.4039
 8595TIP3    H125749   6.023   5.501   4.692  0.4568 -0.9667  0.4044
 8595TIP3    H225750   6.016   5.434   4.827 -1.8563 -0.2453  0.6853
 8596TIP3   OH225751   1.536   2.169   0.947 -0.0288 -0.1249 -0.1417
 8596TIP3    H125752   1.496   2.250   0.978 -0.1898 -0.2383 -0.0563
 8596TIP3    H225753   1.575   2.130   1.025  1.0436  0.4380 -0.3765
 8597TIP3   OH225754   3.413   2.906   5.470 -0.0521  0.5215 -0.2753
 8597TIP3    H125755   3.421   2.845   5.543 -0.3897 -0.0122 -0.6687
 8597TIP3    H225756   3.389   2.850   5.395 -0.3676  1.1354 -0.6435
 8598TIP3   OH225757   4.252   3.477   5.047  0.3511  0.5540 -0.7701
 8598TIP3    H125758   4.190   3.502   4.978  0.2562  2.4538 -0.0751
 8598TIP3    H225759   4.331   3.527   5.027  0.2760  1.2484  0.5405
 8599TIP3   OH225760   5.148   5.519   3.440  0.0790 -0.4421  0.1342
 8599TIP3    H125761   5.138   5.479   3.527 -3.0697  0.0136  0.1135
 8599TIP3    H225762   5.236   5.496   3.413  1.0376 -0.9588  3.2659
 8600TIP3   OH225763   2.680   5.844   1.111 -0.2935  0.0760 -0.0359
 8600TIP3    H125764   2.616   5.845   1.040 -1.7784 -0.7566  1.2398
 8600TIP3    H225765   2.728   5.927   1.100 -2.1586  1.1659 -0.5305
 8601TIP3   OH225766   7.240   3.387   2.735  0.0700  0.1840 -0.2768
 8601TIP3    H125767   7.152   3.357   2.759  0.3630 -0.8747 -0.5062
 8601TIP3    H225768   7.224   3.470   2.689 -0.8412 -0.1296 -0.5638
 8602TIP3   OH225769   2.463   0.075   2.633  0.7774  0.3290 -0.1372
 8602TIP3    H125770   2.399   0.145   2.627  0.7543  0.2959 -0.2796
 8602TIP3    H225771   2.440   0.016   2.561  0.1839 -0.3273  0.5626
 8603TIP3   OH225772   6.506   1.076   1.071  0.0587 -0.2143  0.2071
 8603TIP3    H125773   6.459   1.152   1.105 -0.2307 -0.8374  1.2553
 8603TIP3    H225774   6.437   1.016   1.042  0.2895 -0.0101 -0.7948
 8604TIP3   OH225775   3.044   1.638   3.365 -0.4552 -0.1312  0.2646
 8604TIP3    H125776   3.009   1.702   3.303  0.7776  0.8814  0.5672
 8604TIP3    H225777   3.130   1.615   3.328  0.4207  0.6963  1.6892
 8605TIP3   OH225778   1.422   3.522   0.277 -0.5250  0.3446 -0.2246
 8605TIP3    H125779   1.327   3.521   0.293 -0.5929  0.9626 -0.5593
 8605TIP3    H225780   1.435   3.596   0.218  0.0375 -0.3724 -1.0207
 8606TIP3   OH225781   5.146   0.585   1.215 -0.1069 -0.0947 -0.2085
 8606TIP3    H125782   5.072   0.623   1.263  0.1751 -0.1520  0.2869
 8606TIP3    H225783   5.141   0.624   1.128  0.1953  1.1277  0.3037
 8607TIP3   OH225784   5.824   4.333   2.837 -0.6064  0.1653  0.7450
 8607TIP3    H125785   5.878   4.255   2.853 -0.8310 -0.7336 -2.3198
 8607TIP3    H225786   5.882   4.395   2.794 -1.8477 -0.8836 -2.7713
 8608TIP3   OH225787   1.945   3.650   2.195 -0.5571  0.4330 -0.5436
 8608TIP3    H125788   1.905   3.732   2.168  0.4177  1.3473  0.6723
 8608TIP3    H225789   2.011   3.675   2.259  0.9885 -1.1287 -1.4111
 8609TIP3   OH225790   2.352   2.120   0.347  0.0492 -0.4990 -0.0152
 8609TIP3    H125791   2.377   2.067   0.423  0.2894 -0.3326  0.0202
 8609TIP3    H225792   2.339   2.056   0.277  1.7195 -0.5028 -0.3627
 8610TIP3   OH225793   2.953   3.620   1.996  0.5393 -0.0222 -0.3440
 8610TIP3    H125794   2.888   3.592   1.932  0.3331 -0.8633  0.2165
 8610TIP3    H225795   3.011   3.680   1.948  0.2100 -0.4031 -1.2241
 8611TIP3   OH225796   5.719   6.469   3.236 -0.0824  0.3110 -0.0030
 8611TIP3    H125797   5.708   6.395   3.296  0.4166 -0.4591 -0.8397
 8611TIP3    H225798   5.774   6.531   3.285 -1.4652  0.6905  1.1536
 8612TIP3   OH225799   2.919   1.542   3.078 -0.2515  0.3819 -0.5832
 8612TIP3    H125800   3.006   1.534   3.040 -0.0743  1.9172 -0.5538
 8612TIP3    H225801   2.920   1.625   3.125 -1.1650 -0.4235  0.9672
 8613TIP3   OH225802   4.987   6.362   2.891  0.1783 -0.0760 -0.0934
 8613TIP3    H125803   5.042   6.290   2.860  0.0283 -0.5580  0.7502
 8613TIP3    H225804   5.000   6.363   2.986 -0.1545  0.7351 -0.0505
 8614TIP3   OH225805   4.647   0.325   3.236 -0.1688 -0.1020 -0.7716
 8614TIP3    H125806   4.669   0.256   3.298  2.3152  0.0797 -1.3464
 8614TIP3    H225807   4.720   0.387   3.242 -0.9386  1.0318 -2.3192
 8615TIP3   OH225808   2.583   2.937   3.819  0.0337  0.0240 -1.1296
 8615TIP3    H125809   2.632   2.855   3.810  0.1510 -0.2848  1.5133
 8615TIP3    H225810   2.634   3.001   3.771  2.6732 -0.4840  0.7672
 8616TIP3   OH225811   5.493   4.539   0.608  0.3738 -0.1729  0.1859
 8616TIP3    H125812   5.515   4.463   0.554  0.3649 -0.8872  1.1780
 8616TIP3    H225813   5.549   4.609   0.574 -0.9185 -0.0683 -1.9841
 8617TIP3   OH225814   2.787   5.516   0.747 -0.1160 -0.0267  0.0866
 8617TIP3    H125815   2.807   5.608   0.732  0.7114 -0.2516 -0.2694
 8617TIP3    H225816   2.692   5.512   0.754 -0.2702  0.6268 -1.4501
 8618TIP3   OH225817   1.469   4.762   5.603  0.5859 -0.3760 -0.0086
 8618TIP3    H125818   1.461   4.825   5.531  2.6003 -0.0821 -0.0196
 8618TIP3    H225819   1.484   4.815   5.681  0.6432 -0.7760  0.2584
 8619TIP3   OH225820   2.539   3.825   2.060  0.6192 -0.5604 -0.0215
 8619TIP3    H125821   2.461   3.841   2.113 -0.2274  1.6571 -1.7457
 8619TIP3    H225822   2.612   3.839   2.119 -0.2947  0.0381  1.0004
 8620TIP3   OH225823   4.135   0.859   1.439 -0.3593 -0.2715 -0.2024
 8620TIP3    H125824   4.043   0.866   1.415  0.0450  0.9221 -1.5851
 8620TIP3    H225825   4.154   0.940   1.487  0.4081  0.4570 -1.6592
 8621TIP3   OH225826   0.885   5.848   3.641  0.6033 -0.2046  0.3124
 8621TIP3    H125827   0.897   5.901   3.562 -0.0476 -1.8365 -0.9370
 8621TIP3    H225828   0.962   5.791   3.643 -0.4790 -1.7647 -0.4872
 8622TIP3   OH225829   3.896   1.524   2.163 -0.0427 -0.1499  0.3086
 8622TIP3    H125830   3.925   1.600   2.213  1.3198  0.1493 -0.8778
 8622TIP3    H225831   3.801   1.523   2.174 -0.0497  1.4892  0.6777
 8623TIP3   OH225832   0.077   1.263   4.863  0.0430  0.3112 -0.4592
 8623TIP3    H125833   0.165   1.244   4.895  1.2612  1.6113 -2.7507
 8623TIP3    H225834   0.058   1.351   4.894 -1.0775 -0.4365  1.1304
 8624TIP3   OH225835   2.030   0.839   0.187 -0.8955 -0.2184 -0.3842
 8624TIP3    H125836   2.093   0.839   0.115 -1.3092 -2.0744 -0.8191
 8624TIP3    H225837   1.946   0.823   0.145 -1.7595  2.4535  0.1673
 8625TIP3   OH225838   5.972   4.950   4.734  0.0157 -1.2351 -0.5000
 8625TIP3    H125839   6.038   4.917   4.674  1.9921  0.0742  0.8373
 8625TIP3    H225840   6.014   4.948   4.820 -1.9648 -1.0413  0.5384
 8626TIP3   OH225841   3.974   6.329   2.833  0.4007  0.6372  0.1487
 8626TIP3    H125842   4.015   6.244   2.818  0.2481  0.6104 -0.1243
 8626TIP3    H225843   3.991   6.348   2.925  0.6570  0.4294  0.1471
 8627TIP3   OH225844   0.864   4.958   0.535  0.3449 -0.3242  0.2397
 8627TIP3    H125845   0.824   5.043   0.517  2.5523  0.5299 -1.1031
 8627TIP3    H225846   0.915   4.972   0.616 -0.8702 -0.9931  1.1513
 8628TIP3   OH225847   5.016   6.752   5.195 -0.4880  0.1709 -0.2592
 8628TIP3    H125848   4.987   6.681   5.138 -3.1381  2.5713 -2.2779
 8628TIP3    H225849   5.102   6.776   5.162 -0.6779 -0.4636 -1.2572
 8629TIP3   OH225850   3.531   6.403   1.817  0.2276 -0.2881 -0.3494
 8629TIP3    H125851   3.522   6.491   1.854  0.7220 -0.6725  0.7085
 8629TIP3    H225852   3.552   6.418   1.724 -2.4904  0.6918 -0.9027
 8630TIP3   OH225853   5.527   4.561   3.967  0.3317  0.3846  0.3280
 8630TIP3    H125854   5.502   4.647   4.000 -1.1825  0.4895 -0.9859
 8630TIP3    H225855   5.614   4.575   3.928  0.8108  0.9258  1.5462
 8631TIP3   OH225856   1.751   6.070   0.439 -0.2331  0.1824 -0.2252
 8631TIP3    H125857   1.701   6.151   0.431 -0.2088  0.3149  0.7978
 8631TIP3    H225858   1.842   6.100   0.451 -0.0744 -0.0278 -0.8539
 8632TIP3   OH225859   0.719   4.099   2.167  0.3272 -0.5569  0.0645
 8632TIP3    H125860   0.732   4.104   2.262  0.9581  0.6712 -0.0662
 8632TIP3    H225861   0.803   4.070   2.132  0.3730 -0.1512 -0.1760
 8633TIP3   OH225862   1.078   2.776   1.911 -0.4313 -0.0210 -0.3065
 8633TIP3    H125863   1.061   2.699   1.857  1.4265 -0.7166  0.0190
 8633TIP3    H225864   1.035   2.848   1.865 -0.8133 -0.9744 -1.4948
 8634TIP3   OH225865   0.279   5.749   5.058  0.8087 -0.2488 -0.5856
 8634TIP3    H125866   0.363   5.710   5.034  0.2183 -1.6835 -0.3964
 8634TIP3    H225867   0.231   5.678   5.101  0.8382  1.4373  2.5579
 8635TIP3   OH225868   6.260   0.367   0.604 -0.2952 -0.3437 -0.0410
 8635TIP3    H125869   6.247   0.310   0.680 -3.7326  0.1839 -0.0546
 8635TIP3    H225870   6.209   0.446   0.624  1.7741  1.4657 -1.3577
 8636TIP3   OH225871   2.415   3.543   5.060  0.3537  0.2320 -0.3321
 8636TIP3    H125872   2.500   3.519   5.025 -0.5936 -1.4608 -1.6164
 8636TIP3    H225873   2.387   3.466   5.110 -0.0593  1.0941  0.8048
 8637TIP3   OH225874   1.999   3.861   4.163 -0.1901  0.1259 -0.4514
 8637TIP3    H125875   2.062   3.881   4.093  0.8723  0.2078  0.5086
 8637TIP3    H225876   2.026   3.917   4.236 -2.2963  1.2907 -0.4802
 8638TIP3   OH225877   6.366   0.565   3.330  0.1634  0.0762  0.0938
 8638TIP3    H125878   6.318   0.497   3.377 -1.2215 -0.8693 -2.5187
 8638TIP3    H225879   6.396   0.522   3.250  1.5154  1.8849 -0.4277
 8639TIP3   OH225880   0.331   6.295   1.148  0.6327  0.0777 -0.3172
 8639TIP3    H125881   0.338   6.369   1.209 -0.1559 -1.0591  1.2164
 8639TIP3    H225882   0.286   6.227   1.198 -1.7716 -0.2944 -2.7217
 8640TIP3   OH225883   4.645   2.297   0.590 -0.3543 -0.1729  0.2562
 8640TIP3    H125884   4.630   2.253   0.506 -0.1230 -2.9449  1.5487
 8640TIP3    H225885   4.561   2.289   0.636 -0.3752  1.0135  0.4560
 8641TIP3   OH225886   6.903   6.736   1.797  0.1036  0.7682 -0.1234
 8641TIP3    H125887   6.906   6.824   1.836  1.0094  0.7629 -0.1734
 8641TIP3    H225888   6.986   6.727   1.751  0.7525 -0.7329  1.2569
 8642TIP3   OH225889   3.399   5.276   0.687  0.2692 -0.6730 -0.0700
 8642TIP3    H125890   3.473   5.280   0.747 -1.3320  0.8524  1.9473
 8642TIP3    H225891   3.378   5.368   0.667 -2.5302 -0.8623  1.4322
 8643TIP3   OH225892   0.960   3.503   1.066 -0.2078 -0.4554 -0.5524
 8643TIP3    H125893   1.047   3.542   1.072  0.2908 -1.7755  2.2322
 8643TIP3    H225894   0.905   3.558   1.123 -0.5311 -1.2365 -0.0961
 8644TIP3   OH225895   3.368   1.049   2.048 -0.0088 -0.0834 -0.6302
 8644TIP3    H125896   3.352   1.001   1.967  1.9479 -0.6698 -0.7285
 8644TIP3    H225897   3.350   0.986   2.118 -1.7502  0.4389 -0.5671
 8645TIP3   OH225898   1.265   2.437   3.287  0.1944 -0.1268 -0.0324
 8645TIP3    H125899   1.188   2.492   3.295  0.9028  1.0391 -0.9172
 8645TIP3    H225900   1.231   2.352   3.258 -1.2153 -1.1332  3.9269
 8646TIP3   OH225901   0.082   6.654   1.863  0.0234  0.0012  0.3049
 8646TIP3    H125902   0.055   6.686   1.949 -1.2273 -0.8792  0.2756
 8646TIP3    H225903   0.110   6.564   1.879 -0.4273 -0.2401 -0.2313
 8647TIP3   OH225904   4.025   5.185   1.115 -0.3480  1.0706 -0.4923
 8647TIP3    H125905   3.954   5.248   1.124  0.3028  1.8589 -0.7800
 8647TIP3    H225906   3.991   5.119   1.055  0.2634  3.1458 -3.3291
 8648TIP3   OH225907   3.598   3.616   3.554 -0.3360  0.0139 -0.0145
 8648TIP3    H125908   3.642   3.688   3.509  1.8044 -1.2657 -0.1016
 8648TIP3    H225909   3.538   3.580   3.489 -0.7708  1.1256 -0.2533
 8649TIP3   OH225910   2.022   3.509   0.295  0.2503  0.1413  0.5134
 8649TIP3    H125911   1.957   3.479   0.358  0.1667  0.6979  0.7006
 8649TIP3    H225912   2.075   3.432   0.276 -0.1002 -0.1756  0.8037
 8650TIP3   OH225913   6.610   6.629   5.170 -0.4326  0.1171  0.0844
 8650TIP3    H125914   6.542   6.655   5.109  0.5728  1.1320 -0.6620
 8650TIP3    H225915   6.686   6.609   5.115 -0.6570 -3.0157  0.7366
 8651TIP3   OH225916   5.657   3.458   3.374  0.1062  0.0333 -0.3384
 8651TIP3    H125917   5.620   3.481   3.459 -3.0063  0.9553 -1.7930
 8651TIP3    H225918   5.749   3.487   3.379 -0.9808  3.8506  1.3671
 8652TIP3   OH225919   1.080   4.562   2.657  0.3151  0.1566  0.1040
 8652TIP3    H125920   1.134   4.500   2.608  0.5874  0.4206  0.0699
 8652TIP3    H225921   1.005   4.509   2.687  0.2786 -0.0635 -0.3652
 8653TIP3   OH225922   1.580   4.440   2.001 -0.4297 -0.6354  0.4138
 8653TIP3    H125923   1.538   4.375   2.057 -0.3746 -0.3463  0.7880
 8653TIP3    H225924   1.593   4.394   1.918 -1.8514 -0.6117  0.1518
 8654TIP3   OH225925   5.734   6.077   1.116  0.1771  0.8606  0.0850
 8654TIP3    H125926   5.811   6.045   1.069 -1.0193 -0.1419 -1.3029
 8654TIP3    H225927   5.695   6.142   1.058  0.1023  1.5587  0.8919
 8655TIP3   OH225928   0.445   2.160   4.487 -0.4069 -0.7479  0.1808
 8655TIP3    H125929   0.469   2.069   4.468 -0.2324 -0.4781 -0.9198
 8655TIP3    H225930   0.498   2.212   4.427 -0.2993  0.1054  1.0021
 8656TIP3   OH225931   6.616   1.908   1.679 -0.1009  0.0540  0.4410
 8656TIP3    H125932   6.637   1.846   1.749  0.8266 -0.9888 -0.7153
 8656TIP3    H225933   6.527   1.936   1.698 -0.0673 -0.6500  1.7254
 8657TIP3   OH225934   2.325   1.340   5.209 -0.2622  0.6228  0.1193
 8657TIP3    H125935   2.383   1.321   5.136  0.5028  1.7984  0.3839
 8657TIP3    H225936   2.384   1.357   5.283 -1.0075 -0.1745  0.9176
 8658TIP3   OH225937   3.233   0.568   5.735 -0.2654  0.0181  0.2411
 8658TIP3    H125938   3.264   0.477   5.738 -1.4424 -0.3755  1.9470
 8658TIP3    H225939   3.148   0.566   5.778  0.6559  2.3042  2.3919
 8659TIP3   OH225940   6.427   0.383   5.797 -0.5710  0.0975  0.0978
 8659TIP3    H125941   6.445   0.474   5.817 -2.4440  0.8602 -1.3587
 8659TIP3    H225942   6.514   0.342   5.792  0.4140  2.1425 -0.7831
 8660TIP3   OH225943   0.906   4.381   3.321 -0.5292 -0.1821 -0.0827
 8660TIP3    H125944   0.888   4.423   3.406 -2.0453 -1.0377  0.0522
 8660TIP3    H225945   0.893   4.288   3.337 -1.4152 -0.3149 -1.3651
 8661TIP3   OH225946   4.187   6.361   1.135 -0.2212  0.5716  0.2595
 8661TIP3    H125947   4.165   6.295   1.070  1.4347  1.4109 -1.2513
 8661TIP3    H225948   4.135   6.438   1.110  0.4274  0.8990 -0.1231
 8662TIP3   OH225949   4.434   5.391   0.886  0.2368  0.2536 -0.3477
 8662TIP3    H125950   4.373   5.326   0.922  1.0128 -0.9348 -1.0745
 8662TIP3    H225951   4.484   5.342   0.821  0.9093  1.5905 -0.8739
 8663TIP3   OH225952   4.008   4.441   3.864  0.0349  0.0167  0.3189
 8663TIP3    H125953   3.944   4.428   3.934  0.4369 -0.8968  0.5339
 8663TIP3    H225954   4.045   4.354   3.849  0.7362  0.4066 -0.2784
 8664TIP3   OH225955   3.789   3.795   5.551  0.2434 -0.1646  0.3020
 8664TIP3    H125956   3.746   3.873   5.588  0.7904  0.7362 -0.8752
 8664TIP3    H225957   3.864   3.780   5.608  1.4710  1.6195 -0.7516
 8665TIP3   OH225958   3.001   3.530   5.754  0.0152  0.6820 -0.3172
 8665TIP3    H125959   2.919   3.563   5.791 -0.9889 -1.3499 -0.5810
 8665TIP3    H225960   2.976   3.487   5.673  1.5889  1.2959 -1.1824
 8666TIP3   OH225961   1.777   4.113   4.253  0.3735 -0.4321  0.1340
 8666TIP3    H125962   1.736   4.088   4.336 -1.5452  0.6124 -0.4328
 8666TIP3    H225963   1.822   4.195   4.272  2.9926 -1.9497  0.9409
 8667TIP3   OH225964   4.847   5.833   3.778  0.5560 -0.1347 -0.1806
 8667TIP3    H125965   4.902   5.906   3.749  0.2284 -0.2107 -1.0303
 8667TIP3    H225966   4.887   5.756   3.738 -1.9406  0.1160 -3.6696
 8668TIP3   OH225967   2.852   5.109   4.234  0.1698  0.3092  0.3006
 8668TIP3    H125968   2.777   5.100   4.292  0.6287  1.9861  1.2488
 8668TIP3    H225969   2.861   5.204   4.221  1.6530  0.1112 -0.4013
 8669TIP3   OH225970   6.839   4.006   4.684 -0.0347 -0.7388 -0.1007
 8669TIP3    H125971   6.768   4.029   4.624  1.1552  1.5399 -0.7961
 8669TIP3    H225972   6.908   3.972   4.627  0.7014  0.4110  0.0640
 8670TIP3   OH225973   1.847   2.405   4.444 -0.5425  0.0739 -0.7454
 8670TIP3    H125974   1.941   2.401   4.456 -0.0121  3.4634 -2.5476
 8670TIP3    H225975   1.823   2.319   4.410  2.2344 -0.3137 -1.9489
 8671TIP3   OH225976   5.655   1.350   3.785 -0.2244  0.6358 -0.5908
 8671TIP3    H125977   5.674   1.348   3.691 -0.8383  2.6107 -0.7931
 8671TIP3    H225978   5.712   1.282   3.822  2.0637  1.6551 -2.0399
 8672TIP3   OH225979   4.106   6.146   1.474  0.3898 -0.2620 -0.2204
 8672TIP3    H125980   4.070   6.167   1.560  2.0459  0.1439  0.4132
 8672TIP3    H225981   4.148   6.227   1.445 -0.9208 -0.1001 -1.8586
 8673TIP3   OH225982   0.352   0.301   3.847  0.0734  0.2859  0.1168
 8673TIP3    H125983   0.277   0.266   3.896  0.1044 -0.1142 -0.1223
 8673TIP3    H225984   0.314   0.337   3.767  0.2277 -0.6218 -0.3679
 8674TIP3   OH225985   2.383   4.437   1.664 -0.0549 -0.5491 -0.2631
 8674TIP3    H125986   2.379   4.343   1.650  0.3628 -0.4572 -1.1336
 8674TIP3    H225987   2.303   4.471   1.624  0.1935 -0.4673 -0.7038
 8675TIP3   OH225988   1.206   3.746   4.664 -0.0879 -0.8456 -0.4033
 8675TIP3    H125989   1.288   3.782   4.632 -0.7490 -0.7597 -2.1103
 8675TIP3    H225990   1.165   3.706   4.587 -2.5594  0.8326 -0.0969
 8676TIP3   OH225991   1.844   2.573   2.063 -0.0435  0.4135  1.0873
 8676TIP3    H125992   1.826   2.655   2.110 -1.0314  0.7996  0.0650
 8676TIP3    H225993   1.778   2.569   1.995 -0.6024 -1.7130  1.6748
 8677TIP3   OH225994   0.251   4.468   5.782 -0.0418  0.6915 -0.2976
 8677TIP3    H125995   0.284   4.386   5.818  0.7242  0.6237 -1.0978
 8677TIP3    H225996   0.166   4.445   5.744  0.1332  0.2790 -0.4471
 8678TIP3   OH225997   4.702   3.420   3.360  0.4493  0.2999  0.4466
 8678TIP3    H125998   4.615   3.454   3.339  0.5256  0.7804  0.8742
 8678TIP3    H225999   4.753   3.434   3.280 -0.4685 -2.1644 -0.6499
 8679TIP3   OH226000   7.080   6.266   0.299  0.0660 -0.0032 -0.1558
 8679TIP3    H126001   7.021   6.216   0.355  1.3134  1.1437  2.3517
 8679TIP3    H226002   7.023   6.326   0.251 -1.1066 -1.4541 -0.6217
 8680TIP3   OH226003   7.002   3.143   5.542 -0.1246 -0.1337 -0.4605
 8680TIP3    H126004   6.986   3.238   5.545 -0.2317 -0.0459 -2.2627
 8680TIP3    H226005   7.095   3.136   5.520 -0.3176 -0.3992 -1.2446
 8681TIP3   OH226006   3.859   3.573   1.128 -0.0337  0.5044  0.1411
 8681TIP3    H126007   3.767   3.574   1.154 -0.2732 -0.5348 -0.5804
 8681TIP3    H226008   3.907   3.603   1.205 -0.9908  1.3757  0.4158
 8682TIP3   OH226009   5.663   4.914   3.054 -0.4007  0.1971  0.0675
 8682TIP3    H126010   5.568   4.914   3.057 -0.4617 -1.3825 -0.5455
 8682TIP3    H226011   5.688   4.829   3.091  0.7199  0.2283 -0.5620
 8683TIP3   OH226012   7.204   0.698   3.635 -0.1112 -0.1339 -0.0105
 8683TIP3    H126013   7.151   0.772   3.604  0.2875  0.3026  0.3222
 8683TIP3    H226014   7.142   0.625   3.642 -0.7110  0.4103  0.5262
 8684TIP3   OH226015   0.321   4.125   1.579  0.1781 -0.5923 -0.1260
 8684TIP3    H126016   0.342   4.201   1.524 -0.8093  0.9698  1.5587
 8684TIP3    H226017   0.405   4.080   1.590  1.4980  1.9973  1.3293
 8685TIP3   OH226018   1.431   6.400   4.720  0.2265 -0.4260 -0.3205
 8685TIP3    H126019   1.425   6.369   4.810 -0.1577  0.3271 -0.0814
 8685TIP3    H226020   1.523   6.385   4.696 -0.1437 -2.7079 -0.5998
 8686TIP3   OH226021   4.545   3.485   4.551 -0.3793  0.5693  0.4059
 8686TIP3    H126022   4.524   3.506   4.642 -0.9491  2.0496 -0.0355
 8686TIP3    H226023   4.477   3.424   4.524  0.1502 -0.3681  1.1437
 8687TIP3   OH226024   2.820   5.188   0.074 -0.2609 -0.2038  0.0544
 8687TIP3    H126025   2.738   5.235   0.061  0.4906  1.2850  0.5582
 8687TIP3    H226026   2.850   5.168  -0.015 -0.2468  0.8886 -0.1946
 8688TIP3   OH226027   7.064   0.908   4.633  0.6315  0.5540  0.1762
 8688TIP3    H126028   7.038   0.888   4.543 -2.3503  0.6809  0.9254
 8688TIP3    H226029   7.090   1.001   4.631  2.5406  0.0529 -0.8664
 8689TIP3   OH226030   4.070   1.138   2.802  0.2816  0.2495  0.1798
 8689TIP3    H126031   4.140   1.091   2.757 -0.4489  0.3719 -1.1210
 8689TIP3    H226032   4.073   1.227   2.767 -1.3145 -0.0712 -0.8537
 8690TIP3   OH226033   4.455   0.349   3.038  0.3756 -0.4942  0.4922
 8690TIP3    H126034   4.534   0.349   3.093 -0.7091  1.7791  2.2127
 8690TIP3    H226035   4.470   0.279   2.974  3.3950 -0.6863  1.2746
 8691TIP3   OH226036   1.586   3.045   1.166 -0.0492 -0.7013  0.1946
 8691TIP3    H126037   1.554   3.129   1.199  0.1776 -0.7207  0.4708
 8691TIP3    H226038   1.671   3.066   1.127 -0.7333 -0.5155 -1.2233
 8692TIP3   OH226039   6.956   6.374   0.662 -0.1537  0.4642 -0.4441
 8692TIP3    H126040   6.931   6.379   0.754 -1.9006 -1.1317 -0.7463
 8692TIP3    H226041   6.947   6.464   0.630  1.8445  1.3178  1.2006
 8693TIP3   OH226042   0.374   2.703   1.177  0.6028 -0.0121 -0.1763
 8693TIP3    H126043   0.360   2.745   1.093  1.9068  1.4948  0.3282
 8693TIP3    H226044   0.326   2.620   1.170 -1.8048  1.3629 -1.3113
 8694TIP3   OH226045   5.540   5.007   2.594 -0.4960 -0.7063  0.3357
 8694TIP3    H126046   5.580   5.032   2.677  0.2156  2.2379 -0.7470
 8694TIP3    H226047   5.447   5.028   2.605 -0.4837 -0.7502  0.5304
 8695TIP3   OH226048   0.274   3.572   1.321  0.1115  0.4949  0.1789
 8695TIP3    H126049   0.235   3.518   1.253  1.0758  0.5191 -0.4142
 8695TIP3    H226050   0.211   3.642   1.336 -1.0802 -0.6693  0.8361
 8696TIP3   OH226051   6.917   3.227   0.812  0.4705 -0.0116  0.1213
 8696TIP3    H126052   6.900   3.217   0.906  0.5945 -0.4092  0.1015
 8696TIP3    H226053   6.883   3.147   0.772 -0.6414  0.6567 -0.3230
 8697TIP3   OH226054   0.375   5.909   0.930 -0.2465  0.0452 -0.5059
 8697TIP3    H126055   0.414   5.925   0.844  0.9235  0.5972  0.1038
 8697TIP3    H226056   0.434   5.953   0.991 -0.2285 -1.5889  0.7164
 8698TIP3   OH226057   2.316   5.631   3.665  0.6582 -0.9341 -0.3454
 8698TIP3    H126058   2.291   5.551   3.617  0.7786 -0.2587 -1.5807
 8698TIP3    H226059   2.235   5.660   3.706  0.7772 -2.1180  0.8019
 8699TIP3   OH226060   6.676   2.121   1.928  0.0856 -0.3321 -0.1462
 8699TIP3    H126061   6.758   2.140   1.883 -1.8341  2.6242 -2.8825
 8699TIP3    H226062   6.643   2.042   1.887  1.2936 -1.2842  0.6644
 8700TIP3   OH226063   6.015   4.288   3.345 -0.2050 -0.0617  0.1178
 8700TIP3    H126064   5.927   4.266   3.374  0.2553 -0.7599  1.0477
 8700TIP3    H226065   6.071   4.263   3.418  0.9652 -1.3915 -1.1822
 8701TIP3   OH226066   0.780   5.899   0.241  0.2698  0.1858 -0.1111
 8701TIP3    H126067   0.806   5.933   0.327  3.1146 -0.5531 -0.5884
 8701TIP3    H226068   0.801   5.969   0.180 -0.0029  0.0066 -0.4119
 8702TIP3   OH226069   4.120   0.505   2.886 -0.4878  0.0370  0.1593
 8702TIP3    H126070   4.052   0.458   2.837 -0.2331 -1.0220  0.7904
 8702TIP3    H226071   4.077   0.528   2.969 -0.7005  1.2062 -0.2554
 8703TIP3   OH226072   2.313   6.468   1.095 -0.1303  0.5320  0.7786
 8703TIP3    H126073   2.298   6.484   1.188 -0.9496 -0.7451  0.8822
 8703TIP3    H226074   2.277   6.381   1.079 -0.2444  0.8357 -0.7921
 8704TIP3   OH226075   3.992   4.576   5.448  0.2109  0.0616 -0.5021
 8704TIP3    H126076   3.970   4.669   5.449  0.2236  0.0621 -0.1780
 8704TIP3    H226077   4.050   4.567   5.372  0.8154  0.4632 -0.1014
 8705TIP3   OH226078   5.605   2.443   1.750  0.8218  0.2669 -0.3726
 8705TIP3    H126079   5.644   2.529   1.734  0.9763  0.2510 -0.0757
 8705TIP3    H226080   5.610   2.398   1.665  1.7353  0.1450 -0.2617
 8706TIP3   OH226081   6.663   6.791   4.772 -0.0141 -0.1592  0.3921
 8706TIP3    H126082   6.726   6.749   4.830 -0.1538 -0.3613  0.3974
 8706TIP3    H226083   6.711   6.864   4.734  0.5393 -0.9005 -0.3676
 8707TIP3   OH226084   2.718   2.311   2.620  0.3189  0.3263 -0.2261
 8707TIP3    H126085   2.646   2.370   2.644  0.0669  0.3113 -0.9396
 8707TIP3    H226086   2.782   2.368   2.577  1.4715  0.6485  1.7667
 8708TIP3   OH226087   0.137   0.933   3.931 -0.2055 -0.0931 -0.3970
 8708TIP3    H126088   0.139   0.957   4.024  1.3613  1.3292 -0.7475
 8708TIP3    H226089   0.044   0.936   3.908 -0.6902 -1.0299  1.2334
 8709TIP3   OH226090   1.751   4.912   4.340  0.3244  0.4355  0.0202
 8709TIP3    H126091   1.768   4.837   4.397 -0.9143  1.4571  1.8252
 8709TIP3    H226092   1.765   4.878   4.251 -2.5347 -2.6463  0.5521
 8710TIP3   OH226093   3.545   3.532   0.963 -0.1327 -0.4150 -0.1489
 8710TIP3    H126094   3.527   3.516   1.055 -2.1042 -0.8721 -0.5691
 8710TIP3    H226095   3.637   3.560   0.961 -0.2500  0.3098  2.0086
 8711TIP3   OH226096   2.558   0.815   5.150  0.0686  0.5876 -0.1676
 8711TIP3    H126097   2.575   0.888   5.210 -0.0509 -0.3839  1.0878
 8711TIP3    H226098   2.464   0.816   5.137  0.0639  0.6353 -0.1289
 8712TIP3   OH226099   0.149   1.537   3.487  0.2164 -0.3283  0.3247
 8712TIP3    H126100   0.108   1.529   3.573  0.0971 -0.5922  0.2438
 8712TIP3    H226101   0.243   1.530   3.505  0.1583 -1.0983  0.3540
 8713TIP3   OH226102   1.372   6.662   0.779  0.2263 -0.6572 -0.2530
 8713TIP3    H126103   1.349   6.619   0.696 -0.0536  1.0471 -1.0897
 8713TIP3    H226104   1.335   6.605   0.846 -2.3265 -0.4853 -1.4071
 8714TIP3   OH226105   6.532   1.829   0.229 -0.4710 -0.0819 -0.5959
 8714TIP3    H126106   6.483   1.911   0.222 -2.1092 -1.0585 -1.0885
 8714TIP3    H226107   6.583   1.838   0.309 -1.4078  1.0094 -0.1042
 8715TIP3   OH226108   3.320   2.553   4.623 -0.2984  0.2074  0.6112
 8715TIP3    H126109   3.373   2.497   4.681 -1.4994 -2.2416 -0.4964
 8715TIP3    H226110   3.266   2.605   4.683 -2.2502 -2.9729  1.8941
 8716TIP3   OH226111   0.176   5.266   5.289  0.4343 -0.1343  0.2560
 8716TIP3    H126112   0.200   5.267   5.382  0.3415 -1.6797  0.3168
 8716TIP3    H226113   0.229   5.196   5.251 -0.1563 -0.0985 -0.6719
 8717TIP3   OH226114   1.167   2.070   1.636  0.3601 -0.2092 -0.2296
 8717TIP3    H126115   1.202   2.142   1.584  0.1883  0.5808  0.7113
 8717TIP3    H226116   1.155   2.107   1.724 -2.1898 -0.6042 -0.3135
 8718TIP3   OH226117   0.648   2.469   4.695 -0.6019 -0.1375 -0.2383
 8718TIP3    H126118   0.744   2.468   4.703 -0.2711  1.8678 -2.6994
 8718TIP3    H226119   0.619   2.539   4.753 -0.1753  1.4148 -1.8013
 8719TIP3   OH226120   2.761   1.933   2.837 -0.6777  0.1171  0.1308
 8719TIP3    H126121   2.743   1.959   2.927 -0.1713 -0.8250  0.5288
 8719TIP3    H226122   2.677   1.900   2.804 -1.1490  1.5373 -0.1506
 8720TIP3   OH226123   5.801   1.884   3.884 -0.7268 -0.5900 -0.3782
 8720TIP3    H126124   5.781   1.793   3.861  0.0791 -1.1155  0.8421
 8720TIP3    H226125   5.780   1.890   3.977  0.3714  0.1165 -0.1576
 8721TIP3   OH226126   3.684   5.995   3.102  0.2184 -0.9587 -0.0552
 8721TIP3    H126127   3.731   6.078   3.096  0.2126 -0.9965 -0.7335
 8721TIP3    H226128   3.593   6.017   3.079  0.1570 -1.0977  0.0518
 8722TIP3   OH226129   4.814   2.462   2.307  0.0980  0.5684 -0.5833
 8722TIP3    H126130   4.879   2.484   2.373  0.1389  0.9269 -0.7358
 8722TIP3    H226131   4.862   2.466   2.224  0.5235 -1.7776 -0.5143
 8723TIP3   OH226132   6.984   0.827   3.542 -0.1690 -0.8484  0.3685
 8723TIP3    H126133   6.923   0.872   3.600 -0.2898 -0.3924 -0.1022
 8723TIP3    H226134   6.957   0.852   3.454  1.1784 -0.0078  0.1644
 8724TIP3   OH226135   0.784   0.061   1.885  0.7531 -0.1394  0.1677
 8724TIP3    H126136   0.769   0.042   1.978 -1.3425  2.2033  0.4154
 8724TIP3    H226137   0.847   0.132   1.885 -0.4991  1.0280 -0.0344
 8725TIP3   OH226138   5.041   5.096   2.526  0.0728  0.1455  0.0620
 8725TIP3    H126139   4.989   5.097   2.607  0.0323 -1.9814  0.1288
 8725TIP3    H226140   5.132   5.103   2.556  0.1581 -2.0168  0.4715
 8726TIP3   OH226141   6.578   1.512   2.597  0.0954  0.0025  0.2062
 8726TIP3    H126142   6.653   1.550   2.642 -1.0176  2.4460  0.1606
 8726TIP3    H226143   6.567   1.566   2.518 -0.2201 -1.8887 -1.1287
 8727TIP3   OH226144   6.658   2.012   4.953 -0.0695  0.5705  0.1263
 8727TIP3    H126145   6.720   1.999   4.882 -0.0621  0.5898  0.1297
 8727TIP3    H226146   6.596   1.939   4.945 -1.3419  1.7480 -1.2205
 8728TIP3   OH226147   5.371   6.370   4.790 -0.1666  0.2548 -0.2228
 8728TIP3    H126148   5.329   6.286   4.771  0.4976 -0.4460  1.1924
 8728TIP3    H226149   5.414   6.395   4.709 -0.0332 -0.9964 -0.5633
 8729TIP3   OH226150   1.303   6.500   5.253 -0.0115 -0.0712 -0.2569
 8729TIP3    H126151   1.316   6.586   5.292  0.7015 -0.4124  0.2724
 8729TIP3    H226152   1.363   6.497   5.178 -1.2391  0.5100 -1.3113
 8730TIP3   OH226153   3.784   3.781   5.271 -0.2113 -0.0075  0.3771
 8730TIP3    H126154   3.876   3.758   5.264  0.0998  1.2623  0.0750
 8730TIP3    H226155   3.769   3.794   5.365  0.0850  0.4358  0.3627
 8731TIP3   OH226156   3.795   4.210   3.655  0.4077  0.0080 -0.7065
 8731TIP3    H126157   3.858   4.145   3.624  2.3384  1.5244 -0.1989
 8731TIP3    H226158   3.801   4.204   3.751  1.0872  1.3284 -0.6521
 8732TIP3   OH226159   5.076   4.721   5.478  0.1667  0.0863 -0.1163
 8732TIP3    H126160   5.137   4.715   5.405  0.3096 -0.1922  0.0294
 8732TIP3    H226161   5.126   4.764   5.548  0.1674 -0.0619 -0.0268
 8733TIP3   OH226162   3.135   3.436   2.878 -0.0903 -0.0791 -1.1855
 8733TIP3    H126163   3.182   3.373   2.823  1.9276 -0.1716  0.4820
 8733TIP3    H226164   3.133   3.395   2.964 -1.6202  0.7849 -0.7786
 8734TIP3   OH226165   6.017   0.241   1.008  0.2318  0.3780 -0.2340
 8734TIP3    H126166   6.095   0.198   0.974 -0.5638 -0.6465 -0.8129
 8734TIP3    H226167   5.986   0.184   1.078 -0.9887 -0.1909 -1.1947
 8735TIP3   OH226168   6.302   2.337   0.360 -0.1518  0.0473 -0.1007
 8735TIP3    H126169   6.304   2.321   0.455 -1.0219  0.6441  0.0358
 8735TIP3    H226170   6.358   2.414   0.348 -0.6404  0.4310  0.0396
 8736TIP3   OH226171   1.317   4.145   4.207 -0.2493 -0.2345 -0.1826
 8736TIP3    H126172   1.330   4.226   4.257  0.3763 -0.5182  0.1247
 8736TIP3    H226173   1.388   4.144   4.143  0.2758 -0.9717  0.3969
 8737TIP3   OH226174   6.930   4.959   4.946 -0.2634 -0.5877 -0.1069
 8737TIP3    H126175   7.002   5.023   4.949  0.3121 -1.2435  0.2470
 8737TIP3    H226176   6.867   4.997   4.884  0.0180  0.3763  0.1820
 8738TIP3   OH226177   5.637   2.379   0.122  0.0613 -0.0103 -0.1920
 8738TIP3    H126178   5.702   2.416   0.064  1.3596  1.9619  2.3030
 8738TIP3    H226179   5.686   2.350   0.199 -1.8684  1.1841  1.6264
 8739TIP3   OH226180   6.988   1.572   0.285  0.1780 -0.0253 -0.5046
 8739TIP3    H126181   6.933   1.605   0.214 -1.3047 -0.2818  0.4727
 8739TIP3    H226182   7.008   1.649   0.338  0.0353 -0.0715 -0.3840
 8740TIP3   OH226183   4.691   1.310   5.512 -0.1979  0.0269  0.4464
 8740TIP3    H126184   4.758   1.279   5.572 -0.9118 -0.4173  1.0301
 8740TIP3    H226185   4.647   1.380   5.560 -2.2918 -1.8407  1.4353
 8741TIP3   OH226186   3.523   2.321   4.290  0.8887  0.5640 -0.0480
 8741TIP3    H126187   3.557   2.361   4.210  0.1545  3.4977  0.9460
 8741TIP3    H226188   3.536   2.389   4.357 -1.6225 -0.4082  1.5693
 8742TIP3   OH226189   5.918   5.167   0.247  0.6000  0.3126 -0.1263
 8742TIP3    H126190   5.992   5.158   0.307 -0.8336  2.5538  2.2086
 8742TIP3    H226191   5.846   5.121   0.291  0.2352 -0.6727 -1.6946
 8743TIP3   OH226192   2.389   5.037   3.927  0.2972 -0.4724 -0.0717
 8743TIP3    H126193   2.456   5.095   3.890  0.7893 -0.3153  1.0043
 8743TIP3    H226194   2.320   5.034   3.862 -0.0454  1.8655  0.0983
 8744TIP3   OH226195   2.689   3.035   4.765 -0.0444 -0.1680 -0.1817
 8744TIP3    H126196   2.679   3.006   4.855 -0.1381 -1.3711 -0.5611
 8744TIP3    H226197   2.693   3.130   4.770  3.0294 -0.2541  1.4215
 8745TIP3   OH226198   5.526   0.958   3.197 -0.1186 -0.0033 -0.4741
 8745TIP3    H126199   5.616   0.925   3.195 -0.1708 -0.1510 -0.3330
 8745TIP3    H226200   5.499   0.957   3.105 -0.2234 -0.6355 -0.4377
 8746TIP3   OH226201   4.778   0.258   1.140 -0.0517  0.3259  0.3402
 8746TIP3    H126202   4.773   0.312   1.219 -0.8071 -2.5675  2.4147
 8746TIP3    H226203   4.698   0.278   1.092  0.2343  1.8505  0.4375
 8747TIP3   OH226204   2.797   0.064   4.946  0.1112 -0.0126  0.2260
 8747TIP3    H126205   2.785   0.128   5.016 -2.4204  0.8327 -0.8782
 8747TIP3    H226206   2.770  -0.019   4.985  0.1426  0.1782  0.6680
 8748TIP3   OH226207   2.109   0.600   0.424  0.3290  0.2018 -0.5421
 8748TIP3    H126208   2.015   0.620   0.424 -0.1497 -1.8709 -0.8434
 8748TIP3    H226209   2.134   0.600   0.332  0.8573  1.5807 -0.4267
 8749TIP3   OH226210   3.200   6.706   2.349  0.0985  0.1351 -0.3723
 8749TIP3    H126211   3.181   6.770   2.418 -1.0120 -0.6940  0.1179
 8749TIP3    H226212   3.195   6.621   2.393  1.2148 -0.3146 -1.0858
 8750TIP3   OH226213   0.117   1.762   0.328  0.2792  0.5683  0.7626
 8750TIP3    H126214   0.069   1.842   0.350 -2.2057 -0.6974  0.3674
 8750TIP3    H226215   0.142   1.724   0.412  0.0847  0.9774  1.0067
 8751TIP3   OH226216   3.126   0.567   1.219 -0.5754  0.3602  0.3476
 8751TIP3    H126217   3.098   0.483   1.184 -1.8055  0.1702  1.6910
 8751TIP3    H226218   3.185   0.602   1.153 -1.5030 -0.7113 -1.1067
 8752TIP3   OH226219   5.558   0.552   3.213 -0.3465 -0.1265  0.0357
 8752TIP3    H126220   5.611   0.626   3.244 -0.1839 -0.5582  0.7953
 8752TIP3    H226221   5.597   0.528   3.129 -0.1913  0.4288 -0.0575
 8753TIP3   OH226222   5.677   5.697   3.659 -0.0650  0.2542 -0.2080
 8753TIP3    H126223   5.587   5.677   3.632  0.8783 -2.9286 -1.4690
 8753TIP3    H226224   5.676   5.684   3.754 -1.0426  0.8699 -0.1120
 8754TIP3   OH226225   6.380   2.060   2.564 -0.4748 -0.2543  0.3249
 8754TIP3    H126226   6.362   2.048   2.470 -0.4758  0.5052  0.2259
 8754TIP3    H226227   6.353   2.150   2.582  1.5326  0.3377  0.5665
 8755TIP3   OH226228   6.653   3.608   1.313  0.3065 -0.2409 -0.0163
 8755TIP3    H126229   6.672   3.521   1.278 -0.8872  1.0189 -4.4238
 8755TIP3    H226230   6.586   3.643   1.255 -1.0216  2.8136  3.0232
 8756TIP3   OH226231   2.519   3.614   5.388  0.2645  0.1681 -0.0171
 8756TIP3    H126232   2.556   3.602   5.476 -0.2983 -0.4250  0.1479
 8756TIP3    H226233   2.440   3.560   5.388 -1.0726  2.0178 -0.0784
 8757TIP3   OH226234   1.602   0.487   0.959  0.4417  0.2317  0.4295
 8757TIP3    H126235   1.559   0.505   0.876 -0.4551 -1.2751  0.5272
 8757TIP3    H226236   1.638   0.571   0.986  0.1012  0.9073 -1.1065
 8758TIP3   OH226237   0.769   5.810   5.128  0.0937  0.5610  0.1142
 8758TIP3    H126238   0.781   5.889   5.075 -3.6301 -0.7760 -3.2384
 8758TIP3    H226239   0.831   5.747   5.093  0.8564  1.0206  0.6114
 8759TIP3   OH226240   6.927   3.409   3.664 -0.2300  0.3029  0.3248
 8759TIP3    H126241   6.972   3.493   3.673  0.5676 -0.1792  0.9281
 8759TIP3    H226242   6.958   3.375   3.580 -2.1013  1.4905 -0.9401
 8760TIP3   OH226243   7.058   4.927   0.978  0.2107 -0.3782 -0.3419
 8760TIP3    H126244   7.140   4.895   1.016 -0.6375  1.2848  3.3420
 8760TIP3    H226245   7.085   4.994   0.916  1.6387 -0.7007 -0.1107
 8761TIP3   OH226246   4.626   4.604   4.633  0.3655  0.4830  0.6092
 8761TIP3    H126247   4.653   4.652   4.711  0.5021 -0.4671  1.1667
 8761TIP3    H226248   4.659   4.515   4.647  0.0443  0.2010 -0.3483
 8762TIP3   OH226249   4.353   1.854   0.905 -0.2078  0.1926  0.0941
 8762TIP3    H126250   4.283   1.795   0.878 -0.4503  0.7409 -0.4860
 8762TIP3    H226251   4.410   1.861   0.828 -0.8777  1.7305 -0.2916
 8763TIP3   OH226252   5.433   4.426   4.420 -0.6054  0.1936 -0.3715
 8763TIP3    H126253   5.402   4.506   4.378 -0.3939  0.7354  0.4723
 8763TIP3    H226254   5.377   4.415   4.497 -1.6140 -1.3101 -1.2700
 8764TIP3   OH226255   7.198   1.055   1.334  0.2940  0.1225 -0.1024
 8764TIP3    H126256   7.113   1.086   1.366  0.5465  0.4267  0.2811
 8764TIP3    H226257   7.233   1.002   1.405 -0.3085 -1.4148 -0.9013
 8765TIP3   OH226258   0.658   4.897   4.509 -0.0106 -0.5100 -0.2811
 8765TIP3    H126259   0.598   4.887   4.583 -0.1140  1.1553 -0.1006
 8765TIP3    H226260   0.733   4.944   4.545  0.2871 -0.3534 -1.0734
 8766TIP3   OH226261   2.246   6.191   0.995  0.9794  0.5289  0.1592
 8766TIP3    H126262   2.178   6.185   1.062  0.9006 -0.2844  0.0117
 8766TIP3    H226263   2.324   6.155   1.037  0.2582 -2.8551 -1.0618
 8767TIP3   OH226264   2.988   0.115   5.366  0.2730  0.1269 -0.5423
 8767TIP3    H126265   2.947   0.079   5.445 -0.6621 -2.3864 -2.0513
 8767TIP3    H226266   3.076   0.140   5.394 -0.4633  0.5722  1.5578
 8768TIP3   OH226267   0.657   2.053   1.313 -0.4784 -0.4096  0.7734
 8768TIP3    H126268   0.719   2.072   1.384 -0.1619 -1.9222  0.9426
 8768TIP3    H226269   0.681   2.113   1.243 -0.2423  0.5214  1.6344
 8769TIP3   OH226270   2.324   0.317   2.612  0.2368  0.2539  0.1593
 8769TIP3    H126271   2.412   0.345   2.587  0.2243 -0.3197 -0.5325
 8769TIP3    H226272   2.291   0.390   2.665  0.0117  1.8288 -1.9914
 8770TIP3   OH226273   6.450   0.631   0.695  0.2575 -0.1162  0.2603
 8770TIP3    H126274   6.477   0.540   0.684 -0.7753 -0.3581 -0.4541
 8770TIP3    H226275   6.442   0.665   0.606  0.8789  0.7536  0.5288
 8771TIP3   OH226276   5.154   1.774   4.370 -0.1250 -0.1158 -0.0971
 8771TIP3    H126277   5.102   1.707   4.414  0.6166 -0.8909 -0.3481
 8771TIP3    H226278   5.090   1.833   4.330 -0.8089 -1.1031 -0.4929
 8772TIP3   OH226279   5.104   2.202   4.200  0.3483 -0.0748  0.0093
 8772TIP3    H126280   5.043   2.270   4.171 -0.2183 -0.9482 -0.9381
 8772TIP3    H226281   5.127   2.155   4.120  0.8027 -0.9313  0.6279
 8773TIP3   OH226282   6.440   4.303   2.132  0.1938  0.5811 -0.1606
 8773TIP3    H126283   6.533   4.280   2.140 -0.1004 -0.1969  1.3252
 8773TIP3    H226284   6.426   4.371   2.197 -0.7169 -0.8316  1.1984
 8774TIP3   OH226285   3.963   0.535   3.125 -0.4099  0.4300 -0.4278
 8774TIP3    H126286   3.884   0.485   3.106  0.3275 -0.6426 -0.7376
 8774TIP3    H226287   3.985   0.513   3.215  0.4252 -0.5631 -0.8483
 8775TIP3   OH226288   1.358   3.333   1.635 -0.0733  0.7856  0.3304
 8775TIP3    H126289   1.422   3.370   1.695  0.1976  1.8007 -0.5592
 8775TIP3    H226290   1.335   3.248   1.674  1.8204  0.3798  0.6553
 8776TIP3   OH226291   4.319   2.750   1.892  0.1583 -0.0643 -0.0220
 8776TIP3    H126292   4.413   2.771   1.899 -0.0240  0.7001  0.2184
 8776TIP3    H226293   4.289   2.744   1.982 -0.3983  1.4711 -0.0827
 8777TIP3   OH226294   4.840   5.563   4.949 -0.2330  0.0165 -0.4511
 8777TIP3    H126295   4.814   5.537   4.860  0.9494  0.6457 -0.9974
 8777TIP3    H226296   4.821   5.486   5.003 -0.2075 -0.6661 -1.3966
 8778TIP3   OH226297   6.383   0.807   1.987  0.1516  0.6174  0.4597
 8778TIP3    H126298   6.369   0.902   1.996  0.3180  0.7207 -0.2796
 8778TIP3    H226299   6.313   0.778   1.928 -0.7458  0.0227  1.7681
 8779TIP3   OH226300   5.555   6.635   3.063  0.6952 -0.5083  0.3469
 8779TIP3    H126301   5.630   6.616   3.120  1.3327  1.5792  0.2998
 8779TIP3    H226302   5.594   6.655   2.978  0.1625  0.9575  0.4094
 8780TIP3   OH226303   2.345   4.897   3.325  0.2602 -0.4858  0.0068
 8780TIP3    H126304   2.262   4.922   3.285  0.3633 -2.1113 -1.3063
 8780TIP3    H226305   2.328   4.811   3.365  0.7017  0.2071  1.8221
 8781TIP3   OH226306   3.182   2.607   0.539 -0.1301  0.2756 -0.1923
 8781TIP3    H126307   3.277   2.600   0.525 -0.0576 -2.3229  1.0401
 8781TIP3    H226308   3.173   2.680   0.601  1.0785  0.4347 -0.1610
 8782TIP3   OH226309   2.576   4.843   2.217 -0.0349  0.1023  0.0863
 8782TIP3    H126310   2.512   4.865   2.285  0.3754  2.2409 -0.1696
 8782TIP3    H226311   2.635   4.780   2.259 -0.2997  0.7189  1.4279
 8783TIP3   OH226312   2.524   5.833   0.853  0.1321  0.6638  0.5290
 8783TIP3    H126313   2.432   5.812   0.840  0.4138  0.3160 -1.0868
 8783TIP3    H226314   2.530   5.927   0.837  0.4223  0.2940 -1.8693
 8784TIP3   OH226315   5.134   4.120   1.158 -0.0347 -0.5379 -0.3313
 8784TIP3    H126316   5.155   4.059   1.087  0.1980 -0.0175 -0.7159
 8784TIP3    H226317   5.038   4.119   1.162 -0.0414 -0.7543 -0.4816
 8785TIP3   OH226318   3.544   6.682   3.145  0.2191 -0.3650 -0.4341
 8785TIP3    H126319   3.632   6.676   3.107  0.4064  0.7008 -0.1928
 8785TIP3    H226320   3.547   6.624   3.221  0.5032 -0.8463 -0.8030
 8786TIP3   OH226321   4.245   3.659   0.335 -0.1385  0.1453 -0.4346
 8786TIP3    H126322   4.256   3.572   0.295 -1.5205 -0.6472  0.7682
 8786TIP3    H226323   4.330   3.700   0.328  0.2358 -0.8368 -2.1389
 8787TIP3   OH226324   1.974   5.202   1.126 -0.3460 -0.0835 -1.2263
 8787TIP3    H126325   1.883   5.192   1.098 -1.0479  1.2131  0.4353
 8787TIP3    H226326   2.001   5.114   1.152 -0.8982 -0.5973 -2.3152
 8788TIP3   OH226327   0.927   6.473   5.090  0.2520 -0.3233  0.0495
 8788TIP3    H126328   0.832   6.460   5.096 -0.0935  1.3532 -0.9800
 8788TIP3    H226329   0.937   6.566   5.068  2.0246 -0.9156 -2.0627
 8789TIP3   OH226330   4.547   3.174   1.335  0.0893 -0.0322  0.1162
 8789TIP3    H126331   4.635   3.175   1.298  0.3413  2.3467  0.6587
 8789TIP3    H226332   4.501   3.106   1.285  2.4375 -1.9758  0.4525
 8790TIP3   OH226333   4.362   6.638   2.757 -0.4315  0.4036  0.4624
 8790TIP3    H126334   4.453   6.664   2.766 -0.7560  1.2330  1.5058
 8790TIP3    H226335   4.341   6.592   2.838  0.2065 -3.6575 -1.3811
 8791TIP3   OH226336   5.587   1.093   4.981 -0.0105  0.2394  0.3550
 8791TIP3    H126337   5.655   1.107   5.048  1.3025 -2.3267 -0.3246
 8791TIP3    H226338   5.508   1.073   5.031  0.7108 -0.6591  1.1684
 8792TIP3   OH226339   7.142   4.702   2.751  0.1854  0.0353  0.3812
 8792TIP3    H126340   7.158   4.741   2.837 -0.1859  1.6418 -0.2488
 8792TIP3    H226341   7.207   4.632   2.744  0.6930  0.3519  1.6751
 8793TIP3   OH226342   6.499   1.214   4.974 -0.0297  0.2727 -0.2661
 8793TIP3    H126343   6.589   1.244   4.988  0.2085 -1.2662  1.9865
 8793TIP3    H226344   6.446   1.271   5.030 -0.1418 -0.4317  0.3496
 8794TIP3   OH226345   5.690   1.252   4.242  0.2223 -0.1078  0.5815
 8794TIP3    H126346   5.675   1.345   4.260  0.7186  0.2141 -0.5867
 8794TIP3    H226347   5.723   1.217   4.325 -0.2386  0.6837  1.1214
 8795TIP3   OH226348   5.169   2.666   0.123 -0.1988 -0.1491 -0.2729
 8795TIP3    H126349   5.129   2.740   0.169 -0.9923 -0.9037  0.2875
 8795TIP3    H226350   5.242   2.640   0.179  0.4004  0.5160 -0.7271
 8796TIP3   OH226351   6.635   0.529   5.440  0.8301 -0.2161  0.5604
 8796TIP3    H126352   6.716   0.519   5.391  0.5350 -1.0975  0.2376
 8796TIP3    H226353   6.599   0.441   5.446 -1.1001  0.3862 -1.0353
 8797TIP3   OH226354   2.105   0.220   1.830  0.1743 -0.6051 -0.0104
 8797TIP3    H126355   2.153   0.278   1.890 -0.9001 -2.7984  3.2378
 8797TIP3    H226356   2.015   0.250   1.836  0.1678 -0.3286 -1.2723
 8798TIP3   OH226357   4.970   0.900   2.124  0.1348 -0.0708 -0.3118
 8798TIP3    H126358   5.022   0.904   2.043  0.3815 -1.7474 -0.2664
 8798TIP3    H226359   4.886   0.863   2.097  0.5714 -1.5895  0.3462
 8799TIP3   OH226360   6.265   5.499   1.180 -0.2537 -0.1886  0.1868
 8799TIP3    H126361   6.188   5.539   1.141 -1.9612 -3.3427 -0.0399
 8799TIP3    H226362   6.238   5.476   1.269  0.9291 -0.0569  0.6062
 8800TIP3   OH226363   3.464   6.494   5.076  0.2288  0.1663 -0.0196
 8800TIP3    H126364   3.376   6.515   5.044 -0.4181 -1.5705  0.5169
 8800TIP3    H226365   3.504   6.579   5.093 -2.2908  1.0090  2.2844
 8801TIP3   OH226366   1.355   2.254   5.548  0.2000  0.2759  0.1338
 8801TIP3    H126367   1.352   2.341   5.588 -0.2127  0.6088 -0.5916
 8801TIP3    H226368   1.299   2.262   5.470  0.1205 -0.6517  0.0849
 8802TIP3   OH226369   3.934   5.004   1.370 -0.1327  0.0251 -0.2816
 8802TIP3    H126370   3.858   5.062   1.380  1.5179  2.3545 -0.5909
 8802TIP3    H226371   3.987   5.020   1.448  0.4460 -0.9639 -0.4574
 8803TIP3   OH226372   2.831   0.153   3.171 -0.0910  0.8227 -0.0983
 8803TIP3    H126373   2.750   0.196   3.143 -0.8224  1.3754  2.5659
 8803TIP3    H226374   2.809   0.060   3.177 -0.7703  1.0448  1.2089
 8804TIP3   OH226375   0.444   0.244   4.107  0.4712  0.1469  0.0531
 8804TIP3    H126376   0.485   0.330   4.119 -0.4304  0.1980  4.0294
 8804TIP3    H226377   0.353   0.265   4.084  0.4721  0.2317  0.1254
 8805TIP3   OH226378   1.787   0.289   4.955 -0.6038 -0.2359  0.0903
 8805TIP3    H126379   1.741   0.208   4.980  1.3463 -1.7938 -1.0010
 8805TIP3    H226380   1.769   0.298   4.862 -0.7142  0.5573  0.1855
 8806TIP3   OH226381   3.973   0.969   4.253 -0.1277  0.2778  0.1988
 8806TIP3    H126382   3.991   0.895   4.311 -0.8950  0.1787  0.3123
 8806TIP3    H226383   4.059   0.993   4.219 -0.1092 -2.2211 -1.7893
 8807TIP3   OH226384   0.169   6.565   0.523  0.0764 -0.3825 -0.0416
 8807TIP3    H126385   0.098   6.537   0.581 -1.2821  1.0406 -0.9535
 8807TIP3    H226386   0.190   6.487   0.472 -1.9227 -0.4727 -0.8124
 8808TIP3   OH226387   5.106   5.999   0.316  0.1630  0.0356 -0.6328
 8808TIP3    H126388   5.068   5.985   0.229 -1.4035  0.9630 -0.1441
 8808TIP3    H226389   5.033   5.983   0.377  1.5186 -1.7897  0.6243
 8809TIP3   OH226390   4.707   4.030   0.295 -0.1642  0.4854 -0.7633
 8809TIP3    H126391   4.761   4.083   0.353 -0.7418  0.2322  0.0272
 8809TIP3    H226392   4.628   4.012   0.346 -0.8530  0.5709 -1.7674
 8810TIP3   OH226393   0.709   3.388   2.873  0.3155 -0.5226  0.1636
 8810TIP3    H126394   0.623   3.377   2.915  0.6396  1.5502  1.4771
 8810TIP3    H226395   0.688   3.404   2.781 -0.8498  1.2666  0.6827
 8811TIP3   OH226396   6.945   6.751   1.281  0.1297  0.4683 -0.4701
 8811TIP3    H126397   6.939   6.820   1.215  0.1885  0.0891 -0.8766
 8811TIP3    H226398   6.869   6.765   1.337 -0.2968  0.3871 -1.0141
 8812TIP3   OH226399   7.108   6.729   5.140 -0.5470 -0.1974  0.1463
 8812TIP3    H126400   7.123   6.639   5.109  1.6100  0.3357 -0.5682
 8812TIP3    H226401   7.088   6.778   5.061 -0.5098  0.1704  0.3646
 8813TIP3   OH226402   2.968   0.721   0.267  0.1717  0.0171 -0.5426
 8813TIP3    H126403   3.054   0.709   0.306 -0.1346  1.0849  0.5127
 8813TIP3    H226404   2.908   0.725   0.341 -0.7006 -0.0017 -1.2278
 8814TIP3   OH226405   5.045   2.364   0.363 -0.3550  0.7573  0.0961
 8814TIP3    H126406   4.998   2.445   0.344 -0.2099  0.6735 -0.6632
 8814TIP3    H226407   4.991   2.295   0.323 -0.7133  0.4219  1.1290
 8815TIP3   OH226408   4.119   6.213   4.124  0.0299 -0.1599 -0.3266
 8815TIP3    H126409   4.078   6.190   4.041 -0.4390  0.3441 -0.2397
 8815TIP3    H226410   4.191   6.271   4.101 -0.3195  0.2660 -0.3598
 8816TIP3   OH226411   4.716   2.920   3.723  0.1593 -0.2935 -0.0216
 8816TIP3    H126412   4.744   2.833   3.694 -1.0950 -1.2845  1.5352
 8816TIP3    H226413   4.794   2.958   3.762  0.8727 -0.4712 -1.2314
 8817TIP3   OH226414   1.114   4.731   4.517 -0.3181 -0.1553 -0.0200
 8817TIP3    H126415   1.020   4.737   4.501 -0.5875 -0.2737  1.3743
 8817TIP3    H226416   1.154   4.730   4.430 -1.5867  0.1718 -0.6208
 8818TIP3   OH226417   0.755   5.291   0.101 -0.4878 -0.3922  0.4509
 8818TIP3    H126418   0.774   5.223   0.036 -0.7290  0.6470 -0.7701
 8818TIP3    H226419   0.668   5.323   0.076 -0.4280  0.2765  1.0837
 8819TIP3   OH226420   2.707   4.654   2.361  0.8436  0.3644 -0.3219
 8819TIP3    H126421   2.654   4.608   2.297  1.7426 -0.1282 -0.7205
 8819TIP3    H226422   2.767   4.588   2.396  0.3270  0.5968  1.0861
 8820TIP3   OH226423   3.340   4.243   3.994  0.2207  0.1072 -0.1596
 8820TIP3    H126424   3.317   4.210   3.907  2.1061  1.4606 -1.2641
 8820TIP3    H226425   3.408   4.184   4.025 -0.3844 -0.3188  0.3898
 8821TIP3   OH226426   0.822   2.995   0.095 -0.2391 -0.1896  0.0623
 8821TIP3    H126427   0.881   2.986   0.020 -1.0309  1.1750 -0.7694
 8821TIP3    H226428   0.802   3.088   0.099 -1.3551 -0.4450  1.0938
 8822TIP3   OH226429   6.961   2.362   0.664 -0.3270  0.6030 -0.4589
 8822TIP3    H126430   6.985   2.303   0.735  0.3677  1.3689 -0.0360
 8822TIP3    H226431   6.945   2.304   0.589  0.4690 -0.1187 -0.0945
 8823TIP3   OH226432   3.743   1.996  -0.034  0.2699 -0.3957  0.2874
 8823TIP3    H126433   3.667   2.022   0.018 -0.9750 -0.2638 -1.5156
 8823TIP3    H226434   3.812   1.982   0.031 -0.7698  1.2170  1.8407
 8824TIP3   OH226435   0.557   2.242   5.854  0.0411  0.3823 -0.1940
 8824TIP3    H126436   0.581   2.160   5.895  1.6082  0.6737 -0.4728
 8824TIP3    H226437   0.556   2.306   5.925  1.4005  0.6121 -0.3477
 8825TIP3   OH226438   1.187   0.403   1.331 -0.1706  0.1381 -0.4740
 8825TIP3    H126439   1.123   0.399   1.260 -0.7113 -0.7311  0.0433
 8825TIP3    H226440   1.268   0.372   1.291 -0.5203 -0.5505 -0.6757
 8826TIP3   OH226441   3.606   5.551   0.931  0.0974  0.2350 -0.1526
 8826TIP3    H126442   3.591   5.577   0.840 -2.6734 -1.7919 -0.4248
 8826TIP3    H226443   3.627   5.632   0.977 -1.6074  1.8649 -2.0618
 8827TIP3   OH226444   6.758   5.108   1.981 -0.1184 -0.0768  0.1937
 8827TIP3    H126445   6.772   5.014   1.970 -0.6167 -0.1726  0.3476
 8827TIP3    H226446   6.839   5.149   1.951  0.5716 -0.6272  1.2560
 8828TIP3   OH226447   5.801   1.050   2.627  0.1414  0.0701  0.8001
 8828TIP3    H126448   5.792   1.137   2.665 -0.3046 -0.0157  0.8927
 8828TIP3    H226449   5.712   1.018   2.618  0.2764 -0.1761  0.2925
 8829TIP3   OH226450   3.053   2.271   3.907  0.3548  0.3198 -0.3187
 8829TIP3    H126451   3.017   2.343   3.959  0.2895 -0.4313  0.6889
 8829TIP3    H226452   3.143   2.261   3.939  0.1058 -0.5761  0.1188
 8830TIP3   OH226453   4.120   2.917   1.334 -0.1443 -0.0044  0.3687
 8830TIP3    H126454   4.137   2.824   1.342  0.5987 -0.0759 -1.4663
 8830TIP3    H226455   4.038   2.931   1.381 -0.4965 -1.6573  0.2998
 8831TIP3   OH226456   2.422   6.553   2.622  0.3854  0.3522  0.5028
 8831TIP3    H126457   2.515   6.533   2.614  0.5980  1.2015  0.7240
 8831TIP3    H226458   2.407   6.560   2.717 -0.6966 -3.2349  0.7490
 8832TIP3   OH226459   0.189   4.871   3.607  0.1518 -0.3848 -0.5442
 8832TIP3    H126460   0.271   4.852   3.561  0.3680  0.6371 -0.5876
 8832TIP3    H226461   0.170   4.962   3.586  0.1809  0.0666  1.2921
 8833TIP3   OH226462   5.759   3.264   2.943  0.3148  0.1205  0.1624
 8833TIP3    H126463   5.703   3.186   2.942  0.2302  0.1834 -0.0005
 8833TIP3    H226464   5.832   3.241   3.000 -0.6811  0.5834  1.6822
 8834TIP3   OH226465   3.571   0.542   2.184 -0.2441 -0.4450  0.2944
 8834TIP3    H126466   3.653   0.591   2.174 -0.7375  0.7288  1.7127
 8834TIP3    H226467   3.587   0.459   2.139  1.5238 -0.0195  0.0717
 8835TIP3   OH226468   2.532   5.620   5.807  0.2626 -0.3878  0.2779
 8835TIP3    H126469   2.450   5.647   5.766  0.2690  0.0338  0.5359
 8835TIP3    H226470   2.512   5.612   5.900  0.1563 -1.7042  0.1599
 8836TIP3   OH226471   3.712   4.621   4.993 -0.2166  0.0522 -0.2398
 8836TIP3    H126472   3.639   4.629   5.055 -1.6943 -1.7283 -1.5910
 8836TIP3    H226473   3.731   4.710   4.966 -3.8882  0.5047 -1.9210
 8837TIP3   OH226474   2.184   6.051   2.839  0.2050  0.2279 -0.0729
 8837TIP3    H126475   2.128   6.060   2.916 -0.1776 -0.9237 -0.1903
 8837TIP3    H226476   2.224   6.137   2.828  0.2931  0.4105  1.4249
 8838TIP3   OH226477   0.837   3.651   5.635  0.3867 -0.0481 -0.8057
 8838TIP3    H126478   0.906   3.625   5.574  1.2487  1.2005 -0.3927
 8838TIP3    H226479   0.808   3.737   5.604  0.3830  0.3085  0.1571
 8839TIP3   OH226480   5.544   4.165   2.649  0.0268 -0.1907 -0.6580
 8839TIP3    H126481   5.499   4.157   2.564  0.8027 -1.9006 -0.9488
 8839TIP3    H226482   5.590   4.248   2.643  1.1920 -0.8946 -2.5127
 8840TIP3   OH226483   2.318   1.380   3.826  0.3367  0.9393  0.2520
 8840TIP3    H126484   2.326   1.291   3.792  0.2806  1.2261 -0.5256
 8840TIP3    H226485   2.389   1.429   3.783 -0.5643  1.6174 -0.4970
 8841TIP3   OH226486   4.598   4.515   3.357  0.5464  0.0034 -0.4472
 8841TIP3    H126487   4.598   4.450   3.287  1.4678  1.3810 -1.8009
 8841TIP3    H226488   4.566   4.595   3.315 -0.6058  0.4480  1.1850
 8842TIP3   OH226489   4.836   4.132   4.489 -0.2592 -0.4451 -0.1757
 8842TIP3    H126490   4.829   4.085   4.572  1.4277 -0.8076 -0.2150
 8842TIP3    H226491   4.910   4.192   4.501 -1.0000  0.6553 -0.8800
 8843TIP3   OH226492   4.362   3.781   2.836  0.5986 -0.3034 -0.2032
 8843TIP3    H126493   4.360   3.735   2.920  0.0453 -1.5763 -0.8947
 8843TIP3    H226494   4.449   3.760   2.800  0.4820 -0.5187 -0.3598
 8844TIP3   OH226495   5.460   6.635   4.369 -0.2647 -0.0581  0.4857
 8844TIP3    H126496   5.446   6.637   4.274 -0.5113  1.9478  0.5326
 8844TIP3    H226497   5.388   6.685   4.406 -0.9133 -1.9138  1.8827
 8845TIP3   OH226498   5.410   1.803   3.590 -0.1875 -0.5081 -0.1809
 8845TIP3    H126499   5.325   1.779   3.626  0.6218 -2.2196  0.6802
 8845TIP3    H226500   5.458   1.721   3.583  1.2182  0.3495 -1.1566
 8846TIP3   OH226501   6.208   6.222   0.408  0.8224 -0.4618 -0.2151
 8846TIP3    H126502   6.167   6.217   0.494  1.3725  2.3958  0.3288
 8846TIP3    H226503   6.255   6.140   0.398 -1.3429 -1.9476  1.0577
 8847TIP3   OH226504   6.144   0.753   1.511  0.1622 -0.4349 -0.4428
 8847TIP3    H126505   6.222   0.707   1.479  0.5215  0.6983 -1.2732
 8847TIP3    H226506   6.118   0.809   1.439 -1.6570 -1.0261 -0.3045
 8848TIP3   OH226507   6.575   3.782   1.088 -0.9720  0.4422 -0.5747
 8848TIP3    H126508   6.544   3.873   1.094 -3.3399 -0.4064  1.9714
 8848TIP3    H226509   6.552   3.755   0.999 -2.0874  1.7441 -0.7171
 8849TIP3   OH226510   1.601   2.618   2.300  0.5207 -0.4125  0.1951
 8849TIP3    H126511   1.631   2.687   2.358  2.3025 -1.1634  0.2413
 8849TIP3    H226512   1.531   2.658   2.249  0.5668  0.9852  1.1722
 8850TIP3   OH226513   3.922   1.493   0.761 -0.2819 -0.1118 -0.4822
 8850TIP3    H126514   3.937   1.436   0.686  0.9291 -1.5406  0.7565
 8850TIP3    H226515   4.000   1.481   0.816 -0.7418  1.5187  0.6043
 8851TIP3   OH226516   1.477   5.692   2.048 -0.1885  0.2637 -0.3648
 8851TIP3    H126517   1.456   5.639   1.971  0.3803  0.6588 -0.7912
 8851TIP3    H226518   1.516   5.772   2.013  2.6096 -0.6656  0.3725
 8852TIP3   OH226519   0.410   4.502   1.656 -0.0969 -0.2451 -0.5020
 8852TIP3    H126520   0.480   4.463   1.709  0.6456 -0.5765 -1.6960
 8852TIP3    H226521   0.392   4.438   1.588 -0.9320  0.2444 -0.7594
 8853TIP3   OH226522   6.728   2.742   4.301  0.0609 -0.6069 -0.1282
 8853TIP3    H126523   6.711   2.648   4.305 -2.1180 -0.2908 -0.6848
 8853TIP3    H226524   6.756   2.757   4.210  0.1296 -0.6681 -0.1180
 8854TIP3   OH226525   2.758   2.192   0.174  0.4456 -0.2836 -0.1984
 8854TIP3    H126526   2.787   2.191   0.265  0.0919  0.1929 -0.0758
 8854TIP3    H226527   2.664   2.208   0.179  0.0967 -2.1103 -0.5833
 8855TIP3   OH226528   0.767   2.289   1.724  0.0861 -0.4060 -0.1916
 8855TIP3    H126529   0.710   2.349   1.675 -0.9338 -0.2608  1.1043
 8855TIP3    H226530   0.836   2.345   1.760  0.7838 -0.4986 -1.3358
 8856TIP3   OH226531   0.767   3.911   5.578 -0.3481  0.0408  0.7721
 8856TIP3    H126532   0.729   3.922   5.491 -2.1244  0.7823  1.5870
 8856TIP3    H226533   0.698   3.938   5.638  0.7584 -0.6443  2.4384
 8857TIP3   OH226534   4.004   5.585   3.237 -0.1310  0.0583 -1.0302
 8857TIP3    H126535   3.959   5.669   3.234 -0.4014 -0.0146  0.4093
 8857TIP3    H226536   3.980   5.547   3.321 -0.0930 -1.5199 -1.6935
 8858TIP3   OH226537   1.271   6.309   5.790 -0.3712  0.1540 -0.6062
 8858TIP3    H126538   1.307   6.353   5.713  0.8729 -0.5883 -0.4635
 8858TIP3    H226539   1.182   6.285   5.765 -0.5226  1.3140 -1.2468
 8859TIP3   OH226540   3.758   2.207   2.808 -0.3232 -0.2936  0.5082
 8859TIP3    H126541   3.741   2.223   2.901  1.3862 -1.4076  1.0488
 8859TIP3    H226542   3.823   2.136   2.807  0.6099  0.5259 -1.5130
 8860TIP3   OH226543   0.994   0.903   0.152  0.1626 -0.1931  0.3243
 8860TIP3    H126544   0.989   0.998   0.138  0.2120 -0.4433 -1.7024
 8860TIP3    H226545   1.022   0.894   0.243  0.4843  1.7464  0.4684
 8861TIP3   OH226546   1.851   1.042   2.872 -0.3947 -0.0744  0.3534
 8861TIP3    H126547   1.859   1.127   2.829  1.6134 -0.1588  0.4904
 8861TIP3    H226548   1.884   0.980   2.807 -0.6014 -0.6039  0.7535
 8862TIP3   OH226549   2.942   6.563   0.217  0.1979 -0.4662  0.3336
 8862TIP3    H126550   2.874   6.507   0.252 -0.2427  0.2868  0.7046
 8862TIP3    H226551   2.931   6.558   0.122 -0.2611 -0.4841  0.3895
 8863TIP3   OH226552   3.510   4.675   2.298 -0.0956 -0.0969  0.5213
 8863TIP3    H126553   3.535   4.737   2.367 -2.3423  1.1644  0.3118
 8863TIP3    H226554   3.464   4.729   2.234 -0.9881 -1.8062 -0.3284
 8864TIP3   OH226555   0.379   5.147   1.975 -0.5010 -0.0325  0.2340
 8864TIP3    H126556   0.375   5.052   1.982  0.2769 -0.1155 -0.2884
 8864TIP3    H226557   0.440   5.173   2.045  1.9144 -0.2512 -1.6375
 8865TIP3   OH226558   2.895   5.294   5.846 -0.5202  0.4851  0.1642
 8865TIP3    H126559   2.867   5.273   5.935  1.7260 -0.9597  0.5807
 8865TIP3    H226560   2.973   5.348   5.857  1.0318 -1.4248 -0.8463
 8866TIP3   OH226561   3.570   1.028   2.268  0.0118 -0.5341  0.2121
 8866TIP3    H126562   3.644   1.083   2.292  0.0810 -0.7037  0.3864
 8866TIP3    H226563   3.499   1.058   2.325  0.0953 -0.7349  0.4276
 8867TIP3   OH226564   3.638   3.628   4.099 -0.0955  0.0999  0.3830
 8867TIP3    H126565   3.631   3.620   4.003 -0.3111  1.3807  0.2752
 8867TIP3    H226566   3.727   3.598   4.119 -0.7333 -2.2467  0.0627
 8868TIP3   OH226567   0.578   2.954   0.968 -0.1243  0.6742 -0.1082
 8868TIP3    H126568   0.604   2.868   0.935  1.1614  0.4926  1.2487
 8868TIP3    H226569   0.549   3.003   0.891 -0.5735 -0.8632 -0.9414
 8869TIP3   OH226570   4.964   1.774   2.711  0.2818 -0.3952  0.1309
 8869TIP3    H126571   4.995   1.863   2.696 -1.0715 -0.2505 -2.5833
 8869TIP3    H226572   4.930   1.775   2.801  0.0090  1.9307  0.0751
 8870TIP3   OH226573   2.894   1.277   4.655 -0.1432 -0.2195  0.4761
 8870TIP3    H126574   2.965   1.241   4.602  1.0334  0.0418  1.8178
 8870TIP3    H226575   2.937   1.309   4.735 -1.6345  0.8981  0.8767
 8871TIP3   OH226576   4.997   3.685   2.731  0.7315 -0.2791  0.3692
 8871TIP3    H126577   4.957   3.602   2.753  1.0117 -0.3724  0.5334
 8871TIP3    H226578   5.091   3.667   2.729  0.8112  0.0815  0.6395
 8872TIP3   OH226579   6.439   3.438   4.961  0.0795 -0.3249  0.5079
 8872TIP3    H126580   6.348   3.413   4.943  0.7097 -1.3280 -1.6283
 8872TIP3    H226581   6.451   3.421   5.054 -1.6546 -1.0487  0.6343
 8873TIP3   OH226582   2.826   6.064   4.130 -0.0986 -0.4522  0.1382
 8873TIP3    H126583   2.889   6.006   4.086  0.3968 -0.3133  0.6542
 8873TIP3    H226584   2.742   6.045   4.087  0.5085  0.2871 -1.4498
 8874TIP3   OH226585   1.828   6.586   0.748  0.0768 -0.2314 -0.4046
 8874TIP3    H126586   1.906   6.607   0.799  1.6265 -1.9068 -1.9272
 8874TIP3    H226587   1.785   6.670   0.734 -0.3272  0.3529  3.3092
 8875TIP3   OH226588   1.807   4.131   5.661 -0.2378 -0.4670  0.2566
 8875TIP3    H126589   1.853   4.128   5.577 -0.3136 -0.2062  0.2062
 8875TIP3    H226590   1.863   4.186   5.716 -0.5069 -0.1253  0.1864
 8876TIP3   OH226591   4.285   4.001   0.575 -0.6224 -0.0530  0.3974
 8876TIP3    H126592   4.262   4.022   0.665 -1.4323 -1.9577  0.6858
 8876TIP3    H226593   4.205   4.016   0.525 -0.4716  0.0296  0.1776
 8877TIP3   OH226594   5.180   4.095   5.312 -0.0662 -0.0342  0.0747
 8877TIP3    H126595   5.258   4.149   5.323 -0.2653  0.5666 -1.2250
 8877TIP3    H226596   5.148   4.118   5.225 -0.8701 -1.3370  0.0042
 8878TIP3   OH226597   5.025   1.047   3.375  0.2964  0.4225 -0.4670
 8878TIP3    H126598   4.978   1.120   3.415 -0.5306 -0.3070 -0.0869
 8878TIP3    H226599   4.969   1.021   3.302  0.6938  0.2982 -0.7266
 8879TIP3   OH226600   7.050   1.584   0.692  0.0697 -0.0311 -0.0779
 8879TIP3    H126601   7.113   1.574   0.621  1.4370  0.2538  1.0443
 8879TIP3    H226602   7.090   1.650   0.750 -0.9523 -0.3217  0.9918
 8880TIP3   OH226603   3.837   1.863   4.260  0.0327  0.5971  0.4313
 8880TIP3    H126604   3.783   1.937   4.288  0.2183 -0.0017  2.5480
 8880TIP3    H226605   3.926   1.890   4.281  0.4967  1.0643 -1.8727
 8881TIP3   OH226606   5.664   3.901   2.997  0.1866 -0.5497 -0.0794
 8881TIP3    H126607   5.623   3.914   3.082  3.1228  0.2062  1.3672
 8881TIP3    H226608   5.673   3.989   2.961  0.9941 -0.6332 -0.1048
 8882TIP3   OH226609   2.073   4.444   5.079 -0.1968  0.8541 -0.8877
 8882TIP3    H126610   2.000   4.451   5.018 -2.3848 -0.6880  1.3472
 8882TIP3    H226611   2.076   4.529   5.122  1.0115  1.7637 -2.6464
 8883TIP3   OH226612   1.296   1.226   3.600  0.4535  0.4642  0.1240
 8883TIP3    H126613   1.317   1.257   3.688  2.1321 -0.5814  0.1361
 8883TIP3    H226614   1.381   1.203   3.562 -0.2766  0.5650 -1.6542
 8884TIP3   OH226615   4.263   5.960   4.104  0.3008  0.2145  0.3673
 8884TIP3    H126616   4.263   6.025   4.034 -1.2731  1.2815  1.3113
 8884TIP3    H226617   4.197   5.896   4.078 -1.1446  1.2507  1.4134
 8885TIP3   OH226618   3.133   4.896   2.342 -0.9496  0.4125 -0.0065
 8885TIP3    H126619   3.194   4.868   2.275  0.2670  3.8278 -0.4899
 8885TIP3    H226620   3.073   4.956   2.297 -1.1833  1.4140  1.5627
 8886TIP3   OH226621   2.585   6.201   1.375 -0.1217 -0.1128 -0.5076
 8886TIP3    H126622   2.657   6.236   1.323 -0.5373 -0.2323 -1.1900
 8886TIP3    H226623   2.626   6.144   1.439  0.5200  1.0793  0.1889
 8887TIP3   OH226624   4.028   6.604   3.886  0.1143  0.6138  0.2331
 8887TIP3    H126625   4.056   6.680   3.936 -1.9670  0.5136  1.6567
 8887TIP3    H226626   3.979   6.641   3.812  0.4660  0.6798  0.0298
 8888TIP3   OH226627   3.306   3.707   2.562  0.6612  0.2426  0.1249
 8888TIP3    H126628   3.372   3.719   2.493 -1.0748  0.5683 -1.5370
 8888TIP3    H226629   3.279   3.796   2.586 -0.8752  0.0772 -0.9240
 8889TIP3   OH226630   7.030   3.898   3.990  0.1457 -0.0735  0.0353
 8889TIP3    H126631   7.022   3.912   4.084 -0.4340  0.7166 -0.1282
 8889TIP3    H226632   6.992   3.811   3.976  0.1986 -0.1803  0.5167
 8890TIP3   OH226633   3.238   2.791   4.156 -0.0191 -1.2076  0.0418
 8890TIP3    H126634   3.222   2.698   4.145  0.1088 -1.0401 -1.9095
 8890TIP3    H226635   3.152   2.832   4.150 -0.0617 -1.1810  0.7685
 8891TIP3   OH226636   5.500   0.720   0.481 -0.7581 -0.6345 -0.1560
 8891TIP3    H126637   5.592   0.703   0.463 -0.2559  1.5232  0.0392
 8891TIP3    H226638   5.481   0.674   0.562  0.3840 -0.4672  0.2124
 8892TIP3   OH226639   3.827   5.791   3.205  0.4412 -0.5103  0.3346
 8892TIP3    H126640   3.756   5.740   3.245 -1.6816  1.5918 -0.5007
 8892TIP3    H226641   3.788   5.877   3.188  3.0414  0.5513 -0.7549
 8893TIP3   OH226642   5.160   0.774   4.754 -0.0934  0.1644  0.5988
 8893TIP3    H126643   5.175   0.685   4.787 -1.8967 -2.1510 -3.9768
 8893TIP3    H226644   5.072   0.797   4.784 -0.2545 -0.3161  0.4989
 8894TIP3   OH226645   0.808   2.603   1.429 -0.1930 -0.0766  0.3718
 8894TIP3    H126646   0.812   2.670   1.361  1.1060  1.3993  1.7989
 8894TIP3    H226647   0.791   2.652   1.509 -0.2945 -1.5961  1.3277
 8895TIP3   OH226648   0.076   6.476   1.471  0.3345  0.0493  0.2407
 8895TIP3    H126649   0.022   6.463   1.393 -1.3134  2.8871  0.8134
 8895TIP3    H226650   0.165   6.486   1.436 -0.2620  0.5654 -1.2332
 8896TIP3   OH226651   3.471   6.369   5.845 -0.5072 -0.1672 -0.5059
 8896TIP3    H126652   3.487   6.278   5.871 -1.5157 -0.8075 -1.9673
 8896TIP3    H226653   3.486   6.369   5.750 -1.3184  1.0085 -0.6444
 8897TIP3   OH226654   4.812   0.456   5.802  0.0822  0.7623  0.2429
 8897TIP3    H126655   4.720   0.453   5.775 -0.1148 -0.9154  0.9711
 8897TIP3    H226656   4.815   0.523   5.870 -0.5010  1.1703 -0.1274
 8898TIP3   OH226657   6.836   2.456   5.159  0.0650  0.0472  0.0563
 8898TIP3    H126658   6.836   2.449   5.254  1.8984  0.1254  0.1087
 8898TIP3    H226659   6.877   2.375   5.128 -3.3282 -1.4923 -0.9280
 8899TIP3   OH226660   0.503   6.259   4.382  0.3708 -0.3969  0.0747
 8899TIP3    H126661   0.431   6.265   4.319  1.4004 -1.1299 -1.2275
 8899TIP3    H226662   0.582   6.269   4.329  1.2657 -0.5363  1.3391
 8900TIP3   OH226663   1.995   1.019   2.235  0.2437 -0.1803  0.0118
 8900TIP3    H126664   2.079   1.052   2.204 -0.7873  0.1400 -2.7790
 8900TIP3    H226665   2.016   0.966   2.311  2.8545  0.5374 -0.1182
 8901TIP3   OH226666   0.334   5.533   3.925  0.6063  0.0753  0.1468
 8901TIP3    H126667   0.331   5.557   4.017  0.6976 -0.6628  0.3522
 8901TIP3    H226668   0.342   5.616   3.878 -2.5198  0.7686  0.6134
 8902TIP3   OH226669   0.286   5.839   5.357 -0.0559 -0.8714  0.0908
 8902TIP3    H126670   0.299   5.751   5.322  3.0537 -1.2250  1.7506
 8902TIP3    H226671   0.278   5.827   5.451  0.4927  0.6104  0.3556
 8903TIP3   OH226672   2.478   2.076   2.260 -0.4167  0.7839  0.2779
 8903TIP3    H126673   2.393   2.077   2.216  0.1898  1.4468 -0.9446
 8903TIP3    H226674   2.539   2.109   2.194  0.5918  1.5676  1.5500
 8904TIP3   OH226675   4.053   2.388   1.096 -0.5117  0.2857 -0.1542
 8904TIP3    H126676   4.125   2.403   1.035  0.5581 -0.5890  0.8658
 8904TIP3    H226677   4.027   2.297   1.080  0.1458 -0.1304  1.0479
 8905TIP3   OH226678   3.952   4.181   5.641 -0.0985 -0.3112  0.3675
 8905TIP3    H126679   3.875   4.194   5.697 -1.6802  0.2277 -1.7596
 8905TIP3    H226680   3.976   4.089   5.654 -1.5799 -0.7055  0.5898
 8906TIP3   OH226681   5.632   2.307   1.028 -0.3984  0.1965 -0.1880
 8906TIP3    H126682   5.612   2.357   1.107 -1.7990 -0.5675 -0.0309
 8906TIP3    H226683   5.726   2.320   1.016 -0.2084  0.6054  1.4023
 8907TIP3   OH226684   2.538   5.769   3.706 -0.1713 -0.2715  0.0924
 8907TIP3    H126685   2.455   5.752   3.661 -0.6909 -0.4049  1.0588
 8907TIP3    H226686   2.520   5.747   3.798  1.7776 -3.1302 -0.1063
 8908TIP3   OH226687   3.308   2.808   2.270 -0.4376 -0.0390  1.0269
 8908TIP3    H126688   3.285   2.719   2.299 -0.3863 -1.2116 -2.0909
 8908TIP3    H226689   3.225   2.846   2.241 -0.1072 -0.0963 -0.0420
 8909TIP3   OH226690   2.398   5.793   1.194 -0.0599  0.2149  0.1349
 8909TIP3    H126691   2.404   5.737   1.117 -1.1604  0.8095 -0.4002
 8909TIP3    H226692   2.369   5.734   1.264  1.0970 -0.3593  0.1613
 8910TIP3   OH226693   0.012   2.706   2.885  0.1845 -0.0975  0.7159
 8910TIP3    H126694   0.099   2.694   2.923  0.2422 -0.0591  0.5940
 8910TIP3    H226695  -0.020   2.787   2.925  0.5066  0.2936  0.1932
 8911TIP3   OH226696   3.686   0.707   1.571 -0.4446  0.2976  0.3024
 8911TIP3    H126697   3.658   0.755   1.649 -1.3639  0.8869 -0.3753
 8911TIP3    H226698   3.613   0.649   1.551 -1.2835  1.8950 -1.5162
 8912TIP3   OH226699   3.737   1.003   3.224 -0.0101 -0.1768 -0.2104
 8912TIP3    H126700   3.779   0.923   3.193  1.0232  0.2638  0.0104
 8912TIP3    H226701   3.667   1.019   3.161  1.1319 -0.0740 -1.5062
 8913TIP3   OH226702   1.736   1.735   1.350  0.4493 -0.8326  0.0134
 8913TIP3    H126703   1.702   1.660   1.301 -2.0737  1.3062 -1.7803
 8913TIP3    H226704   1.827   1.745   1.320  0.3564 -2.2580 -0.8085
 8914TIP3   OH226705   6.556   5.548   5.459 -0.5787  0.0731  0.5082
 8914TIP3    H126706   6.515   5.471   5.498  0.6634 -0.5319  0.6653
 8914TIP3    H226707   6.554   5.614   5.528  1.3235 -0.8924  1.5888
 8915TIP3   OH226708   7.180   1.571   2.792  0.1117 -0.2913  0.1616
 8915TIP3    H126709   7.131   1.517   2.854 -0.0716  1.5640  1.7346
 8915TIP3    H226710   7.161   1.532   2.706 -2.1818 -1.0737  0.9341
 8916TIP3   OH226711   2.011   0.156   4.670 -0.5162 -0.0462 -0.2361
 8916TIP3    H126712   2.038   0.240   4.707 -1.0839 -0.1581  0.4518
 8916TIP3    H226713   2.076   0.138   4.602  1.2699 -0.3966  1.4486
 8917TIP3   OH226714   4.604   3.160   2.559 -0.7765  0.1296 -0.7114
 8917TIP3    H126715   4.570   3.076   2.529 -1.4108  0.6484 -1.4995
 8917TIP3    H226716   4.545   3.225   2.520 -1.5719  0.8719  1.5583
 8918TIP3   OH226717   0.384   6.411   4.572  0.1245  0.4272 -0.0517
 8918TIP3    H126718   0.461   6.367   4.536  0.1563 -0.2047  0.7637
 8918TIP3    H226719   0.391   6.500   4.540 -0.1906 -0.2450 -2.1461
 8919TIP3   OH226720   6.259   4.884   0.273  0.6146 -0.1865 -0.0786
 8919TIP3    H126721   6.187   4.823   0.288  0.8911 -0.0684  2.0298
 8919TIP3    H226722   6.313   4.843   0.206 -2.1573  0.4306 -2.9503
 8920TIP3   OH226723   1.350   0.257   5.305  0.1602  0.4025  0.5316
 8920TIP3    H126724   1.410   0.184   5.291  1.2518  1.4735 -0.6650
 8920TIP3    H226725   1.284   0.247   5.236 -0.8737 -0.5438  1.6000
 8921TIP3   OH226726   6.337   4.246   4.203  0.1914 -0.0687  0.5540
 8921TIP3    H126727   6.314   4.263   4.295  0.0210 -1.0088  0.6963
 8921TIP3    H226728   6.415   4.191   4.207  0.3207  0.0800  0.1276
 8922TIP3   OH226729   0.554   5.602   3.138 -0.3709 -0.5247  0.1703
 8922TIP3    H126730   0.640   5.627   3.104 -1.1037  0.2030 -1.2489
 8922TIP3    H226731   0.556   5.506   3.140  0.5315 -0.5115  0.3509
 8923TIP3   OH226732   0.412   6.672   1.903 -0.2946 -0.0995 -0.4655
 8923TIP3    H126733   0.495   6.641   1.937 -1.4491 -2.0177  0.7857
 8923TIP3    H226734   0.361   6.592   1.888 -2.7621  1.0622  1.0999
 8924TIP3   OH226735   3.420   1.715   4.922  0.5612 -0.0933  0.4245
 8924TIP3    H126736   3.451   1.625   4.924  0.7735 -0.0792 -0.9953
 8924TIP3    H226737   3.398   1.731   4.830  1.9626  1.7647  0.3505
 8925TIP3   OH226738   1.278   6.752   3.978  0.3149  0.1742  0.6650
 8925TIP3    H126739   1.315   6.763   3.890 -0.7364 -1.2225  0.0079
 8925TIP3    H226740   1.203   6.812   3.980  0.0952 -0.0871  0.4426
 8926TIP3   OH226741   5.860   4.725   1.461 -0.3551  0.1909  0.3180
 8926TIP3    H126742   5.772   4.687   1.470 -1.4675  2.5327  0.1058
 8926TIP3    H226743   5.844   4.815   1.433  2.1941  0.2949 -1.0455
 8927TIP3   OH226744   3.567   0.541   4.895 -0.0008  0.0312  0.0792
 8927TIP3    H126745   3.552   0.600   4.821 -3.2418 -0.5991  0.0920
 8927TIP3    H226746   3.646   0.575   4.937 -0.6346  3.1717 -1.0240
 8928TIP3   OH226747   2.450   3.153   2.356 -0.3252 -0.4483 -0.3614
 8928TIP3    H126748   2.405   3.152   2.272  0.2600 -2.1135 -0.7098
 8928TIP3    H226749   2.446   3.062   2.386  0.7057 -0.1663  0.7181
 8929TIP3   OH226750   1.942   6.496   4.661  0.2575 -0.1262 -0.1089
 8929TIP3    H126751   1.995   6.576   4.658  0.1191  0.0296  1.1659
 8929TIP3    H226752   1.982   6.439   4.595  2.2343 -0.1355  1.0068
 8930TIP3   OH226753   1.886   4.431   5.536 -0.5812  0.3495 -0.4258
 8930TIP3    H126754   1.922   4.504   5.487 -0.7739  0.7396  0.0092
 8930TIP3    H226755   1.829   4.471   5.602 -0.6783 -0.1868 -0.1733
 8931TIP3   OH226756   5.345   4.723   4.534 -0.3252  0.0325  0.3237
 8931TIP3    H126757   5.391   4.689   4.457  0.1853 -1.5524  1.2863
 8931TIP3    H226758   5.407   4.712   4.606 -1.7480 -0.9813  1.4277
 8932TIP3   OH226759   4.000   2.113   1.033 -0.6823 -0.0820 -0.0243
 8932TIP3    H126760   4.091   2.084   1.044 -0.7000  0.3796  1.5532
 8932TIP3    H226761   3.953   2.072   1.106 -1.9483 -1.0708 -1.3418
 8933TIP3   OH226762   4.641   6.576   4.095 -0.1786 -1.1168  0.5546
 8933TIP3    H126763   4.685   6.508   4.147 -0.6970 -0.0937  2.4398
 8933TIP3    H226764   4.707   6.603   4.031  2.0857  0.3155  3.2341
 8934TIP3   OH226765   1.216   6.035   0.198 -0.3264 -0.2730 -0.2212
 8934TIP3    H126766   1.223   6.028   0.293 -1.7029 -0.2806 -0.0994
 8934TIP3    H226767   1.189   6.125   0.182 -0.7753 -0.4587 -0.5460
 8935TIP3   OH226768   6.960   5.320   0.455  0.1743 -0.0324  0.2561
 8935TIP3    H126769   7.022   5.390   0.432 -0.4577  0.1962 -0.8429
 8935TIP3    H226770   6.932   5.285   0.370 -1.0587 -0.2479  0.7408
 8936TIP3   OH226771   5.591   5.536   1.150  0.4534  0.1844  0.1465
 8936TIP3    H126772   5.602   5.627   1.121  0.7330  0.5149  1.2265
 8936TIP3    H226773   5.563   5.489   1.072  3.3122  0.5653 -1.2289
 8937TIP3   OH226774   6.040   4.596   1.006 -0.3818  0.0920  0.2877
 8937TIP3    H126775   6.071   4.668   1.062 -0.3010  0.7097 -0.5334
 8937TIP3    H226776   5.949   4.585   1.031 -0.4334  0.5764  0.3311
 8938TIP3   OH226777   4.649   6.450   5.095 -0.4731 -0.4948 -0.1085
 8938TIP3    H126778   4.566   6.472   5.055 -0.3306  1.1328  0.4010
 8938TIP3    H226779   4.643   6.486   5.184  1.6925  2.0925 -0.8732
 8939TIP3   OH226780   6.042   4.871   3.808 -0.8424  0.4202 -0.8052
 8939TIP3    H126781   6.061   4.850   3.716 -3.3756  1.3175 -1.6202
 8939TIP3    H226782   5.978   4.942   3.804  1.1235  2.5641  1.7391
 8940TIP3   OH226783   3.928   0.483   0.184  0.5598  0.4852 -0.0405
 8940TIP3    H126784   3.926   0.579   0.177  0.9892  0.6826  1.9071
 8940TIP3    H226785   3.948   0.466   0.276 -2.2125 -1.5015  0.3169
 8941TIP3   OH226786   1.573   4.611   1.099 -0.9533  0.0033  0.0475
 8941TIP3    H126787   1.613   4.696   1.115  0.0368 -0.5071  0.3739
 8941TIP3    H226788   1.504   4.629   1.035 -0.0598  0.8833 -0.7073
 8942TIP3   OH226789   2.491   1.796   1.459  0.1486 -0.3092 -0.3052
 8942TIP3    H126790   2.466   1.840   1.379 -1.2545  0.1782  0.3708
 8942TIP3    H226791   2.578   1.830   1.480  0.8223 -0.9544 -1.9520
 8943TIP3   OH226792   0.669   3.527   4.016  0.3671  0.3673 -0.0709
 8943TIP3    H126793   0.604   3.554   4.080 -0.9959  1.0273 -1.6361
 8943TIP3    H226794   0.629   3.549   3.931  2.3946  0.2593 -1.1169
 8944TIP3   OH226795   1.382   4.280   3.106 -0.1877 -0.4828 -0.0979
 8944TIP3    H126796   1.424   4.353   3.151 -0.3527 -0.5697  0.1994
 8944TIP3    H226797   1.302   4.318   3.068 -0.9615 -0.7800  1.1622
 8945TIP3   OH226798   3.538   5.676   1.759  0.8265  0.6709 -0.4121
 8945TIP3    H126799   3.579   5.753   1.719 -0.1342  2.1431  1.2817
 8945TIP3    H226800   3.479   5.712   1.825 -0.1125 -1.5251  0.0414
 8946TIP3   OH226801   3.451   1.810   4.348  0.1268 -0.3526 -0.2033
 8946TIP3    H126802   3.529   1.791   4.401 -0.9192  1.5654  2.1899
 8946TIP3    H226803   3.424   1.724   4.314  1.5593 -1.5015  1.4034
 8947TIP3   OH226804   7.054   3.791   0.951 -0.3519  0.3272 -0.1672
 8947TIP3    H126805   7.082   3.764   1.038  1.2601  0.9873 -0.4349
 8947TIP3    H226806   6.991   3.724   0.924  2.5465 -2.6191 -0.3317
 8948TIP3   OH226807   4.245   6.272   5.627 -0.4078  0.3439 -0.4826
 8948TIP3    H126808   4.302   6.340   5.593  0.3273 -0.8547 -1.7448
 8948TIP3    H226809   4.293   6.190   5.612 -1.0881 -0.4557  1.3272
 8949TIP3   OH226810   1.173   0.362   0.572 -0.0169  0.0178  0.1763
 8949TIP3    H126811   1.205   0.351   0.482 -1.8284 -0.4791 -0.4475
 8949TIP3    H226812   1.154   0.455   0.579 -0.8105 -0.0910 -0.3249
 8950TIP3   OH226813   5.494   5.442   4.326  0.2315 -0.2246  0.0696
 8950TIP3    H126814   5.458   5.473   4.243 -0.3845 -2.3929 -0.5404
 8950TIP3    H226815   5.580   5.407   4.303  0.6361  0.3991  0.6111
 8951TIP3   OH226816   2.199   4.472   4.141 -0.0449 -0.8667  0.1178
 8951TIP3    H126817   2.137   4.434   4.078  0.5761 -0.0331 -1.0283
 8951TIP3    H226818   2.254   4.529   4.089 -0.4486  1.0354  1.6665
 8952TIP3   OH226819   3.967   1.990   2.761  0.5964 -0.6178 -0.0568
 8952TIP3    H126820   4.023   2.066   2.748 -0.6727  0.1096 -1.7599
 8952TIP3    H226821   4.026   1.922   2.793  1.5868  1.3276  2.6912
 8953TIP3   OH226822   6.352   5.014   1.858  0.3188  0.4655 -0.0515
 8953TIP3    H126823   6.380   5.105   1.864 -0.5322  0.6815  1.0454
 8953TIP3    H226824   6.274   5.009   1.914 -0.8587 -0.4657 -1.6608
 8954TIP3   OH226825   1.283   4.371   1.669  0.3813  0.1398  0.0835
 8954TIP3    H126826   1.212   4.423   1.631  0.2199  0.3067  0.6056
 8954TIP3    H226827   1.317   4.425   1.740  1.4795  0.3576 -0.5716
 8955TIP3   OH226828   1.424   6.121  -0.009 -0.2252  0.2251 -0.4619
 8955TIP3    H126829   1.387   6.077   0.067  1.1072  1.8852  1.2454
 8955TIP3    H226830   1.401   6.214   0.003  1.7015  0.8149 -1.0018
 8956TIP3   OH226831   3.023   0.194   4.698 -0.0622  0.1326 -0.4011
 8956TIP3    H126832   3.103   0.142   4.698 -0.6006 -0.7211 -0.7373
 8956TIP3    H226833   3.015   0.227   4.788  0.1055 -0.6593 -0.0896
 8957TIP3   OH226834   0.888   3.431   0.263 -0.1098  0.2548  0.4064
 8957TIP3    H126835   0.813   3.406   0.317 -0.9015 -1.1831 -1.2785
 8957TIP3    H226836   0.886   3.372   0.188  1.2869  1.7773 -0.9373
 8958TIP3   OH226837   3.767   1.336   1.480 -0.0788  0.2679  0.1421
 8958TIP3    H126838   3.709   1.410   1.463 -0.3574 -0.4285 -2.3575
 8958TIP3    H226839   3.844   1.374   1.523 -0.4652  1.9023 -0.5804
 8959TIP3   OH226840   4.561   3.941   1.310 -0.1539  0.0190  0.1997
 8959TIP3    H126841   4.467   3.960   1.316 -0.6503 -0.7660 -3.2433
 8959TIP3    H226842   4.571   3.857   1.355 -0.9549  0.4388  1.1964
 8960TIP3   OH226843   4.492   6.393   2.189  0.5649  0.5433 -0.1451
 8960TIP3    H126844   4.465   6.465   2.133 -2.3429  0.1969  0.6672
 8960TIP3    H226845   4.489   6.429   2.278  1.7212  0.1231  0.0881
 8961TIP3   OH226846   7.004   6.480   0.123 -0.6572  0.0942  0.0531
 8961TIP3    H126847   7.068   6.514   0.061 -0.6812 -1.3012 -0.7701
 8961TIP3    H226848   6.921   6.481   0.076 -0.5695 -1.5590 -0.2152
 8962TIP3   OH226849   3.710   1.101   3.984  0.2081  0.1836  0.0122
 8962TIP3    H126850   3.718   1.171   3.919 -0.0131  0.3262  0.1405
 8962TIP3    H226851   3.759   1.133   4.060 -0.9032  0.7210  0.5140
 8963TIP3   OH226852   6.714   5.602   2.759  0.3761  0.1159 -0.5785
 8963TIP3    H126853   6.775   5.630   2.691  0.0041 -2.9892 -2.3809
 8963TIP3    H226854   6.639   5.566   2.711 -1.2771  0.5068  1.5348
 8964TIP3   OH226855   5.779   4.535   2.076  0.5477 -0.0403  0.2802
 8964TIP3    H126856   5.703   4.590   2.057  1.1228  0.3532 -0.9901
 8964TIP3    H226857   5.819   4.518   1.991  1.9491 -0.1408  0.9190
 8965TIP3   OH226858   1.286   6.694   0.328 -0.2622  0.1601  0.5844
 8965TIP3    H126859   1.255   6.784   0.339  0.2505  0.5290 -0.7687
 8965TIP3    H226860   1.207   6.642   0.317 -0.5339  0.5864  0.5111
 8966TIP3   OH226861   5.812   6.404   3.888 -0.3724  0.4008 -0.3712
 8966TIP3    H126862   5.728   6.362   3.906 -0.8477  0.7258 -1.6874
 8966TIP3    H226863   5.804   6.491   3.928 -1.0335  0.7695 -1.2812
 8967TIP3   OH226864   6.850   1.408   4.061  0.3787  0.3488 -0.1103
 8967TIP3    H126865   6.917   1.385   4.125 -0.3359 -1.4543  0.0782
 8967TIP3    H226866   6.770   1.420   4.114 -0.3975 -1.9374 -0.6499
 8968TIP3   OH226867   1.128   2.916   5.157 -0.5339  0.0370  0.3923
 8968TIP3    H126868   1.195   2.906   5.089 -0.8941  0.3594 -0.0102
 8968TIP3    H226869   1.168   2.975   5.221 -0.1469 -0.3655  0.5299
 8969TIP3   OH226870   4.327   2.937   4.562 -0.5265  0.5900 -0.1627
 8969TIP3    H126871   4.298   3.001   4.627 -1.2300  2.8987 -2.5249
 8969TIP3    H226872   4.422   2.944   4.562 -0.4897  0.1975  0.9211
 8970TIP3   OH226873   5.687   4.391   4.512 -0.4908 -0.4784 -0.2972
 8970TIP3    H126874   5.719   4.316   4.462 -0.6022  0.6355 -2.1340
 8970TIP3    H226875   5.598   4.404   4.480  0.4760  2.1899 -2.2498
 8971TIP3   OH226876   3.065   5.788   0.207  0.1353 -0.1803 -0.4362
 8971TIP3    H126877   3.142   5.844   0.195 -0.8531  1.7736  1.6500
 8971TIP3    H226878   3.073   5.753   0.296  0.3203 -2.8676 -1.4021
 8972TIP3   OH226879   4.506   2.522   2.175 -0.3595  0.3821 -0.0614
 8972TIP3    H126880   4.585   2.558   2.135 -0.2730 -0.6223 -0.8430
 8972TIP3    H226881   4.444   2.595   2.177  0.3278  0.9807 -0.1475
 8973TIP3   OH226882   1.329   3.970   0.109 -0.3897 -0.1006  0.2237
 8973TIP3    H126883   1.307   3.986   0.201 -1.0645  1.7914 -0.2232
 8973TIP3    H226884   1.279   4.036   0.061  1.7812  0.5184 -1.3213
 8974TIP3   OH226885   3.515   4.327   0.395 -0.1955  0.2142 -0.0097
 8974TIP3    H126886   3.479   4.357   0.479 -0.7662 -0.0933 -0.1396
 8974TIP3    H226887   3.606   4.306   0.414 -0.4245 -0.2285  0.6201
 8975TIP3   OH226888   2.423   2.891   1.907  0.2772 -0.0049 -0.1868
 8975TIP3    H126889   2.435   2.946   1.830 -1.4953 -0.3579 -0.7785
 8975TIP3    H226890   2.507   2.848   1.920  0.9400  0.9165 -1.2321
 8976TIP3   OH226891   1.473   0.779   1.376  0.3983 -0.2155  0.0705
 8976TIP3    H126892   1.478   0.843   1.447  0.0839 -0.3077  0.1750
 8976TIP3    H226893   1.482   0.694   1.420  1.5866 -0.2222 -0.1442
 8977TIP3   OH226894   2.403   1.381   4.775  0.1712  0.0075  0.1902
 8977TIP3    H126895   2.477   1.325   4.755  1.8925  2.1964  0.0448
 8977TIP3    H226896   2.338   1.362   4.707  1.0228 -1.1919 -0.3039
 8978TIP3   OH226897   3.375   2.541   5.804 -0.5443 -0.0875 -0.1721
 8978TIP3    H126898   3.421   2.480   5.746 -1.8649  0.8235 -2.2871
 8978TIP3    H226899   3.401   2.627   5.773 -2.1258  0.4291 -0.0989
 8979TIP3   OH226900   4.902   2.728   3.267 -0.4797  0.4108 -0.3355
 8979TIP3    H126901   4.951   2.656   3.227 -2.1368 -1.4135  0.7744
 8979TIP3    H226902   4.970   2.785   3.303  0.8904 -0.7533 -0.9515
 8980TIP3   OH226903   1.772   1.792   3.436  0.0287  0.1443 -0.0847
 8980TIP3    H126904   1.795   1.709   3.395 -0.9730 -0.7812  1.1263
 8980TIP3    H226905   1.676   1.789   3.443  0.0072  1.2355  0.2958
 8981TIP3   OH226906   4.044   2.188   5.528 -0.2363 -0.2061  0.4808
 8981TIP3    H126907   4.061   2.137   5.607  0.3439 -1.3776 -0.3683
 8981TIP3    H226908   4.091   2.270   5.542  0.5079 -0.7155  1.0424
 8982TIP3   OH226909   5.921   0.772   0.010 -0.3690 -0.2409 -0.4483
 8982TIP3    H126910   5.925   0.722   0.092 -0.2279  0.9385  0.3047
 8982TIP3    H226911   6.002   0.750  -0.036 -0.4839 -0.9770 -0.3103
 8983TIP3   OH226912   6.725   2.835   1.853  0.6992  0.0120 -0.6340
 8983TIP3    H126913   6.786   2.908   1.862  1.0440 -0.2108 -1.1583
 8983TIP3    H226914   6.644   2.867   1.893  0.7857  0.7558 -1.0377
 8984TIP3   OH226915   3.541   4.874   5.155 -0.3787 -0.0573 -0.4744
 8984TIP3    H126916   3.497   4.951   5.119 -0.6977  0.1061  0.2463
 8984TIP3    H226917   3.605   4.910   5.217  1.7163 -0.2226 -2.4410
 8985TIP3   OH226918   1.506   0.333   0.543  0.5019  0.8813  0.2088
 8985TIP3    H126919   1.464   0.357   0.461 -0.6286  0.8579  0.7583
 8985TIP3    H226920   1.510   0.238   0.541 -1.7697  0.6803  1.1768
 8986TIP3   OH226921   3.888   2.913   5.517  0.1531  0.0709  0.1129
 8986TIP3    H126922   3.983   2.908   5.509  0.0808 -3.9156 -0.2224
 8986TIP3    H226923   3.855   2.890   5.430 -1.1012 -0.0942  0.6072
 8987TIP3   OH226924   1.337   3.622   4.872  0.0369 -0.4659 -0.2796
 8987TIP3    H126925   1.291   3.677   4.809  0.0872  0.3236  0.3645
 8987TIP3    H226926   1.404   3.679   4.910 -0.1130 -0.8734  0.6206
 8988TIP3   OH226927   3.807   3.350   1.548  0.2187 -0.0659  0.4590
 8988TIP3    H126928   3.896   3.319   1.563  0.7738  0.0468 -2.0497
 8988TIP3    H226929   3.779   3.304   1.468 -1.5215  0.7773  0.5365
 8989TIP3   OH226930   0.119   3.131   5.910 -0.3501 -0.4014  0.0378
 8989TIP3    H126931   0.144   3.184   5.835 -1.0976  0.4481  0.3752
 8989TIP3    H226932   0.097   3.046   5.873  2.2138 -0.9718 -0.3621
 8990TIP3   OH226933   2.876   6.793   5.287 -0.1912  0.1514 -0.3451
 8990TIP3    H126934   2.801   6.772   5.232 -0.9757  1.5983  0.1201
 8990TIP3    H226935   2.839   6.806   5.375  1.3831 -5.2894  1.5019
 8991TIP3   OH226936   1.430   2.790   3.439  0.6800 -0.6112  0.2094
 8991TIP3    H126937   1.357   2.774   3.499  0.7270  0.6476  0.6386
 8991TIP3    H226938   1.469   2.703   3.425 -1.1321 -1.3684 -0.3705
 8992TIP3   OH226939   2.552   6.831   0.120  0.1348 -0.2290  0.3759
 8992TIP3    H126940   2.471   6.829   0.171 -0.0940 -0.7915 -0.0052
 8992TIP3    H226941   2.554   6.747   0.075 -0.2939  0.7244 -1.5218
 8993TIP3   OH226942   0.408   4.931   1.083  0.1875 -0.5694  0.3806
 8993TIP3    H126943   0.356   4.978   1.147  0.0927 -1.6723  1.1522
 8993TIP3    H226944   0.492   4.978   1.081 -0.4539  0.5886 -0.0978
 8994TIP3   OH226945   1.118   2.980   2.290 -0.6266 -0.0271 -0.1165
 8994TIP3    H126946   1.191   3.039   2.310 -1.4605  0.9072  0.2868
 8994TIP3    H226947   1.046   3.039   2.265 -1.4125 -0.8811  0.0629
 8995TIP3   OH226948   7.099   3.570   5.402  0.0586 -0.7142  0.5328
 8995TIP3    H126949   7.026   3.510   5.421  0.5609 -1.5911 -0.2075
 8995TIP3    H226950   7.087   3.594   5.310 -0.1830  0.4082  0.8454
 8996TIP3   OH226951   6.309   4.908   2.241 -0.0951  0.4187 -0.0201
 8996TIP3    H126952   6.382   4.877   2.295  0.0704  1.2152  0.2211
 8996TIP3    H226953   6.323   5.002   2.234 -0.2167  0.3580 -1.2974
 8997TIP3   OH226954   4.259   3.790   3.729  0.0332 -0.1411  0.2845
 8997TIP3    H126955   4.186   3.843   3.762  1.2603  1.9544 -0.2062
 8997TIP3    H226956   4.241   3.782   3.635 -1.5983 -3.0996  0.7190
 8998TIP3   OH226957   1.836   1.236   0.335  0.0941  0.2078  0.5278
 8998TIP3    H126958   1.895   1.171   0.372 -0.5387 -0.1624  0.9003
 8998TIP3    H226959   1.813   1.293   0.408 -1.2824 -0.6216  0.7867
 8999TIP3   OH226960   0.211   2.373   1.735 -0.0720  0.4462 -0.4638
 8999TIP3    H126961   0.238   2.465   1.732  0.1555  0.4818  1.4280
 8999TIP3    H226962   0.119   2.374   1.707 -1.1744  1.8055  2.7069
 9000TIP3   OH226963   4.122   6.329   2.147 -0.5150  0.3627  0.4700
 9000TIP3    H126964   4.122   6.378   2.229 -1.4143  0.5268  0.3846
 9000TIP3    H226965   4.153   6.242   2.171  2.0050  1.1830  0.4591
 9001TIP3   OH226966   5.731   3.705   0.218 -0.0098 -0.2099 -0.5640
 9001TIP3    H126967   5.718   3.740   0.130 -1.4334  0.7193 -0.0239
 9001TIP3    H226968   5.736   3.611   0.207  0.1858 -0.0791 -1.6683
 9002TIP3   OH226969   1.072   6.547   5.805 -0.1606  0.0989  0.3510
 9002TIP3    H126970   1.119   6.598   5.739  0.4537  0.9400  1.3986
 9002TIP3    H226971   1.015   6.490   5.755 -1.2482  2.1459 -0.8857
 9003TIP3   OH226972   6.154   6.352   0.934 -0.2651  0.0916 -0.9561
 9003TIP3    H126973   6.169   6.371   1.027 -2.3549 -0.2109 -0.5031
 9003TIP3    H226974   6.210   6.415   0.888 -0.5990  1.5577  0.5085
 9004TIP3   OH226975   3.992   5.850   4.424 -0.1768 -0.7022 -0.1004
 9004TIP3    H126976   4.082   5.822   4.413 -0.0257 -0.4240  0.4062
 9004TIP3    H226977   3.975   5.907   4.349 -0.6201 -2.4182 -1.3798
 9005TIP3   OH226978   6.307   4.934   3.616 -0.3377  0.3881  0.3797
 9005TIP3    H126979   6.302   4.846   3.655  1.0922  0.4781  0.8202
 9005TIP3    H226980   6.249   4.930   3.540  0.4653 -1.2569 -0.1975
 9006TIP3   OH226981   2.870   6.788   4.167  0.4925  0.1607  0.1203
 9006TIP3    H126982   2.849   6.710   4.217  0.4141  0.6258  0.8282
 9006TIP3    H226983   2.919   6.756   4.092 -0.6418 -0.6914 -0.2803
 9007TIP3   OH226984   0.352   0.443   3.588 -0.8147 -0.4084 -0.1769
 9007TIP3    H126985   0.308   0.527   3.602 -0.0253 -0.0882  0.4367
 9007TIP3    H226986   0.374   0.443   3.495 -1.9100 -0.4943 -0.4609
 9008TIP3   OH226987   7.033   3.708   3.087 -0.3026 -0.3264 -0.2264
 9008TIP3    H126988   6.948   3.665   3.087 -0.5906  0.1120  1.6947
 9008TIP3    H226989   7.073   3.681   3.170  1.0389  0.2098 -0.6709
 9009TIP3   OH226990   0.573   6.109   4.618  0.4936 -0.0601  0.4841
 9009TIP3    H126991   0.507   6.119   4.686 -0.0708 -0.9458  0.0883
 9009TIP3    H226992   0.528   6.135   4.537  1.5042  2.1451  0.5633
 9010TIP3   OH226993   3.415   5.650   3.509 -0.0511 -0.4588  0.3872
 9010TIP3    H126994   3.471   5.581   3.546  0.8039 -0.1444 -0.2738
 9010TIP3    H226995   3.346   5.604   3.463  1.3486 -0.9457 -1.3368
 9011TIP3   OH226996   1.157   3.533   1.404  0.2971 -0.2494 -0.3159
 9011TIP3    H126997   1.202   3.504   1.325 -0.3081 -0.4992 -0.5784
 9011TIP3    H226998   1.104   3.457   1.430 -1.4470  0.6489 -1.1027
 9012TIP3   OH226999   2.204   2.949   5.630 -0.3475  0.2629 -0.1899
 9012TIP3    H127000   2.254   2.883   5.678 -0.2163 -0.0131 -0.6996
 9012TIP3    H227001   2.148   2.990   5.697  0.2905  0.3224  0.3160
 9013TIP3   OH227002   5.002   0.700   0.981 -0.3039  0.1418  0.3889
 9013TIP3    H127003   4.965   0.632   0.924 -0.8262 -0.0042  0.8958
 9013TIP3    H227004   4.966   0.782   0.947  0.4127  0.1868 -0.2911
 9014TIP3   OH227005   0.853   6.768   5.558 -0.2795 -0.0561  0.3116
 9014TIP3    H127006   0.934   6.725   5.531 -0.7604 -0.9087  0.1908
 9014TIP3    H227007   0.786   6.730   5.502 -1.0104 -0.4961  1.4484
 9015TIP3   OH227008   3.835   2.840   0.997 -0.4371  0.1159  0.6529
 9015TIP3    H127009   3.832   2.746   0.982 -1.1908  0.0735  1.0407
 9015TIP3    H227010   3.805   2.879   0.915  0.5185  0.0461  0.2598
 9016TIP3   OH227011   2.718   0.568   3.976 -0.0366  0.6646 -0.2949
 9016TIP3    H127012   2.808   0.589   3.999  0.5557 -1.7028 -0.2260
 9016TIP3    H227013   2.718   0.558   3.881 -0.0717  0.0801 -0.2389
 9017TIP3   OH227014   4.514   2.814   2.998 -0.7645 -0.5916 -0.1373
 9017TIP3    H127015   4.554   2.745   2.946 -0.2120 -0.8000  0.5392
 9017TIP3    H227016   4.582   2.881   3.005 -1.5344  0.3465 -1.3729
 9018TIP3   OH227017   6.962   4.926   1.838 -0.0561  0.4669  0.4785
 9018TIP3    H127018   6.898   4.875   1.789 -1.3761  1.5298  1.0147
 9018TIP3    H227019   7.021   4.861   1.876 -0.0331 -0.4631 -1.0681
 9019TIP3   OH227020   0.018   4.598   3.915  0.2233  0.6034 -0.3519
 9019TIP3    H127021   0.092   4.660   3.918  0.4686  0.4991 -2.3339
 9019TIP3    H227022  -0.017   4.597   4.004  2.1283  1.2501  0.4557
 9020TIP3   OH227023   3.638   6.000   0.731  0.6070  0.4851 -0.1348
 9020TIP3    H127024   3.705   6.054   0.773  0.2873  0.7791  0.0052
 9020TIP3    H227025   3.556   6.028   0.772  0.6706 -1.8462  1.8318
 9021TIP3   OH227026   5.624   1.638   3.139 -0.0516 -0.1861 -0.0583
 9021TIP3    H127027   5.615   1.583   3.217 -0.7085 -0.1843 -0.1256
 9021TIP3    H227028   5.716   1.665   3.139  0.3306 -1.4410 -0.1313
 9022TIP3   OH227029   1.668   3.362   5.034  0.0155 -0.3084  0.6394
 9022TIP3    H127030   1.679   3.316   4.951  1.1180  0.0539  0.5607
 9022TIP3    H227031   1.696   3.300   5.101 -1.6474 -0.8849  0.8267
 9023TIP3   OH227032   3.459   5.388   3.599 -0.1682 -0.2347 -0.0388
 9023TIP3    H127033   3.369   5.397   3.631 -0.1321  1.6535 -0.3477
 9023TIP3    H227034   3.459   5.305   3.552 -1.7155 -0.3394  0.0800
 9024TIP3   OH227035   6.210   2.658   0.362  0.1251 -0.3117 -0.1754
 9024TIP3    H127036   6.265   2.732   0.389 -0.3806 -0.1315  0.3947
 9024TIP3    H227037   6.207   2.665   0.267  2.7278 -1.5121 -0.4409
 9025TIP3   OH227038   3.620   3.798   0.552  0.0110 -0.4344  0.7185
 9025TIP3    H127039   3.627   3.875   0.609  1.3508  0.7688 -0.9481
 9025TIP3    H227040   3.693   3.742   0.579  0.2488 -0.1661  0.6468
 9026TIP3   OH227041   2.605   3.379   3.512  0.2305 -0.0942  0.0468
 9026TIP3    H127042   2.530   3.321   3.524  1.3084 -1.1196  2.3117
 9026TIP3    H227043   2.606   3.435   3.590  1.2135  0.6402 -0.4593
 9027TIP3   OH227044   4.334   6.245   5.875  0.4333 -0.4421  0.4704
 9027TIP3    H127045   4.296   6.170   5.922  2.6674 -2.0722 -0.1739
 9027TIP3    H227046   4.286   6.248   5.793  0.1606 -1.0331  0.5975
 9028TIP3   OH227047   2.856   1.786   3.183  0.1457 -0.3530 -0.0521
 9028TIP3    H127048   2.826   1.871   3.149  2.2847  0.7586  0.5958
 9028TIP3    H227049   2.793   1.763   3.250 -0.6641  0.5567 -0.4752
 9029TIP3   OH227050   0.445   4.027   3.539 -0.3251  1.3037  0.3909
 9029TIP3    H127051   0.464   4.108   3.491 -1.8817  2.0051  0.8802
 9029TIP3    H227052   0.531   3.995   3.567  0.5821  1.2977 -2.1059
 9030TIP3   OH227053   1.709   5.905   3.688  0.0196  0.1853 -0.9571
 9030TIP3    H127054   1.734   5.986   3.732  0.0386 -0.9609  1.2793
 9030TIP3    H227055   1.793   5.865   3.664 -0.0039  1.2902 -3.0841
 9031TIP3   OH227056   4.703   6.179   3.711 -0.2978  0.0971 -0.6176
 9031TIP3    H127057   4.681   6.218   3.795  0.3203  0.6607 -0.7127
 9031TIP3    H227058   4.777   6.121   3.730 -0.7498 -0.4985 -0.6112
 9032TIP3   OH227059   4.945   5.986   4.254 -0.0191  0.5946  0.2034
 9032TIP3    H127060   4.923   5.893   4.260 -1.2559  0.7287 -1.5126
 9032TIP3    H227061   4.869   6.032   4.290  0.7687  0.9724  1.4615
 9033TIP3   OH227062   5.835   3.737   4.743  0.1082 -0.1617 -0.3087
 9033TIP3    H127063   5.767   3.677   4.711 -0.1156 -0.3960  0.5848
 9033TIP3    H227064   5.913   3.682   4.752  0.5444  0.1808 -1.6775
 9034TIP3   OH227065   0.020   0.589   2.558 -0.3153  0.3817 -0.3333
 9034TIP3    H127066   0.054   0.503   2.582 -0.7841 -0.5927 -2.8603
 9034TIP3    H227067   0.096   0.636   2.524 -0.2343  0.6488  0.2102
 9035TIP3   OH227068   6.951   5.525   3.472  0.2429 -0.5820  0.2254
 9035TIP3    H127069   6.979   5.608   3.509  0.2830 -0.2200 -0.5902
 9035TIP3    H227070   6.937   5.468   3.547  2.8036 -0.6650  0.7138
 9036TIP3   OH227071   5.103   4.408   0.979  0.5774 -0.7045  0.0251
 9036TIP3    H127072   5.151   4.357   0.913  2.0492  0.2475  0.3144
 9036TIP3    H227073   5.011   4.385   0.964  0.8976 -0.8859 -2.0530
 9037TIP3   OH227074   5.185   3.365   5.483  0.0857  0.4940  0.0098
 9037TIP3    H127075   5.237   3.416   5.420  0.0764  3.2477  2.0674
 9037TIP3    H227076   5.241   3.356   5.560 -0.9624 -0.2069  0.7284
 9038TIP3   OH227077   1.846   6.373   3.054  0.2543  0.0015  0.0348
 9038TIP3    H127078   1.782   6.380   3.125 -0.9281  0.0883 -1.0080
 9038TIP3    H227079   1.812   6.303   2.997  1.6129 -0.6407 -0.0276
 9039TIP3   OH227080   1.455   4.064   1.863  0.1712 -0.1812  0.2280
 9039TIP3    H127081   1.507   4.145   1.868  0.4162 -0.4074  2.5310
 9039TIP3    H227082   1.483   4.013   1.939  0.3867 -2.7053 -1.4549
 9040TIP3   OH227083   6.650   5.923   4.079 -0.0390 -0.1382 -0.5513
 9040TIP3    H127084   6.562   5.939   4.112  0.0814  1.2544 -0.8476
 9040TIP3    H227085   6.647   5.948   3.987  1.0220  1.5108 -0.2035
 9041TIP3   OH227086   1.802   5.622   4.715 -0.2284 -0.2323 -0.5876
 9041TIP3    H127087   1.787   5.527   4.707 -0.9097 -0.0138 -2.2250
 9041TIP3    H227088   1.772   5.658   4.632  0.3791  1.3986 -0.1309
 9042TIP3   OH227089   5.970   0.149   2.441 -0.2131 -0.1410 -0.0798
 9042TIP3    H127090   5.969   0.215   2.511  0.4924  0.7775 -0.9110
 9042TIP3    H227091   5.958   0.066   2.487 -0.9835  0.5405  1.0116
 9043TIP3   OH227092   3.127   5.477   5.370  0.2658  0.3259  0.2508
 9043TIP3    H127093   3.036   5.503   5.386 -0.1333  0.1489 -1.5455
 9043TIP3    H227094   3.145   5.507   5.281  1.1315 -1.8988 -0.3730
 9044TIP3   OH227095   1.877   0.965   5.541 -0.1209 -0.6474 -0.2153
 9044TIP3    H127096   1.886   0.908   5.618 -1.2139  0.6666  0.9139
 9044TIP3    H227097   1.962   0.958   5.498  0.0397 -2.5293  0.2997
 9045TIP3   OH227098   3.374   5.474   5.698 -0.2895  0.3533  0.1422
 9045TIP3    H127099   3.372   5.431   5.613  3.4645  0.1222 -0.0140
 9045TIP3    H227100   3.391   5.403   5.760  1.0422  0.9341  0.4933
 9046TIP3   OH227101   2.984   2.378   5.771 -0.0904  0.2433  0.1591
 9046TIP3    H127102   3.020   2.297   5.738 -1.7421  0.3758 -2.2487
 9046TIP3    H227103   3.046   2.408   5.838  0.9405 -2.5453  0.5479
 9047TIP3   OH227104   0.244   1.198   3.644  0.2618 -0.1966 -0.3677
 9047TIP3    H127105   0.158   1.182   3.605 -0.2100 -0.2591  0.6659
 9047TIP3    H227106   0.266   1.288   3.620 -2.0388  1.3921  2.7977
 9048TIP3   OH227107   4.513   3.381   1.781  0.2933  0.1927  0.2960
 9048TIP3    H127108   4.503   3.375   1.876  1.2687 -2.0591  0.3111
 9048TIP3    H227109   4.559   3.301   1.756  2.5673  1.9816 -1.7720
 9049TIP3   OH227110   6.657   1.427   1.858 -0.2235 -0.6090  0.3844
 9049TIP3    H127111   6.593   1.486   1.818  0.5693 -0.0457 -0.0963
 9049TIP3    H227112   6.620   1.340   1.845 -0.5497 -0.3539 -0.5450
 9050TIP3   OH227113   0.318   3.884   1.099  0.7186  0.0696 -0.0137
 9050TIP3    H127114   0.405   3.875   1.137  0.6183 -1.2946 -0.0497
 9050TIP3    H227115   0.259   3.852   1.167  0.2830  0.5528 -0.1584
 9051TIP3   OH227116   5.636   1.906   4.423  0.1924  0.4908 -0.0401
 9051TIP3    H127117   5.669   1.860   4.500  2.1479 -0.0073 -1.0812
 9051TIP3    H227118   5.552   1.865   4.404  0.6221 -0.7785  0.6571
 9052TIP3   OH227119   2.484   2.307   1.754  0.4588 -0.5352  0.5222
 9052TIP3    H127120   2.481   2.376   1.821 -0.2387 -0.5176  0.4828
 9052TIP3    H227121   2.567   2.320   1.710  0.4547  0.1169  0.6954
 9053TIP3   OH227122   3.156   5.837   2.261  0.1691 -0.2402 -0.2263
 9053TIP3    H127123   3.133   5.926   2.289 -0.2904 -0.3644 -0.2061
 9053TIP3    H227124   3.164   5.788   2.343 -0.1978 -0.3675 -0.2673
 9054TIP3   OH227125   0.495   5.132   4.810 -0.5030 -0.0599  0.3069
 9054TIP3    H127126   0.431   5.145   4.740 -0.1751  0.4093  0.0838
 9054TIP3    H227127   0.575   5.108   4.764 -0.6146 -1.0326  0.6104
 9055TIP3   OH227128   1.200   5.135   2.018 -0.2137  0.1410 -0.5809
 9055TIP3    H127129   1.227   5.053   2.059  0.9203 -0.3886 -2.2940
 9055TIP3    H227130   1.200   5.199   2.090  0.8470 -0.9169  0.4078
 9056TIP3   OH227131   2.671   4.690   4.686 -0.4400 -0.1358 -0.1513
 9056TIP3    H127132   2.752   4.705   4.637 -0.6161 -0.2132 -0.4711
 9056TIP3    H227133   2.662   4.768   4.742  0.6517 -0.8169  1.0190
 9057TIP3   OH227134   0.146   3.386   1.496  0.1899  0.2698  0.0682
 9057TIP3    H127135   0.215   3.384   1.561  0.5118 -0.0870 -0.2818
 9057TIP3    H227136   0.190   3.410   1.414 -0.1919  0.6105 -0.0440
 9058TIP3   OH227137   3.710   5.929   2.260 -0.3308  0.5362 -0.2630
 9058TIP3    H127138   3.714   5.834   2.271  1.2652  0.6288  0.2167
 9058TIP3    H227139   3.733   5.964   2.347  0.1633  1.3353 -0.7047
 9059TIP3   OH227140   1.884   1.607   4.612  0.1429 -0.0574  0.1664
 9059TIP3    H127141   1.809   1.640   4.661 -0.2350 -0.8596  0.1477
 9059TIP3    H227142   1.879   1.650   4.527  0.4173  0.8278  0.5868
 9060TIP3   OH227143   2.100   4.164   1.034  0.6586 -0.1836 -0.0607
 9060TIP3    H127144   2.097   4.145   1.127  0.7443  0.8152  0.1561
 9060TIP3    H227145   2.181   4.124   1.003  0.4051 -0.9092  0.1896
 9061TIP3   OH227146   0.369   5.547   0.714  0.3244  0.2937  0.0797
 9061TIP3    H127147   0.402   5.612   0.777  0.4637  0.6877 -0.3893
 9061TIP3    H227148   0.345   5.471   0.767  0.2825  0.6843  0.6251
 9062TIP3   OH227149   2.952   6.495   3.192  0.1421 -0.3538 -0.1157
 9062TIP3    H127150   2.893   6.545   3.136  0.3225  0.8500  0.7367
 9062TIP3    H227151   2.895   6.447   3.252  0.0035 -0.0646 -0.0172
 9063TIP3   OH227152   6.712   2.298   5.695 -0.3707  0.6387 -0.0346
 9063TIP3    H127153   6.677   2.209   5.686  0.7628  0.0480  1.1477
 9063TIP3    H227154   6.665   2.334   5.770  0.0595  0.5944  0.2555
 9064TIP3   OH227155   5.235   1.017   5.837  0.3906  0.9148  0.3796
 9064TIP3    H127156   5.145   0.985   5.834  0.2822  1.1483  0.8994
 9064TIP3    H227157   5.238   1.069   5.918  1.2806  0.0512  0.9137
 9065TIP3   OH227158   0.479   1.200   5.256  0.2373 -0.1933 -0.2412
 9065TIP3    H127159   0.481   1.278   5.311  0.8679 -0.3660 -0.0049
 9065TIP3    H227160   0.532   1.135   5.304  0.1385 -0.6005 -0.6705
 9066TIP3   OH227161   0.676   5.387   5.225  0.2576 -0.2144 -0.1932
 9066TIP3    H127162   0.703   5.323   5.290  0.7077  0.5899  0.4305
 9066TIP3    H227163   0.617   5.340   5.167  2.8221 -2.0350 -1.5271
 9067TIP3   OH227164   3.390   3.514   3.120 -0.1746  0.1932  0.2799
 9067TIP3    H127165   3.420   3.425   3.100  0.4297  0.5074 -0.2614
 9067TIP3    H227166   3.307   3.502   3.165 -0.7374 -0.6146 -0.9245
 9068TIP3   OH227167   1.584   2.121   3.388 -0.0767 -0.0845  0.9730
 9068TIP3    H127168   1.499   2.137   3.346 -0.3467 -1.2496  1.0358
 9068TIP3    H227169   1.598   2.198   3.443 -0.2118  0.9788 -0.4214
 9069TIP3   OH227170   3.421   5.125   5.073  0.1183  0.1021  0.4624
 9069TIP3    H127171   3.492   5.170   5.029 -0.7719  0.3415 -0.7965
 9069TIP3    H227172   3.359   5.194   5.097 -0.5424 -0.2779 -0.1127
 9070TIP3   OH227173   1.169   0.101   0.629  0.4745  0.2886  0.2154
 9070TIP3    H127174   1.175   0.195   0.613  0.6229  0.0047 -1.6289
 9070TIP3    H227175   1.197   0.090   0.720 -0.0964  2.0721  0.6402
 9071TIP3   OH227176   6.720   0.707   4.665  0.5287 -0.2076 -0.5069
 9071TIP3    H127177   6.657   0.683   4.596  1.0080 -0.1709 -0.9629
 9071TIP3    H227178   6.802   0.667   4.637  0.4243 -1.4109  0.7624
 9072TIP3   OH227179   3.191   5.428   5.097  0.4351  0.2071 -0.8573
 9072TIP3    H127180   3.120   5.375   5.062 -0.1005 -0.3804  0.9702
 9072TIP3    H227181   3.229   5.471   5.021 -1.9302  0.6233 -1.8983
 9073TIP3   OH227182   1.237   5.697   5.372 -0.7170 -0.1054  0.1805
 9073TIP3    H127183   1.245   5.686   5.467  1.6346  1.9763  0.3310
 9073TIP3    H227184   1.289   5.625   5.336  0.1153  0.2738  0.5780
 9074TIP3   OH227185   0.034   6.013   1.899  0.0885  0.1509  0.0008
 9074TIP3    H127186  -0.019   6.086   1.865  0.6374  0.8971  0.6973
 9074TIP3    H227187   0.033   5.948   1.829 -2.3753 -0.1992  0.2900
 9075TIP3   OH227188   4.788   1.078   5.037  0.2954 -0.1616  0.5420
 9075TIP3    H127189   4.739   1.160   5.025  0.0584 -0.3646  0.0792
 9075TIP3    H227190   4.810   1.051   4.948 -0.7836 -1.2871  0.5931
 9076TIP3   OH227191   3.242   3.980   4.479 -0.1071 -0.6142 -0.6685
 9076TIP3    H127192   3.209   3.891   4.467 -1.3543 -0.0598 -1.6305
 9076TIP3    H227193   3.164   4.033   4.497  0.6321  0.2643  0.0849
 9077TIP3   OH227194   3.159   5.030   1.128 -0.3662  0.2176 -0.1100
 9077TIP3    H127195   3.160   5.124   1.146  1.1850  0.4878 -1.3724
 9077TIP3    H227196   3.077   5.015   1.081 -0.3338  1.0602 -0.4554
 9078TIP3   OH227197   4.720   4.689   5.556 -0.0298 -0.4269 -0.3564
 9078TIP3    H127198   4.672   4.758   5.604  0.4103  0.4593 -1.1626
 9078TIP3    H227199   4.664   4.612   5.564 -1.1213  0.3296 -0.4346
 9079TIP3   OH227200   4.014   4.975   4.088 -0.1433 -0.4044  0.1820
 9079TIP3    H127201   4.094   4.932   4.119  0.5057  1.5369  1.4502
 9079TIP3    H227202   3.959   4.981   4.166 -0.0745  1.2610  0.1438
 9080TIP3   OH227203   4.804   2.391   4.899  0.4017  0.2642 -0.1755
 9080TIP3    H127204   4.842   2.454   4.839 -0.6994  0.3216 -0.8527
 9080TIP3    H227205   4.838   2.415   4.985  0.4740  1.4040 -0.5112
 9081TIP3   OH227206   6.398   5.453   5.242  0.1714 -0.0031  0.3255
 9081TIP3    H127207   6.467   5.483   5.301  0.3626  1.5592 -0.6212
 9081TIP3    H227208   6.321   5.504   5.267  0.5263  1.4932 -1.3728
 9082TIP3   OH227209   5.449   3.983   0.563  0.5554  0.1323 -0.1224
 9082TIP3    H127210   5.531   3.974   0.514 -0.1524  0.3879 -1.3824
 9082TIP3    H227211   5.388   3.925   0.518 -0.2782  0.8184  0.1099
 9083TIP3   OH227212   1.892   3.162   1.464  0.2846  0.3192  0.5219
 9083TIP3    H127213   1.938   3.191   1.543  1.7647  0.5714 -0.3903
 9083TIP3    H227214   1.946   3.090   1.431 -0.6217 -0.1479  0.0328
 9084TIP3   OH227215   2.508   3.008   1.670 -0.6451 -0.3604  0.1028
 9084TIP3    H127216   2.545   2.960   1.595  0.0594  0.3497 -0.0219
 9084TIP3    H227217   2.549   3.094   1.665 -1.7414  0.1973  0.4410
 9085TIP3   OH227218   0.912   5.222   3.218  0.1064 -0.2622 -0.3658
 9085TIP3    H127219   0.967   5.228   3.295  0.0980 -0.6459 -0.3322
 9085TIP3    H227220   0.827   5.193   3.250 -0.5220  1.5692 -0.2284
 9086TIP3   OH227221   2.156   4.175   5.665  0.1762  0.1540  0.2127
 9086TIP3    H127222   2.140   4.237   5.737  1.2889  1.2423 -0.4478
 9086TIP3    H227223   2.156   4.089   5.707 -0.3726  0.6766  1.3193
 9087TIP3   OH227224   0.754   2.730   4.138 -0.5618 -0.6184 -0.6820
 9087TIP3    H127225   0.807   2.659   4.102 -0.6080 -0.7154 -0.5581
 9087TIP3    H227226   0.786   2.808   4.093  1.1446 -0.3442  0.9085
 9088TIP3   OH227227   0.154   5.410   0.322  0.0555  0.3606  0.1815
 9088TIP3    H127228   0.232   5.461   0.344  0.2719 -0.6299  1.9809
 9088TIP3    H227229   0.086   5.444   0.381 -0.1010 -0.6227  0.5850
 9089TIP3   OH227230   0.026   3.587   5.797  0.3270  0.5216  0.2970
 9089TIP3    H127231   0.041   3.632   5.714  0.4328  0.3001  0.1924
 9089TIP3    H227232   0.114   3.576   5.834  0.3497 -0.0240  0.0910
 9090TIP3   OH227233   1.827   2.223   0.286  0.2731 -0.2820  0.5920
 9090TIP3    H127234   1.734   2.207   0.298  0.1746  0.8810  1.5764
 9090TIP3    H227235   1.869   2.162   0.348  0.2490 -1.5575 -0.5965
 9091TIP3   OH227236   3.335   6.648   0.511  1.0123  0.0544 -0.2324
 9091TIP3    H127237   3.431   6.647   0.516  1.0491 -1.2571 -0.7093
 9091TIP3    H227238   3.316   6.691   0.427  1.1397  1.0943  0.2572
 9092TIP3   OH227239   6.580   0.386   1.598  0.2055 -0.0025 -0.0859
 9092TIP3    H127240   6.650   0.402   1.662  0.2136 -0.1786 -0.0492
 9092TIP3    H227241   6.617   0.415   1.514 -0.3697  1.7113  0.2206
 9093TIP3   OH227242   3.089   3.552   2.229 -0.0212 -0.3796 -0.3993
 9093TIP3    H127243   3.148   3.627   2.236  0.1920 -0.5577 -0.2529
 9093TIP3    H227244   3.029   3.575   2.159 -1.2910  0.8186  1.0265
 9094TIP3   OH227245   5.703   2.018   5.457  0.3752  0.0169  0.0967
 9094TIP3    H127246   5.729   2.098   5.412 -2.0211  1.2388  0.7480
 9094TIP3    H227247   5.667   2.048   5.540  1.3847 -1.9400  1.3221
 9095TIP3   OH227248   4.412   1.457   1.001 -0.2588  0.0393  0.3072
 9095TIP3    H127249   4.469   1.498   1.066 -0.7208 -0.0212  0.7664
 9095TIP3    H227250   4.461   1.381   0.970 -0.1536 -0.0993  0.8073
 9096TIP3   OH227251   2.399   2.807   2.891  0.3331  0.1165 -0.0092
 9096TIP3    H127252   2.350   2.749   2.949 -0.6862  0.7234 -0.2299
 9096TIP3    H227253   2.406   2.890   2.939 -0.3187  0.5500 -0.6339
 9097TIP3   OH227254   3.122   6.660   4.030  0.4130  0.7375  0.3257
 9097TIP3    H127255   3.178   6.683   3.956 -0.4788 -1.1376 -1.0394
 9097TIP3    H227256   3.158   6.577   4.062  2.2487  2.6180  3.6656
 9098TIP3   OH227257   0.878   4.439   4.384 -0.3605  0.1225 -0.2320
 9098TIP3    H127258   0.920   4.436   4.299  2.3634  2.2008  0.8845
 9098TIP3    H227259   0.864   4.532   4.401 -2.3303 -0.3289  0.9689
 9099TIP3   OH227260   5.242   0.174   1.332 -0.1355 -0.0482 -0.2881
 9099TIP3    H127261   5.280   0.203   1.249  0.5877  0.2583  0.1460
 9099TIP3    H227262   5.277   0.086   1.346 -0.1703 -0.0567 -0.2521
 9100TIP3   OH227263   4.809   2.056   1.500 -0.5663 -0.2833 -0.2856
 9100TIP3    H127264   4.789   2.147   1.480 -0.0121 -0.2703 -0.8368
 9100TIP3    H227265   4.751   2.006   1.442 -0.0946 -0.2598 -0.7939
 9101TIP3   OH227266   2.745   1.271   5.312 -0.2403  0.6159 -0.3060
 9101TIP3    H127267   2.732   1.313   5.397 -0.0100 -0.6412  0.3751
 9101TIP3    H227268   2.840   1.265   5.302 -0.2467 -1.0087  0.2891
 9102TIP3   OH227269   6.994   2.779   4.468 -0.3181 -0.4840 -0.0841
 9102TIP3    H127270   6.913   2.772   4.419  0.1592 -0.4386 -0.8980
 9102TIP3    H227271   6.991   2.866   4.508 -0.4648 -0.3066 -0.4836
 9103TIP3   OH227272   4.799   6.209   0.296 -0.1992  0.1274 -0.1645
 9103TIP3    H127273   4.844   6.234   0.215 -1.3754 -0.7899 -1.1251
 9103TIP3    H227274   4.786   6.292   0.342 -1.5360  0.9940 -1.9880
 9104TIP3   OH227275   2.286   5.946   2.511  0.4128 -0.2983  0.0509
 9104TIP3    H127276   2.313   6.030   2.547 -1.4624  0.8554 -1.0561
 9104TIP3    H227277   2.194   5.937   2.538  0.4125 -1.7210 -0.3345
 9105TIP3   OH227278   2.649   0.510   0.920 -0.1246 -0.2895  0.2784
 9105TIP3    H127279   2.617   0.469   0.840 -0.1409 -2.4463  1.3326
 9105TIP3    H227280   2.690   0.439   0.969 -2.2381  0.3537  3.2863
 9106TIP3   OH227281   0.211   3.244   4.428 -0.5867  0.0951 -0.2441
 9106TIP3    H127282   0.306   3.254   4.422 -0.7379  1.4006 -1.1044
 9106TIP3    H227283   0.197   3.191   4.506  0.7791  1.2705  0.8661
 9107TIP3   OH227284   5.742   2.366   2.541 -0.2370 -0.0066  0.1602
 9107TIP3    H127285   5.673   2.401   2.597 -1.3281 -4.2184  1.7664
 9107TIP3    H227286   5.819   2.363   2.596  0.4290  1.5485 -0.6105
 9108TIP3   OH227287   1.832   0.838   4.547 -0.3427  0.5084  0.0459
 9108TIP3    H127288   1.833   0.867   4.455  0.1203 -0.8360 -0.3917
 9108TIP3    H227289   1.830   0.743   4.542 -1.1498  0.4267  1.4494
 9109TIP3   OH227290   1.397   2.634   1.600  0.4367 -0.0873  0.3912
 9109TIP3    H127291   1.420   2.727   1.592  1.3612 -0.3061  0.3376
 9109TIP3    H227292   1.302   2.633   1.600  0.3994  0.9491  1.3667
 9110TIP3   OH227293   3.467   5.758   4.653 -0.0528  0.3111 -0.3188
 9110TIP3    H127294   3.388   5.788   4.609  0.5021  0.7101 -1.0726
 9110TIP3    H227295   3.536   5.765   4.586  0.4366 -0.9273  0.0328
 9111TIP3   OH227296   1.114   0.054   0.334  0.0631  0.1164 -0.8800
 9111TIP3    H127297   1.129   0.049   0.428 -1.7025  1.6737 -0.4762
 9111TIP3    H227298   1.019   0.050   0.324  0.2400 -3.4553 -2.8943
 9112TIP3   OH227299   3.304   0.569   2.723  0.3772 -0.0783 -0.1639
 9112TIP3    H127300   3.209   0.579   2.721  0.3653  0.0256  0.5377
 9112TIP3    H227301   3.337   0.653   2.755  0.6791 -0.2184 -0.0958
 9113TIP3   OH227302   5.106   2.432   5.675 -0.3059  0.3092  0.6465
 9113TIP3    H127303   5.092   2.353   5.727 -0.7671  1.0107  1.6114
 9113TIP3    H227304   5.200   2.449   5.682 -0.4670  0.7838  1.8440
 9114TIP3   OH227305   0.810   0.160   2.503 -0.0255 -0.4621  0.6373
 9114TIP3    H127306   0.840   0.093   2.564  0.1984 -1.6392 -0.7047
 9114TIP3    H227307   0.715   0.153   2.505  0.0136 -1.8606 -0.5431
 9115TIP3   OH227308   0.943   2.042   4.161  0.1394 -0.6519 -0.5425
 9115TIP3    H127309   0.848   2.049   4.165  0.2518  0.6075  0.4467
 9115TIP3    H227310   0.965   2.063   4.070 -0.3903  1.3034 -0.2481
 9116TIP3   OH227311   1.651   6.274   3.671  0.1309 -0.4692 -0.0063
 9116TIP3    H127312   1.724   6.218   3.696 -0.2658 -0.9079  0.1757
 9116TIP3    H227313   1.614   6.303   3.755 -1.2113 -1.9533 -0.0563
 9117TIP3   OH227314   5.006   5.982   4.794  0.1231 -0.3623 -0.3764
 9117TIP3    H127315   4.920   5.976   4.754  0.2727  1.2034 -1.0370
 9117TIP3    H227316   4.993   6.035   4.872  0.4586 -0.2602 -0.3875
 9118TIP3   OH227317   2.100   5.694   0.205  0.6045  0.2240 -0.1271
 9118TIP3    H127318   2.026   5.754   0.197  0.7436  0.2433 -1.6082
 9118TIP3    H227319   2.097   5.641   0.125  1.7332 -0.2955  0.1503
 9119TIP3   OH227320   6.755   4.992   3.314  0.1358  0.2796 -0.1732
 9119TIP3    H127321   6.754   5.063   3.250 -3.0272  0.3900 -0.1175
 9119TIP3    H227322   6.687   5.014   3.377  0.0990 -2.0334  0.7125
 9120TIP3   OH227323   5.871   3.210   1.059 -0.2702 -0.1142  0.2288
 9120TIP3    H127324   5.798   3.270   1.045 -0.4324 -0.4811 -0.5387
 9120TIP3    H227325   5.849   3.132   1.009  2.0672  0.9259 -2.7398
 9121TIP3   OH227326   1.924   2.939   0.300  0.1292  0.2410  0.1261
 9121TIP3    H127327   1.988   2.918   0.231  1.3042 -0.9716  1.5106
 9121TIP3    H227328   1.905   2.855   0.342  0.4851  1.0879  2.1241
 9122TIP3   OH227329   0.872   5.774   4.271  0.0300  0.2158  0.5066
 9122TIP3    H127330   0.800   5.734   4.319 -0.3107 -0.9113 -0.8629
 9122TIP3    H227331   0.911   5.702   4.221  0.1011  1.3730 -1.2096
 9123TIP3   OH227332   0.882   1.720   4.471  0.6050  0.1745  0.0909
 9123TIP3    H127333   0.830   1.759   4.542 -0.0032  0.0142 -0.2644
 9123TIP3    H227334   0.970   1.755   4.485 -0.1117  2.6051 -0.8455
 9124TIP3   OH227335   5.902   5.520   2.353  0.0610  0.4321  0.1006
 9124TIP3    H127336   5.931   5.429   2.341 -2.2307 -0.1817 -1.4516
 9124TIP3    H227337   5.932   5.565   2.274 -0.6489  0.4922 -0.1397
 9125TIP3   OH227338   3.249   0.677   3.089 -0.0007  0.1757  0.0914
 9125TIP3    H127339   3.187   0.624   3.038  1.2977 -0.4062 -0.9526
 9125TIP3    H227340   3.193   0.735   3.141 -1.4476  1.5153 -2.7235
 9126TIP3   OH227341   2.450   4.926   4.474  0.1861  0.1259  0.1288
 9126TIP3    H127342   2.524   4.868   4.457  0.2714  0.7882 -2.1644
 9126TIP3    H227343   2.428   4.962   4.388 -1.8133  1.1431  0.9993
 9127TIP3   OH227344   6.376   3.913   4.377  0.1520 -0.0062  0.1864
 9127TIP3    H127345   6.351   3.979   4.442  2.0626  1.3810 -0.4005
 9127TIP3    H227346   6.306   3.848   4.381 -0.5353  0.7833  2.5526
 9128TIP3   OH227347   1.091   1.534   0.894  0.3396 -0.1547  0.0067
 9128TIP3    H127348   1.104   1.588   0.816 -1.1228  0.1823 -0.0395
 9128TIP3    H227349   1.015   1.573   0.937 -0.5236 -1.9391  0.1848
 9129TIP3   OH227350   5.536   4.585   5.215  0.5016 -0.3031  0.1032
 9129TIP3    H127351   5.446   4.560   5.238  0.4281  0.7914  1.0738
 9129TIP3    H227352   5.558   4.654   5.277  1.4662  0.5272 -1.1300
 9130TIP3   OH227353   5.850   3.233   4.803  0.2523 -0.1860 -0.0807
 9130TIP3    H127354   5.820   3.277   4.724  1.5702  1.7231  0.4112
 9130TIP3    H227355   5.776   3.240   4.864 -0.5167 -1.0672 -0.8863
 9131TIP3   OH227356   5.257   1.702   1.903  0.2759  0.4347  0.6716
 9131TIP3    H127357   5.286   1.616   1.872  0.9028  1.0060 -0.3977
 9131TIP3    H227358   5.166   1.708   1.874  0.4891  0.4655 -0.0160
 9132TIP3   OH227359   1.288   3.204   5.349 -0.0317  0.0723 -0.1972
 9132TIP3    H127360   1.383   3.204   5.359 -0.2006  1.6256  2.0905
 9132TIP3    H227361   1.273   3.187   5.256  2.4150 -1.5712 -0.3646
 9133TIP3   OH227362   6.559   2.334   0.955  0.4629 -0.2804  0.0165
 9133TIP3    H127363   6.631   2.393   0.976  0.3039 -0.2091  0.3682
 9133TIP3    H227364   6.577   2.305   0.865 -0.1954  1.3960 -0.6879
 9134TIP3   OH227365   5.919   0.472   3.547  0.1981 -0.6072  0.4422
 9134TIP3    H127366   5.826   0.459   3.533  0.6442 -1.2742 -2.4706
 9134TIP3    H227367   5.924   0.534   3.619 -2.4515 -1.0937  1.1461
 9135TIP3   OH227368   2.910   5.983   0.087 -0.2105  0.5879 -0.5862
 9135TIP3    H127369   2.953   5.965   0.004 -1.8852  0.7085 -1.5302
 9135TIP3    H227370   2.963   5.937   0.152  0.9780  0.2611 -1.7400
 9136TIP3   OH227371   5.129   3.051   2.141 -0.7415  1.0100  0.2094
 9136TIP3    H127372   5.200   3.073   2.201 -0.6379  1.6837 -0.1477
 9136TIP3    H227373   5.111   2.959   2.158 -0.5839  1.1386  1.1375
 9137TIP3   OH227374   1.526   4.443   5.138  0.2399  0.3683  0.7371
 9137TIP3    H127375   1.443   4.484   5.115 -0.9347 -0.9549  2.3512
 9137TIP3    H227376   1.571   4.509   5.191 -0.1952  0.7601  0.6273
 9138TIP3   OH227377   5.159   4.693   1.263  0.3984  0.1150  0.1101
 9138TIP3    H127378   5.116   4.608   1.275 -0.8162  0.8169  0.9273
 9138TIP3    H227379   5.182   4.695   1.170 -1.2498 -0.3539 -0.3464
 9139TIP3   OH227380   4.777   4.036   0.806 -0.4039  0.1636 -0.0714
 9139TIP3    H127381   4.723   3.991   0.872  1.6418  2.2164  3.3203
 9139TIP3    H227382   4.836   3.968   0.774 -0.0182 -0.5063  1.9006
 9140TIP3   OH227383   2.983   1.555   2.202 -0.2512 -0.2766  0.5460
 9140TIP3    H127384   2.912   1.590   2.257 -2.0610  0.7813 -2.2307
 9140TIP3    H227385   3.055   1.617   2.214 -0.9786  0.5233  0.9461
 9141TIP3   OH227386   4.703   3.900   5.819  0.0851 -0.1029 -0.0906
 9141TIP3    H127387   4.700   3.968   5.751 -2.8908  0.1662  0.1398
 9141TIP3    H227388   4.693   3.818   5.771  1.4097 -0.2220 -0.1938
 9142TIP3   OH227389   5.123   3.471   2.857 -0.2391  0.1259 -0.4495
 9142TIP3    H127390   5.209   3.502   2.884 -0.6159  0.6158  0.1983
 9142TIP3    H227391   5.076   3.454   2.938  0.1348 -2.7841 -0.7152
 9143TIP3   OH227392   0.849   3.050   5.312 -0.1823 -0.0314 -0.3213
 9143TIP3    H127393   0.761   3.060   5.277 -0.7003 -0.3598  0.8302
 9143TIP3    H227394   0.871   2.958   5.296 -0.4875 -0.2265  0.3201
 9144TIP3   OH227395   0.168   5.963   4.411 -0.3042  0.3192  0.7795
 9144TIP3    H127396   0.161   6.012   4.493 -1.6576  0.8485  0.3822
 9144TIP3    H227397   0.252   5.991   4.373 -1.7692  3.7946 -0.2771
 9145TIP3   OH227398   4.515   0.625   4.936  0.0332 -0.1799  0.1046
 9145TIP3    H127399   4.562   0.648   5.016  0.1775 -0.2546  0.0429
 9145TIP3    H227400   4.574   0.653   4.866 -0.1890  0.0882  0.0219
 9146TIP3   OH227401   5.026   3.146   0.587 -0.1436 -0.4588  0.7516
 9146TIP3    H127402   5.086   3.146   0.513  0.7082 -1.6287  1.3916
 9146TIP3    H227403   5.038   3.059   0.627  1.2086  0.8829  3.6093
 9147TIP3   OH227404   5.659   4.063   0.191 -0.0062 -0.2509 -0.5723
 9147TIP3    H127405   5.719   4.083   0.118 -0.1166 -0.4122 -0.7079
 9147TIP3    H227406   5.717   4.053   0.266  0.1026  0.0001 -0.6194
 9148TIP3   OH227407   2.403   3.176   5.584 -0.0930  0.1309  0.2003
 9148TIP3    H127408   2.488   3.133   5.576  0.5093  1.5559 -1.6946
 9148TIP3    H227409   2.339   3.105   5.585  0.8568 -0.9050 -2.9479
 9149TIP3   OH227410   6.860   4.077   3.877  0.4018  0.2038 -0.1979
 9149TIP3    H127411   6.826   4.013   3.815 -1.1083 -0.0604  0.8533
 9149TIP3    H227412   6.939   4.037   3.912 -0.0988 -0.7440 -0.1244
 9150TIP3   OH227413   4.504   1.244   0.506  0.0858  0.0232 -0.0006
 9150TIP3    H127414   4.558   1.202   0.439  0.0203  0.2938 -0.2277
 9150TIP3    H227415   4.504   1.183   0.579 -1.0519 -0.9508 -0.7949
 9151TIP3   OH227416   2.088   5.702   4.767  0.0265  0.3815 -0.0074
 9151TIP3    H127417   2.092   5.796   4.747 -1.2535  0.1787 -1.3717
 9151TIP3    H227418   1.997   5.678   4.752  0.0799 -0.8683  1.4552
 9152TIP3   OH227419   1.871   0.331   3.810  0.3523  0.6170 -0.5917
 9152TIP3    H127420   1.933   0.258   3.818  1.2380  1.5190  1.6347
 9152TIP3    H227421   1.799   0.295   3.759  2.0779 -0.8928 -2.1273
 9153TIP3   OH227422   1.617   3.935   5.628 -0.0960  0.0880  0.0368
 9153TIP3    H127423   1.654   3.872   5.566  0.8636 -1.3502  1.9611
 9153TIP3    H227424   1.690   3.994   5.648 -0.4698  0.6920 -0.3529
 9154TIP3   OH227425   6.385   1.370   2.740  0.0326  0.3361  0.2734
 9154TIP3    H127426   6.460   1.397   2.686  0.0375  0.1397  0.1796
 9154TIP3    H227427   6.380   1.436   2.809 -0.0254  0.6356 -0.0163
 9155TIP3   OH227428   1.582   0.055   2.456  0.3378  0.1492 -0.3491
 9155TIP3    H127429   1.602   0.140   2.495 -0.2304 -0.1597  0.6472
 9155TIP3    H227430   1.556   0.075   2.366  0.9077  0.9574 -0.3357
 9156TIP3   OH227431   7.049   1.897   0.169 -0.1177  0.0450 -0.3126
 9156TIP3    H127432   7.102   1.926   0.244 -0.1571  1.8074 -0.9181
 9156TIP3    H227433   6.975   1.851   0.208  0.7714 -0.6509  0.6325
 9157TIP3   OH227434   2.353   0.052   5.700  0.5679 -0.0996  0.3582
 9157TIP3    H127435   2.324  -0.039   5.707 -0.6518  0.2847  0.5483
 9157TIP3    H227436   2.344   0.087   5.788  0.2499  0.4218  0.1218
 9158TIP3   OH227437   4.152   1.732   1.558 -0.5074 -0.2998  0.1333
 9158TIP3    H127438   4.170   1.699   1.470 -3.9869 -1.6815 -0.2045
 9158TIP3    H227439   4.143   1.827   1.547 -0.1423 -0.3688 -0.8182
 9159TIP3   OH227440   6.121   0.221   2.173 -0.3634  0.1661 -0.0327
 9159TIP3    H127441   6.049   0.268   2.215 -0.7886 -3.2949  3.7151
 9159TIP3    H227442   6.082   0.140   2.140  1.2766 -0.4275 -0.6345
 9160TIP3   OH227443   4.463   5.269   4.876 -0.2971  0.4887 -0.8517
 9160TIP3    H127444   4.556   5.264   4.899 -0.5770  1.4196  0.6049
 9160TIP3    H227445   4.446   5.187   4.829  1.1808  0.1708 -0.8930
 9161TIP3   OH227446   3.707   4.358   1.570 -0.0113  0.4794 -0.6714
 9161TIP3    H127447   3.627   4.306   1.578  0.4713 -0.2379 -0.3375
 9161TIP3    H227448   3.774   4.295   1.543  0.5362  0.9790 -0.5086
 9162TIP3   OH227449   6.706   0.889   1.236 -0.1764  0.2331  0.4997
 9162TIP3    H127450   6.615   0.902   1.208 -0.5343 -1.4335  0.7779
 9162TIP3    H227451   6.753   0.867   1.156 -0.5451 -1.3250  0.6759
 9163TIP3   OH227452   1.362   2.083   2.731  0.0611  0.0569 -0.3600
 9163TIP3    H127453   1.361   2.160   2.674 -0.7491 -0.6713 -1.3886
 9163TIP3    H227454   1.310   2.018   2.683  1.2110 -1.3294  0.1991
 9164TIP3   OH227455   1.084   5.571   5.714 -0.0299 -0.1971  0.3093
 9164TIP3    H127456   1.106   5.504   5.649 -0.0481 -0.1935  0.2993
 9164TIP3    H227457   1.045   5.642   5.662  1.4368  0.5066  0.1206
 9165TIP3   OH227458   2.309   6.275   5.653  0.4298  0.0346 -0.4136
 9165TIP3    H127459   2.339   6.241   5.737  2.3371  1.9610 -0.2332
 9165TIP3    H227460   2.389   6.288   5.602 -0.6686 -1.2683 -2.6665
 9166TIP3   OH227461   5.335   6.624   0.809  0.2593 -0.1050  0.1065
 9166TIP3    H127462   5.388   6.700   0.831  2.7063 -2.2470  2.2794
 9166TIP3    H227463   5.268   6.621   0.877  0.4223 -0.0981  0.2694
 9167TIP3   OH227464   2.802   5.674   1.994  0.2593  0.5605 -0.0027
 9167TIP3    H127465   2.895   5.684   1.971  0.5776 -2.4251 -0.3328
 9167TIP3    H227466   2.756   5.694   1.912  0.5710  2.0168  0.1487
 9168TIP3   OH227467   2.481   6.347   5.107 -0.2745  0.3600 -0.5795
 9168TIP3    H127468   2.549   6.415   5.107  1.4623 -1.2820  0.1418
 9168TIP3    H227469   2.434   6.360   5.025 -0.0677  2.4604 -0.4303
 9169TIP3   OH227470   0.716   2.118   0.249  0.7550  0.1441 -0.2703
 9169TIP3    H127471   0.751   2.046   0.301  0.4983 -0.1165 -0.4585
 9169TIP3    H227472   0.622   2.100   0.242  0.5912  0.8059  0.1777
 9170TIP3   OH227473   5.311   1.989   5.861 -0.4303 -0.0351 -0.4568
 9170TIP3    H127474   5.260   2.039   5.925 -1.2497 -0.1986 -0.9607
 9170TIP3    H227475   5.298   1.898   5.886 -0.0028 -0.0606 -0.3181
 9171TIP3   OH227476   2.681   4.762  -0.015  0.6702 -0.5012 -0.6840
 9171TIP3    H127477   2.616   4.804   0.042  0.0218 -1.3224 -0.7979
 9171TIP3    H227478   2.765   4.789   0.020  0.2774 -0.6257  0.3789
 9172TIP3   OH227479   5.098   3.065   2.452 -0.3683 -1.2833  0.1027
 9172TIP3    H127480   5.103   3.095   2.543 -1.8786 -0.6782  0.0234
 9172TIP3    H227481   5.155   3.124   2.404 -0.3593 -0.9516  0.5145
 9173TIP3   OH227482   4.444   4.190   0.449 -0.0909  0.1653  0.5809
 9173TIP3    H127483   4.387   4.126   0.492  0.4328 -1.6220 -1.2193
 9173TIP3    H227484   4.391   4.224   0.376  0.2926  0.3603  0.3918
 9174TIP3   OH227485   6.108   2.918   4.532  0.0291 -0.2325  0.3360
 9174TIP3    H127486   6.174   2.981   4.506 -0.6480  0.0788 -0.6806
 9174TIP3    H227487   6.057   2.902   4.453 -0.8291 -0.8132  0.9815
 9175TIP3   OH227488   3.362   0.255   5.242 -0.0942  0.2221  0.3450
 9175TIP3    H127489   3.372   0.185   5.308  0.3886  0.7128  0.8069
 9175TIP3    H227490   3.280   0.297   5.264  0.2222  0.5912  0.8475
 9176TIP3   OH227491   5.992   6.233   5.239  0.0525  0.7853  0.3509
 9176TIP3    H127492   6.048   6.171   5.286  0.8635  0.4871 -0.9475
 9176TIP3    H227493   6.049   6.308   5.223 -0.2122  0.8916 -0.1058
 9177TIP3   OH227494   0.868   2.853   1.283 -0.3058  0.7407  0.2231
 9177TIP3    H127495   0.789   2.844   1.229 -0.1819  1.3537 -0.0630
 9177TIP3    H227496   0.939   2.867   1.221 -0.0658  0.8266  0.5138
 9178TIP3   OH227497   2.370   4.328   1.145 -0.0166  0.1343 -0.5066
 9178TIP3    H127498   2.410   4.390   1.083  1.1722  0.2746  0.3744
 9178TIP3    H227499   2.372   4.244   1.099  2.2994 -0.0821 -0.1286
 9179TIP3   OH227500   1.679   2.658   5.540  0.2546  0.2559  0.4575
 9179TIP3    H127501   1.664   2.617   5.454 -1.6554  0.6191  0.5798
 9179TIP3    H227502   1.774   2.670   5.544  0.4715 -0.5241 -1.2524
 9180TIP3   OH227503   1.032   3.805   1.391  0.1928 -0.0409 -0.1722
 9180TIP3    H127504   1.072   3.728   1.351  0.8436  0.4140 -0.4100
 9180TIP3    H227505   0.939   3.782   1.402  0.0451 -0.2503 -1.7302
 9181TIP3   OH227506   5.369   1.271   2.599 -0.2211  0.1412 -0.2731
 9181TIP3    H127507   5.360   1.357   2.639  0.9102  0.8029 -1.3847
 9181TIP3    H227508   5.309   1.272   2.525 -1.9204 -0.8950  1.0039
 9182TIP3   OH227509   1.685   5.559   3.248  0.4843 -0.1608 -0.6781
 9182TIP3    H127510   1.763   5.609   3.223  0.1052 -0.2556 -2.1293
 9182TIP3    H227511   1.682   5.566   3.344  1.0255  1.7097 -0.7601
 9183TIP3   OH227512   4.655   3.586   0.032 -0.3764 -0.8102  0.5906
 9183TIP3    H127513   4.588   3.654   0.019  0.3950 -0.5461 -3.1480
 9183TIP3    H227514   4.725   3.630   0.080 -0.2277  0.9228 -1.0725
 9184TIP3   OH227515   4.335   6.826   5.767  0.8718  0.1386 -0.6715
 9184TIP3    H127516   4.328   6.753   5.829  0.6517 -1.2665 -2.2570
 9184TIP3    H227517   4.251   6.826   5.721  0.7191  1.6821 -0.4591
 9185TIP3   OH227518   3.582   3.455   2.707 -0.3975 -0.1830  0.4702
 9185TIP3    H127519   3.612   3.432   2.795  2.7708 -4.1116 -1.3384
 9185TIP3    H227520   3.662   3.481   2.660 -1.7426  0.3560 -1.6708
 9186TIP3   OH227521   5.882   5.575   3.539  0.4436  0.4147  0.2543
 9186TIP3    H127522   5.806   5.624   3.568  1.1687  1.5608  0.2912
 9186TIP3    H227523   5.955   5.610   3.592  1.0217 -0.5381  0.1153
 9187TIP3   OH227524   7.187   4.959   3.757 -0.2530  0.2715 -0.0532
 9187TIP3    H127525   7.183   4.939   3.664  1.1401 -0.1763 -0.0311
 9187TIP3    H227526   7.251   4.898   3.793 -0.6726  0.5183  1.1820
 9188TIP3   OH227527   0.805   4.052   2.437  0.1377 -0.1973  0.3410
 9188TIP3    H127528   0.856   4.018   2.512  0.2318 -0.7395  0.0405
 9188TIP3    H227529   0.834   4.143   2.428 -0.0913 -0.0337  1.1490
 9189TIP3   OH227530   5.389   1.422   1.840  0.0060 -0.1892  0.2772
 9189TIP3    H127531   5.388   1.395   1.749 -3.0809  1.6776 -0.3990
 9189TIP3    H227532   5.323   1.367   1.882  1.9206 -1.5664  1.6740
 9190TIP3   OH227533   0.428   6.512   0.791 -0.0122 -0.0481 -0.1715
 9190TIP3    H127534   0.346   6.462   0.787 -0.1354  0.0707  0.5689
 9190TIP3    H227535   0.489   6.454   0.837 -0.0685  0.3592  0.4324
 9191TIP3   OH227536   3.061   5.573   3.107  0.3460 -0.1564 -0.3226
 9191TIP3    H127537   2.969   5.548   3.098  0.8021 -1.6573 -1.4193
 9191TIP3    H227538   3.072   5.593   3.200  0.2076 -6.0457  1.3992
 9192TIP3   OH227539   3.370   0.303   2.240 -0.0161 -0.2063  0.2686
 9192TIP3    H127540   3.452   0.271   2.277 -1.1364 -1.9319  1.4206
 9192TIP3    H227541   3.327   0.349   2.312 -0.8589 -0.9135  0.2319
 9193TIP3   OH227542   1.198   5.330   1.812 -0.5924  0.3127  0.5216
 9193TIP3    H127543   1.188   5.261   1.878  0.9351  1.4862  2.0677
 9193TIP3    H227544   1.218   5.282   1.731 -0.5837 -1.1055  1.3193
 9194TIP3   OH227545   6.130   4.124   0.340 -0.3718 -0.1349 -0.1687
 9194TIP3    H127546   6.203   4.091   0.393 -0.5744 -0.5088 -0.1171
 9194TIP3    H227547   6.118   4.058   0.271 -0.6248 -0.0515 -0.2075
 9195TIP3   OH227548   5.539   1.299   1.616 -0.0176 -0.1526 -0.2003
 9195TIP3    H127549   5.588   1.376   1.586  1.1591 -1.0373 -0.6298
 9195TIP3    H227550   5.589   1.267   1.691  0.0111 -0.9971 -0.5682
 9196TIP3   OH227551   5.849   4.028   1.442 -0.0108  0.4278  0.6465
 9196TIP3    H127552   5.800   3.979   1.508 -1.1139 -0.6607 -0.9197
 9196TIP3    H227553   5.934   3.985   1.439 -0.9675 -1.4881 -0.7123
 9197TIP3   OH227554   1.477   4.957   5.820  0.4700  0.3971  0.3670
 9197TIP3    H127555   1.434   4.885   5.865  0.5909 -0.7479 -1.2403
 9197TIP3    H227556   1.560   4.969   5.867 -0.5789  1.1370  2.1128
 9198TIP3   OH227557   3.676   5.167   0.102  0.0625 -0.8573 -0.2265
 9198TIP3    H127558   3.688   5.190   0.194 -0.9338  0.6716 -0.4338
 9198TIP3    H227559   3.739   5.222   0.056 -1.4923  0.6598 -0.6462
 9199TIP3   OH227560   0.535   0.554   0.522  0.7499  0.0187 -0.2331
 9199TIP3    H127561   0.584   0.611   0.464  0.6241  1.0485  0.6236
 9199TIP3    H227562   0.601   0.504   0.569  0.8728 -0.3989 -0.8568
 9200TIP3   OH227563   6.015   0.143   4.172 -0.1736  0.4546  0.3751
 9200TIP3    H127564   6.049   0.118   4.258 -2.2241 -0.4471  0.9803
 9200TIP3    H227565   5.928   0.179   4.189 -0.6883  0.1353 -1.3343
 9201TIP3   OH227566   1.672   5.457   3.809 -0.0368 -0.1953  0.8863
 9201TIP3    H127567   1.589   5.413   3.828 -0.9285  1.1522  0.2849
 9201TIP3    H227568   1.662   5.545   3.847 -0.1315  1.0513 -1.7934
 9202TIP3   OH227569   6.799   6.328   3.923 -0.5716 -0.5590  0.0469
 9202TIP3    H127570   6.754   6.361   4.001  0.9589 -1.1824  1.2536
 9202TIP3    H227571   6.766   6.381   3.851 -1.5434  0.4791  1.2248
 9203TIP3   OH227572   1.814   3.429   2.106  0.2586  0.4455  1.2521
 9203TIP3    H127573   1.722   3.451   2.120 -0.0878  0.2228 -0.4953
 9203TIP3    H227574   1.862   3.508   2.132 -0.6106  1.4801 -0.1229
 9204TIP3   OH227575   3.349   2.516   2.572  0.5350  0.3480 -0.6663
 9204TIP3    H127576   3.384   2.524   2.661 -1.1718 -0.9079  0.1857
 9204TIP3    H227577   3.422   2.537   2.515  2.0927 -0.2528  1.0167
 9205TIP3   OH227578   6.969   3.247   0.357 -0.1990  0.5594 -0.5211
 9205TIP3    H127579   7.001   3.233   0.446  0.6257  0.4151 -0.8383
 9205TIP3    H227580   7.026   3.195   0.301  0.4343  2.0378 -1.3177
 9206TIP3   OH227581   0.498   2.244   4.737 -0.3116 -0.2258 -0.5214
 9206TIP3    H127582   0.573   2.298   4.713  0.5600 -1.2234 -0.1354
 9206TIP3    H227583   0.472   2.202   4.655  1.1206 -1.7508 -0.2410
 9207TIP3   OH227584   1.202   1.485   4.660 -0.4919  0.2133 -1.0189
 9207TIP3    H127585   1.134   1.538   4.617  0.4767  1.6877 -0.8357
 9207TIP3    H227586   1.284   1.515   4.620  0.3714  1.0719  1.2413
 9208TIP3   OH227587   0.779   3.428   0.692  0.3406  0.2888  0.8358
 9208TIP3    H127588   0.740   3.492   0.634  1.0934  0.8480  0.9214
 9208TIP3    H227589   0.866   3.464   0.711  0.7808 -0.7662  0.8689
 9209TIP3   OH227590   0.583   2.644   3.333  0.2175 -0.0101  0.1927
 9209TIP3    H127591   0.514   2.710   3.328  0.2236  0.0579  0.9417
 9209TIP3    H227592   0.629   2.664   3.414  1.9615  0.7634 -0.9287
 9210TIP3   OH227593   3.029  -0.012   4.129 -0.2265  0.3879 -0.1676
 9210TIP3    H127594   2.953   0.034   4.166 -1.0759 -0.7162 -0.4668
 9210TIP3    H227595   3.050   0.037   4.050  1.1062  2.2930  1.2853
 9211TIP3   OH227596   3.000   4.598   4.844  0.1043 -0.2068  0.0419
 9211TIP3    H127597   3.020   4.605   4.751 -0.6057  0.9140 -0.0471
 9211TIP3    H227598   3.081   4.566   4.884  0.9179  0.7994 -0.7630
 9212TIP3   OH227599   3.140   6.107   3.475 -0.4673  0.0536 -0.3797
 9212TIP3    H127600   3.211   6.119   3.538 -1.1382 -0.1735  0.4326
 9212TIP3    H227601   3.184   6.103   3.390  0.5888 -1.0671  0.1902
 9213TIP3   OH227602   2.742   1.501   4.508 -0.0852 -0.4289 -0.2022
 9213TIP3    H127603   2.796   1.580   4.517  0.0831 -0.5336 -0.2999
 9213TIP3    H227604   2.794   1.432   4.548  0.0341 -0.6133 -0.6761
 9214TIP3   OH227605   3.149   1.866   1.701  0.3467  0.0995  0.1105
 9214TIP3    H127606   3.165   1.953   1.737 -1.5827  0.3636  0.4236
 9214TIP3    H227607   3.054   1.858   1.697  0.4373 -2.3249  0.8581
 9215TIP3   OH227608   5.600   4.724   2.504  0.3888  0.2153  0.6608
 9215TIP3    H127609   5.619   4.813   2.532  1.1628  0.2378  0.0918
 9215TIP3    H227610   5.658   4.669   2.556  1.7806  0.2518 -0.7557
 9216TIP3   OH227611   5.491   0.298   2.032  0.3230 -0.2205 -0.1270
 9216TIP3    H127612   5.468   0.294   2.125 -3.6330  0.8166 -0.8763
 9216TIP3    H227613   5.455   0.382   2.002 -2.1952 -2.1828 -3.2929
 9217TIP3   OH227614   3.398   3.210   5.050  0.1963  0.2362  0.2492
 9217TIP3    H127615   3.432   3.211   5.140 -1.8365 -1.8514  1.1523
 9217TIP3    H227616   3.409   3.120   5.022 -1.1721  0.3569 -0.7663
 9218TIP3   OH227617   0.722   1.271   5.101 -0.0724  0.1617  0.0372
 9218TIP3    H127618   0.795   1.213   5.120 -0.4000 -0.6373 -1.0712
 9218TIP3    H227619   0.645   1.215   5.105 -0.5729  0.8567  0.5282
 9219TIP3   OH227620   4.179   4.453   5.026 -0.7927  0.9217  0.7241
 9219TIP3    H127621   4.206   4.370   4.988 -4.4405 -0.2421  0.2122
 9219TIP3    H227622   4.160   4.509   4.951 -0.8757  1.2803  1.0055
 9220TIP3   OH227623   2.976   4.158   1.653 -0.0162 -0.3078  0.2276
 9220TIP3    H127624   2.984   4.221   1.581 -0.1377 -0.9479 -0.3589
 9220TIP3    H227625   3.007   4.075   1.617 -0.6018 -0.7670  0.7332
 9221TIP3   OH227626   3.407   5.260   4.782  0.5567  0.7165  0.0303
 9221TIP3    H127627   3.330   5.262   4.724  1.5034  0.4766 -1.2803
 9221TIP3    H227628   3.434   5.168   4.782 -1.7776 -0.2249  4.1691
 9222TIP3   OH227629   2.110   1.018   5.392 -0.0245 -0.2278 -0.5349
 9222TIP3    H127630   2.185   1.048   5.444  0.8824 -0.3527 -1.7232
 9222TIP3    H227631   2.081   1.095   5.345  0.2943 -0.4987 -1.1866
 9223TIP3   OH227632   1.355   4.308   0.731 -0.1642 -0.0095 -0.0289
 9223TIP3    H127633   1.298   4.382   0.752  0.2414  0.4701 -0.5690
 9223TIP3    H227634   1.355   4.254   0.809 -1.9807 -0.4289 -0.2701
 9224TIP3   OH227635   3.670   0.549   0.065 -0.0690 -0.0755 -0.3579
 9224TIP3    H127636   3.587   0.518   0.102  0.8518 -1.4784  0.6104
 9224TIP3    H227637   3.736   0.520   0.127  1.2261  0.4010 -1.4746
 9225TIP3   OH227638   4.478   5.061   4.641  0.8339 -0.4162 -0.0436
 9225TIP3    H127639   4.534   4.992   4.607 -0.0119 -1.4930  0.6741
 9225TIP3    H227640   4.407   5.015   4.686  0.7264  0.9087  1.2421
 9226TIP3   OH227641   1.916   6.654   1.582  0.3844  0.6554  0.1838
 9226TIP3    H127642   1.844   6.717   1.585 -0.7084 -0.5716  2.3486
 9226TIP3    H227643   1.893   6.594   1.511  0.1925  1.2732 -0.2876
 9227TIP3   OH227644   3.012   3.857   3.288 -0.2320 -0.0068  0.4081
 9227TIP3    H127645   2.960   3.808   3.224  0.1644 -0.7943  0.6730
 9227TIP3    H227646   3.009   3.804   3.367  0.3691  0.3022  0.6463
 9228TIP3   OH227647   6.171   5.953   0.646  0.1843 -0.5487 -0.1949
 9228TIP3    H127648   6.095   5.906   0.680 -1.5540  0.5190 -2.3725
 9228TIP3    H227649   6.155   5.960   0.552  1.9321  1.6131 -0.4053
 9229TIP3   OH227650   5.087   0.312   3.088  0.8861 -0.5382  0.3020
 9229TIP3    H127651   5.167   0.364   3.097  0.3527  0.1644  1.1112
 9229TIP3    H227652   5.061   0.292   3.178 -0.6955  0.5894  0.1365
 9230TIP3   OH227653   1.323   5.252   5.312  0.7650  0.0689  0.4581
 9230TIP3    H127654   1.377   5.281   5.239  0.2749 -0.1194  0.0218
 9230TIP3    H227655   1.277   5.175   5.280 -1.3129  1.3781  0.1355
 9231TIP3   OH227656   7.165   4.577   2.193  0.1347 -0.0303 -0.2847
 9231TIP3    H127657   7.129   4.612   2.274 -0.5358 -0.0662 -0.5601
 9231TIP3    H227658   7.103   4.509   2.166 -0.0122  0.4531 -1.1846
 9232TIP3   OH227659   4.243   1.063   2.545  0.2913  0.1513  0.3528
 9232TIP3    H127660   4.218   0.973   2.566  1.8892 -1.0719 -2.4307
 9232TIP3    H227661   4.309   1.085   2.611 -1.0029 -0.1927  1.8220
 9233TIP3   OH227662   1.263   6.662   3.159 -0.2299  0.3424  0.0045
 9233TIP3    H127663   1.241   6.675   3.067  2.3646  0.2222 -0.7089
 9233TIP3    H227664   1.345   6.613   3.158 -0.4667 -0.2563  2.4085
 9234TIP3   OH227665   6.907   4.006   2.480 -0.6457 -0.8810  0.4064
 9234TIP3    H127666   7.002   4.008   2.487 -0.6859 -1.6751  1.6380
 9234TIP3    H227667   6.878   4.091   2.513 -0.4189 -1.4582  2.2326
 9235TIP3   OH227668   2.987   0.945   0.904  0.5596  0.1219 -0.3020
 9235TIP3    H127669   3.029   0.943   0.818  0.4203 -1.2756 -0.3646
 9235TIP3    H227670   2.953   0.856   0.917  1.2498  0.0736  1.5313
 9236TIP3   OH227671   6.177   6.278   1.977  0.2388  0.3049  0.2127
 9236TIP3    H127672   6.269   6.262   1.955  0.4374 -2.1869  2.2770
 9236TIP3    H227673   6.176   6.365   2.016  1.5371  0.7663 -0.7186
 9237TIP3   OH227674   2.449   5.840   1.637 -0.6973  0.4360 -0.3108
 9237TIP3    H127675   2.357   5.815   1.649 -1.4917  2.9759 -0.5784
 9237TIP3    H227676   2.457   5.859   1.544 -0.1920  1.1998 -0.1229
 9238TIP3   OH227677   2.245   6.268   3.964 -0.4038  0.0493 -0.2747
 9238TIP3    H127678   2.211   6.200   4.022 -0.5888 -0.7876 -1.3313
 9238TIP3    H227679   2.295   6.221   3.897  0.1715  1.0222 -0.5534
 9239TIP3   OH227680   6.596   6.365   2.590 -0.5577  0.8951 -0.2603
 9239TIP3    H127681   6.540   6.299   2.630  0.7896 -0.1367 -0.0134
 9239TIP3    H227682   6.551   6.388   2.508 -0.2795 -1.5467 -1.1785
 9240TIP3   OH227683   1.533   4.676   3.661  0.5101  0.2384 -0.1563
 9240TIP3    H127684   1.480   4.623   3.721 -0.8977  0.8248 -0.8488
 9240TIP3    H227685   1.502   4.765   3.674  0.0173  0.3439 -1.9115
 9241TIP3   OH227686   5.882   1.586   1.550  0.5199 -0.6722  0.7204
 9241TIP3    H127687   5.787   1.587   1.548  0.5193 -0.3834  0.8324
 9241TIP3    H227688   5.904   1.594   1.643  0.6452 -1.6467  0.7797
 9242TIP3   OH227689   5.488   0.465  -0.011  0.3227 -0.6001  0.9162
 9242TIP3    H127690   5.540   0.448   0.068  3.3026  1.1325 -0.4691
 9242TIP3    H227691   5.461   0.556  -0.002 -0.9569 -0.9582  0.7674
 9243TIP3   OH227692   1.649   6.319   5.502 -0.2094  0.3920  0.0035
 9243TIP3    H127693   1.577   6.296   5.442  0.7775 -0.2641 -0.9677
 9243TIP3    H227694   1.702   6.381   5.452  0.5178 -0.0099  0.2738
 9244TIP3   OH227695   2.904   6.404   4.439 -0.2184 -0.8249  0.7347
 9244TIP3    H127696   2.926   6.411   4.346 -0.4649 -0.0788  0.7280
 9244TIP3    H227697   2.978   6.355   4.477  0.4100 -0.2022  0.3397
 9245TIP3   OH227698   2.599   3.499   2.935 -0.0063  0.3082  0.0134
 9245TIP3    H127699   2.566   3.504   2.846 -0.2377  0.2055  0.0926
 9245TIP3    H227700   2.615   3.590   2.960  1.2805  0.2735 -0.5775
 9246TIP3   OH227701   1.580   3.694   2.452  0.3500 -0.0722 -0.3502
 9246TIP3    H127702   1.622   3.609   2.449  1.7781  0.5932 -0.0753
 9246TIP3    H227703   1.579   3.718   2.544  0.7088  0.5681 -0.5093
 9247TIP3   OH227704   4.226   0.824   3.894  0.3330 -0.6606  0.0038
 9247TIP3    H127705   4.194   0.753   3.839  1.2919 -1.8269  0.9060
 9247TIP3    H227706   4.150   0.881   3.907 -0.3031 -1.2042 -1.1967
 9248TIP3   OH227707   0.517   0.224   4.467 -0.0268  0.0833 -0.5240
 9248TIP3    H127708   0.510   0.139   4.424  2.0433 -0.3069 -0.2074
 9248TIP3    H227709   0.458   0.281   4.417  0.2710 -0.9978 -2.2017
 9249TIP3   OH227710   1.382   0.560   4.227 -0.0947  1.4379 -0.3953
 9249TIP3    H127711   1.456   0.517   4.183  0.6780  0.7767  1.4589
 9249TIP3    H227712   1.327   0.590   4.155 -0.7291 -2.6241 -1.8925
 9250TIP3   OH227713   6.449   2.540   1.494  0.0953  0.3090 -0.5415
 9250TIP3    H127714   6.523   2.536   1.434 -0.2276  1.5086 -1.0246
 9250TIP3    H227715   6.372   2.539   1.438 -0.2868 -0.8987 -0.0413
 9251TIP3   OH227716   5.489   0.220   2.554 -0.0463  0.3608  0.2690
 9251TIP3    H127717   5.422   0.282   2.582 -1.1912 -0.7119 -0.0645
 9251TIP3    H227718   5.453   0.134   2.572  1.3148 -0.2416  0.2393
 9252TIP3   OH227719   7.214   0.209   5.512  0.4511  0.1085 -0.4248
 9252TIP3    H127720   7.165   0.264   5.450 -0.2267 -0.2842 -0.2495
 9252TIP3    H227721   7.161   0.130   5.521  0.5087  0.1922  0.7117
 9253TIP3   OH227722   3.224   4.688   4.196 -0.4481  0.5164  0.3987
 9253TIP3    H127723   3.241   4.751   4.126 -0.3054  0.6517  0.5549
 9253TIP3    H227724   3.251   4.604   4.160  1.8220  0.8942  1.1056
 9254TIP3   OH227725   1.008   2.996   3.699 -0.2883 -0.6158 -0.1423
 9254TIP3    H127726   1.000   2.959   3.787  0.2753 -0.3743  0.0158
 9254TIP3    H227727   0.918   3.018   3.674 -0.3903 -0.1510  0.6062
 9255TIP3   OH227728   1.685   2.787   0.304 -0.2909 -0.0037  0.6207
 9255TIP3    H127729   1.596   2.797   0.271  0.3066 -0.9987 -1.4767
 9255TIP3    H227730   1.730   2.737   0.236  1.9730  0.7815  1.4548
 9256TIP3   OH227731   2.261   1.639   5.488 -0.2379 -0.1951  0.2909
 9256TIP3    H127732   2.176   1.597   5.478 -0.0231 -0.2262 -1.9052
 9256TIP3    H227733   2.251   1.696   5.564 -1.5577 -1.7031  1.3028
 9257TIP3   OH227734   5.417   4.097   1.300  0.1324 -0.4932 -0.1393
 9257TIP3    H127735   5.437   4.051   1.381 -0.1581 -0.2477  0.0752
 9257TIP3    H227736   5.502   4.108   1.257  0.3054 -0.5145  0.1920
 9258TIP3   OH227737   2.778   1.573   3.981 -0.3423  0.3062 -0.0513
 9258TIP3    H127738   2.786   1.622   4.062 -0.0926  1.4963 -0.7664
 9258TIP3    H227739   2.701   1.609   3.938  0.1588  0.4794 -0.8429
 9259TIP3   OH227740   6.325   1.212   0.283 -0.0545 -0.0938 -0.2721
 9259TIP3    H127741   6.284   1.151   0.344  2.0598 -0.9114  0.4148
 9259TIP3    H227742   6.374   1.157   0.223  1.2932  0.8529 -0.0983
 9260TIP3   OH227743   2.804   2.547   4.881  0.2785 -0.0966 -0.1891
 9260TIP3    H127744   2.720   2.502   4.890  0.1020  0.2190 -0.2578
 9260TIP3    H227745   2.848   2.531   4.965 -0.3179  0.6835  0.2933
 9261TIP3   OH227746   5.974   3.390   1.250 -0.6006 -0.3024  0.7047
 9261TIP3    H127747   5.974   3.314   1.190 -0.3612 -0.4014  0.8282
 9261TIP3    H227748   5.997   3.353   1.335  0.5470  0.0591  0.5681
 9262TIP3   OH227749   7.106   3.723   1.204 -0.1191 -0.5148  0.3080
 9262TIP3    H127750   7.119   3.634   1.237  0.6925 -0.2605  0.6969
 9262TIP3    H227751   7.027   3.754   1.250  0.7715 -0.3046  1.7657
 9263TIP3   OH227752   1.044   6.397   0.557 -0.2039 -0.0723 -0.6388
 9263TIP3    H127753   1.039   6.302   0.567  0.0382  0.0725  1.5119
 9263TIP3    H227754   1.136   6.418   0.567  0.0143  0.2862 -2.9374
 9264TIP3   OH227755   3.884   4.304   2.853  0.2984 -0.0319 -0.2009
 9264TIP3    H127756   3.964   4.348   2.826  0.1268  0.1151 -0.4685
 9264TIP3    H227757   3.903   4.211   2.840  0.5879 -0.0269  0.1739
 9265TIP3   OH227758   3.647   6.218   4.793 -0.2230  0.5074  0.0485
 9265TIP3    H127759   3.673   6.161   4.720  0.0984  1.8509 -0.9173
 9265TIP3    H227760   3.564   6.181   4.824 -1.0787  0.7128 -1.8963
 9266TIP3   OH227761   4.393   0.366   3.325 -0.0932 -0.1784  0.3190
 9266TIP3    H127762   4.441   0.388   3.405 -0.7415  1.3744  0.3090
 9266TIP3    H227763   4.460   0.354   3.258  0.4019 -0.5201  0.8698
 9267TIP3   OH227764   0.671   2.338   1.280 -0.2184  0.2431  0.1887
 9267TIP3    H127765   0.719   2.421   1.268  0.8540 -0.2631  0.8441
 9267TIP3    H227766   0.583   2.357   1.247  0.1392  1.5061 -0.1167
 9268TIP3   OH227767   2.908   3.208   5.149 -0.4852  1.1038  0.5772
 9268TIP3    H127768   2.970   3.143   5.116 -1.5879  0.0036  0.6293
 9268TIP3    H227769   2.962   3.267   5.203  0.3963 -0.2356  1.1973
 9269TIP3   OH227770   2.123   1.918   0.937 -0.1189  0.4447 -0.3668
 9269TIP3    H127771   2.064   1.974   0.988  0.0081  0.1271  0.1311
 9269TIP3    H227772   2.171   1.980   0.881 -0.6762  0.7371 -0.5346
 9270TIP3   OH227773   5.841   2.679   5.068 -0.4442  0.0800  0.3204
 9270TIP3    H127774   5.862   2.645   4.981 -0.2186 -0.5860  0.6226
 9270TIP3    H227775   5.822   2.772   5.055 -2.2062 -0.3726 -0.7337
 9271TIP3   OH227776   6.084   3.458   0.201 -0.5865 -0.7282 -0.2938
 9271TIP3    H127777   6.080   3.487   0.292 -0.7598  0.1460 -0.5685
 9271TIP3    H227778   6.002   3.410   0.188 -0.3069 -1.3457  0.1617
 9272TIP3   OH227779   5.225   5.951   0.877  0.4987  0.2319 -0.1979
 9272TIP3    H127780   5.216   5.890   0.804  1.3299  1.0671 -1.0289
 9272TIP3    H227781   5.217   6.037   0.837 -0.9293  0.6841  0.9987
 9273TIP3   OH227782   4.766   2.077   5.466 -0.0945 -0.1991  0.0039
 9273TIP3    H127783   4.810   2.123   5.395 -0.3061 -0.2880 -0.1864
 9273TIP3    H227784   4.834   2.066   5.533 -0.0274  0.3272  0.0242
 9274TIP3   OH227785   0.212   4.134   5.660  0.1059  0.3739  0.1768
 9274TIP3    H127786   0.245   4.168   5.743  0.8699  1.4767 -0.5483
 9274TIP3    H227787   0.119   4.116   5.677  0.6863 -1.3620  1.8174
 9275TIP3   OH227788   1.250   2.431   2.907  0.1061  0.0372  0.2755
 9275TIP3    H127789   1.178   2.370   2.927 -0.7939  0.2658 -1.9533
 9275TIP3    H227790   1.239   2.502   2.970  0.1727 -1.2640  1.8419
 9276TIP3   OH227791   0.565   0.578   5.235 -0.0845 -0.2430 -0.6348
 9276TIP3    H127792   0.571   0.594   5.329 -2.3400 -0.5057 -0.3910
 9276TIP3    H227793   0.553   0.483   5.227  1.0311 -0.3442 -1.2589
 9277TIP3   OH227794   1.220   0.635   0.294 -0.3646 -0.0638 -0.7068
 9277TIP3    H127795   1.139   0.630   0.243  0.3637 -0.8907 -1.8399
 9277TIP3    H227796   1.191   0.643   0.384 -1.7519  3.5875 -1.3050
 9278TIP3   OH227797   0.572   6.520   0.527  0.5589 -0.1920  0.5960
 9278TIP3    H127798   0.627   6.529   0.604  0.4449  2.0373  0.4823
 9278TIP3    H227799   0.494   6.474   0.559  0.6421  0.4310  1.7522
 9279TIP3   OH227800   0.513   0.630   4.423  0.5784 -0.1295 -0.5015
 9279TIP3    H127801   0.494   0.703   4.364  0.7857  2.2078  2.1019
 9279TIP3    H227802   0.432   0.618   4.473  0.5869 -1.6686 -0.8088
 9280TIP3   OH227803   6.854   6.724   0.981 -0.5334 -0.6643  0.0052
 9280TIP3    H127804   6.862   6.818   0.998  0.1276 -0.9461  1.3577
 9280TIP3    H227805   6.944   6.692   0.977 -0.7580 -1.3124 -0.0686
 9281TIP3   OH227806   5.353   2.535   5.787  0.0356 -0.4171  0.3519
 9281TIP3    H127807   5.413   2.607   5.767 -0.3495 -0.4298 -0.9540
 9281TIP3    H227808   5.394   2.458   5.746 -0.9115 -0.3990 -0.6878
 9282TIP3   OH227809   1.447   5.459   4.327  0.1379  0.9418 -0.6806
 9282TIP3    H127810   1.353   5.439   4.329 -0.0671  1.8968  0.3347
 9282TIP3    H227811   1.452   5.551   4.351  1.4719  0.4187  1.2237
 9283TIP3   OH227812   5.489   4.083   5.656 -0.1591  0.5766  0.5266
 9283TIP3    H127813   5.443   4.025   5.717 -1.0611  0.7240  0.0003
 9283TIP3    H227814   5.514   4.159   5.710  1.1545 -0.3276  1.2530
 9284TIP3   OH227815   5.904   1.280   4.667  0.6133  0.0352 -0.4893
 9284TIP3    H127816   5.877   1.219   4.598  0.5884  1.6274 -1.9521
 9284TIP3    H227817   5.976   1.329   4.628 -0.2420  1.8616  0.1251
 9285TIP3   OH227818   0.581   1.369   4.435  0.0383 -0.0110 -0.0232
 9285TIP3    H127819   0.649   1.332   4.378 -0.0065  1.7594 -1.3156
 9285TIP3    H227820   0.514   1.400   4.375 -2.5117 -2.6224  1.2496
 9286TIP3   OH227821   3.852   0.183   2.933 -0.1593  0.0438  0.1884
 9286TIP3    H127822   3.763   0.181   2.970 -0.2562  0.2706 -0.0255
 9286TIP3    H227823   3.856   0.106   2.877 -1.3392  1.6220 -2.3050
 9287TIP3   OH227824   0.661   2.330   3.606 -0.8001 -0.3296  0.0132
 9287TIP3    H127825   0.748   2.360   3.581 -1.0576 -0.7891 -1.4866
 9287TIP3    H227826   0.677   2.267   3.677  0.0929 -0.5387 -0.3655
 9288TIP3   OH227827   1.267   3.381   0.000  0.1928  0.2495 -0.3209
 9288TIP3    H127828   1.230   3.454   0.049  0.7977 -0.3247  1.0570
 9288TIP3    H227829   1.333   3.344   0.059  1.5853  0.0709 -1.9513
 9289TIP3   OH227830   3.267   5.868   0.745 -0.0848  0.5574 -0.4333
 9289TIP3    H127831   3.321   5.936   0.786 -2.2107  1.4506  1.1522
 9289TIP3    H227832   3.252   5.899   0.656  2.0880  0.1699 -0.9906
 9290TIP3   OH227833   0.977   1.730   3.477 -0.3412 -0.3515 -0.1788
 9290TIP3    H127834   1.017   1.800   3.528 -2.2005  1.3464 -0.9289
 9290TIP3    H227835   0.946   1.667   3.543  0.8551 -0.2439  0.5256
 9291TIP3   OH227836   0.628   3.698   4.234 -0.3271 -0.6449 -0.4850
 9291TIP3    H127837   0.723   3.687   4.225 -0.3812 -2.5758  0.6243
 9291TIP3    H227838   0.599   3.617   4.276 -2.5832 -0.4029 -1.4429
 9292TIP3   OH227839   4.184   0.590   4.071 -0.0157 -0.6847  0.4808
 9292TIP3    H127840   4.271   0.590   4.032  0.4725 -1.1293  1.5377
 9292TIP3    H227841   4.164   0.682   4.087 -0.3594 -0.4573 -1.0514
 9293TIP3   OH227842   0.961   4.104   5.656 -0.5088 -0.4825  0.4859
 9293TIP3    H127843   0.887   4.045   5.642  1.0911 -2.1988 -1.4876
 9293TIP3    H227844   1.036   4.056   5.620  1.6438  1.0118  2.7219
 9294TIP3   OH227845   1.380   1.306   3.983 -0.1680  0.0482 -0.3229
 9294TIP3    H127846   1.302   1.270   3.941 -0.2283 -0.0062 -0.1678
 9294TIP3    H227847   1.446   1.309   3.914 -0.3038  0.0799 -0.4504
 9295TIP3   OH227848   4.129   2.868   0.719  0.1608  0.6572  0.3805
 9295TIP3    H127849   4.095   2.839   0.804  0.1193 -1.4420 -0.2886
 9295TIP3    H227850   4.147   2.787   0.672  0.4802  1.7729 -1.5134
 9296TIP3   OH227851   5.041   4.625   3.322  0.2752 -0.6240  0.5233
 9296TIP3    H127852   4.967   4.685   3.323  0.6417 -0.1480  1.5282
 9296TIP3    H227853   5.007   4.544   3.284 -0.2591  0.1760 -0.7350
 9297TIP3   OH227854   3.525   6.301   5.568  0.2098  0.9124 -0.3413
 9297TIP3    H127855   3.498   6.214   5.598 -0.0136  0.1049 -2.7475
 9297TIP3    H227856   3.591   6.284   5.502  1.7354  2.6872  0.6290
 9298TIP3   OH227857   1.960   6.098   2.126 -0.0475  0.0067  0.8649
 9298TIP3    H127858   1.975   6.099   2.032 -1.0630 -1.5658  0.6409
 9298TIP3    H227859   2.003   6.177   2.158  2.8583 -0.8407 -0.5176
 9299TIP3   OH227860   6.742   4.761   1.960  0.3045 -0.4259  0.1815
 9299TIP3    H127861   6.767   4.673   1.933  2.4364 -0.0977  0.8841
 9299TIP3    H227862   6.736   4.756   2.056  1.0012  0.2933  0.2746
 9300TIP3   OH227863   6.793   5.890   0.767  0.0381 -0.2613 -0.6625
 9300TIP3    H127864   6.798   5.821   0.834  4.6604 -0.7767 -1.1849
 9300TIP3    H227865   6.854   5.957   0.798 -2.0123  2.2177 -1.7233
 9301TIP3   OH227866   5.196   3.691   5.382 -0.2626  0.4175  0.3622
 9301TIP3    H127867   5.115   3.706   5.429 -0.2884  1.8121 -0.0650
 9301TIP3    H227868   5.265   3.715   5.444 -0.2915  2.0816 -0.1966
 9302TIP3   OH227869   3.590   3.674   0.294  0.1987 -0.2175 -0.4712
 9302TIP3    H127870   3.570   3.729   0.370  3.0158  1.2892 -0.6811
 9302TIP3    H227871   3.619   3.591   0.332 -1.5627 -0.7074 -0.0771
 9303TIP3   OH227872   1.656   0.035   4.991 -0.1044 -0.2194  0.4790
 9303TIP3    H127873   1.567   0.041   4.955  0.0302 -0.2742  0.1334
 9303TIP3    H227874   1.711   0.016   4.915  0.2607  0.2507  0.6236
 9304TIP3   OH227875   0.225   4.561   2.173  0.2273  0.0211 -0.0448
 9304TIP3    H127876   0.252   4.621   2.242  0.2832 -1.1388  0.9654
 9304TIP3    H227877   0.135   4.587   2.152  0.6997  1.3018 -0.5828
 9305TIP3   OH227878   1.596   2.672   4.258  0.5838  0.3253  0.2217
 9305TIP3    H127879   1.551   2.604   4.309  0.7066  1.1946  1.5295
 9305TIP3    H227880   1.689   2.649   4.266  0.6538  0.8519  0.9906
 9306TIP3   OH227881   7.100   5.070   2.346  0.3084  0.4172  0.4827
 9306TIP3    H127882   7.087   4.984   2.306  2.2321  0.0927  0.4719
 9306TIP3    H227883   7.012   5.097   2.373 -0.4612 -1.1421 -0.3164
 9307TIP3   OH227884   1.405   6.045   4.683 -0.7928  0.7237  0.0594
 9307TIP3    H127885   1.334   5.990   4.716 -0.6968 -0.9861 -2.3682
 9307TIP3    H227886   1.482   6.019   4.733 -1.2759  0.5144  0.6979
 9308TIP3   OH227887   0.316   1.471   2.972  0.0488 -0.2311 -0.2976
 9308TIP3    H127888   0.309   1.512   3.058 -0.6093 -0.1623 -0.3849
 9308TIP3    H227889   0.375   1.528   2.923  1.3515 -0.8723  0.4622
 9309TIP3   OH227890   6.382   1.847   5.626 -0.9007  0.1545  0.3357
 9309TIP3    H127891   6.365   1.843   5.720 -1.0357 -0.9904  0.2735
 9309TIP3    H227892   6.363   1.759   5.594  2.1921 -0.4044 -0.2508
 9310TIP3   OH227893   7.012   6.695   0.291 -0.7518  0.5712 -0.2041
 9310TIP3    H127894   7.019   6.618   0.234  2.1861  1.1625 -0.7657
 9310TIP3    H227895   6.953   6.754   0.243  0.5568  0.4795 -2.0518
 9311TIP3   OH227896   0.199   3.555   4.673  0.3209  0.4348  0.3614
 9311TIP3    H127897   0.256   3.539   4.598 -0.0644  1.8834 -0.2784
 9311TIP3    H227898   0.127   3.492   4.663  0.6975  0.0599 -0.0115
 9312TIP3   OH227899   0.153   6.734   3.695  0.0710 -0.4012 -0.0480
 9312TIP3    H127900   0.138   6.735   3.601  1.5300  1.3245 -0.3223
 9312TIP3    H227901   0.231   6.679   3.706  0.9593  0.8150 -0.0794
 9313TIP3   OH227902   3.921   0.987   4.562  0.1017 -0.3539  0.3842
 9313TIP3    H127903   4.007   0.958   4.531  0.6125  0.2379  1.1966
 9313TIP3    H227904   3.875   0.906   4.584 -1.7104 -1.2605 -5.0950
 9314TIP3   OH227905   4.897   3.345   2.485  0.3984  0.4927  0.1274
 9314TIP3    H127906   4.989   3.342   2.511  0.6207  1.6856 -0.4262
 9314TIP3    H227907   4.849   3.359   2.567  0.5931 -1.2350  0.5660
 9315TIP3   OH227908   2.808   4.063   2.390  0.2619 -0.0437  0.3105
 9315TIP3    H127909   2.740   4.128   2.402 -0.7219 -0.8963 -0.4454
 9315TIP3    H227910   2.845   4.050   2.477  1.6605  2.7230  0.2174
 9316TIP3   OH227911   3.081   5.151   1.544 -0.3061 -0.0656 -0.6754
 9316TIP3    H127912   3.044   5.118   1.463 -0.8642 -0.2034 -0.3728
 9316TIP3    H227913   3.165   5.190   1.519 -1.2622  1.4877 -1.5953
 9317TIP3   OH227914   5.456   5.349   5.208  0.6344 -0.0678  0.6206
 9317TIP3    H127915   5.540   5.307   5.188  0.5184  0.1653 -0.4645
 9317TIP3    H227916   5.470   5.392   5.292  1.4746 -0.3882  0.6564
 9318TIP3   OH227917   2.342   1.048   5.541  0.0279 -0.3333  0.4071
 9318TIP3    H127918   2.367   0.956   5.543  2.5249  0.1039 -2.8727
 9318TIP3    H227919   2.397   1.090   5.608  0.5141 -0.8928  0.3642
 9319TIP3   OH227920   3.060   6.761   5.538  0.0751 -0.4740 -0.4900
 9319TIP3    H127921   3.110   6.718   5.607  1.1365 -0.6042 -1.3143
 9319TIP3    H227922   3.105   6.844   5.524 -1.4758  0.5999  0.5167
 9320TIP3   OH227923   6.123   0.114   2.756  0.2750 -0.2617 -0.0525
 9320TIP3    H127924   6.099   0.021   2.762 -1.0050  0.1272  2.1000
 9320TIP3    H227925   6.209   0.119   2.797  0.7890 -0.6219 -1.0698
 9321TIP3   OH227926   3.536   3.150   5.288 -0.4766 -0.0489  0.4408
 9321TIP3    H127927   3.580   3.199   5.357 -0.9412  0.5413  0.3291
 9321TIP3    H227928   3.500   3.073   5.332  1.0720 -0.8039  0.4363
 9322TIP3   OH227929   2.993   0.399   0.725  0.0171  0.3237 -0.4400
 9322TIP3    H127930   2.958   0.310   0.722  0.7528 -0.0396  0.8826
 9322TIP3    H227931   3.077   0.392   0.680 -0.2652  0.5344 -1.0104
 9323TIP3   OH227932   2.662   5.850   0.245  0.6376  0.1153  0.0333
 9323TIP3    H127933   2.748   5.810   0.260  0.6858 -0.5602 -1.8263
 9323TIP3    H227934   2.677   5.912   0.174 -0.2828  0.4843  0.1580
 9324TIP3   OH227935   0.623   5.642   4.033 -0.0010  0.5618 -0.7258
 9324TIP3    H127936   0.528   5.633   4.045 -0.2100  0.5228 -2.2057
 9324TIP3    H227937   0.635   5.640   3.938  1.5331  0.1642 -0.5440
 9325TIP3   OH227938   5.945   5.874   0.791  0.0654  0.0686 -0.0368
 9325TIP3    H127939   5.882   5.851   0.860  0.0447 -0.9365 -0.3660
 9325TIP3    H227940   5.891   5.882   0.712  0.0526  1.4677  0.1005
 9326TIP3   OH227941   5.735   2.983   3.132  0.4288 -0.2073 -0.1514
 9326TIP3    H127942   5.727   3.059   3.189  0.7464  0.8953 -1.5221
 9326TIP3    H227943   5.663   2.925   3.157  0.7744  0.0756  1.5787
 9327TIP3   OH227944   1.783   4.977   3.312 -0.5193  0.1912  0.1479
 9327TIP3    H127945   1.796   5.008   3.402 -1.3361 -0.2469  0.4295
 9327TIP3    H227946   1.689   4.985   3.298 -0.2825  1.1209 -0.9994
 9328TIP3   OH227947   3.335   5.210   1.445  0.0330 -0.0548  0.0348
 9328TIP3    H127948   3.408   5.258   1.484 -0.3132 -0.2538  0.9556
 9328TIP3    H227949   3.374   5.133   1.405  0.3412 -0.0786  0.3841
 9329TIP3   OH227950   0.324   6.331   0.399 -0.5100 -0.5070 -0.2180
 9329TIP3    H127951   0.372   6.283   0.466 -0.7923  0.8642  0.9947
 9329TIP3    H227952   0.386   6.338   0.326  0.3513 -0.6750  0.4797
 9330TIP3   OH227953   0.342   1.949   0.765 -0.5626 -0.2557  0.0431
 9330TIP3    H127954   0.331   2.001   0.685 -3.2697 -0.6106  0.0868
 9330TIP3    H227955   0.394   1.874   0.738 -1.6383 -0.4951 -1.4848
 9331TIP3   OH227956   5.237   1.936   2.245  0.4539 -0.0702 -0.7828
 9331TIP3    H127957   5.297   1.959   2.174  0.5876 -0.2381 -0.7247
 9331TIP3    H227958   5.294   1.909   2.317  0.3058 -0.4316 -0.7960
 9332TIP3   OH227959   6.854   0.757   5.771  0.5920  0.4805  0.4486
 9332TIP3    H127960   6.943   0.725   5.756  0.2564  0.0010 -0.6395
 9332TIP3    H227961   6.828   0.795   5.686 -0.2576  0.5556  0.7318
 9333TIP3   OH227962   0.735   6.492   1.723 -0.0634 -0.4059 -0.6920
 9333TIP3    H127963   0.751   6.398   1.737  0.7490 -0.2864 -0.7978
 9333TIP3    H227964   0.723   6.528   1.810 -1.3853 -0.7732 -0.6995
 9334TIP3   OH227965   2.521   3.135   0.186 -0.5330 -0.0537 -0.2686
 9334TIP3    H127966   2.588   3.202   0.193 -1.6789  1.2103 -0.8396
 9334TIP3    H227967   2.569   3.053   0.179  0.8988  0.5322  1.8246
 9335TIP3   OH227968   0.231   2.289   0.166  0.4999 -0.1617  0.1076
 9335TIP3    H127969   0.142   2.277   0.200  1.0416 -0.6354  1.4461
 9335TIP3    H227970   0.233   2.380   0.139 -0.6524 -0.3699 -0.7679
 9336TIP3   OH227971   0.422   2.198   3.741  0.0251  0.2421 -0.2839
 9336TIP3    H127972   0.435   2.288   3.770  1.4562 -0.5507  1.7545
 9336TIP3    H227973   0.486   2.186   3.671 -0.1598  0.7909 -0.5525
 9337TIP3   OH227974   3.895   1.935   2.001  0.0183  0.3327 -0.4699
 9337TIP3    H127975   3.863   2.025   2.009  2.2503  1.3503 -2.1100
 9337TIP3    H227976   3.953   1.923   2.076  1.5559  1.1322 -1.4957
 9338TIP3   OH227977   6.585   5.099   3.490  0.7018  0.1629 -0.1827
 9338TIP3    H127978   6.573   5.155   3.413  0.4804  2.8028  1.6254
 9338TIP3    H227979   6.503   5.107   3.538  1.5637  0.2977  1.3252
 9339TIP3   OH227980   7.075   1.450   2.119 -0.7025  0.5438 -0.2072
 9339TIP3    H127981   7.033   1.385   2.062  0.2029 -2.0639  1.8734
 9339TIP3    H227982   7.035   1.435   2.204  2.3458 -0.1081  1.2281
 9340TIP3   OH227983   7.177   4.146   0.462 -0.1560  0.4006 -0.2055
 9340TIP3    H127984   7.089   4.128   0.494  0.0699  0.7855  0.6670
 9340TIP3    H227985   7.192   4.081   0.393 -0.0886 -1.4639  1.4958
 9341TIP3   OH227986   2.483   4.121   5.745 -0.3638 -0.0929 -0.0188
 9341TIP3    H127987   2.491   4.089   5.655 -0.5964  1.6724 -0.7107
 9341TIP3    H227988   2.394   4.096   5.772 -0.5695  0.0256 -0.5749
 9342TIP3   OH227989   5.325   5.471   0.700 -0.4012  0.3739 -0.4971
 9342TIP3    H127990   5.326   5.481   0.795  0.6361  2.1987 -0.6385
 9342TIP3    H227991   5.250   5.523   0.671 -0.8845 -0.4065 -0.6773
 9343TIP3   OH227992   3.516   2.275   1.066 -0.0369 -0.6389  0.3246
 9343TIP3    H127993   3.509   2.183   1.039  1.8066  0.2106 -3.8005
 9343TIP3    H227994   3.601   2.281   1.109  0.6175 -0.6466 -0.9126
 9344TIP3   OH227995   0.276   4.010   4.785 -0.7230  0.8979  0.6989
 9344TIP3    H127996   0.184   4.031   4.799 -1.3538  0.0048 -1.5932
 9344TIP3    H227997   0.280   3.914   4.791 -0.6293  0.6203 -2.0711
 9345TIP3   OH227998   2.957   3.660   5.177  0.3598 -0.2676  0.8870
 9345TIP3    H127999   2.944   3.722   5.250  0.0515 -0.7825  1.2705
 9345TIP3    H228000   2.953   3.574   5.218  0.9180 -0.5461  0.3695
 9346TIP3   OH228001   5.639   3.121   0.458 -0.2531  0.0850  0.2956
 9346TIP3    H128002   5.618   3.028   0.451  0.6247 -0.0844 -0.2136
 9346TIP3    H228003   5.696   3.139   0.383 -0.2211  0.9833  0.5191
 9347TIP3   OH228004   1.957   1.268   1.986  0.5556  0.6510  0.1322
 9347TIP3    H128005   1.914   1.237   2.065 -1.4789  1.1089 -0.7195
 9347TIP3    H228006   1.960   1.191   1.929  1.7758  0.3856  0.5420
 9348TIP3   OH228007   3.330   5.454   2.732  0.1790  0.6773  0.3048
 9348TIP3    H128008   3.285   5.464   2.649 -0.7279 -1.8798  0.3880
 9348TIP3    H228009   3.344   5.359   2.741 -0.2035  0.7885  3.2694
 9349TIP3   OH228010   3.732   5.925   2.535 -0.6162  0.2997 -0.6131
 9349TIP3    H128011   3.776   5.840   2.542  0.3695  0.8330 -0.1732
 9349TIP3    H228012   3.691   5.938   2.621 -0.5008  0.4199 -0.5772
 9350TIP3   OH228013   2.076   3.953   1.589 -0.9438 -0.1056 -0.2862
 9350TIP3    H128014   1.987   3.922   1.573 -1.8108  0.3777  2.8137
 9350TIP3    H228015   2.064   4.029   1.646  1.4616 -1.5862  2.4672
 9351TIP3   OH228016   3.273   1.013   5.309  0.6329  0.3930 -0.2175
 9351TIP3    H128017   3.192   1.017   5.360 -0.2074  1.3128 -1.5456
 9351TIP3    H228018   3.311   0.928   5.330 -0.1548  0.3697  1.2022
 9352TIP3   OH228019   3.146   1.143   4.826  0.0208 -0.2960  0.1844
 9352TIP3    H128020   3.130   1.167   4.917 -0.3035  1.3503 -0.2672
 9352TIP3    H228021   3.232   1.180   4.806 -0.1773 -0.1105 -0.3449
 9353TIP3   OH228022   6.871   2.154   4.073 -0.6826  0.4964  0.2976
 9353TIP3    H128023   6.898   2.149   3.981  1.2070  1.0146  0.7674
 9353TIP3    H228024   6.873   2.247   4.093 -0.2658  0.3283  1.0696
 9354TIP3   OH228025   6.211   0.460   3.829 -0.0721 -0.3540  0.3585
 9354TIP3    H128026   6.290   0.466   3.776 -1.1035  1.1225 -1.1382
 9354TIP3    H228027   6.211   0.371   3.864  2.1299 -0.4397  0.2661
 9355TIP3   OH228028   6.753   3.823   1.918 -0.3989 -0.3710  0.3695
 9355TIP3    H128029   6.810   3.747   1.901  0.9041  0.0325  2.5984
 9355TIP3    H228030   6.789   3.892   1.863 -1.2085 -1.1416 -1.2020
 9356TIP3   OH228031   4.460   4.472   1.553 -0.0305  0.0807 -0.1790
 9356TIP3    H128032   4.513   4.441   1.478  0.7863 -0.8335  0.7401
 9356TIP3    H228033   4.370   4.467   1.522  0.3421  0.6862 -1.4433
 9357TIP3   OH228034   6.930   2.199   0.452 -0.2810  0.0341  0.0557
 9357TIP3    H128035   6.901   2.209   0.362  0.7524  0.0071 -0.2869
 9357TIP3    H228036   7.014   2.153   0.446  0.1161  0.6052  0.9855
 9358TIP3   OH228037   5.689   6.718   2.577 -0.0964 -0.2390 -0.2049
 9358TIP3    H128038   5.691   6.672   2.661 -1.4744 -0.3148 -0.1956
 9358TIP3    H228039   5.618   6.676   2.528  0.7245 -0.2362 -1.4363
 9359TIP3   OH228040   4.770   2.951   0.325 -0.4266 -0.2778 -0.2055
 9359TIP3    H128041   4.756   3.001   0.244 -1.2738  0.3981  0.3498
 9359TIP3    H228042   4.750   3.013   0.395  0.7196 -0.7364  0.5380
 9360TIP3   OH228043   3.927   5.021   0.471 -0.4170  0.1500  0.2655
 9360TIP3    H128044   3.933   5.116   0.483 -1.4388  0.3100 -0.4039
 9360TIP3    H228045   3.913   4.987   0.559 -0.4442  0.6535  0.4610
 9361TIP3   OH228046   5.798   3.430   0.170 -0.1611  0.2289 -0.0381
 9361TIP3    H128047   5.819   3.345   0.208  0.7501 -0.1141 -1.2454
 9361TIP3    H228048   5.730   3.412   0.106  0.3066  0.3311 -0.5744
 9362TIP3   OH228049   4.232   0.344   5.178  0.0852  0.1494 -0.1450
 9362TIP3    H128050   4.250   0.381   5.264 -1.9258  0.5104  0.1822
 9362TIP3    H228051   4.248   0.416   5.116 -1.3330  0.8466  0.2477
 9363TIP3   OH228052   3.152   0.831   1.873  0.3724  0.3642  0.3269
 9363TIP3    H128053   3.211   0.778   1.927  1.2609  0.0681 -0.8765
 9363TIP3    H228054   3.117   0.897   1.933 -0.9625 -1.6804  1.9461
 9364TIP3   OH228055   5.966   0.002   3.627 -0.1029 -0.4407  0.3761
 9364TIP3    H128056   5.898   0.063   3.601 -0.1097 -1.4497 -2.2516
 9364TIP3    H228057   6.042   0.057   3.646 -0.5762  0.4769 -0.3221
 9365TIP3   OH228058   2.404   4.403   2.938  0.0905 -0.8634 -0.1226
 9365TIP3    H128059   2.327   4.443   2.899 -0.0296 -0.4391  0.5376
 9365TIP3    H228060   2.380   4.386   3.029  0.5700 -1.2846 -0.0641
 9366TIP3   OH228061   1.506   4.928   5.066 -0.3201 -0.5180 -0.0457
 9366TIP3    H128062   1.556   4.914   5.147 -1.0034 -1.3191  0.2582
 9366TIP3    H228063   1.553   4.878   5.000 -0.5743 -1.0846  0.1913
 9367TIP3   OH228064   1.532   0.778   4.082 -0.8994  0.2758 -0.2986
 9367TIP3    H128065   1.569   0.721   4.149 -1.4138 -0.7715 -0.8836
 9367TIP3    H228066   1.474   0.837   4.130 -1.6938 -0.8208  0.1222
 9368TIP3   OH228067   4.924   0.028   2.267 -0.4434 -0.6644  0.2544
 9368TIP3    H128068   4.968   0.098   2.315  0.0447 -1.0860  0.4299
 9368TIP3    H228069   4.930   0.055   2.175 -0.6375 -0.2655  0.3599
 9369TIP3   OH228070   3.571   3.546   1.248 -0.1542  0.4662 -0.1059
 9369TIP3    H128071   3.527   3.621   1.290  1.1745  0.9793  0.4307
 9369TIP3    H228072   3.547   3.471   1.303 -1.5755  0.4503 -0.7023
 9370TIP3   OH228073   1.572   4.761   4.795  0.8475  0.1779  0.4511
 9370TIP3    H128074   1.497   4.701   4.791 -0.3756  1.6351  0.6129
 9370TIP3    H228075   1.573   4.805   4.710  1.8608 -0.1758  0.2575
 9371TIP3   OH228076   2.468   6.399   5.872 -0.0352 -0.3286 -0.3353
 9371TIP3    H128077   2.534   6.431   5.934  0.4582  1.4898 -1.7340
 9371TIP3    H228078   2.517   6.339   5.815  0.0432 -0.1909 -0.4121
 9372TIP3   OH228079   6.946   4.778   5.424 -0.3961  0.2806  0.2082
 9372TIP3    H128080   6.907   4.716   5.362 -0.1017  0.0411  0.2566
 9372TIP3    H228081   7.031   4.739   5.446 -0.5335  0.3159  0.8281
 9373TIP3   OH228082   0.971   5.824   2.254 -0.5061  0.2765 -0.1779
 9373TIP3    H128083   0.992   5.772   2.332 -0.3424 -1.4708 -1.3308
 9373TIP3    H228084   1.054   5.833   2.208 -0.3646  2.3098  0.3674
 9374TIP3   OH228085   2.853   3.795   0.255 -0.2756  0.3247  0.7755
 9374TIP3    H128086   2.858   3.844   0.172  0.6382 -0.3658  0.4118
 9374TIP3    H228087   2.900   3.850   0.318  2.4125 -0.8530 -0.0481
 9375TIP3   OH228088   6.322   2.565   0.663  0.3337 -0.7064  0.8810
 9375TIP3    H128089   6.322   2.613   0.580 -1.4365 -0.2853  1.0813
 9375TIP3    H228090   6.405   2.589   0.704  1.1199 -0.7010 -0.6232
 9376TIP3   OH228091   1.252   2.491   4.327 -0.0924 -0.5992  0.5109
 9376TIP3    H128092   1.175   2.522   4.375  0.3891  0.4056  0.6515
 9376TIP3    H228093   1.216   2.448   4.250 -0.8085 -0.4336  0.7415
 9377TIP3   OH228094   5.338   5.273   0.182  0.8515 -0.5173 -0.1016
 9377TIP3    H128095   5.345   5.227   0.098 -0.0486 -1.0422  0.1059
 9377TIP3    H228096   5.355   5.365   0.160 -2.5830 -0.0587 -1.4993
 9378TIP3   OH228097   5.244   1.597   5.672  0.1643  0.2771 -0.7129
 9378TIP3    H128098   5.205   1.678   5.706 -1.0151 -0.2729 -0.6912
 9378TIP3    H228099   5.240   1.536   5.745  0.3435 -0.0282 -0.9548
 9379TIP3   OH228100   4.713   4.677   3.890 -0.6225  0.2940 -0.7612
 9379TIP3    H128101   4.677   4.718   3.811  2.3119  2.6432 -1.1174
 9379TIP3    H228102   4.659   4.710   3.961 -2.4692 -0.7479 -1.6254
 9380TIP3   OH228103   6.342   5.169   2.254  0.2966 -0.7291  0.3774
 9380TIP3    H128104   6.341   5.191   2.347 -0.4898 -0.3662  0.2897
 9380TIP3    H228105   6.435   5.168   2.231  0.4484  0.9476  0.7586
 9381TIP3   OH228106   4.731   5.406   5.224  0.0570  0.3893 -0.0873
 9381TIP3    H128107   4.675   5.356   5.285 -0.8091  0.7388 -0.5762
 9381TIP3    H228108   4.755   5.343   5.156  0.5517  0.1475  0.3068
 9382TIP3   OH228109   2.277   1.561   3.236  0.6429  0.0024  0.4993
 9382TIP3    H128110   2.299   1.497   3.170 -1.3874 -1.7248  1.3589
 9382TIP3    H228111   2.216   1.621   3.193  2.0413  1.0401 -0.1184
 9383TIP3   OH228112   2.172   5.640   5.403 -0.1990 -0.5084  0.4890
 9383TIP3    H128113   2.219   5.665   5.323 -2.3071  1.4811 -0.2381
 9383TIP3    H228114   2.165   5.545   5.398  1.2537 -0.5852 -0.7774
 9384TIP3   OH228115   4.603   1.579   0.224 -0.1438  0.8850  0.3427
 9384TIP3    H128116   4.660   1.570   0.300  0.3560  1.0808 -0.0059
 9384TIP3    H228117   4.644   1.526   0.156 -1.1830 -0.2031  0.5259
 9385TIP3   OH228118   1.140   3.591   0.516  0.2587  0.1190 -0.2102
 9385TIP3    H128119   1.200   3.664   0.531 -0.0907  0.0782  1.5977
 9385TIP3    H228120   1.053   3.632   0.516  0.1402 -0.1280 -0.5159
 9386TIP3   OH228121   3.936   4.554   1.694  0.0037  0.2012  0.2108
 9386TIP3    H128122   3.890   4.499   1.632 -0.5471  1.8751 -0.9384
 9386TIP3    H228123   3.915   4.517   1.780 -0.5475 -1.1818 -0.4988
 9387TIP3   OH228124   7.122   0.949   3.792 -0.4037  0.0580 -0.4238
 9387TIP3    H128125   7.162   0.877   3.743  1.3168  0.3869  0.4182
 9387TIP3    H228126   7.101   1.014   3.725  0.7807 -0.0086 -0.9004
 9388TIP3   OH228127   6.014   4.590   1.655 -1.0250  0.1611  0.2892
 9388TIP3    H128128   6.072   4.649   1.703 -1.1727  0.0458  0.6075
 9388TIP3    H228129   5.970   4.646   1.591  2.1640 -0.2778 -2.6013
 9389TIP3   OH228130   1.681   0.112   0.248 -0.2201 -0.2486  0.1292
 9389TIP3    H128131   1.631   0.062   0.312  0.5197 -0.3472  0.6390
 9389TIP3    H228132   1.627   0.189   0.230 -0.2821 -0.0402  1.1426
 9390TIP3   OH228133   6.284   3.413   0.774 -0.6752  0.4472  0.0747
 9390TIP3    H128134   6.317   3.461   0.698 -0.5200  0.9197  0.4424
 9390TIP3    H228135   6.192   3.397   0.754  0.1772 -2.9344 -2.0572
 9391TIP3   OH228136   3.671   3.329   2.953 -0.1570  0.2913  0.2206
 9391TIP3    H128137   3.695   3.419   2.975 -0.4634  0.0519  1.6444
 9391TIP3    H228138   3.649   3.289   3.037 -0.5717 -0.9577 -0.4559
 9392TIP3   OH228139   5.111   3.923   3.200  0.3164 -0.3361 -0.0031
 9392TIP3    H128140   5.075   3.910   3.112 -0.1898  3.4990 -0.5437
 9392TIP3    H228141   5.206   3.912   3.188  0.3586  1.0296 -1.3365
 9393TIP3   OH228142   3.093   0.359   2.764  1.0630  0.7498 -0.1330
 9393TIP3    H128143   3.168   0.348   2.822  0.0638  0.3187  1.1179
 9393TIP3    H228144   3.081   0.453   2.757  2.1497  0.8493 -0.9450
 9394TIP3   OH228145   5.190   5.176   2.127  0.9435 -0.5706  0.2450
 9394TIP3    H128146   5.161   5.264   2.150 -0.0572 -1.3636  2.3832
 9394TIP3    H228147   5.211   5.180   2.034  1.4456  2.0309  0.4152
 9395TIP3   OH228148   3.827   2.528   2.969 -0.0249  0.4357 -0.0700
 9395TIP3    H128149   3.793   2.534   2.879 -1.1407 -0.7237  0.2432
 9395TIP3    H228150   3.758   2.483   3.017  0.6626  0.8373  1.3333
 9396TIP3   OH228151   3.556   3.646   5.260 -0.3203  0.0312 -0.1962
 9396TIP3    H128152   3.505   3.683   5.188 -0.5420 -0.2951 -0.2098
 9396TIP3    H228153   3.644   3.684   5.249 -0.5804  0.6685 -0.1119
 9397TIP3   OH228154   4.170   1.573   2.462 -0.6888 -0.0388  0.8850
 9397TIP3    H128155   4.231   1.498   2.462 -0.6609 -0.0532  2.3497
 9397TIP3    H228156   4.154   1.591   2.370 -2.3083 -3.1854  0.3884
 9398TIP3   OH228157   6.429   3.527   1.092  0.1467 -0.7042  0.4840
 9398TIP3    H128158   6.452   3.513   1.000  1.1776  0.0512  0.6071
 9398TIP3    H228159   6.504   3.494   1.141 -0.3249 -0.9496  1.0616
 9399TIP3   OH228160   0.057   3.982   3.521  0.4313  0.4435 -0.0467
 9399TIP3    H128161   0.003   3.922   3.470  0.2674  1.0004 -0.5417
 9399TIP3    H228162   0.058   3.945   3.609 -0.4905  0.2616 -0.1073
 9400TIP3   OH228163   4.655   1.605   5.004 -0.1491 -0.4564  0.0946
 9400TIP3    H128164   4.575   1.580   4.957 -0.4913 -1.0193  0.9450
 9400TIP3    H228165   4.634   1.588   5.096  1.8600 -3.2031  0.1465
 9401TIP3   OH228166   5.886   1.755   4.578 -0.1796  0.0270  0.1365
 9401TIP3    H128167   5.813   1.694   4.576 -2.0364  2.1134 -1.4182
 9401TIP3    H228168   5.903   1.771   4.671 -1.7642 -0.4710  0.5267
 9402TIP3   OH228169   3.148   0.084   1.151  0.4455 -0.0561  0.2464
 9402TIP3    H128170   3.190   0.014   1.101 -1.4540 -1.0425 -0.0470
 9402TIP3    H228171   3.200   0.089   1.232  1.0571 -1.2977 -0.0449
 9403TIP3   OH228172   5.345   0.500   3.451  0.0934  0.0129  0.1041
 9403TIP3    H128173   5.341   0.442   3.374 -1.6743 -0.1090  0.2362
 9403TIP3    H228174   5.262   0.484   3.497  1.0831  0.1349  2.0230
 9404TIP3   OH228175   5.655   2.502   3.774 -0.4699  0.2590 -0.6058
 9404TIP3    H128176   5.564   2.533   3.780 -1.1146 -1.0754 -2.3026
 9404TIP3    H228177   5.647   2.416   3.731  1.5092 -0.4861  0.4322
 9405TIP3   OH228178   4.392   2.056   0.427 -0.5598 -0.3810  0.4934
 9405TIP3    H128179   4.342   1.975   0.421 -0.6617 -0.2751 -0.2260
 9405TIP3    H228180   4.474   2.031   0.470 -0.9710 -0.6751  1.1213
 9406TIP3   OH228181   1.040   0.818   0.920 -0.3092  0.1627 -0.2511
 9406TIP3    H128182   0.968   0.798   0.980  0.2167 -2.0711 -0.2672
 9406TIP3    H228183   1.031   0.912   0.902 -3.0195  0.0249 -0.0335
 9407TIP3   OH228184   3.004   0.076   1.620 -0.2530 -0.4335  0.4876
 9407TIP3    H128185   2.946   0.109   1.689 -0.9011  0.4230 -0.4206
 9407TIP3    H228186   3.068   0.146   1.608  0.4846 -1.0272  0.9214
 9408TIP3   OH228187   1.735   6.234   1.837 -0.5096  0.0517  0.0425
 9408TIP3    H128188   1.794   6.228   1.912 -1.2826  2.1564  0.8943
 9408TIP3    H228189   1.665   6.172   1.856  0.0850 -0.5583  0.2846
 9409TIP3   OH228190   6.797   4.561   2.230 -0.2776 -0.5822 -0.0432
 9409TIP3    H128191   6.781   4.535   2.321  2.2048 -1.3792  0.2416
 9409TIP3    H228192   6.769   4.652   2.226  3.1587  0.8296  2.7104
 9410TIP3   OH228193   2.409   2.343   4.559 -0.2100 -0.3697 -0.0146
 9410TIP3    H128194   2.417   2.438   4.564 -0.9908 -0.2757 -0.2675
 9410TIP3    H228195   2.374   2.318   4.644 -1.5270 -0.2263 -0.4777
 9411TIP3   OH228196   3.916   3.305   5.396  0.1332  0.3503  0.4264
 9411TIP3    H128197   3.998   3.282   5.440  1.1832  2.6413 -0.1676
 9411TIP3    H228198   3.942   3.368   5.329 -1.8674 -0.4906 -1.2556
 9412TIP3   OH228199   3.282   3.673   3.454 -0.8787 -0.0044 -0.0106
 9412TIP3    H128200   3.304   3.622   3.532 -0.3586 -1.3199 -0.9811
 9412TIP3    H228201   3.189   3.656   3.440 -0.1491 -3.0720 -1.9200
 9413TIP3   OH228202   4.263   3.850   3.195 -0.1906 -0.4922 -0.3961
 9413TIP3    H128203   4.289   3.938   3.167  1.4130 -1.7032 -3.1471
 9413TIP3    H228204   4.345   3.802   3.203 -0.8995 -1.3934  2.7330
 9414TIP3   OH228205   6.090   3.729   5.477 -0.3122 -0.1377 -0.0160
 9414TIP3    H128206   6.059   3.769   5.558  1.9636  2.5640 -0.3362
 9414TIP3    H228207   6.098   3.636   5.498 -0.6764  0.3274  2.5462
 9415TIP3   OH228208   4.135   2.649   1.306  0.1310  0.4320  0.5759
 9415TIP3    H128209   4.137   2.608   1.219 -2.1813  2.1713 -0.4266
 9415TIP3    H228210   4.124   2.576   1.367  1.2933 -0.7943 -0.5996
 9416TIP3   OH228211   0.665   2.747   1.132  0.3392  0.0508  0.0440
 9416TIP3    H128212   0.575   2.774   1.151  0.2297  1.4366 -2.0830
 9416TIP3    H228213   0.657   2.663   1.087  0.2112 -0.3754  0.8469
 9417TIP3   OH228214   6.023   5.410   3.333 -0.3052  0.4484  0.6911
 9417TIP3    H128215   5.963   5.473   3.373 -1.6038 -0.5608  0.4057
 9417TIP3    H228216   6.036   5.442   3.244  0.3710  1.1934  1.0474
 9418TIP3   OH228217   2.065   2.367   1.123 -0.3820 -0.1101  0.1056
 9418TIP3    H128218   2.138   2.317   1.158  0.7118 -1.6742 -3.8118
 9418TIP3    H228219   2.092   2.459   1.130  0.1319 -0.3876  2.2480
 9419TIP3   OH228220   3.807   1.177   2.289  0.0780  0.2851 -0.3185
 9419TIP3    H128221   3.878   1.241   2.283  0.8630 -0.5562 -0.2465
 9419TIP3    H228222   3.803   1.153   2.381 -0.2396  0.2537 -0.3386
 9420TIP3   OH228223   1.348   1.757   1.210  0.4380 -0.1094 -0.0234
 9420TIP3    H128224   1.298   1.839   1.209 -0.8516 -0.8185 -2.7463
 9420TIP3    H228225   1.281   1.689   1.219  1.2688 -0.9612 -0.1844
 9421TIP3   OH228226   2.081   0.662   4.708  0.5690 -0.1021  0.4293
 9421TIP3    H128227   2.005   0.658   4.765 -0.4453  1.6199 -0.7202
 9421TIP3    H228228   2.094   0.755   4.691  1.9390 -0.4520 -0.7022
 9422TIP3   OH228229   5.514   6.565   3.717 -0.3814  0.1873  0.5136
 9422TIP3    H128230   5.481   6.650   3.685 -0.5939 -0.6046 -1.5313
 9422TIP3    H228231   5.597   6.587   3.759  0.0758  1.3205 -0.8747
 9423TIP3   OH228232   5.566   6.316   4.189  0.3091 -0.2430 -0.0293
 9423TIP3    H128233   5.535   6.404   4.167 -0.0971 -0.7423 -1.5508
 9423TIP3    H228234   5.488   6.272   4.224  0.6024  0.0961  1.0904
 9424TIP3   OH228235   6.431   0.873   1.624  0.4620  0.1800 -0.2340
 9424TIP3    H128236   6.410   0.783   1.650  0.4473  0.4357  0.6358
 9424TIP3    H228237   6.524   0.883   1.644  0.4912  0.3312 -0.4357
 9425TIP3   OH228238   4.508   0.577   0.629 -0.0883  0.0202 -0.2062
 9425TIP3    H128239   4.464   0.496   0.602  1.0344 -0.2936 -1.2051
 9425TIP3    H228240   4.522   0.568   0.723 -1.5706 -0.1399  0.0177
 9426TIP3   OH228241   2.363   3.735   4.882  0.5534 -0.9373 -0.5359
 9426TIP3    H128242   2.367   3.669   4.951 -1.0460 -1.4244 -0.8478
 9426TIP3    H228243   2.363   3.685   4.801 -2.7503 -0.8211 -0.7545
 9427TIP3   OH228244   7.202   6.103   2.529  0.0137  0.0112 -0.7372
 9427TIP3    H128245   7.179   6.010   2.520  0.7801 -0.3012  0.2951
 9427TIP3    H228246   7.153   6.133   2.606 -0.4186  0.5341 -1.2105
 9428TIP3   OH228247   1.745   5.338   5.686 -0.5051 -0.2118  0.0325
 9428TIP3    H128248   1.825   5.317   5.734  0.0432  0.4240 -0.5729
 9428TIP3    H228249   1.776   5.383   5.607 -1.5520  2.2572  0.9305
 9429TIP3   OH228250   6.452   5.727   1.794  0.4414  0.4204 -0.0976
 9429TIP3    H128251   6.506   5.802   1.768  1.3012  0.0211  0.4757
 9429TIP3    H228252   6.512   5.670   1.843 -0.2468 -0.5517 -0.3529
 9430TIP3   OH228253   2.919   4.353   5.418 -0.9636 -0.0839  0.1250
 9430TIP3    H128254   2.973   4.326   5.493 -0.0321 -0.6966 -0.7429
 9430TIP3    H228255   2.945   4.444   5.402  0.9898 -0.8283 -1.2369
 9431TIP3   OH228256   7.088   1.485   4.551 -0.0719 -0.5188  0.0803
 9431TIP3    H128257   7.022   1.520   4.611 -1.3635 -0.8482 -1.0833
 9431TIP3    H228258   7.157   1.551   4.550 -0.7223  0.2000  0.7665
 9432TIP3   OH228259   2.652   0.315   4.580  0.2458 -0.0022  0.0031
 9432TIP3    H128260   2.691   0.359   4.655 -1.2400 -0.6512  1.2096
 9432TIP3    H228261   2.660   0.221   4.601  0.1608 -0.2051 -0.8356
 9433TIP3   OH228262   3.487   4.494   3.158 -0.4365  0.4365 -0.2464
 9433TIP3    H128263   3.568   4.525   3.117  0.2644 -0.5459  0.3358
 9433TIP3    H228264   3.459   4.566   3.214  0.5845  0.4360  0.2920
 9434TIP3   OH228265   6.657   6.771   2.500 -0.5414 -0.4121  0.4524
 9434TIP3    H128266   6.718   6.826   2.452  0.0601 -2.0530 -0.7601
 9434TIP3    H228267   6.571   6.805   2.477 -0.1847  0.1938 -0.0348
 9435TIP3   OH228268   5.235   1.649   3.741  0.0703  0.1737  0.4283
 9435TIP3    H128269   5.148   1.631   3.775  0.7657 -0.9519  1.7127
 9435TIP3    H228270   5.284   1.568   3.755  1.7456  1.2563  1.1482
 9436TIP3   OH228271   5.566   1.399   0.109 -0.0498 -0.0868  0.1542
 9436TIP3    H128272   5.472   1.387   0.123  0.1243 -3.1024 -0.6404
 9436TIP3    H228273   5.605   1.385   0.196 -0.2444  0.2170  0.2947
 9437TIP3   OH228274   1.890   5.140   4.214  0.4538  0.0978  0.0851
 9437TIP3    H128275   1.922   5.053   4.239  0.3118  0.2341  0.7758
 9437TIP3    H228276   1.885   5.188   4.297 -0.1025  0.5576 -0.2070
 9438TIP3   OH228277   6.669   6.777   2.758  0.2808 -0.2104 -0.3068
 9438TIP3    H128278   6.666   6.774   2.663 -0.6590 -0.0313 -0.2914
 9438TIP3    H228279   6.612   6.706   2.787  0.8391 -0.4888  0.1291
 9439TIP3   OH228280   2.302   3.177   1.189  0.1501 -0.3752  0.3960
 9439TIP3    H128281   2.296   3.272   1.179  1.9669 -0.1219  1.1843
 9439TIP3    H228282   2.338   3.165   1.277  0.0263 -1.8007  0.2772
 9440TIP3   OH228283   1.910   1.936   4.320 -0.1735 -0.2487 -0.7704
 9440TIP3    H128284   1.992   1.901   4.355 -0.0021  0.6292 -0.2770
 9440TIP3    H228285   1.848   1.929   4.393 -0.3091 -0.1256 -0.8729
 9441TIP3   OH228286   4.167   0.104   1.509  0.5206 -0.2100 -0.4330
 9441TIP3    H128287   4.208   0.101   1.422 -0.2376  0.1153 -0.8148
 9441TIP3    H228288   4.127   0.191   1.514 -2.0939 -1.2597 -1.0484
 9442TIP3   OH228289   4.898   6.077   0.513 -0.0432 -0.0940 -0.1466
 9442TIP3    H128290   4.839   6.125   0.456  1.1967  1.2813 -0.3318
 9442TIP3    H228291   4.884   6.115   0.600 -0.0495 -0.3624 -0.0295
 9443TIP3   OH228292   6.349   2.566   0.082 -0.1776  0.2853  0.2772
 9443TIP3    H128293   6.339   2.493   0.020  0.5947  0.2513  0.1883
 9443TIP3    H228294   6.438   2.558   0.115  0.7544  2.4893 -1.4147
 9444TIP3   OH228295   3.270   0.445   2.016  0.0950  0.0884  0.0571
 9444TIP3    H128296   3.328   0.445   2.092  0.0326  0.5047  0.1085
 9444TIP3    H228297   3.192   0.397   2.044 -0.4789  1.3260  0.6976
 9445TIP3   OH228298   5.380   3.957   4.381  0.2870 -0.5323  0.1476
 9445TIP3    H128299   5.329   3.984   4.457  1.6341  0.2543  0.8030
 9445TIP3    H228300   5.470   3.950   4.413  0.5543 -2.3642 -0.8549
 9446TIP3   OH228301   5.491   6.458   1.634 -0.4724 -0.4805  0.5595
 9446TIP3    H128302   5.402   6.430   1.657 -1.3629  1.2296 -0.6276
 9446TIP3    H228303   5.495   6.449   1.539  0.1386  0.7568  0.4514
 9447TIP3   OH228304   6.072   1.936   1.600  0.8826  0.5300 -0.3579
 9447TIP3    H128305   6.040   1.979   1.678  0.4324  1.4181 -1.0172
 9447TIP3    H228306   6.167   1.949   1.602  1.2289 -1.6810  1.3376
 9448TIP3   OH228307   2.972   5.323   1.903  0.1294  0.0551 -0.4964
 9448TIP3    H128308   3.000   5.234   1.884 -0.1637  0.0651 -1.0021
 9448TIP3    H228309   2.886   5.331   1.861  0.3062  0.6878 -0.7519
 9449TIP3   OH228310   0.459   3.883   0.242 -0.0562 -0.2250  0.2819
 9449TIP3    H128311   0.379   3.885   0.295 -0.5823  0.7186 -0.5194
 9449TIP3    H228312   0.459   3.967   0.196 -0.3940 -1.5667 -2.3387
 9450TIP3   OH228313   3.162   2.831   2.888  0.2854 -0.7265  0.8675
 9450TIP3    H128314   3.121   2.845   2.803  0.6962 -0.6529  0.6751
 9450TIP3    H228315   3.113   2.886   2.948  1.7208  1.4590  0.1697
 9451TIP3   OH228316   7.112   6.784   3.490  0.3276  0.0133 -0.3654
 9451TIP3    H128317   7.181   6.811   3.429  2.2358 -1.4628  1.0319
 9451TIP3    H228318   7.113   6.689   3.488  0.4277 -0.0884  1.9096
 9452TIP3   OH228319   3.596   2.688   5.115 -0.3311  0.0326 -0.1171
 9452TIP3    H128320   3.515   2.696   5.165  0.1407  0.0206  0.6659
 9452TIP3    H228321   3.614   2.593   5.113  0.4196  0.1319  0.9714
 9453TIP3   OH228322   2.856   1.844   4.637  0.9110  0.8103  0.4633
 9453TIP3    H128323   2.850   1.806   4.725  0.1762  0.3814  0.2376
 9453TIP3    H228324   2.769   1.882   4.622  0.5513 -0.3715 -0.6340
 9454TIP3   OH228325   0.235   1.721   0.564  0.1870  0.2431  0.2914
 9454TIP3    H128326   0.190   1.679   0.638 -0.7731 -1.2556 -1.0718
 9454TIP3    H228327   0.327   1.726   0.591 -0.5410  2.5514  2.7860
 9455TIP3   OH228328   1.691   3.301   5.747  0.6823  0.0223 -0.4839
 9455TIP3    H128329   1.782   3.324   5.765  0.1901  0.5495  1.4882
 9455TIP3    H228330   1.641   3.339   5.819 -0.5670 -4.3279  1.2670
 9456TIP3   OH228331   4.545   6.339   1.430  0.1272  0.3188  0.1855
 9456TIP3    H128332   4.515   6.348   1.340 -0.6419 -1.2031  0.2638
 9456TIP3    H228333   4.496   6.405   1.479 -0.1034  0.5507 -0.3574
 9457TIP3   OH228334   0.766   3.706   2.590  0.4703 -0.0590  0.2129
 9457TIP3    H128335   0.808   3.769   2.648  1.1852  0.1607 -0.5363
 9457TIP3    H228336   0.693   3.754   2.551  1.0315  0.3251 -0.3795
 9458TIP3   OH228337   5.759   4.600   0.774 -0.5101  0.4279 -0.2554
 9458TIP3    H128338   5.723   4.511   0.775  0.2844  0.0742  1.7772
 9458TIP3    H228339   5.853   4.588   0.763 -0.5723  1.1582 -1.8704
 9459TIP3   OH228340   0.075   6.351   2.285  0.6133  0.1058  0.3649
 9459TIP3    H128341   0.019   6.403   2.343 -0.3815  0.5160 -0.9445
 9459TIP3    H228342   0.082   6.403   2.205  0.2085 -1.4212 -0.7080
 9460TIP3   OH228343   2.939   6.066   4.383  0.5842 -0.5736 -0.2361
 9460TIP3    H128344   2.891   6.082   4.302 -1.5541 -1.9612  0.6867
 9460TIP3    H228345   3.030   6.055   4.355  0.2109  0.8314 -2.2001
 9461TIP3   OH228346   4.237   3.311   0.453 -0.4628 -0.3451  0.3237
 9461TIP3    H128347   4.227   3.249   0.525 -0.3495 -0.0261  0.6163
 9461TIP3    H228348   4.220   3.396   0.492  0.2746 -0.0988  0.1349
 9462TIP3   OH228349   0.548   5.280   1.548  0.0329  0.8071 -0.6626
 9462TIP3    H128350   0.507   5.278   1.635 -0.0632  2.8214 -0.6283
 9462TIP3    H228351   0.527   5.194   1.511 -3.7435  1.4450 -0.4197
 9463TIP3   OH228352   1.439   5.629   1.538 -0.3398  0.0464 -0.4587
 9463TIP3    H128353   1.360   5.576   1.528  0.0525 -0.5465 -0.4516
 9463TIP3    H228354   1.474   5.637   1.449  1.0110 -1.9206 -0.1669
 9464TIP3   OH228355   3.906   2.993   1.999  0.8426  0.1994  0.1151
 9464TIP3    H128356   3.950   3.067   1.957 -0.4784 -0.5911 -2.9153
 9464TIP3    H228357   3.915   2.921   1.937 -0.7833 -1.2467  1.4396
 9465TIP3   OH228358   3.997   6.790   3.431  0.4473 -0.0784  0.2883
 9465TIP3    H128359   4.044   6.717   3.471  1.1591  0.1046 -0.1940
 9465TIP3    H228360   4.008   6.863   3.492  2.1198  0.3972 -0.5159
 9466TIP3   OH228361   5.684   6.803   4.789 -0.1573 -0.5732 -0.1696
 9466TIP3    H128362   5.720   6.714   4.791  0.8449 -0.1814 -0.1614
 9466TIP3    H228363   5.604   6.798   4.841 -0.3680 -1.5789 -0.5724
 9467TIP3   OH228364  -0.003   3.606   2.527  0.2506 -0.3561  0.6105
 9467TIP3    H128365   0.012   3.679   2.467  1.2840  0.7782  2.1785
 9467TIP3    H228366   0.052   3.536   2.494  2.4339  0.9272  1.3274
 9468TIP3   OH228367   5.305   4.252   4.770  0.2306 -0.4825  0.5473
 9468TIP3    H128368   5.396   4.242   4.800  0.3753  1.0522  0.6954
 9468TIP3    H228369   5.267   4.317   4.830 -1.1880 -1.5864  0.9083
 9469TIP3   OH228370   0.446   4.151   2.131 -0.4732 -0.0447  0.4968
 9469TIP3    H128371   0.541   4.161   2.138 -0.4615 -1.2366  3.8801
 9469TIP3    H228372   0.410   4.227   2.177 -0.9542 -1.3434  2.4427
 9470TIP3   OH228373   4.818   0.348   0.118 -0.3663  0.8124  0.0362
 9470TIP3    H128374   4.909   0.352   0.088 -0.0015 -0.2531  0.9345
 9470TIP3    H228375   4.781   0.271   0.074 -1.0402  1.5883 -0.8055
 9471TIP3   OH228376   3.333   2.159   0.340 -0.2188  0.1438 -0.0548
 9471TIP3    H128377   3.300   2.206   0.417  0.8246 -0.1859  0.6173
 9471TIP3    H228378   3.310   2.067   0.357  0.5606 -0.0167  0.1823
 9472TIP3   OH228379   4.730   2.671   2.114 -0.4075  0.7557 -0.3077
 9472TIP3    H128380   4.806   2.620   2.087 -0.1789  0.9831 -0.0939
 9472TIP3    H228381   4.735   2.674   2.209 -1.6399 -0.6974 -0.1667
 9473TIP3   OH228382   4.560   5.292   2.645  0.0531  0.1899  0.1914
 9473TIP3    H128383   4.614   5.341   2.583  1.2696 -0.7174  0.5086
 9473TIP3    H228384   4.596   5.314   2.731 -0.1300 -0.3738  0.4137
 9474TIP3   OH228385   4.893   5.247   0.013  0.0879 -0.1620  0.1242
 9474TIP3    H128386   4.950   5.322   0.030  1.8424 -1.2127 -0.7460
 9474TIP3    H228387   4.814   5.285  -0.024  1.0545  1.2580 -0.5976
 9475TIP3   OH228388   1.350   1.498   2.705 -0.1596 -0.1503 -0.7386
 9475TIP3    H128389   1.315   1.545   2.629 -2.2406 -0.2740  0.0993
 9475TIP3    H228390   1.404   1.563   2.750 -2.2324  1.2156 -0.1040
 9476TIP3   OH228391   6.484   2.716   1.264  0.4044  0.4278 -0.2176
 9476TIP3    H128392   6.540   2.792   1.281  1.5142 -0.3982 -0.0729
 9476TIP3    H228393   6.396   2.752   1.262  0.8323  1.5967  0.6296
 9477TIP3   OH228394   7.091   1.379   2.976  0.0388  0.2910  0.3332
 9477TIP3    H128395   7.117   1.373   3.068  2.9505 -1.2018 -0.4664
 9477TIP3    H228396   7.162   1.336   2.928 -2.5052 -1.1475 -2.4636
 9478TIP3   OH228397   1.061   0.717   5.063  0.1230 -0.9027  0.4232
 9478TIP3    H128398   1.007   0.738   4.988  2.0019 -0.8833 -1.0121
 9478TIP3    H228399   1.102   0.800   5.088  0.3236 -1.1011  0.7750
 9479TIP3   OH228400   5.170   3.356   2.609  0.0183 -0.0632 -0.1674
 9479TIP3    H128401   5.166   3.410   2.688  3.5397  1.1846 -0.6413
 9479TIP3    H228402   5.207   3.273   2.639  1.1573  0.3372 -0.3934
 9480TIP3   OH228403   5.621   3.004   5.305 -0.6212  0.0176 -0.1520
 9480TIP3    H128404   5.627   3.064   5.230 -0.2245 -0.1234 -0.2339
 9480TIP3    H228405   5.564   3.049   5.367  0.1126  0.7226  0.0210
 9481TIP3   OH228406   3.115   2.570   3.243 -0.7136 -0.2377 -0.0044
 9481TIP3    H128407   3.064   2.651   3.250  0.9669  0.9364 -0.6218
 9481TIP3    H228408   3.189   2.584   3.303  0.5720 -0.5067 -1.4743
 9482TIP3   OH228409   3.121   2.446   4.298 -0.1307 -0.1758  0.0811
 9482TIP3    H128410   3.064   2.477   4.368  0.2594  0.3902  0.1598
 9482TIP3    H228411   3.189   2.396   4.343 -0.0239 -0.0293  0.0837
 9483TIP3   OH228412   4.358   4.802   0.731  0.3651  0.0487  0.3455
 9483TIP3    H128413   4.432   4.799   0.792 -0.2624  0.7518  1.1657
 9483TIP3    H228414   4.318   4.715   0.738  0.9399 -0.2379  0.1143
 9484TIP3   OH228415   2.742   4.954   5.792  0.1404  0.0679  0.2287
 9484TIP3    H128416   2.723   4.991   5.878  0.0490 -0.9247  0.6450
 9484TIP3    H228417   2.824   4.996   5.765  1.4490 -1.2877  1.8394
 9485TIP3   OH228418   4.888   1.023   0.237  0.4228  0.7445  0.4514
 9485TIP3    H128419   4.857   0.992   0.152  0.9024 -0.0604  0.5665
 9485TIP3    H228420   4.918   0.945   0.282 -1.0281  0.9550  1.8931
 9486TIP3   OH228421   1.656   4.146   0.779  0.2229  0.6241 -0.1977
 9486TIP3    H128422   1.561   4.139   0.774  0.2715 -0.0839 -0.1555
 9486TIP3    H228423   1.674   4.153   0.873  0.2805 -0.2976 -0.1348
 9487TIP3   OH228424   1.002   3.515   2.239 -0.0093  0.5397  0.0385
 9487TIP3    H128425   1.025   3.576   2.309  0.5249  0.9652 -0.5036
 9487TIP3    H228426   0.934   3.459   2.278 -0.0961  1.1059  0.7217
 9488TIP3   OH228427   1.118   5.847   4.417  0.0489 -0.0935  0.5784
 9488TIP3    H128428   1.041   5.823   4.366 -0.1969 -0.8618  1.2946
 9488TIP3    H228429   1.083   5.891   4.494  0.2058 -1.7136  1.6254
 9489TIP3   OH228430   6.854   5.063   3.649  0.1618 -0.6081  0.1491
 9489TIP3    H128431   6.775   5.067   3.595  1.7490 -0.0095 -2.3387
 9489TIP3    H228432   6.858   4.973   3.679 -2.0785 -0.3450  1.4128
 9490TIP3   OH228433   5.485   4.821   4.123  0.7345  0.2179  0.3221
 9490TIP3    H128434   5.474   4.895   4.063  1.0523  0.6850  0.8425
 9490TIP3    H228435   5.574   4.790   4.107  0.5084 -0.2422 -0.0979
 9491TIP3   OH228436   1.559   1.285   3.766 -0.2801  0.6306  0.1667
 9491TIP3    H128437   1.641   1.240   3.748  0.1078  1.2064  0.4749
 9491TIP3    H228438   1.544   1.339   3.689 -0.5193  0.3158 -0.0112
 9492TIP3   OH228439   0.368   1.437   2.642  0.4617 -0.2875  0.3875
 9492TIP3    H128440   0.403   1.499   2.706 -0.9043  2.7146 -1.5669
 9492TIP3    H228441   0.427   1.444   2.567 -0.6935  0.0618 -0.5255
 9493TIP3   OH228442   0.211   0.216   0.560 -0.1752 -0.3283 -0.2975
 9493TIP3    H128443   0.257   0.282   0.611 -1.6471  0.5878 -0.0945
 9493TIP3    H228444   0.134   0.194   0.612 -0.9512 -0.4444 -1.4393
 9494TIP3   OH228445   5.386   4.297   0.145  0.7495  0.2235 -0.3940
 9494TIP3    H128446   5.472   4.283   0.104  0.3458 -1.0333 -0.8606
 9494TIP3    H228447   5.327   4.239   0.096 -0.3865  1.1399 -0.1390
 9495TIP3   OH228448   5.372   5.782   1.275  0.3334  0.4329  0.1166
 9495TIP3    H128449   5.395   5.697   1.312 -0.9645 -0.7499 -1.6349
 9495TIP3    H228450   5.408   5.845   1.337  0.3374 -1.3763  2.0919
 9496TIP3   OH228451   6.839   5.735   1.556 -0.5029  0.6166  0.4004
 9496TIP3    H128452   6.852   5.812   1.611  0.8506  0.0128  0.9766
 9496TIP3    H228453   6.898   5.669   1.593 -1.3440 -0.5745 -0.3217
 9497TIP3   OH228454   3.047   3.025   1.834 -0.4289 -0.0872  0.2934
 9497TIP3    H128455   2.952   3.026   1.847 -0.4455  1.4471  0.3103
 9497TIP3    H228456   3.060   3.061   1.746  0.1045 -1.1518 -0.0755
 9498TIP3   OH228457   2.872   0.610   1.342 -0.4597 -0.3372  0.3584
 9498TIP3    H128458   2.859   0.704   1.337 -1.8346 -0.5587 -2.2268
 9498TIP3    H228459   2.964   0.597   1.318 -1.0966  0.2793 -3.0018
 9499TIP3   OH228460   1.118   3.609   0.041 -0.3184 -0.5923  0.7248
 9499TIP3    H128461   1.211   3.626   0.023 -0.4019 -0.8349  0.0324
 9499TIP3    H228462   1.072   3.682   0.001 -0.4715 -0.8400  0.4453
 9500TIP3   OH228463   6.414   5.531   0.208 -0.5338 -0.6532  0.3273
 9500TIP3    H128464   6.330   5.485   0.205 -1.3527  0.8159 -0.8409
 9500TIP3    H228465   6.391   5.623   0.197  1.1458 -0.0700  1.3658
 9501TIP3   OH228466   4.693   2.386   5.773 -0.3112  0.2452  0.2125
 9501TIP3    H128467   4.688   2.480   5.756 -0.5474  0.1216 -0.4361
 9501TIP3    H228468   4.642   2.346   5.703 -0.8660 -0.3248  0.9234
 9502TIP3   OH228469   1.306   1.454   1.034 -0.3147 -0.9007  0.2684
 9502TIP3    H128470   1.383   1.472   0.980 -0.0592 -2.0571  0.2341
 9502TIP3    H228471   1.232   1.460   0.973  0.0240 -2.8587 -0.3957
 9503TIP3   OH228472   1.672   1.879   1.564 -0.3537  0.2951 -0.3125
 9503TIP3    H128473   1.687   1.819   1.491 -1.4326 -0.8893  0.3968
 9503TIP3    H228474   1.620   1.950   1.526 -0.8708 -0.2875 -0.7110
 9504TIP3   OH228475   0.548   1.361   4.926 -0.0126  0.6698  1.0834
 9504TIP3    H128476   0.612   1.304   4.969  0.6333 -0.2325 -0.9545
 9504TIP3    H228477   0.557   1.341   4.833 -1.8289  2.0362  0.5607
 9505TIP3   OH228478   4.192   2.349   3.737 -0.6852 -1.0035  0.2507
 9505TIP3    H128479   4.213   2.257   3.719 -0.0512 -1.2005  1.8193
 9505TIP3    H228480   4.097   2.354   3.736 -0.7017 -1.4324 -0.9412
 9506TIP3   OH228481   1.986   0.042   5.599 -0.5592  0.1809 -0.4824
 9506TIP3    H128482   2.019  -0.029   5.544  0.9535 -0.6018  1.3244
 9506TIP3    H228483   1.895   0.018   5.618 -0.0725 -1.3173  0.1022
 9507TIP3   OH228484   2.396   4.007   4.926 -0.6401  0.7143  0.2598
 9507TIP3    H128485   2.370   3.916   4.909  0.9184  0.1579  0.6283
 9507TIP3    H228486   2.384   4.018   5.020  0.2875  0.4790  0.4195
 9508TIP3   OH228487   7.188   1.367   1.831 -0.2872  0.1765  0.0423
 9508TIP3    H128488   7.194   1.309   1.755  1.3979  1.2206 -0.6777
 9508TIP3    H228489   7.098   1.399   1.829 -1.0527 -1.8117  0.0556
 9509TIP3   OH228490   5.119   2.010   3.991 -0.0906 -0.0647 -0.5795
 9509TIP3    H128491   5.036   1.978   3.955  0.3860  0.9443 -2.7588
 9509TIP3    H228492   5.184   1.946   3.962  0.0590 -0.2210  0.0992
 9510TIP3   OH228493   6.933   0.152   5.306  0.1449  0.4835 -0.2195
 9510TIP3    H128494   6.942   0.201   5.387 -0.3716  0.0317  0.1132
 9510TIP3    H228495   7.021   0.115   5.290  0.5521  1.5300 -0.4985
 9511TIP3   OH228496   6.656   3.014   3.881  0.2066 -0.3759  0.0162
 9511TIP3    H128497   6.697   3.025   3.795 -0.6124 -0.3247 -0.3769
 9511TIP3    H228498   6.724   3.039   3.944  0.6911 -0.0572 -0.6282
 9512TIP3   OH228499   5.792   3.632   5.676  0.0588 -0.3443 -0.5241
 9512TIP3    H128500   5.857   3.578   5.632  0.8268 -0.8910  1.2084
 9512TIP3    H228501   5.842   3.702   5.717 -0.2498 -1.3108  1.6424
 9513TIP3   OH228502   0.253   6.666   2.190 -0.5600 -0.0401  0.3806
 9513TIP3    H128503   0.241   6.656   2.096 -0.6671 -0.5507  0.4478
 9513TIP3    H228504   0.293   6.585   2.219  1.1794  0.8203  0.4990
 9514TIP3   OH228505   5.497   2.264   5.367  0.0842  0.3102  0.8476
 9514TIP3    H128506   5.590   2.246   5.353  0.5077  2.3053  0.8502
 9514TIP3    H228507   5.474   2.328   5.300 -1.1516  0.2918  1.2199
 9515TIP3   OH228508   6.975   3.662   5.871  0.1079  0.4107  0.0690
 9515TIP3    H128509   7.054   3.648   5.819  0.0972  0.3152  0.0780
 9515TIP3    H228510   6.912   3.699   5.809 -0.5263 -1.4646 -0.4662
 9516TIP3   OH228511   6.624   6.448   4.457  0.0940 -0.1938  0.0247
 9516TIP3    H128512   6.531   6.469   4.448  0.1961  0.1698 -0.2318
 9516TIP3    H228513   6.633   6.361   4.421  0.0018  0.1190 -0.7705
 9517TIP3   OH228514   4.411   4.724   3.267  0.1181 -0.1115  0.2720
 9517TIP3    H128515   4.419   4.697   3.175 -0.7943 -2.0848  0.7147
 9517TIP3    H228516   4.317   4.725   3.283  0.0739  3.1202  0.4542
 9518TIP3   OH228517   3.086   3.548   0.649 -0.4531  0.3662 -0.3661
 9518TIP3    H128518   3.139   3.540   0.570  0.0706 -0.5254  0.0502
 9518TIP3    H228519   2.997   3.527   0.621 -0.1504 -0.6729 -0.5909
 9519TIP3   OH228520   0.885   4.567   5.559  0.0788  0.2344  0.7999
 9519TIP3    H128521   0.826   4.643   5.561  0.0386  0.2215  0.3217
 9519TIP3    H228522   0.828   4.494   5.535  0.5085  0.4559 -1.0763
 9520TIP3   OH228523   6.568   1.477   4.898 -0.8659  0.5666  0.7083
 9520TIP3    H128524   6.488   1.440   4.860  0.0835  1.4366 -2.4547
 9520TIP3    H228525   6.635   1.410   4.886  0.0165  1.7499 -1.6953
 9521TIP3   OH228526   6.262   2.192   5.457 -0.1802  0.3173 -0.2007
 9521TIP3    H128527   6.243   2.276   5.498  0.1731  0.8333 -1.0628
 9521TIP3    H228528   6.176   2.150   5.448 -0.4909  1.0374 -0.6985
 9522TIP3   OH228529   1.075   5.066   0.200  0.5216 -0.0098  0.6707
 9522TIP3    H128530   1.127   5.146   0.208  0.0074  0.2263  1.9299
 9522TIP3    H228531   1.099   5.014   0.277 -1.6424  0.4384  1.7302
 9523TIP3   OH228532   5.855   6.443   2.521  0.6902 -0.4571 -0.3161
 9523TIP3    H128533   5.873   6.376   2.587  0.6923  1.2290  1.4482
 9523TIP3    H228534   5.764   6.427   2.496  0.9211 -1.5847 -0.5214
 9524TIP3   OH228535   2.401   4.628   5.122 -0.1326  0.0327  0.1303
 9524TIP3    H128536   2.425   4.579   5.201 -0.2496 -1.5702 -0.7770
 9524TIP3    H228537   2.463   4.598   5.056 -0.9505  0.2479 -0.7507
 9525TIP3   OH228538   5.975   2.011   1.851 -0.2808  0.3628  0.7013
 9525TIP3    H128539   5.884   1.985   1.836  0.6044 -1.3917 -2.7600
 9525TIP3    H228540   6.009   1.945   1.911 -0.9662  0.2158  0.9347
 9526TIP3   OH228541   2.085   4.191   3.469 -0.4264 -0.4350  0.3175
 9526TIP3    H128542   2.166   4.169   3.515  0.4285  0.1836 -0.8336
 9526TIP3    H228543   2.020   4.131   3.505  0.5382 -0.9518  1.2633
 9527TIP3   OH228544   4.210   0.310   3.583  0.4912 -0.0114 -0.2077
 9527TIP3    H128545   4.229   0.240   3.520  0.2473 -0.0119 -0.2823
 9527TIP3    H228546   4.171   0.379   3.530  2.5254  1.0014 -0.5008
 9528TIP3   OH228547   3.949   4.190   1.531  0.5897 -0.4132  0.6741
 9528TIP3    H128548   3.983   4.139   1.458  2.4969  1.9264 -0.2192
 9528TIP3    H228549   4.013   4.176   1.601  1.0020  0.4938  0.4976
 9529TIP3   OH228550   4.833   0.738   5.603  0.1175 -0.1545  0.7333
 9529TIP3    H128551   4.782   0.664   5.637 -0.5255 -1.2871 -2.3278
 9529TIP3    H228552   4.767   0.803   5.578  0.5729  0.6759  1.5930
 9530TIP3   OH228553   2.691   6.527   4.272 -0.1108  0.0915 -0.0909
 9530TIP3    H128554   2.695   6.436   4.299  1.5305  0.3856  0.8235
 9530TIP3    H228555   2.626   6.567   4.329 -0.1820 -0.3210  0.1140
 9531TIP3   OH228556   2.430   2.132   4.168  0.2620  0.3247  0.1148
 9531TIP3    H128557   2.469   2.049   4.141  0.6721 -0.1354  1.9822
 9531TIP3    H228558   2.498   2.176   4.218 -1.1075  0.1177  2.2783
 9532TIP3   OH228559   5.978   4.164   3.013 -0.4822  0.0615  0.2138
 9532TIP3    H128560   6.008   4.248   3.050 -2.4939  0.3920  1.2170
 9532TIP3    H228561   6.016   4.098   3.071 -1.3180  0.4471  1.2312
 9533TIP3   OH228562   4.208   1.762   0.273 -0.0471 -0.5026 -0.2077
 9533TIP3    H128563   4.122   1.732   0.243 -0.5197 -1.2339  1.7627
 9533TIP3    H228564   4.204   1.756   0.368  2.1438 -0.3563 -0.0619
 9534TIP3   OH228565   6.142   1.278   2.666 -0.7672 -0.0580 -0.0869
 9534TIP3    H128566   6.212   1.342   2.670  0.2720 -1.0628 -1.5212
 9534TIP3    H228567   6.072   1.316   2.720  0.1370  1.8370 -0.1826
 9535TIP3   OH228568   2.880   4.876   1.692 -0.2097 -0.0651 -0.2904
 9535TIP3    H128569   2.894   4.886   1.598  1.1732 -0.4685 -0.1409
 9535TIP3    H228570   2.904   4.786   1.711 -0.3800  0.0418  0.4769
 9536TIP3   OH228571   2.210   1.157   0.922 -0.5967  0.8052  0.1797
 9536TIP3    H128572   2.232   1.073   0.961 -1.3566  0.7540  0.5249
 9536TIP3    H228573   2.263   1.221   0.969  2.1704  0.2787 -1.9836
 9537TIP3   OH228574   5.265   1.037   4.824  0.4059  0.3686  0.2242
 9537TIP3    H128575   5.213   0.964   4.792  1.1713  0.9205 -2.5312
 9537TIP3    H228576   5.235   1.112   4.773  2.7215  1.0109 -0.3055
 9538TIP3   OH228577   3.626   5.427   4.773 -0.0038  0.0329  0.3189
 9538TIP3    H128578   3.652   5.432   4.681  0.9920 -2.4880  0.3698
 9538TIP3    H228579   3.539   5.388   4.770  0.1549 -0.3409  0.4153
 9539TIP3   OH228580   2.428   0.326   4.910 -0.0652 -0.5747 -0.3427
 9539TIP3    H128581   2.383   0.406   4.885 -1.7607 -2.0346 -2.2922
 9539TIP3    H228582   2.515   0.333   4.872  1.4579  2.0758  3.0597
 9540TIP3   OH228583   1.566   5.811   2.333  0.4235  0.0279 -0.1432
 9540TIP3    H128584   1.641   5.862   2.305  0.0320  1.2977  1.0381
 9540TIP3    H228585   1.559   5.741   2.268  0.9969  1.4365 -1.7892
 9541TIP3   OH228586   4.904   5.767   1.043  0.0008  0.4064  0.2942
 9541TIP3    H128587   4.898   5.828   1.117 -1.7518 -0.9924  1.3956
 9541TIP3    H228588   4.998   5.752   1.033  0.3208  1.0425  1.9009
 9542TIP3   OH228589   1.273   2.078   4.327 -0.4087 -0.7367 -0.7220
 9542TIP3    H128590   1.283   2.059   4.234  1.1882 -2.6427 -0.2313
 9542TIP3    H228591   1.192   2.033   4.352 -0.7847 -0.3094 -1.1638
 9543TIP3   OH228592   0.629   0.705   4.080 -0.1272 -0.1026  0.0555
 9543TIP3    H128593   0.704   0.749   4.121  0.2740 -0.3636 -0.3938
 9543TIP3    H228594   0.649   0.706   3.987  0.2786 -1.9627  0.0946
 9544TIP3   OH228595   1.955   2.692   5.253  0.5294 -0.1526 -0.8481
 9544TIP3    H128596   1.953   2.780   5.289  0.0929 -0.4458 -0.1190
 9544TIP3    H228597   1.891   2.693   5.182 -2.6217 -0.8905  1.7106
 9545TIP3   OH228598   1.250   2.586   4.797  0.1682 -0.2328 -0.3527
 9545TIP3    H128599   1.325   2.616   4.745  0.1923 -0.9181 -0.7235
 9545TIP3    H228600   1.284   2.582   4.887  0.4985 -0.2705 -0.4752
 9546TIP3   OH228601   0.366   6.336   2.872  0.1659 -0.2790 -0.2277
 9546TIP3    H128602   0.291   6.280   2.851  0.9894 -1.1732 -0.8419
 9546TIP3    H228603   0.326   6.417   2.905 -1.0796 -0.5839 -0.9088
 9547TIP3   OH228604   6.534   0.898   0.741 -0.2210  0.4022  0.1089
 9547TIP3    H128605   6.469   0.926   0.806  1.4935  1.6907  1.3599
 9547TIP3    H228606   6.521   0.803   0.733 -2.0734  0.5732  0.4560
 9548TIP3   OH228607   6.423   6.430   3.765  0.0320 -0.0620  0.0916
 9548TIP3    H128608   6.518   6.432   3.758  0.1372 -1.3724  0.9007
 9548TIP3    H228609   6.405   6.371   3.838 -1.4413 -2.2794 -1.8982
 9549TIP3   OH228610   2.547   2.458   4.885  0.1631 -0.2534 -0.2482
 9549TIP3    H128611   2.580   2.376   4.850 -1.8978 -0.5558 -1.7069
 9549TIP3    H228612   2.476   2.432   4.944 -0.7167  0.4261 -0.9593
 9550TIP3   OH228613   2.554   4.571   4.896 -1.0913 -0.2189  0.2038
 9550TIP3    H128614   2.610   4.592   4.820 -0.1369  0.9801  1.1796
 9550TIP3    H228615   2.486   4.638   4.894 -0.7121  0.1902  0.7324
 9551TIP3   OH228616   2.948   3.219   1.627 -0.0545  0.1176 -0.7484
 9551TIP3    H128617   3.004   3.194   1.554  0.2462 -0.6237 -0.2730
 9551TIP3    H228618   2.983   3.304   1.656  0.1203  0.1887 -1.1547
 9552TIP3   OH228619   1.317   3.093   1.761  0.4467 -0.1864  0.4362
 9552TIP3    H128620   1.359   3.087   1.846  0.5874  0.8420  0.4533
 9552TIP3    H228621   1.223   3.085   1.779  0.5265 -0.7863  0.5905
 9553TIP3   OH228622   4.993   0.028   4.607  0.3362  0.1355  0.2382
 9553TIP3    H128623   4.903   0.043   4.635 -0.1493  0.1951 -1.2900
 9553TIP3    H228624   5.028   0.116   4.591  1.1863  0.2173  2.2798
 9554TIP3   OH228625   2.066   0.338   3.141 -0.2057 -0.3240  0.0442
 9554TIP3    H128626   1.989   0.372   3.096 -1.9011 -1.9867  1.5465
 9554TIP3    H228627   2.098   0.412   3.193 -0.3018  0.5983 -1.1760
 9555TIP3   OH228628   1.409   0.680   3.224  0.3968  0.2922 -0.0834
 9555TIP3    H128629   1.415   0.625   3.302  0.7475 -0.4027 -0.5898
 9555TIP3    H228630   1.337   0.740   3.242  0.7233  0.3936  0.9300
 9556TIP3   OH228631   5.686   2.268   2.850 -0.9766  0.3023  0.0615
 9556TIP3    H128632   5.711   2.361   2.850 -1.4462  0.4327  0.0222
 9556TIP3    H228633   5.596   2.267   2.884 -1.0907 -0.1053 -0.2420
 9557TIP3   OH228634   5.127   6.030   3.360 -0.2018  0.4568 -0.1597
 9557TIP3    H128635   5.217   6.048   3.332  0.1446 -0.4586  0.3387
 9557TIP3    H228636   5.083   6.002   3.279 -0.1208  1.1603 -0.4583
 9558TIP3   OH228637   2.669   0.652   3.702 -0.0066  0.2105 -1.0007
 9558TIP3    H128638   2.725   0.705   3.646  0.9291 -0.5317 -0.7991
 9558TIP3    H228639   2.612   0.605   3.641 -0.7522  1.3221 -1.1835
 9559TIP3   OH228640   0.832   3.989   0.899 -0.1646 -0.0758  0.1048
 9559TIP3    H128641   0.850   3.899   0.874 -0.9264  0.1497 -1.3734
 9559TIP3    H228642   0.846   3.991   0.993  0.7202 -1.5164  0.0357
 9560TIP3   OH228643   2.213   2.917   1.098  0.1296 -0.0823 -0.2557
 9560TIP3    H128644   2.221   2.913   1.003 -1.2056  0.2786 -0.4117
 9560TIP3    H228645   2.236   3.007   1.120  1.1799 -0.3687 -0.1372
 9561TIP3   OH228646   5.619   0.832   2.272 -0.3391  0.0994 -0.5172
 9561TIP3    H128647   5.642   0.757   2.218 -0.0746  0.6956 -1.2556
 9561TIP3    H228648   5.524   0.831   2.276 -0.3499 -0.0751 -0.8105
 9562TIP3   OH228649   0.637   2.837   0.197 -0.0708 -0.0958 -0.2503
 9562TIP3    H128650   0.705   2.894   0.161  0.0643  0.4528  0.8190
 9562TIP3    H228651   0.685   2.764   0.237 -0.1649 -0.2260 -0.3750
 9563TIP3   OH228652   5.531   1.044   2.621  0.2701 -0.4964 -0.1170
 9563TIP3    H128653   5.475   1.121   2.624 -0.4803 -1.0062 -0.5318
 9563TIP3    H228654   5.477   0.977   2.578  0.6023 -1.4858  0.9635
 9564TIP3   OH228655   1.849   0.752   4.156 -0.6080 -0.8240 -0.4057
 9564TIP3    H128656   1.787   0.723   4.223  0.7422  1.7551  2.2092
 9564TIP3    H228657   1.920   0.688   4.159 -0.1580 -0.2935  1.3582
 9565TIP3   OH228658   0.478   1.091   2.445  0.0203 -0.0841 -0.0923
 9565TIP3    H128659   0.559   1.132   2.474  0.4445 -0.2545 -1.0175
 9565TIP3    H228660   0.465   1.122   2.356 -1.0502  0.1058  0.1170
 9566TIP3   OH228661   2.641   2.245   0.940 -0.1402  0.4810 -0.0570
 9566TIP3    H128662   2.564   2.259   0.885 -0.7352 -0.7312  0.4469
 9566TIP3    H228663   2.675   2.333   0.956 -0.9540  0.9705 -0.9402
 9567TIP3   OH228664   3.314   0.314   5.810  0.4711  0.2508  0.3185
 9567TIP3    H128665   3.296   0.220   5.808 -1.0492  0.5101  0.7721
 9567TIP3    H228666   3.408   0.320   5.795  0.4201 -1.2732 -0.9686
 9568TIP3   OH228667   2.141   1.692   1.874  0.1672  0.1367 -0.5293
 9568TIP3    H128668   2.165   1.710   1.783  0.1909  1.0458 -0.3546
 9568TIP3    H228669   2.217   1.647   1.911  0.8882  1.3482 -0.4879
 9569TIP3   OH228670   3.823   5.458   5.611 -0.6793 -0.0302 -0.4297
 9569TIP3    H128671   3.744   5.511   5.621 -0.8015 -0.4383  1.0046
 9569TIP3    H228672   3.827   5.406   5.691  1.1479  0.1239 -0.3791
 9570TIP3   OH228673   6.057   2.485   0.755 -0.3761  0.7983 -0.5042
 9570TIP3    H128674   6.052   2.475   0.660 -1.6749  2.5165 -0.6924
 9570TIP3    H228675   6.104   2.568   0.768  0.7507  0.0400  0.4089
 9571TIP3   OH228676   6.048   6.261   0.149 -0.4776 -0.4652 -0.2644
 9571TIP3    H128677   6.082   6.317   0.078  0.2360  0.2256  0.5957
 9571TIP3    H228678   6.094   6.292   0.227 -1.0644 -1.3907  0.4586
 9572TIP3   OH228679   6.692   0.109   1.537  0.9539  0.0586 -0.0487
 9572TIP3    H128680   6.767   0.050   1.550  0.1285 -0.6038  2.0653
 9572TIP3    H228681   6.710   0.183   1.594  0.8464  0.7972 -0.9408
 9573TIP3   OH228682   6.079   3.859   1.321 -0.1633  0.7827 -0.0526
 9573TIP3    H128683   6.140   3.787   1.339 -0.2641  0.7469  0.1563
 9573TIP3    H228684   6.050   3.844   1.231 -0.6972  0.1711  0.2103
 9574TIP3   OH228685   2.026   0.055   0.151  0.0316  0.1333  0.0948
 9574TIP3    H128686   2.059   0.119   0.088 -0.7256  0.6175  0.1664
 9574TIP3    H228687   1.958   0.008   0.103  2.1059 -2.2449 -0.7198
 9575TIP3   OH228688   5.964   4.249   2.360  0.2318  0.1647  0.1947
 9575TIP3    H128689   5.973   4.321   2.298  1.5149  0.8561  1.1223
 9575TIP3    H228690   5.883   4.268   2.407  0.9654  1.5050  0.9969
 9576TIP3   OH228691   3.067   6.251   1.336  0.1887  0.0063  0.1962
 9576TIP3    H128692   3.119   6.197   1.396  0.4091  0.3682  0.3329
 9576TIP3    H228693   3.107   6.236   1.250  0.0029 -0.3524  0.1704
 9577TIP3   OH228694   6.160   4.827   4.331 -0.1470 -0.5852  0.3929
 9577TIP3    H128695   6.176   4.864   4.244 -0.9759 -1.6995 -0.2664
 9577TIP3    H228696   6.066   4.840   4.345 -0.2248 -1.3988  0.6383
 9578TIP3   OH228697   3.540   6.682   0.933 -0.5591 -0.1609  0.0554
 9578TIP3    H128698   3.572   6.758   0.886 -0.7052  1.0154  1.7768
 9578TIP3    H228699   3.551   6.609   0.872  1.9204  0.7994 -0.7318
 9579TIP3   OH228700   2.681   5.509   1.113  0.1904  0.4634  0.1183
 9579TIP3    H128701   2.652   5.507   1.204  0.6289  0.9103  0.2722
 9579TIP3    H228702   2.734   5.589   1.106  0.8996 -0.0237 -0.3005
 9580TIP3   OH228703   0.285   5.524   5.641 -0.0548 -0.7407  0.3636
 9580TIP3    H128704   0.223   5.467   5.687  0.8513 -2.5615 -0.5814
 9580TIP3    H228705   0.341   5.464   5.591 -0.1696  1.0607 -2.1082
 9581TIP3   OH228706   6.645   6.042   3.540 -0.1647 -0.4103  0.2928
 9581TIP3    H128707   6.554   6.070   3.538  0.0543  0.2972 -0.5293
 9581TIP3    H228708   6.645   5.955   3.500 -0.7285 -1.2799  2.0652
 9582TIP3   OH228709   4.701   2.279   4.524 -0.2387  0.4102 -0.1932
 9582TIP3    H128710   4.686   2.255   4.432  1.0109 -0.0830 -0.2845
 9582TIP3    H228711   4.768   2.218   4.554 -0.9143  0.3068  1.1846
 9583TIP3   OH228712   3.428   0.045   3.638 -0.4628  0.7036  0.0769
 9583TIP3    H128713   3.491   0.054   3.567 -1.6873  0.6304 -1.0498
 9583TIP3    H228714   3.447  -0.041   3.676  2.1038  1.9056  1.8023
 9584TIP3   OH228715   5.450   6.013   1.110  0.5221 -0.2057 -0.8735
 9584TIP3    H128716   5.535   6.056   1.122  0.3665 -0.3398  0.9795
 9584TIP3    H228717   5.466   5.922   1.135 -0.0753 -0.3143 -0.8800
 9585TIP3   OH228718   4.646   1.605   1.974 -0.0893 -0.1083  0.0007
 9585TIP3    H128719   4.693   1.594   2.057 -0.7648 -0.9752  0.2816
 9585TIP3    H228720   4.585   1.532   1.971 -1.8035  1.2737 -0.1156
 9586TIP3   OH228721   0.492   2.255   2.755 -0.4694 -0.0445  0.1926
 9586TIP3    H128722   0.564   2.212   2.802 -0.4219 -0.2816 -0.0942
 9586TIP3    H228723   0.413   2.227   2.802 -0.2889  1.3139  1.3538
 9587TIP3   OH228724   5.287   6.422   3.815  0.0103 -0.0345  0.2311
 9587TIP3    H128725   5.366   6.452   3.772 -0.8362  1.2029 -0.5306
 9587TIP3    H228726   5.222   6.489   3.795 -0.9650 -0.4914  1.6914
 9588TIP3   OH228727   0.679   5.604   0.443  0.0610  0.1309 -0.2667
 9588TIP3    H128728   0.728   5.641   0.370 -0.8903  2.2009  0.0889
 9588TIP3    H228729   0.711   5.652   0.520  0.7515 -1.7206  0.6713
 9589TIP3   OH228730   5.769   5.959   1.442  0.1777  0.1470  0.3568
 9589TIP3    H128731   5.844   6.018   1.452 -0.0098  0.6374 -0.8636
 9589TIP3    H228732   5.693   6.016   1.450 -0.1019 -0.4359  2.1040
 9590TIP3   OH228733   4.898   3.415   0.547  0.2881  0.4875 -0.0273
 9590TIP3    H128734   4.902   3.350   0.617  1.6555 -0.1117 -0.6257
 9590TIP3    H228735   4.977   3.468   0.559  0.0926  0.9220 -0.6041
 9591TIP3   OH228736   5.272   2.689   3.473 -0.1643  0.3324 -0.5361
 9591TIP3    H128737   5.352   2.636   3.473 -0.2869 -0.0660 -3.5107
 9591TIP3    H228738   5.201   2.625   3.471 -0.4673  0.6569 -0.0909
 9592TIP3   OH228739   0.617   1.377   2.558  0.5855 -0.2435 -0.1818
 9592TIP3    H128740   0.623   1.329   2.641 -1.2845 -1.4967 -0.6978
 9592TIP3    H228741   0.698   1.354   2.511 -0.2815 -3.1300 -0.4562
 9593TIP3   OH228742   1.654   1.305   4.619  0.3227  0.1218 -0.4160
 9593TIP3    H128743   1.606   1.276   4.542 -0.8455  1.1392 -0.1123
 9593TIP3    H228744   1.715   1.234   4.639 -0.8125 -1.0566 -1.0405
 9594TIP3   OH228745   2.173   6.128   5.055 -0.1586 -0.4395  0.7272
 9594TIP3    H128746   2.195   6.192   4.987  0.2721 -0.6644  0.6436
 9594TIP3    H228747   2.089   6.156   5.090 -0.2741 -0.1900  0.2539
 9595TIP3   OH228748   0.451   4.950   0.287 -0.2271  0.2326 -0.1103
 9595TIP3    H128749   0.485   5.019   0.344 -0.1463  0.0630  0.0467
 9595TIP3    H228750   0.356   4.951   0.303 -0.5149  1.6836 -1.6136
 9596TIP3   OH228751   4.027   4.849   1.867 -0.4602 -0.1129 -0.0561
 9596TIP3    H128752   4.050   4.781   1.930 -0.4912 -1.1655 -1.1262
 9596TIP3    H228753   4.020   4.929   1.918  0.3766 -0.7660  1.1206
 9597TIP3   OH228754   5.964   2.351   2.705 -0.6797 -0.4759  0.1491
 9597TIP3    H128755   6.049   2.306   2.712 -0.4528 -0.1463 -0.4424
 9597TIP3    H228756   5.950   2.390   2.791  1.4273  2.4166 -0.6618
 9598TIP3   OH228757   1.894   4.248   1.948  0.3102  0.3833  0.2066
 9598TIP3    H128758   1.971   4.196   1.970  0.1172 -1.6382 -3.0973
 9598TIP3    H228759   1.898   4.324   2.005  3.1772 -1.0320  2.0908
 9599TIP3   OH228760   3.442   1.035   4.506  0.7024  0.2415 -0.6858
 9599TIP3    H128761   3.464   0.960   4.561 -0.9120 -0.2094 -0.5861
 9599TIP3    H228762   3.401   0.996   4.429  2.1733  0.9056 -1.8603
 9600TIP3   OH228763   3.690   2.620   4.709 -0.0248  0.3975 -0.3934
 9600TIP3    H128764   3.685   2.712   4.735 -0.3243  0.4441 -0.6150
 9600TIP3    H228765   3.773   2.589   4.747 -0.4275  0.4755  0.5796
 9601TIP3   OH228766   2.121   1.051   3.554  0.2444  0.3941 -0.0311
 9601TIP3    H128767   2.047   1.009   3.598  0.4584 -0.4730 -0.4618
 9601TIP3    H228768   2.163   1.104   3.621  0.0502 -0.2167  0.5761
 9602TIP3   OH228769   2.897   1.757   3.558  0.1457 -0.3679 -0.1511
 9602TIP3    H128770   2.852   1.693   3.613 -1.2610  0.6337 -0.0878
 9602TIP3    H228771   2.953   1.705   3.501 -0.9837 -1.6569 -0.1266
 9603TIP3   OH228772   6.263   0.230   2.436  0.3416  0.1499  0.4525
 9603TIP3    H128773   6.253   0.223   2.342 -0.3414  0.9008  0.4605
 9603TIP3    H228774   6.173   0.241   2.469  0.6891  1.4736  1.0334
 9604TIP3   OH228775   1.690   3.833   4.154  0.3354 -0.1564 -0.2828
 9604TIP3    H128776   1.781   3.863   4.158  0.1938  0.1312  0.9463
 9604TIP3    H228777   1.673   3.794   4.239 -1.5327  2.3016  0.6045
 9605TIP3   OH228778   6.930   1.459   1.883  0.2411 -0.0617  0.2938
 9605TIP3    H128779   6.928   1.555   1.887 -0.1556  0.0891 -1.9333
 9605TIP3    H228780   6.839   1.432   1.893  0.2242 -0.1253 -0.0020
 9606TIP3   OH228781   4.956   2.517   4.504  0.0530  0.1797  0.0257
 9606TIP3    H128782   4.918   2.582   4.563  3.0900  1.5526  0.6462
 9606TIP3    H228783   4.964   2.438   4.559  0.5052  0.6653  0.6715
 9607TIP3   OH228784   5.711   2.724   0.088 -0.0163 -0.2488 -0.6803
 9607TIP3    H128785   5.726   2.746  -0.005 -0.7628  0.5337 -0.6322
 9607TIP3    H228786   5.659   2.797   0.121 -3.5366 -2.5123 -0.7248
 9608TIP3   OH228787   1.972   0.940   3.097  0.2518  0.1735  0.6334
 9608TIP3    H128788   1.917   0.865   3.079  1.7146 -0.8421  0.2094
 9608TIP3    H228789   1.934   1.011   3.046  0.1942 -0.8796 -0.8625
 9609TIP3   OH228790   3.379   1.180   2.397 -0.4277 -0.1725  0.2535
 9609TIP3    H128791   3.388   1.275   2.402 -1.9921  0.0844 -0.7783
 9609TIP3    H228792   3.298   1.167   2.347 -0.5190 -2.0474  0.8179
 9610TIP3   OH228793   1.865   1.920   2.263  0.3599  0.5514 -0.1797
 9610TIP3    H128794   1.844   1.846   2.205 -1.3218 -1.9699  3.2534
 9610TIP3    H228795   1.799   1.986   2.242  0.4706  0.1882 -1.8205
 9611TIP3   OH228796   5.159   1.980   5.295 -0.3693  0.7824 -0.4439
 9611TIP3    H128797   5.149   2.075   5.292 -1.2879  0.6885 -1.7020
 9611TIP3    H228798   5.217   1.963   5.369 -0.8295  2.2662  0.2878
 9612TIP3   OH228799   5.859   1.929   0.004  0.5631 -0.2445 -0.2184
 9612TIP3    H128800   5.846   2.009  -0.046  1.5226  0.9119  1.3001
 9612TIP3    H228801   5.822   1.948   0.090  2.4795 -0.7258  0.7687
 9613TIP3   OH228802   2.664   3.149   1.303 -0.2107  0.2181 -0.4536
 9613TIP3    H128803   2.730   3.214   1.325  0.9710 -1.0877  0.0354
 9613TIP3    H228804   2.591   3.167   1.363  0.6798  0.2097  0.6597
 9614TIP3   OH228805   5.380   0.904   0.278 -0.2410 -0.1101  0.1025
 9614TIP3    H128806   5.439   0.863   0.341  0.2254  0.0052 -0.2626
 9614TIP3    H228807   5.421   0.986   0.255 -0.8719  0.2829  0.3456
 9615TIP3   OH228808   2.992   4.745   5.538 -0.0160  0.6243  0.5272
 9615TIP3    H128809   2.990   4.726   5.444  1.9533  1.2733  0.3101
 9615TIP3    H228810   3.049   4.678   5.575 -1.0702  0.1472  1.3570
 9616TIP3   OH228811   4.608   4.692   1.640 -0.2971 -0.1470 -0.0036
 9616TIP3    H128812   4.527   4.742   1.647 -1.2531 -1.8069  1.5684
 9616TIP3    H228813   4.582   4.607   1.606  0.6673 -0.8967  1.0359
 9617TIP3   OH228814   3.081   5.741   1.680  0.8098 -0.4761  0.6227
 9617TIP3    H128815   3.113   5.651   1.683  0.3681 -0.7242 -0.9906
 9617TIP3    H228816   3.112   5.774   1.595 -1.6936 -0.1630 -0.2460
 9618TIP3   OH228817   4.265   0.151   1.265 -0.0299  0.1014  0.0771
 9618TIP3    H128818   4.264   0.076   1.205  0.4707 -1.2519  1.6794
 9618TIP3    H228819   4.232   0.224   1.213  1.1827 -0.8028 -2.1028
 9619TIP3   OH228820   2.575   3.595   4.067  0.1993  0.0548 -0.1322
 9619TIP3    H128821   2.585   3.549   4.150 -2.7623 -0.6577 -0.0525
 9619TIP3    H228822   2.589   3.528   4.001  1.1832  0.3102 -0.1982
 9620TIP3   OH228823   4.747   2.552   0.963  0.4204 -0.9176  0.1544
 9620TIP3    H128824   4.777   2.501   0.888  0.6841 -2.0636  1.0033
 9620TIP3    H228825   4.752   2.643   0.934  1.4089 -1.2799 -0.8959
 9621TIP3   OH228826   1.573   5.499   5.854  0.2386  0.6161  0.2010
 9621TIP3    H128827   1.481   5.506   5.827  0.7031 -1.4861 -2.2568
 9621TIP3    H228828   1.608   5.426   5.804  2.7183 -0.1540  2.7516
 9622TIP3   OH228829   2.215   5.879   5.814 -0.5959  0.1133  0.0514
 9622TIP3    H128830   2.137   5.916   5.856 -0.1118  1.5206 -0.2321
 9622TIP3    H228831   2.286   5.894   5.877  0.0440  1.7950 -1.0056
 9623TIP3   OH228832   3.707   1.705   3.826 -0.2916 -0.5946  0.0147
 9623TIP3    H128833   3.756   1.775   3.869  0.0269 -1.5421  1.2488
 9623TIP3    H228834   3.768   1.667   3.763 -0.0603 -0.5437  0.2064
 9624TIP3   OH228835   0.953   5.658   4.980 -0.2798 -0.1369  0.9073
 9624TIP3    H128836   1.007   5.589   5.018  0.9640  1.6874  2.6987
 9624TIP3    H228837   1.013   5.708   4.925 -0.9913 -0.0698  0.1783
 9625TIP3   OH228838   1.680   3.831   1.099 -0.1829 -1.0454  0.2547
 9625TIP3    H128839   1.663   3.738   1.116  0.9548 -1.3911 -0.3924
 9625TIP3    H228840   1.730   3.831   1.017  1.0834  0.0322  0.9953
 9626TIP3   OH228841   1.035   4.057   1.503  0.0635 -0.9589 -0.4963
 9626TIP3    H128842   1.110   4.081   1.558 -0.7305  0.3354  0.0770
 9626TIP3    H228843   1.052   3.966   1.478  0.6981 -1.4539  1.5235
 9627TIP3   OH228844   1.865   0.408   0.620 -0.7574 -0.5168  0.1003
 9627TIP3    H128845   1.778   0.446   0.634 -1.1684 -1.8041  1.2634
 9627TIP3    H228846   1.894   0.445   0.537 -1.6835  1.2627  0.5214
 9628TIP3   OH228847   6.520   2.838   4.496 -0.2184 -1.0681  0.1364
 9628TIP3    H128848   6.596   2.825   4.439 -1.1474 -0.1478 -1.3813
 9628TIP3    H228849   6.499   2.750   4.528  0.8212 -1.4842 -0.2856
 9629TIP3   OH228850   2.157   3.897   3.660 -0.2713  0.6362 -0.4833
 9629TIP3    H128851   2.169   3.977   3.711 -1.9075  2.5281 -2.8323
 9629TIP3    H228852   2.103   3.841   3.716  0.4225  1.3774  0.9835
 9630TIP3   OH228853   6.100   1.616   2.664 -0.6117  0.6150 -0.0674
 9630TIP3    H128854   6.157   1.689   2.688  0.6939 -0.4314  0.0823
 9630TIP3    H228855   6.056   1.592   2.745  0.1878  0.1902  0.2483
 9631TIP3   OH228856   6.353   1.935   1.387  0.4834 -0.6926 -0.0717
 9631TIP3    H128857   6.378   1.858   1.437  1.6939 -1.3071 -1.5302
 9631TIP3    H228858   6.400   2.008   1.428  0.8163 -1.0534  0.1911
 9632TIP3   OH228859   3.499   2.456   4.793  0.1840 -0.5888  0.2702
 9632TIP3    H128860   3.568   2.519   4.771  0.6174 -0.0287  2.9505
 9632TIP3    H228861   3.536   2.371   4.769  1.5506 -0.2244  1.0000
 9633TIP3   OH228862   3.243   3.495   0.875 -0.0076  0.8611 -0.3996
 9633TIP3    H128863   3.161   3.488   0.826  0.4669 -0.1060 -1.1051
 9633TIP3    H228864   3.300   3.547   0.818  0.7644 -0.8169 -1.2543
 9634TIP3   OH228865   4.500   3.421   1.472 -0.1963 -0.0272 -0.0144
 9634TIP3    H128866   4.458   3.339   1.444  1.1270 -0.2826 -1.3561
 9634TIP3    H228867   4.542   3.399   1.555 -0.4178 -0.5039 -0.0217
 9635TIP3   OH228868   1.957   5.322   2.396 -0.2955 -0.1207 -0.1615
 9635TIP3    H128869   1.950   5.306   2.302  0.2114  1.2371 -0.4484
 9635TIP3    H228870   1.956   5.417   2.404  2.5593 -0.0932  0.9477
 9636TIP3   OH228871   2.093   0.610   4.194 -0.6330  0.0826 -0.0209
 9636TIP3    H128872   2.164   0.555   4.161 -0.2216  1.4043 -1.4803
 9636TIP3    H228873   2.119   0.631   4.284  1.6313  1.6881 -0.9397
 9637TIP3   OH228874   1.233   6.462   2.146  0.0684 -0.0660  0.2184
 9637TIP3    H128875   1.209   6.553   2.161  0.9400  0.7653 -2.7312
 9637TIP3    H228876   1.302   6.444   2.209 -2.0344  0.3187  2.7917
 9638TIP3   OH228877   3.299   6.781   3.053 -0.0418 -0.3293 -0.0162
 9638TIP3    H128878   3.274   6.826   3.134  0.2172 -0.6394  0.2361
 9638TIP3    H228879   3.385   6.743   3.072  0.8876  1.1401 -1.0206
 9639TIP3   OH228880   3.493   0.656   5.856  0.1214 -0.2204  0.1683
 9639TIP3    H128881   3.410   0.700   5.834 -0.0554  0.0627  1.3631
 9639TIP3    H228882   3.545   0.723   5.900  1.1197 -0.3204 -0.8156
 9640TIP3   OH228883   1.078   5.208   4.080  0.1843 -0.2516  0.1975
 9640TIP3    H128884   0.983   5.214   4.071 -0.2769 -2.5963  2.2407
 9640TIP3    H228885   1.113   5.262   4.009 -2.6436  1.1612 -0.2588
 9641TIP3   OH228886   0.639   4.591   2.054  0.7586  0.3960 -0.0425
 9641TIP3    H128887   0.557   4.541   2.054  0.6121  0.6342  0.1269
 9641TIP3    H228888   0.704   4.530   2.088  0.4734  0.4876  0.6996
 9642TIP3   OH228889   6.653   3.173   3.462 -0.0714 -0.1189 -0.4758
 9642TIP3    H128890   6.614   3.249   3.417 -0.5775 -0.6616 -0.9798
 9642TIP3    H228891   6.588   3.149   3.528 -0.6255 -1.0285 -1.3199
 9643TIP3   OH228892   6.502   3.828   5.207 -0.2380 -0.0475 -0.1716
 9643TIP3    H128893   6.535   3.817   5.118  0.1947 -0.4992  0.0408
 9643TIP3    H228894   6.418   3.781   5.207  0.2329 -0.9113 -0.0716
 9644TIP3   OH228895   0.904   1.870   3.934 -0.0733  0.3965  0.9005
 9644TIP3    H128896   0.866   1.795   3.887 -0.2911  0.5566  0.8173
 9644TIP3    H228897   0.972   1.832   3.989  1.7093  0.4582 -1.1490
 9645TIP3   OH228898   6.638   4.974   0.435  0.0584  0.0768  0.4302
 9645TIP3    H128899   6.660   4.950   0.345  0.3517 -0.4667  0.6433
 9645TIP3    H228900   6.707   5.035   0.461  0.8093 -0.8937  0.7758
 9646TIP3   OH228901   0.739   0.273   4.743  0.1998  0.5487 -0.2146
 9646TIP3    H128902   0.799   0.209   4.780  0.1957  0.1477 -0.8834
 9646TIP3    H228903   0.678   0.222   4.689 -0.0843  1.0613 -0.3960
 9647TIP3   OH228904   1.639   0.988   2.401 -0.4245 -0.0884  1.0566
 9647TIP3    H128905   1.660   1.081   2.414  1.5554 -0.2210 -0.5402
 9647TIP3    H228906   1.680   0.944   2.475  3.8085 -0.1298 -1.0160
 9648TIP3   OH228907   0.613   6.398   2.143 -0.1670 -0.2657 -0.4437
 9648TIP3    H128908   0.525   6.413   2.176  0.4899  3.2765  0.0327
 9648TIP3    H228909   0.661   6.363   2.218 -0.5134  0.4658  0.1287
 9649TIP3   OH228910   3.727   1.437   3.537 -0.0766 -0.4657  0.6155
 9649TIP3    H128911   3.781   1.490   3.478 -1.6345  1.9665  1.2230
 9649TIP3    H228912   3.706   1.358   3.487  1.2856  0.0550 -0.8398
 9650TIP3   OH228913   0.336   1.602   4.064  0.0801 -0.2409  0.0053
 9650TIP3    H128914   0.367   1.525   4.017 -0.2172 -0.2708 -0.1452
 9650TIP3    H228915   0.265   1.636   4.010  1.2355  1.0731 -0.7589
 9651TIP3   OH228916   2.627   5.799   5.114 -0.3683  0.2570  0.4450
 9651TIP3    H128917   2.578   5.879   5.098  0.1421  0.8676  1.8015
 9651TIP3    H228918   2.604   5.774   5.203 -0.8702 -1.3741 -0.1082
 9652TIP3   OH228919   5.111   1.143   0.484 -0.3320 -0.2419  0.1777
 9652TIP3    H128920   5.051   1.197   0.536  0.7648  1.6851 -0.4338
 9652TIP3    H228921   5.083   1.156   0.393 -1.3599 -2.4697  0.1079
 9653TIP3   OH228922   2.931   0.760   5.009  0.2225  0.4719  0.0048
 9653TIP3    H128923   2.894   0.845   4.988  0.7002  0.1932 -2.3281
 9653TIP3    H228924   2.928   0.712   4.926  0.0096 -1.7778  1.2265
 9654TIP3   OH228925   2.300   4.253   0.457 -0.0706 -0.2523  0.5407
 9654TIP3    H128926   2.348   4.174   0.482 -0.3825 -0.3319  0.8886
 9654TIP3    H228927   2.268   4.235   0.368  1.5517  0.2684 -0.1959
 9655TIP3   OH228928   6.087   1.937   3.635 -0.5635 -0.1372 -0.3879
 9655TIP3    H128929   6.003   1.972   3.605 -1.2044 -0.6227  0.7460
 9655TIP3    H228930   6.149   1.960   3.566 -1.4826  0.8758 -0.9142
 9656TIP3   OH228931   3.334   3.972   2.566  0.3880  0.1218  0.5646
 9656TIP3    H128932   3.282   3.954   2.487  1.4473 -2.3632  0.3527
 9656TIP3    H228933   3.321   4.065   2.581 -2.4987  0.0441 -0.6256
 9657TIP3   OH228934   1.439   1.088   1.447 -0.3395 -0.6538 -0.5396
 9657TIP3    H128935   1.381   1.159   1.476 -0.5421 -1.2353  0.5200
 9657TIP3    H228936   1.389   1.043   1.379  0.1784  0.7820 -1.9284
 9658TIP3   OH228937   6.762   5.343   3.636  0.3278  0.1010 -0.4586
 9658TIP3    H128938   6.778   5.396   3.714  0.8870 -1.4066  0.5000
 9658TIP3    H228939   6.786   5.254   3.662  0.5799 -0.4418 -2.3707
 9659TIP3   OH228940   5.868   2.614   4.587  0.3781  0.5408 -0.1098
 9659TIP3    H128941   5.950   2.635   4.630  1.2021  0.4720 -1.6000
 9659TIP3    H228942   5.893   2.567   4.508 -1.1948 -1.7302  0.6380
 9660TIP3   OH228943   6.698   4.207   4.058  0.1377 -0.2742 -0.1031
 9660TIP3    H128944   6.769   4.166   4.008  0.2750  0.2271 -0.3155
 9660TIP3    H228945   6.692   4.155   4.139  2.3599  1.1267  1.0432
 9661TIP3   OH228946   7.056   6.463   1.335  0.1757 -0.3367  0.8404
 9661TIP3    H128947   6.990   6.430   1.396 -0.1562 -0.1937  0.5619
 9661TIP3    H228948   7.006   6.503   1.264  0.4491 -3.1687 -1.1173
 9662TIP3   OH228949   2.692   1.686   5.790  0.6266  0.2174 -0.6393
 9662TIP3    H128950   2.648   1.769   5.811  0.5684  0.4589 -1.6661
 9662TIP3    H228951   2.781   1.698   5.822  0.1197 -0.0692  0.9705
 9663TIP3   OH228952   4.735   3.163   0.485  0.1337  0.1713  0.5926
 9663TIP3    H128953   4.798   3.206   0.544  0.5106 -0.1552  0.4333
 9663TIP3    H228954   4.745   3.210   0.402  0.3156 -0.0189  0.5082
 9664TIP3   OH228955   1.208   3.463   5.370 -0.0722  0.8878 -0.3273
 9664TIP3    H128956   1.242   3.375   5.382  1.0826  1.3468 -0.0832
 9664TIP3    H228957   1.172   3.463   5.282  1.0226  0.4980 -0.7988
 9665TIP3   OH228958   2.304   4.704   2.771 -0.6738  0.4155  0.5606
 9665TIP3    H128959   2.254   4.743   2.842 -1.0385  0.1797  0.4319
 9665TIP3    H228960   2.391   4.744   2.779 -0.5346 -0.0608  1.5057
 9666TIP3   OH228961   5.027   3.735   0.980  0.2882 -0.4205 -0.2580
 9666TIP3    H128962   4.997   3.771   1.064  3.0888  3.0065 -0.4424
 9666TIP3    H228963   5.116   3.704   0.998  0.8361  0.1158 -1.8567
 9667TIP3   OH228964   7.112   3.894   5.188  0.0848 -0.7216  0.3073
 9667TIP3    H128965   7.073   3.931   5.109 -0.5411 -3.6308 -0.8797
 9667TIP3    H228966   7.039   3.853   5.234  1.0589 -2.8727  0.0680
 9668TIP3   OH228967   2.929   1.848   2.090  0.2301 -0.1958  0.1841
 9668TIP3    H128968   3.003   1.810   2.044 -0.2703  0.3733 -1.1555
 9668TIP3    H228969   2.885   1.903   2.025 -1.7915 -1.0784  0.7072
 9669TIP3   OH228970   2.639   3.173   2.792  0.5206  0.0298  0.8127
 9669TIP3    H128971   2.593   3.101   2.749  0.4927 -1.2091  2.8087
 9669TIP3    H228972   2.593   3.186   2.875  0.4862  2.4418  0.4969
 9670TIP3   OH228973   4.413   3.108   3.480  0.1138  0.0734 -0.2443
 9670TIP3    H128974   4.411   3.014   3.466 -1.2928 -0.1120  1.0269
 9670TIP3    H228975   4.421   3.119   3.575 -2.9235  1.1616 -0.0165
 9671TIP3   OH228976   5.014   3.469   1.822 -0.4126  0.1418 -0.1492
 9671TIP3    H128977   4.935   3.475   1.875 -0.2322  1.7560 -0.0258
 9671TIP3    H228978   5.085   3.495   1.881  0.0501 -0.0277 -0.6183
 9672TIP3   OH228979   1.717   5.472   3.537  0.3480  1.0291 -0.5263
 9672TIP3    H128980   1.726   5.498   3.629  3.6750  0.5114 -0.5809
 9672TIP3    H228981   1.807   5.461   3.507 -0.6786  0.1334 -3.5814
 9673TIP3   OH228982   2.150   0.043   2.536  0.9512 -0.3258  0.0482
 9673TIP3    H128983   2.181  -0.001   2.615 -2.7001 -1.0311  1.2917
 9673TIP3    H228984   2.144   0.135   2.561 -0.4124 -0.5797  0.7450
 9674TIP3   OH228985   0.984   0.246   3.662 -0.2765 -0.3456 -0.2675
 9674TIP3    H128986   1.069   0.290   3.653 -0.7015  0.6484  0.5303
 9674TIP3    H228987   0.960   0.257   3.753 -2.0186  0.7909 -0.8220
 9675TIP3   OH228988   2.767   5.426   0.285 -0.3089 -0.6582 -0.3288
 9675TIP3    H128989   2.803   5.500   0.332  0.7379 -2.5000  1.9848
 9675TIP3    H228990   2.673   5.446   0.275 -0.2667  0.4377  1.2499
 9676TIP3   OH228991   1.677   2.950   4.230 -0.1247  0.6342  0.5437
 9676TIP3    H128992   1.600   2.989   4.188 -0.9618  0.4776  1.8519
 9676TIP3    H228993   1.649   2.861   4.252 -0.1010  1.0159  2.2842
 9677TIP3   OH228994   6.228   0.063   1.413 -0.5070  0.5003 -0.0031
 9677TIP3    H128995   6.147   0.052   1.463 -0.8045  2.1548 -0.0692
 9677TIP3    H228996   6.291   0.006   1.457 -1.6743 -0.7714  0.0820
 9678TIP3   OH228997   3.368   2.913   5.054  0.4147 -0.2209 -0.2421
 9678TIP3    H128998   3.461   2.917   5.032  0.4813 -0.0055  0.0789
 9678TIP3    H228999   3.332   2.847   4.994  0.5624  0.4538 -1.1057
 9679TIP3   OH229000   4.615   5.794   4.290 -0.2906 -0.0004  0.1325
 9679TIP3    H129001   4.542   5.801   4.351 -0.9116  1.5042 -0.7394
 9679TIP3    H229002   4.576   5.804   4.203  0.9061  0.5841 -0.3664
 9680TIP3   OH229003   3.288   4.557   3.604 -0.0443 -0.0845 -0.1580
 9680TIP3    H129004   3.289   4.461   3.603  0.3946 -0.0894  0.3582
 9680TIP3    H229005   3.233   4.580   3.679 -0.7117  0.0752 -0.6896
 9681TIP3   OH229006   1.427   5.794   0.635  0.6097 -0.7825  0.2372
 9681TIP3    H129007   1.515   5.812   0.602  0.8431  1.2838  1.8153
 9681TIP3    H229008   1.371   5.798   0.557  1.5999  0.2877 -0.4488
 9682TIP3   OH229009   4.151   3.190   5.489 -0.0959  0.4521 -0.0192
 9682TIP3    H129010   4.245   3.209   5.481 -0.4338  1.6676 -1.5298
 9682TIP3    H229011   4.145   3.095   5.476  0.7324  0.6510 -2.2317
 9683TIP3   OH229012   6.950   0.791   1.794 -0.2528  0.1981 -0.2523
 9683TIP3    H129013   6.927   0.769   1.884 -0.3499 -3.0804 -0.9230
 9683TIP3    H229014   7.019   0.857   1.801  0.0042 -0.2539  2.2442
 9684TIP3   OH229015   5.098   3.601   0.597 -0.1429  0.5701 -0.3352
 9684TIP3    H129016   5.139   3.635   0.517  1.5843  0.5166  0.4860
 9684TIP3    H229017   5.085   3.678   0.652 -0.8439  0.5315 -0.4295
 9685TIP3   OH229018   2.241   3.748   5.762 -0.1614  0.2976 -0.1186
 9685TIP3    H129019   2.194   3.790   5.690 -0.6635 -0.6983 -0.3907
 9685TIP3    H229020   2.180   3.683   5.796  0.0132  0.8442  1.3122
 9686TIP3   OH229021   4.642   5.944   0.400 -0.2906 -0.0772  0.0457
 9686TIP3    H129022   4.730   5.958   0.365 -0.9613  0.1132 -1.6389
 9686TIP3    H229023   4.591   6.020   0.369 -1.6540 -1.4358 -1.2012
 9687TIP3   OH229024   0.311   2.374   2.968 -0.3642 -0.1699  0.4106
 9687TIP3    H129025   0.320   2.451   2.912  0.7556 -1.1043 -0.7356
 9687TIP3    H229026   0.223   2.341   2.951  0.2324 -0.9132 -1.4684
 9688TIP3   OH229027   5.660   3.429   4.888  0.0655 -0.2000  0.3501
 9688TIP3    H129028   5.580   3.458   4.932  0.0431 -0.9736  0.8352
 9688TIP3    H229029   5.729   3.483   4.926 -0.2724  0.8407 -0.4440
 9689TIP3   OH229030   2.603   3.621   1.105  0.1144  0.4933  0.1273
 9689TIP3    H129031   2.585   3.528   1.088 -1.6812  0.7249  0.5210
 9689TIP3    H229032   2.547   3.668   1.043  2.4248  1.3825 -1.4303
 9690TIP3   OH229033  -0.018   1.970   5.148 -0.6709  0.1536  0.8968
 9690TIP3    H129034   0.025   1.932   5.071 -1.8485 -1.7325  1.1066
 9690TIP3    H229035   0.012   2.061   5.150 -2.2259  0.9592 -3.0602
 9691TIP3   OH229036   3.345   2.906   4.382 -0.2473 -0.3984 -0.2793
 9691TIP3    H129037   3.334   2.991   4.338 -2.8480  0.0473  1.0447
 9691TIP3    H229038   3.308   2.843   4.320  0.8012 -0.4812 -0.8495
 9692TIP3   OH229039   2.563   0.537   3.223  0.4188  0.1382 -0.2526
 9692TIP3    H129040   2.539   0.492   3.141 -0.3049  0.8315 -0.4339
 9692TIP3    H229041   2.632   0.482   3.261 -1.0167 -1.5995 -0.0308
 9693TIP3   OH229042   2.986   0.634   2.110 -0.4986 -0.4698 -0.1989
 9693TIP3    H129043   3.066   0.624   2.162  0.3949  0.7975 -1.2568
 9693TIP3    H229044   2.971   0.547   2.073  1.1118 -0.4556 -0.9599
 9694TIP3   OH229045   2.710   1.471   1.310 -0.4541  0.1400 -0.1060
 9694TIP3    H129046   2.748   1.559   1.315  0.0784  0.0901 -2.1968
 9694TIP3    H229047   2.784   1.412   1.303 -0.8215 -0.2814 -0.6135
 9695TIP3   OH229048   5.405   2.633   1.948  0.2411  0.1880  0.7636
 9695TIP3    H129049   5.387   2.727   1.947 -1.4776  0.0982 -3.7256
 9695TIP3    H229050   5.465   2.620   1.874 -1.2456 -2.3888 -0.1213
 9696TIP3   OH229051   5.452   2.862   4.771 -0.1754 -0.0484  0.3054
 9696TIP3    H129052   5.541   2.829   4.766  0.9956  2.9199 -0.5717
 9696TIP3    H229053   5.447   2.904   4.857 -0.1499  1.2164 -0.2953
 9697TIP3   OH229054   2.429   4.148   2.394  0.1813  0.2517 -0.1917
 9697TIP3    H129055   2.487   4.160   2.319  0.8224  1.2176  0.4401
 9697TIP3    H229056   2.341   4.156   2.357  0.4738  0.2417 -0.9126
 9698TIP3   OH229057   4.950   6.080   3.787  0.2468  0.1518  0.4368
 9698TIP3    H129058   4.988   6.091   3.874  1.6171 -2.2275  0.2331
 9698TIP3    H229059   4.994   6.147   3.733  1.5994 -0.2839  0.9649
 9699TIP3   OH229060   1.843   5.447   0.625  0.5017 -0.7508 -0.1498
 9699TIP3    H129061   1.918   5.478   0.574  0.4074  0.6413  0.4851
 9699TIP3    H229062   1.881   5.387   0.689  1.2513  0.5897  0.7262
 9700TIP3   OH229063   3.421   3.777   5.869  0.5289  0.3872  0.3526
 9700TIP3    H129064   3.439   3.824   5.787  0.1007  0.1653  0.1261
 9700TIP3    H229065   3.361   3.707   5.843  0.5222  0.2164  0.8301
 9701TIP3   OH229066   6.698   2.182   3.368  0.1922  0.3158 -0.1377
 9701TIP3    H129067   6.696   2.272   3.399  0.1366 -0.1735  1.3408
 9701TIP3    H229068   6.785   2.173   3.329  0.4130  0.8442  0.2161
 9702TIP3   OH229069   6.098   6.200   2.425  0.1164 -0.3076 -0.2080
 9702TIP3    H129070   6.029   6.148   2.384 -0.2252 -0.8838  1.0561
 9702TIP3    H229071   6.059   6.287   2.437 -0.7179 -0.8396  1.2263
 9703TIP3   OH229072   2.980   4.620   1.782  0.3127  0.1167  0.0352
 9703TIP3    H129073   3.071   4.634   1.757  0.2007 -0.5695 -0.8087
 9703TIP3    H229074   2.983   4.550   1.847  0.3767 -0.0619 -0.1573
 9704TIP3   OH229075   2.367   4.353   3.408 -0.1277  0.0947  0.0947
 9704TIP3    H129076   2.343   4.264   3.436 -2.5809  1.2214  1.9471
 9704TIP3    H229077   2.457   4.364   3.440  0.0964 -1.5769  0.1537
 9705TIP3   OH229078   4.151   4.708   1.632  0.4929  0.0430 -0.0341
 9705TIP3    H129079   4.103   4.789   1.643  0.0667 -0.2832  0.6075
 9705TIP3    H229080   4.099   4.643   1.680  0.1951 -0.8569 -1.5208
 9706TIP3   OH229081   6.815   4.097   0.947 -0.0421  0.1372 -0.0476
 9706TIP3    H129082   6.722   4.119   0.935 -0.2533  0.1297  1.3527
 9706TIP3    H229083   6.841   4.060   0.863 -2.1760 -2.7597  0.3896
 9707TIP3   OH229084   1.244   5.001   1.100 -0.1241  0.0842 -0.1662
 9707TIP3    H129085   1.319   4.990   1.043  0.2902  0.7012  0.2462
 9707TIP3    H229086   1.221   5.094   1.091 -0.0435  0.1901  0.6709
 9708TIP3   OH229087   0.008   3.274   3.514  0.1267  0.0097 -0.1555
 9708TIP3    H129088   0.055   3.355   3.534 -0.1651  0.2823 -0.5571
 9708TIP3    H229089  -0.035   3.291   3.430 -0.1831 -0.4542 -0.0965
 9709TIP3   OH229090   3.055   1.406   5.356  0.4401 -0.2960  0.5820
 9709TIP3    H129091   3.126   1.465   5.332  0.2063 -0.5095 -0.6764
 9709TIP3    H229092   2.979   1.463   5.369 -0.0839 -0.3782 -1.7908
 9710TIP3   OH229093   2.417   2.612   4.649  0.2541 -0.3432 -0.7512
 9710TIP3    H129094   2.410   2.569   4.734 -0.4468 -0.3248 -0.7916
 9710TIP3    H229095   2.504   2.652   4.649 -0.2076  0.7175  0.4539
 9711TIP3   OH229096   5.483   4.752   1.005 -0.2540  0.3003 -0.1848
 9711TIP3    H129097   5.399   4.726   0.969  0.8212 -1.3035 -1.7416
 9711TIP3    H229098   5.503   4.686   1.072  0.4310 -0.2765 -0.9299
 9712TIP3   OH229099   6.668   3.318   3.721 -0.2648  0.4520  0.1476
 9712TIP3    H129100   6.760   3.341   3.707 -0.1332 -0.4026 -0.4456
 9712TIP3    H229101   6.624   3.402   3.737  0.6089  0.8675  0.4253
 9713TIP3   OH229102   4.855   2.892   5.457 -0.0802  0.0143  0.6558
 9713TIP3    H129103   4.866   2.798   5.474 -0.0924  0.1614  1.5079
 9713TIP3    H229104   4.893   2.905   5.370  2.4250 -0.3078  1.6125
 9714TIP3   OH229105   1.919   3.640   0.698 -0.2448 -0.3997 -0.0390
 9714TIP3    H129106   1.837   3.676   0.662 -0.0133 -0.0314 -0.2028
 9714TIP3    H229107   1.939   3.696   0.773 -0.5056 -0.9154  0.4241
 9715TIP3   OH229108   0.108   2.117   1.721 -0.7234  0.9054  0.6494
 9715TIP3    H129109   0.181   2.174   1.746 -0.1061  0.8476 -0.8726
 9715TIP3    H229110   0.139   2.072   1.642 -2.7991  1.6889 -0.7001
 9716TIP3   OH229111   2.801   4.388   2.287 -0.3063 -0.3967  0.3403
 9716TIP3    H129112   2.891   4.392   2.255 -0.2979  1.8286  0.4437
 9716TIP3    H229113   2.806   4.340   2.369  0.8594  0.0637  0.5561
 9717TIP3   OH229114   6.509   1.853   2.762 -0.1169  0.0755 -0.0327
 9717TIP3    H129115   6.544   1.914   2.827 -0.8207  1.1267 -0.6178
 9717TIP3    H229116   6.560   1.871   2.683  0.1381 -0.5815 -0.0218
 9718TIP3   OH229117   6.260   5.700   0.878  0.0343 -0.2133 -0.0096
 9718TIP3    H129118   6.220   5.724   0.961 -0.7491 -0.6845 -0.2445
 9718TIP3    H229119   6.208   5.626   0.846  1.7215 -1.5259  0.1683
 9719TIP3   OH229120   2.175   1.523   0.770  0.3487  0.0656  0.1585
 9719TIP3    H129121   2.135   1.605   0.741  2.8349  0.8551 -1.3522
 9719TIP3    H229122   2.227   1.547   0.846  0.0716 -0.4122  0.5081
 9720TIP3   OH229123   5.525   3.364   3.146  0.2546 -0.4052 -0.2171
 9720TIP3    H129124   5.610   3.359   3.102  1.6797  0.6964  2.1408
 9720TIP3    H229125   5.546   3.403   3.231 -2.3354 -2.0073  1.2772
 9721TIP3   OH229126   1.707   2.892   0.559  0.2392  0.4095  0.1688
 9721TIP3    H129127   1.779   2.858   0.612 -0.1013 -0.7918 -0.1066
 9721TIP3    H229128   1.708   2.837   0.480 -0.9003  0.4418  0.1177
 9722TIP3   OH229129   1.987   5.718   2.799  0.5002 -0.3114  0.3396
 9722TIP3    H129130   2.028   5.763   2.726 -0.7244  0.7642  0.2741
 9722TIP3    H229131   2.018   5.764   2.877 -0.4939  0.4773  0.2921
 9723TIP3   OH229132   4.493   3.298   4.779 -0.3372  0.1557 -0.2152
 9723TIP3    H129133   4.581   3.308   4.815 -0.9166  0.6404  1.1414
 9723TIP3    H229134   4.460   3.218   4.820 -0.2463 -0.4821 -1.3599
 9724TIP3   OH229135   0.745   5.095   0.310 -0.0523 -0.1741 -0.7070
 9724TIP3    H129136   0.773   5.161   0.246  0.0968 -0.5669 -1.0550
 9724TIP3    H229137   0.787   5.014   0.280 -0.6454 -0.5346 -0.5797
 9725TIP3   OH229138   0.056   4.871   2.077  0.1883  0.0457 -0.0043
 9725TIP3    H129139  -0.003   4.850   2.149 -0.5310  0.6855 -0.3901
 9725TIP3    H229140   0.140   4.889   2.119  0.3773 -1.8081  0.4715
 9726TIP3   OH229141   0.428   4.599   2.708 -0.5264 -0.2401  0.0923
 9726TIP3    H129142   0.485   4.676   2.707 -2.7266  1.4914 -0.4214
 9726TIP3    H229143   0.402   4.590   2.799 -0.2501 -0.4052  0.1564
 9727TIP3   OH229144   6.407   1.619   1.467  0.5773 -0.2450 -0.6457
 9727TIP3    H129145   6.316   1.591   1.477  0.2073  0.8015 -0.9810
 9727TIP3    H229146   6.418   1.633   1.373  1.4924 -1.6460 -0.7806
 9728TIP3   OH229147   5.758   6.238   2.752 -0.3095 -0.1579 -0.1141
 9728TIP3    H129148   5.777   6.250   2.845 -1.0816 -0.7565  0.1307
 9728TIP3    H229149   5.665   6.259   2.744 -0.7851 -2.1449 -0.3400
 9729TIP3   OH229150   1.665   0.130   2.101 -0.8537  0.5926 -0.3886
 9729TIP3    H129151   1.673   0.039   2.072  1.2854  0.7578 -0.4826
 9729TIP3    H229152   1.660   0.180   2.020  0.1591  0.6856 -0.4126
 9730TIP3   OH229153   3.631   2.300   0.760 -0.1885  0.4782 -0.2547
 9730TIP3    H129154   3.655   2.220   0.807 -0.8250  0.3160 -0.2047
 9730TIP3    H229155   3.570   2.345   0.818 -2.4245 -0.6053 -1.6454
 9731TIP3   OH229156   0.142   0.232   4.043 -0.0437 -0.4625 -0.3912
 9731TIP3    H129157   0.121   0.216   4.135  0.4489 -0.5306 -0.2905
 9731TIP3    H229158   0.077   0.297   4.015 -0.4153 -0.7048 -0.0953
 9732TIP3   OH229159   2.133   1.820   2.268  0.6207 -0.1075  0.4073
 9732TIP3    H129160   2.166   1.909   2.275  0.5512  0.1007 -1.4941
 9732TIP3    H229161   2.038   1.829   2.259  0.7039 -0.2603 -0.9052
 9733TIP3   OH229162   2.157   3.160   0.394 -0.1476  0.4049  0.0223
 9733TIP3    H129163   2.063   3.174   0.404  0.1191  1.2814  1.6323
 9733TIP3    H229164   2.196   3.199   0.472  1.6052  0.5691 -0.8705
 9734TIP3   OH229165   3.819   5.844   5.086 -0.4225 -0.2898  0.2129
 9734TIP3    H129166   3.896   5.876   5.135  1.5423 -2.0586 -1.5112
 9734TIP3    H229167   3.764   5.803   5.152  1.9689 -2.2957  1.1306
 9735TIP3   OH229168   5.468   5.288   2.778 -0.7979  0.6524  0.1899
 9735TIP3    H129169   5.455   5.274   2.872 -2.2850  0.2926 -0.0360
 9735TIP3    H229170   5.561   5.309   2.769 -0.5711  0.4110  1.7027
 9736TIP3   OH229171   2.410   0.747   3.738  0.4523  0.4503  0.1892
 9736TIP3    H129172   2.384   0.772   3.649 -1.5308 -2.4775 -0.1984
 9736TIP3    H229173   2.505   0.738   3.734  0.4060  0.4793 -1.5951
 9737TIP3   OH229174   1.946   6.661   2.188 -0.8531  0.0156 -0.4650
 9737TIP3    H129175   1.917   6.753   2.188 -0.0382  0.3271  1.4608
 9737TIP3    H229176   2.039   6.666   2.211 -1.2017 -1.3620  1.4493
 9738TIP3   OH229177   0.463   0.467   2.257 -0.6518  0.5353 -0.9299
 9738TIP3    H129178   0.414   0.549   2.247  0.1333  0.9060 -1.7973
 9738TIP3    H229179   0.542   0.479   2.205 -1.9035 -1.8975 -3.7432
 9739TIP3   OH229180   4.254   3.241   2.012  0.1756 -0.2579 -0.2946
 9739TIP3    H129181   4.313   3.188   1.959 -0.6475  0.2206 -1.7226
 9739TIP3    H229182   4.170   3.237   1.967  0.0817  2.2919 -0.4832
 9740TIP3   OH229183   2.528   1.652   4.435 -0.3019  0.0743 -0.0618
 9740TIP3    H129184   2.477   1.646   4.515 -0.9313 -2.0260 -0.5437
 9740TIP3    H229185   2.599   1.588   4.447 -1.3887 -1.5683 -1.7726
 9741TIP3   OH229186   5.832   6.364   2.985  0.1723  0.6296  0.1258
 9741TIP3    H129187   5.927   6.370   2.981  0.1667  0.3321 -0.5257
 9741TIP3    H229188   5.807   6.425   3.055  0.9191 -0.1788  1.1232
 9742TIP3   OH229189   5.431   6.731   1.191 -0.4991 -0.1870  0.0701
 9742TIP3    H129190   5.491   6.678   1.138  1.9144  0.9388  1.4900
 9742TIP3    H229191   5.392   6.793   1.129  0.5526 -0.3453 -0.7672
 9743TIP3   OH229192   0.423   3.060   1.926  0.6833 -0.3965  0.1799
 9743TIP3    H129193   0.334   3.027   1.940  0.8040 -0.2834  1.3533
 9743TIP3    H229194   0.442   3.110   2.006  1.9026 -0.6649  0.0722
 9744TIP3   OH229195   2.050   4.593   1.119  0.8970 -0.0944  0.6305
 9744TIP3    H129196   2.102   4.622   1.045  1.7130 -0.6636  0.9614
 9744TIP3    H229197   2.030   4.673   1.168  1.1867  0.1659  0.3245
 9745TIP3   OH229198   4.921   3.858   4.946  0.6199  0.4250  0.3877
 9745TIP3    H129199   4.845   3.885   4.997 -0.4848  0.1436 -1.0321
 9745TIP3    H229200   4.928   3.764   4.962  0.5906  0.4272  0.4133
 9746TIP3   OH229201   1.862   5.204   2.144 -0.2442  0.1064 -0.2864
 9746TIP3    H129202   1.899   5.137   2.086  0.1063  0.8580 -0.9400
 9746TIP3    H229203   1.821   5.267   2.085 -2.3560 -0.5470  0.4019
 9747TIP3   OH229204   1.164   2.894   0.764 -0.2027  0.1083  0.0795
 9747TIP3    H129205   1.253   2.916   0.791  0.0279 -0.2716 -0.3597
 9747TIP3    H229206   1.121   2.979   0.750 -0.1651  0.3027  1.1018
 9748TIP3   OH229207   5.557   2.585   4.076 -0.1733 -0.2720  0.5190
 9748TIP3    H129208   5.482   2.600   4.019 -0.2313 -1.8654  0.1377
 9748TIP3    H229209   5.550   2.494   4.102  0.9299 -0.0939  1.5260
 9749TIP3   OH229210   0.167   6.687   3.300  0.1074 -0.5461  0.2441
 9749TIP3    H129211   0.200   6.632   3.371 -0.4277 -1.5453 -0.2705
 9749TIP3    H229212   0.233   6.679   3.231 -0.3815 -1.2184 -0.1508
   7.21785   6.80505   5.89334   0.00000   0.00000  -2.40595   0.00000  -2.40595  -3.40253
