PSF EXT CMAP XPLOR

         3 !NTITLE
* GENERATED BY CHARMM-GUI (HTTP://WWW.CHARMM-GUI.ORG) V3.7 ON JUN, 13. 2026. JOB
* READ PDB, MANIPULATE STRUCTURE IF NEEDED, AND GENERATE TOPOLOGY FILE          
*  DATE:     6/13/26     12:38:46      CREATED BY USER: charmm-gui              

       205 !NATOM
         1 PROA     1        GLY      N        NH3     -0.300000       14.0070           0
         2 PROA     1        GLY      HT1      HC       0.330000       1.00800           0
         3 PROA     1        GLY      HT2      HC       0.330000       1.00800           0
         4 PROA     1        GLY      HT3      HC       0.330000       1.00800           0
         5 PROA     1        GLY      CA       CT2      0.130000       12.0110           0
         6 PROA     1        GLY      HA1      HB2      0.900000E-01   1.00800           0
         7 PROA     1        GLY      HA2      HB2      0.900000E-01   1.00800           0
         8 PROA     1        GLY      C        C        0.510000       12.0110           0
         9 PROA     1        GLY      O        O       -0.510000       15.9994           0
        10 PROA     2        PRO      N        N       -0.290000       14.0070           0
        11 PROA     2        PRO      CD       CP3       0.00000       12.0110           0
        12 PROA     2        PRO      HD1      HA2      0.900000E-01   1.00800           0
        13 PROA     2        PRO      HD2      HA2      0.900000E-01   1.00800           0
        14 PROA     2        PRO      CA       CP1      0.200000E-01   12.0110           0
        15 PROA     2        PRO      HA       HB1      0.900000E-01   1.00800           0
        16 PROA     2        PRO      CB       CP2     -0.180000       12.0110           0
        17 PROA     2        PRO      HB1      HA2      0.900000E-01   1.00800           0
        18 PROA     2        PRO      HB2      HA2      0.900000E-01   1.00800           0
        19 PROA     2        PRO      CG       CP2     -0.180000       12.0110           0
        20 PROA     2        PRO      HG1      HA2      0.900000E-01   1.00800           0
        21 PROA     2        PRO      HG2      HA2      0.900000E-01   1.00800           0
        22 PROA     2        PRO      C        C        0.510000       12.0110           0
        23 PROA     2        PRO      O        O       -0.510000       15.9994           0
        24 PROA     3        GLY      N        NH1     -0.470000       14.0070           0
        25 PROA     3        GLY      HN       H        0.310000       1.00800           0
        26 PROA     3        GLY      CA       CT2     -0.200000E-01   12.0110           0
        27 PROA     3        GLY      HA1      HB2      0.900000E-01   1.00800           0
        28 PROA     3        GLY      HA2      HB2      0.900000E-01   1.00800           0
        29 PROA     3        GLY      C        C        0.510000       12.0110           0
        30 PROA     3        GLY      O        O       -0.510000       15.9994           0
        31 PROA     4        ASN      N        NH1     -0.470000       14.0070           0
        32 PROA     4        ASN      HN       H        0.310000       1.00800           0
        33 PROA     4        ASN      CA       CT1      0.700000E-01   12.0110           0
        34 PROA     4        ASN      HA       HB1      0.900000E-01   1.00800           0
        35 PROA     4        ASN      CB       CT2     -0.180000       12.0110           0
        36 PROA     4        ASN      HB1      HA2      0.900000E-01   1.00800           0
        37 PROA     4        ASN      HB2      HA2      0.900000E-01   1.00800           0
        38 PROA     4        ASN      CG       CC       0.550000       12.0110           0
        39 PROA     4        ASN      OD1      O       -0.550000       15.9994           0
        40 PROA     4        ASN      ND2      NH2     -0.620000       14.0070           0
        41 PROA     4        ASN      HD21     H        0.320000       1.00800           0
        42 PROA     4        ASN      HD22     H        0.300000       1.00800           0
        43 PROA     4        ASN      C        C        0.510000       12.0110           0
        44 PROA     4        ASN      O        O       -0.510000       15.9994           0
        45 PROA     5        PRO      N        N       -0.290000       14.0070           0
        46 PROA     5        PRO      CD       CP3       0.00000       12.0110           0
        47 PROA     5        PRO      HD1      HA2      0.900000E-01   1.00800           0
        48 PROA     5        PRO      HD2      HA2      0.900000E-01   1.00800           0
        49 PROA     5        PRO      CA       CP1      0.200000E-01   12.0110           0
        50 PROA     5        PRO      HA       HB1      0.900000E-01   1.00800           0
        51 PROA     5        PRO      CB       CP2     -0.180000       12.0110           0
        52 PROA     5        PRO      HB1      HA2      0.900000E-01   1.00800           0
        53 PROA     5        PRO      HB2      HA2      0.900000E-01   1.00800           0
        54 PROA     5        PRO      CG       CP2     -0.180000       12.0110           0
        55 PROA     5        PRO      HG1      HA2      0.900000E-01   1.00800           0
        56 PROA     5        PRO      HG2      HA2      0.900000E-01   1.00800           0
        57 PROA     5        PRO      C        C        0.510000       12.0110           0
        58 PROA     5        PRO      O        O       -0.510000       15.9994           0
        59 PROA     6        GLY      N        NH1     -0.470000       14.0070           0
        60 PROA     6        GLY      HN       H        0.310000       1.00800           0
        61 PROA     6        GLY      CA       CT2     -0.200000E-01   12.0110           0
        62 PROA     6        GLY      HA1      HB2      0.900000E-01   1.00800           0
        63 PROA     6        GLY      HA2      HB2      0.900000E-01   1.00800           0
        64 PROA     6        GLY      C        C        0.510000       12.0110           0
        65 PROA     6        GLY      O        O       -0.510000       15.9994           0
        66 PROA     7        SER      N        NH1     -0.470000       14.0070           0
        67 PROA     7        SER      HN       H        0.310000       1.00800           0
        68 PROA     7        SER      CA       CT1      0.700000E-01   12.0110           0
        69 PROA     7        SER      HA       HB1      0.900000E-01   1.00800           0
        70 PROA     7        SER      CB       CT2      0.500000E-01   12.0110           0
        71 PROA     7        SER      HB1      HA2      0.900000E-01   1.00800           0
        72 PROA     7        SER      HB2      HA2      0.900000E-01   1.00800           0
        73 PROA     7        SER      OG       OH1     -0.660000       15.9994           0
        74 PROA     7        SER      HG1      H        0.430000       1.00800           0
        75 PROA     7        SER      C        C        0.510000       12.0110           0
        76 PROA     7        SER      O        O       -0.510000       15.9994           0
        77 PROA     8        GLY      N        NH1     -0.470000       14.0070           0
        78 PROA     8        GLY      HN       H        0.310000       1.00800           0
        79 PROA     8        GLY      CA       CT2     -0.200000E-01   12.0110           0
        80 PROA     8        GLY      HA1      HB2      0.900000E-01   1.00800           0
        81 PROA     8        GLY      HA2      HB2      0.900000E-01   1.00800           0
        82 PROA     8        GLY      C        C        0.510000       12.0110           0
        83 PROA     8        GLY      O        O       -0.510000       15.9994           0
        84 PROA     9        PRO      N        N       -0.290000       14.0070           0
        85 PROA     9        PRO      CD       CP3       0.00000       12.0110           0
        86 PROA     9        PRO      HD1      HA2      0.900000E-01   1.00800           0
        87 PROA     9        PRO      HD2      HA2      0.900000E-01   1.00800           0
        88 PROA     9        PRO      CA       CP1      0.200000E-01   12.0110           0
        89 PROA     9        PRO      HA       HB1      0.900000E-01   1.00800           0
        90 PROA     9        PRO      CB       CP2     -0.180000       12.0110           0
        91 PROA     9        PRO      HB1      HA2      0.900000E-01   1.00800           0
        92 PROA     9        PRO      HB2      HA2      0.900000E-01   1.00800           0
        93 PROA     9        PRO      CG       CP2     -0.180000       12.0110           0
        94 PROA     9        PRO      HG1      HA2      0.900000E-01   1.00800           0
        95 PROA     9        PRO      HG2      HA2      0.900000E-01   1.00800           0
        96 PROA     9        PRO      C        C        0.510000       12.0110           0
        97 PROA     9        PRO      O        O       -0.510000       15.9994           0
        98 PROA     10       GLY      N        NH1     -0.470000       14.0070           0
        99 PROA     10       GLY      HN       H        0.310000       1.00800           0
       100 PROA     10       GLY      CA       CT2     -0.200000E-01   12.0110           0
       101 PROA     10       GLY      HA1      HB2      0.900000E-01   1.00800           0
       102 PROA     10       GLY      HA2      HB2      0.900000E-01   1.00800           0
       103 PROA     10       GLY      C        C        0.510000       12.0110           0
       104 PROA     10       GLY      O        O       -0.510000       15.9994           0
       105 PROA     11       ASP      N        NH1     -0.470000       14.0070           0
       106 PROA     11       ASP      HN       H        0.310000       1.00800           0
       107 PROA     11       ASP      CA       CT1      0.700000E-01   12.0110           0
       108 PROA     11       ASP      HA       HB1      0.900000E-01   1.00800           0
       109 PROA     11       ASP      CB       CT2A    -0.280000       12.0110           0
       110 PROA     11       ASP      HB1      HA2      0.900000E-01   1.00800           0
       111 PROA     11       ASP      HB2      HA2      0.900000E-01   1.00800           0
       112 PROA     11       ASP      CG       CC       0.620000       12.0110           0
       113 PROA     11       ASP      OD1      OC      -0.760000       15.9994           0
       114 PROA     11       ASP      OD2      OC      -0.760000       15.9994           0
       115 PROA     11       ASP      C        C        0.510000       12.0110           0
       116 PROA     11       ASP      O        O       -0.510000       15.9994           0
       117 PROA     12       PRO      N        N       -0.290000       14.0070           0
       118 PROA     12       PRO      CD       CP3       0.00000       12.0110           0
       119 PROA     12       PRO      HD1      HA2      0.900000E-01   1.00800           0
       120 PROA     12       PRO      HD2      HA2      0.900000E-01   1.00800           0
       121 PROA     12       PRO      CA       CP1      0.200000E-01   12.0110           0
       122 PROA     12       PRO      HA       HB1      0.900000E-01   1.00800           0
       123 PROA     12       PRO      CB       CP2     -0.180000       12.0110           0
       124 PROA     12       PRO      HB1      HA2      0.900000E-01   1.00800           0
       125 PROA     12       PRO      HB2      HA2      0.900000E-01   1.00800           0
       126 PROA     12       PRO      CG       CP2     -0.180000       12.0110           0
       127 PROA     12       PRO      HG1      HA2      0.900000E-01   1.00800           0
       128 PROA     12       PRO      HG2      HA2      0.900000E-01   1.00800           0
       129 PROA     12       PRO      C        C        0.510000       12.0110           0
       130 PROA     12       PRO      O        O       -0.510000       15.9994           0
       131 PROA     13       GLY      N        NH1     -0.470000       14.0070           0
       132 PROA     13       GLY      HN       H        0.310000       1.00800           0
       133 PROA     13       GLY      CA       CT2     -0.200000E-01   12.0110           0
       134 PROA     13       GLY      HA1      HB2      0.900000E-01   1.00800           0
       135 PROA     13       GLY      HA2      HB2      0.900000E-01   1.00800           0
       136 PROA     13       GLY      C        C        0.510000       12.0110           0
       137 PROA     13       GLY      O        O       -0.510000       15.9994           0
       138 PROA     14       SER      N        NH1     -0.470000       14.0070           0
       139 PROA     14       SER      HN       H        0.310000       1.00800           0
       140 PROA     14       SER      CA       CT1      0.700000E-01   12.0110           0
       141 PROA     14       SER      HA       HB1      0.900000E-01   1.00800           0
       142 PROA     14       SER      CB       CT2      0.500000E-01   12.0110           0
       143 PROA     14       SER      HB1      HA2      0.900000E-01   1.00800           0
       144 PROA     14       SER      HB2      HA2      0.900000E-01   1.00800           0
       145 PROA     14       SER      OG       OH1     -0.660000       15.9994           0
       146 PROA     14       SER      HG1      H        0.430000       1.00800           0
       147 PROA     14       SER      C        C        0.510000       12.0110           0
       148 PROA     14       SER      O        O       -0.510000       15.9994           0
       149 PROA     15       GLY      N        NH1     -0.470000       14.0070           0
       150 PROA     15       GLY      HN       H        0.310000       1.00800           0
       151 PROA     15       GLY      CA       CT2     -0.200000E-01   12.0110           0
       152 PROA     15       GLY      HA1      HB2      0.900000E-01   1.00800           0
       153 PROA     15       GLY      HA2      HB2      0.900000E-01   1.00800           0
       154 PROA     15       GLY      C        C        0.510000       12.0110           0
       155 PROA     15       GLY      O        O       -0.510000       15.9994           0
       156 PROA     16       PRO      N        N       -0.290000       14.0070           0
       157 PROA     16       PRO      CD       CP3       0.00000       12.0110           0
       158 PROA     16       PRO      HD1      HA2      0.900000E-01   1.00800           0
       159 PROA     16       PRO      HD2      HA2      0.900000E-01   1.00800           0
       160 PROA     16       PRO      CA       CP1      0.200000E-01   12.0110           0
       161 PROA     16       PRO      HA       HB1      0.900000E-01   1.00800           0
       162 PROA     16       PRO      CB       CP2     -0.180000       12.0110           0
       163 PROA     16       PRO      HB1      HA2      0.900000E-01   1.00800           0
       164 PROA     16       PRO      HB2      HA2      0.900000E-01   1.00800           0
       165 PROA     16       PRO      CG       CP2     -0.180000       12.0110           0
       166 PROA     16       PRO      HG1      HA2      0.900000E-01   1.00800           0
       167 PROA     16       PRO      HG2      HA2      0.900000E-01   1.00800           0
       168 PROA     16       PRO      C        C        0.510000       12.0110           0
       169 PROA     16       PRO      O        O       -0.510000       15.9994           0
       170 PROA     17       GLY      N        NH1     -0.470000       14.0070           0
       171 PROA     17       GLY      HN       H        0.310000       1.00800           0
       172 PROA     17       GLY      CA       CT2     -0.200000E-01   12.0110           0
       173 PROA     17       GLY      HA1      HB2      0.900000E-01   1.00800           0
       174 PROA     17       GLY      HA2      HB2      0.900000E-01   1.00800           0
       175 PROA     17       GLY      C        C        0.510000       12.0110           0
       176 PROA     17       GLY      O        O       -0.510000       15.9994           0
       177 PROA     18       ASN      N        NH1     -0.470000       14.0070           0
       178 PROA     18       ASN      HN       H        0.310000       1.00800           0
       179 PROA     18       ASN      CA       CT1      0.700000E-01   12.0110           0
       180 PROA     18       ASN      HA       HB1      0.900000E-01   1.00800           0
       181 PROA     18       ASN      CB       CT2     -0.180000       12.0110           0
       182 PROA     18       ASN      HB1      HA2      0.900000E-01   1.00800           0
       183 PROA     18       ASN      HB2      HA2      0.900000E-01   1.00800           0
       184 PROA     18       ASN      CG       CC       0.550000       12.0110           0
       185 PROA     18       ASN      OD1      O       -0.550000       15.9994           0
       186 PROA     18       ASN      ND2      NH2     -0.620000       14.0070           0
       187 PROA     18       ASN      HD21     H        0.320000       1.00800           0
       188 PROA     18       ASN      HD22     H        0.300000       1.00800           0
       189 PROA     18       ASN      C        C        0.510000       12.0110           0
       190 PROA     18       ASN      O        O       -0.510000       15.9994           0
       191 PROA     19       PRO      N        N       -0.290000       14.0070           0
       192 PROA     19       PRO      CD       CP3       0.00000       12.0110           0
       193 PROA     19       PRO      HD1      HA2      0.900000E-01   1.00800           0
       194 PROA     19       PRO      HD2      HA2      0.900000E-01   1.00800           0
       195 PROA     19       PRO      CA       CP1      0.200000E-01   12.0110           0
       196 PROA     19       PRO      HA       HB1      0.900000E-01   1.00800           0
       197 PROA     19       PRO      CB       CP2     -0.180000       12.0110           0
       198 PROA     19       PRO      HB1      HA2      0.900000E-01   1.00800           0
       199 PROA     19       PRO      HB2      HA2      0.900000E-01   1.00800           0
       200 PROA     19       PRO      CG       CP2     -0.180000       12.0110           0
       201 PROA     19       PRO      HG1      HA2      0.900000E-01   1.00800           0
       202 PROA     19       PRO      HG2      HA2      0.900000E-01   1.00800           0
       203 PROA     19       PRO      C        CC       0.340000       12.0110           0
       204 PROA     19       PRO      OT1      OC      -0.670000       15.9994           0
       205 PROA     19       PRO      OT2      OC      -0.670000       15.9994           0

       210 !NBOND: bonds
         2         1         3         1         4         1         1         5
         8         5         8        10         5         6         5         7
         9         8        22        14        22        24        10        14
        14        16        16        19        19        11        10        11
        15        14        20        19        21        19        12        11
        13        11        17        16        18        16        23        22
        24        25        24        26        29        26        29        31
        26        27        26        28        30        29        35        33
        38        35        40        38        31        32        31        33
        43        33        43        45        33        34        35        36
        35        37        40        41        40        42        43        44
        38        39        57        49        57        59        45        49
        49        51        51        54        54        46        45        46
        50        49        55        54        56        54        47        46
        48        46        52        51        53        51        58        57
        59        60        59        61        64        61        64        66
        61        62        61        63        65        64        70        68
        73        70        66        67        66        68        75        68
        75        77        68        69        70        71        70        72
        73        74        76        75        77        78        77        79
        82        79        82        84        79        80        79        81
        83        82        96        88        96        98        84        88
        88        90        90        93        93        85        84        85
        89        88        94        93        95        93        86        85
        87        85        91        90        92        90        97        96
        98        99        98       100       103       100       103       105
       100       101       100       102       104       103       109       107
       112       109       114       112       105       106       105       107
       115       107       115       117       107       108       109       110
       109       111       116       115       112       113       129       121
       129       131       117       121       121       123       123       126
       126       118       117       118       122       121       127       126
       128       126       119       118       120       118       124       123
       125       123       130       129       131       132       131       133
       136       133       136       138       133       134       133       135
       137       136       142       140       145       142       138       139
       138       140       147       140       147       149       140       141
       142       143       142       144       145       146       148       147
       149       150       149       151       154       151       154       156
       151       152       151       153       155       154       168       160
       168       170       156       160       160       162       162       165
       165       157       156       157       161       160       166       165
       167       165       158       157       159       157       163       162
       164       162       169       168       170       171       170       172
       175       172       175       177       172       173       172       174
       176       175       181       179       184       181       186       184
       177       178       177       179       189       179       189       191
       179       180       181       182       181       183       186       187
       186       188       189       190       184       185       203       195
       191       195       195       197       197       200       200       192
       191       192       196       195       201       200       202       200
       193       192       194       192       198       197       199       197
       203       205       203       204

       386 !NTHETA: angles
         2         1         3         2         1         4         2         1         5
         3         1         4         3         1         5         4         1         5
         1         5         6         1         5         7         1         5         8
         6         5         7         6         5         8         7         5         8
         5         8         9         5         8        10         9         8        10
         8        10        11         8        10        14        11        10        14
        10        11        12        10        11        13        10        11        19
        12        11        13        12        11        19        13        11        19
        10        14        15        10        14        16        10        14        22
        15        14        16        15        14        22        16        14        22
        14        16        17        14        16        18        14        16        19
        17        16        18        17        16        19        18        16        19
        11        19        16        11        19        20        11        19        21
        16        19        20        16        19        21        20        19        21
        14        22        23        14        22        24        23        22        24
        22        24        25        22        24        26        25        24        26
        24        26        27        24        26        28        24        26        29
        27        26        28        27        26        29        28        26        29
        26        29        30        26        29        31        30        29        31
        29        31        32        29        31        33        32        31        33
        31        33        34        31        33        35        31        33        43
        34        33        35        34        33        43        35        33        43
        33        35        36        33        35        37        33        35        38
        36        35        37        36        35        38        37        35        38
        35        38        39        35        38        40        39        38        40
        38        40        41        38        40        42        41        40        42
        33        43        44        33        43        45        44        43        45
        43        45        46        43        45        49        46        45        49
        45        46        47        45        46        48        45        46        54
        47        46        48        47        46        54        48        46        54
        45        49        50        45        49        51        45        49        57
        50        49        51        50        49        57        51        49        57
        49        51        52        49        51        53        49        51        54
        52        51        53        52        51        54        53        51        54
        46        54        51        46        54        55        46        54        56
        51        54        55        51        54        56        55        54        56
        49        57        58        49        57        59        58        57        59
        57        59        60        57        59        61        60        59        61
        59        61        62        59        61        63        59        61        64
        62        61        63        62        61        64        63        61        64
        61        64        65        61        64        66        65        64        66
        64        66        67        64        66        68        67        66        68
        66        68        69        66        68        70        66        68        75
        69        68        70        69        68        75        70        68        75
        68        70        71        68        70        72        68        70        73
        71        70        72        71        70        73        72        70        73
        70        73        74        68        75        76        68        75        77
        76        75        77        75        77        78        75        77        79
        78        77        79        77        79        80        77        79        81
        77        79        82        80        79        81        80        79        82
        81        79        82        79        82        83        79        82        84
        83        82        84        82        84        85        82        84        88
        85        84        88        84        85        86        84        85        87
        84        85        93        86        85        87        86        85        93
        87        85        93        84        88        89        84        88        90
        84        88        96        89        88        90        89        88        96
        90        88        96        88        90        91        88        90        92
        88        90        93        91        90        92        91        90        93
        92        90        93        85        93        90        85        93        94
        85        93        95        90        93        94        90        93        95
        94        93        95        88        96        97        88        96        98
        97        96        98        96        98        99        96        98       100
        99        98       100        98       100       101        98       100       102
        98       100       103       101       100       102       101       100       103
       102       100       103       100       103       104       100       103       105
       104       103       105       103       105       106       103       105       107
       106       105       107       105       107       108       105       107       109
       105       107       115       108       107       109       108       107       115
       109       107       115       107       109       110       107       109       111
       107       109       112       110       109       111       110       109       112
       111       109       112       109       112       113       109       112       114
       113       112       114       107       115       116       107       115       117
       116       115       117       115       117       118       115       117       121
       118       117       121       117       118       119       117       118       120
       117       118       126       119       118       120       119       118       126
       120       118       126       117       121       122       117       121       123
       117       121       129       122       121       123       122       121       129
       123       121       129       121       123       124       121       123       125
       121       123       126       124       123       125       124       123       126
       125       123       126       118       126       123       118       126       127
       118       126       128       123       126       127       123       126       128
       127       126       128       121       129       130       121       129       131
       130       129       131       129       131       132       129       131       133
       132       131       133       131       133       134       131       133       135
       131       133       136       134       133       135       134       133       136
       135       133       136       133       136       137       133       136       138
       137       136       138       136       138       139       136       138       140
       139       138       140       138       140       141       138       140       142
       138       140       147       141       140       142       141       140       147
       142       140       147       140       142       143       140       142       144
       140       142       145       143       142       144       143       142       145
       144       142       145       142       145       146       140       147       148
       140       147       149       148       147       149       147       149       150
       147       149       151       150       149       151       149       151       152
       149       151       153       149       151       154       152       151       153
       152       151       154       153       151       154       151       154       155
       151       154       156       155       154       156       154       156       157
       154       156       160       157       156       160       156       157       158
       156       157       159       156       157       165       158       157       159
       158       157       165       159       157       165       156       160       161
       156       160       162       156       160       168       161       160       162
       161       160       168       162       160       168       160       162       163
       160       162       164       160       162       165       163       162       164
       163       162       165       164       162       165       157       165       162
       157       165       166       157       165       167       162       165       166
       162       165       167       166       165       167       160       168       169
       160       168       170       169       168       170       168       170       171
       168       170       172       171       170       172       170       172       173
       170       172       174       170       172       175       173       172       174
       173       172       175       174       172       175       172       175       176
       172       175       177       176       175       177       175       177       178
       175       177       179       178       177       179       177       179       180
       177       179       181       177       179       189       180       179       181
       180       179       189       181       179       189       179       181       182
       179       181       183       179       181       184       182       181       183
       182       181       184       183       181       184       181       184       185
       181       184       186       185       184       186       184       186       187
       184       186       188       187       186       188       179       189       190
       179       189       191       190       189       191       189       191       192
       189       191       195       192       191       195       191       192       193
       191       192       194       191       192       200       193       192       194
       193       192       200       194       192       200       191       195       196
       191       195       197       191       195       203       196       195       197
       196       195       203       197       195       203       195       197       198
       195       197       199       195       197       200       198       197       199
       198       197       200       199       197       200       192       200       197
       192       200       201       192       200       202       197       200       201
       197       200       202       201       200       202       195       203       204
       195       203       205       204       203       205

       578 !NPHI: dihedrals
         1         5         8         9         1         5         8        10
         2         1         5         6         2         1         5         7
         2         1         5         8         3         1         5         6
         3         1         5         7         3         1         5         8
         4         1         5         6         4         1         5         7
         4         1         5         8         5         8        10        11
         5         8        10        14         6         5         8         9
         6         5         8        10         7         5         8         9
         7         5         8        10         8        10        11        12
         8        10        11        13         8        10        11        19
         8        10        14        15         8        10        14        16
         8        10        14        22         9         8        10        11
         9         8        10        14        10        11        19        16
        10        11        19        20        10        11        19        21
        10        14        16        17        10        14        16        18
        10        14        16        19        10        14        22        23
        10        14        22        24        11        10        14        15
        11        10        14        16        11        10        14        22
        11        19        16        14        11        19        16        17
        11        19        16        18        12        11        10        14
        12        11        19        16        12        11        19        20
        12        11        19        21        13        11        10        14
        13        11        19        16        13        11        19        20
        13        11        19        21        14        10        11        19
        14        16        19        20        14        16        19        21
        14        22        24        25        14        22        24        26
        15        14        16        17        15        14        16        18
        15        14        16        19        15        14        22        23
        15        14        22        24        16        14        22        23
        16        14        22        24        17        16        14        22
        17        16        19        20        17        16        19        21
        18        16        14        22        18        16        19        20
        18        16        19        21        19        16        14        22
        22        24        26        27        22        24        26        28
        22        24        26        29        23        22        24        25
        23        22        24        26        24        26        29        30
        24        26        29        31        25        24        26        27
        25        24        26        28        25        24        26        29
        26        29        31        32        26        29        31        33
        27        26        29        30        27        26        29        31
        28        26        29        30        28        26        29        31
        29        31        33        34        29        31        33        35
        29        31        33        43        30        29        31        32
        30        29        31        33        31        33        35        36
        31        33        35        37        31        33        35        38
        31        33        43        44        31        33        43        45
        32        31        33        34        32        31        33        35
        32        31        33        43        33        35        38        39
        33        35        38        40        33        43        45        46
        33        43        45        49        34        33        35        36
        34        33        35        37        34        33        35        38
        34        33        43        44        34        33        43        45
        35        33        43        44        35        33        43        45
        35        38        40        41        35        38        40        42
        36        35        33        43        36        35        38        39
        36        35        38        40        37        35        33        43
        37        35        38        39        37        35        38        40
        38        35        33        43        39        38        40        41
        39        38        40        42        43        45        46        47
        43        45        46        48        43        45        46        54
        43        45        49        50        43        45        49        51
        43        45        49        57        44        43        45        46
        44        43        45        49        45        46        54        51
        45        46        54        55        45        46        54        56
        45        49        51        52        45        49        51        53
        45        49        51        54        45        49        57        58
        45        49        57        59        46        45        49        50
        46        45        49        51        46        45        49        57
        46        54        51        49        46        54        51        52
        46        54        51        53        47        46        45        49
        47        46        54        51        47        46        54        55
        47        46        54        56        48        46        45        49
        48        46        54        51        48        46        54        55
        48        46        54        56        49        45        46        54
        49        51        54        55        49        51        54        56
        49        57        59        60        49        57        59        61
        50        49        51        52        50        49        51        53
        50        49        51        54        50        49        57        58
        50        49        57        59        51        49        57        58
        51        49        57        59        52        51        49        57
        52        51        54        55        52        51        54        56
        53        51        49        57        53        51        54        55
        53        51        54        56        54        51        49        57
        57        59        61        62        57        59        61        63
        57        59        61        64        58        57        59        60
        58        57        59        61        59        61        64        65
        59        61        64        66        60        59        61        62
        60        59        61        63        60        59        61        64
        61        64        66        67        61        64        66        68
        62        61        64        65        62        61        64        66
        63        61        64        65        63        61        64        66
        64        66        68        69        64        66        68        70
        64        66        68        75        65        64        66        67
        65        64        66        68        66        68        70        71
        66        68        70        72        66        68        70        73
        66        68        75        76        66        68        75        77
        67        66        68        69        67        66        68        70
        67        66        68        75        68        70        73        74
        68        75        77        78        68        75        77        79
        69        68        70        71        69        68        70        72
        69        68        70        73        69        68        75        76
        69        68        75        77        70        68        75        76
        70        68        75        77        71        70        68        75
        71        70        73        74        72        70        68        75
        72        70        73        74        73        70        68        75
        75        77        79        80        75        77        79        81
        75        77        79        82        76        75        77        78
        76        75        77        79        77        79        82        83
        77        79        82        84        78        77        79        80
        78        77        79        81        78        77        79        82
        79        82        84        85        79        82        84        88
        80        79        82        83        80        79        82        84
        81        79        82        83        81        79        82        84
        82        84        85        86        82        84        85        87
        82        84        85        93        82        84        88        89
        82        84        88        90        82        84        88        96
        83        82        84        85        83        82        84        88
        84        85        93        90        84        85        93        94
        84        85        93        95        84        88        90        91
        84        88        90        92        84        88        90        93
        84        88        96        97        84        88        96        98
        85        84        88        89        85        84        88        90
        85        84        88        96        85        93        90        88
        85        93        90        91        85        93        90        92
        86        85        84        88        86        85        93        90
        86        85        93        94        86        85        93        95
        87        85        84        88        87        85        93        90
        87        85        93        94        87        85        93        95
        88        84        85        93        88        90        93        94
        88        90        93        95        88        96        98        99
        88        96        98       100        89        88        90        91
        89        88        90        92        89        88        90        93
        89        88        96        97        89        88        96        98
        90        88        96        97        90        88        96        98
        91        90        88        96        91        90        93        94
        91        90        93        95        92        90        88        96
        92        90        93        94        92        90        93        95
        93        90        88        96        96        98       100       101
        96        98       100       102        96        98       100       103
        97        96        98        99        97        96        98       100
        98       100       103       104        98       100       103       105
        99        98       100       101        99        98       100       102
        99        98       100       103       100       103       105       106
       100       103       105       107       101       100       103       104
       101       100       103       105       102       100       103       104
       102       100       103       105       103       105       107       108
       103       105       107       109       103       105       107       115
       104       103       105       106       104       103       105       107
       105       107       109       110       105       107       109       111
       105       107       109       112       105       107       115       116
       105       107       115       117       106       105       107       108
       106       105       107       109       106       105       107       115
       107       109       112       113       107       109       112       114
       107       115       117       118       107       115       117       121
       108       107       109       110       108       107       109       111
       108       107       109       112       108       107       115       116
       108       107       115       117       109       107       115       116
       109       107       115       117       110       109       107       115
       110       109       112       113       110       109       112       114
       111       109       107       115       111       109       112       113
       111       109       112       114       112       109       107       115
       115       117       118       119       115       117       118       120
       115       117       118       126       115       117       121       122
       115       117       121       123       115       117       121       129
       116       115       117       118       116       115       117       121
       117       118       126       123       117       118       126       127
       117       118       126       128       117       121       123       124
       117       121       123       125       117       121       123       126
       117       121       129       130       117       121       129       131
       118       117       121       122       118       117       121       123
       118       117       121       129       118       126       123       121
       118       126       123       124       118       126       123       125
       119       118       117       121       119       118       126       123
       119       118       126       127       119       118       126       128
       120       118       117       121       120       118       126       123
       120       118       126       127       120       118       126       128
       121       117       118       126       121       123       126       127
       121       123       126       128       121       129       131       132
       121       129       131       133       122       121       123       124
       122       121       123       125       122       121       123       126
       122       121       129       130       122       121       129       131
       123       121       129       130       123       121       129       131
       124       123       121       129       124       123       126       127
       124       123       126       128       125       123       121       129
       125       123       126       127       125       123       126       128
       126       123       121       129       129       131       133       134
       129       131       133       135       129       131       133       136
       130       129       131       132       130       129       131       133
       131       133       136       137       131       133       136       138
       132       131       133       134       132       131       133       135
       132       131       133       136       133       136       138       139
       133       136       138       140       134       133       136       137
       134       133       136       138       135       133       136       137
       135       133       136       138       136       138       140       141
       136       138       140       142       136       138       140       147
       137       136       138       139       137       136       138       140
       138       140       142       143       138       140       142       144
       138       140       142       145       138       140       147       148
       138       140       147       149       139       138       140       141
       139       138       140       142       139       138       140       147
       140       142       145       146       140       147       149       150
       140       147       149       151       141       140       142       143
       141       140       142       144       141       140       142       145
       141       140       147       148       141       140       147       149
       142       140       147       148       142       140       147       149
       143       142       140       147       143       142       145       146
       144       142       140       147       144       142       145       146
       145       142       140       147       147       149       151       152
       147       149       151       153       147       149       151       154
       148       147       149       150       148       147       149       151
       149       151       154       155       149       151       154       156
       150       149       151       152       150       149       151       153
       150       149       151       154       151       154       156       157
       151       154       156       160       152       151       154       155
       152       151       154       156       153       151       154       155
       153       151       154       156       154       156       157       158
       154       156       157       159       154       156       157       165
       154       156       160       161       154       156       160       162
       154       156       160       168       155       154       156       157
       155       154       156       160       156       157       165       162
       156       157       165       166       156       157       165       167
       156       160       162       163       156       160       162       164
       156       160       162       165       156       160       168       169
       156       160       168       170       157       156       160       161
       157       156       160       162       157       156       160       168
       157       165       162       160       157       165       162       163
       157       165       162       164       158       157       156       160
       158       157       165       162       158       157       165       166
       158       157       165       167       159       157       156       160
       159       157       165       162       159       157       165       166
       159       157       165       167       160       156       157       165
       160       162       165       166       160       162       165       167
       160       168       170       171       160       168       170       172
       161       160       162       163       161       160       162       164
       161       160       162       165       161       160       168       169
       161       160       168       170       162       160       168       169
       162       160       168       170       163       162       160       168
       163       162       165       166       163       162       165       167
       164       162       160       168       164       162       165       166
       164       162       165       167       165       162       160       168
       168       170       172       173       168       170       172       174
       168       170       172       175       169       168       170       171
       169       168       170       172       170       172       175       176
       170       172       175       177       171       170       172       173
       171       170       172       174       171       170       172       175
       172       175       177       178       172       175       177       179
       173       172       175       176       173       172       175       177
       174       172       175       176       174       172       175       177
       175       177       179       180       175       177       179       181
       175       177       179       189       176       175       177       178
       176       175       177       179       177       179       181       182
       177       179       181       183       177       179       181       184
       177       179       189       190       177       179       189       191
       178       177       179       180       178       177       179       181
       178       177       179       189       179       181       184       185
       179       181       184       186       179       189       191       192
       179       189       191       195       180       179       181       182
       180       179       181       183       180       179       181       184
       180       179       189       190       180       179       189       191
       181       179       189       190       181       179       189       191
       181       184       186       187       181       184       186       188
       182       181       179       189       182       181       184       185
       182       181       184       186       183       181       179       189
       183       181       184       185       183       181       184       186
       184       181       179       189       185       184       186       187
       185       184       186       188       189       191       192       193
       189       191       192       194       189       191       192       200
       189       191       195       196       189       191       195       197
       189       191       195       203       190       189       191       192
       190       189       191       195       191       192       200       197
       191       192       200       201       191       192       200       202
       191       195       197       198       191       195       197       199
       191       195       197       200       191       195       203       204
       191       195       203       205       192       191       195       196
       192       191       195       197       192       191       195       203
       192       200       197       195       192       200       197       198
       192       200       197       199       193       192       191       195
       193       192       200       197       193       192       200       201
       193       192       200       202       194       192       191       195
       194       192       200       197       194       192       200       201
       194       192       200       202       195       191       192       200
       195       197       200       201       195       197       200       202
       196       195       197       198       196       195       197       199
       196       195       197       200       196       195       203       204
       196       195       203       205       197       195       203       204
       197       195       203       205       198       197       195       203
       198       197       200       201       198       197       200       202
       199       197       195       203       199       197       200       201
       199       197       200       202       200       197       195       203

        46 !NIMPHI: impropers
         8         5        10         9        10         8        14        11
        22        14        24        23        24        22        26        25
        29        26        31        30        31        29        33        32
        43        33        45        44        38        40        35        39
        38        35        40        39        40        38        41        42
        40        38        42        41        45        43        49        46
        57        49        59        58        59        57        61        60
        64        61        66        65        66        64        68        67
        75        68        77        76        77        75        79        78
        82        79        84        83        84        82        88        85
        96        88        98        97        98        96       100        99
       103       100       105       104       105       103       107       106
       115       107       117       116       112       109       114       113
       117       115       121       118       129       121       131       130
       131       129       133       132       136       133       138       137
       138       136       140       139       147       140       149       148
       149       147       151       150       154       151       156       155
       156       154       160       157       168       160       170       169
       170       168       172       171       175       172       177       176
       177       175       179       178       189       179       191       190
       184       186       181       185       184       181       186       185
       186       184       187       188       186       184       188       187
       191       189       195       192       203       195       205       204

        21 !NDON: donors
         1         2         1         3         1         4        24        25
        31        32        40        41        40        42        59        60
        66        67        73        74        77        78        98        99
       105       106       131       132       138       139       145       146
       149       150       170       171       177       178       186       187
       186       188

        26 !NACC: acceptors
         9         8        23        22        30        29        39        38
        44        43        58        57        65        64        73         0
        76        75        83        82        97        96       104       103
       113       112       114       112       116       115       130       129
       137       136       145         0       148       147       155       154
       169       168       176       175       185       184       190       189
       204       203       205       203

         0 !NNB

         0         0         0         0         0         0         0         0
         0         0         0         0         0         0         0         0
         0         0         0         0         0         0         0         0
         0         0         0         0         0         0         0         0
         0         0         0         0         0         0         0         0
         0         0         0         0         0         0         0         0
         0         0         0         0         0         0         0         0
         0         0         0         0         0         0         0         0
         0         0         0         0         0         0         0         0
         0         0         0         0         0         0         0         0
         0         0         0         0         0         0         0         0
         0         0         0         0         0         0         0         0
         0         0         0         0         0         0         0         0
         0         0         0         0         0         0         0         0
         0         0         0         0         0         0         0         0
         0         0         0         0         0         0         0         0
         0         0         0         0         0         0         0         0
         0         0         0         0         0         0         0         0
         0         0         0         0         0         0         0         0
         0         0         0         0         0         0         0         0
         0         0         0         0         0         0         0         0
         0         0         0         0         0         0         0         0
         0         0         0         0         0         0         0         0
         0         0         0         0         0         0         0         0
         0         0         0         0         0         0         0         0
         0         0         0         0         0

        59         0 !NGRP NST2
         0         2         0         7         1         0         9         1         0
        15         1         0        18         1         0        21         1         0
        23         1         0        28         1         0        30         1         0
        34         1         0        37         1         0        39         1         0
        42         1         0        44         1         0        50         1         0
        53         1         0        56         1         0        58         1         0
        63         1         0        65         1         0        69         1         0
        74         1         0        76         1         0        81         1         0
        83         1         0        89         1         0        92         1         0
        95         1         0        97         1         0       102         1         0
       104         1         0       108         2         0       114         1         0
       116         1         0       122         1         0       125         1         0
       128         1         0       130         1         0       135         1         0
       137         1         0       141         1         0       146         1         0
       148         1         0       153         1         0       155         1         0
       161         1         0       164         1         0       167         1         0
       169         1         0       174         1         0       176         1         0
       180         1         0       183         1         0       185         1         0
       188         1         0       190         1         0       196         1         0
       199         1         0       202         2         0

         0         0 !NUMLP NUMLPH

        17 !NCRTERM: cross-terms
         8        10        14        22        10        14        22        24
        22        24        26        29        24        26        29        31
        29        31        33        43        31        33        43        45
        43        45        49        57        45        49        57        59
        57        59        61        64        59        61        64        66
        64        66        68        75        66        68        75        77
        75        77        79        82        77        79        82        84
        82        84        88        96        84        88        96        98
        96        98       100       103        98       100       103       105
       103       105       107       115       105       107       115       117
       115       117       121       129       117       121       129       131
       129       131       133       136       131       133       136       138
       136       138       140       147       138       140       147       149
       147       149       151       154       149       151       154       156
       154       156       160       168       156       160       168       170
       168       170       172       175       170       172       175       177
       175       177       179       189       177       179       189       191
