Title t= 261.00000 step= 130500
19927
    1ASP      N    1   1.111   0.218   2.334
    1ASP    HT1    2   1.024   0.173   2.301
    1ASP    HT2    3   1.078   0.285   2.407
    1ASP    HT3    4   1.181   0.160   2.386
    1ASP     CA    5   1.176   0.283   2.222
    1ASP     HA    6   1.212   0.205   2.157
    1ASP     CB    7   1.073   0.388   2.171
    1ASP    HB1    8   1.041   0.455   2.254
    1ASP    HB2    9   0.982   0.336   2.133
    1ASP     CG   10   1.111   0.465   2.048
    1ASP    OD1   11   1.176   0.401   1.960
    1ASP    OD2   12   1.074   0.583   2.034
    1ASP      C   13   1.309   0.344   2.257
    1ASP      O   14   1.357   0.330   2.375
    2ALA      N   15   1.389   0.415   2.164
    2ALA     HN   16   1.347   0.439   2.077
    2ALA     CA   17   1.490   0.509   2.194
    2ALA     HA   18   1.553   0.455   2.264
    2ALA     CB   19   1.586   0.551   2.085
    2ALA    HB1   20   1.665   0.626   2.108
    2ALA    HB2   21   1.526   0.594   2.002
    2ALA    HB3   22   1.641   0.461   2.051
    2ALA      C   23   1.433   0.636   2.260
    2ALA      O   24   1.316   0.670   2.249
    3ASP      N   25   1.520   0.724   2.312
    3ASP     HN   26   1.617   0.705   2.301
    3ASP     CA   27   1.492   0.844   2.398
    3ASP     HA   28   1.412   0.813   2.463
    3ASP     CB   29   1.631   0.890   2.461
    3ASP    HB1   30   1.619   0.990   2.509
    3ASP    HB2   31   1.705   0.903   2.379
    3ASP     CG   32   1.674   0.786   2.566
    3ASP    OD1   33   1.588   0.760   2.647
    3ASP    OD2   34   1.794   0.751   2.579
    3ASP      C   35   1.424   0.957   2.326
    3ASP      O   36   1.444   0.988   2.210
    4GLY      N   37   1.343   1.031   2.399
    4GLY     HN   38   1.344   1.031   2.498
    4GLY     CA   39   1.246   1.132   2.348
    4GLY    HA1   40   1.187   1.162   2.433
    4GLY    HA2   41   1.186   1.090   2.269
    4GLY      C   42   1.304   1.264   2.296
    4GLY      O   43   1.429   1.280   2.269
    5PRO      N   44   1.225   1.372   2.286
    5PRO     CD   45   1.080   1.370   2.274
    5PRO    HD1   46   1.039   1.330   2.369
    5PRO    HD2   47   1.054   1.303   2.189
    5PRO     CA   48   1.268   1.505   2.235
    5PRO     HA   49   1.321   1.486   2.143
    5PRO     CB   50   1.139   1.591   2.196
    5PRO    HB1   51   1.138   1.606   2.085
    5PRO    HB2   52   1.142   1.691   2.244
    5PRO     CG   53   1.020   1.511   2.252
    5PRO    HG1   54   1.003   1.542   2.357
    5PRO    HG2   55   0.925   1.524   2.196
    5PRO      C   56   1.365   1.575   2.325
    5PRO      O   57   1.462   1.634   2.277
    6GLY      N   58   1.346   1.570   2.455
    6GLY     HN   59   1.276   1.511   2.495
    6GLY     CA   60   1.434   1.644   2.546
    6GLY    HA1   61   1.532   1.599   2.541
    6GLY    HA2   62   1.391   1.637   2.645
    6GLY      C   63   1.441   1.787   2.528
    6GLY      O   64   1.545   1.856   2.544
    7ASP      N   65   1.325   1.851   2.504
    7ASP     HN   66   1.240   1.799   2.502
    7ASP     CA   67   1.302   1.995   2.491
    7ASP     HA   68   1.371   2.021   2.412
    7ASP     CB   69   1.158   2.018   2.455
    7ASP    HB1   70   1.136   2.127   2.454
    7ASP    HB2   71   1.099   1.965   2.532
    7ASP     CG   72   1.110   1.952   2.321
    7ASP    OD1   73   1.185   1.941   2.224
    7ASP    OD2   74   0.983   1.936   2.314
    7ASP      C   75   1.346   2.077   2.616
    7ASP      O   76   1.328   2.035   2.730
    8PRO      N   77   1.406   2.197   2.592
    8PRO     CD   78   1.469   2.226   2.462
    8PRO    HD1   79   1.394   2.244   2.381
    8PRO    HD2   80   1.533   2.143   2.427
    8PRO     CA   81   1.465   2.283   2.690
    8PRO     HA   82   1.550   2.238   2.738
    8PRO     CB   83   1.502   2.412   2.610
    8PRO    HB1   84   1.584   2.468   2.660
    8PRO    HB2   85   1.410   2.474   2.600
    8PRO     CG   86   1.554   2.353   2.477
    8PRO    HG1   87   1.541   2.423   2.391
    8PRO    HG2   88   1.663   2.331   2.477
    8PRO      C   89   1.365   2.316   2.800
    8PRO      O   90   1.246   2.335   2.773
    9ASP      N   91   1.412   2.334   2.927
    9ASP     HN   92   1.508   2.327   2.950
    9ASP     CA   93   1.340   2.374   3.050
    9ASP     HA   94   1.265   2.299   3.071
    9ASP     CB   95   1.446   2.381   3.163
    9ASP    HB1   96   1.391   2.409   3.255
    9ASP    HB2   97   1.523   2.459   3.143
    9ASP     CG   98   1.524   2.250   3.175
    9ASP    OD1   99   1.464   2.143   3.176
    9ASP    OD2  100   1.642   2.262   3.212
    9ASP      C  101   1.277   2.511   3.021
    9ASP      O  102   1.348   2.602   2.983
   10ALA      N  103   1.146   2.532   3.044
   10ALA     HN  104   1.099   2.446   3.061
   10ALA     CA  105   1.078   2.658   3.027
   10ALA     HA  106   1.100   2.694   2.928
   10ALA     CB  107   0.931   2.633   3.068
   10ALA    HB1  108   0.933   2.570   3.160
   10ALA    HB2  109   0.871   2.581   2.991
   10ALA    HB3  110   0.865   2.717   3.101
   10ALA      C  111   1.132   2.777   3.108
   10ALA      O  112   1.187   2.759   3.214
   11GLY      N  113   1.131   2.900   3.049
   11GLY     HN  114   1.086   2.910   2.961
   11GLY     CA  115   1.178   3.026   3.094
   11GLY    HA1  116   1.253   3.055   3.021
   11GLY    HA2  117   1.217   3.007   3.192
   11GLY      C  118   1.067   3.131   3.110
   11GLY    OT1  119   1.062   3.230   3.033
   11GLY    OT2  120   0.982   3.111   3.203
   12SOD    SOD  121   4.643   1.754   3.405
   13SOD    SOD  122   0.863   5.740   0.117
   14SOD    SOD  123   5.253   4.602   2.523
   15SOD    SOD  124   0.053   1.879   0.891
   16SOD    SOD  125   0.927   3.610   2.896
   17SOD    SOD  126   3.019   3.047   4.179
   18SOD    SOD  127   0.580   4.239   1.023
   19SOD    SOD  128   1.634   2.045   0.742
   20SOD    SOD  129   1.741   4.628   3.217
   21SOD    SOD  130   3.903   4.825   2.069
   22SOD    SOD  131   5.698   2.893   1.854
   23SOD    SOD  132   2.226   3.715   3.213
   24SOD    SOD  133   2.718   0.417   3.282
   25SOD    SOD  134   3.543   5.712   2.435
   26SOD    SOD  135   6.293   4.458   1.969
   27SOD    SOD  136   5.421   2.699   2.313
   28SOD    SOD  137   5.680   5.040   0.422
   29SOD    SOD  138   4.834   0.229   5.066
   30SOD    SOD  139   2.598   2.199   3.120
   31SOD    SOD  140   2.680   3.969   0.531
   32SOD    SOD  141   1.041   4.400   5.039
   33SOD    SOD  142   5.589   1.217   3.368
   34CLA    CLA  143   1.204   3.757   5.103
   35CLA    CLA  144   6.154   1.338   0.547
   36CLA    CLA  145   0.839   0.090   2.291
   37CLA    CLA  146   3.113   4.779   2.715
   38CLA    CLA  147   3.819   1.750   4.914
   39CLA    CLA  148   2.501   5.842   1.714
   40CLA    CLA  149   1.437   0.547   4.803
   41CLA    CLA  150   0.079   5.229   0.040
   42CLA    CLA  151   3.349   1.436   4.924
   43CLA    CLA  152   4.387   4.457   2.500
   44CLA    CLA  153   6.220   3.884   3.941
   45CLA    CLA  154   5.456   2.430   1.880
   46CLA    CLA  155   4.035   0.774   0.260
   47CLA    CLA  156   1.134   1.375   0.497
   48CLA    CLA  157   3.839   0.293   4.009
   49CLA    CLA  158   0.717   4.089   1.453
   50CLA    CLA  159   6.096   0.077   4.015
   51CLA    CLA  160   3.132   3.466   4.027
   52TIP3   OH2  161   0.822   4.606   1.429
   52TIP3    H1  162   0.767   4.528   1.421
   52TIP3    H2  163   0.888   4.582   1.494
   53TIP3   OH2  164   0.289   0.638   4.716
   53TIP3    H1  165   0.367   0.587   4.695
   53TIP3    H2  166   0.245   0.651   4.632
   54TIP3   OH2  167   4.483   5.672   3.533
   54TIP3    H1  168   4.529   5.670   3.449
   54TIP3    H2  169   4.490   5.583   3.567
   55TIP3   OH2  170   4.773   5.321   1.286
   55TIP3    H1  171   4.695   5.360   1.245
   55TIP3    H2  172   4.827   5.293   1.212
   56TIP3   OH2  173   4.927   5.010   0.246
   56TIP3    H1  174   4.902   4.919   0.229
   56TIP3    H2  175   4.944   5.047   0.160
   57TIP3   OH2  176   3.163   2.421   1.085
   57TIP3    H1  177   3.111   2.367   1.027
   57TIP3    H2  178   3.238   2.449   1.031
   58TIP3   OH2  179   3.919   5.964   3.293
   58TIP3    H1  180   3.856   5.993   3.358
   58TIP3    H2  181   3.968   5.895   3.337
   59TIP3   OH2  182   5.038   0.587   1.148
   59TIP3    H1  183   5.023   0.591   1.243
   59TIP3    H2  184   5.107   0.522   1.138
   60TIP3   OH2  185   5.269   2.068   1.012
   60TIP3    H1  186   5.174   2.075   1.003
   60TIP3    H2  187   5.286   1.974   1.014
   61TIP3   OH2  188   4.851   1.969   5.145
   61TIP3    H1  189   4.925   1.943   5.091
   61TIP3    H2  190   4.889   1.991   5.230
   62TIP3   OH2  191   2.547   5.692   4.755
   62TIP3    H1  192   2.487   5.713   4.826
   62TIP3    H2  193   2.498   5.631   4.700
   63TIP3   OH2  194   2.282   4.879   2.699
   63TIP3    H1  195   2.349   4.814   2.717
   63TIP3    H2  196   2.330   4.963   2.699
   64TIP3   OH2  197   1.674   1.989   2.773
   64TIP3    H1  198   1.639   1.960   2.858
   64TIP3    H2  199   1.613   1.953   2.709
   65TIP3   OH2  200   2.230   5.813   3.691
   65TIP3    H1  201   2.156   5.847   3.742
   65TIP3    H2  202   2.189   5.764   3.620
   66TIP3   OH2  203   4.975   3.817   4.909
   66TIP3    H1  204   5.015   3.899   4.879
   66TIP3    H2  205   4.921   3.843   4.983
   67TIP3   OH2  206   5.714   1.742   1.443
   67TIP3    H1  207   5.637   1.768   1.494
   67TIP3    H2  208   5.733   1.819   1.389
   68TIP3   OH2  209   2.469   3.993   2.585
   68TIP3    H1  210   2.529   4.067   2.573
   68TIP3    H2  211   2.495   3.931   2.517
   69TIP3   OH2  212   2.444   0.562   0.868
   69TIP3    H1  213   2.456   0.508   0.946
   69TIP3    H2  214   2.363   0.611   0.885
   70TIP3   OH2  215   2.312   2.702   3.436
   70TIP3    H1  216   2.304   2.695   3.531
   70TIP3    H2  217   2.306   2.796   3.419
   71TIP3   OH2  218   4.528   1.221   0.509
   71TIP3    H1  219   4.571   1.256   0.587
   71TIP3    H2  220   4.435   1.217   0.533
   72TIP3   OH2  221   3.435   2.104   4.979
   72TIP3    H1  222   3.496   2.147   4.919
   72TIP3    H2  223   3.442   2.011   4.956
   73TIP3   OH2  224   1.498   1.076   0.672
   73TIP3    H1  225   1.572   1.016   0.671
   73TIP3    H2  226   1.421   1.020   0.658
   74TIP3   OH2  227   2.028   4.869   4.367
   74TIP3    H1  228   2.118   4.834   4.362
   74TIP3    H2  229   2.039   4.962   4.384
   75TIP3   OH2  230   3.031   3.896   4.173
   75TIP3    H1  231   3.089   3.905   4.248
   75TIP3    H2  232   2.981   3.816   4.191
   76TIP3   OH2  233   3.131   3.764   1.067
   76TIP3    H1  234   3.207   3.740   1.014
   76TIP3    H2  235   3.113   3.687   1.120
   77TIP3   OH2  236   1.568   3.768   3.234
   77TIP3    H1  237   1.570   3.762   3.139
   77TIP3    H2  238   1.581   3.678   3.264
   78TIP3   OH2  239   4.394   2.029   3.140
   78TIP3    H1  240   4.436   2.005   3.222
   78TIP3    H2  241   4.454   1.998   3.072
   79TIP3   OH2  242   4.837   4.338   3.753
   79TIP3    H1  243   4.919   4.345   3.802
   79TIP3    H2  244   4.863   4.307   3.666
   80TIP3   OH2  245   1.168   1.831   1.416
   80TIP3    H1  246   1.238   1.775   1.449
   80TIP3    H2  247   1.103   1.771   1.381
   81TIP3   OH2  248   1.280   0.141   1.316
   81TIP3    H1  249   1.340   0.215   1.304
   81TIP3    H2  250   1.208   0.158   1.256
   82TIP3   OH2  251   4.073   0.839   2.709
   82TIP3    H1  252   4.001   0.894   2.679
   82TIP3    H2  253   4.035   0.751   2.714
   83TIP3   OH2  254   2.284   5.073   3.466
   83TIP3    H1  255   2.265   4.980   3.450
   83TIP3    H2  256   2.343   5.098   3.395
   84TIP3   OH2  257   2.296   0.746   1.759
   84TIP3    H1  258   2.347   0.818   1.797
   84TIP3    H2  259   2.244   0.712   1.832
   85TIP3   OH2  260   2.677   0.471   3.040
   85TIP3    H1  261   2.604   0.505   2.989
   85TIP3    H2  262   2.698   0.387   2.999
   86TIP3   OH2  263   0.889   4.738   0.036
   86TIP3    H1  264   0.974   4.773   0.063
   86TIP3    H2  265   0.826   4.805   0.062
   87TIP3   OH2  266   3.613   4.092   0.266
   87TIP3    H1  267   3.671   4.168   0.260
   87TIP3    H2  268   3.526   4.126   0.245
   88TIP3   OH2  269   0.603   2.031   2.390
   88TIP3    H1  270   0.653   1.965   2.342
   88TIP3    H2  271   0.669   2.086   2.430
   89TIP3   OH2  272   2.467   5.064   3.951
   89TIP3    H1  273   2.516   5.103   4.023
   89TIP3    H2  274   2.375   5.075   3.976
   90TIP3   OH2  275   4.878   5.247   1.035
   90TIP3    H1  276   4.864   5.160   0.997
   90TIP3    H2  277   4.888   5.305   0.959
   91TIP3   OH2  278   5.702   2.241   5.031
   91TIP3    H1  279   5.732   2.297   5.103
   91TIP3    H2  280   5.678   2.159   5.074
   92TIP3   OH2  281   4.567   5.332   0.704
   92TIP3    H1  282   4.624   5.259   0.680
   92TIP3    H2  283   4.554   5.323   0.798
   93TIP3   OH2  284   3.413   4.086   4.996
   93TIP3    H1  285   3.428   3.995   4.971
   93TIP3    H2  286   3.340   4.115   4.941
   94TIP3   OH2  287   6.146   5.673   2.769
   94TIP3    H1  288   6.184   5.660   2.682
   94TIP3    H2  289   6.180   5.758   2.798
   95TIP3   OH2  290   6.333   1.616   5.070
   95TIP3    H1  291   6.340   1.521   5.083
   95TIP3    H2  292   6.287   1.647   5.149
   96TIP3   OH2  293   3.243   3.096   4.844
   96TIP3    H1  294   3.287   3.162   4.898
   96TIP3    H2  295   3.281   3.013   4.872
   97TIP3   OH2  296   4.360   1.414   0.041
   97TIP3    H1  297   4.418   1.369   0.103
   97TIP3    H2  298   4.297   1.347   0.014
   98TIP3   OH2  299   2.569   5.244   1.368
   98TIP3    H1  300   2.479   5.212   1.373
   98TIP3    H2  301   2.598   5.220   1.280
   99TIP3   OH2  302   5.415   1.618   2.040
   99TIP3    H1  303   5.363   1.695   2.060
   99TIP3    H2  304   5.384   1.552   2.102
  100TIP3   OH2  305   3.526   4.886   1.340
  100TIP3    H1  306   3.516   4.972   1.380
  100TIP3    H2  307   3.447   4.838   1.363
  101TIP3   OH2  308   4.290   3.220   0.937
  101TIP3    H1  309   4.196   3.234   0.934
  101TIP3    H2  310   4.326   3.304   0.967
  102TIP3   OH2  311   3.488   3.876   5.206
  102TIP3    H1  312   3.450   3.944   5.260
  102TIP3    H2  313   3.448   3.888   5.120
  103TIP3   OH2  314   5.286   5.133   3.225
  103TIP3    H1  315   5.200   5.111   3.258
  103TIP3    H2  316   5.335   5.163   3.302
  104TIP3   OH2  317   5.797   1.528   1.262
  104TIP3    H1  318   5.809   1.532   1.167
  104TIP3    H2  319   5.750   1.609   1.283
  105TIP3   OH2  320   5.609   5.949   1.139
  105TIP3    H1  321   5.576   6.016   1.199
  105TIP3    H2  322   5.533   5.893   1.123
  106TIP3   OH2  323   1.530   3.915   0.499
  106TIP3    H1  324   1.593   3.858   0.456
  106TIP3    H2  325   1.494   3.862   0.570
  107TIP3   OH2  326   6.304   2.414  -0.010
  107TIP3    H1  327   6.333   2.404   0.081
  107TIP3    H2  328   6.212   2.441  -0.003
  108TIP3   OH2  329   4.956   2.806   3.845
  108TIP3    H1  330   4.981   2.862   3.771
  108TIP3    H2  331   5.028   2.814   3.907
  109TIP3   OH2  332   2.982   2.634   2.709
  109TIP3    H1  333   2.932   2.570   2.659
  109TIP3    H2  334   3.055   2.584   2.747
  110TIP3   OH2  335   1.202   2.319   4.900
  110TIP3    H1  336   1.118   2.366   4.895
  110TIP3    H2  337   1.189   2.241   4.847
  111TIP3   OH2  338   3.615   5.049   4.566
  111TIP3    H1  339   3.697   5.000   4.578
  111TIP3    H2  340   3.633   5.107   4.492
  112TIP3   OH2  341   4.296   1.615   3.595
  112TIP3    H1  342   4.210   1.634   3.631
  112TIP3    H2  343   4.283   1.539   3.538
  113TIP3   OH2  344   2.574   2.566   4.356
  113TIP3    H1  345   2.663   2.566   4.390
  113TIP3    H2  346   2.583   2.591   4.264
  114TIP3   OH2  347   1.097   1.080   2.042
  114TIP3    H1  348   1.111   0.988   2.063
  114TIP3    H2  349   1.065   1.079   1.951
  115TIP3   OH2  350   5.840   3.975   1.925
  115TIP3    H1  351   5.887   4.052   1.956
  115TIP3    H2  352   5.907   3.919   1.887
  116TIP3   OH2  353   4.646   5.759   4.456
  116TIP3    H1  354   4.605   5.839   4.422
  116TIP3    H2  355   4.595   5.688   4.417
  117TIP3   OH2  356   1.884   2.643   3.183
  117TIP3    H1  357   1.886   2.709   3.113
  117TIP3    H2  358   1.803   2.660   3.230
  118TIP3   OH2  359   4.794   4.647   0.580
  118TIP3    H1  360   4.870   4.589   0.571
  118TIP3    H2  361   4.728   4.609   0.522
  119TIP3   OH2  362   3.746   4.214   3.300
  119TIP3    H1  363   3.668   4.183   3.253
  119TIP3    H2  364   3.813   4.147   3.282
  120TIP3   OH2  365   4.270   2.717   1.911
  120TIP3    H1  366   4.267   2.765   1.829
  120TIP3    H2  367   4.339   2.651   1.898
  121TIP3   OH2  368   0.652   4.443   1.058
  121TIP3    H1  369   0.635   4.522   1.006
  121TIP3    H2  370   0.718   4.470   1.122
  122TIP3   OH2  371   0.176   1.781   4.052
  122TIP3    H1  372   0.252   1.838   4.040
  122TIP3    H2  373   0.197   1.728   4.129
  123TIP3   OH2  374   4.062   2.819   4.092
  123TIP3    H1  375   4.037   2.770   4.171
  123TIP3    H2  376   4.139   2.869   4.118
  124TIP3   OH2  377   2.664   5.217   2.551
  124TIP3    H1  378   2.659   5.246   2.642
  124TIP3    H2  379   2.589   5.159   2.541
  125TIP3   OH2  380   3.315   4.715   1.548
  125TIP3    H1  381   3.247   4.710   1.615
  125TIP3    H2  382   3.282   4.661   1.477
  126TIP3   OH2  383   0.851   3.457   0.832
  126TIP3    H1  384   0.937   3.414   0.839
  126TIP3    H2  385   0.836   3.466   0.738
  127TIP3   OH2  386   3.314   2.110   2.824
  127TIP3    H1  387   3.288   2.028   2.781
  127TIP3    H2  388   3.408   2.116   2.810
  128TIP3   OH2  389   0.792   1.329   1.873
  128TIP3    H1  390   0.775   1.347   1.966
  128TIP3    H2  391   0.774   1.235   1.863
  129TIP3   OH2  392   3.801   4.431   2.729
  129TIP3    H1  393   3.817   4.500   2.665
  129TIP3    H2  394   3.727   4.463   2.781
  130TIP3   OH2  395   3.012   4.676   2.415
  130TIP3    H1  396   2.989   4.586   2.391
  130TIP3    H2  397   3.041   4.670   2.506
  131TIP3   OH2  398   3.416   1.638   4.225
  131TIP3    H1  399   3.405   1.702   4.155
  131TIP3    H2  400   3.510   1.620   4.225
  132TIP3   OH2  401   5.823   0.034   4.685
  132TIP3    H1  402   5.904   0.044   4.734
  132TIP3    H2  403   5.786  -0.049   4.716
  133TIP3   OH2  404   4.125   2.673   0.292
  133TIP3    H1  405   4.063   2.607   0.263
  133TIP3    H2  406   4.091   2.756   0.257
  134TIP3   OH2  407   2.246   2.623   2.140
  134TIP3    H1  408   2.235   2.606   2.234
  134TIP3    H2  409   2.332   2.663   2.133
  135TIP3   OH2  410   6.053   5.356   3.357
  135TIP3    H1  411   6.017   5.404   3.282
  135TIP3    H2  412   6.108   5.288   3.318
  136TIP3   OH2  413   2.686   0.321   1.600
  136TIP3    H1  414   2.632   0.400   1.599
  136TIP3    H2  415   2.660   0.273   1.522
  137TIP3   OH2  416   0.557   4.794   5.119
  137TIP3    H1  417   0.516   4.867   5.165
  137TIP3    H2  418   0.534   4.807   5.027
  138TIP3   OH2  419   2.980   3.826   0.836
  138TIP3    H1  420   3.040   3.815   0.910
  138TIP3    H2  421   2.893   3.811   0.873
  139TIP3   OH2  422   3.183   5.051   3.912
  139TIP3    H1  423   3.234   4.971   3.919
  139TIP3    H2  424   3.221   5.098   3.837
  140TIP3   OH2  425   0.463   2.710   1.604
  140TIP3    H1  426   0.474   2.792   1.651
  140TIP3    H2  427   0.417   2.653   1.666
  141TIP3   OH2  428   1.021   5.667   0.291
  141TIP3    H1  429   1.098   5.612   0.305
  141TIP3    H2  430   1.045   5.752   0.329
  142TIP3   OH2  431   4.703   2.729   0.545
  142TIP3    H1  432   4.635   2.733   0.613
  142TIP3    H2  433   4.716   2.636   0.530
  143TIP3   OH2  434   3.635   3.763   1.450
  143TIP3    H1  435   3.650   3.747   1.357
  143TIP3    H2  436   3.607   3.855   1.455
  144TIP3   OH2  437   0.528   2.675   4.589
  144TIP3    H1  438   0.496   2.742   4.529
  144TIP3    H2  439   0.467   2.678   4.663
  145TIP3   OH2  440   5.520   0.006   3.872
  145TIP3    H1  441   5.545   0.098   3.873
  145TIP3    H2  442   5.441   0.003   3.817
  146TIP3   OH2  443   1.280   1.044   4.043
  146TIP3    H1  444   1.351   1.034   3.979
  146TIP3    H2  445   1.316   1.103   4.110
  147TIP3   OH2  446   2.705   2.229   3.316
  147TIP3    H1  447   2.743   2.311   3.349
  147TIP3    H2  448   2.736   2.162   3.377
  148TIP3   OH2  449   0.555   5.810   4.764
  148TIP3    H1  450   0.618   5.778   4.829
  148TIP3    H2  451   0.480   5.840   4.815
  149TIP3   OH2  452   4.845   4.525   2.323
  149TIP3    H1  453   4.790   4.523   2.402
  149TIP3    H2  454   4.859   4.432   2.301
  150TIP3   OH2  455   5.933   5.886   4.212
  150TIP3    H1  456   5.902   5.906   4.300
  150TIP3    H2  457   5.869   5.926   4.154
  151TIP3   OH2  458   5.289   2.477   4.134
  151TIP3    H1  459   5.217   2.496   4.195
  151TIP3    H2  460   5.273   2.536   4.060
  152TIP3   OH2  461   1.278   1.556   4.011
  152TIP3    H1  462   1.271   1.630   4.071
  152TIP3    H2  463   1.189   1.522   4.004
  153TIP3   OH2  464   0.428   5.454   2.480
  153TIP3    H1  465   0.437   5.527   2.541
  153TIP3    H2  466   0.506   5.458   2.425
  154TIP3   OH2  467   5.834   4.293   5.012
  154TIP3    H1  468   5.815   4.385   4.997
  154TIP3    H2  469   5.920   4.279   4.972
  155TIP3   OH2  470   4.588   3.955   0.820
  155TIP3    H1  471   4.679   3.963   0.791
  155TIP3    H2  472   4.594   3.918   0.908
  156TIP3   OH2  473   4.476   4.600   3.142
  156TIP3    H1  474   4.411   4.614   3.211
  156TIP3    H2  475   4.557   4.636   3.178
  157TIP3   OH2  476   1.988   2.914   2.967
  157TIP3    H1  477   2.024   2.965   2.895
  157TIP3    H2  478   2.041   2.834   2.969
  158TIP3   OH2  479   4.542   1.878   2.955
  158TIP3    H1  480   4.499   1.804   2.912
  158TIP3    H2  481   4.618   1.897   2.900
  159TIP3   OH2  482   0.101   4.809   4.710
  159TIP3    H1  483   0.047   4.787   4.785
  159TIP3    H2  484   0.091   4.736   4.650
  160TIP3   OH2  485   0.164   1.704   1.567
  160TIP3    H1  486   0.246   1.718   1.614
  160TIP3    H2  487   0.124   1.629   1.610
  161TIP3   OH2  488   2.706   4.588   3.612
  161TIP3    H1  489   2.775   4.522   3.613
  161TIP3    H2  490   2.648   4.561   3.541
  162TIP3   OH2  491   3.339   3.857   1.299
  162TIP3    H1  492   3.390   3.778   1.314
  162TIP3    H2  493   3.285   3.866   1.378
  163TIP3   OH2  494   5.487   0.827   4.382
  163TIP3    H1  495   5.528   0.804   4.299
  163TIP3    H2  496   5.555   0.815   4.448
  164TIP3   OH2  497   6.057   0.767   2.634
  164TIP3    H1  498   6.042   0.700   2.567
  164TIP3    H2  499   6.143   0.745   2.670
  165TIP3   OH2  500   5.512   4.915   0.552
  165TIP3    H1  501   5.426   4.955   0.541
  165TIP3    H2  502   5.494   4.822   0.569
  166TIP3   OH2  503   1.383   5.766   4.472
  166TIP3    H1  504   1.363   5.850   4.514
  166TIP3    H2  505   1.345   5.774   4.384
  167TIP3   OH2  506   5.600   4.670   1.966
  167TIP3    H1  507   5.652   4.635   2.039
  167TIP3    H2  508   5.510   4.663   1.996
  168TIP3   OH2  509   0.740   4.023   4.944
  168TIP3    H1  510   0.800   3.970   4.996
  168TIP3    H2  511   0.653   3.992   4.968
  169TIP3   OH2  512   0.640   0.387   4.927
  169TIP3    H1  513   0.646   0.456   4.992
  169TIP3    H2  514   0.647   0.432   4.843
  170TIP3   OH2  515   0.283   2.298   1.359
  170TIP3    H1  516   0.270   2.391   1.341
  170TIP3    H2  517   0.364   2.294   1.408
  171TIP3   OH2  518   3.129   3.855   1.471
  171TIP3    H1  519   3.071   3.923   1.505
  171TIP3    H2  520   3.071   3.791   1.430
  172TIP3   OH2  521   0.213   5.700   1.415
  172TIP3    H1  522   0.198   5.610   1.386
  172TIP3    H2  523   0.128   5.731   1.445
  173TIP3   OH2  524   5.826   4.484   0.158
  173TIP3    H1  525   5.827   4.559   0.217
  173TIP3    H2  526   5.756   4.502   0.096
  174TIP3   OH2  527   0.429   3.158   4.302
  174TIP3    H1  528   0.333   3.151   4.301
  174TIP3    H2  529   0.446   3.252   4.296
  175TIP3   OH2  530   5.326   4.406   1.461
  175TIP3    H1  531   5.370   4.491   1.457
  175TIP3    H2  532   5.310   4.383   1.369
  176TIP3   OH2  533   0.155   5.350   2.207
  176TIP3    H1  534   0.150   5.429   2.260
  176TIP3    H2  535   0.208   5.375   2.131
  177TIP3   OH2  536   5.105   4.269   1.576
  177TIP3    H1  537   5.194   4.298   1.556
  177TIP3    H2  538   5.050   4.314   1.512
  178TIP3   OH2  539   4.225   1.711   2.593
  178TIP3    H1  540   4.169   1.684   2.520
  178TIP3    H2  541   4.164   1.728   2.665
  179TIP3   OH2  542   5.221   5.138   3.929
  179TIP3    H1  543   5.188   5.227   3.936
  179TIP3    H2  544   5.252   5.131   3.838
  180TIP3   OH2  545   1.560   4.833   1.451
  180TIP3    H1  546   1.500   4.822   1.524
  180TIP3    H2  547   1.531   4.768   1.386
  181TIP3   OH2  548   6.257   3.644   0.832
  181TIP3    H1  549   6.176   3.628   0.784
  181TIP3    H2  550   6.233   3.629   0.924
  182TIP3   OH2  551   4.161   0.471   0.202
  182TIP3    H1  552   4.222   0.463   0.276
  182TIP3    H2  553   4.124   0.559   0.211
  183TIP3   OH2  554   0.103   2.933   0.843
  183TIP3    H1  555   0.072   2.858   0.791
  183TIP3    H2  556   0.025   2.962   0.890
  184TIP3   OH2  557   3.605   4.573   1.993
  184TIP3    H1  558   3.615   4.668   1.985
  184TIP3    H2  559   3.638   4.552   2.080
  185TIP3   OH2  560   5.106   0.575   4.924
  185TIP3    H1  561   5.043   0.565   4.853
  185TIP3    H2  562   5.093   0.498   4.979
  186TIP3   OH2  563   5.913   4.308   0.371
  186TIP3    H1  564   5.922   4.394   0.330
  186TIP3    H2  565   6.002   4.282   0.392
  187TIP3   OH2  566   1.270   2.150   3.598
  187TIP3    H1  567   1.313   2.235   3.610
  187TIP3    H2  568   1.307   2.116   3.516
  188TIP3   OH2  569   4.234   4.276   2.044
  188TIP3    H1  570   4.199   4.262   2.132
  188TIP3    H2  571   4.296   4.204   2.031
  189TIP3   OH2  572   4.635   1.341   3.583
  189TIP3    H1  573   4.575   1.300   3.645
  189TIP3    H2  574   4.607   1.432   3.579
  190TIP3   OH2  575   0.021   1.660   0.806
  190TIP3    H1  576   0.047   1.624   0.721
  190TIP3    H2  577   0.009   1.583   0.861
  191TIP3   OH2  578   5.163   1.227   3.883
  191TIP3    H1  579   5.252   1.230   3.918
  191TIP3    H2  580   5.120   1.158   3.932
  192TIP3   OH2  581   5.370   5.120   4.510
  192TIP3    H1  582   5.347   5.068   4.586
  192TIP3    H2  583   5.286   5.137   4.466
  193TIP3   OH2  584   1.204   0.327   4.437
  193TIP3    H1  585   1.137   0.329   4.369
  193TIP3    H2  586   1.169   0.383   4.506
  194TIP3   OH2  587   2.648   1.503   2.052
  194TIP3    H1  588   2.601   1.432   2.096
  194TIP3    H2  589   2.701   1.458   1.986
  195TIP3   OH2  590   3.989   3.437   2.353
  195TIP3    H1  591   3.965   3.528   2.334
  195TIP3    H2  592   4.064   3.420   2.296
  196TIP3   OH2  593   2.310   5.607   0.862
  196TIP3    H1  594   2.369   5.583   0.791
  196TIP3    H2  595   2.341   5.692   0.892
  197TIP3   OH2  596   4.371   2.157   1.751
  197TIP3    H1  597   4.277   2.172   1.750
  197TIP3    H2  598   4.408   2.229   1.699
  198TIP3   OH2  599   2.921   2.625   0.885
  198TIP3    H1  600   2.958   2.540   0.862
  198TIP3    H2  601   2.966   2.650   0.966
  199TIP3   OH2  602   5.801   4.827   4.244
  199TIP3    H1  603   5.879   4.783   4.211
  199TIP3    H2  604   5.824   4.920   4.246
  200TIP3   OH2  605   5.796   2.783   0.501
  200TIP3    H1  606   5.853   2.836   0.445
  200TIP3    H2  607   5.812   2.816   0.590
  201TIP3   OH2  608   4.502   3.439   1.548
  201TIP3    H1  609   4.571   3.504   1.552
  201TIP3    H2  610   4.421   3.490   1.538
  202TIP3   OH2  611   3.578   5.451   5.091
  202TIP3    H1  612   3.557   5.447   5.184
  202TIP3    H2  613   3.667   5.417   5.084
  203TIP3   OH2  614   4.343   5.159   1.126
  203TIP3    H1  615   4.333   5.151   1.221
  203TIP3    H2  616   4.323   5.072   1.092
  204TIP3   OH2  617   2.519   2.708   3.245
  204TIP3    H1  618   2.591   2.702   3.307
  204TIP3    H2  619   2.441   2.688   3.298
  205TIP3   OH2  620   0.465   2.726   2.054
  205TIP3    H1  621   0.424   2.772   1.980
  205TIP3    H2  622   0.428   2.638   2.051
  206TIP3   OH2  623   3.559   5.479   3.865
  206TIP3    H1  624   3.465   5.472   3.851
  206TIP3    H2  625   3.599   5.434   3.790
  207TIP3   OH2  626   4.565   5.545   5.094
  207TIP3    H1  627   4.483   5.569   5.051
  207TIP3    H2  628   4.538   5.492   5.169
  208TIP3   OH2  629   0.027   1.711   1.872
  208TIP3    H1  630  -0.026   1.633   1.854
  208TIP3    H2  631   0.117   1.679   1.870
  209TIP3   OH2  632   1.144   3.574   0.078
  209TIP3    H1  633   1.181   3.637   0.140
  209TIP3    H2  634   1.190   3.492   0.096
  210TIP3   OH2  635   0.742  -0.024   2.026
  210TIP3    H1  636   0.659   0.024   2.024
  210TIP3    H2  637   0.779  -0.004   2.111
  211TIP3   OH2  638   4.833   2.101   0.696
  211TIP3    H1  639   4.808   2.048   0.621
  211TIP3    H2  640   4.908   2.153   0.665
  212TIP3   OH2  641   5.886   2.355   2.646
  212TIP3    H1  642   5.980   2.360   2.661
  212TIP3    H2  643   5.848   2.333   2.731
  213TIP3   OH2  644   2.402   4.308   3.787
  213TIP3    H1  645   2.310   4.327   3.770
  213TIP3    H2  646   2.400   4.226   3.837
  214TIP3   OH2  647   1.627   2.495   4.302
  214TIP3    H1  648   1.694   2.563   4.288
  214TIP3    H2  649   1.651   2.425   4.240
  215TIP3   OH2  650   3.597   5.730   5.073
  215TIP3    H1  651   3.579   5.639   5.049
  215TIP3    H2  652   3.590   5.731   5.168
  216TIP3   OH2  653   3.150   0.417   4.215
  216TIP3    H1  654   3.174   0.373   4.133
  216TIP3    H2  655   3.195   0.501   4.212
  217TIP3   OH2  656   2.783   2.003   4.234
  217TIP3    H1  657   2.750   2.088   4.265
  217TIP3    H2  658   2.732   1.938   4.284
  218TIP3   OH2  659   4.918   0.876   3.596
  218TIP3    H1  660   4.956   0.956   3.561
  218TIP3    H2  661   4.992   0.816   3.605
  219TIP3   OH2  662   4.743   3.996   4.048
  219TIP3    H1  663   4.718   4.077   4.005
  219TIP3    H2  664   4.661   3.947   4.057
  220TIP3   OH2  665   1.278   4.495   1.873
  220TIP3    H1  666   1.285   4.462   1.783
  220TIP3    H2  667   1.329   4.433   1.925
  221TIP3   OH2  668   2.484   4.948   3.721
  221TIP3    H1  669   2.414   4.981   3.665
  221TIP3    H2  670   2.477   4.999   3.801
  222TIP3   OH2  671   2.951   1.318   0.777
  222TIP3    H1  672   3.020   1.352   0.834
  222TIP3    H2  673   2.889   1.276   0.836
  223TIP3   OH2  674   3.624   4.154   1.990
  223TIP3    H1  675   3.636   4.232   1.935
  223TIP3    H2  676   3.530   4.149   2.004
  224TIP3   OH2  677   3.623   1.197   3.868
  224TIP3    H1  678   3.629   1.108   3.833
  224TIP3    H2  679   3.714   1.220   3.889
  225TIP3   OH2  680   5.736   3.458   3.765
  225TIP3    H1  681   5.652   3.415   3.785
  225TIP3    H2  682   5.722   3.497   3.678
  226TIP3   OH2  683   1.600   5.397   2.907
  226TIP3    H1  684   1.683   5.399   2.860
  226TIP3    H2  685   1.597   5.311   2.949
  227TIP3   OH2  686   0.904   1.654   0.278
  227TIP3    H1  687   0.908   1.713   0.354
  227TIP3    H2  688   0.883   1.569   0.316
  228TIP3   OH2  689   3.364   0.375   5.139
  228TIP3    H1  690   3.413   0.374   5.221
  228TIP3    H2  691   3.430   0.387   5.071
  229TIP3   OH2  692   4.567   1.456   3.072
  229TIP3    H1  693   4.589   1.367   3.101
  229TIP3    H2  694   4.472   1.452   3.057
  230TIP3   OH2  695   4.394   5.253   4.204
  230TIP3    H1  696   4.347   5.196   4.265
  230TIP3    H2  697   4.395   5.339   4.247
  231TIP3   OH2  698   0.220   1.022   3.759
  231TIP3    H1  699   0.262   1.097   3.717
  231TIP3    H2  700   0.290   0.957   3.769
  232TIP3   OH2  701   5.149   1.347   2.859
  232TIP3    H1  702   5.207   1.419   2.881
  232TIP3    H2  703   5.061   1.382   2.873
  233TIP3   OH2  704   2.923   0.480   3.388
  233TIP3    H1  705   2.892   0.553   3.441
  233TIP3    H2  706   2.949   0.413   3.451
  234TIP3   OH2  707   5.793   1.703   1.807
  234TIP3    H1  708   5.883   1.736   1.810
  234TIP3    H2  709   5.801   1.610   1.826
  235TIP3   OH2  710   2.387   4.676   0.408
  235TIP3    H1  711   2.436   4.727   0.343
  235TIP3    H2  712   2.400   4.723   0.490
  236TIP3   OH2  713   5.300   4.324   4.024
  236TIP3    H1  714   5.204   4.327   4.020
  236TIP3    H2  715   5.325   4.259   3.959
  237TIP3   OH2  716   4.462   1.664   1.310
  237TIP3    H1  717   4.475   1.746   1.262
  237TIP3    H2  718   4.512   1.599   1.261
  238TIP3   OH2  719   5.538   3.092   4.820
  238TIP3    H1  720   5.511   3.184   4.817
  238TIP3    H2  721   5.457   3.043   4.811
  239TIP3   OH2  722   5.274   5.289   2.724
  239TIP3    H1  723   5.346   5.350   2.741
  239TIP3    H2  724   5.233   5.276   2.810
  240TIP3   OH2  725   4.401   0.556   4.566
  240TIP3    H1  726   4.470   0.495   4.592
  240TIP3    H2  727   4.447   0.631   4.530
  241TIP3   OH2  728   5.905   2.225   4.707
  241TIP3    H1  729   5.971   2.284   4.742
  241TIP3    H2  730   5.925   2.141   4.748
  242TIP3   OH2  731   5.622   5.455   3.982
  242TIP3    H1  732   5.710   5.433   3.954
  242TIP3    H2  733   5.611   5.411   4.066
  243TIP3   OH2  734   2.245   5.885   4.671
  243TIP3    H1  735   2.158   5.886   4.631
  243TIP3    H2  736   2.303   5.853   4.602
  244TIP3   OH2  737   4.814   5.874   3.691
  244TIP3    H1  738   4.837   5.961   3.723
  244TIP3    H2  739   4.725   5.882   3.657
  245TIP3   OH2  740   3.237   5.890   2.996
  245TIP3    H1  741   3.170   5.956   3.014
  245TIP3    H2  742   3.270   5.913   2.909
  246TIP3   OH2  743   3.388   0.382   2.943
  246TIP3    H1  744   3.298   0.352   2.949
  246TIP3    H2  745   3.389   0.445   2.871
  247TIP3   OH2  746   4.641   5.206   1.770
  247TIP3    H1  747   4.567   5.213   1.831
  247TIP3    H2  748   4.659   5.112   1.765
  248TIP3   OH2  749   5.999   2.555   0.389
  248TIP3    H1  750   5.976   2.591   0.303
  248TIP3    H2  751   5.926   2.496   0.410
  249TIP3   OH2  752   1.143   3.210   1.776
  249TIP3    H1  753   1.096   3.250   1.703
  249TIP3    H2  754   1.094   3.129   1.794
  250TIP3   OH2  755   1.685   3.355   2.517
  250TIP3    H1  756   1.637   3.285   2.472
  250TIP3    H2  757   1.670   3.338   2.610
  251TIP3   OH2  758   2.076   2.081   3.198
  251TIP3    H1  759   2.082   2.171   3.233
  251TIP3    H2  760   2.076   2.026   3.276
  252TIP3   OH2  761   1.979   3.664   3.516
  252TIP3    H1  762   1.953   3.678   3.424
  252TIP3    H2  763   1.915   3.714   3.566
  253TIP3   OH2  764   5.444   1.481   3.872
  253TIP3    H1  765   5.397   1.420   3.815
  253TIP3    H2  766   5.412   1.461   3.960
  254TIP3   OH2  767   0.287   1.782   2.642
  254TIP3    H1  768   0.333   1.780   2.726
  254TIP3    H2  769   0.340   1.728   2.584
  255TIP3   OH2  770   0.507   1.906   4.811
  255TIP3    H1  771   0.593   1.901   4.853
  255TIP3    H2  772   0.512   1.984   4.756
  256TIP3   OH2  773   3.742   3.790   5.137
  256TIP3    H1  774   3.657   3.833   5.149
  256TIP3    H2  775   3.729   3.703   5.173
  257TIP3   OH2  776   6.138   4.174   4.993
  257TIP3    H1  777   6.087   4.093   4.986
  257TIP3    H2  778   6.135   4.213   4.906
  258TIP3   OH2  779   5.526   0.435   4.622
  258TIP3    H1  780   5.495   0.482   4.699
  258TIP3    H2  781   5.580   0.364   4.656
  259TIP3   OH2  782   6.025   4.681   5.021
  259TIP3    H1  783   5.941   4.651   4.987
  259TIP3    H2  784   6.055   4.610   5.077
  260TIP3   OH2  785   0.548   4.004   2.389
  260TIP3    H1  786   0.523   3.930   2.334
  260TIP3    H2  787   0.561   4.077   2.327
  261TIP3   OH2  788   3.429   4.838   3.251
  261TIP3    H1  789   3.345   4.847   3.204
  261TIP3    H2  790   3.476   4.919   3.232
  262TIP3   OH2  791   4.005   4.162   2.598
  262TIP3    H1  792   4.032   4.190   2.511
  262TIP3    H2  793   4.077   4.188   2.655
  263TIP3   OH2  794   2.886   4.677   5.173
  263TIP3    H1  795   2.961   4.651   5.225
  263TIP3    H2  796   2.815   4.690   5.237
  264TIP3   OH2  797   0.754   5.504   4.704
  264TIP3    H1  798   0.775   5.496   4.611
  264TIP3    H2  799   0.661   5.524   4.706
  265TIP3   OH2  800   1.831   1.383   4.508
  265TIP3    H1  801   1.821   1.296   4.545
  265TIP3    H2  802   1.895   1.427   4.565
  266TIP3   OH2  803   4.339   3.431   3.067
  266TIP3    H1  804   4.324   3.354   3.121
  266TIP3    H2  805   4.429   3.421   3.035
  267TIP3   OH2  806   0.256   4.991   0.689
  267TIP3    H1  807   0.243   4.951   0.603
  267TIP3    H2  808   0.258   5.085   0.670
  268TIP3   OH2  809   1.523   4.999   3.822
  268TIP3    H1  810   1.448   4.971   3.769
  268TIP3    H2  811   1.599   4.962   3.777
  269TIP3   OH2  812   1.428   1.856   2.141
  269TIP3    H1  813   1.339   1.891   2.142
  269TIP3    H2  814   1.420   1.770   2.182
  270TIP3   OH2  815   3.738   0.051   2.803
  270TIP3    H1  816   3.717   0.051   2.896
  270TIP3    H2  817   3.831   0.075   2.799
  271TIP3   OH2  818   0.738   5.183   2.061
  271TIP3    H1  819   0.662   5.138   2.098
  271TIP3    H2  820   0.704   5.231   1.986
  272TIP3   OH2  821   1.559   0.124   0.256
  272TIP3    H1  822   1.567   0.218   0.268
  272TIP3    H2  823   1.538   0.091   0.343
  273TIP3   OH2  824   1.928   1.689   4.045
  273TIP3    H1  825   1.918   1.664   4.137
  273TIP3    H2  826   1.983   1.767   4.047
  274TIP3   OH2  827   0.867   4.344   1.309
  274TIP3    H1  828   0.841   4.259   1.344
  274TIP3    H2  829   0.915   4.386   1.381
  275TIP3   OH2  830   3.212   2.319   1.330
  275TIP3    H1  831   3.189   2.359   1.245
  275TIP3    H2  832   3.131   2.278   1.359
  276TIP3   OH2  833   5.382   5.744   1.360
  276TIP3    H1  834   5.422   5.658   1.365
  276TIP3    H2  835   5.311   5.741   1.424
  277TIP3   OH2  836   2.210   0.176   3.586
  277TIP3    H1  837   2.126   0.220   3.571
  277TIP3    H2  838   2.186   0.090   3.620
  278TIP3   OH2  839   6.077   3.536   2.892
  278TIP3    H1  840   6.108   3.504   2.977
  278TIP3    H2  841   5.991   3.496   2.881
  279TIP3   OH2  842   4.469   0.299   1.610
  279TIP3    H1  843   4.483   0.355   1.686
  279TIP3    H2  844   4.385   0.256   1.626
  280TIP3   OH2  845   2.283   2.382   2.419
  280TIP3    H1  846   2.214   2.316   2.419
  280TIP3    H2  847   2.365   2.332   2.424
  281TIP3   OH2  848   1.311   3.220   1.985
  281TIP3    H1  849   1.258   3.227   1.906
  281TIP3    H2  850   1.308   3.126   2.007
  282TIP3   OH2  851   6.321   0.063   2.195
  282TIP3    H1  852   6.303   0.101   2.109
  282TIP3    H2  853   6.393   0.002   2.180
  283TIP3   OH2  854   0.322   0.177   1.089
  283TIP3    H1  855   0.320   0.093   1.135
  283TIP3    H2  856   0.342   0.241   1.157
  284TIP3   OH2  857   5.565   5.380   4.269
  284TIP3    H1  858   5.498   5.408   4.331
  284TIP3    H2  859   5.572   5.286   4.281
  285TIP3   OH2  860   2.548   2.048   2.082
  285TIP3    H1  861   2.507   2.009   2.160
  285TIP3    H2  862   2.601   2.120   2.117
  286TIP3   OH2  863   0.352   3.602   0.538
  286TIP3    H1  864   0.399   3.593   0.455
  286TIP3    H2  865   0.278   3.660   0.519
  287TIP3   OH2  866   5.569   5.973   2.328
  287TIP3    H1  867   5.600   5.940   2.244
  287TIP3    H2  868   5.514   5.903   2.363
  288TIP3   OH2  869   1.903   5.098   2.779
  288TIP3    H1  870   1.920   5.064   2.691
  288TIP3    H2  871   1.943   5.034   2.837
  289TIP3   OH2  872   4.574   2.666   2.623
  289TIP3    H1  873   4.515   2.628   2.559
  289TIP3    H2  874   4.522   2.671   2.704
  290TIP3   OH2  875   4.336   5.177   3.465
  290TIP3    H1  876   4.360   5.151   3.554
  290TIP3    H2  877   4.405   5.238   3.438
  291TIP3   OH2  878   3.015   4.376   2.657
  291TIP3    H1  879   3.092   4.400   2.605
  291TIP3    H2  880   3.044   4.305   2.713
  292TIP3   OH2  881   5.142   3.096   3.048
  292TIP3    H1  882   5.087   3.026   3.012
  292TIP3    H2  883   5.114   3.174   3.001
  293TIP3   OH2  884   5.761   2.303   2.404
  293TIP3    H1  885   5.716   2.219   2.401
  293TIP3    H2  886   5.803   2.304   2.490
  294TIP3   OH2  887   0.067   1.627   0.513
  294TIP3    H1  888  -0.007   1.614   0.453
  294TIP3    H2  889   0.139   1.580   0.472
  295TIP3   OH2  890   4.394   1.941   4.457
  295TIP3    H1  891   4.385   2.024   4.503
  295TIP3    H2  892   4.371   1.960   4.366
  296TIP3   OH2  893   4.578   1.247   1.272
  296TIP3    H1  894   4.639   1.178   1.298
  296TIP3    H2  895   4.633   1.325   1.262
  297TIP3   OH2  896   4.524   5.877   3.157
  297TIP3    H1  897   4.486   5.961   3.183
  297TIP3    H2  898   4.499   5.867   3.065
  298TIP3   OH2  899   3.959   3.355   0.282
  298TIP3    H1  900   4.020   3.319   0.347
  298TIP3    H2  901   3.872   3.342   0.321
  299TIP3   OH2  902   3.004   1.005   2.480
  299TIP3    H1  903   2.973   1.055   2.404
  299TIP3    H2  904   2.951   0.926   2.480
  300TIP3   OH2  905   5.156   1.856   3.054
  300TIP3    H1  906   5.170   1.898   2.969
  300TIP3    H2  907   5.081   1.798   3.041
  301TIP3   OH2  908   3.066   0.138   2.814
  301TIP3    H1  909   3.057   0.152   2.909
  301TIP3    H2  910   3.157   0.113   2.802
  302TIP3   OH2  911   1.017   2.249   3.064
  302TIP3    H1  912   1.069   2.179   3.025
  302TIP3    H2  913   0.944   2.261   3.004
  303TIP3   OH2  914   3.472   2.971   3.180
  303TIP3    H1  915   3.482   3.021   3.261
  303TIP3    H2  916   3.378   2.964   3.167
  304TIP3   OH2  917   2.298   4.348   1.168
  304TIP3    H1  918   2.233   4.288   1.132
  304TIP3    H2  919   2.275   4.434   1.132
  305TIP3   OH2  920   5.645   1.015   3.257
  305TIP3    H1  921   5.651   0.941   3.317
  305TIP3    H2  922   5.676   0.981   3.173
  306TIP3   OH2  923   1.716   5.508   3.681
  306TIP3    H1  924   1.647   5.532   3.743
  306TIP3    H2  925   1.798   5.528   3.728
  307TIP3   OH2  926   4.459   0.490   0.920
  307TIP3    H1  927   4.494   0.544   0.991
  307TIP3    H2  928   4.448   0.551   0.847
  308TIP3   OH2  929   0.690   1.091   2.376
  308TIP3    H1  930   0.731   1.133   2.452
  308TIP3    H2  931   0.747   1.114   2.303
  309TIP3   OH2  932   1.109   4.260   4.353
  309TIP3    H1  933   1.168   4.335   4.350
  309TIP3    H2  934   1.157   4.190   4.309
  310TIP3   OH2  935   1.084   3.538   3.067
  310TIP3    H1  936   1.071   3.552   3.160
  310TIP3    H2  937   1.065   3.445   3.053
  311TIP3   OH2  938   2.727   1.065   3.784
  311TIP3    H1  939   2.695   1.108   3.863
  311TIP3    H2  940   2.821   1.057   3.796
  312TIP3   OH2  941   3.012   1.286   4.139
  312TIP3    H1  942   2.993   1.196   4.165
  312TIP3    H2  943   3.076   1.278   4.068
  313TIP3   OH2  944   3.840   4.865   4.928
  313TIP3    H1  945   3.807   4.874   4.838
  313TIP3    H2  946   3.800   4.784   4.959
  314TIP3   OH2  947   5.941   3.674   4.887
  314TIP3    H1  948   5.927   3.638   4.799
  314TIP3    H2  949   5.982   3.603   4.936
  315TIP3   OH2  950   1.692   2.284   4.091
  315TIP3    H1  951   1.773   2.234   4.083
  315TIP3    H2  952   1.624   2.224   4.059
  316TIP3   OH2  953   0.113   4.937   3.847
  316TIP3    H1  954   0.103   5.008   3.911
  316TIP3    H2  955   0.024   4.914   3.823
  317TIP3   OH2  956   1.965   3.997   2.870
  317TIP3    H1  957   2.020   3.954   2.936
  317TIP3    H2  958   2.001   4.085   2.864
  318TIP3   OH2  959   1.558   1.338   1.293
  318TIP3    H1  960   1.476   1.312   1.335
  318TIP3    H2  961   1.531   1.396   1.222
  319TIP3   OH2  962   2.387   1.471   3.741
  319TIP3    H1  963   2.305   1.492   3.787
  319TIP3    H2  964   2.363   1.403   3.679
  320TIP3   OH2  965   2.003   5.218   3.838
  320TIP3    H1  966   2.038   5.266   3.913
  320TIP3    H2  967   1.911   5.204   3.859
  321TIP3   OH2  968   4.772   5.356   4.604
  321TIP3    H1  969   4.803   5.446   4.593
  321TIP3    H2  970   4.852   5.304   4.610
  322TIP3   OH2  971   2.067   4.984   4.864
  322TIP3    H1  972   2.122   4.927   4.919
  322TIP3    H2  973   2.108   4.979   4.778
  323TIP3   OH2  974   1.684   5.298   2.036
  323TIP3    H1  975   1.628   5.360   2.082
  323TIP3    H2  976   1.637   5.215   2.040
  324TIP3   OH2  977   0.220   3.579   4.485
  324TIP3    H1  978   0.257   3.578   4.574
  324TIP3    H2  979   0.230   3.670   4.457
  325TIP3   OH2  980   1.989   2.338   4.484
  325TIP3    H1  981   2.010   2.430   4.494
  325TIP3    H2  982   2.073   2.293   4.494
  326TIP3   OH2  983   1.650   5.272   4.417
  326TIP3    H1  984   1.660   5.272   4.512
  326TIP3    H2  985   1.642   5.179   4.394
  327TIP3   OH2  986   4.953   5.017   3.963
  327TIP3    H1  987   5.025   5.078   3.974
  327TIP3    H2  988   4.902   5.053   3.891
  328TIP3   OH2  989   2.276   1.559   2.331
  328TIP3    H1  990   2.323   1.600   2.259
  328TIP3    H2  991   2.247   1.632   2.385
  329TIP3   OH2  992   0.850   1.789   2.495
  329TIP3    H1  993   0.878   1.835   2.416
  329TIP3    H2  994   0.768   1.747   2.471
  330TIP3   OH2  995   4.883   0.721   0.117
  330TIP3    H1  996   4.897   0.628   0.136
  330TIP3    H2  997   4.789   0.734   0.125
  331TIP3   OH2  998   2.069   5.006   0.468
  331TIP3    H1  999   2.100   5.057   0.394
  331TIP3    H2 1000   2.140   5.010   0.532
  332TIP3   OH2 1001   2.857   2.502   4.390
  332TIP3    H1 1002   2.886   2.505   4.299
  332TIP3    H2 1003   2.892   2.420   4.424
  333TIP3   OH2 1004   3.062   4.514   4.763
  333TIP3    H1 1005   2.971   4.515   4.794
  333TIP3    H2 1006   3.082   4.421   4.754
  334TIP3   OH2 1007   4.620   0.705   3.270
  334TIP3    H1 1008   4.628   0.767   3.342
  334TIP3    H2 1009   4.549   0.739   3.216
  335TIP3   OH2 1010   2.947   1.654   1.821
  335TIP3    H1 1011   2.897   1.609   1.753
  335TIP3    H2 1012   3.038   1.648   1.791
  336TIP3   OH2 1013   4.585   1.129   3.143
  336TIP3    H1 1014   4.643   1.116   3.218
  336TIP3    H2 1015   4.497   1.114   3.178
  337TIP3   OH2 1016   1.616   1.751   4.690
  337TIP3    H1 1017   1.621   1.710   4.604
  337TIP3    H2 1018   1.702   1.792   4.703
  338TIP3   OH2 1019   1.002   3.244   0.095
  338TIP3    H1 1020   1.027   3.212   0.182
  338TIP3    H2 1021   1.082   3.284   0.060
  339TIP3   OH2 1022   0.013   4.231   4.325
  339TIP3    H1 1023   0.020   4.230   4.421
  339TIP3    H2 1024   0.037   4.143   4.298
  340TIP3   OH2 1025   0.909   3.836   1.415
  340TIP3    H1 1026   0.923   3.785   1.495
  340TIP3    H2 1027   0.842   3.899   1.439
  341TIP3   OH2 1028   1.457   1.505   4.736
  341TIP3    H1 1029   1.510   1.584   4.723
  341TIP3    H2 1030   1.504   1.437   4.687
  342TIP3   OH2 1031   1.781   4.150   4.357
  342TIP3    H1 1032   1.874   4.170   4.370
  342TIP3    H2 1033   1.739   4.178   4.439
  343TIP3   OH2 1034   3.675   2.391   0.207
  343TIP3    H1 1035   3.682   2.308   0.256
  343TIP3    H2 1036   3.636   2.452   0.270
  344TIP3   OH2 1037   2.470   4.444   4.011
  344TIP3    H1 1038   2.563   4.419   4.020
  344TIP3    H2 1039   2.448   4.420   3.921
  345TIP3   OH2 1040   2.540   3.668   4.312
  345TIP3    H1 1041   2.526   3.583   4.270
  345TIP3    H2 1042   2.453   3.701   4.330
  346TIP3   OH2 1043   0.849   4.514   5.006
  346TIP3    H1 1044   0.846   4.592   4.950
  346TIP3    H2 1045   0.790   4.535   5.079
  347TIP3   OH2 1046   5.418   1.545   0.245
  347TIP3    H1 1047   5.453   1.628   0.213
  347TIP3    H2 1048   5.324   1.550   0.226
  348TIP3   OH2 1049   5.222   2.935   1.315
  348TIP3    H1 1050   5.231   3.020   1.358
  348TIP3    H2 1051   5.271   2.944   1.234
  349TIP3   OH2 1052   5.162   4.598   2.936
  349TIP3    H1 1053   5.209   4.618   2.855
  349TIP3    H2 1054   5.084   4.551   2.907
  350TIP3   OH2 1055   5.430   1.006   0.598
  350TIP3    H1 1056   5.409   0.988   0.507
  350TIP3    H2 1057   5.491   1.079   0.595
  351TIP3   OH2 1058   6.105   2.545   2.405
  351TIP3    H1 1059   6.011   2.559   2.394
  351TIP3    H2 1060   6.118   2.548   2.500
  352TIP3   OH2 1061   5.833   4.476   2.466
  352TIP3    H1 1062   5.788   4.486   2.550
  352TIP3    H2 1063   5.924   4.497   2.485
  353TIP3   OH2 1064   6.142   3.004   3.890
  353TIP3    H1 1065   6.213   3.054   3.929
  353TIP3    H2 1066   6.065   3.060   3.900
  354TIP3   OH2 1067   1.113   0.390   5.139
  354TIP3    H1 1068   1.108   0.420   5.230
  354TIP3    H2 1069   1.089   0.297   5.143
  355TIP3   OH2 1070   3.002   2.637   1.146
  355TIP3    H1 1071   2.922   2.601   1.184
  355TIP3    H2 1072   3.060   2.561   1.137
  356TIP3   OH2 1073   0.410   4.247   4.002
  356TIP3    H1 1074   0.317   4.228   3.990
  356TIP3    H2 1075   0.430   4.309   3.933
  357TIP3   OH2 1076   0.215   4.701   3.388
  357TIP3    H1 1077   0.124   4.679   3.410
  357TIP3    H2 1078   0.224   4.793   3.410
  358TIP3   OH2 1079   1.227   2.642   2.049
  358TIP3    H1 1080   1.287   2.574   2.080
  358TIP3    H2 1081   1.146   2.625   2.098
  359TIP3   OH2 1082   1.075   1.211   1.262
  359TIP3    H1 1083   1.044   1.123   1.283
  359TIP3    H2 1084   1.022   1.269   1.318
  360TIP3   OH2 1085   3.791   3.477   3.022
  360TIP3    H1 1086   3.799   3.570   3.045
  360TIP3    H2 1087   3.816   3.473   2.930
  361TIP3   OH2 1088   0.276   5.754   4.868
  361TIP3    H1 1089   0.323   5.786   4.945
  361TIP3    H2 1090   0.185   5.746   4.896
  362TIP3   OH2 1091   1.782   4.886   3.682
  362TIP3    H1 1092   1.875   4.905   3.689
  362TIP3    H2 1093   1.753   4.936   3.606
  363TIP3   OH2 1094   6.324   0.740   2.279
  363TIP3    H1 1095   6.298   0.831   2.280
  363TIP3    H2 1096   6.338   0.719   2.186
  364TIP3   OH2 1097   6.082   1.375   0.850
  364TIP3    H1 1098   6.024   1.300   0.866
  364TIP3    H2 1099   6.104   1.369   0.757
  365TIP3   OH2 1100   1.317   3.265   2.449
  365TIP3    H1 1101   1.347   3.294   2.362
  365TIP3    H2 1102   1.332   3.170   2.449
  366TIP3   OH2 1103   1.290   0.784   3.328
  366TIP3    H1 1104   1.270   0.850   3.394
  366TIP3    H2 1105   1.311   0.835   3.249
  367TIP3   OH2 1106   4.960   2.320   4.021
  367TIP3    H1 1107   4.969   2.382   4.093
  367TIP3    H2 1108   4.965   2.375   3.942
  368TIP3   OH2 1109   6.109   5.129   0.463
  368TIP3    H1 1110   6.181   5.094   0.410
  368TIP3    H2 1111   6.152   5.182   0.530
  369TIP3   OH2 1112   6.013   2.659   3.818
  369TIP3    H1 1113   5.937   2.606   3.842
  369TIP3    H2 1114   5.978   2.748   3.811
  370TIP3   OH2 1115   3.339   1.284   0.705
  370TIP3    H1 1116   3.389   1.272   0.786
  370TIP3    H2 1117   3.273   1.349   0.728
  371TIP3   OH2 1118   5.412   2.589   3.658
  371TIP3    H1 1119   5.432   2.567   3.749
  371TIP3    H2 1120   5.400   2.684   3.657
  372TIP3   OH2 1121   5.310   2.186   1.249
  372TIP3    H1 1122   5.297   2.134   1.170
  372TIP3    H2 1123   5.241   2.157   1.308
  373TIP3   OH2 1124   2.616   2.176   3.652
  373TIP3    H1 1125   2.532   2.155   3.611
  373TIP3    H2 1126   2.626   2.110   3.720
  374TIP3   OH2 1127   4.307   1.026   2.499
  374TIP3    H1 1128   4.223   0.980   2.503
  374TIP3    H2 1129   4.373   0.958   2.512
  375TIP3   OH2 1130   0.607   2.588   0.053
  375TIP3    H1 1131   0.543   2.516   0.057
  375TIP3    H2 1132   0.683   2.555   0.100
  376TIP3   OH2 1133   1.913   0.512   4.701
  376TIP3    H1 1134   1.848   0.567   4.659
  376TIP3    H2 1135   1.865   0.466   4.770
  377TIP3   OH2 1136   4.205   3.219   4.623
  377TIP3    H1 1137   4.136   3.194   4.684
  377TIP3    H2 1138   4.162   3.218   4.537
  378TIP3   OH2 1139   2.093   2.817   0.028
  378TIP3    H1 1140   2.120   2.893  -0.024
  378TIP3    H2 1141   2.160   2.810   0.096
  379TIP3   OH2 1142   1.320   3.765   0.217
  379TIP3    H1 1143   1.341   3.857   0.230
  379TIP3    H2 1144   1.302   3.731   0.304
  380TIP3   OH2 1145   4.283   5.585   0.807
  380TIP3    H1 1146   4.312   5.593   0.898
  380TIP3    H2 1147   4.215   5.518   0.810
  381TIP3   OH2 1148   5.369   5.633   3.628
  381TIP3    H1 1149   5.290   5.635   3.683
  381TIP3    H2 1150   5.416   5.554   3.657
  382TIP3   OH2 1151   5.718   3.080   0.236
  382TIP3    H1 1152   5.663   3.009   0.270
  382TIP3    H2 1153   5.658   3.155   0.229
  383TIP3   OH2 1154   4.301   4.939   2.283
  383TIP3    H1 1155   4.325   4.882   2.356
  383TIP3    H2 1156   4.325   5.027   2.312
  384TIP3   OH2 1157   5.989   4.102   1.321
  384TIP3    H1 1158   6.073   4.084   1.279
  384TIP3    H2 1159   5.924   4.069   1.258
  385TIP3   OH2 1160   0.872   1.516   2.856
  385TIP3    H1 1161   0.961   1.503   2.824
  385TIP3    H2 1162   0.833   1.429   2.855
  386TIP3   OH2 1163   2.940   4.226   4.756
  386TIP3    H1 1164   2.867   4.281   4.727
  386TIP3    H2 1165   2.935   4.148   4.701
  387TIP3   OH2 1166   1.779   2.440   3.894
  387TIP3    H1 1167   1.765   2.364   3.837
  387TIP3    H2 1168   1.740   2.415   3.977
  388TIP3   OH2 1169   1.371   1.248   3.729
  388TIP3    H1 1170   1.427   1.318   3.762
  388TIP3    H2 1171   1.283   1.285   3.732
  389TIP3   OH2 1172   4.558   1.692   3.609
  389TIP3    H1 1173   4.581   1.717   3.699
  389TIP3    H2 1174   4.470   1.654   3.617
  390TIP3   OH2 1175   3.653   2.383   4.591
  390TIP3    H1 1176   3.738   2.371   4.548
  390TIP3    H2 1177   3.589   2.356   4.525
  391TIP3   OH2 1178   5.960   1.582   0.612
  391TIP3    H1 1179   6.013   1.502   0.610
  391TIP3    H2 1180   5.895   1.569   0.543
  392TIP3   OH2 1181   2.678   0.546   1.776
  392TIP3    H1 1182   2.623   0.556   1.854
  392TIP3    H2 1183   2.630   0.592   1.707
  393TIP3   OH2 1184   6.291   5.580   3.241
  393TIP3    H1 1185   6.209   5.559   3.196
  393TIP3    H2 1186   6.352   5.605   3.171
  394TIP3   OH2 1187   5.216   0.769   5.089
  394TIP3    H1 1188   5.265   0.704   5.138
  394TIP3    H2 1189   5.170   0.719   5.021
  395TIP3   OH2 1190   1.648   4.845   2.261
  395TIP3    H1 1191   1.656   4.911   2.329
  395TIP3    H2 1192   1.707   4.774   2.289
  396TIP3   OH2 1193   2.839   3.266   2.348
  396TIP3    H1 1194   2.811   3.297   2.434
  396TIP3    H2 1195   2.926   3.304   2.336
  397TIP3   OH2 1196   6.203   2.391   0.484
  397TIP3    H1 1197   6.161   2.306   0.497
  397TIP3    H2 1198   6.134   2.447   0.451
  398TIP3   OH2 1199   5.285   5.216   0.891
  398TIP3    H1 1200   5.246   5.164   0.961
  398TIP3    H2 1201   5.284   5.157   0.815
  399TIP3   OH2 1202   2.670   5.077   3.546
  399TIP3    H1 1203   2.609   5.019   3.591
  399TIP3    H2 1204   2.724   5.018   3.492
  400TIP3   OH2 1205   6.036   2.733   2.687
  400TIP3    H1 1206   5.998   2.821   2.693
  400TIP3    H2 1207   5.999   2.686   2.761
  401TIP3   OH2 1208   5.240   5.317   0.007
  401TIP3    H1 1209   5.313   5.354   0.056
  401TIP3    H2 1210   5.163   5.362   0.042
  402TIP3   OH2 1211   5.323   4.830   1.138
  402TIP3    H1 1212   5.286   4.818   1.225
  402TIP3    H2 1213   5.288   4.915   1.109
  403TIP3   OH2 1214   6.059   4.415   0.609
  403TIP3    H1 1215   6.047   4.476   0.537
  403TIP3    H2 1216   5.974   4.374   0.621
  404TIP3   OH2 1217   5.719   2.410   1.440
  404TIP3    H1 1218   5.778   2.337   1.425
  404TIP3    H2 1219   5.702   2.408   1.534
  405TIP3   OH2 1220   4.298   4.137   0.569
  405TIP3    H1 1221   4.225   4.108   0.515
  405TIP3    H2 1222   4.375   4.128   0.511
  406TIP3   OH2 1223   1.398   0.201   3.482
  406TIP3    H1 1224   1.437   0.247   3.556
  406TIP3    H2 1225   1.439   0.240   3.405
  407TIP3   OH2 1226   1.280   2.419   2.201
  407TIP3    H1 1227   1.245   2.434   2.288
  407TIP3    H2 1228   1.259   2.327   2.181
  408TIP3   OH2 1229   0.930   3.033   1.161
  408TIP3    H1 1230   0.982   2.953   1.148
  408TIP3    H2 1231   0.974   3.099   1.107
  409TIP3   OH2 1232   2.441   0.281   3.172
  409TIP3    H1 1233   2.428   0.201   3.224
  409TIP3    H2 1234   2.464   0.250   3.085
  410TIP3   OH2 1235   3.590   1.584   5.109
  410TIP3    H1 1236   3.655   1.651   5.086
  410TIP3    H2 1237   3.563   1.546   5.026
  411TIP3   OH2 1238   0.192   2.759   3.915
  411TIP3    H1 1239   0.177   2.665   3.923
  411TIP3    H2 1240   0.217   2.787   4.003
  412TIP3   OH2 1241   6.159   2.356   2.652
  412TIP3    H1 1242   6.220   2.309   2.594
  412TIP3    H2 1243   6.172   2.316   2.738
  413TIP3   OH2 1244   4.933   4.345   2.952
  413TIP3    H1 1245   4.990   4.281   2.995
  413TIP3    H2 1246   4.854   4.347   3.006
  414TIP3   OH2 1247   2.748   4.859   1.356
  414TIP3    H1 1248   2.745   4.899   1.270
  414TIP3    H2 1249   2.746   4.932   1.417
  415TIP3   OH2 1250   4.908   4.951   2.324
  415TIP3    H1 1251   4.879   5.025   2.378
  415TIP3    H2 1252   4.834   4.891   2.323
  416TIP3   OH2 1253   5.209   5.571   2.490
  416TIP3    H1 1254   5.166   5.572   2.575
  416TIP3    H2 1255   5.296   5.608   2.506
  417TIP3   OH2 1256   2.535   5.738   0.274
  417TIP3    H1 1257   2.604   5.680   0.308
  417TIP3    H2 1258   2.581   5.819   0.251
  418TIP3   OH2 1259   4.220   3.183   1.554
  418TIP3    H1 1260   4.141   3.232   1.530
  418TIP3    H2 1261   4.269   3.175   1.473
  419TIP3   OH2 1262   3.933   3.900   4.653
  419TIP3    H1 1263   3.955   3.869   4.565
  419TIP3    H2 1264   3.845   3.866   4.670
  420TIP3   OH2 1265   6.202   1.250   4.346
  420TIP3    H1 1266   6.203   1.294   4.431
  420TIP3    H2 1267   6.222   1.319   4.282
  421TIP3   OH2 1268   1.713   2.352   2.886
  421TIP3    H1 1269   1.767   2.303   2.949
  421TIP3    H2 1270   1.743   2.321   2.800
  422TIP3   OH2 1271   1.439   1.294   0.132
  422TIP3    H1 1272   1.527   1.304   0.168
  422TIP3    H2 1273   1.385   1.269   0.208
  423TIP3   OH2 1274   0.862   0.871   0.559
  423TIP3    H1 1275   0.950   0.850   0.589
  423TIP3    H2 1276   0.806   0.807   0.602
  424TIP3   OH2 1277   2.859   1.590   2.854
  424TIP3    H1 1278   2.900   1.594   2.940
  424TIP3    H2 1279   2.880   1.674   2.813
  425TIP3   OH2 1280   5.564   1.045   2.119
  425TIP3    H1 1281   5.640   1.016   2.168
  425TIP3    H2 1282   5.502   0.972   2.124
  426TIP3   OH2 1283   0.155   4.843   0.928
  426TIP3    H1 1284   0.166   4.870   0.837
  426TIP3    H2 1285   0.198   4.757   0.933
  427TIP3   OH2 1286   0.721   4.321   3.512
  427TIP3    H1 1287   0.642   4.334   3.564
  427TIP3    H2 1288   0.783   4.384   3.547
  428TIP3   OH2 1289   1.426   0.313   1.750
  428TIP3    H1 1290   1.353   0.374   1.751
  428TIP3    H2 1291   1.501   0.365   1.720
  429TIP3   OH2 1292   1.074   0.625   3.835
  429TIP3    H1 1293   1.160   0.633   3.796
  429TIP3    H2 1294   1.038   0.544   3.799
  430TIP3   OH2 1295   4.080   5.378   1.325
  430TIP3    H1 1296   4.083   5.460   1.275
  430TIP3    H2 1297   4.171   5.365   1.355
  431TIP3   OH2 1298   4.388   1.658   0.134
  431TIP3    H1 1299   4.374   1.568   0.104
  431TIP3    H2 1300   4.360   1.713   0.060
  432TIP3   OH2 1301   3.181   5.621   1.030
  432TIP3    H1 1302   3.261   5.662   1.063
  432TIP3    H2 1303   3.114   5.689   1.039
  433TIP3   OH2 1304   5.017   1.944   2.848
  433TIP3    H1 1305   4.981   1.859   2.821
  433TIP3    H2 1306   4.967   2.008   2.797
  434TIP3   OH2 1307   4.365   5.899   1.087
  434TIP3    H1 1308   4.367   5.803   1.083
  434TIP3    H2 1309   4.343   5.926   0.998
  435TIP3   OH2 1310   3.405   0.258   2.202
  435TIP3    H1 1311   3.456   0.190   2.246
  435TIP3    H2 1312   3.369   0.310   2.273
  436TIP3   OH2 1313   4.364   2.094   1.052
  436TIP3    H1 1314   4.331   2.009   1.022
  436TIP3    H2 1315   4.451   2.100   1.014
  437TIP3   OH2 1316   3.373   0.031   0.586
  437TIP3    H1 1317   3.438   0.036   0.516
  437TIP3    H2 1318   3.388   0.109   0.639
  438TIP3   OH2 1319   0.682   0.146   4.568
  438TIP3    H1 1320   0.707   0.224   4.617
  438TIP3    H2 1321   0.752   0.083   4.585
  439TIP3   OH2 1322   2.291   3.789   1.857
  439TIP3    H1 1323   2.248   3.807   1.940
  439TIP3    H2 1324   2.352   3.718   1.877
  440TIP3   OH2 1325   3.463   4.691   0.105
  440TIP3    H1 1326   3.401   4.729   0.043
  440TIP3    H2 1327   3.417   4.695   0.189
  441TIP3   OH2 1328   1.053   1.214   2.949
  441TIP3    H1 1329   0.974   1.252   2.909
  441TIP3    H2 1330   1.019   1.151   3.013
  442TIP3   OH2 1331   2.294   0.960   0.788
  442TIP3    H1 1332   2.213   0.914   0.810
  442TIP3    H2 1333   2.363   0.909   0.830
  443TIP3   OH2 1334   4.054   5.248   3.385
  443TIP3    H1 1335   4.090   5.167   3.349
  443TIP3    H2 1336   3.966   5.224   3.413
  444TIP3   OH2 1337   3.049   1.999   4.361
  444TIP3    H1 1338   2.959   2.032   4.365
  444TIP3    H2 1339   3.059   1.968   4.271
  445TIP3   OH2 1340   5.874   1.662   4.245
  445TIP3    H1 1341   5.802   1.600   4.230
  445TIP3    H2 1342   5.871   1.679   4.339
  446TIP3   OH2 1343   4.419   2.334   1.965
  446TIP3    H1 1344   4.327   2.356   1.976
  446TIP3    H2 1345   4.422   2.279   1.887
  447TIP3   OH2 1346   1.655   4.242   3.570
  447TIP3    H1 1347   1.584   4.281   3.520
  447TIP3    H2 1348   1.726   4.306   3.566
  448TIP3   OH2 1349   2.274   3.451   3.789
  448TIP3    H1 1350   2.219   3.509   3.842
  448TIP3    H2 1351   2.214   3.414   3.725
  449TIP3   OH2 1352   1.887   5.410   3.056
  449TIP3    H1 1353   1.854   5.494   3.024
  449TIP3    H2 1354   1.956   5.386   2.994
  450TIP3   OH2 1355   1.536   5.577   3.225
  450TIP3    H1 1356   1.558   5.617   3.309
  450TIP3    H2 1357   1.569   5.487   3.232
  451TIP3   OH2 1358   5.489   0.017   0.916
  451TIP3    H1 1359   5.445   0.101   0.902
  451TIP3    H2 1360   5.430  -0.048   0.880
  452TIP3   OH2 1361   3.206   1.433   4.399
  452TIP3    H1 1362   3.263   1.491   4.449
  452TIP3    H2 1363   3.265   1.389   4.338
  453TIP3   OH2 1364   5.296   1.537   5.081
  453TIP3    H1 1365   5.260   1.567   5.165
  453TIP3    H2 1366   5.222   1.538   5.021
  454TIP3   OH2 1367   2.679   3.596   3.241
  454TIP3    H1 1368   2.678   3.616   3.334
  454TIP3    H2 1369   2.771   3.575   3.222
  455TIP3   OH2 1370   4.026   1.709   2.816
  455TIP3    H1 1371   3.959   1.716   2.749
  455TIP3    H2 1372   4.011   1.624   2.857
  456TIP3   OH2 1373   3.931   0.845   4.353
  456TIP3    H1 1374   4.020   0.880   4.358
  456TIP3    H2 1375   3.935   0.780   4.283
  457TIP3   OH2 1376   6.280   2.416   1.931
  457TIP3    H1 1377   6.280   2.320   1.930
  457TIP3    H2 1378   6.285   2.438   2.024
  458TIP3   OH2 1379   0.161   3.206   2.974
  458TIP3    H1 1380   0.097   3.240   2.912
  458TIP3    H2 1381   0.110   3.148   3.032
  459TIP3   OH2 1382   2.190   3.736   3.995
  459TIP3    H1 1383   2.153   3.657   4.034
  459TIP3    H2 1384   2.134   3.807   4.026
  460TIP3   OH2 1385   5.055   3.490   4.392
  460TIP3    H1 1386   4.979   3.432   4.402
  460TIP3    H2 1387   5.119   3.456   4.455
  461TIP3   OH2 1388   0.817   3.314   1.435
  461TIP3    H1 1389   0.874   3.295   1.360
  461TIP3    H2 1390   0.745   3.366   1.398
  462TIP3   OH2 1391   6.128   3.728   2.269
  462TIP3    H1 1392   6.081   3.735   2.353
  462TIP3    H2 1393   6.077   3.782   2.209
  463TIP3   OH2 1394   3.377   4.520   4.853
  463TIP3    H1 1395   3.408   4.434   4.881
  463TIP3    H2 1396   3.308   4.502   4.790
  464TIP3   OH2 1397   3.885   3.878   3.389
  464TIP3    H1 1398   3.908   3.823   3.464
  464TIP3    H2 1399   3.957   3.942   3.383
  465TIP3   OH2 1400   4.938   1.017   2.819
  465TIP3    H1 1401   5.003   1.002   2.750
  465TIP3    H2 1402   4.883   0.939   2.818
  466TIP3   OH2 1403   5.122   3.328   2.918
  466TIP3    H1 1404   5.121   3.387   2.993
  466TIP3    H2 1405   5.214   3.326   2.889
  467TIP3   OH2 1406   4.846   2.950   3.134
  467TIP3    H1 1407   4.758   2.921   3.110
  467TIP3    H2 1408   4.898   2.938   3.055
  468TIP3   OH2 1409   0.590   5.217   5.103
  468TIP3    H1 1410   0.583   5.224   5.008
  468TIP3    H2 1411   0.677   5.252   5.123
  469TIP3   OH2 1412   6.031   1.161   1.853
  469TIP3    H1 1413   5.971   1.205   1.793
  469TIP3    H2 1414   6.007   1.068   1.847
  470TIP3   OH2 1415   2.830   3.243   1.148
  470TIP3    H1 1416   2.879   3.161   1.140
  470TIP3    H2 1417   2.797   3.243   1.238
  471TIP3   OH2 1418   2.692   3.970   4.595
  471TIP3    H1 1419   2.768   4.025   4.610
  471TIP3    H2 1420   2.617   4.023   4.625
  472TIP3   OH2 1421   3.090   3.337   4.458
  472TIP3    H1 1422   3.075   3.431   4.448
  472TIP3    H2 1423   3.093   3.304   4.368
  473TIP3   OH2 1424   0.545   1.266   1.295
  473TIP3    H1 1425   0.582   1.240   1.211
  473TIP3    H2 1426   0.459   1.224   1.297
  474TIP3   OH2 1427   1.747   2.300   0.418
  474TIP3    H1 1428   1.790   2.312   0.333
  474TIP3    H2 1429   1.809   2.248   0.469
  475TIP3   OH2 1430   2.628   0.624   2.219
  475TIP3    H1 1431   2.557   0.676   2.256
  475TIP3    H2 1432   2.589   0.577   2.146
  476TIP3   OH2 1433   3.815   2.217   3.541
  476TIP3    H1 1434   3.823   2.200   3.635
  476TIP3    H2 1435   3.840   2.308   3.530
  477TIP3   OH2 1436   0.776   5.262   2.513
  477TIP3    H1 1437   0.705   5.209   2.549
  477TIP3    H2 1438   0.832   5.199   2.466
  478TIP3   OH2 1439   2.769   5.441   0.890
  478TIP3    H1 1440   2.729   5.519   0.851
  478TIP3    H2 1441   2.848   5.426   0.837
  479TIP3   OH2 1442   3.185   0.592   1.397
  479TIP3    H1 1443   3.264   0.573   1.448
  479TIP3    H2 1444   3.120   0.529   1.428
  480TIP3   OH2 1445   3.552   1.740   2.513
  480TIP3    H1 1446   3.470   1.790   2.520
  480TIP3    H2 1447   3.524   1.650   2.495
  481TIP3   OH2 1448   0.585   0.774   0.576
  481TIP3    H1 1449   0.549   0.862   0.588
  481TIP3    H2 1450   0.582   0.759   0.482
  482TIP3   OH2 1451   0.377   0.298   2.817
  482TIP3    H1 1452   0.407   0.216   2.778
  482TIP3    H2 1453   0.447   0.324   2.877
  483TIP3   OH2 1454   3.177   2.684   2.987
  483TIP3    H1 1455   3.158   2.636   3.068
  483TIP3    H2 1456   3.162   2.619   2.917
  484TIP3   OH2 1457   4.640   1.382   2.169
  484TIP3    H1 1458   4.562   1.340   2.135
  484TIP3    H2 1459   4.620   1.476   2.168
  485TIP3   OH2 1460   2.595   3.068   3.972
  485TIP3    H1 1461   2.627   3.068   3.882
  485TIP3    H2 1462   2.508   3.108   3.966
  486TIP3   OH2 1463   1.206   5.568   1.916
  486TIP3    H1 1464   1.153   5.629   1.968
  486TIP3    H2 1465   1.288   5.561   1.965
  487TIP3   OH2 1466   5.879   2.008   3.490
  487TIP3    H1 1467   5.826   1.930   3.477
  487TIP3    H2 1468   5.848   2.070   3.424
  488TIP3   OH2 1469   3.996   0.464   2.267
  488TIP3    H1 1470   3.953   0.467   2.181
  488TIP3    H2 1471   4.045   0.382   2.265
  489TIP3   OH2 1472   0.614   2.469   2.277
  489TIP3    H1 1473   0.533   2.488   2.325
  489TIP3    H2 1474   0.589   2.473   2.185
  490TIP3   OH2 1475   3.799   3.877   2.169
  490TIP3    H1 1476   3.775   3.947   2.229
  490TIP3    H2 1477   3.723   3.819   2.169
  491TIP3   OH2 1478   6.069   5.289   4.979
  491TIP3    H1 1479   6.109   5.237   5.048
  491TIP3    H2 1480   5.988   5.323   5.018
  492TIP3   OH2 1481   3.419   0.713   4.625
  492TIP3    H1 1482   3.356   0.664   4.573
  492TIP3    H2 1483   3.478   0.753   4.560
  493TIP3   OH2 1484   2.240   3.378   1.977
  493TIP3    H1 1485   2.223   3.327   2.056
  493TIP3    H2 1486   2.303   3.445   2.004
  494TIP3   OH2 1487   1.707   0.392   4.857
  494TIP3    H1 1488   1.629   0.446   4.851
  494TIP3    H2 1489   1.686   0.315   4.804
  495TIP3   OH2 1490   6.073   2.033   1.926
  495TIP3    H1 1491   6.167   2.018   1.934
  495TIP3    H2 1492   6.062   2.126   1.943
  496TIP3   OH2 1493   1.421   3.095   0.499
  496TIP3    H1 1494   1.343   3.042   0.483
  496TIP3    H2 1495   1.495   3.036   0.483
  497TIP3   OH2 1496   5.434   4.391   2.858
  497TIP3    H1 1497   5.434   4.295   2.866
  497TIP3    H2 1498   5.420   4.421   2.948
  498TIP3   OH2 1499   5.942   2.918   3.467
  498TIP3    H1 1500   6.007   2.852   3.439
  498TIP3    H2 1501   5.914   2.888   3.553
  499TIP3   OH2 1502   2.531   4.900   1.801
  499TIP3    H1 1503   2.569   4.967   1.858
  499TIP3    H2 1504   2.499   4.947   1.725
  500TIP3   OH2 1505   0.825   0.682   2.767
  500TIP3    H1 1506   0.862   0.648   2.686
  500TIP3    H2 1507   0.772   0.610   2.802
  501TIP3   OH2 1508   0.035   3.395   3.882
  501TIP3    H1 1509   0.118   3.442   3.895
  501TIP3    H2 1510  -0.025   3.437   3.944
  502TIP3   OH2 1511   4.609   5.721   2.275
  502TIP3    H1 1512   4.637   5.754   2.190
  502TIP3    H2 1513   4.538   5.660   2.255
  503TIP3   OH2 1514   0.783   5.552   2.698
  503TIP3    H1 1515   0.808   5.471   2.653
  503TIP3    H2 1516   0.839   5.619   2.659
  504TIP3   OH2 1517   4.199   3.144   0.170
  504TIP3    H1 1518   4.228   3.207   0.236
  504TIP3    H2 1519   4.255   3.162   0.095
  505TIP3   OH2 1520   3.206   0.572   4.499
  505TIP3    H1 1521   3.111   0.585   4.502
  505TIP3    H2 1522   3.217   0.478   4.481
  506TIP3   OH2 1523   1.104   3.611   4.257
  506TIP3    H1 1524   1.097   3.662   4.176
  506TIP3    H2 1525   1.076   3.671   4.326
  507TIP3   OH2 1526   3.746   5.279   3.728
  507TIP3    H1 1527   3.681   5.261   3.660
  507TIP3    H2 1528   3.767   5.194   3.765
  508TIP3   OH2 1529   1.759   4.402   0.579
  508TIP3    H1 1530   1.813   4.461   0.527
  508TIP3    H2 1531   1.669   4.432   0.565
  509TIP3   OH2 1532   1.806   5.903   1.350
  509TIP3    H1 1533   1.846   5.983   1.316
  509TIP3    H2 1534   1.853   5.884   1.431
  510TIP3   OH2 1535   3.022   5.832   1.116
  510TIP3    H1 1536   2.936   5.814   1.079
  510TIP3    H2 1537   3.049   5.914   1.076
  511TIP3   OH2 1538   4.280   3.023   0.729
  511TIP3    H1 1539   4.305   3.093   0.788
  511TIP3    H2 1540   4.184   3.018   0.736
  512TIP3   OH2 1541   5.967   2.872   0.290
  512TIP3    H1 1542   5.947   2.796   0.235
  512TIP3    H2 1543   5.966   2.946   0.229
  513TIP3   OH2 1544   2.941   1.971   4.964
  513TIP3    H1 1545   2.957   1.879   4.941
  513TIP3    H2 1546   3.025   2.002   4.997
  514TIP3   OH2 1547   0.826   1.941   0.217
  514TIP3    H1 1548   0.761   1.873   0.199
  514TIP3    H2 1549   0.819   2.001   0.143
  515TIP3   OH2 1550   2.447   4.527   0.815
  515TIP3    H1 1551   2.535   4.548   0.845
  515TIP3    H2 1552   2.391   4.592   0.858
  516TIP3   OH2 1553   4.272   5.617   1.082
  516TIP3    H1 1554   4.219   5.651   1.154
  516TIP3    H2 1555   4.239   5.529   1.067
  517TIP3   OH2 1556   4.754   1.504   5.085
  517TIP3    H1 1557   4.748   1.524   4.991
  517TIP3    H2 1558   4.770   1.410   5.088
  518TIP3   OH2 1559   1.633   2.276   1.049
  518TIP3    H1 1560   1.576   2.349   1.028
  518TIP3    H2 1561   1.602   2.244   1.134
  519TIP3   OH2 1562   0.603   0.575   0.046
  519TIP3    H1 1563   0.570   0.552  -0.042
  519TIP3    H2 1564   0.660   0.502   0.069
  520TIP3   OH2 1565   0.849   1.101   4.626
  520TIP3    H1 1566   0.798   1.026   4.656
  520TIP3    H2 1567   0.854   1.159   4.702
  521TIP3   OH2 1568   0.293   2.399   0.238
  521TIP3    H1 1569   0.296   2.495   0.238
  521TIP3    H2 1570   0.201   2.377   0.248
  522TIP3   OH2 1571   1.196   2.111   1.395
  522TIP3    H1 1572   1.172   2.019   1.397
  522TIP3    H2 1573   1.128   2.155   1.447
  523TIP3   OH2 1574   3.831   1.530   2.272
  523TIP3    H1 1575   3.747   1.486   2.265
  523TIP3    H2 1576   3.846   1.568   2.186
  524TIP3   OH2 1577   0.328   5.879   3.785
  524TIP3    H1 1578   0.289   5.920   3.862
  524TIP3    H2 1579   0.419   5.862   3.812
  525TIP3   OH2 1580   0.738   1.246   1.486
  525TIP3    H1 1581   0.708   1.160   1.516
  525TIP3    H2 1582   0.668   1.277   1.429
  526TIP3   OH2 1583   1.533   0.191   4.264
  526TIP3    H1 1584   1.464   0.125   4.274
  526TIP3    H2 1585   1.608   0.154   4.311
  527TIP3   OH2 1586   1.981   0.599   0.670
  527TIP3    H1 1587   1.932   0.680   0.658
  527TIP3    H2 1588   2.025   0.584   0.586
  528TIP3   OH2 1589   0.542   2.256   1.200
  528TIP3    H1 1590   0.501   2.343   1.196
  528TIP3    H2 1591   0.636   2.273   1.201
  529TIP3   OH2 1592   3.927   2.188   4.769
  529TIP3    H1 1593   3.972   2.104   4.769
  529TIP3    H2 1594   3.849   2.174   4.714
  530TIP3   OH2 1595   5.241   3.602   1.645
  530TIP3    H1 1596   5.316   3.609   1.585
  530TIP3    H2 1597   5.275   3.632   1.729
  531TIP3   OH2 1598   3.938   4.638   1.491
  531TIP3    H1 1599   3.882   4.675   1.559
  531TIP3    H2 1600   3.886   4.645   1.411
  532TIP3   OH2 1601   5.260   1.193   5.105
  532TIP3    H1 1602   5.299   1.119   5.151
  532TIP3    H2 1603   5.229   1.251   5.175
  533TIP3   OH2 1604   0.078   2.090   4.203
  533TIP3    H1 1605   0.064   2.181   4.176
  533TIP3    H2 1606   0.062   2.039   4.123
  534TIP3   OH2 1607   5.347   1.795   0.811
  534TIP3    H1 1608   5.367   1.720   0.866
  534TIP3    H2 1609   5.251   1.799   0.811
  535TIP3   OH2 1610   1.148   5.222   1.068
  535TIP3    H1 1611   1.216   5.194   1.129
  535TIP3    H2 1612   1.079   5.156   1.077
  536TIP3   OH2 1613   3.949   5.619   3.727
  536TIP3    H1 1614   3.981   5.531   3.711
  536TIP3    H2 1615   3.856   5.607   3.746
  537TIP3   OH2 1616   6.225   0.130   2.613
  537TIP3    H1 1617   6.315   0.107   2.637
  537TIP3    H2 1618   6.185   0.159   2.695
  538TIP3   OH2 1619   2.665   1.205   2.609
  538TIP3    H1 1620   2.578   1.190   2.573
  538TIP3    H2 1621   2.677   1.300   2.605
  539TIP3   OH2 1622   4.419   1.297   1.498
  539TIP3    H1 1623   4.409   1.389   1.523
  539TIP3    H2 1624   4.487   1.298   1.430
  540TIP3   OH2 1625   5.025   1.995   1.618
  540TIP3    H1 1626   4.946   1.943   1.602
  540TIP3    H2 1627   4.993   2.075   1.660
  541TIP3   OH2 1628   3.706   2.689   0.845
  541TIP3    H1 1629   3.666   2.616   0.799
  541TIP3    H2 1630   3.747   2.650   0.922
  542TIP3   OH2 1631   0.007   4.291   1.204
  542TIP3    H1 1632  -0.003   4.237   1.126
  542TIP3    H2 1633  -0.057   4.361   1.194
  543TIP3   OH2 1634   4.438   3.344   2.445
  543TIP3    H1 1635   4.430   3.261   2.399
  543TIP3    H2 1636   4.487   3.401   2.386
  544TIP3   OH2 1637   1.339   3.172   1.171
  544TIP3    H1 1638   1.351   3.158   1.265
  544TIP3    H2 1639   1.390   3.102   1.130
  545TIP3   OH2 1640   4.029   2.736   2.334
  545TIP3    H1 1641   4.015   2.735   2.240
  545TIP3    H2 1642   3.996   2.821   2.363
  546TIP3   OH2 1643   1.092   0.771   0.730
  546TIP3    H1 1644   1.082   0.837   0.798
  546TIP3    H2 1645   1.058   0.691   0.770
  547TIP3   OH2 1646   5.133   2.218   5.137
  547TIP3    H1 1647   5.207   2.237   5.080
  547TIP3    H2 1648   5.164   2.148   5.194
  548TIP3   OH2 1649   0.073   2.605   1.148
  548TIP3    H1 1650   0.073   2.541   1.220
  548TIP3    H2 1651   0.107   2.557   1.073
  549TIP3   OH2 1652   2.729   3.246   4.758
  549TIP3    H1 1653   2.775   3.297   4.824
  549TIP3    H2 1654   2.799   3.204   4.707
  550TIP3   OH2 1655   4.060   3.687   1.055
  550TIP3    H1 1656   4.056   3.780   1.033
  550TIP3    H2 1657   4.057   3.642   0.971
  551TIP3   OH2 1658   3.277   0.428   3.896
  551TIP3    H1 1659   3.216   0.453   3.828
  551TIP3    H2 1660   3.322   0.510   3.920
  552TIP3   OH2 1661   2.913   1.559   3.474
  552TIP3    H1 1662   2.852   1.486   3.465
  552TIP3    H2 1663   2.877   1.628   3.419
  553TIP3   OH2 1664   2.653   3.862   4.022
  553TIP3    H1 1665   2.565   3.886   4.052
  553TIP3    H2 1666   2.638   3.806   3.946
  554TIP3   OH2 1667   0.388   0.755   2.298
  554TIP3    H1 1668   0.482   0.743   2.313
  554TIP3    H2 1669   0.366   0.834   2.349
  555TIP3   OH2 1670   4.715   3.149   2.930
  555TIP3    H1 1671   4.773   3.183   2.862
  555TIP3    H2 1672   4.679   3.068   2.893
  556TIP3   OH2 1673   0.903   4.691   1.172
  556TIP3    H1 1674   0.867   4.666   1.258
  556TIP3    H2 1675   0.993   4.717   1.191
  557TIP3   OH2 1676   6.131   3.153   3.463
  557TIP3    H1 1677   6.049   3.107   3.445
  557TIP3    H2 1678   6.181   3.093   3.519
  558TIP3   OH2 1679   1.301   3.901   4.809
  558TIP3    H1 1680   1.266   3.990   4.802
  558TIP3    H2 1681   1.248   3.860   4.877
  559TIP3   OH2 1682   1.649   4.983   2.605
  559TIP3    H1 1683   1.691   5.056   2.561
  559TIP3    H2 1684   1.562   5.015   2.628
  560TIP3   OH2 1685   0.561   4.800   0.311
  560TIP3    H1 1686   0.535   4.719   0.266
  560TIP3    H2 1687   0.479   4.848   0.323
  561TIP3   OH2 1688   2.826   5.585   4.850
  561TIP3    H1 1689   2.916   5.563   4.824
  561TIP3    H2 1690   2.837   5.645   4.924
  562TIP3   OH2 1691   2.356   4.802   4.508
  562TIP3    H1 1692   2.387   4.723   4.551
  562TIP3    H2 1693   2.395   4.799   4.421
  563TIP3   OH2 1694   3.287   4.422   3.810
  563TIP3    H1 1695   3.355   4.429   3.743
  563TIP3    H2 1696   3.298   4.501   3.863
  564TIP3   OH2 1697   2.850   5.568   3.941
  564TIP3    H1 1698   2.825   5.555   3.850
  564TIP3    H2 1699   2.940   5.600   3.937
  565TIP3   OH2 1700   2.592   3.423   1.774
  565TIP3    H1 1701   2.524   3.365   1.740
  565TIP3    H2 1702   2.662   3.417   1.708
  566TIP3   OH2 1703   3.228   5.903   4.913
  566TIP3    H1 1704   3.180   5.948   4.983
  566TIP3    H2 1705   3.265   5.826   4.955
  567TIP3   OH2 1706   0.051   0.053   0.845
  567TIP3    H1 1707   0.108   0.016   0.778
  567TIP3    H2 1708  -0.035   0.059   0.802
  568TIP3   OH2 1709   6.279   3.022   1.071
  568TIP3    H1 1710   6.291   2.959   1.142
  568TIP3    H2 1711   6.194   3.000   1.033
  569TIP3   OH2 1712   6.009   5.194   1.746
  569TIP3    H1 1713   6.056   5.186   1.663
  569TIP3    H2 1714   5.957   5.273   1.736
  570TIP3   OH2 1715   5.939   1.305   2.377
  570TIP3    H1 1716   5.953   1.297   2.283
  570TIP3    H2 1717   5.871   1.241   2.397
  571TIP3   OH2 1718   0.297   3.519   1.278
  571TIP3    H1 1719   0.258   3.433   1.261
  571TIP3    H2 1720   0.391   3.503   1.279
  572TIP3   OH2 1721   1.047   0.145   1.850
  572TIP3    H1 1722   0.958   0.177   1.867
  572TIP3    H2 1723   1.101   0.224   1.848
  573TIP3   OH2 1724   0.241   4.663   1.960
  573TIP3    H1 1725   0.290   4.729   2.009
  573TIP3    H2 1726   0.150   4.678   1.983
  574TIP3   OH2 1727   4.872   3.371   3.219
  574TIP3    H1 1728   4.840   3.282   3.204
  574TIP3    H2 1729   4.816   3.405   3.289
  575TIP3   OH2 1730   1.772   0.798   0.306
  575TIP3    H1 1731   1.678   0.799   0.325
  575TIP3    H2 1732   1.786   0.719   0.254
  576TIP3   OH2 1733   0.449   5.334   1.348
  576TIP3    H1 1734   0.491   5.410   1.389
  576TIP3    H2 1735   0.466   5.345   1.255
  577TIP3   OH2 1736   1.294   1.316   1.440
  577TIP3    H1 1737   1.349   1.283   1.511
  577TIP3    H2 1738   1.219   1.256   1.438
  578TIP3   OH2 1739   4.454   0.318   0.317
  578TIP3    H1 1740   4.533   0.284   0.359
  578TIP3    H2 1741   4.399   0.350   0.388
  579TIP3   OH2 1742   1.406   5.630   2.117
  579TIP3    H1 1743   1.426   5.704   2.060
  579TIP3    H2 1744   1.364   5.669   2.194
  580TIP3   OH2 1745   4.364   2.717   4.450
  580TIP3    H1 1746   4.365   2.808   4.482
  580TIP3    H2 1747   4.430   2.716   4.381
  581TIP3   OH2 1748   6.097   0.918   5.134
  581TIP3    H1 1749   6.106   1.011   5.156
  581TIP3    H2 1750   6.007   0.909   5.102
  582TIP3   OH2 1751   2.210   1.882   0.139
  582TIP3    H1 1752   2.169   1.810   0.091
  582TIP3    H2 1753   2.254   1.840   0.212
  583TIP3   OH2 1754   3.954   2.049   3.793
  583TIP3    H1 1755   3.927   2.068   3.883
  583TIP3    H2 1756   4.028   1.988   3.802
  584TIP3   OH2 1757   1.354   3.450   1.141
  584TIP3    H1 1758   1.271   3.490   1.165
  584TIP3    H2 1759   1.340   3.356   1.151
  585TIP3   OH2 1760   5.942   5.609   2.569
  585TIP3    H1 1761   5.870   5.671   2.551
  585TIP3    H2 1762   5.987   5.646   2.645
  586TIP3   OH2 1763   1.011   0.388   3.727
  586TIP3    H1 1764   1.062   0.372   3.648
  586TIP3    H2 1765   0.926   0.349   3.709
  587TIP3   OH2 1766   1.607   3.241   5.023
  587TIP3    H1 1767   1.631   3.260   4.933
  587TIP3    H2 1768   1.680   3.189   5.057
  588TIP3   OH2 1769   2.042   2.492   0.063
  588TIP3    H1 1770   2.052   2.584   0.039
  588TIP3    H2 1771   2.118   2.449   0.025
  589TIP3   OH2 1772   5.876   1.597   3.611
  589TIP3    H1 1773   5.789   1.638   3.605
  589TIP3    H2 1774   5.887   1.579   3.704
  590TIP3   OH2 1775   0.862   5.562   0.473
  590TIP3    H1 1776   0.872   5.470   0.448
  590TIP3    H2 1777   0.883   5.611   0.393
  591TIP3   OH2 1778   3.203   0.574   3.644
  591TIP3    H1 1779   3.130   0.519   3.616
  591TIP3    H2 1780   3.178   0.662   3.616
  592TIP3   OH2 1781   0.967   4.836   4.001
  592TIP3    H1 1782   0.894   4.868   4.054
  592TIP3    H2 1783   1.026   4.912   3.993
  593TIP3   OH2 1784   3.548   3.689   0.475
  593TIP3    H1 1785   3.601   3.743   0.416
  593TIP3    H2 1786   3.606   3.617   0.500
  594TIP3   OH2 1787   3.090   3.220   2.089
  594TIP3    H1 1788   3.113   3.282   2.159
  594TIP3    H2 1789   3.019   3.264   2.041
  595TIP3   OH2 1790   3.266   5.733   4.099
  595TIP3    H1 1791   3.342   5.755   4.045
  595TIP3    H2 1792   3.203   5.803   4.080
  596TIP3   OH2 1793   6.102   4.766   1.360
  596TIP3    H1 1794   6.154   4.688   1.377
  596TIP3    H2 1795   6.052   4.745   1.281
  597TIP3   OH2 1796   2.926   5.457   4.541
  597TIP3    H1 1797   2.990   5.437   4.609
  597TIP3    H2 1798   2.978   5.500   4.472
  598TIP3   OH2 1799   5.082   3.885   3.196
  598TIP3    H1 1800   5.106   3.897   3.288
  598TIP3    H2 1801   4.989   3.860   3.199
  599TIP3   OH2 1802   5.729   1.428   3.822
  599TIP3    H1 1803   5.646   1.456   3.860
  599TIP3    H2 1804   5.796   1.475   3.872
  600TIP3   OH2 1805   4.509   5.512   1.896
  600TIP3    H1 1806   4.559   5.563   1.832
  600TIP3    H2 1807   4.568   5.504   1.971
  601TIP3   OH2 1808   4.769   2.654   0.983
  601TIP3    H1 1809   4.756   2.647   1.078
  601TIP3    H2 1810   4.706   2.721   0.956
  602TIP3   OH2 1811   0.609   1.879   1.536
  602TIP3    H1 1812   0.618   1.959   1.589
  602TIP3    H2 1813   0.695   1.838   1.539
  603TIP3   OH2 1814   2.881   2.507   3.916
  603TIP3    H1 1815   2.934   2.528   3.840
  603TIP3    H2 1816   2.807   2.456   3.881
  604TIP3   OH2 1817   0.222   4.322   2.736
  604TIP3    H1 1818   0.228   4.295   2.645
  604TIP3    H2 1819   0.217   4.240   2.785
  605TIP3   OH2 1820   5.919   3.166   4.823
  605TIP3    H1 1821   5.970   3.185   4.744
  605TIP3    H2 1822   5.919   3.070   4.829
  606TIP3   OH2 1823   1.774   5.515   2.697
  606TIP3    H1 1824   1.823   5.594   2.719
  606TIP3    H2 1825   1.792   5.500   2.604
  607TIP3   OH2 1826   3.853   1.269   3.498
  607TIP3    H1 1827   3.760   1.246   3.487
  607TIP3    H2 1828   3.901   1.194   3.464
  608TIP3   OH2 1829   4.092   3.559   1.626
  608TIP3    H1 1830   4.174   3.571   1.578
  608TIP3    H2 1831   4.073   3.465   1.619
  609TIP3   OH2 1832   5.202   0.267   4.858
  609TIP3    H1 1833   5.202   0.285   4.764
  609TIP3    H2 1834   5.294   0.254   4.880
  610TIP3   OH2 1835   0.816   5.307   3.561
  610TIP3    H1 1836   0.773   5.298   3.476
  610TIP3    H2 1837   0.848   5.397   3.563
  611TIP3   OH2 1838   2.861   0.296   2.443
  611TIP3    H1 1839   2.876   0.284   2.349
  611TIP3    H2 1840   2.769   0.324   2.449
  612TIP3   OH2 1841   2.853   4.611   1.273
  612TIP3    H1 1842   2.801   4.679   1.315
  612TIP3    H2 1843   2.866   4.545   1.341
  613TIP3   OH2 1844   5.719   1.834   2.864
  613TIP3    H1 1845   5.750   1.753   2.824
  613TIP3    H2 1846   5.785   1.899   2.840
  614TIP3   OH2 1847   0.697   0.871   3.879
  614TIP3    H1 1848   0.768   0.842   3.823
  614TIP3    H2 1849   0.644   0.793   3.894
  615TIP3   OH2 1850   4.581   4.197   2.317
  615TIP3    H1 1851   4.498   4.179   2.360
  615TIP3    H2 1852   4.558   4.244   2.237
  616TIP3   OH2 1853   3.317   5.193   2.735
  616TIP3    H1 1854   3.409   5.192   2.760
  616TIP3    H2 1855   3.279   5.265   2.784
  617TIP3   OH2 1856   3.934   1.005   3.391
  617TIP3    H1 1857   3.985   0.924   3.385
  617TIP3    H2 1858   3.854   0.987   3.341
  618TIP3   OH2 1859   5.551   4.032   3.629
  618TIP3    H1 1860   5.587   4.047   3.541
  618TIP3    H2 1861   5.607   3.964   3.666
  619TIP3   OH2 1862   4.657   4.539   3.757
  619TIP3    H1 1863   4.686   4.602   3.691
  619TIP3    H2 1864   4.726   4.472   3.757
  620TIP3   OH2 1865   5.109   1.723   2.414
  620TIP3    H1 1866   5.085   1.650   2.356
  620TIP3    H2 1867   5.204   1.727   2.408
  621TIP3   OH2 1868   1.730   4.780   0.206
  621TIP3    H1 1869   1.708   4.813   0.119
  621TIP3    H2 1870   1.646   4.774   0.251
  622TIP3   OH2 1871   0.099   4.889   4.283
  622TIP3    H1 1872   0.059   4.857   4.202
  622TIP3    H2 1873   0.193   4.888   4.266
  623TIP3   OH2 1874   5.487   0.261   1.377
  623TIP3    H1 1875   5.483   0.356   1.365
  623TIP3    H2 1876   5.581   0.241   1.376
  624TIP3   OH2 1877   2.300   3.063   4.692
  624TIP3    H1 1878   2.214   3.027   4.713
  624TIP3    H2 1879   2.311   3.047   4.598
  625TIP3   OH2 1880   3.586   2.718   3.770
  625TIP3    H1 1881   3.673   2.755   3.762
  625TIP3    H2 1882   3.537   2.781   3.822
  626TIP3   OH2 1883   0.982   1.909   2.990
  626TIP3    H1 1884   1.074   1.930   2.977
  626TIP3    H2 1885   0.971   1.906   3.086
  627TIP3   OH2 1886   6.060   2.441   4.773
  627TIP3    H1 1887   6.138   2.417   4.823
  627TIP3    H2 1888   6.093   2.458   4.684
  628TIP3   OH2 1889   6.350   3.945   0.943
  628TIP3    H1 1890   6.300   3.902   0.874
  628TIP3    H2 1891   6.376   3.874   1.002
  629TIP3   OH2 1892   2.288   3.272   0.307
  629TIP3    H1 1893   2.253   3.221   0.380
  629TIP3    H2 1894   2.224   3.258   0.236
  630TIP3   OH2 1895   0.240   3.090   0.076
  630TIP3    H1 1896   0.217   3.001   0.104
  630TIP3    H2 1897   0.226   3.143   0.154
  631TIP3   OH2 1898   0.422   1.893   4.026
  631TIP3    H1 1899   0.452   1.928   4.110
  631TIP3    H2 1900   0.493   1.835   3.997
  632TIP3   OH2 1901   5.584   1.355   2.347
  632TIP3    H1 1902   5.502   1.372   2.395
  632TIP3    H2 1903   5.572   1.268   2.311
  633TIP3   OH2 1904   4.177   3.938   0.995
  633TIP3    H1 1905   4.167   4.029   0.966
  633TIP3    H2 1906   4.141   3.936   1.083
  634TIP3   OH2 1907   1.020   1.925   1.639
  634TIP3    H1 1908   0.948   1.862   1.637
  634TIP3    H2 1909   1.080   1.896   1.571
  635TIP3   OH2 1910   3.770   2.880   0.133
  635TIP3    H1 1911   3.804   2.968   0.115
  635TIP3    H2 1912   3.831   2.822   0.087
  636TIP3   OH2 1913   3.286   4.680   4.474
  636TIP3    H1 1914   3.198   4.696   4.506
  636TIP3    H2 1915   3.341   4.743   4.522
  637TIP3   OH2 1916   0.929   4.301   3.115
  637TIP3    H1 1917   0.932   4.395   3.101
  637TIP3    H2 1918   0.980   4.265   3.042
  638TIP3   OH2 1919   3.433   2.594   1.144
  638TIP3    H1 1920   3.338   2.589   1.134
  638TIP3    H2 1921   3.456   2.681   1.110
  639TIP3   OH2 1922   3.629   0.392   2.736
  639TIP3    H1 1923   3.675   0.413   2.817
  639TIP3    H2 1924   3.557   0.455   2.732
  640TIP3   OH2 1925   1.050   2.838   0.980
  640TIP3    H1 1926   1.017   2.757   1.019
  640TIP3    H2 1927   1.145   2.833   0.992
  641TIP3   OH2 1928   3.136   5.626   3.025
  641TIP3    H1 1929   3.051   5.645   3.065
  641TIP3    H2 1930   3.170   5.711   2.997
  642TIP3   OH2 1931   6.073   5.510   1.439
  642TIP3    H1 1932   6.138   5.440   1.442
  642TIP3    H2 1933   6.115   5.581   1.391
  643TIP3   OH2 1934   1.720   4.020   1.816
  643TIP3    H1 1935   1.798   3.991   1.767
  643TIP3    H2 1936   1.663   3.943   1.817
  644TIP3   OH2 1937   0.512   5.355   1.068
  644TIP3    H1 1938   0.580   5.422   1.074
  644TIP3    H2 1939   0.480   5.362   0.978
  645TIP3   OH2 1940   5.258   1.840   0.067
  645TIP3    H1 1941   5.315   1.916   0.054
  645TIP3    H2 1942   5.193   1.846  -0.003
  646TIP3   OH2 1943   0.622   1.226   4.787
  646TIP3    H1 1944   0.572   1.167   4.843
  646TIP3    H2 1945   0.567   1.238   4.709
  647TIP3   OH2 1946   3.583   1.240   3.416
  647TIP3    H1 1947   3.531   1.252   3.496
  647TIP3    H2 1948   3.523   1.196   3.356
  648TIP3   OH2 1949   3.421   0.914   0.746
  648TIP3    H1 1950   3.459   0.941   0.830
  648TIP3    H2 1951   3.481   0.951   0.680
  649TIP3   OH2 1952   1.315   2.740   1.260
  649TIP3    H1 1953   1.297   2.755   1.167
  649TIP3    H2 1954   1.242   2.780   1.306
  650TIP3   OH2 1955   6.061   1.647   0.173
  650TIP3    H1 1956   5.993   1.584   0.148
  650TIP3    H2 1957   6.080   1.694   0.092
  651TIP3   OH2 1958   1.671   4.773   3.005
  651TIP3    H1 1959   1.707   4.790   2.918
  651TIP3    H2 1960   1.694   4.851   3.055
  652TIP3   OH2 1961   5.372   0.940   3.176
  652TIP3    H1 1962   5.366   1.002   3.249
  652TIP3    H2 1963   5.460   0.904   3.182
  653TIP3   OH2 1964   2.363   2.482   4.500
  653TIP3    H1 1965   2.432   2.533   4.457
  653TIP3    H2 1966   2.284   2.537   4.492
  654TIP3   OH2 1967   4.521   0.083   4.841
  654TIP3    H1 1968   4.453   0.107   4.904
  654TIP3    H2 1969   4.477   0.023   4.780
  655TIP3   OH2 1970   0.032   1.336   5.063
  655TIP3    H1 1971   0.044   1.250   5.024
  655TIP3    H2 1972  -0.009   1.319   5.148
  656TIP3   OH2 1973   5.423   2.183   0.803
  656TIP3    H1 1974   5.378   2.246   0.747
  656TIP3    H2 1975   5.357   2.157   0.868
  657TIP3   OH2 1976   2.687   2.157   1.253
  657TIP3    H1 1977   2.739   2.077   1.259
  657TIP3    H2 1978   2.605   2.136   1.298
  658TIP3   OH2 1979   1.224   5.350   1.785
  658TIP3    H1 1980   1.190   5.433   1.819
  658TIP3    H2 1981   1.257   5.303   1.861
  659TIP3   OH2 1982   4.790   1.904   1.543
  659TIP3    H1 1983   4.747   1.982   1.577
  659TIP3    H2 1984   4.724   1.835   1.552
  660TIP3   OH2 1985   3.244   3.701   1.674
  660TIP3    H1 1986   3.203   3.739   1.596
  660TIP3    H2 1987   3.326   3.664   1.643
  661TIP3   OH2 1988   3.263   4.813   1.228
  661TIP3    H1 1989   3.197   4.881   1.243
  661TIP3    H2 1990   3.221   4.732   1.257
  662TIP3   OH2 1991   3.863   0.116   3.528
  662TIP3    H1 1992   3.813   0.067   3.593
  662TIP3    H2 1993   3.806   0.119   3.451
  663TIP3   OH2 1994   2.015   4.243   2.012
  663TIP3    H1 1995   1.964   4.286   1.944
  663TIP3    H2 1996   1.972   4.159   2.026
  664TIP3   OH2 1997   2.193   1.699   0.379
  664TIP3    H1 1998   2.241   1.617   0.362
  664TIP3    H2 1999   2.104   1.670   0.397
  665TIP3   OH2 2000   4.953   0.268   0.311
  665TIP3    H1 2001   5.041   0.262   0.348
  665TIP3    H2 2002   4.955   0.344   0.254
  666TIP3   OH2 2003   5.260   2.506   3.072
  666TIP3    H1 2004   5.328   2.438   3.072
  666TIP3    H2 2005   5.304   2.584   3.040
  667TIP3   OH2 2006   5.507   5.690   2.369
  667TIP3    H1 2007   5.423   5.731   2.348
  667TIP3    H2 2008   5.518   5.623   2.301
  668TIP3   OH2 2009   1.131   2.798   4.286
  668TIP3    H1 2010   1.226   2.786   4.292
  668TIP3    H2 2011   1.112   2.790   4.193
  669TIP3   OH2 2012  -0.011   0.102   0.113
  669TIP3    H1 2013   0.061   0.075   0.171
  669TIP3    H2 2014  -0.086   0.051   0.144
  670TIP3   OH2 2015   2.074   4.958   1.698
  670TIP3    H1 2016   2.065   5.048   1.666
  670TIP3    H2 2017   2.096   4.907   1.620
  671TIP3   OH2 2018   1.988   1.178   5.088
  671TIP3    H1 2019   1.984   1.135   5.003
  671TIP3    H2 2020   2.073   1.150   5.124
  672TIP3   OH2 2021   0.729   0.144   5.040
  672TIP3    H1 2022   0.717   0.237   5.019
  672TIP3    H2 2023   0.669   0.099   4.980
  673TIP3   OH2 2024   1.414   0.039   0.044
  673TIP3    H1 2025   1.327   0.078   0.054
  673TIP3    H2 2026   1.463   0.072   0.119
  674TIP3   OH2 2027   2.873   1.513   1.593
  674TIP3    H1 2028   2.893   1.420   1.593
  674TIP3    H2 2029   2.794   1.521   1.539
  675TIP3   OH2 2030   0.100   4.876   5.085
  675TIP3    H1 2031   0.055   4.836   5.011
  675TIP3    H2 2032   0.173   4.924   5.046
  676TIP3   OH2 2033   4.351   1.391   3.424
  676TIP3    H1 2034   4.426   1.334   3.444
  676TIP3    H2 2035   4.278   1.331   3.412
  677TIP3   OH2 2036   1.016   4.050   4.525
  677TIP3    H1 2037   1.086   4.065   4.589
  677TIP3    H2 2038   1.033   4.113   4.455
  678TIP3   OH2 2039   5.548   3.779   4.232
  678TIP3    H1 2040   5.478   3.804   4.171
  678TIP3    H2 2041   5.550   3.849   4.297
  679TIP3   OH2 2042   3.187   4.537   0.232
  679TIP3    H1 2043   3.172   4.533   0.326
  679TIP3    H2 2044   3.099   4.534   0.194
  680TIP3   OH2 2045   5.241   2.599   2.385
  680TIP3    H1 2046   5.159   2.648   2.386
  680TIP3    H2 2047   5.217   2.512   2.417
  681TIP3   OH2 2048   6.250   1.490   0.304
  681TIP3    H1 2049   6.173   1.543   0.286
  681TIP3    H2 2050   6.224   1.431   0.375
  682TIP3   OH2 2051   2.343   5.857   0.988
  682TIP3    H1 2052   2.317   5.945   0.958
  682TIP3    H2 2053   2.425   5.872   1.035
  683TIP3   OH2 2054   3.518   0.796   4.883
  683TIP3    H1 2055   3.467   0.876   4.897
  683TIP3    H2 2056   3.475   0.754   4.808
  684TIP3   OH2 2057   0.199   3.907   2.397
  684TIP3    H1 2058   0.114   3.897   2.439
  684TIP3    H2 2059   0.232   3.817   2.388
  685TIP3   OH2 2060   4.546   3.313   3.800
  685TIP3    H1 2061   4.466   3.340   3.846
  685TIP3    H2 2062   4.568   3.388   3.745
  686TIP3   OH2 2063   3.678   3.330   0.382
  686TIP3    H1 2064   3.660   3.338   0.288
  686TIP3    H2 2065   3.602   3.285   0.417
  687TIP3   OH2 2066   5.827   4.246   0.653
  687TIP3    H1 2067   5.790   4.263   0.566
  687TIP3    H2 2068   5.758   4.199   0.699
  688TIP3   OH2 2069   5.891   0.616   0.249
  688TIP3    H1 2070   5.831   0.606   0.175
  688TIP3    H2 2071   5.969   0.656   0.212
  689TIP3   OH2 2072   1.849   2.039   0.813
  689TIP3    H1 2073   1.887   2.124   0.836
  689TIP3    H2 2074   1.925   1.980   0.805
  690TIP3   OH2 2075   5.053   5.072   0.711
  690TIP3    H1 2076   5.030   5.002   0.650
  690TIP3    H2 2077   5.114   5.031   0.773
  691TIP3   OH2 2078   3.401   0.928   1.209
  691TIP3    H1 2079   3.451   0.972   1.277
  691TIP3    H2 2080   3.453   0.940   1.129
  692TIP3   OH2 2081   1.046   4.729   0.689
  692TIP3    H1 2082   1.043   4.649   0.637
  692TIP3    H2 2083   0.971   4.721   0.749
  693TIP3   OH2 2084   1.404   4.167   0.846
  693TIP3    H1 2085   1.412   4.262   0.853
  693TIP3    H2 2086   1.476   4.132   0.899
  694TIP3   OH2 2087   1.154   3.202   2.792
  694TIP3    H1 2088   1.140   3.111   2.764
  694TIP3    H2 2089   1.096   3.213   2.868
  695TIP3   OH2 2090   4.489   5.948   0.240
  695TIP3    H1 2091   4.491   5.986   0.328
  695TIP3    H2 2092   4.463   5.857   0.255
  696TIP3   OH2 2093   0.517   2.845   0.345
  696TIP3    H1 2094   0.543   2.910   0.411
  696TIP3    H2 2095   0.492   2.768   0.396
  697TIP3   OH2 2096   0.702   3.669   2.487
  697TIP3    H1 2097   0.792   3.646   2.466
  697TIP3    H2 2098   0.652   3.588   2.478
  698TIP3   OH2 2099   2.048   4.086   3.495
  698TIP3    H1 2100   2.048   3.999   3.537
  698TIP3    H2 2101   2.119   4.082   3.432
  699TIP3   OH2 2102   2.961   3.555   2.455
  699TIP3    H1 2103   2.887   3.526   2.508
  699TIP3    H2 2104   2.927   3.628   2.404
  700TIP3   OH2 2105   1.561   3.425   3.990
  700TIP3    H1 2106   1.559   3.503   4.046
  700TIP3    H2 2107   1.486   3.373   4.019
  701TIP3   OH2 2108   0.217   3.093   5.061
  701TIP3    H1 2109   0.254   3.158   5.002
  701TIP3    H2 2110   0.162   3.143   5.121
  702TIP3   OH2 2111   1.278   2.710   1.787
  702TIP3    H1 2112   1.254   2.679   1.874
  702TIP3    H2 2113   1.360   2.664   1.768
  703TIP3   OH2 2114   4.961   2.624   3.033
  703TIP3    H1 2115   5.005   2.702   3.066
  703TIP3    H2 2116   5.002   2.551   3.079
  704TIP3   OH2 2117   4.665   4.886   4.106
  704TIP3    H1 2118   4.632   4.969   4.072
  704TIP3    H2 2119   4.660   4.826   4.031
  705TIP3   OH2 2120   4.081   5.000   3.974
  705TIP3    H1 2121   4.143   5.071   3.956
  705TIP3    H2 2122   4.100   4.974   4.064
  706TIP3   OH2 2123   0.102   1.316   3.372
  706TIP3    H1 2124   0.011   1.344   3.362
  706TIP3    H2 2125   0.102   1.223   3.347
  707TIP3   OH2 2126   3.960   1.177   1.148
  707TIP3    H1 2127   4.025   1.247   1.155
  707TIP3    H2 2128   3.969   1.127   1.229
  708TIP3   OH2 2129   0.828   5.042   0.772
  708TIP3    H1 2130   0.804   4.997   0.853
  708TIP3    H2 2131   0.921   5.024   0.761
  709TIP3   OH2 2132   2.990   2.548   0.604
  709TIP3    H1 2133   3.009   2.632   0.646
  709TIP3    H2 2134   3.020   2.483   0.666
  710TIP3   OH2 2135   1.460   2.611   0.612
  710TIP3    H1 2136   1.458   2.544   0.544
  710TIP3    H2 2137   1.462   2.562   0.694
  711TIP3   OH2 2138   5.856   1.414   2.667
  711TIP3    H1 2139   5.798   1.490   2.675
  711TIP3    H2 2140   5.855   1.394   2.573
  712TIP3   OH2 2141   4.535   4.533   0.819
  712TIP3    H1 2142   4.486   4.585   0.755
  712TIP3    H2 2143   4.470   4.473   0.856
  713TIP3   OH2 2144   6.107   5.295   3.830
  713TIP3    H1 2145   6.012   5.297   3.825
  713TIP3    H2 2146   6.130   5.365   3.890
  714TIP3   OH2 2147   4.408   5.892   1.995
  714TIP3    H1 2148   4.445   5.817   2.042
  714TIP3    H2 2149   4.476   5.959   1.998
  715TIP3   OH2 2150   1.575   3.480   0.432
  715TIP3    H1 2151   1.594   3.432   0.513
  715TIP3    H2 2152   1.564   3.412   0.366
  716TIP3   OH2 2153   2.039   4.423   0.737
  716TIP3    H1 2154   1.992   4.360   0.792
  716TIP3    H2 2155   1.999   4.507   0.758
  717TIP3   OH2 2156   0.621   5.271   4.847
  717TIP3    H1 2157   0.576   5.210   4.788
  717TIP3    H2 2158   0.651   5.341   4.789
  718TIP3   OH2 2159   3.608   4.445   2.976
  718TIP3    H1 2160   3.634   4.421   3.064
  718TIP3    H2 2161   3.547   4.518   2.988
  719TIP3   OH2 2162   1.675   3.249   4.735
  719TIP3    H1 2163   1.674   3.160   4.700
  719TIP3    H2 2164   1.764   3.260   4.769
  720TIP3   OH2 2165   1.069   1.679   2.594
  720TIP3    H1 2166   0.990   1.727   2.568
  720TIP3    H2 2167   1.039   1.589   2.608
  721TIP3   OH2 2168   3.449   2.228   1.420
  721TIP3    H1 2169   3.450   2.133   1.432
  721TIP3    H2 2170   3.366   2.245   1.375
  722TIP3   OH2 2171   5.519   3.753   3.082
  722TIP3    H1 2172   5.569   3.722   3.158
  722TIP3    H2 2173   5.549   3.698   3.010
  723TIP3   OH2 2174   0.141   4.544   3.158
  723TIP3    H1 2175   0.187   4.602   3.219
  723TIP3    H2 2176   0.210   4.493   3.116
  724TIP3   OH2 2177   2.836   1.351   0.061
  724TIP3    H1 2178   2.745   1.379   0.048
  724TIP3    H2 2179   2.850   1.356   0.155
  725TIP3   OH2 2180   3.199   4.230   0.418
  725TIP3    H1 2181   3.181   4.160   0.481
  725TIP3    H2 2182   3.112   4.266   0.398
  726TIP3   OH2 2183   3.217   5.290   3.284
  726TIP3    H1 2184   3.237   5.371   3.330
  726TIP3    H2 2185   3.272   5.224   3.326
  727TIP3   OH2 2186   1.596   3.034   3.637
  727TIP3    H1 2187   1.575   3.107   3.694
  727TIP3    H2 2188   1.668   3.065   3.582
  728TIP3   OH2 2189   4.959   0.719   2.959
  728TIP3    H1 2190   4.934   0.631   2.987
  728TIP3    H2 2191   4.950   0.772   3.037
  729TIP3   OH2 2192   1.952   2.041   1.585
  729TIP3    H1 2193   2.029   2.091   1.558
  729TIP3    H2 2194   1.896   2.038   1.507
  730TIP3   OH2 2195   2.677   0.096   1.788
  730TIP3    H1 2196   2.756   0.042   1.784
  730TIP3    H2 2197   2.704   0.181   1.755
  731TIP3   OH2 2198   0.884   2.139   1.434
  731TIP3    H1 2199   0.886   2.209   1.369
  731TIP3    H2 2200   0.859   2.060   1.384
  732TIP3   OH2 2201   5.096   2.034   1.980
  732TIP3    H1 2202   5.096   1.993   2.067
  732TIP3    H2 2203   5.170   1.995   1.935
  733TIP3   OH2 2204   5.640   5.226   1.833
  733TIP3    H1 2205   5.594   5.280   1.768
  733TIP3    H2 2206   5.637   5.138   1.795
  734TIP3   OH2 2207   1.252   1.740   4.216
  734TIP3    H1 2208   1.168   1.786   4.227
  734TIP3    H2 2209   1.280   1.721   4.306
  735TIP3   OH2 2210   4.901   2.835   4.533
  735TIP3    H1 2211   4.896   2.842   4.628
  735TIP3    H2 2212   4.853   2.755   4.512
  736TIP3   OH2 2213   6.121   0.805   3.735
  736TIP3    H1 2214   6.217   0.807   3.744
  736TIP3    H2 2215   6.094   0.894   3.756
  737TIP3   OH2 2216   4.792   5.805   3.154
  737TIP3    H1 2217   4.804   5.858   3.076
  737TIP3    H2 2218   4.708   5.832   3.190
  738TIP3   OH2 2219   3.779   3.856   0.321
  738TIP3    H1 2220   3.745   3.944   0.335
  738TIP3    H2 2221   3.829   3.862   0.240
  739TIP3   OH2 2222  -0.026   2.729   0.699
  739TIP3    H1 2223  -0.048   2.640   0.725
  739TIP3    H2 2224   0.001   2.721   0.607
  740TIP3   OH2 2225   2.729   4.306   4.070
  740TIP3    H1 2226   2.758   4.215   4.075
  740TIP3    H2 2227   2.743   4.330   3.978
  741TIP3   OH2 2228   2.377   4.392   2.735
  741TIP3    H1 2229   2.299   4.355   2.694
  741TIP3    H2 2230   2.427   4.315   2.764
  742TIP3   OH2 2231   4.005   1.810   4.483
  742TIP3    H1 2232   4.082   1.854   4.516
  742TIP3    H2 2233   4.031   1.718   4.475
  743TIP3   OH2 2234   6.045   1.043   1.128
  743TIP3    H1 2235   6.067   0.952   1.147
  743TIP3    H2 2236   5.954   1.052   1.157
  744TIP3   OH2 2237   3.289   5.250   1.801
  744TIP3    H1 2238   3.252   5.312   1.738
  744TIP3    H2 2239   3.380   5.278   1.811
  745TIP3   OH2 2240   4.904   5.815   1.543
  745TIP3    H1 2241   4.935   5.867   1.617
  745TIP3    H2 2242   4.978   5.758   1.521
  746TIP3   OH2 2243   1.295   0.212   0.895
  746TIP3    H1 2244   1.202   0.202   0.875
  746TIP3    H2 2245   1.297   0.230   0.989
  747TIP3   OH2 2246   0.118   0.220   2.414
  747TIP3    H1 2247   0.030   0.243   2.383
  747TIP3    H2 2248   0.157   0.304   2.438
  748TIP3   OH2 2249   1.953   2.455   2.365
  748TIP3    H1 2250   2.016   2.424   2.300
  748TIP3    H2 2251   1.879   2.489   2.314
  749TIP3   OH2 2252   3.506   2.701   4.961
  749TIP3    H1 2253   3.416   2.731   4.972
  749TIP3    H2 2254   3.507   2.615   5.002
  750TIP3   OH2 2255   2.135   5.589   3.570
  750TIP3    H1 2256   2.171   5.502   3.552
  750TIP3    H2 2257   2.052   5.571   3.614
  751TIP3   OH2 2258   5.658   3.220   4.176
  751TIP3    H1 2259   5.624   3.288   4.235
  751TIP3    H2 2260   5.622   3.139   4.212
  752TIP3   OH2 2261   0.117   4.070   3.818
  752TIP3    H1 2262   0.068   4.075   3.736
  752TIP3    H2 2263   0.086   3.989   3.859
  753TIP3   OH2 2264   3.478   3.587   1.572
  753TIP3    H1 2265   3.504   3.500   1.543
  753TIP3    H2 2266   3.537   3.646   1.524
  754TIP3   OH2 2267   4.696   5.211   4.313
  754TIP3    H1 2268   4.650   5.130   4.336
  754TIP3    H2 2269   4.730   5.244   4.396
  755TIP3   OH2 2270   0.869   2.354   0.773
  755TIP3    H1 2271   0.822   2.436   0.753
  755TIP3    H2 2272   0.807   2.302   0.823
  756TIP3   OH2 2273   2.059   4.395   3.198
  756TIP3    H1 2274   1.994   4.464   3.185
  756TIP3    H2 2275   2.129   4.416   3.136
  757TIP3   OH2 2276   1.154   5.471   2.314
  757TIP3    H1 2277   1.097   5.404   2.275
  757TIP3    H2 2278   1.108   5.554   2.296
  758TIP3   OH2 2279   2.612   4.879   0.513
  758TIP3    H1 2280   2.611   4.850   0.604
  758TIP3    H2 2281   2.656   4.964   0.515
  759TIP3   OH2 2282   5.466   5.821   0.317
  759TIP3    H1 2283   5.392   5.784   0.268
  759TIP3    H2 2284   5.488   5.753   0.382
  760TIP3   OH2 2285   2.166   3.842   4.818
  760TIP3    H1 2286   2.249   3.804   4.848
  760TIP3    H2 2287   2.156   3.922   4.870
  761TIP3   OH2 2288   0.502   2.780   3.559
  761TIP3    H1 2289   0.419   2.741   3.587
  761TIP3    H2 2290   0.513   2.751   3.469
  762TIP3   OH2 2291   0.144   1.785   4.842
  762TIP3    H1 2292   0.134   1.691   4.857
  762TIP3    H2 2293   0.099   1.801   4.759
  763TIP3   OH2 2294   0.452   5.040   4.164
  763TIP3    H1 2295   0.410   5.056   4.249
  763TIP3    H2 2296   0.461   5.128   4.126
  764TIP3   OH2 2297   2.002   4.274   0.092
  764TIP3    H1 2298   2.018   4.309   0.180
  764TIP3    H2 2299   1.907   4.278   0.082
  765TIP3   OH2 2300   5.118   0.670   3.638
  765TIP3    H1 2301   5.174   0.678   3.715
  765TIP3    H2 2302   5.094   0.578   3.634
  766TIP3   OH2 2303   3.825   2.750   3.104
  766TIP3    H1 2304   3.807   2.835   3.144
  766TIP3    H2 2305   3.740   2.723   3.068
  767TIP3   OH2 2306   3.731   1.944   5.150
  767TIP3    H1 2307   3.744   2.030   5.109
  767TIP3    H2 2308   3.754   1.882   5.081
  768TIP3   OH2 2309   3.492   5.040   3.613
  768TIP3    H1 2310   3.475   5.118   3.560
  768TIP3    H2 2311   3.406   5.002   3.627
  769TIP3   OH2 2312   2.170   3.787   2.570
  769TIP3    H1 2313   2.259   3.799   2.605
  769TIP3    H2 2314   2.177   3.710   2.513
  770TIP3   OH2 2315   1.538   2.318   2.090
  770TIP3    H1 2316   1.596   2.242   2.096
  770TIP3    H2 2317   1.451   2.282   2.104
  771TIP3   OH2 2318   0.655   2.500   4.813
  771TIP3    H1 2319   0.602   2.509   4.892
  771TIP3    H2 2320   0.705   2.582   4.808
  772TIP3   OH2 2321   3.870   1.408   3.728
  772TIP3    H1 2322   3.875   1.349   3.653
  772TIP3    H2 2323   3.873   1.350   3.805
  773TIP3   OH2 2324   1.737   4.289   1.675
  773TIP3    H1 2325   1.710   4.199   1.655
  773TIP3    H2 2326   1.695   4.309   1.758
  774TIP3   OH2 2327   2.882   3.107   4.000
  774TIP3    H1 2328   2.793   3.076   3.985
  774TIP3    H2 2329   2.881   3.198   3.970
  775TIP3   OH2 2330   0.254   2.168   0.477
  775TIP3    H1 2331   0.196   2.093   0.461
  775TIP3    H2 2332   0.278   2.198   0.389
  776TIP3   OH2 2333   2.977   0.298   0.576
  776TIP3    H1 2334   2.943   0.346   0.651
  776TIP3    H2 2335   3.062   0.338   0.558
  777TIP3   OH2 2336   5.628   1.405   1.960
  777TIP3    H1 2337   5.583   1.472   2.012
  777TIP3    H2 2338   5.718   1.408   1.991
  778TIP3   OH2 2339   4.488   4.360   2.107
  778TIP3    H1 2340   4.400   4.375   2.072
  778TIP3    H2 2341   4.533   4.312   2.038
  779TIP3   OH2 2342   2.999   0.704   1.213
  779TIP3    H1 2343   3.069   0.750   1.166
  779TIP3    H2 2344   3.043   0.632   1.257
  780TIP3   OH2 2345   5.091   3.346   1.540
  780TIP3    H1 2346   5.064   3.308   1.623
  780TIP3    H2 2347   5.162   3.406   1.562
  781TIP3   OH2 2348   1.824   3.093   3.493
  781TIP3    H1 2349   1.860   3.098   3.581
  781TIP3    H2 2350   1.809   3.185   3.467
  782TIP3   OH2 2351   2.448   2.059   1.344
  782TIP3    H1 2352   2.380   2.005   1.384
  782TIP3    H2 2353   2.435   2.048   1.250
  783TIP3   OH2 2354   3.445   3.247   3.971
  783TIP3    H1 2355   3.404   3.310   3.911
  783TIP3    H2 2356   3.534   3.280   3.983
  784TIP3   OH2 2357   1.360   3.340   2.699
  784TIP3    H1 2358   1.354   3.322   2.605
  784TIP3    H2 2359   1.294   3.282   2.739
  785TIP3   OH2 2360   0.947   0.832   4.056
  785TIP3    H1 2361   1.016   0.852   4.119
  785TIP3    H2 2362   0.948   0.907   3.996
  786TIP3   OH2 2363   6.178   5.976  -0.014
  786TIP3    H1 2364   6.137   5.999   0.070
  786TIP3    H2 2365   6.114   6.001  -0.080
  787TIP3   OH2 2366   5.200   0.493   1.757
  787TIP3    H1 2367   5.199   0.415   1.701
  787TIP3    H2 2368   5.147   0.468   1.833
  788TIP3   OH2 2369   3.760   1.308   0.514
  788TIP3    H1 2370   3.849   1.275   0.497
  788TIP3    H2 2371   3.710   1.279   0.438
  789TIP3   OH2 2372   4.402   0.804   3.128
  789TIP3    H1 2373   4.330   0.854   3.090
  789TIP3    H2 2374   4.408   0.725   3.075
  790TIP3   OH2 2375   5.784   1.760   3.361
  790TIP3    H1 2376   5.776   1.724   3.273
  790TIP3    H2 2377   5.874   1.739   3.388
  791TIP3   OH2 2378   1.358   2.952   1.993
  791TIP3    H1 2379   1.300   2.877   1.987
  791TIP3    H2 2380   1.433   2.929   1.937
  792TIP3   OH2 2381   3.277   0.699   0.408
  792TIP3    H1 2382   3.189   0.727   0.386
  792TIP3    H2 2383   3.313   0.668   0.325
  793TIP3   OH2 2384   2.941   3.670   0.060
  793TIP3    H1 2385   2.974   3.685  -0.029
  793TIP3    H2 2386   2.979   3.587   0.086
  794TIP3   OH2 2387   2.602   5.010   5.091
  794TIP3    H1 2388   2.595   4.992   5.185
  794TIP3    H2 2389   2.574   5.101   5.081
  795TIP3   OH2 2390   4.761   4.641   4.000
  795TIP3    H1 2391   4.735   4.628   3.909
  795TIP3    H2 2392   4.682   4.625   4.051
  796TIP3   OH2 2393   1.239   5.634   3.210
  796TIP3    H1 2394   1.326   5.625   3.250
  796TIP3    H2 2395   1.220   5.546   3.176
  797TIP3   OH2 2396   5.120   3.975   3.770
  797TIP3    H1 2397   5.115   4.004   3.861
  797TIP3    H2 2398   5.128   4.056   3.719
  798TIP3   OH2 2399   5.537   4.670   4.930
  798TIP3    H1 2400   5.499   4.743   4.881
  798TIP3    H2 2401   5.462   4.624   4.966
  799TIP3   OH2 2402   2.356   5.841   0.466
  799TIP3    H1 2403   2.418   5.802   0.405
  799TIP3    H2 2404   2.335   5.770   0.527
  800TIP3   OH2 2405   4.939   1.130   0.672
  800TIP3    H1 2406   5.015   1.073   0.682
  800TIP3    H2 2407   4.866   1.070   0.652
  801TIP3   OH2 2408   1.719   2.534   2.216
  801TIP3    H1 2409   1.663   2.606   2.246
  801TIP3    H2 2410   1.665   2.486   2.154
  802TIP3   OH2 2411   5.566   3.326   1.345
  802TIP3    H1 2412   5.527   3.385   1.281
  802TIP3    H2 2413   5.578   3.244   1.298
  803TIP3   OH2 2414   6.266   4.786   4.921
  803TIP3    H1 2415   6.211   4.831   4.858
  803TIP3    H2 2416   6.206   4.731   4.972
  804TIP3   OH2 2417   3.830   0.686   0.483
  804TIP3    H1 2418   3.895   0.718   0.420
  804TIP3    H2 2419   3.756   0.746   0.474
  805TIP3   OH2 2420   0.737   5.876   1.724
  805TIP3    H1 2421   0.782   5.890   1.807
  805TIP3    H2 2422   0.761   5.953   1.671
  806TIP3   OH2 2423   0.921   1.153   0.948
  806TIP3    H1 2424   0.922   1.247   0.930
  806TIP3    H2 2425   0.897   1.113   0.864
  807TIP3   OH2 2426   3.264   0.638   4.147
  807TIP3    H1 2427   3.265   0.703   4.076
  807TIP3    H2 2428   3.351   0.643   4.185
  808TIP3   OH2 2429   5.811   2.707   2.903
  808TIP3    H1 2430   5.852   2.715   2.989
  808TIP3    H2 2431   5.734   2.764   2.907
  809TIP3   OH2 2432   4.075   4.159   3.278
  809TIP3    H1 2433   4.154   4.115   3.247
  809TIP3    H2 2434   4.094   4.179   3.370
  810TIP3   OH2 2435   6.218   1.238   3.931
  810TIP3    H1 2436   6.260   1.310   3.884
  810TIP3    H2 2437   6.144   1.278   3.976
  811TIP3   OH2 2438   3.088   5.786   1.838
  811TIP3    H1 2439   3.018   5.724   1.857
  811TIP3    H2 2440   3.153   5.735   1.789
  812TIP3   OH2 2441   4.979   2.201   1.783
  812TIP3    H1 2442   5.028   2.154   1.851
  812TIP3    H2 2443   5.009   2.291   1.790
  813TIP3   OH2 2444   5.272   5.728   3.334
  813TIP3    H1 2445   5.294   5.667   3.404
  813TIP3    H2 2446   5.356   5.761   3.303
  814TIP3   OH2 2447   0.480   3.411   4.489
  814TIP3    H1 2448   0.437   3.365   4.560
  814TIP3    H2 2449   0.455   3.503   4.501
  815TIP3   OH2 2450   0.375   3.042   2.097
  815TIP3    H1 2451   0.298   3.049   2.154
  815TIP3    H2 2452   0.444   3.006   2.153
  816TIP3   OH2 2453   6.102   1.226   4.907
  816TIP3    H1 2454   6.195   1.238   4.889
  816TIP3    H2 2455   6.058   1.254   4.827
  817TIP3   OH2 2456   0.994   6.025   4.620
  817TIP3    H1 2457   0.903   6.021   4.649
  817TIP3    H2 2458   1.037   5.953   4.666
  818TIP3   OH2 2459   4.005   5.185   0.197
  818TIP3    H1 2460   3.975   5.164   0.285
  818TIP3    H2 2461   3.946   5.137   0.139
  819TIP3   OH2 2462   5.020   1.533   2.227
  819TIP3    H1 2463   4.947   1.481   2.262
  819TIP3    H2 2464   4.977   1.610   2.189
  820TIP3   OH2 2465   6.272   2.250   2.896
  820TIP3    H1 2466   6.335   2.322   2.898
  820TIP3    H2 2467   6.318   2.177   2.937
  821TIP3   OH2 2468   2.044   0.460   4.015
  821TIP3    H1 2469   2.015   0.493   4.100
  821TIP3    H2 2470   2.051   0.537   3.960
  822TIP3   OH2 2471   2.208   4.715   2.463
  822TIP3    H1 2472   2.272   4.751   2.524
  822TIP3    H2 2473   2.203   4.779   2.392
  823TIP3   OH2 2474   5.390   1.623   4.344
  823TIP3    H1 2475   5.400   1.586   4.432
  823TIP3    H2 2476   5.358   1.712   4.359
  824TIP3   OH2 2477   0.323   4.834   3.989
  824TIP3    H1 2478   0.373   4.908   4.022
  824TIP3    H2 2479   0.243   4.873   3.954
  825TIP3   OH2 2480   2.693   5.188   0.956
  825TIP3    H1 2481   2.630   5.221   0.892
  825TIP3    H2 2482   2.748   5.263   0.977
  826TIP3   OH2 2483   4.850   2.568   4.529
  826TIP3    H1 2484   4.789   2.497   4.508
  826TIP3    H2 2485   4.922   2.525   4.575
  827TIP3   OH2 2486   0.542   5.914   2.451
  827TIP3    H1 2487   0.597   5.863   2.392
  827TIP3    H2 2488   0.488   5.968   2.394
  828TIP3   OH2 2489   2.751   4.391   4.629
  828TIP3    H1 2490   2.747   4.487   4.637
  828TIP3    H2 2491   2.820   4.375   4.565
  829TIP3   OH2 2492   5.090   5.922   0.585
  829TIP3    H1 2493   5.163   5.872   0.621
  829TIP3    H2 2494   5.100   5.913   0.490
  830TIP3   OH2 2495   3.911   4.403   1.333
  830TIP3    H1 2496   3.967   4.446   1.398
  830TIP3    H2 2497   3.829   4.385   1.379
  831TIP3   OH2 2498   1.159   5.906   1.255
  831TIP3    H1 2499   1.223   5.883   1.188
  831TIP3    H2 2500   1.115   5.985   1.222
  832TIP3   OH2 2501   1.949   4.643   0.118
  832TIP3    H1 2502   1.883   4.672   0.181
  832TIP3    H2 2503   2.026   4.623   0.171
  833TIP3   OH2 2504   4.124   5.390   0.636
  833TIP3    H1 2505   4.087   5.393   0.548
  833TIP3    H2 2506   4.206   5.342   0.626
  834TIP3   OH2 2507   2.589   1.782   0.542
  834TIP3    H1 2508   2.589   1.705   0.485
  834TIP3    H2 2509   2.665   1.770   0.599
  835TIP3   OH2 2510   2.275   1.182   0.942
  835TIP3    H1 2511   2.185   1.192   0.972
  835TIP3    H2 2512   2.274   1.104   0.886
  836TIP3   OH2 2513   0.602   0.165   0.917
  836TIP3    H1 2514   0.564   0.167   0.828
  836TIP3    H2 2515   0.534   0.202   0.973
  837TIP3   OH2 2516   1.566   3.497   5.186
  837TIP3    H1 2517   1.655   3.462   5.179
  837TIP3    H2 2518   1.510   3.420   5.179
  838TIP3   OH2 2519   5.480   4.522   4.094
  838TIP3    H1 2520   5.490   4.589   4.161
  838TIP3    H2 2521   5.390   4.492   4.102
  839TIP3   OH2 2522   3.256   5.520   3.452
  839TIP3    H1 2523   3.227   5.611   3.446
  839TIP3    H2 2524   3.333   5.523   3.508
  840TIP3   OH2 2525   6.122   3.871   4.234
  840TIP3    H1 2526   6.194   3.908   4.285
  840TIP3    H2 2527   6.160   3.856   4.147
  841TIP3   OH2 2528   1.665   0.108   4.793
  841TIP3    H1 2529   1.651   0.022   4.832
  841TIP3    H2 2530   1.714   0.091   4.712
  842TIP3   OH2 2531   2.863   0.758   1.758
  842TIP3    H1 2532   2.807   0.681   1.770
  842TIP3    H2 2533   2.805   0.832   1.775
  843TIP3   OH2 2534   1.012   1.275   1.560
  843TIP3    H1 2535   0.925   1.301   1.529
  843TIP3    H2 2536   1.047   1.353   1.602
  844TIP3   OH2 2537   4.715   1.101   4.683
  844TIP3    H1 2538   4.802   1.094   4.721
  844TIP3    H2 2539   4.718   1.181   4.630
  845TIP3   OH2 2540   1.790   3.854   5.143
  845TIP3    H1 2541   1.792   3.759   5.151
  845TIP3    H2 2542   1.728   3.882   5.211
  846TIP3   OH2 2543   1.369   5.761   1.037
  846TIP3    H1 2544   1.394   5.674   1.007
  846TIP3    H2 2545   1.317   5.797   0.965
  847TIP3   OH2 2546   4.821   1.777   4.264
  847TIP3    H1 2547   4.729   1.759   4.280
  847TIP3    H2 2548   4.821   1.852   4.204
  848TIP3   OH2 2549   0.750   0.185   0.620
  848TIP3    H1 2550   0.657   0.170   0.634
  848TIP3    H2 2551   0.791   0.099   0.630
  849TIP3   OH2 2552   0.466   4.564   2.641
  849TIP3    H1 2553   0.445   4.592   2.729
  849TIP3    H2 2554   0.440   4.472   2.637
  850TIP3   OH2 2555   0.204   5.428   1.339
  850TIP3    H1 2556   0.281   5.384   1.374
  850TIP3    H2 2557   0.214   5.422   1.244
  851TIP3   OH2 2558   1.264   3.661   2.006
  851TIP3    H1 2559   1.201   3.733   2.018
  851TIP3    H2 2560   1.209   3.584   1.988
  852TIP3   OH2 2561   5.251   0.343   3.715
  852TIP3    H1 2562   5.195   0.355   3.638
  852TIP3    H2 2563   5.232   0.254   3.744
  853TIP3   OH2 2564   0.308   1.787   0.343
  853TIP3    H1 2565   0.240   1.759   0.405
  853TIP3    H2 2566   0.387   1.793   0.396
  854TIP3   OH2 2567   2.901   4.022   1.531
  854TIP3    H1 2568   2.834   4.068   1.481
  854TIP3    H2 2569   2.852   3.964   1.589
  855TIP3   OH2 2570   1.665   5.607   2.176
  855TIP3    H1 2571   1.680   5.675   2.242
  855TIP3    H2 2572   1.572   5.587   2.185
  856TIP3   OH2 2573   3.184   1.312   1.149
  856TIP3    H1 2574   3.262   1.282   1.102
  856TIP3    H2 2575   3.165   1.398   1.112
  857TIP3   OH2 2576   2.651   2.950   2.875
  857TIP3    H1 2577   2.742   2.922   2.876
  857TIP3    H2 2578   2.624   2.946   2.967
  858TIP3   OH2 2579   3.145   5.809   2.274
  858TIP3    H1 2580   3.217   5.868   2.252
  858TIP3    H2 2581   3.092   5.805   2.194
  859TIP3   OH2 2582   3.962   4.301   2.939
  859TIP3    H1 2583   4.028   4.253   2.889
  859TIP3    H2 2584   3.912   4.349   2.873
  860TIP3   OH2 2585   4.546   3.788   4.440
  860TIP3    H1 2586   4.608   3.853   4.408
  860TIP3    H2 2587   4.599   3.709   4.454
  861TIP3   OH2 2588   4.798   1.601   0.954
  861TIP3    H1 2589   4.763   1.578   0.868
  861TIP3    H2 2590   4.755   1.683   0.977
  862TIP3   OH2 2591   4.463   4.757   4.552
  862TIP3    H1 2592   4.447   4.771   4.458
  862TIP3    H2 2593   4.510   4.836   4.579
  863TIP3   OH2 2594   0.114   2.371   0.624
  863TIP3    H1 2595   0.176   2.308   0.586
  863TIP3    H2 2596   0.037   2.365   0.568
  864TIP3   OH2 2597   3.064   2.594   0.281
  864TIP3    H1 2598   2.986   2.547   0.251
  864TIP3    H2 2599   3.058   2.592   0.377
  865TIP3   OH2 2600   4.060   5.943   2.413
  865TIP3    H1 2601   4.068   6.009   2.482
  865TIP3    H2 2602   4.086   5.989   2.333
  866TIP3   OH2 2603   5.660   4.078   3.360
  866TIP3    H1 2604   5.752   4.052   3.368
  866TIP3    H2 2605   5.651   4.104   3.268
  867TIP3   OH2 2606   0.737   1.017   3.004
  867TIP3    H1 2607   0.710   1.081   3.070
  867TIP3    H2 2608   0.727   0.932   3.047
  868TIP3   OH2 2609   1.582   0.667   0.518
  868TIP3    H1 2610   1.574   0.600   0.586
  868TIP3    H2 2611   1.494   0.704   0.510
  869TIP3   OH2 2612   0.426   1.352   1.552
  869TIP3    H1 2613   0.492   1.363   1.620
  869TIP3    H2 2614   0.476   1.343   1.471
  870TIP3   OH2 2615   2.900   4.324   4.422
  870TIP3    H1 2616   2.928   4.365   4.341
  870TIP3    H2 2617   2.846   4.250   4.395
  871TIP3   OH2 2618   5.353   4.996   4.118
  871TIP3    H1 2619   5.307   5.036   4.044
  871TIP3    H2 2620   5.304   5.023   4.195
  872TIP3   OH2 2621   3.689   4.952   5.174
  872TIP3    H1 2622   3.740   4.919   5.100
  872TIP3    H2 2623   3.607   4.984   5.135
  873TIP3   OH2 2624   5.555   2.080   3.039
  873TIP3    H1 2625   5.492   2.138   2.997
  873TIP3    H2 2626   5.527   1.992   3.014
  874TIP3   OH2 2627   3.446   1.659   1.263
  874TIP3    H1 2628   3.461   1.749   1.235
  874TIP3    H2 2629   3.533   1.619   1.266
  875TIP3   OH2 2630   2.064   4.914   0.780
  875TIP3    H1 2631   2.025   5.001   0.775
  875TIP3    H2 2632   2.129   4.922   0.851
  876TIP3   OH2 2633   5.820   2.168   1.349
  876TIP3    H1 2634   5.813   2.087   1.300
  876TIP3    H2 2635   5.896   2.156   1.406
  877TIP3   OH2 2636   6.334   4.704   1.944
  877TIP3    H1 2637   6.311   4.787   1.986
  877TIP3    H2 2638   6.361   4.729   1.856
  878TIP3   OH2 2639   1.942   3.616   5.062
  878TIP3    H1 2640   2.033   3.597   5.043
  878TIP3    H2 2641   1.900   3.529   5.069
  879TIP3   OH2 2642   3.974   2.259   3.104
  879TIP3    H1 2643   4.013   2.182   3.064
  879TIP3    H2 2644   3.970   2.240   3.197
  880TIP3   OH2 2645   4.224   2.190   4.268
  880TIP3    H1 2646   4.197   2.166   4.180
  880TIP3    H2 2647   4.194   2.280   4.278
  881TIP3   OH2 2648   1.077   0.751   1.516
  881TIP3    H1 2649   1.104   0.719   1.431
  881TIP3    H2 2650   0.992   0.710   1.532
  882TIP3   OH2 2651   0.427   0.086   2.627
  882TIP3    H1 2652   0.374   0.019   2.584
  882TIP3    H2 2653   0.505   0.093   2.573
  883TIP3   OH2 2654   2.541   0.895   0.961
  883TIP3    H1 2655   2.510   0.946   1.037
  883TIP3    H2 2656   2.615   0.845   0.995
  884TIP3   OH2 2657   1.829   0.085   0.227
  884TIP3    H1 2658   1.866   0.097   0.315
  884TIP3    H2 2659   1.737   0.066   0.242
  885TIP3   OH2 2660   3.970   1.717   5.195
  885TIP3    H1 2661   4.004   1.629   5.211
  885TIP3    H2 2662   3.916   1.709   5.117
  886TIP3   OH2 2663   1.781   0.031   0.974
  886TIP3    H1 2664   1.703   0.077   0.942
  886TIP3    H2 2665   1.854   0.088   0.951
  887TIP3   OH2 2666   4.699   2.355   2.095
  887TIP3    H1 2667   4.704   2.399   2.010
  887TIP3    H2 2668   4.689   2.262   2.073
  888TIP3   OH2 2669   1.977   3.713   0.066
  888TIP3    H1 2670   2.071   3.721   0.052
  888TIP3    H2 2671   1.941   3.795   0.032
  889TIP3   OH2 2672   2.949   0.811   1.508
  889TIP3    H1 2673   3.005   0.742   1.472
  889TIP3    H2 2674   2.919   0.777   1.592
  890TIP3   OH2 2675   0.345   4.889   1.695
  890TIP3    H1 2676   0.386   4.893   1.609
  890TIP3    H2 2677   0.418   4.896   1.757
  891TIP3   OH2 2678   3.319   0.759   5.068
  891TIP3    H1 2679   3.271   0.705   5.006
  891TIP3    H2 2680   3.406   0.768   5.030
  892TIP3   OH2 2681   3.589   0.363   4.966
  892TIP3    H1 2682   3.540   0.346   4.885
  892TIP3    H2 2683   3.675   0.324   4.950
  893TIP3   OH2 2684   1.310   2.028   3.354
  893TIP3    H1 2685   1.236   2.088   3.351
  893TIP3    H2 2686   1.383   2.077   3.315
  894TIP3   OH2 2687   3.898   0.793   1.526
  894TIP3    H1 2688   3.920   0.712   1.572
  894TIP3    H2 2689   3.831   0.834   1.580
  895TIP3   OH2 2690   1.511   3.688   4.980
  895TIP3    H1 2691   1.454   3.752   5.021
  895TIP3    H2 2692   1.551   3.640   5.053
  896TIP3   OH2 2693   0.760   4.015   1.848
  896TIP3    H1 2694   0.707   4.084   1.809
  896TIP3    H2 2695   0.722   3.934   1.814
  897TIP3   OH2 2696   2.729   0.458   2.674
  897TIP3    H1 2697   2.705   0.380   2.724
  897TIP3    H2 2698   2.734   0.527   2.740
  898TIP3   OH2 2699   5.919   5.076   4.200
  898TIP3    H1 2700   5.888   5.159   4.236
  898TIP3    H2 2701   5.994   5.100   4.145
  899TIP3   OH2 2702   1.521   3.752   1.994
  899TIP3    H1 2703   1.497   3.842   2.017
  899TIP3    H2 2704   1.438   3.703   2.002
  900TIP3   OH2 2705   1.003   2.953   0.717
  900TIP3    H1 2706   1.024   3.007   0.793
  900TIP3    H2 2707   0.991   2.865   0.752
  901TIP3   OH2 2708   2.743   5.553   0.261
  901TIP3    H1 2709   2.722   5.509   0.179
  901TIP3    H2 2710   2.823   5.603   0.243
  902TIP3   OH2 2711   0.756   0.797   3.275
  902TIP3    H1 2712   0.661   0.804   3.284
  902TIP3    H2 2713   0.788   0.786   3.365
  903TIP3   OH2 2714   3.881   2.506   3.555
  903TIP3    H1 2715   3.892   2.588   3.604
  903TIP3    H2 2716   3.802   2.520   3.503
  904TIP3   OH2 2717   3.371   2.519   3.150
  904TIP3    H1 2718   3.355   2.445   3.090
  904TIP3    H2 2719   3.283   2.554   3.167
  905TIP3   OH2 2720   6.301   1.167   1.883
  905TIP3    H1 2721   6.317   1.077   1.853
  905TIP3    H2 2722   6.205   1.175   1.882
  906TIP3   OH2 2723   3.532   3.753   2.188
  906TIP3    H1 2724   3.468   3.713   2.129
  906TIP3    H2 2725   3.489   3.832   2.220
  907TIP3   OH2 2726   4.085   3.766   0.099
  907TIP3    H1 2727   4.052   3.856   0.089
  907TIP3    H2 2728   4.007   3.711   0.089
  908TIP3   OH2 2729   2.860   4.903   2.936
  908TIP3    H1 2730   2.829   4.973   2.879
  908TIP3    H2 2731   2.936   4.867   2.889
  909TIP3   OH2 2732   0.363   4.060   0.078
  909TIP3    H1 2733   0.302   4.060   0.152
  909TIP3    H2 2734   0.307   4.068   0.001
  910TIP3   OH2 2735   1.800   2.914   0.050
  910TIP3    H1 2736   1.781   2.821   0.039
  910TIP3    H2 2737   1.868   2.917   0.118
  911TIP3   OH2 2738   4.270   5.790   4.760
  911TIP3    H1 2739   4.212   5.794   4.836
  911TIP3    H2 2740   4.280   5.880   4.732
  912TIP3   OH2 2741   2.570   2.367   0.782
  912TIP3    H1 2742   2.564   2.405   0.870
  912TIP3    H2 2743   2.660   2.334   0.776
  913TIP3   OH2 2744   1.961   4.455   2.755
  913TIP3    H1 2745   2.019   4.383   2.779
  913TIP3    H2 2746   1.876   4.431   2.790
  914TIP3   OH2 2747   4.844   4.660   3.093
  914TIP3    H1 2748   4.815   4.748   3.116
  914TIP3    H2 2749   4.913   4.640   3.156
  915TIP3   OH2 2750   1.319   5.215   1.978
  915TIP3    H1 2751   1.368   5.271   2.037
  915TIP3    H2 2752   1.284   5.146   2.034
  916TIP3   OH2 2753   6.244   4.795   3.732
  916TIP3    H1 2754   6.237   4.719   3.790
  916TIP3    H2 2755   6.259   4.757   3.645
  917TIP3   OH2 2756   2.307   4.625   1.057
  917TIP3    H1 2757   2.212   4.633   1.045
  917TIP3    H2 2758   2.328   4.687   1.127
  918TIP3   OH2 2759   1.406   3.465   4.838
  918TIP3    H1 2760   1.444   3.534   4.893
  918TIP3    H2 2761   1.481   3.426   4.793
  919TIP3   OH2 2762   1.497   0.197   0.633
  919TIP3    H1 2763   1.541   0.133   0.576
  919TIP3    H2 2764   1.438   0.245   0.574
  920TIP3   OH2 2765   1.957   3.740   2.722
  920TIP3    H1 2766   2.035   3.754   2.668
  920TIP3    H2 2767   1.948   3.821   2.772
  921TIP3   OH2 2768   5.110   3.707   1.267
  921TIP3    H1 2769   5.180   3.689   1.330
  921TIP3    H2 2770   5.036   3.654   1.298
  922TIP3   OH2 2771   2.992   2.896   2.474
  922TIP3    H1 2772   3.071   2.843   2.487
  922TIP3    H2 2773   3.005   2.972   2.530
  923TIP3   OH2 2774   4.677   3.154   3.219
  923TIP3    H1 2775   4.693   3.149   3.125
  923TIP3    H2 2776   4.684   3.064   3.250
  924TIP3   OH2 2777   4.095   2.936   1.423
  924TIP3    H1 2778   4.008   2.920   1.386
  924TIP3    H2 2779   4.130   3.009   1.371
  925TIP3   OH2 2780   5.061   2.065   1.325
  925TIP3    H1 2781   5.001   2.053   1.398
  925TIP3    H2 2782   5.086   1.977   1.299
  926TIP3   OH2 2783   1.247   3.879   0.704
  926TIP3    H1 2784   1.326   3.849   0.749
  926TIP3    H2 2785   1.176   3.828   0.742
  927TIP3   OH2 2786   4.903   0.375   1.649
  927TIP3    H1 2787   4.958   0.364   1.571
  927TIP3    H2 2788   4.814   0.377   1.616
  928TIP3   OH2 2789   5.256   4.363   2.446
  928TIP3    H1 2790   5.343   4.324   2.455
  928TIP3    H2 2791   5.203   4.317   2.511
  929TIP3   OH2 2792   0.710   4.953   4.322
  929TIP3    H1 2793   0.623   4.966   4.284
  929TIP3    H2 2794   0.739   4.869   4.288
  930TIP3   OH2 2795   5.312   2.232   3.106
  930TIP3    H1 2796   5.389   2.258   3.156
  930TIP3    H2 2797   5.262   2.177   3.167
  931TIP3   OH2 2798   1.058   2.069   3.763
  931TIP3    H1 2799   0.970   2.103   3.748
  931TIP3    H2 2800   1.115   2.132   3.720
  932TIP3   OH2 2801   1.537   2.916   1.789
  932TIP3    H1 2802   1.533   2.825   1.762
  932TIP3    H2 2803   1.548   2.965   1.708
  933TIP3   OH2 2804   2.471   0.565   1.985
  933TIP3    H1 2805   2.421   0.486   1.963
  933TIP3    H2 2806   2.406   0.633   1.997
  934TIP3   OH2 2807   4.162   0.064   3.507
  934TIP3    H1 2808   4.069   0.069   3.487
  934TIP3    H2 2809   4.166   0.032   3.597
  935TIP3   OH2 2810   2.788   5.535   1.162
  935TIP3    H1 2811   2.772   5.525   1.068
  935TIP3    H2 2812   2.701   5.534   1.201
  936TIP3   OH2 2813   5.484   3.061   1.475
  936TIP3    H1 2814   5.404   3.076   1.424
  936TIP3    H2 2815   5.496   3.142   1.525
  937TIP3   OH2 2816   4.463   4.114   4.566
  937TIP3    H1 2817   4.547   4.151   4.540
  937TIP3    H2 2818   4.416   4.186   4.607
  938TIP3   OH2 2819   2.181   1.805   1.104
  938TIP3    H1 2820   2.161   1.872   1.039
  938TIP3    H2 2821   2.115   1.737   1.090
  939TIP3   OH2 2822   6.097   3.259   4.634
  939TIP3    H1 2823   6.093   3.262   4.539
  939TIP3    H2 2824   6.129   3.346   4.659
  940TIP3   OH2 2825   5.538   4.416   0.304
  940TIP3    H1 2826   5.562   4.393   0.215
  940TIP3    H2 2827   5.612   4.467   0.337
  941TIP3   OH2 2828   4.460   1.887   3.942
  941TIP3    H1 2829   4.462   1.979   3.914
  941TIP3    H2 2830   4.551   1.858   3.935
  942TIP3   OH2 2831   5.536   0.543   3.390
  942TIP3    H1 2832   5.543   0.475   3.458
  942TIP3    H2 2833   5.510   0.622   3.438
  943TIP3   OH2 2834   4.876   4.228   2.323
  943TIP3    H1 2835   4.917   4.162   2.267
  943TIP3    H2 2836   4.783   4.209   2.318
  944TIP3   OH2 2837   3.665   5.525   0.738
  944TIP3    H1 2838   3.752   5.538   0.774
  944TIP3    H2 2839   3.679   5.516   0.644
  945TIP3   OH2 2840   3.745   3.763   4.262
  945TIP3    H1 2841   3.707   3.802   4.184
  945TIP3    H2 2842   3.839   3.762   4.244
  946TIP3   OH2 2843   1.474   0.846   4.594
  946TIP3    H1 2844   1.552   0.800   4.623
  946TIP3    H2 2845   1.402   0.784   4.609
  947TIP3   OH2 2846   0.350   0.871   2.961
  947TIP3    H1 2847   0.267   0.878   3.008
  947TIP3    H2 2848   0.383   0.784   2.982
  948TIP3   OH2 2849   0.793   3.707   3.995
  948TIP3    H1 2850   0.727   3.753   4.046
  948TIP3    H2 2851   0.834   3.647   4.057
  949TIP3   OH2 2852   1.338   3.368   1.459
  949TIP3    H1 2853   1.284   3.370   1.380
  949TIP3    H2 2854   1.291   3.423   1.522
  950TIP3   OH2 2855   5.187   5.569   1.947
  950TIP3    H1 2856   5.265   5.565   2.003
  950TIP3    H2 2857   5.117   5.595   2.006
  951TIP3   OH2 2858   0.683   5.244   2.799
  951TIP3    H1 2859   0.777   5.262   2.793
  951TIP3    H2 2860   0.642   5.330   2.791
  952TIP3   OH2 2861   5.760   0.295   0.267
  952TIP3    H1 2862   5.695   0.289   0.197
  952TIP3    H2 2863   5.837   0.333   0.225
  953TIP3   OH2 2864   3.657   4.065   2.305
  953TIP3    H1 2865   3.573   4.111   2.303
  953TIP3    H2 2866   3.711   4.118   2.363
  954TIP3   OH2 2867   6.309   2.133   2.048
  954TIP3    H1 2868   6.316   2.074   1.973
  954TIP3    H2 2869   6.303   2.076   2.124
  955TIP3   OH2 2870   2.700   1.984   3.066
  955TIP3    H1 2871   2.702   1.953   2.976
  955TIP3    H2 2872   2.640   1.924   3.111
  956TIP3   OH2 2873   5.560   5.960   0.759
  956TIP3    H1 2874   5.572   6.049   0.795
  956TIP3    H2 2875   5.629   5.908   0.801
  957TIP3   OH2 2876   5.816   2.794   3.682
  957TIP3    H1 2877   5.768   2.711   3.679
  957TIP3    H2 2878   5.768   2.847   3.745
  958TIP3   OH2 2879   5.600   4.469   3.838
  958TIP3    H1 2880   5.687   4.448   3.871
  958TIP3    H2 2881   5.553   4.504   3.913
  959TIP3   OH2 2882   6.231   4.882   0.706
  959TIP3    H1 2883   6.286   4.839   0.639
  959TIP3    H2 2884   6.179   4.811   0.743
  960TIP3   OH2 2885   0.333   4.503   1.163
  960TIP3    H1 2886   0.254   4.452   1.150
  960TIP3    H2 2887   0.356   4.535   1.075
  961TIP3   OH2 2888   3.612   5.891   0.820
  961TIP3    H1 2889   3.571   5.832   0.757
  961TIP3    H2 2890   3.539   5.925   0.872
  962TIP3   OH2 2891   0.755   3.662   1.681
  962TIP3    H1 2892   0.690   3.650   1.612
  962TIP3    H2 2893   0.709   3.709   1.750
  963TIP3   OH2 2894   5.333   1.493   4.112
  963TIP3    H1 2895   5.407   1.532   4.158
  963TIP3    H2 2896   5.257   1.513   4.167
  964TIP3   OH2 2897   3.106   4.719   1.725
  964TIP3    H1 2898   3.024   4.745   1.683
  964TIP3    H2 2899   3.142   4.800   1.760
  965TIP3   OH2 2900   4.319   5.458   3.807
  965TIP3    H1 2901   4.277   5.450   3.721
  965TIP3    H2 2902   4.412   5.461   3.787
  966TIP3   OH2 2903   5.458   5.765   4.821
  966TIP3    H1 2904   5.494   5.851   4.800
  966TIP3    H2 2905   5.396   5.781   4.892
  967TIP3   OH2 2906   5.176   3.757   3.611
  967TIP3    H1 2907   5.203   3.833   3.560
  967TIP3    H2 2908   5.134   3.794   3.689
  968TIP3   OH2 2909   4.360   3.041   2.268
  968TIP3    H1 2910   4.276   3.068   2.305
  968TIP3    H2 2911   4.374   2.953   2.302
  969TIP3   OH2 2912   2.086   1.184   3.457
  969TIP3    H1 2913   2.060   1.094   3.439
  969TIP3    H2 2914   2.068   1.231   3.375
  970TIP3   OH2 2915   5.763   4.132   0.184
  970TIP3    H1 2916   5.803   4.204   0.234
  970TIP3    H2 2917   5.817   4.056   0.205
  971TIP3   OH2 2918   4.345   5.273   0.522
  971TIP3    H1 2919   4.303   5.187   0.531
  971TIP3    H2 2920   4.429   5.263   0.566
  972TIP3   OH2 2921   5.052   4.024   1.988
  972TIP3    H1 2922   4.994   4.081   1.938
  972TIP3    H2 2923   5.130   4.013   1.933
  973TIP3   OH2 2924   4.996   2.809   4.155
  973TIP3    H1 2925   4.963   2.886   4.109
  973TIP3    H2 2926   4.928   2.742   4.142
  974TIP3   OH2 2927   2.414   5.062   1.617
  974TIP3    H1 2928   2.440   5.149   1.646
  974TIP3    H2 2929   2.364   5.077   1.537
  975TIP3   OH2 2930   2.363   0.302   2.126
  975TIP3    H1 2931   2.296   0.343   2.181
  975TIP3    H2 2932   2.333   0.319   2.036
  976TIP3   OH2 2933   3.350   4.954   4.286
  976TIP3    H1 2934   3.278   4.896   4.309
  976TIP3    H2 2935   3.318   5.041   4.310
  977TIP3   OH2 2936   2.864   4.815   2.018
  977TIP3    H1 2937   2.841   4.765   2.097
  977TIP3    H2 2938   2.942   4.864   2.043
  978TIP3   OH2 2939   3.601   1.370   0.094
  978TIP3    H1 2940   3.693   1.347   0.108
  978TIP3    H2 2941   3.568   1.301   0.036
  979TIP3   OH2 2942   1.964   2.929   0.285
  979TIP3    H1 2943   1.952   2.967   0.372
  979TIP3    H2 2944   1.950   2.835   0.298
  980TIP3   OH2 2945   1.817   5.872   0.087
  980TIP3    H1 2946   1.869   5.941   0.046
  980TIP3    H2 2947   1.878   5.798   0.094
  981TIP3   OH2 2948   4.258   1.370   0.906
  981TIP3    H1 2949   4.239   1.317   0.983
  981TIP3    H2 2950   4.201   1.447   0.915
  982TIP3   OH2 2951   4.196   4.658   3.175
  982TIP3    H1 2952   4.154   4.574   3.193
  982TIP3    H2 2953   4.148   4.694   3.100
  983TIP3   OH2 2954   6.235   2.263   4.896
  983TIP3    H1 2955   6.183   2.226   4.967
  983TIP3    H2 2956   6.279   2.338   4.937
  984TIP3   OH2 2957   1.582   3.431   4.542
  984TIP3    H1 2958   1.512   3.372   4.514
  984TIP3    H2 2959   1.630   3.382   4.608
  985TIP3   OH2 2960   0.379   3.948   4.092
  985TIP3    H1 2961   0.449   3.905   4.141
  985TIP3    H2 2962   0.417   4.030   4.062
  986TIP3   OH2 2963   0.083   0.539   2.965
  986TIP3    H1 2964   0.145   0.527   3.037
  986TIP3    H2 2965  -0.003   0.525   3.004
  987TIP3   OH2 2966   4.889   0.630   0.889
  987TIP3    H1 2967   4.942   0.591   0.958
  987TIP3    H2 2968   4.824   0.684   0.934
  988TIP3   OH2 2969   4.353   2.866   3.360
  988TIP3    H1 2970   4.274   2.882   3.309
  988TIP3    H2 2971   4.337   2.910   3.443
  989TIP3   OH2 2972   6.275   1.462   1.935
  989TIP3    H1 2973   6.282   1.381   1.884
  989TIP3    H2 2974   6.181   1.480   1.938
  990TIP3   OH2 2975   5.796   1.861   4.573
  990TIP3    H1 2976   5.828   1.821   4.653
  990TIP3    H2 2977   5.713   1.901   4.598
  991TIP3   OH2 2978   0.146   5.498   0.162
  991TIP3    H1 2979   0.119   5.423   0.109
  991TIP3    H2 2980   0.242   5.491   0.166
  992TIP3   OH2 2981   4.975   4.869   2.730
  992TIP3    H1 2982   5.067   4.861   2.707
  992TIP3    H2 2983   4.955   4.788   2.778
  993TIP3   OH2 2984   4.790   5.954   2.351
  993TIP3    H1 2985   4.860   5.990   2.297
  993TIP3    H2 2986   4.821   5.867   2.377
  994TIP3   OH2 2987   5.194   2.924   1.899
  994TIP3    H1 2988   5.149   2.875   1.830
  994TIP3    H2 2989   5.148   3.009   1.901
  995TIP3   OH2 2990   4.525   2.734   3.960
  995TIP3    H1 2991   4.531   2.718   3.866
  995TIP3    H2 2992   4.544   2.649   4.000
  996TIP3   OH2 2993   0.206   4.072   4.619
  996TIP3    H1 2994   0.289   4.104   4.654
  996TIP3    H2 2995   0.195   3.986   4.660
  997TIP3   OH2 2996   0.535   5.637   0.748
  997TIP3    H1 2997   0.573   5.642   0.660
  997TIP3    H2 2998   0.594   5.578   0.796
  998TIP3   OH2 2999   3.409   0.534   3.203
  998TIP3    H1 3000   3.482   0.587   3.172
  998TIP3    H2 3001   3.419   0.451   3.156
  999TIP3   OH2 3002   1.679   5.057   0.553
  999TIP3    H1 3003   1.726   4.974   0.542
  999TIP3    H2 3004   1.710   5.112   0.481
 1000TIP3   OH2 3005   4.957   3.248   0.137
 1000TIP3    H1 3006   4.902   3.325   0.124
 1000TIP3    H2 3007   5.033   3.263   0.081
 1001TIP3   OH2 3008   3.812   1.857   1.730
 1001TIP3    H1 3009   3.797   1.803   1.652
 1001TIP3    H2 3010   3.730   1.905   1.742
 1002TIP3   OH2 3011   5.800   5.152   1.510
 1002TIP3    H1 3012   5.843   5.078   1.553
 1002TIP3    H2 3013   5.747   5.194   1.578
 1003TIP3   OH2 3014   2.829   0.334   1.888
 1003TIP3    H1 3015   2.769   0.401   1.856
 1003TIP3    H2 3016   2.893   0.323   1.818
 1004TIP3   OH2 3017   5.034   4.548   4.830
 1004TIP3    H1 3018   5.049   4.497   4.909
 1004TIP3    H2 3019   4.952   4.515   4.794
 1005TIP3   OH2 3020   0.262   5.941   2.621
 1005TIP3    H1 3021   0.197   5.872   2.608
 1005TIP3    H2 3022   0.346   5.898   2.604
 1006TIP3   OH2 3023   6.317   0.703   4.937
 1006TIP3    H1 3024   6.373   0.737   4.866
 1006TIP3    H2 3025   6.371   0.712   5.016
 1007TIP3   OH2 3026   2.279   0.309   0.700
 1007TIP3    H1 3027   2.373   0.289   0.699
 1007TIP3    H2 3028   2.241   0.243   0.758
 1008TIP3   OH2 3029   5.721   3.645   1.772
 1008TIP3    H1 3030   5.811   3.662   1.743
 1008TIP3    H2 3031   5.671   3.721   1.743
 1009TIP3   OH2 3032   0.023   1.470   1.623
 1009TIP3    H1 3033  -0.046   1.430   1.569
 1009TIP3    H2 3034   0.073   1.396   1.657
 1010TIP3   OH2 3035   5.139   2.433   3.813
 1010TIP3    H1 3036   5.072   2.475   3.757
 1010TIP3    H2 3037   5.215   2.425   3.756
 1011TIP3   OH2 3038   5.389   0.048   2.172
 1011TIP3    H1 3039   5.474   0.083   2.144
 1011TIP3    H2 3040   5.327   0.080   2.107
 1012TIP3   OH2 3041   5.014   4.744   4.144
 1012TIP3    H1 3042   5.018   4.839   4.151
 1012TIP3    H2 3043   4.928   4.726   4.106
 1013TIP3   OH2 3044   0.930   5.539   3.963
 1013TIP3    H1 3045   0.955   5.628   3.988
 1013TIP3    H2 3046   0.926   5.491   4.046
 1014TIP3   OH2 3047   1.379   0.296   4.945
 1014TIP3    H1 3048   1.439   0.226   4.917
 1014TIP3    H2 3049   1.393   0.366   4.882
 1015TIP3   OH2 3050   3.878   2.562   0.213
 1015TIP3    H1 3051   3.870   2.628   0.144
 1015TIP3    H2 3052   3.823   2.489   0.183
 1016TIP3   OH2 3053   3.912   0.283   4.539
 1016TIP3    H1 3054   3.944   0.229   4.467
 1016TIP3    H2 3055   3.959   0.366   4.529
 1017TIP3   OH2 3056   5.531   5.556   5.025
 1017TIP3    H1 3057   5.530   5.587   4.934
 1017TIP3    H2 3058   5.497   5.467   5.020
 1018TIP3   OH2 3059   4.284   2.199   1.301
 1018TIP3    H1 3060   4.360   2.185   1.357
 1018TIP3    H2 3061   4.310   2.164   1.216
 1019TIP3   OH2 3062   5.704   5.027   3.544
 1019TIP3    H1 3063   5.753   5.105   3.519
 1019TIP3    H2 3064   5.679   4.986   3.461
 1020TIP3   OH2 3065   0.621   4.786   1.598
 1020TIP3    H1 3066   0.605   4.788   1.504
 1020TIP3    H2 3067   0.701   4.837   1.609
 1021TIP3   OH2 3068   3.872   1.938   4.285
 1021TIP3    H1 3069   3.790   1.961   4.331
 1021TIP3    H2 3070   3.919   1.883   4.347
 1022TIP3   OH2 3071   2.450   4.375   4.821
 1022TIP3    H1 3072   2.367   4.413   4.851
 1022TIP3    H2 3073   2.506   4.378   4.899
 1023TIP3   OH2 3074   0.317   1.876   5.059
 1023TIP3    H1 3075   0.386   1.880   4.993
 1023TIP3    H2 3076   0.237   1.859   5.009
 1024TIP3   OH2 3077   0.511   3.995   3.272
 1024TIP3    H1 3078   0.522   3.965   3.362
 1024TIP3    H2 3079   0.598   4.024   3.246
 1025TIP3   OH2 3080   2.021   1.281   2.804
 1025TIP3    H1 3081   2.027   1.372   2.775
 1025TIP3    H2 3082   1.936   1.251   2.771
 1026TIP3   OH2 3083   2.199   5.757   1.292
 1026TIP3    H1 3084   2.184   5.847   1.262
 1026TIP3    H2 3085   2.223   5.767   1.384
 1027TIP3   OH2 3086   3.699   0.503   0.623
 1027TIP3    H1 3087   3.750   0.557   0.563
 1027TIP3    H2 3088   3.614   0.548   0.629
 1028TIP3   OH2 3089   0.608   0.611   5.090
 1028TIP3    H1 3090   0.677   0.627   5.154
 1028TIP3    H2 3091   0.531   0.591   5.144
 1029TIP3   OH2 3092   0.635   5.650   4.308
 1029TIP3    H1 3093   0.691   5.702   4.365
 1029TIP3    H2 3094   0.582   5.715   4.262
 1030TIP3   OH2 3095   1.731   4.445   4.054
 1030TIP3    H1 3096   1.656   4.500   4.075
 1030TIP3    H2 3097   1.697   4.355   4.060
 1031TIP3   OH2 3098   4.333   2.027   2.828
 1031TIP3    H1 3099   4.396   1.966   2.866
 1031TIP3    H2 3100   4.370   2.114   2.846
 1032TIP3   OH2 3101   4.711   2.190   4.492
 1032TIP3    H1 3102   4.646   2.200   4.562
 1032TIP3    H2 3103   4.659   2.185   4.412
 1033TIP3   OH2 3104   3.474   0.103   2.604
 1033TIP3    H1 3105   3.552   0.066   2.647
 1033TIP3    H2 3106   3.474   0.195   2.632
 1034TIP3   OH2 3107   3.321   5.650   2.451
 1034TIP3    H1 3108   3.275   5.602   2.521
 1034TIP3    H2 3109   3.251   5.684   2.396
 1035TIP3   OH2 3110   3.220   1.182   3.328
 1035TIP3    H1 3111   3.242   1.258   3.381
 1035TIP3    H2 3112   3.199   1.218   3.242
 1036TIP3   OH2 3113   5.066   3.024   0.537
 1036TIP3    H1 3114   5.083   3.105   0.489
 1036TIP3    H2 3115   5.110   3.036   0.621
 1037TIP3   OH2 3116   2.499   1.555   2.571
 1037TIP3    H1 3117   2.501   1.631   2.512
 1037TIP3    H2 3118   2.590   1.526   2.576
 1038TIP3   OH2 3119   3.471   5.294   0.115
 1038TIP3    H1 3120   3.489   5.278   0.208
 1038TIP3    H2 3121   3.558   5.298   0.075
 1039TIP3   OH2 3122   1.944   4.576   0.467
 1039TIP3    H1 3123   2.005   4.522   0.418
 1039TIP3    H2 3124   1.974   4.572   0.557
 1040TIP3   OH2 3125   3.269   3.012   0.942
 1040TIP3    H1 3126   3.350   2.960   0.945
 1040TIP3    H2 3127   3.273   3.057   0.857
 1041TIP3   OH2 3128   5.146   2.046   2.550
 1041TIP3    H1 3129   5.224   2.099   2.533
 1041TIP3    H2 3130   5.099   2.093   2.619
 1042TIP3   OH2 3131   2.137   4.509   4.658
 1042TIP3    H1 3132   2.178   4.490   4.574
 1042TIP3    H2 3133   2.069   4.573   4.638
 1043TIP3   OH2 3134   0.637   3.418   4.239
 1043TIP3    H1 3135   0.552   3.432   4.196
 1043TIP3    H2 3136   0.615   3.392   4.328
 1044TIP3   OH2 3137   2.646   4.898   4.687
 1044TIP3    H1 3138   2.589   4.937   4.621
 1044TIP3    H2 3139   2.678   4.972   4.738
 1045TIP3   OH2 3140   5.551   4.045   1.412
 1045TIP3    H1 3141   5.461   4.044   1.378
 1045TIP3    H2 3142   5.604   4.009   1.341
 1046TIP3   OH2 3143   2.247   4.348   1.435
 1046TIP3    H1 3144   2.248   4.434   1.479
 1046TIP3    H2 3145   2.299   4.362   1.356
 1047TIP3   OH2 3146   1.887   1.383   1.815
 1047TIP3    H1 3147   1.931   1.455   1.860
 1047TIP3    H2 3148   1.799   1.417   1.796
 1048TIP3   OH2 3149   4.544   4.371   2.806
 1048TIP3    H1 3150   4.505   4.373   2.893
 1048TIP3    H2 3151   4.495   4.436   2.756
 1049TIP3   OH2 3152   4.454   0.261   2.213
 1049TIP3    H1 3153   4.504   0.183   2.188
 1049TIP3    H2 3154   4.517   0.332   2.205
 1050TIP3   OH2 3155   3.373   3.945   3.236
 1050TIP3    H1 3156   3.349   3.873   3.177
 1050TIP3    H2 3157   3.461   3.923   3.266
 1051TIP3   OH2 3158   5.213   2.024   3.285
 1051TIP3    H1 3159   5.174   1.957   3.229
 1051TIP3    H2 3160   5.288   1.981   3.325
 1052TIP3   OH2 3161   2.906   0.702   4.616
 1052TIP3    H1 3162   2.986   0.752   4.632
 1052TIP3    H2 3163   2.849   0.761   4.568
 1053TIP3   OH2 3164   2.015   1.727   2.251
 1053TIP3    H1 3165   2.080   1.694   2.189
 1053TIP3    H2 3166   1.974   1.648   2.287
 1054TIP3   OH2 3167   2.616   3.354   2.915
 1054TIP3    H1 3168   2.616   3.449   2.905
 1054TIP3    H2 3169   2.610   3.341   3.010
 1055TIP3   OH2 3170   5.137   3.254   0.389
 1055TIP3    H1 3171   5.067   3.319   0.393
 1055TIP3    H2 3172   5.161   3.250   0.297
 1056TIP3   OH2 3173   0.499   1.593   4.807
 1056TIP3    H1 3174   0.481   1.571   4.715
 1056TIP3    H2 3175   0.445   1.671   4.823
 1057TIP3   OH2 3176   1.275   4.432   1.213
 1057TIP3    H1 3177   1.309   4.342   1.216
 1057TIP3    H2 3178   1.195   4.426   1.161
 1058TIP3   OH2 3179   5.804   4.561   4.934
 1058TIP3    H1 3180   5.714   4.578   4.964
 1058TIP3    H2 3181   5.796   4.549   4.840
 1059TIP3   OH2 3182   3.820   5.303   4.585
 1059TIP3    H1 3183   3.734   5.289   4.623
 1059TIP3    H2 3184   3.825   5.241   4.512
 1060TIP3   OH2 3185   5.235   5.539   4.704
 1060TIP3    H1 3186   5.200   5.610   4.758
 1060TIP3    H2 3187   5.198   5.459   4.743
 1061TIP3   OH2 3188   3.815   5.474   0.146
 1061TIP3    H1 3189   3.800   5.382   0.124
 1061TIP3    H2 3190   3.741   5.520   0.107
 1062TIP3   OH2 3191   1.504   3.151   3.065
 1062TIP3    H1 3192   1.525   3.109   2.982
 1062TIP3    H2 3193   1.532   3.089   3.132
 1063TIP3   OH2 3194   2.609   2.044   2.482
 1063TIP3    H1 3195   2.593   2.123   2.533
 1063TIP3    H2 3196   2.643   2.076   2.398
 1064TIP3   OH2 3197   1.128   2.824   1.438
 1064TIP3    H1 3198   1.053   2.781   1.477
 1064TIP3    H2 3199   1.172   2.867   1.512
 1065TIP3   OH2 3200   5.465   1.352   4.956
 1065TIP3    H1 3201   5.467   1.286   5.026
 1065TIP3    H2 3202   5.396   1.413   4.983
 1066TIP3   OH2 3203   4.487   5.580   0.581
 1066TIP3    H1 3204   4.415   5.577   0.645
 1066TIP3    H2 3205   4.518   5.490   0.577
 1067TIP3   OH2 3206   2.411   5.059   0.603
 1067TIP3    H1 3207   2.427   5.124   0.536
 1067TIP3    H2 3208   2.468   4.985   0.580
 1068TIP3   OH2 3209   5.149   0.075   2.595
 1068TIP3    H1 3210   5.061   0.113   2.594
 1068TIP3    H2 3211   5.202   0.139   2.643
 1069TIP3   OH2 3212   4.101   2.563   3.407
 1069TIP3    H1 3213   4.170   2.558   3.473
 1069TIP3    H2 3214   4.025   2.523   3.448
 1070TIP3   OH2 3215   4.153   4.208   0.954
 1070TIP3    H1 3216   4.126   4.241   1.040
 1070TIP3    H2 3217   4.081   4.233   0.895
 1071TIP3   OH2 3218   4.799   3.100   0.928
 1071TIP3    H1 3219   4.852   3.179   0.933
 1071TIP3    H2 3220   4.836   3.051   0.855
 1072TIP3   OH2 3221   5.480   1.676   0.559
 1072TIP3    H1 3222   5.408   1.641   0.506
 1072TIP3    H2 3223   5.436   1.731   0.624
 1073TIP3   OH2 3224   2.086   2.720   4.055
 1073TIP3    H1 3225   2.169   2.683   4.025
 1073TIP3    H2 3226   2.020   2.656   4.030
 1074TIP3   OH2 3227   3.136   4.964   0.470
 1074TIP3    H1 3228   3.201   4.980   0.401
 1074TIP3    H2 3229   3.053   4.994   0.434
 1075TIP3   OH2 3230   3.771   4.842   4.256
 1075TIP3    H1 3231   3.780   4.821   4.163
 1075TIP3    H2 3232   3.710   4.915   4.258
 1076TIP3   OH2 3233   4.128   4.655   4.343
 1076TIP3    H1 3234   4.167   4.568   4.339
 1076TIP3    H2 3235   4.082   4.657   4.427
 1077TIP3   OH2 3236   4.677   0.809   3.526
 1077TIP3    H1 3237   4.762   0.845   3.553
 1077TIP3    H2 3238   4.651   0.751   3.598
 1078TIP3   OH2 3239   2.405   1.149   0.607
 1078TIP3    H1 3240   2.353   1.108   0.676
 1078TIP3    H2 3241   2.342   1.164   0.536
 1079TIP3   OH2 3242   4.608   0.378   3.126
 1079TIP3    H1 3243   4.696   0.417   3.120
 1079TIP3    H2 3244   4.625   0.285   3.142
 1080TIP3   OH2 3245   1.748   0.672   4.207
 1080TIP3    H1 3246   1.693   0.749   4.190
 1080TIP3    H2 3247   1.696   0.618   4.266
 1081TIP3   OH2 3248   4.371   4.170   3.782
 1081TIP3    H1 3249   4.465   4.153   3.769
 1081TIP3    H2 3250   4.327   4.103   3.730
 1082TIP3   OH2 3251   3.162   0.776   2.787
 1082TIP3    H1 3252   3.095   0.771   2.855
 1082TIP3    H2 3253   3.139   0.706   2.725
 1083TIP3   OH2 3254   5.435   0.523   4.100
 1083TIP3    H1 3255   5.515   0.575   4.108
 1083TIP3    H2 3256   5.374   0.564   4.161
 1084TIP3   OH2 3257   2.867   5.754   5.077
 1084TIP3    H1 3258   2.808   5.692   5.119
 1084TIP3    H2 3259   2.923   5.785   5.149
 1085TIP3   OH2 3260   2.752   1.292   1.787
 1085TIP3    H1 3261   2.742   1.319   1.696
 1085TIP3    H2 3262   2.664   1.266   1.814
 1086TIP3   OH2 3263   1.740   2.942   2.656
 1086TIP3    H1 3264   1.745   2.941   2.560
 1086TIP3    H2 3265   1.730   2.850   2.680
 1087TIP3   OH2 3266   2.378   1.310   1.370
 1087TIP3    H1 3267   2.362   1.236   1.311
 1087TIP3    H2 3268   2.388   1.385   1.312
 1088TIP3   OH2 3269   1.401   3.994   2.012
 1088TIP3    H1 3270   1.346   3.993   2.091
 1088TIP3    H2 3271   1.442   4.081   2.013
 1089TIP3   OH2 3272   2.532   0.627   1.565
 1089TIP3    H1 3273   2.573   0.669   1.490
 1089TIP3    H2 3274   2.482   0.697   1.608
 1090TIP3   OH2 3275   3.291   2.847   5.135
 1090TIP3    H1 3276   3.255   2.781   5.193
 1090TIP3    H2 3277   3.268   2.931   5.176
 1091TIP3   OH2 3278   0.374   1.217   0.454
 1091TIP3    H1 3279   0.366   1.207   0.359
 1091TIP3    H2 3280   0.284   1.215   0.486
 1092TIP3   OH2 3281   2.141   2.215   0.280
 1092TIP3    H1 3282   2.072   2.229   0.344
 1092TIP3    H2 3283   2.203   2.156   0.324
 1093TIP3   OH2 3284   4.771   0.306   0.764
 1093TIP3    H1 3285   4.752   0.374   0.829
 1093TIP3    H2 3286   4.865   0.315   0.747
 1094TIP3   OH2 3287   0.727   5.743   2.308
 1094TIP3    H1 3288   0.817   5.758   2.337
 1094TIP3    H2 3289   0.715   5.648   2.317
 1095TIP3   OH2 3290   1.029   1.703   4.486
 1095TIP3    H1 3291   1.111   1.664   4.515
 1095TIP3    H2 3292   1.049   1.796   4.475
 1096TIP3   OH2 3293   5.333   4.380   1.882
 1096TIP3    H1 3294   5.401   4.365   1.948
 1096TIP3    H2 3295   5.352   4.315   1.814
 1097TIP3   OH2 3296   2.773   4.270   4.996
 1097TIP3    H1 3297   2.843   4.221   4.952
 1097TIP3    H2 3298   2.693   4.225   4.971
 1098TIP3   OH2 3299   1.292   1.887   0.332
 1098TIP3    H1 3300   1.242   1.824   0.384
 1098TIP3    H2 3301   1.253   1.882   0.244
 1099TIP3   OH2 3302   2.688   1.782   4.087
 1099TIP3    H1 3303   2.753   1.744   4.146
 1099TIP3    H2 3304   2.711   1.747   4.001
 1100TIP3   OH2 3305   0.110   1.466   2.150
 1100TIP3    H1 3306   0.027   1.482   2.194
 1100TIP3    H2 3307   0.088   1.462   2.057
 1101TIP3   OH2 3308   4.334   5.543   0.088
 1101TIP3    H1 3309   4.245   5.539   0.051
 1101TIP3    H2 3310   4.343   5.461   0.136
 1102TIP3   OH2 3311   0.897   4.896   1.591
 1102TIP3    H1 3312   0.881   4.984   1.557
 1102TIP3    H2 3313   0.991   4.882   1.581
 1103TIP3   OH2 3314   1.029   1.594   3.439
 1103TIP3    H1 3315   1.099   1.578   3.503
 1103TIP3    H2 3316   1.048   1.682   3.405
 1104TIP3   OH2 3317   1.995   5.727   1.821
 1104TIP3    H1 3318   1.911   5.744   1.864
 1104TIP3    H2 3319   2.008   5.633   1.831
 1105TIP3   OH2 3320   4.259   1.806   0.334
 1105TIP3    H1 3321   4.292   1.731   0.285
 1105TIP3    H2 3322   4.316   1.879   0.309
 1106TIP3   OH2 3323   3.002   4.687   3.495
 1106TIP3    H1 3324   2.934   4.738   3.452
 1106TIP3    H2 3325   3.084   4.730   3.469
 1107TIP3   OH2 3326   2.444   1.792   0.783
 1107TIP3    H1 3327   2.365   1.738   0.787
 1107TIP3    H2 3328   2.461   1.802   0.690
 1108TIP3   OH2 3329   4.666   4.909   1.338
 1108TIP3    H1 3330   4.693   4.956   1.417
 1108TIP3    H2 3331   4.578   4.941   1.319
 1109TIP3   OH2 3332   4.652   0.142   4.090
 1109TIP3    H1 3333   4.717   0.083   4.129
 1109TIP3    H2 3334   4.629   0.101   4.007
 1110TIP3   OH2 3335   2.723   5.421   0.486
 1110TIP3    H1 3336   2.799   5.455   0.533
 1110TIP3    H2 3337   2.720   5.472   0.405
 1111TIP3   OH2 3338   5.547   5.926   1.479
 1111TIP3    H1 3339   5.475   5.874   1.443
 1111TIP3    H2 3340   5.550   6.004   1.424
 1112TIP3   OH2 3341   3.076   0.068   3.292
 1112TIP3    H1 3342   2.992   0.084   3.336
 1112TIP3    H2 3343   3.092  -0.025   3.304
 1113TIP3   OH2 3344   1.244   0.959   3.523
 1113TIP3    H1 3345   1.221   1.051   3.506
 1113TIP3    H2 3346   1.280   0.959   3.612
 1114TIP3   OH2 3347   6.043   4.916   1.051
 1114TIP3    H1 3348   6.095   4.996   1.056
 1114TIP3    H2 3349   5.982   4.923   1.125
 1115TIP3   OH2 3350   5.340   0.158   1.158
 1115TIP3    H1 3351   5.382   0.193   1.236
 1115TIP3    H2 3352   5.373   0.069   1.150
 1116TIP3   OH2 3353   0.518   2.663   3.201
 1116TIP3    H1 3354   0.568   2.584   3.180
 1116TIP3    H2 3355   0.582   2.734   3.196
 1117TIP3   OH2 3356   3.722   5.216   2.159
 1117TIP3    H1 3357   3.723   5.283   2.227
 1117TIP3    H2 3358   3.630   5.209   2.132
 1118TIP3   OH2 3359   0.850   3.970   3.331
 1118TIP3    H1 3360   0.890   4.028   3.395
 1118TIP3    H2 3361   0.806   4.028   3.269
 1119TIP3   OH2 3362   1.701   4.809   1.780
 1119TIP3    H1 3363   1.681   4.878   1.717
 1119TIP3    H2 3364   1.616   4.769   1.799
 1120TIP3   OH2 3365   1.982   0.311   4.484
 1120TIP3    H1 3366   1.956   0.338   4.572
 1120TIP3    H2 3367   2.060   0.364   4.465
 1121TIP3   OH2 3368   4.462   5.356   3.341
 1121TIP3    H1 3369   4.552   5.329   3.321
 1121TIP3    H2 3370   4.463   5.451   3.335
 1122TIP3   OH2 3371   1.702   0.814   2.889
 1122TIP3    H1 3372   1.652   0.788   2.812
 1122TIP3    H2 3373   1.791   0.829   2.856
 1123TIP3   OH2 3374   5.265   3.917   0.021
 1123TIP3    H1 3375   5.316   3.963   0.088
 1123TIP3    H2 3376   5.329   3.896  -0.047
 1124TIP3   OH2 3377   5.619   4.989   4.057
 1124TIP3    H1 3378   5.525   4.977   4.042
 1124TIP3    H2 3379   5.625   5.037   4.139
 1125TIP3   OH2 3380   6.103   5.031   2.586
 1125TIP3    H1 3381   6.197   5.013   2.593
 1125TIP3    H2 3382   6.095   5.081   2.505
 1126TIP3   OH2 3383   4.442   1.157   5.059
 1126TIP3    H1 3384   4.464   1.241   5.100
 1126TIP3    H2 3385   4.475   1.164   4.970
 1127TIP3   OH2 3386   4.006   0.699   3.341
 1127TIP3    H1 3387   3.951   0.632   3.300
 1127TIP3    H2 3388   4.070   0.722   3.274
 1128TIP3   OH2 3389   0.416   3.538   3.640
 1128TIP3    H1 3390   0.335   3.588   3.643
 1128TIP3    H2 3391   0.391   3.453   3.605
 1129TIP3   OH2 3392   5.433   3.460   3.462
 1129TIP3    H1 3393   5.488   3.528   3.500
 1129TIP3    H2 3394   5.432   3.479   3.368
 1130TIP3   OH2 3395   1.180   4.601   5.112
 1130TIP3    H1 3396   1.196   4.649   5.194
 1130TIP3    H2 3397   1.193   4.666   5.043
 1131TIP3   OH2 3398   0.299   2.305   3.035
 1131TIP3    H1 3399   0.271   2.315   3.126
 1131TIP3    H2 3400   0.375   2.247   3.040
 1132TIP3   OH2 3401   1.245   3.022   3.451
 1132TIP3    H1 3402   1.258   2.982   3.537
 1132TIP3    H2 3403   1.156   3.055   3.453
 1133TIP3   OH2 3404   5.605   1.594   3.612
 1133TIP3    H1 3405   5.621   1.500   3.626
 1133TIP3    H2 3406   5.536   1.597   3.546
 1134TIP3   OH2 3407   4.807   3.674   0.980
 1134TIP3    H1 3408   4.806   3.712   0.892
 1134TIP3    H2 3409   4.770   3.586   0.968
 1135TIP3   OH2 3410   4.542   1.929   2.355
 1135TIP3    H1 3411   4.483   1.937   2.430
 1135TIP3    H2 3412   4.555   2.019   2.325
 1136TIP3   OH2 3413   0.784   1.381   2.462
 1136TIP3    H1 3414   0.716   1.336   2.513
 1136TIP3    H2 3415   0.736   1.451   2.416
 1137TIP3   OH2 3416   0.652   2.516   0.809
 1137TIP3    H1 3417   0.664   2.557   0.724
 1137TIP3    H2 3418   0.583   2.567   0.852
 1138TIP3   OH2 3419   0.228   0.378   0.060
 1138TIP3    H1 3420   0.170   0.302   0.052
 1138TIP3    H2 3421   0.283   0.358   0.135
 1139TIP3   OH2 3422   0.208   1.087   4.955
 1139TIP3    H1 3423   0.203   1.018   4.890
 1139TIP3    H2 3424   0.241   1.044   5.034
 1140TIP3   OH2 3425   1.286   4.513   4.378
 1140TIP3    H1 3426   1.208   4.567   4.372
 1140TIP3    H2 3427   1.337   4.551   4.449
 1141TIP3   OH2 3428   2.064   2.453   1.974
 1141TIP3    H1 3429   1.981   2.500   1.968
 1141TIP3    H2 3430   2.127   2.518   2.007
 1142TIP3   OH2 3431   3.070   0.438   3.171
 1142TIP3    H1 3432   3.047   0.515   3.120
 1142TIP3    H2 3433   3.039   0.458   3.260
 1143TIP3   OH2 3434   4.583   0.616   0.565
 1143TIP3    H1 3435   4.575   0.701   0.609
 1143TIP3    H2 3436   4.515   0.562   0.605
 1144TIP3   OH2 3437   3.737   2.198   1.212
 1144TIP3    H1 3438   3.663   2.255   1.193
 1144TIP3    H2 3439   3.702   2.130   1.269
 1145TIP3   OH2 3440   2.294   1.683   2.086
 1145TIP3    H1 3441   2.265   1.762   2.041
 1145TIP3    H2 3442   2.334   1.629   2.018
 1146TIP3   OH2 3443   0.505   5.632   2.660
 1146TIP3    H1 3444   0.494   5.589   2.745
 1146TIP3    H2 3445   0.600   5.636   2.648
 1147TIP3   OH2 3446   0.695   5.094   3.686
 1147TIP3    H1 3447   0.741   5.154   3.627
 1147TIP3    H2 3448   0.602   5.116   3.674
 1148TIP3   OH2 3449   3.756   2.724   4.871
 1148TIP3    H1 3450   3.661   2.714   4.869
 1148TIP3    H2 3451   3.790   2.638   4.847
 1149TIP3   OH2 3452   4.265   1.556   3.007
 1149TIP3    H1 3453   4.327   1.608   2.955
 1149TIP3    H2 3454   4.251   1.608   3.086
 1150TIP3   OH2 3455   2.325   4.416   0.123
 1150TIP3    H1 3456   2.330   4.361   0.044
 1150TIP3    H2 3457   2.379   4.492   0.103
 1151TIP3   OH2 3458   1.862   2.014   1.314
 1151TIP3    H1 3459   1.780   1.988   1.273
 1151TIP3    H2 3460   1.909   1.932   1.330
 1152TIP3   OH2 3461   5.259   0.748   1.863
 1152TIP3    H1 3462   5.285   0.656   1.861
 1152TIP3    H2 3463   5.171   0.749   1.827
 1153TIP3   OH2 3464   1.792   3.886   0.680
 1153TIP3    H1 3465   1.829   3.973   0.667
 1153TIP3    H2 3466   1.793   3.847   0.592
 1154TIP3   OH2 3467   3.330   5.692   1.692
 1154TIP3    H1 3468   3.270   5.621   1.668
 1154TIP3    H2 3469   3.392   5.696   1.619
 1155TIP3   OH2 3470   0.061   2.159   1.609
 1155TIP3    H1 3471  -0.016   2.194   1.565
 1155TIP3    H2 3472   0.093   2.232   1.662
 1156TIP3   OH2 3473   2.382   1.099   2.256
 1156TIP3    H1 3474   2.292   1.066   2.254
 1156TIP3    H2 3475   2.416   1.071   2.341
 1157TIP3   OH2 3476   5.250   4.737   0.576
 1157TIP3    H1 3477   5.282   4.727   0.486
 1157TIP3    H2 3478   5.159   4.707   0.572
 1158TIP3   OH2 3479   5.940   3.627   1.509
 1158TIP3    H1 3480   5.908   3.714   1.485
 1158TIP3    H2 3481   6.026   3.644   1.549
 1159TIP3   OH2 3482   3.782   0.235   0.608
 1159TIP3    H1 3483   3.758   0.208   0.697
 1159TIP3    H2 3484   3.764   0.329   0.606
 1160TIP3   OH2 3485   3.870   0.744   2.027
 1160TIP3    H1 3486   3.867   0.676   1.960
 1160TIP3    H2 3487   3.811   0.812   1.995
 1161TIP3   OH2 3488   6.119   5.952   3.029
 1161TIP3    H1 3489   6.104   6.028   2.973
 1161TIP3    H2 3490   6.203   5.916   2.999
 1162TIP3   OH2 3491   4.706   4.452   2.545
 1162TIP3    H1 3492   4.744   4.367   2.566
 1162TIP3    H2 3493   4.616   4.433   2.521
 1163TIP3   OH2 3494   3.623   0.172   0.105
 1163TIP3    H1 3495   3.698   0.165   0.046
 1163TIP3    H2 3496   3.662   0.181   0.192
 1164TIP3   OH2 3497   2.787   1.148   2.327
 1164TIP3    H1 3498   2.708   1.188   2.362
 1164TIP3    H2 3499   2.761   1.058   2.306
 1165TIP3   OH2 3500   1.866   2.095   4.495
 1165TIP3    H1 3501   1.923   2.021   4.474
 1165TIP3    H2 3502   1.924   2.171   4.495
 1166TIP3   OH2 3503   2.299   3.016   2.494
 1166TIP3    H1 3504   2.324   2.987   2.582
 1166TIP3    H2 3505   2.379   3.008   2.442
 1167TIP3   OH2 3506   5.105   2.962   0.084
 1167TIP3    H1 3507   5.028   3.019   0.087
 1167TIP3    H2 3508   5.093   2.902   0.158
 1168TIP3   OH2 3509   5.151   1.613   0.219
 1168TIP3    H1 3510   5.064   1.613   0.177
 1168TIP3    H2 3511   5.188   1.698   0.195
 1169TIP3   OH2 3512   0.496   0.532   1.553
 1169TIP3    H1 3513   0.482   0.530   1.647
 1169TIP3    H2 3514   0.583   0.495   1.540
 1170TIP3   OH2 3515   3.650   2.530   2.864
 1170TIP3    H1 3516   3.745   2.542   2.869
 1170TIP3    H2 3517   3.615   2.588   2.932
 1171TIP3   OH2 3518   5.517   4.045   0.070
 1171TIP3    H1 3519   5.604   4.079   0.092
 1171TIP3    H2 3520   5.516   4.043  -0.026
 1172TIP3   OH2 3521   5.543   5.179   1.022
 1172TIP3    H1 3522   5.449   5.200   1.024
 1172TIP3    H2 3523   5.585   5.265   1.021
 1173TIP3   OH2 3524   3.545   4.865   2.278
 1173TIP3    H1 3525   3.554   4.941   2.335
 1173TIP3    H2 3526   3.512   4.796   2.335
 1174TIP3   OH2 3527   1.650   5.949   3.704
 1174TIP3    H1 3528   1.603   5.995   3.773
 1174TIP3    H2 3529   1.587   5.884   3.671
 1175TIP3   OH2 3530   5.677   5.178   0.603
 1175TIP3    H1 3531   5.712   5.257   0.644
 1175TIP3    H2 3532   5.685   5.111   0.671
 1176TIP3   OH2 3533   5.045   4.489   0.528
 1176TIP3    H1 3534   5.062   4.555   0.460
 1176TIP3    H2 3535   5.110   4.420   0.510
 1177TIP3   OH2 3536   5.982   5.317   3.069
 1177TIP3    H1 3537   5.974   5.262   2.992
 1177TIP3    H2 3538   6.026   5.262   3.134
 1178TIP3   OH2 3539   2.624   3.626   2.882
 1178TIP3    H1 3540   2.706   3.583   2.858
 1178TIP3    H2 3541   2.646   3.718   2.890
 1179TIP3   OH2 3542   4.364   2.965   1.007
 1179TIP3    H1 3543   4.281   2.924   0.982
 1179TIP3    H2 3544   4.351   3.058   0.988
 1180TIP3   OH2 3545   1.454   4.797   5.047
 1180TIP3    H1 3546   1.481   4.706   5.038
 1180TIP3    H2 3547   1.427   4.822   4.958
 1181TIP3   OH2 3548   5.041   2.741   2.687
 1181TIP3    H1 3549   5.057   2.782   2.602
 1181TIP3    H2 3550   4.967   2.682   2.671
 1182TIP3   OH2 3551   3.019   3.189   0.291
 1182TIP3    H1 3552   3.000   3.101   0.325
 1182TIP3    H2 3553   3.035   3.175   0.198
 1183TIP3   OH2 3554   6.204   2.796   4.093
 1183TIP3    H1 3555   6.138   2.857   4.127
 1183TIP3    H2 3556   6.213   2.819   4.001
 1184TIP3   OH2 3557   4.515   2.617   1.847
 1184TIP3    H1 3558   4.538   2.684   1.783
 1184TIP3    H2 3559   4.593   2.606   1.901
 1185TIP3   OH2 3560   4.025   5.677   3.341
 1185TIP3    H1 3561   4.091   5.637   3.285
 1185TIP3    H2 3562   4.069   5.689   3.426
 1186TIP3   OH2 3563   3.000   1.322   4.536
 1186TIP3    H1 3564   3.077   1.357   4.490
 1186TIP3    H2 3565   3.015   1.227   4.538
 1187TIP3   OH2 3566   1.274   3.368   0.172
 1187TIP3    H1 3567   1.361   3.407   0.161
 1187TIP3    H2 3568   1.274   3.334   0.262
 1188TIP3   OH2 3569   4.019   3.892   4.396
 1188TIP3    H1 3570   4.107   3.857   4.410
 1188TIP3    H2 3571   4.028   3.946   4.317
 1189TIP3   OH2 3572   6.032   1.304   0.071
 1189TIP3    H1 3573   6.094   1.258   0.128
 1189TIP3    H2 3574   5.966   1.338   0.131
 1190TIP3   OH2 3575   0.405   3.737   2.890
 1190TIP3    H1 3576   0.318   3.702   2.911
 1190TIP3    H2 3577   0.390   3.830   2.875
 1191TIP3   OH2 3578   1.062   2.602   4.646
 1191TIP3    H1 3579   1.030   2.674   4.592
 1191TIP3    H2 3580   1.060   2.635   4.735
 1192TIP3   OH2 3581   3.344   3.177   0.314
 1192TIP3    H1 3582   3.274   3.170   0.250
 1192TIP3    H2 3583   3.323   3.255   0.365
 1193TIP3   OH2 3584   4.166   4.810   3.771
 1193TIP3    H1 3585   4.144   4.720   3.793
 1193TIP3    H2 3586   4.124   4.863   3.839
 1194TIP3   OH2 3587   5.941   2.352   0.675
 1194TIP3    H1 3588   5.941   2.443   0.704
 1194TIP3    H2 3589   5.852   2.336   0.644
 1195TIP3   OH2 3590   0.327   0.516   0.748
 1195TIP3    H1 3591   0.348   0.454   0.678
 1195TIP3    H2 3592   0.235   0.539   0.734
 1196TIP3   OH2 3593   5.409   4.393   4.702
 1196TIP3    H1 3594   5.407   4.425   4.792
 1196TIP3    H2 3595   5.420   4.472   4.649
 1197TIP3   OH2 3596   3.250   2.159   3.892
 1197TIP3    H1 3597   3.309   2.155   3.816
 1197TIP3    H2 3598   3.171   2.114   3.863
 1198TIP3   OH2 3599   6.021   4.675   2.147
 1198TIP3    H1 3600   5.982   4.691   2.062
 1198TIP3    H2 3601   6.095   4.736   2.151
 1199TIP3   OH2 3602   2.713   3.688   0.976
 1199TIP3    H1 3603   2.669   3.612   1.014
 1199TIP3    H2 3604   2.740   3.659   0.889
 1200TIP3   OH2 3605   2.589   1.358   2.919
 1200TIP3    H1 3606   2.581   1.272   2.878
 1200TIP3    H2 3607   2.618   1.339   3.009
 1201TIP3   OH2 3608   2.476   3.188   2.737
 1201TIP3    H1 3609   2.551   3.171   2.679
 1201TIP3    H2 3610   2.509   3.250   2.802
 1202TIP3   OH2 3611   1.848   0.249   1.243
 1202TIP3    H1 3612   1.856   0.278   1.334
 1202TIP3    H2 3613   1.783   0.180   1.244
 1203TIP3   OH2 3614   3.775   0.244   0.340
 1203TIP3    H1 3615   3.776   0.264   0.434
 1203TIP3    H2 3616   3.866   0.224   0.319
 1204TIP3   OH2 3617   0.710   0.828   2.449
 1204TIP3    H1 3618   0.657   0.894   2.404
 1204TIP3    H2 3619   0.645   0.766   2.484
 1205TIP3   OH2 3620   4.410   0.434   4.977
 1205TIP3    H1 3621   4.348   0.459   4.909
 1205TIP3    H2 3622   4.483   0.495   4.968
 1206TIP3   OH2 3623   4.957   3.621   2.752
 1206TIP3    H1 3624   4.902   3.588   2.823
 1206TIP3    H2 3625   5.043   3.582   2.768
 1207TIP3   OH2 3626   0.380   2.858   4.430
 1207TIP3    H1 3627   0.357   2.892   4.344
 1207TIP3    H2 3628   0.308   2.800   4.453
 1208TIP3   OH2 3629   3.368   3.426   4.368
 1208TIP3    H1 3630   3.300   3.364   4.343
 1208TIP3    H2 3631   3.403   3.393   4.450
 1209TIP3   OH2 3632   2.840   5.102   2.746
 1209TIP3    H1 3633   2.903   5.172   2.766
 1209TIP3    H2 3634   2.839   5.097   2.651
 1210TIP3   OH2 3635   0.411   0.505   3.711
 1210TIP3    H1 3636   0.376   0.433   3.763
 1210TIP3    H2 3637   0.347   0.517   3.640
 1211TIP3   OH2 3638   1.311   0.044   4.781
 1211TIP3    H1 3639   1.268   0.112   4.832
 1211TIP3    H2 3640   1.326   0.084   4.696
 1212TIP3   OH2 3641   3.613   4.049   0.542
 1212TIP3    H1 3642   3.583   4.035   0.452
 1212TIP3    H2 3643   3.687   4.109   0.533
 1213TIP3   OH2 3644   3.424   2.680   2.702
 1213TIP3    H1 3645   3.484   2.669   2.628
 1213TIP3    H2 3646   3.421   2.594   2.744
 1214TIP3   OH2 3647   4.388   5.205   2.224
 1214TIP3    H1 3648   4.393   5.278   2.286
 1214TIP3    H2 3649   4.478   5.192   2.194
 1215TIP3   OH2 3650   1.665   1.436   3.474
 1215TIP3    H1 3651   1.750   1.468   3.505
 1215TIP3    H2 3652   1.626   1.513   3.432
 1216TIP3   OH2 3653   1.371   1.771   4.481
 1216TIP3    H1 3654   1.324   1.752   4.562
 1216TIP3    H2 3655   1.434   1.839   4.505
 1217TIP3   OH2 3656   4.687   1.857   4.618
 1217TIP3    H1 3657   4.767   1.910   4.621
 1217TIP3    H2 3658   4.627   1.907   4.564
 1218TIP3   OH2 3659   3.616   2.011   2.396
 1218TIP3    H1 3660   3.636   1.923   2.429
 1218TIP3    H2 3661   3.688   2.030   2.335
 1219TIP3   OH2 3662   2.203   3.535   5.048
 1219TIP3    H1 3663   2.243   3.492   5.123
 1219TIP3    H2 3664   2.260   3.609   5.029
 1220TIP3   OH2 3665   1.054   1.035   4.220
 1220TIP3    H1 3666   1.123   1.046   4.154
 1220TIP3    H2 3667   0.983   1.092   4.190
 1221TIP3   OH2 3668   0.206   1.285   1.710
 1221TIP3    H1 3669   0.246   1.206   1.747
 1221TIP3    H2 3670   0.278   1.326   1.661
 1222TIP3   OH2 3671   2.393   5.655   2.345
 1222TIP3    H1 3672   2.479   5.616   2.359
 1222TIP3    H2 3673   2.349   5.595   2.284
 1223TIP3   OH2 3674   4.764   2.765   1.398
 1223TIP3    H1 3675   4.859   2.763   1.395
 1223TIP3    H2 3676   4.739   2.822   1.325
 1224TIP3   OH2 3677   1.070   1.673   0.854
 1224TIP3    H1 3678   1.072   1.591   0.804
 1224TIP3    H2 3679   1.163   1.696   0.865
 1225TIP3   OH2 3680   0.678   2.110   1.650
 1225TIP3    H1 3681   0.719   2.073   1.728
 1225TIP3    H2 3682   0.751   2.128   1.591
 1226TIP3   OH2 3683   4.581   1.236   2.832
 1226TIP3    H1 3684   4.510   1.258   2.773
 1226TIP3    H2 3685   4.537   1.204   2.911
 1227TIP3   OH2 3686   3.129   2.397   2.286
 1227TIP3    H1 3687   3.183   2.358   2.355
 1227TIP3    H2 3688   3.138   2.336   2.212
 1228TIP3   OH2 3689   3.922   2.450   4.835
 1228TIP3    H1 3690   3.954   2.361   4.819
 1228TIP3    H2 3691   3.911   2.454   4.930
 1229TIP3   OH2 3692   1.864   2.247   3.078
 1229TIP3    H1 3693   1.896   2.158   3.060
 1229TIP3    H2 3694   1.780   2.234   3.123
 1230TIP3   OH2 3695   3.251   5.655   5.047
 1230TIP3    H1 3696   3.298   5.603   4.982
 1230TIP3    H2 3697   3.194   5.592   5.092
 1231TIP3   OH2 3698   3.350   0.842   1.964
 1231TIP3    H1 3699   3.332   0.780   2.034
 1231TIP3    H2 3700   3.267   0.886   1.948
 1232TIP3   OH2 3701   2.050   4.934   2.236
 1232TIP3    H1 3702   2.085   4.855   2.195
 1232TIP3    H2 3703   1.966   4.948   2.192
 1233TIP3   OH2 3704   2.778   3.354   0.434
 1233TIP3    H1 3705   2.730   3.277   0.402
 1233TIP3    H2 3706   2.837   3.377   0.362
 1234TIP3   OH2 3707   4.541   4.375   1.355
 1234TIP3    H1 3708   4.618   4.319   1.365
 1234TIP3    H2 3709   4.571   4.449   1.303
 1235TIP3   OH2 3710   0.149   0.163   3.046
 1235TIP3    H1 3711   0.075   0.103   3.056
 1235TIP3    H2 3712   0.142   0.196   2.957
 1236TIP3   OH2 3713   5.341   1.535   0.976
 1236TIP3    H1 3714   5.282   1.577   1.039
 1236TIP3    H2 3715   5.361   1.450   1.016
 1237TIP3   OH2 3716   2.925   3.885   5.020
 1237TIP3    H1 3717   2.988   3.813   5.017
 1237TIP3    H2 3718   2.846   3.849   4.978
 1238TIP3   OH2 3719   4.744   1.558   3.294
 1238TIP3    H1 3720   4.685   1.531   3.224
 1238TIP3    H2 3721   4.782   1.477   3.327
 1239TIP3   OH2 3722   3.074   1.732   1.454
 1239TIP3    H1 3723   3.048   1.823   1.471
 1239TIP3    H2 3724   3.003   1.680   1.491
 1240TIP3   OH2 3725   4.142   0.670   2.991
 1240TIP3    H1 3726   4.190   0.587   3.001
 1240TIP3    H2 3727   4.078   0.652   2.922
 1241TIP3   OH2 3728   0.809   2.549   2.628
 1241TIP3    H1 3729   0.737   2.498   2.665
 1241TIP3    H2 3730   0.887   2.497   2.647
 1242TIP3   OH2 3731   0.748   0.790   1.995
 1242TIP3    H1 3732   0.764   0.723   1.929
 1242TIP3    H2 3733   0.775   0.749   2.078
 1243TIP3   OH2 3734   1.480   1.858   4.917
 1243TIP3    H1 3735   1.496   1.950   4.935
 1243TIP3    H2 3736   1.544   1.835   4.849
 1244TIP3   OH2 3737   2.520   2.782   1.084
 1244TIP3    H1 3738   2.563   2.789   1.169
 1244TIP3    H2 3739   2.583   2.736   1.029
 1245TIP3   OH2 3740   5.138   5.414   3.687
 1245TIP3    H1 3741   5.171   5.426   3.598
 1245TIP3    H2 3742   5.050   5.453   3.685
 1246TIP3   OH2 3743   6.250   1.866   4.937
 1246TIP3    H1 3744   6.344   1.853   4.931
 1246TIP3    H2 3745   6.236   1.901   5.026
 1247TIP3   OH2 3746   2.084   2.555   4.793
 1247TIP3    H1 3747   2.141   2.485   4.762
 1247TIP3    H2 3748   2.012   2.510   4.837
 1248TIP3   OH2 3749   3.855   4.348   2.123
 1248TIP3    H1 3750   3.772   4.323   2.164
 1248TIP3    H2 3751   3.898   4.265   2.104
 1249TIP3   OH2 3752   1.802   3.695   0.864
 1249TIP3    H1 3753   1.833   3.772   0.815
 1249TIP3    H2 3754   1.880   3.661   0.907
 1250TIP3   OH2 3755   3.177   1.573   0.461
 1250TIP3    H1 3756   3.161   1.571   0.367
 1250TIP3    H2 3757   3.140   1.491   0.494
 1251TIP3   OH2 3758   3.306   5.886   2.720
 1251TIP3    H1 3759   3.301   5.982   2.718
 1251TIP3    H2 3760   3.239   5.858   2.658
 1252TIP3   OH2 3761   2.454   0.690   2.420
 1252TIP3    H1 3762   2.375   0.657   2.378
 1252TIP3    H2 3763   2.443   0.667   2.512
 1253TIP3   OH2 3764   2.705   2.788   0.398
 1253TIP3    H1 3765   2.644   2.744   0.339
 1253TIP3    H2 3766   2.687   2.748   0.484
 1254TIP3   OH2 3767   0.469   2.136   1.897
 1254TIP3    H1 3768   0.429   2.064   1.946
 1254TIP3    H2 3769   0.522   2.093   1.831
 1255TIP3   OH2 3770   5.302   0.725   1.465
 1255TIP3    H1 3771   5.364   0.702   1.534
 1255TIP3    H2 3772   5.357   0.755   1.393
 1256TIP3   OH2 3773   6.300   5.135   2.987
 1256TIP3    H1 3774   6.219   5.138   2.935
 1256TIP3    H2 3775   6.350   5.211   2.957
 1257TIP3   OH2 3776   1.768   3.818   4.077
 1257TIP3    H1 3777   1.797   3.757   4.144
 1257TIP3    H2 3778   1.678   3.839   4.101
 1258TIP3   OH2 3779   2.262   1.246   1.959
 1258TIP3    H1 3780   2.236   1.323   2.010
 1258TIP3    H2 3781   2.205   1.175   1.991
 1259TIP3   OH2 3782   4.658   1.002   2.660
 1259TIP3    H1 3783   4.686   1.016   2.750
 1259TIP3    H2 3784   4.568   1.035   2.658
 1260TIP3   OH2 3785   3.501   4.748   0.521
 1260TIP3    H1 3786   3.459   4.665   0.498
 1260TIP3    H2 3787   3.500   4.748   0.617
 1261TIP3   OH2 3788   4.576   5.078   2.993
 1261TIP3    H1 3789   4.515   5.026   2.942
 1261TIP3    H2 3790   4.650   5.094   2.935
 1262TIP3   OH2 3791   4.888   0.002   1.424
 1262TIP3    H1 3792   4.862  -0.087   1.402
 1262TIP3    H2 3793   4.808   0.044   1.456
 1263TIP3   OH2 3794   6.142   0.935   3.068
 1263TIP3    H1 3795   6.230   0.898   3.064
 1263TIP3    H2 3796   6.092   0.886   3.003
 1264TIP3   OH2 3797   5.590   3.901   0.388
 1264TIP3    H1 3798   5.606   3.893   0.294
 1264TIP3    H2 3799   5.648   3.836   0.427
 1265TIP3   OH2 3800   0.100   2.270   3.397
 1265TIP3    H1 3801   0.168   2.335   3.410
 1265TIP3    H2 3802   0.035   2.314   3.342
 1266TIP3   OH2 3803   5.732   0.902   3.035
 1266TIP3    H1 3804   5.670   0.933   2.969
 1266TIP3    H2 3805   5.812   0.883   2.986
 1267TIP3   OH2 3806   0.915   4.014   0.724
 1267TIP3    H1 3807   0.916   3.926   0.685
 1267TIP3    H2 3808   0.989   4.014   0.784
 1268TIP3   OH2 3809   4.609   4.491   0.407
 1268TIP3    H1 3810   4.553   4.466   0.480
 1268TIP3    H2 3811   4.674   4.421   0.402
 1269TIP3   OH2 3812   5.167   4.049   0.694
 1269TIP3    H1 3813   5.260   4.071   0.681
 1269TIP3    H2 3814   5.143   4.000   0.616
 1270TIP3   OH2 3815   3.631   5.289   1.696
 1270TIP3    H1 3816   3.720   5.295   1.729
 1270TIP3    H2 3817   3.606   5.378   1.673
 1271TIP3   OH2 3818   3.635   3.330   0.114
 1271TIP3    H1 3819   3.613   3.418   0.084
 1271TIP3    H2 3820   3.587   3.272   0.056
 1272TIP3   OH2 3821   4.174   2.512   4.351
 1272TIP3    H1 3822   4.103   2.575   4.350
 1272TIP3    H2 3823   4.243   2.554   4.403
 1273TIP3   OH2 3824   0.864   0.570   1.846
 1273TIP3    H1 3825   0.932   0.612   1.794
 1273TIP3    H2 3826   0.909   0.541   1.926
 1274TIP3   OH2 3827   0.808   2.126   2.120
 1274TIP3    H1 3828   0.841   2.152   2.206
 1274TIP3    H2 3829   0.753   2.199   2.092
 1275TIP3   OH2 3830   0.136   5.371   2.901
 1275TIP3    H1 3831   0.050   5.409   2.887
 1275TIP3    H2 3832   0.142   5.359   2.996
 1276TIP3   OH2 3833   4.293   3.053   5.074
 1276TIP3    H1 3834   4.212   3.009   5.099
 1276TIP3    H2 3835   4.311   3.114   5.145
 1277TIP3   OH2 3836   2.392   1.291   2.599
 1277TIP3    H1 3837   2.404   1.386   2.590
 1277TIP3    H2 3838   2.308   1.274   2.556
 1278TIP3   OH2 3839   4.429   1.364   3.770
 1278TIP3    H1 3840   4.458   1.414   3.846
 1278TIP3    H2 3841   4.334   1.367   3.774
 1279TIP3   OH2 3842   5.597   4.071   0.873
 1279TIP3    H1 3843   5.547   3.992   0.893
 1279TIP3    H2 3844   5.578   4.130   0.946
 1280TIP3   OH2 3845   2.083   5.968   0.074
 1280TIP3    H1 3846   2.170   5.944   0.045
 1280TIP3    H2 3847   2.083   5.953   0.169
 1281TIP3   OH2 3848   0.486   2.537   1.193
 1281TIP3    H1 3849   0.461   2.550   1.102
 1281TIP3    H2 3850   0.466   2.621   1.236
 1282TIP3   OH2 3851   2.572   3.334   3.213
 1282TIP3    H1 3852   2.483   3.330   3.178
 1282TIP3    H2 3853   2.594   3.428   3.210
 1283TIP3   OH2 3854   0.103   1.743   3.379
 1283TIP3    H1 3855   0.168   1.701   3.323
 1283TIP3    H2 3856   0.112   1.837   3.361
 1284TIP3   OH2 3857   5.437   5.459   0.725
 1284TIP3    H1 3858   5.471   5.411   0.801
 1284TIP3    H2 3859   5.466   5.549   0.738
 1285TIP3   OH2 3860   4.225   3.834   0.469
 1285TIP3    H1 3861   4.137   3.803   0.488
 1285TIP3    H2 3862   4.266   3.845   0.554
 1286TIP3   OH2 3863   0.916   4.256   4.873
 1286TIP3    H1 3864   0.896   4.331   4.818
 1286TIP3    H2 3865   0.833   4.209   4.882
 1287TIP3   OH2 3866   4.121   0.353   3.906
 1287TIP3    H1 3867   4.037   0.335   3.947
 1287TIP3    H2 3868   4.168   0.406   3.970
 1288TIP3   OH2 3869   0.262   0.826   3.524
 1288TIP3    H1 3870   0.212   0.881   3.585
 1288TIP3    H2 3871   0.235   0.737   3.544
 1289TIP3   OH2 3872   3.397   4.890   4.612
 1289TIP3    H1 3873   3.430   4.854   4.695
 1289TIP3    H2 3874   3.469   4.944   4.579
 1290TIP3   OH2 3875   5.654   5.642   4.672
 1290TIP3    H1 3876   5.579   5.658   4.729
 1290TIP3    H2 3877   5.631   5.684   4.589
 1291TIP3   OH2 3878   4.773   4.252   3.327
 1291TIP3    H1 3879   4.711   4.271   3.398
 1291TIP3    H2 3880   4.734   4.292   3.249
 1292TIP3   OH2 3881   5.962   2.464   4.323
 1292TIP3    H1 3882   6.042   2.464   4.270
 1292TIP3    H2 3883   5.891   2.469   4.259
 1293TIP3   OH2 3884   3.206   5.455   1.610
 1293TIP3    H1 3885   3.113   5.445   1.589
 1293TIP3    H2 3886   3.249   5.453   1.524
 1294TIP3   OH2 3887   4.411   4.161   2.603
 1294TIP3    H1 3888   4.495   4.116   2.604
 1294TIP3    H2 3889   4.432   4.251   2.581
 1295TIP3   OH2 3890   0.500   4.560   2.221
 1295TIP3    H1 3891   0.535   4.614   2.150
 1295TIP3    H2 3892   0.530   4.603   2.301
 1296TIP3   OH2 3893   1.240   4.169   1.280
 1296TIP3    H1 3894   1.310   4.116   1.317
 1296TIP3    H2 3895   1.180   4.183   1.353
 1297TIP3   OH2 3896   0.546   3.172   2.503
 1297TIP3    H1 3897   0.470   3.146   2.555
 1297TIP3    H2 3898   0.546   3.112   2.428
 1298TIP3   OH2 3899   5.418   0.390   2.077
 1298TIP3    H1 3900   5.427   0.459   2.011
 1298TIP3    H2 3901   5.333   0.350   2.059
 1299TIP3   OH2 3902   6.091   4.402   2.114
 1299TIP3    H1 3903   6.037   4.480   2.127
 1299TIP3    H2 3904   6.101   4.365   2.202
 1300TIP3   OH2 3905   2.925   5.212   0.709
 1300TIP3    H1 3906   2.980   5.190   0.784
 1300TIP3    H2 3907   2.986   5.238   0.640
 1301TIP3   OH2 3908   1.370   0.831   2.832
 1301TIP3    H1 3909   1.334   0.916   2.805
 1301TIP3    H2 3910   1.404   0.793   2.752
 1302TIP3   OH2 3911   5.133   1.749   4.798
 1302TIP3    H1 3912   5.147   1.756   4.704
 1302TIP3    H2 3913   5.038   1.746   4.808
 1303TIP3   OH2 3914   1.909   2.112   3.496
 1303TIP3    H1 3915   1.959   2.173   3.441
 1303TIP3    H2 3916   1.818   2.131   3.475
 1304TIP3   OH2 3917   1.927   1.287   0.418
 1304TIP3    H1 3918   1.894   1.200   0.438
 1304TIP3    H2 3919   1.935   1.289   0.322
 1305TIP3   OH2 3920   3.537   1.450   2.545
 1305TIP3    H1 3921   3.491   1.396   2.482
 1305TIP3    H2 3922   3.627   1.419   2.543
 1306TIP3   OH2 3923   6.233   4.847   4.079
 1306TIP3    H1 3924   6.154   4.800   4.105
 1306TIP3    H2 3925   6.201   4.928   4.039
 1307TIP3   OH2 3926   3.030   0.577   2.292
 1307TIP3    H1 3927   2.998   0.495   2.253
 1307TIP3    H2 3928   3.068   0.550   2.375
 1308TIP3   OH2 3929   1.896   3.752   1.215
 1308TIP3    H1 3930   1.975   3.736   1.163
 1308TIP3    H2 3931   1.895   3.847   1.227
 1309TIP3   OH2 3932   0.593   5.098   1.376
 1309TIP3    H1 3933   0.556   5.185   1.364
 1309TIP3    H2 3934   0.520   5.038   1.359
 1310TIP3   OH2 3935   4.170   1.085   4.991
 1310TIP3    H1 3936   4.190   1.090   4.897
 1310TIP3    H2 3937   4.245   1.126   5.034
 1311TIP3   OH2 3938   1.015   0.931   4.531
 1311TIP3    H1 3939   1.035   0.953   4.440
 1311TIP3    H2 3940   0.959   1.003   4.561
 1312TIP3   OH2 3941   5.345   5.934   4.519
 1312TIP3    H1 3942   5.307   6.012   4.559
 1312TIP3    H2 3943   5.271   5.887   4.481
 1313TIP3   OH2 3944   5.245   3.189   1.377
 1313TIP3    H1 3945   5.206   3.219   1.459
 1313TIP3    H2 3946   5.269   3.269   1.331
 1314TIP3   OH2 3947   0.120   2.499   3.949
 1314TIP3    H1 3948   0.033   2.509   3.910
 1314TIP3    H2 3949   0.128   2.406   3.968
 1315TIP3   OH2 3950   2.796   3.557   0.744
 1315TIP3    H1 3951   2.781   3.620   0.673
 1315TIP3    H2 3952   2.877   3.511   0.719
 1316TIP3   OH2 3953   0.752   1.700   4.841
 1316TIP3    H1 3954   0.830   1.650   4.819
 1316TIP3    H2 3955   0.679   1.638   4.831
 1317TIP3   OH2 3956   2.148   0.427   4.925
 1317TIP3    H1 3957   2.081   0.361   4.945
 1317TIP3    H2 3958   2.205   0.385   4.862
 1318TIP3   OH2 3959   2.974   5.447   3.492
 1318TIP3    H1 3960   3.070   5.448   3.495
 1318TIP3    H2 3961   2.952   5.365   3.448
 1319TIP3   OH2 3962   0.065   3.015   3.141
 1319TIP3    H1 3963   0.110   2.944   3.096
 1319TIP3    H2 3964   0.055   2.984   3.231
 1320TIP3   OH2 3965   2.993   0.424   4.921
 1320TIP3    H1 3966   2.996   0.337   4.960
 1320TIP3    H2 3967   2.942   0.413   4.841
 1321TIP3   OH2 3968   3.949   5.065   3.649
 1321TIP3    H1 3969   3.879   5.032   3.705
 1321TIP3    H2 3970   3.904   5.121   3.585
 1322TIP3   OH2 3971   3.919   1.399   0.878
 1322TIP3    H1 3972   3.985   1.404   0.809
 1322TIP3    H2 3973   3.849   1.346   0.842
 1323TIP3   OH2 3974   4.484   3.492   0.307
 1323TIP3    H1 3975   4.431   3.562   0.268
 1323TIP3    H2 3976   4.569   3.498   0.263
 1324TIP3   OH2 3977   4.027   5.678   2.188
 1324TIP3    H1 3978   3.979   5.614   2.135
 1324TIP3    H2 3979   4.058   5.743   2.126
 1325TIP3   OH2 3980   0.707   4.243   1.726
 1325TIP3    H1 3981   0.658   4.325   1.730
 1325TIP3    H2 3982   0.704   4.216   1.634
 1326TIP3   OH2 3983   3.746   0.848   4.720
 1326TIP3    H1 3984   3.802   0.903   4.776
 1326TIP3    H2 3985   3.695   0.796   4.781
 1327TIP3   OH2 3986   1.900   1.173   3.099
 1327TIP3    H1 3987   1.822   1.137   3.057
 1327TIP3    H2 3988   1.964   1.182   3.028
 1328TIP3   OH2 3989   0.725   1.727   3.308
 1328TIP3    H1 3990   0.771   1.810   3.298
 1328TIP3    H2 3991   0.714   1.716   3.402
 1329TIP3   OH2 3992   2.363   4.689   1.735
 1329TIP3    H1 3993   2.414   4.627   1.787
 1329TIP3    H2 3994   2.400   4.774   1.756
 1330TIP3   OH2 3995   2.627   5.867   3.515
 1330TIP3    H1 3996   2.556   5.881   3.579
 1330TIP3    H2 3997   2.585   5.876   3.430
 1331TIP3   OH2 3998   5.066   1.798   0.558
 1331TIP3    H1 3999   5.064   1.885   0.518
 1331TIP3    H2 4000   5.062   1.815   0.652
 1332TIP3   OH2 4001   3.944   4.730   1.846
 1332TIP3    H1 4002   3.918   4.638   1.837
 1332TIP3    H2 4003   3.950   4.762   1.756
 1333TIP3   OH2 4004   1.496   5.862   1.300
 1333TIP3    H1 4005   1.427   5.816   1.253
 1333TIP3    H2 4006   1.538   5.794   1.353
 1334TIP3   OH2 4007   2.646   1.073   4.091
 1334TIP3    H1 4008   2.736   1.096   4.111
 1334TIP3    H2 4009   2.595   1.102   4.166
 1335TIP3   OH2 4010   5.079   2.244   3.385
 1335TIP3    H1 4011   5.129   2.174   3.342
 1335TIP3    H2 4012   5.120   2.325   3.354
 1336TIP3   OH2 4013   2.142   5.799   3.984
 1336TIP3    H1 4014   2.097   5.884   3.989
 1336TIP3    H2 4015   2.134   5.763   4.072
 1337TIP3   OH2 4016   2.672   0.798   3.739
 1337TIP3    H1 4017   2.696   0.890   3.752
 1337TIP3    H2 4018   2.647   0.768   3.827
 1338TIP3   OH2 4019   5.581   0.798   5.067
 1338TIP3    H1 4020   5.571   0.853   4.989
 1338TIP3    H2 4021   5.512   0.829   5.126
 1339TIP3   OH2 4022   1.489   1.705   1.252
 1339TIP3    H1 4023   1.468   1.648   1.326
 1339TIP3    H2 4024   1.443   1.665   1.178
 1340TIP3   OH2 4025   2.904   5.864   4.347
 1340TIP3    H1 4026   2.952   5.944   4.368
 1340TIP3    H2 4027   2.852   5.846   4.425
 1341TIP3   OH2 4028   5.686   2.645   1.961
 1341TIP3    H1 4029   5.707   2.593   2.039
 1341TIP3    H2 4030   5.602   2.609   1.931
 1342TIP3   OH2 4031   0.709   1.041   1.909
 1342TIP3    H1 4032   0.646   1.036   1.837
 1342TIP3    H2 4033   0.723   0.950   1.935
 1343TIP3   OH2 4034   3.369   4.710   0.739
 1343TIP3    H1 4035   3.366   4.678   0.829
 1343TIP3    H2 4036   3.278   4.714   0.712
 1344TIP3   OH2 4037   1.195   1.678   3.052
 1344TIP3    H1 4038   1.204   1.588   3.021
 1344TIP3    H2 4039   1.157   1.725   2.977
 1345TIP3   OH2 4040   2.808   1.610   2.330
 1345TIP3    H1 4041   2.817   1.553   2.254
 1345TIP3    H2 4042   2.879   1.583   2.388
 1346TIP3   OH2 4043   0.019   1.262   1.022
 1346TIP3    H1 4044   0.115   1.267   1.030
 1346TIP3    H2 4045  -0.011   1.349   1.046
 1347TIP3   OH2 4046   2.855   3.385   4.103
 1347TIP3    H1 4047   2.820   3.443   4.171
 1347TIP3    H2 4048   2.937   3.426   4.076
 1348TIP3   OH2 4049   5.565   4.279   2.012
 1348TIP3    H1 4050   5.516   4.211   2.058
 1348TIP3    H2 4051   5.602   4.333   2.083
 1349TIP3   OH2 4052   3.573   4.673   2.702
 1349TIP3    H1 4053   3.581   4.724   2.783
 1349TIP3    H2 4054   3.517   4.599   2.725
 1350TIP3   OH2 4055   3.357   3.967   1.824
 1350TIP3    H1 4056   3.320   3.907   1.760
 1350TIP3    H2 4057   3.297   3.963   1.899
 1351TIP3   OH2 4058   5.328   3.279   4.055
 1351TIP3    H1 4059   5.336   3.278   4.150
 1351TIP3    H2 4060   5.250   3.333   4.039
 1352TIP3   OH2 4061   4.566   4.699   0.248
 1352TIP3    H1 4062   4.485   4.739   0.279
 1352TIP3    H2 4063   4.582   4.628   0.310
 1353TIP3   OH2 4064   2.790   5.505   3.669
 1353TIP3    H1 4065   2.872   5.489   3.622
 1353TIP3    H2 4066   2.754   5.418   3.686
 1354TIP3   OH2 4067   4.859   0.264   2.395
 1354TIP3    H1 4068   4.836   0.174   2.421
 1354TIP3    H2 4069   4.918   0.253   2.321
 1355TIP3   OH2 4070   1.388   5.748   0.555
 1355TIP3    H1 4071   1.467   5.786   0.518
 1355TIP3    H2 4072   1.331   5.824   0.572
 1356TIP3   OH2 4073   6.331   4.101   2.352
 1356TIP3    H1 4074   6.330   4.075   2.444
 1356TIP3    H2 4075   6.402   4.049   2.314
 1357TIP3   OH2 4076   5.673   2.981   5.052
 1357TIP3    H1 4077   5.719   3.034   5.117
 1357TIP3    H2 4078   5.652   3.042   4.982
 1358TIP3   OH2 4079   2.880   1.124   3.012
 1358TIP3    H1 4080   2.931   1.183   2.956
 1358TIP3    H2 4081   2.886   1.162   3.099
 1359TIP3   OH2 4082   4.412   2.025   0.247
 1359TIP3    H1 4083   4.427   2.104   0.299
 1359TIP3    H2 4084   4.411   2.056   0.156
 1360TIP3   OH2 4085   0.383   2.802   0.679
 1360TIP3    H1 4086   0.398   2.894   0.701
 1360TIP3    H2 4087   0.294   2.800   0.643
 1361TIP3   OH2 4088   6.214   2.699   4.867
 1361TIP3    H1 4089   6.211   2.718   4.773
 1361TIP3    H2 4090   6.286   2.754   4.900
 1362TIP3   OH2 4091   1.906   3.260   3.755
 1362TIP3    H1 4092   1.948   3.329   3.704
 1362TIP3    H2 4093   1.907   3.292   3.845
 1363TIP3   OH2 4094   2.314   0.040   1.613
 1363TIP3    H1 4095   2.226   0.054   1.579
 1363TIP3    H2 4096   2.371   0.042   1.536
 1364TIP3   OH2 4097   3.985   5.175   2.429
 1364TIP3    H1 4098   3.991   5.090   2.472
 1364TIP3    H2 4099   4.043   5.169   2.354
 1365TIP3   OH2 4100   5.704   5.744   0.177
 1365TIP3    H1 4101   5.642   5.771   0.245
 1365TIP3    H2 4102   5.695   5.810   0.108
 1366TIP3   OH2 4103   2.216   2.608   0.694
 1366TIP3    H1 4104   2.139   2.666   0.690
 1366TIP3    H2 4105   2.226   2.587   0.787
 1367TIP3   OH2 4106   0.914   3.054   3.825
 1367TIP3    H1 4107   0.866   3.094   3.898
 1367TIP3    H2 4108   0.887   3.103   3.748
 1368TIP3   OH2 4109   2.633   0.591   4.127
 1368TIP3    H1 4110   2.573   0.648   4.078
 1368TIP3    H2 4111   2.718   0.607   4.088
 1369TIP3   OH2 4112   1.430   4.450   0.902
 1369TIP3    H1 4113   1.471   4.421   0.983
 1369TIP3    H2 4114   1.487   4.519   0.869
 1370TIP3   OH2 4115   2.332   3.869   4.604
 1370TIP3    H1 4116   2.255   3.851   4.658
 1370TIP3    H2 4117   2.344   3.964   4.610
 1371TIP3   OH2 4118   4.036   4.362   4.410
 1371TIP3    H1 4119   4.018   4.324   4.496
 1371TIP3    H2 4120   3.969   4.429   4.399
 1372TIP3   OH2 4121   2.161   3.913   2.053
 1372TIP3    H1 4122   2.076   3.952   2.076
 1372TIP3    H2 4123   2.199   3.888   2.137
 1373TIP3   OH2 4124   5.689   5.173   3.158
 1373TIP3    H1 4125   5.756   5.107   3.140
 1373TIP3    H2 4126   5.706   5.201   3.248
 1374TIP3   OH2 4127   3.117   4.752   0.663
 1374TIP3    H1 4128   3.136   4.821   0.599
 1374TIP3    H2 4129   3.031   4.775   0.698
 1375TIP3   OH2 4130   4.593   5.405   1.547
 1375TIP3    H1 4131   4.582   5.339   1.616
 1375TIP3    H2 4132   4.662   5.370   1.491
 1376TIP3   OH2 4133   2.918   0.559   0.392
 1376TIP3    H1 4134   2.827   0.582   0.410
 1376TIP3    H2 4135   2.923   0.464   0.404
 1377TIP3   OH2 4136   2.621   2.554   2.680
 1377TIP3    H1 4137   2.528   2.576   2.689
 1377TIP3    H2 4138   2.659   2.578   2.765
 1378TIP3   OH2 4139   0.008   2.923   0.329
 1378TIP3    H1 4140   0.050   2.879   0.255
 1378TIP3    H2 4141   0.070   2.914   0.401
 1379TIP3   OH2 4142   3.636   0.728   3.162
 1379TIP3    H1 4143   3.662   0.785   3.234
 1379TIP3    H2 4144   3.594   0.787   3.099
 1380TIP3   OH2 4145   2.797   5.924   1.857
 1380TIP3    H1 4146   2.704   5.943   1.846
 1380TIP3    H2 4147   2.815   5.854   1.795
 1381TIP3   OH2 4148   3.470   0.357   0.277
 1381TIP3    H1 4149   3.489   0.397   0.192
 1381TIP3    H2 4150   3.554   0.320   0.306
 1382TIP3   OH2 4151   4.923   5.314   0.721
 1382TIP3    H1 4152   4.942   5.223   0.743
 1382TIP3    H2 4153   5.008   5.352   0.698
 1383TIP3   OH2 4154   4.954   1.636   2.830
 1383TIP3    H1 4155   4.956   1.665   2.921
 1383TIP3    H2 4156   4.862   1.615   2.813
 1384TIP3   OH2 4157   4.749   3.658   2.111
 1384TIP3    H1 4158   4.736   3.744   2.150
 1384TIP3    H2 4159   4.679   3.650   2.046
 1385TIP3   OH2 4160   2.801   1.817   2.585
 1385TIP3    H1 4161   2.766   1.739   2.542
 1385TIP3    H2 4162   2.776   1.889   2.528
 1386TIP3   OH2 4163   4.043   5.637   1.247
 1386TIP3    H1 4164   4.003   5.714   1.206
 1386TIP3    H2 4165   4.045   5.657   1.340
 1387TIP3   OH2 4166   3.690   2.167   4.170
 1387TIP3    H1 4167   3.656   2.078   4.179
 1387TIP3    H2 4168   3.623   2.222   4.210
 1388TIP3   OH2 4169   2.046   5.213   1.248
 1388TIP3    H1 4170   1.976   5.202   1.312
 1388TIP3    H2 4171   2.001   5.237   1.167
 1389TIP3   OH2 4172   2.749   4.384   2.094
 1389TIP3    H1 4173   2.760   4.365   2.001
 1389TIP3    H2 4174   2.675   4.444   2.098
 1390TIP3   OH2 4175   0.205   3.683   1.483
 1390TIP3    H1 4176   0.262   3.759   1.473
 1390TIP3    H2 4177   0.246   3.615   1.431
 1391TIP3   OH2 4178   4.464   2.274   3.646
 1391TIP3    H1 4179   4.438   2.206   3.583
 1391TIP3    H2 4180   4.434   2.356   3.607
 1392TIP3   OH2 4181   6.247   0.765   4.475
 1392TIP3    H1 4182   6.186   0.803   4.538
 1392TIP3    H2 4183   6.257   0.674   4.503
 1393TIP3   OH2 4184   2.436   4.840   4.254
 1393TIP3    H1 4185   2.406   4.755   4.221
 1393TIP3    H2 4186   2.507   4.864   4.195
 1394TIP3   OH2 4187   5.258   4.825   1.402
 1394TIP3    H1 4188   5.275   4.917   1.421
 1394TIP3    H2 4189   5.165   4.813   1.423
 1395TIP3   OH2 4190   4.948   1.655   1.709
 1395TIP3    H1 4191   4.922   1.640   1.800
 1395TIP3    H2 4192   4.891   1.598   1.658
 1396TIP3   OH2 4193   4.800   4.743   4.666
 1396TIP3    H1 4194   4.848   4.781   4.592
 1396TIP3    H2 4195   4.752   4.817   4.703
 1397TIP3   OH2 4196   3.527   3.605   2.501
 1397TIP3    H1 4197   3.620   3.611   2.524
 1397TIP3    H2 4198   3.483   3.594   2.585
 1398TIP3   OH2 4199   2.561   5.917   1.144
 1398TIP3    H1 4200   2.530   6.006   1.164
 1398TIP3    H2 4201   2.586   5.881   1.229
 1399TIP3   OH2 4202   3.440   5.103   2.139
 1399TIP3    H1 4203   3.436   5.021   2.186
 1399TIP3    H2 4204   3.478   5.081   2.054
 1400TIP3   OH2 4205   6.317   3.679   3.123
 1400TIP3    H1 4206   6.223   3.666   3.112
 1400TIP3    H2 4207   6.334   3.652   3.214
 1401TIP3   OH2 4208  -0.010   1.984   1.841
 1401TIP3    H1 4209   0.030   2.019   1.761
 1401TIP3    H2 4210   0.000   1.889   1.833
 1402TIP3   OH2 4211   0.582   5.923   0.652
 1402TIP3    H1 4212   0.552   5.877   0.730
 1402TIP3    H2 4213   0.593   5.854   0.586
 1403TIP3   OH2 4214   4.996   2.912   2.893
 1403TIP3    H1 4215   4.937   2.964   2.838
 1403TIP3    H2 4216   5.007   2.830   2.845
 1404TIP3   OH2 4217   4.529   1.314   0.224
 1404TIP3    H1 4218   4.496   1.308   0.314
 1404TIP3    H2 4219   4.548   1.223   0.199
 1405TIP3   OH2 4220   2.845   2.362   2.691
 1405TIP3    H1 4221   2.842   2.404   2.606
 1405TIP3    H2 4222   2.763   2.388   2.733
 1406TIP3   OH2 4223   0.266   3.640   2.214
 1406TIP3    H1 4224   0.250   3.548   2.234
 1406TIP3    H2 4225   0.179   3.680   2.211
 1407TIP3   OH2 4226   2.660   3.121   2.202
 1407TIP3    H1 4227   2.696   3.198   2.246
 1407TIP3    H2 4228   2.736   3.066   2.182
 1408TIP3   OH2 4229   5.554   2.834   4.080
 1408TIP3    H1 4230   5.594   2.766   4.134
 1408TIP3    H2 4231   5.503   2.887   4.142
 1409TIP3   OH2 4232   1.695   5.435   4.181
 1409TIP3    H1 4233   1.676   5.372   4.251
 1409TIP3    H2 4234   1.780   5.472   4.205
 1410TIP3   OH2 4235   2.471   5.520   4.573
 1410TIP3    H1 4236   2.527   5.572   4.515
 1410TIP3    H2 4237   2.521   5.440   4.588
 1411TIP3   OH2 4238   1.186   2.205   0.089
 1411TIP3    H1 4239   1.258   2.232   0.032
 1411TIP3    H2 4240   1.194   2.109   0.093
 1412TIP3   OH2 4241   1.735   5.752   0.615
 1412TIP3    H1 4242   1.738   5.694   0.539
 1412TIP3    H2 4243   1.781   5.831   0.586
 1413TIP3   OH2 4244   1.427   0.647   3.977
 1413TIP3    H1 4245   1.351   0.632   4.033
 1413TIP3    H2 4246   1.502   0.641   4.037
 1414TIP3   OH2 4247   5.538   5.049   2.718
 1414TIP3    H1 4248   5.632   5.046   2.697
 1414TIP3    H2 4249   5.531   5.115   2.786
 1415TIP3   OH2 4250   0.507   5.243   3.435
 1415TIP3    H1 4251   0.461   5.160   3.425
 1415TIP3    H2 4252   0.587   5.232   3.384
 1416TIP3   OH2 4253   2.591   3.131   4.271
 1416TIP3    H1 4254   2.622   3.145   4.182
 1416TIP3    H2 4255   2.540   3.209   4.292
 1417TIP3   OH2 4256   3.599   5.609   3.610
 1417TIP3    H1 4257   3.634   5.694   3.582
 1417TIP3    H2 4258   3.557   5.627   3.694
 1418TIP3   OH2 4259   0.069   5.795   4.066
 1418TIP3    H1 4260  -0.009   5.846   4.089
 1418TIP3    H2 4261   0.100   5.760   4.149
 1419TIP3   OH2 4262   5.449   4.519   2.635
 1419TIP3    H1 4263   5.538   4.553   2.636
 1419TIP3    H2 4264   5.434   4.487   2.724
 1420TIP3   OH2 4265   0.809   5.427   1.624
 1420TIP3    H1 4266   0.778   5.398   1.538
 1420TIP3    H2 4267   0.884   5.483   1.605
 1421TIP3   OH2 4268   4.917   2.037   3.452
 1421TIP3    H1 4269   4.974   2.113   3.446
 1421TIP3    H2 4270   4.900   2.011   3.362
 1422TIP3   OH2 4271   0.856   1.711   1.913
 1422TIP3    H1 4272   0.823   1.622   1.901
 1422TIP3    H2 4273   0.937   1.700   1.964
 1423TIP3   OH2 4274   3.270   5.591   0.303
 1423TIP3    H1 4275   3.247   5.649   0.230
 1423TIP3    H2 4276   3.224   5.509   0.284
 1424TIP3   OH2 4277   2.946   1.009   4.193
 1424TIP3    H1 4278   2.990   0.958   4.124
 1424TIP3    H2 4279   2.873   0.954   4.221
 1425TIP3   OH2 4280   6.081   3.574   1.872
 1425TIP3    H1 4281   6.106   3.659   1.837
 1425TIP3    H2 4282   6.011   3.592   1.934
 1426TIP3   OH2 4283   1.929   0.639   2.756
 1426TIP3    H1 4284   1.972   0.572   2.703
 1426TIP3    H2 4285   1.879   0.691   2.693
 1427TIP3   OH2 4286   3.182   1.981   0.426
 1427TIP3    H1 4287   3.093   1.950   0.412
 1427TIP3    H2 4288   3.237   1.920   0.376
 1428TIP3   OH2 4289   4.434   3.735   2.206
 1428TIP3    H1 4290   4.461   3.645   2.224
 1428TIP3    H2 4291   4.508   3.788   2.234
 1429TIP3   OH2 4292   5.077   1.436   1.943
 1429TIP3    H1 4293   4.994   1.395   1.919
 1429TIP3    H2 4294   5.116   1.376   2.006
 1430TIP3   OH2 4295   3.978   2.468   1.516
 1430TIP3    H1 4296   4.064   2.504   1.494
 1430TIP3    H2 4297   3.964   2.399   1.451
 1431TIP3   OH2 4298   3.829   4.768   3.010
 1431TIP3    H1 4299   3.914   4.767   2.966
 1431TIP3    H2 4300   3.840   4.711   3.086
 1432TIP3   OH2 4301   5.588   2.852   2.843
 1432TIP3    H1 4302   5.559   2.805   2.921
 1432TIP3    H2 4303   5.508   2.887   2.805
 1433TIP3   OH2 4304   0.467   4.858   0.776
 1433TIP3    H1 4305   0.404   4.927   0.756
 1433TIP3    H2 4306   0.546   4.904   0.801
 1434TIP3   OH2 4307   4.831   5.537   3.167
 1434TIP3    H1 4308   4.791   5.517   3.252
 1434TIP3    H2 4309   4.811   5.630   3.153
 1435TIP3   OH2 4310   3.800   0.982   0.237
 1435TIP3    H1 4311   3.728   0.946   0.289
 1435TIP3    H2 4312   3.865   0.911   0.233
 1436TIP3   OH2 4313   5.275   3.390   2.275
 1436TIP3    H1 4314   5.306   3.430   2.355
 1436TIP3    H2 4315   5.182   3.413   2.271
 1437TIP3   OH2 4316   1.462   1.473   4.249
 1437TIP3    H1 4317   1.412   1.525   4.186
 1437TIP3    H2 4318   1.441   1.382   4.227
 1438TIP3   OH2 4319   0.933   0.245   2.791
 1438TIP3    H1 4320   0.897   0.195   2.864
 1438TIP3    H2 4321   0.961   0.327   2.831
 1439TIP3   OH2 4322   4.682   0.588   3.693
 1439TIP3    H1 4323   4.609   0.574   3.753
 1439TIP3    H2 4324   4.652   0.551   3.610
 1440TIP3   OH2 4325   5.015   0.185   1.830
 1440TIP3    H1 4326   4.960   0.246   1.780
 1440TIP3    H2 4327   4.962   0.106   1.838
 1441TIP3   OH2 4328   4.570   0.204   1.287
 1441TIP3    H1 4329   4.622   0.177   1.364
 1441TIP3    H2 4330   4.617   0.280   1.253
 1442TIP3   OH2 4331   5.716   0.773   0.712
 1442TIP3    H1 4332   5.627   0.767   0.748
 1442TIP3    H2 4333   5.703   0.784   0.618
 1443TIP3   OH2 4334   2.473   5.242   0.803
 1443TIP3    H1 4335   2.400   5.269   0.859
 1443TIP3    H2 4336   2.444   5.159   0.765
 1444TIP3   OH2 4337   5.406   0.540   0.680
 1444TIP3    H1 4338   5.393   0.537   0.586
 1444TIP3    H2 4339   5.411   0.633   0.701
 1445TIP3   OH2 4340   2.201   4.075   1.317
 1445TIP3    H1 4341   2.214   4.040   1.405
 1445TIP3    H2 4342   2.187   4.169   1.330
 1446TIP3   OH2 4343   3.654   1.818   2.890
 1446TIP3    H1 4344   3.560   1.801   2.899
 1446TIP3    H2 4345   3.696   1.749   2.941
 1447TIP3   OH2 4346   2.594   3.403   4.554
 1447TIP3    H1 4347   2.636   3.345   4.618
 1447TIP3    H2 4348   2.578   3.484   4.603
 1448TIP3   OH2 4349   0.403   5.284   3.063
 1448TIP3    H1 4350   0.488   5.306   3.102
 1448TIP3    H2 4351   0.341   5.295   3.135
 1449TIP3   OH2 4352   4.699   1.137   4.341
 1449TIP3    H1 4353   4.793   1.119   4.337
 1449TIP3    H2 4354   4.692   1.218   4.391
 1450TIP3   OH2 4355   2.128   2.590   0.308
 1450TIP3    H1 4356   2.059   2.643   0.348
 1450TIP3    H2 4357   2.093   2.567   0.222
 1451TIP3   OH2 4358   5.223   2.943   0.798
 1451TIP3    H1 4359   5.309   2.916   0.766
 1451TIP3    H2 4360   5.172   2.862   0.801
 1452TIP3   OH2 4361   1.940   0.656   2.225
 1452TIP3    H1 4362   1.948   0.574   2.274
 1452TIP3    H2 4363   1.942   0.724   2.293
 1453TIP3   OH2 4364   1.764   4.486   3.389
 1453TIP3    H1 4365   1.802   4.513   3.473
 1453TIP3    H2 4366   1.815   4.410   3.363
 1454TIP3   OH2 4367   3.519   5.657   1.509
 1454TIP3    H1 4368   3.580   5.631   1.578
 1454TIP3    H2 4369   3.552   5.612   1.431
 1455TIP3   OH2 4370   3.584   2.189   0.006
 1455TIP3    H1 4371   3.559   2.267   0.055
 1455TIP3    H2 4372   3.502   2.149  -0.021
 1456TIP3   OH2 4373   1.805   3.069   5.126
 1456TIP3    H1 4374   1.884   3.017   5.110
 1456TIP3    H2 4375   1.796   3.072   5.221
 1457TIP3   OH2 4376   2.738   2.574   1.231
 1457TIP3    H1 4377   2.772   2.640   1.292
 1457TIP3    H2 4378   2.667   2.532   1.278
 1458TIP3   OH2 4379   0.826   4.963   1.310
 1458TIP3    H1 4380   0.742   5.003   1.335
 1458TIP3    H2 4381   0.845   4.901   1.380
 1459TIP3   OH2 4382   5.206   0.055   3.476
 1459TIP3    H1 4383   5.111   0.058   3.484
 1459TIP3    H2 4384   5.223  -0.012   3.410
 1460TIP3   OH2 4385   3.531   1.263   5.085
 1460TIP3    H1 4386   3.532   1.305   5.171
 1460TIP3    H2 4387   3.493   1.329   5.027
 1461TIP3   OH2 4388   0.496   4.909   4.852
 1461TIP3    H1 4389   0.537   4.969   4.790
 1461TIP3    H2 4390   0.454   4.843   4.798
 1462TIP3   OH2 4391   6.120   3.236   4.345
 1462TIP3    H1 4392   6.106   3.142   4.334
 1462TIP3    H2 4393   6.056   3.277   4.286
 1463TIP3   OH2 4394   2.699   2.347   4.109
 1463TIP3    H1 4395   2.692   2.348   4.014
 1463TIP3    H2 4396   2.780   2.299   4.127
 1464TIP3   OH2 4397   3.665   0.818   0.045
 1464TIP3    H1 4398   3.731   0.887   0.053
 1464TIP3    H2 4399   3.614   0.844  -0.032
 1465TIP3   OH2 4400   4.718   4.268   1.004
 1465TIP3    H1 4401   4.668   4.215   1.065
 1465TIP3    H2 4402   4.800   4.220   0.991
 1466TIP3   OH2 4403   0.351   4.018   2.038
 1466TIP3    H1 4404   0.387   3.973   2.113
 1466TIP3    H2 4405   0.339   3.950   1.972
 1467TIP3   OH2 4406   2.042   2.248   2.184
 1467TIP3    H1 4407   2.009   2.166   2.146
 1467TIP3    H2 4408   2.034   2.312   2.113
 1468TIP3   OH2 4409   0.714   4.258   4.049
 1468TIP3    H1 4410   0.720   4.290   3.959
 1468TIP3    H2 4411   0.646   4.191   4.046
 1469TIP3   OH2 4412   2.262   4.054   5.169
 1469TIP3    H1 4413   2.224   4.055   5.081
 1469TIP3    H2 4414   2.191   4.027   5.226
 1470TIP3   OH2 4415   3.204   0.451   0.548
 1470TIP3    H1 4416   3.227   0.544   0.547
 1470TIP3    H2 4417   3.283   0.407   0.580
 1471TIP3   OH2 4418   2.226   0.326   0.285
 1471TIP3    H1 4419   2.256   0.236   0.295
 1471TIP3    H2 4420   2.298   0.370   0.238
 1472TIP3   OH2 4421   0.693   5.844   1.050
 1472TIP3    H1 4422   0.609   5.886   1.032
 1472TIP3    H2 4423   0.756   5.892   0.995
 1473TIP3   OH2 4424   3.855   5.366   5.065
 1473TIP3    H1 4425   3.900   5.333   4.987
 1473TIP3    H2 4426   3.832   5.287   5.115
 1474TIP3   OH2 4427   1.646   1.820   1.723
 1474TIP3    H1 4428   1.662   1.909   1.755
 1474TIP3    H2 4429   1.599   1.831   1.641
 1475TIP3   OH2 4430   2.439   3.593   3.980
 1475TIP3    H1 4431   2.366   3.648   4.009
 1475TIP3    H2 4432   2.406   3.504   3.984
 1476TIP3   OH2 4433   4.455   1.199   2.023
 1476TIP3    H1 4434   4.420   1.139   2.088
 1476TIP3    H2 4435   4.415   1.172   1.941
 1477TIP3   OH2 4436   0.832   3.244   2.242
 1477TIP3    H1 4437   0.885   3.239   2.321
 1477TIP3    H2 4438   0.817   3.152   2.217
 1478TIP3   OH2 4439   1.894   3.069   0.538
 1478TIP3    H1 4440   1.813   3.075   0.488
 1478TIP3    H2 4441   1.866   3.062   0.629
 1479TIP3   OH2 4442   3.374   1.286   2.132
 1479TIP3    H1 4443   3.382   1.256   2.041
 1479TIP3    H2 4444   3.352   1.206   2.181
 1480TIP3   OH2 4445   4.843   2.547   2.620
 1480TIP3    H1 4446   4.881   2.505   2.543
 1480TIP3    H2 4447   4.755   2.571   2.593
 1481TIP3   OH2 4448   4.877   1.930   2.525
 1481TIP3    H1 4449   4.968   1.943   2.550
 1481TIP3    H2 4450   4.853   2.011   2.478
 1482TIP3   OH2 4451   3.085   2.625   4.832
 1482TIP3    H1 4452   3.031   2.701   4.814
 1482TIP3    H2 4453   3.048   2.587   4.912
 1483TIP3   OH2 4454   3.220   1.776   4.987
 1483TIP3    H1 4455   3.204   1.806   5.077
 1483TIP3    H2 4456   3.273   1.698   4.997
 1484TIP3   OH2 4457   1.543   5.047   2.104
 1484TIP3    H1 4458   1.464   5.029   2.054
 1484TIP3    H2 4459   1.560   4.966   2.152
 1485TIP3   OH2 4460   2.359   1.262   3.548
 1485TIP3    H1 4461   2.436   1.205   3.548
 1485TIP3    H2 4462   2.322   1.254   3.460
 1486TIP3   OH2 4463   2.038   0.898   4.277
 1486TIP3    H1 4464   2.030   0.875   4.370
 1486TIP3    H2 4465   2.130   0.921   4.266
 1487TIP3   OH2 4466   2.148   1.851   4.140
 1487TIP3    H1 4467   2.241   1.847   4.163
 1487TIP3    H2 4468   2.148   1.873   4.047
 1488TIP3   OH2 4469   6.291   4.742   1.075
 1488TIP3    H1 4470   6.353   4.763   1.005
 1488TIP3    H2 4471   6.229   4.815   1.075
 1489TIP3   OH2 4472   2.017   0.339   1.936
 1489TIP3    H1 4473   2.012   0.429   1.967
 1489TIP3    H2 4474   2.074   0.343   1.859
 1490TIP3   OH2 4475   0.096   0.635   2.532
 1490TIP3    H1 4476   0.043   0.679   2.465
 1490TIP3    H2 4477   0.186   0.660   2.511
 1491TIP3   OH2 4478   6.244   4.527   1.437
 1491TIP3    H1 4479   6.227   4.443   1.481
 1491TIP3    H2 4480   6.284   4.581   1.505
 1492TIP3   OH2 4481   3.758   4.953   3.272
 1492TIP3    H1 4482   3.730   4.954   3.180
 1492TIP3    H2 4483   3.840   4.903   3.272
 1493TIP3   OH2 4484   3.710   2.735   1.400
 1493TIP3    H1 4485   3.727   2.641   1.412
 1493TIP3    H2 4486   3.617   2.745   1.420
 1494TIP3   OH2 4487   4.999   3.865   0.082
 1494TIP3    H1 4488   4.965   3.952   0.104
 1494TIP3    H2 4489   5.073   3.882   0.024
 1495TIP3   OH2 4490   1.419   5.927   3.509
 1495TIP3    H1 4491   1.472   5.980   3.448
 1495TIP3    H2 4492   1.329   5.951   3.488
 1496TIP3   OH2 4493   0.203   4.581   0.642
 1496TIP3    H1 4494   0.120   4.591   0.596
 1496TIP3    H2 4495   0.269   4.581   0.573
 1497TIP3   OH2 4496   5.871   5.698   2.944
 1497TIP3    H1 4497   5.860   5.788   2.974
 1497TIP3    H2 4498   5.922   5.705   2.864
 1498TIP3   OH2 4499   2.696   2.838   4.301
 1498TIP3    H1 4500   2.680   2.801   4.387
 1498TIP3    H2 4501   2.719   2.929   4.319
 1499TIP3   OH2 4502   5.228   2.161   0.455
 1499TIP3    H1 4503   5.171   2.151   0.378
 1499TIP3    H2 4504   5.284   2.083   0.454
 1500TIP3   OH2 4505   3.469   4.090   4.038
 1500TIP3    H1 4506   3.472   4.066   4.131
 1500TIP3    H2 4507   3.390   4.144   4.030
 1501TIP3   OH2 4508   3.922   2.878   1.669
 1501TIP3    H1 4509   3.954   2.932   1.741
 1501TIP3    H2 4510   3.965   2.915   1.591
 1502TIP3   OH2 4511   5.466   4.420   3.597
 1502TIP3    H1 4512   5.445   4.443   3.687
 1502TIP3    H2 4513   5.559   4.397   3.598
 1503TIP3   OH2 4514   1.121   3.459   4.677
 1503TIP3    H1 4515   1.190   3.493   4.733
 1503TIP3    H2 4516   1.145   3.487   4.588
 1504TIP3   OH2 4517   4.556   3.765   4.988
 1504TIP3    H1 4518   4.617   3.694   4.968
 1504TIP3    H2 4519   4.531   3.800   4.902
 1505TIP3   OH2 4520   3.676   0.944   2.291
 1505TIP3    H1 4521   3.728   0.945   2.211
 1505TIP3    H2 4522   3.643   0.854   2.297
 1506TIP3   OH2 4523   3.771   5.677   2.379
 1506TIP3    H1 4524   3.835   5.737   2.341
 1506TIP3    H2 4525   3.815   5.593   2.381
 1507TIP3   OH2 4526   3.692   4.316   1.011
 1507TIP3    H1 4527   3.658   4.326   0.923
 1507TIP3    H2 4528   3.627   4.358   1.068
 1508TIP3   OH2 4529   6.301   1.220   2.144
 1508TIP3    H1 4530   6.305   1.227   2.049
 1508TIP3    H2 4531   6.381   1.263   2.175
 1509TIP3   OH2 4532   3.521   2.610   0.317
 1509TIP3    H1 4533   3.458   2.592   0.247
 1509TIP3    H2 4534   3.523   2.705   0.324
 1510TIP3   OH2 4535   1.415   0.303   1.133
 1510TIP3    H1 4536   1.496   0.342   1.099
 1510TIP3    H2 4537   1.425   0.305   1.228
 1511TIP3   OH2 4538   5.602   5.924   4.240
 1511TIP3    H1 4539   5.515   5.937   4.278
 1511TIP3    H2 4540   5.591   5.949   4.148
 1512TIP3   OH2 4541   3.789   3.743   3.081
 1512TIP3    H1 4542   3.752   3.768   2.997
 1512TIP3    H2 4543   3.775   3.820   3.137
 1513TIP3   OH2 4544   5.478   2.215   4.249
 1513TIP3    H1 4545   5.385   2.199   4.233
 1513TIP3    H2 4546   5.511   2.131   4.281
 1514TIP3   OH2 4547   3.754   3.596   1.685
 1514TIP3    H1 4548   3.684   3.636   1.738
 1514TIP3    H2 4549   3.816   3.667   1.671
 1515TIP3   OH2 4550   1.172   4.778   1.241
 1515TIP3    H1 4551   1.237   4.708   1.238
 1515TIP3    H2 4552   1.169   4.805   1.333
 1516TIP3   OH2 4553   4.195   2.661   1.209
 1516TIP3    H1 4554   4.173   2.724   1.140
 1516TIP3    H2 4555   4.164   2.577   1.175
 1517TIP3   OH2 4556   4.141   0.555   2.516
 1517TIP3    H1 4557   4.107   0.611   2.446
 1517TIP3    H2 4558   4.233   0.578   2.523
 1518TIP3   OH2 4559   4.904   5.776   1.261
 1518TIP3    H1 4560   4.956   5.846   1.222
 1518TIP3    H2 4561   4.887   5.806   1.351
 1519TIP3   OH2 4562   4.666   0.951   2.921
 1519TIP3    H1 4563   4.643   1.000   3.000
 1519TIP3    H2 4564   4.608   0.876   2.922
 1520TIP3   OH2 4565   1.140   0.691   0.344
 1520TIP3    H1 4566   1.049   0.675   0.319
 1520TIP3    H2 4567   1.154   0.784   0.329
 1521TIP3   OH2 4568   5.792   0.790   1.381
 1521TIP3    H1 4569   5.738   0.849   1.329
 1521TIP3    H2 4570   5.762   0.803   1.471
 1522TIP3   OH2 4571   1.087   2.030   4.156
 1522TIP3    H1 4572   1.073   2.036   4.061
 1522TIP3    H2 4573   1.161   2.088   4.174
 1523TIP3   OH2 4574   6.261   1.532   3.331
 1523TIP3    H1 4575   6.304   1.577   3.404
 1523TIP3    H2 4576   6.324   1.541   3.259
 1524TIP3   OH2 4577   1.494   3.142   0.056
 1524TIP3    H1 4578   1.448   3.104  -0.020
 1524TIP3    H2 4579   1.525   3.227   0.025
 1525TIP3   OH2 4580   4.021   2.069   4.087
 1525TIP3    H1 4581   3.975   2.056   4.170
 1525TIP3    H2 4582   4.052   1.981   4.063
 1526TIP3   OH2 4583   2.414   0.961   0.326
 1526TIP3    H1 4584   2.504   0.931   0.341
 1526TIP3    H2 4585   2.359   0.887   0.353
 1527TIP3   OH2 4586   2.490   0.518   1.298
 1527TIP3    H1 4587   2.584   0.505   1.308
 1527TIP3    H2 4588   2.480   0.613   1.290
 1528TIP3   OH2 4589   1.675   2.973   0.423
 1528TIP3    H1 4590   1.663   2.923   0.342
 1528TIP3    H2 4591   1.700   2.907   0.487
 1529TIP3   OH2 4592   0.970   0.030   3.675
 1529TIP3    H1 4593   0.920   0.109   3.652
 1529TIP3    H2 4594   1.001  -0.004   3.591
 1530TIP3   OH2 4595   0.336   3.571   4.746
 1530TIP3    H1 4596   0.307   3.486   4.780
 1530TIP3    H2 4597   0.412   3.593   4.800
 1531TIP3   OH2 4598   4.037   0.635   4.196
 1531TIP3    H1 4599   4.088   0.581   4.256
 1531TIP3    H2 4600   3.955   0.587   4.184
 1532TIP3   OH2 4601   5.239   2.098   3.601
 1532TIP3    H1 4602   5.298   2.141   3.663
 1532TIP3    H2 4603   5.243   2.154   3.523
 1533TIP3   OH2 4604   3.288   4.780   3.780
 1533TIP3    H1 4605   3.345   4.742   3.713
 1533TIP3    H2 4606   3.338   4.772   3.861
 1534TIP3   OH2 4607   1.016   1.375   2.621
 1534TIP3    H1 4608   0.937   1.391   2.569
 1534TIP3    H2 4609   1.023   1.280   2.624
 1535TIP3   OH2 4610   4.330   4.419   4.295
 1535TIP3    H1 4611   4.330   4.392   4.203
 1535TIP3    H2 4612   4.416   4.394   4.327
 1536TIP3   OH2 4613   5.333   0.240   0.724
 1536TIP3    H1 4614   5.337   0.330   0.691
 1536TIP3    H2 4615   5.250   0.236   0.771
 1537TIP3   OH2 4616   0.874   4.000   0.401
 1537TIP3    H1 4617   0.850   4.051   0.479
 1537TIP3    H2 4618   0.958   3.961   0.423
 1538TIP3   OH2 4619   1.190   1.014   1.512
 1538TIP3    H1 4620   1.157   0.926   1.533
 1538TIP3    H2 4621   1.194   1.015   1.417
 1539TIP3   OH2 4622   4.948   3.114   1.635
 1539TIP3    H1 4623   4.894   3.075   1.704
 1539TIP3    H2 4624   4.902   3.092   1.554
 1540TIP3   OH2 4625   4.036   1.991   0.494
 1540TIP3    H1 4626   4.126   2.011   0.521
 1540TIP3    H2 4627   4.020   2.050   0.420
 1541TIP3   OH2 4628   5.797   4.590   2.932
 1541TIP3    H1 4629   5.804   4.499   2.961
 1541TIP3    H2 4630   5.741   4.631   2.998
 1542TIP3   OH2 4631   2.104   0.582   0.100
 1542TIP3    H1 4632   2.126   0.513   0.037
 1542TIP3    H2 4633   2.056   0.647   0.047
 1543TIP3   OH2 4634   4.352   5.586   2.192
 1543TIP3    H1 4635   4.303   5.569   2.111
 1543TIP3    H2 4636   4.304   5.655   2.237
 1544TIP3   OH2 4637   0.174   5.586   2.382
 1544TIP3    H1 4638   0.195   5.662   2.328
 1544TIP3    H2 4639   0.255   5.567   2.429
 1545TIP3   OH2 4640   5.924   3.188   5.095
 1545TIP3    H1 4641   5.927   3.211   5.002
 1545TIP3    H2 4642   6.014   3.198   5.125
 1546TIP3   OH2 4643   2.229   4.018   0.570
 1546TIP3    H1 4644   2.202   4.087   0.509
 1546TIP3    H2 4645   2.257   3.946   0.513
 1547TIP3   OH2 4646   5.975   4.396   4.195
 1547TIP3    H1 4647   5.887   4.361   4.183
 1547TIP3    H2 4648   6.033   4.326   4.165
 1548TIP3   OH2 4649   2.291   5.459   1.496
 1548TIP3    H1 4650   2.216   5.472   1.438
 1548TIP3    H2 4651   2.296   5.540   1.547
 1549TIP3   OH2 4652   3.871   3.964   1.107
 1549TIP3    H1 4653   3.840   4.023   1.177
 1549TIP3    H2 4654   3.825   3.995   1.029
 1550TIP3   OH2 4655   3.267   5.492   3.867
 1550TIP3    H1 4656   3.269   5.585   3.843
 1550TIP3    H2 4657   3.183   5.481   3.912
 1551TIP3   OH2 4658   4.537   5.314   2.430
 1551TIP3    H1 4659   4.494   5.231   2.451
 1551TIP3    H2 4660   4.630   5.298   2.447
 1552TIP3   OH2 4661   3.805   2.927   0.471
 1552TIP3    H1 4662   3.772   2.912   0.383
 1552TIP3    H2 4663   3.765   3.010   0.498
 1553TIP3   OH2 4664   0.599   0.276   2.985
 1553TIP3    H1 4665   0.665   0.208   2.994
 1553TIP3    H2 4666   0.591   0.314   3.073
 1554TIP3   OH2 4667   5.115   3.723   0.285
 1554TIP3    H1 4668   5.050   3.763   0.227
 1554TIP3    H2 4669   5.189   3.704   0.228
 1555TIP3   OH2 4670   3.772   3.571   0.580
 1555TIP3    H1 4671   3.851   3.616   0.551
 1555TIP3    H2 4672   3.789   3.479   0.565
 1556TIP3   OH2 4673   2.525   0.722   3.510
 1556TIP3    H1 4674   2.559   0.761   3.590
 1556TIP3    H2 4675   2.467   0.652   3.539
 1557TIP3   OH2 4676   5.632   1.467   1.619
 1557TIP3    H1 4677   5.684   1.526   1.565
 1557TIP3    H2 4678   5.593   1.523   1.686
 1558TIP3   OH2 4679   2.895   5.302   4.960
 1558TIP3    H1 4680   2.956   5.362   4.916
 1558TIP3    H2 4681   2.811   5.348   4.958
 1559TIP3   OH2 4682   2.399   4.249   1.673
 1559TIP3    H1 4683   2.344   4.273   1.598
 1559TIP3    H2 4684   2.338   4.205   1.733
 1560TIP3   OH2 4685   4.516   1.742   4.297
 1560TIP3    H1 4686   4.462   1.778   4.226
 1560TIP3    H2 4687   4.473   1.773   4.377
 1561TIP3   OH2 4688   0.889   5.897   3.681
 1561TIP3    H1 4689   0.841   5.909   3.763
 1561TIP3    H2 4690   0.824   5.911   3.612
 1562TIP3   OH2 4691   0.934   4.568   3.113
 1562TIP3    H1 4692   0.887   4.609   3.040
 1562TIP3    H2 4693   0.882   4.588   3.190
 1563TIP3   OH2 4694   2.891   0.652   3.052
 1563TIP3    H1 4695   2.821   0.589   3.070
 1563TIP3    H2 4696   2.851   0.738   3.064
 1564TIP3   OH2 4697   5.164   0.605   3.960
 1564TIP3    H1 4698   5.069   0.607   3.945
 1564TIP3    H2 4699   5.189   0.514   3.949
 1565TIP3   OH2 4700   5.725   3.376   1.778
 1565TIP3    H1 4701   5.724   3.471   1.786
 1565TIP3    H2 4702   5.808   3.356   1.734
 1566TIP3   OH2 4703   0.713   3.454   3.534
 1566TIP3    H1 4704   0.711   3.534   3.481
 1566TIP3    H2 4705   0.703   3.486   3.624
 1567TIP3   OH2 4706   3.420   1.920   1.482
 1567TIP3    H1 4707   3.485   1.854   1.505
 1567TIP3    H2 4708   3.343   1.870   1.456
 1568TIP3   OH2 4709   1.387   2.526   4.941
 1568TIP3    H1 4710   1.372   2.544   5.033
 1568TIP3    H2 4711   1.314   2.470   4.915
 1569TIP3   OH2 4712   4.594   5.234   0.961
 1569TIP3    H1 4713   4.517   5.188   0.995
 1569TIP3    H2 4714   4.664   5.169   0.965
 1570TIP3   OH2 4715   5.904   3.357   2.193
 1570TIP3    H1 4716   5.954   3.293   2.142
 1570TIP3    H2 4717   5.891   3.430   2.133
 1571TIP3   OH2 4718   3.549   0.268   3.128
 1571TIP3    H1 4719   3.596   0.188   3.108
 1571TIP3    H2 4720   3.497   0.286   3.050
 1572TIP3   OH2 4721   1.118   4.530   2.362
 1572TIP3    H1 4722   1.142   4.444   2.328
 1572TIP3    H2 4723   1.178   4.545   2.435
 1573TIP3   OH2 4724   5.198   5.299   1.230
 1573TIP3    H1 4725   5.119   5.353   1.242
 1573TIP3    H2 4726   5.268   5.362   1.212
 1574TIP3   OH2 4727   0.272   0.401   1.788
 1574TIP3    H1 4728   0.242   0.400   1.879
 1574TIP3    H2 4729   0.244   0.486   1.755
 1575TIP3   OH2 4730   3.941   0.884   3.939
 1575TIP3    H1 4731   3.949   0.792   3.914
 1575TIP3    H2 4732   3.956   0.933   3.858
 1576TIP3   OH2 4733   1.909   2.173   1.813
 1576TIP3    H1 4734   1.915   2.120   1.734
 1576TIP3    H2 4735   1.998   2.174   1.848
 1577TIP3   OH2 4736   3.962   2.756   2.759
 1577TIP3    H1 4737   3.893   2.703   2.719
 1577TIP3    H2 4738   3.967   2.725   2.849
 1578TIP3   OH2 4739   3.006   2.145   2.816
 1578TIP3    H1 4740   3.085   2.194   2.795
 1578TIP3    H2 4741   2.934   2.207   2.803
 1579TIP3   OH2 4742   6.126   1.827   0.592
 1579TIP3    H1 4743   6.086   1.747   0.628
 1579TIP3    H2 4744   6.062   1.896   0.610
 1580TIP3   OH2 4745   1.180   5.688   4.993
 1580TIP3    H1 4746   1.257   5.639   4.965
 1580TIP3    H2 4747   1.212   5.747   5.061
 1581TIP3   OH2 4748   2.583   5.297   5.148
 1581TIP3    H1 4749   2.511   5.346   5.187
 1581TIP3    H2 4750   2.594   5.335   5.061
 1582TIP3   OH2 4751   0.387   1.681   0.633
 1582TIP3    H1 4752   0.330   1.758   0.643
 1582TIP3    H2 4753   0.337   1.622   0.576
 1583TIP3   OH2 4754   5.276   0.956   0.378
 1583TIP3    H1 4755   5.243   0.871   0.407
 1583TIP3    H2 4756   5.203   1.017   0.396
 1584TIP3   OH2 4757   3.109   3.764   3.464
 1584TIP3    H1 4758   3.124   3.855   3.439
 1584TIP3    H2 4759   3.015   3.760   3.483
 1585TIP3   OH2 4760   5.139   2.418   1.925
 1585TIP3    H1 4761   5.112   2.416   2.017
 1585TIP3    H2 4762   5.226   2.379   1.924
 1586TIP3   OH2 4763   3.692   1.734   1.491
 1586TIP3    H1 4764   3.712   1.653   1.446
 1586TIP3    H2 4765   3.745   1.800   1.446
 1587TIP3   OH2 4766   5.261   1.040   2.354
 1587TIP3    H1 4767   5.264   1.076   2.265
 1587TIP3    H2 4768   5.191   1.089   2.397
 1588TIP3   OH2 4769   5.572   2.414   4.088
 1588TIP3    H1 4770   5.487   2.452   4.063
 1588TIP3    H2 4771   5.550   2.327   4.123
 1589TIP3   OH2 4772   0.377   5.337   0.834
 1589TIP3    H1 4773   0.376   5.342   0.738
 1589TIP3    H2 4774   0.285   5.335   0.859
 1590TIP3   OH2 4775   4.290   1.480   2.070
 1590TIP3    H1 4776   4.269   1.464   1.978
 1590TIP3    H2 4777   4.286   1.394   2.111
 1591TIP3   OH2 4778   4.702   1.032   2.002
 1591TIP3    H1 4779   4.777   1.027   2.061
 1591TIP3    H2 4780   4.630   1.064   2.057
 1592TIP3   OH2 4781   2.352   3.886   3.295
 1592TIP3    H1 4782   2.324   3.972   3.326
 1592TIP3    H2 4783   2.434   3.902   3.249
 1593TIP3   OH2 4784   1.895   2.276   0.945
 1593TIP3    H1 4785   1.953   2.339   0.988
 1593TIP3    H2 4786   1.817   2.273   1.000
 1594TIP3   OH2 4787   3.986   0.000   0.520
 1594TIP3    H1 4788   4.015   0.025   0.608
 1594TIP3    H2 4789   3.931   0.073   0.492
 1595TIP3   OH2 4790   5.719   3.014   4.369
 1595TIP3    H1 4791   5.713   2.932   4.418
 1595TIP3    H2 4792   5.780   3.068   4.420
 1596TIP3   OH2 4793   1.267   5.053   4.395
 1596TIP3    H1 4794   1.341   4.993   4.401
 1596TIP3    H2 4795   1.293   5.117   4.329
 1597TIP3   OH2 4796   1.222   1.674   0.505
 1597TIP3    H1 4797   1.295   1.650   0.561
 1597TIP3    H2 4798   1.166   1.596   0.504
 1598TIP3   OH2 4799   5.279   0.023   3.734
 1598TIP3    H1 4800   5.256   0.021   3.641
 1598TIP3    H2 4801   5.194   0.017   3.779
 1599TIP3   OH2 4802   3.615   4.177   4.542
 1599TIP3    H1 4803   3.690   4.156   4.486
 1599TIP3    H2 4804   3.571   4.094   4.556
 1600TIP3   OH2 4805   4.606   1.474   4.317
 1600TIP3    H1 4806   4.582   1.564   4.296
 1600TIP3    H2 4807   4.527   1.423   4.299
 1601TIP3   OH2 4808   6.071   4.316   3.431
 1601TIP3    H1 4809   6.020   4.388   3.467
 1601TIP3    H2 4810   6.124   4.356   3.361
 1602TIP3   OH2 4811   2.469   4.569   2.978
 1602TIP3    H1 4812   2.559   4.537   2.971
 1602TIP3    H2 4813   2.450   4.603   2.890
 1603TIP3   OH2 4814   0.263   1.765   1.214
 1603TIP3    H1 4815   0.340   1.796   1.167
 1603TIP3    H2 4816   0.218   1.845   1.242
 1604TIP3   OH2 4817   5.555   1.283   0.659
 1604TIP3    H1 4818   5.545   1.336   0.581
 1604TIP3    H2 4819   5.467   1.280   0.697
 1605TIP3   OH2 4820   5.148   2.369   1.585
 1605TIP3    H1 4821   5.219   2.390   1.524
 1605TIP3    H2 4822   5.165   2.279   1.612
 1606TIP3   OH2 4823   4.815   3.785   0.315
 1606TIP3    H1 4824   4.739   3.747   0.272
 1606TIP3    H2 4825   4.803   3.764   0.408
 1607TIP3   OH2 4826   0.386   4.539   1.758
 1607TIP3    H1 4827   0.351   4.603   1.821
 1607TIP3    H2 4828   0.382   4.584   1.674
 1608TIP3   OH2 4829   1.701   5.881   3.149
 1608TIP3    H1 4830   1.610   5.851   3.155
 1608TIP3    H2 4831   1.745   5.836   3.221
 1609TIP3   OH2 4832   2.595   3.428   1.126
 1609TIP3    H1 4833   2.503   3.407   1.109
 1609TIP3    H2 4834   2.643   3.353   1.093
 1610TIP3   OH2 4835   5.592   5.636   3.018
 1610TIP3    H1 4836   5.598   5.695   3.093
 1610TIP3    H2 4837   5.679   5.638   2.978
 1611TIP3   OH2 4838   2.541   3.455   5.044
 1611TIP3    H1 4839   2.486   3.418   5.113
 1611TIP3    H2 4840   2.515   3.408   4.965
 1612TIP3   OH2 4841   2.793   4.214   1.358
 1612TIP3    H1 4842   2.843   4.288   1.393
 1612TIP3    H2 4843   2.706   4.224   1.397
 1613TIP3   OH2 4844   6.069   1.066   2.650
 1613TIP3    H1 4845   6.129   0.993   2.637
 1613TIP3    H2 4846   6.115   1.141   2.614
 1614TIP3   OH2 4847   0.444   5.249   3.969
 1614TIP3    H1 4848   0.475   5.339   3.965
 1614TIP3    H2 4849   0.417   5.228   3.879
 1615TIP3   OH2 4850   6.269   1.095   3.234
 1615TIP3    H1 4851   6.315   1.143   3.164
 1615TIP3    H2 4852   6.219   1.029   3.187
 1616TIP3   OH2 4853   3.518   4.418   1.190
 1616TIP3    H1 4854   3.430   4.455   1.181
 1616TIP3    H2 4855   3.524   4.392   1.282
 1617TIP3   OH2 4856   3.911   1.542   1.154
 1617TIP3    H1 4857   3.922   1.487   1.076
 1617TIP3    H2 4858   3.995   1.587   1.164
 1618TIP3   OH2 4859   1.852   1.623   2.573
 1618TIP3    H1 4860   1.878   1.545   2.525
 1618TIP3    H2 4861   1.813   1.681   2.507
 1619TIP3   OH2 4862   5.931   5.869   2.382
 1619TIP3    H1 4863   5.908   5.947   2.332
 1619TIP3    H2 4864   5.859   5.860   2.446
 1620TIP3   OH2 4865   5.593   0.936   3.675
 1620TIP3    H1 4866   5.686   0.926   3.697
 1620TIP3    H2 4867   5.583   1.027   3.649
 1621TIP3   OH2 4868   2.800   1.232   4.863
 1621TIP3    H1 4869   2.794   1.151   4.810
 1621TIP3    H2 4870   2.888   1.230   4.900
 1622TIP3   OH2 4871   3.660   4.395   0.733
 1622TIP3    H1 4872   3.638   4.419   0.643
 1622TIP3    H2 4873   3.736   4.449   0.755
 1623TIP3   OH2 4874   5.837   2.509   4.067
 1623TIP3    H1 4875   5.773   2.469   4.126
 1623TIP3    H2 4876   5.828   2.460   3.986
 1624TIP3   OH2 4877   4.187   3.431   0.036
 1624TIP3    H1 4878   4.261   3.372   0.027
 1624TIP3    H2 4879   4.110   3.375   0.025
 1625TIP3   OH2 4880  -0.014   1.821   3.666
 1625TIP3    H1 4881   0.035   1.893   3.626
 1625TIP3    H2 4882   0.030   1.742   3.636
 1626TIP3   OH2 4883   3.149   5.502   0.798
 1626TIP3    H1 4884   3.176   5.555   0.873
 1626TIP3    H2 4885   3.225   5.447   0.779
 1627TIP3   OH2 4886   6.218   2.502   3.849
 1627TIP3    H1 4887   6.165   2.574   3.816
 1627TIP3    H2 4888   6.154   2.438   3.881
 1628TIP3   OH2 4889   1.469   4.692   1.902
 1628TIP3    H1 4890   1.482   4.684   1.996
 1628TIP3    H2 4891   1.393   4.638   1.883
 1629TIP3   OH2 4892   3.266   0.006   2.383
 1629TIP3    H1 4893   3.178   0.041   2.373
 1629TIP3    H2 4894   3.309   0.067   2.444
 1630TIP3   OH2 4895   6.013   1.508   1.846
 1630TIP3    H1 4896   5.982   1.429   1.800
 1630TIP3    H2 4897   6.027   1.572   1.776
 1631TIP3   OH2 4898   0.084   0.275   2.809
 1631TIP3    H1 4899   0.141   0.248   2.737
 1631TIP3    H2 4900   0.117   0.360   2.837
 1632TIP3   OH2 4901   3.120   0.029   4.113
 1632TIP3    H1 4902   3.142   0.043   4.205
 1632TIP3    H2 4903   3.198   0.056   4.065
 1633TIP3   OH2 4904   1.899   4.749   4.118
 1633TIP3    H1 4905   1.934   4.791   4.196
 1633TIP3    H2 4906   1.811   4.721   4.143
 1634TIP3   OH2 4907   5.571   2.814   1.350
 1634TIP3    H1 4908   5.550   2.802   1.257
 1634TIP3    H2 4909   5.554   2.907   1.367
 1635TIP3   OH2 4910   1.155   0.810   2.595
 1635TIP3    H1 4911   1.124   0.720   2.587
 1635TIP3    H2 4912   1.114   0.857   2.522
 1636TIP3   OH2 4913   1.764   5.634   0.372
 1636TIP3    H1 4914   1.855   5.662   0.385
 1636TIP3    H2 4915   1.767   5.538   0.379
 1637TIP3   OH2 4916   3.551   3.671   3.978
 1637TIP3    H1 4917   3.509   3.621   3.908
 1637TIP3    H2 4918   3.504   3.644   4.057
 1638TIP3   OH2 4919   3.296   2.598   0.865
 1638TIP3    H1 4920   3.341   2.676   0.897
 1638TIP3    H2 4921   3.294   2.608   0.770
 1639TIP3   OH2 4922   4.112   2.218   1.878
 1639TIP3    H1 4923   4.059   2.166   1.818
 1639TIP3    H2 4924   4.083   2.308   1.863
 1640TIP3   OH2 4925   1.451   5.981   3.024
 1640TIP3    H1 4926   1.416   5.941   2.943
 1640TIP3    H2 4927   1.383   5.964   3.090
 1641TIP3   OH2 4928   4.633   4.582   4.382
 1641TIP3    H1 4929   4.628   4.602   4.476
 1641TIP3    H2 4930   4.568   4.640   4.342
 1642TIP3   OH2 4931   5.935   3.513   3.966
 1642TIP3    H1 4932   5.868   3.573   3.998
 1642TIP3    H2 4933   5.905   3.490   3.878
 1643TIP3   OH2 4934   3.065   5.211   4.375
 1643TIP3    H1 4935   3.032   5.145   4.314
 1643TIP3    H2 4936   3.086   5.162   4.455
 1644TIP3   OH2 4937   5.608   0.158   3.281
 1644TIP3    H1 4938   5.584   0.065   3.290
 1644TIP3    H2 4939   5.524   0.203   3.276
 1645TIP3   OH2 4940   5.875   3.568   3.510
 1645TIP3    H1 4941   5.885   3.660   3.487
 1645TIP3    H2 4942   5.965   3.537   3.523
 1646TIP3   OH2 4943   2.560   5.765   2.015
 1646TIP3    H1 4944   2.539   5.796   1.927
 1646TIP3    H2 4945   2.573   5.671   2.005
 1647TIP3   OH2 4946   1.616   5.816   0.270
 1647TIP3    H1 4947   1.685   5.833   0.206
 1647TIP3    H2 4948   1.646   5.739   0.317
 1648TIP3   OH2 4949   3.820   4.090   4.380
 1648TIP3    H1 4950   3.834   3.997   4.359
 1648TIP3    H2 4951   3.897   4.134   4.344
 1649TIP3   OH2 4952   4.168   4.572   1.650
 1649TIP3    H1 4953   4.230   4.594   1.581
 1649TIP3    H2 4954   4.082   4.592   1.613
 1650TIP3   OH2 4955   3.429   5.573   0.003
 1650TIP3    H1 4956   3.429   5.495   0.058
 1650TIP3    H2 4957   3.377   5.637   0.051
 1651TIP3   OH2 4958   2.126   3.245   4.052
 1651TIP3    H1 4959   2.053   3.219   4.108
 1651TIP3    H2 4960   2.109   3.337   4.031
 1652TIP3   OH2 4961   3.378   0.522   1.577
 1652TIP3    H1 4962   3.312   0.515   1.646
 1652TIP3    H2 4963   3.428   0.441   1.583
 1653TIP3   OH2 4964   4.487   3.884   4.115
 1653TIP3    H1 4965   4.414   3.919   4.063
 1653TIP3    H2 4966   4.471   3.916   4.204
 1654TIP3   OH2 4967   3.010   2.564   4.167
 1654TIP3    H1 4968   2.994   2.542   4.075
 1654TIP3    H2 4969   3.104   2.554   4.178
 1655TIP3   OH2 4970   4.438   0.096   3.389
 1655TIP3    H1 4971   4.472   0.112   3.477
 1655TIP3    H2 4972   4.347   0.069   3.402
 1656TIP3   OH2 4973   4.459   3.941   3.457
 1656TIP3    H1 4974   4.551   3.949   3.435
 1656TIP3    H2 4975   4.452   3.855   3.500
 1657TIP3   OH2 4976   2.275   5.062   5.112
 1657TIP3    H1 4977   2.344   5.023   5.058
 1657TIP3    H2 4978   2.270   5.006   5.189
 1658TIP3   OH2 4979   5.810   0.875   1.928
 1658TIP3    H1 4980   5.891   0.891   1.880
 1658TIP3    H2 4981   5.818   0.929   2.007
 1659TIP3   OH2 4982   6.248   1.012   2.338
 1659TIP3    H1 4983   6.292   1.053   2.413
 1659TIP3    H2 4984   6.236   1.082   2.275
 1660TIP3   OH2 4985   2.683   3.046   2.621
 1660TIP3    H1 4986   2.774   3.075   2.610
 1660TIP3    H2 4987   2.677   3.021   2.713
 1661TIP3   OH2 4988   6.129   2.588   1.044
 1661TIP3    H1 4989   6.054   2.599   1.102
 1661TIP3    H2 4990   6.205   2.605   1.100
 1662TIP3   OH2 4991   0.150   3.849   0.708
 1662TIP3    H1 4992   0.106   3.916   0.657
 1662TIP3    H2 4993   0.177   3.893   0.789
 1663TIP3   OH2 4994   4.373   1.035   3.303
 1663TIP3    H1 4995   4.362   0.954   3.253
 1663TIP3    H2 4996   4.391   1.006   3.392
 1664TIP3   OH2 4997   0.558   2.815   2.291
 1664TIP3    H1 4998   0.648   2.784   2.304
 1664TIP3    H2 4999   0.538   2.791   2.200
 1665TIP3   OH2 5000   4.009   4.659   4.657
 1665TIP3    H1 5001   4.057   4.588   4.701
 1665TIP3    H2 5002   3.918   4.629   4.657
 1666TIP3   OH2 5003   1.327   5.134   1.255
 1666TIP3    H1 5004   1.371   5.207   1.301
 1666TIP3    H2 5005   1.276   5.091   1.323
 1667TIP3   OH2 5006   5.373   4.357   1.185
 1667TIP3    H1 5007   5.388   4.395   1.099
 1667TIP3    H2 5008   5.444   4.295   1.198
 1668TIP3   OH2 5009   6.101   5.963   2.122
 1668TIP3    H1 5010   6.157   5.948   2.198
 1668TIP3    H2 5011   6.158   6.008   2.059
 1669TIP3   OH2 5012   0.464   5.071   2.881
 1669TIP3    H1 5013   0.546   5.117   2.866
 1669TIP3    H2 5014   0.398   5.124   2.837
 1670TIP3   OH2 5015   6.126   3.933   3.654
 1670TIP3    H1 5016   6.127   4.029   3.656
 1670TIP3    H2 5017   6.157   3.908   3.741
 1671TIP3   OH2 5018   3.123   3.717   4.979
 1671TIP3    H1 5019   3.139   3.656   5.051
 1671TIP3    H2 5020   3.084   3.664   4.910
 1672TIP3   OH2 5021   3.745   0.210   1.155
 1672TIP3    H1 5022   3.737   0.175   1.066
 1672TIP3    H2 5023   3.839   0.227   1.166
 1673TIP3   OH2 5024   0.811   0.361   0.860
 1673TIP3    H1 5025   0.789   0.448   0.827
 1673TIP3    H2 5026   0.748   0.303   0.818
 1674TIP3   OH2 5027   2.201   4.557   3.550
 1674TIP3    H1 5028   2.140   4.484   3.538
 1674TIP3    H2 5029   2.266   4.524   3.612
 1675TIP3   OH2 5030   5.033   5.026   1.911
 1675TIP3    H1 5031   5.100   5.079   1.955
 1675TIP3    H2 5032   5.077   4.988   1.836
 1676TIP3   OH2 5033   0.452   5.691   3.424
 1676TIP3    H1 5034   0.396   5.752   3.473
 1676TIP3    H2 5035   0.488   5.633   3.491
 1677TIP3   OH2 5036   4.229   2.913   1.698
 1677TIP3    H1 5037   4.233   2.986   1.636
 1677TIP3    H2 5038   4.150   2.930   1.750
 1678TIP3   OH2 5039   2.321   0.739   3.182
 1678TIP3    H1 5040   2.326   0.755   3.277
 1678TIP3    H2 5041   2.278   0.654   3.175
 1679TIP3   OH2 5042   2.504   5.530   0.650
 1679TIP3    H1 5043   2.556   5.450   0.656
 1679TIP3    H2 5044   2.428   5.506   0.598
 1680TIP3   OH2 5045   3.799   5.838   4.399
 1680TIP3    H1 5046   3.749   5.919   4.402
 1680TIP3    H2 5047   3.744   5.777   4.349
 1681TIP3   OH2 5048   5.357   0.659   2.336
 1681TIP3    H1 5049   5.378   0.697   2.251
 1681TIP3    H2 5050   5.298   0.586   2.316
 1682TIP3   OH2 5051   2.518   2.977   3.158
 1682TIP3    H1 5052   2.431   2.992   3.120
 1682TIP3    H2 5053   2.503   2.911   3.226
 1683TIP3   OH2 5054   0.060   1.953   0.509
 1683TIP3    H1 5055   0.007   2.004   0.448
 1683TIP3    H2 5056   0.015   1.868   0.515
 1684TIP3   OH2 5057   4.545   1.880   0.653
 1684TIP3    H1 5058   4.610   1.922   0.595
 1684TIP3    H2 5059   4.479   1.948   0.667
 1685TIP3   OH2 5060   0.825   4.547   0.226
 1685TIP3    H1 5061   0.733   4.555   0.200
 1685TIP3    H2 5062   0.866   4.627   0.194
 1686TIP3   OH2 5063   5.484   4.839   0.876
 1686TIP3    H1 5064   5.525   4.774   0.932
 1686TIP3    H2 5065   5.554   4.901   0.856
 1687TIP3   OH2 5066   2.374   5.659   4.233
 1687TIP3    H1 5067   2.446   5.712   4.199
 1687TIP3    H2 5068   2.398   5.569   4.211
 1688TIP3   OH2 5069   2.606   2.848   1.344
 1688TIP3    H1 5070   2.573   2.832   1.433
 1688TIP3    H2 5071   2.564   2.930   1.318
 1689TIP3   OH2 5072   5.736   1.128   4.894
 1689TIP3    H1 5073   5.760   1.213   4.858
 1689TIP3    H2 5074   5.673   1.149   4.963
 1690TIP3   OH2 5075   1.919   4.587   3.588
 1690TIP3    H1 5076   1.958   4.612   3.672
 1690TIP3    H2 5077   1.876   4.666   3.557
 1691TIP3   OH2 5078   4.707   5.795   2.010
 1691TIP3    H1 5079   4.702   5.751   1.925
 1691TIP3    H2 5080   4.715   5.888   1.989
 1692TIP3   OH2 5081   3.583   3.169   4.708
 1692TIP3    H1 5082   3.565   3.105   4.777
 1692TIP3    H2 5083   3.587   3.117   4.628
 1693TIP3   OH2 5084   3.258   5.386   2.036
 1693TIP3    H1 5085   3.240   5.327   1.963
 1693TIP3    H2 5086   3.236   5.334   2.114
 1694TIP3   OH2 5087   3.194   1.393   2.634
 1694TIP3    H1 5088   3.234   1.341   2.565
 1694TIP3    H2 5089   3.268   1.436   2.678
 1695TIP3   OH2 5090   6.142   0.977   1.399
 1695TIP3    H1 5091   6.052   0.998   1.426
 1695TIP3    H2 5092   6.175   1.059   1.361
 1696TIP3   OH2 5093   1.654   0.042   1.279
 1696TIP3    H1 5094   1.611   0.001   1.204
 1696TIP3    H2 5095   1.619  -0.004   1.355
 1697TIP3   OH2 5096   0.909   4.825   4.531
 1697TIP3    H1 5097   0.826   4.864   4.557
 1697TIP3    H2 5098   0.887   4.767   4.458
 1698TIP3   OH2 5099   0.866   4.801   2.795
 1698TIP3    H1 5100   0.774   4.827   2.802
 1698TIP3    H2 5101   0.865   4.707   2.813
 1699TIP3   OH2 5102   0.019   1.342   0.090
 1699TIP3    H1 5103  -0.028   1.392   0.157
 1699TIP3    H2 5104   0.034   1.256   0.130
 1700TIP3   OH2 5105   3.477   4.167   0.748
 1700TIP3    H1 5106   3.536   4.241   0.741
 1700TIP3    H2 5107   3.500   4.109   0.675
 1701TIP3   OH2 5108   2.652   2.000   0.069
 1701TIP3    H1 5109   2.629   2.004   0.162
 1701TIP3    H2 5110   2.656   1.907   0.048
 1702TIP3   OH2 5111   3.900   2.584   3.965
 1702TIP3    H1 5112   3.877   2.491   3.960
 1702TIP3    H2 5113   3.851   2.616   4.041
 1703TIP3   OH2 5114   2.968   5.653   1.297
 1703TIP3    H1 5115   3.027   5.704   1.241
 1703TIP3    H2 5116   2.900   5.622   1.238
 1704TIP3   OH2 5117   2.254   5.128   2.214
 1704TIP3    H1 5118   2.232   5.201   2.157
 1704TIP3    H2 5119   2.179   5.069   2.208
 1705TIP3   OH2 5120   4.158   0.160   1.390
 1705TIP3    H1 5121   4.189   0.113   1.467
 1705TIP3    H2 5122   4.190   0.109   1.316
 1706TIP3   OH2 5123   0.048   1.138   2.963
 1706TIP3    H1 5124   0.022   1.046   2.958
 1706TIP3    H2 5125   0.143   1.135   2.979
 1707TIP3   OH2 5126   0.856   5.926   1.954
 1707TIP3    H1 5127   0.792   5.980   2.001
 1707TIP3    H2 5128   0.936   5.933   2.005
 1708TIP3   OH2 5129   4.587   2.796   1.621
 1708TIP3    H1 5130   4.540   2.858   1.565
 1708TIP3    H2 5131   4.657   2.761   1.565
 1709TIP3   OH2 5132   4.700   5.286   4.059
 1709TIP3    H1 5133   4.652   5.210   4.028
 1709TIP3    H2 5134   4.715   5.269   4.152
 1710TIP3   OH2 5135   4.830   0.825   2.305
 1710TIP3    H1 5136   4.849   0.738   2.340
 1710TIP3    H2 5137   4.824   0.811   2.210
 1711TIP3   OH2 5138   5.227   2.658   0.594
 1711TIP3    H1 5139   5.163   2.605   0.641
 1711TIP3    H2 5140   5.177   2.698   0.522
 1712TIP3   OH2 5141   1.386   4.459   2.772
 1712TIP3    H1 5142   1.303   4.476   2.729
 1712TIP3    H2 5143   1.362   4.420   2.856
 1713TIP3   OH2 5144   6.225   5.906   2.389
 1713TIP3    H1 5145   6.177   5.980   2.424
 1713TIP3    H2 5146   6.158   5.840   2.369
 1714TIP3   OH2 5147   4.134   1.117   0.789
 1714TIP3    H1 5148   4.190   1.176   0.839
 1714TIP3    H2 5149   4.193   1.049   0.756
 1715TIP3   OH2 5150   2.664   3.089   0.464
 1715TIP3    H1 5151   2.606   3.030   0.417
 1715TIP3    H2 5152   2.743   3.036   0.481
 1716TIP3   OH2 5153   3.643   3.778   0.829
 1716TIP3    H1 5154   3.605   3.864   0.811
 1716TIP3    H2 5155   3.621   3.726   0.752
 1717TIP3   OH2 5156   4.334   4.562   1.400
 1717TIP3    H1 5157   4.384   4.484   1.380
 1717TIP3    H2 5158   4.270   4.569   1.329
 1718TIP3   OH2 5159   1.871   3.314   0.878
 1718TIP3    H1 5160   1.856   3.344   0.789
 1718TIP3    H2 5161   1.935   3.375   0.915
 1719TIP3   OH2 5162   4.150   5.456   4.266
 1719TIP3    H1 5163   4.130   5.524   4.202
 1719TIP3    H2 5164   4.092   5.474   4.340
 1720TIP3   OH2 5165   1.151   4.133   4.746
 1720TIP3    H1 5166   1.089   4.163   4.812
 1720TIP3    H2 5167   1.226   4.192   4.756
 1721TIP3   OH2 5168   1.697   0.098   3.737
 1721TIP3    H1 5169   1.702   0.025   3.798
 1721TIP3    H2 5170   1.607   0.128   3.743
 1722TIP3   OH2 5171   3.295   0.065   3.463
 1722TIP3    H1 5172   3.232   0.087   3.394
 1722TIP3    H2 5173   3.253   0.095   3.544
 1723TIP3   OH2 5174   1.478   2.991   2.236
 1723TIP3    H1 5175   1.425   2.980   2.157
 1723TIP3    H2 5176   1.502   3.084   2.236
 1724TIP3   OH2 5177   1.995   4.370   1.739
 1724TIP3    H1 5178   1.907   4.343   1.713
 1724TIP3    H2 5179   1.995   4.465   1.729
 1725TIP3   OH2 5180   3.970   4.853   0.327
 1725TIP3    H1 5181   3.926   4.771   0.351
 1725TIP3    H2 5182   4.014   4.881   0.407
 1726TIP3   OH2 5183   6.047   1.286   2.102
 1726TIP3    H1 5184   6.131   1.263   2.140
 1726TIP3    H2 5185   6.042   1.237   2.020
 1727TIP3   OH2 5186   4.470   2.201   2.293
 1727TIP3    H1 5187   4.472   2.289   2.255
 1727TIP3    H2 5188   4.377   2.184   2.307
 1728TIP3   OH2 5189   4.034   3.685   3.214
 1728TIP3    H1 5190   3.981   3.722   3.143
 1728TIP3    H2 5191   4.007   3.734   3.291
 1729TIP3   OH2 5192   3.572   4.929   0.191
 1729TIP3    H1 5193   3.650   4.923   0.135
 1729TIP3    H2 5194   3.524   4.849   0.172
 1730TIP3   OH2 5195   1.154   2.625   0.511
 1730TIP3    H1 5196   1.148   2.551   0.451
 1730TIP3    H2 5197   1.118   2.592   0.593
 1731TIP3   OH2 5198   5.887   3.895   1.455
 1731TIP3    H1 5199   5.808   3.909   1.402
 1731TIP3    H2 5200   5.952   3.954   1.418
 1732TIP3   OH2 5201   0.634   1.366   0.814
 1732TIP3    H1 5202   0.716   1.409   0.837
 1732TIP3    H2 5203   0.566   1.419   0.855
 1733TIP3   OH2 5204   6.107   4.498   1.840
 1733TIP3    H1 5205   6.096   4.458   1.753
 1733TIP3    H2 5206   6.040   4.567   1.843
 1734TIP3   OH2 5207   1.255   4.455   0.262
 1734TIP3    H1 5208   1.231   4.407   0.341
 1734TIP3    H2 5209   1.212   4.540   0.271
 1735TIP3   OH2 5210   2.336   2.104   3.770
 1735TIP3    H1 5211   2.422   2.080   3.803
 1735TIP3    H2 5212   2.334   2.199   3.775
 1736TIP3   OH2 5213   2.878   4.361   1.834
 1736TIP3    H1 5214   2.848   4.279   1.795
 1736TIP3    H2 5215   2.973   4.359   1.826
 1737TIP3   OH2 5216   1.136   2.975   5.100
 1737TIP3    H1 5217   1.083   2.956   5.022
 1737TIP3    H2 5218   1.212   3.022   5.066
 1738TIP3   OH2 5219   5.070   1.840   0.838
 1738TIP3    H1 5220   5.044   1.926   0.870
 1738TIP3    H2 5221   5.025   1.778   0.895
 1739TIP3   OH2 5222   3.562   5.966   1.119
 1739TIP3    H1 5223   3.489   5.986   1.060
 1739TIP3    H2 5224   3.552   5.873   1.140
 1740TIP3   OH2 5225   3.887   3.591   0.150
 1740TIP3    H1 5226   3.799   3.583   0.113
 1740TIP3    H2 5227   3.909   3.503   0.178
 1741TIP3   OH2 5228   3.198   2.300   4.277
 1741TIP3    H1 5229   3.282   2.298   4.322
 1741TIP3    H2 5230   3.206   2.232   4.210
 1742TIP3   OH2 5231   1.662   4.476   1.885
 1742TIP3    H1 5232   1.738   4.508   1.932
 1742TIP3    H2 5233   1.612   4.555   1.863
 1743TIP3   OH2 5234   5.776   4.751   3.581
 1743TIP3    H1 5235   5.724   4.785   3.509
 1743TIP3    H2 5236   5.770   4.818   3.649
 1744TIP3   OH2 5237   5.900   1.064   1.445
 1744TIP3    H1 5238   5.847   1.051   1.367
 1744TIP3    H2 5239   5.856   1.012   1.513
 1745TIP3   OH2 5240   3.123   4.776   4.229
 1745TIP3    H1 5241   3.151   4.689   4.259
 1745TIP3    H2 5242   3.039   4.760   4.186
 1746TIP3   OH2 5243   4.649   5.085   2.131
 1746TIP3    H1 5244   4.684   5.017   2.074
 1746TIP3    H2 5245   4.621   5.038   2.209
 1747TIP3   OH2 5246   4.490   1.423   5.162
 1747TIP3    H1 5247   4.571   1.473   5.168
 1747TIP3    H2 5248   4.421   1.488   5.177
 1748TIP3   OH2 5249   1.877   5.746   2.974
 1748TIP3    H1 5250   1.830   5.818   3.016
 1748TIP3    H2 5251   1.853   5.752   2.882
 1749TIP3   OH2 5252   3.789   5.337   2.635
 1749TIP3    H1 5253   3.823   5.377   2.555
 1749TIP3    H2 5254   3.774   5.410   2.694
 1750TIP3   OH2 5255   2.450   2.612   5.129
 1750TIP3    H1 5256   2.444   2.609   5.033
 1750TIP3    H2 5257   2.370   2.568   5.159
 1751TIP3   OH2 5258   3.642   2.291   4.849
 1751TIP3    H1 5259   3.643   2.281   4.754
 1751TIP3    H2 5260   3.727   2.331   4.870
 1752TIP3   OH2 5261   6.029   3.776   3.081
 1752TIP3    H1 5262   5.959   3.764   3.145
 1752TIP3    H2 5263   5.986   3.809   3.002
 1753TIP3   OH2 5264   1.868   2.418   4.915
 1753TIP3    H1 5265   1.779   2.439   4.887
 1753TIP3    H2 5266   1.860   2.338   4.965
 1754TIP3   OH2 5267   2.237   1.278   3.020
 1754TIP3    H1 5268   2.171   1.289   2.952
 1754TIP3    H2 5269   2.312   1.241   2.975
 1755TIP3   OH2 5270   3.471   1.126   2.797
 1755TIP3    H1 5271   3.531   1.076   2.742
 1755TIP3    H2 5272   3.384   1.097   2.768
 1756TIP3   OH2 5273   0.700   2.421   4.127
 1756TIP3    H1 5274   0.777   2.365   4.121
 1756TIP3    H2 5275   0.734   2.509   4.142
 1757TIP3   OH2 5276   1.655   2.805   3.321
 1757TIP3    H1 5277   1.719   2.847   3.264
 1757TIP3    H2 5278   1.576   2.858   3.313
 1758TIP3   OH2 5279   5.479   2.899   1.926
 1758TIP3    H1 5280   5.401   2.888   1.872
 1758TIP3    H2 5281   5.445   2.924   2.012
 1759TIP3   OH2 5282   5.136   1.713   1.970
 1759TIP3    H1 5283   5.110   1.620   1.965
 1759TIP3    H2 5284   5.127   1.744   1.880
 1760TIP3   OH2 5285   5.620   0.485   2.721
 1760TIP3    H1 5286   5.603   0.470   2.814
 1760TIP3    H2 5287   5.648   0.576   2.716
 1761TIP3   OH2 5288   4.009   3.115   4.786
 1761TIP3    H1 5289   3.969   3.052   4.726
 1761TIP3    H2 5290   3.935   3.156   4.832
 1762TIP3   OH2 5291   1.383   2.133   1.693
 1762TIP3    H1 5292   1.455   2.108   1.752
 1762TIP3    H2 5293   1.308   2.144   1.751
 1763TIP3   OH2 5294   3.856   3.181   4.534
 1763TIP3    H1 5295   3.831   3.102   4.582
 1763TIP3    H2 5296   3.859   3.250   4.601
 1764TIP3   OH2 5297   5.535   5.033   1.349
 1764TIP3    H1 5298   5.448   5.073   1.355
 1764TIP3    H2 5299   5.590   5.103   1.313
 1765TIP3   OH2 5300   5.620   4.821   5.138
 1765TIP3    H1 5301   5.551   4.886   5.144
 1765TIP3    H2 5302   5.600   4.772   5.058
 1766TIP3   OH2 5303   4.172   2.521   4.070
 1766TIP3    H1 5304   4.080   2.522   4.042
 1766TIP3    H2 5305   4.168   2.509   4.165
 1767TIP3   OH2 5306   1.728   1.299   4.976
 1767TIP3    H1 5307   1.805   1.249   5.001
 1767TIP3    H2 5308   1.708   1.353   5.052
 1768TIP3   OH2 5309   3.870   4.469   1.829
 1768TIP3    H1 5310   3.850   4.470   1.923
 1768TIP3    H2 5311   3.943   4.407   1.822
 1769TIP3   OH2 5312   2.490   4.664   3.754
 1769TIP3    H1 5313   2.480   4.758   3.741
 1769TIP3    H2 5314   2.569   4.641   3.704
 1770TIP3   OH2 5315   2.607   1.228   3.185
 1770TIP3    H1 5316   2.602   1.313   3.230
 1770TIP3    H2 5317   2.697   1.225   3.150
 1771TIP3   OH2 5318   3.662   3.198   2.599
 1771TIP3    H1 5319   3.744   3.181   2.646
 1771TIP3    H2 5320   3.690   3.236   2.516
 1772TIP3   OH2 5321   2.842   2.235   0.746
 1772TIP3    H1 5322   2.796   2.155   0.720
 1772TIP3    H2 5323   2.831   2.294   0.671
 1773TIP3   OH2 5324   6.086   4.654   0.743
 1773TIP3    H1 5325   6.095   4.562   0.716
 1773TIP3    H2 5326   6.015   4.652   0.808
 1774TIP3   OH2 5327   0.119   0.242   1.398
 1774TIP3    H1 5328   0.133   0.159   1.352
 1774TIP3    H2 5329   0.112   0.217   1.490
 1775TIP3   OH2 5330   2.056   3.524   4.102
 1775TIP3    H1 5331   1.967   3.496   4.081
 1775TIP3    H2 5332   2.060   3.521   4.197
 1776TIP3   OH2 5333   1.149   0.324   4.822
 1776TIP3    H1 5334   1.221   0.344   4.881
 1776TIP3    H2 5335   1.100   0.254   4.866
 1777TIP3   OH2 5336   2.283   3.755   2.243
 1777TIP3    H1 5337   2.219   3.707   2.296
 1777TIP3    H2 5338   2.317   3.689   2.182
 1778TIP3   OH2 5339   1.779   5.615   0.871
 1778TIP3    H1 5340   1.695   5.610   0.915
 1778TIP3    H2 5341   1.761   5.663   0.790
 1779TIP3   OH2 5342   2.616   0.402   2.429
 1779TIP3    H1 5343   2.599   0.474   2.369
 1779TIP3    H2 5344   2.643   0.444   2.511
 1780TIP3   OH2 5345   0.671   4.257   5.079
 1780TIP3    H1 5346   0.670   4.172   5.035
 1780TIP3    H2 5347   0.762   4.269   5.105
 1781TIP3   OH2 5348   5.187   5.834   3.033
 1781TIP3    H1 5349   5.252   5.873   2.974
 1781TIP3    H2 5350   5.238   5.793   3.102
 1782TIP3   OH2 5351   4.291   5.934   2.735
 1782TIP3    H1 5352   4.301   5.872   2.807
 1782TIP3    H2 5353   4.355   5.907   2.670
 1783TIP3   OH2 5354   3.467   5.568   0.478
 1783TIP3    H1 5355   3.402   5.585   0.410
 1783TIP3    H2 5356   3.550   5.594   0.438
 1784TIP3   OH2 5357   4.199   5.364   1.047
 1784TIP3    H1 5358   4.108   5.344   1.069
 1784TIP3    H2 5359   4.249   5.292   1.086
 1785TIP3   OH2 5360   6.306   3.496   4.486
 1785TIP3    H1 5361   6.326   3.423   4.427
 1785TIP3    H2 5362   6.392   3.532   4.509
 1786TIP3   OH2 5363   2.869   1.453   5.093
 1786TIP3    H1 5364   2.946   1.408   5.058
 1786TIP3    H2 5365   2.795   1.400   5.063
 1787TIP3   OH2 5366   6.377   3.746   2.144
 1787TIP3    H1 5367   6.300   3.768   2.197
 1787TIP3    H2 5368   6.350   3.669   2.094
 1788TIP3   OH2 5369   2.079   2.831   1.597
 1788TIP3    H1 5370   2.139   2.901   1.620
 1788TIP3    H2 5371   2.002   2.875   1.561
 1789TIP3   OH2 5372   2.717   3.036   3.704
 1789TIP3    H1 5373   2.758   2.950   3.711
 1789TIP3    H2 5374   2.642   3.022   3.646
 1790TIP3   OH2 5375   3.455   1.063   4.917
 1790TIP3    H1 5376   3.395   1.130   4.952
 1790TIP3    H2 5377   3.536   1.111   4.901
 1791TIP3   OH2 5378   2.438   4.653   0.055
 1791TIP3    H1 5379   2.440   4.705  -0.025
 1791TIP3    H2 5380   2.506   4.691   0.110
 1792TIP3   OH2 5381   1.982   2.851   5.086
 1792TIP3    H1 5382   2.066   2.869   5.129
 1792TIP3    H2 5383   1.967   2.758   5.102
 1793TIP3   OH2 5384   3.612   5.292   1.131
 1793TIP3    H1 5385   3.625   5.197   1.135
 1793TIP3    H2 5386   3.542   5.304   1.066
 1794TIP3   OH2 5387   2.308   5.497   2.092
 1794TIP3    H1 5388   2.404   5.497   2.089
 1794TIP3    H2 5389   2.283   5.413   2.053
 1795TIP3   OH2 5390   3.126   3.520   1.174
 1795TIP3    H1 5391   3.070   3.470   1.115
 1795TIP3    H2 5392   3.108   3.484   1.261
 1796TIP3   OH2 5393   4.534   1.652   2.318
 1796TIP3    H1 5394   4.604   1.636   2.381
 1796TIP3    H2 5395   4.518   1.746   2.324
 1797TIP3   OH2 5396   6.115   3.611   3.789
 1797TIP3    H1 5397   6.173   3.671   3.835
 1797TIP3    H2 5398   6.073   3.560   3.858
 1798TIP3   OH2 5399   4.000   0.257   1.103
 1798TIP3    H1 5400   4.066   0.196   1.073
 1798TIP3    H2 5401   4.021   0.340   1.060
 1799TIP3   OH2 5402   4.963   5.473   2.446
 1799TIP3    H1 5403   4.964   5.394   2.499
 1799TIP3    H2 5404   5.046   5.517   2.466
 1800TIP3   OH2 5405   1.819   5.207   1.388
 1800TIP3    H1 5406   1.806   5.207   1.483
 1800TIP3    H2 5407   1.737   5.241   1.353
 1801TIP3   OH2 5408   2.448   3.236   0.540
 1801TIP3    H1 5409   2.432   3.253   0.447
 1801TIP3    H2 5410   2.519   3.172   0.541
 1802TIP3   OH2 5411   5.404   0.587   4.860
 1802TIP3    H1 5412   5.416   0.679   4.883
 1802TIP3    H2 5413   5.320   0.563   4.897
 1803TIP3   OH2 5414   0.287   1.174   1.346
 1803TIP3    H1 5415   0.251   1.094   1.309
 1803TIP3    H2 5416   0.218   1.206   1.405
 1804TIP3   OH2 5417   1.389   4.858   0.786
 1804TIP3    H1 5418   1.477   4.822   0.797
 1804TIP3    H2 5419   1.402   4.937   0.733
 1805TIP3   OH2 5420   6.192   0.357   4.815
 1805TIP3    H1 5421   6.284   0.384   4.824
 1805TIP3    H2 5422   6.161   0.344   4.904
 1806TIP3   OH2 5423   4.011   3.893   2.587
 1806TIP3    H1 5424   4.090   3.849   2.555
 1806TIP3    H2 5425   4.023   3.985   2.563
 1807TIP3   OH2 5426   0.857   3.425   1.770
 1807TIP3    H1 5427   0.796   3.363   1.732
 1807TIP3    H2 5428   0.825   3.511   1.743
 1808TIP3   OH2 5429   0.357   4.123   3.731
 1808TIP3    H1 5430   0.336   4.096   3.642
 1808TIP3    H2 5431   0.280   4.099   3.783
 1809TIP3   OH2 5432   2.743   5.041   4.084
 1809TIP3    H1 5433   2.782   5.111   4.136
 1809TIP3    H2 5434   2.801   5.032   4.008
 1810TIP3   OH2 5435   1.550   1.850   4.211
 1810TIP3    H1 5436   1.455   1.840   4.200
 1810TIP3    H2 5437   1.586   1.768   4.178
 1811TIP3   OH2 5438   5.853   1.936   2.277
 1811TIP3    H1 5439   5.759   1.931   2.291
 1811TIP3    H2 5440   5.866   1.903   2.188
 1812TIP3   OH2 5441   0.184   3.610   2.979
 1812TIP3    H1 5442   0.195   3.519   3.005
 1812TIP3    H2 5443   0.125   3.646   3.045
 1813TIP3   OH2 5444   2.834   1.772   3.310
 1813TIP3    H1 5445   2.907   1.833   3.319
 1813TIP3    H2 5446   2.759   1.819   3.347
 1814TIP3   OH2 5447   2.616   4.027   3.388
 1814TIP3    H1 5448   2.667   3.955   3.350
 1814TIP3    H2 5449   2.610   4.005   3.481
 1815TIP3   OH2 5450   4.849   0.576   3.419
 1815TIP3    H1 5451   4.768   0.596   3.373
 1815TIP3    H2 5452   4.859   0.646   3.483
 1816TIP3   OH2 5453   0.950   1.018   4.950
 1816TIP3    H1 5454   0.976   1.108   4.932
 1816TIP3    H2 5455   0.994   0.966   4.884
 1817TIP3   OH2 5456   2.422   2.061   3.221
 1817TIP3    H1 5457   2.410   2.068   3.316
 1817TIP3    H2 5458   2.350   2.006   3.191
 1818TIP3   OH2 5459   3.413   0.298   4.764
 1818TIP3    H1 5460   3.407   0.211   4.804
 1818TIP3    H2 5461   3.343   0.300   4.699
 1819TIP3   OH2 5462   3.077   3.960   0.184
 1819TIP3    H1 5463   3.132   3.888   0.153
 1819TIP3    H2 5464   3.124   4.039   0.157
 1820TIP3   OH2 5465   2.157   0.087   1.283
 1820TIP3    H1 5466   2.122   0.133   1.359
 1820TIP3    H2 5467   2.124   0.137   1.208
 1821TIP3   OH2 5468   6.048   0.166   4.356
 1821TIP3    H1 5469   6.049   0.174   4.260
 1821TIP3    H2 5470   5.955   0.166   4.379
 1822TIP3   OH2 5471   5.032   2.066   4.087
 1822TIP3    H1 5472   5.097   2.036   4.024
 1822TIP3    H2 5473   4.988   2.139   4.044
 1823TIP3   OH2 5474   0.246   3.430   4.238
 1823TIP3    H1 5475   0.155   3.401   4.235
 1823TIP3    H2 5476   0.260   3.456   4.329
 1824TIP3   OH2 5477   4.870   2.498   0.312
 1824TIP3    H1 5478   4.842   2.476   0.401
 1824TIP3    H2 5479   4.792   2.486   0.259
 1825TIP3   OH2 5480   1.755   2.955   3.094
 1825TIP3    H1 5481   1.832   2.948   3.038
 1825TIP3    H2 5482   1.682   2.971   3.034
 1826TIP3   OH2 5483   4.762   5.990   4.075
 1826TIP3    H1 5484   4.689   5.929   4.087
 1826TIP3    H2 5485   4.788   5.978   3.983
 1827TIP3   OH2 5486   0.568   1.512   4.001
 1827TIP3    H1 5487   0.658   1.481   4.012
 1827TIP3    H2 5488   0.577   1.597   3.958
 1828TIP3   OH2 5489   3.111   4.062   0.616
 1828TIP3    H1 5490   3.147   3.977   0.589
 1828TIP3    H2 5491   3.146   4.076   0.704
 1829TIP3   OH2 5492   3.928   5.558   0.393
 1829TIP3    H1 5493   3.859   5.534   0.455
 1829TIP3    H2 5494   3.893   5.536   0.307
 1830TIP3   OH2 5495   0.273   3.602   0.197
 1830TIP3    H1 5496   0.235   3.683   0.163
 1830TIP3    H2 5497   0.212   3.533   0.171
 1831TIP3   OH2 5498   5.525   1.113   1.377
 1831TIP3    H1 5499   5.464   1.158   1.435
 1831TIP3    H2 5500   5.545   1.177   1.308
 1832TIP3   OH2 5501   3.913   1.423   1.505
 1832TIP3    H1 5502   3.933   1.513   1.528
 1832TIP3    H2 5503   3.996   1.387   1.472
 1833TIP3   OH2 5504   2.455   4.643   2.704
 1833TIP3    H1 5505   2.538   4.640   2.657
 1833TIP3    H2 5506   2.429   4.551   2.712
 1834TIP3   OH2 5507   5.226   0.070   1.930
 1834TIP3    H1 5508   5.207  -0.024   1.920
 1834TIP3    H2 5509   5.146   0.113   1.899
 1835TIP3   OH2 5510   0.323   5.254   2.737
 1835TIP3    H1 5511   0.254   5.283   2.797
 1835TIP3    H2 5512   0.384   5.327   2.732
 1836TIP3   OH2 5513   1.375   5.046   2.691
 1836TIP3    H1 5514   1.315   5.001   2.631
 1836TIP3    H2 5515   1.325   5.122   2.722
 1837TIP3   OH2 5516   6.061   5.727   5.170
 1837TIP3    H1 5517   6.135   5.787   5.182
 1837TIP3    H2 5518   6.101   5.645   5.141
 1838TIP3   OH2 5519   2.540   5.307   2.813
 1838TIP3    H1 5520   2.516   5.384   2.865
 1838TIP3    H2 5521   2.564   5.241   2.878
 1839TIP3   OH2 5522   3.939   3.941   1.474
 1839TIP3    H1 5523   3.930   3.875   1.543
 1839TIP3    H2 5524   3.897   4.019   1.511
 1840TIP3   OH2 5525   2.585   1.435   0.043
 1840TIP3    H1 5526   2.557   1.348   0.015
 1840TIP3    H2 5527   2.566   1.492  -0.031
 1841TIP3   OH2 5528   4.935   1.331   3.580
 1841TIP3    H1 5529   4.839   1.331   3.585
 1841TIP3    H2 5530   4.958   1.240   3.561
 1842TIP3   OH2 5531   2.611   2.063   0.640
 1842TIP3    H1 5532   2.534   2.119   0.635
 1842TIP3    H2 5533   2.577   1.974   0.631
 1843TIP3   OH2 5534   1.476   3.217   4.414
 1843TIP3    H1 5535   1.446   3.276   4.344
 1843TIP3    H2 5536   1.396   3.197   4.463
 1844TIP3   OH2 5537   5.837   3.180   0.022
 1844TIP3    H1 5538   5.807   3.148   0.107
 1844TIP3    H2 5539   5.855   3.273   0.036
 1845TIP3   OH2 5540   1.910   5.210   2.197
 1845TIP3    H1 5541   1.861   5.210   2.114
 1845TIP3    H2 5542   1.957   5.293   2.197
 1846TIP3   OH2 5543   5.450   0.727   3.567
 1846TIP3    H1 5544   5.441   0.657   3.631
 1846TIP3    H2 5545   5.502   0.794   3.612
 1847TIP3   OH2 5546   5.841   2.908   2.381
 1847TIP3    H1 5547   5.749   2.916   2.406
 1847TIP3    H2 5548   5.884   2.981   2.424
 1848TIP3   OH2 5549   6.100   0.977   4.583
 1848TIP3    H1 5550   6.009   0.980   4.554
 1848TIP3    H2 5551   6.095   0.965   4.678
 1849TIP3   OH2 5552   5.912   5.339   2.464
 1849TIP3    H1 5553   5.817   5.339   2.469
 1849TIP3    H2 5554   5.938   5.429   2.481
 1850TIP3   OH2 5555   0.702   4.038   2.853
 1850TIP3    H1 5556   0.792   4.070   2.852
 1850TIP3    H2 5557   0.690   3.999   2.766
 1851TIP3   OH2 5558   4.691   2.372   3.087
 1851TIP3    H1 5559   4.700   2.442   3.022
 1851TIP3    H2 5560   4.651   2.300   3.039
 1852TIP3   OH2 5561   5.904   0.523   3.291
 1852TIP3    H1 5562   5.911   0.427   3.292
 1852TIP3    H2 5563   5.953   0.551   3.368
 1853TIP3   OH2 5564   1.756   5.183   3.153
 1853TIP3    H1 5565   1.707   5.174   3.071
 1853TIP3    H2 5566   1.817   5.255   3.137
 1854TIP3   OH2 5567   2.370   4.938   2.058
 1854TIP3    H1 5568   2.334   5.010   2.110
 1854TIP3    H2 5569   2.347   4.961   1.968
 1855TIP3   OH2 5570   2.664   2.672   0.892
 1855TIP3    H1 5571   2.635   2.676   0.801
 1855TIP3    H2 5572   2.755   2.644   0.888
 1856TIP3   OH2 5573   1.992   5.834   0.986
 1856TIP3    H1 5574   1.904   5.802   0.965
 1856TIP3    H2 5575   2.036   5.759   1.026
 1857TIP3   OH2 5576   5.053   1.073   3.491
 1857TIP3    H1 5577   5.142   1.048   3.516
 1857TIP3    H2 5578   5.044   1.044   3.400
 1858TIP3   OH2 5579   1.666   3.855   4.781
 1858TIP3    H1 5580   1.598   3.792   4.806
 1858TIP3    H2 5581   1.744   3.801   4.768
 1859TIP3   OH2 5582   5.685   2.691   4.587
 1859TIP3    H1 5583   5.628   2.689   4.510
 1859TIP3    H2 5584   5.661   2.613   4.637
 1860TIP3   OH2 5585   5.249   3.583   2.813
 1860TIP3    H1 5586   5.297   3.579   2.730
 1860TIP3    H2 5587   5.275   3.667   2.852
 1861TIP3   OH2 5588   2.597   1.113   3.545
 1861TIP3    H1 5589   2.621   1.034   3.497
 1861TIP3    H2 5590   2.609   1.088   3.637
 1862TIP3   OH2 5591   5.743   5.086   4.542
 1862TIP3    H1 5592   5.828   5.074   4.584
 1862TIP3    H2 5593   5.707   5.164   4.582
 1863TIP3   OH2 5594   4.220   0.186   1.744
 1863TIP3    H1 5595   4.274   0.164   1.820
 1863TIP3    H2 5596   4.130   0.172   1.775
 1864TIP3   OH2 5597   1.554   5.564   3.974
 1864TIP3    H1 5598   1.468   5.528   3.993
 1864TIP3    H2 5599   1.610   5.533   4.046
 1865TIP3   OH2 5600   0.352   2.066   1.248
 1865TIP3    H1 5601   0.423   2.126   1.224
 1865TIP3    H2 5602   0.288   2.121   1.294
 1866TIP3   OH2 5603   4.760   2.955   1.195
 1866TIP3    H1 5604   4.786   3.017   1.263
 1866TIP3    H2 5605   4.791   2.993   1.113
 1867TIP3   OH2 5606   5.027   2.510   0.093
 1867TIP3    H1 5607   4.955   2.498   0.032
 1867TIP3    H2 5608   4.986   2.509   0.179
 1868TIP3   OH2 5609   6.165   3.350   0.291
 1868TIP3    H1 5610   6.195   3.410   0.359
 1868TIP3    H2 5611   6.079   3.320   0.322
 1869TIP3   OH2 5612   3.384   5.508   4.226
 1869TIP3    H1 5613   3.311   5.553   4.184
 1869TIP3    H2 5614   3.429   5.577   4.276
 1870TIP3   OH2 5615   2.804   0.834   0.002
 1870TIP3    H1 5616   2.762   0.919  -0.005
 1870TIP3    H2 5617   2.809   0.817   0.096
 1871TIP3   OH2 5618   1.496   4.646   3.282
 1871TIP3    H1 5619   1.433   4.617   3.216
 1871TIP3    H2 5620   1.452   4.717   3.327
 1872TIP3   OH2 5621   5.761   4.471   2.149
 1872TIP3    H1 5622   5.808   4.544   2.188
 1872TIP3    H2 5623   5.699   4.444   2.217
 1873TIP3   OH2 5624   2.970   4.162   3.124
 1873TIP3    H1 5625   2.921   4.226   3.176
 1873TIP3    H2 5626   2.945   4.180   3.033
 1874TIP3   OH2 5627   6.104   3.555   4.666
 1874TIP3    H1 5628   6.097   3.650   4.679
 1874TIP3    H2 5629   6.140   3.546   4.578
 1875TIP3   OH2 5630   0.848   4.523   2.360
 1875TIP3    H1 5631   0.944   4.521   2.358
 1875TIP3    H2 5632   0.822   4.538   2.269
 1876TIP3   OH2 5633   4.696   2.299   1.435
 1876TIP3    H1 5634   4.771   2.344   1.475
 1876TIP3    H2 5635   4.620   2.350   1.463
 1877TIP3   OH2 5636   5.505   2.541   5.042
 1877TIP3    H1 5637   5.510   2.621   5.094
 1877TIP3    H2 5638   5.596   2.515   5.029
 1878TIP3   OH2 5639   4.523   2.649   3.271
 1878TIP3    H1 5640   4.618   2.643   3.260
 1878TIP3    H2 5641   4.504   2.742   3.271
 1879TIP3   OH2 5642   3.234   2.342   4.941
 1879TIP3    H1 5643   3.313   2.377   4.980
 1879TIP3    H2 5644   3.173   2.332   5.014
 1880TIP3   OH2 5645   5.290   1.505   3.019
 1880TIP3    H1 5646   5.344   1.428   3.040
 1880TIP3    H2 5647   5.248   1.528   3.102
 1881TIP3   OH2 5648   5.949   2.247   3.618
 1881TIP3    H1 5649   6.031   2.243   3.568
 1881TIP3    H2 5650   5.909   2.161   3.605
 1882TIP3   OH2 5651   0.370   4.518   3.512
 1882TIP3    H1 5652   0.317   4.593   3.484
 1882TIP3    H2 5653   0.367   4.457   3.438
 1883TIP3   OH2 5654   0.688   0.276   4.327
 1883TIP3    H1 5655   0.727   0.274   4.414
 1883TIP3    H2 5656   0.705   0.188   4.292
 1884TIP3   OH2 5657   5.645   1.521   4.214
 1884TIP3    H1 5658   5.628   1.463   4.140
 1884TIP3    H2 5659   5.558   1.548   4.243
 1885TIP3   OH2 5660   2.522   0.957   2.459
 1885TIP3    H1 5661   2.519   0.864   2.438
 1885TIP3    H2 5662   2.508   0.962   2.553
 1886TIP3   OH2 5663   4.078   1.544   2.457
 1886TIP3    H1 5664   4.000   1.556   2.402
 1886TIP3    H2 5665   4.047   1.494   2.532
 1887TIP3   OH2 5666   1.982   0.063   1.897
 1887TIP3    H1 5667   1.995   0.156   1.879
 1887TIP3    H2 5668   1.966   0.024   1.811
 1888TIP3   OH2 5669   4.496   5.970   0.662
 1888TIP3    H1 5670   4.449   6.002   0.585
 1888TIP3    H2 5671   4.560   5.908   0.626
 1889TIP3   OH2 5672   1.315   0.704   3.729
 1889TIP3    H1 5673   1.347   0.783   3.687
 1889TIP3    H2 5674   1.355   0.705   3.816
 1890TIP3   OH2 5675   2.767   2.744   3.692
 1890TIP3    H1 5676   2.724   2.691   3.758
 1890TIP3    H2 5677   2.835   2.792   3.740
 1891TIP3   OH2 5678   5.885   3.796   4.542
 1891TIP3    H1 5679   5.965   3.823   4.587
 1891TIP3    H2 5680   5.863   3.869   4.484
 1892TIP3   OH2 5681   4.106   1.149   2.682
 1892TIP3    H1 5682   4.190   1.171   2.643
 1892TIP3    H2 5683   4.054   1.112   2.611
 1893TIP3   OH2 5684   4.339   0.860   4.548
 1893TIP3    H1 5685   4.302   0.882   4.462
 1893TIP3    H2 5686   4.262   0.852   4.605
 1894TIP3   OH2 5687   2.493   5.746   3.810
 1894TIP3    H1 5688   2.485   5.651   3.818
 1894TIP3    H2 5689   2.402   5.777   3.802
 1895TIP3   OH2 5690   5.700   4.741   2.340
 1895TIP3    H1 5691   5.750   4.660   2.350
 1895TIP3    H2 5692   5.760   4.803   2.300
 1896TIP3   OH2 5693   5.892   4.672   1.858
 1896TIP3    H1 5694   5.889   4.699   1.766
 1896TIP3    H2 5695   5.801   4.665   1.885
 1897TIP3   OH2 5696   0.639   5.055   0.999
 1897TIP3    H1 5697   0.712   5.116   1.000
 1897TIP3    H2 5698   0.567   5.102   1.040
 1898TIP3   OH2 5699   3.198   1.942   1.204
 1898TIP3    H1 5700   3.288   1.933   1.171
 1898TIP3    H2 5701   3.145   1.954   1.125
 1899TIP3   OH2 5702   6.046   1.436   3.436
 1899TIP3    H1 5703   5.998   1.508   3.477
 1899TIP3    H2 5704   6.127   1.475   3.404
 1900TIP3   OH2 5705   2.463   2.155   1.842
 1900TIP3    H1 5706   2.523   2.228   1.849
 1900TIP3    H2 5707   2.484   2.098   1.916
 1901TIP3   OH2 5708   4.505   5.536   2.943
 1901TIP3    H1 5709   4.594   5.526   2.909
 1901TIP3    H2 5710   4.471   5.446   2.945
 1902TIP3   OH2 5711   4.464   2.537   1.342
 1902TIP3    H1 5712   4.405   2.589   1.396
 1902TIP3    H2 5713   4.534   2.597   1.318
 1903TIP3   OH2 5714   3.800   4.111   1.670
 1903TIP3    H1 5715   3.721   4.166   1.670
 1903TIP3    H2 5716   3.767   4.022   1.680
 1904TIP3   OH2 5717   2.374   0.028   0.500
 1904TIP3    H1 5718   2.429   0.028   0.422
 1904TIP3    H2 5719   2.423   0.079   0.564
 1905TIP3   OH2 5720   0.317   4.234   0.667
 1905TIP3    H1 5721   0.403   4.248   0.628
 1905TIP3    H2 5722   0.268   4.314   0.645
 1906TIP3   OH2 5723   4.999   0.998   4.964
 1906TIP3    H1 5724   5.058   0.931   4.998
 1906TIP3    H2 5725   4.913   0.973   4.997
 1907TIP3   OH2 5726   5.555   5.801   3.523
 1907TIP3    H1 5727   5.632   5.773   3.573
 1907TIP3    H2 5728   5.484   5.744   3.556
 1908TIP3   OH2 5729   3.661   3.217   4.343
 1908TIP3    H1 5730   3.722   3.197   4.414
 1908TIP3    H2 5731   3.641   3.310   4.354
 1909TIP3   OH2 5732   5.867   4.996   1.268
 1909TIP3    H1 5733   5.819   4.922   1.305
 1909TIP3    H2 5734   5.917   5.031   1.341
 1910TIP3   OH2 5735   0.053   0.085   4.825
 1910TIP3    H1 5736  -0.032   0.130   4.823
 1910TIP3    H2 5737   0.084   0.090   4.735
 1911TIP3   OH2 5738   1.590   4.962   4.137
 1911TIP3    H1 5739   1.594   4.909   4.058
 1911TIP3    H2 5740   1.680   4.970   4.166
 1912TIP3   OH2 5741   2.148   2.344   0.799
 1912TIP3    H1 5742   2.070   2.294   0.778
 1912TIP3    H2 5743   2.146   2.352   0.895
 1913TIP3   OH2 5744   2.436   3.947   0.020
 1913TIP3    H1 5745   2.481   4.030   0.038
 1913TIP3    H2 5746   2.497   3.880   0.053
 1914TIP3   OH2 5747   5.173   1.746   4.518
 1914TIP3    H1 5748   5.122   1.676   4.476
 1914TIP3    H2 5749   5.195   1.805   4.447
 1915TIP3   OH2 5750   3.514   5.046   3.065
 1915TIP3    H1 5751   3.574   5.086   3.002
 1915TIP3    H2 5752   3.432   5.037   3.017
 1916TIP3   OH2 5753   4.317   3.412   2.694
 1916TIP3    H1 5754   4.275   3.328   2.712
 1916TIP3    H2 5755   4.366   3.398   2.614
 1917TIP3   OH2 5756   0.213   5.607   0.442
 1917TIP3    H1 5757   0.282   5.661   0.405
 1917TIP3    H2 5758   0.151   5.594   0.370
 1918TIP3   OH2 5759   4.255   1.229   0.544
 1918TIP3    H1 5760   4.198   1.231   0.622
 1918TIP3    H2 5761   4.241   1.142   0.507
 1919TIP3   OH2 5762   4.516   2.435   1.039
 1919TIP3    H1 5763   4.439   2.469   0.993
 1919TIP3    H2 5764   4.497   2.449   1.131
 1920TIP3   OH2 5765   4.068   5.400   1.779
 1920TIP3    H1 5766   3.982   5.412   1.740
 1920TIP3    H2 5767   4.120   5.357   1.710
 1921TIP3   OH2 5768   4.782   4.054   5.110
 1921TIP3    H1 5769   4.712   4.085   5.167
 1921TIP3    H2 5770   4.787   4.118   5.040
 1922TIP3   OH2 5771   3.613   0.945   0.988
 1922TIP3    H1 5772   3.688   0.885   0.990
 1922TIP3    H2 5773   3.643   1.024   1.033
 1923TIP3   OH2 5774   0.101   0.382   4.808
 1923TIP3    H1 5775   0.090   0.438   4.731
 1923TIP3    H2 5776   0.186   0.340   4.795
 1924TIP3   OH2 5777   4.200   0.612   5.043
 1924TIP3    H1 5778   4.167   0.535   5.090
 1924TIP3    H2 5779   4.295   0.602   5.046
 1925TIP3   OH2 5780   3.091   5.015   0.074
 1925TIP3    H1 5781   3.149   4.973   0.137
 1925TIP3    H2 5782   3.143   5.088   0.038
 1926TIP3   OH2 5783   5.783   5.679   3.658
 1926TIP3    H1 5784   5.775   5.599   3.607
 1926TIP3    H2 5785   5.852   5.728   3.615
 1927TIP3   OH2 5786   6.164   3.270   0.625
 1927TIP3    H1 5787   6.103   3.287   0.697
 1927TIP3    H2 5788   6.117   3.209   0.568
 1928TIP3   OH2 5789   1.117   1.878   1.971
 1928TIP3    H1 5790   1.090   1.915   2.055
 1928TIP3    H2 5791   1.111   1.952   1.910
 1929TIP3   OH2 5792   2.498   3.935   5.102
 1929TIP3    H1 5793   2.422   3.984   5.132
 1929TIP3    H2 5794   2.559   3.938   5.176
 1930TIP3   OH2 5795   0.333   0.651   1.217
 1930TIP3    H1 5796   0.335   0.559   1.246
 1930TIP3    H2 5797   0.297   0.648   1.129
 1931TIP3   OH2 5798   3.050   0.407   1.723
 1931TIP3    H1 5799   3.106   0.469   1.771
 1931TIP3    H2 5800   3.010   0.459   1.654
 1932TIP3   OH2 5801   0.174   3.500   0.729
 1932TIP3    H1 5802   0.131   3.582   0.753
 1932TIP3    H2 5803   0.238   3.525   0.662
 1933TIP3   OH2 5804   4.037   3.006   1.930
 1933TIP3    H1 5805   4.002   3.095   1.935
 1933TIP3    H2 5806   4.127   3.015   1.961
 1934TIP3   OH2 5807   5.189   1.282   0.029
 1934TIP3    H1 5808   5.153   1.302   0.116
 1934TIP3    H2 5809   5.246   1.207   0.044
 1935TIP3   OH2 5810   0.734   1.942   4.940
 1935TIP3    H1 5811   0.740   1.951   5.035
 1935TIP3    H2 5812   0.750   1.849   4.924
 1936TIP3   OH2 5813   0.600   0.902   4.136
 1936TIP3    H1 5814   0.505   0.905   4.127
 1936TIP3    H2 5815   0.632   0.898   4.046
 1937TIP3   OH2 5816   0.282   5.961   1.365
 1937TIP3    H1 5817   0.195   5.988   1.335
 1937TIP3    H2 5818   0.275   5.866   1.374
 1938TIP3   OH2 5819   1.431   3.953   1.738
 1938TIP3    H1 5820   1.348   3.933   1.694
 1938TIP3    H2 5821   1.408   3.969   1.829
 1939TIP3   OH2 5822   2.027   5.675   0.088
 1939TIP3    H1 5823   2.119   5.681   0.113
 1939TIP3    H2 5824   2.028   5.629   0.004
 1940TIP3   OH2 5825   1.218   5.325   0.061
 1940TIP3    H1 5826   1.311   5.342   0.050
 1940TIP3    H2 5827   1.175   5.382  -0.002
 1941TIP3   OH2 5828   1.348   4.895   3.411
 1941TIP3    H1 5829   1.393   4.839   3.474
 1941TIP3    H2 5830   1.341   4.980   3.454
 1942TIP3   OH2 5831   4.254   0.435   0.462
 1942TIP3    H1 5832   4.232   0.525   0.487
 1942TIP3    H2 5833   4.179   0.383   0.492
 1943TIP3   OH2 5834   3.625   2.648   2.385
 1943TIP3    H1 5835   3.601   2.739   2.366
 1943TIP3    H2 5836   3.658   2.614   2.301
 1944TIP3   OH2 5837   5.114   4.486   2.673
 1944TIP3    H1 5838   5.088   4.398   2.645
 1944TIP3    H2 5839   5.034   4.525   2.708
 1945TIP3   OH2 5840   6.085   0.219   3.159
 1945TIP3    H1 5841   6.118   0.141   3.203
 1945TIP3    H2 5842   6.005   0.241   3.206
 1946TIP3   OH2 5843   4.054   4.407   3.171
 1946TIP3    H1 5844   4.034   4.367   3.087
 1946TIP3    H2 5845   4.098   4.338   3.221
 1947TIP3   OH2 5846   3.956   0.752   2.320
 1947TIP3    H1 5847   4.048   0.738   2.302
 1947TIP3    H2 5848   3.910   0.694   2.260
 1948TIP3   OH2 5849   3.503   6.030   5.000
 1948TIP3    H1 5850   3.560   5.953   5.005
 1948TIP3    H2 5851   3.436   6.006   4.936
 1949TIP3   OH2 5852   0.335   1.346   5.002
 1949TIP3    H1 5853   0.371   1.390   4.925
 1949TIP3    H2 5854   0.319   1.256   4.973
 1950TIP3   OH2 5855   5.706   3.718   2.413
 1950TIP3    H1 5856   5.785   3.755   2.452
 1950TIP3    H2 5857   5.661   3.793   2.373
 1951TIP3   OH2 5858   5.350   0.648   3.027
 1951TIP3    H1 5859   5.388   0.692   2.950
 1951TIP3    H2 5860   5.324   0.719   3.085
 1952TIP3   OH2 5861   2.237   1.433   3.258
 1952TIP3    H1 5862   2.239   1.377   3.180
 1952TIP3    H2 5863   2.180   1.506   3.233
 1953TIP3   OH2 5864   3.852   1.550   1.997
 1953TIP3    H1 5865   3.869   1.457   1.980
 1953TIP3    H2 5866   3.881   1.594   1.917
 1954TIP3   OH2 5867   2.900   3.724   1.336
 1954TIP3    H1 5868   2.883   3.666   1.262
 1954TIP3    H2 5869   2.847   3.802   1.318
 1955TIP3   OH2 5870   2.141   4.883   1.203
 1955TIP3    H1 5871   2.202   4.923   1.142
 1955TIP3    H2 5872   2.097   4.815   1.152
 1956TIP3   OH2 5873   0.856   0.305   1.117
 1956TIP3    H1 5874   0.850   0.307   1.021
 1956TIP3    H2 5875   0.777   0.349   1.147
 1957TIP3   OH2 5876   5.870   0.304   2.440
 1957TIP3    H1 5877   5.802   0.285   2.504
 1957TIP3    H2 5878   5.857   0.239   2.371
 1958TIP3   OH2 5879   2.909   3.694   0.341
 1958TIP3    H1 5880   2.927   3.601   0.334
 1958TIP3    H2 5881   2.912   3.726   0.250
 1959TIP3   OH2 5882   3.456   2.096   0.315
 1959TIP3    H1 5883   3.371   2.126   0.347
 1959TIP3    H2 5884   3.520   2.143   0.368
 1960TIP3   OH2 5885   0.213   2.844   2.481
 1960TIP3    H1 5886   0.230   2.807   2.395
 1960TIP3    H2 5887   0.133   2.802   2.510
 1961TIP3   OH2 5888   6.207   0.452   0.796
 1961TIP3    H1 5889   6.263   0.384   0.833
 1961TIP3    H2 5890   6.121   0.436   0.835
 1962TIP3   OH2 5891   6.135   0.557   3.076
 1962TIP3    H1 5892   6.105   0.559   2.986
 1962TIP3    H2 5893   6.058   0.580   3.128
 1963TIP3   OH2 5894   0.827   1.722   1.632
 1963TIP3    H1 5895   0.797   1.728   1.723
 1963TIP3    H2 5896   0.786   1.642   1.599
 1964TIP3   OH2 5897   2.769   5.993   2.470
 1964TIP3    H1 5898   2.682   5.955   2.459
 1964TIP3    H2 5899   2.823   5.921   2.502
 1965TIP3   OH2 5900   4.596   5.003   4.598
 1965TIP3    H1 5901   4.551   5.085   4.618
 1965TIP3    H2 5902   4.605   5.002   4.503
 1966TIP3   OH2 5903   3.529   3.300   0.723
 1966TIP3    H1 5904   3.447   3.252   0.714
 1966TIP3    H2 5905   3.504   3.385   0.759
 1967TIP3   OH2 5906   1.069   3.702   0.878
 1967TIP3    H1 5907   1.141   3.640   0.868
 1967TIP3    H2 5908   1.014   3.689   0.800
 1968TIP3   OH2 5909   3.971   3.574   0.834
 1968TIP3    H1 5910   3.902   3.511   0.854
 1968TIP3    H2 5911   4.003   3.549   0.747
 1969TIP3   OH2 5912   5.290   1.405   0.702
 1969TIP3    H1 5913   5.267   1.455   0.624
 1969TIP3    H2 5914   5.299   1.471   0.771
 1970TIP3   OH2 5915   0.590   0.560   1.845
 1970TIP3    H1 5916   0.557   0.523   1.927
 1970TIP3    H2 5917   0.684   0.548   1.850
 1971TIP3   OH2 5918   5.280   0.814   2.558
 1971TIP3    H1 5919   5.247   0.894   2.516
 1971TIP3    H2 5920   5.304   0.757   2.485
 1972TIP3   OH2 5921   4.818   1.611   4.699
 1972TIP3    H1 5922   4.761   1.683   4.672
 1972TIP3    H2 5923   4.863   1.584   4.619
 1973TIP3   OH2 5924   1.143   2.227   3.310
 1973TIP3    H1 5925   1.097   2.269   3.382
 1973TIP3    H2 5926   1.087   2.241   3.234
 1974TIP3   OH2 5927   3.681   3.519   4.384
 1974TIP3    H1 5928   3.681   3.604   4.339
 1974TIP3    H2 5929   3.593   3.512   4.421
 1975TIP3   OH2 5930   0.264   1.350   1.074
 1975TIP3    H1 5931   0.298   1.414   1.012
 1975TIP3    H2 5932   0.271   1.394   1.159
 1976TIP3   OH2 5933   1.279   2.177   2.070
 1976TIP3    H1 5934   1.232   2.175   1.987
 1976TIP3    H2 5935   1.247   2.100   2.118
 1977TIP3   OH2 5936   0.239   3.333   3.235
 1977TIP3    H1 5937   0.333   3.342   3.223
 1977TIP3    H2 5938   0.212   3.267   3.170
 1978TIP3   OH2 5939   6.271   2.904   2.119
 1978TIP3    H1 5940   6.252   2.907   2.026
 1978TIP3    H2 5941   6.197   2.855   2.157
 1979TIP3   OH2 5942   4.837   5.290   0.029
 1979TIP3    H1 5943   4.750   5.270   0.063
 1979TIP3    H2 5944   4.877   5.347   0.095
 1980TIP3   OH2 5945   1.161   5.014   3.124
 1980TIP3    H1 5946   1.161   4.947   3.193
 1980TIP3    H2 5947   1.213   4.974   3.053
 1981TIP3   OH2 5948   1.318   0.158   5.178
 1981TIP3    H1 5949   1.356   0.077   5.144
 1981TIP3    H2 5950   1.317   0.218   5.103
 1982TIP3   OH2 5951   2.712   5.355   2.308
 1982TIP3    H1 5952   2.695   5.298   2.232
 1982TIP3    H2 5953   2.699   5.298   2.383
 1983TIP3   OH2 5954   4.341   4.283   4.051
 1983TIP3    H1 5955   4.429   4.250   4.069
 1983TIP3    H2 5956   4.326   4.261   3.959
 1984TIP3   OH2 5957   1.888   0.236   4.087
 1984TIP3    H1 5958   1.955   0.303   4.075
 1984TIP3    H2 5959   1.806   0.280   4.062
 1985TIP3   OH2 5960   1.123   2.378   0.295
 1985TIP3    H1 5961   1.134   2.313   0.225
 1985TIP3    H2 5962   1.041   2.353   0.338
 1986TIP3   OH2 5963   2.851   1.525   1.213
 1986TIP3    H1 5964   2.790   1.564   1.275
 1986TIP3    H2 5965   2.936   1.561   1.237
 1987TIP3   OH2 5966   1.374   0.137   1.955
 1987TIP3    H1 5967   1.368   0.207   1.890
 1987TIP3    H2 5968   1.363   0.057   1.904
 1988TIP3   OH2 5969   3.183   1.087   3.627
 1988TIP3    H1 5970   3.151   1.124   3.545
 1988TIP3    H2 5971   3.260   1.140   3.648
 1989TIP3   OH2 5972   2.410   2.347   5.167
 1989TIP3    H1 5973   2.474   2.416   5.155
 1989TIP3    H2 5974   2.403   2.336   5.262
 1990TIP3   OH2 5975   1.964   0.479   3.081
 1990TIP3    H1 5976   1.954   0.451   2.990
 1990TIP3    H2 5977   1.932   0.570   3.081
 1991TIP3   OH2 5978   0.242   3.367   2.234
 1991TIP3    H1 5979   0.218   3.278   2.261
 1991TIP3    H2 5980   0.296   3.355   2.157
 1992TIP3   OH2 5981   5.202   4.222   4.610
 1992TIP3    H1 5982   5.230   4.222   4.518
 1992TIP3    H2 5983   5.263   4.282   4.653
 1993TIP3   OH2 5984   3.347   3.157   2.865
 1993TIP3    H1 5985   3.326   3.064   2.853
 1993TIP3    H2 5986   3.442   3.161   2.864
 1994TIP3   OH2 5987   1.999   5.895   1.580
 1994TIP3    H1 5988   1.991   5.843   1.660
 1994TIP3    H2 5989   2.093   5.912   1.571
 1995TIP3   OH2 5990   4.629   5.181   3.541
 1995TIP3    H1 5991   4.612   5.154   3.451
 1995TIP3    H2 5992   4.722   5.164   3.555
 1996TIP3   OH2 5993   4.406   0.471   1.860
 1996TIP3    H1 5994   4.315   0.470   1.889
 1996TIP3    H2 5995   4.457   0.481   1.940
 1997TIP3   OH2 5996   2.473   4.136   2.078
 1997TIP3    H1 5997   2.464   4.078   2.003
 1997TIP3    H2 5998   2.536   4.092   2.135
 1998TIP3   OH2 5999   2.088   2.114   4.744
 1998TIP3    H1 6000   2.115   2.206   4.742
 1998TIP3    H2 6001   2.096   2.085   4.654
 1999TIP3   OH2 6002   4.321   3.531   4.438
 1999TIP3    H1 6003   4.256   3.594   4.468
 1999TIP3    H2 6004   4.399   3.583   4.420
 2000TIP3   OH2 6005   2.521   2.253   2.620
 2000TIP3    H1 6006   2.537   2.346   2.632
 2000TIP3    H2 6007   2.434   2.239   2.659
 2001TIP3   OH2 6008   1.464   0.584   5.181
 2001TIP3    H1 6009   1.445   0.677   5.195
 2001TIP3    H2 6010   1.443   0.568   5.089
 2002TIP3   OH2 6011   6.063   4.951   5.118
 2002TIP3    H1 6012   6.027   4.870   5.083
 2002TIP3    H2 6013   6.144   4.926   5.161
 2003TIP3   OH2 6014   2.253   0.228   5.162
 2003TIP3    H1 6015   2.219   0.188   5.082
 2003TIP3    H2 6016   2.334   0.180   5.180
 2004TIP3   OH2 6017   2.024   4.319   2.301
 2004TIP3    H1 6018   1.949   4.338   2.358
 2004TIP3    H2 6019   1.995   4.245   2.248
 2005TIP3   OH2 6020   3.576   5.173   2.828
 2005TIP3    H1 6021   3.632   5.247   2.854
 2005TIP3    H2 6022   3.636   5.112   2.786
 2006TIP3   OH2 6023   0.755   3.401   0.315
 2006TIP3    H1 6024   0.663   3.395   0.289
 2006TIP3    H2 6025   0.793   3.317   0.286
 2007TIP3   OH2 6026   0.633   2.728   0.616
 2007TIP3    H1 6027   0.671   2.813   0.593
 2007TIP3    H2 6028   0.557   2.751   0.669
 2008TIP3   OH2 6029   3.784   2.049   0.134
 2008TIP3    H1 6030   3.842   2.023   0.063
 2008TIP3    H2 6031   3.707   2.086   0.090
 2009TIP3   OH2 6032   2.008   1.428   1.530
 2009TIP3    H1 6033   2.024   1.357   1.592
 2009TIP3    H2 6034   2.011   1.507   1.584
 2010TIP3   OH2 6035   4.550   0.411   3.549
 2010TIP3    H1 6036   4.528   0.432   3.458
 2010TIP3    H2 6037   4.467   0.386   3.589
 2011TIP3   OH2 6038   2.976   0.311   2.153
 2011TIP3    H1 6039   2.909   0.283   2.092
 2011TIP3    H2 6040   3.048   0.341   2.098
 2012TIP3   OH2 6041   2.948   2.322   2.001
 2012TIP3    H1 6042   2.994   2.315   1.918
 2012TIP3    H2 6043   2.960   2.236   2.042
 2013TIP3   OH2 6044   4.229   0.528   1.500
 2013TIP3    H1 6045   4.146   0.481   1.500
 2013TIP3    H2 6046   4.259   0.525   1.591
 2014TIP3   OH2 6047   5.015   4.258   2.557
 2014TIP3    H1 6048   4.976   4.260   2.470
 2014TIP3    H2 6049   4.941   4.244   2.616
 2015TIP3   OH2 6050   1.990   1.473   0.872
 2015TIP3    H1 6051   1.988   1.386   0.913
 2015TIP3    H2 6052   1.986   1.533   0.946
 2016TIP3   OH2 6053   1.861   5.131   0.769
 2016TIP3    H1 6054   1.941   5.178   0.749
 2016TIP3    H2 6055   1.822   5.111   0.684
 2017TIP3   OH2 6056   2.678   4.623   2.531
 2017TIP3    H1 6057   2.763   4.600   2.569
 2017TIP3    H2 6058   2.682   4.718   2.519
 2018TIP3   OH2 6059   5.443   0.228   0.288
 2018TIP3    H1 6060   5.509   0.250   0.223
 2018TIP3    H2 6061   5.390   0.160   0.247
 2019TIP3   OH2 6062   1.966   4.643   3.133
 2019TIP3    H1 6063   1.990   4.712   3.195
 2019TIP3    H2 6064   2.014   4.666   3.053
 2020TIP3   OH2 6065   4.343   0.161   5.024
 2020TIP3    H1 6066   4.351   0.256   5.021
 2020TIP3    H2 6067   4.387   0.136   5.105
 2021TIP3   OH2 6068   5.258   3.989   2.438
 2021TIP3    H1 6069   5.283   3.928   2.369
 2021TIP3    H2 6070   5.243   4.072   2.392
 2022TIP3   OH2 6071   4.704   0.247   3.360
 2022TIP3    H1 6072   4.720   0.318   3.422
 2022TIP3    H2 6073   4.616   0.215   3.382
 2023TIP3   OH2 6074   6.282   4.480   4.830
 2023TIP3    H1 6075   6.235   4.421   4.890
 2023TIP3    H2 6076   6.216   4.505   4.765
 2024TIP3   OH2 6077   4.418   5.546   2.564
 2024TIP3    H1 6078   4.449   5.465   2.523
 2024TIP3    H2 6079   4.323   5.542   2.557
 2025TIP3   OH2 6080   4.078   3.746   5.138
 2025TIP3    H1 6081   4.058   3.839   5.128
 2025TIP3    H2 6082   4.060   3.708   5.053
 2026TIP3   OH2 6083   0.901   2.687   0.747
 2026TIP3    H1 6084   0.864   2.705   0.833
 2026TIP3    H2 6085   0.825   2.666   0.692
 2027TIP3   OH2 6086   0.540   0.603   2.507
 2027TIP3    H1 6087   0.518   0.512   2.490
 2027TIP3    H2 6088   0.501   0.622   2.591
 2028TIP3   OH2 6089   0.936   5.418   4.195
 2028TIP3    H1 6090   0.891   5.408   4.279
 2028TIP3    H2 6091   1.026   5.393   4.214
 2029TIP3   OH2 6092   0.026   3.279   3.629
 2029TIP3    H1 6093  -0.054   3.310   3.587
 2029TIP3    H2 6094   0.030   3.329   3.711
 2030TIP3   OH2 6095   5.342   5.302   0.506
 2030TIP3    H1 6096   5.386   5.345   0.579
 2030TIP3    H2 6097   5.411   5.289   0.441
 2031TIP3   OH2 6098   3.277   4.972   2.882
 2031TIP3    H1 6099   3.262   5.040   2.817
 2031TIP3    H2 6100   3.235   4.894   2.845
 2032TIP3   OH2 6101   3.861   2.299   4.010
 2032TIP3    H1 6102   3.797   2.254   4.065
 2032TIP3    H2 6103   3.943   2.251   4.024
 2033TIP3   OH2 6104   2.698   0.987   4.394
 2033TIP3    H1 6105   2.636   1.053   4.426
 2033TIP3    H2 6106   2.662   0.903   4.425
 2034TIP3   OH2 6107   5.153   5.447   0.652
 2034TIP3    H1 6108   5.203   5.465   0.731
 2034TIP3    H2 6109   5.204   5.381   0.606
 2035TIP3   OH2 6110   1.485   1.105   3.173
 2035TIP3    H1 6111   1.497   1.130   3.265
 2035TIP3    H2 6112   1.410   1.045   3.175
 2036TIP3   OH2 6113   5.992   0.899   0.757
 2036TIP3    H1 6114   5.897   0.889   0.758
 2036TIP3    H2 6115   6.008   0.982   0.803
 2037TIP3   OH2 6116   3.917   3.534   2.017
 2037TIP3    H1 6117   3.827   3.561   2.034
 2037TIP3    H2 6118   3.971   3.594   2.068
 2038TIP3   OH2 6119   4.835   1.776   2.224
 2038TIP3    H1 6120   4.845   1.775   2.129
 2038TIP3    H2 6121   4.787   1.857   2.242
 2039TIP3   OH2 6122   2.863   2.796   2.937
 2039TIP3    H1 6123   2.884   2.740   2.863
 2039TIP3    H2 6124   2.882   2.742   3.014
 2040TIP3   OH2 6125   1.417   2.785   4.830
 2040TIP3    H1 6126   1.442   2.694   4.843
 2040TIP3    H2 6127   1.475   2.834   4.890
 2041TIP3   OH2 6128   5.363   1.130   3.378
 2041TIP3    H1 6129   5.301   1.202   3.363
 2041TIP3    H2 6130   5.340   1.096   3.464
 2042TIP3   OH2 6131   2.478   0.812   4.410
 2042TIP3    H1 6132   2.521   0.731   4.382
 2042TIP3    H2 6133   2.490   0.815   4.504
 2043TIP3   OH2 6134   2.286   0.829   3.459
 2043TIP3    H1 6135   2.252   0.877   3.535
 2043TIP3    H2 6136   2.376   0.859   3.450
 2044TIP3   OH2 6137   5.411   2.118   2.728
 2044TIP3    H1 6138   5.411   2.027   2.758
 2044TIP3    H2 6139   5.489   2.125   2.673
 2045TIP3   OH2 6140   2.168   5.977   2.179
 2045TIP3    H1 6141   2.147   5.911   2.245
 2045TIP3    H2 6142   2.264   5.980   2.177
 2046TIP3   OH2 6143   4.318   3.884   5.087
 2046TIP3    H1 6144   4.286   3.794   5.085
 2046TIP3    H2 6145   4.411   3.876   5.065
 2047TIP3   OH2 6146   4.556   3.642   1.894
 2047TIP3    H1 6147   4.464   3.621   1.908
 2047TIP3    H2 6148   4.564   3.654   1.800
 2048TIP3   OH2 6149   5.788   3.706   1.269
 2048TIP3    H1 6150   5.857   3.743   1.215
 2048TIP3    H2 6151   5.817   3.617   1.289
 2049TIP3   OH2 6152   4.882   0.645   0.615
 2049TIP3    H1 6153   4.879   0.643   0.710
 2049TIP3    H2 6154   4.799   0.685   0.588
 2050TIP3   OH2 6155   3.366   1.515   3.123
 2050TIP3    H1 6156   3.280   1.477   3.106
 2050TIP3    H2 6157   3.425   1.469   3.063
 2051TIP3   OH2 6158   3.333   1.015   1.757
 2051TIP3    H1 6159   3.325   0.931   1.801
 2051TIP3    H2 6160   3.270   1.012   1.686
 2052TIP3   OH2 6161   2.705   5.685   0.755
 2052TIP3    H1 6162   2.647   5.635   0.697
 2052TIP3    H2 6163   2.793   5.665   0.723
 2053TIP3   OH2 6164   3.140   3.815   4.418
 2053TIP3    H1 6165   3.115   3.732   4.378
 2053TIP3    H2 6166   3.233   3.805   4.440
 2054TIP3   OH2 6167   5.645   0.495   5.034
 2054TIP3    H1 6168   5.692   0.528   4.957
 2054TIP3    H2 6169   5.590   0.569   5.062
 2055TIP3   OH2 6170   1.212   5.484   3.468
 2055TIP3    H1 6171   1.168   5.565   3.491
 2055TIP3    H2 6172   1.292   5.483   3.521
 2056TIP3   OH2 6173   6.116   1.963   3.094
 2056TIP3    H1 6174   6.099   1.950   3.187
 2056TIP3    H2 6175   6.179   1.896   3.071
 2057TIP3   OH2 6176   2.488   5.162   4.514
 2057TIP3    H1 6177   2.494   5.178   4.420
 2057TIP3    H2 6178   2.564   5.206   4.551
 2058TIP3   OH2 6179   5.701   2.775   0.795
 2058TIP3    H1 6180   5.781   2.731   0.825
 2058TIP3    H2 6181   5.633   2.707   0.799
 2059TIP3   OH2 6182   1.109   4.761   3.356
 2059TIP3    H1 6183   1.144   4.674   3.374
 2059TIP3    H2 6184   1.185   4.819   3.362
 2060TIP3   OH2 6185   3.125   0.947   0.140
 2060TIP3    H1 6186   3.163   1.029   0.171
 2060TIP3    H2 6187   3.073   0.916   0.214
 2061TIP3   OH2 6188   3.023   3.461   3.734
 2061TIP3    H1 6189   3.038   3.427   3.822
 2061TIP3    H2 6190   2.970   3.395   3.691
 2062TIP3   OH2 6191   3.380   1.804   3.816
 2062TIP3    H1 6192   3.464   1.812   3.862
 2062TIP3    H2 6193   3.365   1.710   3.808
 2063TIP3   OH2 6194   1.609   2.235   5.204
 2063TIP3    H1 6195   1.589   2.144   5.229
 2063TIP3    H2 6196   1.656   2.227   5.122
 2064TIP3   OH2 6197   5.560   2.161   1.205
 2064TIP3    H1 6198   5.565   2.083   1.260
 2064TIP3    H2 6199   5.472   2.196   1.221
 2065TIP3   OH2 6200   3.098   2.554   3.712
 2065TIP3    H1 6201   3.152   2.579   3.637
 2065TIP3    H2 6202   3.160   2.516   3.774
 2066TIP3   OH2 6203   5.979   1.637   4.672
 2066TIP3    H1 6204   5.915   1.645   4.743
 2066TIP3    H2 6205   6.064   1.643   4.715
 2067TIP3   OH2 6206   4.512   4.722   3.382
 2067TIP3    H1 6207   4.582   4.671   3.423
 2067TIP3    H2 6208   4.451   4.741   3.453
 2068TIP3   OH2 6209   4.205   0.061   4.088
 2068TIP3    H1 6210   4.185  -0.001   4.159
 2068TIP3    H2 6211   4.276   0.114   4.123
 2069TIP3   OH2 6212   5.025   3.661   4.695
 2069TIP3    H1 6213   5.041   3.724   4.625
 2069TIP3    H2 6214   5.006   3.714   4.772
 2070TIP3   OH2 6215   3.591   1.909   4.330
 2070TIP3    H1 6216   3.498   1.933   4.333
 2070TIP3    H2 6217   3.596   1.829   4.383
 2071TIP3   OH2 6218   5.272   3.574   4.232
 2071TIP3    H1 6219   5.200   3.565   4.294
 2071TIP3    H2 6220   5.352   3.566   4.285
 2072TIP3   OH2 6221   0.355   4.483   0.410
 2072TIP3    H1 6222   0.448   4.460   0.412
 2072TIP3    H2 6223   0.348   4.553   0.345
 2073TIP3   OH2 6224   4.217   4.525   1.135
 2073TIP3    H1 6225   4.283   4.457   1.120
 2073TIP3    H2 6226   4.168   4.528   1.053
 2074TIP3   OH2 6227   2.314   1.650   1.273
 2074TIP3    H1 6228   2.360   1.585   1.220
 2074TIP3    H2 6229   2.261   1.699   1.210
 2075TIP3   OH2 6230   2.990   4.828   1.499
 2075TIP3    H1 6231   3.037   4.890   1.443
 2075TIP3    H2 6232   2.899   4.833   1.469
 2076TIP3   OH2 6233   4.346   0.247   0.069
 2076TIP3    H1 6234   4.410   0.260   0.139
 2076TIP3    H2 6235   4.292   0.326   0.071
 2077TIP3   OH2 6236   6.161   2.287   0.853
 2077TIP3    H1 6237   6.091   2.285   0.920
 2077TIP3    H2 6238   6.115   2.307   0.772
 2078TIP3   OH2 6239   3.497   4.407   1.818
 2078TIP3    H1 6240   3.567   4.455   1.863
 2078TIP3    H2 6241   3.420   4.462   1.828
 2079TIP3   OH2 6242   4.767   2.528   1.568
 2079TIP3    H1 6243   4.841   2.553   1.622
 2079TIP3    H2 6244   4.775   2.582   1.489
 2080TIP3   OH2 6245   3.702   4.500   1.615
 2080TIP3    H1 6246   3.752   4.489   1.696
 2080TIP3    H2 6247   3.691   4.595   1.606
 2081TIP3   OH2 6248   4.887   3.214   2.754
 2081TIP3    H1 6249   4.948   3.272   2.799
 2081TIP3    H2 6250   4.941   3.166   2.692
 2082TIP3   OH2 6251   4.197   3.890   4.009
 2082TIP3    H1 6252   4.115   3.924   3.973
 2082TIP3    H2 6253   4.173   3.806   4.048
 2083TIP3   OH2 6254   4.798   4.969   1.684
 2083TIP3    H1 6255   4.851   5.009   1.615
 2083TIP3    H2 6256   4.861   4.932   1.746
 2084TIP3   OH2 6257   1.472   1.634   0.622
 2084TIP3    H1 6258   1.553   1.595   0.656
 2084TIP3    H2 6259   1.469   1.721   0.663
 2085TIP3   OH2 6260   0.222   1.894   0.734
 2085TIP3    H1 6261   0.283   1.967   0.739
 2085TIP3    H2 6262   0.158   1.920   0.668
 2086TIP3   OH2 6263   3.613   2.455   3.724
 2086TIP3    H1 6264   3.608   2.544   3.757
 2086TIP3    H2 6265   3.706   2.441   3.705
 2087TIP3   OH2 6266   0.303   2.644   0.382
 2087TIP3    H1 6267   0.249   2.703   0.330
 2087TIP3    H2 6268   0.244   2.611   0.450
 2088TIP3   OH2 6269   4.187   0.967   0.495
 2088TIP3    H1 6270   4.126   0.900   0.466
 2088TIP3    H2 6271   4.241   0.924   0.561
 2089TIP3   OH2 6272   5.066   2.828   1.668
 2089TIP3    H1 6273   5.155   2.815   1.635
 2089TIP3    H2 6274   5.046   2.919   1.647
 2090TIP3   OH2 6275   3.396   4.934   4.002
 2090TIP3    H1 6276   3.470   4.994   3.989
 2090TIP3    H2 6277   3.367   4.952   4.092
 2091TIP3   OH2 6278   4.258   5.137   3.208
 2091TIP3    H1 6279   4.298   5.053   3.186
 2091TIP3    H2 6280   4.302   5.164   3.289
 2092TIP3   OH2 6281   5.090   4.040   4.818
 2092TIP3    H1 6282   5.128   4.114   4.771
 2092TIP3    H2 6283   5.069   4.074   4.905
 2093TIP3   OH2 6284   1.858   0.951   2.089
 2093TIP3    H1 6285   1.800   0.926   2.017
 2093TIP3    H2 6286   1.803   0.944   2.167
 2094TIP3   OH2 6287   1.266   5.368   2.547
 2094TIP3    H1 6288   1.334   5.412   2.598
 2094TIP3    H2 6289   1.243   5.432   2.479
 2095TIP3   OH2 6290   5.135   2.803   4.389
 2095TIP3    H1 6291   5.095   2.799   4.302
 2095TIP3    H2 6292   5.062   2.818   4.449
 2096TIP3   OH2 6293   2.160   2.108   4.451
 2096TIP3    H1 6294   2.251   2.083   4.436
 2096TIP3    H2 6295   2.108   2.032   4.425
 2097TIP3   OH2 6296   4.248   0.788   1.700
 2097TIP3    H1 6297   4.210   0.720   1.756
 2097TIP3    H2 6298   4.199   0.781   1.618
 2098TIP3   OH2 6299   2.993   3.007   1.973
 2098TIP3    H1 6300   3.033   3.076   2.027
 2098TIP3    H2 6301   2.956   2.946   2.037
 2099TIP3   OH2 6302   3.042   1.134   1.289
 2099TIP3    H1 6303   3.082   1.204   1.237
 2099TIP3    H2 6304   2.955   1.167   1.310
 2100TIP3   OH2 6305   2.496   1.178   4.271
 2100TIP3    H1 6306   2.454   1.212   4.192
 2100TIP3    H2 6307   2.503   1.253   4.329
 2101TIP3   OH2 6308   2.853   2.737   3.214
 2101TIP3    H1 6309   2.896   2.815   3.247
 2101TIP3    H2 6310   2.796   2.708   3.285
 2102TIP3   OH2 6311   0.285   3.941   3.123
 2102TIP3    H1 6312   0.370   3.966   3.160
 2102TIP3    H2 6313   0.240   3.895   3.193
 2103TIP3   OH2 6314   3.646   3.473   3.251
 2103TIP3    H1 6315   3.688   3.516   3.177
 2103TIP3    H2 6316   3.685   3.386   3.253
 2104TIP3   OH2 6317   3.786   5.761   1.011
 2104TIP3    H1 6318   3.871   5.753   0.968
 2104TIP3    H2 6319   3.731   5.809   0.949
 2105TIP3   OH2 6320   1.471   5.806   4.072
 2105TIP3    H1 6321   1.546   5.835   4.123
 2105TIP3    H2 6322   1.496   5.720   4.039
 2106TIP3   OH2 6323   5.809   0.632   1.066
 2106TIP3    H1 6324   5.851   0.601   1.147
 2106TIP3    H2 6325   5.882   0.649   1.007
 2107TIP3   OH2 6326   0.931   4.793   2.535
 2107TIP3    H1 6327   0.913   4.798   2.629
 2107TIP3    H2 6328   0.908   4.703   2.511
 2108TIP3   OH2 6329   5.615   3.341   0.204
 2108TIP3    H1 6330   5.668   3.414   0.234
 2108TIP3    H2 6331   5.529   3.355   0.244
 2109TIP3   OH2 6332   0.988   3.123   1.564
 2109TIP3    H1 6333   0.960   3.032   1.560
 2109TIP3    H2 6334   0.917   3.173   1.524
 2110TIP3   OH2 6335   1.954   0.894   4.001
 2110TIP3    H1 6336   2.029   0.839   3.979
 2110TIP3    H2 6337   1.986   0.954   4.068
 2111TIP3   OH2 6338   2.857   5.784   3.657
 2111TIP3    H1 6339   2.788   5.824   3.605
 2111TIP3    H2 6340   2.834   5.691   3.660
 2112TIP3   OH2 6341   4.749   2.840   2.380
 2112TIP3    H1 6342   4.667   2.810   2.419
 2112TIP3    H2 6343   4.740   2.935   2.373
 2113TIP3   OH2 6344   2.491   3.630   4.702
 2113TIP3    H1 6345   2.491   3.714   4.655
 2113TIP3    H2 6346   2.410   3.587   4.674
 2114TIP3   OH2 6347   0.837   1.441   1.321
 2114TIP3    H1 6348   0.751   1.481   1.331
 2114TIP3    H2 6349   0.824   1.372   1.256
 2115TIP3   OH2 6350   2.694   0.133   2.657
 2115TIP3    H1 6351   2.656   0.070   2.596
 2115TIP3    H2 6352   2.758   0.181   2.605
 2116TIP3   OH2 6353   3.646   2.312   1.851
 2116TIP3    H1 6354   3.565   2.363   1.849
 2116TIP3    H2 6355   3.690   2.339   1.931
 2117TIP3   OH2 6356   0.880   2.680   1.482
 2117TIP3    H1 6357   0.912   2.611   1.425
 2117TIP3    H2 6358   0.819   2.636   1.541
 2118TIP3   OH2 6359   4.721   1.191   1.672
 2118TIP3    H1 6360   4.687   1.105   1.697
 2118TIP3    H2 6361   4.802   1.172   1.625
 2119TIP3   OH2 6362   2.623   2.650   2.985
 2119TIP3    H1 6363   2.564   2.701   3.041
 2119TIP3    H2 6364   2.706   2.697   2.990
 2120TIP3   OH2 6365   5.680   3.166   2.246
 2120TIP3    H1 6366   5.588   3.189   2.238
 2120TIP3    H2 6367   5.726   3.248   2.228
 2121TIP3   OH2 6368   3.953   1.093   0.544
 2121TIP3    H1 6369   4.033   1.042   0.534
 2121TIP3    H2 6370   3.967   1.143   0.625
 2122TIP3   OH2 6371   2.447   4.358   0.383
 2122TIP3    H1 6372   2.403   4.390   0.462
 2122TIP3    H2 6373   2.389   4.383   0.311
 2123TIP3   OH2 6374   5.251   5.810   4.153
 2123TIP3    H1 6375   5.320   5.823   4.087
 2123TIP3    H2 6376   5.177   5.775   4.104
 2124TIP3   OH2 6377   2.461   0.772   5.175
 2124TIP3    H1 6378   2.451   0.785   5.270
 2124TIP3    H2 6379   2.385   0.720   5.149
 2125TIP3   OH2 6380   3.277   3.761   0.114
 2125TIP3    H1 6381   3.284   3.750   0.019
 2125TIP3    H2 6382   3.361   3.799   0.140
 2126TIP3   OH2 6383   0.545   4.552   0.173
 2126TIP3    H1 6384   0.536   4.458   0.189
 2126TIP3    H2 6385   0.527   4.562   0.079
 2127TIP3   OH2 6386   4.978   2.844   0.938
 2127TIP3    H1 6387   4.939   2.763   0.970
 2127TIP3    H2 6388   4.915   2.879   0.875
 2128TIP3   OH2 6389   4.931   0.091   3.231
 2128TIP3    H1 6390   4.854   0.144   3.250
 2128TIP3    H2 6391   5.003   0.136   3.274
 2129TIP3   OH2 6392   3.835   4.531   4.351
 2129TIP3    H1 6393   3.821   4.608   4.297
 2129TIP3    H2 6394   3.747   4.508   4.383
 2130TIP3   OH2 6395   0.534   5.496   5.161
 2130TIP3    H1 6396   0.502   5.410   5.135
 2130TIP3    H2 6397   0.535   5.546   5.080
 2131TIP3   OH2 6398   1.089   3.864   2.044
 2131TIP3    H1 6399   1.074   3.953   2.013
 2131TIP3    H2 6400   1.001   3.830   2.061
 2132TIP3   OH2 6401   4.096   4.078   4.207
 2132TIP3    H1 6402   4.121   4.046   4.120
 2132TIP3    H2 6403   4.180   4.093   4.252
 2133TIP3   OH2 6404   5.268   1.152   2.665
 2133TIP3    H1 6405   5.211   1.159   2.588
 2133TIP3    H2 6406   5.228   1.211   2.729
 2134TIP3   OH2 6407   2.638   0.970   2.133
 2134TIP3    H1 6408   2.617   0.937   2.045
 2134TIP3    H2 6409   2.555   1.002   2.167
 2135TIP3   OH2 6410   1.537   0.858   4.183
 2135TIP3    H1 6411   1.563   0.922   4.250
 2135TIP3    H2 6412   1.465   0.810   4.222
 2136TIP3   OH2 6413   5.744   5.568   1.128
 2136TIP3    H1 6414   5.698   5.648   1.153
 2136TIP3    H2 6415   5.754   5.520   1.210
 2137TIP3   OH2 6416   0.577   3.026   0.549
 2137TIP3    H1 6417   0.662   3.067   0.563
 2137TIP3    H2 6418   0.514   3.097   0.562
 2138TIP3   OH2 6419   5.207   5.381   2.283
 2138TIP3    H1 6420   5.211   5.450   2.349
 2138TIP3    H2 6421   5.178   5.303   2.331
 2139TIP3   OH2 6422   0.293   5.179   0.267
 2139TIP3    H1 6423   0.235   5.182   0.192
 2139TIP3    H2 6424   0.244   5.223   0.337
 2140TIP3   OH2 6425   2.001   0.175   0.904
 2140TIP3    H1 6426   1.988   0.270   0.911
 2140TIP3    H2 6427   2.094   0.162   0.921
 2141TIP3   OH2 6428   0.006   2.332   1.372
 2141TIP3    H1 6429  -0.059   2.288   1.317
 2141TIP3    H2 6430   0.081   2.272   1.373
 2142TIP3   OH2 6431   3.856   2.913   2.152
 2142TIP3    H1 6432   3.870   3.007   2.158
 2142TIP3    H2 6433   3.897   2.888   2.069
 2143TIP3   OH2 6434   1.090   0.746   1.818
 2143TIP3    H1 6435   1.082   0.704   1.903
 2143TIP3    H2 6436   1.081   0.839   1.835
 2144TIP3   OH2 6437   4.676   0.646   0.295
 2144TIP3    H1 6438   4.646   0.647   0.386
 2144TIP3    H2 6439   4.601   0.615   0.245
 2145TIP3   OH2 6440   3.331   4.758   1.965
 2145TIP3    H1 6441   3.361   4.667   1.967
 2145TIP3    H2 6442   3.270   4.765   2.038
 2146TIP3   OH2 6443   6.242   0.396   2.146
 2146TIP3    H1 6444   6.171   0.422   2.087
 2146TIP3    H2 6445   6.206   0.323   2.197
 2147TIP3   OH2 6446   6.201   3.968   1.198
 2147TIP3    H1 6447   6.265   3.967   1.126
 2147TIP3    H2 6448   6.250   3.936   1.274
 2148TIP3   OH2 6449   1.589   5.395   0.509
 2148TIP3    H1 6450   1.516   5.436   0.556
 2148TIP3    H2 6451   1.667   5.423   0.557
 2149TIP3   OH2 6452  -0.004   0.836   1.880
 2149TIP3    H1 6453   0.038   0.821   1.795
 2149TIP3    H2 6454   0.059   0.805   1.944
 2150TIP3   OH2 6455   0.206   3.239   1.241
 2150TIP3    H1 6456   0.219   3.144   1.247
 2150TIP3    H2 6457   0.183   3.255   1.150
 2151TIP3   OH2 6458   1.240   5.010   3.713
 2151TIP3    H1 6459   1.250   5.075   3.643
 2151TIP3    H2 6460   1.145   5.002   3.725
 2152TIP3   OH2 6461   3.439   3.974   2.922
 2152TIP3    H1 6462   3.488   4.052   2.894
 2152TIP3    H2 6463   3.504   3.904   2.925
 2153TIP3   OH2 6464   3.057   5.034   4.168
 2153TIP3    H1 6465   3.100   5.040   4.082
 2153TIP3    H2 6466   3.077   4.946   4.199
 2154TIP3   OH2 6467   0.171   3.278   1.620
 2154TIP3    H1 6468   0.148   3.230   1.700
 2154TIP3    H2 6469   0.215   3.212   1.565
 2155TIP3   OH2 6470   3.480   0.266   3.402
 2155TIP3    H1 6471   3.414   0.197   3.408
 2155TIP3    H2 6472   3.470   0.301   3.314
 2156TIP3   OH2 6473   3.517   5.835   2.222
 2156TIP3    H1 6474   3.555   5.922   2.208
 2156TIP3    H2 6475   3.512   5.797   2.135
 2157TIP3   OH2 6476   0.192   5.775   0.668
 2157TIP3    H1 6477   0.237   5.706   0.618
 2157TIP3    H2 6478   0.179   5.846   0.605
 2158TIP3   OH2 6479   0.357   1.441   3.403
 2158TIP3    H1 6480   0.422   1.423   3.335
 2158TIP3    H2 6481   0.273   1.429   3.359
 2159TIP3   OH2 6482   5.985   2.345   3.867
 2159TIP3    H1 6483   6.011   2.275   3.927
 2159TIP3    H2 6484   5.952   2.299   3.789
 2160TIP3   OH2 6485   1.070   3.135   0.340
 2160TIP3    H1 6486   0.994   3.099   0.386
 2160TIP3    H2 6487   1.120   3.058   0.313
 2161TIP3   OH2 6488   3.844   3.311   0.645
 2161TIP3    H1 6489   3.819   3.319   0.738
 2161TIP3    H2 6490   3.762   3.294   0.600
 2162TIP3   OH2 6491   6.168   2.935   1.852
 2162TIP3    H1 6492   6.081   2.896   1.846
 2162TIP3    H2 6493   6.191   2.958   1.762
 2163TIP3   OH2 6494   3.948   0.390   3.651
 2163TIP3    H1 6495   3.911   0.302   3.640
 2163TIP3    H2 6496   3.969   0.396   3.744
 2164TIP3   OH2 6497   3.508   4.169   1.683
 2164TIP3    H1 6498   3.475   4.109   1.750
 2164TIP3    H2 6499   3.513   4.254   1.727
 2165TIP3   OH2 6500   0.784   4.442   2.606
 2165TIP3    H1 6501   0.819   4.477   2.524
 2165TIP3    H2 6502   0.695   4.414   2.584
 2166TIP3   OH2 6503   0.677   4.860   3.477
 2166TIP3    H1 6504   0.711   4.925   3.538
 2166TIP3    H2 6505   0.734   4.867   3.400
 2167TIP3   OH2 6506   4.830   3.548   2.988
 2167TIP3    H1 6507   4.824   3.630   3.037
 2167TIP3    H2 6508   4.866   3.485   3.050
 2168TIP3   OH2 6509   0.901   4.093   4.194
 2168TIP3    H1 6510   0.840   4.066   4.262
 2168TIP3    H2 6511   0.854   4.158   4.143
 2169TIP3   OH2 6512   3.086   1.761   0.642
 2169TIP3    H1 6513   3.129   1.741   0.725
 2169TIP3    H2 6514   3.127   1.702   0.579
 2170TIP3   OH2 6515   4.092   3.561   2.601
 2170TIP3    H1 6516   4.163   3.516   2.647
 2170TIP3    H2 6517   4.077   3.509   2.522
 2171TIP3   OH2 6518   1.540   1.005   1.209
 2171TIP3    H1 6519   1.448   1.007   1.182
 2171TIP3    H2 6520   1.540   0.960   1.293
 2172TIP3   OH2 6521   6.339   4.014   1.652
 2172TIP3    H1 6522   6.286   4.074   1.705
 2172TIP3    H2 6523   6.405   3.980   1.713
 2173TIP3   OH2 6524   0.512   5.718   1.797
 2173TIP3    H1 6525   0.593   5.755   1.763
 2173TIP3    H2 6526   0.536   5.630   1.826
 2174TIP3   OH2 6527   1.131   4.439   4.807
 2174TIP3    H1 6528   1.161   4.389   4.732
 2174TIP3    H2 6529   1.135   4.530   4.778
 2175TIP3   OH2 6530   0.520   5.555   1.512
 2175TIP3    H1 6531   0.535   5.535   1.604
 2175TIP3    H2 6532   0.452   5.622   1.512
 2176TIP3   OH2 6533   0.608   3.336   3.933
 2176TIP3    H1 6534   0.536   3.380   3.979
 2176TIP3    H2 6535   0.643   3.403   3.874
 2177TIP3   OH2 6536   5.857   4.008   4.387
 2177TIP3    H1 6537   5.764   4.028   4.385
 2177TIP3    H2 6538   5.881   3.996   4.295
 2178TIP3   OH2 6539   3.563   0.912   2.974
 2178TIP3    H1 6540   3.561   1.007   2.984
 2178TIP3    H2 6541   3.532   0.897   2.884
 2179TIP3   OH2 6542   4.757   4.274   4.956
 2179TIP3    H1 6543   4.733   4.348   4.901
 2179TIP3    H2 6544   4.853   4.279   4.964
 2180TIP3   OH2 6545   5.386   2.936   2.306
 2180TIP3    H1 6546   5.408   2.986   2.384
 2180TIP3    H2 6547   5.383   3.001   2.235
 2181TIP3   OH2 6548   6.199   4.130   1.839
 2181TIP3    H1 6549   6.202   4.139   1.934
 2181TIP3    H2 6550   6.117   4.172   1.813
 2182TIP3   OH2 6551   5.424   0.160   2.754
 2182TIP3    H1 6552   5.477   0.195   2.682
 2182TIP3    H2 6553   5.469   0.191   2.833
 2183TIP3   OH2 6554   1.279   0.923   3.088
 2183TIP3    H1 6555   1.198   0.878   3.110
 2183TIP3    H2 6556   1.301   0.891   3.000
 2184TIP3   OH2 6557   2.903   3.086   4.375
 2184TIP3    H1 6558   2.951   3.135   4.442
 2184TIP3    H2 6559   2.814   3.079   4.410
 2185TIP3   OH2 6560   6.293   1.965   2.276
 2185TIP3    H1 6561   6.273   1.886   2.225
 2185TIP3    H2 6562   6.381   1.950   2.310
 2186TIP3   OH2 6563   3.897   5.930   0.694
 2186TIP3    H1 6564   3.804   5.923   0.719
 2186TIP3    H2 6565   3.943   5.877   0.758
 2187TIP3   OH2 6566   2.655   0.300   3.469
 2187TIP3    H1 6567   2.626   0.209   3.477
 2187TIP3    H2 6568   2.620   0.344   3.546
 2188TIP3   OH2 6569   5.814   4.301   4.579
 2188TIP3    H1 6570   5.846   4.390   4.563
 2188TIP3    H2 6571   5.891   4.245   4.571
 2189TIP3   OH2 6572   4.577   5.054   0.220
 2189TIP3    H1 6573   4.628   4.981   0.255
 2189TIP3    H2 6574   4.489   5.019   0.209
 2190TIP3   OH2 6575   1.986   1.233   1.005
 2190TIP3    H1 6576   1.898   1.199   0.986
 2190TIP3    H2 6577   1.985   1.250   1.099
 2191TIP3   OH2 6578   0.415   2.962   1.200
 2191TIP3    H1 6579   0.461   2.897   1.252
 2191TIP3    H2 6580   0.346   2.912   1.156
 2192TIP3   OH2 6581   1.139   0.973   0.266
 2192TIP3    H1 6582   1.126   1.033   0.193
 2192TIP3    H2 6583   1.103   1.020   0.342
 2193TIP3   OH2 6584   4.039   1.181   4.411
 2193TIP3    H1 6585   3.995   1.155   4.330
 2193TIP3    H2 6586   3.982   1.149   4.481
 2194TIP3   OH2 6587   0.004   3.736   2.784
 2194TIP3    H1 6588  -0.022   3.825   2.807
 2194TIP3    H2 6589   0.030   3.696   2.867
 2195TIP3   OH2 6590   1.689   3.721   0.122
 2195TIP3    H1 6591   1.673   3.811   0.149
 2195TIP3    H2 6592   1.780   3.720   0.093
 2196TIP3   OH2 6593   3.294   3.200   1.543
 2196TIP3    H1 6594   3.224   3.144   1.576
 2196TIP3    H2 6595   3.332   3.240   1.621
 2197TIP3   OH2 6596   1.055   0.447   2.917
 2197TIP3    H1 6597   1.145   0.466   2.944
 2197TIP3    H2 6598   1.001   0.508   2.968
 2198TIP3   OH2 6599   0.777   3.191   3.601
 2198TIP3    H1 6600   0.772   3.285   3.585
 2198TIP3    H2 6601   0.686   3.160   3.594
 2199TIP3   OH2 6602   4.423   3.702   3.629
 2199TIP3    H1 6603   4.479   3.639   3.583
 2199TIP3    H2 6604   4.399   3.657   3.710
 2200TIP3   OH2 6605   5.064   4.322   4.991
 2200TIP3    H1 6606   5.124   4.251   5.011
 2200TIP3    H2 6607   5.014   4.335   5.072
 2201TIP3   OH2 6608   0.004   3.316   2.794
 2201TIP3    H1 6609   0.045   3.380   2.735
 2201TIP3    H2 6610  -0.023   3.245   2.737
 2202TIP3   OH2 6611   0.578   3.889   0.211
 2202TIP3    H1 6612   0.633   3.967   0.220
 2202TIP3    H2 6613   0.492   3.917   0.240
 2203TIP3   OH2 6614   5.873   5.392   0.656
 2203TIP3    H1 6615   5.886   5.467   0.599
 2203TIP3    H2 6616   5.956   5.344   0.653
 2204TIP3   OH2 6617   6.083   3.032   2.806
 2204TIP3    H1 6618   6.119   3.115   2.774
 2204TIP3    H2 6619   5.988   3.043   2.802
 2205TIP3   OH2 6620   1.711   2.786   0.953
 2205TIP3    H1 6621   1.682   2.728   1.024
 2205TIP3    H2 6622   1.780   2.839   0.993
 2206TIP3   OH2 6623   0.670   0.372   4.061
 2206TIP3    H1 6624   0.720   0.453   4.058
 2206TIP3    H2 6625   0.671   0.347   4.154
 2207TIP3   OH2 6626   5.893   5.770   0.701
 2207TIP3    H1 6627   5.975   5.796   0.744
 2207TIP3    H2 6628   5.826   5.784   0.768
 2208TIP3   OH2 6629   4.305   5.784   4.217
 2208TIP3    H1 6630   4.228   5.838   4.231
 2208TIP3    H2 6631   4.275   5.713   4.160
 2209TIP3   OH2 6632   2.444   3.688   3.103
 2209TIP3    H1 6633   2.468   3.746   3.030
 2209TIP3    H2 6634   2.525   3.641   3.123
 2210TIP3   OH2 6635   0.095   4.104   0.618
 2210TIP3    H1 6636   0.183   4.125   0.649
 2210TIP3    H2 6637   0.046   4.186   0.628
 2211TIP3   OH2 6638   5.613   4.152   2.787
 2211TIP3    H1 6639   5.524   4.141   2.821
 2211TIP3    H2 6640   5.649   4.063   2.784
 2212TIP3   OH2 6641   1.675   4.216   2.813
 2212TIP3    H1 6642   1.662   4.311   2.813
 2212TIP3    H2 6643   1.700   4.195   2.903
 2213TIP3   OH2 6644   1.125   3.369   4.406
 2213TIP3    H1 6645   1.157   3.451   4.368
 2213TIP3    H2 6646   1.200   3.335   4.455
 2214TIP3   OH2 6647   5.846   3.885   0.829
 2214TIP3    H1 6648   5.855   3.922   0.741
 2214TIP3    H2 6649   5.769   3.928   0.865
 2215TIP3   OH2 6650   6.049   3.847   1.785
 2215TIP3    H1 6651   6.087   3.935   1.780
 2215TIP3    H2 6652   6.079   3.803   1.705
 2216TIP3   OH2 6653   2.867   5.338   1.973
 2216TIP3    H1 6654   2.907   5.338   1.886
 2216TIP3    H2 6655   2.836   5.248   1.985
 2217TIP3   OH2 6656   0.540   0.922   0.180
 2217TIP3    H1 6657   0.627   0.955   0.154
 2217TIP3    H2 6658   0.556   0.833   0.209
 2218TIP3   OH2 6659   5.653   1.150   0.915
 2218TIP3    H1 6660   5.620   1.182   0.831
 2218TIP3    H2 6661   5.583   1.169   0.977
 2219TIP3   OH2 6662   3.611   0.113   2.352
 2219TIP3    H1 6663   3.674   0.182   2.373
 2219TIP3    H2 6664   3.581   0.081   2.437
 2220TIP3   OH2 6665   5.965   0.861   2.890
 2220TIP3    H1 6666   6.028   0.886   2.821
 2220TIP3    H2 6667   5.894   0.819   2.843
 2221TIP3   OH2 6668   3.779   1.570   0.341
 2221TIP3    H1 6669   3.866   1.531   0.334
 2221TIP3    H2 6670   3.760   1.601   0.252
 2222TIP3   OH2 6671   0.156   3.386   2.552
 2222TIP3    H1 6672   0.170   3.343   2.468
 2222TIP3    H2 6673   0.129   3.475   2.530
 2223TIP3   OH2 6674   1.617   5.341   4.994
 2223TIP3    H1 6675   1.645   5.342   4.902
 2223TIP3    H2 6676   1.533   5.388   4.994
 2224TIP3   OH2 6677   4.614   5.554   0.315
 2224TIP3    H1 6678   4.542   5.608   0.347
 2224TIP3    H2 6679   4.573   5.474   0.285
 2225TIP3   OH2 6680   3.684   2.097   0.693
 2225TIP3    H1 6681   3.660   2.005   0.691
 2225TIP3    H2 6682   3.612   2.142   0.649
 2226TIP3   OH2 6683   0.989   0.901   2.370
 2226TIP3    H1 6684   0.998   0.932   2.280
 2226TIP3    H2 6685   0.898   0.870   2.376
 2227TIP3   OH2 6686   2.252   5.420   4.399
 2227TIP3    H1 6687   2.185   5.488   4.407
 2227TIP3    H2 6688   2.321   5.448   4.459
 2228TIP3   OH2 6689   4.945   3.425   3.526
 2228TIP3    H1 6690   4.903   3.503   3.488
 2228TIP3    H2 6691   4.874   3.377   3.568
 2229TIP3   OH2 6692   3.950   0.548   4.588
 2229TIP3    H1 6693   3.940   0.640   4.564
 2229TIP3    H2 6694   4.006   0.550   4.666
 2230TIP3   OH2 6695   6.029   3.692   0.468
 2230TIP3    H1 6696   6.097   3.638   0.510
 2230TIP3    H2 6697   6.058   3.701   0.378
 2231TIP3   OH2 6698   1.466   3.690   3.797
 2231TIP3    H1 6699   1.475   3.711   3.704
 2231TIP3    H2 6700   1.432   3.600   3.797
 2232TIP3   OH2 6701   4.681   4.629   1.937
 2232TIP3    H1 6702   4.623   4.635   2.013
 2232TIP3    H2 6703   4.690   4.720   1.908
 2233TIP3   OH2 6704   2.452   2.972   5.118
 2233TIP3    H1 6705   2.514   3.041   5.094
 2233TIP3    H2 6706   2.445   2.978   5.213
 2234TIP3   OH2 6707   0.662   5.599   0.130
 2234TIP3    H1 6708   0.573   5.623   0.104
 2234TIP3    H2 6709   0.653   5.514   0.173
 2235TIP3   OH2 6710   4.949   4.793   0.977
 2235TIP3    H1 6711   4.923   4.724   0.915
 2235TIP3    H2 6712   5.028   4.759   1.020
 2236TIP3   OH2 6713   2.377   5.534   4.918
 2236TIP3    H1 6714   2.468   5.511   4.901
 2236TIP3    H2 6715   2.336   5.452   4.948
 2237TIP3   OH2 6716   1.716   4.451   3.054
 2237TIP3    H1 6717   1.748   4.360   3.055
 2237TIP3    H2 6718   1.703   4.469   2.961
 2238TIP3   OH2 6719   3.131   1.622   1.221
 2238TIP3    H1 6720   3.223   1.639   1.203
 2238TIP3    H2 6721   3.114   1.667   1.304
 2239TIP3   OH2 6722   0.600   1.109   3.777
 2239TIP3    H1 6723   0.637   1.113   3.689
 2239TIP3    H2 6724   0.622   1.022   3.809
 2240TIP3   OH2 6725   5.803   3.532   0.319
 2240TIP3    H1 6726   5.838   3.454   0.361
 2240TIP3    H2 6727   5.743   3.569   0.384
 2241TIP3   OH2 6728   1.337   5.676   0.111
 2241TIP3    H1 6729   1.427   5.705   0.121
 2241TIP3    H2 6730   1.288   5.755   0.091
 2242TIP3   OH2 6731   5.827   3.391   2.893
 2242TIP3    H1 6732   5.819   3.354   2.805
 2242TIP3    H2 6733   5.870   3.322   2.944
 2243TIP3   OH2 6734   4.483   0.276   0.765
 2243TIP3    H1 6735   4.477   0.357   0.815
 2243TIP3    H2 6736   4.574   0.271   0.737
 2244TIP3   OH2 6737   0.117   0.473   4.535
 2244TIP3    H1 6738   0.124   0.504   4.445
 2244TIP3    H2 6739   0.085   0.383   4.527
 2245TIP3   OH2 6740   2.216   1.800   3.169
 2245TIP3    H1 6741   2.156   1.840   3.231
 2245TIP3    H2 6742   2.164   1.732   3.125
 2246TIP3   OH2 6743   1.456   0.357   3.684
 2246TIP3    H1 6744   1.424   0.420   3.619
 2246TIP3    H2 6745   1.504   0.411   3.746
 2247TIP3   OH2 6746   0.239   2.393   4.590
 2247TIP3    H1 6747   0.258   2.454   4.519
 2247TIP3    H2 6748   0.294   2.317   4.574
 2248TIP3   OH2 6749   0.808   4.528   2.854
 2248TIP3    H1 6750   0.782   4.493   2.769
 2248TIP3    H2 6751   0.748   4.486   2.916
 2249TIP3   OH2 6752   2.941   1.879   0.389
 2249TIP3    H1 6753   2.939   1.816   0.317
 2249TIP3    H2 6754   2.947   1.825   0.468
 2250TIP3   OH2 6755   0.408   3.306   0.942
 2250TIP3    H1 6756   0.332   3.362   0.953
 2250TIP3    H2 6757   0.462   3.351   0.876
 2251TIP3   OH2 6758   4.295   4.367   4.996
 2251TIP3    H1 6759   4.352   4.339   4.925
 2251TIP3    H2 6760   4.255   4.285   5.028
 2252TIP3   OH2 6761   3.419   2.048   3.168
 2252TIP3    H1 6762   3.363   1.980   3.131
 2252TIP3    H2 6763   3.500   2.003   3.192
 2253TIP3   OH2 6764   0.940   1.693   1.358
 2253TIP3    H1 6765   0.913   1.609   1.320
 2253TIP3    H2 6766   0.886   1.758   1.314
 2254TIP3   OH2 6767   1.738   3.467   3.659
 2254TIP3    H1 6768   1.774   3.519   3.730
 2254TIP3    H2 6769   1.750   3.376   3.687
 2255TIP3   OH2 6770   2.587   0.168   1.364
 2255TIP3    H1 6771   2.665   0.129   1.324
 2255TIP3    H2 6772   2.519   0.102   1.351
 2256TIP3   OH2 6773   1.710   5.234   0.332
 2256TIP3    H1 6774   1.721   5.303   0.267
 2256TIP3    H2 6775   1.651   5.271   0.397
 2257TIP3   OH2 6776   1.127   2.517   1.430
 2257TIP3    H1 6777   1.175   2.482   1.505
 2257TIP3    H2 6778   1.177   2.595   1.404
 2258TIP3   OH2 6779   0.353   5.137   4.417
 2258TIP3    H1 6780   0.295   5.085   4.473
 2258TIP3    H2 6781   0.330   5.228   4.437
 2259TIP3   OH2 6782   4.777   1.456   1.620
 2259TIP3    H1 6783   4.712   1.486   1.684
 2259TIP3    H2 6784   4.774   1.361   1.626
 2260TIP3   OH2 6785   0.268   2.601   1.423
 2260TIP3    H1 6786   0.356   2.617   1.457
 2260TIP3    H2 6787   0.210   2.625   1.495
 2261TIP3   OH2 6788   5.152   0.006   0.443
 2261TIP3    H1 6789   5.118   0.082   0.397
 2261TIP3    H2 6790   5.242   0.030   0.465
 2262TIP3   OH2 6791   5.454   5.400   0.192
 2262TIP3    H1 6792   5.456   5.312   0.227
 2262TIP3    H2 6793   5.538   5.439   0.217
 2263TIP3   OH2 6794   2.945   1.567   2.075
 2263TIP3    H1 6795   2.931   1.598   1.985
 2263TIP3    H2 6796   3.037   1.541   2.078
 2264TIP3   OH2 6797   0.996   0.565   1.108
 2264TIP3    H1 6798   0.937   0.640   1.118
 2264TIP3    H2 6799   0.940   0.493   1.080
 2265TIP3   OH2 6800   2.013   0.630   1.954
 2265TIP3    H1 6801   1.957   0.690   1.906
 2265TIP3    H2 6802   1.991   0.645   2.046
 2266TIP3   OH2 6803   5.632   4.835   3.346
 2266TIP3    H1 6804   5.716   4.827   3.300
 2266TIP3    H2 6805   5.578   4.889   3.288
 2267TIP3   OH2 6806   0.479   5.967   4.186
 2267TIP3    H1 6807   0.543   6.014   4.240
 2267TIP3    H2 6808   0.400   5.963   4.240
 2268TIP3   OH2 6809   4.201   1.421   5.080
 2268TIP3    H1 6810   4.199   1.516   5.066
 2268TIP3    H2 6811   4.130   1.405   5.143
 2269TIP3   OH2 6812   0.629   1.709   0.521
 2269TIP3    H1 6813   0.703   1.709   0.582
 2269TIP3    H2 6814   0.553   1.691   0.576
 2270TIP3   OH2 6815   1.633   2.093   1.828
 2270TIP3    H1 6816   1.637   2.041   1.908
 2270TIP3    H2 6817   1.716   2.142   1.828
 2271TIP3   OH2 6818   5.092   3.855   4.506
 2271TIP3    H1 6819   5.081   3.900   4.422
 2271TIP3    H2 6820   5.174   3.889   4.542
 2272TIP3   OH2 6821   3.645   2.342   2.244
 2272TIP3    H1 6822   3.656   2.254   2.208
 2272TIP3    H2 6823   3.725   2.388   2.218
 2273TIP3   OH2 6824   6.336   3.515   2.006
 2273TIP3    H1 6825   6.354   3.421   2.010
 2273TIP3    H2 6826   6.246   3.521   1.971
 2274TIP3   OH2 6827   1.352   5.428   5.022
 2274TIP3    H1 6828   1.324   5.390   4.938
 2274TIP3    H2 6829   1.271   5.458   5.063
 2275TIP3   OH2 6830   1.783   3.888   3.396
 2275TIP3    H1 6831   1.747   3.928   3.475
 2275TIP3    H2 6832   1.709   3.842   3.357
 2276TIP3   OH2 6833   1.716   3.728   0.418
 2276TIP3    H1 6834   1.696   3.748   0.327
 2276TIP3    H2 6835   1.682   3.640   0.432
 2277TIP3   OH2 6836   3.274   4.402   2.530
 2277TIP3    H1 6837   3.273   4.454   2.449
 2277TIP3    H2 6838   3.316   4.320   2.505
 2278TIP3   OH2 6839   2.986   3.092   4.955
 2278TIP3    H1 6840   2.972   3.159   4.888
 2278TIP3    H2 6841   3.071   3.113   4.992
 2279TIP3   OH2 6842   4.557   2.270   0.205
 2279TIP3    H1 6843   4.480   2.285   0.151
 2279TIP3    H2 6844   4.563   2.347   0.262
 2280TIP3   OH2 6845   5.908   2.813   1.804
 2280TIP3    H1 6846   5.944   2.730   1.835
 2280TIP3    H2 6847   5.946   2.824   1.717
 2281TIP3   OH2 6848   5.849   5.355   4.286
 2281TIP3    H1 6849   5.888   5.363   4.372
 2281TIP3    H2 6850   5.755   5.351   4.302
 2282TIP3   OH2 6851   2.402   2.925   0.757
 2282TIP3    H1 6852   2.349   2.852   0.786
 2282TIP3    H2 6853   2.354   3.003   0.784
 2283TIP3   OH2 6854   5.345   5.644   0.140
 2283TIP3    H1 6855   5.384   5.559   0.158
 2283TIP3    H2 6856   5.265   5.625   0.091
 2284TIP3   OH2 6857   4.062   3.588   1.307
 2284TIP3    H1 6858   4.030   3.636   1.231
 2284TIP3    H2 6859   3.983   3.552   1.347
 2285TIP3   OH2 6860   3.771   1.032   2.776
 2285TIP3    H1 6861   3.748   0.944   2.745
 2285TIP3    H2 6862   3.742   1.090   2.706
 2286TIP3   OH2 6863   4.587   0.083   3.681
 2286TIP3    H1 6864   4.502   0.092   3.726
 2286TIP3    H2 6865   4.639   0.029   3.739
 2287TIP3   OH2 6866   0.401   1.131   3.413
 2287TIP3    H1 6867   0.486   1.091   3.430
 2287TIP3    H2 6868   0.380   1.179   3.493
 2288TIP3   OH2 6869   3.565   2.812   0.584
 2288TIP3    H1 6870   3.607   2.874   0.525
 2288TIP3    H2 6871   3.632   2.791   0.649
 2289TIP3   OH2 6872   0.972   3.553   0.374
 2289TIP3    H1 6873   0.953   3.635   0.328
 2289TIP3    H2 6874   0.919   3.488   0.328
 2290TIP3   OH2 6875   5.964   1.964   4.163
 2290TIP3    H1 6876   5.903   1.891   4.159
 2290TIP3    H2 6877   6.040   1.930   4.211
 2291TIP3   OH2 6878   0.629   5.681   0.494
 2291TIP3    H1 6879   0.720   5.651   0.487
 2291TIP3    H2 6880   0.579   5.616   0.443
 2292TIP3   OH2 6881   0.719   5.788   1.468
 2292TIP3    H1 6882   0.735   5.815   1.558
 2292TIP3    H2 6883   0.678   5.702   1.476
 2293TIP3   OH2 6884   3.513   5.248   3.301
 2293TIP3    H1 6885   3.512   5.177   3.236
 2293TIP3    H2 6886   3.497   5.327   3.251
 2294TIP3   OH2 6887   0.571   1.969   0.814
 2294TIP3    H1 6888   0.596   1.941   0.726
 2294TIP3    H2 6889   0.538   2.058   0.802
 2295TIP3   OH2 6890   5.553   2.185   4.809
 2295TIP3    H1 6891   5.587   2.265   4.768
 2295TIP3    H2 6892   5.596   2.182   4.894
 2296TIP3   OH2 6893   1.990   0.442   2.574
 2296TIP3    H1 6894   1.919   0.446   2.511
 2296TIP3    H2 6895   1.988   0.352   2.606
 2297TIP3   OH2 6896   6.255   4.793   2.224
 2297TIP3    H1 6897   6.308   4.871   2.240
 2297TIP3    H2 6898   6.317   4.720   2.229
 2298TIP3   OH2 6899   4.388   4.320   0.162
 2298TIP3    H1 6900   4.426   4.385   0.103
 2298TIP3    H2 6901   4.349   4.255   0.104
 2299TIP3   OH2 6902   1.260   3.439   5.080
 2299TIP3    H1 6903   1.243   3.531   5.103
 2299TIP3    H2 6904   1.262   3.438   4.985
 2300TIP3   OH2 6905   2.933   4.465   1.492
 2300TIP3    H1 6906   3.010   4.437   1.541
 2300TIP3    H2 6907   2.886   4.524   1.551
 2301TIP3   OH2 6908   5.704   4.312   3.520
 2301TIP3    H1 6909   5.747   4.272   3.596
 2301TIP3    H2 6910   5.689   4.240   3.460
 2302TIP3   OH2 6911   3.374   2.135   4.148
 2302TIP3    H1 6912   3.320   2.129   4.070
 2302TIP3    H2 6913   3.452   2.184   4.121
 2303TIP3   OH2 6914   1.243   3.663   2.631
 2303TIP3    H1 6915   1.208   3.716   2.559
 2303TIP3    H2 6916   1.334   3.646   2.606
 2304TIP3   OH2 6917   3.891   4.888   1.194
 2304TIP3    H1 6918   3.898   4.969   1.245
 2304TIP3    H2 6919   3.835   4.831   1.246
 2305TIP3   OH2 6920   3.842   1.594   4.649
 2305TIP3    H1 6921   3.930   1.623   4.622
 2305TIP3    H2 6922   3.821   1.649   4.724
 2306TIP3   OH2 6923   6.100   1.627   4.120
 2306TIP3    H1 6924   6.127   1.718   4.127
 2306TIP3    H2 6925   6.014   1.624   4.162
 2307TIP3   OH2 6926   0.286   0.728   3.971
 2307TIP3    H1 6927   0.194   0.701   3.981
 2307TIP3    H2 6928   0.286   0.821   3.993
 2308TIP3   OH2 6929   2.855   2.156   0.363
 2308TIP3    H1 6930   2.875   2.068   0.397
 2308TIP3    H2 6931   2.863   2.147   0.268
 2309TIP3   OH2 6932   3.225   4.329   1.278
 2309TIP3    H1 6933   3.270   4.343   1.194
 2309TIP3    H2 6934   3.181   4.244   1.267
 2310TIP3   OH2 6935   2.447   0.627   2.930
 2310TIP3    H1 6936   2.480   0.704   2.976
 2310TIP3    H2 6937   2.354   0.645   2.916
 2311TIP3   OH2 6938   1.540   3.259   3.752
 2311TIP3    H1 6939   1.565   3.318   3.823
 2311TIP3    H2 6940   1.470   3.305   3.706
 2312TIP3   OH2 6941   2.234   3.128   4.432
 2312TIP3    H1 6942   2.250   3.065   4.362
 2312TIP3    H2 6943   2.140   3.140   4.433
 2313TIP3   OH2 6944   5.997   3.147   1.966
 2313TIP3    H1 6945   6.002   3.201   1.887
 2313TIP3    H2 6946   6.065   3.080   1.953
 2314TIP3   OH2 6947   4.841   0.933   0.849
 2314TIP3    H1 6948   4.913   0.910   0.908
 2314TIP3    H2 6949   4.795   1.003   0.895
 2315TIP3   OH2 6950   4.137   5.655   2.497
 2315TIP3    H1 6951   4.216   5.703   2.476
 2315TIP3    H2 6952   4.082   5.663   2.420
 2316TIP3   OH2 6953   5.711   2.118   3.291
 2316TIP3    H1 6954   5.678   2.100   3.203
 2316TIP3    H2 6955   5.654   2.068   3.350
 2317TIP3   OH2 6956   0.900   4.547   1.792
 2317TIP3    H1 6957   0.812   4.580   1.776
 2317TIP3    H2 6958   0.947   4.623   1.829
 2318TIP3   OH2 6959   3.635   1.817   0.726
 2318TIP3    H1 6960   3.625   1.815   0.631
 2318TIP3    H2 6961   3.661   1.729   0.750
 2319TIP3   OH2 6962   1.492   2.382   0.444
 2319TIP3    H1 6963   1.466   2.290   0.435
 2319TIP3    H2 6964   1.588   2.379   0.446
 2320TIP3   OH2 6965   0.309   2.889   4.133
 2320TIP3    H1 6966   0.392   2.891   4.085
 2320TIP3    H2 6967   0.285   2.981   4.144
 2321TIP3   OH2 6968   0.159   5.265   3.168
 2321TIP3    H1 6969   0.101   5.190   3.177
 2321TIP3    H2 6970   0.147   5.315   3.248
 2322TIP3   OH2 6971   6.039   1.930   4.505
 2322TIP3    H1 6972   5.951   1.895   4.492
 2322TIP3    H2 6973   6.075   1.880   4.578
 2323TIP3   OH2 6974   1.698   0.465   2.866
 2323TIP3    H1 6975   1.731   0.549   2.835
 2323TIP3    H2 6976   1.606   0.464   2.837
 2324TIP3   OH2 6977   5.571   4.777   2.745
 2324TIP3    H1 6978   5.545   4.865   2.719
 2324TIP3    H2 6979   5.665   4.773   2.724
 2325TIP3   OH2 6980   3.323   0.282   0.726
 2325TIP3    H1 6981   3.282   0.301   0.811
 2325TIP3    H2 6982   3.417   0.279   0.745
 2326TIP3   OH2 6983   0.145   2.165   2.710
 2326TIP3    H1 6984   0.199   2.242   2.692
 2326TIP3    H2 6985   0.101   2.146   2.627
 2327TIP3   OH2 6986   5.568   5.482   2.706
 2327TIP3    H1 6987   5.577   5.421   2.633
 2327TIP3    H2 6988   5.652   5.476   2.753
 2328TIP3   OH2 6989   1.846   0.145   2.445
 2328TIP3    H1 6990   1.751   0.149   2.459
 2328TIP3    H2 6991   1.857   0.159   2.351
 2329TIP3   OH2 6992   1.593   0.152   1.567
 2329TIP3    H1 6993   1.511   0.169   1.613
 2329TIP3    H2 6994   1.628   0.073   1.609
 2330TIP3   OH2 6995   3.535   0.845   2.697
 2330TIP3    H1 6996   3.491   0.852   2.613
 2330TIP3    H2 6997   3.624   0.816   2.675
 2331TIP3   OH2 6998   1.491   5.015   1.061
 2331TIP3    H1 6999   1.457   5.044   1.146
 2331TIP3    H2 7000   1.418   4.969   1.020
 2332TIP3   OH2 7001   0.969   3.453   3.899
 2332TIP3    H1 7002   0.939   3.429   3.987
 2332TIP3    H2 7003   0.889   3.465   3.849
 2333TIP3   OH2 7004   3.411   0.678   3.838
 2333TIP3    H1 7005   3.416   0.729   3.757
 2333TIP3    H2 7006   3.494   0.629   3.840
 2334TIP3   OH2 7007   2.010   0.608   4.256
 2334TIP3    H1 7008   1.923   0.649   4.248
 2334TIP3    H2 7009   2.059   0.667   4.312
 2335TIP3   OH2 7010   1.781   5.848   2.306
 2335TIP3    H1 7011   1.788   5.884   2.395
 2335TIP3    H2 7012   1.780   5.924   2.249
 2336TIP3   OH2 7013   5.443   4.498   0.610
 2336TIP3    H1 7014   5.493   4.533   0.537
 2336TIP3    H2 7015   5.362   4.464   0.571
 2337TIP3   OH2 7016   3.475   5.267   0.425
 2337TIP3    H1 7017   3.450   5.203   0.491
 2337TIP3    H2 7018   3.395   5.317   0.408
 2338TIP3   OH2 7019   0.957   3.325   3.338
 2338TIP3    H1 7020   0.969   3.249   3.281
 2338TIP3    H2 7021   0.889   3.377   3.295
 2339TIP3   OH2 7022   0.717   4.053   2.121
 2339TIP3    H1 7023   0.717   4.049   2.025
 2339TIP3    H2 7024   0.743   3.965   2.148
 2340TIP3   OH2 7025   2.607   0.616   3.273
 2340TIP3    H1 7026   2.571   0.668   3.344
 2340TIP3    H2 7027   2.536   0.610   3.209
 2341TIP3   OH2 7028   5.029   2.463   4.247
 2341TIP3    H1 7029   5.018   2.398   4.317
 2341TIP3    H2 7030   4.952   2.519   4.254
 2342TIP3   OH2 7031   0.584   3.642   4.889
 2342TIP3    H1 7032   0.574   3.730   4.926
 2342TIP3    H2 7033   0.664   3.647   4.837
 2343TIP3   OH2 7034   1.018   1.578   0.037
 2343TIP3    H1 7035   1.090   1.603  -0.020
 2343TIP3    H2 7036   1.005   1.653   0.095
 2344TIP3   OH2 7037   2.145   2.339   1.072
 2344TIP3    H1 7038   2.103   2.293   1.144
 2344TIP3    H2 7039   2.216   2.388   1.113
 2345TIP3   OH2 7040   5.984   4.070   1.655
 2345TIP3    H1 7041   5.974   4.132   1.583
 2345TIP3    H2 7042   5.924   3.999   1.634
 2346TIP3   OH2 7043   3.221   5.357   3.024
 2346TIP3    H1 7044   3.215   5.452   3.035
 2346TIP3    H2 7045   3.214   5.323   3.113
 2347TIP3   OH2 7046   3.760   4.935   2.726
 2347TIP3    H1 7047   3.820   4.931   2.800
 2347TIP3    H2 7048   3.810   4.898   2.653
 2348TIP3   OH2 7049   5.832   4.136   4.101
 2348TIP3    H1 7050   5.846   4.047   4.068
 2348TIP3    H2 7051   5.738   4.150   4.091
 2349TIP3   OH2 7052   4.685   1.112   3.390
 2349TIP3    H1 7053   4.697   1.022   3.421
 2349TIP3    H2 7054   4.655   1.161   3.467
 2350TIP3   OH2 7055   1.693   5.862   4.303
 2350TIP3    H1 7056   1.669   5.950   4.273
 2350TIP3    H2 7057   1.621   5.835   4.359
 2351TIP3   OH2 7058   3.580   1.419   2.242
 2351TIP3    H1 7059   3.518   1.492   2.231
 2351TIP3    H2 7060   3.533   1.343   2.207
 2352TIP3   OH2 7061   1.402   1.812   3.494
 2352TIP3    H1 7062   1.375   1.876   3.428
 2352TIP3    H2 7063   1.498   1.813   3.490
 2353TIP3   OH2 7064   2.173   4.933   3.831
 2353TIP3    H1 7065   2.139   4.986   3.902
 2353TIP3    H2 7066   2.204   4.853   3.874
 2354TIP3   OH2 7067   4.158   0.328   0.768
 2354TIP3    H1 7068   4.146   0.233   0.773
 2354TIP3    H2 7069   4.241   0.338   0.720
 2355TIP3   OH2 7070   5.763   2.540   4.914
 2355TIP3    H1 7071   5.855   2.517   4.924
 2355TIP3    H2 7072   5.732   2.485   4.842
 2356TIP3   OH2 7073   3.124   1.228   0.257
 2356TIP3    H1 7074   3.187   1.193   0.319
 2356TIP3    H2 7075   3.045   1.177   0.271
 2357TIP3   OH2 7076   1.855   3.952   3.831
 2357TIP3    H1 7077   1.792   3.918   3.895
 2357TIP3    H2 7078   1.800   3.992   3.763
 2358TIP3   OH2 7079   4.780   1.657   2.495
 2358TIP3    H1 7080   4.824   1.731   2.453
 2358TIP3    H2 7081   4.738   1.694   2.573
 2359TIP3   OH2 7082   1.014   4.100   1.597
 2359TIP3    H1 7083   1.015   4.195   1.597
 2359TIP3    H2 7084   0.924   4.076   1.576
 2360TIP3   OH2 7085   3.472   1.450   0.350
 2360TIP3    H1 7086   3.505   1.448   0.261
 2360TIP3    H2 7087   3.543   1.414   0.403
 2361TIP3   OH2 7088   5.843   1.224   0.491
 2361TIP3    H1 7089   5.784   1.275   0.548
 2361TIP3    H2 7090   5.931   1.242   0.526
 2362TIP3   OH2 7091   4.362   5.288   2.982
 2362TIP3    H1 7092   4.276   5.305   3.020
 2362TIP3    H2 7093   4.410   5.242   3.051
 2363TIP3   OH2 7094   1.396   1.544   0.303
 2363TIP3    H1 7095   1.383   1.627   0.349
 2363TIP3    H2 7096   1.350   1.479   0.357
 2364TIP3   OH2 7097   2.480   3.763   3.758
 2364TIP3    H1 7098   2.411   3.767   3.692
 2364TIP3    H2 7099   2.441   3.715   3.831
 2365TIP3   OH2 7100   1.915   3.483   2.776
 2365TIP3    H1 7101   1.842   3.449   2.723
 2365TIP3    H2 7102   1.907   3.578   2.769
 2366TIP3   OH2 7103   2.054   5.472   2.181
 2366TIP3    H1 7104   2.141   5.488   2.143
 2366TIP3    H2 7105   1.993   5.512   2.120
 2367TIP3   OH2 7106   2.374   3.727   4.957
 2367TIP3    H1 7107   2.436   3.670   4.912
 2367TIP3    H2 7108   2.428   3.794   4.997
 2368TIP3   OH2 7109   2.841   0.228   3.231
 2368TIP3    H1 7110   2.932   0.253   3.213
 2368TIP3    H2 7111   2.826   0.151   3.177
 2369TIP3   OH2 7112   3.792   5.643   3.097
 2369TIP3    H1 7113   3.815   5.594   3.176
 2369TIP3    H2 7114   3.866   5.702   3.084
 2370TIP3   OH2 7115   0.152   2.829   0.142
 2370TIP3    H1 7116   0.244   2.831   0.116
 2370TIP3    H2 7117   0.105   2.798   0.065
 2371TIP3   OH2 7118   5.478   5.142   0.296
 2371TIP3    H1 7119   5.396   5.106   0.331
 2371TIP3    H2 7120   5.499   5.084   0.223
 2372TIP3   OH2 7121   5.058   3.090   1.073
 2372TIP3    H1 7122   5.153   3.075   1.067
 2372TIP3    H2 7123   5.021   3.004   1.089
 2373TIP3   OH2 7124   2.434   0.330   4.302
 2373TIP3    H1 7125   2.430   0.373   4.387
 2373TIP3    H2 7126   2.381   0.385   4.244
 2374TIP3   OH2 7127   2.872   3.542   2.823
 2374TIP3    H1 7128   2.899   3.476   2.887
 2374TIP3    H2 7129   2.954   3.578   2.790
 2375TIP3   OH2 7130   0.149   5.317   0.487
 2375TIP3    H1 7131   0.161   5.412   0.490
 2375TIP3    H2 7132   0.054   5.305   0.498
 2376TIP3   OH2 7133   1.486   4.938   3.167
 2376TIP3    H1 7134   1.447   4.921   3.253
 2376TIP3    H2 7135   1.479   4.854   3.120
 2377TIP3   OH2 7136   2.209   1.026   1.571
 2377TIP3    H1 7137   2.231   1.116   1.596
 2377TIP3    H2 7138   2.118   1.015   1.598
 2378TIP3   OH2 7139   1.625   1.966   4.463
 2378TIP3    H1 7140   1.624   1.936   4.372
 2378TIP3    H2 7141   1.714   1.996   4.478
 2379TIP3   OH2 7142   6.041   5.328   2.106
 2379TIP3    H1 7143   6.083   5.306   2.022
 2379TIP3    H2 7144   5.981   5.255   2.122
 2380TIP3   OH2 7145   3.658   4.297   4.116
 2380TIP3    H1 7146   3.658   4.248   4.199
 2380TIP3    H2 7147   3.602   4.245   4.058
 2381TIP3   OH2 7148   4.157   1.448   3.848
 2381TIP3    H1 7149   4.157   1.530   3.899
 2381TIP3    H2 7150   4.065   1.434   3.826
 2382TIP3   OH2 7151   5.640   4.846   0.283
 2382TIP3    H1 7152   5.701   4.773   0.293
 2382TIP3    H2 7153   5.566   4.808   0.234
 2383TIP3   OH2 7154   0.346   4.420   2.042
 2383TIP3    H1 7155   0.292   4.487   2.001
 2383TIP3    H2 7156   0.405   4.468   2.100
 2384TIP3   OH2 7157   0.831   1.190   4.162
 2384TIP3    H1 7158   0.777   1.183   4.241
 2384TIP3    H2 7159   0.815   1.279   4.131
 2385TIP3   OH2 7160   6.019   2.961   1.587
 2385TIP3    H1 7161   6.108   2.958   1.552
 2385TIP3    H2 7162   5.974   3.025   1.531
 2386TIP3   OH2 7163   1.908   1.900   5.062
 2386TIP3    H1 7164   1.892   1.810   5.034
 2386TIP3    H2 7165   2.003   1.912   5.052
 2387TIP3   OH2 7166   1.449   2.863   0.765
 2387TIP3    H1 7167   1.537   2.855   0.727
 2387TIP3    H2 7168   1.402   2.787   0.730
 2388TIP3   OH2 7169   4.437   5.958   4.387
 2388TIP3    H1 7170   4.372   5.930   4.451
 2388TIP3    H2 7171   4.411   5.914   4.306
 2389TIP3   OH2 7172   2.178   3.087   0.511
 2389TIP3    H1 7173   2.200   3.133   0.591
 2389TIP3    H2 7174   2.082   3.081   0.512
 2390TIP3   OH2 7175   6.000   4.957   3.772
 2390TIP3    H1 7176   5.930   4.932   3.832
 2390TIP3    H2 7177   6.064   4.886   3.779
 2391TIP3   OH2 7178   3.863   0.994   1.346
 2391TIP3    H1 7179   3.851   0.957   1.259
 2391TIP3    H2 7180   3.896   0.921   1.398
 2392TIP3   OH2 7181   5.175   1.247   4.177
 2392TIP3    H1 7182   5.230   1.314   4.136
 2392TIP3    H2 7183   5.236   1.177   4.200
 2393TIP3   OH2 7184   2.611   2.496   1.656
 2393TIP3    H1 7185   2.699   2.519   1.625
 2393TIP3    H2 7186   2.621   2.486   1.751
 2394TIP3   OH2 7187   3.511   2.843   0.937
 2394TIP3    H1 7188   3.584   2.792   0.901
 2394TIP3    H2 7189   3.553   2.905   0.996
 2395TIP3   OH2 7190   3.621   5.528   1.278
 2395TIP3    H1 7191   3.616   5.439   1.244
 2395TIP3    H2 7192   3.679   5.574   1.218
 2396TIP3   OH2 7193   4.537   3.311   4.579
 2396TIP3    H1 7194   4.551   3.302   4.673
 2396TIP3    H2 7195   4.457   3.363   4.571
 2397TIP3   OH2 7196   0.031   3.894   1.406
 2397TIP3    H1 7197   0.095   3.823   1.414
 2397TIP3    H2 7198   0.032   3.938   1.491
 2398TIP3   OH2 7199   5.569   1.051   2.862
 2398TIP3    H1 7200   5.541   1.129   2.910
 2398TIP3    H2 7201   5.637   1.082   2.803
 2399TIP3   OH2 7202   3.828   4.880   3.982
 2399TIP3    H1 7203   3.790   4.923   3.905
 2399TIP3    H2 7204   3.909   4.928   3.998
 2400TIP3   OH2 7205   6.101   1.643   2.593
 2400TIP3    H1 7206   6.108   1.662   2.687
 2400TIP3    H2 7207   6.018   1.683   2.567
 2401TIP3   OH2 7208   0.024   3.670   3.634
 2401TIP3    H1 7209   0.032   3.595   3.575
 2401TIP3    H2 7210  -0.070   3.674   3.654
 2402TIP3   OH2 7211   5.852   1.949   0.586
 2402TIP3    H1 7212   5.768   1.967   0.628
 2402TIP3    H2 7213   5.832   1.883   0.520
 2403TIP3   OH2 7214   0.764   2.744   4.746
 2403TIP3    H1 7215   0.686   2.722   4.695
 2403TIP3    H2 7216   0.782   2.835   4.724
 2404TIP3   OH2 7217   2.663   3.858   1.220
 2404TIP3    H1 7218   2.579   3.857   1.266
 2404TIP3    H2 7219   2.655   3.791   1.153
 2405TIP3   OH2 7220   5.296   2.482   4.876
 2405TIP3    H1 7221   5.291   2.386   4.884
 2405TIP3    H2 7222   5.373   2.507   4.927
 2406TIP3   OH2 7223   2.484   5.891   2.448
 2406TIP3    H1 7224   2.473   5.803   2.412
 2406TIP3    H2 7225   2.415   5.899   2.514
 2407TIP3   OH2 7226   2.442   0.200   3.893
 2407TIP3    H1 7227   2.490   0.210   3.975
 2407TIP3    H2 7228   2.385   0.125   3.907
 2408TIP3   OH2 7229   1.549   3.119   0.804
 2408TIP3    H1 7230   1.498   3.046   0.768
 2408TIP3    H2 7231   1.556   3.099   0.897
 2409TIP3   OH2 7232   4.699   0.254   2.754
 2409TIP3    H1 7233   4.790   0.223   2.757
 2409TIP3    H2 7234   4.695   0.309   2.676
 2410TIP3   OH2 7235   4.914   1.343   3.187
 2410TIP3    H1 7236   4.903   1.255   3.223
 2410TIP3    H2 7237   4.884   1.336   3.096
 2411TIP3   OH2 7238   0.878   4.854   3.261
 2411TIP3    H1 7239   0.961   4.810   3.278
 2411TIP3    H2 7240   0.903   4.938   3.222
 2412TIP3   OH2 7241   3.744   1.897   4.062
 2412TIP3    H1 7242   3.794   1.960   4.114
 2412TIP3    H2 7243   3.702   1.949   3.994
 2413TIP3   OH2 7244   5.352   4.243   3.377
 2413TIP3    H1 7245   5.306   4.285   3.304
 2413TIP3    H2 7246   5.388   4.316   3.427
 2414TIP3   OH2 7247   3.609   5.245   4.776
 2414TIP3    H1 7248   3.676   5.177   4.782
 2414TIP3    H2 7249   3.560   5.223   4.697
 2415TIP3   OH2 7250   0.325   4.978   3.127
 2415TIP3    H1 7251   0.393   4.959   3.191
 2415TIP3    H2 7252   0.370   5.025   3.057
 2416TIP3   OH2 7253   4.684   1.875   3.183
 2416TIP3    H1 7254   4.609   1.867   3.124
 2416TIP3    H2 7255   4.744   1.935   3.139
 2417TIP3   OH2 7256   0.957   4.137   2.842
 2417TIP3    H1 7257   1.045   4.114   2.870
 2417TIP3    H2 7258   0.967   4.218   2.791
 2418TIP3   OH2 7259   4.120   0.607   3.576
 2418TIP3    H1 7260   4.077   0.633   3.494
 2418TIP3    H2 7261   4.050   0.565   3.626
 2419TIP3   OH2 7262   2.383   0.588   4.830
 2419TIP3    H1 7263   2.384   0.625   4.918
 2419TIP3    H2 7264   2.476   0.581   4.806
 2420TIP3   OH2 7265   4.670   1.872   2.687
 2420TIP3    H1 7266   4.745   1.896   2.632
 2420TIP3    H2 7267   4.595   1.912   2.644
 2421TIP3   OH2 7268   3.514   0.430   4.320
 2421TIP3    H1 7269   3.557   0.428   4.405
 2421TIP3    H2 7270   3.480   0.519   4.312
 2422TIP3   OH2 7271   0.827   2.205   3.790
 2422TIP3    H1 7272   0.774   2.171   3.862
 2422TIP3    H2 7273   0.765   2.220   3.719
 2423TIP3   OH2 7274   0.384   4.637   4.477
 2423TIP3    H1 7275   0.427   4.674   4.400
 2423TIP3    H2 7276   0.317   4.579   4.441
 2424TIP3   OH2 7277   6.304   3.178   2.125
 2424TIP3    H1 7278   6.308   3.082   2.118
 2424TIP3    H2 7279   6.310   3.194   2.219
 2425TIP3   OH2 7280   0.266   3.844   4.444
 2425TIP3    H1 7281   0.268   3.933   4.479
 2425TIP3    H2 7282   0.347   3.836   4.394
 2426TIP3   OH2 7283   1.780   3.644   3.863
 2426TIP3    H1 7284   1.685   3.635   3.856
 2426TIP3    H2 7285   1.794   3.694   3.943
 2427TIP3   OH2 7286   5.856   3.861   2.192
 2427TIP3    H1 7287   5.838   3.896   2.104
 2427TIP3    H2 7288   5.907   3.929   2.235
 2428TIP3   OH2 7289   1.518   4.916   4.786
 2428TIP3    H1 7290   1.478   4.984   4.733
 2428TIP3    H2 7291   1.605   4.949   4.806
 2429TIP3   OH2 7292   1.546   0.999   3.970
 2429TIP3    H1 7293   1.513   0.953   4.048
 2429TIP3    H2 7294   1.596   1.073   4.005
 2430TIP3   OH2 7295   0.903   0.854   1.157
 2430TIP3    H1 7296   0.981   0.893   1.117
 2430TIP3    H2 7297   0.892   0.901   1.239
 2431TIP3   OH2 7298   3.826   2.095   2.214
 2431TIP3    H1 7299   3.906   2.128   2.255
 2431TIP3    H2 7300   3.855   2.053   2.133
 2432TIP3   OH2 7301   5.092   4.863   1.694
 2432TIP3    H1 7302   5.169   4.812   1.717
 2432TIP3    H2 7303   5.023   4.798   1.679
 2433TIP3   OH2 7304   3.015   3.567   4.735
 2433TIP3    H1 7305   2.969   3.612   4.665
 2433TIP3    H2 7306   2.946   3.522   4.784
 2434TIP3   OH2 7307   2.232   1.522   1.728
 2434TIP3    H1 7308   2.315   1.528   1.775
 2434TIP3    H2 7309   2.230   1.600   1.673
 2435TIP3   OH2 7310   4.017   1.005   2.443
 2435TIP3    H1 7311   3.993   1.059   2.367
 2435TIP3    H2 7312   3.984   0.918   2.421
 2436TIP3   OH2 7313   1.547   4.466   2.523
 2436TIP3    H1 7314   1.536   4.560   2.511
 2436TIP3    H2 7315   1.486   4.444   2.594
 2437TIP3   OH2 7316   4.012   2.302   4.525
 2437TIP3    H1 7317   4.106   2.317   4.512
 2437TIP3    H2 7318   4.002   2.293   4.619
 2438TIP3   OH2 7319   0.778   3.031   4.693
 2438TIP3    H1 7320   0.767   3.086   4.616
 2438TIP3    H2 7321   0.861   3.060   4.731
 2439TIP3   OH2 7322   1.496   2.108   4.745
 2439TIP3    H1 7323   1.587   2.128   4.722
 2439TIP3    H2 7324   1.453   2.094   4.661
 2440TIP3   OH2 7325   3.243   4.517   1.841
 2440TIP3    H1 7326   3.198   4.588   1.794
 2440TIP3    H2 7327   3.219   4.530   1.933
 2441TIP3   OH2 7328   6.325   0.242   4.361
 2441TIP3    H1 7329   6.362   0.201   4.283
 2441TIP3    H2 7330   6.241   0.198   4.374
 2442TIP3   OH2 7331   2.434   5.478   3.776
 2442TIP3    H1 7332   2.396   5.394   3.752
 2442TIP3    H2 7333   2.491   5.502   3.703
 2443TIP3   OH2 7334   0.593   5.361   4.460
 2443TIP3    H1 7335   0.510   5.316   4.479
 2443TIP3    H2 7336   0.570   5.454   4.461
 2444TIP3   OH2 7337   0.711   3.186   4.468
 2444TIP3    H1 7338   0.629   3.224   4.500
 2444TIP3    H2 7339   0.684   3.122   4.403
 2445TIP3   OH2 7340   3.445   1.225   1.891
 2445TIP3    H1 7341   3.518   1.239   1.831
 2445TIP3    H2 7342   3.392   1.158   1.848
 2446TIP3   OH2 7343   1.702   2.577   1.453
 2446TIP3    H1 7344   1.791   2.542   1.454
 2446TIP3    H2 7345   1.677   2.584   1.545
 2447TIP3   OH2 7346   2.319   0.425   4.060
 2447TIP3    H1 7347   2.230   0.439   4.028
 2447TIP3    H2 7348   2.362   0.376   3.991
 2448TIP3   OH2 7349   2.303   0.390   1.552
 2448TIP3    H1 7350   2.364   0.398   1.478
 2448TIP3    H2 7351   2.280   0.481   1.573
 2449TIP3   OH2 7352   0.113   4.363   0.270
 2449TIP3    H1 7353   0.143   4.275   0.249
 2449TIP3    H2 7354   0.185   4.402   0.320
 2450TIP3   OH2 7355   5.662   0.780   0.442
 2450TIP3    H1 7356   5.726   0.744   0.379
 2450TIP3    H2 7357   5.623   0.855   0.396
 2451TIP3   OH2 7358   3.866   3.465   4.983
 2451TIP3    H1 7359   3.836   3.384   4.941
 2451TIP3    H2 7360   3.961   3.456   4.986
 2452TIP3   OH2 7361   1.456   2.167   1.333
 2452TIP3    H1 7362   1.365   2.148   1.356
 2452TIP3    H2 7363   1.503   2.169   1.417
 2453TIP3   OH2 7364   4.247   4.017   4.784
 2453TIP3    H1 7365   4.299   4.075   4.841
 2453TIP3    H2 7366   4.174   3.988   4.839
 2454TIP3   OH2 7367   1.472   0.538   2.718
 2454TIP3    H1 7368   1.479   0.486   2.638
 2454TIP3    H2 7369   1.530   0.613   2.703
 2455TIP3   OH2 7370   0.745   2.438   1.621
 2455TIP3    H1 7371   0.704   2.475   1.700
 2455TIP3    H2 7372   0.671   2.407   1.569
 2456TIP3   OH2 7373   2.975   4.811   4.500
 2456TIP3    H1 7374   2.926   4.738   4.537
 2456TIP3    H2 7375   2.934   4.827   4.415
 2457TIP3   OH2 7376   0.805   2.724   2.407
 2457TIP3    H1 7377   0.794   2.690   2.496
 2457TIP3    H2 7378   0.847   2.653   2.359
 2458TIP3   OH2 7379   0.711   0.091   3.438
 2458TIP3    H1 7380   0.722  -0.004   3.444
 2458TIP3    H2 7381   0.628   0.103   3.392
 2459TIP3   OH2 7382   2.063   2.558   1.585
 2459TIP3    H1 7383   2.091   2.649   1.590
 2459TIP3    H2 7384   2.130   2.510   1.634
 2460TIP3   OH2 7385   5.602   0.727   0.169
 2460TIP3    H1 7386   5.600   0.633   0.149
 2460TIP3    H2 7387   5.551   0.767   0.099
 2461TIP3   OH2 7388   3.247   0.596   2.535
 2461TIP3    H1 7389   3.157   0.575   2.562
 2461TIP3    H2 7390   3.238   0.668   2.473
 2462TIP3   OH2 7391   4.298   3.113   2.801
 2462TIP3    H1 7392   4.331   3.173   2.868
 2462TIP3    H2 7393   4.266   3.037   2.850
 2463TIP3   OH2 7394   1.654   3.691   1.774
 2463TIP3    H1 7395   1.594   3.690   1.849
 2463TIP3    H2 7396   1.596   3.688   1.698
 2464TIP3   OH2 7397   4.584   2.378   1.689
 2464TIP3    H1 7398   4.658   2.415   1.640
 2464TIP3    H2 7399   4.543   2.454   1.730
 2465TIP3   OH2 7400   2.806   3.733   4.251
 2465TIP3    H1 7401   2.777   3.750   4.162
 2465TIP3    H2 7402   2.732   3.689   4.293
 2466TIP3   OH2 7403   3.018   1.973   4.081
 2466TIP3    H1 7404   3.033   1.938   3.994
 2466TIP3    H2 7405   2.945   1.922   4.116
 2467TIP3   OH2 7406   1.287  -0.010   1.752
 2467TIP3    H1 7407   1.298  -0.041   1.662
 2467TIP3    H2 7408   1.192   0.000   1.763
 2468TIP3   OH2 7409   3.656   0.410   4.548
 2468TIP3    H1 7410   3.628   0.400   4.639
 2468TIP3    H2 7411   3.750   0.425   4.554
 2469TIP3   OH2 7412   0.395   2.200   2.220
 2469TIP3    H1 7413   0.442   2.181   2.302
 2469TIP3    H2 7414   0.397   2.117   2.171
 2470TIP3   OH2 7415   4.086   1.480   0.644
 2470TIP3    H1 7416   4.016   1.521   0.595
 2470TIP3    H2 7417   4.165   1.496   0.592
 2471TIP3   OH2 7418   4.502   1.500   1.755
 2471TIP3    H1 7419   4.432   1.523   1.695
 2471TIP3    H2 7420   4.491   1.406   1.771
 2472TIP3   OH2 7421   2.201   0.757   1.496
 2472TIP3    H1 7422   2.170   0.847   1.483
 2472TIP3    H2 7423   2.232   0.755   1.586
 2473TIP3   OH2 7424   0.079   5.494   4.016
 2473TIP3    H1 7425   0.106   5.543   4.094
 2473TIP3    H2 7426   0.087   5.556   3.944
 2474TIP3   OH2 7427   5.511   0.609   1.908
 2474TIP3    H1 7428   5.509   0.645   1.820
 2474TIP3    H2 7429   5.604   0.599   1.929
 2475TIP3   OH2 7430   1.929   5.589   4.173
 2475TIP3    H1 7431   1.970   5.663   4.217
 2475TIP3    H2 7432   1.895   5.626   4.091
 2476TIP3   OH2 7433   3.001   4.426   0.737
 2476TIP3    H1 7434   3.087   4.467   0.734
 2476TIP3    H2 7435   3.007   4.362   0.808
 2477TIP3   OH2 7436   3.221   3.623   3.653
 2477TIP3    H1 7437   3.146   3.569   3.676
 2477TIP3    H2 7438   3.185   3.695   3.602
 2478TIP3   OH2 7439   5.804   1.702   3.097
 2478TIP3    H1 7440   5.789   1.761   3.023
 2478TIP3    H2 7441   5.899   1.705   3.111
 2479TIP3   OH2 7442   3.619   2.879   4.514
 2479TIP3    H1 7443   3.538   2.893   4.465
 2479TIP3    H2 7444   3.607   2.794   4.556
 2480TIP3   OH2 7445   2.096   4.927   2.908
 2480TIP3    H1 7446   2.056   4.843   2.931
 2480TIP3    H2 7447   2.133   4.913   2.821
 2481TIP3   OH2 7448   3.626   0.588   1.952
 2481TIP3    H1 7449   3.575   0.660   1.988
 2481TIP3    H2 7450   3.650   0.535   2.029
 2482TIP3   OH2 7451   5.442   4.633   3.389
 2482TIP3    H1 7452   5.453   4.586   3.471
 2482TIP3    H2 7453   5.517   4.693   3.385
 2483TIP3   OH2 7454   5.235   0.833   3.863
 2483TIP3    H1 7455   5.225   0.755   3.917
 2483TIP3    H2 7456   5.162   0.889   3.888
 2484TIP3   OH2 7457   5.432   0.307   5.015
 2484TIP3    H1 7458   5.500   0.242   5.034
 2484TIP3    H2 7459   5.480   0.387   4.993
 2485TIP3   OH2 7460   2.638   3.430   2.259
 2485TIP3    H1 7461   2.672   3.467   2.177
 2485TIP3    H2 7462   2.714   3.385   2.297
 2486TIP3   OH2 7463   0.193   1.075   2.211
 2486TIP3    H1 7464   0.237   1.018   2.148
 2486TIP3    H2 7465   0.104   1.040   2.216
 2487TIP3   OH2 7466   2.769   2.395   0.509
 2487TIP3    H1 7467   2.767   2.339   0.432
 2487TIP3    H2 7468   2.845   2.451   0.496
 2488TIP3   OH2 7469   4.969   0.486   4.682
 2488TIP3    H1 7470   4.959   0.403   4.635
 2488TIP3    H2 7471   4.955   0.553   4.615
 2489TIP3   OH2 7472   1.122   4.505   0.571
 2489TIP3    H1 7473   1.128   4.496   0.666
 2489TIP3    H2 7474   1.149   4.420   0.537
 2490TIP3   OH2 7475   6.178   1.302   1.487
 2490TIP3    H1 7476   6.157   1.276   1.397
 2490TIP3    H2 7477   6.117   1.374   1.506
 2491TIP3   OH2 7478   5.819   2.022   2.696
 2491TIP3    H1 7479   5.914   2.009   2.698
 2491TIP3    H2 7480   5.804   2.100   2.749
 2492TIP3   OH2 7481   0.364   2.593   2.378
 2492TIP3    H1 7482   0.306   2.639   2.318
 2492TIP3    H2 7483   0.429   2.658   2.404
 2493TIP3   OH2 7484   5.696   3.099   1.763
 2493TIP3    H1 7485   5.709   3.190   1.791
 2493TIP3    H2 7486   5.742   3.092   1.680
 2494TIP3   OH2 7487   3.542   3.717   1.839
 2494TIP3    H1 7488   3.512   3.806   1.855
 2494TIP3    H2 7489   3.490   3.688   1.763
 2495TIP3   OH2 7490   1.982  -0.003   1.615
 2495TIP3    H1 7491   1.998   0.059   1.544
 2495TIP3    H2 7492   1.893  -0.034   1.600
 2496TIP3   OH2 7493   0.346   4.250   0.941
 2496TIP3    H1 7494   0.330   4.258   0.847
 2496TIP3    H2 7495   0.260   4.232   0.979
 2497TIP3   OH2 7496   2.145   5.268   3.162
 2497TIP3    H1 7497   2.140   5.297   3.071
 2497TIP3    H2 7498   2.147   5.172   3.157
 2498TIP3   OH2 7499   5.325   3.968   0.430
 2498TIP3    H1 7500   5.421   3.974   0.429
 2498TIP3    H2 7501   5.298   4.013   0.350
 2499TIP3   OH2 7502   2.068   1.596   3.094
 2499TIP3    H1 7503   1.990   1.545   3.117
 2499TIP3    H2 7504   2.087   1.571   3.003
 2500TIP3   OH2 7505   2.833   4.194   3.370
 2500TIP3    H1 7506   2.855   4.273   3.419
 2500TIP3    H2 7507   2.757   4.157   3.416
 2501TIP3   OH2 7508   2.055   0.451   0.883
 2501TIP3    H1 7509   2.141   0.431   0.845
 2501TIP3    H2 7510   2.014   0.509   0.819
 2502TIP3   OH2 7511   1.106   4.521   2.655
 2502TIP3    H1 7512   1.060   4.440   2.632
 2502TIP3    H2 7513   1.053   4.558   2.726
 2503TIP3   OH2 7514   5.237   2.861   3.390
 2503TIP3    H1 7515   5.298   2.870   3.462
 2503TIP3    H2 7516   5.171   2.929   3.405
 2504TIP3   OH2 7517   0.337   3.312   2.766
 2504TIP3    H1 7518   0.281   3.283   2.837
 2504TIP3    H2 7519   0.280   3.312   2.689
 2505TIP3   OH2 7520   3.958   3.689   2.266
 2505TIP3    H1 7521   4.032   3.731   2.308
 2505TIP3    H2 7522   3.906   3.762   2.231
 2506TIP3   OH2 7523   5.773   3.858   3.737
 2506TIP3    H1 7524   5.810   3.887   3.821
 2506TIP3    H2 7525   5.845   3.864   3.675
 2507TIP3   OH2 7526   3.431   5.667   2.798
 2507TIP3    H1 7527   3.473   5.681   2.883
 2507TIP3    H2 7528   3.385   5.750   2.781
 2508TIP3   OH2 7529   4.558   1.565   2.004
 2508TIP3    H1 7530   4.529   1.494   1.947
 2508TIP3    H2 7531   4.479   1.617   2.020
 2509TIP3   OH2 7532   1.446   3.682   4.082
 2509TIP3    H1 7533   1.374   3.725   4.128
 2509TIP3    H2 7534   1.433   3.704   3.990
 2510TIP3   OH2 7535   0.109   3.283   0.562
 2510TIP3    H1 7536   0.140   3.342   0.631
 2510TIP3    H2 7537   0.021   3.258   0.590
 2511TIP3   OH2 7538   3.176   1.938   3.025
 2511TIP3    H1 7539   3.169   1.988   2.943
 2511TIP3    H2 7540   3.108   1.976   3.081
 2512TIP3   OH2 7541   2.286   4.886   0.949
 2512TIP3    H1 7542   2.353   4.934   0.996
 2512TIP3    H2 7543   2.289   4.797   0.986
 2513TIP3   OH2 7544   4.319   4.802   1.513
 2513TIP3    H1 7545   4.321   4.730   1.450
 2513TIP3    H2 7546   4.395   4.787   1.569
 2514TIP3   OH2 7547   5.015   1.465   3.906
 2514TIP3    H1 7548   4.937   1.426   3.866
 2514TIP3    H2 7549   5.082   1.398   3.899
 2515TIP3   OH2 7550   4.888   3.454   4.878
 2515TIP3    H1 7551   4.906   3.433   4.786
 2515TIP3    H2 7552   4.971   3.489   4.911
 2516TIP3   OH2 7553   1.008   0.379   0.231
 2516TIP3    H1 7554   0.964   0.429   0.300
 2516TIP3    H2 7555   0.988   0.288   0.251
 2517TIP3   OH2 7556   5.126   5.409   3.402
 2517TIP3    H1 7557   5.063   5.338   3.416
 2517TIP3    H2 7558   5.113   5.435   3.311
 2518TIP3   OH2 7559   6.096   2.552   5.067
 2518TIP3    H1 7560   6.141   2.596   4.995
 2518TIP3    H2 7561   6.038   2.619   5.104
 2519TIP3   OH2 7562   5.323   0.259   4.492
 2519TIP3    H1 7563   5.353   0.273   4.403
 2519TIP3    H2 7564   5.390   0.301   4.547
 2520TIP3   OH2 7565   2.831   4.690   0.272
 2520TIP3    H1 7566   2.901   4.685   0.338
 2520TIP3    H2 7567   2.793   4.602   0.271
 2521TIP3   OH2 7568   1.205   2.077   4.785
 2521TIP3    H1 7569   1.172   2.022   4.856
 2521TIP3    H2 7570   1.292   2.043   4.765
 2522TIP3   OH2 7571   0.019   1.172   3.661
 2522TIP3    H1 7572   0.003   1.112   3.588
 2522TIP3    H2 7573   0.083   1.126   3.715
 2523TIP3   OH2 7574   3.952   5.486   0.809
 2523TIP3    H1 7575   4.026   5.438   0.773
 2523TIP3    H2 7576   3.930   5.440   0.890
 2524TIP3   OH2 7577   5.563   3.543   2.633
 2524TIP3    H1 7578   5.629   3.544   2.564
 2524TIP3    H2 7579   5.502   3.613   2.609
 2525TIP3   OH2 7580   3.024   3.041   2.892
 2525TIP3    H1 7581   3.115   3.051   2.920
 2525TIP3    H2 7582   2.994   2.963   2.938
 2526TIP3   OH2 7583   4.258   5.104   0.220
 2526TIP3    H1 7584   4.169   5.131   0.196
 2526TIP3    H2 7585   4.315   5.166   0.173
 2527TIP3   OH2 7586   2.223   2.642   2.429
 2527TIP3    H1 7587   2.237   2.547   2.429
 2527TIP3    H2 7588   2.168   2.658   2.506
 2528TIP3   OH2 7589   5.963   5.701   0.120
 2528TIP3    H1 7590   5.928   5.633   0.062
 2528TIP3    H2 7591   5.887   5.732   0.169
 2529TIP3   OH2 7592   2.780   1.898   1.201
 2529TIP3    H1 7593   2.779   1.824   1.261
 2529TIP3    H2 7594   2.712   1.877   1.136
 2530TIP3   OH2 7595   4.332   0.020   0.652
 2530TIP3    H1 7596   4.377  -0.052   0.607
 2530TIP3    H2 7597   4.401   0.086   0.665
 2531TIP3   OH2 7598   4.547   5.808   4.074
 2531TIP3    H1 7599   4.539   5.738   4.139
 2531TIP3    H2 7600   4.473   5.794   4.014
 2532TIP3   OH2 7601   3.011   4.923   1.019
 2532TIP3    H1 7602   2.959   4.921   0.939
 2532TIP3    H2 7603   3.056   4.838   1.021
 2533TIP3   OH2 7604   4.184   2.387   1.100
 2533TIP3    H1 7605   4.207   2.354   1.187
 2533TIP3    H2 7606   4.108   2.335   1.074
 2534TIP3   OH2 7607   0.321   1.156   2.963
 2534TIP3    H1 7608   0.346   1.064   2.954
 2534TIP3    H2 7609   0.367   1.186   3.041
 2535TIP3   OH2 7610   5.006   2.106   0.899
 2535TIP3    H1 7611   5.008   2.198   0.925
 2535TIP3    H2 7612   4.931   2.099   0.840
 2536TIP3   OH2 7613   6.030   5.616   4.245
 2536TIP3    H1 7614   5.951   5.575   4.282
 2536TIP3    H2 7615   5.997   5.697   4.204
 2537TIP3   OH2 7616   3.538   2.191   2.564
 2537TIP3    H1 7617   3.551   2.151   2.650
 2537TIP3    H2 7618   3.582   2.132   2.503
 2538TIP3   OH2 7619   2.711   4.154   1.734
 2538TIP3    H1 7620   2.686   4.140   1.643
 2538TIP3    H2 7621   2.633   4.134   1.785
 2539TIP3   OH2 7622   4.932   0.070   3.519
 2539TIP3    H1 7623   4.878  -0.010   3.522
 2539TIP3    H2 7624   4.892   0.128   3.584
 2540TIP3   OH2 7625   2.288   2.468   1.700
 2540TIP3    H1 7626   2.369   2.484   1.651
 2540TIP3    H2 7627   2.289   2.534   1.770
 2541TIP3   OH2 7628   3.024   3.623   0.648
 2541TIP3    H1 7629   3.008   3.685   0.719
 2541TIP3    H2 7630   3.104   3.654   0.606
 2542TIP3   OH2 7631   3.296   1.708   4.470
 2542TIP3    H1 7632   3.315   1.673   4.383
 2542TIP3    H2 7633   3.305   1.803   4.460
 2543TIP3   OH2 7634   4.335   1.918   4.184
 2543TIP3    H1 7635   4.241   1.917   4.170
 2543TIP3    H2 7636   4.373   1.933   4.098
 2544TIP3   OH2 7637   3.801   5.194   3.435
 2544TIP3    H1 7638   3.754   5.263   3.388
 2544TIP3    H2 7639   3.766   5.113   3.399
 2545TIP3   OH2 7640   0.936   5.317   0.888
 2545TIP3    H1 7641   0.902   5.233   0.856
 2545TIP3    H2 7642   1.013   5.295   0.939
 2546TIP3   OH2 7643   0.216   4.070   3.502
 2546TIP3    H1 7644   0.179   4.143   3.453
 2546TIP3    H2 7645   0.183   3.992   3.456
 2547TIP3   OH2 7646   3.324   2.234   0.759
 2547TIP3    H1 7647   3.349   2.147   0.729
 2547TIP3    H2 7648   3.328   2.288   0.680
 2548TIP3   OH2 7649   1.360   4.422   1.617
 2548TIP3    H1 7650   1.441   4.429   1.566
 2548TIP3    H2 7651   1.330   4.332   1.601
 2549TIP3   OH2 7652   1.520   5.540   0.921
 2549TIP3    H1 7653   1.556   5.457   0.951
 2549TIP3    H2 7654   1.482   5.519   0.835
 2550TIP3   OH2 7655   4.433   1.174   4.520
 2550TIP3    H1 7656   4.496   1.102   4.514
 2550TIP3    H2 7657   4.367   1.144   4.581
 2551TIP3   OH2 7658   3.265   5.350   1.130
 2551TIP3    H1 7659   3.270   5.272   1.075
 2551TIP3    H2 7660   3.221   5.415   1.076
 2552TIP3   OH2 7661   0.963   2.778   0.366
 2552TIP3    H1 7662   1.017   2.734   0.432
 2552TIP3    H2 7663   1.023   2.794   0.293
 2553TIP3   OH2 7664   6.098   1.499   3.783
 2553TIP3    H1 7665   6.120   1.468   3.695
 2553TIP3    H2 7666   6.155   1.574   3.797
 2554TIP3   OH2 7667   0.150   5.670   3.060
 2554TIP3    H1 7668   0.210   5.621   3.117
 2554TIP3    H2 7669   0.160   5.630   2.974
 2555TIP3   OH2 7670   1.463   0.869   4.887
 2555TIP3    H1 7671   1.485   0.778   4.871
 2555TIP3    H2 7672   1.391   0.888   4.827
 2556TIP3   OH2 7673   0.664   3.252   1.682
 2556TIP3    H1 7674   0.583   3.303   1.670
 2556TIP3    H2 7675   0.698   3.239   1.594
 2557TIP3   OH2 7676   1.976   1.988   2.108
 2557TIP3    H1 7677   1.966   1.947   2.022
 2557TIP3    H2 7678   1.929   1.931   2.168
 2558TIP3   OH2 7679   2.398   2.889   2.765
 2558TIP3    H1 7680   2.464   2.951   2.735
 2558TIP3    H2 7681   2.398   2.898   2.861
 2559TIP3   OH2 7682   4.227   1.272   2.280
 2559TIP3    H1 7683   4.299   1.209   2.281
 2559TIP3    H2 7684   4.268   1.355   2.302
 2560TIP3   OH2 7685   2.281   5.085   1.332
 2560TIP3    H1 7686   2.203   5.125   1.294
 2560TIP3    H2 7687   2.263   4.991   1.328
 2561TIP3   OH2 7688   4.935   5.449   0.234
 2561TIP3    H1 7689   4.984   5.392   0.294
 2561TIP3    H2 7690   4.876   5.497   0.290
 2562TIP3   OH2 7691   5.666   0.812   4.586
 2562TIP3    H1 7692   5.626   0.844   4.666
 2562TIP3    H2 7693   5.737   0.873   4.567
 2563TIP3   OH2 7694   3.088   0.835   3.572
 2563TIP3    H1 7695   3.127   0.919   3.595
 2563TIP3    H2 7696   3.139   0.805   3.497
 2564TIP3   OH2 7697   4.380   1.492   4.630
 2564TIP3    H1 7698   4.319   1.450   4.690
 2564TIP3    H2 7699   4.406   1.424   4.569
 2565TIP3   OH2 7700   3.518   4.779   4.838
 2565TIP3    H1 7701   3.457   4.708   4.857
 2565TIP3    H2 7702   3.552   4.805   4.924
 2566TIP3   OH2 7703   5.599   2.013   4.403
 2566TIP3    H1 7704   5.586   2.013   4.498
 2566TIP3    H2 7705   5.693   2.028   4.392
 2567TIP3   OH2 7706   4.469   0.808   2.495
 2567TIP3    H1 7707   4.433   0.719   2.499
 2567TIP3    H2 7708   4.564   0.796   2.501
 2568TIP3   OH2 7709   3.448   1.555   3.661
 2568TIP3    H1 7710   3.540   1.577   3.675
 2568TIP3    H2 7711   3.433   1.569   3.567
 2569TIP3   OH2 7712   4.978   4.967   4.519
 2569TIP3    H1 7713   4.963   4.948   4.427
 2569TIP3    H2 7714   4.994   5.061   4.523
 2570TIP3   OH2 7715   4.091   0.588   1.832
 2570TIP3    H1 7716   3.997   0.581   1.813
 2570TIP3    H2 7717   4.096   0.580   1.928
 2571TIP3   OH2 7718   4.153   4.085   5.075
 2571TIP3    H1 7719   4.205   4.008   5.097
 2571TIP3    H2 7720   4.106   4.106   5.156
 2572TIP3   OH2 7721   4.904   3.353   4.109
 2572TIP3    H1 7722   4.837   3.398   4.058
 2572TIP3    H2 7723   4.985   3.401   4.090
 2573TIP3   OH2 7724   0.386   0.784   1.873
 2573TIP3    H1 7725   0.477   0.804   1.897
 2573TIP3    H2 7726   0.394   0.727   1.796
 2574TIP3   OH2 7727   2.590   2.613   0.203
 2574TIP3    H1 7728   2.511   2.589   0.251
 2574TIP3    H2 7729   2.558   2.662   0.127
 2575TIP3   OH2 7730   2.432   3.334   4.091
 2575TIP3    H1 7731   2.394   3.351   4.177
 2575TIP3    H2 7732   2.364   3.287   4.043
 2576TIP3   OH2 7733   4.551   3.108   2.669
 2576TIP3    H1 7734   4.456   3.119   2.674
 2576TIP3    H2 7735   4.586   3.184   2.714
 2577TIP3   OH2 7736   4.924   5.628   3.624
 2577TIP3    H1 7737   4.864   5.693   3.659
 2577TIP3    H2 7738   4.991   5.679   3.578
 2578TIP3   OH2 7739   0.889   2.630   3.643
 2578TIP3    H1 7740   0.913   2.673   3.561
 2578TIP3    H2 7741   0.809   2.675   3.671
 2579TIP3   OH2 7742   6.322   0.793   1.303
 2579TIP3    H1 7743   6.263   0.859   1.339
 2579TIP3    H2 7744   6.272   0.751   1.233
 2580TIP3   OH2 7745   4.243   2.918   4.818
 2580TIP3    H1 7746   4.165   2.873   4.851
 2580TIP3    H2 7747   4.229   3.010   4.843
 2581TIP3   OH2 7748   4.599   1.707   1.557
 2581TIP3    H1 7749   4.572   1.690   1.467
 2581TIP3    H2 7750   4.545   1.647   1.610
 2582TIP3   OH2 7751   0.843   3.958   2.501
 2582TIP3    H1 7752   0.824   4.041   2.458
 2582TIP3    H2 7753   0.795   3.893   2.450
 2583TIP3   OH2 7754   2.461   2.925   4.487
 2583TIP3    H1 7755   2.547   2.953   4.516
 2583TIP3    H2 7756   2.464   2.933   4.392
 2584TIP3   OH2 7757   1.367   5.124   1.686
 2584TIP3    H1 7758   1.354   5.148   1.778
 2584TIP3    H2 7759   1.443   5.176   1.658
 2585TIP3   OH2 7760   4.578   5.091   5.102
 2585TIP3    H1 7761   4.646   5.049   5.154
 2585TIP3    H2 7762   4.500   5.090   5.158
 2586TIP3   OH2 7763   5.413   4.212   1.673
 2586TIP3    H1 7764   5.488   4.160   1.647
 2586TIP3    H2 7765   5.409   4.283   1.609
 2587TIP3   OH2 7766   0.056   5.546   4.281
 2587TIP3    H1 7767  -0.010   5.515   4.343
 2587TIP3    H2 7768   0.093   5.623   4.323
 2588TIP3   OH2 7769   5.510   1.912   1.359
 2588TIP3    H1 7770   5.468   1.852   1.297
 2588TIP3    H2 7771   5.441   1.936   1.420
 2589TIP3   OH2 7772   6.127   2.202   5.146
 2589TIP3    H1 7773   6.172   2.284   5.166
 2589TIP3    H2 7774   6.129   2.154   5.229
 2590TIP3   OH2 7775   1.366   0.380   4.153
 2590TIP3    H1 7776   1.419   0.309   4.188
 2590TIP3    H2 7777   1.311   0.408   4.226
 2591TIP3   OH2 7778   1.433   1.206   4.196
 2591TIP3    H1 7779   1.475   1.183   4.279
 2591TIP3    H2 7780   1.506   1.220   4.135
 2592TIP3   OH2 7781   1.853   5.713   3.459
 2592TIP3    H1 7782   1.761   5.699   3.484
 2592TIP3    H2 7783   1.872   5.641   3.399
 2593TIP3   OH2 7784   6.142   2.492   1.708
 2593TIP3    H1 7785   6.065   2.436   1.702
 2593TIP3    H2 7786   6.197   2.451   1.775
 2594TIP3   OH2 7787   2.103   3.538   3.112
 2594TIP3    H1 7788   2.011   3.558   3.127
 2594TIP3    H2 7789   2.103   3.484   3.033
 2595TIP3   OH2 7790   0.881   0.659   2.187
 2595TIP3    H1 7791   0.843   0.573   2.205
 2595TIP3    H2 7792   0.962   0.639   2.141
 2596TIP3   OH2 7793   3.620   4.697   3.856
 2596TIP3    H1 7794   3.526   4.705   3.875
 2596TIP3    H2 7795   3.659   4.671   3.939
 2597TIP3   OH2 7796   4.477   2.130   1.506
 2597TIP3    H1 7797   4.570   2.131   1.485
 2597TIP3    H2 7798   4.472   2.088   1.591
 2598TIP3   OH2 7799   0.845   2.267   4.483
 2598TIP3    H1 7800   0.927   2.312   4.464
 2598TIP3    H2 7801   0.784   2.338   4.506
 2599TIP3   OH2 7802   5.170   5.232   2.987
 2599TIP3    H1 7803   5.149   5.323   3.011
 2599TIP3    H2 7804   5.213   5.197   3.065
 2600TIP3   OH2 7805   4.020   5.239   2.769
 2600TIP3    H1 7806   3.951   5.268   2.710
 2600TIP3    H2 7807   4.016   5.299   2.843
 2601TIP3   OH2 7808   2.475   4.213   3.203
 2601TIP3    H1 7809   2.512   4.160   3.275
 2601TIP3    H2 7810   2.523   4.185   3.126
 2602TIP3   OH2 7811   1.971   0.131   3.842
 2602TIP3    H1 7812   1.908   0.178   3.788
 2602TIP3    H2 7813   1.945   0.150   3.932
 2603TIP3   OH2 7814   4.557   1.113   3.757
 2603TIP3    H1 7815   4.507   1.062   3.693
 2603TIP3    H2 7816   4.497   1.183   3.783
 2604TIP3   OH2 7817   6.059   2.927   4.784
 2604TIP3    H1 7818   6.078   2.855   4.844
 2604TIP3    H2 7819   5.987   2.894   4.730
 2605TIP3   OH2 7820   5.497   1.322   0.395
 2605TIP3    H1 7821   5.483   1.416   0.387
 2605TIP3    H2 7822   5.534   1.296   0.311
 2606TIP3   OH2 7823   4.207   1.191   3.880
 2606TIP3    H1 7824   4.136   1.148   3.832
 2606TIP3    H2 7825   4.187   1.285   3.874
 2607TIP3   OH2 7826   4.707   2.908   4.899
 2607TIP3    H1 7827   4.684   2.831   4.951
 2607TIP3    H2 7828   4.705   2.878   4.809
 2608TIP3   OH2 7829   1.654   3.974   3.667
 2608TIP3    H1 7830   1.587   3.929   3.615
 2608TIP3    H2 7831   1.648   4.066   3.639
 2609TIP3   OH2 7832   3.284   3.780   2.044
 2609TIP3    H1 7833   3.214   3.819   1.991
 2609TIP3    H2 7834   3.244   3.703   2.084
 2610TIP3   OH2 7835   6.007   4.701   2.485
 2610TIP3    H1 7836   6.003   4.724   2.392
 2610TIP3    H2 7837   6.100   4.684   2.501
 2611TIP3   OH2 7838   2.385   5.347   0.157
 2611TIP3    H1 7839   2.341   5.307   0.082
 2611TIP3    H2 7840   2.436   5.418   0.120
 2612TIP3   OH2 7841   5.441   3.314   0.460
 2612TIP3    H1 7842   5.363   3.318   0.405
 2612TIP3    H2 7843   5.434   3.391   0.517
 2613TIP3   OH2 7844   3.300   4.426   0.773
 2613TIP3    H1 7845   3.351   4.346   0.788
 2613TIP3    H2 7846   3.321   4.452   0.684
 2614TIP3   OH2 7847   3.411   0.726   0.171
 2614TIP3    H1 7848   3.395   0.771   0.088
 2614TIP3    H2 7849   3.431   0.636   0.145
 2615TIP3   OH2 7850   0.292   4.728   1.342
 2615TIP3    H1 7851   0.379   4.760   1.365
 2615TIP3    H2 7852   0.308   4.657   1.279
 2616TIP3   OH2 7853   5.645   3.986   2.376
 2616TIP3    H1 7854   5.698   4.066   2.372
 2616TIP3    H2 7855   5.559   4.014   2.346
 2617TIP3   OH2 7856   1.216   2.899   0.510
 2617TIP3    H1 7857   1.158   2.942   0.574
 2617TIP3    H2 7858   1.189   2.807   0.513
 2618TIP3   OH2 7859   3.567   5.758   3.024
 2618TIP3    H1 7860   3.568   5.849   2.994
 2618TIP3    H2 7861   3.657   5.740   3.050
 2619TIP3   OH2 7862   6.286   4.565   0.217
 2619TIP3    H1 7863   6.344   4.506   0.267
 2619TIP3    H2 7864   6.346   4.620   0.166
 2620TIP3   OH2 7865   2.055   3.477   0.967
 2620TIP3    H1 7866   2.111   3.553   0.977
 2620TIP3    H2 7867   2.084   3.415   1.034
 2621TIP3   OH2 7868   5.229   1.856   4.254
 2621TIP3    H1 7869   5.283   1.864   4.175
 2621TIP3    H2 7870   5.169   1.931   4.248
 2622TIP3   OH2 7871   2.942   2.920   0.293
 2622TIP3    H1 7872   2.914   2.912   0.202
 2622TIP3    H2 7873   2.872   2.879   0.344
 2623TIP3   OH2 7874   4.326   3.608   0.742
 2623TIP3    H1 7875   4.247   3.580   0.697
 2623TIP3    H2 7876   4.323   3.704   0.739
 2624TIP3   OH2 7877   0.917   0.747   4.700
 2624TIP3    H1 7878   0.824   0.770   4.693
 2624TIP3    H2 7879   0.959   0.797   4.631
 2625TIP3   OH2 7880   4.998   0.783   1.760
 2625TIP3    H1 7881   4.959   0.728   1.827
 2625TIP3    H2 7882   4.939   0.774   1.685
 2626TIP3   OH2 7883   3.137   0.861   4.710
 2626TIP3    H1 7884   3.218   0.882   4.664
 2626TIP3    H2 7885   3.156   0.780   4.757
 2627TIP3   OH2 7886   0.098   4.427   1.763
 2627TIP3    H1 7887   0.156   4.352   1.751
 2627TIP3    H2 7888   0.111   4.480   1.684
 2628TIP3   OH2 7889   4.035   2.113   5.124
 2628TIP3    H1 7890   4.030   2.081   5.033
 2628TIP3    H2 7891   4.121   2.153   5.130
 2629TIP3   OH2 7892   1.193   3.375   0.440
 2629TIP3    H1 7893   1.157   3.301   0.390
 2629TIP3    H2 7894   1.121   3.438   0.444
 2630TIP3   OH2 7895   0.752   1.001   5.158
 2630TIP3    H1 7896   0.801   1.010   5.240
 2630TIP3    H2 7897   0.819   1.010   5.090
 2631TIP3   OH2 7898   4.192   3.091   3.946
 2631TIP3    H1 7899   4.128   3.162   3.945
 2631TIP3    H2 7900   4.219   3.084   4.038
 2632TIP3   OH2 7901   6.097   4.273   4.755
 2632TIP3    H1 7902   6.091   4.357   4.709
 2632TIP3    H2 7903   6.057   4.210   4.696
 2633TIP3   OH2 7904   4.032   0.053   3.115
 2633TIP3    H1 7905   3.951   0.007   3.135
 2633TIP3    H2 7906   4.101  -0.001   3.153
 2634TIP3   OH2 7907   5.446   3.913   2.687
 2634TIP3    H1 7908   5.406   3.963   2.757
 2634TIP3    H2 7909   5.391   3.835   2.678
 2635TIP3   OH2 7910   0.976   4.387   1.578
 2635TIP3    H1 7911   0.937   4.430   1.654
 2635TIP3    H2 7912   1.061   4.429   1.566
 2636TIP3   OH2 7913   3.856   1.914   0.896
 2636TIP3    H1 7914   3.935   1.932   0.845
 2636TIP3    H2 7915   3.796   1.874   0.834
 2637TIP3   OH2 7916   5.574   5.016   0.060
 2637TIP3    H1 7917   5.654   4.975   0.027
 2637TIP3    H2 7918   5.544   5.071  -0.012
 2638TIP3   OH2 7919   5.785   3.033   2.753
 2638TIP3    H1 7920   5.727   3.107   2.768
 2638TIP3    H2 7921   5.734   2.956   2.778
 2639TIP3   OH2 7922   2.934   3.492   3.212
 2639TIP3    H1 7923   2.961   3.462   3.126
 2639TIP3    H2 7924   3.004   3.465   3.271
 2640TIP3   OH2 7925   0.075   4.777   1.684
 2640TIP3    H1 7926   0.112   4.704   1.636
 2640TIP3    H2 7927   0.142   4.845   1.679
 2641TIP3   OH2 7928   1.784   1.047   0.446
 2641TIP3    H1 7929   1.698   1.082   0.422
 2641TIP3    H2 7930   1.815   1.004   0.366
 2642TIP3   OH2 7931   2.952   4.599   4.037
 2642TIP3    H1 7932   2.889   4.540   3.995
 2642TIP3    H2 7933   2.980   4.658   3.967
 2643TIP3   OH2 7934   2.989   2.291   3.600
 2643TIP3    H1 7935   3.040   2.358   3.647
 2643TIP3    H2 7936   2.990   2.215   3.658
 2644TIP3   OH2 7937   1.981   1.452   5.077
 2644TIP3    H1 7938   2.066   1.491   5.096
 2644TIP3    H2 7939   1.994   1.358   5.092
 2645TIP3   OH2 7940   4.381   1.927   2.576
 2645TIP3    H1 7941   4.347   1.981   2.648
 2645TIP3    H2 7942   4.326   1.848   2.578
 2646TIP3   OH2 7943   6.021   0.055   2.048
 2646TIP3    H1 7944   6.048   0.088   1.963
 2646TIP3    H2 7945   6.060  -0.032   2.053
 2647TIP3   OH2 7946   3.431   1.030   3.289
 2647TIP3    H1 7947   3.401   0.977   3.215
 2647TIP3    H2 7948   3.350   1.058   3.332
 2648TIP3   OH2 7949   3.242   4.073   0.846
 2648TIP3    H1 7950   3.278   4.004   0.902
 2648TIP3    H2 7951   3.318   4.108   0.799
 2649TIP3   OH2 7952   4.113   1.064   0.232
 2649TIP3    H1 7953   4.100   0.971   0.213
 2649TIP3    H2 7954   4.102   1.070   0.327
 2650TIP3   OH2 7955   1.660   5.389   2.366
 2650TIP3    H1 7956   1.717   5.433   2.303
 2650TIP3    H2 7957   1.715   5.321   2.404
 2651TIP3   OH2 7958   5.547   0.507   1.301
 2651TIP3    H1 7959   5.554   0.602   1.289
 2651TIP3    H2 7960   5.636   0.475   1.284
 2652TIP3   OH2 7961   5.292   1.442   2.221
 2652TIP3    H1 7962   5.198   1.455   2.227
 2652TIP3    H2 7963   5.302   1.349   2.203
 2653TIP3   OH2 7964   1.499   1.468   3.204
 2653TIP3    H1 7965   1.502   1.563   3.207
 2653TIP3    H2 7966   1.413   1.445   3.239
 2654TIP3   OH2 7967   5.853   0.058   1.329
 2654TIP3    H1 7968   5.814   0.037   1.244
 2654TIP3    H2 7969   5.798   0.014   1.393
 2655TIP3   OH2 7970   3.463   2.399   3.491
 2655TIP3    H1 7971   3.508   2.434   3.568
 2655TIP3    H2 7972   3.373   2.430   3.500
 2656TIP3   OH2 7973   4.784   2.630   4.214
 2656TIP3    H1 7974   4.753   2.578   4.139
 2656TIP3    H2 7975   4.705   2.674   4.246
 2657TIP3   OH2 7976   2.822   2.480   0.240
 2657TIP3    H1 7977   2.810   2.425   0.163
 2657TIP3    H2 7978   2.758   2.551   0.229
 2658TIP3   OH2 7979   1.230   1.803   4.701
 2658TIP3    H1 7980   1.154   1.861   4.705
 2658TIP3    H2 7981   1.277   1.819   4.782
 2659TIP3   OH2 7982   4.713   3.277   3.454
 2659TIP3    H1 7983   4.700   3.239   3.368
 2659TIP3    H2 7984   4.687   3.208   3.515
 2660TIP3   OH2 7985   0.568   1.844   1.890
 2660TIP3    H1 7986   0.645   1.896   1.872
 2660TIP3    H2 7987   0.600   1.754   1.896
 2661TIP3   OH2 7988   3.371   3.875   1.001
 2661TIP3    H1 7989   3.370   3.884   1.096
 2661TIP3    H2 7990   3.433   3.805   0.984
 2662TIP3   OH2 7991   4.849   5.045   2.913
 2662TIP3    H1 7992   4.926   5.061   2.969
 2662TIP3    H2 7993   4.885   5.003   2.835
 2663TIP3   OH2 7994   0.074   3.995   4.157
 2663TIP3    H1 7995   0.025   3.943   4.093
 2663TIP3    H2 7996   0.166   3.982   4.134
 2664TIP3   OH2 7997   1.567   1.086   0.269
 2664TIP3    H1 7998   1.506   1.159   0.284
 2664TIP3    H2 7999   1.513   1.008   0.276
 2665TIP3   OH2 8000   0.855   0.406   3.368
 2665TIP3    H1 8001   0.940   0.439   3.340
 2665TIP3    H2 8002   0.868   0.382   3.460
 2666TIP3   OH2 8003   3.843   1.868   1.316
 2666TIP3    H1 8004   3.919   1.924   1.302
 2666TIP3    H2 8005   3.787   1.884   1.240
 2667TIP3   OH2 8006   6.157   0.627   4.698
 2667TIP3    H1 8007   6.176   0.551   4.643
 2667TIP3    H2 8008   6.216   0.617   4.773
 2668TIP3   OH2 8009   0.528   3.206   1.139
 2668TIP3    H1 8010   0.498   3.236   1.053
 2668TIP3    H2 8011   0.473   3.131   1.159
 2669TIP3   OH2 8012   3.617   5.074   4.230
 2669TIP3    H1 8013   3.587   5.150   4.181
 2669TIP3    H2 8014   3.537   5.023   4.247
 2670TIP3   OH2 8015   5.689   1.623   2.660
 2670TIP3    H1 8016   5.743   1.690   2.619
 2670TIP3    H2 8017   5.599   1.647   2.638
 2671TIP3   OH2 8018   2.583   4.777   0.259
 2671TIP3    H1 8019   2.594   4.825   0.341
 2671TIP3    H2 8020   2.669   4.741   0.240
 2672TIP3   OH2 8021   3.294   1.860   0.184
 2672TIP3    H1 8022   3.374   1.910   0.168
 2672TIP3    H2 8023   3.239   1.877   0.108
 2673TIP3   OH2 8024   3.820   0.118   0.865
 2673TIP3    H1 8025   3.900   0.099   0.816
 2673TIP3    H2 8026   3.816   0.049   0.932
 2674TIP3   OH2 8027   4.493   1.027   0.276
 2674TIP3    H1 8028   4.456   0.944   0.246
 2674TIP3    H2 8029   4.429   1.060   0.339
 2675TIP3   OH2 8030   4.147   1.198   3.383
 2675TIP3    H1 8031   4.213   1.130   3.367
 2675TIP3    H2 8032   4.089   1.193   3.307
 2676TIP3   OH2 8033   2.388   1.298   4.036
 2676TIP3    H1 8034   2.297   1.299   4.005
 2676TIP3    H2 8035   2.440   1.297   3.955
 2677TIP3   OH2 8036   0.141   5.438   1.072
 2677TIP3    H1 8037   0.200   5.506   1.038
 2677TIP3    H2 8038   0.096   5.404   0.994
 2678TIP3   OH2 8039   5.447   0.357   2.378
 2678TIP3    H1 8040   5.488   0.425   2.432
 2678TIP3    H2 8041   5.501   0.354   2.299
 2679TIP3   OH2 8042   0.561   4.812   2.868
 2679TIP3    H1 8043   0.609   4.797   2.950
 2679TIP3    H2 8044   0.523   4.899   2.879
 2680TIP3   OH2 8045   5.813   3.477   4.718
 2680TIP3    H1 8046   5.831   3.499   4.626
 2680TIP3    H2 8047   5.852   3.390   4.730
 2681TIP3   OH2 8048   0.653   2.957   4.217
 2681TIP3    H1 8049   0.670   3.025   4.152
 2681TIP3    H2 8050   0.568   2.981   4.255
 2682TIP3   OH2 8051   5.816   1.278   3.343
 2682TIP3    H1 8052   5.884   1.331   3.385
 2682TIP3    H2 8053   5.865   1.215   3.290
 2683TIP3   OH2 8054   1.786   2.894   4.102
 2683TIP3    H1 8055   1.796   2.828   4.170
 2683TIP3    H2 8056   1.742   2.848   4.030
 2684TIP3   OH2 8057   4.188   3.626   2.939
 2684TIP3    H1 8058   4.097   3.627   2.970
 2684TIP3    H2 8059   4.219   3.538   2.961
 2685TIP3   OH2 8060   2.567   3.951   0.332
 2685TIP3    H1 8061   2.552   4.035   0.289
 2685TIP3    H2 8062   2.598   3.894   0.262
 2686TIP3   OH2 8063   6.059   0.870   1.819
 2686TIP3    H1 8064   6.080   0.843   1.729
 2686TIP3    H2 8065   6.141   0.858   1.867
 2687TIP3   OH2 8066   4.555   3.822   3.029
 2687TIP3    H1 8067   4.494   3.797   3.097
 2687TIP3    H2 8068   4.555   3.749   2.967
 2688TIP3   OH2 8069   3.902   1.276   1.948
 2688TIP3    H1 8070   3.982   1.243   1.909
 2688TIP3    H2 8071   3.832   1.240   1.893
 2689TIP3   OH2 8072   4.691   2.144   5.009
 2689TIP3    H1 8073   4.753   2.200   4.961
 2689TIP3    H2 8074   4.747   2.082   5.056
 2690TIP3   OH2 8075   1.381   1.612  -0.017
 2690TIP3    H1 8076   1.342   1.529  -0.044
 2690TIP3    H2 8077   1.398   1.601   0.077
 2691TIP3   OH2 8078   2.504   0.745   0.082
 2691TIP3    H1 8079   2.447   0.805   0.130
 2691TIP3    H2 8080   2.497   0.774  -0.009
 2692TIP3   OH2 8081   4.603   0.503   1.477
 2692TIP3    H1 8082   4.530   0.565   1.473
 2692TIP3    H2 8083   4.564   0.422   1.507
 2693TIP3   OH2 8084   4.643   5.348   2.052
 2693TIP3    H1 8085   4.655   5.255   2.072
 2693TIP3    H2 8086   4.727   5.388   2.073
 2694TIP3   OH2 8087   1.648   0.876   0.881
 2694TIP3    H1 8088   1.637   0.787   0.917
 2694TIP3    H2 8089   1.685   0.862   0.794
 2695TIP3   OH2 8090   4.249   2.846   2.905
 2695TIP3    H1 8091   4.205   2.777   2.955
 2695TIP3    H2 8092   4.311   2.799   2.850
 2696TIP3   OH2 8093   3.856   3.454   4.585
 2696TIP3    H1 8094   3.812   3.476   4.502
 2696TIP3    H2 8095   3.799   3.490   4.653
 2697TIP3   OH2 8096   3.314   0.668   1.163
 2697TIP3    H1 8097   3.344   0.750   1.203
 2697TIP3    H2 8098   3.270   0.622   1.234
 2698TIP3   OH2 8099   3.711   3.858   4.877
 2698TIP3    H1 8100   3.715   3.953   4.874
 2698TIP3    H2 8101   3.755   3.834   4.958
 2699TIP3   OH2 8102   1.499   4.568   4.180
 2699TIP3    H1 8103   1.436   4.555   4.251
 2699TIP3    H2 8104   1.453   4.624   4.117
 2700TIP3   OH2 8105   2.745   3.382   1.987
 2700TIP3    H1 8106   2.670   3.402   1.930
 2700TIP3    H2 8107   2.821   3.402   1.933
 2701TIP3   OH2 8108   0.716   2.709   4.137
 2701TIP3    H1 8109   0.801   2.728   4.096
 2701TIP3    H2 8110   0.690   2.793   4.176
 2702TIP3   OH2 8111   1.311   3.612   0.817
 2702TIP3    H1 8112   1.347   3.626   0.730
 2702TIP3    H2 8113   1.385   3.582   0.869
 2703TIP3   OH2 8114   4.924   0.636   2.497
 2703TIP3    H1 8115   4.995   0.667   2.553
 2703TIP3    H2 8116   4.844   0.667   2.540
 2704TIP3   OH2 8117   3.375   1.273   1.367
 2704TIP3    H1 8118   3.335   1.288   1.453
 2704TIP3    H2 8119   3.303   1.286   1.305
 2705TIP3   OH2 8120   3.857   5.824   0.185
 2705TIP3    H1 8121   3.948   5.810   0.159
 2705TIP3    H2 8122   3.808   5.757   0.137
 2706TIP3   OH2 8123   3.193   3.106   0.075
 2706TIP3    H1 8124   3.207   3.012   0.069
 2706TIP3    H2 8125   3.280   3.144   0.065
 2707TIP3   OH2 8126   3.017   0.062   2.314
 2707TIP3    H1 8127   2.996   0.112   2.235
 2707TIP3    H2 8128   2.933   0.026   2.342
 2708TIP3   OH2 8129   4.216   4.534   2.238
 2708TIP3    H1 8130   4.304   4.500   2.216
 2708TIP3    H2 8131   4.207   4.516   2.331
 2709TIP3   OH2 8132   3.434   1.250   3.661
 2709TIP3    H1 8133   3.506   1.230   3.721
 2709TIP3    H2 8134   3.403   1.336   3.689
 2710TIP3   OH2 8135   5.225   2.894   3.877
 2710TIP3    H1 8136   5.161   2.965   3.872
 2710TIP3    H2 8137   5.295   2.919   3.817
 2711TIP3   OH2 8138   5.114   0.316   3.249
 2711TIP3    H1 8139   5.187   0.368   3.216
 2711TIP3    H2 8140   5.130   0.308   3.343
 2712TIP3   OH2 8141   2.862   3.658   2.044
 2712TIP3    H1 8142   2.864   3.680   1.951
 2712TIP3    H2 8143   2.910   3.576   2.050
 2713TIP3   OH2 8144   1.885   3.032   1.499
 2713TIP3    H1 8145   1.803   2.983   1.487
 2713TIP3    H2 8146   1.857   3.118   1.529
 2714TIP3   OH2 8147   6.123   4.227   3.101
 2714TIP3    H1 8148   6.187   4.158   3.117
 2714TIP3    H2 8149   6.154   4.301   3.152
 2715TIP3   OH2 8150   5.549   1.087   1.701
 2715TIP3    H1 8151   5.478   1.081   1.636
 2715TIP3    H2 8152   5.514   1.143   1.770
 2716TIP3   OH2 8153   2.899   1.301   3.198
 2716TIP3    H1 8154   2.879   1.391   3.176
 2716TIP3    H2 8155   2.862   1.289   3.286
 2717TIP3   OH2 8156   1.492   4.746   3.638
 2717TIP3    H1 8157   1.562   4.722   3.698
 2717TIP3    H2 8158   1.415   4.699   3.672
 2718TIP3   OH2 8159   5.911   3.928   0.259
 2718TIP3    H1 8160   5.998   3.898   0.233
 2718TIP3    H2 8161   5.853   3.854   0.242
 2719TIP3   OH2 8162   1.757   1.298   0.658
 2719TIP3    H1 8163   1.802   1.295   0.574
 2719TIP3    H2 8164   1.786   1.219   0.703
 2720TIP3   OH2 8165   2.182   5.838   2.724
 2720TIP3    H1 8166   2.162   5.797   2.808
 2720TIP3    H2 8167   2.265   5.884   2.739
 2721TIP3   OH2 8168   0.890   4.739   4.272
 2721TIP3    H1 8169   0.979   4.775   4.273
 2721TIP3    H2 8170   0.896   4.661   4.218
 2722TIP3   OH2 8171   3.073   5.763   3.461
 2722TIP3    H1 8172   3.002   5.782   3.400
 2722TIP3    H2 8173   3.029   5.742   3.543
 2723TIP3   OH2 8174   3.304   2.817   4.785
 2723TIP3    H1 8175   3.270   2.728   4.794
 2723TIP3    H2 8176   3.237   2.863   4.734
 2724TIP3   OH2 8177   3.604   1.679   3.948
 2724TIP3    H1 8178   3.647   1.747   3.999
 2724TIP3    H2 8179   3.633   1.695   3.858
 2725TIP3   OH2 8180   0.732   4.026   4.434
 2725TIP3    H1 8181   0.702   4.116   4.442
 2725TIP3    H2 8182   0.758   4.001   4.523
 2726TIP3   OH2 8183   3.501   3.415   4.618
 2726TIP3    H1 8184   3.408   3.428   4.638
 2726TIP3    H2 8185   3.519   3.325   4.644
 2727TIP3   OH2 8186   1.022   4.442   1.090
 2727TIP3    H1 8187   0.979   4.376   1.144
 2727TIP3    H2 8188   0.971   4.522   1.105
 2728TIP3   OH2 8189   4.550   4.601   2.270
 2728TIP3    H1 8190   4.488   4.564   2.333
 2728TIP3    H2 8191   4.584   4.526   2.223
 2729TIP3   OH2 8192   0.154   0.176   1.687
 2729TIP3    H1 8193   0.086   0.243   1.690
 2729TIP3    H2 8194   0.231   0.218   1.725
 2730TIP3   OH2 8195   4.616   2.766   4.681
 2730TIP3    H1 8196   4.522   2.779   4.693
 2730TIP3    H2 8197   4.623   2.686   4.630
 2731TIP3   OH2 8198   0.201   3.080   2.297
 2731TIP3    H1 8199   0.242   3.026   2.365
 2731TIP3    H2 8200   0.111   3.092   2.327
 2732TIP3   OH2 8201   3.072   1.573   4.199
 2732TIP3    H1 8202   3.118   1.626   4.264
 2732TIP3    H2 8203   3.076   1.484   4.232
 2733TIP3   OH2 8204   4.372   2.186   0.024
 2733TIP3    H1 8205   4.390   2.162  -0.066
 2733TIP3    H2 8206   4.284   2.225   0.022
 2734TIP3   OH2 8207   0.023   0.703   3.195
 2734TIP3    H1 8208   0.078   0.758   3.251
 2734TIP3    H2 8209  -0.034   0.657   3.256
 2735TIP3   OH2 8210   5.997   1.985   1.605
 2735TIP3    H1 8211   6.015   2.075   1.630
 2735TIP3    H2 8212   5.906   1.970   1.633
 2736TIP3   OH2 8213   4.381   3.318   4.256
 2736TIP3    H1 8214   4.440   3.246   4.277
 2736TIP3    H2 8215   4.353   3.352   4.340
 2737TIP3   OH2 8216   1.726   0.809   3.869
 2737TIP3    H1 8217   1.788   0.804   3.942
 2737TIP3    H2 8218   1.652   0.857   3.905
 2738TIP3   OH2 8219   4.575   3.331   1.800
 2738TIP3    H1 8220   4.543   3.375   1.722
 2738TIP3    H2 8221   4.562   3.238   1.783
 2739TIP3   OH2 8222   1.224   1.532   4.856
 2739TIP3    H1 8223   1.316   1.547   4.834
 2739TIP3    H2 8224   1.217   1.437   4.869
 2740TIP3   OH2 8225   5.200   0.395   2.264
 2740TIP3    H1 8226   5.157   0.319   2.303
 2740TIP3    H2 8227   5.292   0.387   2.289
 2741TIP3   OH2 8228   1.315   2.199   4.146
 2741TIP3    H1 8229   1.279   2.286   4.135
 2741TIP3    H2 8230   1.387   2.194   4.082
 2742TIP3   OH2 8231   4.441   0.947   3.565
 2742TIP3    H1 8232   4.534   0.924   3.564
 2742TIP3    H2 8233   4.397   0.873   3.525
 2743TIP3   OH2 8234   1.167   0.045   3.411
 2743TIP3    H1 8235   1.213  -0.032   3.445
 2743TIP3    H2 8236   1.216   0.120   3.445
 2744TIP3   OH2 8237   2.825   2.935   0.045
 2744TIP3    H1 8238   2.824   2.986  -0.036
 2744TIP3    H2 8239   2.733   2.930   0.071
 2745TIP3   OH2 8240   4.962   3.343   1.080
 2745TIP3    H1 8241   5.007   3.381   1.005
 2745TIP3    H2 8242   4.978   3.249   1.073
 2746TIP3   OH2 8243   3.464   0.025   4.869
 2746TIP3    H1 8244   3.522  -0.027   4.924
 2746TIP3    H2 8245   3.388   0.043   4.925
 2747TIP3   OH2 8246   4.239   3.366   1.226
 2747TIP3    H1 8247   4.185   3.433   1.268
 2747TIP3    H2 8248   4.272   3.407   1.146
 2748TIP3   OH2 8249   5.094   0.117   2.227
 2748TIP3    H1 8250   5.118   0.042   2.173
 2748TIP3    H2 8251   5.132   0.098   2.313
 2749TIP3   OH2 8252   4.037   5.421   2.973
 2749TIP3    H1 8253   4.065   5.505   2.936
 2749TIP3    H2 8254   4.066   5.425   3.064
 2750TIP3   OH2 8255   4.577   4.080   0.088
 2750TIP3    H1 8256   4.515   4.007   0.078
 2750TIP3    H2 8257   4.651   4.041   0.135
 2751TIP3   OH2 8258   3.592   0.282   0.828
 2751TIP3    H1 8259   3.644   0.211   0.866
 2751TIP3    H2 8260   3.621   0.361   0.874
 2752TIP3   OH2 8261   6.150   5.434   0.855
 2752TIP3    H1 8262   6.199   5.515   0.838
 2752TIP3    H2 8263   6.103   5.451   0.936
 2753TIP3   OH2 8264   0.889   4.307   1.962
 2753TIP3    H1 8265   0.817   4.293   1.900
 2753TIP3    H2 8266   0.923   4.394   1.940
 2754TIP3   OH2 8267   0.309   2.635   4.784
 2754TIP3    H1 8268   0.286   2.542   4.788
 2754TIP3    H2 8269   0.246   2.672   4.722
 2755TIP3   OH2 8270   3.176   2.102   5.060
 2755TIP3    H1 8271   3.257   2.129   5.016
 2755TIP3    H2 8272   3.146   2.182   5.105
 2756TIP3   OH2 8273   0.233   5.440   4.894
 2756TIP3    H1 8274   0.209   5.467   4.982
 2756TIP3    H2 8275   0.271   5.519   4.854
 2757TIP3   OH2 8276   1.974   1.130   2.527
 2757TIP3    H1 8277   1.915   1.155   2.598
 2757TIP3    H2 8278   2.041   1.198   2.526
 2758TIP3   OH2 8279   3.203   2.485   4.627
 2758TIP3    H1 8280   3.236   2.407   4.672
 2758TIP3    H2 8281   3.158   2.535   4.695
 2759TIP3   OH2 8282   0.442   3.384   1.631
 2759TIP3    H1 8283   0.459   3.471   1.594
 2759TIP3    H2 8284   0.347   3.381   1.642
 2760TIP3   OH2 8285   5.433   2.857   0.616
 2760TIP3    H1 8286   5.377   2.781   0.608
 2760TIP3    H2 8287   5.508   2.826   0.667
 2761TIP3   OH2 8288   5.163   3.741   4.029
 2761TIP3    H1 8289   5.242   3.737   3.975
 2761TIP3    H2 8290   5.194   3.716   4.117
 2762TIP3   OH2 8291   4.787   2.873   2.063
 2762TIP3    H1 8292   4.774   2.794   2.116
 2762TIP3    H2 8293   4.702   2.917   2.065
 2763TIP3   OH2 8294   0.860   5.770   4.420
 2763TIP3    H1 8295   0.861   5.746   4.328
 2763TIP3    H2 8296   0.938   5.728   4.457
 2764TIP3   OH2 8297   2.022   1.562   2.779
 2764TIP3    H1 8298   2.083   1.621   2.735
 2764TIP3    H2 8299   1.939   1.574   2.733
 2765TIP3   OH2 8300   5.596   2.518   0.243
 2765TIP3    H1 8301   5.656   2.449   0.272
 2765TIP3    H2 8302   5.550   2.480   0.168
 2766TIP3   OH2 8303   1.877   5.460   1.598
 2766TIP3    H1 8304   1.934   5.503   1.534
 2766TIP3    H2 8305   1.811   5.526   1.619
 2767TIP3   OH2 8306   3.429  -0.007   0.172
 2767TIP3    H1 8307   3.423   0.006   0.267
 2767TIP3    H2 8308   3.491   0.059   0.142
 2768TIP3   OH2 8309   1.757   2.510   0.846
 2768TIP3    H1 8310   1.811   2.441   0.883
 2768TIP3    H2 8311   1.784   2.589   0.892
 2769TIP3   OH2 8312   6.002   1.009   4.257
 2769TIP3    H1 8313   6.061   1.074   4.295
 2769TIP3    H2 8314   6.059   0.935   4.234
 2770TIP3   OH2 8315   2.045   3.910   4.326
 2770TIP3    H1 8316   1.974   3.871   4.376
 2770TIP3    H2 8317   2.051   4.000   4.357
 2771TIP3   OH2 8318   5.369   2.209   1.681
 2771TIP3    H1 8319   5.376   2.293   1.726
 2771TIP3    H2 8320   5.441   2.208   1.618
 2772TIP3   OH2 8321   1.084   5.654   4.519
 2772TIP3    H1 8322   1.054   5.568   4.491
 2772TIP3    H2 8323   1.179   5.649   4.517
 2773TIP3   OH2 8324   5.780   0.100   4.357
 2773TIP3    H1 8325   5.768   0.195   4.353
 2773TIP3    H2 8326   5.701   0.068   4.401
 2774TIP3   OH2 8327   3.607   4.941   0.821
 2774TIP3    H1 8328   3.589   5.035   0.824
 2774TIP3    H2 8329   3.532   4.901   0.865
 2775TIP3   OH2 8330   6.257   2.090   0.302
 2775TIP3    H1 8331   6.187   2.108   0.365
 2775TIP3    H2 8332   6.240   2.000   0.274
 2776TIP3   OH2 8333   5.611   3.638   4.793
 2776TIP3    H1 8334   5.672   3.568   4.769
 2776TIP3    H2 8335   5.585   3.677   4.709
 2777TIP3   OH2 8336   6.307   2.914   1.607
 2777TIP3    H1 8337   6.387   2.954   1.641
 2777TIP3    H2 8338   6.326   2.894   1.516
 2778TIP3   OH2 8339   1.073   3.066   4.799
 2778TIP3    H1 8340   1.160   3.072   4.759
 2778TIP3    H2 8341   1.055   3.154   4.831
 2779TIP3   OH2 8342   1.194   4.907   0.990
 2779TIP3    H1 8343   1.263   4.864   0.940
 2779TIP3    H2 8344   1.206   4.877   1.080
 2780TIP3   OH2 8345   4.442   4.029   2.045
 2780TIP3    H1 8346   4.467   3.938   2.029
 2780TIP3    H2 8347   4.520   4.080   2.020
 2781TIP3   OH2 8348   4.682   3.366   0.474
 2781TIP3    H1 8349   4.637   3.282   0.486
 2781TIP3    H2 8350   4.612   3.430   0.466
 2782TIP3   OH2 8351   2.831   3.750   3.490
 2782TIP3    H1 8352   2.770   3.680   3.514
 2782TIP3    H2 8353   2.830   3.809   3.566
 2783TIP3   OH2 8354   0.552   5.436   0.365
 2783TIP3    H1 8355   0.505   5.449   0.282
 2783TIP3    H2 8356   0.601   5.355   0.352
 2784TIP3   OH2 8357   3.092   4.102   1.271
 2784TIP3    H1 8358   3.126   4.014   1.282
 2784TIP3    H2 8359   3.019   4.109   1.332
 2785TIP3   OH2 8360   1.078   2.786   0.092
 2785TIP3    H1 8361   1.053   2.874   0.065
 2785TIP3    H2 8362   1.137   2.755   0.023
 2786TIP3   OH2 8363   4.206   0.034   1.145
 2786TIP3    H1 8364   4.182  -0.039   1.088
 2786TIP3    H2 8365   4.284   0.072   1.105
 2787TIP3   OH2 8366   0.103   2.489   0.898
 2787TIP3    H1 8367   0.122   2.462   0.808
 2787TIP3    H2 8368   0.054   2.416   0.936
 2788TIP3   OH2 8369   1.380   3.451   4.260
 2788TIP3    H1 8370   1.316   3.520   4.243
 2788TIP3    H2 8371   1.373   3.392   4.185
 2789TIP3   OH2 8372   6.249   3.534   0.554
 2789TIP3    H1 8373   6.248   3.449   0.598
 2789TIP3    H2 8374   6.303   3.589   0.609
 2790TIP3   OH2 8375   1.176   0.503   1.730
 2790TIP3    H1 8376   1.169   0.598   1.741
 2790TIP3    H2 8377   1.176   0.468   1.820
 2791TIP3   OH2 8378   5.734   2.588   2.635
 2791TIP3    H1 8379   5.799   2.521   2.656
 2791TIP3    H2 8380   5.729   2.643   2.713
 2792TIP3   OH2 8381   3.097   1.561   3.936
 2792TIP3    H1 8382   3.189   1.540   3.947
 2792TIP3    H2 8383   3.062   1.566   4.025
 2793TIP3   OH2 8384   2.806   4.888   0.035
 2793TIP3    H1 8385   2.817   4.816   0.097
 2793TIP3    H2 8386   2.876   4.949   0.056
 2794TIP3   OH2 8387   5.477   3.272   5.131
 2794TIP3    H1 8388   5.519   3.332   5.069
 2794TIP3    H2 8389   5.544   3.258   5.199
 2795TIP3   OH2 8390   5.830   2.543   3.364
 2795TIP3    H1 8391   5.895   2.529   3.433
 2795TIP3    H2 8392   5.857   2.485   3.294
 2796TIP3   OH2 8393   2.570   4.975   2.757
 2796TIP3    H1 8394   2.549   4.962   2.665
 2796TIP3    H2 8395   2.657   5.016   2.756
 2797TIP3   OH2 8396   3.206   0.818   2.384
 2797TIP3    H1 8397   3.151   0.860   2.318
 2797TIP3    H2 8398   3.172   0.851   2.467
 2798TIP3   OH2 8399   5.404   5.460   4.481
 2798TIP3    H1 8400   5.383   5.458   4.574
 2798TIP3    H2 8401   5.320   5.444   4.437
 2799TIP3   OH2 8402   4.774   4.477   4.765
 2799TIP3    H1 8403   4.763   4.418   4.691
 2799TIP3    H2 8404   4.777   4.565   4.726
 2800TIP3   OH2 8405   2.774   3.489   4.382
 2800TIP3    H1 8406   2.749   3.560   4.441
 2800TIP3    H2 8407   2.717   3.416   4.407
 2801TIP3   OH2 8408   5.008   1.555   3.480
 2801TIP3    H1 8409   4.958   1.631   3.508
 2801TIP3    H2 8410   4.962   1.480   3.520
 2802TIP3   OH2 8411   1.557   1.052   5.080
 2802TIP3    H1 8412   1.537   1.142   5.054
 2802TIP3    H2 8413   1.540   0.999   5.002
 2803TIP3   OH2 8414   4.094   1.728   2.037
 2803TIP3    H1 8415   4.170   1.781   2.060
 2803TIP3    H2 8416   4.110   1.643   2.079
 2804TIP3   OH2 8417   5.777   2.938   4.678
 2804TIP3    H1 8418   5.725   3.010   4.712
 2804TIP3    H2 8419   5.715   2.867   4.666
 2805TIP3   OH2 8420   5.312   3.562   0.073
 2805TIP3    H1 8421   5.337   3.489   0.016
 2805TIP3    H2 8422   5.338   3.641   0.025
 2806TIP3   OH2 8423   4.537   4.840   1.673
 2806TIP3    H1 8424   4.518   4.888   1.753
 2806TIP3    H2 8425   4.630   4.855   1.658
 2807TIP3   OH2 8426   0.585   4.973   2.264
 2807TIP3    H1 8427   0.539   5.039   2.316
 2807TIP3    H2 8428   0.622   4.913   2.329
 2808TIP3   OH2 8429   5.048   0.466   0.151
 2808TIP3    H1 8430   5.117   0.520   0.188
 2808TIP3    H2 8431   5.086   0.430   0.071
 2809TIP3   OH2 8432   0.749   2.822   1.744
 2809TIP3    H1 8433   0.788   2.854   1.663
 2809TIP3    H2 8434   0.756   2.896   1.805
 2810TIP3   OH2 8435   5.942   1.113   3.165
 2810TIP3    H1 8436   5.869   1.080   3.112
 2810TIP3    H2 8437   6.018   1.063   3.136
 2811TIP3   OH2 8438   1.708   5.381   4.734
 2811TIP3    H1 8439   1.649   5.453   4.708
 2811TIP3    H2 8440   1.789   5.425   4.758
 2812TIP3   OH2 8441   3.693   1.515   3.382
 2812TIP3    H1 8442   3.609   1.558   3.397
 2812TIP3    H2 8443   3.674   1.422   3.390
 2813TIP3   OH2 8444   0.661   1.760   3.924
 2813TIP3    H1 8445   0.743   1.758   3.975
 2813TIP3    H2 8446   0.687   1.796   3.839
 2814TIP3   OH2 8447   0.454   3.901   0.735
 2814TIP3    H1 8448   0.482   3.908   0.826
 2814TIP3    H2 8449   0.434   3.808   0.722
 2815TIP3   OH2 8450   4.877   1.095   1.085
 2815TIP3    H1 8451   4.826   1.054   1.155
 2815TIP3    H2 8452   4.962   1.051   1.089
 2816TIP3   OH2 8453   5.207   4.789   3.337
 2816TIP3    H1 8454   5.299   4.766   3.350
 2816TIP3    H2 8455   5.195   4.789   3.242
 2817TIP3   OH2 8456   4.619   3.079   3.592
 2817TIP3    H1 8457   4.649   3.030   3.668
 2817TIP3    H2 8458   4.524   3.082   3.601
 2818TIP3   OH2 8459   2.537   0.163   2.268
 2818TIP3    H1 8460   2.486   0.196   2.194
 2818TIP3    H2 8461   2.556   0.240   2.321
 2819TIP3   OH2 8462   4.189   1.221   0.009
 2819TIP3    H1 8463   4.131   1.191  -0.061
 2819TIP3    H2 8464   4.160   1.173   0.087
 2820TIP3   OH2 8465   1.432   5.156   0.197
 2820TIP3    H1 8466   1.476   5.235   0.166
 2820TIP3    H2 8467   1.382   5.184   0.274
 2821TIP3   OH2 8468   3.140   5.224   2.236
 2821TIP3    H1 8469   3.059   5.180   2.264
 2821TIP3    H2 8470   3.192   5.231   2.316
 2822TIP3   OH2 8471   5.886   3.636   2.048
 2822TIP3    H1 8472   5.796   3.635   2.016
 2822TIP3    H2 8473   5.890   3.713   2.106
 2823TIP3   OH2 8474   4.274   3.499   4.084
 2823TIP3    H1 8475   4.319   3.444   4.148
 2823TIP3    H2 8476   4.216   3.554   4.137
 2824TIP3   OH2 8477   3.355   4.750   3.485
 2824TIP3    H1 8478   3.411   4.674   3.501
 2824TIP3    H2 8479   3.377   4.778   3.396
 2825TIP3   OH2 8480   3.916   4.404   4.846
 2825TIP3    H1 8481   3.945   4.349   4.773
 2825TIP3    H2 8482   3.871   4.345   4.906
 2826TIP3   OH2 8483   1.043   1.040   3.867
 2826TIP3    H1 8484   1.131   1.044   3.906
 2826TIP3    H2 8485   1.032   1.124   3.824
 2827TIP3   OH2 8486   5.933   3.285   3.713
 2827TIP3    H1 8487   5.904   3.206   3.667
 2827TIP3    H2 8488   5.853   3.336   3.725
 2828TIP3   OH2 8489   3.187   2.700   2.005
 2828TIP3    H1 8490   3.254   2.740   1.949
 2828TIP3    H2 8491   3.236   2.668   2.081
 2829TIP3   OH2 8492   1.411   1.082   1.663
 2829TIP3    H1 8493   1.377   1.086   1.753
 2829TIP3    H2 8494   1.336   1.054   1.610
 2830TIP3   OH2 8495   4.974   4.602   3.332
 2830TIP3    H1 8496   5.003   4.510   3.336
 2830TIP3    H2 8497   5.051   4.652   3.359
 2831TIP3   OH2 8498   3.442   2.410   2.719
 2831TIP3    H1 8499   3.519   2.432   2.772
 2831TIP3    H2 8500   3.477   2.364   2.643
 2832TIP3   OH2 8501   3.450   2.072   2.081
 2832TIP3    H1 8502   3.407   2.003   2.031
 2832TIP3    H2 8503   3.536   2.082   2.039
 2833TIP3   OH2 8504   3.182   5.844   4.402
 2833TIP3    H1 8505   3.140   5.909   4.344
 2833TIP3    H2 8506   3.117   5.773   4.408
 2834TIP3   OH2 8507   0.965   4.430   4.531
 2834TIP3    H1 8508   0.874   4.460   4.525
 2834TIP3    H2 8509   0.977   4.372   4.457
 2835TIP3   OH2 8510   5.475   3.294   2.706
 2835TIP3    H1 8511   5.539   3.359   2.679
 2835TIP3    H2 8512   5.472   3.302   2.802
 2836TIP3   OH2 8513   4.999   3.979   2.258
 2836TIP3    H1 8514   5.082   3.953   2.298
 2836TIP3    H2 8515   5.020   3.993   2.166
 2837TIP3   OH2 8516   2.464   2.530   4.848
 2837TIP3    H1 8517   2.392   2.474   4.819
 2837TIP3    H2 8518   2.451   2.612   4.801
 2838TIP3   OH2 8519   5.253   4.342   3.099
 2838TIP3    H1 8520   5.225   4.423   3.056
 2838TIP3    H2 8521   5.213   4.272   3.048
 2839TIP3   OH2 8522   6.051   0.370   0.017
 2839TIP3    H1 8523   6.134   0.370  -0.031
 2839TIP3    H2 8524   6.047   0.283   0.057
 2840TIP3   OH2 8525   3.627   1.867   3.435
 2840TIP3    H1 8526   3.648   1.901   3.522
 2840TIP3    H2 8527   3.654   1.937   3.375
 2841TIP3   OH2 8528   1.026   1.466   4.367
 2841TIP3    H1 8529   1.045   1.555   4.396
 2841TIP3    H2 8530   1.081   1.410   4.421
 2842TIP3   OH2 8531   0.871   5.015   3.022
 2842TIP3    H1 8532   0.900   4.952   2.956
 2842TIP3    H2 8533   0.897   5.100   2.986
 2843TIP3   OH2 8534   5.483   4.922   3.719
 2843TIP3    H1 8535   5.563   4.942   3.670
 2843TIP3    H2 8536   5.429   5.000   3.708
 2844TIP3   OH2 8537   4.451   4.077   4.297
 2844TIP3    H1 8538   4.455   4.083   4.392
 2844TIP3    H2 8539   4.510   4.146   4.266
 2845TIP3   OH2 8540   4.834   1.418   2.380
 2845TIP3    H1 8541   4.765   1.424   2.314
 2845TIP3    H2 8542   4.815   1.488   2.442
 2846TIP3   OH2 8543   3.036   2.670   4.489
 2846TIP3    H1 8544   3.082   2.593   4.523
 2846TIP3    H2 8545   2.973   2.635   4.427
 2847TIP3   OH2 8546   1.258   2.044   3.002
 2847TIP3    H1 8547   1.318   2.027   2.929
 2847TIP3    H2 8548   1.315   2.065   3.076
 2848TIP3   OH2 8549   3.461   0.694   3.503
 2848TIP3    H1 8550   3.456   0.600   3.522
 2848TIP3    H2 8551   3.375   0.715   3.466
 2849TIP3   OH2 8552   6.105   2.037   2.711
 2849TIP3    H1 8553   6.194   2.015   2.739
 2849TIP3    H2 8554   6.110   2.043   2.616
 2850TIP3   OH2 8555   1.726   1.709   2.319
 2850TIP3    H1 8556   1.631   1.698   2.325
 2850TIP3    H2 8557   1.741   1.803   2.328
 2851TIP3   OH2 8558   3.401   4.257   0.187
 2851TIP3    H1 8559   3.325   4.245   0.244
 2851TIP3    H2 8560   3.371   4.322   0.123
 2852TIP3   OH2 8561   0.654   1.594   2.318
 2852TIP3    H1 8562   0.697   1.677   2.297
 2852TIP3    H2 8563   0.593   1.579   2.246
 2853TIP3   OH2 8564   5.816   5.209   3.772
 2853TIP3    H1 8565   5.854   5.129   3.735
 2853TIP3    H2 8566   5.782   5.182   3.857
 2854TIP3   OH2 8567   2.661   5.316   3.987
 2854TIP3    H1 8568   2.743   5.316   4.036
 2854TIP3    H2 8569   2.682   5.273   3.904
 2855TIP3   OH2 8570   5.738   3.057   3.186
 2855TIP3    H1 8571   5.755   2.967   3.161
 2855TIP3    H2 8572   5.646   3.071   3.166
 2856TIP3   OH2 8573   4.464   4.593   3.984
 2856TIP3    H1 8574   4.403   4.661   4.013
 2856TIP3    H2 8575   4.410   4.533   3.933
 2857TIP3   OH2 8576   1.075   1.964   4.409
 2857TIP3    H1 8577   1.056   2.003   4.324
 2857TIP3    H2 8578   1.080   2.038   4.469
 2858TIP3   OH2 8579   4.317   4.016   3.176
 2858TIP3    H1 8580   4.314   3.920   3.176
 2858TIP3    H2 8581   4.407   4.038   3.200
 2859TIP3   OH2 8582   0.986   3.619   3.640
 2859TIP3    H1 8583   1.030   3.545   3.598
 2859TIP3    H2 8584   1.021   3.621   3.728
 2860TIP3   OH2 8585   1.523   5.383   0.086
 2860TIP3    H1 8586   1.490   5.473   0.080
 2860TIP3    H2 8587   1.618   5.393   0.090
 2861TIP3   OH2 8588   1.437   1.729   3.169
 2861TIP3    H1 8589   1.359   1.727   3.114
 2861TIP3    H2 8590   1.484   1.808   3.141
 2862TIP3   OH2 8591   2.928   2.236   4.177
 2862TIP3    H1 8592   3.015   2.275   4.164
 2862TIP3    H2 8593   2.942   2.142   4.167
 2863TIP3   OH2 8594   5.405   4.734   2.393
 2863TIP3    H1 8595   5.501   4.728   2.396
 2863TIP3    H2 8596   5.387   4.828   2.400
 2864TIP3   OH2 8597   3.535   3.930   4.596
 2864TIP3    H1 8598   3.500   3.856   4.646
 2864TIP3    H2 8599   3.510   3.911   4.505
 2865TIP3   OH2 8600   4.895   4.629   2.827
 2865TIP3    H1 8601   4.836   4.555   2.813
 2865TIP3    H2 8602   4.886   4.650   2.920
 2866TIP3   OH2 8603   1.030   0.093   0.310
 2866TIP3    H1 8604   1.080   0.100   0.391
 2866TIP3    H2 8605   0.999   0.002   0.309
 2867TIP3   OH2 8606   4.390   1.181   1.108
 2867TIP3    H1 8607   4.453   1.170   1.037
 2867TIP3    H2 8608   4.442   1.173   1.188
 2868TIP3   OH2 8609   4.511   2.588   2.153
 2868TIP3    H1 8610   4.460   2.585   2.072
 2868TIP3    H2 8611   4.562   2.507   2.153
 2869TIP3   OH2 8612   5.867   4.973   3.038
 2869TIP3    H1 8613   5.920   4.954   2.960
 2869TIP3    H2 8614   5.892   4.905   3.101
 2870TIP3   OH2 8615   0.218   0.920   1.244
 2870TIP3    H1 8616   0.125   0.902   1.253
 2870TIP3    H2 8617   0.257   0.835   1.223
 2871TIP3   OH2 8618   4.772   3.119   0.284
 2871TIP3    H1 8619   4.850   3.167   0.255
 2871TIP3    H2 8620   4.737   3.171   0.356
 2872TIP3   OH2 8621   5.303   2.700   2.761
 2872TIP3    H1 8622   5.212   2.710   2.734
 2872TIP3    H2 8623   5.322   2.607   2.748
 2873TIP3   OH2 8624   1.098   4.637   4.633
 2873TIP3    H1 8625   1.061   4.725   4.620
 2873TIP3    H2 8626   1.027   4.578   4.608
 2874TIP3   OH2 8627   5.150   0.933   1.530
 2874TIP3    H1 8628   5.112   0.886   1.605
 2874TIP3    H2 8629   5.197   0.866   1.481
 2875TIP3   OH2 8630   2.257   1.262   5.054
 2875TIP3    H1 8631   2.264   1.297   4.965
 2875TIP3    H2 8632   2.262   1.167   5.043
 2876TIP3   OH2 8633   4.872   1.484   1.330
 2876TIP3    H1 8634   4.878   1.462   1.423
 2876TIP3    H2 8635   4.867   1.579   1.328
 2877TIP3   OH2 8636   4.965   2.878   5.128
 2877TIP3    H1 8637   4.890   2.892   5.070
 2877TIP3    H2 8638   5.000   2.966   5.143
 2878TIP3   OH2 8639   5.960   1.782   2.056
 2878TIP3    H1 8640   6.047   1.765   2.093
 2878TIP3    H2 8641   5.975   1.850   1.990
 2879TIP3   OH2 8642   5.764   1.795   4.953
 2879TIP3    H1 8643   5.677   1.798   4.913
 2879TIP3    H2 8644   5.748   1.763   5.042
 2880TIP3   OH2 8645   2.295   3.820   3.568
 2880TIP3    H1 8646   2.208   3.845   3.600
 2880TIP3    H2 8647   2.326   3.897   3.520
 2881TIP3   OH2 8648   0.786   2.626   4.423
 2881TIP3    H1 8649   0.721   2.624   4.494
 2881TIP3    H2 8650   0.734   2.641   4.344
 2882TIP3   OH2 8651   3.141   4.199   2.832
 2882TIP3    H1 8652   3.142   4.115   2.878
 2882TIP3    H2 8653   3.170   4.263   2.897
 2883TIP3   OH2 8654   3.960   3.796   1.717
 2883TIP3    H1 8655   3.988   3.832   1.801
 2883TIP3    H2 8656   4.013   3.717   1.706
 2884TIP3   OH2 8657   2.208   3.915   3.036
 2884TIP3    H1 8658   2.287   3.936   2.987
 2884TIP3    H2 8659   2.219   3.960   3.120
 2885TIP3   OH2 8660   0.910   4.127   3.545
 2885TIP3    H1 8661   0.886   4.058   3.607
 2885TIP3    H2 8662   0.831   4.180   3.536
 2886TIP3   OH2 8663   4.639   1.154   4.057
 2886TIP3    H1 8664   4.665   1.162   4.149
 2886TIP3    H2 8665   4.596   1.069   4.051
 2887TIP3   OH2 8666   1.817   2.681   0.347
 2887TIP3    H1 8667   1.794   2.631   0.269
 2887TIP3    H2 8668   1.776   2.634   0.420
 2888TIP3   OH2 8669   3.617   0.807   0.344
 2888TIP3    H1 8670   3.539   0.863   0.343
 2888TIP3    H2 8671   3.611   0.757   0.263
 2889TIP3   OH2 8672   0.765   4.926   0.201
 2889TIP3    H1 8673   0.700   4.872   0.247
 2889TIP3    H2 8674   0.838   4.933   0.262
 2890TIP3   OH2 8675   3.487   4.369   1.466
 2890TIP3    H1 8676   3.527   4.424   1.534
 2890TIP3    H2 8677   3.479   4.283   1.506
 2891TIP3   OH2 8678   4.730   0.575   4.798
 2891TIP3    H1 8679   4.803   0.564   4.736
 2891TIP3    H2 8680   4.676   0.644   4.759
 2892TIP3   OH2 8681   5.467   3.367   2.975
 2892TIP3    H1 8682   5.548   3.417   2.964
 2892TIP3    H2 8683   5.421   3.411   3.046
 2893TIP3   OH2 8684   3.165   4.973   1.816
 2893TIP3    H1 8685   3.245   5.025   1.817
 2893TIP3    H2 8686   3.131   4.979   1.906
 2894TIP3   OH2 8687   5.846   5.928   3.947
 2894TIP3    H1 8688   5.780   5.997   3.959
 2894TIP3    H2 8689   5.794   5.850   3.928
 2895TIP3   OH2 8690   5.086   0.461   2.025
 2895TIP3    H1 8691   5.042   0.377   2.040
 2895TIP3    H2 8692   5.134   0.477   2.105
 2896TIP3   OH2 8693   3.199   2.799   1.631
 2896TIP3    H1 8694   3.209   2.715   1.587
 2896TIP3    H2 8695   3.281   2.811   1.678
 2897TIP3   OH2 8696   3.650   5.767   4.783
 2897TIP3    H1 8697   3.734   5.750   4.742
 2897TIP3    H2 8698   3.663   5.743   4.875
 2898TIP3   OH2 8699   2.599   5.788   1.398
 2898TIP3    H1 8700   2.575   5.696   1.389
 2898TIP3    H2 8701   2.564   5.814   1.483
 2899TIP3   OH2 8702   2.932   0.584   5.127
 2899TIP3    H1 8703   3.004   0.563   5.187
 2899TIP3    H2 8704   2.945   0.525   5.053
 2900TIP3   OH2 8705   0.643   4.624   4.124
 2900TIP3    H1 8706   0.718   4.575   4.159
 2900TIP3    H2 8707   0.672   4.651   4.037
 2901TIP3   OH2 8708   2.756   3.109   1.830
 2901TIP3    H1 8709   2.836   3.062   1.853
 2901TIP3    H2 8710   2.764   3.193   1.875
 2902TIP3   OH2 8711   0.698   3.362   1.987
 2902TIP3    H1 8712   0.764   3.371   1.919
 2902TIP3    H2 8713   0.748   3.344   2.067
 2903TIP3   OH2 8714   4.794   5.194   2.522
 2903TIP3    H1 8715   4.761   5.118   2.570
 2903TIP3    H2 8716   4.861   5.231   2.580
 2904TIP3   OH2 8717   4.456   2.717   0.705
 2904TIP3    H1 8718   4.489   2.749   0.789
 2904TIP3    H2 8719   4.368   2.753   0.699
 2905TIP3   OH2 8720   2.275   3.447   1.499
 2905TIP3    H1 8721   2.180   3.440   1.498
 2905TIP3    H2 8722   2.301   3.408   1.583
 2906TIP3   OH2 8723   0.109   2.819   4.304
 2906TIP3    H1 8724   0.058   2.744   4.275
 2906TIP3    H2 8725   0.167   2.838   4.230
 2907TIP3   OH2 8726   4.734   2.102   1.255
 2907TIP3    H1 8727   4.824   2.097   1.224
 2907TIP3    H2 8728   4.734   2.173   1.320
 2908TIP3   OH2 8729   1.671   4.081   1.273
 2908TIP3    H1 8730   1.765   4.071   1.282
 2908TIP3    H2 8731   1.635   4.041   1.352
 2909TIP3   OH2 8732   4.380   2.423   0.627
 2909TIP3    H1 8733   4.315   2.368   0.672
 2909TIP3    H2 8734   4.391   2.499   0.685
 2910TIP3   OH2 8735   6.027   4.210   2.857
 2910TIP3    H1 8736   5.942   4.252   2.857
 2910TIP3    H2 8737   6.052   4.205   2.949
 2911TIP3   OH2 8738   3.790   2.521   1.041
 2911TIP3    H1 8739   3.771   2.488   1.129
 2911TIP3    H2 8740   3.771   2.447   0.983
 2912TIP3   OH2 8741   2.600   4.376   2.459
 2912TIP3    H1 8742   2.509   4.397   2.440
 2912TIP3    H2 8743   2.637   4.457   2.495
 2913TIP3   OH2 8744   5.573   1.954   0.683
 2913TIP3    H1 8745   5.508   2.020   0.704
 2913TIP3    H2 8746   5.537   1.872   0.717
 2914TIP3   OH2 8747   4.263   3.804   4.475
 2914TIP3    H1 8748   4.356   3.822   4.470
 2914TIP3    H2 8749   4.241   3.816   4.568
 2915TIP3   OH2 8750   3.236   0.713   3.340
 2915TIP3    H1 8751   3.168   0.751   3.284
 2915TIP3    H2 8752   3.275   0.643   3.287
 2916TIP3   OH2 8753   5.275   0.967   3.595
 2916TIP3    H1 8754   5.282   0.962   3.690
 2916TIP3    H2 8755   5.313   0.885   3.563
 2917TIP3   OH2 8756   2.779   3.706   2.298
 2917TIP3    H1 8757   2.746   3.694   2.209
 2917TIP3    H2 8758   2.702   3.726   2.350
 2918TIP3   OH2 8759   5.248   4.910   0.814
 2918TIP3    H1 8760   5.324   4.888   0.868
 2918TIP3    H2 8761   5.256   4.855   0.737
 2919TIP3   OH2 8762   4.360   4.167   1.362
 2919TIP3    H1 8763   4.324   4.199   1.445
 2919TIP3    H2 8764   4.423   4.234   1.336
 2920TIP3   OH2 8765   4.951   5.576   4.757
 2920TIP3    H1 8766   4.962   5.660   4.711
 2920TIP3    H2 8767   4.874   5.590   4.813
 2921TIP3   OH2 8768   2.064   3.668   0.691
 2921TIP3    H1 8769   2.060   3.732   0.620
 2921TIP3    H2 8770   1.988   3.611   0.676
 2922TIP3   OH2 8771   2.134   3.044   2.753
 2922TIP3    H1 8772   2.165   2.962   2.715
 2922TIP3    H2 8773   2.214   3.094   2.769
 2923TIP3   OH2 8774   0.158   4.564   1.538
 2923TIP3    H1 8775   0.210   4.484   1.529
 2923TIP3    H2 8776   0.184   4.618   1.463
 2924TIP3   OH2 8777   6.166   3.172   3.192
 2924TIP3    H1 8778   6.155   3.168   3.287
 2924TIP3    H2 8779   6.233   3.107   3.173
 2925TIP3   OH2 8780   2.965   4.455   3.093
 2925TIP3    H1 8781   3.029   4.405   3.143
 2925TIP3    H2 8782   3.016   4.524   3.051
 2926TIP3   OH2 8783   2.568   4.424   1.216
 2926TIP3    H1 8784   2.477   4.401   1.198
 2926TIP3    H2 8785   2.573   4.428   1.312
 2927TIP3   OH2 8786   0.504   0.242   1.728
 2927TIP3    H1 8787   0.433   0.306   1.727
 2927TIP3    H2 8788   0.482   0.181   1.657
 2928TIP3   OH2 8789   2.198   5.539   3.899
 2928TIP3    H1 8790   2.187   5.635   3.900
 2928TIP3    H2 8791   2.250   5.521   3.821
 2929TIP3   OH2 8792   1.718   1.567   0.697
 2929TIP3    H1 8793   1.758   1.581   0.783
 2929TIP3    H2 8794   1.748   1.480   0.671
 2930TIP3   OH2 8795   2.929   5.851   2.097
 2930TIP3    H1 8796   2.885   5.795   2.161
 2930TIP3    H2 8797   2.865   5.862   2.027
 2931TIP3   OH2 8798   2.469   4.142   1.271
 2931TIP3    H1 8799   2.375   4.146   1.290
 2931TIP3    H2 8800   2.481   4.203   1.198
 2932TIP3   OH2 8801   3.835   4.641   0.608
 2932TIP3    H1 8802   3.820   4.733   0.630
 2932TIP3    H2 8803   3.823   4.637   0.513
 2933TIP3   OH2 8804   5.268   5.046   0.445
 2933TIP3    H1 8805   5.181   5.016   0.472
 2933TIP3    H2 8806   5.272   5.137   0.476
 2934TIP3   OH2 8807   1.106   2.479   2.427
 2934TIP3    H1 8808   1.041   2.452   2.363
 2934TIP3    H2 8809   1.069   2.453   2.511
 2935TIP3   OH2 8810   4.588   3.525   0.716
 2935TIP3    H1 8811   4.603   3.438   0.753
 2935TIP3    H2 8812   4.495   3.542   0.728
 2936TIP3   OH2 8813   6.251   5.363   1.305
 2936TIP3    H1 8814   6.270   5.274   1.335
 2936TIP3    H2 8815   6.336   5.407   1.307
 2937TIP3   OH2 8816   1.876   0.834   1.807
 2937TIP3    H1 8817   1.919   0.916   1.785
 2937TIP3    H2 8818   1.783   0.856   1.811
 2938TIP3   OH2 8819   2.376   4.782   3.458
 2938TIP3    H1 8820   2.394   4.756   3.368
 2938TIP3    H2 8821   2.380   4.701   3.508
 2939TIP3   OH2 8822   2.637   1.416   3.888
 2939TIP3    H1 8823   2.565   1.447   3.833
 2939TIP3    H2 8824   2.712   1.412   3.829
 2940TIP3   OH2 8825   0.469   1.582   2.123
 2940TIP3    H1 8826   0.439   1.514   2.183
 2940TIP3    H2 8827   0.398   1.645   2.120
 2941TIP3   OH2 8828   1.805   0.237   2.945
 2941TIP3    H1 8829   1.896   0.236   2.915
 2941TIP3    H2 8830   1.770   0.318   2.909
 2942TIP3   OH2 8831   0.629   4.731   2.049
 2942TIP3    H1 8832   0.631   4.822   2.080
 2942TIP3    H2 8833   0.714   4.719   2.006
 2943TIP3   OH2 8834   2.649   2.906   4.837
 2943TIP3    H1 8835   2.586   2.848   4.794
 2943TIP3    H2 8836   2.602   2.937   4.915
 2944TIP3   OH2 8837   5.028   0.260   1.377
 2944TIP3    H1 8838   4.976   0.179   1.385
 2944TIP3    H2 8839   5.055   0.262   1.286
 2945TIP3   OH2 8840   3.041   5.608   4.309
 2945TIP3    H1 8841   3.119   5.590   4.257
 2945TIP3    H2 8842   2.992   5.673   4.257
 2946TIP3   OH2 8843   5.503   3.550   0.692
 2946TIP3    H1 8844   5.573   3.581   0.635
 2946TIP3    H2 8845   5.427   3.603   0.670
 2947TIP3   OH2 8846   3.486   4.513   3.616
 2947TIP3    H1 8847   3.498   4.421   3.593
 2947TIP3    H2 8848   3.573   4.543   3.641
 2948TIP3   OH2 8849   2.231   4.583   1.531
 2948TIP3    H1 8850   2.164   4.651   1.517
 2948TIP3    H2 8851   2.295   4.624   1.589
 2949TIP3   OH2 8852   5.796   5.290   0.089
 2949TIP3    H1 8853   5.757   5.348   0.154
 2949TIP3    H2 8854   5.801   5.205   0.132
 2950TIP3   OH2 8855   5.051   0.566   1.476
 2950TIP3    H1 8856   5.131   0.586   1.429
 2950TIP3    H2 8857   5.075   0.571   1.569
 2951TIP3   OH2 8858   0.711   2.047   0.558
 2951TIP3    H1 8859   0.662   2.065   0.477
 2951TIP3    H2 8860   0.737   1.956   0.550
 2952TIP3   OH2 8861   6.087   1.937   1.348
 2952TIP3    H1 8862   6.145   1.862   1.333
 2952TIP3    H2 8863   6.057   1.926   1.438
 2953TIP3   OH2 8864   5.941   1.659   0.868
 2953TIP3    H1 8865   5.955   1.646   0.775
 2953TIP3    H2 8866   5.979   1.581   0.909
 2954TIP3   OH2 8867   3.237   3.150   1.183
 2954TIP3    H1 8868   3.142   3.159   1.172
 2954TIP3    H2 8869   3.269   3.126   1.096
 2955TIP3   OH2 8870   3.432   3.665   4.687
 2955TIP3    H1 8871   3.344   3.630   4.673
 2955TIP3    H2 8872   3.490   3.592   4.667
 2956TIP3   OH2 8873   0.157   2.767   4.582
 2956TIP3    H1 8874   0.128   2.744   4.494
 2956TIP3    H2 8875   0.076   2.785   4.630
 2957TIP3   OH2 8876   2.748   1.712   1.422
 2957TIP3    H1 8877   2.653   1.708   1.432
 2957TIP3    H2 8878   2.776   1.777   1.487
 2958TIP3   OH2 8879   4.894   4.076   0.318
 2958TIP3    H1 8880   4.899   3.986   0.285
 2958TIP3    H2 8881   4.938   4.129   0.251
 2959TIP3   OH2 8882   3.097   0.303   2.592
 2959TIP3    H1 8883   3.015   0.297   2.542
 2959TIP3    H2 8884   3.076   0.266   2.678
 2960TIP3   OH2 8885   5.560   0.289   3.867
 2960TIP3    H1 8886   5.607   0.304   3.949
 2960TIP3    H2 8887   5.475   0.332   3.880
 2961TIP3   OH2 8888   0.606   2.975   0.848
 2961TIP3    H1 8889   0.662   3.046   0.877
 2961TIP3    H2 8890   0.519   3.013   0.841
 2962TIP3   OH2 8891   3.254   5.613   4.736
 2962TIP3    H1 8892   3.298   5.561   4.803
 2962TIP3    H2 8893   3.325   5.641   4.678
 2963TIP3   OH2 8894   4.634   3.781   0.553
 2963TIP3    H1 8895   4.614   3.701   0.601
 2963TIP3    H2 8896   4.639   3.849   0.620
 2964TIP3   OH2 8897   4.151   5.412   0.274
 2964TIP3    H1 8898   4.091   5.460   0.331
 2964TIP3    H2 8899   4.099   5.340   0.238
 2965TIP3   OH2 8900   6.077   0.470   1.204
 2965TIP3    H1 8901   6.133   0.400   1.237
 2965TIP3    H2 8902   6.137   0.530   1.159
 2966TIP3   OH2 8903   3.446   5.519   3.215
 2966TIP3    H1 8904   3.400   5.595   3.252
 2966TIP3    H2 8905   3.511   5.557   3.156
 2967TIP3   OH2 8906   2.830   0.788   2.445
 2967TIP3    H1 8907   2.823   0.754   2.356
 2967TIP3    H2 8908   2.740   0.797   2.474
 2968TIP3   OH2 8909   3.289   4.503   3.314
 2968TIP3    H1 8910   3.213   4.561   3.302
 2968TIP3    H2 8911   3.255   4.431   3.367
 2969TIP3   OH2 8912   0.483   2.269   1.538
 2969TIP3    H1 8913   0.428   2.267   1.616
 2969TIP3    H2 8914   0.548   2.201   1.554
 2970TIP3   OH2 8915   2.934   1.251   2.121
 2970TIP3    H1 8916   2.888   1.219   2.198
 2970TIP3    H2 8917   2.937   1.346   2.132
 2971TIP3   OH2 8918   4.376   4.984   2.844
 2971TIP3    H1 8919   4.386   5.079   2.851
 2971TIP3    H2 8920   4.291   4.972   2.801
 2972TIP3   OH2 8921   1.624   2.634   2.982
 2972TIP3    H1 8922   1.531   2.621   2.997
 2972TIP3    H2 8923   1.661   2.546   2.985
 2973TIP3   OH2 8924   3.587   5.336   4.133
 2973TIP3    H1 8925   3.634   5.397   4.075
 2973TIP3    H2 8926   3.510   5.385   4.162
 2974TIP3   OH2 8927   5.809   3.551   4.440
 2974TIP3    H1 8928   5.838   3.639   4.464
 2974TIP3    H2 8929   5.871   3.523   4.372
 2975TIP3   OH2 8930   0.214   3.543   5.098
 2975TIP3    H1 8931   0.207   3.637   5.083
 2975TIP3    H2 8932   0.307   3.524   5.088
 2976TIP3   OH2 8933   5.265   5.098   1.419
 2976TIP3    H1 8934   5.317   5.163   1.466
 2976TIP3    H2 8935   5.224   5.148   1.348
 2977TIP3   OH2 8936   1.068   3.403   1.538
 2977TIP3    H1 8937   1.092   3.389   1.446
 2977TIP3    H2 8938   0.973   3.392   1.540
 2978TIP3   OH2 8939   1.566   1.857   0.268
 2978TIP3    H1 8940   1.477   1.890   0.281
 2978TIP3    H2 8941   1.582   1.867   0.174
 2979TIP3   OH2 8942   0.367   5.629   0.999
 2979TIP3    H1 8943   0.419   5.651   0.922
 2979TIP3    H2 8944   0.430   5.622   1.070
 2980TIP3   OH2 8945   2.097   3.869   1.013
 2980TIP3    H1 8946   2.097   3.945   0.954
 2980TIP3    H2 8947   2.144   3.802   0.965
 2981TIP3   OH2 8948   0.987   3.319   5.116
 2981TIP3    H1 8949   0.977   3.330   5.021
 2981TIP3    H2 8950   1.068   3.366   5.137
 2982TIP3   OH2 8951   4.962   1.738   3.781
 2982TIP3    H1 8952   4.998   1.671   3.839
 2982TIP3    H2 8953   5.014   1.816   3.799
 2983TIP3   OH2 8954   5.145   3.220   3.815
 2983TIP3    H1 8955   5.092   3.298   3.797
 2983TIP3    H2 8956   5.229   3.255   3.843
 2984TIP3   OH2 8957   4.503   2.472   0.398
 2984TIP3    H1 8958   4.443   2.429   0.459
 2984TIP3    H2 8959   4.559   2.527   0.453
 2985TIP3   OH2 8960   1.251   5.810   1.536
 2985TIP3    H1 8961   1.232   5.797   1.443
 2985TIP3    H2 8962   1.186   5.874   1.565
 2986TIP3   OH2 8963   3.028   2.327   3.326
 2986TIP3    H1 8964   3.118   2.296   3.314
 2986TIP3    H2 8965   3.009   2.310   3.418
 2987TIP3   OH2 8966   0.321   3.022   4.657
 2987TIP3    H1 8967   0.263   2.974   4.716
 2987TIP3    H2 8968   0.324   2.969   4.577
 2988TIP3   OH2 8969   3.791   3.220   4.885
 2988TIP3    H1 8970   3.789   3.154   4.955
 2988TIP3    H2 8971   3.721   3.192   4.825
 2989TIP3   OH2 8972   1.499   2.755   2.601
 2989TIP3    H1 8973   1.452   2.782   2.679
 2989TIP3    H2 8974   1.571   2.701   2.633
 2990TIP3   OH2 8975   3.003   2.777   3.464
 2990TIP3    H1 8976   3.010   2.873   3.465
 2990TIP3    H2 8977   2.919   2.758   3.505
 2991TIP3   OH2 8978   1.829   4.933   2.028
 2991TIP3    H1 8979   1.800   4.909   1.940
 2991TIP3    H2 8980   1.758   4.987   2.063
 2992TIP3   OH2 8981   1.569   3.013   1.117
 2992TIP3    H1 8982   1.614   3.094   1.141
 2992TIP3    H2 8983   1.622   2.944   1.155
 2993TIP3   OH2 8984   2.594   1.807   4.416
 2993TIP3    H1 8985   2.564   1.724   4.453
 2993TIP3    H2 8986   2.677   1.786   4.373
 2994TIP3   OH2 8987   3.373   2.601   2.205
 2994TIP3    H1 8988   3.331   2.546   2.271
 2994TIP3    H2 8989   3.428   2.540   2.155
 2995TIP3   OH2 8990   5.571   5.814   2.016
 2995TIP3    H1 8991   5.507   5.884   2.032
 2995TIP3    H2 8992   5.524   5.733   2.037
 2996TIP3   OH2 8993   1.064   4.699   3.765
 2996TIP3    H1 8994   1.028   4.755   3.833
 2996TIP3    H2 8995   1.069   4.755   3.688
 2997TIP3   OH2 8996   0.782   4.401   4.276
 2997TIP3    H1 8997   0.750   4.352   4.201
 2997TIP3    H2 8998   0.873   4.423   4.253
 2998TIP3   OH2 8999   5.305   4.066   1.172
 2998TIP3    H1 9000   5.305   4.106   1.085
 2998TIP3    H2 9001   5.222   4.095   1.211
 2999TIP3   OH2 9002   0.339   0.205   4.170
 2999TIP3    H1 9003   0.429   0.173   4.178
 2999TIP3    H2 9004   0.291   0.157   4.237
 3000TIP3   OH2 9005   5.860   0.932   0.199
 3000TIP3    H1 9006   5.924   0.931   0.270
 3000TIP3    H2 9007   5.785   0.980   0.235
 3001TIP3   OH2 9008   5.570   2.153   1.519
 3001TIP3    H1 9009   5.636   2.181   1.455
 3001TIP3    H2 9010   5.614   2.084   1.569
 3002TIP3   OH2 9011   5.031   5.238   0.390
 3002TIP3    H1 9012   5.023   5.239   0.486
 3002TIP3    H2 9013   4.994   5.154   0.364
 3003TIP3   OH2 9014   1.731   4.801   3.360
 3003TIP3    H1 9015   1.657   4.820   3.418
 3003TIP3    H2 9016   1.788   4.877   3.369
 3004TIP3   OH2 9017   5.046   4.326   3.309
 3004TIP3    H1 9018   4.963   4.282   3.326
 3004TIP3    H2 9019   5.089   4.272   3.243
 3005TIP3   OH2 9020   3.426   2.815   1.375
 3005TIP3    H1 9021   3.369   2.829   1.299
 3005TIP3    H2 9022   3.382   2.747   1.426
 3006TIP3   OH2 9023   2.500   1.350   2.248
 3006TIP3    H1 9024   2.447   1.271   2.235
 3006TIP3    H2 9025   2.463   1.390   2.327
 3007TIP3   OH2 9026   3.545   3.059   0.484
 3007TIP3    H1 9027   3.495   3.047   0.565
 3007TIP3    H2 9028   3.482   3.098   0.423
 3008TIP3   OH2 9029   3.014   4.658   1.058
 3008TIP3    H1 9030   2.939   4.634   1.003
 3008TIP3    H2 9031   2.981   4.650   1.148
 3009TIP3   OH2 9032   3.720   3.294   3.484
 3009TIP3    H1 9033   3.674   3.218   3.519
 3009TIP3    H2 9034   3.674   3.369   3.520
 3010TIP3   OH2 9035   2.917   0.056   0.499
 3010TIP3    H1 9036   2.934   0.148   0.516
 3010TIP3    H2 9037   2.833   0.039   0.543
 3011TIP3   OH2 9038   0.303   3.580   1.840
 3011TIP3    H1 9039   0.342   3.506   1.887
 3011TIP3    H2 9040   0.209   3.570   1.854
 3012TIP3   OH2 9041   3.845   4.578   3.212
 3012TIP3    H1 9042   3.755   4.550   3.228
 3012TIP3    H2 9043   3.891   4.498   3.187
 3013TIP3   OH2 9044   2.299   2.455   2.998
 3013TIP3    H1 9045   2.307   2.527   2.936
 3013TIP3    H2 9046   2.205   2.440   3.006
 3014TIP3   OH2 9047   5.271   2.960   4.593
 3014TIP3    H1 9048   5.220   2.900   4.538
 3014TIP3    H2 9049   5.311   2.904   4.659
 3015TIP3   OH2 9050   2.644   2.414   1.922
 3015TIP3    H1 9051   2.624   2.495   1.968
 3015TIP3    H2 9052   2.728   2.385   1.958
 3016TIP3   OH2 9053   5.059   1.320   4.848
 3016TIP3    H1 9054   5.120   1.293   4.918
 3016TIP3    H2 9055   5.109   1.382   4.795
 3017TIP3   OH2 9056   2.442   0.325   2.711
 3017TIP3    H1 9057   2.465   0.261   2.644
 3017TIP3    H2 9058   2.346   0.324   2.713
 3018TIP3   OH2 9059   0.107   1.448   4.487
 3018TIP3    H1 9060   0.131   1.502   4.562
 3018TIP3    H2 9061   0.019   1.416   4.507
 3019TIP3   OH2 9062   1.157  -0.002   2.915
 3019TIP3    H1 9063   1.104   0.059   2.967
 3019TIP3    H2 9064   1.235  -0.017   2.969
 3020TIP3   OH2 9065   4.159   1.397   1.175
 3020TIP3    H1 9066   4.245   1.376   1.140
 3020TIP3    H2 9067   4.174   1.469   1.236
 3021TIP3   OH2 9068   0.921   2.449   1.987
 3021TIP3    H1 9069   0.850   2.385   1.993
 3021TIP3    H2 9070   0.960   2.434   1.901
 3022TIP3   OH2 9071   2.810   5.109   4.777
 3022TIP3    H1 9072   2.818   5.034   4.835
 3022TIP3    H2 9073   2.880   5.169   4.805
 3023TIP3   OH2 9074   4.572   3.122   0.531
 3023TIP3    H1 9075   4.517   3.044   0.541
 3023TIP3    H2 9076   4.558   3.172   0.611
 3024TIP3   OH2 9077   2.478   4.773   1.226
 3024TIP3    H1 9078   2.545   4.704   1.224
 3024TIP3    H2 9079   2.491   4.816   1.310
 3025TIP3   OH2 9080   0.007   2.701   3.560
 3025TIP3    H1 9081  -0.013   2.767   3.626
 3025TIP3    H2 9082   0.100   2.682   3.573
 3026TIP3   OH2 9083   3.265   4.348   3.064
 3026TIP3    H1 9084   3.278   4.443   3.065
 3026TIP3    H2 9085   3.333   4.314   3.122
 3027TIP3   OH2 9086   4.264   4.037   1.780
 3027TIP3    H1 9087   4.330   4.012   1.844
 3027TIP3    H2 9088   4.299   4.116   1.739
 3028TIP3   OH2 9089   5.864   5.895   3.146
 3028TIP3    H1 9090   5.957   5.911   3.127
 3028TIP3    H2 9091   5.865   5.852   3.232
 3029TIP3   OH2 9092   4.260   0.719   4.053
 3029TIP3    H1 9093   4.302   0.634   4.044
 3029TIP3    H2 9094   4.176   0.699   4.094
 3030TIP3   OH2 9095   1.686   4.536   0.864
 3030TIP3    H1 9096   1.747   4.486   0.810
 3030TIP3    H2 9097   1.693   4.496   0.951
 3031TIP3   OH2 9098   5.551   3.666   3.622
 3031TIP3    H1 9099   5.541   3.720   3.544
 3031TIP3    H2 9100   5.600   3.721   3.683
 3032TIP3   OH2 9101   6.317   0.969   3.487
 3032TIP3    H1 9102   6.334   1.002   3.399
 3032TIP3    H2 9103   6.222   0.967   3.495
 3033TIP3   OH2 9104   3.999   2.977   0.721
 3033TIP3    H1 9105   4.022   2.895   0.679
 3033TIP3    H2 9106   3.909   2.964   0.753
 3034TIP3   OH2 9107   5.894   0.649   4.355
 3034TIP3    H1 9108   5.953   0.613   4.421
 3034TIP3    H2 9109   5.952   0.693   4.292
 3035TIP3   OH2 9110   3.308   2.253   3.317
 3035TIP3    H1 9111   3.377   2.302   3.361
 3035TIP3    H2 9112   3.355   2.192   3.260
 3036TIP3   OH2 9113   0.551   0.430   3.196
 3036TIP3    H1 9114   0.638   0.391   3.193
 3036TIP3    H2 9115   0.523   0.422   3.287
 3037TIP3   OH2 9116   2.620   1.229   0.790
 3037TIP3    H1 9117   2.657   1.318   0.787
 3037TIP3    H2 9118   2.538   1.237   0.741
 3038TIP3   OH2 9119   5.863   1.772   2.523
 3038TIP3    H1 9120   5.891   1.852   2.480
 3038TIP3    H2 9121   5.821   1.721   2.453
 3039TIP3   OH2 9122   0.638   0.450   0.443
 3039TIP3    H1 9123   0.669   0.361   0.429
 3039TIP3    H2 9124   0.713   0.496   0.481
 3040TIP3   OH2 9125   2.710   1.873   1.904
 3040TIP3    H1 9126   2.765   1.851   1.980
 3040TIP3    H2 9127   2.653   1.942   1.936
 3041TIP3   OH2 9128   1.768   3.781   2.516
 3041TIP3    H1 9129   1.829   3.737   2.575
 3041TIP3    H2 9130   1.747   3.864   2.560
 3042TIP3   OH2 9131   0.209   4.136   1.374
 3042TIP3    H1 9132   0.159   4.197   1.319
 3042TIP3    H2 9133   0.153   4.058   1.381
 3043TIP3   OH2 9134   2.121   1.428   2.123
 3043TIP3    H1 9135   2.147   1.488   2.193
 3043TIP3    H2 9136   2.028   1.412   2.140
 3044TIP3   OH2 9137   4.509   2.260   2.698
 3044TIP3    H1 9138   4.510   2.261   2.602
 3044TIP3    H2 9139   4.453   2.334   2.722
 3045TIP3   OH2 9140   6.124   4.338   1.612
 3045TIP3    H1 9141   6.188   4.278   1.651
 3045TIP3    H2 9142   6.101   4.298   1.528
 3046TIP3   OH2 9143   4.353   0.139   3.846
 3046TIP3    H1 9144   4.302   0.064   3.875
 3046TIP3    H2 9145   4.307   0.215   3.883
 3047TIP3   OH2 9146   3.012   3.379   2.980
 3047TIP3    H1 9147   3.104   3.353   2.994
 3047TIP3    H2 9148   2.965   3.296   2.975
 3048TIP3   OH2 9149   1.166   3.793   1.292
 3048TIP3    H1 9150   1.098   3.827   1.350
 3048TIP3    H2 9151   1.247   3.834   1.324
 3049TIP3   OH2 9152   3.577   2.255   0.472
 3049TIP3    H1 9153   3.515   2.328   0.476
 3049TIP3    H2 9154   3.662   2.294   0.491
 3050TIP3   OH2 9155   3.537   1.871   4.835
 3050TIP3    H1 9156   3.485   1.814   4.778
 3050TIP3    H2 9157   3.618   1.822   4.851
 3051TIP3   OH2 9158   3.532   2.992   4.935
 3051TIP3    H1 9159   3.501   2.903   4.922
 3051TIP3    H2 9160   3.526   3.006   5.030
 3052TIP3   OH2 9161   0.230   2.745   1.869
 3052TIP3    H1 9162   0.249   2.671   1.812
 3052TIP3    H2 9163   0.141   2.730   1.899
 3053TIP3   OH2 9164   4.357   5.260   2.699
 3053TIP3    H1 9165   4.269   5.288   2.672
 3053TIP3    H2 9166   4.366   5.292   2.789
 3054TIP3   OH2 9167   1.113   2.934   4.015
 3054TIP3    H1 9168   1.170   2.953   3.940
 3054TIP3    H2 9169   1.041   2.996   4.006
 3055TIP3   OH2 9170   4.745   5.440   3.835
 3055TIP3    H1 9171   4.722   5.398   3.918
 3055TIP3    H2 9172   4.808   5.507   3.859
 3056TIP3   OH2 9173   4.986   5.275   2.689
 3056TIP3    H1 9174   4.963   5.349   2.745
 3056TIP3    H2 9175   5.082   5.278   2.682
 3057TIP3   OH2 9176   4.577   5.516   4.198
 3057TIP3    H1 9177   4.516   5.497   4.269
 3057TIP3    H2 9178   4.594   5.431   4.157
 3058TIP3   OH2 9179   0.006   4.605   4.053
 3058TIP3    H1 9180  -0.010   4.698   4.067
 3058TIP3    H2 9181   0.085   4.601   3.999
 3059TIP3   OH2 9182   2.299   2.812   0.248
 3059TIP3    H1 9183   2.281   2.726   0.287
 3059TIP3    H2 9184   2.326   2.866   0.322
 3060TIP3   OH2 9185   6.104   0.008   1.423
 3060TIP3    H1 9186   6.143   0.048   1.345
 3060TIP3    H2 9187   6.013  -0.010   1.398
 3061TIP3   OH2 9188   1.653   5.674   1.389
 3061TIP3    H1 9189   1.709   5.608   1.347
 3061TIP3    H2 9190   1.690   5.758   1.360
 3062TIP3   OH2 9191   4.104   4.266   1.204
 3062TIP3    H1 9192   4.038   4.298   1.266
 3062TIP3    H2 9193   4.124   4.177   1.235
 3063TIP3   OH2 9194   0.399   1.908   4.474
 3063TIP3    H1 9195   0.436   1.923   4.387
 3063TIP3    H2 9196   0.332   1.977   4.483
 3064TIP3   OH2 9197   2.055   3.313   2.528
 3064TIP3    H1 9198   1.979   3.290   2.582
 3064TIP3    H2 9199   2.071   3.236   2.474
 3065TIP3   OH2 9200   5.179   5.107   4.304
 3065TIP3    H1 9201   5.086   5.086   4.296
 3065TIP3    H2 9202   5.183   5.202   4.306
 3066TIP3   OH2 9203   0.599   5.062   0.595
 3066TIP3    H1 9204   0.560   5.149   0.603
 3066TIP3    H2 9205   0.673   5.064   0.655
 3067TIP3   OH2 9206   1.222   1.449   5.174
 3067TIP3    H1 9207   1.202   1.463   5.081
 3067TIP3    H2 9208   1.161   1.506   5.220
 3068TIP3   OH2 9209   6.325   1.938   3.971
 3068TIP3    H1 9210   6.395   1.881   4.003
 3068TIP3    H2 9211   6.269   1.881   3.919
 3069TIP3   OH2 9212   0.153   0.119   0.449
 3069TIP3    H1 9213   0.119   0.208   0.444
 3069TIP3    H2 9214   0.077   0.062   0.433
 3070TIP3   OH2 9215   1.386   2.080   4.510
 3070TIP3    H1 9216   1.341   2.087   4.426
 3070TIP3    H2 9217   1.462   2.026   4.492
 3071TIP3   OH2 9218   4.937   5.174   4.970
 3071TIP3    H1 9219   4.898   5.113   4.907
 3071TIP3    H2 9220   4.871   5.242   4.981
 3072TIP3   OH2 9221   4.097   1.807   4.094
 3072TIP3    H1 9222   4.012   1.764   4.092
 3072TIP3    H2 9223   4.159   1.740   4.066
 3073TIP3   OH2 9224   2.094   3.513   1.778
 3073TIP3    H1 9225   2.064   3.484   1.864
 3073TIP3    H2 9226   2.184   3.483   1.772
 3074TIP3   OH2 9227   1.827   4.404   2.496
 3074TIP3    H1 9228   1.875   4.455   2.561
 3074TIP3    H2 9229   1.737   4.435   2.501
 3075TIP3   OH2 9230   3.843   5.160   4.358
 3075TIP3    H1 9231   3.899   5.185   4.284
 3075TIP3    H2 9232   3.760   5.135   4.318
 3076TIP3   OH2 9233   0.519   5.571   3.969
 3076TIP3    H1 9234   0.523   5.665   3.952
 3076TIP3    H2 9235   0.594   5.554   4.026
 3077TIP3   OH2 9236   2.732   3.738   0.529
 3077TIP3    H1 9237   2.807   3.725   0.472
 3077TIP3    H2 9238   2.669   3.671   0.502
 3078TIP3   OH2 9239   0.718   3.691   3.361
 3078TIP3    H1 9240   0.672   3.722   3.283
 3078TIP3    H2 9241   0.768   3.767   3.391
 3079TIP3   OH2 9242   2.101   2.537   3.343
 3079TIP3    H1 9243   2.176   2.586   3.376
 3079TIP3    H2 9244   2.041   2.604   3.311
 3080TIP3   OH2 9245   0.707   4.552   4.585
 3080TIP3    H1 9246   0.688   4.469   4.628
 3080TIP3    H2 9247   0.624   4.578   4.544
 3081TIP3   OH2 9248   0.096   1.183   0.472
 3081TIP3    H1 9249   0.010   1.212   0.442
 3081TIP3    H2 9250   0.078   1.108   0.528
 3082TIP3   OH2 9251   5.336   3.711   0.514
 3082TIP3    H1 9252   5.245   3.685   0.498
 3082TIP3    H2 9253   5.339   3.804   0.491
 3083TIP3   OH2 9254   2.824   2.098   4.580
 3083TIP3    H1 9255   2.761   2.169   4.583
 3083TIP3    H2 9256   2.902   2.137   4.540
 3084TIP3   OH2 9257   1.272   4.172   1.609
 3084TIP3    H1 9258   1.314   4.130   1.684
 3084TIP3    H2 9259   1.183   4.135   1.607
 3085TIP3   OH2 9260   0.372   4.257   1.795
 3085TIP3    H1 9261   0.438   4.221   1.853
 3085TIP3    H2 9262   0.368   4.350   1.818
 3086TIP3   OH2 9263   4.789   5.001   0.924
 3086TIP3    H1 9264   4.823   4.912   0.919
 3086TIP3    H2 9265   4.784   5.030   0.833
 3087TIP3   OH2 9266   5.641   5.362   4.608
 3087TIP3    H1 9267   5.565   5.381   4.553
 3087TIP3    H2 9268   5.677   5.448   4.629
 3088TIP3   OH2 9269   4.815   1.608   1.943
 3088TIP3    H1 9270   4.720   1.598   1.931
 3088TIP3    H2 9271   4.836   1.554   2.018
 3089TIP3   OH2 9272   4.210   2.195   0.809
 3089TIP3    H1 9273   4.224   2.210   0.902
 3089TIP3    H2 9274   4.120   2.163   0.803
 3090TIP3   OH2 9275   3.992   1.389   2.654
 3090TIP3    H1 9276   3.968   1.434   2.735
 3090TIP3    H2 9277   4.004   1.297   2.680
 3091TIP3   OH2 9278   4.382   2.504   3.086
 3091TIP3    H1 9279   4.437   2.549   3.150
 3091TIP3    H2 9280   4.358   2.422   3.128
 3092TIP3   OH2 9281   0.133   0.072   3.338
 3092TIP3    H1 9282   0.063   0.134   3.317
 3092TIP3    H2 9283   0.089  -0.006   3.369
 3093TIP3   OH2 9284   3.607   5.069   2.439
 3093TIP3    H1 9285   3.622   5.077   2.533
 3093TIP3    H2 9286   3.635   5.153   2.403
 3094TIP3   OH2 9287   3.429   1.603   3.395
 3094TIP3    H1 9288   3.459   1.693   3.385
 3094TIP3    H2 9289   3.409   1.574   3.306
 3095TIP3   OH2 9290   2.483   1.201   1.784
 3095TIP3    H1 9291   2.444   1.236   1.864
 3095TIP3    H2 9292   2.424   1.228   1.714
 3096TIP3   OH2 9293   4.859   4.441   1.861
 3096TIP3    H1 9294   4.830   4.506   1.925
 3096TIP3    H2 9295   4.843   4.482   1.777
 3097TIP3   OH2 9296   3.234   1.015   2.649
 3097TIP3    H1 9297   3.215   0.933   2.693
 3097TIP3    H2 9298   3.152   1.041   2.608
 3098TIP3   OH2 9299   1.826   0.614   3.695
 3098TIP3    H1 9300   1.796   0.682   3.755
 3098TIP3    H2 9301   1.902   0.653   3.651
 3099TIP3   OH2 9302   0.189   5.638   2.782
 3099TIP3    H1 9303   0.135   5.690   2.723
 3099TIP3    H2 9304   0.194   5.552   2.741
 3100TIP3   OH2 9305   3.958   0.904   1.094
 3100TIP3    H1 9306   4.039   0.873   1.136
 3100TIP3    H2 9307   3.967   0.999   1.092
 3101TIP3   OH2 9308   6.181   1.880   1.014
 3101TIP3    H1 9309   6.211   1.811   1.073
 3101TIP3    H2 9310   6.091   1.898   1.041
 3102TIP3   OH2 9311   4.435   4.866   2.045
 3102TIP3    H1 9312   4.359   4.882   1.989
 3102TIP3    H2 9313   4.408   4.896   2.132
 3103TIP3   OH2 9314   1.198   5.903   2.113
 3103TIP3    H1 9315   1.214   5.941   2.199
 3103TIP3    H2 9316   1.190   5.978   2.054
 3104TIP3   OH2 9317   4.564   5.430   3.627
 3104TIP3    H1 9318   4.565   5.340   3.596
 3104TIP3    H2 9319   4.625   5.431   3.701
 3105TIP3   OH2 9320   4.272   2.547   0.894
 3105TIP3    H1 9321   4.225   2.630   0.896
 3105TIP3    H2 9322   4.232   2.495   0.963
 3106TIP3   OH2 9323   2.880   1.704   4.854
 3106TIP3    H1 9324   2.888   1.767   4.782
 3106TIP3    H2 9325   2.951   1.641   4.839
 3107TIP3   OH2 9326   6.332   1.216   2.691
 3107TIP3    H1 9327   6.363   1.232   2.780
 3107TIP3    H2 9328   6.262   1.280   2.678
 3108TIP3   OH2 9329   4.979   5.749   2.876
 3108TIP3    H1 9330   5.024   5.774   2.795
 3108TIP3    H2 9331   5.043   5.765   2.945
 3109TIP3   OH2 9332   6.170   3.502   1.075
 3109TIP3    H1 9333   6.195   3.455   1.154
 3109TIP3    H2 9334   6.081   3.471   1.055
 3110TIP3   OH2 9335   1.047   1.551   1.610
 3110TIP3    H1 9336   0.994   1.630   1.614
 3110TIP3    H2 9337   1.121   1.574   1.553
 3111TIP3   OH2 9338   3.482   4.857   1.752
 3111TIP3    H1 9339   3.418   4.833   1.819
 3111TIP3    H2 9340   3.459   4.804   1.676
 3112TIP3   OH2 9341   2.353   2.498   1.177
 3112TIP3    H1 9342   2.431   2.505   1.233
 3112TIP3    H2 9343   2.385   2.461   1.095
 3113TIP3   OH2 9344   1.616   2.046   2.099
 3113TIP3    H1 9345   1.652   2.036   2.187
 3113TIP3    H2 9346   1.543   1.983   2.096
 3114TIP3   OH2 9347   3.941   1.296   4.924
 3114TIP3    H1 9348   4.027   1.261   4.945
 3114TIP3    H2 9349   3.924   1.360   4.993
 3115TIP3   OH2 9350   0.258   5.772   2.177
 3115TIP3    H1 9351   0.340   5.784   2.130
 3115TIP3    H2 9352   0.201   5.840   2.142
 3116TIP3   OH2 9353   6.071   0.739   2.098
 3116TIP3    H1 9354   6.067   0.755   2.193
 3116TIP3    H2 9355   6.043   0.821   2.059
 3117TIP3   OH2 9356   4.588   2.837   4.217
 3117TIP3    H1 9357   4.560   2.792   4.137
 3117TIP3    H2 9358   4.524   2.907   4.229
 3118TIP3   OH2 9359   0.730   2.185   4.794
 3118TIP3    H1 9360   0.768   2.099   4.808
 3118TIP3    H2 9361   0.665   2.172   4.724
 3119TIP3   OH2 9362   5.659   5.453   2.001
 3119TIP3    H1 9363   5.691   5.512   1.932
 3119TIP3    H2 9364   5.656   5.367   1.959
 3120TIP3   OH2 9365   1.111   4.687   0.279
 3120TIP3    H1 9366   1.064   4.646   0.352
 3120TIP3    H2 9367   1.133   4.774   0.311
 3121TIP3   OH2 9368   4.110   4.971   2.772
 3121TIP3    H1 9369   4.072   4.951   2.687
 3121TIP3    H2 9370   4.089   5.063   2.787
 3122TIP3   OH2 9371   5.384   5.320   5.024
 3122TIP3    H1 9372   5.345   5.291   5.106
 3122TIP3    H2 9373   5.309   5.346   4.969
 3123TIP3   OH2 9374   3.426   3.827   4.375
 3123TIP3    H1 9375   3.413   3.769   4.300
 3123TIP3    H2 9376   3.392   3.912   4.346
 3124TIP3   OH2 9377   3.741   3.086   0.833
 3124TIP3    H1 9378   3.711   3.151   0.770
 3124TIP3    H2 9379   3.667   3.074   0.893
 3125TIP3   OH2 9380   0.103   2.007   3.314
 3125TIP3    H1 9381   0.123   2.093   3.351
 3125TIP3    H2 9382   0.043   2.025   3.241
 3126TIP3   OH2 9383   3.907   3.276   1.900
 3126TIP3    H1 9384   3.924   3.369   1.912
 3126TIP3    H2 9385   3.823   3.261   1.944
 3127TIP3   OH2 9386   2.185   5.292   1.968
 3127TIP3    H1 9387   2.229   5.244   1.898
 3127TIP3    H2 9388   2.092   5.287   1.945
 3128TIP3   OH2 9389   0.152   1.845   0.112
 3128TIP3    H1 9390   0.156   1.791   0.033
 3128TIP3    H2 9391   0.207   1.800   0.175
 3129TIP3   OH2 9392   3.621   1.780   0.431
 3129TIP3    H1 9393   3.637   1.699   0.383
 3129TIP3    H2 9394   3.674   1.846   0.385
 3130TIP3   OH2 9395   4.670   3.350   1.356
 3130TIP3    H1 9396   4.595   3.371   1.411
 3130TIP3    H2 9397   4.687   3.257   1.372
 3131TIP3   OH2 9398   2.315   3.387   2.653
 3131TIP3    H1 9399   2.360   3.302   2.651
 3131TIP3    H2 9400   2.243   3.376   2.590
 3132TIP3   OH2 9401   5.890   3.252   0.358
 3132TIP3    H1 9402   5.853   3.180   0.308
 3132TIP3    H2 9403   5.826   3.267   0.429
 3133TIP3   OH2 9404   2.352   5.623   3.394
 3133TIP3    H1 9405   2.408   5.566   3.447
 3133TIP3    H2 9406   2.270   5.628   3.443
 3134TIP3   OH2 9407   0.192   3.815   4.740
 3134TIP3    H1 9408   0.174   3.792   4.831
 3134TIP3    H2 9409   0.237   3.738   4.705
 3135TIP3   OH2 9410   0.807   0.907   0.298
 3135TIP3    H1 9411   0.832   0.902   0.390
 3135TIP3    H2 9412   0.841   0.992   0.269
 3136TIP3   OH2 9413   2.678   4.140   2.327
 3136TIP3    H1 9414   2.747   4.093   2.374
 3136TIP3    H2 9415   2.658   4.216   2.383
 3137TIP3   OH2 9416   4.788   2.987   1.811
 3137TIP3    H1 9417   4.724   2.924   1.777
 3137TIP3    H2 9418   4.789   2.971   1.905
 3138TIP3   OH2 9419   0.198   5.962   4.657
 3138TIP3    H1 9420   0.116   5.915   4.649
 3138TIP3    H2 9421   0.243   5.920   4.731
 3139TIP3   OH2 9422   5.285   4.623   5.003
 3139TIP3    H1 9423   5.275   4.531   5.029
 3139TIP3    H2 9424   5.260   4.624   4.910
 3140TIP3   OH2 9425   4.214   0.474   4.767
 3140TIP3    H1 9426   4.278   0.518   4.711
 3140TIP3    H2 9427   4.177   0.543   4.822
 3141TIP3   OH2 9428   6.160   5.109   4.012
 3141TIP3    H1 9429   6.164   5.141   3.922
 3141TIP3    H2 9430   6.206   5.175   4.063
 3142TIP3   OH2 9431   3.433   3.866   2.521
 3142TIP3    H1 9432   3.418   3.929   2.450
 3142TIP3    H2 9433   3.458   3.785   2.477
 3143TIP3   OH2 9434   1.065   3.310   1.254
 3143TIP3    H1 9435   1.049   3.390   1.204
 3143TIP3    H2 9436   1.077   3.242   1.186
 3144TIP3   OH2 9437   3.753   4.566   4.729
 3144TIP3    H1 9438   3.698   4.610   4.793
 3144TIP3    H2 9439   3.803   4.503   4.780
 3145TIP3   OH2 9440   5.845   0.982   4.482
 3145TIP3    H1 9441   5.902   0.935   4.421
 3145TIP3    H2 9442   5.813   1.057   4.432
 3146TIP3   OH2 9443   0.628   1.779   4.560
 3146TIP3    H1 9444   0.538   1.809   4.574
 3146TIP3    H2 9445   0.664   1.770   4.648
 3147TIP3   OH2 9446   0.445   4.497   4.917
 3147TIP3    H1 9447   0.438   4.571   4.857
 3147TIP3    H2 9448   0.355   4.478   4.943
 3148TIP3   OH2 9449   2.530   3.654   1.894
 3148TIP3    H1 9450   2.542   3.569   1.851
 3148TIP3    H2 9451   2.579   3.715   1.840
 3149TIP3   OH2 9452   3.269   1.516   0.879
 3149TIP3    H1 9453   3.340   1.579   0.868
 3149TIP3    H2 9454   3.199   1.566   0.923
 3150TIP3   OH2 9455   0.628   0.444   1.223
 3150TIP3    H1 9456   0.619   0.539   1.230
 3150TIP3    H2 9457   0.554   0.416   1.168
 3151TIP3   OH2 9458   0.279   4.790   2.502
 3151TIP3    H1 9459   0.261   4.730   2.575
 3151TIP3    H2 9460   0.251   4.876   2.534
 3152TIP3   OH2 9461   1.859   2.684   1.930
 3152TIP3    H1 9462   1.943   2.727   1.915
 3152TIP3    H2 9463   1.819   2.733   2.002
 3153TIP3   OH2 9464   2.713   0.571   0.027
 3153TIP3    H1 9465   2.647   0.624   0.071
 3153TIP3    H2 9466   2.768   0.634  -0.019
 3154TIP3   OH2 9467   2.817   0.868   0.273
 3154TIP3    H1 9468   2.854   0.835   0.355
 3154TIP3    H2 9469   2.790   0.958   0.294
 3155TIP3   OH2 9470   4.663   3.492   4.428
 3155TIP3    H1 9471   4.634   3.432   4.496
 3155TIP3    H2 9472   4.713   3.437   4.367
 3156TIP3   OH2 9473   0.207   2.011   1.028
 3156TIP3    H1 9474   0.271   2.020   1.099
 3156TIP3    H2 9475   0.183   2.100   1.006
 3157TIP3   OH2 9476   5.715   3.705   4.024
 3157TIP3    H1 9477   5.686   3.763   4.094
 3157TIP3    H2 9478   5.635   3.662   3.994
 3158TIP3   OH2 9479   0.419   0.502   4.056
 3158TIP3    H1 9480   0.366   0.581   4.046
 3158TIP3    H2 9481   0.498   0.519   4.004
 3159TIP3   OH2 9482   4.079   4.991   4.998
 3159TIP3    H1 9483   3.985   4.973   5.004
 3159TIP3    H2 9484   4.085   5.086   5.002
 3160TIP3   OH2 9485   0.717   2.824   3.287
 3160TIP3    H1 9486   0.794   2.830   3.343
 3160TIP3    H2 9487   0.723   2.899   3.229
 3161TIP3   OH2 9488   5.510   5.145   4.835
 3161TIP3    H1 9489   5.477   5.210   4.897
 3161TIP3    H2 9490   5.568   5.194   4.777
 3162TIP3   OH2 9491   0.522   5.562   3.653
 3162TIP3    H1 9492   0.610   5.525   3.661
 3162TIP3    H2 9493   0.478   5.537   3.735
 3163TIP3   OH2 9494   3.433   2.468   1.942
 3163TIP3    H1 9495   3.377   2.474   1.865
 3163TIP3    H2 9496   3.388   2.408   2.001
 3164TIP3   OH2 9497   0.554   3.747   3.118
 3164TIP3    H1 9498   0.504   3.815   3.164
 3164TIP3    H2 9499   0.505   3.732   3.038
 3165TIP3   OH2 9500   3.167   5.847   0.805
 3165TIP3    H1 9501   3.092   5.819   0.752
 3165TIP3    H2 9502   3.244   5.815   0.757
 3166TIP3   OH2 9503   5.340   2.628   2.101
 3166TIP3    H1 9504   5.252   2.663   2.097
 3166TIP3    H2 9505   5.355   2.590   2.014
 3167TIP3   OH2 9506   2.712   2.640   3.428
 3167TIP3    H1 9507   2.691   2.678   3.513
 3167TIP3    H2 9508   2.682   2.550   3.434
 3168TIP3   OH2 9509   0.162   1.294   4.089
 3168TIP3    H1 9510   0.104   1.363   4.122
 3168TIP3    H2 9511   0.129   1.214   4.129
 3169TIP3   OH2 9512   1.378   2.456   0.184
 3169TIP3    H1 9513   1.290   2.427   0.207
 3169TIP3    H2 9514   1.436   2.403   0.240
 3170TIP3   OH2 9515   1.897   5.460   1.906
 3170TIP3    H1 9516   1.814   5.439   1.948
 3170TIP3    H2 9517   1.878   5.454   1.812
 3171TIP3   OH2 9518   2.338   2.684   1.855
 3171TIP3    H1 9519   2.413   2.740   1.875
 3171TIP3    H2 9520   2.262   2.732   1.889
 3172TIP3   OH2 9521   2.477   1.604   4.583
 3172TIP3    H1 9522   2.394   1.646   4.558
 3172TIP3    H2 9523   2.480   1.525   4.529
 3173TIP3   OH2 9524   0.675   0.614   0.787
 3173TIP3    H1 9525   0.726   0.691   0.815
 3173TIP3    H2 9526   0.619   0.647   0.717
 3174TIP3   OH2 9527   4.616   4.324   4.251
 3174TIP3    H1 9528   4.696   4.287   4.288
 3174TIP3    H2 9529   4.635   4.418   4.243
 3175TIP3   OH2 9530   6.365   5.829   0.194
 3175TIP3    H1 9531   6.284   5.831   0.143
 3175TIP3    H2 9532   6.340   5.866   0.279
 3176TIP3   OH2 9533   0.572   4.212   0.498
 3176TIP3    H1 9534   0.638   4.282   0.491
 3176TIP3    H2 9535   0.565   4.176   0.410
 3177TIP3   OH2 9536   3.522   5.472   2.095
 3177TIP3    H1 9537   3.429   5.459   2.079
 3177TIP3    H2 9538   3.534   5.446   2.187
 3178TIP3   OH2 9539   6.056   1.656   1.228
 3178TIP3    H1 9540   5.983   1.656   1.290
 3178TIP3    H2 9541   6.132   1.635   1.282
 3179TIP3   OH2 9542   2.977   2.213   0.994
 3179TIP3    H1 9543   2.982   2.117   0.996
 3179TIP3    H2 9544   2.906   2.232   0.932
 3180TIP3   OH2 9545   5.419   2.876   0.050
 3180TIP3    H1 9546   5.349   2.813   0.068
 3180TIP3    H2 9547   5.474   2.874   0.127
 3181TIP3   OH2 9548   2.288   5.213   3.696
 3181TIP3    H1 9549   2.214   5.207   3.756
 3181TIP3    H2 9550   2.282   5.133   3.643
 3182TIP3   OH2 9551   0.067   3.529   1.685
 3182TIP3    H1 9552   0.136   3.565   1.629
 3182TIP3    H2 9553   0.077   3.434   1.677
 3183TIP3   OH2 9554   6.055   5.151   2.354
 3183TIP3    H1 9555   6.091   5.201   2.281
 3183TIP3    H2 9556   6.000   5.214   2.401
 3184TIP3   OH2 9557   0.083   2.566   5.067
 3184TIP3    H1 9558   0.137   2.638   5.098
 3184TIP3    H2 9559   0.136   2.522   5.001
 3185TIP3   OH2 9560   1.923   2.143   2.462
 3185TIP3    H1 9561   1.908   2.222   2.410
 3185TIP3    H2 9562   2.012   2.117   2.440
 3186TIP3   OH2 9563   0.741   4.115   0.188
 3186TIP3    H1 9564   0.790   4.093   0.267
 3186TIP3    H2 9565   0.800   4.172   0.139
 3187TIP3   OH2 9566   6.340   1.068   4.471
 3187TIP3    H1 9567   6.300   1.137   4.418
 3187TIP3    H2 9568   6.266   1.028   4.517
 3188TIP3   OH2 9569   1.189   2.593   3.822
 3188TIP3    H1 9570   1.248   2.534   3.774
 3188TIP3    H2 9571   1.112   2.540   3.840
 3189TIP3   OH2 9572   4.484   0.750   2.135
 3189TIP3    H1 9573   4.579   0.738   2.137
 3189TIP3    H2 9574   4.457   0.722   2.047
 3190TIP3   OH2 9575   0.794   1.980   1.884
 3190TIP3    H1 9576   0.865   1.916   1.892
 3190TIP3    H2 9577   0.801   2.034   1.963
 3191TIP3   OH2 9578   5.329   1.758   3.838
 3191TIP3    H1 9579   5.345   1.666   3.817
 3191TIP3    H2 9580   5.387   1.806   3.780
 3192TIP3   OH2 9581   5.489   3.123   2.500
 3192TIP3    H1 9582   5.577   3.148   2.473
 3192TIP3    H2 9583   5.475   3.170   2.583
 3193TIP3   OH2 9584   3.141   2.936   4.601
 3193TIP3    H1 9585   3.070   2.934   4.665
 3193TIP3    H2 9586   3.115   2.872   4.535
 3194TIP3   OH2 9587   0.468   0.835   3.311
 3194TIP3    H1 9588   0.372   0.836   3.301
 3194TIP3    H2 9589   0.482   0.822   3.405
 3195TIP3   OH2 9590   0.855   3.865   3.702
 3195TIP3    H1 9591   0.853   3.869   3.797
 3195TIP3    H2 9592   0.895   3.780   3.682
 3196TIP3   OH2 9593   2.620   5.435   4.914
 3196TIP3    H1 9594   2.615   5.379   4.836
 3196TIP3    H2 9595   2.681   5.505   4.889
 3197TIP3   OH2 9596   1.864   3.691   3.017
 3197TIP3    H1 9597   1.774   3.720   3.001
 3197TIP3    H2 9598   1.904   3.689   2.930
 3198TIP3   OH2 9599   3.731   4.327   0.226
 3198TIP3    H1 9600   3.824   4.342   0.212
 3198TIP3    H2 9601   3.690   4.349   0.142
 3199TIP3   OH2 9602   1.847   4.419   1.207
 3199TIP3    H1 9603   1.864   4.381   1.293
 3199TIP3    H2 9604   1.838   4.513   1.223
 3200TIP3   OH2 9605   4.531   2.494   4.330
 3200TIP3    H1 9606   4.532   2.504   4.425
 3200TIP3    H2 9607   4.513   2.402   4.316
 3201TIP3   OH2 9608   4.639   5.680   1.184
 3201TIP3    H1 9609   4.720   5.708   1.227
 3201TIP3    H2 9610   4.645   5.716   1.096
 3202TIP3   OH2 9611   1.925   2.577   1.045
 3202TIP3    H1 9612   1.968   2.662   1.035
 3202TIP3    H2 9613   1.897   2.575   1.137
 3203TIP3   OH2 9614   0.759   1.768   2.909
 3203TIP3    H1 9615   0.771   1.692   2.852
 3203TIP3    H2 9616   0.848   1.795   2.932
 3204TIP3   OH2 9617   3.052   0.583   0.167
 3204TIP3    H1 9618   3.098   0.500   0.178
 3204TIP3    H2 9619   3.001   0.594   0.247
 3205TIP3   OH2 9620   2.371   5.178   2.514
 3205TIP3    H1 9621   2.368   5.244   2.445
 3205TIP3    H2 9622   2.327   5.218   2.589
 3206TIP3   OH2 9623   4.640   4.239   0.734
 3206TIP3    H1 9624   4.651   4.146   0.752
 3206TIP3    H2 9625   4.644   4.281   0.820
 3207TIP3   OH2 9626   5.811   3.117   1.477
 3207TIP3    H1 9627   5.773   3.096   1.392
 3207TIP3    H2 9628   5.843   3.207   1.467
 3208TIP3   OH2 9629   3.953   2.979   1.063
 3208TIP3    H1 9630   3.900   3.045   1.019
 3208TIP3    H2 9631   3.913   2.971   1.150
 3209TIP3   OH2 9632   3.066   1.061   4.899
 3209TIP3    H1 9633   3.010   0.987   4.922
 3209TIP3    H2 9634   3.131   1.024   4.839
 3210TIP3   OH2 9635   0.428   0.067   4.633
 3210TIP3    H1 9636   0.462   0.046   4.720
 3210TIP3    H2 9637   0.504   0.097   4.584
 3211TIP3   OH2 9638   0.327   4.635   0.886
 3211TIP3    H1 9639   0.386   4.709   0.867
 3211TIP3    H2 9640   0.283   4.618   0.803
 3212TIP3   OH2 9641   5.580   4.230   4.108
 3212TIP3    H1 9642   5.610   4.285   4.180
 3212TIP3    H2 9643   5.530   4.289   4.051
 3213TIP3   OH2 9644   1.497   3.645   2.516
 3213TIP3    H1 9645   1.581   3.690   2.505
 3213TIP3    H2 9646   1.522   3.554   2.535
 3214TIP3   OH2 9647   5.608   4.185   4.677
 3214TIP3    H1 9648   5.538   4.250   4.686
 3214TIP3    H2 9649   5.677   4.232   4.630
 3215TIP3   OH2 9650   0.063   1.706   4.370
 3215TIP3    H1 9651   0.062   1.762   4.447
 3215TIP3    H2 9652   0.154   1.679   4.360
 3216TIP3   OH2 9653   1.289   1.270   4.787
 3216TIP3    H1 9654   1.335   1.186   4.796
 3216TIP3    H2 9655   1.358   1.334   4.770
 3217TIP3   OH2 9656   2.994   4.016   4.576
 3217TIP3    H1 9657   3.038   3.934   4.553
 3217TIP3    H2 9658   3.052   4.085   4.542
 3218TIP3   OH2 9659   3.938   5.972   4.867
 3218TIP3    H1 9660   3.958   5.880   4.885
 3218TIP3    H2 9661   3.936   6.014   4.953
 3219TIP3   OH2 9662   3.712   1.654   4.242
 3219TIP3    H1 9663   3.703   1.672   4.335
 3219TIP3    H2 9664   3.705   1.739   4.199
 3220TIP3   OH2 9665   2.061   2.830   2.201
 3220TIP3    H1 9666   2.053   2.878   2.118
 3220TIP3    H2 9667   2.117   2.755   2.180
 3221TIP3   OH2 9668   3.880   5.928   3.027
 3221TIP3    H1 9669   3.865   5.959   3.117
 3221TIP3    H2 9670   3.807   5.965   2.977
 3222TIP3   OH2 9671   1.210   0.656   5.025
 3222TIP3    H1 9672   1.279   0.654   4.959
 3222TIP3    H2 9673   1.196   0.564   5.047
 3223TIP3   OH2 9674   6.183   2.910   2.426
 3223TIP3    H1 9675   6.137   2.967   2.364
 3223TIP3    H2 9676   6.149   2.822   2.408
 3224TIP3   OH2 9677   3.768   0.792   2.591
 3224TIP3    H1 9678   3.777   0.862   2.526
 3224TIP3    H2 9679   3.761   0.712   2.539
 3225TIP3   OH2 9680   3.480   3.177   3.383
 3225TIP3    H1 9681   3.387   3.196   3.374
 3225TIP3    H2 9682   3.524   3.255   3.349
 3226TIP3   OH2 9683   4.225   2.168   2.144
 3226TIP3    H1 9684   4.288   2.096   2.144
 3226TIP3    H2 9685   4.200   2.178   2.052
 3227TIP3   OH2 9686   3.417   0.582   2.748
 3227TIP3    H1 9687   3.429   0.677   2.756
 3227TIP3    H2 9688   3.370   0.571   2.666
 3228TIP3   OH2 9689   5.597   0.309   0.839
 3228TIP3    H1 9690   5.653   0.377   0.802
 3228TIP3    H2 9691   5.508   0.343   0.829
 3229TIP3   OH2 9692   2.084   5.203   1.597
 3229TIP3    H1 9693   2.154   5.234   1.539
 3229TIP3    H2 9694   2.014   5.267   1.588
 3230TIP3   OH2 9695   0.943   0.122   4.668
 3230TIP3    H1 9696   0.980   0.112   4.756
 3230TIP3    H2 9697   0.960   0.213   4.645
 3231TIP3   OH2 9698   0.335   2.353   2.596
 3231TIP3    H1 9699   0.298   2.416   2.657
 3231TIP3    H2 9700   0.335   2.398   2.511
 3232TIP3   OH2 9701   3.947   2.058   3.360
 3232TIP3    H1 9702   3.912   2.126   3.418
 3232TIP3    H2 9703   3.983   1.992   3.419
 3233TIP3   OH2 9704   1.469   3.690   1.581
 3233TIP3    H1 9705   1.392   3.745   1.599
 3233TIP3    H2 9706   1.480   3.697   1.486
 3234TIP3   OH2 9707   6.202   3.684   1.612
 3234TIP3    H1 9708   6.254   3.748   1.563
 3234TIP3    H2 9709   6.267   3.620   1.643
 3235TIP3   OH2 9710   0.155   0.654   4.266
 3235TIP3    H1 9711   0.087   0.692   4.211
 3235TIP3    H2 9712   0.164   0.564   4.235
 3236TIP3   OH2 9713   3.352   3.418   2.376
 3236TIP3    H1 9714   3.409   3.341   2.370
 3236TIP3    H2 9715   3.407   3.486   2.416
 3237TIP3   OH2 9716   5.117   4.453   2.026
 3237TIP3    H1 9717   5.067   4.414   1.954
 3237TIP3    H2 9718   5.208   4.452   1.994
 3238TIP3   OH2 9719   3.995   1.226   3.119
 3238TIP3    H1 9720   3.903   1.233   3.146
 3238TIP3    H2 9721   3.998   1.146   3.067
 3239TIP3   OH2 9722   0.276   0.978   4.066
 3239TIP3    H1 9723   0.184   0.988   4.090
 3239TIP3    H2 9724   0.319   1.055   4.104
 3240TIP3   OH2 9725   2.906   3.012   1.336
 3240TIP3    H1 9726   2.951   2.988   1.255
 3240TIP3    H2 9727   2.874   2.929   1.371
 3241TIP3   OH2 9728   3.489   2.433   5.059
 3241TIP3    H1 9729   3.536   2.373   5.001
 3241TIP3    H2 9730   3.509   2.402   5.147
 3242TIP3   OH2 9731   3.086   5.812   2.552
 3242TIP3    H1 9732   3.042   5.784   2.471
 3242TIP3    H2 9733   3.070   5.906   2.556
 3243TIP3   OH2 9734   4.926   1.565   4.406
 3243TIP3    H1 9735   4.870   1.638   4.379
 3243TIP3    H2 9736   4.960   1.529   4.325
 3244TIP3   OH2 9737   1.621   3.281   1.094
 3244TIP3    H1 9738   1.662   3.312   1.013
 3244TIP3    H2 9739   1.527   3.294   1.081
 3245TIP3   OH2 9740   1.936   1.268   3.727
 3245TIP3    H1 9741   1.951   1.250   3.634
 3245TIP3    H2 9742   1.916   1.183   3.765
 3246TIP3   OH2 9743   3.673   2.717   1.709
 3246TIP3    H1 9744   3.752   2.719   1.655
 3246TIP3    H2 9745   3.668   2.627   1.742
 3247TIP3   OH2 9746   0.157   1.496   4.834
 3247TIP3    H1 9747   0.164   1.438   4.910
 3247TIP3    H2 9748   0.223   1.462   4.773
 3248TIP3   OH2 9749   3.189   0.214   3.060
 3248TIP3    H1 9750   3.213   0.140   3.114
 3248TIP3    H2 9751   3.149   0.277   3.121
 3249TIP3   OH2 9752   2.757   1.479   2.603
 3249TIP3    H1 9753   2.842   1.471   2.560
 3249TIP3    H2 9754   2.778   1.487   2.696
 3250TIP3   OH2 9755   3.266   3.489   0.222
 3250TIP3    H1 9756   3.344   3.468   0.273
 3250TIP3    H2 9757   3.275   3.583   0.204
 3251TIP3   OH2 9758   0.001   5.057   2.250
 3251TIP3    H1 9759   0.095   5.064   2.233
 3251TIP3    H2 9760  -0.038   5.123   2.193
 3252TIP3   OH2 9761   6.025   0.767   1.214
 3252TIP3    H1 9762   5.936   0.762   1.249
 3252TIP3    H2 9763   6.030   0.696   1.149
 3253TIP3   OH2 9764   4.100   0.049   0.797
 3253TIP3    H1 9765   4.177   0.023   0.747
 3253TIP3    H2 9766   4.102  -0.006   0.876
 3254TIP3   OH2 9767   4.939   3.173   1.349
 3254TIP3    H1 9768   5.016   3.150   1.297
 3254TIP3    H2 9769   4.969   3.245   1.405
 3255TIP3   OH2 9770   5.100   3.758   0.837
 3255TIP3    H1 9771   5.080   3.774   0.745
 3255TIP3    H2 9772   5.055   3.828   0.884
 3256TIP3   OH2 9773   1.541   4.235   2.020
 3256TIP3    H1 9774   1.580   4.316   1.987
 3256TIP3    H2 9775   1.567   4.231   2.112
 3257TIP3   OH2 9776   5.420   4.470   4.422
 3257TIP3    H1 9777   5.459   4.544   4.467
 3257TIP3    H2 9778   5.345   4.507   4.375
 3258TIP3   OH2 9779   1.853   1.653   1.623
 3258TIP3    H1 9780   1.808   1.600   1.557
 3258TIP3    H2 9781   1.787   1.717   1.651
 3259TIP3   OH2 9782   2.154   3.003   3.692
 3259TIP3    H1 9783   2.171   2.909   3.700
 3259TIP3    H2 9784   2.080   3.019   3.751
 3260TIP3   OH2 9785   4.121   4.592   4.984
 3260TIP3    H1 9786   4.042   4.553   4.946
 3260TIP3    H2 9787   4.182   4.518   4.992
 3261TIP3   OH2 9788   4.559   3.485   2.250
 3261TIP3    H1 9789   4.630   3.538   2.214
 3261TIP3    H2 9790   4.519   3.444   2.173
 3262TIP3   OH2 9791   6.197   3.204   5.162
 3262TIP3    H1 9792   6.225   3.194   5.070
 3262TIP3    H2 9793   6.257   3.148   5.211
 3263TIP3   OH2 9794   2.863   5.812   3.272
 3263TIP3    H1 9795   2.770   5.790   3.278
 3263TIP3    H2 9796   2.865   5.906   3.253
 3264TIP3   OH2 9797   4.535   0.912   4.783
 3264TIP3    H1 9798   4.587   0.977   4.735
 3264TIP3    H2 9799   4.496   0.857   4.714
 3265TIP3   OH2 9800   4.568   2.511   4.623
 3265TIP3    H1 9801   4.485   2.540   4.661
 3265TIP3    H2 9802   4.592   2.434   4.675
 3266TIP3   OH2 9803   4.876   4.723   3.698
 3266TIP3    H1 9804   4.961   4.718   3.742
 3266TIP3    H2 9805   4.836   4.803   3.732
 3267TIP3   OH2 9806   4.746   0.004   0.247
 3267TIP3    H1 9807   4.739   0.029   0.155
 3267TIP3    H2 9808   4.696   0.071   0.294
 3268TIP3   OH2 9809   4.598   3.221   4.872
 3268TIP3    H1 9810   4.569   3.132   4.856
 3268TIP3    H2 9811   4.686   3.225   4.835
 3269TIP3   OH2 9812   0.095   5.621   3.767
 3269TIP3    H1 9813   0.068   5.607   3.676
 3269TIP3    H2 9814   0.140   5.706   3.766
 3270TIP3   OH2 9815   1.989   1.535   0.495
 3270TIP3    H1 9816   1.919   1.582   0.451
 3270TIP3    H2 9817   1.968   1.443   0.482
 3271TIP3   OH2 9818   0.465   3.415   0.318
 3271TIP3    H1 9819   0.401   3.345   0.333
 3271TIP3    H2 9820   0.415   3.485   0.276
 3272TIP3   OH2 9821   2.727   4.457   2.940
 3272TIP3    H1 9822   2.762   4.516   2.872
 3272TIP3    H2 9823   2.802   4.438   2.996
 3273TIP3   OH2 9824   2.372   3.847   1.200
 3273TIP3    H1 9825   2.365   3.933   1.158
 3273TIP3    H2 9826   2.287   3.806   1.183
 3274TIP3   OH2 9827   0.695   5.168   1.753
 3274TIP3    H1 9828   0.652   5.240   1.707
 3274TIP3    H2 9829   0.788   5.179   1.733
 3275TIP3   OH2 9830   2.390   0.111   3.413
 3275TIP3    H1 9831   2.343   0.053   3.355
 3275TIP3    H2 9832   2.328   0.132   3.483
 3276TIP3   OH2 9833   4.340   2.662   4.721
 3276TIP3    H1 9834   4.294   2.736   4.761
 3276TIP3    H2 9835   4.352   2.688   4.630
 3277TIP3   OH2 9836   4.354   0.797   0.180
 3277TIP3    H1 9837   4.262   0.786   0.202
 3277TIP3    H2 9838   4.389   0.708   0.172
 3278TIP3   OH2 9839   5.431   2.627   3.345
 3278TIP3    H1 9840   5.516   2.646   3.382
 3278TIP3    H2 9841   5.370   2.685   3.391
 3279TIP3   OH2 9842   3.186   2.723   2.542
 3279TIP3    H1 9843   3.125   2.720   2.616
 3279TIP3    H2 9844   3.268   2.689   2.578
 3280TIP3   OH2 9845   1.045   0.504   4.637
 3280TIP3    H1 9846   1.002   0.566   4.696
 3280TIP3    H2 9847   1.095   0.446   4.695
 3281TIP3   OH2 9848   3.721   1.065   5.117
 3281TIP3    H1 9849   3.714   1.128   5.189
 3281TIP3    H2 9850   3.689   1.114   5.041
 3282TIP3   OH2 9851   4.173   4.950   3.478
 3282TIP3    H1 9852   4.246   5.011   3.492
 3282TIP3    H2 9853   4.108   4.975   3.544
 3283TIP3   OH2 9854   1.919   5.233   4.601
 3283TIP3    H1 9855   1.976   5.261   4.672
 3283TIP3    H2 9856   1.831   5.250   4.632
 3284TIP3   OH2 9857   0.949   5.511   3.634
 3284TIP3    H1 9858   0.963   5.501   3.728
 3284TIP3    H2 9859   0.991   5.594   3.612
 3285TIP3   OH2 9860   4.601   1.978   3.494
 3285TIP3    H1 9861   4.624   1.999   3.585
 3285TIP3    H2 9862   4.615   2.060   3.447
 3286TIP3   OH2 9863   5.668   5.422   0.897
 3286TIP3    H1 9864   5.720   5.432   0.818
 3286TIP3    H2 9865   5.721   5.463   0.966
 3287TIP3   OH2 9866   2.456   1.841   1.719
 3287TIP3    H1 9867   2.508   1.912   1.681
 3287TIP3    H2 9868   2.388   1.885   1.769
 3288TIP3   OH2 9869   0.365   0.612   2.721
 3288TIP3    H1 9870   0.313   0.692   2.721
 3288TIP3    H2 9871   0.350   0.573   2.807
 3289TIP3   OH2 9872   4.670   2.185   2.905
 3289TIP3    H1 9873   4.648   2.225   2.821
 3289TIP3    H2 9874   4.722   2.108   2.882
 3290TIP3   OH2 9875   6.262   1.129   0.789
 3290TIP3    H1 9876   6.328   1.158   0.852
 3290TIP3    H2 9877   6.248   1.204   0.731
 3291TIP3   OH2 9878   1.286   5.200   3.919
 3291TIP3    H1 9879   1.297   5.111   3.884
 3291TIP3    H2 9880   1.195   5.222   3.901
 3292TIP3   OH2 9881   2.141   4.305   3.691
 3292TIP3    H1 9882   2.146   4.276   3.782
 3292TIP3    H2 9883   2.088   4.238   3.647
 3293TIP3   OH2 9884   0.224   0.544   3.537
 3293TIP3    H1 9885   0.284   0.493   3.483
 3293TIP3    H2 9886   0.137   0.512   3.514
 3294TIP3   OH2 9887   1.817   5.496   5.096
 3294TIP3    H1 9888   1.810   5.575   5.042
 3294TIP3    H2 9889   1.764   5.431   5.049
 3295TIP3   OH2 9890   2.046   5.266   4.910
 3295TIP3    H1 9891   2.071   5.182   4.872
 3295TIP3    H2 9892   2.063   5.256   5.004
 3296TIP3   OH2 9893   3.405   3.807   4.953
 3296TIP3    H1 9894   3.314   3.789   4.977
 3296TIP3    H2 9895   3.425   3.741   4.887
 3297TIP3   OH2 9896   1.474   3.634   1.314
 3297TIP3    H1 9897   1.420   3.572   1.266
 3297TIP3    H2 9898   1.559   3.630   1.271
 3298TIP3   OH2 9899   5.589   1.662   5.156
 3298TIP3    H1 9900   5.628   1.613   5.229
 3298TIP3    H2 9901   5.503   1.623   5.143
 3299TIP3   OH2 9902   4.940   5.024   4.229
 3299TIP3    H1 9903   4.937   5.032   4.134
 3299TIP3    H2 9904   4.861   4.975   4.252
 3300TIP3   OH2 9905   2.454   1.511   4.217
 3300TIP3    H1 9906   2.422   1.438   4.165
 3300TIP3    H2 9907   2.549   1.506   4.210
 3301TIP3   OH2 9908   3.234   2.863   3.770
 3301TIP3    H1 9909   3.252   2.892   3.681
 3301TIP3    H2 9910   3.281   2.781   3.779
 3302TIP3   OH2 9911   3.047   1.831   0.011
 3302TIP3    H1 9912   3.032   1.786   0.094
 3302TIP3    H2 9913   3.062   1.761  -0.052
 3303TIP3   OH2 9914   5.358   1.074   4.315
 3303TIP3    H1 9915   5.431   1.104   4.261
 3303TIP3    H2 9916   5.369   0.980   4.322
 3304TIP3   OH2 9917   0.739   2.759   0.971
 3304TIP3    H1 9918   0.724   2.850   0.945
 3304TIP3    H2 9919   0.651   2.723   0.985
 3305TIP3   OH2 9920   5.556   4.022   4.382
 3305TIP3    H1 9921   5.518   4.098   4.340
 3305TIP3    H2 9922   5.517   4.021   4.470
 3306TIP3   OH2 9923   4.566   3.223   0.780
 3306TIP3    H1 9924   4.641   3.200   0.836
 3306TIP3    H2 9925   4.493   3.234   0.842
 3307TIP3   OH2 9926   5.513   4.485   3.116
 3307TIP3    H1 9927   5.513   4.564   3.061
 3307TIP3    H2 9928   5.468   4.512   3.196
 3308TIP3   OH2 9929   2.060   1.771   4.706
 3308TIP3    H1 9930   1.978   1.809   4.739
 3308TIP3    H2 9931   2.033   1.686   4.670
 3309TIP3   OH2 9932   0.534   3.629   1.502
 3309TIP3    H1 9933   0.492   3.712   1.481
 3309TIP3    H2 9934   0.568   3.598   1.418
 3310TIP3   OH2 9935   2.095   4.961   0.076
 3310TIP3    H1 9936   2.174   4.935   0.125
 3310TIP3    H2 9937   2.024   4.952   0.140
 3311TIP3   OH2 9938   1.052   0.531   0.022
 3311TIP3    H1 9939   1.146   0.551   0.025
 3311TIP3    H2 9940   1.020   0.554   0.110
 3312TIP3   OH2 9941   5.939   2.248   2.031
 3312TIP3    H1 9942   5.866   2.188   2.042
 3312TIP3    H2 9943   5.995   2.233   2.107
 3313TIP3   OH2 9944   3.222   1.857   2.732
 3313TIP3    H1 9945   3.263   1.771   2.744
 3313TIP3    H2 9946   3.129   1.841   2.748
 3314TIP3   OH2 9947   5.457   4.406   0.055
 3314TIP3    H1 9948   5.373   4.393   0.100
 3314TIP3    H2 9949   5.435   4.399  -0.038
 3315TIP3   OH2 9950   4.581   2.444   4.957
 3315TIP3    H1 9951   4.486   2.432   4.945
 3315TIP3    H2 9952   4.600   2.403   5.041
 3316TIP3   OH2 9953   1.498   1.333   5.157
 3316TIP3    H1 9954   1.450   1.284   5.224
 3316TIP3    H2 9955   1.437   1.404   5.132
 3317TIP3   OH2 9956   1.499   4.737   2.563
 3317TIP3    H1 9957   1.410   4.771   2.562
 3317TIP3    H2 9958   1.555   4.814   2.573
 3318TIP3   OH2 9959   2.610   2.019   3.885
 3318TIP3    H1 9960   2.587   2.036   3.976
 3318TIP3    H2 9961   2.628   1.925   3.882
 3319TIP3   OH2 9962   2.100   4.661   2.866
 3319TIP3    H1 9963   2.191   4.647   2.842
 3319TIP3    H2 9964   2.051   4.604   2.807
 3320TIP3   OH2 9965   6.231   3.568   3.356
 3320TIP3    H1 9966   6.221   3.504   3.426
 3320TIP3    H2 9967   6.178   3.533   3.284
 3321TIP3   OH2 9968   5.450   4.188   2.518
 3321TIP3    H1 9969   5.419   4.104   2.552
 3321TIP3    H2 9970   5.521   4.213   2.577
 3322TIP3   OH2 9971   2.070   5.272   2.886
 3322TIP3    H1 9972   2.009   5.208   2.849
 3322TIP3    H2 9973   2.141   5.278   2.822
 3323TIP3   OH2 9974   1.357   3.430   3.355
 3323TIP3    H1 9975   1.327   3.439   3.265
 3323TIP3    H2 9976   1.453   3.422   3.348
 3324TIP3   OH2 9977   2.018   5.234   4.338
 3324TIP3    H1 9978   1.987   5.254   4.427
 3324TIP3    H2 9979   2.113   5.245   4.343
 3325TIP3   OH2 9980   2.850   3.654   3.835
 3325TIP3    H1 9981   2.921   3.595   3.810
 3325TIP3    H2 9982   2.776   3.597   3.853
 3326TIP3   OH2 9983   1.123   5.485   0.660
 3326TIP3    H1 9984   1.060   5.518   0.595
 3326TIP3    H2 9985   1.122   5.390   0.647
 3327TIP3   OH2 9986   1.771   3.414   0.204
 3327TIP3    H1 9987   1.712   3.424   0.129
 3327TIP3    H2 9988   1.734   3.341   0.254
 3328TIP3   OH2 9989   6.340   3.938   2.575
 3328TIP3    H1 9990   6.337   3.859   2.629
 3328TIP3    H2 9991   6.317   4.009   2.634
 3329TIP3   OH2 9992   3.932   3.762   3.658
 3329TIP3    H1 9993   4.003   3.700   3.644
 3329TIP3    H2 9994   3.967   3.823   3.724
 3330TIP3   OH2 9995   3.785   3.118   1.542
 3330TIP3    H1 9996   3.723   3.185   1.572
 3330TIP3    H2 9997   3.781   3.050   1.609
 3331TIP3   OH2 9998   1.397   2.817   2.848
 3331TIP3    H1 9999   1.389   2.745   2.911
 3331TIP3    H210000   1.307   2.836   2.822
 3332TIP3   OH210001   5.467   3.363   4.835
 3332TIP3    H110002   5.374   3.381   4.822
 3332TIP3    H210003   5.506   3.450   4.845
 3333TIP3   OH210004   1.698   3.939   2.786
 3333TIP3    H110005   1.661   4.026   2.793
 3333TIP3    H210006   1.789   3.948   2.815
 3334TIP3   OH210007   1.873   3.523   1.606
 3334TIP3    H110008   1.826   3.604   1.625
 3334TIP3    H210009   1.947   3.523   1.665
 3335TIP3   OH210010   4.221   2.227   2.485
 3335TIP3    H110011   4.193   2.146   2.528
 3335TIP3    H210012   4.141   2.261   2.443
 3336TIP3   OH210013   1.295   4.701   4.036
 3336TIP3    H110014   1.279   4.648   3.958
 3336TIP3    H210015   1.300   4.791   4.003
 3337TIP3   OH210016   4.115   1.650   4.935
 3337TIP3    H110017   4.173   1.726   4.940
 3337TIP3    H210018   4.027   1.686   4.929
 3338TIP3   OH210019   2.378   3.367   2.360
 3338TIP3    H110020   2.342   3.313   2.290
 3338TIP3    H210021   2.471   3.371   2.342
 3339TIP3   OH210022  -0.011   0.952   2.638
 3339TIP3    H110023   0.080   0.932   2.616
 3339TIP3    H210024  -0.009   1.042   2.671
 3340TIP3   OH210025   0.353   5.739   0.214
 3340TIP3    H110026   0.357   5.835   0.215
 3340TIP3    H210027   0.290   5.719   0.145
 3341TIP3   OH210028   1.815   5.052   0.176
 3341TIP3    H110029   1.778   4.967   0.200
 3341TIP3    H210030   1.756   5.116   0.216
 3342TIP3   OH210031   5.890   2.798   4.105
 3342TIP3    H110032   5.947   2.782   4.180
 3342TIP3    H210033   5.880   2.712   4.064
 3343TIP3   OH210034   2.735   1.050   0.457
 3343TIP3    H110035   2.710   1.000   0.534
 3343TIP3    H210036   2.725   1.142   0.484
 3344TIP3   OH210037   5.020   2.767   2.410
 3344TIP3    H110038   5.057   2.785   2.323
 3344TIP3    H210039   4.930   2.798   2.405
 3345TIP3   OH210040   0.533   5.150   2.507
 3345TIP3    H110041   0.492   5.090   2.569
 3345TIP3    H210042   0.459   5.186   2.457
 3346TIP3   OH210043   5.141   5.672   1.477
 3346TIP3    H110044   5.110   5.634   1.559
 3346TIP3    H210045   5.146   5.598   1.416
 3347TIP3   OH210046   0.827   0.083   3.037
 3347TIP3    H110047   0.855  -0.008   3.027
 3347TIP3    H210048   0.862   0.110   3.122
 3348TIP3   OH210049   3.838   4.925   2.274
 3348TIP3    H110050   3.804   5.013   2.289
 3348TIP3    H210051   3.776   4.868   2.320
 3349TIP3   OH210052   6.043   0.243   1.011
 3349TIP3    H110053   5.952   0.214   1.019
 3349TIP3    H210054   6.055   0.304   1.084
 3350TIP3   OH210055   2.931   5.374   1.689
 3350TIP3    H110056   2.943   5.287   1.652
 3350TIP3    H210057   2.874   5.419   1.628
 3351TIP3   OH210058   1.581   3.236   0.305
 3351TIP3    H110059   1.547   3.176   0.370
 3351TIP3    H210060   1.556   3.198   0.221
 3352TIP3   OH210061   2.934   2.838   4.152
 3352TIP3    H110062   2.863   2.816   4.212
 3352TIP3    H210063   2.972   2.754   4.128
 3353TIP3   OH210064   0.650   3.588   2.172
 3353TIP3    H110065   0.642   3.541   2.089
 3353TIP3    H210066   0.604   3.534   2.235
 3354TIP3   OH210067   1.015   2.359   2.655
 3354TIP3    H110068   1.093   2.350   2.710
 3354TIP3    H210069   0.960   2.283   2.679
 3355TIP3   OH210070   1.435   4.670   2.235
 3355TIP3    H110071   1.508   4.729   2.254
 3355TIP3    H210072   1.455   4.592   2.288
 3356TIP3   OH210073   3.490   5.329   3.561
 3356TIP3    H110074   3.472   5.303   3.470
 3356TIP3    H210075   3.553   5.400   3.553
 3357TIP3   OH210076   4.661   4.205   3.909
 3357TIP3    H110077   4.707   4.283   3.878
 3357TIP3    H210078   4.650   4.151   3.830
 3358TIP3   OH210079   2.027   4.849   3.289
 3358TIP3    H110080   2.038   4.855   3.384
 3358TIP3    H210081   2.074   4.924   3.254
 3359TIP3   OH210082   5.014   5.705   2.107
 3359TIP3    H110083   4.963   5.765   2.053
 3359TIP3    H210084   4.986   5.725   2.197
 3360TIP3   OH210085   1.750   1.957   3.805
 3360TIP3    H110086   1.762   1.973   3.899
 3360TIP3    H210087   1.701   2.033   3.774
 3361TIP3   OH210088   5.608   0.351   3.596
 3361TIP3    H110089   5.608   0.344   3.692
 3361TIP3    H210090   5.695   0.383   3.574
 3362TIP3   OH210091   4.867   1.887   1.952
 3362TIP3    H110092   4.853   1.801   1.912
 3362TIP3    H210093   4.959   1.906   1.935
 3363TIP3   OH210094   2.468   2.903   3.578
 3363TIP3    H110095   2.431   2.857   3.653
 3363TIP3    H210096   2.393   2.943   3.535
 3364TIP3   OH210097   1.058   2.970   1.855
 3364TIP3    H110098   0.964   2.990   1.848
 3364TIP3    H210099   1.068   2.932   1.942
 3365TIP3   OH210100   4.589   2.862   2.982
 3365TIP3    H110101   4.663   2.852   2.922
 3365TIP3    H210102   4.517   2.815   2.940
 3366TIP3   OH210103   5.749   3.851   2.903
 3366TIP3    H110104   5.721   3.760   2.910
 3366TIP3    H210105   5.784   3.859   2.814
 3367TIP3   OH210106   4.267   1.016   1.890
 3367TIP3    H110107   4.224   0.976   1.965
 3367TIP3    H210108   4.279   0.944   1.828
 3368TIP3   OH210109   0.170   0.206   4.587
 3368TIP3    H110110   0.136   0.191   4.499
 3368TIP3    H210111   0.251   0.156   4.590
 3369TIP3   OH210112   0.352   1.338   4.696
 3369TIP3    H110113   0.302   1.275   4.644
 3369TIP3    H210114   0.419   1.371   4.636
 3370TIP3   OH210115  -0.047   1.767   3.021
 3370TIP3    H110116   0.009   1.836   2.986
 3370TIP3    H210117   0.011   1.712   3.073
 3371TIP3   OH210118   1.806   5.434   0.143
 3371TIP3    H110119   1.900   5.430   0.125
 3371TIP3    H210120   1.776   5.512   0.096
 3372TIP3   OH210121   5.819   5.041   0.800
 3372TIP3    H110122   5.785   5.036   0.889
 3372TIP3    H210123   5.894   5.099   0.806
 3373TIP3   OH210124   5.830   1.422   5.113
 3373TIP3    H110125   5.815   1.421   5.018
 3373TIP3    H210126   5.880   1.503   5.128
 3374TIP3   OH210127   5.293   4.850   0.065
 3374TIP3    H110128   5.388   4.841   0.065
 3374TIP3    H210129   5.278   4.942   0.044
 3375TIP3   OH210130   5.921   3.404   1.052
 3375TIP3    H110131   5.921   3.413   1.147
 3375TIP3    H210132   5.839   3.358   1.032
 3376TIP3   OH210133   0.397   1.825   3.577
 3376TIP3    H110134   0.364   1.819   3.487
 3376TIP3    H210135   0.365   1.746   3.619
 3377TIP3   OH210136   4.657   3.081   1.462
 3377TIP3    H110137   4.605   3.068   1.542
 3377TIP3    H210138   4.621   3.018   1.400
 3378TIP3   OH210139   1.610   4.181   4.123
 3378TIP3    H110140   1.594   4.101   4.072
 3378TIP3    H210141   1.656   4.150   4.201
 3379TIP3   OH210142   5.095   0.455   4.407
 3379TIP3    H110143   5.100   0.372   4.455
 3379TIP3    H210144   5.181   0.495   4.421
 3380TIP3   OH210145   3.023   4.587   0.472
 3380TIP3    H110146   2.967   4.534   0.529
 3380TIP3    H210147   3.089   4.623   0.531
 3381TIP3   OH210148   4.532   4.130   1.141
 3381TIP3    H110149   4.486   4.113   1.223
 3381TIP3    H210150   4.541   4.044   1.100
 3382TIP3   OH210151   1.656   0.629   0.989
 3382TIP3    H110152   1.562   0.617   0.972
 3382TIP3    H210153   1.684   0.546   1.028
 3383TIP3   OH210154   3.257   4.496   1.041
 3383TIP3    H110155   3.185   4.559   1.034
 3383TIP3    H210156   3.273   4.467   0.951
 3384TIP3   OH210157   2.366   0.344   1.829
 3384TIP3    H110158   2.353   0.344   1.734
 3384TIP3    H210159   2.414   0.263   1.847
 3385TIP3   OH210160   5.528   4.671   0.107
 3385TIP3    H110161   5.477   4.596   0.136
 3385TIP3    H210162   5.576   4.640   0.030
 3386TIP3   OH210163   4.843   1.749   1.310
 3386TIP3    H110164   4.781   1.777   1.243
 3386TIP3    H210165   4.827   1.809   1.384
 3387TIP3   OH210166   1.454   1.606   1.731
 3387TIP3    H110167   1.505   1.686   1.745
 3387TIP3    H210168   1.377   1.617   1.786
 3388TIP3   OH210169   6.007   3.017   0.510
 3388TIP3    H110170   5.919   3.048   0.489
 3388TIP3    H210171   6.033   2.965   0.434
 3389TIP3   OH210172   0.827   4.845   5.057
 3389TIP3    H110173   0.742   4.831   5.100
 3389TIP3    H210174   0.827   4.785   4.983
 3390TIP3   OH210175   3.222   0.837   4.353
 3390TIP3    H110176   3.198   0.781   4.427
 3390TIP3    H210177   3.210   0.782   4.276
 3391TIP3   OH210178   4.217   4.028   2.209
 3391TIP3    H110179   4.192   3.945   2.249
 3391TIP3    H210180   4.282   4.005   2.143
 3392TIP3   OH210181   2.794   1.648   4.305
 3392TIP3    H110182   2.855   1.666   4.377
 3392TIP3    H210183   2.818   1.560   4.275
 3393TIP3   OH210184   0.230   2.820   1.072
 3393TIP3    H110185   0.171   2.757   1.113
 3393TIP3    H210186   0.183   2.851   0.994
 3394TIP3   OH210187   3.629   2.458   1.290
 3394TIP3    H110188   3.591   2.439   1.376
 3394TIP3    H210189   3.574   2.529   1.255
 3395TIP3   OH210190   3.342   0.316   0.992
 3395TIP3    H110191   3.429   0.291   0.961
 3395TIP3    H210192   3.357   0.396   1.043
 3396TIP3   OH210193   3.734   0.426   3.467
 3396TIP3    H110194   3.661   0.372   3.498
 3396TIP3    H210195   3.796   0.426   3.540
 3397TIP3   OH210196   4.169   0.266   2.203
 3397TIP3    H110197   4.157   0.171   2.196
 3397TIP3    H210198   4.263   0.278   2.214
 3398TIP3   OH210199   3.062   1.313   5.002
 3398TIP3    H110200   3.142   1.363   4.990
 3398TIP3    H210201   3.083   1.226   4.969
 3399TIP3   OH210202   5.692   4.661   0.695
 3399TIP3    H110203   5.610   4.619   0.722
 3399TIP3    H210204   5.732   4.690   0.777
 3400TIP3   OH210205   0.924   2.761   2.742
 3400TIP3    H110206   0.870   2.685   2.722
 3400TIP3    H210207   0.879   2.804   2.815
 3401TIP3   OH210208   2.785   5.852   4.755
 3401TIP3    H110209   2.733   5.780   4.790
 3401TIP3    H210210   2.872   5.815   4.743
 3402TIP3   OH210211   5.062   4.710   2.427
 3402TIP3    H110212   4.988   4.650   2.416
 3402TIP3    H210213   5.032   4.793   2.390
 3403TIP3   OH210214   4.077   3.912   1.935
 3403TIP3    H110215   4.140   3.958   1.880
 3403TIP3    H210216   4.002   3.971   1.942
 3404TIP3   OH210217   4.467   0.648   1.134
 3404TIP3    H110218   4.434   0.580   1.193
 3404TIP3    H210219   4.392   0.707   1.121
 3405TIP3   OH210220   4.421   1.685   2.822
 3405TIP3    H110221   4.384   1.699   2.735
 3405TIP3    H210222   4.494   1.623   2.808
 3406TIP3   OH210223   2.771   2.793   1.704
 3406TIP3    H110224   2.844   2.748   1.747
 3406TIP3    H210225   2.806   2.822   1.621
 3407TIP3   OH210226   1.595   4.349   1.109
 3407TIP3    H110227   1.572   4.266   1.150
 3407TIP3    H210228   1.674   4.378   1.155
 3408TIP3   OH210229   1.262   2.175   0.984
 3408TIP3    H110230   1.247   2.212   1.071
 3408TIP3    H210231   1.333   2.111   0.997
 3409TIP3   OH210232   1.943   3.091   4.208
 3409TIP3    H110233   1.996   3.017   4.238
 3409TIP3    H210234   1.878   3.052   4.150
 3410TIP3   OH210235   5.383   1.334   1.525
 3410TIP3    H110236   5.445   1.376   1.584
 3410TIP3    H210237   5.315   1.298   1.582
 3411TIP3   OH210238   4.850   5.271   3.100
 3411TIP3    H110239   4.851   5.255   3.005
 3411TIP3    H210240   4.842   5.366   3.108
 3412TIP3   OH210241   1.102   2.106   1.816
 3412TIP3    H110242   1.054   2.051   1.754
 3412TIP3    H210243   1.054   2.189   1.816
 3413TIP3   OH210244   4.438   1.209   1.745
 3413TIP3    H110245   4.442   1.223   1.650
 3413TIP3    H210246   4.493   1.132   1.760
 3414TIP3   OH210247   3.318   2.674   0.609
 3414TIP3    H110248   3.400   2.724   0.608
 3414TIP3    H210249   3.256   2.730   0.563
 3415TIP3   OH210250   6.184   2.189   1.233
 3415TIP3    H110251   6.180   2.100   1.267
 3415TIP3    H210252   6.105   2.198   1.179
 3416TIP3   OH210253   6.260   1.709   1.408
 3416TIP3    H110254   6.315   1.703   1.486
 3416TIP3    H210255   6.315   1.755   1.344
 3417TIP3   OH210256   3.524   0.499   0.062
 3417TIP3    H110257   3.498   0.525  -0.026
 3417TIP3    H210258   3.619   0.509   0.064
 3418TIP3   OH210259   3.404   3.092   2.568
 3418TIP3    H110260   3.495   3.119   2.579
 3418TIP3    H210261   3.404   2.999   2.590
 3419TIP3   OH210262   3.498   3.096   1.330
 3419TIP3    H110263   3.444   3.157   1.380
 3419TIP3    H210264   3.460   3.010   1.348
 3420TIP3   OH210265   1.841   3.465   2.310
 3420TIP3    H110266   1.815   3.460   2.402
 3420TIP3    H210267   1.758   3.475   2.262
 3421TIP3   OH210268   5.009   5.211   4.612
 3421TIP3    H110269   5.050   5.206   4.699
 3421TIP3    H210270   5.057   5.279   4.566
 3422TIP3   OH210271   2.195   1.602   3.919
 3422TIP3    H110272   2.218   1.688   3.883
 3422TIP3    H210273   2.099   1.600   3.917
 3423TIP3   OH210274   1.759   1.023   0.068
 3423TIP3    H110275   1.689   1.037   0.132
 3423TIP3    H210276   1.735   0.941   0.025
 3424TIP3   OH210277   2.398   3.076   1.494
 3424TIP3    H110278   2.486   3.069   1.531
 3424TIP3    H210279   2.407   3.135   1.419
 3425TIP3   OH210280   1.392   3.562   2.882
 3425TIP3    H110281   1.376   3.508   2.959
 3425TIP3    H210282   1.384   3.502   2.808
 3426TIP3   OH210283   2.832   0.494   3.788
 3426TIP3    H110284   2.740   0.516   3.774
 3426TIP3    H210285   2.879   0.547   3.724
 3427TIP3   OH210286   5.404   5.692   2.673
 3427TIP3    H110287   5.464   5.619   2.689
 3427TIP3    H210288   5.461   5.767   2.658
 3428TIP3   OH210289   2.269   5.240   1.016
 3428TIP3    H110290   2.340   5.182   1.043
 3428TIP3    H210291   2.215   5.249   1.094
 3429TIP3   OH210292   4.886   3.768   3.987
 3429TIP3    H110293   4.859   3.855   4.017
 3429TIP3    H210294   4.981   3.767   4.000
 3430TIP3   OH210295   2.745   3.109   3.244
 3430TIP3    H110296   2.704   3.193   3.226
 3430TIP3    H210297   2.679   3.044   3.219
 3431TIP3   OH210298   1.408   4.114   4.544
 3431TIP3    H110299   1.370   4.030   4.518
 3431TIP3    H210300   1.501   4.096   4.556
 3432TIP3   OH210301   6.128   0.894   4.849
 3432TIP3    H110302   6.173   0.825   4.898
 3432TIP3    H210303   6.078   0.941   4.916
 3433TIP3   OH210304   2.759   4.819   3.421
 3433TIP3    H110305   2.759   4.772   3.338
 3433TIP3    H210306   2.693   4.774   3.473
 3434TIP3   OH210307   5.191   1.855   1.193
 3434TIP3    H110308   5.281   1.825   1.206
 3434TIP3    H210309   5.143   1.775   1.169
 3435TIP3   OH210310   0.293   2.820   3.289
 3435TIP3    H110311   0.360   2.769   3.242
 3435TIP3    H210312   0.329   2.909   3.291
 3436TIP3   OH210313   0.186   0.901   1.665
 3436TIP3    H110314   0.128   0.974   1.642
 3436TIP3    H210315   0.178   0.840   1.591
 3437TIP3   OH210316   4.302   3.876   0.756
 3437TIP3    H110317   4.233   3.899   0.818
 3437TIP3    H210318   4.380   3.918   0.790
 3438TIP3   OH210319   5.128   5.961   3.938
 3438TIP3    H110320   5.157   5.993   3.852
 3438TIP3    H210321   5.152   5.869   3.938
 3439TIP3   OH210322   3.346   3.576   0.821
 3439TIP3    H110323   3.283   3.505   0.831
 3439TIP3    H210324   3.328   3.612   0.734
 3440TIP3   OH210325   4.243   2.405   4.685
 3440TIP3    H110326   4.238   2.498   4.664
 3440TIP3    H210327   4.254   2.403   4.780
 3441TIP3   OH210328   5.085   1.953   2.265
 3441TIP3    H110329   5.019   1.888   2.290
 3441TIP3    H210330   5.123   1.981   2.348
 3442TIP3   OH210331   5.775   0.206   1.000
 3442TIP3    H110332   5.725   0.137   1.045
 3442TIP3    H210333   5.713   0.242   0.937
 3443TIP3   OH210334   5.392   2.005   1.936
 3443TIP3    H110335   5.453   1.948   1.889
 3443TIP3    H210336   5.403   2.091   1.896
 3444TIP3   OH210337   2.260   5.066   4.355
 3444TIP3    H110338   2.314   5.138   4.390
 3444TIP3    H210339   2.314   4.988   4.369
 3445TIP3   OH210340   5.536   3.499   3.997
 3445TIP3    H110341   5.568   3.491   4.087
 3445TIP3    H210342   5.499   3.413   3.977
 3446TIP3   OH210343   2.907   3.302   0.669
 3446TIP3    H110344   2.856   3.276   0.746
 3446TIP3    H210345   2.841   3.337   0.609
 3447TIP3   OH210346   1.313   1.625   1.508
 3447TIP3    H110347   1.304   1.531   1.490
 3447TIP3    H210348   1.360   1.629   1.591
 3448TIP3   OH210349   1.923   0.988   3.754
 3448TIP3    H110350   2.009   0.952   3.734
 3448TIP3    H210351   1.906   0.962   3.844
 3449TIP3   OH210352   6.128   3.730   0.207
 3449TIP3    H110353   6.068   3.684   0.148
 3449TIP3    H210354   6.177   3.789   0.150
 3450TIP3   OH210355   0.497   3.895   5.005
 3450TIP3    H110356   0.471   3.853   5.087
 3450TIP3    H210357   0.423   3.881   4.946
 3451TIP3   OH210358   0.169   0.703   0.992
 3451TIP3    H110359   0.248   0.723   0.942
 3451TIP3    H210360   0.108   0.774   0.969
 3452TIP3   OH210361   0.264   1.579   3.641
 3452TIP3    H110362   0.277   1.515   3.711
 3452TIP3    H210363   0.281   1.530   3.561
 3453TIP3   OH210364   0.195   5.807  -0.009
 3453TIP3    H110365   0.126   5.800   0.057
 3453TIP3    H210366   0.169   5.880  -0.065
 3454TIP3   OH210367   0.176   4.622   2.700
 3454TIP3    H110368   0.182   4.648   2.791
 3454TIP3    H210369   0.183   4.526   2.702
 3455TIP3   OH210370   2.538   0.828   4.000
 3455TIP3    H110371   2.597   0.890   4.044
 3455TIP3    H210372   2.455   0.874   3.993
 3456TIP3   OH210373   1.257   0.638   4.553
 3456TIP3    H110374   1.169   0.605   4.567
 3456TIP3    H210375   1.310   0.592   4.619
 3457TIP3   OH210376   4.218   5.858   1.474
 3457TIP3    H110377   4.235   5.875   1.567
 3457TIP3    H210378   4.126   5.878   1.462
 3458TIP3   OH210379   4.039   0.207   0.288
 3458TIP3    H110380   4.072   0.289   0.252
 3458TIP3    H210381   4.112   0.147   0.282
 3459TIP3   OH210382   4.022   3.758   4.874
 3459TIP3    H110383   4.060   3.693   4.815
 3459TIP3    H210384   3.979   3.821   4.815
 3460TIP3   OH210385   2.666   4.760   3.976
 3460TIP3    H110386   2.623   4.762   3.890
 3460TIP3    H210387   2.707   4.846   3.984
 3461TIP3   OH210388   0.009   1.435   3.636
 3461TIP3    H110389   0.099   1.466   3.645
 3461TIP3    H210390   0.017   1.339   3.633
 3462TIP3   OH210391   4.780   4.913   3.156
 3462TIP3    H110392   4.705   4.959   3.194
 3462TIP3    H210393   4.790   4.953   3.069
 3463TIP3   OH210394   5.874   5.367   4.007
 3463TIP3    H110395   5.873   5.344   4.100
 3463TIP3    H210396   5.946   5.429   3.999
 3464TIP3   OH210397   0.225   1.059   0.772
 3464TIP3    H110398   0.145   1.021   0.809
 3464TIP3    H210399   0.273   1.090   0.849
 3465TIP3   OH210400   4.754   5.360   5.073
 3465TIP3    H110401   4.685   5.426   5.082
 3465TIP3    H210402   4.733   5.295   5.139
 3466TIP3   OH210403   5.923   5.494   1.870
 3466TIP3    H110404   5.962   5.445   1.943
 3466TIP3    H210405   5.965   5.580   1.874
 3467TIP3   OH210406   6.167   0.135   0.772
 3467TIP3    H110407   6.127   0.174   0.851
 3467TIP3    H210408   6.107   0.064   0.748
 3468TIP3   OH210409   5.564   0.026   4.515
 3468TIP3    H110410   5.484   0.007   4.466
 3468TIP3    H210411   5.549  -0.011   4.601
 3469TIP3   OH210412   5.740   5.656   4.278
 3469TIP3    H110413   5.725   5.601   4.201
 3469TIP3    H210414   5.711   5.744   4.251
 3470TIP3   OH210415   2.157   3.559   2.427
 3470TIP3    H110416   2.237   3.507   2.415
 3470TIP3    H210417   2.088   3.494   2.439
 3471TIP3   OH210418   4.257   2.701   2.472
 3471TIP3    H110419   4.242   2.620   2.519
 3471TIP3    H210420   4.176   2.716   2.423
 3472TIP3   OH210421   3.875   2.967   3.936
 3472TIP3    H110422   3.906   2.964   3.846
 3472TIP3    H210423   3.948   2.933   3.988
 3473TIP3   OH210424   6.162   3.433   3.587
 3473TIP3    H110425   6.096   3.364   3.594
 3473TIP3    H210426   6.141   3.492   3.660
 3474TIP3   OH210427   2.926   0.415   4.642
 3474TIP3    H110428   2.867   0.390   4.572
 3474TIP3    H210429   2.924   0.511   4.643
 3475TIP3   OH210430   5.776   0.499   0.726
 3475TIP3    H110431   5.813   0.512   0.639
 3475TIP3    H210432   5.764   0.587   0.761
 3476TIP3   OH210433   3.517   1.315   2.981
 3476TIP3    H110434   3.479   1.247   2.926
 3476TIP3    H210435   3.518   1.393   2.926
 3477TIP3   OH210436   4.847   5.003   4.765
 3477TIP3    H110437   4.756   5.005   4.736
 3477TIP3    H210438   4.897   4.990   4.684
 3478TIP3   OH210439   1.577   5.695   3.485
 3478TIP3    H110440   1.513   5.765   3.500
 3478TIP3    H210441   1.558   5.631   3.553
 3479TIP3   OH210442   2.653   2.318   4.553
 3479TIP3    H110443   2.612   2.403   4.534
 3479TIP3    H210444   2.603   2.283   4.626
 3480TIP3   OH210445   1.154   0.118   0.564
 3480TIP3    H110446   1.198   0.052   0.618
 3480TIP3    H210447   1.215   0.192   0.564
 3481TIP3   OH210448   3.221   5.486   2.674
 3481TIP3    H110449   3.271   5.489   2.756
 3481TIP3    H210450   3.137   5.526   2.696
 3482TIP3   OH210451   1.392   5.523   0.685
 3482TIP3    H110452   1.299   5.504   0.692
 3482TIP3    H210453   1.396   5.609   0.643
 3483TIP3   OH210454   4.540   4.725   2.635
 3483TIP3    H110455   4.577   4.643   2.602
 3483TIP3    H210456   4.516   4.706   2.726
 3484TIP3   OH210457   4.325   0.976   2.869
 3484TIP3    H110458   4.255   0.947   2.810
 3484TIP3    H210459   4.302   1.066   2.890
 3485TIP3   OH210460   0.485   2.822   0.080
 3485TIP3    H110461   0.501   2.850   0.170
 3485TIP3    H210462   0.514   2.731   0.078
 3486TIP3   OH210463   2.301   4.688   5.080
 3486TIP3    H110464   2.261   4.608   5.047
 3486TIP3    H210465   2.341   4.728   5.003
 3487TIP3   OH210466   0.615   5.664   3.034
 3487TIP3    H110467   0.536   5.716   3.048
 3487TIP3    H210468   0.673   5.721   2.983
 3488TIP3   OH210469   2.124   1.196   4.297
 3488TIP3    H110470   2.116   1.277   4.245
 3488TIP3    H210471   2.038   1.155   4.290
 3489TIP3   OH210472   1.828   3.296   3.029
 3489TIP3    H110473   1.874   3.258   2.954
 3489TIP3    H210474   1.735   3.281   3.011
 3490TIP3   OH210475   1.329   3.187   4.927
 3490TIP3    H110476   1.424   3.176   4.935
 3490TIP3    H210477   1.319   3.257   4.862
 3491TIP3   OH210478   5.740   3.922   2.633
 3491TIP3    H110479   5.649   3.903   2.657
 3491TIP3    H210480   5.736   3.949   2.542
 3492TIP3   OH210481   3.364   0.077   1.875
 3492TIP3    H110482   3.355   0.044   1.786
 3492TIP3    H210483   3.361   0.173   1.865
 3493TIP3   OH210484   4.252   5.054   4.347
 3493TIP3    H110485   4.186   4.995   4.312
 3493TIP3    H210486   4.244   5.047   4.442
 3494TIP3   OH210487   3.586   2.539   0.650
 3494TIP3    H110488   3.629   2.606   0.597
 3494TIP3    H210489   3.496   2.535   0.618
 3495TIP3   OH210490   5.442   0.188   1.744
 3495TIP3    H110491   5.380   0.254   1.712
 3495TIP3    H210492   5.390   0.134   1.804
 3496TIP3   OH210493   0.607   1.251   0.205
 3496TIP3    H110494   0.645   1.170   0.172
 3496TIP3    H210495   0.665   1.276   0.277
 3497TIP3   OH210496   5.602   2.016   0.974
 3497TIP3    H110497   5.575   2.062   1.054
 3497TIP3    H210498   5.536   2.041   0.909
 3498TIP3   OH210499   0.678   1.127   3.511
 3498TIP3    H110500   0.748   1.077   3.470
 3498TIP3    H210501   0.716   1.214   3.527
 3499TIP3   OH210502   3.102   4.164   1.760
 3499TIP3    H110503   3.053   4.113   1.695
 3499TIP3    H210504   3.151   4.228   1.708
 3500TIP3   OH210505   4.215   3.471   2.187
 3500TIP3    H110506   4.214   3.564   2.166
 3500TIP3    H210507   4.283   3.434   2.131
 3501TIP3   OH210508   5.226   3.514   2.024
 3501TIP3    H110509   5.139   3.546   1.997
 3501TIP3    H210510   5.211   3.470   2.107
 3502TIP3   OH210511   5.791   5.059   2.642
 3502TIP3    H110512   5.795   4.969   2.672
 3502TIP3    H210513   5.870   5.071   2.589
 3503TIP3   OH210514   5.266   0.458   1.087
 3503TIP3    H110515   5.308   0.372   1.097
 3503TIP3    H210516   5.335   0.513   1.050
 3504TIP3   OH210517   1.758   4.969   0.983
 3504TIP3    H110518   1.668   4.998   0.998
 3504TIP3    H210519   1.795   5.037   0.926
 3505TIP3   OH210520   1.831   1.920   4.717
 3505TIP3    H110521   1.805   1.971   4.641
 3505TIP3    H210522   1.891   1.977   4.765
 3506TIP3   OH210523   1.484   5.632   2.966
 3506TIP3    H110524   1.515   5.619   3.056
 3506TIP3    H210525   1.521   5.559   2.917
 3507TIP3   OH210526   1.229   4.277   0.459
 3507TIP3    H110527   1.303   4.244   0.510
 3507TIP3    H210528   1.153   4.231   0.495
 3508TIP3   OH210529   1.789   3.613   4.290
 3508TIP3    H110530   1.784   3.519   4.309
 3508TIP3    H210531   1.699   3.643   4.295
 3509TIP3   OH210532   4.243   3.939   3.740
 3509TIP3    H110533   4.259   3.914   3.831
 3509TIP3    H210534   4.312   3.894   3.691
 3510TIP3   OH210535   0.773   1.803   2.214
 3510TIP3    H110536   0.743   1.832   2.127
 3510TIP3    H210537   0.852   1.854   2.230
 3511TIP3   OH210538  -0.012   1.153   4.783
 3511TIP3    H110539  -0.046   1.065   4.799
 3511TIP3    H210540   0.081   1.146   4.801
 3512TIP3   OH210541   0.305   5.236   4.729
 3512TIP3    H110542   0.335   5.324   4.754
 3512TIP3    H210543   0.213   5.234   4.754
 3513TIP3   OH210544   1.332   5.671   2.602
 3513TIP3    H110545   1.405   5.610   2.613
 3513TIP3    H210546   1.353   5.719   2.522
 3514TIP3   OH210547   2.373   0.423   4.549
 3514TIP3    H110548   2.344   0.353   4.608
 3514TIP3    H210549   2.318   0.498   4.573
 3515TIP3   OH210550   3.703   1.941   3.676
 3515TIP3    H110551   3.787   1.974   3.711
 3515TIP3    H210552   3.637   1.984   3.730
 3516TIP3   OH210553   3.368   3.472   3.833
 3516TIP3    H110554   3.331   3.535   3.772
 3516TIP3    H210555   3.305   3.467   3.905
 3517TIP3   OH210556   2.836   3.972   2.483
 3517TIP3    H110557   2.841   3.918   2.405
 3517TIP3    H210558   2.912   3.946   2.535
 3518TIP3   OH210559   0.730   5.243   0.240
 3518TIP3    H110560   0.815   5.279   0.214
 3518TIP3    H210561   0.746   5.149   0.250
 3519TIP3   OH210562   0.605   5.071   3.129
 3519TIP3    H110563   0.668   5.005   3.101
 3519TIP3    H210564   0.549   5.085   3.052
 3520TIP3   OH210565   2.815   4.060   4.119
 3520TIP3    H110566   2.887   4.005   4.148
 3520TIP3    H210567   2.767   4.005   4.057
 3521TIP3   OH210568   3.335   1.138   0.062
 3521TIP3    H110569   3.360   1.113  -0.027
 3521TIP3    H210570   3.294   1.224   0.052
 3522TIP3   OH210571   1.114   5.228   3.523
 3522TIP3    H110572   1.026   5.254   3.549
 3522TIP3    H210573   1.165   5.309   3.523
 3523TIP3   OH210574   1.422   0.562   3.492
 3523TIP3    H110575   1.382   0.649   3.498
 3523TIP3    H210576   1.508   0.577   3.452
 3524TIP3   OH210577   2.261   3.504   4.585
 3524TIP3    H110578   2.221   3.516   4.499
 3524TIP3    H210579   2.187   3.506   4.646
 3525TIP3   OH210580   2.346   3.315   1.730
 3525TIP3    H110581   2.268   3.273   1.693
 3525TIP3    H210582   2.327   3.323   1.823
 3526TIP3   OH210583   1.407   0.027   3.090
 3526TIP3    H110584   1.493  -0.013   3.096
 3526TIP3    H210585   1.419   0.102   3.032
 3527TIP3   OH210586   6.296   5.510   2.542
 3527TIP3    H110587   6.238   5.514   2.466
 3527TIP3    H210588   6.376   5.554   2.514
 3528TIP3   OH210589   4.805   0.639   1.355
 3528TIP3    H110590   4.731   0.581   1.374
 3528TIP3    H210591   4.883   0.586   1.371
 3529TIP3   OH210592   3.392   0.970   0.276
 3529TIP3    H110593   3.385   1.018   0.194
 3529TIP3    H210594   3.382   0.878   0.251
 3530TIP3   OH210595   5.586   5.649   0.508
 3530TIP3    H110596   5.652   5.586   0.480
 3530TIP3    H210597   5.528   5.598   0.565
 3531TIP3   OH210598   5.094   5.862   4.372
 3531TIP3    H110599   5.145   5.815   4.306
 3531TIP3    H210600   5.041   5.924   4.322
 3532TIP3   OH210601   4.386   5.721   0.378
 3532TIP3    H110602   4.294   5.740   0.392
 3532TIP3    H210603   4.413   5.669   0.454
 3533TIP3   OH210604   2.164   1.714   2.512
 3533TIP3    H110605   2.174   1.784   2.577
 3533TIP3    H210606   2.088   1.740   2.460
 3534TIP3   OH210607   4.938   5.146   3.511
 3534TIP3    H110608   5.018   5.105   3.545
 3534TIP3    H210609   4.914   5.093   3.435
 3535TIP3   OH210610   4.674   1.856   0.928
 3535TIP3    H110611   4.608   1.837   0.862
 3535TIP3    H210612   4.717   1.936   0.897
 3536TIP3   OH210613   5.979   4.345   1.076
 3536TIP3    H110614   6.056   4.399   1.094
 3536TIP3    H210615   6.007   4.287   1.005
 3537TIP3   OH210616   3.380   4.530   4.255
 3537TIP3    H110617   3.463   4.513   4.299
 3537TIP3    H210618   3.320   4.554   4.325
 3538TIP3   OH210619   6.319   5.905   3.580
 3538TIP3    H110620   6.233   5.895   3.540
 3538TIP3    H210621   6.308   5.875   3.670
 3539TIP3   OH210622   1.250   2.410   1.666
 3539TIP3    H110623   1.309   2.447   1.731
 3539TIP3    H210624   1.287   2.323   1.647
 3540TIP3   OH210625   1.019   5.063   1.963
 3540TIP3    H110626   0.928   5.059   1.994
 3540TIP3    H210627   1.017   5.127   1.892
 3541TIP3   OH210628   2.392   4.867   4.896
 3541TIP3    H110629   2.478   4.839   4.865
 3541TIP3    H210630   2.362   4.929   4.829
 3542TIP3   OH210631   1.854   1.546   3.723
 3542TIP3    H110632   1.765   1.539   3.759
 3542TIP3    H210633   1.890   1.457   3.731
 3543TIP3   OH210634   4.673   5.484   2.652
 3543TIP3    H110635   4.578   5.486   2.652
 3543TIP3    H210636   4.697   5.488   2.559
 3544TIP3   OH210637   4.073   2.742   0.623
 3544TIP3    H110638   4.135   2.727   0.551
 3544TIP3    H210639   4.013   2.668   0.619
 3545TIP3   OH210640   3.994   0.560   2.777
 3545TIP3    H110641   4.024   0.509   2.702
 3545TIP3    H210642   3.914   0.515   2.806
 3546TIP3   OH210643   5.205   0.850   4.471
 3546TIP3    H110644   5.252   0.779   4.515
 3546TIP3    H210645   5.246   0.930   4.503
 3547TIP3   OH210646   1.326   3.041   4.205
 3547TIP3    H110647   1.244   2.991   4.201
 3547TIP3    H210648   1.370   3.009   4.283
 3548TIP3   OH210649   1.148   5.554   0.964
 3548TIP3    H110650   1.120   5.511   0.884
 3548TIP3    H210651   1.134   5.647   0.947
 3549TIP3   OH210652   5.761   0.627   3.685
 3549TIP3    H110653   5.845   0.623   3.640
 3549TIP3    H210654   5.703   0.673   3.624
 3550TIP3   OH210655   5.781   5.777   1.416
 3550TIP3    H110656   5.715   5.811   1.476
 3550TIP3    H210657   5.771   5.682   1.421
 3551TIP3   OH210658   4.625   2.480   4.062
 3551TIP3    H110659   4.588   2.476   4.150
 3551TIP3    H210660   4.578   2.412   4.013
 3552TIP3   OH210661   2.753   0.246   0.811
 3552TIP3    H110662   2.711   0.239   0.896
 3552TIP3    H210663   2.686   0.220   0.748
 3553TIP3   OH210664   2.766   0.249   3.895
 3553TIP3    H110665   2.751   0.326   3.841
 3553TIP3    H210666   2.737   0.274   3.982
 3554TIP3   OH210667   6.053   4.837   0.455
 3554TIP3    H110668   5.970   4.841   0.503
 3554TIP3    H210669   6.096   4.920   0.477
 3555TIP3   OH210670   3.368   3.368   1.219
 3555TIP3    H110671   3.299   3.427   1.188
 3555TIP3    H210672   3.329   3.281   1.214
 3556TIP3   OH210673   5.519   2.319   3.276
 3556TIP3    H110674   5.534   2.368   3.195
 3556TIP3    H210675   5.590   2.254   3.278
 3557TIP3   OH210676   2.860   2.452   5.017
 3557TIP3    H110677   2.815   2.368   5.009
 3557TIP3    H210678   2.815   2.510   4.955
 3558TIP3   OH210679   5.239   4.300   0.479
 3558TIP3    H110680   5.260   4.241   0.407
 3558TIP3    H210681   5.291   4.268   0.553
 3559TIP3   OH210682   5.648   4.348   4.332
 3559TIP3    H110683   5.710   4.336   4.404
 3559TIP3    H210684   5.571   4.387   4.374
 3560TIP3   OH210685   1.313   2.857   1.024
 3560TIP3    H110686   1.358   2.843   0.941
 3560TIP3    H210687   1.370   2.918   1.072
 3561TIP3   OH210688   3.285   3.295   3.073
 3561TIP3    H110689   3.303   3.244   2.993
 3561TIP3    H210690   3.329   3.379   3.058
 3562TIP3   OH210691   6.130   1.934   3.385
 3562TIP3    H110692   6.204   1.927   3.445
 3562TIP3    H210693   6.059   1.970   3.438
 3563TIP3   OH210694   0.441   1.692   1.603
 3563TIP3    H110695   0.503   1.632   1.560
 3563TIP3    H210696   0.474   1.779   1.581
 3564TIP3   OH210697   3.085   0.900   0.440
 3564TIP3    H110698   3.082   0.867   0.529
 3564TIP3    H210699   3.140   0.978   0.444
 3565TIP3   OH210700   6.334   3.945   4.475
 3565TIP3    H110701   6.395   3.905   4.412
 3565TIP3    H210702   6.390   4.002   4.529
 3566TIP3   OH210703   4.787   4.012   1.611
 3566TIP3    H110704   4.838   4.031   1.689
 3566TIP3    H210705   4.819   3.927   1.581
 3567TIP3   OH210706   6.007   3.937   5.001
 3567TIP3    H110707   5.952   3.892   4.938
 3567TIP3    H210708   6.044   3.867   5.055
 3568TIP3   OH210709   0.069   4.596   4.555
 3568TIP3    H110710   0.041   4.509   4.582
 3568TIP3    H210711   0.072   4.592   4.459
 3569TIP3   OH210712   2.484   0.086   4.939
 3569TIP3    H110713   2.418   0.105   5.006
 3569TIP3    H210714   2.492   0.167   4.889
 3570TIP3   OH210715   4.790   0.394   1.157
 3570TIP3    H110716   4.857   0.353   1.102
 3570TIP3    H210717   4.820   0.485   1.167
 3571TIP3   OH210718   3.317   3.184   4.541
 3571TIP3    H110719   3.273   3.128   4.605
 3571TIP3    H210720   3.263   3.263   4.537
 3572TIP3   OH210721   2.972   0.942   0.921
 3572TIP3    H110722   2.922   1.022   0.911
 3572TIP3    H210723   3.024   0.956   1.001
 3573TIP3   OH210724   4.235   3.635   1.891
 3573TIP3    H110725   4.191   3.584   1.823
 3573TIP3    H210726   4.170   3.700   1.919
 3574TIP3   OH210727   0.598   3.888   3.546
 3574TIP3    H110728   0.543   3.811   3.562
 3574TIP3    H210729   0.678   3.871   3.596
 3575TIP3   OH210730   3.253   1.108   0.467
 3575TIP3    H110731   3.320   1.048   0.434
 3575TIP3    H210732   3.298   1.161   0.532
 3576TIP3   OH210733   4.274   0.414   2.902
 3576TIP3    H110734   4.180   0.406   2.889
 3576TIP3    H210735   4.302   0.326   2.931
 3577TIP3   OH210736   2.412   0.092   1.889
 3577TIP3    H110737   2.368   0.083   1.804
 3577TIP3    H210738   2.503   0.070   1.871
 3578TIP3   OH210739   0.378   3.008   2.894
 3578TIP3    H110740   0.416   3.080   2.843
 3578TIP3    H210741   0.326   3.052   2.962
 3579TIP3   OH210742   0.321   4.347   1.538
 3579TIP3    H110743   0.319   4.300   1.622
 3579TIP3    H210744   0.326   4.277   1.472
 3580TIP3   OH210745   1.073   5.779   4.744
 3580TIP3    H110746   1.127   5.735   4.809
 3580TIP3    H210747   1.090   5.732   4.662
 3581TIP3   OH210748   1.517   5.465   2.600
 3581TIP3    H110749   1.561   5.444   2.518
 3581TIP3    H210750   1.587   5.462   2.666
 3582TIP3   OH210751   5.605   4.194   0.444
 3582TIP3    H110752   5.607   4.101   0.421
 3582TIP3    H210753   5.568   4.236   0.367
 3583TIP3   OH210754   3.426   2.804   1.839
 3583TIP3    H110755   3.503   2.784   1.786
 3583TIP3    H210756   3.459   2.855   1.912
 3584TIP3   OH210757   3.702   4.136   4.839
 3584TIP3    H110758   3.691   4.168   4.750
 3584TIP3    H210759   3.618   4.153   4.882
 3585TIP3   OH210760   6.358   1.390   3.036
 3585TIP3    H110761   6.266   1.379   3.057
 3585TIP3    H210762   6.388   1.303   3.009
 3586TIP3   OH210763   1.055   5.559   1.520
 3586TIP3    H110764   1.130   5.611   1.549
 3586TIP3    H210765   1.021   5.606   1.444
 3587TIP3   OH210766   2.629   4.286   3.641
 3587TIP3    H110767   2.548   4.307   3.687
 3587TIP3    H210768   2.630   4.190   3.637
 3588TIP3   OH210769   4.359   1.461   2.429
 3588TIP3    H110770   4.417   1.516   2.376
 3588TIP3    H210771   4.284   1.516   2.447
 3589TIP3   OH210772   2.724   1.334   3.464
 3589TIP3    H110773   2.650   1.380   3.426
 3589TIP3    H210774   2.690   1.249   3.490
 3590TIP3   OH210775   3.906  -0.007   3.962
 3590TIP3    H110776   3.906   0.084   3.993
 3590TIP3    H210777   3.937  -0.001   3.871
 3591TIP3   OH210778   1.135   2.225   5.146
 3591TIP3    H110779   1.170   2.244   5.059
 3591TIP3    H210780   1.183   2.283   5.205
 3592TIP3   OH210781   4.484   5.310   0.250
 3592TIP3    H110782   4.440   5.323   0.334
 3592TIP3    H210783   4.528   5.225   0.259
 3593TIP3   OH210784   4.642   2.695   5.090
 3593TIP3    H110785   4.614   2.617   5.043
 3593TIP3    H210786   4.560   2.741   5.109
 3594TIP3   OH210787   0.330   2.835   5.053
 3594TIP3    H110788   0.385   2.835   4.974
 3594TIP3    H210789   0.314   2.928   5.071
 3595TIP3   OH210790   2.595   0.014   1.048
 3595TIP3    H110791   2.511  -0.015   1.085
 3595TIP3    H210792   2.602   0.106   1.073
 3596TIP3   OH210793   4.531   5.294   4.702
 3596TIP3    H110794   4.622   5.315   4.683
 3596TIP3    H210795   4.482   5.372   4.677
 3597TIP3   OH210796   6.155   0.436   4.458
 3597TIP3    H110797   6.179   0.346   4.441
 3597TIP3    H210798   6.081   0.430   4.519
 3598TIP3   OH210799   3.962   0.517   0.768
 3598TIP3    H110800   4.019   0.441   0.781
 3598TIP3    H210801   3.873   0.482   0.770
 3599TIP3   OH210802   5.027   0.404   3.539
 3599TIP3    H110803   4.968   0.462   3.491
 3599TIP3    H210804   4.969   0.343   3.584
 3600TIP3   OH210805   5.730   2.444   1.728
 3600TIP3    H110806   5.741   2.535   1.754
 3600TIP3    H210807   5.652   2.414   1.775
 3601TIP3   OH210808   2.687   4.164   2.626
 3601TIP3    H110809   2.743   4.089   2.606
 3601TIP3    H210810   2.711   4.231   2.562
 3602TIP3   OH210811   5.577   2.623   4.314
 3602TIP3    H110812   5.645   2.562   4.345
 3602TIP3    H210813   5.501   2.567   4.296
 3603TIP3   OH210814   0.485   0.469   0.971
 3603TIP3    H110815   0.406   0.490   0.922
 3603TIP3    H210816   0.555   0.516   0.925
 3604TIP3   OH210817   0.445   1.634   3.192
 3604TIP3    H110818   0.540   1.645   3.191
 3604TIP3    H210819   0.413   1.707   3.245
 3605TIP3   OH210820   2.198   5.074   4.082
 3605TIP3    H110821   2.212   5.068   4.177
 3605TIP3    H210822   2.162   5.162   4.069
 3606TIP3   OH210823   3.896   5.417   2.338
 3606TIP3    H110824   3.933   5.417   2.250
 3606TIP3    H210825   3.930   5.337   2.378
 3607TIP3   OH210826   3.471   4.186   2.528
 3607TIP3    H110827   3.482   4.194   2.623
 3607TIP3    H210828   3.488   4.093   2.510
 3608TIP3   OH210829   3.032   4.322   5.206
 3608TIP3    H110830   3.059   4.414   5.211
 3608TIP3    H210831   2.948   4.325   5.160
 3609TIP3   OH210832   5.002   5.081   3.243
 3609TIP3    H110833   4.950   5.002   3.227
 3609TIP3    H210834   4.963   5.147   3.186
 3610TIP3   OH210835   4.117   1.853   3.508
 3610TIP3    H110836   4.028   1.819   3.494
 3610TIP3    H210837   4.154   1.860   3.421
 3611TIP3   OH210838   5.623   5.685   1.714
 3611TIP3    H110839   5.538   5.725   1.693
 3611TIP3    H210840   5.670   5.754   1.762
 3612TIP3   OH210841   0.300   0.480   2.279
 3612TIP3    H110842   0.345   0.562   2.297
 3612TIP3    H210843   0.319   0.425   2.356
 3613TIP3   OH210844   6.345   0.913   0.949
 3613TIP3    H110845   6.346   0.950   1.038
 3613TIP3    H210846   6.318   0.986   0.893
 3614TIP3   OH210847   2.156   3.378   2.895
 3614TIP3    H110848   2.218   3.395   2.824
 3614TIP3    H210849   2.071   3.402   2.859
 3615TIP3   OH210850   6.238   2.304   3.210
 3615TIP3    H110851   6.182   2.364   3.259
 3615TIP3    H210852   6.203   2.217   3.229
 3616TIP3   OH210853   2.629   5.965   3.867
 3616TIP3    H110854   2.672   5.933   3.947
 3616TIP3    H210855   2.593   5.887   3.827
 3617TIP3   OH210856   2.089  -0.019   0.447
 3617TIP3    H110857   2.066   0.071   0.471
 3617TIP3    H210858   2.180  -0.029   0.474
 3618TIP3   OH210859   1.227   2.444   4.479
 3618TIP3    H110860   1.161   2.495   4.527
 3618TIP3    H210861   1.230   2.361   4.526
 3619TIP3   OH210862   2.224   0.169   2.590
 3619TIP3    H110863   2.197   0.166   2.498
 3619TIP3    H210864   2.262   0.082   2.606
 3620TIP3   OH210865   4.209   0.499   2.063
 3620TIP3    H110866   4.180   0.421   2.110
 3620TIP3    H210867   4.206   0.569   2.129
 3621TIP3   OH210868   3.958   2.354   2.691
 3621TIP3    H110869   3.878   2.329   2.735
 3621TIP3    H210870   3.930   2.417   2.624
 3622TIP3   OH210871   2.876   1.492   3.776
 3622TIP3    H110872   2.939   1.507   3.846
 3622TIP3    H210873   2.928   1.489   3.696
 3623TIP3   OH210874   2.879   4.885   2.524
 3623TIP3    H110875   2.910   4.873   2.614
 3623TIP3    H210876   2.943   4.839   2.470
 3624TIP3   OH210877   3.044   4.986   1.291
 3624TIP3    H110878   2.974   5.046   1.316
 3624TIP3    H210879   3.044   4.987   1.196
 3625TIP3   OH210880   1.442   5.332   2.195
 3625TIP3    H110881   1.496   5.349   2.272
 3625TIP3    H210882   1.396   5.415   2.179
 3626TIP3   OH210883   3.217   3.218   3.325
 3626TIP3    H110884   3.165   3.294   3.351
 3626TIP3    H210885   3.241   3.235   3.234
 3627TIP3   OH210886   4.649   1.499   1.185
 3627TIP3    H110887   4.730   1.505   1.236
 3627TIP3    H210888   4.674   1.530   1.098
 3628TIP3   OH210889   0.845   1.151   2.144
 3628TIP3    H110890   0.805   1.098   2.075
 3628TIP3    H210891   0.939   1.132   2.138
 3629TIP3   OH210892   6.218   1.486   1.049
 3629TIP3    H110893   6.174   1.443   0.976
 3629TIP3    H210894   6.155   1.549   1.082
 3630TIP3   OH210895   4.138   5.833   0.208
 3630TIP3    H110896   4.220   5.823   0.161
 3630TIP3    H210897   4.159   5.807   0.298
 3631TIP3   OH210898   4.028   3.215   0.884
 3631TIP3    H110899   3.952   3.269   0.905
 3631TIP3    H210900   3.993   3.147   0.827
 3632TIP3   OH210901   4.777   2.553   1.918
 3632TIP3    H110902   4.844   2.529   1.854
 3632TIP3    H210903   4.826   2.583   1.995
 3633TIP3   OH210904   5.898   5.106   2.007
 3633TIP3    H110905   5.831   5.049   1.968
 3633TIP3    H210906   5.959   5.124   1.936
 3634TIP3   OH210907   6.036   0.114   0.215
 3634TIP3    H110908   6.008   0.040   0.268
 3634TIP3    H210909   6.070   0.178   0.278
 3635TIP3   OH210910   5.466   3.128   3.463
 3635TIP3    H110911   5.424   3.122   3.378
 3635TIP3    H210912   5.474   3.222   3.479
 3636TIP3   OH210913   5.087   4.339   0.800
 3636TIP3    H110914   5.046   4.424   0.817
 3636TIP3    H210915   5.122   4.346   0.711
 3637TIP3   OH210916   4.461   3.583   4.740
 3637TIP3    H110917   4.509   3.570   4.822
 3637TIP3    H210918   4.467   3.677   4.723
 3638TIP3   OH210919   3.269   0.616   0.906
 3638TIP3    H110920   3.299   0.644   0.992
 3638TIP3    H210921   3.269   0.696   0.853
 3639TIP3   OH210922   0.009   5.611   1.739
 3639TIP3    H110923  -0.041   5.586   1.816
 3639TIP3    H210924   0.075   5.672   1.772
 3640TIP3   OH210925   2.297   0.245   4.755
 3640TIP3    H110926   2.295   0.159   4.714
 3640TIP3    H210927   2.390   0.266   4.763
 3641TIP3   OH210928   2.920   5.070   1.690
 3641TIP3    H110929   3.007   5.029   1.690
 3641TIP3    H210930   2.859   4.998   1.708
 3642TIP3   OH210931   5.326   2.415   2.749
 3642TIP3    H110932   5.251   2.433   2.806
 3642TIP3    H210933   5.358   2.330   2.779
 3643TIP3   OH210934   0.322   0.283   3.856
 3643TIP3    H110935   0.326   0.271   3.950
 3643TIP3    H210936   0.255   0.222   3.826
 3644TIP3   OH210937   3.828   2.377   4.337
 3644TIP3    H110938   3.847   2.358   4.245
 3644TIP3    H210939   3.909   2.358   4.383
 3645TIP3   OH210940   4.256   5.146   4.800
 3645TIP3    H110941   4.294   5.085   4.864
 3645TIP3    H210942   4.318   5.218   4.795
 3646TIP3   OH210943   0.605   3.466   1.269
 3646TIP3    H110944   0.597   3.380   1.228
 3646TIP3    H210945   0.647   3.520   1.203
 3647TIP3   OH210946   3.074   5.934   4.085
 3647TIP3    H110947   3.106   6.022   4.100
 3647TIP3    H210948   2.993   5.945   4.036
 3648TIP3   OH210949   1.438   5.080   0.659
 3648TIP3    H110950   1.525   5.085   0.619
 3648TIP3    H210951   1.439   5.149   0.725
 3649TIP3   OH210952   5.848   1.536   2.110
 3649TIP3    H110953   5.901   1.613   2.090
 3649TIP3    H210954   5.904   1.462   2.089
 3650TIP3   OH210955   0.108   2.189   5.138
 3650TIP3    H110956   0.070   2.105   5.163
 3650TIP3    H210957   0.164   2.169   5.063
 3651TIP3   OH210958   2.314   5.502   2.995
 3651TIP3    H110959   2.391   5.529   2.947
 3651TIP3    H210960   2.343   5.427   3.047
 3652TIP3   OH210961   6.032   0.028   1.703
 3652TIP3    H110962   6.067   0.028   1.614
 3652TIP3    H210963   6.017   0.120   1.723
 3653TIP3   OH210964   1.904   4.104   5.098
 3653TIP3    H110965   1.876   4.019   5.132
 3653TIP3    H210966   1.876   4.167   5.165
 3654TIP3   OH210967   0.932   3.768   4.401
 3654TIP3    H110968   0.927   3.863   4.398
 3654TIP3    H210969   0.841   3.739   4.392
 3655TIP3   OH210970   1.887   3.135   2.787
 3655TIP3    H110971   1.835   3.059   2.763
 3655TIP3    H210972   1.977   3.111   2.765
 3656TIP3   OH210973   3.508   5.955   0.164
 3656TIP3    H110974   3.583   5.917   0.118
 3656TIP3    H210975   3.536   5.957   0.256
 3657TIP3   OH210976   1.657   1.697   3.865
 3657TIP3    H110977   1.684   1.683   3.956
 3657TIP3    H210978   1.698   1.780   3.840
 3658TIP3   OH210979   5.051   0.883   1.047
 3658TIP3    H110980   5.141   0.857   1.029
 3658TIP3    H210981   5.028   0.837   1.128
 3659TIP3   OH210982   2.414   1.762   4.142
 3659TIP3    H110983   2.508   1.777   4.131
 3659TIP3    H210984   2.405   1.667   4.144
 3660TIP3   OH210985   2.147   1.439   4.138
 3660TIP3    H110986   2.162   1.482   4.222
 3660TIP3    H210987   2.177   1.502   4.073
 3661TIP3   OH210988   4.313   4.762   2.481
 3661TIP3    H110989   4.309   4.667   2.482
 3661TIP3    H210990   4.371   4.785   2.554
 3662TIP3   OH210991   2.720   1.765   3.814
 3662TIP3    H110992   2.650   1.746   3.752
 3662TIP3    H210993   2.773   1.685   3.816
 3663TIP3   OH210994   6.270   0.635   1.089
 3663TIP3    H110995   6.356   0.609   1.056
 3663TIP3    H210996   6.213   0.635   1.011
 3664TIP3   OH210997   4.333   1.554   1.553
 3664TIP3    H110998   4.287   1.621   1.604
 3664TIP3    H210999   4.319   1.579   1.462
 3665TIP3   OH211000   4.181   4.072   0.321
 3665TIP3    H111001   4.267   4.089   0.283
 3665TIP3    H211002   4.187   3.982   0.354
 3666TIP3   OH211003   4.054   3.165   3.559
 3666TIP3    H111004   4.030   3.194   3.471
 3666TIP3    H211005   3.980   3.110   3.586
 3667TIP3   OH211006   0.560   2.793   1.348
 3667TIP3    H111007   0.642   2.841   1.355
 3667TIP3    H211008   0.539   2.767   1.438
 3668TIP3   OH211009   5.870   5.455   5.121
 3668TIP3    H111010   5.837   5.406   5.196
 3668TIP3    H211011   5.804   5.522   5.105
 3669TIP3   OH211012   4.146   4.502   2.722
 3669TIP3    H111013   4.218   4.509   2.658
 3669TIP3    H211014   4.159   4.417   2.763
 3670TIP3   OH211015   6.158   5.146   3.228
 3670TIP3    H111016   6.216   5.119   3.158
 3670TIP3    H211017   6.168   5.078   3.295
 3671TIP3   OH211018   4.849   3.576   0.616
 3671TIP3    H111019   4.757   3.559   0.636
 3671TIP3    H211020   4.864   3.532   0.533
 3672TIP3   OH211021   3.357   5.216   4.325
 3672TIP3    H111022   3.427   5.247   4.382
 3672TIP3    H211023   3.290   5.284   4.330
 3673TIP3   OH211024   1.945   0.073   3.288
 3673TIP3    H111025   1.912   0.163   3.281
 3673TIP3    H211026   1.926   0.034   3.203
 3674TIP3   OH211027   4.494   1.920   1.863
 3674TIP3    H111028   4.568   1.894   1.808
 3674TIP3    H211029   4.472   2.008   1.834
 3675TIP3   OH211030   4.514   3.946   1.521
 3675TIP3    H111031   4.494   3.998   1.443
 3675TIP3    H211032   4.595   3.984   1.555
 3676TIP3   OH211033   1.568   2.695   5.200
 3676TIP3    H111034   1.475   2.672   5.202
 3676TIP3    H211035   1.575   2.759   5.129
 3677TIP3   OH211036   1.146   1.950   0.770
 3677TIP3    H111037   1.164   1.911   0.684
 3677TIP3    H211038   1.068   2.004   0.756
 3678TIP3   OH211039   0.686   5.465   2.316
 3678TIP3    H111040   0.714   5.438   2.229
 3678TIP3    H211041   0.690   5.385   2.368
 3679TIP3   OH211042   3.741   5.498   1.942
 3679TIP3    H111043   3.815   5.472   1.995
 3679TIP3    H211044   3.664   5.470   1.992
 3680TIP3   OH211045   0.259   0.629   0.344
 3680TIP3    H111046   0.305   0.672   0.272
 3680TIP3    H211047   0.185   0.686   0.362
 3681TIP3   OH211048   5.459   2.642   0.817
 3681TIP3    H111049   5.418   2.580   0.757
 3681TIP3    H211050   5.447   2.603   0.903
 3682TIP3   OH211051   1.429   0.139   3.992
 3682TIP3    H111052   1.358   0.128   3.930
 3682TIP3    H211053   1.439   0.234   4.001
 3683TIP3   OH211054   5.826   0.182   0.635
 3683TIP3    H111055   5.768   0.193   0.710
 3683TIP3    H211056   5.832   0.269   0.596
 3684TIP3   OH211057   5.865   5.080   0.295
 3684TIP3    H111058   5.941   5.084   0.352
 3684TIP3    H211059   5.898   5.042   0.214
 3685TIP3   OH211060   2.051   3.985   4.071
 3685TIP3    H111061   1.959   3.983   4.046
 3685TIP3    H211062   2.051   3.968   4.166
 3686TIP3   OH211063   0.892   0.432   0.537
 3686TIP3    H111064   0.985   0.450   0.545
 3686TIP3    H211065   0.878   0.354   0.591
 3687TIP3   OH211066   5.406   0.796   2.094
 3687TIP3    H111067   5.327   0.789   2.041
 3687TIP3    H211068   5.475   0.757   2.039
 3688TIP3   OH211069   1.337   3.584   0.507
 3688TIP3    H111070   1.283   3.510   0.478
 3688TIP3    H211071   1.422   3.568   0.466
 3689TIP3   OH211072   1.966   5.594   3.781
 3689TIP3    H111073   1.926   5.666   3.830
 3689TIP3    H211074   2.030   5.557   3.842
 3690TIP3   OH211075   4.992   4.478   1.408
 3690TIP3    H111076   5.054   4.442   1.345
 3690TIP3    H211077   4.934   4.533   1.356
 3691TIP3   OH211078   1.172   1.832   2.816
 3691TIP3    H111079   1.115   1.812   2.742
 3691TIP3    H211080   1.235   1.895   2.780
 3692TIP3   OH211081   1.672   1.078   2.959
 3692TIP3    H111082   1.665   0.984   2.946
 3692TIP3    H211083   1.607   1.098   3.026
 3693TIP3   OH211084   1.957   2.901   1.069
 3693TIP3    H111085   2.034   2.878   1.121
 3693TIP3    H211086   1.923   2.980   1.110
 3694TIP3   OH211087   5.576   1.780   1.686
 3694TIP3    H111088   5.497   1.729   1.705
 3694TIP3    H211089   5.639   1.753   1.752
 3695TIP3   OH211090   4.119   6.002   0.473
 3695TIP3    H111091   4.058   5.936   0.441
 3695TIP3    H211092   4.084   6.027   0.559
 3696TIP3   OH211093   3.054   0.343   3.658
 3696TIP3    H111094   3.106   0.264   3.674
 3696TIP3    H211095   2.979   0.334   3.716
 3697TIP3   OH211096   5.380   2.199   2.381
 3697TIP3    H111097   5.403   2.180   2.290
 3697TIP3    H211098   5.453   2.166   2.432
 3698TIP3   OH211099   5.234   0.410   2.980
 3698TIP3    H111100   5.202   0.500   2.976
 3698TIP3    H211101   5.311   0.415   3.038
 3699TIP3   OH211102   2.285   4.778   0.679
 3699TIP3    H111103   2.195   4.809   0.678
 3699TIP3    H211104   2.327   4.829   0.749
 3700TIP3   OH211105   6.266   0.556   0.423
 3700TIP3    H111106   6.192   0.508   0.460
 3700TIP3    H211107   6.232   0.595   0.343
 3701TIP3   OH211108   6.135   2.151   4.018
 3701TIP3    H111109   6.190   2.076   3.994
 3701TIP3    H211110   6.065   2.114   4.072
 3702TIP3   OH211111   1.902   0.310   0.063
 3702TIP3    H111112   1.868   0.221   0.066
 3702TIP3    H211113   1.944   0.317  -0.022
 3703TIP3   OH211114   4.747   1.565   4.025
 3703TIP3    H111115   4.786   1.485   3.990
 3703TIP3    H211116   4.793   1.580   4.108
 3704TIP3   OH211117   2.439   0.594   2.672
 3704TIP3    H111118   2.445   0.600   2.767
 3704TIP3    H211119   2.454   0.502   2.652
 3705TIP3   OH211120   0.199   0.645   1.692
 3705TIP3    H111121   0.104   0.631   1.694
 3705TIP3    H211122   0.209   0.740   1.698
 3706TIP3   OH211123   4.800   2.849   0.305
 3706TIP3    H111124   4.790   2.942   0.285
 3706TIP3    H211125   4.777   2.841   0.397
 3707TIP3   OH211126   3.011   1.366   2.848
 3707TIP3    H111127   3.064   1.361   2.769
 3707TIP3    H211128   2.951   1.439   2.832
 3708TIP3   OH211129   4.715   3.993   3.409
 3708TIP3    H111130   4.736   4.072   3.359
 3708TIP3    H211131   4.799   3.960   3.438
 3709TIP3   OH211132   1.565   0.169   0.881
 3709TIP3    H111133   1.479   0.181   0.919
 3709TIP3    H211134   1.550   0.167   0.786
 3710TIP3   OH211135   4.361   1.654   0.546
 3710TIP3    H111136   4.432   1.710   0.578
 3710TIP3    H211137   4.328   1.699   0.468
 3711TIP3   OH211138   5.521   1.274   2.679
 3711TIP3    H111139   5.476   1.343   2.631
 3711TIP3    H211140   5.452   1.214   2.706
 3712TIP3   OH211141   1.629   2.121   3.431
 3712TIP3    H111142   1.618   2.147   3.340
 3712TIP3    H211143   1.634   2.025   3.428
 3713TIP3   OH211144   5.151   5.572   0.410
 3713TIP3    H111145   5.215   5.502   0.404
 3713TIP3    H211146   5.104   5.555   0.492
 3714TIP3   OH211147   4.136   4.740   0.127
 3714TIP3    H111148   4.209   4.781   0.173
 3714TIP3    H211149   4.062   4.751   0.187
 3715TIP3   OH211150   5.246   4.606   4.248
 3715TIP3    H111151   5.305   4.680   4.239
 3715TIP3    H211152   5.171   4.627   4.194
 3716TIP3   OH211153   2.649   0.948   1.785
 3716TIP3    H111154   2.583   1.009   1.819
 3716TIP3    H211155   2.615   0.922   1.699
 3717TIP3   OH211156   6.054   5.196   2.791
 3717TIP3    H111157   6.117   5.258   2.755
 3717TIP3    H211158   6.035   5.137   2.718
 3718TIP3   OH211159   3.486   1.061   1.432
 3718TIP3    H111160   3.567   1.107   1.453
 3718TIP3    H211161   3.428   1.129   1.398
 3719TIP3   OH211162   2.193   2.108   2.371
 3719TIP3    H111163   2.266   2.053   2.343
 3719TIP3    H211164   2.147   2.130   2.290
 3720TIP3   OH211165   2.208   5.946   2.474
 3720TIP3    H111166   2.243   6.035   2.480
 3720TIP3    H211167   2.207   5.914   2.564
 3721TIP3   OH211168   2.096   4.826   3.577
 3721TIP3    H111169   2.125   4.735   3.576
 3721TIP3    H211170   2.144   4.865   3.651
 3722TIP3   OH211171   2.573   4.235   2.860
 3722TIP3    H111172   2.613   4.210   2.777
 3722TIP3    H211173   2.635   4.295   2.900
 3723TIP3   OH211174   6.061   2.136   0.552
 3723TIP3    H111175   6.019   2.207   0.600
 3723TIP3    H211176   5.992   2.072   0.539
 3724TIP3   OH211177   5.339   1.395   2.489
 3724TIP3    H111178   5.322   1.430   2.401
 3724TIP3    H211179   5.253   1.374   2.524
 3725TIP3   OH211180   1.028   1.077   0.512
 3725TIP3    H111181   0.933   1.072   0.506
 3725TIP3    H211182   1.049   1.167   0.488
 3726TIP3   OH211183   0.774   3.042   1.916
 3726TIP3    H111184   0.726   3.124   1.927
 3726TIP3    H211185   0.763   2.996   2.000
 3727TIP3   OH211186   1.792   2.002   4.069
 3727TIP3    H111187   1.858   2.042   4.126
 3727TIP3    H211188   1.729   1.963   4.130
 3728TIP3   OH211189   0.330   4.361   3.025
 3728TIP3    H111190   0.241   4.361   2.991
 3728TIP3    H211191   0.385   4.339   2.949
 3729TIP3   OH211192   1.910   3.451   4.581
 3729TIP3    H111193   1.849   3.524   4.572
 3729TIP3    H211194   1.935   3.452   4.673
 3730TIP3   OH211195   0.214   0.937   3.294
 3730TIP3    H111196   0.279   1.006   3.308
 3730TIP3    H211197   0.215   0.887   3.375
 3731TIP3   OH211198   3.627   4.456   0.431
 3731TIP3    H111199   3.672   4.384   0.386
 3731TIP3    H211200   3.638   4.531   0.373
 3732TIP3   OH211201   5.080   4.297   3.613
 3732TIP3    H111202   5.110   4.373   3.662
 3732TIP3    H211203   5.113   4.311   3.525
 3733TIP3   OH211204   0.139   3.862   1.854
 3733TIP3    H111205   0.164   3.771   1.870
 3733TIP3    H211206   0.132   3.900   1.942
 3734TIP3   OH211207   3.608   1.113   2.499
 3734TIP3    H111208   3.628   1.050   2.431
 3734TIP3    H211209   3.646   1.195   2.468
 3735TIP3   OH211210   4.438   1.012   0.003
 3735TIP3    H111211   4.385   1.080   0.045
 3735TIP3    H211212   4.482   1.058  -0.069
 3736TIP3   OH211213   3.861   5.154   0.430
 3736TIP3    H111214   3.928   5.129   0.495
 3736TIP3    H211215   3.786   5.099   0.451
 3737TIP3   OH211216   2.493   0.724   0.545
 3737TIP3    H111217   2.515   0.800   0.599
 3737TIP3    H211218   2.447   0.665   0.605
 3738TIP3   OH211219   3.738   4.761   2.507
 3738TIP3    H111220   3.664   4.757   2.568
 3738TIP3    H211221   3.795   4.689   2.534
 3739TIP3   OH211222   2.291   1.276   1.623
 3739TIP3    H111223   2.325   1.286   1.535
 3739TIP3    H211224   2.274   1.366   1.652
 3740TIP3   OH211225   6.197   5.456   4.422
 3740TIP3    H111226   6.143   5.499   4.355
 3740TIP3    H211227   6.138   5.445   4.497
 3741TIP3   OH211228   3.102   5.074   2.589
 3741TIP3    H111229   3.176   5.116   2.634
 3741TIP3    H211230   3.110   4.981   2.614
 3742TIP3   OH211231   0.457   1.249   3.177
 3742TIP3    H111232   0.548   1.258   3.205
 3742TIP3    H211233   0.414   1.201   3.248
 3743TIP3   OH211234   6.298   5.842   4.608
 3743TIP3    H111235   6.253   5.770   4.652
 3743TIP3    H211236   6.229   5.907   4.593
 3744TIP3   OH211237   1.246   5.360   4.792
 3744TIP3    H111238   1.151   5.361   4.802
 3744TIP3    H211239   1.266   5.442   4.746
 3745TIP3   OH211240   2.647   2.383   3.829
 3745TIP3    H111241   2.559   2.419   3.827
 3745TIP3    H211242   2.649   2.321   3.756
 3746TIP3   OH211243   1.730   4.155   3.079
 3746TIP3    H111244   1.650   4.105   3.097
 3746TIP3    H211245   1.768   4.171   3.166
 3747TIP3   OH211246   2.044   1.489   4.663
 3747TIP3    H111247   2.046   1.506   4.757
 3747TIP3    H211248   2.104   1.415   4.651
 3748TIP3   OH211249   0.509   3.416   2.324
 3748TIP3    H111250   0.532   3.336   2.372
 3748TIP3    H211251   0.416   3.428   2.342
 3749TIP3   OH211252   6.181   3.972   0.701
 3749TIP3    H111253   6.221   3.915   0.635
 3749TIP3    H211254   6.087   3.958   0.691
 3750TIP3   OH211255   1.642   0.077   2.784
 3750TIP3    H111256   1.565   0.079   2.840
 3750TIP3    H211257   1.702   0.142   2.821
 3751TIP3   OH211258   3.980   2.468   1.836
 3751TIP3    H111259   4.031   2.549   1.842
 3751TIP3    H211260   3.966   2.455   1.742
 3752TIP3   OH211261   0.869   1.487   0.661
 3752TIP3    H111262   0.933   1.466   0.592
 3752TIP3    H211263   0.790   1.439   0.636
 3753TIP3   OH211264   3.142   3.582   2.654
 3753TIP3    H111265   3.149   3.488   2.675
 3753TIP3    H211266   3.089   3.585   2.575
 3754TIP3   OH211267   2.191   1.624   0.755
 3754TIP3    H111268   2.125   1.575   0.805
 3754TIP3    H211269   2.161   1.619   0.664
 3755TIP3   OH211270   6.020   5.721   1.236
 3755TIP3    H111271   5.940   5.753   1.278
 3755TIP3    H211272   6.074   5.799   1.224
 3756TIP3   OH211273   4.908   1.564   0.042
 3756TIP3    H111274   4.856   1.485   0.023
 3756TIP3    H211275   4.851   1.637   0.016
 3757TIP3   OH211276   2.895   4.938   0.781
 3757TIP3    H111277   2.824   4.884   0.746
 3757TIP3    H211278   2.889   5.020   0.731
 3758TIP3   OH211279   4.466   0.189   2.895
 3758TIP3    H111280   4.550   0.230   2.874
 3758TIP3    H211281   4.480   0.150   2.981
 3759TIP3   OH211282   4.348   3.038   3.571
 3759TIP3    H111283   4.339   3.016   3.664
 3759TIP3    H211284   4.271   3.092   3.552
 3760TIP3   OH211285   5.139   0.648   2.749
 3760TIP3    H111286   5.208   0.713   2.737
 3760TIP3    H211287   5.081   0.687   2.814
 3761TIP3   OH211288   3.096   0.868   1.882
 3761TIP3    H111289   3.057   0.956   1.880
 3761TIP3    H211290   3.023   0.810   1.904
 3762TIP3   OH211291   5.803   5.942   4.448
 3762TIP3    H111292   5.785   5.996   4.524
 3762TIP3    H211293   5.717   5.928   4.408
 3763TIP3   OH211294   6.109   0.584   2.356
 3763TIP3    H111295   6.107   0.499   2.311
 3763TIP3    H211296   6.197   0.617   2.339
 3764TIP3   OH211297   0.350   1.951   2.037
 3764TIP3    H111298   0.293   1.889   2.083
 3764TIP3    H211299   0.405   1.896   1.981
 3765TIP3   OH211300   3.240   4.261   4.047
 3765TIP3    H111301   3.199   4.180   4.019
 3765TIP3    H211302   3.218   4.324   3.978
 3766TIP3   OH211303   3.064   4.187   2.383
 3766TIP3    H111304   3.036   4.096   2.369
 3766TIP3    H211305   3.060   4.199   2.478
 3767TIP3   OH211306   4.458   4.627   5.171
 3767TIP3    H111307   4.509   4.677   5.108
 3767TIP3    H211308   4.433   4.548   5.124
 3768TIP3   OH211309   3.000   5.630   0.168
 3768TIP3    H111310   3.033   5.617   0.079
 3768TIP3    H211311   3.006   5.724   0.182
 3769TIP3   OH211312   4.617   4.610   1.504
 3769TIP3    H111313   4.587   4.679   1.563
 3769TIP3    H211314   4.544   4.547   1.501
 3770TIP3   OH211315   0.244   4.570   2.338
 3770TIP3    H111316   0.265   4.642   2.398
 3770TIP3    H211317   0.327   4.550   2.295
 3771TIP3   OH211318   0.378   0.415   0.501
 3771TIP3    H111319   0.332   0.488   0.459
 3771TIP3    H211320   0.468   0.422   0.469
 3772TIP3   OH211321   2.800   4.665   4.689
 3772TIP3    H111322   2.753   4.747   4.705
 3772TIP3    H211323   2.796   4.619   4.773
 3773TIP3   OH211324   4.874   2.137   2.348
 3773TIP3    H111325   4.959   2.120   2.307
 3773TIP3    H211326   4.811   2.131   2.277
 3774TIP3   OH211327   5.305   1.929   5.036
 3774TIP3    H111328   5.288   2.013   4.995
 3774TIP3    H211329   5.230   1.874   5.013
 3775TIP3   OH211330   2.955   2.906   3.810
 3775TIP3    H111331   2.950   2.974   3.877
 3775TIP3    H211332   3.048   2.884   3.805
 3776TIP3   OH211333   6.149   0.124   4.659
 3776TIP3    H111334   6.101   0.087   4.733
 3776TIP3    H211335   6.160   0.216   4.682
 3777TIP3   OH211336   4.284   4.308   1.601
 3777TIP3    H111337   4.193   4.311   1.631
 3777TIP3    H211338   4.313   4.400   1.604
 3778TIP3   OH211339   1.851   1.423   4.034
 3778TIP3    H111340   1.928   1.395   4.084
 3778TIP3    H211341   1.878   1.504   3.992
 3779TIP3   OH211342   2.004   0.667   3.479
 3779TIP3    H111343   2.002   0.582   3.434
 3779TIP3    H211344   2.085   0.708   3.448
 3780TIP3   OH211345   4.231   4.893   1.071
 3780TIP3    H111346   4.243   4.800   1.091
 3780TIP3    H211347   4.140   4.911   1.096
 3781TIP3   OH211348   5.395   5.296   3.428
 3781TIP3    H111349   5.466   5.337   3.377
 3781TIP3    H211350   5.320   5.354   3.416
 3782TIP3   OH211351   0.650   5.477   1.861
 3782TIP3    H111352   0.701   5.451   1.784
 3782TIP3    H211353   0.712   5.474   1.934
 3783TIP3   OH211354   5.021   1.150   0.282
 3783TIP3    H111355   5.046   1.202   0.359
 3783TIP3    H211356   4.938   1.189   0.253
 3784TIP3   OH211357   1.852   0.818   4.848
 3784TIP3    H111358   1.838   0.733   4.890
 3784TIP3    H211359   1.822   0.882   4.913
 3785TIP3   OH211360   1.414   4.853   1.679
 3785TIP3    H111361   1.404   4.832   1.772
 3785TIP3    H211362   1.409   4.949   1.675
 3786TIP3   OH211363   0.947   0.118   3.282
 3786TIP3    H111364   0.872   0.130   3.341
 3786TIP3    H211365   1.017   0.087   3.339
 3787TIP3   OH211366   5.666   0.242   2.035
 3787TIP3    H111367   5.587   0.295   2.022
 3787TIP3    H211368   5.691   0.215   1.946
 3788TIP3   OH211369   5.574   2.899   1.063
 3788TIP3    H111370   5.596   2.941   0.980
 3788TIP3    H211371   5.572   2.805   1.043
 3789TIP3   OH211372   0.878   1.035   1.349
 3789TIP3    H111373   0.864   0.985   1.430
 3789TIP3    H211374   0.811   1.103   1.352
 3790TIP3   OH211375   0.831   4.194   2.353
 3790TIP3    H111376   0.755   4.251   2.366
 3790TIP3    H211377   0.816   4.152   2.268
 3791TIP3   OH211378   3.777   0.228   1.583
 3791TIP3    H111379   3.849   0.287   1.560
 3791TIP3    H211380   3.743   0.197   1.500
 3792TIP3   OH211381   2.083   3.306   1.188
 3792TIP3    H111382   2.021   3.235   1.203
 3792TIP3    H211383   2.048   3.379   1.240
 3793TIP3   OH211384   4.627   4.049   3.688
 3793TIP3    H111385   4.641   4.062   3.595
 3793TIP3    H211386   4.665   3.963   3.706
 3794TIP3   OH211387   5.538   4.672   1.066
 3794TIP3    H111388   5.613   4.702   1.117
 3794TIP3    H211389   5.464   4.723   1.098
 3795TIP3   OH211390   4.142   5.800   3.739
 3795TIP3    H111391   4.093   5.877   3.765
 3795TIP3    H211392   4.084   5.726   3.759
 3796TIP3   OH211393   5.840   1.072   2.458
 3796TIP3    H111394   5.917   1.056   2.512
 3796TIP3    H211395   5.781   1.000   2.479
 3797TIP3   OH211396   1.390   5.247   0.918
 3797TIP3    H111397   1.309   5.265   0.966
 3797TIP3    H211398   1.437   5.185   0.973
 3798TIP3   OH211399   5.646   0.690   4.209
 3798TIP3    H111400   5.695   0.679   4.128
 3798TIP3    H211401   5.713   0.689   4.278
 3799TIP3   OH211402   4.489   1.706   4.753
 3799TIP3    H111403   4.562   1.739   4.700
 3799TIP3    H211404   4.478   1.616   4.725
 3800TIP3   OH211405   1.788   2.402   3.376
 3800TIP3    H111406   1.869   2.414   3.327
 3800TIP3    H211407   1.729   2.358   3.315
 3801TIP3   OH211408   1.330   3.004   2.491
 3801TIP3    H111409   1.349   2.971   2.403
 3801TIP3    H211410   1.395   2.961   2.547
 3802TIP3   OH211411   5.323   4.151   0.241
 3802TIP3    H111412   5.250   4.190   0.193
 3802TIP3    H211413   5.383   4.121   0.172
 3803TIP3   OH211414   3.290   1.534   1.792
 3803TIP3    H111415   3.312   1.441   1.795
 3803TIP3    H211416   3.299   1.558   1.699
 3804TIP3   OH211417   3.658   4.972   0.458
 3804TIP3    H111418   3.616   4.889   0.481
 3804TIP3    H211419   3.632   4.988   0.367
 3805TIP3   OH211420   4.581   2.227   4.727
 3805TIP3    H111421   4.500   2.177   4.718
 3805TIP3    H211422   4.594   2.235   4.822
 3806TIP3   OH211423   5.919   4.029   1.051
 3806TIP3    H111424   5.974   4.102   1.022
 3806TIP3    H211425   5.917   3.970   0.976
 3807TIP3   OH211426   5.442   2.881   3.586
 3807TIP3    H111427   5.472   2.972   3.591
 3807TIP3    H211428   5.513   2.836   3.540
 3808TIP3   OH211429   2.856   4.593   2.731
 3808TIP3    H111430   2.919   4.522   2.717
 3808TIP3    H211431   2.910   4.672   2.738
 3809TIP3   OH211432   2.240   4.737   2.170
 3809TIP3    H111433   2.303   4.781   2.113
 3809TIP3    H211434   2.251   4.644   2.152
 3810TIP3   OH211435   2.009   4.447   4.104
 3810TIP3    H111436   1.913   4.446   4.103
 3810TIP3    H211437   2.033   4.506   4.033
 3811TIP3   OH211438   2.889   2.100   2.473
 3811TIP3    H111439   2.816   2.120   2.532
 3811TIP3    H211440   2.965   2.093   2.531
 3812TIP3   OH211441   0.495   1.328   1.843
 3812TIP3    H111442   0.559   1.316   1.913
 3812TIP3    H211443   0.424   1.268   1.865
 3813TIP3   OH211444   1.160   1.140   0.065
 3813TIP3    H111445   1.075   1.172   0.036
 3813TIP3    H211446   1.223   1.192   0.015
 3814TIP3   OH211447   1.013   1.792   5.108
 3814TIP3    H111448   0.973   1.872   5.144
 3814TIP3    H211449   1.105   1.816   5.094
 3815TIP3   OH211450   1.595   2.710   1.241
 3815TIP3    H111451   1.501   2.697   1.257
 3815TIP3    H211452   1.638   2.646   1.297
 3816TIP3   OH211453   0.894   3.474   4.152
 3816TIP3    H111454   0.818   3.446   4.201
 3816TIP3    H211455   0.955   3.507   4.218
 3817TIP3   OH211456   2.096   2.415   0.523
 3817TIP3    H111457   2.118   2.475   0.451
 3817TIP3    H211458   2.142   2.452   0.599
 3818TIP3   OH211459   4.409   4.914   0.598
 3818TIP3    H111460   4.407   4.822   0.625
 3818TIP3    H211461   4.354   4.959   0.661
 3819TIP3   OH211462   4.453   5.057   2.527
 3819TIP3    H111463   4.460   4.964   2.546
 3819TIP3    H211464   4.415   5.095   2.606
 3820TIP3   OH211465   1.065   5.098   0.120
 3820TIP3    H111466   1.083   5.064   0.207
 3820TIP3    H211467   1.145   5.144   0.095
 3821TIP3   OH211468   3.010   3.452   0.279
 3821TIP3    H111469   3.099   3.474   0.251
 3821TIP3    H211470   3.013   3.359   0.300
 3822TIP3   OH211471   2.692   4.453   0.258
 3822TIP3    H111472   2.667   4.433   0.168
 3822TIP3    H211473   2.610   4.444   0.308
 3823TIP3   OH211474   1.719   5.116   5.151
 3823TIP3    H111475   1.657   5.188   5.143
 3823TIP3    H211476   1.720   5.075   5.065
 3824TIP3   OH211477   3.841   3.575   2.737
 3824TIP3    H111478   3.936   3.579   2.723
 3824TIP3    H211479   3.807   3.652   2.691
 3825TIP3   OH211480   5.407   5.017   2.439
 3825TIP3    H111481   5.411   5.060   2.524
 3825TIP3    H211482   5.323   5.044   2.401
 3826TIP3   OH211483   1.317   5.306   0.412
 3826TIP3    H111484   1.399   5.337   0.450
 3826TIP3    H211485   1.262   5.384   0.406
 3827TIP3   OH211486   5.450   5.851   3.980
 3827TIP3    H111487   5.522   5.799   3.944
 3827TIP3    H211488   5.439   5.923   3.917
 3828TIP3   OH211489   4.733   4.367   1.596
 3828TIP3    H111490   4.723   4.454   1.557
 3828TIP3    H211491   4.770   4.313   1.526
 3829TIP3   OH211492   2.656   5.304   3.387
 3829TIP3    H111493   2.640   5.228   3.444
 3829TIP3    H211494   2.750   5.302   3.370
 3830TIP3   OH211495   1.001   4.314   3.893
 3830TIP3    H111496   1.089   4.275   3.894
 3830TIP3    H211497   0.971   4.303   3.803
 3831TIP3   OH211498   5.314   2.609   1.259
 3831TIP3    H111499   5.222   2.593   1.237
 3831TIP3    H211500   5.312   2.682   1.321
 3832TIP3   OH211501   2.493   0.052   0.234
 3832TIP3    H111502   2.507   0.038   0.141
 3832TIP3    H211503   2.533   0.137   0.253
 3833TIP3   OH211504   5.571   1.198   0.160
 3833TIP3    H111505   5.488   1.151   0.146
 3833TIP3    H211506   5.597   1.226   0.072
 3834TIP3   OH211507   0.955   4.565   4.047
 3834TIP3    H111508   0.978   4.495   3.986
 3834TIP3    H211509   0.944   4.643   3.992
 3835TIP3   OH211510   5.375   4.071   2.891
 3835TIP3    H111511   5.372   4.034   2.979
 3835TIP3    H211512   5.284   4.077   2.863
 3836TIP3   OH211513   4.062   2.397   0.646
 3836TIP3    H111514   4.018   2.318   0.678
 3836TIP3    H211515   4.120   2.423   0.717
 3837TIP3   OH211516   3.265   1.583   0.211
 3837TIP3    H111517   3.288   1.675   0.200
 3837TIP3    H211518   3.323   1.553   0.282
 3838TIP3   OH211519   5.939   3.454   0.035
 3838TIP3    H111520   5.934   3.484   0.125
 3838TIP3    H211521   5.865   3.496  -0.009
 3839TIP3   OH211522   1.609   5.753   4.908
 3839TIP3    H111523   1.704   5.756   4.922
 3839TIP3    H211524   1.573   5.805   4.980
 3840TIP3   OH211525   2.391   2.628   0.481
 3840TIP3    H111526   2.408   2.722   0.486
 3840TIP3    H211527   2.316   2.614   0.540
 3841TIP3   OH211528   0.373   2.458   3.775
 3841TIP3    H111529   0.446   2.474   3.834
 3841TIP3    H211530   0.319   2.392   3.819
 3842TIP3   OH211531   1.846   1.649   4.947
 3842TIP3    H111532   1.756   1.626   4.969
 3842TIP3    H211533   1.895   1.568   4.957
 3843TIP3   OH211534   3.620   3.108   2.920
 3843TIP3    H111535   3.607   3.016   2.941
 3843TIP3    H211536   3.682   3.108   2.847
 3844TIP3   OH211537   1.156   0.544   3.213
 3844TIP3    H111538   1.227   0.483   3.234
 3844TIP3    H211539   1.175   0.621   3.267
 3845TIP3   OH211540   6.296   4.008   3.126
 3845TIP3    H111541   6.378   4.004   3.076
 3845TIP3    H211542   6.310   3.946   3.198
 3846TIP3   OH211543   5.682   3.967   1.201
 3846TIP3    H111544   5.745   4.002   1.137
 3846TIP3    H211545   5.682   3.873   1.185
 3847TIP3   OH211546   0.107   0.384   0.386
 3847TIP3    H111547   0.033   0.444   0.396
 3847TIP3    H211548   0.183   0.441   0.379
 3848TIP3   OH211549   5.547   5.232   2.923
 3848TIP3    H111550   5.603   5.290   2.870
 3848TIP3    H211551   5.589   5.230   3.009
 3849TIP3   OH211552   3.271   1.281   1.642
 3849TIP3    H111553   3.251   1.195   1.677
 3849TIP3    H211554   3.188   1.329   1.646
 3850TIP3   OH211555   4.334   2.977   4.560
 3850TIP3    H111556   4.289   3.058   4.535
 3850TIP3    H211557   4.312   2.966   4.652
 3851TIP3   OH211558   0.102   4.866   0.420
 3851TIP3    H111559   0.050   4.910   0.353
 3851TIP3    H211560   0.191   4.866   0.385
 3852TIP3   OH211561   5.769   0.616   2.017
 3852TIP3    H111562   5.776   0.638   2.110
 3852TIP3    H211563   5.797   0.695   1.971
 3853TIP3   OH211564   0.137   2.247   2.249
 3853TIP3    H111565   0.097   2.200   2.176
 3853TIP3    H211566   0.231   2.243   2.232
 3854TIP3   OH211567   1.803   5.697   3.960
 3854TIP3    H111568   1.720   5.665   3.926
 3854TIP3    H211569   1.784   5.787   3.987
 3855TIP3   OH211570   2.668   3.845   0.107
 3855TIP3    H111571   2.724   3.916   0.075
 3855TIP3    H211572   2.685   3.772   0.047
 3856TIP3   OH211573   2.688   3.139   5.079
 3856TIP3    H111574   2.775   3.109   5.056
 3856TIP3    H211575   2.695   3.168   5.170
 3857TIP3   OH211576   0.969   2.340   1.749
 3857TIP3    H111577   1.045   2.351   1.692
 3857TIP3    H211578   0.895   2.367   1.695
 3858TIP3   OH211579   0.993   1.651   3.778
 3858TIP3    H111580   1.064   1.713   3.796
 3858TIP3    H211581   0.982   1.602   3.860
 3859TIP3   OH211582   3.904   1.248   3.934
 3859TIP3    H111583   3.937   1.182   3.995
 3859TIP3    H211584   3.900   1.329   3.986
 3860TIP3   OH211585   0.033   4.511   4.297
 3860TIP3    H111586   0.027   4.416   4.296
 3860TIP3    H211587   0.029   4.537   4.205
 3861TIP3   OH211588   1.176   4.778   4.884
 3861TIP3    H111589   1.124   4.857   4.872
 3861TIP3    H211590   1.223   4.768   4.801
 3862TIP3   OH211591   3.105   4.033   3.952
 3862TIP3    H111592   3.161   3.956   3.944
 3862TIP3    H211593   3.040   4.009   4.018
 3863TIP3   OH211594   3.602   2.078   2.811
 3863TIP3    H111595   3.642   1.996   2.836
 3863TIP3    H211596   3.644   2.144   2.867
 3864TIP3   OH211597   0.273   1.899   2.993
 3864TIP3    H111598   0.333   1.923   3.063
 3864TIP3    H211599   0.329   1.868   2.922
 3865TIP3   OH211600   0.582   3.874   1.048
 3865TIP3    H111601   0.640   3.800   1.063
 3865TIP3    H211602   0.639   3.951   1.056
 3866TIP3   OH211603   4.890   5.457   2.113
 3866TIP3    H111604   4.866   5.424   2.200
 3866TIP3    H211605   4.939   5.537   2.130
 3867TIP3   OH211606   2.142   2.685   1.206
 3867TIP3    H111607   2.066   2.645   1.250
 3867TIP3    H211608   2.218   2.640   1.243
 3868TIP3   OH211609   3.176   3.945   2.950
 3868TIP3    H111610   3.152   3.871   3.005
 3868TIP3    H211611   3.271   3.950   2.956
 3869TIP3   OH211612   5.307   5.864   1.964
 3869TIP3    H111613   5.223   5.869   2.010
 3869TIP3    H211614   5.321   5.952   1.929
 3870TIP3   OH211615   4.651   5.151   3.262
 3870TIP3    H111616   4.730   5.192   3.226
 3870TIP3    H211617   4.585   5.162   3.193
 3871TIP3   OH211618   5.183   5.052   4.761
 3871TIP3    H111619   5.100   5.006   4.764
 3871TIP3    H211620   5.204   5.071   4.852
 3872TIP3   OH211621   1.957   4.365   1.457
 3872TIP3    H111622   2.040   4.410   1.441
 3872TIP3    H211623   1.951   4.357   1.552
 3873TIP3   OH211624   1.015   1.304   4.818
 3873TIP3    H111625   1.096   1.297   4.767
 3873TIP3    H211626   0.988   1.395   4.807
 3874TIP3   OH211627   3.572   4.785   2.951
 3874TIP3    H111628   3.661   4.785   2.987
 3874TIP3    H211629   3.552   4.877   2.936
 3875TIP3   OH211630   4.084   2.861   3.321
 3875TIP3    H111631   4.076   2.772   3.355
 3875TIP3    H211632   3.994   2.888   3.302
 3876TIP3   OH211633   1.990   3.533   0.332
 3876TIP3    H111634   2.018   3.596   0.265
 3876TIP3    H211635   1.908   3.497   0.298
 3877TIP3   OH211636   3.819   5.947   2.622
 3877TIP3    H111637   3.868   5.948   2.540
 3877TIP3    H211638   3.730   5.924   2.596
 3878TIP3   OH211639   5.038   1.194   1.512
 3878TIP3    H111640   5.080   1.239   1.585
 3878TIP3    H211641   5.075   1.105   1.515
 3879TIP3   OH211642   0.721   3.121   0.235
 3879TIP3    H111643   0.775   3.060   0.185
 3879TIP3    H211644   0.724   3.087   0.325
 3880TIP3   OH211645   0.500   4.161   1.235
 3880TIP3    H111646   0.417   4.155   1.282
 3880TIP3    H211647   0.566   4.171   1.304
 3881TIP3   OH211648   0.507   3.019   3.655
 3881TIP3    H111649   0.507   2.947   3.592
 3881TIP3    H211650   0.437   3.077   3.624
 3882TIP3   OH211651   5.551   2.615   1.097
 3882TIP3    H111652   5.484   2.588   1.161
 3882TIP3    H211653   5.619   2.548   1.103
 3883TIP3   OH211654   0.300   1.622   1.832
 3883TIP3    H111655   0.365   1.656   1.770
 3883TIP3    H211656   0.344   1.549   1.875
 3884TIP3   OH211657   5.374   1.298   1.155
 3884TIP3    H111658   5.290   1.303   1.202
 3884TIP3    H211659   5.366   1.221   1.098
 3885TIP3   OH211660   3.871   4.532   0.060
 3885TIP3    H111661   3.955   4.536   0.013
 3885TIP3    H211662   3.805   4.539  -0.009
 3886TIP3   OH211663   2.013   4.262   4.722
 3886TIP3    H111664   2.030   4.355   4.704
 3886TIP3    H211665   1.927   4.262   4.765
 3887TIP3   OH211666   4.174   1.845   1.060
 3887TIP3    H111667   4.229   1.805   0.993
 3887TIP3    H211668   4.093   1.794   1.058
 3888TIP3   OH211669   2.195   5.660   5.106
 3888TIP3    H111670   2.130   5.592   5.122
 3888TIP3    H211671   2.262   5.617   5.053
 3889TIP3   OH211672   3.428   3.116   4.199
 3889TIP3    H111673   3.431   3.177   4.126
 3889TIP3    H211674   3.506   3.136   4.251
 3890TIP3   OH211675   5.850   2.638   2.400
 3890TIP3    H111676   5.821   2.606   2.485
 3890TIP3    H211677   5.863   2.732   2.412
 3891TIP3   OH211678   2.096   2.648   4.439
 3891TIP3    H111679   2.155   2.717   4.406
 3891TIP3    H211680   2.026   2.697   4.483
 3892TIP3   OH211681   2.800   1.681   0.688
 3892TIP3    H111682   2.771   1.660   0.777
 3892TIP3    H211683   2.879   1.733   0.701
 3893TIP3   OH211684   2.022   5.732   0.427
 3893TIP3    H111685   2.015   5.789   0.350
 3893TIP3    H211686   2.097   5.677   0.409
 3894TIP3   OH211687   4.269   4.806   4.908
 3894TIP3    H111688   4.235   4.725   4.947
 3894TIP3    H211689   4.203   4.872   4.930
 3895TIP3   OH211690   5.597   3.504   4.251
 3895TIP3    H111691   5.570   3.595   4.262
 3895TIP3    H211692   5.676   3.496   4.304
 3896TIP3   OH211693   0.452   2.711   0.939
 3896TIP3    H111694   0.422   2.784   0.993
 3896TIP3    H211695   0.403   2.718   0.858
 3897TIP3   OH211696   4.962   2.165   2.723
 3897TIP3    H111697   4.920   2.241   2.682
 3897TIP3    H211698   5.008   2.201   2.799
 3898TIP3   OH211699   3.887   4.190   3.761
 3898TIP3    H111700   3.868   4.220   3.672
 3898TIP3    H211701   3.898   4.271   3.811
 3899TIP3   OH211702   0.158   5.143   4.045
 3899TIP3    H111703   0.210   5.221   4.068
 3899TIP3    H211704   0.085   5.144   4.107
 3900TIP3   OH211705   0.796   1.443   4.549
 3900TIP3    H111706   0.826   1.474   4.634
 3900TIP3    H211707   0.872   1.451   4.492
 3901TIP3   OH211708   0.828   4.906   0.480
 3901TIP3    H111709   0.751   4.949   0.515
 3901TIP3    H211710   0.863   4.855   0.553
 3902TIP3   OH211711   0.228   3.248   0.309
 3902TIP3    H111712   0.184   3.296   0.239
 3902TIP3    H211713   0.175   3.265   0.386
 3903TIP3   OH211714   4.792   3.088   2.301
 3903TIP3    H111715   4.753   3.098   2.214
 3903TIP3    H211716   4.878   3.049   2.285
 3904TIP3   OH211717   4.006   5.112   1.343
 3904TIP3    H111718   4.012   5.205   1.321
 3904TIP3    H211719   4.096   5.084   1.358
 3905TIP3   OH211720   1.642   2.208   3.710
 3905TIP3    H111721   1.625   2.160   3.628
 3905TIP3    H211722   1.655   2.299   3.682
 3906TIP3   OH211723   4.934   2.603   4.992
 3906TIP3    H111724   4.843   2.578   5.008
 3906TIP3    H211725   4.936   2.697   5.009
 3907TIP3   OH211726   3.176   2.036   2.519
 3907TIP3    H111727   3.240   2.013   2.452
 3907TIP3    H211728   3.210   1.997   2.600
 3908TIP3   OH211729   6.038   4.931   4.792
 3908TIP3    H111730   6.045   5.010   4.844
 3908TIP3    H211731   5.965   4.883   4.831
 3909TIP3   OH211732   0.163   3.109   4.297
 3909TIP3    H111733   0.097   3.172   4.268
 3909TIP3    H211734   0.112   3.033   4.327
 3910TIP3   OH211735   1.019   3.668   1.628
 3910TIP3    H111736   0.937   3.666   1.678
 3910TIP3    H211737   1.048   3.577   1.626
 3911TIP3   OH211738   0.820   2.146   4.233
 3911TIP3    H111739   0.882   2.187   4.173
 3911TIP3    H211740   0.823   2.201   4.312
 3912TIP3   OH211741   5.705   0.262   4.756
 3912TIP3    H111742   5.745   0.181   4.725
 3912TIP3    H211743   5.721   0.263   4.850
 3913TIP3   OH211744   4.795   1.291   0.178
 3913TIP3    H111745   4.714   1.304   0.228
 3913TIP3    H211746   4.764   1.271   0.089
 3914TIP3   OH211747   5.395   4.212   3.803
 3914TIP3    H111748   5.431   4.280   3.746
 3914TIP3    H211749   5.418   4.130   3.759
 3915TIP3   OH211750   2.639   1.401   1.476
 3915TIP3    H111751   2.600   1.322   1.439
 3915TIP3    H211752   2.564   1.455   1.502
 3916TIP3   OH211753   3.589   2.657   0.018
 3916TIP3    H111754   3.506   2.634  -0.024
 3916TIP3    H211755   3.567   2.663   0.111
 3917TIP3   OH211756   3.592   0.528   0.984
 3917TIP3    H111757   3.660   0.594   0.971
 3917TIP3    H211758   3.518   0.559   0.932
 3918TIP3   OH211759   1.586   0.514   4.380
 3918TIP3    H111760   1.501   0.522   4.335
 3918TIP3    H211761   1.604   0.420   4.380
 3919TIP3   OH211762   2.587   3.810   1.632
 3919TIP3    H111763   2.583   3.895   1.589
 3919TIP3    H211764   2.524   3.756   1.585
 3920TIP3   OH211765   4.484   3.078   4.344
 3920TIP3    H111766   4.578   3.057   4.347
 3920TIP3    H211767   4.456   3.077   4.435
 3921TIP3   OH211768   2.959   4.439   2.252
 3921TIP3    H111769   2.875   4.430   2.206
 3921TIP3    H211770   2.981   4.349   2.277
 3922TIP3   OH211771   2.963   1.875   4.654
 3922TIP3    H111772   2.905   1.935   4.608
 3922TIP3    H211773   2.979   1.804   4.592
 3923TIP3   OH211774   4.129   1.630   4.659
 3923TIP3    H111775   4.221   1.608   4.642
 3923TIP3    H211776   4.122   1.632   4.754
 3924TIP3   OH211777   5.772   1.136   3.822
 3924TIP3    H111778   5.781   1.223   3.862
 3924TIP3    H211779   5.861   1.101   3.822
 3925TIP3   OH211780   5.759   1.567   2.356
 3925TIP3    H111781   5.802   1.561   2.271
 3925TIP3    H211782   5.705   1.489   2.361
 3926TIP3   OH211783   1.167   4.577   1.500
 3926TIP3    H111784   1.258   4.550   1.502
 3926TIP3    H211785   1.170   4.672   1.503
 3927TIP3   OH211786   5.684   2.424   4.668
 3927TIP3    H111787   5.764   2.371   4.667
 3927TIP3    H211788   5.658   2.431   4.576
 3928TIP3   OH211789   1.769   0.808   1.220
 3928TIP3    H111790   1.770   0.747   1.146
 3928TIP3    H211791   1.708   0.876   1.194
 3929TIP3   OH211792   1.785   1.218   1.378
 3929TIP3    H111793   1.704   1.260   1.350
 3929TIP3    H211794   1.775   1.205   1.472
 3930TIP3   OH211795   4.701   1.017   1.341
 3930TIP3    H111796   4.644   0.955   1.387
 3930TIP3    H211797   4.775   0.964   1.312
 3931TIP3   OH211798   0.594   4.165   0.799
 3931TIP3    H111799   0.669   4.150   0.741
 3931TIP3    H211800   0.524   4.112   0.762
 3932TIP3   OH211801   2.474   1.676   3.143
 3932TIP3    H111802   2.473   1.644   3.052
 3932TIP3    H211803   2.398   1.735   3.148
 3933TIP3   OH211804   2.530   2.897   0.061
 3933TIP3    H111805   2.448   2.894   0.111
 3933TIP3    H211806   2.508   2.946  -0.018
 3934TIP3   OH211807   4.140   1.121   4.712
 3934TIP3    H111808   4.048   1.113   4.685
 3934TIP3    H211809   4.156   1.215   4.718
 3935TIP3   OH211810   2.323   3.319   3.437
 3935TIP3    H111811   2.385   3.299   3.508
 3935TIP3    H211812   2.362   3.395   3.393
 3936TIP3   OH211813   2.524   3.537   0.104
 3936TIP3    H111814   2.462   3.503   0.040
 3936TIP3    H211815   2.472   3.546   0.185
 3937TIP3   OH211816   1.929   4.025   1.226
 3937TIP3    H111817   2.024   4.026   1.236
 3937TIP3    H211818   1.915   4.040   1.133
 3938TIP3   OH211819   4.993   3.087   4.002
 3938TIP3    H111820   5.055   3.132   3.944
 3938TIP3    H211821   4.974   3.151   4.070
 3939TIP3   OH211822   3.085   0.967   3.206
 3939TIP3    H111823   3.142   1.036   3.242
 3939TIP3    H211824   3.045   1.007   3.129
 3940TIP3   OH211825   4.334   5.031   3.727
 3940TIP3    H111826   4.278   4.953   3.736
 3940TIP3    H211827   4.300   5.092   3.792
 3941TIP3   OH211828   4.217   3.470   4.741
 3941TIP3    H111829   4.222   3.392   4.686
 3941TIP3    H211830   4.305   3.506   4.739
 3942TIP3   OH211831   3.400   5.819   3.219
 3942TIP3    H111832   3.320   5.836   3.170
 3942TIP3    H211833   3.465   5.799   3.152
 3943TIP3   OH211834   2.575   5.122   1.928
 3943TIP3    H111835   2.576   5.211   1.892
 3943TIP3    H211836   2.619   5.130   2.013
 3944TIP3   OH211837   3.619   3.879   3.337
 3944TIP3    H111838   3.711   3.885   3.361
 3944TIP3    H211839   3.591   3.792   3.368
 3945TIP3   OH211840   3.429   4.221   3.269
 3945TIP3    H111841   3.359   4.231   3.334
 3945TIP3    H211842   3.430   4.127   3.251
 3946TIP3   OH211843   4.297   1.272   3.002
 3946TIP3    H111844   4.217   1.260   3.053
 3946TIP3    H211845   4.292   1.362   2.970
 3947TIP3   OH211846   3.614   0.490   3.847
 3947TIP3    H111847   3.561   0.445   3.781
 3947TIP3    H211848   3.647   0.419   3.903
 3948TIP3   OH211849   3.226   1.696   2.466
 3948TIP3    H111850   3.255   1.702   2.375
 3948TIP3    H211851   3.227   1.787   2.497
 3949TIP3   OH211852   0.601   4.702   0.569
 3949TIP3    H111853   0.593   4.757   0.491
 3949TIP3    H211854   0.537   4.739   0.630
 3950TIP3   OH211855   0.388   0.401   4.614
 3950TIP3    H111856   0.411   0.432   4.527
 3950TIP3    H211857   0.300   0.366   4.605
 3951TIP3   OH211858   2.062   4.819   1.449
 3951TIP3    H111859   1.973   4.847   1.426
 3951TIP3    H211860   2.112   4.831   1.368
 3952TIP3   OH211861   1.784   2.564   0.598
 3952TIP3    H111862   1.780   2.551   0.693
 3952TIP3    H211863   1.805   2.477   0.563
 3953TIP3   OH211864   2.580   5.478   2.012
 3953TIP3    H111865   2.577   5.493   1.918
 3953TIP3    H211866   2.671   5.456   2.030
 3954TIP3   OH211867   4.143   4.800   2.077
 3954TIP3    H111868   4.182   4.731   2.024
 3954TIP3    H211869   4.174   4.783   2.166
 3955TIP3   OH211870   6.229   4.432   3.240
 3955TIP3    H111871   6.202   4.495   3.173
 3955TIP3    H211872   6.313   4.466   3.272
 3956TIP3   OH211873   5.208   2.599   5.147
 3956TIP3    H111874   5.132   2.585   5.090
 3956TIP3    H211875   5.278   2.628   5.088
 3957TIP3   OH211876   2.693   5.859   2.832
 3957TIP3    H111877   2.765   5.887   2.887
 3957TIP3    H211878   2.729   5.786   2.780
 3958TIP3   OH211879   5.869   4.699   1.225
 3958TIP3    H111880   5.887   4.621   1.277
 3958TIP3    H211881   5.778   4.720   1.244
 3959TIP3   OH211882   5.119   5.826   0.334
 3959TIP3    H111883   5.087   5.833   0.244
 3959TIP3    H211884   5.128   5.732   0.350
 3960TIP3   OH211885   4.886   5.113   1.446
 3960TIP3    H111886   4.911   5.047   1.382
 3960TIP3    H211887   4.849   5.185   1.395
 3961TIP3   OH211888   2.835   4.711   3.158
 3961TIP3    H111889   2.873   4.626   3.136
 3961TIP3    H211890   2.824   4.755   3.073
 3962TIP3   OH211891   2.700   2.194   2.268
 3962TIP3    H111892   2.676   2.272   2.319
 3962TIP3    H211893   2.793   2.208   2.247
 3963TIP3   OH211894   4.656   0.435   2.538
 3963TIP3    H111895   4.737   0.403   2.500
 3963TIP3    H211896   4.677   0.523   2.571
 3964TIP3   OH211897   0.582   2.412   4.550
 3964TIP3    H111898   0.530   2.492   4.543
 3964TIP3    H211899   0.618   2.413   4.638
 3965TIP3   OH211900   3.729   1.633   3.706
 3965TIP3    H111901   3.783   1.554   3.719
 3965TIP3    H211902   3.781   1.687   3.646
 3966TIP3   OH211903   0.007   4.214   2.061
 3966TIP3    H111904   0.034   4.201   2.152
 3966TIP3    H211905   0.089   4.211   2.012
 3967TIP3   OH211906   0.764   3.141   4.030
 3967TIP3    H111907   0.838   3.181   4.076
 3967TIP3    H211908   0.704   3.214   4.013
 3968TIP3   OH211909   1.927   1.993   0.162
 3968TIP3    H111910   2.017   1.996   0.195
 3968TIP3    H211911   1.919   1.907   0.122
 3969TIP3   OH211912   2.371   3.304   1.277
 3969TIP3    H111913   2.375   3.367   1.349
 3969TIP3    H211914   2.284   3.316   1.240
 3970TIP3   OH211915   0.411   5.818   3.162
 3970TIP3    H111916   0.322   5.835   3.131
 3970TIP3    H211917   0.400   5.784   3.251
 3971TIP3   OH211918   3.414   1.691   2.204
 3971TIP3    H111919   3.496   1.691   2.155
 3971TIP3    H211920   3.352   1.645   2.148
 3972TIP3   OH211921   4.976   4.183   1.218
 3972TIP3    H111922   5.024   4.261   1.189
 3972TIP3    H211923   4.950   4.140   1.136
 3973TIP3   OH211924   5.140   3.485   3.706
 3973TIP3    H111925   5.146   3.573   3.670
 3973TIP3    H211926   5.082   3.438   3.646
 3974TIP3   OH211927   6.236   1.629   4.795
 3974TIP3    H111928   6.241   1.687   4.871
 3974TIP3    H211929   6.312   1.571   4.804
 3975TIP3   OH211930   1.785   3.264   1.619
 3975TIP3    H111931   1.694   3.293   1.626
 3975TIP3    H211932   1.837   3.343   1.632
 3976TIP3   OH211933   1.509   0.817   1.426
 3976TIP3    H111934   1.430   0.810   1.479
 3976TIP3    H211935   1.574   0.763   1.473
 3977TIP3   OH211936   4.001   5.087   3.043
 3977TIP3    H111937   4.029   4.995   3.034
 3977TIP3    H211938   4.079   5.133   3.074
 3978TIP3   OH211939   1.343   0.323   3.238
 3978TIP3    H111940   1.340   0.227   3.237
 3978TIP3    H211941   1.434   0.344   3.215
 3979TIP3   OH211942   2.793   5.228   3.732
 3979TIP3    H111943   2.845   5.155   3.767
 3979TIP3    H211944   2.736   5.186   3.666
 3980TIP3   OH211945   2.602   3.619   3.533
 3980TIP3    H111946   2.610   3.535   3.578
 3980TIP3    H211947   2.574   3.680   3.602
 3981TIP3   OH211948   2.823   0.069   4.718
 3981TIP3    H111949   2.742   0.112   4.691
 3981TIP3    H211950   2.796  -0.017   4.750
 3982TIP3   OH211951   3.456   1.517   2.811
 3982TIP3    H111952   3.490   1.502   2.722
 3982TIP3    H211953   3.459   1.612   2.823
 3983TIP3   OH211954   3.989   5.405   2.066
 3983TIP3    H111955   4.012   5.400   1.974
 3983TIP3    H211956   4.047   5.341   2.109
 3984TIP3   OH211957   4.043   2.952   0.253
 3984TIP3    H111958   4.002   2.958   0.340
 3984TIP3    H211959   4.098   3.030   0.247
 3985TIP3   OH211960   5.237   2.691   0.164
 3985TIP3    H111961   5.201   2.710   0.251
 3985TIP3    H211962   5.162   2.658   0.114
 3986TIP3   OH211963   4.825   3.285   3.720
 3986TIP3    H111964   4.809   3.337   3.799
 3986TIP3    H211965   4.751   3.225   3.716
 3987TIP3   OH211966   4.391   0.421   1.287
 3987TIP3    H111967   4.420   0.333   1.312
 3987TIP3    H211968   4.341   0.452   1.363
 3988TIP3   OH211969   5.168   5.075   1.100
 3988TIP3    H111970   5.156   5.167   1.122
 3988TIP3    H211971   5.096   5.030   1.145
 3989TIP3   OH211972   5.446   1.882   2.875
 3989TIP3    H111973   5.534   1.845   2.866
 3989TIP3    H211974   5.387   1.812   2.846
 3990TIP3   OH211975   5.512   1.311   3.159
 3990TIP3    H111976   5.577   1.367   3.117
 3990TIP3    H211977   5.483   1.252   3.090
 3991TIP3   OH211978   5.717   1.544   0.433
 3991TIP3    H111979   5.664   1.465   0.429
 3991TIP3    H211980   5.660   1.610   0.472
 3992TIP3   OH211981   0.406   1.682   0.063
 3992TIP3    H111982   0.408   1.595   0.104
 3992TIP3    H211983   0.331   1.678   0.003
 3993TIP3   OH211984   1.614   4.252   2.286
 3993TIP3    H111985   1.600   4.319   2.353
 3993TIP3    H211986   1.665   4.183   2.330
 3994TIP3   OH211987   5.358   3.161   2.128
 3994TIP3    H111988   5.324   3.244   2.161
 3994TIP3    H211989   5.432   3.185   2.073
 3995TIP3   OH211990   1.675   0.652   4.597
 3995TIP3    H111991   1.611   0.614   4.657
 3995TIP3    H211992   1.652   0.617   4.511
 3996TIP3   OH211993   1.404   3.840   4.429
 3996TIP3    H111994   1.332   3.809   4.483
 3996TIP3    H211995   1.371   3.835   4.339
 3997TIP3   OH211996   5.914   4.515   3.549
 3997TIP3    H111997   5.872   4.601   3.558
 3997TIP3    H211998   5.842   4.453   3.549
 3998TIP3   OH211999   5.247   3.220   0.128
 3998TIP3    H112000   5.216   3.133   0.101
 3998TIP3    H212001   5.302   3.249   0.056
 3999TIP3   OH212002   0.599   1.567   1.287
 3999TIP3    H112003   0.521   1.516   1.265
 3999TIP3    H212004   0.579   1.655   1.256
 4000TIP3   OH212005   0.515   3.813   1.820
 4000TIP3    H112006   0.434   3.763   1.812
 4000TIP3    H212007   0.506   3.884   1.756
 4001TIP3   OH212008   2.753   3.409   2.594
 4001TIP3    H112009   2.663   3.434   2.575
 4001TIP3    H212010   2.767   3.440   2.684
 4002TIP3   OH212011   3.936   5.109   1.701
 4002TIP3    H112012   3.939   5.181   1.637
 4002TIP3    H212013   3.970   5.033   1.654
 4003TIP3   OH212014   6.019   5.075   4.566
 4003TIP3    H112015   6.071   5.021   4.506
 4003TIP3    H212016   6.025   5.030   4.650
 4004TIP3   OH212017   0.748   5.846   0.289
 4004TIP3    H112018   0.781   5.908   0.354
 4004TIP3    H212019   0.654   5.840   0.306
 4005TIP3   OH212020   5.315   4.170   0.926
 4005TIP3    H112021   5.295   4.259   0.896
 4005TIP3    H212022   5.265   4.114   0.867
 4006TIP3   OH212023   0.609   5.436   3.176
 4006TIP3    H112024   0.636   5.523   3.147
 4006TIP3    H212025   0.674   5.412   3.242
 4007TIP3   OH212026   0.251   2.465   2.816
 4007TIP3    H112027   0.257   2.554   2.851
 4007TIP3    H212028   0.266   2.409   2.891
 4008TIP3   OH212029   4.427   4.386   0.596
 4008TIP3    H112030   4.352   4.332   0.569
 4008TIP3    H212031   4.468   4.336   0.666
 4009TIP3   OH212032   1.793   5.057   3.437
 4009TIP3    H112033   1.804   5.083   3.345
 4009TIP3    H212034   1.843   5.122   3.486
 4010TIP3   OH212035   6.008   2.972   4.316
 4010TIP3    H112036   5.930   2.971   4.260
 4010TIP3    H212037   5.991   2.904   4.381
 4011TIP3   OH212038   1.907   1.728   0.052
 4011TIP3    H112039   1.837   1.669   0.079
 4011TIP3    H212040   1.930   1.699  -0.036
 4012TIP3   OH212041   3.090   4.791   4.837
 4012TIP3    H112042   3.096   4.700   4.809
 4012TIP3    H212043   2.999   4.815   4.822
 4013TIP3   OH212044   0.429   0.824   3.763
 4013TIP3    H112045   0.475   0.790   3.686
 4013TIP3    H212046   0.398   0.746   3.809
 4014TIP3   OH212047   0.433   5.283   0.563
 4014TIP3    H112048   0.347   5.273   0.523
 4014TIP3    H212049   0.485   5.330   0.498
 4015TIP3   OH212050   1.539   1.617   5.080
 4015TIP3    H112051   1.468   1.613   5.143
 4015TIP3    H212052   1.529   1.701   5.036
 4016TIP3   OH212053   5.549   4.371   2.278
 4016TIP3    H112054   5.589   4.299   2.326
 4016TIP3    H212055   5.465   4.385   2.322
 4017TIP3   OH212056   0.613   1.206   2.636
 4017TIP3    H112057   0.612   1.110   2.644
 4017TIP3    H212058   0.525   1.233   2.664
 4018TIP3   OH212059   5.547   5.786   3.246
 4018TIP3    H112060   5.551   5.866   3.195
 4018TIP3    H212061   5.571   5.812   3.335
 4019TIP3   OH212062   5.101   0.869   0.161
 4019TIP3    H112063   5.089   0.955   0.200
 4019TIP3    H212064   5.013   0.831   0.160
 4020TIP3   OH212065   4.590   3.394   2.976
 4020TIP3    H112066   4.614   3.302   2.990
 4020TIP3    H212067   4.671   3.442   2.990
 4021TIP3   OH212068   2.351   4.589   4.192
 4021TIP3    H112069   2.312   4.530   4.257
 4021TIP3    H212070   2.400   4.531   4.134
 4022TIP3   OH212071   3.819   0.513   3.215
 4022TIP3    H112072   3.759   0.579   3.179
 4022TIP3    H212073   3.770   0.472   3.286
 4023TIP3   OH212074   5.942   0.278   3.589
 4023TIP3    H112075   6.005   0.345   3.617
 4023TIP3    H212076   5.969   0.199   3.636
 4024TIP3   OH212077   0.980   2.137   0.996
 4024TIP3    H112078   0.947   2.136   0.906
 4024TIP3    H212079   1.075   2.145   0.986
 4025TIP3   OH212080   2.001   5.534   3.269
 4025TIP3    H112081   1.955   5.468   3.218
 4025TIP3    H212082   2.078   5.490   3.303
 4026TIP3   OH212083   2.582   0.865   4.645
 4026TIP3    H112084   2.595   0.831   4.733
 4026TIP3    H212085   2.586   0.961   4.655
 4027TIP3   OH212086   1.846   0.284   2.183
 4027TIP3    H112087   1.761   0.249   2.156
 4027TIP3    H212088   1.903   0.268   2.108
 4028TIP3   OH212089   3.691   0.904   1.872
 4028TIP3    H112090   3.675   0.902   1.777
 4028TIP3    H212091   3.640   0.978   1.904
 4029TIP3   OH212092   1.962   3.153   4.530
 4029TIP3    H112093   1.993   3.182   4.616
 4029TIP3    H212094   1.904   3.223   4.500
 4030TIP3   OH212095   5.714   5.504   0.293
 4030TIP3    H112096   5.694   5.581   0.241
 4030TIP3    H212097   5.797   5.526   0.337
 4031TIP3   OH212098   4.237   5.578   1.919
 4031TIP3    H112099   4.172   5.514   1.888
 4031TIP3    H212100   4.318   5.554   1.873
 4032TIP3   OH212101   0.236   3.801   3.771
 4032TIP3    H112102   0.242   3.884   3.724
 4032TIP3    H212103   0.178   3.747   3.717
 4033TIP3   OH212104   2.078   1.856   0.833
 4033TIP3    H112105   2.118   1.895   0.755
 4033TIP3    H212106   2.096   1.762   0.825
 4034TIP3   OH212107   5.565   5.062   2.249
 4034TIP3    H112108   5.519   5.015   2.319
 4034TIP3    H212109   5.656   5.033   2.256
 4035TIP3   OH212110   2.175   0.149   2.327
 4035TIP3    H112111   2.252   0.142   2.271
 4035TIP3    H212112   2.143   0.059   2.335
 4036TIP3   OH212113   5.771   1.072   1.200
 4036TIP3    H112114   5.719   1.023   1.135
 4036TIP3    H212115   5.726   1.157   1.206
 4037TIP3   OH212116   6.229   3.131   4.890
 4037TIP3    H112117   6.164   3.090   4.832
 4037TIP3    H212118   6.219   3.225   4.874
 4038TIP3   OH212119   4.920   5.806   4.595
 4038TIP3    H112120   5.002   5.819   4.547
 4038TIP3    H212121   4.860   5.771   4.530
 4039TIP3   OH212122   5.834   2.150   4.415
 4039TIP3    H112123   5.842   2.195   4.498
 4039TIP3    H212124   5.924   2.134   4.386
 4040TIP3   OH212125   2.797   0.296   0.100
 4040TIP3    H112126   2.813   0.236   0.027
 4040TIP3    H212127   2.783   0.381   0.058
 4041TIP3   OH212128   5.656   1.052   0.380
 4041TIP3    H112129   5.711   1.121   0.417
 4041TIP3    H212130   5.604   1.096   0.313
 4042TIP3   OH212131   1.609   5.622   4.628
 4042TIP3    H112132   1.597   5.675   4.707
 4042TIP3    H212133   1.681   5.665   4.581
 4043TIP3   OH212134   2.112   3.933   3.742
 4043TIP3    H112135   2.134   3.864   3.804
 4043TIP3    H212136   2.017   3.942   3.749
 4044TIP3   OH212137   1.119   3.444   1.941
 4044TIP3    H112138   1.061   3.420   1.869
 4044TIP3    H212139   1.178   3.370   1.950
 4045TIP3   OH212140   5.212   1.680   1.598
 4045TIP3    H112141   5.208   1.771   1.569
 4045TIP3    H212142   5.122   1.659   1.625
 4046TIP3   OH212143   2.054   4.163   4.465
 4046TIP3    H112144   2.148   4.174   4.449
 4046TIP3    H212145   2.040   4.197   4.553
 4047TIP3   OH212146   4.922   5.537   1.008
 4047TIP3    H112147   4.951   5.506   1.093
 4047TIP3    H212148   4.855   5.603   1.027
 4048TIP3   OH212149   4.464   2.805   2.358
 4048TIP3    H112150   4.420   2.756   2.428
 4048TIP3    H212151   4.472   2.742   2.287
 4049TIP3   OH212152   2.797   1.140   5.183
 4049TIP3    H112153   2.751   1.216   5.145
 4049TIP3    H212154   2.771   1.067   5.127
 4050TIP3   OH212155   5.983   3.565   0.745
 4050TIP3    H112156   5.921   3.529   0.808
 4050TIP3    H212157   5.929   3.593   0.671
 4051TIP3   OH212158   3.099   3.050   1.690
 4051TIP3    H112159   3.081   3.041   1.783
 4051TIP3    H212160   3.161   2.980   1.670
 4052TIP3   OH212161   4.733   0.757   1.133
 4052TIP3    H112162   4.780   0.754   1.216
 4052TIP3    H212163   4.641   0.769   1.157
 4053TIP3   OH212164   5.717   3.824   4.960
 4053TIP3    H112165   5.787   3.759   4.955
 4053TIP3    H212166   5.663   3.807   4.882
 4054TIP3   OH212167   1.340   5.817   2.834
 4054TIP3    H112168   1.338   5.792   2.742
 4054TIP3    H212169   1.405   5.757   2.873
 4055TIP3   OH212170   0.698   3.264   5.083
 4055TIP3    H112171   0.783   3.244   5.121
 4055TIP3    H212172   0.640   3.196   5.117
 4056TIP3   OH212173   2.562   4.276   0.757
 4056TIP3    H112174   2.493   4.342   0.760
 4056TIP3    H212175   2.609   4.288   0.840
 4057TIP3   OH212176   4.097   1.400   4.257
 4057TIP3    H112177   4.192   1.398   4.265
 4057TIP3    H212178   4.066   1.345   4.328
 4058TIP3   OH212179   1.010   0.579   4.341
 4058TIP3    H112180   1.004   0.484   4.349
 4058TIP3    H212181   0.930   0.611   4.384
 4059TIP3   OH212182   1.622   2.977   1.419
 4059TIP3    H112183   1.534   3.014   1.418
 4059TIP3    H212184   1.609   2.884   1.401
 4060TIP3   OH212185   6.308   5.759   1.499
 4060TIP3    H112186   6.297   5.844   1.541
 4060TIP3    H212187   6.270   5.697   1.562
 4061TIP3   OH212188   2.002   3.789   3.244
 4061TIP3    H112189   1.961   3.768   3.160
 4061TIP3    H212190   1.929   3.818   3.299
 4062TIP3   OH212191   0.963   2.445   3.846
 4062TIP3    H112192   0.933   2.508   3.780
 4062TIP3    H212193   0.920   2.363   3.823
 4063TIP3   OH212194   0.239   2.292   1.875
 4063TIP3    H112195   0.165   2.250   1.918
 4063TIP3    H212196   0.312   2.232   1.890
 4064TIP3   OH212197   1.010   5.199   3.278
 4064TIP3    H112198   1.067   5.175   3.205
 4064TIP3    H212199   1.070   5.223   3.349
 4065TIP3   OH212200   0.191   2.098   4.886
 4065TIP3    H112201   0.178   2.015   4.839
 4065TIP3    H212202   0.283   2.118   4.873
 4066TIP3   OH212203   0.736   0.756   3.549
 4066TIP3    H112204   0.806   0.800   3.597
 4066TIP3    H212205   0.700   0.693   3.611
 4067TIP3   OH212206   5.968   0.987   0.457
 4067TIP3    H112207   5.997   0.938   0.534
 4067TIP3    H212208   5.896   1.041   0.489
 4068TIP3   OH212209   4.135   5.433   3.224
 4068TIP3    H112210   4.109   5.361   3.282
 4068TIP3    H212211   4.230   5.428   3.221
 4069TIP3   OH212212   0.683   6.001   1.273
 4069TIP3    H112213   0.699   5.931   1.336
 4069TIP3    H212214   0.704   5.962   1.188
 4070TIP3   OH212215   1.988   3.027   3.260
 4070TIP3    H112216   1.922   3.012   3.327
 4070TIP3    H212217   1.942   3.013   3.177
 4071TIP3   OH212218   4.814   5.934   4.838
 4071TIP3    H112219   4.778   5.845   4.838
 4071TIP3    H212220   4.854   5.943   4.751
 4072TIP3   OH212221   2.652   1.378   4.537
 4072TIP3    H112222   2.663   1.429   4.618
 4072TIP3    H212223   2.740   1.353   4.512
 4073TIP3   OH212224   5.750   4.428   2.729
 4073TIP3    H112225   5.692   4.361   2.765
 4073TIP3    H212226   5.753   4.496   2.796
 4074TIP3   OH212227   6.049   3.445   3.200
 4074TIP3    H112228   5.957   3.421   3.212
 4074TIP3    H212229   6.094   3.362   3.190
 4075TIP3   OH212230   2.839   3.887   3.249
 4075TIP3    H112231   2.822   3.804   3.293
 4075TIP3    H212232   2.916   3.923   3.293
 4076TIP3   OH212233   2.250   3.702   0.886
 4076TIP3    H112234   2.192   3.679   0.813
 4076TIP3    H212235   2.338   3.682   0.854
 4077TIP3   OH212236   3.623   1.706   4.524
 4077TIP3    H112237   3.696   1.664   4.570
 4077TIP3    H212238   3.546   1.682   4.575
 4078TIP3   OH212239   2.657   4.775   0.756
 4078TIP3    H112240   2.667   4.725   0.836
 4078TIP3    H212241   2.684   4.714   0.686
 4079TIP3   OH212242   0.816   0.385   0.022
 4079TIP3    H112243   0.910   0.404   0.022
 4079TIP3    H212244   0.810   0.296   0.058
 4080TIP3   OH212245   6.016   4.655   4.133
 4080TIP3    H112246   6.010   4.638   4.039
 4080TIP3    H212247   5.981   4.575   4.174
 4081TIP3   OH212248   1.854   3.601   1.928
 4081TIP3    H112249   1.794   3.637   1.863
 4081TIP3    H212250   1.852   3.663   2.000
 4082TIP3   OH212251   2.943   2.265   1.317
 4082TIP3    H112252   2.862   2.302   1.354
 4082TIP3    H212253   2.922   2.249   1.225
 4083TIP3   OH212254   0.141   2.197   3.942
 4083TIP3    H112255   0.075   2.137   3.906
 4083TIP3    H212256   0.224   2.160   3.913
 4084TIP3   OH212257   6.269   0.663   2.759
 4084TIP3    H112258   6.317   0.645   2.678
 4084TIP3    H212259   6.324   0.626   2.828
 4085TIP3   OH212260   4.658   0.120   1.552
 4085TIP3    H112261   4.664   0.059   1.625
 4085TIP3    H212262   4.595   0.186   1.580
 4086TIP3   OH212263   3.839   4.217   5.055
 4086TIP3    H112264   3.830   4.141   5.112
 4086TIP3    H212265   3.786   4.196   4.978
 4087TIP3   OH212266   1.160   1.216   4.448
 4087TIP3    H112267   1.146   1.159   4.373
 4087TIP3    H212268   1.122   1.169   4.522
 4088TIP3   OH212269   5.112   5.332   4.844
 4088TIP3    H112270   5.028   5.375   4.826
 4088TIP3    H212271   5.093   5.269   4.913
 4089TIP3   OH212272   0.593   2.423   2.772
 4089TIP3    H112273   0.522   2.359   2.765
 4089TIP3    H212274   0.551   2.501   2.810
 4090TIP3   OH212275   5.935   5.600   0.452
 4090TIP3    H112276   5.933   5.677   0.508
 4090TIP3    H212277   6.025   5.597   0.418
 4091TIP3   OH212278   3.984   3.313   1.513
 4091TIP3    H112279   3.928   3.388   1.493
 4091TIP3    H212280   3.923   3.243   1.536
 4092TIP3   OH212281   6.358   5.579   3.509
 4092TIP3    H112282   6.284   5.525   3.537
 4092TIP3    H212283   6.354   5.577   3.414
 4093TIP3   OH212284   5.239   2.430   0.984
 4093TIP3    H112285   5.188   2.475   1.051
 4093TIP3    H212286   5.270   2.350   1.026
 4094TIP3   OH212287   4.417   2.636  -0.038
 4094TIP3    H112288   4.364   2.619   0.040
 4094TIP3    H212289   4.475   2.708  -0.013
 4095TIP3   OH212290   2.189   5.641   4.765
 4095TIP3    H112291   2.208   5.732   4.744
 4095TIP3    H212292   2.265   5.611   4.814
 4096TIP3   OH212293   3.382   5.457   4.900
 4096TIP3    H112294   3.466   5.448   4.946
 4096TIP3    H212295   3.386   5.393   4.829
 4097TIP3   OH212296   5.647   2.329   0.633
 4097TIP3    H112297   5.584   2.316   0.704
 4097TIP3    H212298   5.613   2.403   0.583
 4098TIP3   OH212299   3.268   0.103   5.046
 4098TIP3    H112300   3.274   0.190   5.085
 4098TIP3    H212301   3.282   0.042   5.118
 4099TIP3   OH212302   5.941   3.185   3.022
 4099TIP3    H112303   5.884   3.122   3.066
 4099TIP3    H212304   6.024   3.180   3.070
 4100TIP3   OH212305   1.255   0.911   1.212
 4100TIP3    H112306   1.178   0.898   1.156
 4100TIP3    H212307   1.291   0.824   1.225
 4101TIP3   OH212308   0.443   0.995   0.621
 4101TIP3    H112309   0.363   1.001   0.672
 4101TIP3    H212310   0.427   1.050   0.544
 4102TIP3   OH212311   1.540   5.337   1.657
 4102TIP3    H112312   1.622   5.289   1.660
 4102TIP3    H212313   1.553   5.410   1.718
 4103TIP3   OH212314   4.054   0.259   4.273
 4103TIP3    H112315   3.982   0.276   4.212
 4103TIP3    H212316   4.107   0.192   4.231
 4104TIP3   OH212317   1.159   0.626   4.118
 4104TIP3    H112318   1.087   0.614   4.181
 4104TIP3    H212319   1.117   0.616   4.032
 4105TIP3   OH212320   6.210   1.720   2.115
 4105TIP3    H112321   6.214   1.634   2.157
 4105TIP3    H212322   6.277   1.716   2.046
 4106TIP3   OH212323   5.453   1.213   1.936
 4106TIP3    H112324   5.508   1.290   1.948
 4106TIP3    H212325   5.496   1.144   1.986
 4107TIP3   OH212326   2.261   3.108   4.981
 4107TIP3    H112327   2.303   3.103   4.895
 4107TIP3    H212328   2.316   3.055   5.039
 4108TIP3   OH212329   3.472   3.457   1.972
 4108TIP3    H112330   3.539   3.391   1.988
 4108TIP3    H212331   3.521   3.535   1.947
 4109TIP3   OH212332   2.556   3.519   0.477
 4109TIP3    H112333   2.610   3.442   0.459
 4109TIP3    H212334   2.470   3.497   0.442
 4110TIP3   OH212335   4.505   0.740   2.825
 4110TIP3    H112336   4.475   0.677   2.891
 4110TIP3    H212337   4.454   0.819   2.843
 4111TIP3   OH212338   4.452   0.567   3.018
 4111TIP3    H112339   4.496   0.503   3.073
 4111TIP3    H212340   4.392   0.514   2.964
 4112TIP3   OH212341   4.014   4.198   4.636
 4112TIP3    H112342   3.968   4.122   4.600
 4112TIP3    H212343   4.090   4.161   4.680
 4113TIP3   OH212344   1.602   4.485   4.664
 4113TIP3    H112345   1.599   4.578   4.642
 4113TIP3    H212346   1.630   4.442   4.584
 4114TIP3   OH212347   2.741   5.122   2.149
 4114TIP3    H112348   2.808   5.137   2.215
 4114TIP3    H212349   2.710   5.033   2.166
 4115TIP3   OH212350   5.271   0.093   0.131
 4115TIP3    H112351   5.233   0.164   0.080
 4115TIP3    H212352   5.316   0.039   0.065
 4116TIP3   OH212353   3.456   1.603   0.601
 4116TIP3    H112354   3.481   1.678   0.546
 4116TIP3    H212355   3.388   1.559   0.551
 4117TIP3   OH212356   3.744   1.626   3.070
 4117TIP3    H112357   3.814   1.691   3.060
 4117TIP3    H212358   3.730   1.619   3.164
 4118TIP3   OH212359   5.986   1.956   4.852
 4118TIP3    H112360   6.069   1.933   4.893
 4118TIP3    H212361   5.923   1.893   4.887
 4119TIP3   OH212362   1.021   5.024   4.952
 4119TIP3    H112363   0.955   4.968   4.993
 4119TIP3    H212364   0.986   5.112   4.959
 4120TIP3   OH212365   1.522   0.521   1.608
 4120TIP3    H112366   1.454   0.581   1.638
 4120TIP3    H212367   1.600   0.547   1.658
 4121TIP3   OH212368   3.822   1.730   2.666
 4121TIP3    H112369   3.788   1.708   2.579
 4121TIP3    H212370   3.746   1.761   2.714
 4122TIP3   OH212371   5.862   2.755   3.168
 4122TIP3    H112372   5.855   2.686   3.233
 4122TIP3    H212373   5.954   2.783   3.172
 4123TIP3   OH212374   5.649   4.094   5.052
 4123TIP3    H112375   5.697   4.025   5.006
 4123TIP3    H212376   5.703   4.173   5.040
 4124TIP3   OH212377   5.365   1.044   0.092
 4124TIP3    H112378   5.388   0.971   0.034
 4124TIP3    H212379   5.336   1.003   0.173
 4125TIP3   OH212380   3.301   2.886   2.818
 4125TIP3    H112381   3.254   2.815   2.861
 4125TIP3    H212382   3.374   2.843   2.772
 4126TIP3   OH212383   5.936   1.931   5.129
 4126TIP3    H112384   5.863   1.976   5.086
 4126TIP3    H212385   6.006   1.997   5.132
 4127TIP3   OH212386   3.940   5.750   1.755
 4127TIP3    H112387   3.937   5.843   1.733
 4127TIP3    H212388   3.983   5.747   1.840
 4128TIP3   OH212389   1.400   4.307   4.746
 4128TIP3    H112390   1.449   4.385   4.719
 4128TIP3    H212391   1.411   4.246   4.674
 4129TIP3   OH212392   5.714   4.594   0.444
 4129TIP3    H112393   5.713   4.603   0.539
 4129TIP3    H212394   5.788   4.648   0.416
 4130TIP3   OH212395   3.295   0.644   2.151
 4130TIP3    H112396   3.272   0.552   2.137
 4130TIP3    H212397   3.232   0.675   2.216
 4131TIP3   OH212398   2.634   3.989   3.690
 4131TIP3    H112399   2.727   3.981   3.712
 4131TIP3    H212400   2.588   3.944   3.762
 4132TIP3   OH212401   5.288   2.146   4.883
 4132TIP3    H112402   5.380   2.167   4.865
 4132TIP3    H212403   5.251   2.126   4.798
 4133TIP3   OH212404   3.218   0.059   4.371
 4133TIP3    H112405   3.162   0.068   4.448
 4133TIP3    H212406   3.306   0.052   4.407
 4134TIP3   OH212407   6.335   2.677   1.936
 4134TIP3    H112408   6.263   2.698   1.995
 4134TIP3    H212409   6.313   2.591   1.900
 4135TIP3   OH212410   0.564   3.890   2.652
 4135TIP3    H112411   0.587   3.800   2.631
 4135TIP3    H212412   0.591   3.940   2.575
 4136TIP3   OH212413   1.421   5.479   3.640
 4136TIP3    H112414   1.384   5.482   3.729
 4136TIP3    H212415   1.489   5.412   3.645
 4137TIP3   OH212416   3.607   4.441   3.263
 4137TIP3    H112417   3.516   4.424   3.288
 4137TIP3    H212418   3.654   4.362   3.288
 4138TIP3   OH212419   5.866   0.374   5.157
 4138TIP3    H112420   5.790   0.428   5.134
 4138TIP3    H212421   5.940   0.419   5.116
 4139TIP3   OH212422   4.891   2.756   3.368
 4139TIP3    H112423   4.916   2.808   3.292
 4139TIP3    H212424   4.805   2.790   3.393
 4140TIP3   OH212425   3.734   1.296   3.158
 4140TIP3    H112426   3.657   1.303   3.101
 4140TIP3    H212427   3.701   1.260   3.240
 4141TIP3   OH212428   5.800   5.823   2.644
 4141TIP3    H112429   5.850   5.903   2.660
 4141TIP3    H212430   5.709   5.849   2.660
 4142TIP3   OH212431   3.127   3.838   0.439
 4142TIP3    H112432   3.133   3.886   0.357
 4142TIP3    H212433   3.042   3.793   0.434
 4143TIP3   OH212434   6.344   5.280   4.212
 4143TIP3    H112435   6.363   5.279   4.306
 4143TIP3    H212436   6.375   5.365   4.182
 4144TIP3   OH212437   4.876   2.553   2.177
 4144TIP3    H112438   4.874   2.561   2.272
 4144TIP3    H212439   4.808   2.489   2.157
 4145TIP3   OH212440   6.391   5.348   1.695
 4145TIP3    H112441   6.402   5.349   1.790
 4145TIP3    H212442   6.363   5.437   1.674
 4146TIP3   OH212443   1.142   5.223   0.617
 4146TIP3    H112444   1.137   5.149   0.677
 4146TIP3    H212445   1.225   5.212   0.571
 4147TIP3   OH212446   4.299   3.565   3.828
 4147TIP3    H112447   4.229   3.518   3.784
 4147TIP3    H212448   4.282   3.552   3.922
 4148TIP3   OH212449   2.170   1.698   5.094
 4148TIP3    H112450   2.108   1.711   5.165
 4148TIP3    H212451   2.184   1.786   5.058
 4149TIP3   OH212452   0.815   3.208   2.632
 4149TIP3    H112453   0.740   3.189   2.575
 4149TIP3    H212454   0.892   3.190   2.578
 4150TIP3   OH212455   5.680   5.917   5.085
 4150TIP3    H112456   5.700   5.904   4.992
 4150TIP3    H212457   5.722   5.844   5.130
 4151TIP3   OH212458   4.850   5.598   0.708
 4151TIP3    H112459   4.816   5.514   0.739
 4151TIP3    H212460   4.945   5.586   0.707
 4152TIP3   OH212461   1.792   0.869   0.634
 4152TIP3    H112462   1.771   0.792   0.581
 4152TIP3    H212463   1.792   0.941   0.572
 4153TIP3   OH212464   4.763   3.015   4.328
 4153TIP3    H112465   4.719   2.943   4.283
 4153TIP3    H212466   4.805   2.974   4.404
 4154TIP3   OH212467   3.172   4.532   2.095
 4154TIP3    H112468   3.099   4.480   2.130
 4154TIP3    H212469   3.239   4.526   2.163
 4155TIP3   OH212470   2.636   1.877   3.448
 4155TIP3    H112471   2.633   1.796   3.499
 4155TIP3    H212472   2.548   1.914   3.456
 4156TIP3   OH212473   4.327   1.104   4.110
 4156TIP3    H112474   4.386   1.039   4.071
 4156TIP3    H212475   4.281   1.142   4.036
 4157TIP3   OH212476   3.210   0.381   0.276
 4157TIP3    H112477   3.304   0.368   0.279
 4157TIP3    H212478   3.185   0.396   0.367
 4158TIP3   OH212479   2.106   3.390   0.025
 4158TIP3    H112480   2.077   3.312   0.073
 4158TIP3    H212481   2.026   3.428  -0.011
 4159TIP3   OH212482   2.395   2.914   0.490
 4159TIP3    H112483   2.308   2.952   0.481
 4159TIP3    H212484   2.417   2.925   0.583
 4160TIP3   OH212485   1.014   2.932   2.433
 4160TIP3    H112486   0.939   2.880   2.459
 4160TIP3    H212487   1.088   2.872   2.437
 4161TIP3   OH212488   6.126   5.462   3.598
 4161TIP3    H112489   6.126   5.378   3.645
 4161TIP3    H212490   6.083   5.442   3.514
 4162TIP3   OH212491   4.128   3.394   5.004
 4162TIP3    H112492   4.143   3.417   4.912
 4162TIP3    H212493   4.216   3.383   5.040
 4163TIP3   OH212494   3.190   0.292   4.598
 4163TIP3    H112495   3.114   0.325   4.645
 4163TIP3    H212496   3.171   0.199   4.584
 4164TIP3   OH212497   3.747   4.104   2.608
 4164TIP3    H112498   3.687   4.117   2.682
 4164TIP3    H212499   3.834   4.110   2.647
 4165TIP3   OH212500   4.201   2.617   1.486
 4165TIP3    H112501   4.195   2.639   1.393
 4165TIP3    H212502   4.143   2.681   1.529
 4166TIP3   OH212503   4.735   4.220   4.603
 4166TIP3    H112504   4.762   4.133   4.632
 4166TIP3    H212505   4.792   4.240   4.529
 4167TIP3   OH212506   1.862   4.306   0.939
 4167TIP3    H112507   1.833   4.215   0.945
 4167TIP3    H212508   1.876   4.333   1.030
 4168TIP3   OH212509   2.933   3.231   1.565
 4168TIP3    H112510   2.946   3.162   1.500
 4168TIP3    H212511   2.969   3.194   1.646
 4169TIP3   OH212512   0.412   2.441   2.036
 4169TIP3    H112513   0.421   2.372   2.102
 4169TIP3    H212514   0.332   2.420   1.989
 4170TIP3   OH212515   2.066   5.525   0.760
 4170TIP3    H112516   2.011   5.569   0.825
 4170TIP3    H212517   2.155   5.534   0.794
 4171TIP3   OH212518   2.039   1.589   1.911
 4171TIP3    H112519   2.098   1.575   1.837
 4171TIP3    H212520   2.085   1.552   1.986
 4172TIP3   OH212521   0.519   1.492   4.549
 4172TIP3    H112522   0.615   1.490   4.554
 4172TIP3    H212523   0.500   1.474   4.457
 4173TIP3   OH212524   4.207   3.787   2.332
 4173TIP3    H112525   4.252   3.815   2.412
 4173TIP3    H212526   4.275   3.788   2.264
 4174TIP3   OH212527   0.458   0.412   2.076
 4174TIP3    H112528   0.409   0.441   2.153
 4174TIP3    H212529   0.400   0.350   2.033
 4175TIP3   OH212530   3.170   2.223   0.120
 4175TIP3    H112531   3.158   2.249   0.211
 4175TIP3    H212532   3.083   2.194   0.092
 4176TIP3   OH212533   0.180   4.409   4.967
 4176TIP3    H112534   0.122   4.451   4.903
 4176TIP3    H212535   0.141   4.430   5.052
 4177TIP3   OH212536   1.955   1.585   1.100
 4177TIP3    H112537   1.958   1.505   1.154
 4177TIP3    H212538   1.864   1.590   1.070
 4178TIP3   OH212539   1.781   5.230   1.684
 4178TIP3    H112540   1.830   5.309   1.662
 4178TIP3    H212541   1.824   5.196   1.762
 4179TIP3   OH212542   4.042   4.876   2.512
 4179TIP3    H112543   3.973   4.871   2.445
 4179TIP3    H212544   4.123   4.855   2.465
 4180TIP3   OH212545   2.039   1.873   4.390
 4180TIP3    H112546   2.080   1.869   4.303
 4180TIP3    H212547   1.998   1.787   4.401
 4181TIP3   OH212548   2.235   0.027   3.918
 4181TIP3    H112549   2.206  -0.053   3.960
 4181TIP3    H212550   2.154   0.069   3.888
 4182TIP3   OH212551   0.573   5.910   4.498
 4182TIP3    H112552   0.667   5.910   4.477
 4182TIP3    H212553   0.565   5.848   4.570
 4183TIP3   OH212554   2.303   2.144   2.756
 4183TIP3    H112555   2.216   2.126   2.791
 4183TIP3    H212556   2.326   2.065   2.707
 4184TIP3   OH212557   4.092   3.467   0.610
 4184TIP3    H112558   4.134   3.451   0.525
 4184TIP3    H212559   4.032   3.393   0.621
 4185TIP3   OH212560   3.231   2.221   4.698
 4185TIP3    H112561   3.235   2.125   4.704
 4185TIP3    H212562   3.204   2.249   4.785
 4186TIP3   OH212563   3.365   2.065   1.768
 4186TIP3    H112564   3.358   1.970   1.770
 4186TIP3    H212565   3.314   2.095   1.844
 4187TIP3   OH212566   6.073   2.644   3.476
 4187TIP3    H112567   6.023   2.659   3.556
 4187TIP3    H212568   6.162   2.673   3.497
 4188TIP3   OH212569   4.928   2.410   2.406
 4188TIP3    H112570   4.901   2.328   2.367
 4188TIP3    H212571   5.022   2.398   2.424
 4189TIP3   OH212572   4.865   3.317   1.843
 4189TIP3    H112573   4.850   3.236   1.793
 4189TIP3    H212574   4.790   3.372   1.821
 4190TIP3   OH212575   6.172   5.131   1.133
 4190TIP3    H112576   6.255   5.176   1.115
 4190TIP3    H212577   6.121   5.193   1.184
 4191TIP3   OH212578   1.552   0.467   0.733
 4191TIP3    H112579   1.523   0.502   0.818
 4191TIP3    H212580   1.485   0.403   0.710
 4192TIP3   OH212581   1.254   4.327   3.022
 4192TIP3    H112582   1.279   4.326   3.114
 4192TIP3    H212583   1.241   4.234   3.001
 4193TIP3   OH212584   4.544   5.425   1.178
 4193TIP3    H112585   4.502   5.405   1.095
 4193TIP3    H212586   4.555   5.520   1.177
 4194TIP3   OH212587   4.657   5.065   0.637
 4194TIP3    H112588   4.727   5.028   0.582
 4194TIP3    H212589   4.594   4.994   0.646
 4195TIP3   OH212590   0.551   2.058   3.377
 4195TIP3    H112591   0.526   2.129   3.436
 4195TIP3    H212592   0.633   2.026   3.412
 4196TIP3   OH212593   0.667   3.551   3.775
 4196TIP3    H112594   0.580   3.587   3.758
 4196TIP3    H212595   0.707   3.611   3.837
 4197TIP3   OH212596   0.868   5.254   4.983
 4197TIP3    H112597   0.780   5.250   4.944
 4197TIP3    H212598   0.900   5.341   4.961
 4198TIP3   OH212599   5.688   3.637   3.273
 4198TIP3    H112600   5.729   3.564   3.227
 4198TIP3    H212601   5.719   3.629   3.363
 4199TIP3   OH212602   0.543   3.435   0.723
 4199TIP3    H112603   0.624   3.485   0.708
 4199TIP3    H212604   0.480   3.473   0.663
 4200TIP3   OH212605   3.316   2.381   0.530
 4200TIP3    H112606   3.309   2.476   0.525
 4200TIP3    H212607   3.239   2.349   0.483
 4201TIP3   OH212608   0.789   1.354   4.966
 4201TIP3    H112609   0.865   1.296   4.958
 4201TIP3    H212610   0.730   1.326   4.895
 4202TIP3   OH212611   0.368   4.605   4.129
 4202TIP3    H112612   0.458   4.628   4.150
 4202TIP3    H212613   0.328   4.687   4.098
 4203TIP3   OH212614   3.295   2.522   0.169
 4203TIP3    H112615   3.216   2.516   0.222
 4203TIP3    H212616   3.269   2.491   0.082
 4204TIP3   OH212617   2.825   5.190   1.445
 4204TIP3    H112618   2.848   5.171   1.536
 4204TIP3    H212619   2.731   5.208   1.447
 4205TIP3   OH212620   3.654   4.377   2.479
 4205TIP3    H112621   3.716   4.339   2.542
 4205TIP3    H212622   3.576   4.322   2.488
 4206TIP3   OH212623   0.544   4.489   1.373
 4206TIP3    H112624   0.483   4.505   1.301
 4206TIP3    H212625   0.488   4.467   1.448
 4207TIP3   OH212626   1.733   1.469   0.012
 4207TIP3    H112627   1.699   1.441   0.097
 4207TIP3    H212628   1.747   1.387  -0.036
 4208TIP3   OH212629   6.095   4.624   3.069
 4208TIP3    H112630   6.046   4.624   2.987
 4208TIP3    H212631   6.173   4.676   3.051
 4209TIP3   OH212632   3.715   5.378   0.502
 4209TIP3    H112633   3.774   5.308   0.477
 4209TIP3    H212634   3.634   5.358   0.455
 4210TIP3   OH212635   1.176   0.867   4.764
 4210TIP3    H112636   1.129   0.795   4.805
 4210TIP3    H212637   1.143   0.870   4.674
 4211TIP3   OH212638   4.296   1.661   3.966
 4211TIP3    H112639   4.357   1.735   3.966
 4211TIP3    H212640   4.347   1.589   4.002
 4212TIP3   OH212641   3.116   2.253   0.402
 4212TIP3    H112642   3.022   2.267   0.411
 4212TIP3    H212643   3.129   2.160   0.420
 4213TIP3   OH212644   0.412   3.358   1.986
 4213TIP3    H112645   0.406   3.264   1.969
 4213TIP3    H212646   0.504   3.379   1.977
 4214TIP3   OH212647   3.049   0.950   2.175
 4214TIP3    H112648   2.978   0.887   2.167
 4214TIP3    H212649   3.023   1.025   2.122
 4215TIP3   OH212650   0.358   1.220   3.663
 4215TIP3    H112651   0.355   1.311   3.695
 4215TIP3    H212652   0.446   1.190   3.688
 4216TIP3   OH212653   4.386   4.875   3.194
 4216TIP3    H112654   4.320   4.808   3.177
 4216TIP3    H212655   4.440   4.840   3.264
 4217TIP3   OH212656   2.838   5.297   4.185
 4217TIP3    H112657   2.858   5.276   4.276
 4217TIP3    H212658   2.912   5.350   4.155
 4218TIP3   OH212659   4.502   4.158   4.890
 4218TIP3    H112660   4.537   4.112   4.813
 4218TIP3    H212661   4.571   4.219   4.915
 4219TIP3   OH212662   2.389   5.313   1.719
 4219TIP3    H112663   2.342   5.346   1.642
 4219TIP3    H212664   2.446   5.385   1.745
 4220TIP3   OH212665   5.999   4.642   3.846
 4220TIP3    H112666   5.917   4.690   3.862
 4220TIP3    H212667   5.991   4.610   3.757
 4221TIP3   OH212668   1.729   2.682   2.717
 4221TIP3    H112669   1.705   2.657   2.806
 4221TIP3    H212670   1.779   2.608   2.684
 4222TIP3   OH212671   1.424   1.294   4.489
 4222TIP3    H112672   1.451   1.245   4.566
 4222TIP3    H212673   1.341   1.254   4.463
 4223TIP3   OH212674   2.685   1.986   5.099
 4223TIP3    H112675   2.771   1.992   5.057
 4223TIP3    H212676   2.675   1.893   5.120
 4224TIP3   OH212677   1.208   1.449   2.920
 4224TIP3    H112678   1.298   1.417   2.934
 4224TIP3    H212679   1.156   1.369   2.907
 4225TIP3   OH212680   2.091   4.080   0.782
 4225TIP3    H112681   2.144   4.055   0.706
 4225TIP3    H212682   2.009   4.111   0.744
 4226TIP3   OH212683   4.002   4.838   3.299
 4226TIP3    H112684   4.058   4.880   3.364
 4226TIP3    H212685   4.061   4.778   3.252
 4227TIP3   OH212686   2.611   1.125   4.639
 4227TIP3    H112687   2.613   1.210   4.596
 4227TIP3    H212688   2.702   1.108   4.664
 4228TIP3   OH212689   5.574   3.314   2.048
 4228TIP3    H112690   5.603   3.349   1.964
 4228TIP3    H212691   5.616   3.370   2.113
 4229TIP3   OH212692   3.385   2.580   4.431
 4229TIP3    H112693   3.405   2.662   4.475
 4229TIP3    H212694   3.328   2.533   4.492
 4230TIP3   OH212695   0.370   0.765   1.475
 4230TIP3    H112696   0.425   0.693   1.506
 4230TIP3    H212697   0.344   0.740   1.387
 4231TIP3   OH212698   1.715   1.984   2.354
 4231TIP3    H112699   1.664   1.958   2.431
 4231TIP3    H212700   1.782   2.043   2.388
 4232TIP3   OH212701   5.159   4.597   0.106
 4232TIP3    H112702   5.192   4.686   0.090
 4232TIP3    H212703   5.101   4.579   0.032
 4233TIP3   OH212704   6.163   4.195   3.684
 4233TIP3    H112705   6.181   4.270   3.741
 4233TIP3    H212706   6.166   4.231   3.596
 4234TIP3   OH212707   6.241   5.427   2.796
 4234TIP3    H112708   6.262   5.455   2.707
 4234TIP3    H212709   6.197   5.503   2.835
 4235TIP3   OH212710   2.017   1.051   4.846
 4235TIP3    H112711   2.111   1.038   4.835
 4235TIP3    H212712   1.977   0.973   4.808
 4236TIP3   OH212713   0.944   5.713   1.309
 4236TIP3    H112714   0.988   5.789   1.272
 4236TIP3    H212715   0.881   5.750   1.371
 4237TIP3   OH212716   3.486   5.091   5.043
 4237TIP3    H112717   3.410   5.054   4.998
 4237TIP3    H212718   3.526   5.150   4.979
 4238TIP3   OH212719   6.175   1.516   2.338
 4238TIP3    H112720   6.171   1.569   2.418
 4238TIP3    H212721   6.098   1.459   2.343
 4239TIP3   OH212722   6.202   4.499   1.164
 4239TIP3    H112723   6.195   4.520   1.257
 4239TIP3    H212724   6.222   4.582   1.122
 4240TIP3   OH212725   3.079   1.500   4.728
 4240TIP3    H112726   3.062   1.417   4.683
 4240TIP3    H212727   3.154   1.481   4.785
 4241TIP3   OH212728   0.920   0.658   2.509
 4241TIP3    H112729   0.951   0.732   2.457
 4241TIP3    H212730   0.824   0.665   2.506
 4242TIP3   OH212731   0.884   5.767   5.060
 4242TIP3    H112732   0.973   5.743   5.032
 4242TIP3    H212733   0.897   5.839   5.121
 4243TIP3   OH212734   4.723   3.818   3.748
 4243TIP3    H112735   4.766   3.809   3.833
 4243TIP3    H212736   4.634   3.786   3.762
 4244TIP3   OH212737   6.207   5.500   5.143
 4244TIP3    H112738   6.287   5.473   5.189
 4244TIP3    H212739   6.183   5.424   5.089
 4245TIP3   OH212740   0.173   3.651   3.987
 4245TIP3    H112741   0.202   3.711   3.919
 4245TIP3    H212742   0.115   3.703   4.042
 4246TIP3   OH212743   1.596   1.957   1.190
 4246TIP3    H112744   1.561   2.029   1.242
 4246TIP3    H212745   1.542   1.882   1.214
 4247TIP3   OH212746   4.249   5.022   0.815
 4247TIP3    H112747   4.252   4.954   0.882
 4247TIP3    H212748   4.185   5.085   0.847
 4248TIP3   OH212749   5.335   5.160   3.660
 4248TIP3    H112750   5.368   5.227   3.600
 4248TIP3    H212751   5.272   5.110   3.608
 4249TIP3   OH212752   3.055   5.789   4.726
 4249TIP3    H112753   3.103   5.844   4.788
 4249TIP3    H212754   3.117   5.719   4.704
 4250TIP3   OH212755   1.189   4.866   1.516
 4250TIP3    H112756   1.180   4.961   1.522
 4250TIP3    H212757   1.248   4.843   1.588
 4251TIP3   OH212758   5.649   1.831   1.992
 4251TIP3    H112759   5.598   1.778   2.053
 4251TIP3    H212760   5.713   1.770   1.954
 4252TIP3   OH212761   1.561   4.524   0.373
 4252TIP3    H112762   1.592   4.585   0.440
 4252TIP3    H212763   1.466   4.539   0.369
 4253TIP3   OH212764   4.764   0.693   2.053
 4253TIP3    H112765   4.749   0.600   2.070
 4253TIP3    H212766   4.821   0.695   1.976
 4254TIP3   OH212767   1.685   3.582   3.404
 4254TIP3    H112768   1.748   3.518   3.372
 4254TIP3    H212769   1.676   3.562   3.497
 4255TIP3   OH212770   1.266   1.600   3.603
 4255TIP3    H112771   1.311   1.676   3.566
 4255TIP3    H212772   1.335   1.549   3.644
 4256TIP3   OH212773   2.262   4.673   3.877
 4256TIP3    H112774   2.317   4.649   3.952
 4256TIP3    H212775   2.319   4.660   3.801
 4257TIP3   OH212776   0.828   2.935   1.406
 4257TIP3    H112777   0.880   2.957   1.329
 4257TIP3    H212778   0.848   2.844   1.424
 4258TIP3   OH212779   2.380   1.957   3.479
 4258TIP3    H112780   2.305   1.907   3.509
 4258TIP3    H212781   2.363   2.047   3.508
 4259TIP3   OH212782   1.524   3.854   0.786
 4259TIP3    H112783   1.619   3.842   0.784
 4259TIP3    H212784   1.506   3.890   0.873
 4260TIP3   OH212785   3.992   5.359   3.665
 4260TIP3    H112786   4.025   5.272   3.690
 4260TIP3    H212787   3.896   5.349   3.667
 4261TIP3   OH212788   4.446   0.038   1.879
 4261TIP3    H112789   4.364  -0.011   1.892
 4261TIP3    H212790   4.499  -0.019   1.823
 4262TIP3   OH212791   3.464   5.744   1.960
 4262TIP3    H112792   3.499   5.656   1.973
 4262TIP3    H212793   3.411   5.738   1.881
 4263TIP3   OH212794   1.394   5.171   3.524
 4263TIP3    H112795   1.428   5.217   3.601
 4263TIP3    H212796   1.442   5.209   3.450
 4264TIP3   OH212797   2.071   5.391   0.043
 4264TIP3    H112798   2.115   5.453  -0.014
 4264TIP3    H212799   2.107   5.306   0.020
 4265TIP3   OH212800   4.408   0.553   2.585
 4265TIP3    H112801   4.375   0.563   2.674
 4265TIP3    H212802   4.462   0.474   2.588
 4266TIP3   OH212803   2.326   1.016   4.662
 4266TIP3    H112804   2.331   1.099   4.709
 4266TIP3    H212805   2.408   1.012   4.613
 4267TIP3   OH212806   0.723   2.824   3.732
 4267TIP3    H112807   0.652   2.832   3.669
 4267TIP3    H212808   0.727   2.910   3.775
 4268TIP3   OH212809   0.511   2.136   3.117
 4268TIP3    H112810   0.571   2.078   3.070
 4268TIP3    H212811   0.544   2.138   3.206
 4269TIP3   OH212812   0.210   4.109   2.906
 4269TIP3    H112813   0.246   4.060   2.980
 4269TIP3    H212814   0.264   4.083   2.831
 4270TIP3   OH212815   0.677   0.169   0.369
 4270TIP3    H112816   0.726   0.169   0.451
 4270TIP3    H212817   0.623   0.090   0.374
 4271TIP3   OH212818   3.874   2.428   2.126
 4271TIP3    H112819   3.828   2.512   2.131
 4271TIP3    H212820   3.929   2.435   2.048
 4272TIP3   OH212821   4.339   0.171   4.312
 4272TIP3    H112822   4.415   0.114   4.321
 4272TIP3    H212823   4.313   0.192   4.402
 4273TIP3   OH212824   1.793   3.348   3.289
 4273TIP3    H112825   1.785   3.343   3.194
 4273TIP3    H212826   1.883   3.321   3.308
 4274TIP3   OH212827   3.521   5.162   3.915
 4274TIP3    H112828   3.534   5.241   3.967
 4274TIP3    H212829   3.457   5.188   3.848
 4275TIP3   OH212830   2.714   1.588   0.931
 4275TIP3    H112831   2.700   1.671   0.975
 4275TIP3    H212832   2.685   1.522   0.994
 4276TIP3   OH212833   1.805   1.128   4.621
 4276TIP3    H112834   1.797   1.036   4.595
 4276TIP3    H212835   1.873   1.129   4.688
 4277TIP3   OH212836   0.360   3.047   0.834
 4277TIP3    H112837   0.279   3.003   0.862
 4277TIP3    H212838   0.347   3.139   0.856
 4278TIP3   OH212839   3.374   2.144   3.652
 4278TIP3    H112840   3.317   2.118   3.580
 4278TIP3    H212841   3.442   2.197   3.611
 4279TIP3   OH212842   0.502   5.836   2.076
 4279TIP3    H112843   0.527   5.805   1.989
 4279TIP3    H212844   0.562   5.790   2.136
 4280TIP3   OH212845   0.879   0.939   2.777
 4280TIP3    H112846   0.844   0.966   2.862
 4280TIP3    H212847   0.874   0.843   2.778
 4281TIP3   OH212848   4.064   1.605   0.227
 4281TIP3    H112849   4.049   1.563   0.142
 4281TIP3    H212850   4.060   1.699   0.209
 4282TIP3   OH212851   0.449   4.629   3.183
 4282TIP3    H112852   0.449   4.533   3.194
 4282TIP3    H212853   0.435   4.663   3.272
 4283TIP3   OH212854   3.449   5.104   1.507
 4283TIP3    H112855   3.442   5.199   1.511
 4283TIP3    H212856   3.382   5.072   1.567
 4284TIP3   OH212857   4.195   0.956   1.205
 4284TIP3    H112858   4.209   0.977   1.298
 4284TIP3    H212859   4.243   1.024   1.158
 4285TIP3   OH212860   5.287   1.977   1.523
 4285TIP3    H112861   5.336   2.040   1.576
 4285TIP3    H212862   5.197   1.985   1.553
 4286TIP3   OH212863   5.996   0.538   2.848
 4286TIP3    H112864   6.025   0.613   2.796
 4286TIP3    H212865   5.989   0.466   2.785
 4287TIP3   OH212866   4.461   4.216   3.308
 4287TIP3    H112867   4.478   4.262   3.390
 4287TIP3    H212868   4.408   4.141   3.334
 4288TIP3   OH212869   0.687   1.787   1.013
 4288TIP3    H112870   0.635   1.839   0.952
 4288TIP3    H212871   0.626   1.766   1.084
 4289TIP3   OH212872   1.996   2.261   1.312
 4289TIP3    H112873   1.930   2.193   1.302
 4289TIP3    H212874   2.069   2.219   1.357
 4290TIP3   OH212875   0.621   2.571   1.827
 4290TIP3    H112876   0.654   2.658   1.804
 4290TIP3    H212877   0.576   2.584   1.911
 4291TIP3   OH212878   2.405   3.350   4.360
 4291TIP3    H112879   2.339   3.293   4.399
 4291TIP3    H212880   2.449   3.390   4.435
 4292TIP3   OH212881   2.291   2.959   1.719
 4292TIP3    H112882   2.310   3.009   1.799
 4292TIP3    H212883   2.332   3.011   1.650
 4293TIP3   OH212884   6.069   3.742   2.718
 4293TIP3    H112885   6.090   3.667   2.774
 4293TIP3    H212886   6.133   3.809   2.742
 4294TIP3   OH212887   2.978   2.293   3.057
 4294TIP3    H112888   2.971   2.199   3.040
 4294TIP3    H212889   2.994   2.298   3.152
 4295TIP3   OH212890   3.521   5.589   4.594
 4295TIP3    H112891   3.527   5.640   4.514
 4295TIP3    H212892   3.558   5.646   4.662
 4296TIP3   OH212893   1.715   1.145   1.647
 4296TIP3    H112894   1.682   1.231   1.675
 4296TIP3    H212895   1.637   1.094   1.628
 4297TIP3   OH212896   1.830   1.475   2.143
 4297TIP3    H112897   1.810   1.567   2.121
 4297TIP3    H212898   1.775   1.424   2.083
 4298TIP3   OH212899   3.400   4.946   1.015
 4298TIP3    H112900   3.356   4.883   1.072
 4298TIP3    H212901   3.475   4.975   1.066
 4299TIP3   OH212902   5.842   4.772   2.681
 4299TIP3    H112903   5.905   4.759   2.610
 4299TIP3    H212904   5.854   4.696   2.738
 4300TIP3   OH212905   2.793   1.536   3.122
 4300TIP3    H112906   2.807   1.620   3.165
 4300TIP3    H212907   2.757   1.558   3.037
 4301TIP3   OH212908   0.721   1.465   1.636
 4301TIP3    H112909   0.741   1.436   1.725
 4301TIP3    H212910   0.725   1.386   1.583
 4302TIP3   OH212911   0.987   1.915   4.796
 4302TIP3    H112912   0.968   1.959   4.713
 4302TIP3    H212913   0.901   1.904   4.838
 4303TIP3   OH212914   5.922   5.849   4.930
 4303TIP3    H112915   5.913   5.771   4.875
 4303TIP3    H212916   5.981   5.822   5.001
 4304TIP3   OH212917   0.186   2.975   0.581
 4304TIP3    H112918   0.168   2.970   0.675
 4304TIP3    H212919   0.208   3.067   0.565
 4305TIP3   OH212920   1.786   4.793   2.755
 4305TIP3    H112921   1.732   4.861   2.713
 4305TIP3    H212922   1.845   4.763   2.686
 4306TIP3   OH212923   0.413   3.061   3.311
 4306TIP3    H112924   0.346   3.089   3.374
 4306TIP3    H212925   0.490   3.112   3.335
 4307TIP3   OH212926   1.130   3.951   0.030
 4307TIP3    H112927   1.074   3.890  -0.018
 4307TIP3    H212928   1.124   3.923   0.121
 4308TIP3   OH212929   6.027   2.783   2.184
 4308TIP3    H112930   5.964   2.855   2.182
 4308TIP3    H212931   5.975   2.704   2.171
 4309TIP3   OH212932   2.104   1.363   2.514
 4309TIP3    H112933   2.133   1.453   2.498
 4309TIP3    H212934   2.009   1.365   2.499
 4310TIP3   OH212935   5.884   5.289   1.050
 4310TIP3    H112936   5.951   5.350   1.080
 4310TIP3    H212937   5.930   5.232   0.988
 4311TIP3   OH212938   2.939   5.121   0.350
 4311TIP3    H112939   2.937   5.196   0.291
 4311TIP3    H212940   2.859   5.128   0.401
 4312TIP3   OH212941   5.307   5.061   1.730
 4312TIP3    H112942   5.272   5.150   1.739
 4312TIP3    H212943   5.231   5.007   1.708
 4313TIP3   OH212944   1.578   1.903   0.909
 4313TIP3    H112945   1.499   1.853   0.927
 4313TIP3    H212946   1.598   1.946   0.992
 4314TIP3   OH212947   3.105   5.978   1.506
 4314TIP3    H112948   3.137   5.962   1.595
 4314TIP3    H212949   3.017   5.940   1.505
 4315TIP3   OH212950   5.114   3.141   4.792
 4315TIP3    H112951   5.164   3.121   4.714
 4315TIP3    H212952   5.178   3.181   4.852
 4316TIP3   OH212953   5.455   4.762   4.239
 4316TIP3    H112954   5.438   4.852   4.212
 4316TIP3    H212955   5.545   4.764   4.274
 4317TIP3   OH212956   0.180   0.858   4.486
 4317TIP3    H112957   0.103   0.912   4.465
 4317TIP3    H212958   0.170   0.780   4.432
 4318TIP3   OH212959   6.370   4.803   0.055
 4318TIP3    H112960   6.277   4.793   0.033
 4318TIP3    H212961   6.410   4.837  -0.026
 4319TIP3   OH212962   3.720   2.672   4.163
 4319TIP3    H112963   3.737   2.765   4.178
 4319TIP3    H212964   3.625   2.665   4.159
 4320TIP3   OH212965   3.076   5.729   3.830
 4320TIP3    H112966   3.011   5.750   3.763
 4320TIP3    H212967   3.080   5.807   3.885
 4321TIP3   OH212968   2.012   5.824   3.258
 4321TIP3    H112969   1.979   5.815   3.348
 4321TIP3    H212970   2.040   5.735   3.234
 4322TIP3   OH212971   2.901   0.732   2.114
 4322TIP3    H112972   2.814   0.696   2.135
 4322TIP3    H212973   2.962   0.668   2.150
 4323TIP3   OH212974   5.263   3.408   2.564
 4323TIP3    H112975   5.172   3.377   2.569
 4323TIP3    H212976   5.316   3.329   2.566
 4324TIP3   OH212977   4.841   5.416   1.825
 4324TIP3    H112978   4.793   5.334   1.811
 4324TIP3    H212979   4.873   5.410   1.915
 4325TIP3   OH212980   0.611   1.102   0.832
 4325TIP3    H112981   0.617   1.197   0.820
 4325TIP3    H212982   0.558   1.072   0.758
 4326TIP3   OH212983   1.837   4.598   1.655
 4326TIP3    H112984   1.792   4.659   1.713
 4326TIP3    H212985   1.883   4.654   1.592
 4327TIP3   OH212986   5.232   1.124   4.548
 4327TIP3    H112987   5.156   1.180   4.565
 4327TIP3    H212988   5.275   1.163   4.472
 4328TIP3   OH212989   1.010   3.059   4.395
 4328TIP3    H112990   0.926   3.103   4.406
 4328TIP3    H212991   1.001   2.977   4.445
 4329TIP3   OH212992   2.176   2.895   4.243
 4329TIP3    H112993   2.267   2.866   4.237
 4329TIP3    H212994   2.139   2.875   4.156
 4330TIP3   OH212995   3.071   0.437   0.859
 4330TIP3    H112996   3.145   0.491   0.886
 4330TIP3    H212997   3.085   0.421   0.766
 4331TIP3   OH212998   2.158   4.227   3.966
 4331TIP3    H112999   2.116   4.144   3.987
 4331TIP3    H213000   2.116   4.291   4.025
 4332TIP3   OH213001   0.213   5.848   0.931
 4332TIP3    H113002   0.260   5.771   0.964
 4332TIP3    H213003   0.170   5.818   0.851
 4333TIP3   OH213004   0.746   0.877   4.342
 4333TIP3    H113005   0.679   0.892   4.275
 4333TIP3    H213006   0.818   0.935   4.318
 4334TIP3   OH213007   5.936   4.205   1.991
 4334TIP3    H113008   5.999   4.273   2.015
 4334TIP3    H213009   5.851   4.239   2.019
 4335TIP3   OH213010   4.345   5.809   0.003
 4335TIP3    H113011   4.419   5.847  -0.045
 4335TIP3    H213012   4.379   5.726   0.037
 4336TIP3   OH213013   5.851   0.984   2.185
 4336TIP3    H113014   5.867   0.924   2.258
 4336TIP3    H213015   5.839   1.069   2.226
 4337TIP3   OH213016   4.182   1.299   1.859
 4337TIP3    H113017   4.217   1.318   1.772
 4337TIP3    H213018   4.209   1.209   1.877
 4338TIP3   OH213019   3.953   2.110   1.686
 4338TIP3    H113020   3.906   2.027   1.685
 4338TIP3    H213021   3.908   2.163   1.621
 4339TIP3   OH213022   3.132   3.380   1.410
 4339TIP3    H113023   3.204   3.317   1.417
 4339TIP3    H213024   3.077   3.362   1.486
 4340TIP3   OH213025   2.644   4.045   4.904
 4340TIP3    H113026   2.587   4.010   4.973
 4340TIP3    H213027   2.683   3.968   4.863
 4341TIP3   OH213028   4.522   4.989   4.328
 4341TIP3    H113029   4.540   4.914   4.271
 4341TIP3    H213030   4.427   5.002   4.322
 4342TIP3   OH213031   5.712   4.983   1.041
 4342TIP3    H113032   5.764   4.993   1.120
 4342TIP3    H213033   5.658   5.062   1.038
 4343TIP3   OH213034   3.816   0.606   1.755
 4343TIP3    H113035   3.734   0.611   1.805
 4343TIP3    H213036   3.790   0.572   1.670
 4344TIP3   OH213037   0.851   2.322   0.407
 4344TIP3    H113038   0.758   2.328   0.384
 4344TIP3    H213039   0.851   2.294   0.499
 4345TIP3   OH213040   5.495   2.755   3.088
 4345TIP3    H113041   5.480   2.719   3.176
 4345TIP3    H213042   5.468   2.847   3.096
 4346TIP3   OH213043   2.333   2.667   3.978
 4346TIP3    H113044   2.382   2.589   4.005
 4346TIP3    H213045   2.386   2.741   4.007
 4347TIP3   OH213046   6.123   5.541   2.332
 4347TIP3    H113047   6.054   5.601   2.362
 4347TIP3    H213048   6.080   5.487   2.266
 4348TIP3   OH213049   1.192   4.930   4.626
 4348TIP3    H113050   1.111   4.973   4.654
 4348TIP3    H213051   1.222   4.981   4.551
 4349TIP3   OH213052   2.946   4.289   0.303
 4349TIP3    H113053   2.883   4.228   0.342
 4349TIP3    H213054   2.893   4.365   0.279
 4350TIP3   OH213055   0.957   3.313   4.842
 4350TIP3    H113056   0.994   3.379   4.784
 4350TIP3    H213057   0.863   3.318   4.827
 4351TIP3   OH213058   0.514   3.097   5.155
 4351TIP3    H113059   0.427   3.135   5.141
 4351TIP3    H213060   0.529   3.042   5.079
 4352TIP3   OH213061   3.073   1.334   0.534
 4352TIP3    H113062   3.112   1.250   0.510
 4352TIP3    H213063   3.019   1.315   0.610
 4353TIP3   OH213064   4.013   0.008   2.515
 4353TIP3    H113065   4.103   0.005   2.483
 4353TIP3    H213066   3.988   0.100   2.507
 4354TIP3   OH213067   0.047   0.119   4.125
 4354TIP3    H113068   0.114   0.082   4.068
 4354TIP3    H213069  -0.034   0.109   4.075
 4355TIP3   OH213070   3.559   5.069   1.881
 4355TIP3    H113071   3.547   4.992   1.825
 4355TIP3    H213072   3.562   5.143   1.820
 4356TIP3   OH213073   2.841   1.000   4.717
 4356TIP3    H113074   2.844   0.914   4.759
 4356TIP3    H213075   2.912   0.998   4.653
 4357TIP3   OH213076   2.988   5.363   2.815
 4357TIP3    H113077   3.058   5.347   2.879
 4357TIP3    H213078   2.912   5.386   2.868
 4358TIP3   OH213079   0.504   0.681   3.081
 4358TIP3    H113080   0.495   0.723   3.166
 4358TIP3    H213081   0.511   0.588   3.100
 4359TIP3   OH213082   4.010   0.034   2.836
 4359TIP3    H113083   4.091   0.066   2.797
 4359TIP3    H213084   4.030   0.027   2.930
 4360TIP3   OH213085   2.154   1.943   4.972
 4360TIP3    H113086   2.150   1.966   4.879
 4360TIP3    H213087   2.232   1.988   5.004
 4361TIP3   OH213088   0.237   4.319   2.453
 4361TIP3    H113089   0.240   4.398   2.399
 4361TIP3    H213090   0.251   4.248   2.391
 4362TIP3   OH213091   3.315   2.561   1.474
 4362TIP3    H113092   3.396   2.518   1.501
 4362TIP3    H213093   3.263   2.491   1.436
 4363TIP3   OH213094   0.358   5.288   3.702
 4363TIP3    H113095   0.368   5.332   3.617
 4363TIP3    H213096   0.263   5.281   3.714
 4364TIP3   OH213097   6.114   0.288   0.483
 4364TIP3    H113098   6.185   0.236   0.521
 4364TIP3    H213099   6.056   0.308   0.557
 4365TIP3   OH213100   5.766   5.421   1.639
 4365TIP3    H113101   5.705   5.473   1.691
 4365TIP3    H213102   5.849   5.429   1.685
 4366TIP3   OH213103   5.089   1.228   2.486
 4366TIP3    H113104   5.065   1.317   2.512
 4366TIP3    H213105   5.005   1.182   2.481
 4367TIP3   OH213106   2.115   3.192   1.562
 4367TIP3    H113107   2.039   3.134   1.568
 4367TIP3    H213108   2.184   3.137   1.527
 4368TIP3   OH213109   2.996   2.298   4.487
 4368TIP3    H113110   3.055   2.327   4.556
 4368TIP3    H213111   3.054   2.270   4.416
 4369TIP3   OH213112   2.996   4.913   3.319
 4369TIP3    H113113   2.906   4.884   3.334
 4369TIP3    H213114   3.017   4.884   3.230
 4370TIP3   OH213115   5.339   5.709   1.698
 4370TIP3    H113116   5.352   5.740   1.787
 4370TIP3    H213117   5.253   5.667   1.699
 4371TIP3   OH213118   1.024   5.288   3.902
 4371TIP3    H113119   0.958   5.357   3.898
 4371TIP3    H213120   0.992   5.227   3.968
 4372TIP3   OH213121   4.900   0.667   3.870
 4372TIP3    H113122   4.892   0.761   3.887
 4372TIP3    H213123   4.834   0.648   3.804
 4373TIP3   OH213124   1.490   2.147   3.943
 4373TIP3    H113125   1.527   2.195   3.868
 4373TIP3    H213126   1.432   2.083   3.904
 4374TIP3   OH213127   5.544   2.718   2.506
 4374TIP3    H113128   5.491   2.731   2.585
 4374TIP3    H213129   5.618   2.664   2.535
 4375TIP3   OH213130   2.043   5.550   1.403
 4375TIP3    H113131   2.097   5.622   1.371
 4375TIP3    H213132   1.976   5.538   1.336
 4376TIP3   OH213133   4.559   3.476   3.528
 4376TIP3    H113134   4.635   3.432   3.490
 4376TIP3    H213135   4.484   3.424   3.499
 4377TIP3   OH213136   3.404   5.446   0.704
 4377TIP3    H113137   3.408   5.485   0.617
 4377TIP3    H213138   3.478   5.484   0.751
 4378TIP3   OH213139   3.139   3.856   2.449
 4378TIP3    H113140   3.234   3.860   2.432
 4378TIP3    H213141   3.099   3.865   2.363
 4379TIP3   OH213142   5.709   2.097   2.032
 4379TIP3    H113143   5.637   2.148   2.070
 4379TIP3    H213144   5.675   2.007   2.027
 4380TIP3   OH213145   1.270   3.238   0.677
 4380TIP3    H113146   1.251   3.289   0.598
 4380TIP3    H213147   1.345   3.184   0.653
 4381TIP3   OH213148   0.572   3.125   1.448
 4381TIP3    H113149   0.635   3.068   1.405
 4381TIP3    H213150   0.527   3.170   1.377
 4382TIP3   OH213151   5.854   0.881   5.015
 4382TIP3    H113152   5.782   0.842   5.064
 4382TIP3    H213153   5.819   0.963   4.981
 4383TIP3   OH213154   1.620   5.789   2.599
 4383TIP3    H113155   1.624   5.861   2.662
 4383TIP3    H213156   1.672   5.719   2.639
 4384TIP3   OH213157   2.125   0.856   4.538
 4384TIP3    H113158   2.198   0.908   4.571
 4384TIP3    H213159   2.151   0.765   4.552
 4385TIP3   OH213160   4.926   3.518   1.386
 4385TIP3    H113161   4.877   3.483   1.311
 4385TIP3    H213162   4.974   3.442   1.420
 4386TIP3   OH213163   5.771   1.690   3.991
 4386TIP3    H113164   5.687   1.723   3.960
 4386TIP3    H213165   5.782   1.729   4.078
 4387TIP3   OH213166   5.359   3.876   4.618
 4387TIP3    H113167   5.453   3.882   4.632
 4387TIP3    H213168   5.325   3.834   4.697
 4388TIP3   OH213169   3.354   4.735   2.492
 4388TIP3    H113170   3.272   4.754   2.538
 4388TIP3    H213171   3.421   4.737   2.561
 4389TIP3   OH213172   5.119   4.290   0.148
 4389TIP3    H113173   5.072   4.256   0.073
 4389TIP3    H213174   5.098   4.383   0.150
 4390TIP3   OH213175   1.868   5.720   4.961
 4390TIP3    H113176   1.903   5.801   4.999
 4390TIP3    H213177   1.945   5.676   4.923
 4391TIP3   OH213178   5.602   2.585   0.523
 4391TIP3    H113179   5.682   2.636   0.520
 4391TIP3    H213180   5.579   2.571   0.431
 4392TIP3   OH213181   6.312   2.597   4.251
 4392TIP3    H113182   6.279   2.668   4.195
 4392TIP3    H213183   6.259   2.521   4.227
 4393TIP3   OH213184   0.870   2.973   2.195
 4393TIP3    H113185   0.947   2.968   2.251
 4393TIP3    H213186   0.828   2.887   2.204
 4394TIP3   OH213187   3.645   1.535   0.774
 4394TIP3    H113188   3.649   1.441   0.792
 4394TIP3    H213189   3.567   1.545   0.719
 4395TIP3   OH213190   5.069   3.025   2.237
 4395TIP3    H113191   5.076   3.069   2.153
 4395TIP3    H213192   5.159   2.999   2.259
 4396TIP3   OH213193   0.334   3.733   1.101
 4396TIP3    H113194   0.346   3.712   1.193
 4396TIP3    H213195   0.409   3.789   1.079
 4397TIP3   OH213196   0.874   5.287   0.529
 4397TIP3    H113197   0.862   5.248   0.443
 4397TIP3    H213198   0.962   5.259   0.555
 4398TIP3   OH213199   1.729   4.446   4.430
 4398TIP3    H113200   1.661   4.500   4.390
 4398TIP3    H213201   1.755   4.385   4.360
 4399TIP3   OH213202   4.989   2.916   4.804
 4399TIP3    H113203   5.024   3.000   4.832
 4399TIP3    H213204   5.066   2.865   4.779
 4400TIP3   OH213205   4.740   5.675   4.944
 4400TIP3    H113206   4.685   5.706   4.873
 4400TIP3    H213207   4.680   5.630   5.004
 4401TIP3   OH213208   4.854   1.068   2.453
 4401TIP3    H113209   4.771   1.059   2.500
 4401TIP3    H213210   4.866   0.984   2.410
 4402TIP3   OH213211   2.998   1.616   0.960
 4402TIP3    H113212   2.904   1.602   0.946
 4402TIP3    H213213   3.008   1.619   1.055
 4403TIP3   OH213214   5.954   1.309   4.684
 4403TIP3    H113215   5.943   1.323   4.590
 4403TIP3    H213216   5.882   1.357   4.724
 4404TIP3   OH213217   5.451   4.660   1.487
 4404TIP3    H113218   5.407   4.729   1.438
 4404TIP3    H213219   5.424   4.673   1.578
 4405TIP3   OH213220   2.526   2.526   1.391
 4405TIP3    H113221   2.544   2.494   1.480
 4405TIP3    H213222   2.513   2.620   1.402
 4406TIP3   OH213223   5.005   2.207   4.443
 4406TIP3    H113224   4.970   2.243   4.525
 4406TIP3    H213225   4.933   2.155   4.408
 4407TIP3   OH213226   1.838   0.042   4.570
 4407TIP3    H113227   1.909   0.099   4.541
 4407TIP3    H213228   1.781   0.033   4.493
 4408TIP3   OH213229   0.691   2.741   5.136
 4408TIP3    H113230   0.719   2.819   5.185
 4408TIP3    H213231   0.773   2.700   5.108
 4409TIP3   OH213232   4.911   3.892   2.708
 4409TIP3    H113233   4.837   3.895   2.648
 4409TIP3    H213234   4.932   3.799   2.715
 4410TIP3   OH213235   0.433   4.350   3.289
 4410TIP3    H113236   0.398   4.351   3.200
 4410TIP3    H213237   0.460   4.260   3.304
 4411TIP3   OH213238   1.007   1.480   4.000
 4411TIP3    H113239   0.967   1.533   4.070
 4411TIP3    H213240   0.933   1.437   3.958
 4412TIP3   OH213241   3.905   4.092   2.029
 4412TIP3    H113242   3.824   4.119   1.985
 4412TIP3    H213243   3.880   4.015   2.080
 4413TIP3   OH213244   2.833   3.447   4.939
 4413TIP3    H113245   2.741   3.475   4.941
 4413TIP3    H213246   2.851   3.418   5.028
 4414TIP3   OH213247   4.008   5.287   4.832
 4414TIP3    H113248   3.970   5.290   4.744
 4414TIP3    H213249   4.073   5.217   4.828
 4415TIP3   OH213250   1.994   0.884   2.437
 4415TIP3    H113251   1.946   0.847   2.511
 4415TIP3    H213252   1.993   0.978   2.453
 4416TIP3   OH213253   1.576   0.291   2.596
 4416TIP3    H113254   1.589   0.215   2.653
 4416TIP3    H213255   1.523   0.259   2.524
 4417TIP3   OH213256   4.288   5.512   4.640
 4417TIP3    H113257   4.271   5.595   4.686
 4417TIP3    H213258   4.202   5.469   4.636
 4418TIP3   OH213259   2.254   4.065   2.295
 4418TIP3    H113260   2.338   4.021   2.284
 4418TIP3    H213261   2.269   4.154   2.262
 4419TIP3   OH213262   3.202   3.521   2.087
 4419TIP3    H113263   3.270   3.477   2.035
 4419TIP3    H213264   3.204   3.476   2.171
 4420TIP3   OH213265   1.149   0.819   2.109
 4420TIP3    H113266   1.218   0.803   2.174
 4420TIP3    H213267   1.119   0.732   2.085
 4421TIP3   OH213268   1.132   3.671   3.988
 4421TIP3    H113269   1.108   3.582   3.963
 4421TIP3    H213270   1.184   3.703   3.914
 4422TIP3   OH213271   2.149   1.902   3.868
 4422TIP3    H113272   2.191   1.973   3.820
 4422TIP3    H213273   2.055   1.919   3.859
 4423TIP3   OH213274   4.291   3.107   1.278
 4423TIP3    H113275   4.357   3.080   1.214
 4423TIP3    H213276   4.270   3.197   1.254
 4424TIP3   OH213277   4.302   4.337   4.604
 4424TIP3    H113278   4.263   4.351   4.517
 4424TIP3    H213279   4.280   4.415   4.653
 4425TIP3   OH213280   6.162   3.053   0.188
 4425TIP3    H113281   6.193   3.140   0.213
 4425TIP3    H213282   6.207   2.994   0.249
 4426TIP3   OH213283   5.535   0.611   0.959
 4426TIP3    H113284   5.620   0.583   0.993
 4426TIP3    H213285   5.519   0.555   0.884
 4427TIP3   OH213286   3.567   1.590   1.685
 4427TIP3    H113287   3.628   1.645   1.636
 4427TIP3    H213288   3.485   1.594   1.635
 4428TIP3   OH213289   4.638   0.816   0.068
 4428TIP3    H113290   4.582   0.894   0.060
 4428TIP3    H213291   4.620   0.783   0.156
 4429TIP3   OH213292   2.573   1.331   5.170
 4429TIP3    H113293   2.520   1.409   5.187
 4429TIP3    H213294   2.518   1.258   5.199
 4430TIP3   OH213295   5.360   1.938   2.200
 4430TIP3    H113296   5.391   1.970   2.115
 4430TIP3    H213297   5.270   1.971   2.206
 4431TIP3   OH213298   3.155   3.373   0.778
 4431TIP3    H113299   3.118   3.395   0.864
 4431TIP3    H213300   3.078   3.365   0.721
 4432TIP3   OH213301   1.206   2.454   4.182
 4432TIP3    H113302   1.243   2.539   4.160
 4432TIP3    H213303   1.216   2.447   4.277
 4433TIP3   OH213304   3.652   1.397   4.603
 4433TIP3    H113305   3.728   1.453   4.615
 4433TIP3    H213306   3.633   1.403   4.509
 4434TIP3   OH213307   6.368   5.762   4.958
 4434TIP3    H113308   6.342   5.741   5.047
 4434TIP3    H213309   6.302   5.722   4.902
 4435TIP3   OH213310   1.463   0.337   1.397
 4435TIP3    H113311   1.515   0.265   1.432
 4435TIP3    H213312   1.463   0.403   1.467
 4436TIP3   OH213313   2.713   3.704   4.854
 4436TIP3    H113314   2.637   3.663   4.812
 4436TIP3    H213315   2.769   3.732   4.782
 4437TIP3   OH213316   2.093   5.586   1.072
 4437TIP3    H113317   2.151   5.551   1.005
 4437TIP3    H213318   2.152   5.623   1.138
 4438TIP3   OH213319   4.598   3.531   1.145
 4438TIP3    H113320   4.618   3.517   1.237
 4438TIP3    H213321   4.507   3.559   1.143
 4439TIP3   OH213322   0.404   0.783   0.862
 4439TIP3    H113323   0.405   0.697   0.820
 4439TIP3    H213324   0.476   0.830   0.821
 4440TIP3   OH213325   1.223   4.998   5.151
 4440TIP3    H113326   1.163   4.996   5.077
 4440TIP3    H213327   1.310   5.001   5.111
 4441TIP3   OH213328   0.837   4.822   1.888
 4441TIP3    H113329   0.913   4.863   1.931
 4441TIP3    H213330   0.844   4.850   1.797
 4442TIP3   OH213331   2.640   0.597   4.405
 4442TIP3    H113332   2.640   0.600   4.309
 4442TIP3    H213333   2.715   0.541   4.427
 4443TIP3   OH213334   5.320   4.636   2.047
 4443TIP3    H113335   5.244   4.604   2.096
 4443TIP3    H213336   5.316   4.731   2.055
 4444TIP3   OH213337   2.929   5.563   0.637
 4444TIP3    H113338   3.004   5.547   0.694
 4444TIP3    H213339   2.967   5.600   0.557
 4445TIP3   OH213340   3.705   2.948   4.200
 4445TIP3    H113341   3.757   2.970   4.123
 4445TIP3    H213342   3.721   3.020   4.262
 4446TIP3   OH213343   5.074   2.567   1.183
 4446TIP3    H113344   5.049   2.497   1.244
 4446TIP3    H213345   5.000   2.628   1.186
 4447TIP3   OH213346   1.505   5.907   5.110
 4447TIP3    H113347   1.493   5.840   5.176
 4447TIP3    H213348   1.527   5.986   5.160
 4448TIP3   OH213349   3.832   1.251   0.188
 4448TIP3    H113350   3.886   1.286   0.259
 4448TIP3    H213351   3.852   1.158   0.186
 4449TIP3   OH213352   5.571   1.150   4.495
 4449TIP3    H113353   5.542   1.161   4.586
 4449TIP3    H213354   5.495   1.112   4.450
 4450TIP3   OH213355   1.650   2.461   3.600
 4450TIP3    H113356   1.704   2.451   3.522
 4450TIP3    H213357   1.664   2.551   3.628
 4451TIP3   OH213358   4.538   4.830   4.988
 4451TIP3    H113359   4.461   4.826   4.931
 4451TIP3    H213360   4.519   4.899   5.051
 4452TIP3   OH213361   1.936   5.528   2.450
 4452TIP3    H113362   1.966   5.503   2.363
 4452TIP3    H213363   2.015   5.559   2.495
 4453TIP3   OH213364   5.797   5.261   3.390
 4453TIP3    H113365   5.765   5.313   3.463
 4453TIP3    H213366   5.889   5.285   3.381
 4454TIP3   OH213367   0.389   5.785   2.874
 4454TIP3    H113368   0.454   5.745   2.817
 4454TIP3    H213369   0.306   5.745   2.847
 4455TIP3   OH213370   6.321   4.649   0.531
 4455TIP3    H113371   6.226   4.662   0.531
 4455TIP3    H213372   6.354   4.719   0.475
 4456TIP3   OH213373   2.084   3.142   0.165
 4456TIP3    H113374   2.126   3.112   0.084
 4456TIP3    H213375   2.034   3.066   0.195
 4457TIP3   OH213376   5.792   2.654   1.324
 4457TIP3    H113377   5.711   2.704   1.334
 4457TIP3    H213378   5.777   2.573   1.373
 4458TIP3   OH213379   4.499   4.534   1.757
 4458TIP3    H113380   4.554   4.589   1.813
 4458TIP3    H213381   4.422   4.514   1.810
 4459TIP3   OH213382   4.858   5.453   2.862
 4459TIP3    H113383   4.791   5.476   2.797
 4459TIP3    H213384   4.906   5.534   2.876
 4460TIP3   OH213385   1.347   1.086   0.944
 4460TIP3    H113386   1.438   1.079   0.914
 4460TIP3    H213387   1.349   1.154   1.012
 4461TIP3   OH213388   2.724   4.548   1.648
 4461TIP3    H113389   2.737   4.500   1.730
 4461TIP3    H213390   2.749   4.638   1.668
 4462TIP3   OH213391   3.004   0.849   3.992
 4462TIP3    H113392   3.099   0.862   3.996
 4462TIP3    H213393   2.976   0.905   3.919
 4463TIP3   OH213394   2.370   5.905   4.398
 4463TIP3    H113395   2.312   5.837   4.363
 4463TIP3    H213396   2.452   5.860   4.416
 4464TIP3   OH213397   4.644   0.448   2.089
 4464TIP3    H113398   4.682   0.370   2.050
 4464TIP3    H213399   4.690   0.459   2.172
 4465TIP3   OH213400   1.133   4.083   0.885
 4465TIP3    H113401   1.227   4.065   0.896
 4465TIP3    H213402   1.128   4.176   0.862
 4466TIP3   OH213403   5.867   4.421   1.347
 4466TIP3    H113404   5.931   4.386   1.286
 4466TIP3    H213405   5.843   4.347   1.403
 4467TIP3   OH213406   0.074   0.597   0.698
 4467TIP3    H113407   0.010   0.536   0.735
 4467TIP3    H213408   0.041   0.616   0.610
 4468TIP3   OH213409   1.399   5.203   4.628
 4468TIP3    H113410   1.367   5.271   4.687
 4468TIP3    H213411   1.321   5.155   4.601
 4469TIP3   OH213412   0.682   4.769   1.034
 4469TIP3    H113413   0.677   4.864   1.023
 4469TIP3    H213414   0.769   4.755   1.072
 4470TIP3   OH213415   3.458   5.731   4.382
 4470TIP3    H113416   3.486   5.805   4.329
 4470TIP3    H213417   3.376   5.759   4.422
 4471TIP3   OH213418   1.204   5.265   3.004
 4471TIP3    H113419   1.189   5.173   3.026
 4471TIP3    H213420   1.234   5.304   3.086
 4472TIP3   OH213421   4.213   4.430   0.350
 4472TIP3    H113422   4.285   4.395   0.298
 4472TIP3    H213423   4.223   4.391   0.436
 4473TIP3   OH213424   2.227   1.039   3.669
 4473TIP3    H113425   2.224   1.109   3.734
 4473TIP3    H213426   2.247   1.084   3.586
 4474TIP3   OH213427   3.690   0.802   4.112
 4474TIP3    H113428   3.759   0.806   4.046
 4474TIP3    H213429   3.680   0.709   4.131
 4475TIP3   OH213430   2.197   4.140   3.273
 4475TIP3    H113431   2.140   4.205   3.233
 4475TIP3    H213432   2.285   4.167   3.249
 4476TIP3   OH213433   4.098   2.949   2.644
 4476TIP3    H113434   4.045   2.876   2.676
 4476TIP3    H213435   4.168   2.959   2.708
 4477TIP3   OH213436   4.206   3.363   3.666
 4477TIP3    H113437   4.274   3.342   3.603
 4477TIP3    H213438   4.135   3.303   3.645
 4478TIP3   OH213439   0.688   4.441   0.461
 4478TIP3    H113440   0.657   4.511   0.519
 4478TIP3    H213441   0.754   4.483   0.406
 4479TIP3   OH213442   3.702   1.195   4.796
 4479TIP3    H113443   3.697   1.262   4.728
 4479TIP3    H213444   3.774   1.223   4.853
 4480TIP3   OH213445   5.225   3.344   1.801
 4480TIP3    H113446   5.259   3.396   1.874
 4480TIP3    H213447   5.302   3.298   1.766
 4481TIP3   OH213448   4.121   0.631   0.589
 4481TIP3    H113449   4.081   0.576   0.656
 4481TIP3    H213450   4.048   0.659   0.534
 4482TIP3   OH213451   2.154   0.638   1.238
 4482TIP3    H113452   2.153   0.671   1.328
 4482TIP3    H213453   2.127   0.547   1.246
 4483TIP3   OH213454   1.875   4.151   0.616
 4483TIP3    H113455   1.900   4.133   0.525
 4483TIP3    H213456   1.826   4.233   0.612
 4484TIP3   OH213457   0.867   2.151   2.383
 4484TIP3    H113458   0.884   2.150   2.477
 4484TIP3    H213459   0.924   2.084   2.346
 4485TIP3   OH213460   4.738   4.936   2.620
 4485TIP3    H113461   4.673   4.868   2.633
 4485TIP3    H213462   4.822   4.894   2.642
 4486TIP3   OH213463   5.362   2.365   0.608
 4486TIP3    H113464   5.371   2.449   0.564
 4486TIP3    H213465   5.343   2.303   0.538
 4487TIP3   OH213466   1.815   2.702   4.317
 4487TIP3    H113467   1.893   2.655   4.288
 4487TIP3    H213468   1.836   2.733   4.405
 4488TIP3   OH213469   1.071   3.498   2.747
 4488TIP3    H113470   1.154   3.539   2.723
 4488TIP3    H213471   1.091   3.404   2.750
 4489TIP3   OH213472   6.092   2.015   2.436
 4489TIP3    H113473   6.173   1.999   2.386
 4489TIP3    H213474   6.026   1.961   2.393
 4490TIP3   OH213475   6.232   5.075   1.415
 4490TIP3    H113476   6.157   5.030   1.453
 4490TIP3    H213477   6.246   5.032   1.331
 4491TIP3   OH213478   5.001   2.278   0.600
 4491TIP3    H113479   5.037   2.358   0.638
 4491TIP3    H213480   5.076   2.235   0.558
 4492TIP3   OH213481   0.108   3.797   0.065
 4492TIP3    H113482   0.042   3.860   0.096
 4492TIP3    H213483   0.109   3.808  -0.030
 4493TIP3   OH213484   2.622   2.635   2.077
 4493TIP3    H113485   2.565   2.674   2.144
 4493TIP3    H213486   2.699   2.606   2.126
 4494TIP3   OH213487   4.489   5.809   2.906
 4494TIP3    H113488   4.505   5.715   2.908
 4494TIP3    H213489   4.566   5.845   2.860
 4495TIP3   OH213490   2.037   2.548   3.773
 4495TIP3    H113491   1.983   2.516   3.845
 4495TIP3    H213492   1.974   2.582   3.709
 4496TIP3   OH213493   6.051   5.563   3.098
 4496TIP3    H113494   5.989   5.626   3.061
 4496TIP3    H213495   6.019   5.477   3.068
 4497TIP3   OH213496   1.141   4.369   0.841
 4497TIP3    H113497   1.107   4.411   0.920
 4497TIP3    H213498   1.233   4.394   0.837
 4498TIP3   OH213499   3.387   2.311   2.185
 4498TIP3    H113500   3.402   2.221   2.154
 4498TIP3    H213501   3.462   2.331   2.241
 4499TIP3   OH213502   0.316   4.168   5.011
 4499TIP3    H113503   0.255   4.238   4.990
 4499TIP3    H213504   0.378   4.166   4.938
 4500TIP3   OH213505   1.023   5.704   2.158
 4500TIP3    H113506   0.982   5.734   2.240
 4500TIP3    H213507   1.080   5.776   2.132
 4501TIP3   OH213508   5.631   4.769   1.318
 4501TIP3    H113509   5.583   4.727   1.390
 4501TIP3    H213510   5.584   4.850   1.301
 4502TIP3   OH213511   4.624   2.785   0.100
 4502TIP3    H113512   4.640   2.705   0.050
 4502TIP3    H213513   4.689   2.782   0.170
 4503TIP3   OH213514   4.726   0.920   3.915
 4503TIP3    H113515   4.682   0.992   3.869
 4503TIP3    H213516   4.655   0.862   3.941
 4504TIP3   OH213517   1.484   4.045   3.135
 4504TIP3    H113518   1.467   4.010   3.223
 4504TIP3    H213519   1.425   3.995   3.078
 4505TIP3   OH213520   3.534   0.730   2.281
 4505TIP3    H113521   3.570   0.642   2.283
 4505TIP3    H213522   3.453   0.722   2.230
 4506TIP3   OH213523   2.697   0.281   4.490
 4506TIP3    H113524   2.621   0.283   4.431
 4506TIP3    H213525   2.758   0.220   4.449
 4507TIP3   OH213526   2.468   5.053   1.078
 4507TIP3    H113527   2.525   5.095   1.013
 4507TIP3    H213528   2.528   4.999   1.130
 4508TIP3   OH213529   6.174   5.917   0.750
 4508TIP3    H113530   6.175   5.955   0.838
 4508TIP3    H213531   6.202   5.989   0.693
 4509TIP3   OH213532   3.576   5.373   2.380
 4509TIP3    H113533   3.495   5.325   2.365
 4509TIP3    H213534   3.559   5.428   2.456
 4510TIP3   OH213535   4.247   3.367   0.365
 4510TIP3    H113536   4.228   3.415   0.284
 4510TIP3    H213537   4.341   3.379   0.379
 4511TIP3   OH213538   5.826   0.401   3.009
 4511TIP3    H113539   5.851   0.457   3.082
 4511TIP3    H213540   5.865   0.442   2.932
 4512TIP3   OH213541   2.084   1.879   3.419
 4512TIP3    H113542   2.072   1.787   3.442
 4512TIP3    H213543   2.025   1.926   3.478
 4513TIP3   OH213544   0.870   3.007   0.485
 4513TIP3    H113545   0.915   2.995   0.568
 4513TIP3    H213546   0.900   2.933   0.431
 4514TIP3   OH213547   1.994   2.476   4.191
 4514TIP3    H113548   2.073   2.510   4.234
 4514TIP3    H213549   1.955   2.417   4.255
 4515TIP3   OH213550   3.788   4.997   1.448
 4515TIP3    H113551   3.728   5.051   1.499
 4515TIP3    H213552   3.865   5.052   1.435
 4516TIP3   OH213553   1.981   2.106   3.758
 4516TIP3    H113554   1.973   2.097   3.663
 4516TIP3    H213555   1.907   2.057   3.794
 4517TIP3   OH213556   5.812   5.810   1.873
 4517TIP3    H113557   5.745   5.806   1.941
 4517TIP3    H213558   5.894   5.789   1.918
 4518TIP3   OH213559   6.238   2.790   4.608
 4518TIP3    H113560   6.221   2.878   4.641
 4518TIP3    H213561   6.180   2.781   4.533
 4519TIP3   OH213562   1.982   5.938   5.080
 4519TIP3    H113563   1.935   5.981   5.152
 4519TIP3    H213564   2.073   5.965   5.092
 4520TIP3   OH213565   0.580   3.668   0.396
 4520TIP3    H113566   0.595   3.585   0.352
 4520TIP3    H213567   0.582   3.733   0.326
 4521TIP3   OH213568   1.174   0.540   0.572
 4521TIP3    H113569   1.170   0.597   0.496
 4521TIP3    H213570   1.189   0.599   0.646
 4522TIP3   OH213571   1.852   3.890   4.514
 4522TIP3    H113572   1.790   3.962   4.526
 4522TIP3    H213573   1.800   3.811   4.528
 4523TIP3   OH213574   2.372   4.022   3.832
 4523TIP3    H113575   2.277   4.023   3.819
 4523TIP3    H213576   2.390   3.935   3.868
 4524TIP3   OH213577   1.655   1.585   4.451
 4524TIP3    H113578   1.568   1.569   4.414
 4524TIP3    H213579   1.692   1.498   4.465
 4525TIP3   OH213580   6.300   4.677   2.544
 4525TIP3    H113581   6.312   4.765   2.509
 4525TIP3    H213582   6.372   4.665   2.606
 4526TIP3   OH213583   5.350   3.980   4.120
 4526TIP3    H113584   5.412   4.052   4.106
 4526TIP3    H213585   5.325   3.952   4.031
 4527TIP3   OH213586   2.823   4.087   1.116
 4527TIP3    H113587   2.773   4.010   1.139
 4527TIP3    H213588   2.816   4.144   1.193
 4528TIP3   OH213589   5.209   5.540   0.966
 4528TIP3    H113590   5.206   5.634   0.947
 4528TIP3    H213591   5.117   5.514   0.969
 4529TIP3   OH213592   2.479   3.671   0.729
 4529TIP3    H113593   2.493   3.633   0.642
 4529TIP3    H213594   2.517   3.759   0.723
 4530TIP3   OH213595   4.419   0.181   1.056
 4530TIP3    H113596   4.449   0.202   1.144
 4530TIP3    H213597   4.482   0.225   0.998
 4531TIP3   OH213598   4.888   0.424   3.065
 4531TIP3    H113599   4.962   0.395   3.117
 4531TIP3    H213600   4.898   0.379   2.981
 4532TIP3   OH213601   1.306   0.596   0.026
 4532TIP3    H113602   1.389   0.556   0.003
 4532TIP3    H213603   1.315   0.688   0.000
 4533TIP3   OH213604   3.568   1.027   4.294
 4533TIP3    H113605   3.554   0.972   4.371
 4533TIP3    H213606   3.630   0.978   4.240
 4534TIP3   OH213607   3.716   5.612   1.688
 4534TIP3    H113608   3.774   5.688   1.687
 4534TIP3    H213609   3.721   5.579   1.777
 4535TIP3   OH213610   1.094   3.814   3.367
 4535TIP3    H113611   1.021   3.876   3.359
 4535TIP3    H213612   1.052   3.732   3.395
 4536TIP3   OH213613   0.946   2.350   4.087
 4536TIP3    H113614   1.016   2.407   4.120
 4536TIP3    H213615   0.960   2.350   3.992
 4537TIP3   OH213616   2.204   0.413   2.892
 4537TIP3    H113617   2.188   0.507   2.879
 4537TIP3    H213618   2.298   0.408   2.907
 4538TIP3   OH213619   1.336   0.111   4.518
 4538TIP3    H113620   1.268   0.045   4.505
 4538TIP3    H213621   1.295   0.194   4.491
 4539TIP3   OH213622   5.382   0.274   3.410
 4539TIP3    H113623   5.454   0.295   3.470
 4539TIP3    H213624   5.307   0.259   3.466
 4540TIP3   OH213625   4.659   3.754   2.488
 4540TIP3    H113626   4.608   3.788   2.562
 4540TIP3    H213627   4.707   3.679   2.525
 4541TIP3   OH213628   3.684   1.631   0.110
 4541TIP3    H113629   3.622   1.560   0.096
 4541TIP3    H213630   3.661   1.696   0.044
 4542TIP3   OH213631   0.444   4.918   3.375
 4542TIP3    H113632   0.409   4.920   3.464
 4542TIP3    H213633   0.539   4.906   3.387
 4543TIP3   OH213634   5.810   4.893   0.564
 4543TIP3    H113635   5.748   4.823   0.584
 4543TIP3    H213636   5.836   4.927   0.650
 4544TIP3   OH213637   3.110   5.176   0.966
 4544TIP3    H113638   3.091   5.086   0.995
 4544TIP3    H213639   3.070   5.231   1.033
 4545TIP3   OH213640   3.951   2.176   0.296
 4545TIP3    H113641   3.897   2.122   0.237
 4545TIP3    H213642   3.887   2.222   0.350
 4546TIP3   OH213643   0.443   0.049   1.538
 4546TIP3    H113644   0.355   0.025   1.506
 4546TIP3    H213645   0.496  -0.030   1.522
 4547TIP3   OH213646   0.799   0.253   3.640
 4547TIP3    H113647   0.732   0.248   3.708
 4547TIP3    H213648   0.764   0.198   3.569
 4548TIP3   OH213649   2.230   1.337   4.531
 4548TIP3    H113650   2.204   1.264   4.474
 4548TIP3    H213651   2.236   1.412   4.471
 4549TIP3   OH213652   2.549   5.574   2.875
 4549TIP3    H113653   2.519   5.655   2.916
 4549TIP3    H213654   2.644   5.585   2.867
 4550TIP3   OH213655   2.779   1.022   1.424
 4550TIP3    H113656   2.847   0.954   1.431
 4550TIP3    H213657   2.738   1.023   1.511
 4551TIP3   OH213658   3.819   2.370   0.475
 4551TIP3    H113659   3.913   2.382   0.484
 4551TIP3    H213660   3.782   2.458   0.487
 4552TIP3   OH213661   4.584   4.403   3.521
 4552TIP3    H113662   4.654   4.469   3.521
 4552TIP3    H213663   4.553   4.402   3.612
 4553TIP3   OH213664   1.536   1.596   2.853
 4553TIP3    H113665   1.549   1.501   2.849
 4553TIP3    H213666   1.461   1.607   2.912
 4554TIP3   OH213667   1.940   5.874   3.703
 4554TIP3    H113668   1.845   5.865   3.699
 4554TIP3    H213669   1.972   5.826   3.627
 4555TIP3   OH213670   0.611   1.783   0.193
 4555TIP3    H113671   0.611   1.746   0.281
 4555TIP3    H213672   0.543   1.733   0.146
 4556TIP3   OH213673   2.192   0.608   4.603
 4556TIP3    H113674   2.243   0.597   4.684
 4556TIP3    H213675   2.104   0.578   4.626
 4557TIP3   OH213676   5.787   4.831   3.906
 4557TIP3    H113677   5.717   4.778   3.870
 4557TIP3    H213678   5.747   4.877   3.981
 4558TIP3   OH213679   0.072   0.053   5.115
 4558TIP3    H113680   0.164   0.078   5.112
 4558TIP3    H213681   0.038   0.076   5.029
 4559TIP3   OH213682   3.268   4.732   5.046
 4559TIP3    H113683   3.348   4.696   5.008
 4559TIP3    H213684   3.220   4.768   4.971
 4560TIP3   OH213685   4.626   0.952   1.772
 4560TIP3    H113686   4.654   0.972   1.861
 4560TIP3    H213687   4.585   0.866   1.779
 4561TIP3   OH213688   3.298   0.364   2.420
 4561TIP3    H113689   3.322   0.454   2.439
 4561TIP3    H213690   3.235   0.341   2.489
 4562TIP3   OH213691   2.258   3.994   1.565
 4562TIP3    H113692   2.211   4.029   1.640
 4562TIP3    H213693   2.236   3.901   1.564
 4563TIP3   OH213694   1.798   1.820   3.196
 4563TIP3    H113695   1.772   1.755   3.131
 4563TIP3    H213696   1.871   1.866   3.156
 4564TIP3   OH213697   2.121   0.751   5.008
 4564TIP3    H113698   2.034   0.754   5.047
 4564TIP3    H213699   2.117   0.676   4.947
 4565TIP3   OH213700   6.099   3.372   2.419
 4565TIP3    H113701   6.089   3.394   2.327
 4565TIP3    H213702   6.023   3.411   2.462
 4566TIP3   OH213703   2.080   5.327   4.080
 4566TIP3    H113704   2.133   5.403   4.056
 4566TIP3    H213705   2.044   5.349   4.166
 4567TIP3   OH213706   2.036   3.950   2.421
 4567TIP3    H113707   2.081   3.884   2.475
 4567TIP3    H213708   2.105   3.989   2.369
 4568TIP3   OH213709   3.459   1.283   1.046
 4568TIP3    H113710   3.487   1.374   1.043
 4568TIP3    H213711   3.528   1.238   1.095
 4569TIP3   OH213712   1.726   3.168   2.149
 4569TIP3    H113713   1.680   3.228   2.090
 4569TIP3    H213714   1.811   3.209   2.164
 4570TIP3   OH213715   5.044   3.484   0.860
 4570TIP3    H113716   4.983   3.477   0.786
 4570TIP3    H213717   5.076   3.574   0.857
 4571TIP3   OH213718   5.951   2.211   1.082
 4571TIP3    H113719   5.911   2.145   1.025
 4571TIP3    H213720   5.879   2.270   1.104
 4572TIP3   OH213721   2.706   5.140   0.546
 4572TIP3    H113722   2.788   5.163   0.590
 4572TIP3    H213723   2.640   5.197   0.586
 4573TIP3   OH213724   5.326   5.777   0.690
 4573TIP3    H113725   5.261   5.763   0.759
 4573TIP3    H213726   5.409   5.749   0.729
 4574TIP3   OH213727   2.889   2.926   0.843
 4574TIP3    H113728   2.798   2.953   0.844
 4574TIP3    H213729   2.887   2.832   0.864
 4575TIP3   OH213730   0.607   4.275   4.426
 4575TIP3    H113731   0.518   4.295   4.398
 4575TIP3    H213732   0.663   4.324   4.366
 4576TIP3   OH213733   3.537   5.953   1.543
 4576TIP3    H113734   3.528   5.860   1.521
 4576TIP3    H213735   3.540   5.955   1.639
 4577TIP3   OH213736   5.018   3.786   0.537
 4577TIP3    H113737   5.008   3.792   0.442
 4577TIP3    H213738   4.981   3.700   0.560
 4578TIP3   OH213739   1.875   3.110   1.195
 4578TIP3    H113740   1.868   3.077   1.285
 4578TIP3    H213741   1.798   3.167   1.185
 4579TIP3   OH213742   5.403   3.404   3.728
 4579TIP3    H113743   5.326   3.460   3.734
 4579TIP3    H213744   5.420   3.396   3.634
 4580TIP3   OH213745   0.687   4.756   3.096
 4580TIP3    H113746   0.748   4.778   3.167
 4580TIP3    H213747   0.619   4.704   3.138
 4581TIP3   OH213748   0.236   5.818   3.544
 4581TIP3    H113749   0.272   5.850   3.627
 4581TIP3    H213750   0.141   5.828   3.554
 4582TIP3   OH213751   5.309   1.550   1.371
 4582TIP3    H113752   5.354   1.475   1.409
 4582TIP3    H213753   5.268   1.595   1.445
 4583TIP3   OH213754   3.963   1.092   4.138
 4583TIP3    H113755   4.042   1.039   4.129
 4583TIP3    H213756   3.891   1.030   4.130
 4584TIP3   OH213757   4.722   2.024   4.119
 4584TIP3    H113758   4.808   2.035   4.080
 4584TIP3    H213759   4.663   2.077   4.064
 4585TIP3   OH213760   1.925   4.685   2.539
 4585TIP3    H113761   1.882   4.645   2.464
 4585TIP3    H213762   2.018   4.670   2.524
 4586TIP3   OH213763   2.609   4.917   3.029
 4586TIP3    H113764   2.571   4.927   2.941
 4586TIP3    H213765   2.703   4.928   3.017
 4587TIP3   OH213766   4.976   4.675   2.113
 4587TIP3    H113767   4.914   4.643   2.179
 4587TIP3    H213768   5.017   4.596   2.079
 4588TIP3   OH213769   4.840   0.291   4.839
 4588TIP3    H113770   4.862   0.380   4.812
 4588TIP3    H213771   4.825   0.244   4.757
 4589TIP3   OH213772   4.101   4.640   0.742
 4589TIP3    H113773   4.055   4.624   0.824
 4589TIP3    H213774   4.036   4.682   0.686
 4590TIP3   OH213775   5.864   0.237   3.332
 4590TIP3    H113776   5.771   0.222   3.314
 4590TIP3    H213777   5.869   0.243   3.427
 4591TIP3   OH213778   1.401   2.065   0.681
 4591TIP3    H113779   1.321   2.081   0.731
 4591TIP3    H213780   1.383   2.102   0.594
 4592TIP3   OH213781   0.165   3.352   4.890
 4592TIP3    H113782   0.079   3.384   4.863
 4592TIP3    H213783   0.181   3.394   4.975
 4593TIP3   OH213784   4.809   3.758   3.193
 4593TIP3    H113785   4.787   3.725   3.280
 4593TIP3    H213786   4.744   3.826   3.176
 4594TIP3   OH213787   5.049   5.711   5.068
 4594TIP3    H113788   5.030   5.757   5.150
 4594TIP3    H213789   4.967   5.714   5.019
 4595TIP3   OH213790   5.896   4.159   3.784
 4595TIP3    H113791   5.981   4.120   3.763
 4595TIP3    H213792   5.875   4.124   3.871
 4596TIP3   OH213793   6.238   1.844   0.228
 4596TIP3    H113794   6.322   1.856   0.183
 4596TIP3    H213795   6.204   1.762   0.193
 4597TIP3   OH213796   0.559   4.940   1.863
 4597TIP3    H113797   0.638   4.887   1.873
 4597TIP3    H213798   0.591   5.024   1.828
 4598TIP3   OH213799   3.249   2.322   3.015
 4598TIP3    H113800   3.158   2.295   3.024
 4598TIP3    H213801   3.290   2.253   2.963
 4599TIP3   OH213802   2.373   1.115   3.276
 4599TIP3    H113803   2.320   1.171   3.219
 4599TIP3    H213804   2.463   1.138   3.255
 4600TIP3   OH213805   0.502   3.004   1.682
 4600TIP3    H113806   0.548   3.048   1.610
 4600TIP3    H213807   0.529   3.051   1.761
 4601TIP3   OH213808   0.437   1.540   0.878
 4601TIP3    H113809   0.429   1.617   0.934
 4601TIP3    H213810   0.396   1.565   0.796
 4602TIP3   OH213811   4.931   2.577   3.654
 4602TIP3    H113812   4.908   2.650   3.711
 4602TIP3    H213813   4.889   2.597   3.571
 4603TIP3   OH213814   6.032   0.487   1.976
 4603TIP3    H113815   6.059   0.575   2.000
 4603TIP3    H213816   5.941   0.481   2.005
 4604TIP3   OH213817   4.114   0.895   3.140
 4604TIP3    H113818   4.058   0.949   3.084
 4604TIP3    H213819   4.117   0.810   3.096
 4605TIP3   OH213820   0.754   5.668   3.369
 4605TIP3    H113821   0.663   5.644   3.351
 4605TIP3    H213822   0.751   5.760   3.394
 4606TIP3   OH213823   5.426   4.069   2.133
 4606TIP3    H113824   5.402   3.978   2.147
 4606TIP3    H213825   5.348   4.119   2.158
 4607TIP3   OH213826   3.447   0.026   4.562
 4607TIP3    H113827   3.505   0.101   4.550
 4607TIP3    H213828   3.424   0.029   4.655
 4608TIP3   OH213829   4.011   5.148   0.901
 4608TIP3    H113830   3.920   5.138   0.872
 4608TIP3    H213831   4.015   5.237   0.935
 4609TIP3   OH213832   4.294   2.495   0.196
 4609TIP3    H113833   4.236   2.550   0.248
 4609TIP3    H213834   4.376   2.492   0.246
 4610TIP3   OH213835   4.448   4.719   3.704
 4610TIP3    H113836   4.370   4.690   3.656
 4610TIP3    H213837   4.474   4.643   3.755
 4611TIP3   OH213838   3.226   0.592   4.863
 4611TIP3    H113839   3.156   0.531   4.890
 4611TIP3    H213840   3.264   0.552   4.785
 4612TIP3   OH213841   4.931   4.130   0.912
 4612TIP3    H113842   4.977   4.054   0.948
 4612TIP3    H213843   5.000   4.193   0.892
 4613TIP3   OH213844   5.673   2.386   4.394
 4613TIP3    H113845   5.613   2.319   4.362
 4613TIP3    H213846   5.760   2.350   4.377
 4614TIP3   OH213847   6.272   5.534   1.995
 4614TIP3    H113848   6.255   5.485   2.076
 4614TIP3    H213849   6.364   5.514   1.975
 4615TIP3   OH213850   4.921   4.938   0.517
 4615TIP3    H113851   4.914   4.945   0.422
 4615TIP3    H213852   4.890   4.850   0.536
 4616TIP3   OH213853   0.552   1.980   4.252
 4616TIP3    H113854   0.645   1.957   4.247
 4616TIP3    H213855   0.551   2.066   4.293
 4617TIP3   OH213856   5.504   4.725   3.019
 4617TIP3    H113857   5.520   4.807   3.066
 4617TIP3    H213858   5.508   4.750   2.926
 4618TIP3   OH213859   6.152   2.127   4.368
 4618TIP3    H113860   6.112   2.058   4.421
 4618TIP3    H213861   6.239   2.094   4.346
 4619TIP3   OH213862   2.201   3.985   0.235
 4619TIP3    H113863   2.251   3.918   0.281
 4619TIP3    H213864   2.260   4.061   0.231
 4620TIP3   OH213865   6.315   5.040   0.286
 4620TIP3    H113866   6.365   5.077   0.213
 4620TIP3    H213867   6.232   5.012   0.247
 4621TIP3   OH213868   4.166   5.966   3.005
 4621TIP3    H113869   4.077   5.962   3.040
 4621TIP3    H213870   4.155   5.989   2.912
 4622TIP3   OH213871   3.158   1.891   0.918
 4622TIP3    H113872   3.100   1.816   0.906
 4622TIP3    H213873   3.243   1.852   0.938
 4623TIP3   OH213874   3.821   2.976   3.268
 4623TIP3    H113875   3.762   2.920   3.318
 4623TIP3    H213876   3.783   3.063   3.274
 4624TIP3   OH213877   2.152   5.719   2.968
 4624TIP3    H113878   2.186   5.632   2.990
 4624TIP3    H213879   2.057   5.711   2.980
 4625TIP3   OH213880   2.424   3.556   2.125
 4625TIP3    H113881   2.491   3.520   2.184
 4625TIP3    H213882   2.474   3.603   2.058
 4626TIP3   OH213883   3.896   4.601   0.332
 4626TIP3    H113884   3.853   4.590   0.247
 4626TIP3    H213885   3.977   4.550   0.325
 4627TIP3   OH213886   2.888   2.472   2.427
 4627TIP3    H113887   2.832   2.468   2.350
 4627TIP3    H213888   2.975   2.450   2.395
 4628TIP3   OH213889   3.905   2.545   2.938
 4628TIP3    H113890   3.908   2.609   3.010
 4628TIP3    H213891   3.981   2.488   2.954
 4629TIP3   OH213892   2.023   2.372   2.900
 4629TIP3    H113893   2.003   2.300   2.840
 4629TIP3    H213894   1.971   2.353   2.978
 4630TIP3   OH213895   1.617   3.998   1.547
 4630TIP3    H113896   1.712   4.004   1.558
 4630TIP3    H213897   1.586   3.964   1.631
 4631TIP3   OH213898   4.133   2.794   0.931
 4631TIP3    H113899   4.064   2.849   0.966
 4631TIP3    H213900   4.124   2.801   0.836
 4632TIP3   OH213901   1.777   2.714   3.602
 4632TIP3    H113902   1.791   2.775   3.674
 4632TIP3    H213903   1.775   2.769   3.524
 4633TIP3   OH213904   3.594   3.447   2.765
 4633TIP3    H113905   3.588   3.374   2.704
 4633TIP3    H213906   3.681   3.484   2.749
 4634TIP3   OH213907   1.948   0.976   1.332
 4634TIP3    H113908   1.895   1.056   1.335
 4634TIP3    H213909   1.889   0.909   1.297
 4635TIP3   OH213910   3.607   0.140   1.369
 4635TIP3    H113911   3.599   0.051   1.334
 4635TIP3    H213912   3.665   0.184   1.308
 4636TIP3   OH213913   1.525   1.332   0.815
 4636TIP3    H113914   1.474   1.265   0.769
 4636TIP3    H213915   1.600   1.348   0.758
 4637TIP3   OH213916   1.743   5.742   1.943
 4637TIP3    H113917   1.663   5.779   1.905
 4637TIP3    H213918   1.712   5.692   2.019
 4638TIP3   OH213919   3.236   1.532   2.047
 4638TIP3    H113920   3.266   1.448   2.080
 4638TIP3    H213921   3.252   1.529   1.953
 4639TIP3   OH213922   2.926   2.872   4.794
 4639TIP3    H113923   2.832   2.879   4.806
 4639TIP3    H213924   2.964   2.910   4.873
 4640TIP3   OH213925   0.957   1.102   2.575
 4640TIP3    H113926   0.935   1.053   2.654
 4640TIP3    H213927   0.971   1.035   2.508
 4641TIP3   OH213928   3.365   1.863   3.520
 4641TIP3    H113929   3.347   1.821   3.604
 4641TIP3    H213930   3.459   1.882   3.523
 4642TIP3   OH213931   0.871   3.437   4.474
 4642TIP3    H113932   0.842   3.347   4.460
 4642TIP3    H213933   0.965   3.435   4.458
 4643TIP3   OH213934   6.168   5.653   4.761
 4643TIP3    H113935   6.193   5.561   4.768
 4643TIP3    H213936   6.072   5.652   4.762
 4644TIP3   OH213937   1.562   3.353   1.931
 4644TIP3    H113938   1.509   3.276   1.913
 4644TIP3    H213939   1.555   3.406   1.851
 4645TIP3   OH213940   6.088   4.960   0.147
 4645TIP3    H113941   6.088   4.883   0.091
 4645TIP3    H213942   6.115   5.032   0.090
 4646TIP3   OH213943   1.327   0.736   1.634
 4646TIP3    H113944   1.231   0.735   1.627
 4646TIP3    H213945   1.346   0.812   1.689
 4647TIP3   OH213946   5.898   3.918   3.966
 4647TIP3    H113947   5.986   3.898   3.932
 4647TIP3    H213948   5.861   3.832   3.986
 4648TIP3   OH213949   3.218   2.832   0.097
 4648TIP3    H113950   3.306   2.863   0.119
 4648TIP3    H213951   3.191   2.782   0.173
 4649TIP3   OH213952   5.536   1.174   4.148
 4649TIP3    H113953   5.522   1.131   4.064
 4649TIP3    H213954   5.631   1.180   4.157
 4650TIP3   OH213955   1.208   0.478   2.675
 4650TIP3    H113956   1.177   0.469   2.765
 4650TIP3    H213957   1.291   0.525   2.683
 4651TIP3   OH213958  -0.025   4.660   2.953
 4651TIP3    H113959   0.000   4.749   2.927
 4651TIP3    H213960   0.041   4.635   3.018
 4652TIP3   OH213961   5.979   3.120   2.503
 4652TIP3    H113962   6.023   3.123   2.588
 4652TIP3    H213963   6.016   3.194   2.455
 4653TIP3   OH213964   2.155   0.689   2.894
 4653TIP3    H113965   2.180   0.779   2.914
 4653TIP3    H213966   2.074   0.697   2.843
 4654TIP3   OH213967   1.262   2.958   1.632
 4654TIP3    H113968   1.286   2.896   1.702
 4654TIP3    H213969   1.220   3.030   1.678
 4655TIP3   OH213970   3.938   1.523   3.251
 4655TIP3    H113971   3.970   1.441   3.214
 4655TIP3    H213972   3.853   1.501   3.289
 4656TIP3   OH213973   1.100   0.317   3.983
 4656TIP3    H113974   1.178   0.358   4.020
 4656TIP3    H213975   1.082   0.366   3.903
 4657TIP3   OH213976   3.224   0.600   1.805
 4657TIP3    H113977   3.264   0.619   1.890
 4657TIP3    H213978   3.164   0.673   1.790
 4658TIP3   OH213979   3.026   5.033   5.107
 4658TIP3    H113980   2.951   4.990   5.065
 4658TIP3    H213981   2.987   5.101   5.161
 4659TIP3   OH213982   1.662   1.607   4.135
 4659TIP3    H113983   1.731   1.559   4.090
 4659TIP3    H213984   1.615   1.541   4.186
 4660TIP3   OH213985   4.453   2.644   2.874
 4660TIP3    H113986   4.400   2.606   2.943
 4660TIP3    H213987   4.542   2.612   2.891
 4661TIP3   OH213988   1.385   3.090   1.425
 4661TIP3    H113989   1.329   3.034   1.478
 4661TIP3    H213990   1.380   3.176   1.467
 4662TIP3   OH213991   4.805   4.893   1.968
 4662TIP3    H113992   4.819   4.832   2.041
 4662TIP3    H213993   4.892   4.927   1.947
 4663TIP3   OH213994   3.846   4.938   0.091
 4663TIP3    H113995   3.908   4.909   0.023
 4663TIP3    H213996   3.889   4.915   0.173
 4664TIP3   OH213997   6.159   4.943   4.374
 4664TIP3    H113998   6.245   4.904   4.357
 4664TIP3    H213999   6.125   4.964   4.287
 4665TIP3   OH214000   2.905   3.938   3.738
 4665TIP3    H114001   2.956   3.997   3.795
 4665TIP3    H214002   2.922   3.851   3.773
 4666TIP3   OH214003   5.928   1.124   0.884
 4666TIP3    H114004   5.836   1.116   0.909
 4666TIP3    H214005   5.977   1.115   0.966
 4667TIP3   OH214006   3.622   0.483   2.211
 4667TIP3    H114007   3.617   0.392   2.183
 4667TIP3    H214008   3.697   0.486   2.271
 4668TIP3   OH214009   2.181   0.495   0.495
 4668TIP3    H114010   2.236   0.472   0.569
 4668TIP3    H214011   2.195   0.425   0.431
 4669TIP3   OH214012   2.150   4.500   0.318
 4669TIP3    H114013   2.216   4.561   0.351
 4669TIP3    H214014   2.199   4.442   0.259
 4670TIP3   OH214015   5.474   1.437   3.420
 4670TIP3    H114016   5.498   1.463   3.332
 4670TIP3    H214017   5.394   1.486   3.440
 4671TIP3   OH214018   3.467   0.672   0.615
 4671TIP3    H114019   3.447   0.746   0.672
 4671TIP3    H214020   3.424   0.694   0.532
 4672TIP3   OH214021   2.905   5.927   2.995
 4672TIP3    H114022   2.852   5.979   3.055
 4672TIP3    H214023   2.988   5.975   2.989
 4673TIP3   OH214024   0.959   2.803   4.498
 4673TIP3    H114025   0.892   2.737   4.478
 4673TIP3    H214026   1.026   2.790   4.431
 4674TIP3   OH214027   1.743   0.538   2.453
 4674TIP3    H114028   1.722   0.475   2.523
 4674TIP3    H214029   1.762   0.620   2.500
 4675TIP3   OH214030   0.973   5.377   0.225
 4675TIP3    H114031   0.979   5.462   0.181
 4675TIP3    H214032   1.041   5.323   0.184
 4676TIP3   OH214033   3.683   2.635   2.112
 4676TIP3    H114034   3.597   2.612   2.078
 4676TIP3    H214035   3.712   2.708   2.057
 4677TIP3   OH214036   4.741   0.462   5.050
 4677TIP3    H114037   4.714   0.489   4.962
 4677TIP3    H214038   4.727   0.540   5.104
 4678TIP3   OH214039   0.064   4.242   0.936
 4678TIP3    H114040   0.013   4.297   0.876
 4678TIP3    H214041   0.047   4.153   0.907
 4679TIP3   OH214042   1.574   1.396   2.033
 4679TIP3    H114043   1.555   1.372   2.124
 4679TIP3    H214044   1.533   1.482   2.023
 4680TIP3   OH214045   6.080   5.730   3.597
 4680TIP3    H114046   6.093   5.752   3.689
 4680TIP3    H214047   6.123   5.646   3.586
 4681TIP3   OH214048   5.471   3.428   0.933
 4681TIP3    H114049   5.452   3.510   0.978
 4681TIP3    H214050   5.488   3.454   0.842
 4682TIP3   OH214051   4.151   1.903   0.100
 4682TIP3    H114052   4.220   1.921   0.035
 4682TIP3    H214053   4.198   1.871   0.177
 4683TIP3   OH214054   5.540   1.642   3.240
 4683TIP3    H114055   5.535   1.726   3.286
 4683TIP3    H214056   5.609   1.654   3.175
 4684TIP3   OH214057   5.752   0.915   1.645
 4684TIP3    H114058   5.662   0.939   1.664
 4684TIP3    H214059   5.780   0.863   1.720
 4685TIP3   OH214060   6.226   1.186   1.254
 4685TIP3    H114061   6.285   1.224   1.189
 4685TIP3    H214062   6.151   1.156   1.203
 4686TIP3   OH214063   4.164   5.940   4.471
 4686TIP3    H114064   4.113   5.924   4.392
 4686TIP3    H214065   4.116   6.008   4.517
 4687TIP3   OH214066   3.798   2.993   5.059
 4687TIP3    H114067   3.756   2.982   5.144
 4687TIP3    H214068   3.735   2.959   4.996
 4688TIP3   OH214069   6.324   4.344   0.677
 4688TIP3    H114070   6.331   4.434   0.707
 4688TIP3    H214071   6.239   4.339   0.633
 4689TIP3   OH214072   1.224   1.645   1.157
 4689TIP3    H114073   1.228   1.555   1.127
 4689TIP3    H214074   1.137   1.655   1.195
 4690TIP3   OH214075   5.747   5.937   0.470
 4690TIP3    H114076   5.652   5.925   0.475
 4690TIP3    H214077   5.780   5.907   0.555
 4691TIP3   OH214078   1.851   3.755   2.229
 4691TIP3    H114079   1.842   3.664   2.258
 4691TIP3    H214080   1.863   3.805   2.310
 4692TIP3   OH214081   5.967   2.292   1.763
 4692TIP3    H114082   5.952   2.302   1.857
 4692TIP3    H214083   5.881   2.302   1.723
 4693TIP3   OH214084   4.029   5.857   4.247
 4693TIP3    H114085   3.948   5.829   4.288
 4693TIP3    H214086   4.001   5.919   4.179
 4694TIP3   OH214087   0.249   1.730   2.186
 4694TIP3    H114088   0.207   1.647   2.206
 4694TIP3    H214089   0.255   1.775   2.271
 4695TIP3   OH214090   5.319   3.678   2.545
 4695TIP3    H114091   5.296   3.586   2.535
 4695TIP3    H214092   5.264   3.724   2.481
 4696TIP3   OH214093   4.070   2.741   4.904
 4696TIP3    H114094   3.977   2.741   4.925
 4696TIP3    H214095   4.108   2.674   4.960
 4697TIP3   OH214096   0.318   1.080   1.023
 4697TIP3    H114097   0.310   1.021   1.098
 4697TIP3    H214098   0.322   1.167   1.061
 4698TIP3   OH214099   4.113   2.049   3.011
 4698TIP3    H114100   4.197   2.045   3.058
 4698TIP3    H214101   4.137   2.039   2.919
 4699TIP3   OH214102   2.749   5.816   0.986
 4699TIP3    H114103   2.671   5.829   1.040
 4699TIP3    H214104   2.716   5.810   0.896
 4700TIP3   OH214105   3.742   5.232   0.809
 4700TIP3    H114106   3.714   5.287   0.736
 4700TIP3    H214107   3.661   5.196   0.844
 4701TIP3   OH214108   4.871   1.288   1.898
 4701TIP3    H114109   4.827   1.265   1.816
 4701TIP3    H214110   4.833   1.228   1.962
 4702TIP3   OH214111   6.075   1.938   3.784
 4702TIP3    H114112   6.086   2.030   3.809
 4702TIP3    H214113   6.160   1.912   3.750
 4703TIP3   OH214114   4.097   4.124   3.600
 4703TIP3    H114115   4.140   4.051   3.646
 4703TIP3    H214116   4.016   4.138   3.648
 4704TIP3   OH214117   5.736   1.391   4.839
 4704TIP3    H114118   5.740   1.446   4.762
 4704TIP3    H214119   5.648   1.405   4.875
 4705TIP3   OH214120   0.927   2.024   2.717
 4705TIP3    H114121   0.949   2.001   2.807
 4705TIP3    H214122   0.926   1.940   2.671
 4706TIP3   OH214123   1.649   1.967   0.511
 4706TIP3    H114124   1.690   2.046   0.476
 4706TIP3    H214125   1.607   1.925   0.436
 4707TIP3   OH214126   6.054   4.134   4.531
 4707TIP3    H114127   5.982   4.107   4.474
 4707TIP3    H214128   6.132   4.096   4.490
 4708TIP3   OH214129   5.470   0.820   1.285
 4708TIP3    H114130   5.463   0.912   1.311
 4708TIP3    H214131   5.518   0.822   1.203
 4709TIP3   OH214132   2.786   1.868   1.640
 4709TIP3    H114133   2.730   1.940   1.610
 4709TIP3    H214134   2.755   1.849   1.729
 4710TIP3   OH214135   5.415   0.546   3.761
 4710TIP3    H114136   5.359   0.554   3.838
 4710TIP3    H214137   5.393   0.461   3.723
 4711TIP3   OH214138   4.323   3.129   3.126
 4711TIP3    H114139   4.265   3.080   3.185
 4711TIP3    H214140   4.374   3.061   3.082
 4712TIP3   OH214141   5.877   2.690   5.159
 4712TIP3    H114142   5.823   2.685   5.079
 4712TIP3    H214143   5.918   2.776   5.155
 4713TIP3   OH214144   1.815   0.625   5.029
 4713TIP3    H114145   1.739   0.568   5.020
 4713TIP3    H214146   1.870   0.582   5.095
 4714TIP3   OH214147   0.148   2.389   4.866
 4714TIP3    H114148   0.155   2.298   4.894
 4714TIP3    H214149   0.155   2.386   4.771
 4715TIP3   OH214150   1.938   2.531   5.156
 4715TIP3    H114151   1.870   2.504   5.217
 4715TIP3    H214152   1.905   2.503   5.070
 4716TIP3   OH214153   0.033   0.271   1.030
 4716TIP3    H114154   0.027   0.193   0.976
 4716TIP3    H214155   0.127   0.286   1.041
 4717TIP3   OH214156   4.864   3.751   1.520
 4717TIP3    H114157   4.927   3.767   1.591
 4717TIP3    H214158   4.884   3.662   1.490
 4718TIP3   OH214159   6.233   1.330   4.601
 4718TIP3    H114160   6.155   1.362   4.646
 4718TIP3    H214161   6.267   1.261   4.658
 4719TIP3   OH214162   1.711   0.917   3.598
 4719TIP3    H114163   1.786   0.944   3.650
 4719TIP3    H214164   1.662   0.857   3.655
 4720TIP3   OH214165   1.276   4.865   2.929
 4720TIP3    H114166   1.211   4.796   2.913
 4720TIP3    H214167   1.298   4.899   2.842
 4721TIP3   OH214168   4.884   0.515   2.245
 4721TIP3    H114169   4.920   0.550   2.327
 4721TIP3    H214170   4.946   0.447   2.219
 4722TIP3   OH214171   3.021   4.224   0.911
 4722TIP3    H114172   3.107   4.188   0.889
 4722TIP3    H214173   2.993   4.174   0.987
 4723TIP3   OH214174   4.536   5.788   2.540
 4723TIP3    H114175   4.566   5.769   2.451
 4723TIP3    H214176   4.496   5.706   2.570
 4724TIP3   OH214177   2.577   2.837   1.885
 4724TIP3    H114178   2.609   2.779   1.954
 4724TIP3    H214179   2.656   2.864   1.838
 4725TIP3   OH214180   5.649   2.774   3.394
 4725TIP3    H114181   5.710   2.700   3.388
 4725TIP3    H214182   5.704   2.851   3.386
 4726TIP3   OH214183   0.522   3.298   3.406
 4726TIP3    H114184   0.529   3.339   3.320
 4726TIP3    H214185   0.579   3.351   3.463
 4727TIP3   OH214186   2.913   4.417   3.506
 4727TIP3    H114187   2.987   4.377   3.459
 4727TIP3    H214188   2.930   4.511   3.501
 4728TIP3   OH214189   1.147   2.324   1.231
 4728TIP3    H114190   1.133   2.390   1.298
 4728TIP3    H214191   1.153   2.241   1.279
 4729TIP3   OH214192   4.807   3.669   3.455
 4729TIP3    H114193   4.870   3.733   3.490
 4729TIP3    H214194   4.737   3.667   3.520
 4730TIP3   OH214195   3.787   2.214   1.495
 4730TIP3    H114196   3.707   2.162   1.488
 4730TIP3    H214197   3.807   2.239   1.404
 4731TIP3   OH214198   1.862   2.787   4.568
 4731TIP3    H114199   1.901   2.761   4.652
 4731TIP3    H214200   1.854   2.882   4.574
 4732TIP3   OH214201   2.832   0.478   1.043
 4732TIP3    H114202   2.894   0.457   0.973
 4732TIP3    H214203   2.842   0.572   1.056
 4733TIP3   OH214204   2.002   4.947   2.573
 4733TIP3    H114205   2.095   4.926   2.574
 4733TIP3    H214206   1.959   4.868   2.540
 4734TIP3   OH214207   1.001   3.454   2.213
 4734TIP3    H114208   1.024   3.455   2.121
 4734TIP3    H214209   0.944   3.377   2.223
 4735TIP3   OH214210   1.781   0.750   1.489
 4735TIP3    H114211   1.790   0.735   1.394
 4735TIP3    H214212   1.807   0.841   1.501
 4736TIP3   OH214213   3.866   5.468   4.052
 4736TIP3    H114214   3.959   5.447   4.055
 4736TIP3    H214215   3.823   5.391   4.089
 4737TIP3   OH214216   5.192   4.248   2.198
 4737TIP3    H114217   5.221   4.314   2.261
 4737TIP3    H214218   5.131   4.294   2.141
 4738TIP3   OH214219   2.350   0.351   1.128
 4738TIP3    H114220   2.393   0.380   1.208
 4738TIP3    H214221   2.257   0.350   1.151
 4739TIP3   OH214222   3.207   5.271   0.596
 4739TIP3    H114223   3.253   5.342   0.641
 4739TIP3    H214224   3.260   5.193   0.615
 4740TIP3   OH214225   3.107   4.225   3.738
 4740TIP3    H114226   3.167   4.299   3.746
 4740TIP3    H214227   3.141   4.160   3.799
 4741TIP3   OH214228   5.124   5.463   3.128
 4741TIP3    H114229   5.038   5.505   3.118
 4741TIP3    H214230   5.180   5.506   3.064
 4742TIP3   OH214231   0.690   1.183   4.393
 4742TIP3    H114232   0.693   1.111   4.456
 4742TIP3    H214233   0.669   1.260   4.446
 4743TIP3   OH214234   4.001   5.515   4.538
 4743TIP3    H114235   3.950   5.434   4.542
 4743TIP3    H214236   3.950   5.579   4.587
 4744TIP3   OH214237   5.020   0.066   4.965
 4744TIP3    H114238   4.992  -0.011   4.916
 4744TIP3    H214239   5.064   0.121   4.901
 4745TIP3   OH214240   6.339   2.536   3.068
 4745TIP3    H114241   6.292   2.456   3.091
 4745TIP3    H214242   6.379   2.565   3.150
 4746TIP3   OH214243   6.043   1.060   3.774
 4746TIP3    H114244   6.034   1.104   3.690
 4746TIP3    H214245   6.118   1.103   3.816
 4747TIP3   OH214246   3.054   0.197   0.157
 4747TIP3    H114247   3.091   0.246   0.231
 4747TIP3    H214248   2.961   0.221   0.157
 4748TIP3   OH214249   0.332   2.138   0.753
 4748TIP3    H114250   0.326   2.139   0.657
 4748TIP3    H214251   0.303   2.225   0.780
 4749TIP3   OH214252   6.306   4.007   0.403
 4749TIP3    H114253   6.368   4.024   0.474
 4749TIP3    H214254   6.308   3.912   0.392
 4750TIP3   OH214255   3.223   3.325   5.018
 4750TIP3    H114256   3.309   3.367   5.011
 4750TIP3    H214257   3.172   3.383   5.074
 4751TIP3   OH214258   5.350   2.389   1.412
 4751TIP3    H114259   5.343   2.469   1.361
 4751TIP3    H214260   5.340   2.319   1.348
 4752TIP3   OH214261   3.668   0.783   4.457
 4752TIP3    H114262   3.749   0.794   4.408
 4752TIP3    H214263   3.693   0.794   4.549
 4753TIP3   OH214264   1.350   2.853   4.577
 4753TIP3    H114265   1.393   2.815   4.500
 4753TIP3    H214266   1.369   2.792   4.648
 4754TIP3   OH214267   2.937   5.924   0.132
 4754TIP3    H114268   3.013   5.981   0.146
 4754TIP3    H214269   2.871   5.958   0.191
 4755TIP3   OH214270   0.808   2.197   0.134
 4755TIP3    H114271   0.784   2.182   0.226
 4755TIP3    H214272   0.789   2.289   0.119
 4756TIP3   OH214273   5.493   3.630   0.296
 4756TIP3    H114274   5.440   3.593   0.227
 4756TIP3    H214275   5.431   3.656   0.364
 4757TIP3   OH214276   3.614   4.449   4.478
 4757TIP3    H114277   3.655   4.475   4.560
 4757TIP3    H214278   3.615   4.353   4.480
 4758TIP3   OH214279   1.755   2.218   4.724
 4758TIP3    H114280   1.798   2.196   4.641
 4758TIP3    H214281   1.707   2.299   4.706
 4759TIP3   OH214282   4.726   2.955   3.812
 4759TIP3    H114283   4.777   2.885   3.851
 4759TIP3    H214284   4.679   2.994   3.885
 4760TIP3   OH214285   6.039   0.154   5.082
 4760TIP3    H114286   6.049   0.088   5.150
 4760TIP3    H214287   5.996   0.228   5.126
 4761TIP3   OH214288   4.296   0.740   1.364
 4761TIP3    H114289   4.238   0.784   1.303
 4761TIP3    H214290   4.250   0.658   1.386
 4762TIP3   OH214291   2.241   0.040   2.080
 4762TIP3    H114292   2.315   0.093   2.052
 4762TIP3    H214293   2.186   0.033   2.003
 4763TIP3   OH214294   3.764   0.283   2.534
 4763TIP3    H114295   3.707   0.312   2.605
 4763TIP3    H214296   3.852   0.290   2.569
 4764TIP3   OH214297   2.644   0.607   0.359
 4764TIP3    H114298   2.599   0.642   0.436
 4764TIP3    H214299   2.636   0.676   0.293
 4765TIP3   OH214300   6.200   4.943   1.766
 4765TIP3    H114301   6.117   4.937   1.718
 4765TIP3    H214302   6.264   4.900   1.710
 4766TIP3   OH214303   1.974   3.500   1.345
 4766TIP3    H114304   1.945   3.583   1.308
 4766TIP3    H214305   1.957   3.508   1.439
 4767TIP3   OH214306   3.462   2.850   2.125
 4767TIP3    H114307   3.397   2.918   2.142
 4767TIP3    H214308   3.426   2.772   2.167
 4768TIP3   OH214309   4.681   3.879   2.265
 4768TIP3    H114310   4.674   3.826   2.344
 4768TIP3    H214311   4.689   3.969   2.296
 4769TIP3   OH214312   1.944  -0.020   2.730
 4769TIP3    H114313   1.982   0.051   2.781
 4769TIP3    H214314   1.877   0.022   2.677
 4770TIP3   OH214315   0.005   1.694   1.143
 4770TIP3    H114316   0.091   1.661   1.169
 4770TIP3    H214317  -0.044   1.616   1.119
 4771TIP3   OH214318   6.140   0.700   0.164
 4771TIP3    H114319   6.165   0.643   0.092
 4771TIP3    H214320   6.164   0.788   0.135
 4772TIP3   OH214321   4.746   5.881   2.824
 4772TIP3    H114322   4.769   5.942   2.754
 4772TIP3    H214323   4.831   5.850   2.857
 4773TIP3   OH214324   1.139   0.109   0.042
 4773TIP3    H114325   1.105   0.092   0.129
 4773TIP3    H214326   1.103   0.194   0.018
 4774TIP3   OH214327   2.453   1.645   1.513
 4774TIP3    H114328   2.379   1.664   1.456
 4774TIP3    H214329   2.447   1.710   1.583
 4775TIP3   OH214330   0.313   5.992   4.392
 4775TIP3    H114331   0.278   6.071   4.432
 4775TIP3    H214332   0.394   5.975   4.441
 4776TIP3   OH214333   2.368   0.924   1.946
 4776TIP3    H114334   2.348   1.017   1.937
 4776TIP3    H214335   2.343   0.902   2.035
 4777TIP3   OH214336   4.685   0.743   4.586
 4777TIP3    H114337   4.764   0.776   4.629
 4777TIP3    H214338   4.686   0.785   4.500
 4778TIP3   OH214339   0.830   1.927   1.219
 4778TIP3    H114340   0.770   1.886   1.156
 4778TIP3    H214341   0.912   1.936   1.170
 4779TIP3   OH214342   4.373   2.357   3.948
 4779TIP3    H114343   4.344   2.363   3.857
 4779TIP3    H214344   4.320   2.422   3.994
 4780TIP3   OH214345   2.645   1.847   2.824
 4780TIP3    H114346   2.703   1.850   2.748
 4780TIP3    H214347   2.622   1.754   2.833
 4781TIP3   OH214348   5.260   3.821   2.200
 4781TIP3    H114349   5.311   3.741   2.194
 4781TIP3    H214350   5.188   3.808   2.139
 4782TIP3   OH214351   1.923   5.755   2.672
 4782TIP3    H114352   2.006   5.733   2.629
 4782TIP3    H214353   1.901   5.842   2.639
 4783TIP3   OH214354   3.957   4.729   0.951
 4783TIP3    H114355   3.947   4.637   0.975
 4783TIP3    H214356   3.937   4.777   1.031
 4784TIP3   OH214357   4.338   4.855   3.966
 4784TIP3    H114358   4.258   4.819   4.003
 4784TIP3    H214359   4.328   4.843   3.871
 4785TIP3   OH214360   0.558   1.371   5.188
 4785TIP3    H114361   0.479   1.393   5.138
 4785TIP3    H214362   0.624   1.354   5.121
 4786TIP3   OH214363   2.262   4.395   2.396
 4786TIP3    H114364   2.229   4.475   2.437
 4786TIP3    H214365   2.187   4.358   2.350
 4787TIP3   OH214366   4.148   2.913  -0.019
 4787TIP3    H114367   4.081   2.962   0.028
 4787TIP3    H214368   4.212   2.979  -0.046
 4788TIP3   OH214369   2.399   1.434   1.113
 4788TIP3    H114370   2.489   1.403   1.102
 4788TIP3    H214371   2.356   1.414   1.029
 4789TIP3   OH214372   6.095   2.860   0.738
 4789TIP3    H114373   6.075   2.909   0.658
 4789TIP3    H214374   6.179   2.818   0.720
 4790TIP3   OH214375   5.809   5.338   2.821
 4790TIP3    H114376   5.873   5.273   2.791
 4790TIP3    H214377   5.838   5.362   2.909
 4791TIP3   OH214378   6.312   3.082   2.648
 4791TIP3    H114379   6.326   3.016   2.716
 4791TIP3    H214380   6.288   3.032   2.570
 4792TIP3   OH214381   3.669   3.901   4.011
 4792TIP3    H114382   3.597   3.963   4.020
 4792TIP3    H214383   3.628   3.822   3.975
 4793TIP3   OH214384   5.138   4.505   3.780
 4793TIP3    H114385   5.119   4.472   3.868
 4793TIP3    H214386   5.217   4.558   3.791
 4794TIP3   OH214387   5.009   3.051   3.400
 4794TIP3    H114388   4.935   3.031   3.342
 4794TIP3    H214389   4.977   3.027   3.487
 4795TIP3   OH214390   5.639   4.253   1.133
 4795TIP3    H114391   5.720   4.254   1.183
 4795TIP3    H214392   5.661   4.292   1.049
 4796TIP3   OH214393   0.795   1.452   4.179
 4796TIP3    H114394   0.873   1.443   4.234
 4796TIP3    H214395   0.751   1.530   4.212
 4797TIP3   OH214396   0.600   1.544   3.593
 4797TIP3    H114397   0.525   1.526   3.536
 4797TIP3    H214398   0.565   1.599   3.663
 4798TIP3   OH214399   5.635   3.522   2.236
 4798TIP3    H114400   5.580   3.573   2.177
 4798TIP3    H214401   5.645   3.577   2.314
 4799TIP3   OH214402   5.896   1.808   0.349
 4799TIP3    H114403   5.958   1.735   0.357
 4799TIP3    H214404   5.868   1.806   0.257
 4800TIP3   OH214405   5.310   3.748   4.847
 4800TIP3    H114406   5.295   3.654   4.858
 4800TIP3    H214407   5.273   3.788   4.925
 4801TIP3   OH214408   4.344   3.332   3.429
 4801TIP3    H114409   4.288   3.389   3.376
 4801TIP3    H214410   4.324   3.244   3.400
 4802TIP3   OH214411   4.976   0.394   0.584
 4802TIP3    H114412   4.974   0.369   0.491
 4802TIP3    H214413   4.918   0.470   0.590
 4803TIP3   OH214414   0.454   3.742   0.000
 4803TIP3    H114415   0.542   3.706  -0.012
 4803TIP3    H214416   0.466   3.815   0.060
 4804TIP3   OH214417   2.259   0.467   3.250
 4804TIP3    H114418   2.176   0.442   3.209
 4804TIP3    H214419   2.321   0.401   3.220
 4805TIP3   OH214420   5.762   4.834   1.617
 4805TIP3    H114421   5.756   4.741   1.598
 4805TIP3    H214422   5.672   4.866   1.613
 4806TIP3   OH214423   0.692   5.936   3.160
 4806TIP3    H114424   0.750   5.910   3.089
 4806TIP3    H214425   0.615   5.879   3.150
 4807TIP3   OH214426   4.061   3.679   4.127
 4807TIP3    H114427   3.992   3.634   4.077
 4807TIP3    H214428   4.038   3.663   4.219
 4808TIP3   OH214429   2.493   4.472   1.855
 4808TIP3    H114430   2.450   4.449   1.938
 4808TIP3    H214431   2.454   4.413   1.791
 4809TIP3   OH214432   4.210   0.991   4.346
 4809TIP3    H114433   4.250   1.052   4.283
 4809TIP3    H214434   4.209   1.040   4.428
 4810TIP3   OH214435   3.831   2.959   1.308
 4810TIP3    H114436   3.774   3.009   1.366
 4810TIP3    H214437   3.812   2.867   1.329
 4811TIP3   OH214438   5.221   5.328   1.778
 4811TIP3    H114439   5.146   5.387   1.778
 4811TIP3    H214440   5.215   5.280   1.860
 4812TIP3   OH214441   3.646   2.458   1.598
 4812TIP3    H114442   3.652   2.453   1.694
 4812TIP3    H214443   3.689   2.378   1.567
 4813TIP3   OH214444   2.364   4.918   0.146
 4813TIP3    H114445   2.373   4.908   0.051
 4813TIP3    H214446   2.405   4.839   0.182
 4814TIP3   OH214447   0.489   4.005   1.647
 4814TIP3    H114448   0.571   4.020   1.600
 4814TIP3    H214449   0.462   4.092   1.676
 4815TIP3   OH214450   4.754   4.618   3.486
 4815TIP3    H114451   4.814   4.615   3.412
 4815TIP3    H214452   4.800   4.669   3.552
 4816TIP3   OH214453   4.276   0.266   4.558
 4816TIP3    H114454   4.360   0.272   4.603
 4816TIP3    H214455   4.212   0.295   4.623
 4817TIP3   OH214456   5.888   0.558   2.481
 4817TIP3    H114457   5.963   0.556   2.423
 4817TIP3    H214458   5.866   0.466   2.495
 4818TIP3   OH214459   5.224   1.176   2.111
 4818TIP3    H114460   5.152   1.115   2.097
 4818TIP3    H214461   5.263   1.187   2.025
 4819TIP3   OH214462   4.551   1.347   0.758
 4819TIP3    H114463   4.466   1.380   0.790
 4819TIP3    H214464   4.602   1.426   0.742
 4820TIP3   OH214465   2.244   5.712   1.640
 4820TIP3    H114466   2.327   5.747   1.672
 4820TIP3    H214467   2.186   5.714   1.716
 4821TIP3   OH214468   0.942   2.652   5.050
 4821TIP3    H114469   0.971   2.586   4.986
 4821TIP3    H214470   0.977   2.734   5.017
 4822TIP3   OH214471   3.565   3.870   0.076
 4822TIP3    H114472   3.586   3.933   0.145
 4822TIP3    H214473   3.595   3.911  -0.005
 4823TIP3   OH214474   1.679   5.619   1.678
 4823TIP3    H114475   1.640   5.654   1.598
 4823TIP3    H214476   1.604   5.603   1.736
 4824TIP3   OH214477   0.183   2.687   2.193
 4824TIP3    H114478   0.105   2.631   2.188
 4824TIP3    H214479   0.200   2.712   2.102
 4825TIP3   OH214480   3.982   4.264   0.297
 4825TIP3    H114481   4.035   4.339   0.322
 4825TIP3    H214482   4.045   4.193   0.285
 4826TIP3   OH214483   2.157   1.263   3.903
 4826TIP3    H114484   2.126   1.311   3.980
 4826TIP3    H214485   2.083   1.267   3.841
 4827TIP3   OH214486   2.440   2.068   1.030
 4827TIP3    H114487   2.455   2.057   0.936
 4827TIP3    H214488   2.418   2.161   1.040
 4828TIP3   OH214489   3.645   2.066   1.691
 4828TIP3    H114490   3.555   2.058   1.659
 4828TIP3    H214491   3.640   2.134   1.758
 4829TIP3   OH214492   0.865   1.970   3.366
 4829TIP3    H114493   0.941   1.929   3.323
 4829TIP3    H214494   0.883   2.064   3.362
 4830TIP3   OH214495   5.726   0.771   3.363
 4830TIP3    H114496   5.810   0.803   3.331
 4830TIP3    H214497   5.717   0.683   3.326
 4831TIP3   OH214498   3.924   5.049   1.987
 4831TIP3    H114499   3.873   5.119   2.028
 4831TIP3    H214500   3.914   5.066   1.893
 4832TIP3   OH214501   1.872   2.456   2.625
 4832TIP3    H114502   1.893   2.456   2.532
 4832TIP3    H214503   1.956   2.445   2.669
 4833TIP3   OH214504   6.293   0.970   0.579
 4833TIP3    H114505   6.283   0.876   0.598
 4833TIP3    H214506   6.252   1.014   0.653
 4834TIP3   OH214507   1.615   3.322   2.784
 4834TIP3    H114508   1.600   3.252   2.848
 4834TIP3    H214509   1.529   3.336   2.744
 4835TIP3   OH214510   0.021   4.492   2.184
 4835TIP3    H114511  -0.040   4.461   2.251
 4835TIP3    H214512   0.101   4.512   2.233
 4836TIP3   OH214513   6.033   4.120   2.543
 4836TIP3    H114514   5.989   4.110   2.628
 4836TIP3    H214515   6.107   4.178   2.562
 4837TIP3   OH214516   5.313   3.403   4.490
 4837TIP3    H114517   5.335   3.337   4.424
 4837TIP3    H214518   5.398   3.431   4.524
 4838TIP3   OH214519   1.341   5.613   4.745
 4838TIP3    H114520   1.398   5.628   4.820
 4838TIP3    H214521   1.384   5.659   4.673
 4839TIP3   OH214522   1.633   4.779   0.833
 4839TIP3    H114523   1.701   4.836   0.868
 4839TIP3    H214524   1.661   4.690   0.854
 4840TIP3   OH214525   4.242   3.065   4.210
 4840TIP3    H114526   4.171   3.082   4.272
 4840TIP3    H214527   4.321   3.091   4.257
 4841TIP3   OH214528   6.009   0.626   3.532
 4841TIP3    H114529   6.019   0.690   3.603
 4841TIP3    H214530   6.079   0.562   3.548
 4842TIP3   OH214531   2.305   3.805   4.324
 4842TIP3    H114532   2.328   3.844   4.409
 4842TIP3    H214533   2.212   3.826   4.313
 4843TIP3   OH214534   3.099   4.466   4.236
 4843TIP3    H114535   3.052   4.512   4.167
 4843TIP3    H214536   3.166   4.415   4.190
 4844TIP3   OH214537   5.847   3.485   2.442
 4844TIP3    H114538   5.800   3.568   2.431
 4844TIP3    H214539   5.842   3.443   2.356
 4845TIP3   OH214540   2.173   2.173   1.541
 4845TIP3    H114541   2.260   2.206   1.522
 4845TIP3    H214542   2.168   2.173   1.636
 4846TIP3   OH214543   5.639   4.944   1.891
 4846TIP3    H114544   5.603   4.861   1.923
 4846TIP3    H214545   5.622   4.944   1.797
 4847TIP3   OH214546   5.630   0.860   1.055
 4847TIP3    H114547   5.606   0.891   0.968
 4847TIP3    H214548   5.672   0.775   1.040
 4848TIP3   OH214549   5.666   2.950   3.863
 4848TIP3    H114550   5.627   3.037   3.862
 4848TIP3    H214551   5.640   2.913   3.947
 4849TIP3   OH214552   2.036   2.809   0.659
 4849TIP3    H114553   2.051   2.893   0.703
 4849TIP3    H214554   1.941   2.806   0.645
 4850TIP3   OH214555   3.012   1.037   4.469
 4850TIP3    H114556   2.978   1.053   4.380
 4850TIP3    H214557   3.108   1.037   4.458
 4851TIP3   OH214558   4.118   3.103   2.407
 4851TIP3    H114559   4.063   3.156   2.465
 4851TIP3    H214560   4.131   3.021   2.455
 4852TIP3   OH214561   4.531   3.812   0.236
 4852TIP3    H114562   4.559   3.861   0.313
 4852TIP3    H214563   4.443   3.781   0.257
 4853TIP3   OH214564   3.697   1.941   3.177
 4853TIP3    H114565   3.792   1.936   3.184
 4853TIP3    H214566   3.680   1.945   3.083
 4854TIP3   OH214567   3.759   5.264   3.010
 4854TIP3    H114568   3.787   5.353   3.034
 4854TIP3    H214569   3.841   5.214   3.007
 4855TIP3   OH214570   3.482   2.874   0.179
 4855TIP3    H114571   3.482   2.970   0.177
 4855TIP3    H214572   3.574   2.850   0.167
 4856TIP3   OH214573   2.427   2.357   0.086
 4856TIP3    H114574   2.348   2.308   0.063
 4856TIP3    H214575   2.428   2.356   0.182
 4857TIP3   OH214576   5.700   0.366   4.110
 4857TIP3    H114577   5.794   0.356   4.100
 4857TIP3    H214578   5.687   0.385   4.203
 4858TIP3   OH214579   0.311   1.518   1.307
 4858TIP3    H114580   0.306   1.489   1.398
 4858TIP3    H214581   0.311   1.613   1.311
 4859TIP3   OH214582   4.914   5.618   3.962
 4859TIP3    H114583   5.000   5.616   3.921
 4859TIP3    H214584   4.882   5.707   3.945
 4860TIP3   OH214585   6.360   2.722   2.615
 4860TIP3    H114586   6.369   2.731   2.710
 4860TIP3    H214587   6.277   2.764   2.595
 4861TIP3   OH214588   6.265   3.448   4.846
 4861TIP3    H114589   6.223   3.507   4.783
 4861TIP3    H214590   6.246   3.486   4.932
 4862TIP3   OH214591   0.469   1.755   2.852
 4862TIP3    H114592   0.553   1.783   2.889
 4862TIP3    H214593   0.464   1.662   2.871
 4863TIP3   OH214594   5.845   3.454   1.330
 4863TIP3    H114595   5.766   3.438   1.381
 4863TIP3    H214596   5.906   3.493   1.392
 4864TIP3   OH214597   3.007   3.179   4.687
 4864TIP3    H114598   3.081   3.142   4.736
 4864TIP3    H214599   3.048   3.234   4.620
 4865TIP3   OH214600   4.136   2.788   3.816
 4865TIP3    H114601   4.131   2.754   3.905
 4865TIP3    H214602   4.205   2.854   3.819
 4866TIP3   OH214603   4.390   5.742   3.871
 4866TIP3    H114604   4.424   5.699   3.792
 4866TIP3    H214605   4.308   5.782   3.843
 4867TIP3   OH214606   5.883   2.014   0.902
 4867TIP3    H114607   5.876   1.997   0.808
 4867TIP3    H214608   5.793   2.009   0.934
 4868TIP3   OH214609   5.508   5.494   1.347
 4868TIP3    H114610   5.498   5.482   1.253
 4868TIP3    H214611   5.603   5.492   1.362
 4869TIP3   OH214612   4.215   5.441   3.551
 4869TIP3    H114613   4.211   5.380   3.477
 4869TIP3    H214614   4.131   5.431   3.595
 4870TIP3   OH214615   0.048   2.035   2.934
 4870TIP3    H114616   0.085   2.075   2.856
 4870TIP3    H214617   0.118   1.981   2.970
 4871TIP3   OH214618   2.833   4.899   4.976
 4871TIP3    H114619   2.861   4.832   5.039
 4871TIP3    H214620   2.745   4.922   5.004
 4872TIP3   OH214621   5.188   5.239   2.043
 4872TIP3    H114622   5.168   5.300   2.114
 4872TIP3    H214623   5.282   5.222   2.052
 4873TIP3   OH214624   5.075   1.337   4.531
 4873TIP3    H114625   5.099   1.412   4.585
 4873TIP3    H214626   4.991   1.361   4.491
 4874TIP3   OH214627   0.051   1.884   4.615
 4874TIP3    H114628   0.050   1.978   4.628
 4874TIP3    H214629  -0.038   1.855   4.637
 4875TIP3   OH214630   5.011   0.304   1.024
 4875TIP3    H114631   5.063   0.364   0.971
 4875TIP3    H214632   5.043   0.217   1.000
 4876TIP3   OH214633   0.780   2.247   5.054
 4876TIP3    H114634   0.775   2.217   4.964
 4876TIP3    H214635   0.718   2.192   5.102
 4877TIP3   OH214636   6.239   4.866   3.172
 4877TIP3    H114637   6.202   4.817   3.245
 4877TIP3    H214638   6.320   4.904   3.207
 4878TIP3   OH214639   3.170   0.005   1.606
 4878TIP3    H114640   3.099   0.018   1.669
 4878TIP3    H214641   3.139   0.046   1.525
 4879TIP3   OH214642   0.217   5.776   1.810
 4879TIP3    H114643   0.310   5.759   1.792
 4879TIP3    H214644   0.194   5.847   1.751
 4880TIP3   OH214645   3.817   4.057   3.057
 4880TIP3    H114646   3.862   3.989   3.007
 4880TIP3    H214647   3.865   4.137   3.035
 4881TIP3   OH214648   3.423   0.213   4.202
 4881TIP3    H114649   3.444   0.301   4.234
 4881TIP3    H214650   3.361   0.178   4.267
 4882TIP3   OH214651   4.523   2.220   4.278
 4882TIP3    H114652   4.556   2.144   4.230
 4882TIP3    H214653   4.428   2.208   4.280
 4883TIP3   OH214654   1.110   0.210   3.088
 4883TIP3    H114655   1.084   0.302   3.088
 4883TIP3    H214656   1.067   0.173   3.165
 4884TIP3   OH214657   5.830   1.922   1.221
 4884TIP3    H114658   5.798   1.863   1.153
 4884TIP3    H214659   5.925   1.909   1.221
 4885TIP3   OH214660   4.532   1.238   4.842
 4885TIP3    H114661   4.546   1.170   4.776
 4885TIP3    H214662   4.619   1.273   4.859
 4886TIP3   OH214663   4.006   3.247   3.307
 4886TIP3    H114664   3.912   3.246   3.322
 4886TIP3    H214665   4.017   3.226   3.215
 4887TIP3   OH214666   2.970   5.578   2.413
 4887TIP3    H114667   2.988   5.578   2.319
 4887TIP3    H214668   2.949   5.487   2.434
 4888TIP3   OH214669   2.493   2.410   3.215
 4888TIP3    H114670   2.427   2.406   3.146
 4888TIP3    H214671   2.518   2.502   3.220
 4889TIP3   OH214672   6.153   5.006   3.479
 4889TIP3    H114673   6.097   5.024   3.554
 4889TIP3    H214674   6.239   5.039   3.504
 4890TIP3   OH214675   5.914   0.183   2.784
 4890TIP3    H114676   5.996   0.201   2.829
 4890TIP3    H214677   5.931   0.103   2.734
 4891TIP3   OH214678   0.276   2.754   2.886
 4891TIP3    H114679   0.294   2.844   2.862
 4891TIP3    H214680   0.360   2.709   2.878
 4892TIP3   OH214681   4.928   4.938   1.244
 4892TIP3    H114682   4.959   4.909   1.158
 4892TIP3    H214683   4.835   4.917   1.244
 4893TIP3   OH214684   4.782   5.489   3.434
 4893TIP3    H114685   4.727   5.490   3.512
 4893TIP3    H214686   4.859   5.540   3.459
 4894TIP3   OH214687   2.403   1.937   2.282
 4894TIP3    H114688   2.433   1.866   2.339
 4894TIP3    H214689   2.345   1.895   2.219
 4895TIP3   OH214690   0.107   0.124   3.774
 4895TIP3    H114691   0.037   0.144   3.837
 4895TIP3    H214692   0.063   0.122   3.689
 4896TIP3   OH214693   3.540   1.336   4.338
 4896TIP3    H114694   3.539   1.362   4.246
 4896TIP3    H214695   3.570   1.245   4.337
 4897TIP3   OH214696   4.730   4.263   0.458
 4897TIP3    H114697   4.781   4.186   0.431
 4897TIP3    H214698   4.727   4.257   0.554
 4898TIP3   OH214699   1.189   0.189   2.640
 4898TIP3    H114700   1.196   0.284   2.641
 4898TIP3    H214701   1.097   0.171   2.663
 4899TIP3   OH214702   6.358   3.157   1.837
 4899TIP3    H114703   6.329   3.066   1.831
 4899TIP3    H214704   6.339   3.183   1.927
 4900TIP3   OH214705   2.500   4.005   0.680
 4900TIP3    H114706   2.519   4.082   0.734
 4900TIP3    H214707   2.405   4.007   0.667
 4901TIP3   OH214708   2.308   3.605   3.398
 4901TIP3    H114709   2.373   3.666   3.434
 4901TIP3    H214710   2.241   3.600   3.466
 4902TIP3   OH214711   2.544   5.763   3.248
 4902TIP3    H114712   2.479   5.721   3.304
 4902TIP3    H214713   2.506   5.760   3.160
 4903TIP3   OH214714   2.722   3.234   0.848
 4903TIP3    H114715   2.693   3.143   0.862
 4903TIP3    H214716   2.641   3.284   0.839
 4904TIP3   OH214717   5.378   3.773   1.820
 4904TIP3    H114718   5.442   3.821   1.767
 4904TIP3    H214719   5.307   3.836   1.833
 4905TIP3   OH214720   2.847   0.120   4.296
 4905TIP3    H114721   2.918   0.185   4.300
 4905TIP3    H214722   2.823   0.117   4.203
 4906TIP3   OH214723   6.375   2.340   0.264
 4906TIP3    H114724   6.365   2.245   0.268
 4906TIP3    H214725   6.303   2.374   0.318
 4907TIP3   OH214726   0.342   5.523   3.235
 4907TIP3    H114727   0.422   5.484   3.200
 4907TIP3    H214728   0.370   5.571   3.313
 4908TIP3   OH214729   3.813   0.282   4.841
 4908TIP3    H114730   3.829   0.219   4.771
 4908TIP3    H214731   3.898   0.321   4.860
 4909TIP3   OH214732   0.344   4.997   1.423
 4909TIP3    H114733   0.292   4.919   1.405
 4909TIP3    H214734   0.279   5.065   1.443
 4910TIP3   OH214735   2.958   1.870   2.802
 4910TIP3    H114736   2.888   1.889   2.740
 4910TIP3    H214737   2.984   1.956   2.835
 4911TIP3   OH214738   3.374   1.738   2.975
 4911TIP3    H114739   3.295   1.791   2.986
 4911TIP3    H214740   3.356   1.658   3.025
 4912TIP3   OH214741   1.107   3.953   2.590
 4912TIP3    H114742   1.119   3.922   2.500
 4912TIP3    H214743   1.015   3.937   2.609
 4913TIP3   OH214744   0.009   3.123   3.973
 4913TIP3    H114745   0.028   3.210   3.937
 4913TIP3    H214746   0.093   3.078   3.975
 4914TIP3   OH214747   2.578   5.786   4.499
 4914TIP3    H114748   2.557   5.761   4.589
 4914TIP3    H214749   2.610   5.705   4.458
 4915TIP3   OH214750   1.672   1.845   3.437
 4915TIP3    H114751   1.740   1.812   3.495
 4915TIP3    H214752   1.704   1.827   3.348
 4916TIP3   OH214753   3.198   1.405   3.486
 4916TIP3    H114754   3.108   1.423   3.512
 4916TIP3    H214755   3.250   1.472   3.530
 4917TIP3   OH214756   5.003   2.076   0.286
 4917TIP3    H114757   4.970   2.038   0.205
 4917TIP3    H214758   4.993   2.170   0.274
 4918TIP3   OH214759   1.115   0.934   0.968
 4918TIP3    H114760   1.193   0.986   0.948
 4918TIP3    H214761   1.044   0.999   0.972
 4919TIP3   OH214762   0.761   0.044   4.201
 4919TIP3    H114763   0.675   0.036   4.160
 4919TIP3    H214764   0.822   0.049   4.127
 4920TIP3   OH214765   6.001   4.955   1.527
 4920TIP3    H114766   6.034   4.905   1.453
 4920TIP3    H214767   5.932   4.901   1.564
 4921TIP3   OH214768   5.341   4.669   3.861
 4921TIP3    H114769   5.383   4.659   3.947
 4921TIP3    H214770   5.409   4.705   3.805
 4922TIP3   OH214771   2.860   1.425   0.352
 4922TIP3    H114772   2.815   1.449   0.433
 4922TIP3    H214773   2.941   1.383   0.380
 4923TIP3   OH214774   2.642   4.203   0.490
 4923TIP3    H114775   2.577   4.251   0.438
 4923TIP3    H214776   2.633   4.238   0.578
 4924TIP3   OH214777   0.183   0.776   2.053
 4924TIP3    H114778   0.233   0.783   1.972
 4924TIP3    H214779   0.247   0.753   2.120
 4925TIP3   OH214780   4.068   0.366   3.370
 4925TIP3    H114781   4.125   0.292   3.387
 4925TIP3    H214782   3.990   0.350   3.423
 4926TIP3   OH214783   0.306   2.440   3.377
 4926TIP3    H114784   0.357   2.490   3.313
 4926TIP3    H214785   0.371   2.406   3.438
 4927TIP3   OH214786   0.963   3.043   3.457
 4927TIP3    H114787   0.890   3.089   3.500
 4927TIP3    H214788   0.962   3.077   3.368
 4928TIP3   OH214789   0.920   2.776   3.938
 4928TIP3    H114790   1.012   2.798   3.953
 4928TIP3    H214791   0.902   2.808   3.849
 4929TIP3   OH214792   4.341   3.747   1.190
 4929TIP3    H114793   4.305   3.727   1.277
 4929TIP3    H214794   4.274   3.799   1.147
 4930TIP3   OH214795   4.369   2.477   3.487
 4930TIP3    H114796   4.417   2.560   3.488
 4930TIP3    H214797   4.338   2.469   3.397
 4931TIP3   OH214798   2.251   1.869   1.424
 4931TIP3    H114799   2.280   1.788   1.383
 4931TIP3    H214800   2.161   1.881   1.393
 4932TIP3   OH214801   4.881   5.711   2.357
 4932TIP3    H114802   4.789   5.688   2.345
 4932TIP3    H214803   4.920   5.636   2.400
 4933TIP3   OH214804   2.683   1.741   0.090
 4933TIP3    H114805   2.648   1.696   0.014
 4933TIP3    H214806   2.625   1.717   0.162
 4934TIP3   OH214807   4.250   3.874   1.553
 4934TIP3    H114808   4.339   3.908   1.543
 4934TIP3    H214809   4.211   3.929   1.621
 4935TIP3   OH214810   1.011   5.886   0.474
 4935TIP3    H114811   0.946   5.956   0.477
 4935TIP3    H214812   1.077   5.910   0.540
 4936TIP3   OH214813   5.655   2.314   3.853
 4936TIP3    H114814   5.714   2.252   3.896
 4936TIP3    H214815   5.619   2.367   3.924
 4937TIP3   OH214816   0.742   0.942   1.597
 4937TIP3    H114817   0.735   0.849   1.578
 4937TIP3    H214818   0.652   0.975   1.591
 4938TIP3   OH214819   5.211   0.142   3.022
 4938TIP3    H114820   5.197   0.186   3.106
 4938TIP3    H214821   5.259   0.206   2.970
 4939TIP3   OH214822   3.585   3.094   1.075
 4939TIP3    H114823   3.555   3.089   1.166
 4939TIP3    H214824   3.561   3.182   1.046
 4940TIP3   OH214825   0.750   4.568   3.328
 4940TIP3    H114826   0.676   4.507   3.332
 4940TIP3    H214827   0.778   4.577   3.419
 4941TIP3   OH214828   2.912   0.006   3.919
 4941TIP3    H114829   2.978   0.010   3.989
 4941TIP3    H214830   2.889   0.097   3.903
 4942TIP3   OH214831   2.117   3.332   0.685
 4942TIP3    H114832   2.104   3.390   0.760
 4942TIP3    H214833   2.052   3.361   0.621
 4943TIP3   OH214834   5.101   5.416   4.450
 4943TIP3    H114835   5.047   5.454   4.381
 4943TIP3    H214836   5.116   5.487   4.511
 4944TIP3   OH214837   1.303   4.572   3.808
 4944TIP3    H114838   1.215   4.582   3.770
 4944TIP3    H214839   1.322   4.479   3.801
 4945TIP3   OH214840   3.179   2.063   3.462
 4945TIP3    H114841   3.213   2.117   3.391
 4945TIP3    H214842   3.225   1.980   3.454
 4946TIP3   OH214843   5.328   2.804   1.586
 4946TIP3    H114844   5.375   2.720   1.588
 4946TIP3    H214845   5.397   2.870   1.596
 4947TIP3   OH214846   0.530   4.241   2.583
 4947TIP3    H114847   0.502   4.259   2.494
 4947TIP3    H214848   0.472   4.170   2.613
 4948TIP3   OH214849   3.005   3.147   2.628
 4948TIP3    H114850   2.988   3.128   2.720
 4948TIP3    H214851   3.076   3.211   2.629
 4949TIP3   OH214852   3.871   4.907   0.757
 4949TIP3    H114853   3.779   4.932   0.766
 4949TIP3    H214854   3.887   4.847   0.830
 4950TIP3   OH214855   0.404   0.127   3.375
 4950TIP3    H114856   0.320   0.120   3.330
 4950TIP3    H214857   0.407   0.050   3.432
 4951TIP3   OH214858   2.318   3.140   3.884
 4951TIP3    H114859   2.283   3.095   3.807
 4951TIP3    H214860   2.240   3.165   3.934
 4952TIP3   OH214861   4.742   3.505   3.955
 4952TIP3    H114862   4.656   3.542   3.934
 4952TIP3    H214863   4.802   3.580   3.951
 4953TIP3   OH214864   1.869   5.415   0.543
 4953TIP3    H114865   1.948   5.404   0.490
 4953TIP3    H214866   1.901   5.441   0.629
 4954TIP3   OH214867   1.728   1.650   0.968
 4954TIP3    H114868   1.641   1.648   1.006
 4954TIP3    H214869   1.738   1.739   0.934
 4955TIP3   OH214870   6.121   0.768   4.217
 4955TIP3    H114871   6.151   0.686   4.178
 4955TIP3    H214872   6.169   0.773   4.300
 4956TIP3   OH214873   2.472   0.925   1.516
 4956TIP3    H114874   2.453   0.932   1.422
 4956TIP3    H214875   2.391   0.954   1.558
 4957TIP3   OH214876   5.029   4.121   4.037
 4957TIP3    H114877   4.937   4.096   4.031
 4957TIP3    H214878   5.051   4.110   4.130
 4958TIP3   OH214879   3.185   2.807   1.235
 4958TIP3    H114880   3.151   2.896   1.233
 4958TIP3    H214881   3.110   2.752   1.212
 4959TIP3   OH214882   5.428   4.180   0.655
 4959TIP3    H114883   5.483   4.196   0.578
 4959TIP3    H214884   5.489   4.150   0.722
 4960TIP3   OH214885   5.783   4.222   2.362
 4960TIP3    H114886   5.807   4.305   2.405
 4960TIP3    H214887   5.866   4.186   2.331
 4961TIP3   OH214888   0.249   0.416   3.164
 4961TIP3    H114889   0.222   0.327   3.141
 4961TIP3    H214890   0.344   0.416   3.153
 4962TIP3   OH214891   4.238   0.010   0.355
 4962TIP3    H114892   4.316  -0.036   0.385
 4962TIP3    H214893   4.181   0.013   0.432
 4963TIP3   OH214894   3.737   3.224   3.138
 4963TIP3    H114895   3.743   3.310   3.095
 4963TIP3    H214896   3.705   3.165   3.069
 4964TIP3   OH214897   4.029   4.247   1.762
 4964TIP3    H114898   3.958   4.190   1.734
 4964TIP3    H214899   4.089   4.190   1.810
 4965TIP3   OH214900   2.788   5.519   1.504
 4965TIP3    H114901   2.702   5.547   1.473
 4965TIP3    H214902   2.850   5.560   1.443
 4966TIP3   OH214903   0.643   2.028   2.910
 4966TIP3    H114904   0.678   1.939   2.916
 4966TIP3    H214905   0.578   2.023   2.839
 4967TIP3   OH214906   6.343   2.921   3.727
 4967TIP3    H114907   6.413   2.985   3.740
 4967TIP3    H214908   6.267   2.959   3.772
 4968TIP3   OH214909   5.012   5.964   1.754
 4968TIP3    H114910   5.040   6.056   1.761
 4968TIP3    H214911   4.991   5.939   1.844
 4969TIP3   OH214912   1.793   2.396   1.691
 4969TIP3    H114913   1.886   2.411   1.675
 4969TIP3    H214914   1.791   2.322   1.751
 4970TIP3   OH214915   0.341   3.278   4.704
 4970TIP3    H114916   0.332   3.188   4.674
 4970TIP3    H214917   0.267   3.292   4.763
 4971TIP3   OH214918   3.721   5.011   3.781
 4971TIP3    H114919   3.655   5.061   3.829
 4971TIP3    H214920   3.670   4.961   3.716
 4972TIP3   OH214921   4.300   1.852   4.933
 4972TIP3    H114922   4.336   1.939   4.946
 4972TIP3    H214923   4.365   1.806   4.880
 4973TIP3   OH214924   5.673   0.236   2.640
 4973TIP3    H114925   5.751   0.219   2.692
 4973TIP3    H214926   5.647   0.326   2.662
 4974TIP3   OH214927   3.546   2.036   3.895
 4974TIP3    H114928   3.532   2.130   3.895
 4974TIP3    H214929   3.465   1.999   3.860
 4975TIP3   OH214930   2.673   5.595   4.145
 4975TIP3    H114931   2.588   5.590   4.101
 4975TIP3    H214932   2.735   5.560   4.080
 4976TIP3   OH214933   5.260   2.938   4.157
 4976TIP3    H114934   5.172   2.928   4.190
 4976TIP3    H214935   5.254   2.917   4.064
 4977TIP3   OH214936   6.274   0.089   3.581
 4977TIP3    H114937   6.188   0.080   3.623
 4977TIP3    H214938   6.278   0.018   3.517
 4978TIP3   OH214939   5.473   3.644   2.061
 4978TIP3    H114940   5.477   3.702   1.985
 4978TIP3    H214941   5.403   3.583   2.040
 4979TIP3   OH214942   6.057   5.719   1.971
 4979TIP3    H114943   6.054   5.791   2.033
 4979TIP3    H214944   6.145   5.682   1.980
 4980TIP3   OH214945   0.520   5.097   4.662
 4980TIP3    H114946   0.426   5.116   4.659
 4980TIP3    H214947   0.557   5.145   4.589
 4981TIP3   OH214948   5.693   4.826   4.512
 4981TIP3    H114949   5.719   4.835   4.421
 4981TIP3    H214950   5.718   4.909   4.553
 4982TIP3   OH214951   0.347   4.708   4.757
 4982TIP3    H114952   0.260   4.748   4.765
 4982TIP3    H214953   0.354   4.684   4.665
 4983TIP3   OH214954   1.640   0.673   3.123
 4983TIP3    H114955   1.697   0.725   3.181
 4983TIP3    H214956   1.643   0.719   3.039
 4984TIP3   OH214957   2.434   2.267   3.442
 4984TIP3    H114958   2.365   2.274   3.376
 4984TIP3    H214959   2.503   2.325   3.409
 4985TIP3   OH214960   5.778   2.242   2.879
 4985TIP3    H114961   5.708   2.230   2.944
 4985TIP3    H214962   5.858   2.245   2.931
 4986TIP3   OH214963   4.878   4.571   0.821
 4986TIP3    H114964   4.809   4.612   0.769
 4986TIP3    H214965   4.834   4.504   0.872
 4987TIP3   OH214966   3.714   4.850   3.528
 4987TIP3    H114967   3.759   4.853   3.443
 4987TIP3    H214968   3.626   4.883   3.510
 4988TIP3   OH214969   3.529   5.893   2.588
 4988TIP3    H114970   3.463   5.858   2.647
 4988TIP3    H214971   3.497   5.981   2.566
 4989TIP3   OH214972   3.792   5.482   3.373
 4989TIP3    H114973   3.745   5.531   3.441
 4989TIP3    H214974   3.883   5.512   3.381
 4990TIP3   OH214975   0.397   1.307   2.737
 4990TIP3    H114976   0.427   1.390   2.773
 4990TIP3    H214977   0.358   1.261   2.811
 4991TIP3   OH214978   4.432   0.437   3.302
 4991TIP3    H114979   4.512   0.415   3.255
 4991TIP3    H214980   4.364   0.434   3.235
 4992TIP3   OH214981   2.886   4.382   3.832
 4992TIP3    H114982   2.965   4.330   3.819
 4992TIP3    H214983   2.839   4.376   3.749
 4993TIP3   OH214984   5.257   0.641   0.173
 4993TIP3    H114985   5.302   0.679   0.097
 4993TIP3    H214986   5.187   0.703   0.192
 4994TIP3   OH214987   2.864   3.274   3.624
 4994TIP3    H114988   2.781   3.300   3.584
 4994TIP3    H214989   2.843   3.194   3.672
 4995TIP3   OH214990   1.451   2.795   0.412
 4995TIP3    H114991   1.369   2.844   0.418
 4995TIP3    H214992   1.448   2.734   0.486
 4996TIP3   OH214993   0.534   2.669   2.905
 4996TIP3    H114994   0.620   2.709   2.911
 4996TIP3    H214995   0.511   2.647   2.996
 4997TIP3   OH214996   4.038   5.734   4.954
 4997TIP3    H114997   3.984   5.658   4.974
 4997TIP3    H214998   4.075   5.762   5.038
 4998TIP3   OH214999   4.696   1.599   0.712
 4998TIP3    H115000   4.652   1.672   0.669
 4998TIP3    H215001   4.777   1.586   0.663
 4999TIP3   OH215002   5.898   5.610   4.797
 4999TIP3    H115003   5.870   5.552   4.867
 4999TIP3    H215004   5.825   5.609   4.734
 5000TIP3   OH215005   1.138   3.892   0.459
 5000TIP3    H115006   1.179   3.948   0.394
 5000TIP3    H215007   1.181   3.916   0.542
 5001TIP3   OH215008   5.629   2.783   2.231
 5001TIP3    H115009   5.710   2.772   2.280
 5001TIP3    H215010   5.652   2.759   2.141
 5002TIP3   OH215011   5.636   0.266   0.045
 5002TIP3    H115012   5.688   0.222  -0.022
 5002TIP3    H215013   5.570   0.316  -0.004
 5003TIP3   OH215014   3.963   2.203   1.063
 5003TIP3    H115015   3.931   2.146   0.993
 5003TIP3    H215016   3.886   2.220   1.118
 5004TIP3   OH215017   4.071   4.953   4.690
 5004TIP3    H115018   4.130   5.020   4.725
 5004TIP3    H215019   4.103   4.871   4.728
 5005TIP3   OH215020   0.967   3.750   0.630
 5005TIP3    H115021   0.908   3.678   0.606
 5005TIP3    H215022   1.015   3.770   0.549
 5006TIP3   OH215023   4.934   0.804   4.650
 5006TIP3    H115024   5.013   0.794   4.596
 5006TIP3    H215025   4.926   0.899   4.664
 5007TIP3   OH215026   4.168   3.461   3.296
 5007TIP3    H115027   4.130   3.534   3.246
 5007TIP3    H215028   4.099   3.395   3.298
 5008TIP3   OH215029   5.319   2.750   4.798
 5008TIP3    H115030   5.362   2.786   4.876
 5008TIP3    H215031   5.331   2.656   4.806
 5009TIP3   OH215032   0.361   4.647   2.903
 5009TIP3    H115033   0.406   4.727   2.876
 5009TIP3    H215034   0.400   4.626   2.988
 5010TIP3   OH215035   0.128   3.363   0.075
 5010TIP3    H115036   0.035   3.356   0.057
 5010TIP3    H215037   0.167   3.390  -0.008
 5011TIP3   OH215038   1.324   4.887   0.490
 5011TIP3    H115039   1.362   4.964   0.532
 5011TIP3    H215040   1.297   4.831   0.563
 5012TIP3   OH215041   1.090   3.563   1.125
 5012TIP3    H115042   1.099   3.622   1.199
 5012TIP3    H215043   1.037   3.611   1.061
 5013TIP3   OH215044   5.033   0.237   4.578
 5013TIP3    H115045   4.938   0.225   4.572
 5013TIP3    H215046   5.063   0.163   4.630
 5014TIP3   OH215047   1.168   2.928   2.713
 5014TIP3    H115048   1.095   2.870   2.691
 5014TIP3    H215049   1.194   2.964   2.628
 5015TIP3   OH215050   3.821   2.960   4.692
 5015TIP3    H115051   3.822   2.896   4.764
 5015TIP3    H215052   3.760   2.922   4.628
 5016TIP3   OH215053   2.531   5.523   1.425
 5016TIP3    H115054   2.449   5.517   1.475
 5016TIP3    H215055   2.563   5.433   1.421
 5017TIP3   OH215056   2.944   5.694   2.733
 5017TIP3    H115057   2.879   5.681   2.664
 5017TIP3    H215058   3.008   5.753   2.693
 5018TIP3   OH215059   2.612   2.463   2.322
 5018TIP3    H115060   2.566   2.539   2.287
 5018TIP3    H215061   2.632   2.485   2.412
 5019TIP3   OH215062   4.260   5.840   3.471
 5019TIP3    H115063   4.212   5.813   3.549
 5019TIP3    H215064   4.323   5.769   3.457
 5020TIP3   OH215065   1.871   0.378   3.315
 5020TIP3    H115066   1.910   0.414   3.236
 5020TIP3    H215067   1.777   0.379   3.298
 5021TIP3   OH215068   0.230   2.117   4.499
 5021TIP3    H115069   0.164   2.144   4.563
 5021TIP3    H215070   0.179   2.094   4.421
 5022TIP3   OH215071   3.584   4.258   3.530
 5022TIP3    H115072   3.563   4.238   3.439
 5022TIP3    H215073   3.678   4.278   3.530
 5023TIP3   OH215074   5.984   2.740   4.480
 5023TIP3    H115075   5.994   2.652   4.445
 5023TIP3    H215076   5.898   2.739   4.523
 5024TIP3   OH215077   4.614   1.853   5.205
 5024TIP3    H115078   4.560   1.861   5.126
 5024TIP3    H215079   4.700   1.885   5.179
 5025TIP3   OH215080   4.961   5.350   4.051
 5025TIP3    H115081   4.876   5.340   4.093
 5025TIP3    H215082   4.951   5.304   3.967
 5026TIP3   OH215083   5.298   2.999   1.070
 5026TIP3    H115084   5.386   2.963   1.085
 5026TIP3    H215085   5.283   2.987   0.977
 5027TIP3   OH215086   6.218   3.748   5.100
 5027TIP3    H115087   6.202   3.757   5.194
 5027TIP3    H215088   6.209   3.654   5.083
 5028TIP3   OH215089   2.174   0.707   3.943
 5028TIP3    H115090   2.230   0.643   3.987
 5028TIP3    H215091   2.219   0.790   3.954
 5029TIP3   OH215092   2.141   2.290   3.395
 5029TIP3    H115093   2.135   2.382   3.369
 5029TIP3    H215094   2.143   2.292   3.491
 5030TIP3   OH215095   0.088   5.292   4.485
 5030TIP3    H115096   0.006   5.330   4.515
 5030TIP3    H215097   0.086   5.201   4.517
 5031TIP3   OH215098   4.445   0.906   3.976
 5031TIP3    H115099   4.369   0.858   4.009
 5031TIP3    H215100   4.421   0.929   3.886
 5032TIP3   OH215101   4.346   0.700   3.450
 5032TIP3    H115102   4.281   0.668   3.512
 5032TIP3    H215103   4.361   0.626   3.391
 5033TIP3   OH215104   1.834   6.006   2.075
 5033TIP3    H115105   1.929   5.989   2.071
 5033TIP3    H215106   1.796   5.946   2.011
 5034TIP3   OH215107   0.983   1.050   1.778
 5034TIP3    H115108   0.894   1.014   1.771
 5034TIP3    H215109   0.997   1.095   1.694
 5035TIP3   OH215110   1.959   0.214   0.449
 5035TIP3    H115111   2.003   0.277   0.393
 5035TIP3    H215112   1.940   0.263   0.529
 5036TIP3   OH215113   1.895   1.605   4.332
 5036TIP3    H115114   1.938   1.527   4.368
 5036TIP3    H215115   1.802   1.590   4.349
 5037TIP3   OH215116   4.087   0.913   2.082
 5037TIP3    H115117   4.043   0.996   2.103
 5037TIP3    H215118   4.017   0.853   2.060
 5038TIP3   OH215119   3.015   3.052   0.628
 5038TIP3    H115120   2.972   3.137   0.633
 5038TIP3    H215121   2.991   3.007   0.709
 5039TIP3   OH215122   5.779   2.453   2.147
 5039TIP3    H115123   5.788   2.432   2.240
 5039TIP3    H215124   5.825   2.383   2.101
 5040TIP3   OH215125   2.346   4.077   3.520
 5040TIP3    H115126   2.392   4.091   3.603
 5040TIP3    H215127   2.289   4.154   3.511
 5041TIP3   OH215128   0.564   0.673   0.288
 5041TIP3    H115129   0.589   0.593   0.335
 5041TIP3    H215130   0.600   0.661   0.200
 5042TIP3   OH215131   2.178   2.194  -0.002
 5042TIP3    H115132   2.137   2.109  -0.015
 5042TIP3    H215133   2.145   2.223   0.083
 5043TIP3   OH215134   4.989   2.575   1.742
 5043TIP3    H115135   5.063   2.516   1.754
 5043TIP3    H215136   5.028   2.659   1.717
 5044TIP3   OH215137   1.020   5.785   3.330
 5044TIP3    H115138   0.954   5.729   3.371
 5044TIP3    H215139   1.092   5.725   3.309
 5045TIP3   OH215140   5.712   5.252   1.260
 5045TIP3    H115141   5.773   5.260   1.186
 5045TIP3    H215142   5.767   5.229   1.334
 5046TIP3   OH215143   4.932   0.890   1.296
 5046TIP3    H115144   4.886   0.808   1.312
 5046TIP3    H215145   4.977   0.908   1.379
 5047TIP3   OH215146   1.682   1.195   4.095
 5047TIP3    H115147   1.715   1.269   4.044
 5047TIP3    H215148   1.754   1.172   4.154
 5048TIP3   OH215149   1.779   0.572   1.708
 5048TIP3    H115150   1.767   0.625   1.629
 5048TIP3    H215151   1.809   0.634   1.775
 5049TIP3   OH215152   2.419   5.792   2.985
 5049TIP3    H115153   2.324   5.791   2.992
 5049TIP3    H215154   2.437   5.847   2.908
 5050TIP3   OH215155   0.464   0.069   1.935
 5050TIP3    H115156   0.490   0.129   1.865
 5050TIP3    H215157   0.410   0.123   1.994
 5051TIP3   OH215158   5.387   4.114   4.906
 5051TIP3    H115159   5.464   4.059   4.915
 5051TIP3    H215160   5.348   4.087   4.823
 5052TIP3   OH215161   4.432   4.702   2.893
 5052TIP3    H115162   4.423   4.698   2.988
 5052TIP3    H215163   4.397   4.788   2.870
 5053TIP3   OH215164   5.342   1.196   2.975
 5053TIP3    H115165   5.315   1.104   2.981
 5053TIP3    H215166   5.277   1.236   2.917
 5054TIP3   OH215167   6.009   3.006   0.978
 5054TIP3    H115168   5.950   2.981   1.048
 5054TIP3    H215169   6.000   2.937   0.912
 5055TIP3   OH215170   4.254   0.196   2.711
 5055TIP3    H115171   4.315   0.201   2.785
 5055TIP3    H215172   4.308   0.215   2.634
 5056TIP3   OH215173   2.239   1.189   0.256
 5056TIP3    H115174   2.289   1.121   0.303
 5056TIP3    H215175   2.155   1.148   0.236
 5057TIP3   OH215176   2.687   1.116   1.188
 5057TIP3    H115177   2.705   1.080   1.275
 5057TIP3    H215178   2.593   1.102   1.175
 5058TIP3   OH215179   2.640   0.566   4.689
 5058TIP3    H115180   2.720   0.618   4.700
 5058TIP3    H215181   2.620   0.572   4.596
 5059TIP3   OH215182   0.491   2.949   3.926
 5059TIP3    H115183   0.551   3.017   3.954
 5059TIP3    H215184   0.514   2.932   3.834
 5060TIP3   OH215185   2.263   1.537   4.874
 5060TIP3    H115186   2.224   1.602   4.932
 5060TIP3    H215187   2.356   1.561   4.869
 5061TIP3   OH215188   3.338   1.917   2.351
 5061TIP3    H115189   3.345   1.849   2.284
 5061TIP3    H215190   3.399   1.985   2.322
 5062TIP3   OH215191   1.334   2.167   0.411
 5062TIP3    H115192   1.314   2.083   0.369
 5062TIP3    H215193   1.255   2.220   0.396
 5063TIP3   OH215194   5.211   2.074   4.609
 5063TIP3    H115195   5.288   2.040   4.563
 5063TIP3    H215196   5.163   2.123   4.543
 5064TIP3   OH215197   5.401   0.613   0.413
 5064TIP3    H115198   5.343   0.635   0.340
 5064TIP3    H215199   5.482   0.661   0.396
 5065TIP3   OH215200   6.084   4.440   0.053
 5065TIP3    H115201   5.996   4.433   0.088
 5065TIP3    H215202   6.141   4.426   0.128
 5066TIP3   OH215203   5.132   4.861   3.059
 5066TIP3    H115204   5.152   4.774   3.024
 5066TIP3    H215205   5.113   4.914   2.981
 5067TIP3   OH215206   0.777   1.240   2.847
 5067TIP3    H115207   0.745   1.228   2.757
 5067TIP3    H215208   0.757   1.158   2.891
 5068TIP3   OH215209   4.543   0.669   4.160
 5068TIP3    H115210   4.460   0.715   4.171
 5068TIP3    H215211   4.609   0.735   4.179
 5069TIP3   OH215212   4.821   4.767   0.168
 5069TIP3    H115213   4.829   4.729   0.080
 5069TIP3    H215214   4.736   4.736   0.199
 5070TIP3   OH215215   1.967   2.148   0.506
 5070TIP3    H115216   2.007   2.234   0.524
 5070TIP3    H215217   2.040   2.086   0.511
 5071TIP3   OH215218   1.283   0.939   0.601
 5071TIP3    H115219   1.234   0.862   0.631
 5071TIP3    H215220   1.216   0.999   0.568
 5072TIP3   OH215221   3.671   3.497   5.181
 5072TIP3    H115222   3.738   3.467   5.119
 5072TIP3    H215223   3.684   3.442   5.258
 5073TIP3   OH215224   2.929   0.844   4.955
 5073TIP3    H115225   2.948   0.766   5.007
 5073TIP3    H215226   2.834   0.850   4.953
 5074TIP3   OH215227  -0.010   0.483   1.376
 5074TIP3    H115228   0.020   0.535   1.302
 5074TIP3    H215229   0.053   0.411   1.382
 5075TIP3   OH215230   2.907   2.491   1.626
 5075TIP3    H115231   2.924   2.530   1.712
 5075TIP3    H215232   2.957   2.409   1.628
 5076TIP3   OH215233   2.630   0.477   0.690
 5076TIP3    H115234   2.711   0.525   0.704
 5076TIP3    H215235   2.573   0.506   0.761
 5077TIP3   OH215236   1.191   3.750   4.543
 5077TIP3    H115237   1.100   3.769   4.522
 5077TIP3    H215238   1.194   3.750   4.639
 5078TIP3   OH215239   2.563   0.401   3.731
 5078TIP3    H115240   2.554   0.330   3.795
 5078TIP3    H215241   2.477   0.406   3.689
 5079TIP3   OH215242   3.753   2.272   2.933
 5079TIP3    H115243   3.820   2.268   3.001
 5079TIP3    H215244   3.712   2.358   2.944
 5080TIP3   OH215245   4.867   3.692   4.388
 5080TIP3    H115246   4.800   3.623   4.387
 5080TIP3    H215247   4.949   3.646   4.406
 5081TIP3   OH215248   5.678   4.137   1.780
 5081TIP3    H115249   5.639   4.192   1.848
 5081TIP3    H215250   5.742   4.083   1.826
 5082TIP3   OH215251   2.260   0.664   2.143
 5082TIP3    H115252   2.202   0.595   2.174
 5082TIP3    H215253   2.235   0.741   2.194
 5083TIP3   OH215254   5.973   1.649   5.112
 5083TIP3    H115255   6.026   1.643   5.191
 5083TIP3    H215256   5.977   1.742   5.088
 5084TIP3   OH215257   4.291   3.902   2.569
 5084TIP3    H115258   4.304   3.997   2.567
 5084TIP3    H215259   4.295   3.880   2.663
 5085TIP3   OH215260   0.618   0.937   2.707
 5085TIP3    H115261   0.626   0.922   2.801
 5085TIP3    H215262   0.690   0.886   2.669
 5086TIP3   OH215263   5.282   1.693   2.795
 5086TIP3    H115264   5.287   1.644   2.877
 5086TIP3    H215265   5.193   1.726   2.792
 5087TIP3   OH215266   0.021   5.879   2.955
 5087TIP3    H115267   0.070   5.961   2.965
 5087TIP3    H215268   0.073   5.814   3.003
 5088TIP3   OH215269   0.572   4.761   1.307
 5088TIP3    H115270   0.564   4.788   1.216
 5088TIP3    H215271   0.650   4.704   1.309
 5089TIP3   OH215272   3.688   2.540   3.372
 5089TIP3    H115273   3.607   2.493   3.390
 5089TIP3    H215274   3.725   2.495   3.296
 5090TIP3   OH215275   5.968   0.365   4.093
 5090TIP3    H115276   6.006   0.281   4.065
 5090TIP3    H215277   6.043   0.417   4.120
 5091TIP3   OH215278   0.998   5.475   4.837
 5091TIP3    H115279   0.917   5.517   4.810
 5091TIP3    H215280   1.055   5.547   4.864
 5092TIP3   OH215281   0.466   2.531   4.226
 5092TIP3    H115282   0.526   2.464   4.194
 5092TIP3    H215283   0.494   2.612   4.183
 5093TIP3   OH215284   3.941   3.178   2.170
 5093TIP3    H115285   4.017   3.166   2.226
 5093TIP3    H215286   3.921   3.272   2.175
 5094TIP3   OH215287   2.313   0.960   4.243
 5094TIP3    H115288   2.329   1.052   4.261
 5094TIP3    H215289   2.388   0.914   4.280
 5095TIP3   OH215290   0.328   4.036   2.684
 5095TIP3    H115291   0.283   4.025   2.600
 5095TIP3    H215292   0.407   3.983   2.675
 5096TIP3   OH215293   3.233   3.297   2.653
 5096TIP3    H115294   3.276   3.228   2.601
 5096TIP3    H215295   3.270   3.287   2.741
 5097TIP3   OH215296   0.194   4.984   2.681
 5097TIP3    H115297   0.225   5.074   2.685
 5097TIP3    H215298   0.160   4.967   2.769
 5098TIP3   OH215299   3.870   1.462   4.111
 5098TIP3    H115300   3.941   1.431   4.167
 5098TIP3    H215301   3.825   1.528   4.163
 5099TIP3   OH215302   6.196   5.831   3.818
 5099TIP3    H115303   6.199   5.925   3.838
 5099TIP3    H215304   6.255   5.791   3.882
 5100TIP3   OH215305   4.389   4.329   0.997
 5100TIP3    H115306   4.328   4.270   0.951
 5100TIP3    H215307   4.453   4.271   1.037
 5101TIP3   OH215308   1.583   3.765   2.963
 5101TIP3    H115309   1.623   3.807   2.887
 5101TIP3    H215310   1.510   3.716   2.927
 5102TIP3   OH215311   2.743   0.926   3.405
 5102TIP3    H115312   2.697   0.868   3.346
 5102TIP3    H215313   2.825   0.946   3.361
 5103TIP3   OH215314   2.509   3.581   2.583
 5103TIP3    H115315   2.539   3.586   2.674
 5103TIP3    H215316   2.430   3.527   2.587
 5104TIP3   OH215317   4.877   0.552   1.850
 5104TIP3    H115318   4.885   0.475   1.794
 5104TIP3    H215319   4.936   0.535   1.924
 5105TIP3   OH215320   2.622   1.963   0.347
 5105TIP3    H115321   2.573   1.902   0.403
 5105TIP3    H215322   2.711   1.929   0.347
 5106TIP3   OH215323   4.501   0.909   0.963
 5106TIP3    H115324   4.573   0.874   1.015
 5106TIP3    H215325   4.533   0.993   0.930
 5107TIP3   OH215326   3.345   4.431   4.581
 5107TIP3    H115327   3.336   4.526   4.571
 5107TIP3    H215328   3.429   4.411   4.540
 5108TIP3   OH215329   4.151   5.700   0.480
 5108TIP3    H115330   4.173   5.737   0.566
 5108TIP3    H215331   4.063   5.665   0.491
 5109TIP3   OH215332   4.708   4.419   3.090
 5109TIP3    H115333   4.615   4.441   3.095
 5109TIP3    H215334   4.753   4.503   3.098
 5110TIP3   OH215335   1.233   4.179   3.936
 5110TIP3    H115336   1.174   4.104   3.948
 5110TIP3    H215337   1.316   4.141   3.910
 5111TIP3   OH215338   1.885   2.980   3.754
 5111TIP3    H115339   1.851   2.920   3.820
 5111TIP3    H215340   1.845   3.064   3.775
 5112TIP3   OH215341   2.929   0.172   1.625
 5112TIP3    H115342   2.994   0.235   1.656
 5112TIP3    H215343   2.845   0.215   1.639
 5113TIP3   OH215344   1.316   3.967   3.375
 5113TIP3    H115345   1.297   4.051   3.416
 5113TIP3    H215346   1.236   3.916   3.386
 5114TIP3   OH215347   4.310   5.797   2.346
 5114TIP3    H115348   4.236   5.858   2.355
 5114TIP3    H215349   4.385   5.853   2.329
 5115TIP3   OH215350   1.259   4.868   2.489
 5115TIP3    H115351   1.167   4.842   2.484
 5115TIP3    H215352   1.274   4.921   2.411
 5116TIP3   OH215353   3.502   1.932   1.166
 5116TIP3    H115354   3.579   1.882   1.140
 5116TIP3    H215355   3.512   2.017   1.124
 5117TIP3   OH215356   4.390   1.311   4.292
 5117TIP3    H115357   4.414   1.274   4.377
 5117TIP3    H215358   4.389   1.236   4.233
 5118TIP3   OH215359   1.330   0.512   2.982
 5118TIP3    H115360   1.396   0.580   2.970
 5118TIP3    H215361   1.292   0.531   3.068
 5119TIP3   OH215362   2.757   2.562   4.760
 5119TIP3    H115363   2.799   2.489   4.713
 5119TIP3    H215364   2.670   2.530   4.782
 5120TIP3   OH215365   3.705   3.311   1.723
 5120TIP3    H115366   3.711   3.405   1.706
 5120TIP3    H215367   3.790   3.288   1.762
 5121TIP3   OH215368   4.038   4.887   4.223
 5121TIP3    H115369   3.945   4.888   4.249
 5121TIP3    H215370   4.067   4.798   4.241
 5122TIP3   OH215371   2.419   1.918   2.648
 5122TIP3    H115372   2.474   1.955   2.579
 5122TIP3    H215373   2.477   1.910   2.724
 5123TIP3   OH215374   5.963   5.366   4.551
 5123TIP3    H115375   5.986   5.273   4.553
 5123TIP3    H215376   5.893   5.375   4.616
 5124TIP3   OH215377   1.740   2.728   3.877
 5124TIP3    H115378   1.648   2.748   3.860
 5124TIP3    H215379   1.746   2.634   3.865
 5125TIP3   OH215380   1.237   1.058   2.741
 5125TIP3    H115381   1.169   1.099   2.795
 5125TIP3    H215382   1.195   0.979   2.707
 5126TIP3   OH215383   1.198   3.885   1.634
 5126TIP3    H115384   1.125   3.947   1.643
 5126TIP3    H215385   1.155   3.800   1.629
 5127TIP3   OH215386   0.668   1.659   4.315
 5127TIP3    H115387   0.634   1.701   4.394
 5127TIP3    H215388   0.755   1.697   4.303
 5128TIP3   OH215389   3.315   3.643   4.197
 5128TIP3    H115390   3.243   3.625   4.137
 5128TIP3    H215391   3.323   3.563   4.249
 5129TIP3   OH215392   3.836   1.585   0.600
 5129TIP3    H115393   3.765   1.535   0.640
 5129TIP3    H215394   3.812   1.592   0.508
 5130TIP3   OH215395   0.729   4.677   4.836
 5130TIP3    H115396   0.674   4.744   4.796
 5130TIP3    H215397   0.705   4.596   4.791
 5131TIP3   OH215398   4.842   1.189   2.212
 5131TIP3    H115399   4.870   1.173   2.302
 5131TIP3    H215400   4.785   1.266   2.219
 5132TIP3   OH215401   1.247   3.126   4.516
 5132TIP3    H115402   1.159   3.123   4.480
 5132TIP3    H215403   1.270   3.034   4.529
 5133TIP3   OH215404   6.011   0.284   1.784
 5133TIP3    H115405   5.920   0.301   1.759
 5133TIP3    H215406   6.026   0.340   1.860
 5134TIP3   OH215407   0.774   0.287   1.800
 5134TIP3    H115408   0.678   0.284   1.796
 5134TIP3    H215409   0.798   0.358   1.741
 5135TIP3   OH215410   2.669   0.085   3.688
 5135TIP3    H115411   2.578   0.059   3.704
 5135TIP3    H215412   2.689   0.146   3.759
 5136TIP3   OH215413   1.892   4.634   4.642
 5136TIP3    H115414   1.841   4.715   4.635
 5136TIP3    H215415   1.861   4.580   4.569
 5137TIP3   OH215416   3.988   1.145   2.200
 5137TIP3    H115417   3.956   1.204   2.131
 5137TIP3    H215418   4.071   1.183   2.228
 5138TIP3   OH215419   2.807   5.556   2.912
 5138TIP3    H115420   2.827   5.585   3.001
 5138TIP3    H215421   2.876   5.593   2.858
 5139TIP3   OH215422   2.707   0.244   2.895
 5139TIP3    H115423   2.683   0.172   2.954
 5139TIP3    H215424   2.704   0.205   2.808
 5140TIP3   OH215425   0.479   2.559   5.033
 5140TIP3    H115426   0.413   2.623   5.008
 5140TIP3    H215427   0.536   2.606   5.094
 5141TIP3   OH215428   3.992   5.774   2.761
 5141TIP3    H115429   4.043   5.731   2.692
 5141TIP3    H215430   3.952   5.849   2.717
 5142TIP3   OH215431   0.509   2.234   4.347
 5142TIP3    H115432   0.425   2.265   4.312
 5142TIP3    H215433   0.543   2.309   4.397
 5143TIP3   OH215434   0.729   3.049   3.155
 5143TIP3    H115435   0.676   3.113   3.109
 5143TIP3    H215436   0.810   3.094   3.176
 5144TIP3   OH215437   1.485   1.475   1.048
 5144TIP3    H115438   1.394   1.448   1.057
 5144TIP3    H215439   1.516   1.428   0.970
 5145TIP3   OH215440   1.074   3.961   4.021
 5145TIP3    H115441   1.027   3.884   3.990
 5145TIP3    H215442   1.015   4.001   4.085
 5146TIP3   OH215443   2.164   0.916   2.223
 5146TIP3    H115444   2.131   0.885   2.307
 5146TIP3    H215445   2.086   0.921   2.167
 5147TIP3   OH215446   0.584   1.395   0.524
 5147TIP3    H115447   0.585   1.407   0.619
 5147TIP3    H215448   0.525   1.320   0.510
 5148TIP3   OH215449   4.202   2.493   2.166
 5148TIP3    H115450   4.273   2.441   2.203
 5148TIP3    H215451   4.128   2.431   2.160
 5149TIP3   OH215452   5.421   2.186   3.791
 5149TIP3    H115453   5.365   2.198   3.868
 5149TIP3    H215454   5.502   2.233   3.812
 5150TIP3   OH215455   4.603   0.680   1.795
 5150TIP3    H115456   4.526   0.624   1.787
 5150TIP3    H215457   4.678   0.620   1.788
 5151TIP3   OH215458   0.031   4.193   3.344
 5151TIP3    H115459   0.033   4.279   3.300
 5151TIP3    H215460  -0.041   4.146   3.302
 5152TIP3   OH215461   4.791   4.823   4.346
 5152TIP3    H115462   4.744   4.816   4.263
 5152TIP3    H215463   4.819   4.734   4.366
 5153TIP3   OH215464   2.999   1.274   1.643
 5153TIP3    H115465   2.959   1.252   1.727
 5153TIP3    H215466   3.021   1.189   1.605
 5154TIP3   OH215467   5.045   5.446   5.105
 5154TIP3    H115468   4.951   5.440   5.086
 5154TIP3    H215469   5.067   5.537   5.085
 5155TIP3   OH215470   3.633   0.900   1.589
 5155TIP3    H115471   3.555   0.950   1.564
 5155TIP3    H215472   3.620   0.814   1.549
 5156TIP3   OH215473   1.977   5.219   3.554
 5156TIP3    H115474   1.984   5.211   3.650
 5156TIP3    H215475   2.054   5.270   3.529
 5157TIP3   OH215476   0.436   0.397   3.448
 5157TIP3    H115477   0.495   0.386   3.523
 5157TIP3    H215478   0.406   0.308   3.428
 5158TIP3   OH215479   1.432   2.118   4.998
 5158TIP3    H115480   1.431   2.203   5.042
 5158TIP3    H215481   1.448   2.138   4.906
 5159TIP3   OH215482   4.403   1.246   2.628
 5159TIP3    H115483   4.373   1.185   2.561
 5159TIP3    H215484   4.381   1.332   2.594
 5160TIP3   OH215485   3.854   3.056   2.782
 5160TIP3    H115486   3.903   3.042   2.863
 5160TIP3    H215487   3.897   3.000   2.718
 5161TIP3   OH215488   4.644   3.059   5.153
 5161TIP3    H115489   4.627   3.029   5.064
 5161TIP3    H215490   4.731   3.099   5.149
 5162TIP3   OH215491   2.443   0.461   0.117
 5162TIP3    H115492   2.527   0.463   0.070
 5162TIP3    H215493   2.410   0.550   0.111
 5163TIP3   OH215494   2.151   3.365   4.831
 5163TIP3    H115495   2.233   3.316   4.843
 5163TIP3    H215496   2.160   3.441   4.889
 5164TIP3   OH215497   3.575   5.556   2.592
 5164TIP3    H115498   3.511   5.576   2.661
 5164TIP3    H215499   3.660   5.572   2.634
 5165TIP3   OH215500   2.820   3.774   1.744
 5165TIP3    H115501   2.854   3.688   1.718
 5165TIP3    H215502   2.737   3.782   1.697
 5166TIP3   OH215503   0.617   0.723   1.256
 5166TIP3    H115504   0.527   0.743   1.230
 5166TIP3    H215505   0.671   0.774   1.195
 5167TIP3   OH215506   2.510   4.926   2.477
 5167TIP3    H115507   2.544   4.901   2.391
 5167TIP3    H215508   2.451   5.000   2.458
 5168TIP3   OH215509   0.748   0.440   1.488
 5168TIP3    H115510   0.821   0.381   1.506
 5168TIP3    H215511   0.728   0.426   1.395
 5169TIP3   OH215512   1.462   1.896   1.557
 5169TIP3    H115513   1.432   1.982   1.587
 5169TIP3    H215514   1.397   1.868   1.493
 5170TIP3   OH215515   3.630   0.625   1.526
 5170TIP3    H115516   3.633   0.589   1.438
 5170TIP3    H215517   3.541   0.605   1.557
 5171TIP3   OH215518   3.183   4.850   3.109
 5171TIP3    H115519   3.247   4.887   3.048
 5171TIP3    H215520   3.151   4.770   3.066
 5172TIP3   OH215521   1.694   0.859   3.331
 5172TIP3    H115522   1.698   0.871   3.425
 5172TIP3    H215523   1.648   0.936   3.298
 5173TIP3   OH215524   4.074   4.966   0.590
 5173TIP3    H115525   4.151   4.935   0.636
 5173TIP3    H215526   4.007   4.976   0.658
 5174TIP3   OH215527   3.010   0.181   5.035
 5174TIP3    H115528   3.086   0.123   5.023
 5174TIP3    H215529   2.934   0.123   5.027
 5175TIP3   OH215530   1.109   4.730   1.913
 5175TIP3    H115531   1.139   4.728   2.004
 5175TIP3    H215532   1.137   4.646   1.877
 5176TIP3   OH215533   0.271   0.190   2.109
 5176TIP3    H115534   0.235   0.131   2.176
 5176TIP3    H215535   0.203   0.256   2.096
 5177TIP3   OH215536   3.480   0.689   4.281
 5177TIP3    H115537   3.499   0.760   4.219
 5177TIP3    H215538   3.535   0.708   4.357
 5178TIP3   OH215539   0.480   4.132   4.767
 5178TIP3    H115540   0.573   4.113   4.775
 5178TIP3    H215541   0.477   4.225   4.742
 5179TIP3   OH215542   4.559   4.043   2.872
 5179TIP3    H115543   4.596   3.983   2.938
 5179TIP3    H215544   4.465   4.032   2.881
 5180TIP3   OH215545   1.057   5.655   2.665
 5180TIP3    H115546   1.070   5.679   2.757
 5180TIP3    H215547   1.145   5.634   2.634
 5181TIP3   OH215548   0.541   2.474   0.437
 5181TIP3    H115549   0.594   2.550   0.458
 5181TIP3    H215550   0.452   2.508   0.428
 5182TIP3   OH215551   5.765   0.707   2.274
 5182TIP3    H115552   5.695   0.731   2.334
 5182TIP3    H215553   5.835   0.675   2.331
 5183TIP3   OH215554   4.733   3.531   2.612
 5183TIP3    H115555   4.821   3.558   2.638
 5183TIP3    H215556   4.744   3.441   2.582
 5184TIP3   OH215557   1.922   0.242   4.954
 5184TIP3    H115558   1.850   0.300   4.929
 5184TIP3    H215559   1.880   0.163   4.987
 5185TIP3   OH215560   4.303   3.684   0.245
 5185TIP3    H115561   4.270   3.739   0.317
 5185TIP3    H215562   4.225   3.667   0.191
 5186TIP3   OH215563   0.682   1.368   2.101
 5186TIP3    H115564   0.735   1.303   2.147
 5186TIP3    H215565   0.654   1.429   2.170
 5187TIP3   OH215566   4.392   4.742   4.293
 5187TIP3    H115567   4.316   4.690   4.316
 5187TIP3    H215568   4.376   4.769   4.202
 5188TIP3   OH215569   2.045   2.637   2.947
 5188TIP3    H115570   1.993   2.563   2.917
 5188TIP3    H215571   2.052   2.624   3.042
 5189TIP3   OH215572   1.795   2.150   5.004
 5189TIP3    H115573   1.765   2.121   4.917
 5189TIP3    H215574   1.853   2.079   5.034
 5190TIP3   OH215575   4.048   1.362   0.373
 5190TIP3    H115576   4.048   1.453   0.344
 5190TIP3    H215577   4.117   1.358   0.440
 5191TIP3   OH215578   4.686   2.079   2.081
 5191TIP3    H115579   4.602   2.033   2.071
 5191TIP3    H215580   4.744   2.036   2.018
 5192TIP3   OH215581   2.246   2.730   3.728
 5192TIP3    H115582   2.267   2.724   3.821
 5192TIP3    H215583   2.170   2.672   3.717
 5193TIP3   OH215584   3.057   5.535   2.164
 5193TIP3    H115585   3.079   5.442   2.156
 5193TIP3    H215586   3.119   5.580   2.106
 5194TIP3   OH215587   2.528   3.782   2.396
 5194TIP3    H115588   2.525   3.717   2.466
 5194TIP3    H215589   2.448   3.766   2.345
 5195TIP3   OH215590   1.972   5.118   1.906
 5195TIP3    H115591   1.954   5.065   1.984
 5195TIP3    H215592   2.048   5.075   1.865
 5196TIP3   OH215593   4.828   3.530   0.114
 5196TIP3    H115594   4.756   3.586   0.086
 5196TIP3    H215595   4.905   3.563   0.067
 5197TIP3   OH215596   0.215   5.352   3.430
 5197TIP3    H115597   0.287   5.360   3.367
 5197TIP3    H215598   0.167   5.434   3.422
 5198TIP3   OH215599   0.871   0.658   0.248
 5198TIP3    H115600   0.835   0.746   0.261
 5198TIP3    H215601   0.833   0.629   0.165
 5199TIP3   OH215602   0.118   1.376   0.727
 5199TIP3    H115603   0.149   1.287   0.745
 5199TIP3    H215604   0.082   1.372   0.639
 5200TIP3   OH215605   2.124   4.091   4.929
 5200TIP3    H115606   2.040   4.087   4.975
 5200TIP3    H215607   2.104   4.138   4.848
 5201TIP3   OH215608   3.609   1.029   0.602
 5201TIP3    H115609   3.698   0.996   0.617
 5201TIP3    H215610   3.606   1.048   0.509
 5202TIP3   OH215611   0.383   5.466   4.200
 5202TIP3    H115612   0.474   5.441   4.188
 5202TIP3    H215613   0.360   5.515   4.121
 5203TIP3   OH215614   4.270   5.064   1.421
 5203TIP3    H115615   4.275   4.983   1.471
 5203TIP3    H215616   4.262   5.133   1.487
 5204TIP3   OH215617   0.435   2.009   0.204
 5204TIP3    H115618   0.484   1.927   0.193
 5204TIP3    H215619   0.345   1.980   0.221
 5205TIP3   OH215620   4.333   2.129   4.674
 5205TIP3    H115621   4.265   2.089   4.729
 5205TIP3    H215622   4.297   2.214   4.648
 5206TIP3   OH215623   5.992   3.264   0.839
 5206TIP3    H115624   6.011   3.181   0.883
 5206TIP3    H215625   5.974   3.326   0.910
 5207TIP3   OH215626   5.152   5.803   2.680
 5207TIP3    H115627   5.246   5.784   2.675
 5207TIP3    H215628   5.136   5.864   2.608
 5208TIP3   OH215629   4.117   0.017   4.605
 5208TIP3    H115630   4.109   0.086   4.539
 5208TIP3    H215631   4.154   0.061   4.681
 5209TIP3   OH215632   3.460   0.257   1.569
 5209TIP3    H115633   3.531   0.225   1.513
 5209TIP3    H215634   3.380   0.227   1.524
 5210TIP3   OH215635   2.308   5.011   4.687
 5210TIP3    H115636   2.297   4.935   4.630
 5210TIP3    H215637   2.382   5.059   4.649
 5211TIP3   OH215638   3.168   4.280   3.452
 5211TIP3    H115639   3.181   4.239   3.538
 5211TIP3    H215640   3.134   4.210   3.397
 5212TIP3   OH215641   4.085   4.393   4.137
 5212TIP3    H115642   4.168   4.347   4.131
 5212TIP3    H215643   4.067   4.400   4.231
 5213TIP3   OH215644   1.313   4.233   2.572
 5213TIP3    H115645   1.219   4.220   2.580
 5213TIP3    H215646   1.352   4.161   2.622
 5214TIP3   OH215647   5.449   1.042   3.928
 5214TIP3    H115648   5.525   1.020   3.875
 5214TIP3    H215649   5.394   0.963   3.927
 5215TIP3   OH215650   4.590   1.881   1.189
 5215TIP3    H115651   4.611   1.965   1.230
 5215TIP3    H215652   4.622   1.890   1.098
 5216TIP3   OH215653   0.590   4.032   3.896
 5216TIP3    H115654   0.549   3.946   3.911
 5216TIP3    H215655   0.550   4.064   3.815
 5217TIP3   OH215656   2.092   1.048   1.981
 5217TIP3    H115657   2.089   1.025   1.888
 5217TIP3    H215658   2.002   1.040   2.011
 5218TIP3   OH215659   2.501   0.864   2.724
 5218TIP3    H115660   2.579   0.836   2.771
 5218TIP3    H215661   2.461   0.783   2.693
 5219TIP3   OH215662   3.780   1.329   2.475
 5219TIP3    H115663   3.819   1.367   2.396
 5219TIP3    H215664   3.837   1.357   2.546
 5220TIP3   OH215665   3.625   0.624   5.048
 5220TIP3    H115666   3.618   0.537   5.008
 5220TIP3    H215667   3.592   0.684   4.982
 5221TIP3   OH215668   0.490   2.974   4.872
 5221TIP3    H115669   0.581   2.973   4.843
 5221TIP3    H215670   0.440   2.995   4.793
 5222TIP3   OH215671   1.049   5.923   0.109
 5222TIP3    H115672   1.011   6.009   0.122
 5222TIP3    H215673   1.142   5.935   0.127
 5223TIP3   OH215674   1.323   3.360   3.081
 5223TIP3    H115675   1.372   3.278   3.086
 5223TIP3    H215676   1.232   3.333   3.068
 5224TIP3   OH215677   3.363   4.537   2.314
 5224TIP3    H115678   3.452   4.550   2.280
 5224TIP3    H215679   3.350   4.608   2.376
 5225TIP3   OH215680   2.895   0.587   0.717
 5225TIP3    H115681   2.956   0.643   0.671
 5225TIP3    H215682   2.950   0.534   0.775
 5226TIP3   OH215683   0.092   4.904   2.931
 5226TIP3    H115684   0.159   4.895   2.999
 5226TIP3    H215685   0.040   4.979   2.957
 5227TIP3   OH215686   5.998   3.355   1.718
 5227TIP3    H115687   6.067   3.328   1.657
 5227TIP3    H215688   6.042   3.413   1.779
 5228TIP3   OH215689   1.084   0.157   1.111
 5228TIP3    H115690   1.054   0.112   1.032
 5228TIP3    H215691   1.010   0.212   1.137
 5229TIP3   OH215692   2.359   4.219   4.180
 5229TIP3    H115693   2.442   4.266   4.186
 5229TIP3    H215694   2.320   4.249   4.098
 5230TIP3   OH215695   1.124   1.338   3.759
 5230TIP3    H115696   1.102   1.337   3.852
 5230TIP3    H215697   1.093   1.424   3.729
 5231TIP3   OH215698   5.017   1.477   0.882
 5231TIP3    H115699   5.011   1.453   0.789
 5231TIP3    H215700   4.927   1.500   0.906
 5232TIP3   OH215701   5.122   2.273   2.915
 5232TIP3    H115702   5.063   2.300   2.986
 5232TIP3    H215703   5.197   2.234   2.960
 5233TIP3   OH215704   1.953   4.684   0.721
 5233TIP3    H115705   1.994   4.766   0.750
 5233TIP3    H215706   1.902   4.709   0.644
 5234TIP3   OH215707   5.569   1.763   0.167
 5234TIP3    H115708   5.658   1.730   0.156
 5234TIP3    H215709   5.568   1.845   0.118
 5235TIP3   OH215710   5.674   3.276   0.999
 5235TIP3    H115711   5.673   3.199   0.942
 5235TIP3    H215712   5.589   3.318   0.984
 5236TIP3   OH215713   4.076   4.717   2.903
 5236TIP3    H115714   4.120   4.779   2.845
 5236TIP3    H215715   4.089   4.632   2.862
 5237TIP3   OH215716   1.964   1.751   1.370
 5237TIP3    H115717   1.909   1.709   1.436
 5237TIP3    H215718   1.963   1.691   1.296
 5238TIP3   OH215719   1.117   3.395   0.834
 5238TIP3    H115720   1.165   3.327   0.788
 5238TIP3    H215721   1.180   3.467   0.843
 5239TIP3   OH215722   4.017   3.059   3.087
 5239TIP3    H115723   3.944   3.038   3.145
 5239TIP3    H215724   4.074   2.982   3.091
 5240TIP3   OH215725   5.840   4.402   3.880
 5240TIP3    H115726   5.923   4.450   3.888
 5240TIP3    H215727   5.866   4.315   3.851
 5241TIP3   OH215728   2.818   4.538   4.930
 5241TIP3    H115729   2.825   4.575   5.018
 5241TIP3    H215730   2.780   4.452   4.943
 5242TIP3   OH215731   1.321   5.131   2.350
 5242TIP3    H115732   1.365   5.178   2.280
 5242TIP3    H215733   1.303   5.197   2.417
 5243TIP3   OH215734   3.197   1.379   0.022
 5243TIP3    H115735   3.214   1.462   0.066
 5243TIP3    H215736   3.126   1.339   0.074
 5244TIP3   OH215737   2.325   5.755   0.101
 5244TIP3    H115738   2.387   5.770   0.030
 5244TIP3    H215739   2.379   5.727   0.175
 5245TIP3   OH215740   2.456   3.077   2.016
 5245TIP3    H115741   2.537   3.102   2.060
 5245TIP3    H215742   2.476   2.991   1.977
 5246TIP3   OH215743   2.914   5.576   3.176
 5246TIP3    H115744   2.903   5.657   3.225
 5246TIP3    H215745   2.985   5.530   3.222
 5247TIP3   OH215746   1.231   1.911   5.055
 5247TIP3    H115747   1.312   1.887   5.010
 5247TIP3    H215748   1.247   2.000   5.086
 5248TIP3   OH215749   3.070   1.817   3.873
 5248TIP3    H115750   3.068   1.726   3.904
 5248TIP3    H215751   3.163   1.838   3.868
 5249TIP3   OH215752   5.487   3.852   3.391
 5249TIP3    H115753   5.490   3.792   3.316
 5249TIP3    H215754   5.551   3.920   3.370
 5250TIP3   OH215755   0.530   4.350   3.695
 5250TIP3    H115756   0.480   4.425   3.660
 5250TIP3    H215757   0.474   4.274   3.678
 5251TIP3   OH215758   5.979   1.180   5.147
 5251TIP3    H115759   5.918   1.253   5.153
 5251TIP3    H215760   6.029   1.196   5.068
 5252TIP3   OH215761   5.709   2.546   3.671
 5252TIP3    H115762   5.658   2.544   3.591
 5252TIP3    H215763   5.703   2.457   3.706
 5253TIP3   OH215764   5.948   2.628   0.831
 5253TIP3    H115765   6.014   2.691   0.800
 5253TIP3    H215766   5.985   2.591   0.911
 5254TIP3   OH215767   5.470   2.013   0.347
 5254TIP3    H115768   5.473   1.923   0.377
 5254TIP3    H215769   5.552   2.052   0.377
 5255TIP3   OH215770   2.100   5.765   4.273
 5255TIP3    H115771   2.180   5.732   4.231
 5255TIP3    H215772   2.088   5.709   4.349
 5256TIP3   OH215773   3.394   4.658   4.003
 5256TIP3    H115774   3.392   4.744   4.045
 5256TIP3    H215775   3.388   4.596   4.075
 5257TIP3   OH215776   2.436   2.450   4.108
 5257TIP3    H115777   2.517   2.409   4.077
 5257TIP3    H215778   2.405   2.392   4.178
 5258TIP3   OH215779   5.219   1.585   0.491
 5258TIP3    H115780   5.199   1.575   0.398
 5258TIP3    H215781   5.165   1.660   0.519
 5259TIP3   OH215782   6.232   0.200   1.251
 5259TIP3    H115783   6.300   0.209   1.318
 5259TIP3    H215784   6.276   0.226   1.170
 5260TIP3   OH215785   3.144   3.480   3.375
 5260TIP3    H115786   3.176   3.565   3.345
 5260TIP3    H215787   3.126   3.492   3.468
 5261TIP3   OH215788   2.371   2.398   3.793
 5261TIP3    H115789   2.360   2.492   3.807
 5261TIP3    H215790   2.291   2.372   3.747
 5262TIP3   OH215791   2.693   4.580   0.988
 5262TIP3    H115792   2.714   4.494   0.952
 5262TIP3    H215793   2.719   4.574   1.080
 5263TIP3   OH215794   3.022   3.904   2.726
 5263TIP3    H115795   3.067   3.854   2.658
 5263TIP3    H215796   3.092   3.952   2.770
 5264TIP3   OH215797   4.755   4.191   1.396
 5264TIP3    H115798   4.836   4.172   1.350
 5264TIP3    H215799   4.756   4.134   1.473
 5265TIP3   OH215800   4.188   2.376   2.828
 5265TIP3    H115801   4.102   2.380   2.786
 5265TIP3    H215802   4.183   2.437   2.901
 5266TIP3   OH215803   0.987   4.235   0.582
 5266TIP3    H115804   0.979   4.161   0.643
 5266TIP3    H215805   0.929   4.302   0.618
 5267TIP3   OH215806   0.791   0.625   4.033
 5267TIP3    H115807   0.770   0.681   4.107
 5267TIP3    H215808   0.868   0.666   3.993
 5268TIP3   OH215809   2.415   1.988   4.422
 5268TIP3    H115810   2.490   1.929   4.424
 5268TIP3    H215811   2.448   2.067   4.379
 5269TIP3   OH215812   0.352   1.361   2.245
 5269TIP3    H115813   0.321   1.319   2.325
 5269TIP3    H215814   0.274   1.406   2.210
 5270TIP3   OH215815   4.709   0.836   4.306
 5270TIP3    H115816   4.709   0.932   4.302
 5270TIP3    H215817   4.799   0.811   4.287
 5271TIP3   OH215818   3.805   3.376   0.976
 5271TIP3    H115819   3.724   3.425   0.959
 5271TIP3    H215820   3.798   3.351   1.068
 5272TIP3   OH215821   0.080   5.333   0.817
 5272TIP3    H115822   0.056   5.242   0.805
 5272TIP3    H215823  -0.002   5.381   0.805
 5273TIP3   OH215824   4.765   1.002   0.467
 5273TIP3    H115825   4.837   1.000   0.404
 5273TIP3    H215826   4.690   1.034   0.418
 5274TIP3   OH215827   0.469   3.807   2.210
 5274TIP3    H115828   0.547   3.752   2.221
 5274TIP3    H215829   0.396   3.745   2.208
 5275TIP3   OH215830   0.098   2.940   4.831
 5275TIP3    H115831   0.144   2.925   4.914
 5275TIP3    H215832   0.042   3.016   4.848
 5276TIP3   OH215833   1.230   1.431   3.262
 5276TIP3    H115834   1.194   1.396   3.180
 5276TIP3    H215835   1.158   1.479   3.302
 5277TIP3   OH215836   4.614   4.932   3.740
 5277TIP3    H115837   4.587   4.992   3.670
 5277TIP3    H215838   4.545   4.866   3.743
 5278TIP3   OH215839   2.704   2.719   3.969
 5278TIP3    H115840   2.767   2.648   3.982
 5278TIP3    H215841   2.741   2.793   4.016
 5279TIP3   OH215842   0.365   4.872   2.084
 5279TIP3    H115843   0.428   4.938   2.054
 5279TIP3    H215844   0.391   4.855   2.175
 5280TIP3   OH215845   0.018   3.751   0.339
 5280TIP3    H115846   0.076   3.677   0.320
 5280TIP3    H215847  -0.058   3.736   0.284
 5281TIP3   OH215848   6.170   0.208   2.874
 5281TIP3    H115849   6.142   0.226   2.964
 5281TIP3    H215850   6.259   0.244   2.870
 5282TIP3   OH215851   4.243   1.717   0.821
 5282TIP3    H115852   4.279   1.685   0.738
 5282TIP3    H215853   4.161   1.760   0.797
 5283TIP3   OH215854   1.622   0.129   2.085
 5283TIP3    H115855   1.555   0.157   2.023
 5283TIP3    H215856   1.644   0.040   2.059
 5284TIP3   OH215857   0.582   4.273   2.261
 5284TIP3    H115858   0.638   4.241   2.190
 5284TIP3    H215859   0.541   4.352   2.225
 5285TIP3   OH215860   3.269   0.863   3.988
 5285TIP3    H115861   3.330   0.927   4.023
 5285TIP3    H215862   3.314   0.825   3.912
 5286TIP3   OH215863   0.504   5.451   2.880
 5286TIP3    H115864   0.456   5.386   2.931
 5286TIP3    H215865   0.547   5.506   2.946
 5287TIP3   OH215866   3.365   1.488   3.957
 5287TIP3    H115867   3.419   1.461   4.032
 5287TIP3    H215868   3.428   1.523   3.894
 5288TIP3   OH215869   0.135   4.311   4.073
 5288TIP3    H115870   0.165   4.312   4.164
 5288TIP3    H215871   0.051   4.266   4.077
 5289TIP3   OH215872   4.010   1.014   3.689
 5289TIP3    H115873   3.944   1.022   3.621
 5289TIP3    H215874   4.083   0.968   3.646
 5290TIP3   OH215875   4.667   5.786   0.550
 5290TIP3    H115876   4.740   5.760   0.605
 5290TIP3    H215877   4.610   5.709   0.547
 5291TIP3   OH215878   5.520   1.070   2.446
 5291TIP3    H115879   5.434   1.072   2.405
 5291TIP3    H215880   5.517   1.139   2.512
 5292TIP3   OH215881   1.175   3.247   3.808
 5292TIP3    H115882   1.164   3.153   3.799
 5292TIP3    H215883   1.086   3.282   3.797
 5293TIP3   OH215884   5.471   3.858   1.006
 5293TIP3    H115885   5.400   3.796   0.990
 5293TIP3    H215886   5.434   3.921   1.068
 5294TIP3   OH215887   4.831   1.788   3.552
 5294TIP3    H115888   4.894   1.776   3.623
 5294TIP3    H215889   4.855   1.870   3.511
 5295TIP3   OH215890   6.344   0.998   3.917
 5295TIP3    H115891   6.435   1.013   3.893
 5295TIP3    H215892   6.302   1.083   3.908
 5296TIP3   OH215893   4.281   3.941   0.043
 5296TIP3    H115894   4.327   3.916  -0.038
 5296TIP3    H215895   4.247   3.858   0.077
 5297TIP3   OH215896   3.587   1.636   2.000
 5297TIP3    H115897   3.581   1.621   1.906
 5297TIP3    H215898   3.675   1.605   2.024
 5298TIP3   OH215899   3.379   2.324   1.669
 5298TIP3    H115900   3.396   2.308   1.576
 5298TIP3    H215901   3.409   2.244   1.712
 5299TIP3   OH215902   3.113   1.931   1.959
 5299TIP3    H115903   3.085   1.928   1.867
 5299TIP3    H215904   3.037   1.899   2.008
 5300TIP3   OH215905   3.258   4.209   2.007
 5300TIP3    H115906   3.178   4.182   1.963
 5300TIP3    H215907   3.295   4.277   1.951
 5301TIP3   OH215908   6.312   2.109   3.565
 5301TIP3    H115909   6.281   2.189   3.607
 5301TIP3    H215910   6.365   2.139   3.492
 5302TIP3   OH215911   5.399   1.665   2.554
 5302TIP3    H115912   5.402   1.569   2.564
 5302TIP3    H215913   5.337   1.694   2.620
 5303TIP3   OH215914   1.400   2.688   4.200
 5303TIP3    H115915   1.454   2.755   4.158
 5303TIP3    H215916   1.460   2.643   4.260
 5304TIP3   OH215917   0.126   2.628   3.280
 5304TIP3    H115918   0.173   2.710   3.292
 5304TIP3    H215919   0.181   2.562   3.323
 5305TIP3   OH215920   6.248   3.867   3.412
 5305TIP3    H115921   6.239   3.775   3.389
 5305TIP3    H215922   6.217   3.873   3.502
 5306TIP3   OH215923   0.832   1.799   0.709
 5306TIP3    H115924   0.876   1.846   0.780
 5306TIP3    H215925   0.898   1.737   0.677
 5307TIP3   OH215926   6.221   4.163   4.081
 5307TIP3    H115927   6.287   4.133   4.144
 5307TIP3    H215928   6.201   4.085   4.029
 5308TIP3   OH215929   5.519   2.458   2.354
 5308TIP3    H115930   5.450   2.391   2.355
 5308TIP3    H215931   5.595   2.415   2.393
 5309TIP3   OH215932   5.172   4.861   2.063
 5309TIP3    H115933   5.110   4.807   2.112
 5309TIP3    H215934   5.120   4.898   1.991
 5310TIP3   OH215935   0.680   1.139   1.086
 5310TIP3    H115936   0.652   1.115   0.998
 5310TIP3    H215937   0.775   1.143   1.081
 5311TIP3   OH215938   0.399   1.407   4.217
 5311TIP3    H115939   0.327   1.363   4.171
 5311TIP3    H215940   0.470   1.409   4.152
 5312TIP3   OH215941   0.599   2.183   0.334
 5312TIP3    H115942   0.552   2.264   0.352
 5312TIP3    H215943   0.546   2.137   0.269
 5313TIP3   OH215944   2.385   4.315   5.153
 5313TIP3    H115945   2.354   4.226   5.165
 5313TIP3    H215946   2.310   4.370   5.174
 5314TIP3   OH215947   0.885   5.118   4.146
 5314TIP3    H115948   0.947   5.153   4.209
 5314TIP3    H215949   0.820   5.072   4.199
 5315TIP3   OH215950   3.456   4.334   5.060
 5315TIP3    H115951   3.444   4.248   5.019
 5315TIP3    H215952   3.499   4.315   5.143
 5316TIP3   OH215953   2.554   5.504   3.532
 5316TIP3    H115954   2.636   5.530   3.573
 5316TIP3    H215955   2.577   5.430   3.475
 5317TIP3   OH215956   0.904   3.773   1.145
 5317TIP3    H115957   0.917   3.787   1.239
 5317TIP3    H215958   0.970   3.829   1.104
 5318TIP3   OH215959   4.937   0.294   4.258
 5318TIP3    H115960   4.885   0.357   4.209
 5318TIP3    H215961   4.997   0.347   4.309
 5319TIP3   OH215962   2.873   0.616   4.037
 5319TIP3    H115963   2.877   0.582   3.948
 5319TIP3    H215964   2.938   0.686   4.039
 5320TIP3   OH215965   0.537   1.484   2.883
 5320TIP3    H115966   0.522   1.481   2.978
 5320TIP3    H215967   0.618   1.435   2.870
 5321TIP3   OH215968   4.958   1.081   4.365
 5321TIP3    H115969   5.000   1.164   4.340
 5321TIP3    H215970   5.029   1.029   4.401
 5322TIP3   OH215971   5.408   5.782   1.087
 5322TIP3    H115972   5.412   5.688   1.069
 5322TIP3    H215973   5.356   5.790   1.166
 5323TIP3   OH215974   2.399   3.704   1.459
 5323TIP3    H115975   2.375   3.740   1.373
 5323TIP3    H215976   2.366   3.615   1.457
 5324TIP3   OH215977   5.656   3.909   4.666
 5324TIP3    H115978   5.670   3.976   4.733
 5324TIP3    H215979   5.742   3.897   4.626
 5325TIP3   OH215980   0.731   0.259   2.611
 5325TIP3    H115981   0.812   0.253   2.662
 5325TIP3    H215982   0.754   0.221   2.526
 5326TIP3   OH215983   0.148   0.421   2.067
 5326TIP3    H115984   0.192   0.458   2.144
 5326TIP3    H215985   0.055   0.428   2.088
 5327TIP3   OH215986   1.468   1.493   3.793
 5327TIP3    H115987   1.543   1.550   3.806
 5327TIP3    H215988   1.406   1.517   3.862
 5328TIP3   OH215989   0.601   2.619   3.872
 5328TIP3    H115990   0.651   2.620   3.954
 5328TIP3    H215991   0.636   2.694   3.823
 5329TIP3   OH215992   5.689   0.255   1.751
 5329TIP3    H115993   5.736   0.281   1.671
 5329TIP3    H215994   5.602   0.230   1.721
 5330TIP3   OH215995   1.435   4.146   0.575
 5330TIP3    H115996   1.480   4.062   0.566
 5330TIP3    H215997   1.436   4.164   0.669
 5331TIP3   OH215998   2.475   4.555   4.575
 5331TIP3    H115999   2.463   4.517   4.662
 5331TIP3    H216000   2.529   4.490   4.529
 5332TIP3   OH216001   5.745   5.857   0.918
 5332TIP3    H116002   5.702   5.846   1.002
 5332TIP3    H216003   5.828   5.900   0.939
 5333TIP3   OH216004   5.766   2.343   0.366
 5333TIP3    H116005   5.802   2.266   0.321
 5333TIP3    H216006   5.732   2.308   0.448
 5334TIP3   OH216007   3.130   0.936   1.141
 5334TIP3    H116008   3.085   0.982   1.211
 5334TIP3    H216009   3.223   0.941   1.163
 5335TIP3   OH216010   3.576   4.043   1.411
 5335TIP3    H116011   3.543   4.074   1.495
 5335TIP3    H216012   3.523   4.089   1.346
 5336TIP3   OH216013   2.766   2.735   4.563
 5336TIP3    H116014   2.743   2.707   4.651
 5336TIP3    H216015   2.852   2.697   4.547
 5337TIP3   OH216016   4.376   1.789   2.066
 5337TIP3    H116017   4.445   1.763   2.128
 5337TIP3    H216018   4.423   1.837   1.998
 5338TIP3   OH216019   4.431   1.651   3.316
 5338TIP3    H116020   4.353   1.702   3.292
 5338TIP3    H216021   4.397   1.569   3.352
 5339TIP3   OH216022   5.034   2.753   1.393
 5339TIP3    H116023   5.090   2.820   1.353
 5339TIP3    H216024   5.065   2.746   1.483
 5340TIP3   OH216025   4.554   5.943   3.611
 5340TIP3    H116026   4.524   5.993   3.687
 5340TIP3    H216027   4.478   5.890   3.586
 5341TIP3   OH216028   0.555   3.434   3.144
 5341TIP3    H116029   0.540   3.528   3.136
 5341TIP3    H216030   0.641   3.420   3.105
 5342TIP3   OH216031   6.084   3.049   1.331
 5342TIP3    H116032   6.048   2.961   1.332
 5342TIP3    H216033   6.069   3.080   1.242
 5343TIP3   OH216034   5.173   4.978   3.541
 5343TIP3    H116035   5.176   4.917   3.467
 5343TIP3    H216036   5.144   4.925   3.615
 5344TIP3   OH216037   5.481   5.448   1.723
 5344TIP3    H116038   5.481   5.543   1.709
 5344TIP3    H216039   5.392   5.428   1.750
 5345TIP3   OH216040   5.975   3.807   2.479
 5345TIP3    H116041   6.020   3.889   2.460
 5345TIP3    H216042   5.994   3.790   2.571
 5346TIP3   OH216043   0.248   4.207   2.200
 5346TIP3    H116044   0.251   4.121   2.158
 5346TIP3    H216045   0.276   4.268   2.131
 5347TIP3   OH216046   0.325   1.594   2.417
 5347TIP3    H116047   0.405   1.541   2.423
 5347TIP3    H216048   0.256   1.537   2.451
 5348TIP3   OH216049   2.258   0.980   3.984
 5348TIP3    H116050   2.274   0.990   4.078
 5348TIP3    H216051   2.252   1.069   3.951
 5349TIP3   OH216052   1.006   0.379   1.554
 5349TIP3    H116053   1.053   0.447   1.602
 5349TIP3    H216054   1.057   0.300   1.569
 5350TIP3   OH216055   1.634   3.526   2.148
 5350TIP3    H116056   1.623   3.477   2.066
 5350TIP3    H216057   1.594   3.611   2.130
 5351TIP3   OH216058   6.315   2.228   2.466
 5351TIP3    H116059   6.241   2.186   2.422
 5351TIP3    H216060   6.382   2.237   2.398
 5352TIP3   OH216061   2.534   4.182   0.150
 5352TIP3    H116062   2.597   4.238   0.105
 5352TIP3    H216063   2.472   4.242   0.190
 5353TIP3   OH216064   6.074   1.153   3.501
 5353TIP3    H116065   6.047   1.245   3.499
 5353TIP3    H216066   6.146   1.149   3.438
 5354TIP3   OH216067   2.436   3.963   2.881
 5354TIP3    H116068   2.458   3.969   2.788
 5354TIP3    H216069   2.500   4.019   2.925
 5355TIP3   OH216070   2.357   1.276   4.754
 5355TIP3    H116071   2.425   1.334   4.788
 5355TIP3    H216072   2.324   1.320   4.676
 5356TIP3   OH216073   3.597   0.109   3.896
 5356TIP3    H116074   3.582   0.056   3.974
 5356TIP3    H216075   3.671   0.165   3.919
 5357TIP3   OH216076   3.662   0.900   3.369
 5357TIP3    H116077   3.603   0.958   3.322
 5357TIP3    H216078   3.605   0.839   3.415
 5358TIP3   OH216079   1.470   5.367   1.399
 5358TIP3    H116080   1.476   5.390   1.491
 5358TIP3    H216081   1.414   5.434   1.361
 5359TIP3   OH216082   2.966   2.113   2.180
 5359TIP3    H116083   2.927   2.031   2.151
 5359TIP3    H216084   2.990   2.097   2.272
 5360TIP3   OH216085   0.973   1.109   3.203
 5360TIP3    H116086   1.066   1.090   3.203
 5360TIP3    H216087   0.935   1.042   3.261
 5361TIP3   OH216088   2.604   4.376   1.481
 5361TIP3    H116089   2.644   4.450   1.527
 5361TIP3    H216090   2.558   4.328   1.549
 5362TIP3   OH216091   0.532   4.264   0.171
 5362TIP3    H116092   0.606   4.203   0.178
 5362TIP3    H216093   0.461   4.212   0.134
 5363TIP3   OH216094   0.350   0.085   5.023
 5363TIP3    H116095   0.362   0.165   4.972
 5363TIP3    H216096   0.365   0.014   4.961
 5364TIP3   OH216097   0.306   5.477   4.473
 5364TIP3    H116098   0.218   5.447   4.449
 5364TIP3    H216099   0.349   5.497   4.390
 5365TIP3   OH216100   4.357   2.077   0.612
 5365TIP3    H116101   4.352   2.153   0.555
 5365TIP3    H216102   4.294   2.094   0.682
 5366TIP3   OH216103   3.346   4.079   4.323
 5366TIP3    H116104   3.386   4.153   4.370
 5366TIP3    H216105   3.258   4.110   4.301
 5367TIP3   OH216106   4.872   3.984   4.660
 5367TIP3    H116107   4.857   3.901   4.614
 5367TIP3    H216108   4.951   3.969   4.711
 5368TIP3   OH216109   5.394   4.038   3.191
 5368TIP3    H116110   5.390   3.988   3.273
 5368TIP3    H216111   5.390   4.129   3.219
 5369TIP3   OH216112   6.298   1.470   4.199
 5369TIP3    H116113   6.330   1.517   4.275
 5369TIP3    H216114   6.236   1.530   4.158
 5370TIP3   OH216115   5.441   0.603   1.641
 5370TIP3    H116116   5.351   0.580   1.665
 5370TIP3    H216117   5.470   0.530   1.586
 5371TIP3   OH216118   2.560   1.649   3.623
 5371TIP3    H116119   2.575   1.576   3.563
 5371TIP3    H216120   2.508   1.611   3.694
 5372TIP3   OH216121   1.268   4.054   2.258
 5372TIP3    H116122   1.174   4.067   2.245
 5372TIP3    H216123   1.274   3.978   2.316
 5373TIP3   OH216124   5.239   0.382   0.369
 5373TIP3    H116125   5.316   0.331   0.344
 5373TIP3    H216126   5.274   0.466   0.398
 5374TIP3   OH216127   2.422   0.805   1.203
 5374TIP3    H116128   2.379   0.771   1.124
 5374TIP3    H216129   2.354   0.805   1.269
 5375TIP3   OH216130   0.109   4.395   3.684
 5375TIP3    H116131   0.179   4.431   3.737
 5375TIP3    H216132   0.039   4.375   3.746
 5376TIP3   OH216133   1.898   3.958   1.600
 5376TIP3    H116134   1.923   3.954   1.508
 5376TIP3    H216135   1.972   3.919   1.647
 5377TIP3   OH216136   0.374   5.220   1.997
 5377TIP3    H116137   0.307   5.178   1.943
 5377TIP3    H216138   0.393   5.303   1.953
 5378TIP3   OH216139   0.128   5.789   4.353
 5378TIP3    H116140   0.210   5.838   4.348
 5378TIP3    H216141   0.075   5.837   4.418
 5379TIP3   OH216142   2.008   1.624   3.498
 5379TIP3    H116143   2.021   1.549   3.440
 5379TIP3    H216144   1.977   1.586   3.580
 5380TIP3   OH216145   2.221   2.224   4.054
 5380TIP3    H116146   2.269   2.298   4.018
 5380TIP3    H216147   2.284   2.152   4.053
 5381TIP3   OH216148   0.088   5.298   3.796
 5381TIP3    H116149   0.055   5.384   3.818
 5381TIP3    H216150   0.121   5.262   3.878
 5382TIP3   OH216151   0.122   4.925   1.213
 5382TIP3    H116152   0.075   4.893   1.136
 5382TIP3    H216153   0.190   4.859   1.229
 5383TIP3   OH216154   0.963   2.777   3.411
 5383TIP3    H116155   0.974   2.871   3.429
 5383TIP3    H216156   1.040   2.754   3.358
 5384TIP3   OH216157   0.486   0.217   0.181
 5384TIP3    H116158   0.546   0.260   0.241
 5384TIP3    H216159   0.482   0.126   0.212
 5385TIP3   OH216160   5.767   4.205   1.494
 5385TIP3    H116161   5.748   4.198   1.588
 5385TIP3    H216162   5.690   4.169   1.451
 5386TIP3   OH216163   5.568   0.020   4.153
 5386TIP3    H116164   5.540   0.003   4.063
 5386TIP3    H216165   5.663   0.025   4.149
 5387TIP3   OH216166   3.496   3.149   2.295
 5387TIP3    H116167   3.422   3.089   2.289
 5387TIP3    H216168   3.548   3.115   2.368
 5388TIP3   OH216169   3.956   2.149   0.728
 5388TIP3    H116170   3.862   2.148   0.747
 5388TIP3    H216171   3.967   2.089   0.655
 5389TIP3   OH216172   1.635   4.459   1.464
 5389TIP3    H116173   1.672   4.373   1.485
 5389TIP3    H216174   1.673   4.518   1.529
 5390TIP3   OH216175   5.885   4.751   0.215
 5390TIP3    H116176   5.970   4.776   0.253
 5390TIP3    H216177   5.855   4.829   0.168
 5391TIP3   OH216178   3.934   0.582   1.179
 5391TIP3    H116179   4.018   0.556   1.141
 5391TIP3    H216180   3.888   0.625   1.107
 5392TIP3   OH216181   0.917   1.662   1.077
 5392TIP3    H116182   0.835   1.704   1.049
 5392TIP3    H216183   0.978   1.681   1.006
 5393TIP3   OH216184   2.167   0.152   3.028
 5393TIP3    H116185   2.170   0.101   3.108
 5393TIP3    H216186   2.211   0.234   3.050
 5394TIP3   OH216187   2.578   0.944   0.681
 5394TIP3    H116188   2.579   0.932   0.776
 5394TIP3    H216189   2.534   1.028   0.668
 5395TIP3   OH216190   4.921   2.012   3.172
 5395TIP3    H116191   4.943   2.101   3.142
 5395TIP3    H216192   4.992   1.958   3.137
 5396TIP3   OH216193   5.708   1.564   4.630
 5396TIP3    H116194   5.690   1.643   4.578
 5396TIP3    H216195   5.770   1.514   4.577
 5397TIP3   OH216196   2.556   2.952   2.396
 5397TIP3    H116197   2.542   3.034   2.348
 5397TIP3    H216198   2.615   2.976   2.467
 5398TIP3   OH216199   1.221   2.738   2.405
 5398TIP3    H116200   1.168   2.659   2.413
 5398TIP3    H216201   1.306   2.715   2.441
 5399TIP3   OH216202   4.667   2.044   0.050
 5399TIP3    H116203   4.705   2.115  -0.002
 5399TIP3    H216204   4.601   2.087   0.104
 5400TIP3   OH216205   3.339   3.952   2.254
 5400TIP3    H116206   3.324   4.038   2.215
 5400TIP3    H216207   3.306   3.890   2.189
 5401TIP3   OH216208   5.801   1.894   3.786
 5401TIP3    H116209   5.792   1.839   3.864
 5401TIP3    H216210   5.894   1.917   3.783
 5402TIP3   OH216211   5.728   5.391   3.605
 5402TIP3    H116212   5.646   5.422   3.644
 5402TIP3    H216213   5.767   5.335   3.672
 5403TIP3   OH216214   3.691   5.981   4.029
 5403TIP3    H116215   3.780   6.005   4.002
 5403TIP3    H216216   3.689   5.885   4.022
 5404TIP3   OH216217   2.478   5.287   0.426
 5404TIP3    H116218   2.571   5.305   0.420
 5404TIP3    H216219   2.441   5.323   0.345
 5405TIP3   OH216220   5.741   0.395   4.395
 5405TIP3    H116221   5.672   0.454   4.425
 5405TIP3    H216222   5.812   0.407   4.458
 5406TIP3   OH216223   3.649   5.937   3.709
 5406TIP3    H116224   3.647   5.954   3.803
 5406TIP3    H216225   3.580   5.994   3.674
 5407TIP3   OH216226   1.113   2.187   4.556
 5407TIP3    H116227   1.195   2.161   4.598
 5407TIP3    H216228   1.045   2.160   4.617
 5408TIP3   OH216229   2.510   3.092   1.172
 5408TIP3    H116230   2.482   3.089   1.080
 5408TIP3    H216231   2.469   3.171   1.207
 5409TIP3   OH216232   1.372   3.925   1.420
 5409TIP3    H116233   1.313   3.934   1.496
 5409TIP3    H216234   1.459   3.943   1.455
 5410TIP3   OH216235   5.212   5.453   4.105
 5410TIP3    H116236   5.137   5.395   4.092
 5410TIP3    H216237   5.183   5.514   4.174
 5411TIP3   OH216238   2.741   2.231   4.923
 5411TIP3    H116239   2.804   2.171   4.883
 5411TIP3    H216240   2.747   2.213   5.016
 5412TIP3   OH216241   6.148   5.353   0.147
 5412TIP3    H116242   6.165   5.414   0.219
 5412TIP3    H216243   6.232   5.309   0.134
 5413TIP3   OH216244   1.319   1.848   0.998
 5413TIP3    H116245   1.273   1.780   1.048
 5413TIP3    H216246   1.249   1.903   0.961
 5414TIP3   OH216247   3.371   2.922   4.421
 5414TIP3    H116248   3.305   2.933   4.489
 5414TIP3    H216249   3.365   3.003   4.369
 5415TIP3   OH216250   0.529   3.520   2.703
 5415TIP3    H116251   0.497   3.596   2.750
 5415TIP3    H216252   0.464   3.452   2.720
 5416TIP3   OH216253   0.594   0.260   3.815
 5416TIP3    H116254   0.499   0.251   3.820
 5416TIP3    H216255   0.618   0.300   3.899
 5417TIP3   OH216256   4.056   4.093   0.700
 5417TIP3    H116257   4.045   4.007   0.741
 5417TIP3    H216258   4.151   4.103   0.691
 5418TIP3   OH216259   3.463   3.959   3.604
 5418TIP3    H116260   3.500   4.046   3.616
 5418TIP3    H216261   3.447   3.952   3.510
 5419TIP3   OH216262   1.934   0.336   3.616
 5419TIP3    H116263   1.874   0.368   3.683
 5419TIP3    H216264   1.884   0.344   3.534
 5420TIP3   OH216265   1.653   3.363   0.680
 5420TIP3    H116266   1.640   3.438   0.738
 5420TIP3    H216267   1.613   3.290   0.727
 5421TIP3   OH216268   2.081   2.839   1.893
 5421TIP3    H116269   2.099   2.842   1.799
 5421TIP3    H216270   2.056   2.929   1.915
 5422TIP3   OH216271   0.497   5.345   0.079
 5422TIP3    H116272   0.463   5.267   0.123
 5422TIP3    H216273   0.557   5.311   0.012
 5423TIP3   OH216274   0.841   2.005   4.581
 5423TIP3    H116275   0.769   1.956   4.541
 5423TIP3    H216276   0.827   2.096   4.553
 5424TIP3   OH216277   4.160   4.254   2.399
 5424TIP3    H116278   4.189   4.186   2.338
 5424TIP3    H216279   4.234   4.315   2.404
 5425TIP3   OH216280   0.802   1.377   3.570
 5425TIP3    H116281   0.734   1.442   3.590
 5425TIP3    H216282   0.875   1.429   3.536
 5426TIP3   OH216283   4.627   1.730   0.306
 5426TIP3    H116284   4.650   1.666   0.239
 5426TIP3    H216285   4.536   1.754   0.286
 5427TIP3   OH216286   1.225   4.050   2.944
 5427TIP3    H116287   1.264   4.041   2.857
 5427TIP3    H216288   1.238   3.965   2.985
 5428TIP3   OH216289   5.855   1.292   1.684
 5428TIP3    H116290   5.854   1.231   1.610
 5428TIP3    H216291   5.763   1.313   1.699
 5429TIP3   OH216292   3.905   0.602   3.878
 5429TIP3    H116293   3.894   0.527   3.937
 5429TIP3    H216294   3.826   0.602   3.825
 5430TIP3   OH216295   4.852   3.271   4.374
 5430TIP3    H116296   4.910   3.272   4.298
 5430TIP3    H216297   4.806   3.187   4.368
 5431TIP3   OH216298   5.921   2.315   3.237
 5431TIP3    H116299   5.964   2.281   3.159
 5431TIP3    H216300   5.866   2.242   3.268
 5432TIP3   OH216301   1.488   2.521   4.540
 5432TIP3    H116302   1.538   2.513   4.458
 5432TIP3    H216303   1.403   2.481   4.519
 5433TIP3   OH216304   3.718   4.653   5.034
 5433TIP3    H116305   3.774   4.584   5.070
 5433TIP3    H216306   3.636   4.644   5.081
 5434TIP3   OH216307   4.033   2.698   2.049
 5434TIP3    H116308   4.055   2.764   1.984
 5434TIP3    H216309   4.114   2.650   2.064
 5435TIP3   OH216310   5.804   0.132   2.230
 5435TIP3    H116311   5.744   0.174   2.168
 5435TIP3    H216312   5.875   0.097   2.176
 5436TIP3   OH216313   1.855   5.776   4.506
 5436TIP3    H116314   1.890   5.858   4.542
 5436TIP3    H216315   1.836   5.797   4.415
 5437TIP3   OH216316   0.014   2.745   2.884
 5437TIP3    H116317  -0.013   2.663   2.928
 5437TIP3    H216318   0.108   2.749   2.897
 5438TIP3   OH216319   3.649   5.016   1.127
 5438TIP3    H116320   3.737   4.981   1.112
 5438TIP3    H216321   3.613   4.962   1.197
 5439TIP3   OH216322   1.443   5.846   1.967
 5439TIP3    H116323   1.368   5.905   1.979
 5439TIP3    H216324   1.468   5.857   1.875
 5440TIP3   OH216325   2.493   0.922   3.058
 5440TIP3    H116326   2.483   1.017   3.068
 5440TIP3    H216327   2.406   0.887   3.078
 5441TIP3   OH216328   4.458   0.245   2.495
 5441TIP3    H116329   4.528   0.311   2.498
 5441TIP3    H216330   4.445   0.228   2.402
 5442TIP3   OH216331   1.492   4.631   1.294
 5442TIP3    H116332   1.434   4.578   1.238
 5442TIP3    H216333   1.552   4.567   1.332
 5443TIP3   OH216334   5.060   5.574   1.715
 5443TIP3    H116335   5.120   5.579   1.790
 5443TIP3    H216336   4.976   5.548   1.753
 5444TIP3   OH216337   1.817   2.421   0.164
 5444TIP3    H116338   1.784   2.372   0.090
 5444TIP3    H216339   1.904   2.451   0.136
 5445TIP3   OH216340   3.111   2.419   0.805
 5445TIP3    H116341   3.148   2.332   0.819
 5445TIP3    H216342   3.184   2.479   0.821
 5446TIP3   OH216343   5.185   4.636   0.975
 5446TIP3    H116344   5.246   4.574   0.936
 5446TIP3    H216345   5.240   4.709   1.004
 5447TIP3   OH216346   3.406   1.264   4.681
 5447TIP3    H116347   3.470   1.321   4.637
 5447TIP3    H216348   3.385   1.310   4.762
 5448TIP3   OH216349   3.882   1.074   4.584
 5448TIP3    H116350   3.878   0.989   4.540
 5448TIP3    H216351   3.804   1.075   4.640
 5449TIP3   OH216352   2.194   5.002   3.168
 5449TIP3    H116353   2.175   4.988   3.075
 5449TIP3    H216354   2.285   5.034   3.170
 5450TIP3   OH216355   5.802   3.363   3.252
 5450TIP3    H116356   5.788   3.278   3.210
 5450TIP3    H216357   5.812   3.341   3.345
 5451TIP3   OH216358   3.537   5.336   4.488
 5451TIP3    H116359   3.534   5.409   4.550
 5451TIP3    H216360   3.590   5.369   4.415
 5452TIP3   OH216361   5.442   0.800   0.768
 5452TIP3    H116362   5.364   0.786   0.821
 5452TIP3    H216363   5.418   0.870   0.708
 5453TIP3   OH216364   5.325   3.387   1.203
 5453TIP3    H116365   5.327   3.340   1.120
 5453TIP3    H216366   5.303   3.477   1.179
 5454TIP3   OH216367   5.566   3.904   1.638
 5454TIP3    H116368   5.627   3.961   1.685
 5454TIP3    H216369   5.560   3.942   1.550
 5455TIP3   OH216370   2.231   2.945   3.435
 5455TIP3    H116371   2.212   2.990   3.517
 5455TIP3    H216372   2.180   2.992   3.369
 5456TIP3   OH216373   3.342   1.085   4.108
 5456TIP3    H116374   3.430   1.110   4.136
 5456TIP3    H216375   3.309   1.031   4.180
 5457TIP3   OH216376   5.799   5.508   1.397
 5457TIP3    H116377   5.893   5.522   1.381
 5457TIP3    H216378   5.796   5.453   1.475
 5458TIP3   OH216379   6.164   1.596   2.844
 5458TIP3    H116380   6.208   1.660   2.900
 5458TIP3    H216381   6.175   1.513   2.889
 5459TIP3   OH216382   6.074   3.302   2.698
 5459TIP3    H116383   6.088   3.355   2.776
 5459TIP3    H216384   6.116   3.353   2.628
 5460TIP3   OH216385   3.630   2.916   2.335
 5460TIP3    H116386   3.568   2.925   2.262
 5460TIP3    H216387   3.715   2.902   2.293
 5461TIP3   OH216388   3.265   3.865   3.808
 5461TIP3    H116389   3.339   3.900   3.758
 5461TIP3    H216390   3.264   3.772   3.786
 5462TIP3   OH216391   2.051   3.274   5.101
 5462TIP3    H116392   2.126   3.277   5.041
 5462TIP3    H216393   2.068   3.199   5.157
 5463TIP3   OH216394   2.999   1.074   3.830
 5463TIP3    H116395   3.067   1.066   3.763
 5463TIP3    H216396   3.042   1.120   3.903
 5464TIP3   OH216397   3.201   0.140   1.128
 5464TIP3    H116398   3.263   0.200   1.087
 5464TIP3    H216399   3.117   0.159   1.086
 5465TIP3   OH216400   5.288   5.820   2.294
 5465TIP3    H116401   5.223   5.891   2.303
 5465TIP3    H216402   5.250   5.762   2.228
 5466TIP3   OH216403   1.558   5.133   2.978
 5466TIP3    H116404   1.516   5.088   2.904
 5466TIP3    H216405   1.536   5.079   3.054
 5467TIP3   OH216406   3.712   0.794   3.615
 5467TIP3    H116407   3.747   0.824   3.530
 5467TIP3    H216408   3.692   0.701   3.601
 5468TIP3   OH216409   3.895   1.716   3.450
 5468TIP3    H116410   3.807   1.735   3.419
 5468TIP3    H216411   3.916   1.630   3.412
 5469TIP3   OH216412   4.982   3.025   3.679
 5469TIP3    H116413   5.037   3.103   3.679
 5469TIP3    H216414   4.896   3.057   3.706
 5470TIP3   OH216415   0.937   3.815   0.192
 5470TIP3    H116416   0.878   3.877   0.233
 5470TIP3    H216417   0.900   3.800   0.105
 5471TIP3   OH216418   3.673   0.077   3.298
 5471TIP3    H116419   3.617   0.153   3.289
 5471TIP3    H216420   3.668   0.033   3.213
 5472TIP3   OH216421   3.196   3.453   1.752
 5472TIP3    H116422   3.191   3.547   1.735
 5472TIP3    H216423   3.265   3.422   1.695
 5473TIP3   OH216424   2.694   5.310   4.629
 5473TIP3    H116425   2.724   5.232   4.677
 5473TIP3    H216426   2.772   5.365   4.622
 5474TIP3   OH216427   1.684   4.712   3.872
 5474TIP3    H116428   1.755   4.649   3.883
 5474TIP3    H216429   1.719   4.775   3.808
 5475TIP3   OH216430   3.144   0.851   0.722
 5475TIP3    H116431   3.229   0.885   0.749
 5475TIP3    H216432   3.081   0.902   0.773
 5476TIP3   OH216433   5.691   3.779   0.149
 5476TIP3    H116434   5.706   3.736   0.065
 5476TIP3    H216435   5.603   3.750   0.174
 5477TIP3   OH216436   3.428   4.458   2.762
 5477TIP3    H116437   3.392   4.430   2.678
 5477TIP3    H216438   3.359   4.440   2.825
 5478TIP3   OH216439   2.818   1.162   0.962
 5478TIP3    H116440   2.738   1.163   0.909
 5478TIP3    H216441   2.791   1.128   1.047
 5479TIP3   OH216442   4.597   5.754   4.730
 5479TIP3    H116443   4.623   5.780   4.642
 5479TIP3    H216444   4.501   5.759   4.730
 5480TIP3   OH216445   3.883   3.417   3.715
 5480TIP3    H116446   3.789   3.398   3.718
 5480TIP3    H216447   3.909   3.396   3.626
 5481TIP3   OH216448   2.265   2.988   3.065
 5481TIP3    H116449   2.249   3.082   3.070
 5481TIP3    H216450   2.201   2.949   3.126
 5482TIP3   OH216451   0.642   4.517   1.701
 5482TIP3    H116452   0.639   4.606   1.667
 5482TIP3    H216453   0.553   4.499   1.730
 5483TIP3   OH216454   3.861   2.425   5.100
 5483TIP3    H116455   3.934   2.403   5.159
 5483TIP3    H216456   3.784   2.389   5.143
 5484TIP3   OH216457   3.102   3.934   1.954
 5484TIP3    H116458   3.032   3.973   2.006
 5484TIP3    H216459   3.095   3.975   1.868
 5485TIP3   OH216460   4.351   4.877   0.302
 5485TIP3    H116461   4.306   4.958   0.276
 5485TIP3    H216462   4.368   4.887   0.395
 5486TIP3   OH216463   5.020   0.739   4.298
 5486TIP3    H116464   5.100   0.788   4.317
 5486TIP3    H216465   5.042   0.648   4.320
 5487TIP3   OH216466   1.790   4.082   2.445
 5487TIP3    H116467   1.850   4.014   2.475
 5487TIP3    H216468   1.818   4.161   2.491
 5488TIP3   OH216469   5.444   2.822   5.056
 5488TIP3    H116470   5.523   2.875   5.047
 5488TIP3    H216471   5.380   2.880   5.098
 5489TIP3   OH216472   3.665   2.825   3.429
 5489TIP3    H116473   3.579   2.827   3.471
 5489TIP3    H216474   3.671   2.738   3.390
 5490TIP3   OH216475   4.119   5.836   1.982
 5490TIP3    H116476   4.170   5.756   1.965
 5490TIP3    H216477   4.172   5.906   1.946
 5491TIP3   OH216478   1.584   1.252   4.736
 5491TIP3    H116479   1.654   1.191   4.714
 5491TIP3    H216480   1.612   1.291   4.819
 5492TIP3   OH216481   4.668   5.791   0.943
 5492TIP3    H116482   4.670   5.758   0.853
 5492TIP3    H216483   4.627   5.877   0.937
 5493TIP3   OH216484   0.695   5.933   3.465
 5493TIP3    H116485   0.646   5.937   3.383
 5493TIP3    H216486   0.636   5.972   3.530
 5494TIP3   OH216487   1.348   4.699   4.604
 5494TIP3    H116488   1.262   4.664   4.626
 5494TIP3    H216489   1.331   4.789   4.577
 5495TIP3   OH216490   2.509   3.394   0.775
 5495TIP3    H116491   2.469   3.379   0.689
 5495TIP3    H216492   2.521   3.488   0.779
 5496TIP3   OH216493   0.777   1.057   0.052
 5496TIP3    H116494   0.833   1.131   0.030
 5496TIP3    H216495   0.777   1.002  -0.026
 5497TIP3   OH216496   0.827   5.987   0.833
 5497TIP3    H116497   0.763   6.032   0.778
 5497TIP3    H216498   0.838   5.901   0.792
 5498TIP3   OH216499   6.077   5.469   1.125
 5498TIP3    H116500   6.145   5.453   1.191
 5498TIP3    H216501   6.039   5.553   1.150
 5499TIP3   OH216502   0.789   3.927   4.698
 5499TIP3    H116503   0.748   3.949   4.782
 5499TIP3    H216504   0.882   3.940   4.713
 5500TIP3   OH216505   1.631   1.377   1.754
 5500TIP3    H116506   1.621   1.367   1.848
 5500TIP3    H216507   1.553   1.425   1.726
 5501TIP3   OH216508   2.794   0.119   2.056
 5501TIP3    H116509   2.776   0.196   2.003
 5501TIP3    H216510   2.708   0.078   2.068
 5502TIP3   OH216511   5.515   1.910   3.719
 5502TIP3    H116512   5.610   1.901   3.721
 5502TIP3    H216513   5.499   2.003   3.731
 5503TIP3   OH216514   1.277   5.484   3.989
 5503TIP3    H116515   1.189   5.503   3.957
 5503TIP3    H216516   1.286   5.389   3.981
 5504TIP3   OH216517   0.180   3.441   3.484
 5504TIP3    H116518   0.126   3.376   3.528
 5504TIP3    H216519   0.195   3.405   3.397
 5505TIP3   OH216520   2.616   5.322   3.113
 5505TIP3    H116521   2.649   5.317   3.203
 5505TIP3    H216522   2.639   5.410   3.084
 5506TIP3   OH216523   1.011   5.146   4.394
 5506TIP3    H116524   1.101   5.114   4.396
 5506TIP3    H216525   0.957   5.068   4.402
 5507TIP3   OH216526   5.129   4.834   3.766
 5507TIP3    H116527   5.194   4.772   3.799
 5507TIP3    H216528   5.099   4.881   3.843
 5508TIP3   OH216529   2.612   2.055   1.576
 5508TIP3    H116530   2.597   2.143   1.610
 5508TIP3    H216531   2.567   2.054   1.492
 5509TIP3   OH216532   1.276   5.352   3.239
 5509TIP3    H116533   1.365   5.323   3.256
 5509TIP3    H216534   1.245   5.385   3.323
 5510TIP3   OH216535   4.847   2.333   3.508
 5510TIP3    H116536   4.894   2.375   3.580
 5510TIP3    H216537   4.914   2.312   3.443
 5511TIP3   OH216538   3.873   3.175   0.031
 5511TIP3    H116539   3.816   3.240   0.071
 5511TIP3    H216540   3.937   3.154   0.098
 5512TIP3   OH216541   0.902   5.731   0.742
 5512TIP3    H116542   0.844   5.655   0.743
 5512TIP3    H216543   0.932   5.737   0.651
 5513TIP3   OH216544   1.923   3.022   0.821
 5513TIP3    H116545   1.932   2.975   0.904
 5513TIP3    H216546   1.878   3.103   0.844
 5514TIP3   OH216547   3.560   2.734   3.070
 5514TIP3    H116548   3.531   2.823   3.090
 5514TIP3    H216549   3.494   2.677   3.110
 5515TIP3   OH216550   0.656   0.588   3.750
 5515TIP3    H116551   0.694   0.521   3.807
 5515TIP3    H216552   0.566   0.559   3.735
 5516TIP3   OH216553   4.433   2.057   5.024
 5516TIP3    H116554   4.527   2.076   5.016
 5516TIP3    H216555   4.406   2.103   5.103
 5517TIP3   OH216556   1.467   1.119   1.981
 5517TIP3    H116557   1.456   1.115   2.076
 5517TIP3    H216558   1.481   1.212   1.963
 5518TIP3   OH216559   2.723   0.026   5.104
 5518TIP3    H116560   2.707   0.079   5.182
 5518TIP3    H216561   2.653   0.051   5.044
 5519TIP3   OH216562   0.251  -0.010   2.308
 5519TIP3    H116563   0.341  -0.022   2.336
 5519TIP3    H216564   0.218   0.062   2.361
 5520TIP3   OH216565   3.264   2.609   3.492
 5520TIP3    H116566   3.231   2.597   3.404
 5520TIP3    H216567   3.253   2.702   3.511
 5521TIP3   OH216568   0.027   1.059   4.177
 5521TIP3    H116569  -0.019   1.024   4.101
 5521TIP3    H216570  -0.024   1.030   4.252
 5522TIP3   OH216571   0.822   3.549   4.751
 5522TIP3    H116572   0.852   3.528   4.662
 5522TIP3    H216573   0.752   3.487   4.768
 5523TIP3   OH216574   5.543   0.293   2.968
 5523TIP3    H116575   5.497   0.342   3.036
 5523TIP3    H216576   5.636   0.310   2.984
 5524TIP3   OH216577   1.756   3.048   2.389
 5524TIP3    H116578   1.748   3.087   2.302
 5524TIP3    H216579   1.849   3.055   2.410
 5525TIP3   OH216580   6.257   5.377   4.798
 5525TIP3    H116581   6.175   5.336   4.827
 5525TIP3    H216582   6.322   5.349   4.863
 5526TIP3   OH216583   0.263   1.318   2.512
 5526TIP3    H116584   0.296   1.304   2.601
 5526TIP3    H216585   0.169   1.330   2.523
 5527TIP3   OH216586   3.969   3.800   0.519
 5527TIP3    H116587   3.910   3.840   0.455
 5527TIP3    H216588   3.931   3.824   0.604
 5528TIP3   OH216589   2.073   3.782   1.696
 5528TIP3    H116590   2.153   3.793   1.747
 5528TIP3    H216591   2.044   3.692   1.716
 5529TIP3   OH216592   6.201   5.410   0.541
 5529TIP3    H116593   6.198   5.475   0.470
 5529TIP3    H216594   6.205   5.463   0.621
 5530TIP3   OH216595   2.561   0.305   4.719
 5530TIP3    H116596   2.589   0.286   4.630
 5530TIP3    H216597   2.586   0.396   4.734
 5531TIP3   OH216598   2.941   3.054   3.438
 5531TIP3    H116599   2.874   3.088   3.379
 5531TIP3    H216600   2.967   3.129   3.491
 5532TIP3   OH216601   5.780   4.585   4.640
 5532TIP3    H116602   5.684   4.580   4.647
 5532TIP3    H216603   5.800   4.677   4.656
 5533TIP3   OH216604   6.061   1.733   1.725
 5533TIP3    H116605   6.084   1.824   1.741
 5533TIP3    H216606   6.045   1.728   1.631
 5534TIP3   OH216607   3.163   0.738  -0.023
 5534TIP3    H116608   3.142   0.687   0.056
 5534TIP3    H216609   3.122   0.823  -0.007
 5535TIP3   OH216610   3.361   3.177   2.037
 5535TIP3    H116611   3.267   3.177   2.056
 5535TIP3    H216612   3.366   3.182   1.942
 5536TIP3   OH216613   2.725   1.396   4.167
 5536TIP3    H116614   2.806   1.345   4.167
 5536TIP3    H216615   2.696   1.395   4.076
 5537TIP3   OH216616   4.522   3.667   3.951
 5537TIP3    H116617   4.437   3.625   3.934
 5537TIP3    H216618   4.504   3.732   4.018
 5538TIP3   OH216619   3.782   5.577   2.781
 5538TIP3    H116620   3.865   5.614   2.751
 5538TIP3    H216621   3.756   5.631   2.855
 5539TIP3   OH216622   5.414   1.565   1.768
 5539TIP3    H116623   5.332   1.601   1.734
 5539TIP3    H216624   5.405   1.572   1.863
 5540TIP3   OH216625   2.145   4.479   2.117
 5540TIP3    H116626   2.110   4.478   2.028
 5540TIP3    H216627   2.088   4.419   2.165
 5541TIP3   OH216628   3.729   1.226   0.777
 5541TIP3    H116629   3.724   1.259   0.687
 5541TIP3    H216630   3.664   1.156   0.780
 5542TIP3   OH216631   3.058   5.432   4.784
 5542TIP3    H116632   3.099   5.347   4.772
 5542TIP3    H216633   3.132   5.494   4.786
 5543TIP3   OH216634   5.151   0.439   0.782
 5543TIP3    H116635   5.104   0.417   0.701
 5543TIP3    H216636   5.173   0.532   0.773
 5544TIP3   OH216637   0.177   3.808   3.366
 5544TIP3    H116638   0.098   3.810   3.420
 5544TIP3    H216639   0.209   3.718   3.375
 5545TIP3   OH216640   0.779   0.860   0.905
 5545TIP3    H116641   0.814   0.863   0.994
 5545TIP3    H216642   0.751   0.950   0.887
 5546TIP3   OH216643   4.051   3.540   4.390
 5546TIP3    H116644   4.120   3.474   4.398
 5546TIP3    H216645   3.991   3.521   4.463
 5547TIP3   OH216646   3.918   3.957   3.883
 5547TIP3    H116647   3.837   3.944   3.933
 5547TIP3    H216648   3.902   4.037   3.832
 5548TIP3   OH216649   4.029   5.235   4.142
 5548TIP3    H116650   4.104   5.271   4.189
 5548TIP3    H216651   4.056   5.146   4.118
 5549TIP3   OH216652   1.650   1.453   0.253
 5549TIP3    H116653   1.564   1.490   0.271
 5549TIP3    H216654   1.711   1.514   0.294
 5550TIP3   OH216655   1.092   5.178   2.691
 5550TIP3    H116656   1.027   5.243   2.716
 5550TIP3    H216657   1.151   5.224   2.632
 5551TIP3   OH216658   4.750   0.983   5.018
 5551TIP3    H116659   4.693   0.965   4.944
 5551TIP3    H216660   4.698   0.959   5.095
 5552TIP3   OH216661   0.833   2.239   3.402
 5552TIP3    H116662   0.755   2.262   3.452
 5552TIP3    H216663   0.902   2.296   3.435
 5553TIP3   OH216664   2.969   5.312   1.195
 5553TIP3    H116665   3.037   5.286   1.256
 5553TIP3    H216666   2.943   5.399   1.223
 5554TIP3   OH216667   5.076   2.788   0.385
 5554TIP3    H116668   4.987   2.802   0.352
 5554TIP3    H216669   5.092   2.863   0.442
 5555TIP3   OH216670   5.235   3.171   5.057
 5555TIP3    H116671   5.324   3.200   5.035
 5555TIP3    H216672   5.237   3.157   5.151
 5556TIP3   OH216673   1.155   0.511   1.329
 5556TIP3    H116674   1.127   0.508   1.237
 5556TIP3    H216675   1.101   0.444   1.372
 5557TIP3   OH216676   6.132   4.589   2.756
 5557TIP3    H116677   6.204   4.568   2.815
 5557TIP3    H216678   6.172   4.643   2.687
 5558TIP3   OH216679   5.609   5.272   2.509
 5558TIP3    H116680   5.550   5.223   2.452
 5558TIP3    H216681   5.633   5.210   2.578
 5559TIP3   OH216682   5.809   2.958   2.059
 5559TIP3    H116683   5.883   3.009   2.026
 5559TIP3    H216684   5.758   3.020   2.111
 5560TIP3   OH216685   1.290   5.908   3.788
 5560TIP3    H116686   1.334   5.906   3.703
 5560TIP3    H216687   1.325   5.987   3.830
 5561TIP3   OH216688   0.732   1.514   3.119
 5561TIP3    H116689   0.751   1.557   3.202
 5561TIP3    H216690   0.767   1.574   3.053
 5562TIP3   OH216691   1.971   5.483   4.797
 5562TIP3    H116692   2.049   5.539   4.802
 5562TIP3    H216693   1.995   5.404   4.846
 5563TIP3   OH216694   3.575   1.168   0.335
 5563TIP3    H116695   3.648   1.167   0.273
 5563TIP3    H216696   3.511   1.109   0.297
 5564TIP3   OH216697   1.176   4.774   4.265
 5564TIP3    H116698   1.200   4.744   4.178
 5564TIP3    H216699   1.257   4.810   4.302
 5565TIP3   OH216700   5.440   1.463   4.558
 5565TIP3    H116701   5.426   1.368   4.562
 5565TIP3    H216702   5.534   1.474   4.573
 5566TIP3   OH216703   5.138   3.462   3.990
 5566TIP3    H116704   5.176   3.500   3.911
 5566TIP3    H216705   5.102   3.538   4.037
 5567TIP3   OH216706   5.660   4.066   3.087
 5567TIP3    H116707   5.573   4.028   3.101
 5567TIP3    H216708   5.681   4.044   2.997
 5568TIP3   OH216709   0.735   3.598   1.046
 5568TIP3    H116710   0.789   3.549   0.984
 5568TIP3    H216711   0.797   3.653   1.094
 5569TIP3   OH216712   4.547   4.548   0.022
 5569TIP3    H116713   4.547   4.600   0.102
 5569TIP3    H216714   4.489   4.596  -0.038
 5570TIP3   OH216715   2.875   3.526   1.584
 5570TIP3    H116716   2.874   3.436   1.550
 5570TIP3    H216717   2.867   3.581   1.507
 5571TIP3   OH216718   3.561   2.647   4.648
 5571TIP3    H116719   3.589   2.555   4.647
 5571TIP3    H216720   3.518   2.657   4.732
 5572TIP3   OH216721   3.412   1.784   0.899
 5572TIP3    H116722   3.464   1.797   0.819
 5572TIP3    H216723   3.476   1.784   0.970
 5573TIP3   OH216724   5.580   2.853   0.332
 5573TIP3    H116725   5.497   2.827   0.373
 5573TIP3    H216726   5.646   2.808   0.384
 5574TIP3   OH216727   2.568   1.816   1.037
 5574TIP3    H116728   2.536   1.906   1.045
 5574TIP3    H216729   2.514   1.777   0.969
 5575TIP3   OH216730   2.748   1.439   0.604
 5575TIP3    H116731   2.743   1.533   0.622
 5575TIP3    H216732   2.822   1.408   0.656
 5576TIP3   OH216733   3.474   5.190   0.887
 5576TIP3    H116734   3.414   5.123   0.919
 5576TIP3    H216735   3.421   5.243   0.826
 5577TIP3   OH216736   6.137   3.822   4.645
 5577TIP3    H116737   6.196   3.863   4.582
 5577TIP3    H216738   6.179   3.836   4.730
 5578TIP3   OH216739   0.573   5.856   3.947
 5578TIP3    H116740   0.535   5.892   4.028
 5578TIP3    H216741   0.640   5.920   3.922
 5579TIP3   OH216742   4.022   0.331   3.079
 5579TIP3    H116743   4.050   0.356   3.167
 5579TIP3    H216744   4.007   0.237   3.084
 5580TIP3   OH216745   3.318   5.949   1.347
 5580TIP3    H116746   3.378   5.993   1.407
 5580TIP3    H216747   3.232   5.957   1.389
 5581TIP3   OH216748   5.328   3.149   4.338
 5581TIP3    H116749   5.307   3.088   4.267
 5581TIP3    H216750   5.327   3.095   4.417
 5582TIP3   OH216751   2.451   2.376   0.375
 5582TIP3    H116752   2.533   2.356   0.420
 5582TIP3    H216753   2.403   2.432   0.436
 5583TIP3   OH216754   4.334   3.691   3.243
 5583TIP3    H116755   4.326   3.612   3.189
 5583TIP3    H216756   4.254   3.694   3.295
 5584TIP3   OH216757   4.947   1.528   0.611
 5584TIP3    H116758   4.989   1.459   0.560
 5584TIP3    H216759   4.964   1.609   0.562
 5585TIP3   OH216760   0.907   5.491   1.142
 5585TIP3    H116761   0.939   5.570   1.185
 5585TIP3    H216762   0.973   5.473   1.074
 5586TIP3   OH216763   0.556   1.838   1.274
 5586TIP3    H116764   0.478   1.894   1.265
 5586TIP3    H216765   0.593   1.862   1.359
 5587TIP3   OH216766   1.834   2.796   4.866
 5587TIP3    H116767   1.811   2.707   4.892
 5587TIP3    H216768   1.869   2.836   4.946
 5588TIP3   OH216769   5.881   2.643   0.153
 5588TIP3    H116770   5.792   2.610   0.161
 5588TIP3    H216771   5.920   2.590   0.083
 5589TIP3   OH216772   6.299   2.047   0.764
 5589TIP3    H116773   6.285   2.013   0.676
 5589TIP3    H216774   6.237   2.119   0.772
 5590TIP3   OH216775   4.280   0.371   3.628
 5590TIP3    H116776   4.214   0.361   3.697
 5590TIP3    H216777   4.250   0.446   3.577
 5591TIP3   OH216778   4.558   0.461   3.934
 5591TIP3    H116779   4.502   0.532   3.967
 5591TIP3    H216780   4.497   0.398   3.897
 5592TIP3   OH216781   1.003   0.117   4.946
 5592TIP3    H116782   1.033   0.034   4.983
 5592TIP3    H216783   0.918   0.133   4.988
 5593TIP3   OH216784   0.293   1.065   0.208
 5593TIP3    H116785   0.371   1.011   0.207
 5593TIP3    H216786   0.252   1.049   0.123
 5594TIP3   OH216787   1.092   4.995   0.757
 5594TIP3    H116788   1.085   4.906   0.723
 5594TIP3    H216789   1.137   4.986   0.841
 5595TIP3   OH216790   2.296   1.784   4.578
 5595TIP3    H116791   2.317   1.867   4.535
 5595TIP3    H216792   2.218   1.803   4.631
 5596TIP3   OH216793   5.187   5.069   5.065
 5596TIP3    H116794   5.100   5.106   5.048
 5596TIP3    H216795   5.169   4.985   5.107
 5597TIP3   OH216796   2.053   4.680   0.977
 5597TIP3    H116797   2.023   4.664   0.887
 5597TIP3    H216798   1.972   4.686   1.028
 5598TIP3   OH216799   0.623   1.583   1.893
 5598TIP3    H116800   0.598   1.496   1.863
 5598TIP3    H216801   0.576   1.595   1.976
 5599TIP3   OH216802   2.614   1.948   4.746
 5599TIP3    H116803   2.624   1.883   4.816
 5599TIP3    H216804   2.698   1.948   4.700
 5600TIP3   OH216805   1.020   2.063   0.350
 5600TIP3    H116806   0.936   2.104   0.367
 5600TIP3    H216807   1.003   1.998   0.282
 5601TIP3   OH216808   2.898   1.831   2.120
 5601TIP3    H116809   2.867   1.827   2.211
 5601TIP3    H216810   2.909   1.740   2.094
 5602TIP3   OH216811   4.273   2.423   4.943
 5602TIP3    H116812   4.270   2.363   5.018
 5602TIP3    H216813   4.226   2.501   4.973
 5603TIP3   OH216814   1.651   4.125   0.389
 5603TIP3    H116815   1.623   4.209   0.427
 5603TIP3    H216816   1.634   4.061   0.458
 5604TIP3   OH216817   6.213   0.409   3.591
 5604TIP3    H116818   6.229   0.400   3.685
 5604TIP3    H216819   6.234   0.323   3.555
 5605TIP3   OH216820   4.522   4.207   1.707
 5605TIP3    H116821   4.437   4.240   1.679
 5605TIP3    H216822   4.585   4.270   1.670
 5606TIP3   OH216823   1.393   4.254   0.129
 5606TIP3    H116824   1.318   4.296   0.172
 5606TIP3    H216825   1.460   4.322   0.127
 5607TIP3   OH216826   0.106   3.385   0.991
 5607TIP3    H116827   0.084   3.403   0.899
 5607TIP3    H216828   0.022   3.382   1.036
 5608TIP3   OH216829   0.764   0.698   1.500
 5608TIP3    H116830   0.704   0.704   1.425
 5608TIP3    H216831   0.786   0.606   1.505
 5609TIP3   OH216832   3.367   1.994   0.655
 5609TIP3    H116833   3.314   2.000   0.575
 5609TIP3    H216834   3.305   1.970   0.723
 5610TIP3   OH216835   4.706   0.436   4.191
 5610TIP3    H116836   4.666   0.518   4.165
 5610TIP3    H216837   4.652   0.369   4.150
 5611TIP3   OH216838   3.093   3.744   3.140
 5611TIP3    H116839   3.178   3.702   3.151
 5611TIP3    H216840   3.031   3.688   3.188
 5612TIP3   OH216841   1.675   4.061   4.619
 5612TIP3    H116842   1.720   4.126   4.673
 5612TIP3    H216843   1.646   3.994   4.680
 5613TIP3   OH216844   2.208   0.953   2.928
 5613TIP3    H116845   2.141   1.020   2.944
 5613TIP3    H216846   2.287   1.003   2.905
 5614TIP3   OH216847   5.704   3.106   1.216
 5614TIP3    H116848   5.645   3.042   1.176
 5614TIP3    H216849   5.692   3.186   1.164
 5615TIP3   OH216850   0.693   0.456   2.817
 5615TIP3    H116851   0.693   0.429   2.725
 5615TIP3    H216852   0.646   0.386   2.862
 5616TIP3   OH216853   3.708   1.765   1.087
 5616TIP3    H116854   3.769   1.787   1.016
 5616TIP3    H216855   3.749   1.689   1.130
 5617TIP3   OH216856   3.935   4.467   1.026
 5617TIP3    H116857   3.860   4.408   1.020
 5617TIP3    H216858   3.965   4.459   1.116
 5618TIP3   OH216859   3.684   5.748   0.428
 5618TIP3    H116860   3.663   5.840   0.440
 5618TIP3    H216861   3.777   5.748   0.405
 5619TIP3   OH216862   2.821   0.982   2.718
 5619TIP3    H116863   2.879   1.024   2.655
 5619TIP3    H216864   2.746   1.040   2.725
 5620TIP3   OH216865   1.862   5.058   4.147
 5620TIP3    H116866   1.896   5.116   4.215
 5620TIP3    H216867   1.939   5.024   4.102
 5621TIP3   OH216868   0.841   1.884   4.290
 5621TIP3    H116869   0.833   1.978   4.276
 5621TIP3    H216870   0.914   1.875   4.352
 5622TIP3   OH216871   3.275   2.588   4.167
 5622TIP3    H116872   3.333   2.664   4.157
 5622TIP3    H216873   3.286   2.560   4.258
 5623TIP3   OH216874   2.481   4.730   3.201
 5623TIP3    H116875   2.525   4.805   3.159
 5623TIP3    H216876   2.465   4.669   3.129
 5624TIP3   OH216877   4.087   2.211   0.043
 5624TIP3    H116878   4.068   2.118   0.035
 5624TIP3    H216879   4.044   2.239   0.123
 5625TIP3   OH216880   0.814   5.838   2.926
 5625TIP3    H116881   0.903   5.817   2.953
 5625TIP3    H216882   0.824   5.888   2.845
 5626TIP3   OH216883   3.531   2.326   3.966
 5626TIP3    H116884   3.556   2.403   3.914
 5626TIP3    H216885   3.537   2.356   4.057
 5627TIP3   OH216886   4.639   2.218   3.340
 5627TIP3    H116887   4.649   2.275   3.263
 5627TIP3    H216888   4.710   2.245   3.399
 5628TIP3   OH216889   5.136   0.760   0.749
 5628TIP3    H116890   5.054   0.751   0.798
 5628TIP3    H216891   5.140   0.852   0.725
 5629TIP3   OH216892   5.496   3.583   5.045
 5629TIP3    H116893   5.410   3.608   5.078
 5629TIP3    H216894   5.517   3.650   4.980
 5630TIP3   OH216895   1.979   3.065   2.009
 5630TIP3    H116896   1.883   3.057   2.005
 5630TIP3    H216897   1.994   3.156   2.034
 5631TIP3   OH216898   1.858   1.447   3.166
 5631TIP3    H116899   1.763   1.456   3.181
 5631TIP3    H216900   1.871   1.353   3.153
 5632TIP3   OH216901   5.887   3.963   0.576
 5632TIP3    H116902   5.902   3.928   0.488
 5632TIP3    H216903   5.860   4.054   0.561
 5633TIP3   OH216904   1.860   4.834   0.498
 5633TIP3    H116905   1.875   4.747   0.461
 5633TIP3    H216906   1.941   4.882   0.481
 5634TIP3   OH216907   0.873   0.594   3.060
 5634TIP3    H116908   0.838   0.667   3.111
 5634TIP3    H216909   0.796   0.548   3.027
 5635TIP3   OH216910   1.704   2.986   4.732
 5635TIP3    H116911   1.769   2.935   4.780
 5635TIP3    H216912   1.651   2.921   4.686
 5636TIP3   OH216913   0.117   3.819   5.019
 5636TIP3    H116914   0.156   3.882   5.080
 5636TIP3    H216915   0.027   3.807   5.052
 5637TIP3   OH216916   4.239   5.197   1.703
 5637TIP3    H116917   4.310   5.189   1.766
 5637TIP3    H216918   4.164   5.154   1.744
 5638TIP3   OH216919   3.038   2.986   1.076
 5638TIP3    H116920   2.963   2.976   1.018
 5638TIP3    H216921   3.113   2.997   1.017
 5639TIP3   OH216922   3.325   1.626   1.512
 5639TIP3    H116923   3.370   1.620   1.428
 5639TIP3    H216924   3.233   1.636   1.489
 5640TIP3   OH216925  -0.005   4.583   3.513
 5640TIP3    H116926   0.023   4.520   3.579
 5640TIP3    H216927  -0.090   4.550   3.483
 5641TIP3   OH216928   3.814   1.957   4.617
 5641TIP3    H116929   3.876   1.929   4.550
 5641TIP3    H216930   3.845   1.915   4.698
 5642TIP3   OH216931   5.729   2.401   1.136
 5642TIP3    H116932   5.742   2.417   1.229
 5642TIP3    H216933   5.667   2.328   1.133
 5643TIP3   OH216934   2.985   3.921   2.230
 5643TIP3    H116935   2.943   4.005   2.208
 5643TIP3    H216936   2.941   3.857   2.173
 5644TIP3   OH216937   3.999   1.048   2.911
 5644TIP3    H116938   4.055   1.075   2.838
 5644TIP3    H216939   3.913   1.036   2.872
 5645TIP3   OH216940   4.157   5.674   2.968
 5645TIP3    H116941   4.096   5.710   2.903
 5645TIP3    H216942   4.179   5.749   3.024
 5646TIP3   OH216943   4.357   4.658   0.659
 5646TIP3    H116944   4.373   4.579   0.606
 5646TIP3    H216945   4.266   4.648   0.689
 5647TIP3   OH216946   0.044   0.862   2.971
 5647TIP3    H116947   0.003   0.817   2.898
 5647TIP3    H216948   0.047   0.797   3.042
 5648TIP3   OH216949   0.911   1.788   4.019
 5648TIP3    H116950   0.995   1.819   3.985
 5648TIP3    H216951   0.901   1.834   4.102
 5649TIP3   OH216952   5.593   1.213   3.610
 5649TIP3    H116953   5.517   1.252   3.653
 5649TIP3    H216954   5.661   1.212   3.678
 5650TIP3   OH216955   5.429   3.584   1.439
 5650TIP3    H116956   5.510   3.630   1.415
 5650TIP3    H216957   5.401   3.542   1.357
 5651TIP3   OH216958   3.629   4.161   2.851
 5651TIP3    H116959   3.621   4.252   2.881
 5651TIP3    H216960   3.694   4.123   2.910
 5652TIP3   OH216961   0.665   3.335   4.814
 5652TIP3    H116962   0.697   3.303   4.899
 5652TIP3    H216963   0.569   3.330   4.822
 5653TIP3   OH216964   3.454   0.345   1.833
 5653TIP3    H116965   3.476   0.299   1.752
 5653TIP3    H216966   3.498   0.430   1.826
 5654TIP3   OH216967   0.850   4.543   3.641
 5654TIP3    H116968   0.793   4.605   3.687
 5654TIP3    H216969   0.938   4.564   3.671
 5655TIP3   OH216970   5.821   0.463   0.467
 5655TIP3    H116971   5.759   0.422   0.407
 5655TIP3    H216972   5.864   0.532   0.415
 5656TIP3   OH216973   4.936   3.743   2.359
 5656TIP3    H116974   4.939   3.833   2.327
 5656TIP3    H216975   4.858   3.739   2.414
 5657TIP3   OH216976   0.665   3.661   4.438
 5657TIP3    H116977   0.712   3.579   4.421
 5657TIP3    H216978   0.685   3.682   4.529
 5658TIP3   OH216979   5.584   0.792   2.467
 5658TIP3    H116980   5.519   0.722   2.458
 5658TIP3    H216981   5.541   0.869   2.429
 5659TIP3   OH216982   4.013   5.742   0.859
 5659TIP3    H116983   3.999   5.649   0.845
 5659TIP3    H216984   4.099   5.747   0.901
 5660TIP3   OH216985   3.902   2.711   3.717
 5660TIP3    H116986   3.889   2.651   3.791
 5660TIP3    H216987   3.987   2.752   3.733
 5661TIP3   OH216988   1.203   5.359   4.241
 5661TIP3    H116989   1.241   5.417   4.307
 5661TIP3    H216990   1.271   5.294   4.224
 5662TIP3   OH216991   4.922   3.432   0.374
 5662TIP3    H116992   4.900   3.473   0.290
 5662TIP3    H216993   4.840   3.393   0.404
 5663TIP3   OH216994   1.036   4.090   1.939
 5663TIP3    H116995   0.978   4.062   1.868
 5663TIP3    H216996   0.993   4.167   1.977
 5664TIP3   OH216997   4.611   4.518   1.117
 5664TIP3    H116998   4.636   4.426   1.112
 5664TIP3    H216999   4.594   4.543   1.027
 5665TIP3   OH217000   0.552   4.747   2.466
 5665TIP3    H117001   0.479   4.806   2.484
 5665TIP3    H217002   0.544   4.678   2.532
 5666TIP3   OH217003   3.214   1.250   3.938
 5666TIP3    H117004   3.260   1.180   3.985
 5666TIP3    H217005   3.275   1.324   3.942
 5667TIP3   OH217006   0.411   3.526   4.051
 5667TIP3    H117007   0.359   3.475   4.113
 5667TIP3    H217008   0.348   3.581   4.005
 5668TIP3   OH217009   5.267   4.027   1.807
 5668TIP3    H117010   5.209   4.059   1.737
 5668TIP3    H217011   5.354   4.058   1.782
 5669TIP3   OH217012   1.758   5.262   3.942
 5669TIP3    H117013   1.753   5.331   4.008
 5669TIP3    H217014   1.754   5.181   3.992
 5670TIP3   OH217015   4.234   4.561   1.913
 5670TIP3    H117016   4.205   4.598   1.830
 5670TIP3    H217017   4.191   4.476   1.918
 5671TIP3   OH217018   0.256   4.715   0.239
 5671TIP3    H117019   0.308   4.755   0.169
 5671TIP3    H217020   0.167   4.710   0.204
 5672TIP3   OH217021   1.735   1.693   0.411
 5672TIP3    H117022   1.675   1.760   0.377
 5672TIP3    H217023   1.724   1.697   0.506
 5673TIP3   OH217024   0.663   2.344   3.639
 5673TIP3    H117025   0.576   2.317   3.609
 5673TIP3    H217026   0.650   2.429   3.679
 5674TIP3   OH217027   5.450   5.203   2.032
 5674TIP3    H117028   5.463   5.133   2.097
 5674TIP3    H217029   5.527   5.198   1.976
 5675TIP3   OH217030   0.862   5.406   4.469
 5675TIP3    H117031   0.906   5.333   4.513
 5675TIP3    H217032   0.770   5.380   4.467
 5676TIP3   OH217033   1.461   3.560   0.123
 5676TIP3    H117034   1.411   3.641   0.129
 5676TIP3    H217035   1.553   3.587   0.129
 5677TIP3   OH217036   2.878   4.147   2.126
 5677TIP3    H117037   2.806   4.202   2.158
 5677TIP3    H217038   2.930   4.206   2.071
 5678TIP3   OH217039   1.237   5.927   3.181
 5678TIP3    H117040   1.231   5.835   3.158
 5678TIP3    H217041   1.157   5.945   3.231
 5679TIP3   OH217042   5.218   0.021   5.137
 5679TIP3    H117043   5.143   0.036   5.080
 5679TIP3    H217044   5.229   0.103   5.185
 5680TIP3   OH217045   1.602   3.907   4.268
 5680TIP3    H117046   1.691   3.917   4.302
 5680TIP3    H217047   1.548   3.895   4.346
 5681TIP3   OH217048   6.194   2.390   3.565
 5681TIP3    H117049   6.207   2.419   3.655
 5681TIP3    H217050   6.157   2.466   3.519
 5682TIP3   OH217051   2.402   1.106   1.175
 5682TIP3    H117052   2.330   1.043   1.183
 5682TIP3    H217053   2.381   1.158   1.097
 5683TIP3   OH217054   0.084   1.585   2.606
 5683TIP3    H117055   0.139   1.651   2.647
 5683TIP3    H217056  -0.005   1.607   2.634
 5684TIP3   OH217057   2.628   6.008   5.032
 5684TIP3    H117058   2.645   5.920   5.064
 5684TIP3    H217059   2.566   5.997   4.960
 5685TIP3   OH217060   6.137   4.445   5.191
 5685TIP3    H117061   6.056   4.396   5.210
 5685TIP3    H217062   6.207   4.380   5.203
 5686TIP3   OH217063   5.891   2.888   1.216
 5686TIP3    H117064   5.818   2.949   1.209
 5686TIP3    H217065   5.855   2.812   1.261
 5687TIP3   OH217066   3.842   4.193   0.540
 5687TIP3    H117067   3.930   4.165   0.564
 5687TIP3    H217068   3.856   4.253   0.467
 5688TIP3   OH217069   1.281   4.950   2.043
 5688TIP3    H117070   1.207   4.987   1.996
 5688TIP3    H217071   1.241   4.897   2.112
 5689TIP3   OH217072   3.090   2.286   1.770
 5689TIP3    H117073   3.168   2.322   1.727
 5689TIP3    H217074   3.092   2.193   1.749
 5690TIP3   OH217075   5.534   1.854   3.434
 5690TIP3    H117076   5.623   1.826   3.455
 5690TIP3    H217077   5.492   1.868   3.519
 5691TIP3   OH217078   3.188   2.949   4.056
 5691TIP3    H117079   3.253   2.881   4.072
 5691TIP3    H217080   3.210   2.985   3.970
 5692TIP3   OH217081   4.451   0.543   0.181
 5692TIP3    H117082   4.461   0.452   0.209
 5692TIP3    H217083   4.443   0.538   0.086
 5693TIP3   OH217084   3.006   5.354   0.167
 5693TIP3    H117085   2.989   5.341   0.074
 5693TIP3    H217086   2.958   5.434   0.189
 5694TIP3   OH217087   2.946   3.384   1.817
 5694TIP3    H117088   3.039   3.404   1.820
 5694TIP3    H217089   2.914   3.429   1.738
 5695TIP3   OH217090   4.531   0.090   3.139
 5695TIP3    H117091   4.488   0.085   3.225
 5695TIP3    H217092   4.553  -0.001   3.118
 5696TIP3   OH217093   5.107   1.315   1.269
 5696TIP3    H117094   5.019   1.354   1.265
 5696TIP3    H217095   5.111   1.274   1.355
 5697TIP3   OH217096   5.151   5.072   2.309
 5697TIP3    H117097   5.063   5.035   2.314
 5697TIP3    H217098   5.168   5.081   2.215
 5698TIP3   OH217099   1.786   0.193   4.324
 5698TIP3    H117100   1.802   0.210   4.232
 5698TIP3    H217101   1.848   0.250   4.370
 5699TIP3   OH217102   1.579   3.019   2.852
 5699TIP3    H117103   1.507   2.958   2.833
 5699TIP3    H217104   1.644   3.000   2.784
 5700TIP3   OH217105   5.244   0.327   4.009
 5700TIP3    H117106   5.156   0.296   4.030
 5700TIP3    H217107   5.295   0.310   4.089
 5701TIP3   OH217108   2.462   1.161   0.072
 5701TIP3    H117109   2.474   1.150   0.167
 5701TIP3    H217110   2.367   1.156   0.060
 5702TIP3   OH217111   4.416   2.917   1.458
 5702TIP3    H117112   4.373   2.832   1.464
 5702TIP3    H217113   4.356   2.970   1.404
 5703TIP3   OH217114   0.025   5.162   3.557
 5703TIP3    H117115   0.099   5.205   3.514
 5703TIP3    H217116   0.022   5.201   3.644
 5704TIP3   OH217117   5.372   4.215   4.337
 5704TIP3    H117118   5.372   4.234   4.243
 5704TIP3    H217119   5.390   4.299   4.378
 5705TIP3   OH217120   4.898   5.207   3.785
 5705TIP3    H117121   4.952   5.200   3.706
 5705TIP3    H217122   4.815   5.243   3.754
 5706TIP3   OH217123   0.105   0.864   0.335
 5706TIP3    H117124   0.083   0.894   0.423
 5706TIP3    H217125   0.165   0.931   0.302
 5707TIP3   OH217126   3.877   1.897   2.013
 5707TIP3    H117127   3.952   1.842   2.034
 5707TIP3    H217128   3.857   1.877   1.921
 5708TIP3   OH217129   1.691   4.001   0.165
 5708TIP3    H117130   1.660   4.067   0.228
 5708TIP3    H217131   1.716   4.053   0.088
 5709TIP3   OH217132   1.393   0.615   1.210
 5709TIP3    H117133   1.473   0.641   1.257
 5709TIP3    H217134   1.351   0.551   1.267
 5710TIP3   OH217135   2.353   0.430   3.534
 5710TIP3    H117136   2.288   0.437   3.464
 5710TIP3    H217137   2.316   0.364   3.594
 5711TIP3   OH217138   4.137   3.635   3.529
 5711TIP3    H117139   4.144   3.572   3.457
 5711TIP3    H217140   4.220   3.626   3.576
 5712TIP3   OH217141   4.470   3.099   1.710
 5712TIP3    H117142   4.414   3.127   1.638
 5712TIP3    H217143   4.445   3.008   1.726
 5713TIP3   OH217144   2.582   1.423   4.832
 5713TIP3    H117145   2.647   1.361   4.864
 5713TIP3    H217146   2.602   1.505   4.877
 5714TIP3   OH217147   3.837   4.360   3.560
 5714TIP3    H117148   3.806   4.434   3.611
 5714TIP3    H217149   3.881   4.398   3.485
 5715TIP3   OH217150   5.859   1.484   0.187
 5715TIP3    H117151   5.796   1.486   0.115
 5715TIP3    H217152   5.806   1.476   0.266
 5716TIP3   OH217153   2.516   2.211   4.784
 5716TIP3    H117154   2.585   2.235   4.846
 5716TIP3    H217155   2.525   2.117   4.772
 5717TIP3   OH217156   5.538   5.942   2.670
 5717TIP3    H117157   5.541   6.034   2.642
 5717TIP3    H217158   5.480   5.942   2.746
 5718TIP3   OH217159   1.084   4.270   3.347
 5718TIP3    H117160   1.028   4.227   3.413
 5718TIP3    H217161   1.027   4.282   3.271
 5719TIP3   OH217162   6.334   2.657   0.441
 5719TIP3    H117163   6.271   2.594   0.478
 5719TIP3    H217164   6.283   2.709   0.380
 5720TIP3   OH217165   2.356   0.523   5.139
 5720TIP3    H117166   2.266   0.542   5.113
 5720TIP3    H217167   2.360   0.427   5.142
 5721TIP3   OH217168   1.382   5.620   1.695
 5721TIP3    H117169   1.322   5.589   1.763
 5721TIP3    H217170   1.337   5.695   1.655
 5722TIP3   OH217171   2.084   0.389   1.165
 5722TIP3    H117172   2.069   0.408   1.073
 5722TIP3    H217173   1.998   0.368   1.200
 5723TIP3   OH217174   4.003   1.669   1.652
 5723TIP3    H117175   4.091   1.669   1.689
 5723TIP3    H217176   3.965   1.752   1.680
 5724TIP3   OH217177   0.441   0.990   4.539
 5724TIP3    H117178   0.420   1.073   4.495
 5724TIP3    H217179   0.363   0.936   4.527
 5725TIP3   OH217180   5.314   2.380   3.505
 5725TIP3    H117181   5.369   2.386   3.427
 5725TIP3    H217182   5.357   2.436   3.570
 5726TIP3   OH217183   4.166   0.477   1.011
 5726TIP3    H117184   4.182   0.425   0.932
 5726TIP3    H217185   4.254   0.502   1.041
 5727TIP3   OH217186   4.770   3.372   2.374
 5727TIP3    H117187   4.690   3.413   2.341
 5727TIP3    H217188   4.754   3.278   2.366
 5728TIP3   OH217189   1.416   0.247   2.915
 5728TIP3    H117190   1.388   0.334   2.942
 5728TIP3    H217191   1.362   0.228   2.838
 5729TIP3   OH217192   0.347   1.078   1.822
 5729TIP3    H117193   0.391   1.064   1.738
 5729TIP3    H217194   0.286   1.004   1.830
 5730TIP3   OH217195   3.990   2.303   2.345
 5730TIP3    H117196   3.910   2.325   2.393
 5730TIP3    H217197   3.969   2.321   2.253
 5731TIP3   OH217198   3.815   3.559   4.027
 5731TIP3    H117199   3.776   3.495   4.087
 5731TIP3    H217200   3.741   3.587   3.972
 5732TIP3   OH217201   5.091   5.557   0.037
 5732TIP3    H117202   5.055   5.516  -0.041
 5732TIP3    H217203   5.033   5.528   0.108
 5733TIP3   OH217204   1.183   0.399   3.529
 5733TIP3    H117205   1.223   0.334   3.472
 5733TIP3    H217206   1.250   0.467   3.539
 5734TIP3   OH217207   3.987   0.374   1.483
 5734TIP3    H117208   4.043   0.305   1.447
 5734TIP3    H217209   3.952   0.420   1.406
 5735TIP3   OH217210   3.310   5.044   0.263
 5735TIP3    H117211   3.396   5.044   0.222
 5735TIP3    H217212   3.296   5.135   0.289
 5736TIP3   OH217213   1.864   0.346   0.658
 5736TIP3    H117214   1.782   0.375   0.698
 5736TIP3    H217215   1.922   0.422   0.666
 5737TIP3   OH217216   3.383   4.634   3.077
 5737TIP3    H117217   3.402   4.659   3.167
 5737TIP3    H217218   3.446   4.683   3.025
 5738TIP3   OH217219   5.438   4.877   4.784
 5738TIP3    H117220   5.342   4.876   4.778
 5738TIP3    H217221   5.459   4.969   4.801
 5739TIP3   OH217222   6.104   2.870   3.039
 5739TIP3    H117223   6.094   2.942   2.977
 5739TIP3    H217224   6.163   2.809   2.994
 5740TIP3   OH217225   1.700   0.380   1.062
 5740TIP3    H117226   1.661   0.320   0.999
 5740TIP3    H217227   1.762   0.327   1.112
 5741TIP3   OH217228   3.620   3.775   2.853
 5741TIP3    H117229   3.673   3.791   2.775
 5741TIP3    H217230   3.563   3.701   2.830
 5742TIP3   OH217231   4.354   0.667   0.714
 5742TIP3    H117232   4.282   0.664   0.652
 5742TIP3    H217233   4.365   0.760   0.734
 5743TIP3   OH217234   2.928   5.003   3.838
 5743TIP3    H117235   2.944   4.915   3.807
 5743TIP3    H217236   3.013   5.032   3.873
 5744TIP3   OH217237   0.657   5.433   4.160
 5744TIP3    H117238   0.745   5.397   4.151
 5744TIP3    H217239   0.668   5.508   4.219
 5745TIP3   OH217240   0.435   3.872   1.391
 5745TIP3    H117241   0.460   3.926   1.466
 5745TIP3    H217242   0.460   3.925   1.315
 5746TIP3   OH217243   4.654   4.021   2.611
 5746TIP3    H117244   4.712   4.097   2.613
 5746TIP3    H217245   4.610   4.022   2.697
 5747TIP3   OH217246   4.477   4.182   0.369
 5747TIP3    H117247   4.484   4.209   0.278
 5747TIP3    H217248   4.526   4.249   0.417
 5748TIP3   OH217249   3.222   5.307   0.324
 5748TIP3    H117250   3.149   5.316   0.263
 5748TIP3    H217251   3.182   5.290   0.409
 5749TIP3   OH217252   3.025   1.996   1.700
 5749TIP3    H117253   3.075   1.998   1.619
 5749TIP3    H217254   2.943   1.952   1.677
 5750TIP3   OH217255   1.696   5.897   1.079
 5750TIP3    H117256   1.628   5.886   1.145
 5750TIP3    H217257   1.775   5.863   1.120
 5751TIP3   OH217258   5.778   3.691   0.565
 5751TIP3    H117259   5.864   3.707   0.525
 5751TIP3    H217260   5.772   3.755   0.635
 5752TIP3   OH217261   1.116   2.792   4.859
 5752TIP3    H117262   1.085   2.869   4.812
 5752TIP3    H217263   1.212   2.796   4.851
 5753TIP3   OH217264   0.489   1.159   4.061
 5753TIP3    H117265   0.556   1.136   4.125
 5753TIP3    H217266   0.522   1.122   3.979
 5754TIP3   OH217267   6.037   5.174   0.864
 5754TIP3    H117268   6.077   5.258   0.842
 5754TIP3    H217269   6.109   5.111   0.859
 5755TIP3   OH217270   5.270   3.669   1.036
 5755TIP3    H117271   5.202   3.703   0.979
 5755TIP3    H217272   5.233   3.676   1.124
 5756TIP3   OH217273   3.719   4.781   1.605
 5756TIP3    H117274   3.656   4.833   1.655
 5756TIP3    H217275   3.747   4.839   1.534
 5757TIP3   OH217276   2.154   4.109   1.786
 5757TIP3    H117277   2.123   4.186   1.738
 5757TIP3    H217278   2.145   4.132   1.878
 5758TIP3   OH217279   2.273   0.981   4.953
 5758TIP3    H117280   2.336   0.959   4.885
 5758TIP3    H217281   2.229   0.898   4.973
 5759TIP3   OH217282   2.152   1.944   0.543
 5759TIP3    H117283   2.221   2.005   0.516
 5759TIP3    H217284   2.164   1.868   0.487
 5760TIP3   OH217285   4.222   4.247   2.807
 5760TIP3    H117286   4.283   4.250   2.881
 5760TIP3    H217287   4.278   4.231   2.731
 5761TIP3   OH217288   6.206   4.355   2.381
 5761TIP3    H117289   6.227   4.378   2.472
 5761TIP3    H217290   6.243   4.268   2.369
 5762TIP3   OH217291   2.481   2.711   2.309
 5762TIP3    H117292   2.503   2.804   2.319
 5762TIP3    H217293   2.411   2.696   2.372
 5763TIP3   OH217294   1.408   0.981   3.751
 5763TIP3    H117295   1.401   1.073   3.726
 5763TIP3    H217296   1.454   0.982   3.835
 5764TIP3   OH217297   5.785   3.277   0.616
 5764TIP3    H117298   5.690   3.266   0.614
 5764TIP3    H217299   5.808   3.268   0.708
 5765TIP3   OH217300   3.308   2.918   3.517
 5765TIP3    H117301   3.366   2.994   3.522
 5765TIP3    H217302   3.259   2.930   3.436
 5766TIP3   OH217303   0.093   4.999   3.293
 5766TIP3    H117304   0.178   4.995   3.248
 5766TIP3    H217305   0.117   5.002   3.386
 5767TIP3   OH217306   1.949   3.347   2.070
 5767TIP3    H117307   1.912   3.428   2.037
 5767TIP3    H217308   1.980   3.368   2.158
 5768TIP3   OH217309   5.852   1.877   0.065
 5768TIP3    H117310   5.793   1.857  -0.008
 5768TIP3    H217311   5.918   1.936   0.027
 5769TIP3   OH217312   1.513   4.259   5.140
 5769TIP3    H117313   1.467   4.176   5.126
 5769TIP3    H217314   1.601   4.244   5.103
 5770TIP3   OH217315   2.429   4.413   2.104
 5770TIP3    H117316   2.334   4.405   2.117
 5770TIP3    H217317   2.457   4.324   2.081
 5771TIP3   OH217318   3.135   4.632   2.993
 5771TIP3    H117319   3.229   4.616   3.001
 5771TIP3    H217320   3.122   4.656   2.901
 5772TIP3   OH217321   3.046   2.022   1.424
 5772TIP3    H117322   3.004   2.104   1.397
 5772TIP3    H217323   3.104   2.000   1.351
 5773TIP3   OH217324   1.786   1.703   2.926
 5773TIP3    H117325   1.847   1.635   2.898
 5773TIP3    H217326   1.710   1.693   2.868
 5774TIP3   OH217327   5.743   0.750   2.703
 5774TIP3    H117328   5.800   0.770   2.628
 5774TIP3    H217329   5.666   0.806   2.690
 5775TIP3   OH217330   1.084   3.207   1.005
 5775TIP3    H117331   1.146   3.158   0.951
 5775TIP3    H217332   1.090   3.297   0.973
 5776TIP3   OH217333   2.798   3.879   2.920
 5776TIP3    H117334   2.834   3.925   2.995
 5776TIP3    H217335   2.874   3.855   2.868
 5777TIP3   OH217336   2.577   4.605   2.232
 5777TIP3    H117337   2.506   4.550   2.198
 5777TIP3    H217338   2.605   4.561   2.312
 5778TIP3   OH217339   4.200   4.658   4.086
 5778TIP3    H117340   4.199   4.611   4.169
 5778TIP3    H217341   4.119   4.631   4.043
 5779TIP3   OH217342   0.208   5.528   1.999
 5779TIP3    H117343   0.203   5.614   2.041
 5779TIP3    H217344   0.285   5.533   1.942
 5780TIP3   OH217345   4.084   3.166   0.491
 5780TIP3    H117346   4.176   3.189   0.483
 5780TIP3    H217347   4.067   3.166   0.585
 5781TIP3   OH217348   6.274   4.391   3.860
 5781TIP3    H117349   6.271   4.466   3.920
 5781TIP3    H217350   6.250   4.316   3.915
 5782TIP3   OH217351   5.135   2.797   3.138
 5782TIP3    H117352   5.157   2.815   3.230
 5782TIP3    H217353   5.202   2.844   3.088
 5783TIP3   OH217354   1.768   5.403   3.430
 5783TIP3    H117355   1.821   5.325   3.449
 5783TIP3    H217356   1.756   5.444   3.515
 5784TIP3   OH217357   4.127   1.672   1.269
 5784TIP3    H117358   4.080   1.743   1.314
 5784TIP3    H217359   4.178   1.717   1.202
 5785TIP3   OH217360   4.974   1.090   4.710
 5785TIP3    H117361   4.985   1.185   4.705
 5785TIP3    H217362   5.000   1.068   4.800
 5786TIP3   OH217363   5.490   5.502   3.244
 5786TIP3    H117364   5.513   5.595   3.246
 5786TIP3    H217365   5.521   5.472   3.158
 5787TIP3   OH217366   2.590   1.593   0.314
 5787TIP3    H117367   2.626   1.527   0.256
 5787TIP3    H217368   2.506   1.557   0.343
 5788TIP3   OH217369   0.810   5.338   1.358
 5788TIP3    H117370   0.839   5.408   1.299
 5788TIP3    H217371   0.771   5.273   1.301
 5789TIP3   OH217372   1.639   3.691   4.514
 5789TIP3    H117373   1.559   3.743   4.498
 5789TIP3    H217374   1.607   3.601   4.521
 5790TIP3   OH217375   1.929   4.052   0.356
 5790TIP3    H117376   1.971   4.063   0.271
 5790TIP3    H217377   1.837   4.071   0.341
 5791TIP3   OH217378   0.595   5.752   5.061
 5791TIP3    H117379   0.600   5.842   5.094
 5791TIP3    H217380   0.683   5.717   5.073
 5792TIP3   OH217381   5.290   1.038   4.885
 5792TIP3    H117382   5.285   1.085   4.968
 5792TIP3    H217383   5.200   1.033   4.854
 5793TIP3   OH217384   2.311   4.376   3.064
 5793TIP3    H117385   2.366   4.451   3.039
 5793TIP3    H217386   2.370   4.319   3.114
 5794TIP3   OH217387   3.792   0.541   2.437
 5794TIP3    H117388   3.868   0.504   2.392
 5794TIP3    H217389   3.755   0.467   2.485
 5795TIP3   OH217390   6.226   4.280   2.658
 5795TIP3    H117391   6.159   4.295   2.724
 5795TIP3    H217392   6.300   4.335   2.685
 5796TIP3   OH217393   2.963   2.656   1.878
 5796TIP3    H117394   3.044   2.674   1.926
 5796TIP3    H217395   2.900   2.632   1.946
 5797TIP3   OH217396   1.903   3.451   0.596
 5797TIP3    H117397   1.912   3.474   0.504
 5797TIP3    H217398   1.808   3.445   0.611
 5798TIP3   OH217399   5.104   1.215   0.912
 5798TIP3    H117400   5.022   1.182   0.951
 5798TIP3    H217401   5.093   1.310   0.910
 5799TIP3   OH217402   3.246   5.215   4.735
 5799TIP3    H117403   3.255   5.170   4.651
 5799TIP3    H217404   3.219   5.146   4.796
 5800TIP3   OH217405   2.244   0.717   0.302
 5800TIP3    H117406   2.241   0.664   0.382
 5800TIP3    H217407   2.198   0.663   0.236
 5801TIP3   OH217408   1.479   4.416   3.479
 5801TIP3    H117409   1.457   4.369   3.399
 5801TIP3    H217410   1.555   4.470   3.455
 5802TIP3   OH217411   6.271   2.869   3.342
 5802TIP3    H117412   6.309   2.804   3.402
 5802TIP3    H217413   6.230   2.816   3.274
 5803TIP3   OH217414   5.408   0.083   0.524
 5803TIP3    H117415   5.443   0.137   0.453
 5803TIP3    H217416   5.409   0.139   0.601
 5804TIP3   OH217417   5.718   4.325   3.046
 5804TIP3    H117418   5.636   4.357   3.082
 5804TIP3    H217419   5.715   4.230   3.059
 5805TIP3   OH217420   3.119   2.597   3.263
 5805TIP3    H117421   3.080   2.646   3.336
 5805TIP3    H217422   3.056   2.528   3.244
 5806TIP3   OH217423   1.605   0.392   3.185
 5806TIP3    H117424   1.611   0.365   3.094
 5806TIP3    H217425   1.617   0.487   3.183
 5807TIP3   OH217426   4.790   1.269   4.952
 5807TIP3    H117427   4.760   1.180   4.971
 5807TIP3    H217428   4.875   1.256   4.908
 5808TIP3   OH217429   3.600   3.544   0.936
 5808TIP3    H117430   3.651   3.623   0.921
 5808TIP3    H217431   3.511   3.567   0.910
 5809TIP3   OH217432   6.077   2.658   1.357
 5809TIP3    H117433   6.073   2.624   1.446
 5809TIP3    H217434   5.988   2.688   1.339
 5810TIP3   OH217435   4.599   2.854   0.918
 5810TIP3    H117436   4.671   2.914   0.900
 5810TIP3    H217437   4.528   2.910   0.951
 5811TIP3   OH217438   2.321   4.151   4.442
 5811TIP3    H117439   2.362   4.136   4.356
 5811TIP3    H217440   2.391   4.189   4.496
 5812TIP3   OH217441   1.646   2.629   1.750
 5812TIP3    H117442   1.692   2.663   1.827
 5812TIP3    H217443   1.691   2.547   1.729
 5813TIP3   OH217444   2.692   5.858   4.146
 5813TIP3    H117445   2.673   5.764   4.149
 5813TIP3    H217446   2.757   5.871   4.216
 5814TIP3   OH217447   2.275   4.375   0.642
 5814TIP3    H117448   2.319   4.454   0.672
 5814TIP3    H217449   2.184   4.386   0.671
 5815TIP3   OH217450   2.447   5.454   4.084
 5815TIP3    H117451   2.402   5.472   4.002
 5815TIP3    H217452   2.517   5.394   4.061
 5816TIP3   OH217453   1.924   1.839   1.890
 5816TIP3    H117454   1.927   1.743   1.900
 5816TIP3    H217455   1.928   1.852   1.795
 5817TIP3   OH217456   1.124   0.541   0.872
 5817TIP3    H117457   1.152   0.450   0.863
 5817TIP3    H217458   1.092   0.548   0.961
 5818TIP3   OH217459   6.201   3.387  -0.009
 5818TIP3    H117460   6.117   3.408  -0.048
 5818TIP3    H217461   6.182   3.373   0.084
 5819TIP3   OH217462   1.545   3.429   1.618
 5819TIP3    H117463   1.545   3.523   1.598
 5819TIP3    H217464   1.486   3.390   1.554
 5820TIP3   OH217465   2.457   1.608   1.857
 5820TIP3    H117466   2.545   1.580   1.881
 5820TIP3    H217467   2.465   1.700   1.835
 5821TIP3   OH217468   5.110   1.596   1.120
 5821TIP3    H117469   5.094   1.546   1.200
 5821TIP3    H217470   5.063   1.548   1.052
 5822TIP3   OH217471   4.781   4.240   2.725
 5822TIP3    H117472   4.700   4.275   2.763
 5822TIP3    H217473   4.845   4.248   2.796
 5823TIP3   OH217474   0.737   1.255   3.187
 5823TIP3    H117475   0.823   1.215   3.171
 5823TIP3    H217476   0.748   1.347   3.160
 5824TIP3   OH217477   4.498   3.885   4.744
 5824TIP3    H117478   4.417   3.932   4.766
 5824TIP3    H217479   4.524   3.920   4.659
 5825TIP3   OH217480   2.280   5.345   2.704
 5825TIP3    H117481   2.281   5.441   2.702
 5825TIP3    H217482   2.369   5.320   2.728
 5826TIP3   OH217483   0.863   3.766   2.148
 5826TIP3    H117484   0.789   3.718   2.112
 5826TIP3    H217485   0.883   3.722   2.231
 5827TIP3   OH217486   4.232   0.723   2.236
 5827TIP3    H117487   4.196   0.799   2.191
 5827TIP3    H217488   4.325   0.725   2.214
 5828TIP3   OH217489   0.011   5.800   2.614
 5828TIP3    H117490  -0.039   5.855   2.674
 5828TIP3    H217491  -0.031   5.812   2.529
 5829TIP3   OH217492   6.388   3.633   2.509
 5829TIP3    H117493   6.376   3.643   2.603
 5829TIP3    H217494   6.301   3.644   2.471
 5830TIP3   OH217495   3.567   2.965   3.949
 5830TIP3    H117496   3.532   3.052   3.929
 5830TIP3    H217497   3.662   2.978   3.950
 5831TIP3   OH217498   5.414   5.293   1.489
 5831TIP3    H117499   5.428   5.343   1.570
 5831TIP3    H217500   5.445   5.352   1.420
 5832TIP3   OH217501   1.217   2.963   3.748
 5832TIP3    H117502   1.146   2.900   3.735
 5832TIP3    H217503   1.294   2.920   3.709
 5833TIP3   OH217504   5.547   1.113   5.086
 5833TIP3    H117505   5.607   1.138   5.157
 5833TIP3    H217506   5.479   1.062   5.129
 5834TIP3   OH217507   1.244   4.293   5.024
 5834TIP3    H117508   1.268   4.206   5.056
 5834TIP3    H217509   1.312   4.315   4.960
 5835TIP3   OH217510   2.213   4.193   2.614
 5835TIP3    H117511   2.193   4.213   2.523
 5835TIP3    H217512   2.225   4.098   2.616
 5836TIP3   OH217513   2.090   3.441   4.375
 5836TIP3    H117514   2.021   3.432   4.441
 5836TIP3    H217515   2.127   3.354   4.366
 5837TIP3   OH217516   5.572   3.195   3.917
 5837TIP3    H117517   5.610   3.204   4.004
 5837TIP3    H217518   5.482   3.228   3.927
 5838TIP3   OH217519   2.444   2.231   2.961
 5838TIP3    H117520   2.428   2.182   2.881
 5838TIP3    H217521   2.370   2.290   2.969
 5839TIP3   OH217522   3.195   4.863   2.283
 5839TIP3    H117523   3.269   4.849   2.341
 5839TIP3    H217524   3.129   4.799   2.312
 5840TIP3   OH217525   0.398   1.819   0.964
 5840TIP3    H117526   0.450   1.893   0.933
 5840TIP3    H217527   0.312   1.832   0.923
 5841TIP3   OH217528   3.304   1.215   2.464
 5841TIP3    H117529   3.321   1.153   2.394
 5841TIP3    H217530   3.282   1.161   2.540
 5842TIP3   OH217531   3.829   0.706   0.939
 5842TIP3    H117532   3.866   0.653   0.869
 5842TIP3    H217533   3.897   0.770   0.960
 5843TIP3   OH217534   3.389   5.782   0.633
 5843TIP3    H117535   3.405   5.855   0.573
 5843TIP3    H217536   3.435   5.708   0.594
 5844TIP3   OH217537   3.240   0.391   2.024
 5844TIP3    H117538   3.302   0.399   1.951
 5844TIP3    H217539   3.288   0.343   2.091
 5845TIP3   OH217540   1.783   4.990   4.486
 5845TIP3    H117541   1.856   4.930   4.474
 5845TIP3    H217542   1.821   5.077   4.476
 5846TIP3   OH217543   0.470   3.479   5.138
 5846TIP3    H117544   0.514   3.397   5.160
 5846TIP3    H217545   0.536   3.531   5.093
 5847TIP3   OH217546   1.815   3.336   4.024
 5847TIP3    H117547   1.728   3.352   3.987
 5847TIP3    H217548   1.802   3.337   4.119
 5848TIP3   OH217549   5.253   2.226   3.983
 5848TIP3    H117550   5.181   2.203   3.924
 5848TIP3    H217551   5.235   2.316   4.010
 5849TIP3   OH217552   0.979   5.250   2.208
 5849TIP3    H117553   0.908   5.194   2.177
 5849TIP3    H217554   1.008   5.210   2.290
 5850TIP3   OH217555   4.358   5.618   4.959
 5850TIP3    H117556   4.326   5.654   4.876
 5850TIP3    H217557   4.362   5.524   4.944
 5851TIP3   OH217558   3.937   3.847   0.784
 5851TIP3    H117559   3.889   3.888   0.856
 5851TIP3    H217560   3.904   3.757   0.782
 5852TIP3   OH217561   2.638   0.325   4.121
 5852TIP3    H117562   2.580   0.296   4.191
 5852TIP3    H217563   2.637   0.420   4.126
 5853TIP3   OH217564   3.706   4.664   1.308
 5853TIP3    H117565   3.640   4.721   1.347
 5853TIP3    H217566   3.662   4.624   1.234
 5854TIP3   OH217567   1.018   3.743   4.790
 5854TIP3    H117568   0.996   3.787   4.872
 5854TIP3    H217569   0.962   3.665   4.788
 5855TIP3   OH217570   5.808   1.154   2.765
 5855TIP3    H117571   5.893   1.123   2.734
 5855TIP3    H217572   5.806   1.247   2.740
 5856TIP3   OH217573   5.026   3.487   2.277
 5856TIP3    H117574   5.002   3.578   2.295
 5856TIP3    H217575   4.952   3.436   2.310
 5857TIP3   OH217576   3.161   5.028   4.561
 5857TIP3    H117577   3.091   4.963   4.562
 5857TIP3    H217578   3.242   4.976   4.567
 5858TIP3   OH217579   5.299   4.605   0.347
 5858TIP3    H117580   5.367   4.550   0.308
 5858TIP3    H217581   5.232   4.612   0.279
 5859TIP3   OH217582   3.505   3.614   1.226
 5859TIP3    H117583   3.583   3.593   1.175
 5859TIP3    H217584   3.450   3.536   1.219
 5860TIP3   OH217585   5.352   1.076   0.972
 5860TIP3    H117586   5.259   1.100   0.973
 5860TIP3    H217587   5.352   0.980   0.969
 5861TIP3   OH217588   3.384   3.697   2.736
 5861TIP3    H117589   3.299   3.660   2.709
 5861TIP3    H217590   3.382   3.787   2.705
 5862TIP3   OH217591   2.856   2.890   2.222
 5862TIP3    H117592   2.786   2.833   2.253
 5862TIP3    H217593   2.917   2.895   2.295
 5863TIP3   OH217594   5.956   1.470   1.529
 5863TIP3    H117595   5.909   1.407   1.584
 5863TIP3    H217596   5.893   1.491   1.459
 5864TIP3   OH217597   2.919   1.669   0.189
 5864TIP3    H117598   2.876   1.591   0.226
 5864TIP3    H217599   2.850   1.714   0.141
 5865TIP3   OH217600   0.178   0.884   4.764
 5865TIP3    H117601   0.175   0.893   4.668
 5865TIP3    H217602   0.210   0.795   4.778
 5866TIP3   OH217603   1.144   3.402   3.539
 5866TIP3    H117604   1.069   3.360   3.498
 5866TIP3    H217605   1.212   3.402   3.472
 5867TIP3   OH217606   2.223   1.880   1.924
 5867TIP3    H117607   2.182   1.960   1.957
 5867TIP3    H217608   2.169   1.855   1.849
 5868TIP3   OH217609   4.747   5.922   0.338
 5868TIP3    H117610   4.726   5.870   0.415
 5868TIP3    H217611   4.711   5.872   0.265
 5869TIP3   OH217612   5.779   2.147   4.041
 5869TIP3    H117613   5.741   2.064   4.068
 5869TIP3    H217614   5.850   2.162   4.103
 5870TIP3   OH217615   6.290   3.472   1.325
 5870TIP3    H117616   6.366   3.469   1.383
 5870TIP3    H217617   6.247   3.554   1.346
 5871TIP3   OH217618   3.043   3.573   4.314
 5871TIP3    H117619   2.948   3.566   4.323
 5871TIP3    H217620   3.062   3.532   4.231
 5872TIP3   OH217621   1.642   4.010   4.995
 5872TIP3    H117622   1.707   3.980   5.058
 5872TIP3    H217623   1.659   3.958   4.916
 5873TIP3   OH217624   5.083   3.575   5.057
 5873TIP3    H117625   5.073   3.670   5.054
 5873TIP3    H217626   5.109   3.557   5.147
 5874TIP3   OH217627   3.759   0.525   4.190
 5874TIP3    H117628   3.758   0.447   4.134
 5874TIP3    H217629   3.740   0.493   4.278
 5875TIP3   OH217630   5.087   3.541   3.276
 5875TIP3    H117631   5.105   3.539   3.370
 5875TIP3    H217632   5.003   3.495   3.267
 5876TIP3   OH217633   4.953   1.988   4.702
 5876TIP3    H117634   4.935   2.080   4.718
 5876TIP3    H217635   5.043   1.986   4.668
 5877TIP3   OH217636   4.990   3.794   1.773
 5877TIP3    H117637   5.053   3.845   1.824
 5877TIP3    H217638   4.964   3.723   1.831
 5878TIP3   OH217639   4.071   3.196   4.365
 5878TIP3    H117640   4.006   3.186   4.435
 5878TIP3    H217641   4.022   3.235   4.293
 5879TIP3   OH217642   4.839   3.961   0.702
 5879TIP3    H117643   4.883   4.041   0.730
 5879TIP3    H217644   4.892   3.929   0.629
 5880TIP3   OH217645   2.460   0.095   2.954
 5880TIP3    H117646   2.481   0.004   2.934
 5880TIP3    H217647   2.437   0.133   2.869
 5881TIP3   OH217648   2.290   5.953   1.492
 5881TIP3    H117649   2.355   5.987   1.431
 5881TIP3    H217650   2.338   5.934   1.572
 5882TIP3   OH217651   5.212   1.495   4.719
 5882TIP3    H117652   5.286   1.499   4.659
 5882TIP3    H217653   5.181   1.585   4.726
 5883TIP3   OH217654   2.909   5.114   2.370
 5883TIP3    H117655   2.911   5.031   2.418
 5883TIP3    H217656   2.934   5.180   2.435
 5884TIP3   OH217657   2.104   5.232   0.791
 5884TIP3    H117658   2.160   5.222   0.868
 5884TIP3    H217659   2.123   5.320   0.759
 5885TIP3   OH217660   0.332   1.656   4.293
 5885TIP3    H117661   0.419   1.695   4.289
 5885TIP3    H217662   0.348   1.563   4.308
 5886TIP3   OH217663   4.631   0.880   0.683
 5886TIP3    H117664   4.672   0.921   0.607
 5886TIP3    H217665   4.691   0.900   0.755
 5887TIP3   OH217666   0.849   5.490   2.063
 5887TIP3    H117667   0.904   5.428   2.112
 5887TIP3    H217668   0.885   5.576   2.085
 5888TIP3   OH217669   6.389   2.253   1.024
 5888TIP3    H117670   6.340   2.257   0.942
 5888TIP3    H217671   6.322   2.239   1.091
 5889TIP3   OH217672   0.265   3.160   3.575
 5889TIP3    H117673   0.227   3.076   3.600
 5889TIP3    H217674   0.196   3.224   3.594
 5890TIP3   OH217675   1.025   0.386   2.521
 5890TIP3    H117676   0.948   0.437   2.496
 5890TIP3    H217677   1.068   0.438   2.588
 5891TIP3   OH217678   5.922   3.327   4.192
 5891TIP3    H117679   5.835   3.289   4.181
 5891TIP3    H217680   5.928   3.395   4.124
 5892TIP3   OH217681   3.898   5.369   1.546
 5892TIP3    H117682   3.948   5.387   1.466
 5892TIP3    H217683   3.835   5.440   1.551
 5893TIP3   OH217684   2.476   4.005   1.830
 5893TIP3    H117685   2.540   3.937   1.808
 5893TIP3    H217686   2.391   3.961   1.822
 5894TIP3   OH217687   2.321   3.806   0.395
 5894TIP3    H117688   2.407   3.811   0.354
 5894TIP3    H217689   2.286   3.722   0.367
 5895TIP3   OH217690   3.465   3.427   4.932
 5895TIP3    H117691   3.527   3.488   4.971
 5895TIP3    H217692   3.505   3.402   4.848
 5896TIP3   OH217693   2.659   1.389   1.105
 5896TIP3    H117694   2.736   1.424   1.149
 5896TIP3    H217695   2.682   1.299   1.083
 5897TIP3   OH217696   3.305   0.157   3.953
 5897TIP3    H117697   3.377   0.150   4.015
 5897TIP3    H217698   3.309   0.247   3.921
 5898TIP3   OH217699   3.405   3.535   2.968
 5898TIP3    H117700   3.489   3.516   2.926
 5898TIP3    H217701   3.359   3.591   2.906
 5899TIP3   OH217702   1.200   1.355   1.051
 5899TIP3    H117703   1.160   1.304   1.121
 5899TIP3    H217704   1.132   1.361   0.984
 5900TIP3   OH217705   2.610   2.375   1.061
 5900TIP3    H117706   2.669   2.310   1.099
 5900TIP3    H217707   2.628   2.455   1.110
 5901TIP3   OH217708   5.091   1.551   3.235
 5901TIP3    H117709   5.031   1.481   3.208
 5901TIP3    H217710   5.081   1.556   3.330
 5902TIP3   OH217711   1.621   1.694   2.003
 5902TIP3    H117712   1.561   1.761   2.035
 5902TIP3    H217713   1.678   1.740   1.941
 5903TIP3   OH217714   4.126   2.692   3.097
 5903TIP3    H117715   4.206   2.650   3.128
 5903TIP3    H217716   4.066   2.686   3.172
 5904TIP3   OH217717   6.307   2.460   4.572
 5904TIP3    H117718   6.309   2.532   4.510
 5904TIP3    H217719   6.399   2.433   4.581
 5905TIP3   OH217720   5.480   4.989   3.119
 5905TIP3    H117721   5.389   5.017   3.128
 5905TIP3    H217722   5.531   5.070   3.131
 5906TIP3   OH217723   2.188   2.179   1.811
 5906TIP3    H117724   2.181   2.269   1.844
 5906TIP3    H217725   2.281   2.157   1.824
 5907TIP3   OH217726   5.947   0.639   4.885
 5907TIP3    H117727   5.988   0.664   4.802
 5907TIP3    H217728   5.894   0.715   4.909
 5908TIP3   OH217729   2.925   0.478   1.479
 5908TIP3    H117730   2.922   0.423   1.400
 5908TIP3    H217731   2.834   0.493   1.501
 5909TIP3   OH217732   5.481   4.384   4.977
 5909TIP3    H117733   5.482   4.389   5.073
 5909TIP3    H217734   5.451   4.295   4.958
 5910TIP3   OH217735   1.400   1.348   2.710
 5910TIP3    H117736   1.309   1.374   2.725
 5910TIP3    H217737   1.429   1.311   2.793
 5911TIP3   OH217738   4.287   1.344   4.823
 5911TIP3    H117739   4.375   1.311   4.842
 5911TIP3    H217740   4.254   1.373   4.908
 5912TIP3   OH217741   2.623   0.319   0.327
 5912TIP3    H117742   2.680   0.299   0.253
 5912TIP3    H217743   2.622   0.414   0.332
 5913TIP3   OH217744   1.567   0.112   2.394
 5913TIP3    H117745   1.481   0.075   2.379
 5913TIP3    H217746   1.577   0.180   2.327
 5914TIP3   OH217747   6.209   1.854   4.249
 5914TIP3    H117748   6.281   1.915   4.234
 5914TIP3    H217749   6.251   1.774   4.283
 5915TIP3   OH217750   2.227   5.148   0.285
 5915TIP3    H117751   2.289   5.075   0.277
 5915TIP3    H217752   2.261   5.216   0.227
 5916TIP3   OH217753   2.213   0.979   1.312
 5916TIP3    H117754   2.228   1.020   1.397
 5916TIP3    H217755   2.118   0.969   1.307
 5917TIP3   OH217756   0.330   5.118   2.271
 5917TIP3    H117757   0.274   5.192   2.297
 5917TIP3    H217758   0.337   5.127   2.176
 5918TIP3   OH217759   2.483   3.295   4.810
 5918TIP3    H117760   2.575   3.271   4.802
 5918TIP3    H217761   2.439   3.243   4.742
 5919TIP3   OH217762   3.597   3.473   3.662
 5919TIP3    H117763   3.520   3.467   3.718
 5919TIP3    H217764   3.615   3.566   3.657
 5920TIP3   OH217765   0.332   4.953   3.611
 5920TIP3    H117766   0.403   4.948   3.676
 5920TIP3    H217767   0.252   4.950   3.663
 5921TIP3   OH217768   0.611   3.190   2.890
 5921TIP3    H117769   0.551   3.246   2.840
 5921TIP3    H217770   0.689   3.184   2.835
 5922TIP3   OH217771   4.336   2.270   3.274
 5922TIP3    H117772   4.362   2.194   3.223
 5922TIP3    H217773   4.407   2.283   3.338
 5923TIP3   OH217774   0.123   0.731   5.159
 5923TIP3    H117775   0.168   0.793   5.217
 5923TIP3    H217776   0.189   0.666   5.137
 5924TIP3   OH217777   0.596   2.014   3.660
 5924TIP3    H117778   0.666   1.953   3.682
 5924TIP3    H217779   0.522   1.958   3.636
 5925TIP3   OH217780   5.129   2.256   0.106
 5925TIP3    H117781   5.184   2.244   0.028
 5925TIP3    H217782   5.109   2.350   0.106
 5926TIP3   OH217783   6.045   0.661   0.906
 5926TIP3    H117784   6.045   0.755   0.889
 5926TIP3    H217785   6.073   0.621   0.824
 5927TIP3   OH217786   3.926   0.942   4.926
 5927TIP3    H117787   3.996   1.006   4.937
 5927TIP3    H217788   3.897   0.923   5.015
 5928TIP3   OH217789   5.355   5.550   2.946
 5928TIP3    H117790   5.357   5.595   2.861
 5928TIP3    H217791   5.446   5.551   2.975
 5929TIP3   OH217792   3.324   1.963   4.368
 5929TIP3    H117793   3.341   2.019   4.292
 5929TIP3    H217794   3.246   2.001   4.409
 5930TIP3   OH217795   5.411   5.461   1.093
 5930TIP3    H117796   5.474   5.462   1.021
 5930TIP3    H217797   5.326   5.478   1.052
 5931TIP3   OH217798   0.749   2.556   1.151
 5931TIP3    H117799   0.757   2.624   1.084
 5931TIP3    H217800   0.660   2.566   1.185
 5932TIP3   OH217801   2.643   0.836   4.939
 5932TIP3    H117802   2.602   0.920   4.919
 5932TIP3    H217803   2.602   0.808   5.020
 5933TIP3   OH217804   2.518   1.471   3.336
 5933TIP3    H117805   2.428   1.438   3.345
 5933TIP3    H217806   2.509   1.550   3.283
 5934TIP3   OH217807   4.647   4.204   1.939
 5934TIP3    H117808   4.607   4.176   1.857
 5934TIP3    H217809   4.713   4.269   1.913
 5935TIP3   OH217810   1.566   1.121   3.438
 5935TIP3    H117811   1.571   1.212   3.469
 5935TIP3    H217812   1.584   1.068   3.516
 5936TIP3   OH217813   4.827   2.403   0.901
 5936TIP3    H117814   4.753   2.345   0.919
 5936TIP3    H217815   4.800   2.488   0.934
 5937TIP3   OH217816   1.242   0.056   3.788
 5937TIP3    H117817   1.157   0.099   3.780
 5937TIP3    H217818   1.291   0.086   3.712
 5938TIP3   OH217819   4.198   0.506   4.379
 5938TIP3    H117820   4.262   0.524   4.449
 5938TIP3    H217821   4.196   0.411   4.373
 5939TIP3   OH217822   5.745   1.718   1.056
 5939TIP3    H117823   5.811   1.691   0.992
 5939TIP3    H217824   5.685   1.773   1.006
 5940TIP3   OH217825   5.139   4.064   5.086
 5940TIP3    H117826   5.194   4.027   5.155
 5940TIP3    H217827   5.051   4.065   5.123
 5941TIP3   OH217828   1.481   4.051   3.888
 5941TIP3    H117829   1.481   3.990   3.962
 5941TIP3    H217830   1.550   4.018   3.830
 5942TIP3   OH217831   1.833   4.722   1.143
 5942TIP3    H117832   1.779   4.777   1.087
 5942TIP3    H217833   1.823   4.761   1.230
 5943TIP3   OH217834   1.614   1.007   4.436
 5943TIP3    H117835   1.693   0.957   4.455
 5943TIP3    H217836   1.545   0.963   4.486
 5944TIP3   OH217837   2.806   3.996   0.714
 5944TIP3    H117838   2.880   3.940   0.735
 5944TIP3    H217839   2.814   4.070   0.775
 5945TIP3   OH217840   3.735   3.376   2.405
 5945TIP3    H117841   3.827   3.393   2.388
 5945TIP3    H217842   3.692   3.386   2.321
 5946TIP3   OH217843   4.425   5.989   1.348
 5946TIP3    H117844   4.409   5.957   1.259
 5946TIP3    H217845   4.359   5.944   1.401
 5947TIP3   OH217846   4.338   0.935   0.728
 5947TIP3    H117847   4.430   0.954   0.710
 5947TIP3    H217848   4.339   0.892   0.813
 5948TIP3   OH217849   4.759   3.933   4.330
 5948TIP3    H117850   4.783   3.959   4.241
 5948TIP3    H217851   4.793   3.844   4.339
 5949TIP3   OH217852   1.876   5.272   1.013
 5949TIP3    H117853   1.895   5.253   0.921
 5949TIP3    H217854   1.783   5.250   1.023
 5950TIP3   OH217855   5.537   4.975   1.605
 5950TIP3    H117856   5.467   5.034   1.634
 5950TIP3    H217857   5.547   4.996   1.512
 5951TIP3   OH217858   2.060   3.271   3.357
 5951TIP3    H117859   2.154   3.270   3.372
 5951TIP3    H217860   2.040   3.186   3.317
 5952TIP3   OH217861   2.911   2.026   3.424
 5952TIP3    H117862   2.984   2.085   3.445
 5952TIP3    H217863   2.875   2.002   3.509
 5953TIP3   OH217864   6.023   4.071   2.279
 5953TIP3    H117865   6.106   4.103   2.245
 5953TIP3    H217866   6.030   4.081   2.374
 5954TIP3   OH217867   4.134   1.715   3.217
 5954TIP3    H117868   4.082   1.767   3.156
 5954TIP3    H217869   4.078   1.641   3.240
 5955TIP3   OH217870   0.454   2.255   4.925
 5955TIP3    H117871   0.436   2.349   4.928
 5955TIP3    H217872   0.550   2.249   4.928
 5956TIP3   OH217873   4.440   3.382   2.038
 5956TIP3    H117874   4.364   3.337   2.001
 5956TIP3    H217875   4.499   3.393   1.964
 5957TIP3   OH217876   1.744   1.078   1.021
 5957TIP3    H117877   1.678   1.094   1.088
 5957TIP3    H217878   1.705   1.011   0.965
 5958TIP3   OH217879   4.705   1.353   4.552
 5958TIP3    H117880   4.725   1.423   4.615
 5958TIP3    H217881   4.660   1.397   4.480
 5959TIP3   OH217882   2.740   0.719   2.791
 5959TIP3    H117883   2.793   0.795   2.770
 5959TIP3    H217884   2.777   0.686   2.873
 5960TIP3   OH217885   3.566   2.094   4.637
 5960TIP3    H117886   3.647   2.044   4.626
 5960TIP3    H217887   3.513   2.040   4.695
 5961TIP3   OH217888   6.134   1.372   2.626
 5961TIP3    H117889   6.160   1.460   2.602
 5961TIP3    H217890   6.038   1.374   2.623
 5962TIP3   OH217891   6.299   0.980   0.127
 5962TIP3    H117892   6.232   1.027   0.175
 5962TIP3    H217893   6.353   0.939   0.195
 5963TIP3   OH217894   5.908   4.925   2.273
 5963TIP3    H117895   5.945   4.999   2.321
 5963TIP3    H217896   5.971   4.907   2.204
 5964TIP3   OH217897   4.061   4.894   1.580
 5964TIP3    H117898   4.146   4.851   1.572
 5964TIP3    H217899   4.009   4.860   1.508
 5965TIP3   OH217900   2.990   5.332   2.540
 5965TIP3    H117901   3.068   5.278   2.555
 5965TIP3    H217902   2.969   5.368   2.626
 5966TIP3   OH217903   3.668   0.514   1.278
 5966TIP3    H117904   3.755   0.546   1.255
 5966TIP3    H217905   3.614   0.531   1.201
 5967TIP3   OH217906   5.601   2.820   1.643
 5967TIP3    H117907   5.615   2.879   1.569
 5967TIP3    H217908   5.549   2.748   1.606
 5968TIP3   OH217909   3.706   3.269   3.998
 5968TIP3    H117910   3.791   3.289   3.957
 5968TIP3    H217911   3.729   3.225   4.080
 5969TIP3   OH217912   5.261   3.812   2.989
 5969TIP3    H117913   5.202   3.837   3.060
 5969TIP3    H217914   5.345   3.797   3.032
 5970TIP3   OH217915   6.222   0.478   4.188
 5970TIP3    H117916   6.213   0.460   4.282
 5970TIP3    H217917   6.309   0.446   4.166
 5971TIP3   OH217918   6.199   0.326   3.853
 5971TIP3    H117919   6.141   0.397   3.882
 5971TIP3    H217920   6.195   0.262   3.924
 5972TIP3   OH217921   4.014   4.612   3.874
 5972TIP3    H117922   3.935   4.665   3.867
 5972TIP3    H217923   3.984   4.526   3.903
 5973TIP3   OH217924   6.203   3.490   4.058
 5973TIP3    H117925   6.133   3.445   4.010
 5973TIP3    H217926   6.163   3.515   4.141
 5974TIP3   OH217927   1.249   5.785   4.244
 5974TIP3    H117928   1.325   5.811   4.191
 5974TIP3    H217929   1.223   5.700   4.207
 5975TIP3   OH217930   2.284   2.687   0.949
 5975TIP3    H117931   2.245   2.690   1.037
 5975TIP3    H217932   2.373   2.719   0.961
 5976TIP3   OH217933   4.827   0.261   3.663
 5976TIP3    H117934   4.733   0.249   3.647
 5976TIP3    H217935   4.832   0.298   3.751
 5977TIP3   OH217936   4.386   3.373   5.100
 5977TIP3    H117937   4.458   3.395   5.159
 5977TIP3    H217938   4.426   3.324   5.029
 5978TIP3   OH217939   0.700   3.565   0.053
 5978TIP3    H117940   0.678   3.498  -0.012
 5978TIP3    H217941   0.788   3.541   0.083
 5979TIP3   OH217942   0.980   4.288   0.177
 5979TIP3    H117943   1.056   4.272   0.233
 5979TIP3    H217944   0.956   4.379   0.195
 5980TIP3   OH217945   4.197   2.226   0.421
 5980TIP3    H117946   4.177   2.317   0.445
 5980TIP3    H217947   4.125   2.200   0.363
 5981TIP3   OH217948   2.149   4.187   1.022
 5981TIP3    H117949   2.232   4.152   0.989
 5981TIP3    H217950   2.082   4.149   0.965
 5982TIP3   OH217951   4.994   2.273   4.748
 5982TIP3    H117952   5.014   2.366   4.736
 5982TIP3    H217953   4.972   2.265   4.841
 5983TIP3   OH217954   4.045   1.958   4.858
 5983TIP3    H117955   3.974   1.900   4.884
 5983TIP3    H217956   4.125   1.911   4.883
 5984TIP3   OH217957   3.076   4.993   2.072
 5984TIP3    H117958   3.119   5.076   2.091
 5984TIP3    H217959   3.108   4.933   2.140
 5985TIP3   OH217960   5.530   1.812   2.365
 5985TIP3    H117961   5.453   1.842   2.317
 5985TIP3    H217962   5.496   1.751   2.430
 5986TIP3   OH217963   2.244   0.711   0.996
 5986TIP3    H117964   2.181   0.734   0.928
 5986TIP3    H217965   2.191   0.689   1.072
 5987TIP3   OH217966   3.324   3.433   0.487
 5987TIP3    H117967   3.278   3.420   0.569
 5987TIP3    H217968   3.314   3.527   0.468
 5988TIP3   OH217969   5.449   3.313   1.620
 5988TIP3    H117970   5.520   3.326   1.682
 5988TIP3    H217971   5.476   3.360   1.542
 5989TIP3   OH217972   2.197   2.806   4.858
 5989TIP3    H117973   2.162   2.818   4.946
 5989TIP3    H217974   2.162   2.722   4.829
 5990TIP3   OH217975   4.007   3.947   2.859
 5990TIP3    H117976   4.016   3.914   2.769
 5990TIP3    H217977   4.093   3.984   2.879
 5991TIP3   OH217978   3.682   0.270   2.003
 5991TIP3    H117979   3.592   0.245   1.983
 5991TIP3    H217980   3.714   0.201   2.061
 5992TIP3   OH217981   1.446   2.739   3.905
 5992TIP3    H117982   1.365   2.720   3.953
 5992TIP3    H217983   1.418   2.743   3.814
 5993TIP3   OH217984   4.635   3.486   4.930
 5993TIP3    H117985   4.610   3.394   4.925
 5993TIP3    H217986   4.730   3.484   4.944
 5994TIP3   OH217987   5.039  -0.004   3.852
 5994TIP3    H117988   5.004   0.069   3.903
 5994TIP3    H217989   4.972  -0.022   3.787
 5995TIP3   OH217990   5.414   0.402   3.179
 5995TIP3    H117991   5.392   0.358   3.261
 5995TIP3    H217992   5.448   0.487   3.205
 5996TIP3   OH217993   3.189   2.933   3.137
 5996TIP3    H117994   3.100   2.950   3.168
 5996TIP3    H217995   3.180   2.858   3.079
 5997TIP3   OH217996   3.930   1.465   2.907
 5997TIP3    H117997   3.981   1.408   2.965
 5997TIP3    H217998   3.853   1.488   2.958
 5998TIP3   OH217999   4.342   4.443   3.743
 5998TIP3    H118000   4.314   4.353   3.761
 5998TIP3    H218001   4.309   4.461   3.655
 5999TIP3   OH218002   1.852   4.206   3.296
 5999TIP3    H118003   1.939   4.241   3.278
 5999TIP3    H218004   1.868   4.132   3.354
 6000TIP3   OH218005   3.370   5.059   0.622
 6000TIP3    H118006   3.429   4.984   0.631
 6000TIP3    H218007   3.297   5.026   0.569
 6001TIP3   OH218008   3.431   1.828   1.943
 6001TIP3    H118009   3.351   1.777   1.956
 6001TIP3    H218010   3.501   1.772   1.977
 6002TIP3   OH218011   2.890   2.173   0.096
 6002TIP3    H118012   2.825   2.108   0.068
 6002TIP3    H218013   2.886   2.241   0.029
 6003TIP3   OH218014   5.848   0.286   1.520
 6003TIP3    H118015   5.865   0.196   1.492
 6003TIP3    H218016   5.888   0.340   1.452
 6004TIP3   OH218017   4.284   5.224   3.949
 6004TIP3    H118018   4.286   5.295   3.884
 6004TIP3    H218019   4.323   5.263   4.028
 6005TIP3   OH218020   0.964   3.599   2.454
 6005TIP3    H118021   1.016   3.556   2.521
 6005TIP3    H218022   0.968   3.540   2.379
 6006TIP3   OH218023   5.626   1.318   1.260
 6006TIP3    H118024   5.677   1.393   1.292
 6006TIP3    H218025   5.538   1.353   1.246
 6007TIP3   OH218026   0.432   5.216   1.584
 6007TIP3    H118027   0.447   5.236   1.492
 6007TIP3    H218028   0.447   5.122   1.591
 6008TIP3   OH218029   1.972   1.115   1.746
 6008TIP3    H118030   1.897   1.138   1.692
 6008TIP3    H218031   1.979   1.185   1.811
 6009TIP3   OH218032   1.378   5.473   4.454
 6009TIP3    H118033   1.447   5.409   4.471
 6009TIP3    H218034   1.421   5.558   4.464
 6010TIP3   OH218035   3.117   1.043   1.537
 6010TIP3    H118036   3.117   1.068   1.444
 6010TIP3    H218037   3.079   0.955   1.538
 6011TIP3   OH218038   4.697   2.892   2.720
 6011TIP3    H118039   4.671   2.810   2.677
 6011TIP3    H218040   4.657   2.961   2.667
 6012TIP3   OH218041   6.185   3.222   1.576
 6012TIP3    H118042   6.171   3.176   1.493
 6012TIP3    H218043   6.265   3.184   1.611
 6013TIP3   OH218044   2.781   5.612   2.180
 6013TIP3    H118045   2.739   5.531   2.207
 6013TIP3    H218046   2.874   5.590   2.173
 6014TIP3   OH218047   0.951   0.704   5.017
 6014TIP3    H118048   0.948   0.796   4.990
 6014TIP3    H218049   1.045   0.685   5.024
 6015TIP3   OH218050   4.386   4.343   3.047
 6015TIP3    H118051   4.398   4.297   3.130
 6015TIP3    H218052   4.404   4.435   3.068
 6016TIP3   OH218053   2.111   4.241   2.859
 6016TIP3    H118054   2.186   4.263   2.915
 6016TIP3    H218055   2.151   4.211   2.777
 6017TIP3   OH218056   5.086   0.939   3.241
 6017TIP3    H118057   5.072   0.845   3.253
 6017TIP3    H218058   5.154   0.944   3.174
 6018TIP3   OH218059   5.455   5.056   5.158
 6018TIP3    H118060   5.395   5.058   5.084
 6018TIP3    H218061   5.414   5.112   5.224
 6019TIP3   OH218062   1.974   0.749   3.147
 6019TIP3    H118063   2.067   0.764   3.133
 6019TIP3    H218064   1.947   0.819   3.206
 6020TIP3   OH218065   6.293   0.352   1.735
 6020TIP3    H118066   6.302   0.443   1.706
 6020TIP3    H218067   6.200   0.332   1.723
 6021TIP3   OH218068   1.260   3.006   0.208
 6021TIP3    H118069   1.337   3.053   0.177
 6021TIP3    H218070   1.261   2.924   0.158
 6022TIP3   OH218071   3.680   0.108   4.218
 6022TIP3    H118072   3.710   0.168   4.151
 6022TIP3    H218073   3.588   0.132   4.234
 6023TIP3   OH218074   5.318   2.967   2.882
 6023TIP3    H118075   5.235   2.991   2.924
 6023TIP3    H218076   5.299   2.884   2.838
 6024TIP3   OH218077   1.041   0.219   0.827
 6024TIP3    H118078   0.966   0.279   0.824
 6024TIP3    H218079   1.038   0.173   0.743
 6025TIP3   OH218080   4.747   2.425   0.558
 6025TIP3    H118081   4.819   2.365   0.577
 6025TIP3    H218082   4.688   2.415   0.633
 6026TIP3   OH218083   5.091   0.674   3.292
 6026TIP3    H118084   5.166   0.660   3.350
 6026TIP3    H218085   5.017   0.634   3.338
 6027TIP3   OH218086   4.290   3.639   1.448
 6027TIP3    H118087   4.206   3.633   1.403
 6027TIP3    H218088   4.287   3.723   1.494
 6028TIP3   OH218089   2.301   3.283   3.124
 6028TIP3    H118090   2.275   3.294   3.032
 6028TIP3    H218091   2.236   3.334   3.172
 6029TIP3   OH218092   5.634   3.583   2.904
 6029TIP3    H118093   5.715   3.533   2.919
 6029TIP3    H218094   5.607   3.558   2.816
 6030TIP3   OH218095   6.180   5.927   4.114
 6030TIP3    H118096   6.106   5.881   4.152
 6030TIP3    H218097   6.149   6.017   4.101
 6031TIP3   OH218098   5.424   2.234   0.108
 6031TIP3    H118099   5.438   2.159   0.050
 6031TIP3    H218100   5.374   2.198   0.182
 6032TIP3   OH218101   3.127   4.220   0.065
 6032TIP3    H118102   3.055   4.242   0.124
 6032TIP3    H218103   3.135   4.295   0.007
 6033TIP3   OH218104   1.984   4.659   3.870
 6033TIP3    H118105   2.076   4.681   3.858
 6033TIP3    H218106   1.966   4.679   3.962
 6034TIP3   OH218107   5.061   2.498   3.254
 6034TIP3    H118108   5.147   2.517   3.218
 6034TIP3    H218109   5.035   2.578   3.299
 6035TIP3   OH218110   0.221   5.104   1.817
 6035TIP3    H118111   0.250   5.013   1.808
 6035TIP3    H218112   0.184   5.126   1.732
 6036TIP3   OH218113   0.134   0.395   4.178
 6036TIP3    H118114   0.103   0.305   4.187
 6036TIP3    H218115   0.216   0.388   4.130
 6037TIP3   OH218116   0.734   5.199   3.316
 6037TIP3    H118117   0.699   5.145   3.246
 6037TIP3    H218118   0.828   5.200   3.301
 6038TIP3   OH218119   3.671   4.854   2.047
 6038TIP3    H118120   3.602   4.843   2.112
 6038TIP3    H218121   3.636   4.918   1.985
 6039TIP3   OH218122   5.958   5.891   1.632
 6039TIP3    H118123   5.915   5.821   1.584
 6039TIP3    H218124   5.925   5.882   1.722
 6040TIP3   OH218125   3.158   2.860   0.485
 6040TIP3    H118126   3.106   2.930   0.524
 6040TIP3    H218127   3.118   2.844   0.400
 6041TIP3   OH218128   5.469   2.562   1.587
 6041TIP3    H118129   5.460   2.486   1.529
 6041TIP3    H218130   5.451   2.528   1.674
 6042TIP3   OH218131   2.088   5.631   4.508
 6042TIP3    H118132   2.132   5.616   4.592
 6042TIP3    H218133   1.994   5.624   4.529
 6043TIP3   OH218134   3.265   4.167   4.788
 6043TIP3    H118135   3.310   4.178   4.704
 6043TIP3    H218136   3.173   4.186   4.768
 6044TIP3   OH218137   5.660   1.895   4.151
 6044TIP3    H118138   5.575   1.919   4.114
 6044TIP3    H218139   5.646   1.892   4.245
 6045TIP3   OH218140   5.458   0.067   2.453
 6045TIP3    H118141   5.407   0.002   2.404
 6045TIP3    H218142   5.472   0.138   2.390
 6046TIP3   OH218143   3.758   3.801   2.627
 6046TIP3    H118144   3.697   3.852   2.574
 6046TIP3    H218145   3.843   3.843   2.612
 6047TIP3   OH218146   6.057   2.280   2.278
 6047TIP3    H118147   6.016   2.218   2.338
 6047TIP3    H218148   6.038   2.366   2.315
 6048TIP3   OH218149   0.304   1.503   0.438
 6048TIP3    H118150   0.306   1.420   0.486
 6048TIP3    H218151   0.348   1.483   0.355
 6049TIP3   OH218152   3.523   1.035   4.583
 6049TIP3    H118153   3.499   1.123   4.613
 6049TIP3    H218154   3.553   0.991   4.662
 6050TIP3   OH218155   4.056   2.020   1.255
 6050TIP3    H118156   4.078   2.033   1.162
 6050TIP3    H218157   4.086   2.099   1.298
 6051TIP3   OH218158   4.288   4.604   4.696
 6051TIP3    H118159   4.358   4.652   4.650
 6051TIP3    H218160   4.285   4.642   4.783
 6052TIP3   OH218161   5.209   5.668   3.923
 6052TIP3    H118162   5.229   5.591   3.977
 6052TIP3    H218163   5.293   5.694   3.886
 6053TIP3   OH218164   4.825   0.836   1.568
 6053TIP3    H118165   4.764   0.892   1.615
 6053TIP3    H218166   4.769   0.778   1.516
 6054TIP3   OH218167   2.743   4.983   1.121
 6054TIP3    H118168   2.828   4.953   1.090
 6054TIP3    H218169   2.729   5.067   1.076
 6055TIP3   OH218170   5.070   1.498   2.589
 6055TIP3    H118171   5.032   1.536   2.668
 6055TIP3    H218172   5.059   1.566   2.522
 6056TIP3   OH218173   3.124   4.035   3.324
 6056TIP3    H118174   3.183   3.970   3.284
 6056TIP3    H218175   3.072   4.068   3.251
 6057TIP3   OH218176   3.941   3.363   4.197
 6057TIP3    H118177   3.999   3.385   4.124
 6057TIP3    H218178   3.956   3.432   4.262
 6058TIP3   OH218179   4.997   5.507   1.289
 6058TIP3    H118180   4.930   5.454   1.333
 6058TIP3    H218181   4.969   5.598   1.305
 6059TIP3   OH218182   2.237   5.556   0.536
 6059TIP3    H118183   2.183   5.543   0.614
 6059TIP3    H218184   2.205   5.493   0.473
 6060TIP3   OH218185   1.353   3.479   3.715
 6060TIP3    H118186   1.276   3.424   3.732
 6060TIP3    H218187   1.351   3.494   3.621
 6061TIP3   OH218188   5.873   4.751   3.230
 6061TIP3    H118189   5.905   4.686   3.168
 6061TIP3    H218190   5.924   4.736   3.309
 6062TIP3   OH218191   0.971   5.239   1.755
 6062TIP3    H118192   0.929   5.325   1.756
 6062TIP3    H218193   1.065   5.257   1.749
 6063TIP3   OH218194   6.356   0.711   4.023
 6063TIP3    H118195   6.321   0.798   4.003
 6063TIP3    H218196   6.281   0.652   4.012
 6064TIP3   OH218197   3.016   4.731   3.812
 6064TIP3    H118198   3.103   4.757   3.781
 6064TIP3    H218199   2.989   4.662   3.750
 6065TIP3   OH218200   5.088   2.752   2.139
 6065TIP3    H118201   5.055   2.809   2.071
 6065TIP3    H218202   5.020   2.686   2.151
 6066TIP3   OH218203   6.338   0.163   1.949
 6066TIP3    H118204   6.316   0.250   1.916
 6066TIP3    H218205   6.399   0.128   1.885
 6067TIP3   OH218206   5.375   2.668   3.938
 6067TIP3    H118207   5.301   2.727   3.927
 6067TIP3    H218208   5.441   2.720   3.984
 6068TIP3   OH218209   1.805   5.152   2.461
 6068TIP3    H118210   1.881   5.106   2.496
 6068TIP3    H218211   1.831   5.178   2.373
 6069TIP3   OH218212   5.018   1.004   4.025
 6069TIP3    H118213   5.010   1.025   4.118
 6069TIP3    H218214   4.935   1.032   3.987
 6070TIP3   OH218215   2.224   1.579   4.373
 6070TIP3    H118216   2.183   1.654   4.418
 6070TIP3    H218217   2.313   1.610   4.353
 6071TIP3   OH218218   0.967   5.018   3.767
 6071TIP3    H118219   0.979   5.113   3.759
 6071TIP3    H218220   0.875   5.008   3.792
 6072TIP3   OH218221   0.852   2.553   0.149
 6072TIP3    H118222   0.930   2.548   0.093
 6072TIP3    H218223   0.884   2.593   0.230
 6073TIP3   OH218224   1.162   1.935   0.054
 6073TIP3    H118225   1.179   1.864  -0.008
 6073TIP3    H218226   1.066   1.938   0.061
 6074TIP3   OH218227   1.473   5.789   2.345
 6074TIP3    H118228   1.536   5.793   2.418
 6074TIP3    H218229   1.491   5.868   2.294
 6075TIP3   OH218230   0.757   4.087   1.112
 6075TIP3    H118231   0.848   4.058   1.106
 6075TIP3    H218232   0.735   4.077   1.204
 6076TIP3   OH218233   0.342   3.028   2.617
 6076TIP3    H118234   0.302   2.966   2.556
 6076TIP3    H218235   0.382   2.973   2.684
 6077TIP3   OH218236   5.972   1.386   4.010
 6077TIP3    H118237   6.032   1.439   4.062
 6077TIP3    H218238   5.980   1.420   3.921
 6078TIP3   OH218239   1.542   3.997   1.038
 6078TIP3    H118240   1.569   4.006   1.129
 6078TIP3    H218241   1.459   3.948   1.042
 6079TIP3   OH218242   1.464   4.317   3.211
 6079TIP3    H118243   1.480   4.227   3.183
 6079TIP3    H218244   1.514   4.371   3.150
 6080TIP3   OH218245   4.660   0.222   1.951
 6080TIP3    H118246   4.614   0.149   1.991
 6080TIP3    H218247   4.606   0.246   1.875
 6081TIP3   OH218248   6.347   5.074   0.848
 6081TIP3    H118249   6.430   5.036   0.876
 6081TIP3    H218250   6.305   5.005   0.797
 6082TIP3   OH218251   2.927   6.033   0.900
 6082TIP3    H118252   2.981   5.982   0.839
 6082TIP3    H218253   2.842   5.989   0.899
 6083TIP3   OH218254   3.443   4.235   2.236
 6083TIP3    H118255   3.373   4.258   2.174
 6083TIP3    H218256   3.433   4.298   2.307
 6084TIP3   OH218257   1.416   2.662   3.405
 6084TIP3    H118258   1.480   2.654   3.335
 6084TIP3    H218259   1.357   2.732   3.377
 6085TIP3   OH218260   0.715   4.129   3.138
 6085TIP3    H118261   0.676   4.108   3.054
 6085TIP3    H218262   0.783   4.194   3.118
 6086TIP3   OH218263   5.759   3.313   2.617
 6086TIP3    H118264   5.774   3.372   2.543
 6086TIP3    H218265   5.822   3.242   2.603
 6087TIP3   OH218266   0.403   1.015   2.405
 6087TIP3    H118267   0.326   1.055   2.365
 6087TIP3    H218268   0.468   1.085   2.408
 6088TIP3   OH218269   3.283   5.781   0.105
 6088TIP3    H118270   3.252   5.827   0.027
 6088TIP3    H218271   3.345   5.842   0.146
 6089TIP3   OH218272   5.797   3.169   3.454
 6089TIP3    H118273   5.836   3.082   3.445
 6089TIP3    H218274   5.705   3.157   3.429
 6090TIP3   OH218275   5.729   0.052   0.411
 6090TIP3    H118276   5.770   0.079   0.493
 6090TIP3    H218277   5.725   0.132   0.359
 6091TIP3   OH218278   1.424   1.873   3.805
 6091TIP3    H118279   1.480   1.803   3.838
 6091TIP3    H218280   1.424   1.861   3.710
 6092TIP3   OH218281   0.760   3.775   2.960
 6092TIP3    H118282   0.724   3.852   2.916
 6092TIP3    H218283   0.705   3.764   3.038
 6093TIP3   OH218284   1.604   2.773   2.342
 6093TIP3    H118285   1.563   2.761   2.427
 6093TIP3    H218286   1.570   2.857   2.310
 6094TIP3   OH218287   6.148   3.472   5.091
 6094TIP3    H118288   6.075   3.503   5.145
 6094TIP3    H218289   6.175   3.389   5.133
 6095TIP3   OH218290   0.637   5.594   1.119
 6095TIP3    H118291   0.662   5.680   1.084
 6095TIP3    H218292   0.721   5.552   1.140
 6096TIP3   OH218293   0.838   2.296   1.190
 6096TIP3    H118294   0.870   2.240   1.120
 6096TIP3    H218295   0.819   2.380   1.148
 6097TIP3   OH218296   1.902   4.650   2.003
 6097TIP3    H118297   1.898   4.745   2.013
 6097TIP3    H218298   1.977   4.635   1.945
 6098TIP3   OH218299   4.673   5.646   1.753
 6098TIP3    H118300   4.736   5.574   1.761
 6098TIP3    H218301   4.649   5.647   1.660
 6099TIP3   OH218302   4.843   3.155   4.779
 6099TIP3    H118303   4.830   3.060   4.777
 6099TIP3    H218304   4.936   3.168   4.759
 6100TIP3   OH218305   3.441   2.805   4.124
 6100TIP3    H118306   3.438   2.822   4.218
 6100TIP3    H218307   3.504   2.869   4.091
 6101TIP3   OH218308   2.720   2.380   2.983
 6101TIP3    H118309   2.809   2.378   3.018
 6101TIP3    H218310   2.688   2.468   3.004
 6102TIP3   OH218311   0.528   2.139   4.618
 6102TIP3    H118312   0.487   2.078   4.555
 6102TIP3    H218313   0.529   2.223   4.572
 6103TIP3   OH218314   1.313   3.919   4.155
 6103TIP3    H118315   1.240   3.934   4.094
 6103TIP3    H218316   1.326   4.003   4.198
 6104TIP3   OH218317   6.148   5.493   4.036
 6104TIP3    H118318   6.126   5.533   4.120
 6104TIP3    H218319   6.241   5.512   4.024
 6105TIP3   OH218320   4.404   5.338   4.954
 6105TIP3    H118321   4.497   5.319   4.941
 6105TIP3    H218322   4.373   5.268   5.011
 6106TIP3   OH218323   1.353   0.865   1.902
 6106TIP3    H118324   1.284   0.847   1.965
 6106TIP3    H218325   1.383   0.953   1.922
 6107TIP3   OH218326   5.531   0.923   4.808
 6107TIP3    H118327   5.445   0.962   4.824
 6107TIP3    H218328   5.592   0.997   4.811
 6108TIP3   OH218329   0.166   1.604   3.133
 6108TIP3    H118330   0.129   1.524   3.096
 6108TIP3    H218331   0.260   1.593   3.123
 6109TIP3   OH218332   2.879   0.447   4.328
 6109TIP3    H118333   2.853   0.467   4.238
 6109TIP3    H218334   2.973   0.429   4.323
 6110TIP3   OH218335   3.400   1.032   2.238
 6110TIP3    H118336   3.468   0.984   2.286
 6110TIP3    H218337   3.383   0.979   2.160
 6111TIP3   OH218338   6.189   5.605   0.311
 6111TIP3    H118339   6.136   5.635   0.238
 6111TIP3    H218340   6.278   5.633   0.290
 6112TIP3   OH218341   3.882   4.390   3.958
 6112TIP3    H118342   3.950   4.358   4.018
 6112TIP3    H218343   3.801   4.383   4.008
 6113TIP3   OH218344   3.420   3.274   1.770
 6113TIP3    H118345   3.398   3.339   1.837
 6113TIP3    H218346   3.515   3.273   1.768
 6114TIP3   OH218347   1.635   0.928   1.871
 6114TIP3    H118348   1.548   0.891   1.857
 6114TIP3    H218349   1.619   1.010   1.917
 6115TIP3   OH218350   3.249   3.439   4.716
 6115TIP3    H118351   3.235   3.391   4.797
 6115TIP3    H218352   3.164   3.478   4.695
 6116TIP3   OH218353   2.271   3.154   0.836
 6116TIP3    H118354   2.196   3.200   0.798
 6116TIP3    H218355   2.341   3.219   0.836
 6117TIP3   OH218356   2.391   2.233   0.636
 6117TIP3    H118357   2.303   2.257   0.665
 6117TIP3    H218358   2.449   2.290   0.687
 6118TIP3   OH218359   1.906   2.160   2.742
 6118TIP3    H118360   1.838   2.095   2.759
 6118TIP3    H218361   1.924   2.152   2.649
 6119TIP3   OH218362   3.571   1.365   4.067
 6119TIP3    H118363   3.573   1.302   3.995
 6119TIP3    H218364   3.656   1.409   4.062
 6120TIP3   OH218365   6.050   3.730   1.162
 6120TIP3    H118366   6.108   3.661   1.129
 6120TIP3    H218367   6.108   3.802   1.183
 6121TIP3   OH218368   5.368   0.558   4.416
 6121TIP3    H118369   5.413   0.519   4.491
 6121TIP3    H218370   5.431   0.620   4.380
 6122TIP3   OH218371   2.361   2.072   0.402
 6122TIP3    H118372   2.377   2.161   0.434
 6122TIP3    H218373   2.446   2.044   0.368
 6123TIP3   OH218374   3.542   2.372   4.252
 6123TIP3    H118375   3.621   2.396   4.300
 6123TIP3    H218376   3.471   2.385   4.314
 6124TIP3   OH218377   2.564   4.364   4.343
 6124TIP3    H118378   2.616   4.287   4.367
 6124TIP3    H218379   2.626   4.420   4.296
 6125TIP3   OH218380   1.326   4.173   4.201
 6125TIP3    H118381   1.389   4.226   4.250
 6125TIP3    H218382   1.313   4.221   4.119
 6126TIP3   OH218383   1.364   2.362   0.825
 6126TIP3    H118384   1.289   2.420   0.813
 6126TIP3    H218385   1.334   2.296   0.887
 6127TIP3   OH218386   1.840   1.104   4.286
 6127TIP3    H118387   1.795   1.102   4.370
 6127TIP3    H218388   1.879   1.017   4.277
 6128TIP3   OH218389   3.480   2.218   1.024
 6128TIP3    H118390   3.478   2.313   1.031
 6128TIP3    H218391   3.420   2.198   0.951
 6129TIP3   OH218392   3.676   1.172   1.180
 6129TIP3    H118393   3.683   1.129   1.266
 6129TIP3    H218394   3.767   1.187   1.153
 6130TIP3   OH218395   1.421   2.834   3.625
 6130TIP3    H118396   1.496   2.893   3.613
 6130TIP3    H218397   1.430   2.770   3.554
 6131TIP3   OH218398   4.991   0.194   4.023
 6131TIP3    H118399   4.938   0.254   3.970
 6131TIP3    H218400   4.965   0.213   4.113
 6132TIP3   OH218401   4.903   2.310   5.013
 6132TIP3    H118402   4.932   2.401   5.017
 6132TIP3    H218403   4.966   2.263   5.068
 6133TIP3   OH218404   2.617   2.989   0.899
 6133TIP3    H118405   2.588   2.954   0.983
 6133TIP3    H218406   2.555   2.953   0.835
 6134TIP3   OH218407   4.996   5.800   0.084
 6134TIP3    H118408   4.907   5.782   0.115
 6134TIP3    H218409   5.043   5.718   0.096
 6135TIP3   OH218410   4.555   0.799   1.456
 6135TIP3    H118411   4.461   0.786   1.445
 6135TIP3    H218412   4.570   0.782   1.549
 6136TIP3   OH218413   3.682   1.275   1.747
 6136TIP3    H118414   3.647   1.360   1.720
 6136TIP3    H218415   3.712   1.234   1.665
 6137TIP3   OH218416   3.808   3.521   1.399
 6137TIP3    H118417   3.774   3.576   1.469
 6137TIP3    H218418   3.789   3.571   1.319
 6138TIP3   OH218419   4.554   0.334   4.667
 6138TIP3    H118420   4.578   0.262   4.726
 6138TIP3    H218421   4.621   0.332   4.598
 6139TIP3   OH218422   4.945   4.172   1.783
 6139TIP3    H118423   5.001   4.198   1.710
 6139TIP3    H218424   4.905   4.253   1.815
 6140TIP3   OH218425   3.654   3.745   3.685
 6140TIP3    H118426   3.611   3.830   3.692
 6140TIP3    H218427   3.748   3.765   3.690
 6141TIP3   OH218428   1.784   4.610   2.301
 6141TIP3    H118429   1.772   4.525   2.343
 6141TIP3    H218430   1.840   4.592   2.226
 6142TIP3   OH218431   1.144   1.222   3.506
 6142TIP3    H118432   1.131   1.262   3.592
 6142TIP3    H218433   1.202   1.283   3.460
 6143TIP3   OH218434   5.074   1.298   0.524
 6143TIP3    H118435   5.036   1.239   0.590
 6143TIP3    H218436   5.166   1.305   0.548
 6144TIP3   OH218437   1.628   4.726   0.554
 6144TIP3    H118438   1.689   4.784   0.508
 6144TIP3    H218439   1.647   4.739   0.646
 6145TIP3   OH218440   5.393   3.712   3.892
 6145TIP3    H118441   5.454   3.645   3.924
 6145TIP3    H218442   5.377   3.688   3.800
 6146TIP3   OH218443   6.348   1.066   1.546
 6146TIP3    H118444   6.332   1.160   1.551
 6146TIP3    H218445   6.272   1.031   1.500
 6147TIP3   OH218446   5.928   4.099   3.321
 6147TIP3    H118447   5.937   4.136   3.233
 6147TIP3    H218448   5.989   4.150   3.374
 6148TIP3   OH218449   2.205   4.482   4.925
 6148TIP3    H118450   2.116   4.469   4.958
 6148TIP3    H218451   2.194   4.494   4.831
 6149TIP3   OH218452   2.555   0.241   0.590
 6149TIP3    H118453   2.588   0.317   0.639
 6149TIP3    H218454   2.557   0.270   0.499
 6150TIP3   OH218455   2.429   2.057   4.099
 6150TIP3    H118456   2.478   2.080   4.178
 6150TIP3    H218457   2.412   1.963   4.108
 6151TIP3   OH218458   3.161   0.229   1.401
 6151TIP3    H118459   3.072   0.263   1.391
 6151TIP3    H218460   3.173   0.169   1.327
 6152TIP3   OH218461   3.959   1.828   3.044
 6152TIP3    H118462   3.993   1.917   3.047
 6152TIP3    H218463   3.976   1.798   2.955
 6153TIP3   OH218464   4.874   2.944   0.716
 6153TIP3    H118465   4.807   2.902   0.662
 6153TIP3    H218466   4.921   3.000   0.655
 6154TIP3   OH218467   4.027   1.800   0.707
 6154TIP3    H118468   4.037   1.831   0.617
 6154TIP3    H218469   3.977   1.718   0.699
 6155TIP3   OH218470   0.125   5.114   1.558
 6155TIP3    H118471   0.055   5.092   1.496
 6155TIP3    H218472   0.092   5.191   1.605
 6156TIP3   OH218473   3.167   3.222   4.215
 6156TIP3    H118474   3.179   3.299   4.159
 6156TIP3    H218475   3.250   3.175   4.210
 6157TIP3   OH218476   4.507   5.610   3.214
 6157TIP3    H118477   4.483   5.702   3.206
 6157TIP3    H218478   4.507   5.577   3.125
 6158TIP3   OH218479   4.742   0.404   4.465
 6158TIP3    H118480   4.714   0.450   4.385
 6158TIP3    H218481   4.793   0.330   4.433
 6159TIP3   OH218482   0.365   1.875   3.298
 6159TIP3    H118483   0.279   1.918   3.288
 6159TIP3    H218484   0.426   1.948   3.312
 6160TIP3   OH218485   5.511   4.655   4.610
 6160TIP3    H118486   5.468   4.706   4.678
 6160TIP3    H218487   5.560   4.719   4.558
 6161TIP3   OH218488   0.939   1.537   5.125
 6161TIP3    H118489   0.891   1.496   5.054
 6161TIP3    H218490   0.955   1.627   5.095
 6162TIP3   OH218491   6.162   0.309   2.412
 6162TIP3    H118492   6.184   0.261   2.491
 6162TIP3    H218493   6.070   0.335   2.425
 6163TIP3   OH218494   5.145   4.013   2.747
 6163TIP3    H118495   5.055   3.982   2.746
 6163TIP3    H218496   5.159   4.048   2.659
 6164TIP3   OH218497   3.976   2.700   4.315
 6164TIP3    H118498   3.963   2.715   4.409
 6164TIP3    H218499   3.904   2.643   4.289
 6165TIP3   OH218500   5.734   0.053   2.966
 6165TIP3    H118501   5.792   0.121   2.931
 6165TIP3    H218502   5.691   0.096   3.040
 6166TIP3   OH218503   2.726   2.386   3.535
 6166TIP3    H118504   2.681   2.309   3.569
 6166TIP3    H218505   2.819   2.361   3.534
 6167TIP3   OH218506   5.039   2.344   1.333
 6167TIP3    H118507   5.060   2.365   1.423
 6167TIP3    H218508   5.043   2.249   1.329
 6168TIP3   OH218509   2.565   2.222   4.304
 6168TIP3    H118510   2.621   2.287   4.260
 6168TIP3    H218511   2.561   2.251   4.395
 6169TIP3   OH218512   1.334   3.972   2.703
 6169TIP3    H118513   1.389   3.897   2.682
 6169TIP3    H218514   1.253   3.957   2.655
 6170TIP3   OH218515   6.057   0.586   3.907
 6170TIP3    H118516   6.054   0.672   3.866
 6170TIP3    H218517   5.965   0.565   3.925
 6171TIP3   OH218518   5.044   3.072   2.566
 6171TIP3    H118519   4.982   3.125   2.515
 6171TIP3    H218520   5.083   3.013   2.502
 6172TIP3   OH218521   0.945   5.330   2.880
 6172TIP3    H118522   1.021   5.318   2.937
 6172TIP3    H218523   0.939   5.425   2.868
 6173TIP3   OH218524   5.933   3.831   3.472
 6173TIP3    H118525   6.016   3.839   3.519
 6173TIP3    H218526   5.924   3.914   3.426
 6174TIP3   OH218527   3.095   3.377   2.323
 6174TIP3    H118528   3.186   3.378   2.353
 6174TIP3    H218529   3.054   3.451   2.367
 6175TIP3   OH218530   4.477   0.723   4.990
 6175TIP3    H118531   4.555   0.730   5.045
 6175TIP3    H218532   4.492   0.784   4.918
 6176TIP3   OH218533   0.666   4.374   4.817
 6176TIP3    H118534   0.693   4.326   4.895
 6176TIP3    H218535   0.583   4.414   4.841
 6177TIP3   OH218536   0.216   1.926   2.395
 6177TIP3    H118537   0.297   1.975   2.406
 6177TIP3    H218538   0.203   1.881   2.478
 6178TIP3   OH218539   1.607   5.405   1.177
 6178TIP3    H118540   1.523   5.447   1.162
 6178TIP3    H218541   1.604   5.376   1.268
 6179TIP3   OH218542   5.776   0.615   3.968
 6179TIP3    H118543   5.756   0.526   3.995
 6179TIP3    H218544   5.761   0.615   3.873
 6180TIP3   OH218545   1.186   5.174   1.483
 6180TIP3    H118546   1.264   5.181   1.538
 6180TIP3    H218547   1.134   5.251   1.504
 6181TIP3   OH218548   0.073   5.971   3.274
 6181TIP3    H118549  -0.018   6.000   3.286
 6181TIP3    H218550   0.078   5.889   3.323
 6182TIP3   OH218551   0.544   4.297   2.861
 6182TIP3    H118552   0.535   4.321   2.769
 6182TIP3    H218553   0.618   4.236   2.863
 6183TIP3   OH218554   5.133   1.943   3.821
 6183TIP3    H118555   5.150   2.002   3.747
 6183TIP3    H218556   5.195   1.871   3.808
 6184TIP3   OH218557   0.477   5.554   4.678
 6184TIP3    H118558   0.466   5.645   4.703
 6184TIP3    H218559   0.401   5.535   4.623
 6185TIP3   OH218560   0.720   2.869   2.907
 6185TIP3    H118561   0.671   2.927   2.849
 6185TIP3    H218562   0.720   2.915   2.991
 6186TIP3   OH218563   4.713   4.611   5.020
 6186TIP3    H118564   4.748   4.584   4.935
 6186TIP3    H218565   4.667   4.693   5.002
 6187TIP3   OH218566   1.625   2.482   4.784
 6187TIP3    H118567   1.540   2.493   4.826
 6187TIP3    H218568   1.613   2.514   4.695
 6188TIP3   OH218569   5.447   1.244   4.712
 6188TIP3    H118570   5.442   1.292   4.794
 6188TIP3    H218571   5.370   1.187   4.713
 6189TIP3   OH218572   1.684   0.588   3.466
 6189TIP3    H118573   1.722   0.596   3.554
 6189TIP3    H218574   1.712   0.667   3.421
 6190TIP3   OH218575   5.221   1.293   3.620
 6190TIP3    H118576   5.221   1.256   3.708
 6190TIP3    H218577   5.136   1.270   3.583
 6191TIP3   OH218578   5.556   2.454   3.037
 6191TIP3    H118579   5.550   2.542   3.073
 6191TIP3    H218580   5.604   2.465   2.955
 6192TIP3   OH218581   1.965   2.546   1.347
 6192TIP3    H118582   2.000   2.539   1.436
 6192TIP3    H218583   1.961   2.456   1.315
 6193TIP3   OH218584   1.729   2.863   2.104
 6193TIP3    H118585   1.675   2.807   2.159
 6193TIP3    H218586   1.689   2.949   2.111
 6194TIP3   OH218587   1.004   4.229   2.579
 6194TIP3    H118588   1.006   4.134   2.584
 6194TIP3    H218589   0.941   4.249   2.510
 6195TIP3   OH218590   2.653   3.105   1.570
 6195TIP3    H118591   2.735   3.147   1.544
 6195TIP3    H218592   2.663   3.089   1.664
 6196TIP3   OH218593   4.094   4.435   3.591
 6196TIP3    H118594   4.036   4.467   3.660
 6196TIP3    H218595   4.098   4.341   3.604
 6197TIP3   OH218596   1.833   5.556   1.213
 6197TIP3    H118597   1.767   5.501   1.172
 6197TIP3    H218598   1.899   5.569   1.145
 6198TIP3   OH218599   0.443   2.219   3.565
 6198TIP3    H118600   0.486   2.161   3.628
 6198TIP3    H218601   0.350   2.197   3.572
 6199TIP3   OH218602   0.869   2.736   1.998
 6199TIP3    H118603   0.849   2.741   1.905
 6199TIP3    H218604   0.888   2.643   2.014
 6200TIP3   OH218605   1.817   0.573   0.139
 6200TIP3    H118606   1.873   0.496   0.135
 6200TIP3    H218607   1.856   0.634   0.076
 6201TIP3   OH218608   1.959   4.420   5.036
 6201TIP3    H118609   1.916   4.336   5.018
 6201TIP3    H218610   1.983   4.415   5.129
 6202TIP3   OH218611   4.238   1.691   1.790
 6202TIP3    H118612   4.301   1.762   1.802
 6202TIP3    H218613   4.177   1.701   1.863
 6203TIP3   OH218614   2.836   0.675   3.546
 6203TIP3    H118615   2.747   0.710   3.551
 6203TIP3    H218616   2.888   0.732   3.603
 6204TIP3   OH218617   3.069   5.711   0.459
 6204TIP3    H118618   3.164   5.715   0.446
 6204TIP3    H218619   3.038   5.800   0.442
 6205TIP3   OH218620   3.423   1.633   4.695
 6205TIP3    H118621   3.396   1.579   4.769
 6205TIP3    H218622   3.342   1.650   4.647
 6206TIP3   OH218623   2.225   3.215   2.191
 6206TIP3    H118624   2.155   3.150   2.195
 6206TIP3    H218625   2.297   3.171   2.146
 6207TIP3   OH218626   3.223   1.944   4.728
 6207TIP3    H118627   3.231   1.914   4.819
 6207TIP3    H218628   3.133   1.920   4.703
 6208TIP3   OH218629   3.839   4.900   4.580
 6208TIP3    H118630   3.848   4.833   4.511
 6208TIP3    H218631   3.927   4.910   4.615
 6209TIP3   OH218632   3.892   4.001   0.051
 6209TIP3    H118633   3.817   4.020  -0.005
 6209TIP3    H218634   3.961   4.060   0.021
 6210TIP3   OH218635   1.874   2.759   2.434
 6210TIP3    H118636   1.790   2.768   2.388
 6210TIP3    H218637   1.937   2.804   2.377
 6211TIP3   OH218638   3.139   5.403   5.160
 6211TIP3    H118639   3.205   5.346   5.201
 6211TIP3    H218640   3.067   5.343   5.137
 6212TIP3   OH218641  -0.007   4.942   2.497
 6212TIP3    H118642   0.069   4.942   2.556
 6212TIP3    H218643   0.027   4.975   2.414
 6213TIP3   OH218644   1.808   4.901   1.371
 6213TIP3    H118645   1.717   4.886   1.398
 6213TIP3    H218646   1.809   4.990   1.338
 6214TIP3   OH218647   1.590   2.906   5.023
 6214TIP3    H118648   1.619   2.976   5.081
 6214TIP3    H218649   1.642   2.917   4.944
 6215TIP3   OH218650   4.069   3.341   3.920
 6215TIP3    H118651   4.004   3.376   3.858
 6215TIP3    H218652   4.126   3.415   3.939
 6216TIP3   OH218653   0.799   0.392   4.566
 6216TIP3    H118654   0.757   0.471   4.533
 6216TIP3    H218655   0.888   0.420   4.589
 6217TIP3   OH218656   4.796   1.290   3.860
 6217TIP3    H118657   4.751   1.249   3.934
 6217TIP3    H218658   4.758   1.249   3.783
 6218TIP3   OH218659   2.964   2.049   3.158
 6218TIP3    H118660   2.874   2.036   3.128
 6218TIP3    H218661   2.957   2.054   3.253
 6219TIP3   OH218662   4.620   2.901   3.380
 6219TIP3    H118663   4.529   2.883   3.356
 6219TIP3    H218664   4.614   2.964   3.451
 6220TIP3   OH218665   6.298   2.477   2.204
 6220TIP3    H118666   6.240   2.517   2.269
 6220TIP3    H218667   6.344   2.408   2.252
 6221TIP3   OH218668   4.542   2.142   3.943
 6221TIP3    H118669   4.601   2.153   3.868
 6221TIP3    H218670   4.475   2.210   3.931
 6222TIP3   OH218671   4.953   3.179   5.043
 6222TIP3    H118672   4.903   3.167   4.962
 6222TIP3    H218673   5.034   3.221   5.015
 6223TIP3   OH218674   4.168   5.581   4.022
 6223TIP3    H118675   4.106   5.619   3.960
 6223TIP3    H218676   4.235   5.541   3.966
 6224TIP3   OH218677   0.942   2.411   4.876
 6224TIP3    H118678   0.889   2.436   4.800
 6224TIP3    H218679   0.879   2.378   4.940
 6225TIP3   OH218680   0.874   1.253   0.311
 6225TIP3    H118681   0.879   1.259   0.216
 6225TIP3    H218682   0.957   1.287   0.342
 6226TIP3   OH218683   4.343   5.359   1.399
 6226TIP3    H118684   4.408   5.346   1.330
 6226TIP3    H218685   4.394   5.374   1.478
 6227TIP3   OH218686   2.200   5.338   3.461
 6227TIP3    H118687   2.189   5.304   3.372
 6227TIP3    H218688   2.244   5.268   3.509
 6228TIP3   OH218689   2.772   5.717   2.519
 6228TIP3    H118690   2.695   5.667   2.492
 6228TIP3    H218691   2.846   5.664   2.490
 6229TIP3   OH218692   0.217   2.473   4.318
 6229TIP3    H118693   0.161   2.531   4.266
 6229TIP3    H218694   0.305   2.486   4.283
 6230TIP3   OH218695   0.381   2.057   3.821
 6230TIP3    H118696   0.453   2.040   3.761
 6230TIP3    H218697   0.381   1.982   3.881
 6231TIP3   OH218698   1.131   2.532   0.823
 6231TIP3    H118699   1.048   2.496   0.853
 6231TIP3    H218700   1.111   2.622   0.799
 6232TIP3   OH218701   1.976   2.169   4.166
 6232TIP3    H118702   2.041   2.145   4.232
 6232TIP3    H218703   2.024   2.224   4.104
 6233TIP3   OH218704   6.204   4.250   0.301
 6233TIP3    H118705   6.227   4.169   0.345
 6233TIP3    H218706   6.286   4.299   0.296
 6234TIP3   OH218707   2.560   5.497   2.497
 6234TIP3    H118708   2.534   5.442   2.571
 6234TIP3    H218709   2.629   5.447   2.454
 6235TIP3   OH218710   1.215   1.663   1.834
 6235TIP3    H118711   1.144   1.641   1.774
 6235TIP3    H218712   1.187   1.743   1.878
 6236TIP3   OH218713   6.093   3.602   4.280
 6236TIP3    H118714   6.103   3.697   4.276
 6236TIP3    H218715   6.164   3.573   4.338
 6237TIP3   OH218716   5.416   5.526   2.119
 6237TIP3    H118717   5.362   5.458   2.158
 6237TIP3    H218718   5.495   5.481   2.088
 6238TIP3   OH218719   4.066   5.877   1.120
 6238TIP3    H118720   4.145   5.925   1.146
 6238TIP3    H218721   4.012   5.944   1.077
 6239TIP3   OH218722   4.885   0.267   2.096
 6239TIP3    H118723   4.813   0.246   2.037
 6239TIP3    H218724   4.942   0.190   2.093
 6240TIP3   OH218725   2.122   2.313   3.654
 6240TIP3    H118726   2.094   2.401   3.678
 6240TIP3    H218727   2.066   2.255   3.706
 6241TIP3   OH218728   1.697   2.833   0.661
 6241TIP3    H118729   1.714   2.828   0.755
 6241TIP3    H218730   1.704   2.742   0.630
 6242TIP3   OH218731   0.505   0.460   4.348
 6242TIP3    H118732   0.480   0.476   4.257
 6242TIP3    H218733   0.558   0.380   4.346
 6243TIP3   OH218734   1.797   4.700   4.963
 6243TIP3    H118735   1.844   4.634   5.015
 6243TIP3    H218736   1.790   4.661   4.876
 6244TIP3   OH218737   2.546   1.698   2.303
 6244TIP3    H118738   2.642   1.697   2.311
 6244TIP3    H218739   2.528   1.651   2.222
 6245TIP3   OH218740   0.637   2.433   3.097
 6245TIP3    H118741   0.593   2.367   3.044
 6245TIP3    H218742   0.727   2.403   3.104
 6246TIP3   OH218743   5.211   4.999   2.810
 6246TIP3    H118744   5.193   5.043   2.727
 6246TIP3    H218745   5.220   5.071   2.873
 6247TIP3   OH218746   5.589   5.088   4.326
 6247TIP3    H118747   5.649   5.085   4.401
 6247TIP3    H218748   5.501   5.085   4.366
 6248TIP3   OH218749   1.667   4.501   2.788
 6248TIP3    H118750   1.575   4.509   2.766
 6248TIP3    H218751   1.699   4.592   2.790
 6249TIP3   OH218752   2.649   4.020   3.081
 6249TIP3    H118753   2.675   3.999   2.991
 6249TIP3    H218754   2.731   4.023   3.130
 6250TIP3   OH218755   6.058   4.577   0.368
 6250TIP3    H118756   6.118   4.580   0.294
 6250TIP3    H218757   6.058   4.665   0.404
 6251TIP3   OH218758   0.658   0.889   4.703
 6251TIP3    H118759   0.585   0.904   4.643
 6251TIP3    H218760   0.625   0.918   4.788
 6252TIP3   OH218761   2.483   2.758   1.592
 6252TIP3    H118762   2.400   2.794   1.622
 6252TIP3    H218763   2.528   2.730   1.672
 6253TIP3   OH218764   5.700   3.032   0.838
 6253TIP3    H118765   5.649   3.055   0.760
 6253TIP3    H218766   5.737   2.946   0.818
 6254TIP3   OH218767   4.096   5.132   2.181
 6254TIP3    H118768   4.041   5.092   2.113
 6254TIP3    H218769   4.165   5.068   2.196
 6255TIP3   OH218770   6.100   0.516   5.095
 6255TIP3    H118771   6.122   0.589   5.153
 6255TIP3    H218772   6.061   0.558   5.019
 6256TIP3   OH218773   3.587   0.024   0.395
 6256TIP3    H118774   3.636   0.105   0.384
 6256TIP3    H218775   3.640  -0.042   0.350
 6257TIP3   OH218776   0.250   3.037   3.844
 6257TIP3    H118777   0.244   2.942   3.854
 6257TIP3    H218778   0.344   3.055   3.843
 6258TIP3   OH218779   4.520   3.637   2.762
 6258TIP3    H118780   4.443   3.583   2.748
 6258TIP3    H218781   4.593   3.584   2.729
 6259TIP3   OH218782   1.401   0.566   0.943
 6259TIP3    H118783   1.316   0.572   0.899
 6259TIP3    H218784   1.385   0.597   1.032
 6260TIP3   OH218785   3.002   1.651   4.497
 6260TIP3    H118786   2.986   1.572   4.548
 6260TIP3    H218787   3.094   1.672   4.514
 6261TIP3   OH218788   1.175   4.756   2.192
 6261TIP3    H118789   1.268   4.742   2.210
 6261TIP3    H218790   1.131   4.683   2.234
 6262TIP3   OH218791   0.945   1.000   3.474
 6262TIP3    H118792   0.983   0.923   3.517
 6262TIP3    H218793   1.020   1.056   3.456
 6263TIP3   OH218794   3.155   1.325   3.099
 6263TIP3    H118795   3.132   1.295   3.011
 6263TIP3    H218796   3.073   1.358   3.135
 6264TIP3   OH218797   1.040   4.038   1.149
 6264TIP3    H118798   1.108   4.074   1.207
 6264TIP3    H218799   1.070   4.062   1.061
 6265TIP3   OH218800   4.574   3.856   1.076
 6265TIP3    H118801   4.495   3.812   1.106
 6265TIP3    H218802   4.643   3.790   1.084
 6266TIP3   OH218803   4.283   3.073   2.010
 6266TIP3    H118804   4.277   3.043   2.101
 6266TIP3    H218805   4.375   3.065   1.988
 6267TIP3   OH218806   6.069   4.506   4.636
 6267TIP3    H118807   6.086   4.532   4.546
 6267TIP3    H218808   5.992   4.556   4.662
 6268TIP3   OH218809   3.695   5.683   3.991
 6268TIP3    H118810   3.630   5.622   3.956
 6268TIP3    H218811   3.772   5.628   4.007
 6269TIP3   OH218812   4.026   2.628   4.623
 6269TIP3    H118813   4.053   2.651   4.712
 6269TIP3    H218814   4.009   2.534   4.626
 6270TIP3   OH218815   1.831   4.045   0.988
 6270TIP3    H118816   1.857   4.002   0.907
 6270TIP3    H218817   1.740   4.018   1.002
 6271TIP3   OH218818   5.724   1.991   1.722
 6271TIP3    H118819   5.663   1.919   1.707
 6271TIP3    H218820   5.728   2.001   1.817
 6272TIP3   OH218821   5.534   3.599   1.172
 6272TIP3    H118822   5.524   3.682   1.124
 6272TIP3    H218823   5.629   3.591   1.184
 6273TIP3   OH218824   3.801   2.647   0.455
 6273TIP3    H118825   3.814   2.740   0.475
 6273TIP3    H218826   3.827   2.639   0.363
 6274TIP3   OH218827   4.616   3.688   1.606
 6274TIP3    H118828   4.572   3.768   1.579
 6274TIP3    H218829   4.705   3.697   1.573
 6275TIP3   OH218830   0.656   2.124   3.979
 6275TIP3    H118831   0.702   2.131   4.063
 6275TIP3    H218832   0.564   2.113   4.003
 6276TIP3   OH218833   3.802   3.676   1.165
 6276TIP3    H118834   3.865   3.617   1.122
 6276TIP3    H218835   3.834   3.764   1.143
 6277TIP3   OH218836   2.178   1.997   2.973
 6277TIP3    H118837   2.122   2.050   3.029
 6277TIP3    H218838   2.224   1.938   3.034
 6278TIP3   OH218839   2.956   3.428   0.986
 6278TIP3    H118840   2.892   3.374   1.031
 6278TIP3    H218841   2.912   3.457   0.906
 6279TIP3   OH218842   4.034   0.695   4.831
 6279TIP3    H118843   4.067   0.677   4.919
 6279TIP3    H218844   3.978   0.772   4.842
 6280TIP3   OH218845   3.629   4.536   2.266
 6280TIP3    H118846   3.640   4.471   2.336
 6280TIP3    H218847   3.696   4.601   2.283
 6281TIP3   OH218848   3.964   0.123   1.803
 6281TIP3    H118849   3.895   0.088   1.748
 6281TIP3    H218850   3.937   0.101   1.892
 6282TIP3   OH218851   3.396   2.246   4.480
 6282TIP3    H118852   3.337   2.270   4.551
 6282TIP3    H218853   3.456   2.183   4.519
 6283TIP3   OH218854   5.670   5.712   3.888
 6283TIP3    H118855   5.641   5.623   3.905
 6283TIP3    H218856   5.704   5.710   3.799
 6284TIP3   OH218857   2.413   1.135   2.835
 6284TIP3    H118858   2.404   1.207   2.773
 6284TIP3    H218859   2.457   1.066   2.786
 6285TIP3   OH218860   5.337   3.529   3.186
 6285TIP3    H118861   5.248   3.544   3.216
 6285TIP3    H218862   5.352   3.597   3.121
 6286TIP3   OH218863   5.375   0.817   2.820
 6286TIP3    H118864   5.350   0.824   2.728
 6286TIP3    H218865   5.443   0.884   2.831
 6287TIP3   OH218866   3.133   5.305   4.042
 6287TIP3    H118867   3.199   5.290   4.110
 6287TIP3    H218868   3.143   5.230   3.982
 6288TIP3   OH218869   4.720   5.732   0.142
 6288TIP3    H118870   4.687   5.663   0.199
 6288TIP3    H218871   4.678   5.717   0.058
 6289TIP3   OH218872   5.498   2.268   2.128
 6289TIP3    H118873   5.546   2.335   2.176
 6289TIP3    H218874   5.486   2.306   2.041
 6290TIP3   OH218875   1.738   1.571   1.378
 6290TIP3    H118876   1.692   1.487   1.385
 6290TIP3    H218877   1.681   1.624   1.322
 6291TIP3   OH218878   2.707   3.002   4.559
 6291TIP3    H118879   2.680   3.039   4.643
 6291TIP3    H218880   2.747   2.918   4.582
 6292TIP3   OH218881   3.598   0.911   3.849
 6292TIP3    H118882   3.650   0.867   3.781
 6292TIP3    H218883   3.616   0.861   3.928
 6293TIP3   OH218884   5.702   1.437   3.035
 6293TIP3    H118885   5.779   1.482   3.069
 6293TIP3    H218886   5.697   1.464   2.943
 6294TIP3   OH218887   4.681   1.754   3.844
 6294TIP3    H118888   4.686   1.682   3.906
 6294TIP3    H218889   4.769   1.761   3.808
 6295TIP3   OH218890   1.087   4.994   0.373
 6295TIP3    H118891   1.157   4.988   0.438
 6295TIP3    H218892   1.007   4.984   0.424
 6296TIP3   OH218893   0.661   2.320   1.972
 6296TIP3    H118894   0.592   2.263   1.938
 6296TIP3    H218895   0.648   2.403   1.926
 6297TIP3   OH218896   5.903   0.411   4.609
 6297TIP3    H118897   5.930   0.443   4.695
 6297TIP3    H218898   5.852   0.333   4.628
 6298TIP3   OH218899   4.254   4.677   3.525
 6298TIP3    H118900   4.200   4.746   3.561
 6298TIP3    H218901   4.194   4.602   3.515
 6299TIP3   OH218902   1.544   5.272   3.756
 6299TIP3    H118903   1.534   5.183   3.788
 6299TIP3    H218904   1.620   5.307   3.803
 6300TIP3   OH218905   1.323   3.281   4.026
 6300TIP3    H118906   1.324   3.200   4.078
 6300TIP3    H218907   1.277   3.257   3.945
 6301TIP3   OH218908   4.684   0.234   0.435
 6301TIP3    H118909   4.773   0.253   0.407
 6301TIP3    H218910   4.693   0.202   0.525
 6302TIP3   OH218911   0.786   0.074   0.098
 6302TIP3    H118912   0.758   0.048   0.186
 6302TIP3    H218913   0.792  -0.007   0.049
 6303TIP3   OH218914   2.464   2.873   4.135
 6303TIP3    H118915   2.496   2.944   4.078
 6303TIP3    H218916   2.542   2.844   4.182
 6304TIP3   OH218917   2.774   0.768   1.034
 6304TIP3    H118918   2.823   0.730   1.107
 6304TIP3    H218919   2.839   0.813   0.981
 6305TIP3   OH218920   4.672   1.516   2.780
 6305TIP3    H118921   4.681   1.479   2.868
 6305TIP3    H218922   4.663   1.440   2.723
 6306TIP3   OH218923   1.275   0.430   0.250
 6306TIP3    H118924   1.190   0.393   0.225
 6306TIP3    H218925   1.285   0.507   0.195
 6307TIP3   OH218926   2.521   4.220   4.606
 6307TIP3    H118927   2.601   4.273   4.602
 6307TIP3    H218928   2.480   4.244   4.689
 6308TIP3   OH218929   3.259   1.119   4.468
 6308TIP3    H118930   3.313   1.177   4.520
 6308TIP3    H218931   3.318   1.047   4.443
 6309TIP3   OH218932   3.236   5.024   4.918
 6309TIP3    H118933   3.173   5.047   4.986
 6309TIP3    H218934   3.209   4.936   4.890
 6310TIP3   OH218935   0.839   1.324   3.850
 6310TIP3    H118936   0.812   1.343   3.760
 6310TIP3    H218937   0.772   1.264   3.883
 6311TIP3   OH218938   5.003   0.383   2.802
 6311TIP3    H118939   5.045   0.446   2.743
 6311TIP3    H218940   5.076   0.347   2.853
 6312TIP3   OH218941   5.389   1.974   4.045
 6312TIP3    H118942   5.368   1.929   3.963
 6312TIP3    H218943   5.366   2.065   4.029
 6313TIP3   OH218944   3.723   1.195   1.506
 6313TIP3    H118945   3.789   1.130   1.482
 6313TIP3    H218946   3.768   1.279   1.494
 6314TIP3   OH218947   1.296   4.323   2.292
 6314TIP3    H118948   1.332   4.303   2.378
 6314TIP3    H218949   1.273   4.237   2.256
 6315TIP3   OH218950   1.029   2.401   3.551
 6315TIP3    H118951   0.999   2.490   3.534
 6315TIP3    H218952   1.090   2.410   3.624
 6316TIP3   OH218953   6.310   5.114   1.964
 6316TIP3    H118954   6.268   5.072   1.890
 6316TIP3    H218955   6.402   5.120   1.941
 6317TIP3   OH218956   1.111   5.735   3.658
 6317TIP3    H118957   1.036   5.785   3.627
 6317TIP3    H218958   1.166   5.799   3.703
 6318TIP3   OH218959   4.886   4.673   1.612
 6318TIP3    H118960   4.828   4.705   1.544
 6318TIP3    H218961   4.927   4.595   1.574
 6319TIP3   OH218962   2.323   1.471   0.267
 6319TIP3    H118963   2.303   1.378   0.262
 6319TIP3    H218964   2.346   1.495   0.177
 6320TIP3   OH218965   2.034   0.224   2.764
 6320TIP3    H118966   2.097   0.206   2.694
 6320TIP3    H218967   2.087   0.260   2.835
 6321TIP3   OH218968   0.342   5.400   1.745
 6321TIP3    H118969   0.271   5.435   1.691
 6321TIP3    H218970   0.381   5.332   1.691
 6322TIP3   OH218971   2.196   4.426   4.368
 6322TIP3    H118972   2.125   4.393   4.312
 6322TIP3    H218973   2.262   4.356   4.368
 6323TIP3   OH218974   5.763   1.360   4.423
 6323TIP3    H118975   5.735   1.389   4.336
 6323TIP3    H218976   5.711   1.281   4.440
 6324TIP3   OH218977   5.906   2.097   0.265
 6324TIP3    H118978   5.904   2.002   0.282
 6324TIP3    H218979   5.953   2.105   0.181
 6325TIP3   OH218980   4.230   1.085   1.435
 6325TIP3    H118981   4.249   1.036   1.515
 6325TIP3    H218982   4.283   1.164   1.442
 6326TIP3   OH218983   1.883   4.008   2.075
 6326TIP3    H118984   1.844   3.940   2.130
 6326TIP3    H218985   1.828   4.008   1.996
 6327TIP3   OH218986   2.890   4.013   0.412
 6327TIP3    H118987   2.934   3.990   0.331
 6327TIP3    H218988   2.960   4.040   0.471
 6328TIP3   OH218989   0.410   0.754   4.940
 6328TIP3    H118990   0.373   0.699   4.870
 6328TIP3    H218991   0.471   0.697   4.986
 6329TIP3   OH218992   0.789   1.819   3.695
 6329TIP3    H118993   0.814   1.825   3.603
 6329TIP3    H218994   0.855   1.761   3.734
 6330TIP3   OH218995   2.599   4.865   2.205
 6330TIP3    H118996   2.518   4.877   2.155
 6330TIP3    H218997   2.601   4.772   2.225
 6331TIP3   OH218998   0.387   0.288   4.866
 6331TIP3    H118999   0.469   0.315   4.907
 6331TIP3    H219000   0.397   0.314   4.774
 6332TIP3   OH219001   3.279   3.170   0.654
 6332TIP3    H119002   3.222   3.110   0.604
 6332TIP3    H219003   3.222   3.243   0.676
 6333TIP3   OH219004   3.194   2.484   2.764
 6333TIP3    H119005   3.173   2.426   2.690
 6333TIP3    H219006   3.280   2.454   2.794
 6334TIP3   OH219007   4.313   0.397   4.100
 6334TIP3    H119008   4.374   0.324   4.112
 6334TIP3    H219009   4.282   0.418   4.188
 6335TIP3   OH219010   3.784   0.397   2.965
 6335TIP3    H119011   3.747   0.437   3.043
 6335TIP3    H219012   3.872   0.372   2.990
 6336TIP3   OH219013   0.412   2.061   2.728
 6336TIP3    H119014   0.400   2.114   2.649
 6336TIP3    H219015   0.324   2.035   2.753
 6337TIP3   OH219016   2.479   1.603   2.860
 6337TIP3    H119017   2.543   1.534   2.874
 6337TIP3    H219018   2.462   1.602   2.766
 6338TIP3   OH219019   1.229   4.631   3.131
 6338TIP3    H119020   1.152   4.678   3.163
 6338TIP3    H219021   1.194   4.565   3.071
 6339TIP3   OH219022   3.256   2.437   3.894
 6339TIP3    H119023   3.287   2.494   3.965
 6339TIP3    H219024   3.268   2.349   3.928
 6340TIP3   OH219025   4.966   3.565   1.958
 6340TIP3    H119026   4.944   3.482   1.915
 6340TIP3    H219027   4.894   3.581   2.018
 6341TIP3   OH219028   4.724   2.569   2.908
 6341TIP3    H119029   4.802   2.614   2.941
 6341TIP3    H219030   4.741   2.556   2.815
 6342TIP3   OH219031   5.280   5.840   5.000
 6342TIP3    H119032   5.345   5.824   5.068
 6342TIP3    H219033   5.203   5.791   5.029
 6343TIP3   OH219034   5.095   3.154   1.999
 6343TIP3    H119035   5.015   3.207   2.003
 6343TIP3    H219036   5.158   3.209   1.952
 6344TIP3   OH219037   1.575   3.558   0.898
 6344TIP3    H119038   1.656   3.597   0.864
 6344TIP3    H219039   1.577   3.577   0.992
 6345TIP3   OH219040   1.216   4.495   3.434
 6345TIP3    H119041   1.176   4.418   3.395
 6345TIP3    H219042   1.308   4.471   3.445
 6346TIP3   OH219043   5.200   1.045   1.851
 6346TIP3    H119044   5.111   1.028   1.820
 6346TIP3    H219045   5.246   0.962   1.838
 6347TIP3   OH219046   2.670   3.468   3.918
 6347TIP3    H119047   2.609   3.533   3.954
 6347TIP3    H219048   2.668   3.396   3.981
 6348TIP3   OH219049   4.296   2.467   2.603
 6348TIP3    H119050   4.261   2.392   2.554
 6348TIP3    H219051   4.273   2.449   2.694
 6349TIP3   OH219052   3.238   5.031   3.380
 6349TIP3    H119053   3.272   4.981   3.455
 6349TIP3    H219054   3.153   4.990   3.361
 6350TIP3   OH219055   1.425   5.002  -0.015
 6350TIP3    H119056   1.360   4.932  -0.012
 6350TIP3    H219057   1.417   5.045   0.071
 6351TIP3   OH219058   5.887   5.790   3.402
 6351TIP3    H119059   5.966   5.754   3.442
 6351TIP3    H219060   5.898   5.885   3.407
 6352TIP3   OH219061   3.646   3.254   2.056
 6352TIP3    H119062   3.557   3.226   2.074
 6352TIP3    H219063   3.701   3.199   2.112
 6353TIP3   OH219064   2.064   3.070   2.363
 6353TIP3    H119065   2.139   3.056   2.421
 6353TIP3    H219066   2.048   2.984   2.324
 6354TIP3   OH219067   5.775   4.990   4.934
 6354TIP3    H119068   5.695   4.995   4.882
 6354TIP3    H219069   5.751   5.023   5.020
 6355TIP3   OH219070   4.971   3.966   3.518
 6355TIP3    H119071   5.042   4.026   3.495
 6355TIP3    H219072   4.985   3.945   3.610
 6356TIP3   OH219073   2.085   0.949   0.268
 6356TIP3    H119074   2.149   0.878   0.265
 6356TIP3    H219075   2.001   0.906   0.256
 6357TIP3   OH219076   1.327   3.845   1.050
 6357TIP3    H119077   1.275   3.834   1.130
 6357TIP3    H219078   1.267   3.824   0.979
 6358TIP3   OH219079   4.546   3.054   0.073
 6358TIP3    H119080   4.605   3.084   0.142
 6358TIP3    H219081   4.556   2.959   0.073
 6359TIP3   OH219082   1.819   0.333   1.551
 6359TIP3    H119083   1.822   0.409   1.611
 6359TIP3    H219084   1.727   0.307   1.551
 6360TIP3   OH219085   3.185   0.111   3.721
 6360TIP3    H119086   3.135   0.029   3.717
 6360TIP3    H219087   3.233   0.105   3.803
 6361TIP3   OH219088   2.560   5.535   1.750
 6361TIP3    H119089   2.640   5.513   1.703
 6361TIP3    H219090   2.548   5.629   1.736
 6362TIP3   OH219091   5.280   4.671   1.761
 6362TIP3    H119092   5.304   4.663   1.853
 6362TIP3    H219093   5.254   4.582   1.735
 6363TIP3   OH219094   1.910   3.229   4.867
 6363TIP3    H119095   1.996   3.268   4.850
 6363TIP3    H219096   1.914   3.204   4.960
 6364TIP3   OH219097   5.070   2.522   4.674
 6364TIP3    H119098   5.109   2.582   4.610
 6364TIP3    H219099   5.133   2.520   4.747
 6365TIP3   OH219100   1.474   1.319   2.961
 6365TIP3    H119101   1.480   1.228   2.990
 6365TIP3    H219102   1.511   1.370   3.033
 6366TIP3   OH219103   0.274   0.920   2.714
 6366TIP3    H119104   0.340   0.954   2.654
 6366TIP3    H219105   0.317   0.919   2.800
 6367TIP3   OH219106   1.421   2.464   1.872
 6367TIP3    H119107   1.432   2.405   1.947
 6367TIP3    H219108   1.503   2.514   1.868
 6368TIP3   OH219109   3.694   2.336   0.877
 6368TIP3    H119110   3.672   2.244   0.893
 6368TIP3    H219111   3.664   2.352   0.787
 6369TIP3   OH219112   0.843   3.366   3.053
 6369TIP3    H119113   0.792   3.372   2.972
 6369TIP3    H219114   0.901   3.292   3.039
 6370TIP3   OH219115   0.483   1.026   1.542
 6370TIP3    H119116   0.475   1.088   1.469
 6370TIP3    H219117   0.430   0.951   1.515
 6371TIP3   OH219118   5.472   3.042   3.089
 6371TIP3    H119119   5.404   3.102   3.121
 6371TIP3    H219120   5.446   3.022   2.999
 6372TIP3   OH219121   4.772   1.926   0.459
 6372TIP3    H119122   4.737   1.847   0.418
 6372TIP3    H219123   4.768   1.992   0.390
 6373TIP3   OH219124   0.926   1.419   0.955
 6373TIP3    H119125   0.911   1.481   1.027
 6373TIP3    H219126   0.938   1.474   0.878
 6374TIP3   OH219127   1.395   1.245   0.410
 6374TIP3    H119128   1.434   1.248   0.497
 6374TIP3    H219129   1.303   1.268   0.424
 6375TIP3   OH219130   5.104   4.417   1.164
 6375TIP3    H119131   5.093   4.503   1.123
 6375TIP3    H219132   5.199   4.404   1.168
 6376TIP3   OH219133   1.727   0.051   3.482
 6376TIP3    H119134   1.727   0.106   3.560
 6376TIP3    H219135   1.813   0.065   3.443
 6377TIP3   OH219136   6.249   3.982   0.119
 6377TIP3    H119137   6.245   4.041   0.194
 6377TIP3    H219138   6.195   4.024   0.052
 6378TIP3   OH219139   5.265   0.306   1.546
 6378TIP3    H119140   5.333   0.246   1.515
 6378TIP3    H219141   5.187   0.282   1.496
 6379TIP3   OH219142   1.319   5.477   1.197
 6379TIP3    H119143   1.292   5.568   1.188
 6379TIP3    H219144   1.251   5.427   1.151
 6380TIP3   OH219145   2.415   3.917   4.089
 6380TIP3    H119146   2.426   3.890   4.181
 6380TIP3    H219147   2.346   3.982   4.091
 6381TIP3   OH219148   1.723   4.239   4.809
 6381TIP3    H119149   1.663   4.314   4.807
 6381TIP3    H219150   1.690   4.183   4.879
 6382TIP3   OH219151   2.844   3.737   4.557
 6382TIP3    H119152   2.865   3.749   4.465
 6382TIP3    H219153   2.788   3.812   4.579
 6383TIP3   OH219154   2.067   1.874   2.746
 6383TIP3    H119155   1.977   1.909   2.740
 6383TIP3    H219156   2.103   1.916   2.824
 6384TIP3   OH219157   5.549   1.956   4.665
 6384TIP3    H119158   5.504   1.884   4.710
 6384TIP3    H219159   5.534   2.032   4.720
 6385TIP3   OH219160   1.363   4.033   5.056
 6385TIP3    H119161   1.441   4.008   5.006
 6385TIP3    H219162   1.309   3.954   5.059
 6386TIP3   OH219163   0.973   1.548   4.739
 6386TIP3    H119164   0.965   1.616   4.672
 6386TIP3    H219165   1.060   1.562   4.776
 6387TIP3   OH219166   5.425   1.709   1.198
 6387TIP3    H119167   5.503   1.664   1.168
 6387TIP3    H219168   5.380   1.646   1.255
 6388TIP3   OH219169   3.460   0.441   3.630
 6388TIP3    H119170   3.371   0.477   3.634
 6388TIP3    H219171   3.461   0.389   3.550
 6389TIP3   OH219172   1.371   2.420   3.615
 6389TIP3    H119173   1.366   2.480   3.540
 6389TIP3    H219174   1.464   2.405   3.628
 6390TIP3   OH219175   1.481   3.775   3.520
 6390TIP3    H119176   1.517   3.713   3.456
 6390TIP3    H219177   1.408   3.817   3.475
 6391TIP3   OH219178   1.420   2.921   3.272
 6391TIP3    H119179   1.338   2.911   3.224
 6391TIP3    H219180   1.399   2.980   3.344
 6392TIP3   OH219181   3.161   4.229   4.497
 6392TIP3    H119182   3.093   4.281   4.454
 6392TIP3    H219183   3.228   4.293   4.521
 6393TIP3   OH219184   2.977   0.617   2.614
 6393TIP3    H119185   2.903   0.568   2.651
 6393TIP3    H219186   2.939   0.698   2.582
 6394TIP3   OH219187   4.067   5.606   1.526
 6394TIP3    H119188   4.152   5.650   1.527
 6394TIP3    H219189   4.027   5.628   1.610
 6395TIP3   OH219190   1.855   0.872   4.529
 6395TIP3    H119191   1.816   0.785   4.539
 6395TIP3    H219192   1.945   0.861   4.561
 6396TIP3   OH219193   4.632   2.180   1.006
 6396TIP3    H119194   4.591   2.266   0.991
 6396TIP3    H219195   4.635   2.171   1.101
 6397TIP3   OH219196   1.582   1.251   2.531
 6397TIP3    H119197   1.526   1.234   2.456
 6397TIP3    H219198   1.526   1.295   2.594
 6398TIP3   OH219199   6.020   2.207   2.993
 6398TIP3    H119200   6.091   2.233   2.935
 6398TIP3    H219201   6.034   2.113   3.009
 6399TIP3   OH219202   1.386   5.166   4.165
 6399TIP3    H119203   1.455   5.102   4.150
 6399TIP3    H219204   1.351   5.184   4.078
 6400TIP3   OH219205   5.194   1.027   0.729
 6400TIP3    H119206   5.159   1.106   0.769
 6400TIP3    H219207   5.278   1.053   0.692
 6401TIP3   OH219208   5.153   0.104   4.352
 6401TIP3    H119209   5.081   0.166   4.342
 6401TIP3    H219210   5.203   0.136   4.428
 6402TIP3   OH219211   4.828   0.381   3.906
 6402TIP3    H119212   4.733   0.383   3.921
 6402TIP3    H219213   4.854   0.473   3.906
 6403TIP3   OH219214   1.118   3.839   2.338
 6403TIP3    H119215   1.066   3.762   2.362
 6403TIP3    H219216   1.149   3.820   2.249
 6404TIP3   OH219217   0.059   3.721   1.091
 6404TIP3    H119218   0.153   3.734   1.088
 6404TIP3    H219219   0.048   3.631   1.123
 6405TIP3   OH219220   4.702   0.726   2.631
 6405TIP3    H119221   4.715   0.821   2.622
 6405TIP3    H219222   4.647   0.717   2.709
 6406TIP3   OH219223   1.990   3.801   0.482
 6406TIP3    H119224   1.919   3.762   0.431
 6406TIP3    H219225   2.004   3.887   0.442
 6407TIP3   OH219226   0.434   3.935   0.452
 6407TIP3    H119227   0.437   3.977   0.538
 6407TIP3    H219228   0.474   3.849   0.466
 6408TIP3   OH219229   2.277   0.149   0.924
 6408TIP3    H119230   2.297   0.060   0.951
 6408TIP3    H219231   2.360   0.196   0.932
 6409TIP3   OH219232   5.594   2.068   2.485
 6409TIP3    H119233   5.587   1.984   2.439
 6409TIP3    H219234   5.660   2.053   2.552
 6410TIP3   OH219235   2.442   5.968   2.750
 6410TIP3    H119236   2.534   5.973   2.725
 6410TIP3    H219237   2.419   6.057   2.774
 6411TIP3   OH219238   1.944   0.974   3.301
 6411TIP3    H119239   1.922   1.039   3.234
 6411TIP3    H219240   1.859   0.939   3.329
 6412TIP3   OH219241   2.705   4.130   4.365
 6412TIP3    H119242   2.715   4.098   4.275
 6412TIP3    H219243   2.682   4.053   4.416
 6413TIP3   OH219244   3.955   4.590   2.151
 6413TIP3    H119245   3.927   4.499   2.142
 6413TIP3    H219246   4.040   4.585   2.193
 6414TIP3   OH219247   1.536   2.958   4.373
 6414TIP3    H119248   1.520   3.041   4.419
 6414TIP3    H219249   1.584   2.984   4.294
 6415TIP3   OH219250   3.728   3.606   4.777
 6415TIP3    H119251   3.791   3.584   4.845
 6415TIP3    H219252   3.698   3.694   4.799
 6416TIP3   OH219253   5.170   4.758   4.735
 6416TIP3    H119254   5.126   4.801   4.661
 6416TIP3    H219255   5.122   4.676   4.746
 6417TIP3   OH219256   3.265   2.921   2.288
 6417TIP3    H119257   3.199   2.978   2.328
 6417TIP3    H219258   3.252   2.836   2.329
 6418TIP3   OH219259   1.339   4.023   0.304
 6418TIP3    H119260   1.362   4.091   0.239
 6418TIP3    H219261   1.411   4.025   0.367
 6419TIP3   OH219262   4.406   5.229   1.918
 6419TIP3    H119263   4.381   5.210   2.008
 6419TIP3    H219264   4.406   5.325   1.913
 6420TIP3   OH219265   5.482   1.812   4.875
 6420TIP3    H119266   5.472   1.734   4.930
 6420TIP3    H219267   5.430   1.879   4.920
 6421TIP3   OH219268   2.055   2.723   2.644
 6421TIP3    H119269   2.002   2.706   2.722
 6421TIP3    H219270   1.992   2.756   2.579
 6422TIP3   OH219271   5.105   5.821   0.875
 6422TIP3    H119272   5.068   5.866   0.799
 6422TIP3    H219273   5.078   5.874   0.950
 6423TIP3   OH219274   0.785   4.689   0.778
 6423TIP3    H119275   0.711   4.693   0.718
 6423TIP3    H219276   0.744   4.691   0.865
 6424TIP3   OH219277   1.064   3.784   2.898
 6424TIP3    H119278   1.141   3.806   2.844
 6424TIP3    H219279   1.076   3.836   2.977
 6425TIP3   OH219280   2.718   4.310   0.998
 6425TIP3    H119281   2.746   4.222   1.025
 6425TIP3    H219282   2.683   4.350   1.077
 6426TIP3   OH219283   4.845   1.249   2.936
 6426TIP3    H119284   4.869   1.160   2.911
 6426TIP3    H219285   4.754   1.259   2.908
 6427TIP3   OH219286   0.358   0.370   2.527
 6427TIP3    H119287   0.340   0.432   2.597
 6427TIP3    H219288   0.368   0.286   2.570
 6428TIP3   OH219289   0.038   2.534   1.555
 6428TIP3    H119290  -0.028   2.583   1.604
 6428TIP3    H219291  -0.012   2.483   1.492
 6429TIP3   OH219292   0.774   3.521   0.568
 6429TIP3    H119293   0.779   3.456   0.498
 6429TIP3    H219294   0.719   3.591   0.533
 6430TIP3   OH219295   1.343   0.686   4.298
 6430TIP3    H119296   1.269   0.671   4.240
 6430TIP3    H219297   1.308   0.671   4.386
 6431TIP3   OH219298   3.826   0.605   0.072
 6431TIP3    H119299   3.759   0.673   0.071
 6431TIP3    H219300   3.895   0.639   0.129
 6432TIP3   OH219301   4.769   2.124   3.705
 6432TIP3    H119302   4.775   2.209   3.663
 6432TIP3    H219303   4.831   2.069   3.657
 6433TIP3   OH219304   2.767   4.782   4.315
 6433TIP3    H119305   2.790   4.693   4.288
 6433TIP3    H219306   2.700   4.809   4.253
 6434TIP3   OH219307   2.259   2.338   4.717
 6434TIP3    H119308   2.335   2.292   4.752
 6434TIP3    H219309   2.291   2.383   4.639
 6435TIP3   OH219310   4.375   5.521   4.382
 6435TIP3    H119311   4.286   5.515   4.346
 6435TIP3    H219312   4.363   5.521   4.477
 6436TIP3   OH219313   2.097   5.388   0.354
 6436TIP3    H119314   2.148   5.307   0.345
 6436TIP3    H219315   2.075   5.412   0.264
 6437TIP3   OH219316   6.343   3.340   4.254
 6437TIP3    H119317   6.311   3.389   4.178
 6437TIP3    H219318   6.268   3.288   4.281
 6438TIP3   OH219319   1.911   3.706   4.774
 6438TIP3    H119320   1.998   3.739   4.754
 6438TIP3    H219321   1.909   3.701   4.870
 6439TIP3   OH219322   2.634   2.645   0.631
 6439TIP3    H119323   2.690   2.571   0.608
 6439TIP3    H219324   2.545   2.616   0.611
 6440TIP3   OH219325   0.401   1.434   0.186
 6440TIP3    H119326   0.354   1.392   0.115
 6440TIP3    H219327   0.479   1.381   0.199
 6441TIP3   OH219328   1.112   5.777   2.976
 6441TIP3    H119329   1.138   5.687   2.992
 6441TIP3    H219330   1.189   5.816   2.934
 6442TIP3   OH219331   0.406   4.348   4.257
 6442TIP3    H119332   0.359   4.422   4.218
 6442TIP3    H219333   0.440   4.299   4.182
 6443TIP3   OH219334   4.936   1.712   3.088
 6443TIP3    H119335   4.848   1.716   3.124
 6443TIP3    H219336   4.986   1.660   3.151
 6444TIP3   OH219337   2.547   4.059   1.523
 6444TIP3    H119338   2.474   4.064   1.584
 6444TIP3    H219339   2.516   4.106   1.445
 6445TIP3   OH219340   2.447   5.102   3.145
 6445TIP3    H119341   2.492   5.180   3.114
 6445TIP3    H219342   2.507   5.030   3.124
 6446TIP3   OH219343   0.339   1.416   3.863
 6446TIP3    H119344   0.333   1.331   3.905
 6446TIP3    H219345   0.415   1.458   3.904
 6447TIP3   OH219346   0.713   0.416   2.202
 6447TIP3    H119347   0.721   0.320   2.205
 6447TIP3    H219348   0.631   0.431   2.156
 6448TIP3   OH219349   0.198   4.091   0.284
 6448TIP3    H119350   0.125   4.049   0.329
 6448TIP3    H219351   0.272   4.083   0.344
 6449TIP3   OH219352   3.816   3.236   1.229
 6449TIP3    H119353   3.875   3.213   1.301
 6449TIP3    H219354   3.780   3.152   1.201
 6450TIP3   OH219355   0.274   2.662   3.653
 6450TIP3    H119356   0.254   2.716   3.729
 6450TIP3    H219357   0.313   2.583   3.690
 6451TIP3   OH219358   2.381   2.052   5.068
 6451TIP3    H119359   2.454   2.021   5.121
 6451TIP3    H219360   2.408   2.138   5.037
 6452TIP3   OH219361   0.929   0.840   3.713
 6452TIP3    H119362   0.992   0.780   3.753
 6452TIP3    H219363   0.952   0.926   3.748
 6453TIP3   OH219364   6.058   4.752   3.433
 6453TIP3    H119365   6.119   4.824   3.450
 6453TIP3    H219366   5.984   4.770   3.490
 6454TIP3   OH219367   1.749   3.300   4.330
 6454TIP3    H119368   1.765   3.213   4.294
 6454TIP3    H219369   1.660   3.294   4.367
 6455TIP3   OH219370   3.889   5.746   4.632
 6455TIP3    H119371   3.960   5.807   4.651
 6455TIP3    H219372   3.840   5.788   4.561
 6456TIP3   OH219373   1.984   1.362   1.252
 6456TIP3    H119374   1.911   1.304   1.272
 6456TIP3    H219375   2.019   1.387   1.337
 6457TIP3   OH219376   6.219   3.976   2.849
 6457TIP3    H119377   6.212   3.965   2.944
 6457TIP3    H219378   6.170   4.057   2.832
 6458TIP3   OH219379   2.535   1.087   4.910
 6458TIP3    H119380   2.557   1.141   4.834
 6458TIP3    H219381   2.467   1.135   4.955
 6459TIP3   OH219382   5.540   3.103   0.597
 6459TIP3    H119383   5.491   3.025   0.572
 6459TIP3    H219384   5.510   3.171   0.537
 6460TIP3   OH219385   4.921   4.255   4.407
 6460TIP3    H119386   4.997   4.265   4.465
 6460TIP3    H219387   4.929   4.167   4.372
 6461TIP3   OH219388   4.718   3.406   0.961
 6461TIP3    H119389   4.661   3.432   1.033
 6461TIP3    H219390   4.803   3.392   1.002
 6462TIP3   OH219391   3.307   5.238   3.765
 6462TIP3    H119392   3.349   5.272   3.686
 6462TIP3    H219393   3.256   5.312   3.798
 6463TIP3   OH219394   1.268   5.575   0.369
 6463TIP3    H119395   1.294   5.629   0.444
 6463TIP3    H219396   1.328   5.601   0.299
 6464TIP3   OH219397   1.226   1.531   4.562
 6464TIP3    H119398   1.302   1.504   4.508
 6464TIP3    H219399   1.256   1.520   4.652
 6465TIP3   OH219400   1.840   1.401   2.428
 6465TIP3    H119401   1.787   1.322   2.420
 6465TIP3    H219402   1.850   1.433   2.339
 6466TIP3   OH219403   5.051   0.339   5.083
 6466TIP3    H119404   5.108   0.322   5.008
 6466TIP3    H219405   5.104   0.314   5.159
 6467TIP3   OH219406   0.225   2.963   1.691
 6467TIP3    H119407   0.239   2.896   1.759
 6467TIP3    H219408   0.310   3.005   1.681
 6468TIP3   OH219409   1.111   1.831   3.271
 6468TIP3    H119410   1.143   1.764   3.211
 6468TIP3    H219411   1.182   1.895   3.276
 6469TIP3   OH219412   0.527   1.035   4.965
 6469TIP3    H119413   0.572   1.030   5.049
 6469TIP3    H219414   0.461   0.965   4.968
 6470TIP3   OH219415   3.285   3.691   0.574
 6470TIP3    H119416   3.244   3.758   0.519
 6470TIP3    H219417   3.378   3.694   0.551
 6471TIP3   OH219418   2.902   0.279   1.282
 6471TIP3    H119419   2.917   0.307   1.191
 6471TIP3    H219420   2.851   0.199   1.274
 6472TIP3   OH219421   0.674   4.725   3.740
 6472TIP3    H119422   0.680   4.816   3.771
 6472TIP3    H219423   0.644   4.733   3.649
 6473TIP3   OH219424   0.752   5.435   0.728
 6473TIP3    H119425   0.812   5.400   0.794
 6473TIP3    H219426   0.785   5.401   0.645
 6474TIP3   OH219427   1.572   1.932   3.040
 6474TIP3    H119428   1.515   2.001   3.073
 6474TIP3    H219429   1.646   1.930   3.102
 6475TIP3   OH219430   0.520   2.103   5.182
 6475TIP3    H119431   0.567   2.024   5.207
 6475TIP3    H219432   0.459   2.074   5.115
 6476TIP3   OH219433   3.608  -0.018   1.698
 6476TIP3    H119434   3.649   0.056   1.654
 6476TIP3    H219435   3.545  -0.051   1.633
 6477TIP3   OH219436   4.360   3.851   2.827
 6477TIP3    H119437   4.443   3.803   2.827
 6477TIP3    H219438   4.310   3.810   2.897
 6478TIP3   OH219439   4.382   2.930   3.825
 6478TIP3    H119440   4.451   2.881   3.869
 6478TIP3    H219441   4.334   2.975   3.895
 6479TIP3   OH219442   4.692   2.131   1.682
 6479TIP3    H119443   4.642   2.210   1.700
 6479TIP3    H219444   4.783   2.155   1.700
 6480TIP3   OH219445   2.758   0.895   3.092
 6480TIP3    H119446   2.666   0.921   3.085
 6480TIP3    H219447   2.805   0.958   3.037
 6481TIP3   OH219448   6.288   0.318   3.300
 6481TIP3    H119449   6.353   0.376   3.261
 6481TIP3    H219450   6.224   0.303   3.231
 6482TIP3   OH219451   6.030   0.023   3.715
 6482TIP3    H119452   6.042   0.044   3.808
 6482TIP3    H219453   5.938   0.000   3.708
 6483TIP3   OH219454   0.114   5.011   4.537
 6483TIP3    H119455   0.121   4.942   4.603
 6483TIP3    H219456   0.077   4.967   4.460
 6484TIP3   OH219457   3.778   4.622   3.655
 6484TIP3    H119458   3.773   4.690   3.588
 6484TIP3    H219459   3.711   4.645   3.719
 6485TIP3   OH219460   2.518   3.392   3.690
 6485TIP3    H119461   2.576   3.415   3.762
 6485TIP3    H219462   2.430   3.412   3.722
 6486TIP3   OH219463   4.014   0.308   2.612
 6486TIP3    H119464   4.084   0.267   2.664
 6486TIP3    H219465   4.054   0.388   2.578
 6487TIP3   OH219466   5.263   1.559   3.589
 6487TIP3    H119467   5.184   1.595   3.548
 6487TIP3    H219468   5.251   1.464   3.585
 6488TIP3   OH219469   0.768  -0.002   1.081
 6488TIP3    H119470   0.817   0.057   1.139
 6488TIP3    H219471   0.709   0.055   1.033
 6489TIP3   OH219472   4.461   1.432   4.031
 6489TIP3    H119473   4.550   1.467   4.044
 6489TIP3    H219474   4.473   1.337   4.030
 6490TIP3   OH219475   1.442   4.523   5.176
 6490TIP3    H119476   1.477   4.436   5.155
 6490TIP3    H219477   1.347   4.513   5.170
 6491TIP3   OH219478   2.092   4.699   1.815
 6491TIP3    H119479   2.069   4.780   1.769
 6491TIP3    H219480   2.185   4.686   1.796
 6492TIP3   OH219481   4.156   3.952   1.286
 6492TIP3    H119482   4.228   3.982   1.341
 6492TIP3    H219483   4.085   3.933   1.349
 6493TIP3   OH219484   4.562   5.090   3.962
 6493TIP3    H119485   4.565   5.026   3.891
 6493TIP3    H219486   4.469   5.108   3.974
 6494TIP3   OH219487   1.154   1.851   3.897
 6494TIP3    H119488   1.128   1.941   3.873
 6494TIP3    H219489   1.245   1.844   3.867
 6495TIP3   OH219490   0.479   0.208   0.662
 6495TIP3    H119491   0.414   0.138   0.668
 6495TIP3    H219492   0.444   0.268   0.597
 6496TIP3   OH219493   5.036   1.479   4.170
 6496TIP3    H119494   5.065   1.388   4.171
 6496TIP3    H219495   5.008   1.494   4.079
 6497TIP3   OH219496   2.799   4.793   1.746
 6497TIP3    H119497   2.706   4.808   1.761
 6497TIP3    H219498   2.837   4.791   1.833
 6498TIP3   OH219499   4.614   1.158   0.930
 6498TIP3    H119500   4.665   1.206   0.995
 6498TIP3    H219501   4.591   1.224   0.864
 6499TIP3   OH219502   3.378   5.747   3.772
 6499TIP3    H119503   3.306   5.773   3.714
 6499TIP3    H219504   3.407   5.828   3.813
 6500TIP3   OH219505   0.939   5.062   1.065
 6500TIP3    H119506   0.893   5.043   1.146
 6500TIP3    H219507   0.982   4.979   1.042
 6501TIP3   OH219508   6.084   4.197   0.867
 6501TIP3    H119509   6.050   4.221   0.780
 6501TIP3    H219510   6.136   4.118   0.851
 6502TIP3   OH219511   6.277   0.594   1.617
 6502TIP3    H119512   6.187   0.626   1.611
 6502TIP3    H219513   6.299   0.568   1.528
 6503TIP3   OH219514   2.513   5.211   4.248
 6503TIP3    H119515   2.597   5.199   4.203
 6503TIP3    H219516   2.464   5.271   4.191
 6504TIP3   OH219517   5.792   0.371   1.240
 6504TIP3    H119518   5.776   0.313   1.165
 6504TIP3    H219519   5.887   0.379   1.243
 6505TIP3   OH219520   4.832   4.617   1.236
 6505TIP3    H119521   4.767   4.573   1.181
 6505TIP3    H219522   4.781   4.675   1.293
 6506TIP3   OH219523   2.952   5.203   3.350
 6506TIP3    H119524   2.943   5.108   3.345
 6506TIP3    H219525   3.038   5.221   3.313
 6507TIP3   OH219526   3.005   1.528   2.507
 6507TIP3    H119527   3.068   1.600   2.504
 6507TIP3    H219528   3.059   1.449   2.518
 6508TIP3   OH219529   0.602   3.853   4.247
 6508TIP3    H119530   0.610   3.768   4.290
 6508TIP3    H219531   0.654   3.913   4.301
 6509TIP3   OH219532   1.257   1.513   0.741
 6509TIP3    H119533   1.217   1.475   0.663
 6509TIP3    H219534   1.351   1.498   0.729
 6510TIP3   OH219535   0.384   4.978   0.435
 6510TIP3    H119536   0.440   5.024   0.498
 6510TIP3    H219537   0.372   5.040   0.364
 6511TIP3   OH219538   0.889   2.481   2.252
 6511TIP3    H119539   0.795   2.476   2.269
 6511TIP3    H219540   0.896   2.479   2.156
 6512TIP3   OH219541   4.124   1.815   3.775
 6512TIP3    H119542   4.205   1.781   3.811
 6512TIP3    H219543   4.140   1.821   3.681
 6513TIP3   OH219544   0.272   5.095   4.970
 6513TIP3    H119545   0.300   5.151   4.898
 6513TIP3    H219546   0.352   5.051   4.999
 6514TIP3   OH219547   0.859   5.791   4.139
 6514TIP3    H119548   0.803   5.789   4.062
 6514TIP3    H219549   0.922   5.861   4.121
 6515TIP3   OH219550   2.443   5.983   2.187
 6515TIP3    H119551   2.479   5.953   2.271
 6515TIP3    H219552   2.490   5.931   2.121
 6516TIP3   OH219553   4.951   5.583   4.270
 6516TIP3    H119554   4.926   5.541   4.188
 6516TIP3    H219555   4.897   5.662   4.274
 6517TIP3   OH219556   2.191   5.634   2.548
 6517TIP3    H119557   2.220   5.693   2.617
 6517TIP3    H219558   2.258   5.642   2.480
 6518TIP3   OH219559   6.342   2.168   4.674
 6518TIP3    H119560   6.273   2.227   4.644
 6518TIP3    H219561   6.325   2.159   4.768
 6519TIP3   OH219562   4.307   5.905   1.708
 6519TIP3    H119563   4.331   5.996   1.689
 6519TIP3    H219564   4.366   5.880   1.779
 6520TIP3   OH219565   4.950   2.286   3.131
 6520TIP3    H119566   4.865   2.329   3.117
 6520TIP3    H219567   4.994   2.341   3.196
 6521TIP3   OH219568   2.664   0.733   1.328
 6521TIP3    H119569   2.609   0.775   1.262
 6521TIP3    H219570   2.746   0.783   1.327
 6522TIP3   OH219571   3.368   4.451   0.519
 6522TIP3    H119572   3.320   4.369   0.503
 6522TIP3    H219573   3.453   4.438   0.476
 6523TIP3   OH219574   5.286   4.761   2.698
 6523TIP3    H119575   5.381   4.748   2.687
 6523TIP3    H219576   5.279   4.835   2.758
 6524TIP3   OH219577   2.620   0.297   1.043
 6524TIP3    H119578   2.687   0.363   1.054
 6524TIP3    H219579   2.547   0.327   1.098
 6525TIP3   OH219580   1.608   3.101   4.113
 6525TIP3    H119581   1.521   3.091   4.075
 6525TIP3    H219582   1.654   3.021   4.088
 6526TIP3   OH219583   1.001   0.309   4.244
 6526TIP3    H119584   0.907   0.300   4.227
 6526TIP3    H219585   1.042   0.310   4.158
 6527TIP3   OH219586   3.190   4.357   1.558
 6527TIP3    H119587   3.237   4.438   1.579
 6527TIP3    H219588   3.234   4.324   1.480
 6528TIP3   OH219589   2.930   2.750   1.455
 6528TIP3    H119590   2.900   2.677   1.509
 6528TIP3    H219591   3.024   2.756   1.471
 6529TIP3   OH219592   0.914   3.845   5.054
 6529TIP3    H119593   0.893   3.852   5.147
 6529TIP3    H219594   1.001   3.805   5.052
 6530TIP3   OH219595   6.298   2.805   1.287
 6530TIP3    H119596   6.361   2.738   1.262
 6530TIP3    H219597   6.213   2.760   1.285
 6531TIP3   OH219598   1.555   5.288   3.308
 6531TIP3    H119599   1.626   5.321   3.364
 6531TIP3    H219600   1.600   5.242   3.237
 6532TIP3   OH219601   2.285   3.557   0.258
 6532TIP3    H119602   2.220   3.507   0.210
 6532TIP3    H219603   2.294   3.511   0.341
 6533TIP3   OH219604   2.102   0.387   2.245
 6533TIP3    H119605   2.133   0.310   2.292
 6533TIP3    H219606   2.010   0.368   2.227
 6534TIP3   OH219607   1.017   2.577   1.143
 6534TIP3    H119608   0.924   2.575   1.164
 6534TIP3    H219609   1.048   2.488   1.160
 6535TIP3   OH219610   0.961   5.060   2.482
 6535TIP3    H119611   0.947   4.965   2.488
 6535TIP3    H219612   0.977   5.087   2.572
 6536TIP3   OH219613   2.435   2.792   4.710
 6536TIP3    H119614   2.446   2.818   4.619
 6536TIP3    H219615   2.361   2.843   4.741
 6537TIP3   OH219616   6.167   2.377   4.200
 6537TIP3    H119617   6.149   2.316   4.128
 6537TIP3    H219618   6.158   2.325   4.279
 6538TIP3   OH219619   2.947   2.050   3.731
 6538TIP3    H119620   2.857   2.022   3.745
 6538TIP3    H219621   3.000   1.973   3.752
 6539TIP3   OH219622   5.735   4.367   0.917
 6539TIP3    H119623   5.779   4.331   0.840
 6539TIP3    H219624   5.805   4.407   0.968
 6540TIP3   OH219625   2.628   4.528   3.353
 6540TIP3    H119626   2.626   4.575   3.270
 6540TIP3    H219627   2.581   4.447   3.336
 6541TIP3   OH219628   5.416   4.476   0.880
 6541TIP3    H119629   5.416   4.495   0.786
 6541TIP3    H219630   5.504   4.500   0.910
 6542TIP3   OH219631   4.569   3.117   2.101
 6542TIP3    H119632   4.538   3.204   2.075
 6542TIP3    H219633   4.534   3.106   2.190
 6543TIP3   OH219634   1.442   4.849   4.358
 6543TIP3    H119635   1.496   4.812   4.427
 6543TIP3    H219636   1.501   4.858   4.284
 6544TIP3   OH219637   4.686   3.145   4.008
 6544TIP3    H119638   4.640   3.207   3.951
 6544TIP3    H219639   4.765   3.191   4.036
 6545TIP3   OH219640   0.215   1.208   4.499
 6545TIP3    H119641   0.204   1.278   4.434
 6545TIP3    H219642   0.148   1.144   4.477
 6546TIP3   OH219643   1.640   0.384   0.222
 6546TIP3    H119644   1.724   0.380   0.176
 6546TIP3    H219645   1.643   0.467   0.270
 6547TIP3   OH219646   2.952   0.187   1.018
 6547TIP3    H119647   2.977   0.272   0.981
 6547TIP3    H219648   2.922   0.136   0.943
 6548TIP3   OH219649   6.332   3.228   2.398
 6548TIP3    H119650   6.254   3.284   2.394
 6548TIP3    H219651   6.355   3.226   2.490
 6549TIP3   OH219652   3.387   5.718   1.215
 6549TIP3    H119653   3.350   5.786   1.271
 6549TIP3    H219654   3.409   5.647   1.276
 6550TIP3   OH219655   3.759   4.069   0.872
 6550TIP3    H119656   3.734   4.080   0.781
 6550TIP3    H219657   3.733   4.151   0.914
 6551TIP3   OH219658   2.288   3.491   0.519
 6551TIP3    H119659   2.216   3.553   0.534
 6551TIP3    H219660   2.267   3.416   0.573
 6552TIP3   OH219661   5.259   4.010   3.479
 6552TIP3    H119662   5.329   3.946   3.492
 6552TIP3    H219663   5.303   4.089   3.449
 6553TIP3   OH219664   2.200   0.563   2.436
 6553TIP3    H119665   2.179   0.501   2.366
 6553TIP3    H219666   2.127   0.556   2.497
 6554TIP3   OH219667   4.992   5.787   3.394
 6554TIP3    H119668   5.084   5.768   3.378
 6554TIP3    H219669   4.950   5.777   3.308
 6555TIP3   OH219670   1.736   2.163   0.070
 6555TIP3    H119671   1.795   2.120   0.132
 6555TIP3    H219672   1.691   2.091   0.026
 6556TIP3   OH219673   5.005   4.433   3.997
 6556TIP3    H119674   4.956   4.376   4.056
 6556TIP3    H219675   5.009   4.517   4.042
 6557TIP3   OH219676   1.420   0.875   0.316
 6557TIP3    H119677   1.404   0.836   0.230
 6557TIP3    H219678   1.333   0.887   0.354
 6558TIP3   OH219679   5.501   5.426   3.739
 6558TIP3    H119680   5.443   5.351   3.726
 6558TIP3    H219681   5.527   5.420   3.831
 6559TIP3   OH219682   0.094   1.943   1.441
 6559TIP3    H119683   0.116   1.856   1.474
 6559TIP3    H219684   0.095   1.999   1.519
 6560TIP3   OH219685   3.189   4.578   1.359
 6560TIP3    H119686   3.206   4.487   1.333
 6560TIP3    H219687   3.099   4.576   1.392
 6561TIP3   OH219688   0.327   0.404   1.302
 6561TIP3    H119689   0.252   0.352   1.331
 6561TIP3    H219690   0.373   0.426   1.383
 6562TIP3   OH219691   5.397   2.508   0.030
 6562TIP3    H119692   5.372   2.420   0.057
 6562TIP3    H219693   5.343   2.566   0.084
 6563TIP3   OH219694   3.885   2.533   2.489
 6563TIP3    H119695   3.802   2.579   2.477
 6563TIP3    H219696   3.941   2.566   2.419
 6564TIP3   OH219697   5.202   3.484   4.834
 6564TIP3    H119698   5.135   3.520   4.776
 6564TIP3    H219699   5.171   3.503   4.922
 6565TIP3   OH219700   1.457   3.281   2.226
 6565TIP3    H119701   1.402   3.273   2.148
 6565TIP3    H219702   1.510   3.359   2.209
 6566TIP3   OH219703   5.133   4.051   4.290
 6566TIP3    H119704   5.179   4.097   4.360
 6566TIP3    H219705   5.202   4.016   4.234
 6567TIP3   OH219706   5.088   4.113   3.006
 6567TIP3    H119707   5.106   4.048   3.074
 6567TIP3    H219708   5.106   4.068   2.924
 6568TIP3   OH219709   2.766   1.701   5.105
 6568TIP3    H119710   2.784   1.608   5.119
 6568TIP3    H219711   2.769   1.713   5.010
 6569TIP3   OH219712   3.341   3.680   3.181
 6569TIP3    H119713   3.372   3.640   3.100
 6569TIP3    H219714   3.402   3.649   3.248
 6570TIP3   OH219715   5.087   0.709   0.420
 6570TIP3    H119716   5.108   0.688   0.511
 6570TIP3    H219717   5.000   0.673   0.406
 6571TIP3   OH219718   6.053   1.715   3.226
 6571TIP3    H119719   6.081   1.790   3.278
 6571TIP3    H219720   6.128   1.655   3.228
 6572TIP3   OH219721   4.788   0.116   4.572
 6572TIP3    H119722   4.713   0.080   4.525
 6572TIP3    H219723   4.829   0.040   4.613
 6573TIP3   OH219724   0.971   5.774   2.437
 6573TIP3    H119725   1.006   5.717   2.506
 6573TIP3    H219726   1.006   5.861   2.456
 6574TIP3   OH219727   2.874   2.554   2.140
 6574TIP3    H119728   2.953   2.583   2.185
 6574TIP3    H219729   2.897   2.468   2.104
 6575TIP3   OH219730   4.402   1.015   2.227
 6575TIP3    H119731   4.384   1.004   2.320
 6575TIP3    H219732   4.448   0.934   2.202
 6576TIP3   OH219733   3.957   4.599   2.565
 6576TIP3    H119734   3.993   4.547   2.637
 6576TIP3    H219735   4.003   4.683   2.571
 6577TIP3   OH219736   5.739   4.607   1.503
 6577TIP3    H119737   5.645   4.592   1.490
 6577TIP3    H219738   5.781   4.547   1.441
 6578TIP3   OH219739   1.037   3.197   2.431
 6578TIP3    H119740   1.053   3.103   2.425
 6578TIP3    H219741   1.113   3.231   2.478
 6579TIP3   OH219742   0.811   2.282   2.886
 6579TIP3    H119743   0.774   2.197   2.862
 6579TIP3    H219744   0.750   2.346   2.850
 6580TIP3   OH219745   5.272   3.161   3.266
 6580TIP3    H119746   5.219   3.147   3.188
 6580TIP3    H219747   5.208   3.182   3.335
 6581TIP3   OH219748   0.732   0.613   4.427
 6581TIP3    H119749   0.641   0.588   4.408
 6581TIP3    H219750   0.738   0.704   4.401
 6582TIP3   OH219751   2.954   1.117   1.885
 6582TIP3    H119752   2.862   1.092   1.895
 6582TIP3    H219753   2.970   1.181   1.954
 6583TIP3   OH219754   3.489   3.627   3.413
 6583TIP3    H119755   3.485   3.601   3.505
 6583TIP3    H219756   3.558   3.572   3.375
 6584TIP3   OH219757   0.217   0.477   5.076
 6584TIP3    H119758   0.144   0.454   5.133
 6584TIP3    H219759   0.200   0.430   4.994
 6585TIP3   OH219760   3.389   5.411   1.414
 6585TIP3    H119761   3.469   5.458   1.390
 6585TIP3    H219762   3.356   5.375   1.331
 6586TIP3   OH219763   1.281   3.829   3.076
 6586TIP3    H119764   1.311   3.738   3.069
 6586TIP3    H219765   1.315   3.859   3.160
 6587TIP3   OH219766   0.268   4.566   3.872
 6587TIP3    H119767   0.266   4.656   3.840
 6587TIP3    H219768   0.344   4.563   3.930
 6588TIP3   OH219769   0.764   3.438   2.799
 6588TIP3    H119770   0.680   3.474   2.773
 6588TIP3    H219771   0.784   3.373   2.732
 6589TIP3   OH219772   4.670   4.825   2.339
 6589TIP3    H119773   4.627   4.745   2.307
 6589TIP3    H219774   4.613   4.855   2.410
 6590TIP3   OH219775   2.153   0.063   4.970
 6590TIP3    H119776   2.113  -0.022   4.950
 6590TIP3    H219777   2.111   0.124   4.910
 6591TIP3   OH219778   3.290   2.281   2.481
 6591TIP3    H119779   3.382   2.275   2.456
 6591TIP3    H219780   3.270   2.196   2.521
 6592TIP3   OH219781   5.803   1.185   4.148
 6592TIP3    H119782   5.865   1.115   4.170
 6592TIP3    H219783   5.858   1.259   4.123
 6593TIP3   OH219784   6.305   5.614  -0.030
 6593TIP3    H119785   6.280   5.699   0.006
 6593TIP3    H219786   6.353   5.571   0.041
 6594TIP3   OH219787   1.761   4.992   4.915
 6594TIP3    H119788   1.852   5.008   4.892
 6594TIP3    H219789   1.756   4.898   4.931
 6595TIP3   OH219790   1.316   0.329   0.488
 6595TIP3    H119791   1.271   0.405   0.524
 6595TIP3    H219792   1.317   0.344   0.393
 6596TIP3   OH219793   2.037   0.848   0.855
 6596TIP3    H119794   1.977   0.825   0.926
 6596TIP3    H219795   1.980   0.869   0.781
 6597TIP3   OH219796   1.674   2.279   0.716
 6597TIP3    H119797   1.719   2.351   0.759
 6597TIP3    H219798   1.581   2.293   0.735
 6598TIP3   OH219799   1.197   5.513   2.904
 6598TIP3    H119800   1.230   5.424   2.916
 6598TIP3    H219801   1.272   5.561   2.869
 6599TIP3   OH219802   5.055   2.516   0.756
 6599TIP3    H119803   5.107   2.515   0.836
 6599TIP3    H219804   4.964   2.510   0.787
 6600TIP3   OH219805   4.163   0.207   4.818
 6600TIP3    H119806   4.176   0.299   4.841
 6600TIP3    H219807   4.179   0.160   4.899
 6601TIP3   OH219808   0.514   3.203   0.087
 6601TIP3    H119809   0.434   3.150   0.087
 6601TIP3    H219810   0.562   3.175   0.165
 6602TIP3   OH219811   5.326   0.766   1.011
 6602TIP3    H119812   5.311   0.732   1.099
 6602TIP3    H219813   5.410   0.729   0.985
 6603TIP3   OH219814   2.695   5.583   4.422
 6603TIP3    H119815   2.787   5.567   4.443
 6603TIP3    H219816   2.679   5.533   4.342
 6604TIP3   OH219817   2.132   1.768   1.639
 6604TIP3    H119818   2.185   1.814   1.574
 6604TIP3    H219819   2.050   1.749   1.594
 6605TIP3   OH219820   2.073   0.228   1.484
 6605TIP3    H119821   1.995   0.267   1.524
 6605TIP3    H219822   2.144   0.287   1.507
 6606TIP3   OH219823   1.645   4.773   4.593
 6606TIP3    H119824   1.589   4.801   4.665
 6606TIP3    H219825   1.684   4.853   4.559
 6607TIP3   OH219826   1.096   5.837   0.936
 6607TIP3    H119827   1.033   5.825   0.864
 6607TIP3    H219828   1.074   5.923   0.973
 6608TIP3   OH219829   3.692   1.506   1.296
 6608TIP3    H119830   3.777   1.508   1.251
 6608TIP3    H219831   3.675   1.413   1.311
 6609TIP3   OH219832   3.844   2.977   3.595
 6609TIP3    H119833   3.766   2.937   3.557
 6609TIP3    H219834   3.892   2.903   3.634
 6610TIP3   OH219835   6.057   0.753   1.548
 6610TIP3    H119836   5.972   0.767   1.507
 6610TIP3    H219837   6.120   0.794   1.488
 6611TIP3   OH219838   1.774   1.218   2.721
 6611TIP3    H119839   1.714   1.187   2.790
 6611TIP3    H219840   1.716   1.251   2.653
 6612TIP3   OH219841   6.282   5.643   0.707
 6612TIP3    H119842   6.367   5.637   0.663
 6612TIP3    H219843   6.253   5.733   0.691
 6613TIP3   OH219844   0.911   2.093   0.746
 6613TIP3    H119845   0.853   2.073   0.673
 6613TIP3    H219846   0.912   2.189   0.750
 6614TIP3   OH219847   5.431   0.259   4.219
 6614TIP3    H119848   5.456   0.341   4.177
 6614TIP3    H219849   5.497   0.196   4.189
 6615TIP3   OH219850   3.838   0.805   5.140
 6615TIP3    H119851   3.770   0.872   5.141
 6615TIP3    H219852   3.801   0.733   5.090
 6616TIP3   OH219853   5.176   1.307   1.703
 6616TIP3    H119854   5.156   1.382   1.760
 6616TIP3    H219855   5.201   1.237   1.763
 6617TIP3   OH219856   6.151   1.159   0.267
 6617TIP3    H119857   6.087   1.106   0.315
 6617TIP3    H219858   6.186   1.219   0.333
 6618TIP3   OH219859   2.522   1.690   4.847
 6618TIP3    H119860   2.468   1.766   4.826
 6618TIP3    H219861   2.530   1.643   4.764
 6619TIP3   OH219862   2.076   3.423   3.614
 6619TIP3    H119863   2.113   3.382   3.535
 6619TIP3    H219864   2.043   3.507   3.583
 6620TIP3   OH219865   6.022   1.338   3.011
 6620TIP3    H119866   5.971   1.363   2.934
 6620TIP3    H219867   5.963   1.282   3.061
 6621TIP3   OH219868   5.186   2.379   2.520
 6621TIP3    H119869   5.240   2.315   2.474
 6621TIP3    H219870   5.237   2.402   2.597
 6622TIP3   OH219871   6.015   4.728   4.472
 6622TIP3    H119872   6.074   4.777   4.415
 6622TIP3    H219873   5.929   4.739   4.433
 6623TIP3   OH219874   1.039   0.817   3.140
 6623TIP3    H119875   1.017   0.752   3.074
 6623TIP3    H219876   0.959   0.826   3.192
 6624TIP3   OH219877   0.713   3.210   0.884
 6624TIP3    H119878   0.727   3.230   0.976
 6624TIP3    H219879   0.730   3.293   0.839
 6625TIP3   OH219880   5.885   4.702   0.922
 6625TIP3    H119881   5.892   4.660   1.008
 6625TIP3    H219882   5.873   4.795   0.940
 6626TIP3   OH219883   2.775   4.531   0.638
 6626TIP3    H119884   2.739   4.448   0.608
 6626TIP3    H219885   2.854   4.507   0.686
 6627TIP3   OH219886   2.346   2.613   2.777
 6627TIP3    H119887   2.251   2.603   2.763
 6627TIP3    H219888   2.362   2.706   2.763
 6628TIP3   OH219889   2.293   5.322   5.063
 6628TIP3    H119890   2.207   5.345   5.099
 6628TIP3    H219891   2.300   5.228   5.075
 6629TIP3   OH219892   3.546   3.363   1.427
 6629TIP3    H119893   3.489   3.380   1.352
 6629TIP3    H219894   3.634   3.357   1.390
 6630TIP3   OH219895   2.853   5.632   1.907
 6630TIP3    H119896   2.823   5.645   1.997
 6630TIP3    H219897   2.870   5.538   1.901
 6631TIP3   OH219898   3.882   5.365   1.044
 6631TIP3    H119899   3.791   5.337   1.031
 6631TIP3    H219900   3.878   5.428   1.116
 6632TIP3   OH219901   1.398   2.726   0.154
 6632TIP3    H119902   1.357   2.641   0.169
 6632TIP3    H219903   1.412   2.761   0.242
 6633TIP3   OH219904   0.261   2.519   1.708
 6633TIP3    H119905   0.195   2.510   1.639
 6633TIP3    H219906   0.264   2.433   1.750
 6634TIP3   OH219907   3.310   5.281   2.468
 6634TIP3    H119908   3.327   5.214   2.535
 6634TIP3    H219909   3.296   5.361   2.517
 6635TIP3   OH219910   1.013   3.200   4.125
 6635TIP3    H119911   1.015   3.290   4.156
 6635TIP3    H219912   1.044   3.148   4.200
 6636TIP3   OH219913   5.521   5.687   0.859
 6636TIP3    H119914   5.609   5.671   0.894
 6636TIP3    H219915   5.489   5.763   0.907
 6637TIP3   OH219916   3.928   0.393   2.003
 6637TIP3    H119917   3.849   0.347   1.975
 6637TIP3    H219918   3.991   0.378   1.932
 6638TIP3   OH219919   2.666   5.404   0.057
 6638TIP3    H119920   2.661   5.310   0.078
 6638TIP3    H219921   2.631   5.411  -0.031
 6639TIP3   OH219922   4.295   3.485   0.993
 6639TIP3    H119923   4.321   3.523   0.910
 6639TIP3    H219924   4.241   3.552   1.034
 6640TIP3   OH219925   5.006   3.904   1.047
 6640TIP3    H119926   5.036   3.846   1.117
 6640TIP3    H219927   4.921   3.868   1.021
   6.35064   5.98744   5.18528   0.00000   0.00000  -2.11688   0.00000  -2.11688  -2.99373
