Title
19927
    1ASP      N    1   0.696   0.742   1.881 -0.1600 -0.1999  0.1816
    1ASP    HT1    2   0.789   0.776   1.851  0.1242 -2.3307 -1.5921
    1ASP    HT2    3   0.648   0.692   1.804 -0.1508  0.7544 -0.4625
    1ASP    HT3    4   0.713   0.685   1.967 -0.4609  0.9598  1.0338
    1ASP     CA    5   0.604   0.853   1.927  0.3637  0.3311  0.0470
    1ASP     HA    6   0.509   0.806   1.948  0.5073  0.2195  0.4488
    1ASP     CB    7   0.655   0.933   2.050 -0.4925 -0.8374 -0.3727
    1ASP    HB1    8   0.595   1.019   2.086 -1.4813 -0.9521 -1.6560
    1ASP    HB2    9   0.759   0.971   2.045 -0.9561  0.8404  1.4496
    1ASP     CG   10   0.647   0.839   2.172  0.4545 -0.1904 -0.5785
    1ASP    OD1   11   0.579   0.735   2.174  0.3981 -0.1039  0.3164
    1ASP    OD2   12   0.713   0.875   2.269  0.4650 -0.1694  0.4932
    1ASP      C   13   0.581   0.935   1.797  0.8032 -0.3961  0.6305
    1ASP      O   14   0.595   0.889   1.686 -0.9893 -0.2006  0.2011
    2ALA      N   15   0.528   1.058   1.797  0.7664 -0.2783 -0.4306
    2ALA     HN   16   0.517   1.096   1.888 -0.1142 -1.1838 -0.1484
    2ALA     CA   17   0.501   1.144   1.684  0.3883  0.2894 -0.3964
    2ALA     HA   18   0.484   1.088   1.593 -0.3230  2.0150 -1.3559
    2ALA     CB   19   0.392   1.245   1.728 -0.0672  0.3408  0.3759
    2ALA    HB1   20   0.380   1.331   1.658 -1.3485 -0.6859 -0.7337
    2ALA    HB2   21   0.407   1.288   1.829  3.6500 -0.1688  0.2048
    2ALA    HB3   22   0.296   1.191   1.714  0.4415 -0.2931 -0.9367
    2ALA      C   23   0.629   1.212   1.649 -0.3500  0.2410 -0.4788
    2ALA      O   24   0.716   1.233   1.729  0.2373  0.2609  0.6534
    3ASP      N   25   0.639   1.251   1.517  0.4762 -0.6624 -0.0458
    3ASP     HN   26   0.559   1.228   1.463 -3.1202  2.0519  3.5289
    3ASP     CA   27   0.743   1.327   1.456  0.0038 -0.0971 -0.2581
    3ASP     HA   28   0.840   1.301   1.497 -0.3410  0.1556  0.7422
    3ASP     CB   29   0.743   1.301   1.307  0.2706 -0.3177  0.5738
    3ASP    HB1   30   0.817   1.371   1.264  0.8544  0.5594  2.8627
    3ASP    HB2   31   0.641   1.312   1.265  0.3122 -1.6565  0.0545
    3ASP     CG   32   0.785   1.159   1.265 -0.8289 -0.0320  0.4610
    3ASP    OD1   33   0.820   1.077   1.353  0.2625 -0.2369  0.1199
    3ASP    OD2   34   0.793   1.130   1.145  0.3805 -0.1450  0.2768
    3ASP      C   35   0.727   1.474   1.486  0.8686  0.2301 -0.1098
    3ASP      O   36   0.632   1.520   1.558 -0.5895 -0.4423  0.1468
    4GLY      N   37   0.819   1.562   1.434  0.3032  0.2675  0.2791
    4GLY     HN   38   0.900   1.529   1.386  0.0054 -0.2656  0.1325
    4GLY     CA   39   0.828   1.707   1.473  0.0074  0.3064 -0.0955
    4GLY    HA1   40   0.731   1.748   1.498  0.1171  0.9993 -0.7902
    4GLY    HA2   41   0.878   1.759   1.393 -2.1035  0.9998 -1.0387
    4GLY      C   42   0.916   1.728   1.597  0.5992  0.2242 -0.0748
    4GLY      O   43   0.957   1.626   1.659 -0.3553  0.0098 -0.3642
    5PRO      N   44   0.954   1.854   1.637 -0.2097  0.1521 -0.0638
    5PRO     CD   45   0.914   1.972   1.559  0.0963 -0.0270  0.2498
    5PRO    HD1   46   0.804   1.983   1.557 -0.1059 -1.8193 -0.0317
    5PRO    HD2   47   0.944   1.969   1.452  0.1517 -0.3933  0.2738
    5PRO     CA   48   1.074   1.876   1.721  0.5293 -0.1564 -0.4167
    5PRO     HA   49   1.155   1.805   1.709  1.5046  0.7327  0.6492
    5PRO     CB   50   1.121   2.007   1.663 -0.1233 -0.3680  0.3299
    5PRO    HB1   51   1.189   1.986   1.578  2.6063  0.4039  2.1916
    5PRO    HB2   52   1.181   2.067   1.735  0.6822  0.8661 -1.2952
    5PRO     CG   53   1.000   2.086   1.613 -0.0369  0.0461 -0.4558
    5PRO    HG1   54   0.944   2.141   1.691  0.9998  0.0618  0.2976
    5PRO    HG2   55   1.022   2.154   1.528  0.8993  0.3460  0.0159
    5PRO      C   56   1.038   1.885   1.870  0.0534 -0.7477 -0.0258
    5PRO      O   57   1.135   1.874   1.946  0.3695 -0.9694  0.0958
    6GLY      N   58   0.908   1.899   1.909  0.3336  0.7793 -0.2700
    6GLY     HN   59   0.836   1.913   1.841  0.1990  0.6871 -0.1468
    6GLY     CA   60   0.863   1.928   2.041  0.9821 -0.1506  0.4239
    6GLY    HA1   61   0.925   1.863   2.101  1.3830  0.0208  0.2018
    6GLY    HA2   62   0.757   1.914   2.055  0.9699 -1.0055 -0.3979
    6GLY      C   63   0.895   2.064   2.102  0.2072  0.4290  0.0291
    6GLY      O   64   0.973   2.141   2.048 -0.4245  0.1423 -0.2666
    7ASP      N   65   0.833   2.089   2.220  0.8152 -0.0399 -0.0163
    7ASP     HN   66   0.764   2.034   2.266 -0.9462  1.0034 -1.3112
    7ASP     CA   67   0.840   2.210   2.306 -0.2309  0.3153  0.2733
    7ASP     HA   68   0.806   2.288   2.240 -0.5992  0.9437  1.1882
    7ASP     CB   69   0.737   2.200   2.426  0.6963 -0.5198  0.7363
    7ASP    HB1   70   0.746   2.295   2.483  1.3125 -0.8525  1.2088
    7ASP    HB2   71   0.750   2.102   2.476  0.3754 -1.6335 -1.2787
    7ASP     CG   72   0.592   2.204   2.385 -0.4070  0.5183 -0.2690
    7ASP    OD1   73   0.570   2.274   2.282  0.0051 -0.2791  0.3446
    7ASP    OD2   74   0.503   2.148   2.454 -0.3665  0.2019 -0.1064
    7ASP      C   75   0.982   2.249   2.363 -0.2141  0.5747  0.0328
    7ASP      O   76   1.053   2.154   2.408  0.2942 -0.1317  0.4313
    8PRO      N   77   1.028   2.371   2.368  0.0583 -0.0469 -0.0736
    8PRO     CD   78   0.976   2.486   2.301  0.9246  0.0408 -0.2601
    8PRO    HD1   79   0.900   2.522   2.374  1.0821  0.9911 -0.5591
    8PRO    HD2   80   0.921   2.471   2.206  0.1776  1.2488 -0.0351
    8PRO     CA   81   1.168   2.403   2.421 -0.5240  0.2086  0.0700
    8PRO     HA   82   1.240   2.354   2.358 -2.3885 -2.9985  0.2354
    8PRO     CB   83   1.172   2.556   2.403 -0.2566  0.5658 -0.1285
    8PRO    HB1   84   1.278   2.584   2.388 -0.0578 -1.0638 -2.1834
    8PRO    HB2   85   1.127   2.604   2.493  2.2230  0.3310  1.3149
    8PRO     CG   86   1.089   2.575   2.277 -0.1891  0.6214  0.3838
    8PRO    HG1   87   1.047   2.677   2.263 -2.2448 -0.2988 -0.5810
    8PRO    HG2   88   1.148   2.565   2.183 -0.3675  1.9169  0.1090
    8PRO      C   89   1.190   2.345   2.567 -0.1676  0.4747  0.3201
    8PRO      O   90   1.121   2.380   2.663  0.8155 -0.7594  0.6026
    9ASP      N   91   1.290   2.253   2.581  0.0570 -0.3045  0.4962
    9ASP     HN   92   1.315   2.200   2.500 -0.5003  0.0604  0.0827
    9ASP     CA   93   1.354   2.220   2.712  0.2872  0.6153 -0.3158
    9ASP     HA   94   1.283   2.168   2.774 -0.0357  2.6207  1.0998
    9ASP     CB   95   1.483   2.136   2.703 -0.2335 -0.5055 -0.6019
    9ASP    HB1   96   1.514   2.126   2.809 -1.5142  1.7438  0.0468
    9ASP    HB2   97   1.563   2.193   2.650 -0.5315 -0.8494 -1.4424
    9ASP     CG   98   1.464   1.997   2.646 -0.2747  0.0185  0.2930
    9ASP    OD1   99   1.353   1.943   2.617 -0.6291 -0.0939 -0.5643
    9ASP    OD2  100   1.562   1.921   2.636 -0.9060 -0.2392  0.1732
    9ASP      C  101   1.383   2.346   2.807  0.5635 -0.1396 -0.1645
    9ASP      O  102   1.434   2.448   2.761 -0.1615  0.0209  0.0616
   10ALA      N  103   1.338   2.338   2.937  0.2912 -0.4651  0.3069
   10ALA     HN  104   1.301   2.250   2.966 -0.0060  0.2262  2.1692
   10ALA     CA  105   1.356   2.436   3.037  0.1374 -0.0819 -0.8427
   10ALA     HA  106   1.279   2.509   3.016  0.2950  0.2787 -0.1970
   10ALA     CB  107   1.306   2.403   3.181 -0.3229 -0.3849  0.1682
   10ALA    HB1  108   1.199   2.377   3.168 -0.2891  0.2315 -1.5469
   10ALA    HB2  109   1.315   2.493   3.246  0.7500  0.5587 -1.2125
   10ALA    HB3  110   1.367   2.324   3.230  0.7263  0.9813  1.1683
   10ALA      C  111   1.497   2.493   3.044  0.4646 -0.0161 -0.5956
   10ALA      O  112   1.599   2.423   3.037  0.0319 -0.0179 -0.9223
   11GLY      N  113   1.498   2.623   3.058  0.1149 -0.1942  0.3788
   11GLY     HN  114   1.419   2.671   3.096  0.7481  1.6107 -0.4771
   11GLY     CA  115   1.615   2.711   3.054  0.0270  0.1027 -1.2905
   11GLY    HA1  116   1.699   2.658   3.096  1.2516  0.7944 -2.7884
   11GLY    HA2  117   1.579   2.802   3.100  0.3992 -1.1032  1.6206
   11GLY      C  118   1.659   2.745   2.912 -0.5783  0.8261  0.4036
   11GLY    OT1  119   1.761   2.691   2.859  0.4016  0.2940 -0.0340
   11GLY    OT2  120   1.594   2.835   2.842 -0.3660  0.6402 -0.1737
   12SOD    SOD  121   0.463   4.914   1.532  0.0026  0.1828  0.2790
   13SOD    SOD  122   4.158   1.090   1.605 -0.1568  0.1112 -0.6023
   14SOD    SOD  123   5.368   1.968   3.356  0.2596  0.0208 -0.6115
   15SOD    SOD  124   1.658   5.694   2.095  0.1531  0.3861 -0.1262
   16SOD    SOD  125   0.049   2.813   3.700  0.3034  0.1227 -0.1296
   17SOD    SOD  126   4.348   4.340   1.903  0.2070 -0.4265 -0.0925
   18SOD    SOD  127   3.030   1.948   1.970 -0.4417  0.0587 -0.2291
   19SOD    SOD  128   3.515   2.609   4.271  0.4898  0.1952 -0.2696
   20SOD    SOD  129   0.461   3.415   2.143 -0.0572 -0.0407  0.1135
   21SOD    SOD  130   0.396   0.362   3.291  0.2134 -0.2348  0.4082
   22SOD    SOD  131   6.073   0.851   4.520 -0.0848 -0.0890 -0.6081
   23SOD    SOD  132   2.159   1.429   4.892 -0.0093  0.0018  0.1565
   24SOD    SOD  133   4.465   0.232   3.254 -0.2750  0.2879  0.4478
   25SOD    SOD  134   1.070   3.216   5.021  0.1158  0.2938 -0.1667
   26SOD    SOD  135   5.892   4.892   1.008 -0.3251 -0.4643 -0.0528
   27SOD    SOD  136   3.979   3.486   2.166  0.0418 -0.1417  0.0055
   28SOD    SOD  137   4.931   0.588   2.218 -0.9563 -0.5887  0.0584
   29SOD    SOD  138   5.706   0.156   1.225  0.1773  0.3077 -0.4976
   30SOD    SOD  139   3.470   2.203   4.985 -0.4009  0.1337 -0.4164
   31SOD    SOD  140   0.462   4.239   3.528  0.1511  0.1238 -0.0561
   32SOD    SOD  141   4.330   2.089   3.481 -0.0163 -0.1280 -0.7165
   33SOD    SOD  142   4.071   0.263   4.937  0.0488 -0.1788  0.3031
   34CLA    CLA  143   4.098   0.320   2.900 -0.3166  0.2815 -0.1254
   35CLA    CLA  144   5.455   1.701   0.801  0.0029  0.0134  0.0498
   36CLA    CLA  145   5.016   4.040   0.466 -0.2403  0.6945 -0.1674
   37CLA    CLA  146   0.199   4.092   2.503  0.5870 -0.1547 -0.6583
   38CLA    CLA  147   3.401   1.915   4.141 -0.2191  0.0924 -0.2293
   39CLA    CLA  148   0.200   3.066   2.301 -0.3924  0.0005  0.1801
   40CLA    CLA  149   4.925   2.137   4.802 -0.0511 -0.1016  0.0481
   41CLA    CLA  150   6.327   4.767   3.831  0.0622  0.1269 -0.1748
   42CLA    CLA  151   2.418   2.186   3.078 -0.4321 -0.2858 -0.1366
   43CLA    CLA  152   5.426   1.311   3.277 -0.0718  0.0181  0.3209
   44CLA    CLA  153   0.362   5.857   2.662  0.1547 -0.3366  0.2713
   45CLA    CLA  154   3.037   3.800   1.672 -0.1242  0.2423 -0.0237
   46CLA    CLA  155   5.758   1.173   2.865  0.1465 -0.1845  0.2224
   47CLA    CLA  156   6.063   1.792   0.693 -0.0778 -0.3806  0.1336
   48CLA    CLA  157   4.324   1.942   1.219  0.2313 -0.2337 -0.3265
   49CLA    CLA  158   6.027   4.350   3.121 -0.1715 -0.3690  0.2639
   50CLA    CLA  159   4.889   0.070   1.695  0.0178  0.2932 -0.0924
   51CLA    CLA  160   3.735   2.138   0.768  0.1234  0.2424 -0.0926
   52TIP3   OH2  161   1.830   5.925   0.861  0.0703  0.1696 -0.3333
   52TIP3    H1  162   1.851   6.019   0.859  3.4005 -0.4185  0.6844
   52TIP3    H2  163   1.808   5.907   0.952 -1.3373  0.0511 -0.6766
   53TIP3   OH2  164   3.746   0.143  -0.020 -0.2684 -0.4349 -0.1556
   53TIP3    H1  165   3.752   0.191   0.063  0.0680 -0.0902 -0.3733
   53TIP3    H2  166   3.679   0.077  -0.005 -0.3352 -0.2601  0.3354
   54TIP3   OH2  167   3.966   2.539   4.128 -0.1704  0.3458  0.0733
   54TIP3    H1  168   3.977   2.453   4.169 -1.1095  0.9238  1.6488
   54TIP3    H2  169   4.031   2.541   4.057  0.2296 -1.4391  0.3447
   55TIP3   OH2  170   1.703   2.405   1.658 -0.6334 -0.1427 -0.8202
   55TIP3    H1  171   1.610   2.429   1.668 -0.6400 -0.4906  0.0317
   55TIP3    H2  172   1.738   2.471   1.598 -1.5700 -0.3703 -1.6464
   56TIP3   OH2  173   1.070   4.194   2.317  0.4233  0.5870 -0.5742
   56TIP3    H1  174   1.107   4.106   2.325  1.7234  1.1310 -0.3236
   56TIP3    H2  175   1.050   4.203   2.223 -1.1270 -0.4868 -0.3845
   57TIP3   OH2  176   3.084   5.742   5.060 -0.1205  0.0885 -0.6649
   57TIP3    H1  177   3.161   5.706   5.016  0.5453 -0.1218  0.6113
   57TIP3    H2  178   3.011   5.721   5.002  0.6922 -0.3269 -1.5652
   58TIP3   OH2  179   3.409   1.520   1.035 -0.0159  0.0002  0.7807
   58TIP3    H1  180   3.486   1.562   1.073 -0.2728  0.9345  0.2872
   58TIP3    H2  181   3.339   1.536   1.098 -0.6463  2.2810 -0.3983
   59TIP3   OH2  182   3.629   4.883   4.128  0.2353  0.1286  0.2129
   59TIP3    H1  183   3.555   4.945   4.126 -1.0162 -1.3268 -0.4913
   59TIP3    H2  184   3.620   4.838   4.212  0.3556 -0.0059  0.1528
   60TIP3   OH2  185   1.293   0.424   0.901 -0.2617  0.6221  0.2273
   60TIP3    H1  186   1.246   0.503   0.928  0.2689  1.2884 -0.7186
   60TIP3    H2  187   1.373   0.457   0.859 -0.0141 -0.4177 -0.1498
   61TIP3   OH2  188   4.920   4.694   3.830 -0.6540  0.1561  0.2929
   61TIP3    H1  189   4.928   4.713   3.737 -1.1272 -1.7033 -0.1606
   61TIP3    H2  190   4.983   4.753   3.872 -1.4551  2.0658 -1.0258
   62TIP3   OH2  191   0.596   5.566   4.593 -0.8952  0.2933  0.2221
   62TIP3    H1  192   0.690   5.565   4.613 -0.7475  0.6717 -0.4441
   62TIP3    H2  193   0.592   5.551   4.499 -1.5274 -0.1189  0.3099
   63TIP3   OH2  194   1.181   3.948   4.549  0.2094 -0.1042  0.4460
   63TIP3    H1  195   1.103   3.903   4.581  0.2736 -0.7882 -0.3375
   63TIP3    H2  196   1.182   4.030   4.598  0.6819 -1.3707  2.6777
   64TIP3   OH2  197   4.901   4.746   2.875  0.2036  0.0610 -0.3065
   64TIP3    H1  198   4.907   4.795   2.794  0.8375  1.1280  0.3580
   64TIP3    H2  199   4.992   4.735   2.903 -0.0293  0.4490  0.6703
   65TIP3   OH2  200   5.811   4.986   0.755  0.2119 -0.5290 -0.1160
   65TIP3    H1  201   5.816   4.960   0.664  0.2763 -1.3928  0.1254
   65TIP3    H2  202   5.727   5.032   0.763  0.6619  0.4537 -0.8192
   66TIP3   OH2  203   2.191   2.986   2.597 -0.1896 -0.2047  0.1933
   66TIP3    H1  204   2.128   2.918   2.623 -1.2916  1.0288  0.8510
   66TIP3    H2  205   2.258   2.938   2.547 -0.9522 -1.7607  0.5841
   67TIP3   OH2  206   4.565   4.828   2.902 -0.2656  0.0133  0.0345
   67TIP3    H1  207   4.574   4.834   2.997  0.0964 -0.6089  0.0457
   67TIP3    H2  208   4.601   4.742   2.880 -0.5661  0.0550 -0.6398
   68TIP3   OH2  209   3.803   0.245   4.605 -0.1936  0.2233  0.3855
   68TIP3    H1  210   3.863   0.315   4.628 -0.0833  0.0790  0.5393
   68TIP3    H2  211   3.716   0.278   4.629  0.0041 -0.2795  1.8892
   69TIP3   OH2  212   0.451   0.993   0.011 -0.1409 -0.1971  0.5325
   69TIP3    H1  213   0.508   0.987   0.088  1.5330 -1.5773 -0.7439
   69TIP3    H2  214   0.462   0.909  -0.034 -1.6236  0.3036 -0.8498
   70TIP3   OH2  215   5.520   3.533   1.355  0.3206  0.5066  0.0726
   70TIP3    H1  216   5.428   3.517   1.374  0.7612 -1.2679  0.9189
   70TIP3    H2  217   5.567   3.500   1.431  1.6502  2.2570  0.0975
   71TIP3   OH2  218   3.713   5.778   1.486  0.5745 -0.5434  0.1732
   71TIP3    H1  219   3.700   5.862   1.529  2.1411 -0.4190  0.4906
   71TIP3    H2  220   3.646   5.721   1.523 -0.2248  0.4392  0.2839
   72TIP3   OH2  221   4.984   0.096   0.680  0.0135  0.0179 -0.4729
   72TIP3    H1  222   4.908   0.118   0.733 -0.6544  0.5774 -1.6117
   72TIP3    H2  223   4.959   0.120   0.591  2.6255  3.3202 -0.5337
   73TIP3   OH2  224   0.180   4.620   5.022 -0.3872 -0.2077  0.2929
   73TIP3    H1  225   0.113   4.660   5.078 -2.1108 -1.4745 -0.7554
   73TIP3    H2  226   0.132   4.554   4.971  1.3859 -0.1336 -1.5979
   74TIP3   OH2  227   1.972   2.832   0.085 -0.1183  0.2764 -0.4494
   74TIP3    H1  228   2.005   2.756   0.133 -0.0025 -0.8403 -2.2171
   74TIP3    H2  229   2.029   2.904   0.112 -0.1244 -0.2659  1.1365
   75TIP3   OH2  230   2.486   3.973   4.186 -0.5441  0.3244  0.3419
   75TIP3    H1  231   2.433   3.978   4.106  1.4233  0.3182 -1.0439
   75TIP3    H2  232   2.457   4.047   4.239 -1.7669  0.4392 -0.4592
   76TIP3   OH2  233   5.398   3.289   3.228 -0.1364 -0.3355  0.5323
   76TIP3    H1  234   5.330   3.321   3.287  0.5329  2.0887  0.0676
   76TIP3    H2  235   5.358   3.292   3.141  0.1254 -0.2329  0.4148
   77TIP3   OH2  236   5.370   4.916   4.737  0.3774 -0.0266  0.4356
   77TIP3    H1  237   5.317   4.995   4.745  1.3191  0.8894 -1.6390
   77TIP3    H2  238   5.318   4.858   4.681  0.6974  0.0911  0.0099
   78TIP3   OH2  239   2.451   1.671   4.362  0.5010 -0.0837  0.2338
   78TIP3    H1  240   2.444   1.733   4.290 -1.5370  0.5038  0.8772
   78TIP3    H2  241   2.453   1.725   4.441 -1.6117 -0.7865  0.8196
   79TIP3   OH2  242   6.077   0.395   4.736  0.6921  0.0975 -0.6994
   79TIP3    H1  243   6.024   0.344   4.676  0.7011 -0.2908 -0.3848
   79TIP3    H2  244   6.160   0.408   4.690  0.9736 -0.8396 -0.4812
   80TIP3   OH2  245   3.925   2.076   3.730  0.0476 -0.4205  0.4907
   80TIP3    H1  246   3.835   2.106   3.720  0.4100  0.7029  0.4955
   80TIP3    H2  247   3.926   2.032   3.815 -0.7837 -1.5927 -0.0734
   81TIP3   OH2  248   4.356   5.504   4.428  0.0664  0.0686  0.1493
   81TIP3    H1  249   4.395   5.549   4.503  1.9945  0.3993 -0.9729
   81TIP3    H2  250   4.277   5.462   4.463  0.8884  0.2207  2.3338
   82TIP3   OH2  251   0.443   2.141   3.074 -0.1638  0.0220 -0.0921
   82TIP3    H1  252   0.467   2.118   3.164  0.9921 -0.2753 -0.4545
   82TIP3    H2  253   0.486   2.074   3.020 -0.8725  0.1785 -0.8648
   83TIP3   OH2  254   0.075   1.292   0.350 -0.2933  0.1474  0.4196
   83TIP3    H1  255   0.146   1.253   0.298  0.4024  1.6669  0.1757
   83TIP3    H2  256   0.002   1.300   0.288  0.5837  2.1014 -0.4364
   84TIP3   OH2  257   3.951   0.839   4.723  0.3825 -0.5273 -0.2724
   84TIP3    H1  258   3.951   0.932   4.748  0.8371 -0.3927 -0.7513
   84TIP3    H2  259   3.866   0.806   4.753  0.1326  0.0944 -0.2792
   85TIP3   OH2  260   4.579   2.107   0.375  0.1726 -0.8466  0.2709
   85TIP3    H1  261   4.534   2.156   0.445 -1.2101 -2.2630  0.4402
   85TIP3    H2  262   4.553   2.016   0.389  0.8006 -1.3252 -1.4119
   86TIP3   OH2  263   6.117   5.299   4.526  0.0044 -0.3307  0.2335
   86TIP3    H1  264   6.206   5.318   4.495  0.6786 -1.9336  1.0703
   86TIP3    H2  265   6.079   5.385   4.543  1.8774  0.3754  1.1434
   87TIP3   OH2  266   0.825   4.138   4.760  0.5357  0.0476  0.2014
   87TIP3    H1  267   0.811   4.142   4.855  0.4862 -1.1275  0.2542
   87TIP3    H2  268   0.851   4.048   4.743 -1.6002 -0.3700 -1.1895
   88TIP3   OH2  269   3.243   5.396   2.831 -0.4031  0.3028 -0.1646
   88TIP3    H1  270   3.195   5.324   2.788  0.7142 -0.4512 -0.1935
   88TIP3    H2  271   3.219   5.474   2.781 -0.4216 -0.3000 -1.1276
   89TIP3   OH2  272   0.473   1.401   0.865  0.3683  0.3573  0.0852
   89TIP3    H1  273   0.424   1.465   0.916  0.3033 -0.0345  0.5216
   89TIP3    H2  274   0.417   1.324   0.861  0.0793  0.6013 -1.1646
   90TIP3   OH2  275   4.725   0.457   3.936 -0.0981 -0.1178 -0.0706
   90TIP3    H1  276   4.782   0.464   3.860 -0.2814  0.5055 -0.1554
   90TIP3    H2  277   4.756   0.379   3.982  0.7699  0.1592 -0.1599
   91TIP3   OH2  278   2.490   5.193   0.697  0.0083 -0.4781  0.0559
   91TIP3    H1  279   2.490   5.278   0.655 -1.6442 -0.0546  0.8247
   91TIP3    H2  280   2.440   5.136   0.638 -0.8129 -0.3178  0.5665
   92TIP3   OH2  281   0.213   5.163   0.327 -0.0451  0.1565 -0.1417
   92TIP3    H1  282   0.197   5.216   0.405 -0.4474  1.3793 -1.0361
   92TIP3    H2  283   0.247   5.224   0.262 -3.0346 -0.0378 -2.0890
   93TIP3   OH2  284   2.864   3.509   4.438  0.0326  0.3034 -0.2840
   93TIP3    H1  285   2.825   3.430   4.401 -1.7639  0.5894  0.8691
   93TIP3    H2  286   2.825   3.580   4.389 -1.4288  0.6217  1.2424
   94TIP3   OH2  287   1.713   3.382   4.191  0.2548 -0.0542 -0.8989
   94TIP3    H1  288   1.647   3.341   4.136 -0.3231  0.3132 -0.5043
   94TIP3    H2  289   1.757   3.445   4.134 -1.5843  1.6637 -0.5278
   95TIP3   OH2  290   3.340   5.307   4.426  0.3077 -0.6652 -0.5677
   95TIP3    H1  291   3.379   5.246   4.363  2.0914 -0.3471  0.1643
   95TIP3    H2  292   3.335   5.257   4.507 -2.5635 -1.2764 -1.0141
   96TIP3   OH2  293   6.014   1.863   4.438 -0.1605 -0.5848 -0.2692
   96TIP3    H1  294   6.037   1.906   4.356  1.7998 -0.9202  0.0521
   96TIP3    H2  295   6.088   1.804   4.456 -0.4284 -0.3660  1.8340
   97TIP3   OH2  296   5.468   5.729   3.756  0.3377 -0.4479  0.2879
   97TIP3    H1  297   5.529   5.679   3.810  3.0073  0.0174 -2.0467
   97TIP3    H2  298   5.444   5.669   3.685 -0.6478 -0.0789  0.2943
   98TIP3   OH2  299   3.167   3.135   1.307  0.5575  0.3272  0.0818
   98TIP3    H1  300   3.222   3.062   1.335  0.4837 -0.5036 -1.7938
   98TIP3    H2  301   3.121   3.163   1.386  1.4385 -0.8986  1.0616
   99TIP3   OH2  302   2.143   4.977   0.222  0.7128 -0.1038 -0.1999
   99TIP3    H1  303   2.052   5.004   0.210  0.4525 -0.4635  0.9340
   99TIP3    H2  304   2.140   4.904   0.283  1.7243 -0.5053 -0.5941
  100TIP3   OH2  305   1.670   1.685   0.715 -0.1628 -0.3053  0.3183
  100TIP3    H1  306   1.618   1.630   0.774  0.4499 -1.1864  0.0760
  100TIP3    H2  307   1.611   1.755   0.688 -0.8682 -0.6572  0.9088
  101TIP3   OH2  308   3.533   1.302   2.759 -0.2790  0.3148 -0.3759
  101TIP3    H1  309   3.580   1.293   2.841 -0.8863  1.6195  0.1488
  101TIP3    H2  310   3.601   1.327   2.695 -0.1200  1.4114  0.2019
  102TIP3   OH2  311   0.948   5.466   3.243 -0.0693  0.0331 -0.0672
  102TIP3    H1  312   0.948   5.544   3.298  0.0958  1.2490 -1.7452
  102TIP3    H2  313   1.040   5.451   3.223 -0.0530 -0.9012  0.6163
  103TIP3   OH2  314   5.170   1.911   1.165  0.3909  0.0248  0.1315
  103TIP3    H1  315   5.181   1.832   1.217 -1.7234 -0.2082  0.2903
  103TIP3    H2  316   5.163   1.880   1.075  1.1507  0.1825  0.0127
  104TIP3   OH2  317   4.345   4.693   2.492 -0.1208 -0.6399  0.5596
  104TIP3    H1  318   4.254   4.697   2.520 -0.3348  0.3981 -0.2462
  104TIP3    H2  319   4.343   4.709   2.398  0.8998 -0.5441  0.5376
  105TIP3   OH2  320   1.538   2.598   0.880 -0.0930  0.6048  0.3916
  105TIP3    H1  321   1.480   2.529   0.912  1.2730 -0.6424  0.2233
  105TIP3    H2  322   1.595   2.619   0.954 -0.0957  1.1362  0.2521
  106TIP3   OH2  323   6.151   0.258   0.061  0.5959 -0.3261 -0.6995
  106TIP3    H1  324   6.121   0.169   0.043 -0.6257  0.1865 -1.3470
  106TIP3    H2  325   6.087   0.314   0.017  0.6560  0.9090  0.7025
  107TIP3   OH2  326   5.230   0.256   1.097  0.2237  0.3414  0.2774
  107TIP3    H1  327   5.270   0.222   1.177  1.8483  0.2382 -0.5337
  107TIP3    H2  328   5.188   0.338   1.124  0.2583  0.0129  1.3470
  108TIP3   OH2  329   0.099   5.918   1.767  0.2317 -0.3866  0.3539
  108TIP3    H1  330   0.093   5.840   1.823 -0.7941 -0.2744  0.4155
  108TIP3    H2  331   0.013   5.957   1.772  0.7921  0.8741  0.4656
  109TIP3   OH2  332   0.636   1.236   2.583 -0.5834 -0.6567 -0.7292
  109TIP3    H1  333   0.693   1.292   2.531  1.1759 -0.6099  1.1012
  109TIP3    H2  334   0.648   1.268   2.673 -0.1516 -3.3915  0.2797
  110TIP3   OH2  335   1.725   0.402   0.612 -0.1689 -0.2657 -0.5589
  110TIP3    H1  336   1.730   0.353   0.530 -3.3007 -0.2813 -0.8624
  110TIP3    H2  337   1.760   0.489   0.591  2.1958 -1.2392 -0.9338
  111TIP3   OH2  338   2.806   2.343   3.735 -0.6735 -0.8273  0.5629
  111TIP3    H1  339   2.758   2.261   3.751 -0.1999 -1.1990  0.1212
  111TIP3    H2  340   2.872   2.319   3.670 -0.4642 -0.1115  0.5097
  112TIP3   OH2  341   2.097   0.371   4.332 -0.3869 -0.1283 -0.5070
  112TIP3    H1  342   2.101   0.328   4.246  0.0332 -0.8871 -0.1270
  112TIP3    H2  343   2.158   0.320   4.386 -2.0391 -0.8313  0.7582
  113TIP3   OH2  344   0.328   3.878   1.982 -0.0950 -0.3926 -0.2735
  113TIP3    H1  345   0.291   3.924   2.057 -0.1115  1.4298 -1.3490
  113TIP3    H2  346   0.299   3.929   1.906 -0.2590 -2.2986 -1.5560
  114TIP3   OH2  347   2.213   4.601   0.206 -0.6697 -0.2719  0.6382
  114TIP3    H1  348   2.188   4.510   0.223  0.4637 -0.6945  0.1727
  114TIP3    H2  349   2.152   4.653   0.259 -1.6920 -1.2693  0.4942
  115TIP3   OH2  350   5.728   5.573   4.053 -0.0833  0.0729  0.3970
  115TIP3    H1  351   5.764   5.526   4.128  0.1744 -0.8930 -0.3030
  115TIP3    H2  352   5.663   5.633   4.090  0.4165 -0.0068  1.4269
  116TIP3   OH2  353   2.354   3.046   3.687 -0.0337 -0.0754  0.0806
  116TIP3    H1  354   2.284   3.091   3.734  0.8019  0.9110  0.3995
  116TIP3    H2  355   2.323   3.042   3.596 -0.6268  0.0920  0.2738
  117TIP3   OH2  356   5.587   2.164   0.183 -0.4375  0.3713 -0.2360
  117TIP3    H1  357   5.522   2.100   0.213 -1.7869  2.2312  1.0758
  117TIP3    H2  358   5.621   2.203   0.263  0.5204  1.1610 -0.9992
  118TIP3   OH2  359   5.967   3.505   0.385  0.4831  0.0015 -0.4187
  118TIP3    H1  360   6.002   3.478   0.470 -1.3932 -0.6810  0.1668
  118TIP3    H2  361   6.005   3.592   0.370 -0.4950  0.9173  1.9489
  119TIP3   OH2  362  -0.019   1.233   1.481  0.6550 -0.0685 -0.5234
  119TIP3    H1  363   0.028   1.316   1.483 -0.4826  0.5820  1.3625
  119TIP3    H2  364   0.046   1.168   1.509  0.7149  0.6824  1.1849
  120TIP3   OH2  365   0.371   1.143   1.367 -0.1365  0.4329  0.2999
  120TIP3    H1  366   0.339   1.222   1.323 -0.1900 -1.4934 -3.4903
  120TIP3    H2  367   0.293   1.104   1.407 -0.7768  0.5036 -0.8666
  121TIP3   OH2  368   0.895   2.458   4.020 -0.1329  0.3977 -0.7571
  121TIP3    H1  369   0.862   2.369   4.037  0.6006  0.5691  2.2625
  121TIP3    H2  370   0.946   2.451   3.940 -0.1627 -1.9099 -0.6367
  122TIP3   OH2  371   1.564   4.819   1.220  0.3226  0.6217 -0.0122
  122TIP3    H1  372   1.518   4.894   1.259 -0.7382  1.1009 -2.0525
  122TIP3    H2  373   1.503   4.746   1.231 -0.8029  1.1382 -2.2170
  123TIP3   OH2  374   3.535   5.172   4.595 -0.3093 -0.1617  0.2053
  123TIP3    H1  375   3.604   5.106   4.584  0.8167  1.1717 -1.0787
  123TIP3    H2  376   3.467   5.127   4.646  1.5063 -1.5147  1.5708
  124TIP3   OH2  377   0.863   3.722   3.350 -0.0546  0.3028 -0.1110
  124TIP3    H1  378   0.780   3.677   3.331 -0.1843 -0.0233  1.1298
  124TIP3    H2  379   0.840   3.787   3.416  0.0377  2.5955 -2.1916
  125TIP3   OH2  380   0.260   4.334   1.602  0.2041  0.1303 -0.2691
  125TIP3    H1  381   0.186   4.308   1.657  0.0486  1.0755 -0.0057
  125TIP3    H2  382   0.331   4.274   1.626 -0.7962 -1.5971 -1.3978
  126TIP3   OH2  383   5.708   0.141   0.092  0.3755  0.2471  0.0791
  126TIP3    H1  384   5.762   0.063   0.098 -0.5497 -0.4062  0.2411
  126TIP3    H2  385   5.693   0.167   0.183 -0.4225 -0.1907  0.0815
  127TIP3   OH2  386   3.281   3.123   2.603  0.0022 -0.0861  0.5209
  127TIP3    H1  387   3.232   3.043   2.624 -0.3708 -0.2180 -0.7631
  127TIP3    H2  388   3.297   3.117   2.508  1.3428  0.6133  0.6829
  128TIP3   OH2  389   2.654   1.698   1.833 -0.1078 -0.0010  0.0686
  128TIP3    H1  390   2.730   1.743   1.870 -0.4610  1.8118 -1.2371
  128TIP3    H2  391   2.641   1.740   1.748 -2.7317 -0.0796  0.3503
  129TIP3   OH2  392   0.288   3.927   4.007 -0.6391  0.1322  0.2204
  129TIP3    H1  393   0.366   3.941   4.060  1.1421 -3.8539 -0.9535
  129TIP3    H2  394   0.231   3.872   4.061 -0.9508 -0.0521 -0.2830
  130TIP3   OH2  395   2.854   2.501   0.569  0.4667  0.2845 -0.0240
  130TIP3    H1  396   2.863   2.444   0.493 -0.7285 -0.0983  0.1096
  130TIP3    H2  397   2.942   2.503   0.607  0.4454 -1.9312  0.2868
  131TIP3   OH2  398   2.253   0.573   0.096 -0.6815  0.6469  0.5271
  131TIP3    H1  399   2.172   0.598   0.141 -0.8818  0.0518  0.5188
  131TIP3    H2  400   2.318   0.635   0.127 -1.0593  0.9012  0.8258
  132TIP3   OH2  401   3.823   1.543   3.435  0.2086 -0.0977 -0.0061
  132TIP3    H1  402   3.757   1.513   3.371 -0.1317  1.5700 -0.4851
  132TIP3    H2  403   3.814   1.482   3.508  0.1705 -1.6898 -1.2601
  133TIP3   OH2  404   5.288   4.277   0.916  0.0379  0.1339 -0.5101
  133TIP3    H1  405   5.201   4.237   0.926  0.5607 -1.2192 -1.1985
  133TIP3    H2  406   5.315   4.255   0.827  0.4561  1.8774 -0.8529
  134TIP3   OH2  407   3.116   1.676   4.078  0.3987  0.4127 -0.0625
  134TIP3    H1  408   3.173   1.712   4.010  0.9560 -1.7120 -0.7944
  134TIP3    H2  409   3.116   1.582   4.062 -1.3083  0.0945  1.5021
  135TIP3   OH2  410   2.611   2.970   3.563 -0.1415 -0.2803 -0.1755
  135TIP3    H1  411   2.520   2.998   3.578 -1.0897 -2.6401 -1.0301
  135TIP3    H2  412   2.617   2.885   3.606  1.1713 -0.8782 -1.4636
  136TIP3   OH2  413   4.938   4.355   4.050  0.4918  0.1646 -0.4071
  136TIP3    H1  414   4.919   4.403   4.130 -1.0601 -1.7010  0.3951
  136TIP3    H2  415   5.029   4.378   4.029  0.8475  0.8626  1.7298
  137TIP3   OH2  416   3.859   1.129   0.064  0.6992  0.4175  0.2653
  137TIP3    H1  417   3.822   1.199   0.010 -0.3750 -0.4809 -0.1954
  137TIP3    H2  418   3.825   1.146   0.152  2.2198  1.7138  0.6540
  138TIP3   OH2  419   4.738   5.699   3.455  0.4533 -0.5843  0.5818
  138TIP3    H1  420   4.707   5.627   3.510  0.9316 -0.6996  0.6999
  138TIP3    H2  421   4.831   5.708   3.477 -0.1253  1.7444  2.4812
  139TIP3   OH2  422   4.146   0.339   1.787 -0.2458  0.3412  0.1104
  139TIP3    H1  423   4.234   0.365   1.761  0.4051 -0.0460  1.7809
  139TIP3    H2  424   4.159   0.275   1.857 -1.8400  0.8290  0.9258
  140TIP3   OH2  425   1.361   5.602   0.509  0.1194 -0.1218 -0.2204
  140TIP3    H1  426   1.320   5.550   0.440 -0.8910  1.4882 -0.8873
  140TIP3    H2  427   1.425   5.657   0.464  1.5105 -1.0609  0.5340
  141TIP3   OH2  428   3.602   2.364   2.809  0.5278 -0.3019  0.3503
  141TIP3    H1  429   3.674   2.302   2.808 -0.9308 -2.0990  0.6089
  141TIP3    H2  430   3.540   2.329   2.744  1.1023  2.8040 -2.1379
  142TIP3   OH2  431   1.121   5.313   2.337 -0.3586 -0.3860 -0.1846
  142TIP3    H1  432   1.211   5.327   2.366 -0.5572  1.0565 -0.2077
  142TIP3    H2  433   1.071   5.298   2.417 -0.5323  1.4660  0.1017
  143TIP3   OH2  434   4.979   2.271   4.520  0.3498  0.3924  0.6189
  143TIP3    H1  435   4.890   2.290   4.491  0.9696  1.4690 -0.7604
  143TIP3    H2  436   4.969   2.226   4.603 -1.5081 -0.4635 -0.0121
  144TIP3   OH2  437   3.469   1.698   2.922  0.0025  0.5785  0.0538
  144TIP3    H1  438   3.384   1.728   2.954 -0.6882 -0.7468 -0.4570
  144TIP3    H2  439   3.478   1.738   2.836  0.1426  1.1447  0.3310
  145TIP3   OH2  440   4.148   2.929   2.520  0.7969  0.2281 -0.2095
  145TIP3    H1  441   4.231   2.890   2.493  0.1911 -0.8462 -0.5864
  145TIP3    H2  442   4.117   2.977   2.443  1.7257  1.8323  0.3719
  146TIP3   OH2  443   3.212   3.462   3.451  0.3567  0.1792 -0.4067
  146TIP3    H1  444   3.268   3.387   3.469  1.8154  1.3084 -0.0298
  146TIP3    H2  445   3.228   3.483   3.358 -0.0699  0.0115 -0.5209
  147TIP3   OH2  446   4.014   2.303   2.631  0.2887  0.0666  0.4591
  147TIP3    H1  447   4.054   2.354   2.561  1.3471  0.4095  1.2754
  147TIP3    H2  448   3.959   2.366   2.678  1.3397  0.3920  1.2714
  148TIP3   OH2  449   1.896   0.607   3.159  0.3462 -0.2571  0.6171
  148TIP3    H1  450   1.982   0.602   3.117  0.5417 -0.1403  0.9980
  148TIP3    H2  451   1.869   0.515   3.168 -0.0070 -0.2638 -0.3762
  149TIP3   OH2  452   5.699   0.996   0.360  0.2915  0.1155 -0.0456
  149TIP3    H1  453   5.757   0.935   0.315 -0.3818 -0.9229  0.4674
  149TIP3    H2  454   5.738   1.006   0.447  0.9638  1.2413 -0.4476
  150TIP3   OH2  455   0.423   1.720   1.954  0.1375  0.5799  0.1673
  150TIP3    H1  456   0.506   1.691   1.917  0.9329  1.6147  1.0615
  150TIP3    H2  457   0.361   1.651   1.932  1.0022  0.2526 -1.3827
  151TIP3   OH2  458   4.269   4.524   1.783  0.3172 -0.0467  0.5870
  151TIP3    H1  459   4.279   4.506   1.690 -1.6231  0.0964  0.3095
  151TIP3    H2  460   4.250   4.618   1.787 -0.4377 -0.2112  1.0457
  152TIP3   OH2  461   1.749   5.948   3.190  0.2974  0.2327 -0.0959
  152TIP3    H1  462   1.686   6.020   3.185  0.8039  0.7597  0.7942
  152TIP3    H2  463   1.766   5.937   3.283 -0.8563 -2.0352 -0.1001
  153TIP3   OH2  464   1.850   3.373   0.831  0.1932 -0.1371  0.5673
  153TIP3    H1  465   1.761   3.408   0.843  0.2146  0.3950 -0.6466
  153TIP3    H2  466   1.899   3.406   0.906 -0.2717  0.8361  0.4618
  154TIP3   OH2  467   5.790   0.061   4.503 -0.0884 -0.0425 -0.1465
  154TIP3    H1  468   5.787  -0.022   4.551 -1.0744 -0.9187 -1.6724
  154TIP3    H2  469   5.841   0.042   4.425 -1.1153  0.5391 -0.9787
  155TIP3   OH2  470   0.621   3.543   3.375  0.0134  0.1769 -0.9249
  155TIP3    H1  471   0.631   3.475   3.443 -1.1378  1.7999  0.9943
  155TIP3    H2  472   0.563   3.504   3.310  1.4618 -1.5778 -1.2579
  156TIP3   OH2  473   1.288   0.552   1.639 -0.1928  0.6907 -0.7453
  156TIP3    H1  474   1.317   0.488   1.573  1.7659 -0.6963  1.3212
  156TIP3    H2  475   1.326   0.635   1.609  0.9511  0.0257 -1.2067
  157TIP3   OH2  476   0.073   1.510   3.541  0.4841 -0.0262  0.2668
  157TIP3    H1  477   0.036   1.588   3.499 -0.2357 -0.1661  0.6223
  157TIP3    H2  478   0.027   1.505   3.625 -0.0388 -1.2702 -0.0801
  158TIP3   OH2  479   4.280   4.824   0.559 -0.0048 -0.6175 -0.3489
  158TIP3    H1  480   4.365   4.847   0.522  0.0139  2.3685  1.2798
  158TIP3    H2  481   4.217   4.846   0.490  0.3605 -0.1006 -0.5240
  159TIP3   OH2  482   3.738   0.888   1.405 -0.8175 -0.0362 -0.2137
  159TIP3    H1  483   3.669   0.873   1.470 -0.6749  1.1003  0.2261
  159TIP3    H2  484   3.815   0.844   1.440 -0.7458  0.5608  0.3866
  160TIP3   OH2  485   4.525   3.459   3.962  0.1194 -0.2654 -0.8379
  160TIP3    H1  486   4.505   3.510   3.883 -0.6613 -0.9414 -1.0933
  160TIP3    H2  487   4.464   3.385   3.959  0.3385 -0.5078  0.2048
  161TIP3   OH2  488   5.265   4.934   2.092  0.7128 -0.0006  0.2849
  161TIP3    H1  489   5.202   4.910   2.023  0.3648  0.8225  0.3035
  161TIP3    H2  490   5.283   5.026   2.077  2.6735 -0.4300 -0.2992
  162TIP3   OH2  491   3.591   2.595   0.621  0.0915 -0.7618  0.2608
  162TIP3    H1  492   3.667   2.537   0.617 -0.3285 -1.4691  1.8540
  162TIP3    H2  493   3.516   2.536   0.630 -0.6453 -0.0599 -0.8979
  163TIP3   OH2  494   1.574   3.061   2.705  0.3472 -0.0199 -0.5203
  163TIP3    H1  495   1.586   2.966   2.712  1.5730  0.0434 -1.3125
  163TIP3    H2  496   1.485   3.072   2.671  0.3810 -0.9157 -0.9331
  164TIP3   OH2  497   5.729   3.233   3.846 -0.3822  0.1018 -0.4577
  164TIP3    H1  498   5.768   3.304   3.794 -0.1811 -1.0634 -1.9713
  164TIP3    H2  499   5.719   3.271   3.933  1.5673  1.3695 -0.6987
  165TIP3   OH2  500   0.330   1.748   0.625 -0.1023 -0.2793  0.4027
  165TIP3    H1  501   0.285   1.700   0.694  0.6534  0.2630  1.3118
  165TIP3    H2  502   0.265   1.807   0.590  0.0101  0.9578  2.1382
  166TIP3   OH2  503   6.265   4.838   4.511  0.4047  0.4492  0.3151
  166TIP3    H1  504   6.195   4.902   4.519 -0.9186 -0.7687 -0.8907
  166TIP3    H2  505   6.344   4.890   4.498 -0.3238  1.8489  1.2950
  167TIP3   OH2  506   1.873   1.789   4.332 -0.0108  0.3267  0.4969
  167TIP3    H1  507   1.946   1.726   4.330  1.0256  1.4947 -0.2669
  167TIP3    H2  508   1.896   1.854   4.265 -1.8838  0.6190  0.0734
  168TIP3   OH2  509   2.629   3.116   0.758 -0.4371  0.2326  0.7277
  168TIP3    H1  510   2.632   3.211   0.745 -0.2091  0.2126  0.6307
  168TIP3    H2  511   2.647   3.080   0.671 -3.0813  0.0915  0.1659
  169TIP3   OH2  512   5.443   0.325   3.983  0.9482 -0.0467 -0.3902
  169TIP3    H1  513   5.482   0.238   3.996 -2.6404 -1.8620 -0.5099
  169TIP3    H2  514   5.411   0.324   3.893 -1.6877  0.1469  0.4522
  170TIP3   OH2  515   3.194   1.014   0.457  0.1844  0.2873  0.9952
  170TIP3    H1  516   3.148   0.958   0.394 -1.4218  0.2981  2.0995
  170TIP3    H2  517   3.171   1.103   0.431 -0.3534  0.2968  1.5076
  171TIP3   OH2  518   1.615   3.517   4.890  0.0070  0.3345 -0.0364
  171TIP3    H1  519   1.707   3.532   4.868  0.9096  0.4788  3.2769
  171TIP3    H2  520   1.567   3.534   4.809  2.8145  0.9671 -1.6750
  172TIP3   OH2  521   2.954   3.637   2.444 -0.3803 -0.7846  0.3635
  172TIP3    H1  522   2.884   3.689   2.405  0.6964  0.0415 -0.5494
  172TIP3    H2  523   3.009   3.701   2.490 -0.0316 -1.3668  0.7722
  173TIP3   OH2  524   2.259   0.456   4.872 -0.4188  0.1775  0.3398
  173TIP3    H1  525   2.219   0.541   4.853 -1.4677 -0.4950 -0.5455
  173TIP3    H2  526   2.192   0.392   4.850  0.7458 -0.9402 -0.0826
  174TIP3   OH2  527   2.828   3.689   4.944 -0.2549  0.0998 -0.1514
  174TIP3    H1  528   2.860   3.763   4.893 -2.3175  0.2623 -1.3429
  174TIP3    H2  529   2.882   3.615   4.917  1.8240  1.1081  1.0422
  175TIP3   OH2  530   4.550   5.887   4.045  0.4818 -0.6809 -0.0942
  175TIP3    H1  531   4.555   5.939   4.125  1.4139 -0.0062 -0.5692
  175TIP3    H2  532   4.459   5.895   4.017  0.4776  0.2919  0.1368
  176TIP3   OH2  533   5.574   0.273   1.376  0.0733  0.3813 -0.5392
  176TIP3    H1  534   5.485   0.264   1.412  0.5682 -0.5962  0.5053
  176TIP3    H2  535   5.625   0.312   1.447  1.3308 -2.6073  0.4062
  177TIP3   OH2  536   1.607   1.499   0.943 -0.2100 -0.6547  0.3677
  177TIP3    H1  537   1.549   1.468   1.012  0.2463  0.4977  1.3123
  177TIP3    H2  538   1.676   1.547   0.989 -0.5466  1.2176 -0.9215
  178TIP3   OH2  539   6.334   1.073   3.153 -0.2883  0.1370  0.4580
  178TIP3    H1  540   6.401   1.132   3.121  2.3578 -1.0502  3.3118
  178TIP3    H2  541   6.296   1.118   3.229 -0.2413 -0.6064  0.9392
  179TIP3   OH2  542   4.011   5.359   3.503 -0.0218  0.3186  0.1764
  179TIP3    H1  543   4.034   5.360   3.410 -1.2359  0.6790 -0.1403
  179TIP3    H2  544   4.004   5.266   3.524  0.8568  0.2171  0.0835
  180TIP3   OH2  545   6.300   0.862   1.139 -0.1932  0.1492 -0.1014
  180TIP3    H1  546   6.213   0.857   1.099 -0.6795  2.0114  0.6274
  180TIP3    H2  547   6.308   0.953   1.168  2.8872  0.6940 -2.1130
  181TIP3   OH2  548   0.516   2.654   3.860  0.1993  0.5568 -0.4277
  181TIP3    H1  549   0.427   2.623   3.846  0.0166  1.2986 -0.9460
  181TIP3    H2  550   0.534   2.635   3.952 -1.2528  2.2826  0.2609
  182TIP3   OH2  551   1.086   3.141   3.808 -0.0745 -0.4913 -0.0698
  182TIP3    H1  552   1.102   3.047   3.800 -0.3661 -0.4535 -1.3263
  182TIP3    H2  553   1.073   3.171   3.718 -0.3185  0.6982  0.3385
  183TIP3   OH2  554   1.759   4.956   3.239 -0.0727  0.3854 -0.3710
  183TIP3    H1  555   1.836   4.989   3.285 -1.1282 -0.7579  2.4883
  183TIP3    H2  556   1.689   5.015   3.266 -0.7422 -0.3749 -0.4184
  184TIP3   OH2  557   2.352   5.798   3.849 -0.2869 -0.3248 -0.3180
  184TIP3    H1  558   2.318   5.710   3.832 -2.0344  0.2963 -0.2007
  184TIP3    H2  559   2.350   5.841   3.764 -1.2017  0.1784 -0.0474
  185TIP3   OH2  560   1.335   1.447   0.679 -0.4134 -0.0930 -0.1608
  185TIP3    H1  561   1.279   1.471   0.752 -0.4866 -0.9726  0.0728
  185TIP3    H2  562   1.276   1.438   0.605 -0.6848 -1.6694  0.2292
  186TIP3   OH2  563   5.005   1.841   4.279 -0.1976  0.0727  0.3024
  186TIP3    H1  564   5.059   1.920   4.272 -0.3483  0.6766  3.9433
  186TIP3    H2  565   4.915   1.873   4.277 -0.2532  0.2008  2.7554
  187TIP3   OH2  566   0.706   0.399   2.241 -0.0353  0.2434  1.1475
  187TIP3    H1  567   0.673   0.472   2.293  0.4778  1.1174  0.2743
  187TIP3    H2  568   0.800   0.413   2.236  0.2292 -1.1021  1.8969
  188TIP3   OH2  569   4.218   0.571   3.077 -0.3158 -0.6566  0.1059
  188TIP3    H1  570   4.161   0.646   3.059  0.6959  0.0525 -0.2205
  188TIP3    H2  571   4.182   0.500   3.023 -0.7846 -0.1834 -0.2219
  189TIP3   OH2  572   3.450   5.001   0.590  0.4753  0.1199 -0.4935
  189TIP3    H1  573   3.375   5.057   0.568 -1.9551 -2.6847  0.0814
  189TIP3    H2  574   3.500   4.995   0.509 -1.3406  0.0379 -1.6487
  190TIP3   OH2  575   0.419   5.897   1.680 -0.5117  0.0269  0.4963
  190TIP3    H1  576   0.437   5.823   1.737 -0.0960  1.1073  1.8381
  190TIP3    H2  577   0.323   5.903   1.677 -0.5755 -1.1143 -0.4188
  191TIP3   OH2  578   4.804   0.933   0.474 -0.3050 -0.0636 -0.1611
  191TIP3    H1  579   4.870   0.864   0.471 -1.3732 -1.1782  0.6233
  191TIP3    H2  580   4.829   0.994   0.405  2.7828  0.7512  1.5087
  192TIP3   OH2  581   4.715   1.316   1.839  0.4378 -0.2659 -0.3772
  192TIP3    H1  582   4.654   1.338   1.768  1.6436 -0.9777 -1.6776
  192TIP3    H2  583   4.684   1.367   1.914 -1.1071  0.2067 -1.2961
  193TIP3   OH2  584   4.761   0.425   4.738 -0.2584 -0.3304  0.5502
  193TIP3    H1  585   4.845   0.470   4.735  0.1397 -0.8237  2.5765
  193TIP3    H2  586   4.698   0.489   4.706  1.1279 -0.8482 -3.7895
  194TIP3   OH2  587   0.277   0.054   0.346 -0.0325 -0.1435  0.2823
  194TIP3    H1  588   0.340  -0.006   0.387  0.0411  0.4913  1.1211
  194TIP3    H2  589   0.306   0.141   0.373 -1.0464  0.1807  0.3619
  195TIP3   OH2  590   4.456   2.780   2.725  0.3380 -0.1223  0.3402
  195TIP3    H1  591   4.375   2.730   2.714 -0.2605  0.6022  1.2697
  195TIP3    H2  592   4.446   2.823   2.810  1.6178  0.1517  0.3755
  196TIP3   OH2  593   2.845   5.541   0.303 -0.0024 -0.0360  0.8180
  196TIP3    H1  594   2.780   5.496   0.357  0.3775 -0.6468  0.7761
  196TIP3    H2  595   2.896   5.471   0.263 -0.5734  0.3876 -0.7155
  197TIP3   OH2  596   5.607   1.979   1.886 -0.6109  0.4106 -0.2714
  197TIP3    H1  597   5.559   2.037   1.945 -0.2166  0.5828 -0.1201
  197TIP3    H2  598   5.658   2.039   1.830 -0.0441  0.2080  0.0210
  198TIP3   OH2  599   1.403   3.033   1.861 -0.4149 -0.5567  0.0793
  198TIP3    H1  600   1.383   2.939   1.862 -1.0864 -0.4145  0.0664
  198TIP3    H2  601   1.328   3.074   1.902  1.1023 -0.2412  2.7575
  199TIP3   OH2  602   1.182   4.196   4.657  0.0111 -0.7219  0.0682
  199TIP3    H1  603   1.157   4.281   4.621  1.4718 -0.1807  0.2580
  199TIP3    H2  604   1.277   4.197   4.656  0.0494 -2.3169  0.2073
  200TIP3   OH2  605   0.502   0.170   0.541 -0.1315  0.5952  0.3885
  200TIP3    H1  606   0.568   0.229   0.504  0.0121 -0.6910 -1.5620
  200TIP3    H2  607   0.498   0.193   0.634  2.6758  1.0691  0.4674
  201TIP3   OH2  608   4.628   4.897   0.111  0.0321  0.2149 -0.5708
  201TIP3    H1  609   4.647   4.983   0.148  1.4124 -0.4353  0.3055
  201TIP3    H2  610   4.533   4.898   0.098 -0.0397  1.7096 -0.1840
  202TIP3   OH2  611   5.474   0.895   1.031 -0.1958  0.5647  0.5034
  202TIP3    H1  612   5.462   0.831   1.101  0.3595  0.1516  0.2249
  202TIP3    H2  613   5.401   0.880   0.972  0.2841 -0.2508  0.1085
  203TIP3   OH2  614   4.457   4.947   4.014 -0.2379  0.3398  0.4520
  203TIP3    H1  615   4.532   4.958   3.955 -0.6127  1.2209  0.1228
  203TIP3    H2  616   4.441   5.035   4.048 -0.1773 -0.1164  1.6953
  204TIP3   OH2  617   3.315   3.822   1.546 -0.4330  0.0810 -0.1666
  204TIP3    H1  618   3.333   3.914   1.530 -0.2406 -0.2145 -1.8135
  204TIP3    H2  619   3.254   3.822   1.620 -0.2866  1.5050 -0.0227
  205TIP3   OH2  620   3.044   5.655   0.479  0.0134 -0.4657  1.2262
  205TIP3    H1  621   3.108   5.714   0.440 -1.5141  1.4879  1.4710
  205TIP3    H2  622   2.990   5.625   0.406  0.7739 -1.5901  1.1051
  206TIP3   OH2  623   5.748   5.542   1.830  0.3180 -0.0571  0.1614
  206TIP3    H1  624   5.739   5.499   1.915  0.4417  1.9940  1.2659
  206TIP3    H2  625   5.832   5.588   1.834 -0.8438  2.2390  0.0127
  207TIP3   OH2  626   3.854   1.373   2.050 -0.4447  0.2757 -0.0393
  207TIP3    H1  627   3.923   1.439   2.053 -0.0714 -0.0929 -0.3086
  207TIP3    H2  628   3.778   1.419   2.017  0.0381  0.3878 -1.0331
  208TIP3   OH2  629   1.015   4.665   3.464 -0.3728  0.1465  0.3800
  208TIP3    H1  630   0.940   4.617   3.430 -0.4307  0.3253  0.2509
  208TIP3    H2  631   1.074   4.598   3.498  0.3898 -0.1733 -1.4543
  209TIP3   OH2  632   1.923   2.182   0.026 -0.3306  0.2924  0.4359
  209TIP3    H1  633   1.884   2.200   0.112 -0.0400 -0.6583  0.7824
  209TIP3    H2  634   1.985   2.254   0.012 -0.2068  0.3274  1.1355
  210TIP3   OH2  635   2.290   5.181   2.387  0.1347 -0.3367 -0.0984
  210TIP3    H1  636   2.223   5.128   2.343 -0.7644  0.0430  0.7550
  210TIP3    H2  637   2.253   5.198   2.474  1.0959  0.3768  0.1888
  211TIP3   OH2  638   3.023   2.622   3.845  0.1878 -0.2019  0.3522
  211TIP3    H1  639   2.992   2.682   3.912 -2.3194 -0.5228 -0.3958
  211TIP3    H2  640   2.958   2.629   3.775  1.4028 -1.6457 -1.0063
  212TIP3   OH2  641   4.254   3.697   0.282  0.3364  0.8479 -0.2873
  212TIP3    H1  642   4.298   3.656   0.207  0.1808  0.3105 -0.0835
  212TIP3    H2  643   4.193   3.630   0.314  1.7613  0.3489  1.5269
  213TIP3   OH2  644   2.311   3.107   2.941  0.4602  0.3612 -0.1332
  213TIP3    H1  645   2.258   3.050   2.996  1.7384 -0.7894 -0.0283
  213TIP3    H2  646   2.261   3.115   2.859  0.8725 -2.1184 -0.6961
  214TIP3   OH2  647   3.484   1.284   0.163  0.4140 -0.6010 -0.6784
  214TIP3    H1  648   3.549   1.353   0.152  1.6660 -1.6933 -0.4589
  214TIP3    H2  649   3.501   1.224   0.090 -2.4660  0.6417 -2.5203
  215TIP3   OH2  650   4.967   1.702   3.382 -0.7913  0.3059 -0.2449
  215TIP3    H1  651   5.015   1.667   3.457 -0.7508 -1.1161 -0.9039
  215TIP3    H2  652   4.890   1.645   3.374  0.8079 -1.7357 -3.2036
  216TIP3   OH2  653   3.058   4.986   1.795  0.2911 -0.0706 -0.4388
  216TIP3    H1  654   3.128   5.048   1.816  0.5310  0.5614 -2.8463
  216TIP3    H2  655   3.093   4.900   1.819  0.1266  0.5943  2.5138
  217TIP3   OH2  656   1.654   5.288   4.519 -0.1143  0.2488  0.3141
  217TIP3    H1  657   1.734   5.316   4.566 -0.8416 -0.1199  1.8516
  217TIP3    H2  658   1.608   5.370   4.500 -0.3814  0.3578  1.3572
  218TIP3   OH2  659   3.113   3.249   3.835 -0.2774 -0.2497 -0.3132
  218TIP3    H1  660   3.123   3.287   3.747 -0.7130 -1.1618 -0.7641
  218TIP3    H2  661   3.050   3.307   3.878 -1.3029 -0.7066 -1.1596
  219TIP3   OH2  662   5.622   0.450   5.073  0.3231  0.2518 -0.4809
  219TIP3    H1  663   5.590   0.522   5.019 -2.6405  0.5077  1.3624
  219TIP3    H2  664   5.547   0.392   5.082  1.0013 -0.3373  2.3507
  220TIP3   OH2  665   3.026   0.628   2.560 -0.1522  0.5041 -0.0897
  220TIP3    H1  666   3.079   0.550   2.579  0.2055  0.8632  0.4094
  220TIP3    H2  667   2.968   0.600   2.490  0.1281 -0.1496 -0.0748
  221TIP3   OH2  668   1.529   3.442   0.778 -0.9125 -0.1616  0.9263
  221TIP3    H1  669   1.582   3.520   0.764 -1.0159 -0.0022  1.3926
  221TIP3    H2  670   1.535   3.393   0.696 -1.8888  0.9511  0.1636
  222TIP3   OH2  671   5.555   4.131   2.630  1.4127  0.4907  0.8272
  222TIP3    H1  672   5.574   4.078   2.552 -0.3988  0.2059  0.5411
  222TIP3    H2  673   5.497   4.200   2.599 -0.0079 -0.1016  2.0306
  223TIP3   OH2  674   1.113   2.380   0.792 -0.4599 -0.4840 -0.3395
  223TIP3    H1  675   1.067   2.299   0.770 -0.7573 -1.3884  3.1062
  223TIP3    H2  676   1.048   2.434   0.836  0.1427  1.0409 -1.2337
  224TIP3   OH2  677   3.029   5.618   1.690 -0.2532 -0.4499  0.2850
  224TIP3    H1  678   2.971   5.553   1.651  0.2068  0.0604 -1.3158
  224TIP3    H2  679   3.114   5.574   1.696 -0.6646 -1.0596  2.2482
  225TIP3   OH2  680   0.438   1.199   0.394 -0.2423 -0.0833  0.7593
  225TIP3    H1  681   0.517   1.162   0.432 -1.1522 -0.8668  1.9680
  225TIP3    H2  682   0.441   1.292   0.418  0.2300 -0.1475  0.9584
  226TIP3   OH2  683   2.125   5.082   2.801 -0.2669  0.1205 -0.0203
  226TIP3    H1  684   2.194   5.017   2.809 -0.6288 -0.4549 -1.3115
  226TIP3    H2  685   2.078   5.078   2.884  1.1871  0.4774  0.8432
  227TIP3   OH2  686   1.442   0.089   2.253 -0.2382 -0.0752  0.5860
  227TIP3    H1  687   1.352   0.059   2.239  0.2870 -1.8139  0.6256
  227TIP3    H2  688   1.484   0.076   2.168  0.1448  0.0635  0.7559
  228TIP3   OH2  689   3.989   4.623   4.192 -0.0376 -0.4170 -0.3822
  228TIP3    H1  690   4.026   4.566   4.125  0.7210 -2.6610  1.7774
  228TIP3    H2  691   4.061   4.681   4.216  0.5687 -1.3928  0.2715
  229TIP3   OH2  692   3.985   0.770   2.939  0.1057 -0.1624  0.2186
  229TIP3    H1  693   3.991   0.865   2.950 -0.1660 -0.2699  1.5150
  229TIP3    H2  694   3.895   0.749   2.964 -0.5498 -0.5330 -2.1991
  230TIP3   OH2  695   0.323   1.349   4.381 -0.6890 -0.1375 -0.3045
  230TIP3    H1  696   0.355   1.328   4.293 -0.1745 -2.9333  0.4498
  230TIP3    H2  697   0.401   1.345   4.437 -1.1652  0.6221  0.4469
  231TIP3   OH2  698   1.646   2.658   1.254 -0.8401 -0.2060  0.4431
  231TIP3    H1  699   1.569   2.623   1.299 -0.6836  0.8212  1.5663
  231TIP3    H2  700   1.625   2.751   1.238  0.6585  0.4537  1.9920
  232TIP3   OH2  701   3.570   1.711   4.288 -0.8388 -0.4762 -0.9930
  232TIP3    H1  702   3.518   1.781   4.249 -1.7022 -0.5418  0.0013
  232TIP3    H2  703   3.507   1.643   4.310 -0.4322 -0.3302  0.7501
  233TIP3   OH2  704   3.521   1.423   1.330 -0.0242  0.4357 -0.2192
  233TIP3    H1  705   3.461   1.355   1.298 -1.4557  1.0542  1.0411
  233TIP3    H2  706   3.563   1.457   1.251  0.3605 -1.5314 -0.9310
  234TIP3   OH2  707   4.225   2.619   1.858  0.4015  0.6408  0.7421
  234TIP3    H1  708   4.147   2.638   1.806 -0.0702  2.7827  2.1186
  234TIP3    H2  709   4.239   2.698   1.910  1.8416 -0.7645  2.6164
  235TIP3   OH2  710   3.024   4.274   3.489  0.1423 -0.4545  0.1271
  235TIP3    H1  711   2.968   4.196   3.496  0.0028 -0.3602  0.0684
  235TIP3    H2  712   3.103   4.243   3.445 -0.5179 -0.2610 -1.2432
  236TIP3   OH2  713   1.448   5.532   4.400  0.4417  0.6640 -0.0550
  236TIP3    H1  714   1.527   5.585   4.410 -0.1119  1.5740 -0.4123
  236TIP3    H2  715   1.381   5.578   4.450 -0.0399  0.2865 -0.3378
  237TIP3   OH2  716   4.591   0.692   2.585 -0.2326  0.6446 -1.0638
  237TIP3    H1  717   4.513   0.673   2.534  0.1118  0.4196 -1.5138
  237TIP3    H2  718   4.560   0.695   2.676 -0.7055  0.2462 -1.2065
  238TIP3   OH2  719   4.482   0.311   0.083 -0.3912  0.2649 -0.1055
  238TIP3    H1  720   4.521   0.327  -0.002 -2.4763  1.6712 -0.8654
  238TIP3    H2  721   4.422   0.237   0.069  1.9912 -2.0826  1.1171
  239TIP3   OH2  722   5.126   3.204   4.956 -0.0059  0.3742 -0.1120
  239TIP3    H1  723   5.119   3.157   5.039  1.8522 -0.4804 -0.4046
  239TIP3    H2  724   5.158   3.291   4.980  2.7853 -0.5869 -0.0501
  240TIP3   OH2  725   2.329   5.887   4.548 -0.2153  0.2245  0.4449
  240TIP3    H1  726   2.302   5.832   4.474  1.8844  0.2291 -0.4143
  240TIP3    H2  727   2.280   5.968   4.537 -0.4522 -0.0339 -0.5624
  241TIP3   OH2  728   5.805   3.156   0.451 -0.2220 -0.3983  0.3014
  241TIP3    H1  729   5.819   3.095   0.523  0.2665 -2.1669 -1.2109
  241TIP3    H2  730   5.880   3.144   0.393 -0.9154  0.4718 -0.8474
  242TIP3   OH2  731   4.184   0.210   2.027 -0.0913 -0.1052 -0.0628
  242TIP3    H1  732   4.183   0.122   1.989  1.5080  0.3886 -1.3051
  242TIP3    H2  733   4.092   0.227   2.048 -0.4148 -2.1883  0.5453
  243TIP3   OH2  734   4.307   5.628   1.826  0.6384  0.5276  0.6560
  243TIP3    H1  735   4.273   5.633   1.737  1.5315 -1.4488  0.1512
  243TIP3    H2  736   4.386   5.574   1.818 -0.1456 -1.0543  2.8706
  244TIP3   OH2  737   0.661   1.166   3.106  0.2142  0.1234  0.5501
  244TIP3    H1  738   0.644   1.260   3.111  1.9349  0.6385 -1.4756
  244TIP3    H2  739   0.582   1.125   3.140 -1.3960  2.2977 -0.3263
  245TIP3   OH2  740   5.204   1.729   0.129  0.6553  0.2445  0.1413
  245TIP3    H1  741   5.269   1.694   0.190  0.8264  0.8241  0.2983
  245TIP3    H2  742   5.130   1.754   0.186  0.7131  0.5493  0.0835
  246TIP3   OH2  743   3.358   5.502   3.095 -0.1174 -0.9551 -0.1926
  246TIP3    H1  744   3.307   5.484   3.016  0.5900  0.3362 -0.9738
  246TIP3    H2  745   3.336   5.430   3.154 -0.0883 -2.3831 -1.8279
  247TIP3   OH2  746   6.349   0.107   1.861  0.7080 -0.8365 -0.6395
  247TIP3    H1  747   6.295   0.179   1.828 -0.5164 -1.1303  0.6299
  247TIP3    H2  748   6.390   0.143   1.940  2.9227 -0.4217 -1.8788
  248TIP3   OH2  749   0.068   3.269   1.059 -0.6878 -0.6206 -0.7908
  248TIP3    H1  750   0.139   3.233   1.004  0.6286  2.5224 -1.3354
  248TIP3    H2  751   0.077   3.222   1.142  0.3460 -2.1358 -1.6926
  249TIP3   OH2  752   1.118   2.623   4.332  0.4493 -0.3424  0.2019
  249TIP3    H1  753   1.182   2.563   4.294 -1.0304 -2.8672  1.3833
  249TIP3    H2  754   1.083   2.671   4.257  0.5674 -2.1449 -1.0762
  250TIP3   OH2  755   5.925   4.281   0.263 -0.3834 -0.5430  0.2372
  250TIP3    H1  756   5.954   4.369   0.286 -1.0203 -0.1521 -0.4200
  250TIP3    H2  757   5.879   4.249   0.341  1.2511 -0.9428  1.0743
  251TIP3   OH2  758   1.606   0.340   1.252 -0.2779  0.4734 -0.0141
  251TIP3    H1  759   1.549   0.414   1.274 -0.3824  0.1773  0.7312
  251TIP3    H2  760   1.688   0.358   1.297 -0.2831  0.1640  0.1208
  252TIP3   OH2  761   4.690   0.043   1.263  0.0208  0.1786 -0.7399
  252TIP3    H1  762   4.639   0.110   1.217 -1.6261 -0.9439 -0.6562
  252TIP3    H2  763   4.652  -0.040   1.233 -0.6556 -0.6263  2.0461
  253TIP3   OH2  764   3.129   3.773   0.066  0.2910 -0.1335 -0.2198
  253TIP3    H1  765   3.115   3.709   0.136  1.3817 -0.4960 -0.3058
  253TIP3    H2  766   3.203   3.826   0.097 -1.2015  1.7408  0.2859
  254TIP3   OH2  767   0.145   0.893   0.115  0.0863 -0.0878  0.3623
  254TIP3    H1  768   0.076   0.835   0.150  0.6404 -0.1053  1.4808
  254TIP3    H2  769   0.178   0.939   0.192  0.6176  0.6934 -0.3202
  255TIP3   OH2  770   2.638   0.784   2.755  0.4897  0.1792 -0.1013
  255TIP3    H1  771   2.552   0.810   2.721  1.3602  1.3984 -1.4893
  255TIP3    H2  772   2.656   0.700   2.715 -0.0209 -0.0601  0.1593
  256TIP3   OH2  773   3.203   0.611   2.048  0.7514  0.0061 -0.0725
  256TIP3    H1  774   3.284   0.572   2.082  1.5634  1.2014 -0.5392
  256TIP3    H2  775   3.228   0.646   1.963 -0.5220 -0.4210 -0.6464
  257TIP3   OH2  776   5.141   2.374   0.528  0.2106 -0.4489  0.1053
  257TIP3    H1  777   5.177   2.301   0.578 -0.9306 -1.0720  0.0474
  257TIP3    H2  778   5.209   2.394   0.463  1.4354 -0.0353  1.4733
  258TIP3   OH2  779   4.976   2.988   2.315  0.3680 -0.0885 -0.2600
  258TIP3    H1  780   4.919   2.911   2.314 -0.2088  0.2742  1.3200
  258TIP3    H2  781   5.025   2.981   2.397  0.2128  1.2660 -0.0195
  259TIP3   OH2  782   5.375   0.180   1.784 -0.4780  0.7010 -0.0602
  259TIP3    H1  783   5.307   0.237   1.748 -0.6580  0.7692  0.3712
  259TIP3    H2  784   5.453   0.235   1.790 -0.7923  1.0739  0.8589
  260TIP3   OH2  785   5.648   5.212   1.909 -0.3637 -0.4567 -0.1939
  260TIP3    H1  786   5.652   5.281   1.976  0.5830 -0.7553  0.0804
  260TIP3    H2  787   5.656   5.131   1.959  1.6998 -0.6459 -0.7322
  261TIP3   OH2  788   4.600   1.786   0.376  0.0892 -0.2385  0.1151
  261TIP3    H1  789   4.552   1.713   0.415 -0.9763  0.3379 -0.0690
  261TIP3    H2  790   4.661   1.815   0.444  1.1104 -1.8018 -0.0922
  262TIP3   OH2  791   2.353   1.858   0.011 -0.0693  0.1198  0.6671
  262TIP3    H1  792   2.314   1.940   0.041 -0.1844  0.1141  0.5343
  262TIP3    H2  793   2.444   1.880  -0.009  0.3213 -0.1082  2.0468
  263TIP3   OH2  794   1.829   5.687   2.781 -0.1935  0.2340 -0.1643
  263TIP3    H1  795   1.838   5.721   2.870  0.2354  2.4148 -0.9706
  263TIP3    H2  796   1.738   5.706   2.758  0.3852  2.1687 -1.0727
  264TIP3   OH2  797   3.021   0.440   4.043  0.0905 -0.6432  0.4989
  264TIP3    H1  798   2.990   0.523   4.079 -0.5702 -0.6484 -0.0437
  264TIP3    H2  799   3.116   0.445   4.050  0.1674  0.8526 -0.9915
  265TIP3   OH2  800   5.011   5.717   3.437 -0.6683  0.2016 -0.1750
  265TIP3    H1  801   5.100   5.750   3.436 -0.8356  0.6600 -0.5628
  265TIP3    H2  802   5.008   5.652   3.366 -0.7475  0.4892 -0.4405
  266TIP3   OH2  803   0.411   1.690   2.825 -0.1516  0.1497  0.5592
  266TIP3    H1  804   0.387   1.760   2.764  0.5718 -1.0991 -1.2530
  266TIP3    H2  805   0.367   1.613   2.791  0.2981 -0.5957  1.6288
  267TIP3   OH2  806   2.566   2.775   3.749 -0.0763 -0.5476  0.2088
  267TIP3    H1  807   2.535   2.800   3.836 -0.1994  2.4193 -0.5717
  267TIP3    H2  808   2.488   2.744   3.703  0.1571 -3.0744  1.3582
  268TIP3   OH2  809   5.873   3.004   3.851  0.7241  0.2029  0.4133
  268TIP3    H1  810   5.867   2.988   3.945 -2.7686 -0.6964  0.2010
  268TIP3    H2  811   5.831   3.089   3.838  1.8595  0.6754 -0.2903
  269TIP3   OH2  812   1.683   4.408   3.969 -0.3023 -0.5696 -0.7305
  269TIP3    H1  813   1.707   4.494   3.935 -0.2297 -0.7404 -1.1221
  269TIP3    H2  814   1.587   4.410   3.974 -0.2191  0.1369  0.9071
  270TIP3   OH2  815   0.041   1.775   0.584  0.3855 -0.7429  0.4575
  270TIP3    H1  816   0.075   1.700   0.634 -0.4612 -0.2321  1.8561
  270TIP3    H2  817  -0.049   1.786   0.615 -0.2387 -0.4647 -1.3016
  271TIP3   OH2  818   5.611   3.625   3.942  0.9722  0.2606 -0.0270
  271TIP3    H1  819   5.622   3.703   3.887  1.3955  0.8393  0.8494
  271TIP3    H2  820   5.548   3.571   3.894 -1.8993  2.5680  0.8548
  272TIP3   OH2  821   0.913   1.188   5.006  0.1509  0.2253 -0.3544
  272TIP3    H1  822   0.869   1.272   5.007 -0.0626  0.1119 -0.1832
  272TIP3    H2  823   0.906   1.155   5.096 -0.7726 -0.4941 -0.6749
  273TIP3   OH2  824   2.377   2.468   2.614 -0.4337 -0.0451  0.2989
  273TIP3    H1  825   2.297   2.506   2.578  0.2022  0.7350 -0.3328
  273TIP3    H2  826   2.350   2.382   2.647 -1.5375  0.2335  0.1670
  274TIP3   OH2  827   3.250   2.722   1.915 -0.1584 -0.9982  0.1408
  274TIP3    H1  828   3.285   2.782   1.849 -0.8213 -1.7390 -0.9178
  274TIP3    H2  829   3.326   2.671   1.943  0.0957 -0.8256 -0.2240
  275TIP3   OH2  830   3.290   5.813   3.798  0.1440 -0.5263 -0.2297
  275TIP3    H1  831   3.360   5.778   3.743 -0.4313 -0.7683 -0.8290
  275TIP3    H2  832   3.250   5.735   3.838  1.3809 -0.2841  1.5951
  276TIP3   OH2  833   1.724   3.449   2.423  0.3815  0.2393 -0.2173
  276TIP3    H1  834   1.727   3.386   2.495 -0.4718  0.7584  0.2911
  276TIP3    H2  835   1.814   3.482   2.416  0.6332 -0.3507  0.1199
  277TIP3   OH2  836   1.233   3.860   2.628  0.1654  0.1541  0.0522
  277TIP3    H1  837   1.210   3.813   2.547  0.1700 -0.9061  0.6444
  277TIP3    H2  838   1.169   3.828   2.692 -0.8388  2.1451  0.1188
  278TIP3   OH2  839   2.897   5.319   0.020 -0.3406 -0.6085  0.0274
  278TIP3    H1  840   2.919   5.294   0.109  0.2081  1.1680  0.4418
  278TIP3    H2  841   2.979   5.349  -0.018 -1.0777  1.6484  0.0270
  279TIP3   OH2  842   3.323   5.603   4.919 -0.0271 -0.3189  0.4963
  279TIP3    H1  843   3.403   5.566   4.957  0.4327 -1.0782 -1.1634
  279TIP3    H2  844   3.292   5.537   4.857 -0.1818  1.3033 -1.2193
  280TIP3   OH2  845   2.903   2.711   1.459 -0.1543 -0.4661 -0.0421
  280TIP3    H1  846   2.905   2.767   1.536  0.3501 -0.4270 -0.0821
  280TIP3    H2  847   2.813   2.679   1.455  0.0795 -1.3284  1.1811
  281TIP3   OH2  848   5.570   4.812   0.044  0.0341  0.2842 -0.0263
  281TIP3    H1  849   5.605   4.879   0.103  1.3981  0.5754 -1.1273
  281TIP3    H2  850   5.559   4.857  -0.040  2.6488 -1.2158 -1.2879
  282TIP3   OH2  851   2.860   1.866   4.135 -0.1239  0.3877 -0.3750
  282TIP3    H1  852   2.855   1.771   4.129  0.5378  0.4132 -1.9778
  282TIP3    H2  853   2.954   1.885   4.128 -0.0838  1.1103  1.4852
  283TIP3   OH2  854   0.308   4.762   0.252 -0.1405  0.0300 -0.4077
  283TIP3    H1  855   0.216   4.775   0.277  0.1630  2.0879 -0.1920
  283TIP3    H2  856   0.356   4.770   0.335  0.4661  2.2001 -0.9043
  284TIP3   OH2  857   5.071   5.092   3.334  0.5506 -0.1798 -0.7818
  284TIP3    H1  858   5.044   5.104   3.243 -0.0865 -0.1251 -0.5869
  284TIP3    H2  859   5.059   4.998   3.350 -0.5253  0.0141 -0.3842
  285TIP3   OH2  860   5.962   5.999   1.900  0.4757  0.2211  0.0949
  285TIP3    H1  861   5.985   5.906   1.889 -0.1273 -0.2124  1.9939
  285TIP3    H2  862   6.046   6.042   1.920  0.4662 -0.4063  1.6946
  286TIP3   OH2  863   5.296   5.130   1.784  0.6046  0.0856 -0.2140
  286TIP3    H1  864   5.368   5.070   1.767  0.0008 -1.1119  1.2637
  286TIP3    H2  865   5.304   5.152   1.877 -0.8934 -0.0455 -0.0304
  287TIP3   OH2  866   2.978   2.921   1.124 -0.2657 -0.5910 -0.4278
  287TIP3    H1  867   2.913   2.942   1.057  0.7140  2.4764 -0.5697
  287TIP3    H2  868   2.968   2.991   1.189 -0.9659 -3.2690  2.5793
  288TIP3   OH2  869   2.222   1.012   0.072 -0.2655 -0.3143  0.1272
  288TIP3    H1  870   2.237   1.023  -0.022 -0.6246 -1.2012 -0.0458
  288TIP3    H2  871   2.282   1.074   0.113 -2.0206  2.1091 -0.7252
  289TIP3   OH2  872   2.550   4.313   2.598  0.7909 -0.1394  0.0652
  289TIP3    H1  873   2.616   4.380   2.616 -0.8716  1.3569  0.8184
  289TIP3    H2  874   2.579   4.237   2.648  1.4618  0.7900  1.1329
  290TIP3   OH2  875   0.592   5.538   2.903  0.1133 -0.0593  0.1907
  290TIP3    H1  876   0.581   5.496   2.988 -3.0415  1.3678  0.6441
  290TIP3    H2  877   0.578   5.468   2.839  1.2474 -0.8861  0.8258
  291TIP3   OH2  878   4.775   4.054   2.901  0.3006  0.0854  0.0671
  291TIP3    H1  879   4.686   4.030   2.875  0.3867 -0.9345  0.6480
  291TIP3    H2  880   4.831   3.986   2.862  0.8274  0.6995 -0.2709
  292TIP3   OH2  881   2.952   5.654   3.043 -0.1644 -0.5878 -1.2151
  292TIP3    H1  882   3.045   5.677   3.043 -0.0263 -1.1177 -0.6810
  292TIP3    H2  883   2.909   5.728   3.087  0.1774 -0.9554 -0.2318
  293TIP3   OH2  884   5.915   1.255   4.298  0.2029  0.5462  0.4061
  293TIP3    H1  885   5.894   1.300   4.216  0.7700  3.1660  1.5759
  293TIP3    H2  886   5.857   1.296   4.363 -0.9861 -2.1951  1.2195
  294TIP3   OH2  887   3.015   4.392   0.315  0.2466  0.4363 -0.0445
  294TIP3    H1  888   2.960   4.432   0.247 -0.1387  0.9047  0.5351
  294TIP3    H2  889   3.020   4.459   0.384  2.0350  0.6618 -0.3290
  295TIP3   OH2  890   2.320   2.808   4.956 -0.0078 -0.1860  0.2208
  295TIP3    H1  891   2.386   2.822   4.889  1.1430 -0.1904  1.3223
  295TIP3    H2  892   2.268   2.889   4.956  0.5273  0.1647 -0.0777
  296TIP3   OH2  893   0.176   5.575   0.979 -0.3419 -0.8221  0.0588
  296TIP3    H1  894   0.260   5.564   0.934 -1.0117 -0.0544 -1.4672
  296TIP3    H2  895   0.197   5.566   1.072  1.6701  0.6285 -0.1899
  297TIP3   OH2  896   5.654   4.285   0.198  0.3997  0.1608 -0.2061
  297TIP3    H1  897   5.747   4.288   0.218  0.0799  0.1290  1.5123
  297TIP3    H2  898   5.611   4.300   0.283 -1.1550  1.1781 -1.1176
  298TIP3   OH2  899   1.771   0.128   3.871 -0.3753  0.4880 -0.0956
  298TIP3    H1  900   1.735   0.087   3.950 -1.2009 -0.4456 -0.9291
  298TIP3    H2  901   1.698   0.128   3.809  0.8984 -0.9813 -1.6730
  299TIP3   OH2  902   0.929   4.207   2.045 -0.3400  0.1980  0.2180
  299TIP3    H1  903   0.903   4.133   1.990  1.2075  0.9024 -1.6107
  299TIP3    H2  904   0.912   4.284   1.990  1.7357  0.9051  0.4552
  300TIP3   OH2  905   4.769   4.530   1.760  0.0134 -0.4804 -0.2404
  300TIP3    H1  906   4.740   4.606   1.810 -0.0187 -0.9422  0.4472
  300TIP3    H2  907   4.865   4.533   1.766  0.1062  0.4272 -1.6012
  301TIP3   OH2  908   1.114   3.825   1.990  0.2496 -0.0568  0.0991
  301TIP3    H1  909   1.174   3.899   2.000  0.0240  0.1465 -0.0486
  301TIP3    H2  910   1.084   3.806   2.078 -0.3436  0.5742  0.0451
  302TIP3   OH2  911   2.130   4.423   1.672 -0.2126  0.2926  0.1967
  302TIP3    H1  912   2.216   4.456   1.698  0.8886 -0.4315 -2.2662
  302TIP3    H2  913   2.138   4.328   1.682 -0.6204  0.2018 -0.3124
  303TIP3   OH2  914   6.012   5.264   2.656  0.3701 -0.0549 -0.2669
  303TIP3    H1  915   6.002   5.356   2.634  1.1185  0.6201  1.9343
  303TIP3    H2  916   5.928   5.240   2.697  0.5626 -0.0309  0.1481
  304TIP3   OH2  917   5.907   1.330   1.393  0.0008  0.4513  0.7064
  304TIP3    H1  918   5.922   1.414   1.437 -0.8694  0.5725  0.8018
  304TIP3    H2  919   5.960   1.267   1.443  0.4498  0.8956  0.7998
  305TIP3   OH2  920   2.963   1.101   0.226  0.3566 -0.2240 -0.5377
  305TIP3    H1  921   2.943   1.177   0.172 -1.6684  0.3166  0.8545
  305TIP3    H2  922   3.058   1.096   0.226  0.4951 -0.4396 -4.2827
  306TIP3   OH2  923   6.295   1.408   3.761 -0.2970 -0.0451  0.1369
  306TIP3    H1  924   6.203   1.432   3.775 -0.1514  0.4256  0.3065
  306TIP3    H2  925   6.291   1.332   3.703 -0.8007 -0.1732  0.3276
  307TIP3   OH2  926   4.195   2.947   0.079 -0.2533 -0.2694  0.6827
  307TIP3    H1  927   4.165   2.865   0.041 -0.6920 -0.7750  2.0565
  307TIP3    H2  928   4.158   2.948   0.167 -0.1266  1.3309  0.7526
  308TIP3   OH2  929   5.375   4.531   4.134  0.3951  0.1860 -0.2712
  308TIP3    H1  930   5.386   4.532   4.229  2.6366 -1.6291 -0.4335
  308TIP3    H2  931   5.401   4.618   4.106  1.3667  0.2272  0.6731
  309TIP3   OH2  932   0.589   4.773   4.158 -0.1423 -0.0804  0.0258
  309TIP3    H1  933   0.525   4.835   4.124 -0.4794  0.1144  0.9863
  309TIP3    H2  934   0.609   4.805   4.246 -0.1132 -1.1692  0.4316
  310TIP3   OH2  935   0.984   0.084   0.518  0.5221 -0.3796  0.6411
  310TIP3    H1  936   1.040   0.008   0.501  0.1274 -0.7819  1.1244
  310TIP3    H2  937   0.939   0.063   0.600 -1.6047 -0.8063 -0.5806
  311TIP3   OH2  938   5.127   1.228   3.650  0.3027 -0.3098  0.1246
  311TIP3    H1  939   5.208   1.241   3.699 -0.2670 -0.5025  1.1250
  311TIP3    H2  940   5.057   1.252   3.710 -0.4639 -1.6554 -0.1734
  312TIP3   OH2  941   4.919   5.501   3.728 -0.0973  0.0944 -0.8634
  312TIP3    H1  942   4.945   5.591   3.745  1.0261 -0.3179 -0.3059
  312TIP3    H2  943   4.948   5.484   3.638 -0.1784  0.2303 -0.9160
  313TIP3   OH2  944   5.598   0.541   1.477 -0.3464 -0.2842  0.0392
  313TIP3    H1  945   5.607   0.636   1.463  0.6802 -0.2960  0.5488
  313TIP3    H2  946   5.529   0.515   1.416  0.0974  0.6075 -0.8820
  314TIP3   OH2  947   5.154   1.598   0.708 -0.5491  0.3972  0.3522
  314TIP3    H1  948   5.163   1.504   0.688 -0.9367  0.0060  1.8828
  314TIP3    H2  949   5.231   1.618   0.761 -0.6181  0.8897  0.2733
  315TIP3   OH2  950   4.382   4.579   4.592  0.4562 -0.3853  0.2857
  315TIP3    H1  951   4.423   4.659   4.626  1.3564 -0.7583  0.0991
  315TIP3    H2  952   4.390   4.587   4.497  0.7427 -0.7959  0.2745
  316TIP3   OH2  953   4.527   3.255   4.510 -0.6373  0.4056 -0.3048
  316TIP3    H1  954   4.614   3.292   4.497 -0.0490 -0.0474  2.0340
  316TIP3    H2  955   4.469   3.315   4.462  0.7960  1.4707 -0.7945
  317TIP3   OH2  956   3.726   0.699   4.819 -0.1325  0.4505 -0.6198
  317TIP3    H1  957   3.635   0.676   4.832 -0.0096  0.0283 -0.5158
  317TIP3    H2  958   3.758   0.723   4.906  0.3054 -1.0191 -0.3481
  318TIP3   OH2  959   5.697   5.951   4.913  0.3622  0.3757 -0.3703
  318TIP3    H1  960   5.619   5.969   4.965  0.4409  1.4199 -0.5978
  318TIP3    H2  961   5.715   6.032   4.866  1.8724  0.3287  0.0577
  319TIP3   OH2  962   0.164   2.323   4.042  0.2336  0.8493  0.2041
  319TIP3    H1  963   0.091   2.384   4.036 -1.1713 -0.6177  1.6457
  319TIP3    H2  964   0.128   2.244   4.082  1.9388 -1.0421 -1.7088
  320TIP3   OH2  965   0.176   2.781   3.507 -0.0749 -0.0449  0.1156
  320TIP3    H1  966   0.182   2.687   3.494 -0.5606  0.0062 -0.5140
  320TIP3    H2  967   0.202   2.819   3.424  1.4928  0.4288  0.7951
  321TIP3   OH2  968   4.138   4.517   3.962 -0.2164  0.2876  0.5674
  321TIP3    H1  969   4.109   4.499   3.873 -0.0521 -0.3665  0.6332
  321TIP3    H2  970   4.213   4.575   3.952 -0.1293  0.1271  0.2687
  322TIP3   OH2  971   2.930   2.054   2.842 -0.2534 -0.3546  0.1342
  322TIP3    H1  972   2.918   1.959   2.840 -1.0941 -0.3004  1.4308
  322TIP3    H2  973   2.857   2.087   2.894  0.5071  0.9252  0.4496
  323TIP3   OH2  974   0.953   0.180   1.553  0.3764 -0.3014 -0.5325
  323TIP3    H1  975   0.988   0.202   1.466 -0.8335  2.3060 -0.4479
  323TIP3    H2  976   0.861   0.205   1.549 -0.0907 -1.5978  1.0616
  324TIP3   OH2  977   4.521   3.969   2.840 -0.1399 -0.5502 -0.3597
  324TIP3    H1  978   4.438   4.014   2.858 -0.3294 -1.3105  0.8088
  324TIP3    H2  979   4.497   3.897   2.782  0.1342  0.6638 -2.0772
  325TIP3   OH2  980   5.893   0.751   4.381  0.0504 -0.0049  0.1291
  325TIP3    H1  981   5.820   0.732   4.440 -1.6881 -1.9330 -2.4123
  325TIP3    H2  982   5.856   0.814   4.319  1.8697  2.0641  1.0087
  326TIP3   OH2  983   2.421   2.457   4.387 -0.0155 -0.2340 -0.0377
  326TIP3    H1  984   2.427   2.417   4.474 -1.3970 -0.5518 -0.0652
  326TIP3    H2  985   2.460   2.392   4.328 -2.8018 -1.9643 -0.1666
  327TIP3   OH2  986   2.808   3.702   1.832 -0.0939  0.4632  0.4234
  327TIP3    H1  987   2.862   3.751   1.770 -1.4524 -1.1827 -2.2863
  327TIP3    H2  988   2.863   3.690   1.909  1.8528  2.3063 -0.6060
  328TIP3   OH2  989   2.199   3.967   4.343 -0.3557 -0.1196 -0.5727
  328TIP3    H1  990   2.235   3.945   4.429 -3.2867 -1.2903  0.4768
  328TIP3    H2  991   2.141   4.041   4.360 -0.1554  0.3351 -1.7829
  329TIP3   OH2  992   3.938   5.750   1.334  0.2347 -0.3121 -0.2994
  329TIP3    H1  993   3.858   5.773   1.380 -0.6246 -2.0822 -0.8091
  329TIP3    H2  994   3.933   5.799   1.252  0.1208  0.2581  0.0405
  330TIP3   OH2  995   1.682   1.283   2.874  0.3541 -0.9349  0.0249
  330TIP3    H1  996   1.713   1.220   2.809  2.1810 -1.3243  1.1907
  330TIP3    H2  997   1.747   1.279   2.944 -0.1694  1.3207  0.7314
  331TIP3   OH2  998   6.104   1.090   1.993  0.0602 -0.5906  0.1714
  331TIP3    H1  999   6.042   1.028   1.954  0.5081 -1.6649  1.0770
  331TIP3    H2 1000   6.170   1.034   2.034  0.9389  0.5162  0.3212
  332TIP3   OH2 1001   0.879   2.896   4.363 -0.3065 -0.1219  0.6232
  332TIP3    H1 1002   0.900   2.955   4.290  1.6977 -1.9699 -0.4276
  332TIP3    H2 1003   0.888   2.809   4.325 -2.3098 -1.1399  2.3468
  333TIP3   OH2 1004   3.326   0.563   3.192  0.1346 -0.1750  0.1543
  333TIP3    H1 1005   3.244   0.600   3.159  0.3434  0.0892 -0.0750
  333TIP3    H2 1006   3.313   0.468   3.186 -0.2855 -0.1400  0.4503
  334TIP3   OH2 1007   2.086   5.060   2.238  0.7427  0.4538 -0.5234
  334TIP3    H1 1008   1.991   5.068   2.250  0.8631 -1.3305  2.7061
  334TIP3    H2 1009   2.097   4.977   2.190  0.6823  1.3734 -2.1892
  335TIP3   OH2 1010   0.286   2.233   0.114 -0.7395 -0.7846 -0.2802
  335TIP3    H1 1011   0.268   2.143   0.141  1.0375 -1.2256 -0.4493
  335TIP3    H2 1012   0.301   2.280   0.196 -0.1588 -1.0055 -0.2546
  336TIP3   OH2 1013   4.143   4.845   3.344  0.1578  0.2199 -0.1689
  336TIP3    H1 1014   4.053   4.820   3.366  0.8754 -1.4272  1.1454
  336TIP3    H2 1015   4.134   4.910   3.274 -1.9863 -1.8342 -1.9643
  337TIP3   OH2 1016   4.033   0.690   0.703 -0.0409  0.4867 -0.4933
  337TIP3    H1 1017   4.060   0.752   0.771 -0.0875  0.0900 -0.1126
  337TIP3    H2 1018   4.107   0.630   0.694  0.0521  0.6578 -0.9480
  338TIP3   OH2 1019   0.783   4.112   3.177 -0.3945 -0.3451  0.2776
  338TIP3    H1 1020   0.834   4.031   3.169 -0.8383 -0.4287 -2.7412
  338TIP3    H2 1021   0.839   4.170   3.230  0.3994 -2.2265  1.5893
  339TIP3   OH2 1022   0.793   1.078   2.843 -0.1253 -0.4298  0.2567
  339TIP3    H1 1023   0.726   1.137   2.877  1.1290  1.0427  0.2634
  339TIP3    H2 1024   0.837   1.045   2.921  0.8206  0.6339  0.1932
  340TIP3   OH2 1025   1.620   2.973   2.102 -0.3187 -0.4312 -0.1839
  340TIP3    H1 1026   1.612   3.067   2.114 -0.8992 -0.7211  2.2799
  340TIP3    H2 1027   1.530   2.942   2.093 -0.2528 -0.9174  0.7419
  341TIP3   OH2 1028   0.488   4.186   1.311  0.3084 -0.0531 -0.6363
  341TIP3    H1 1029   0.485   4.158   1.219  2.0161  0.2248 -0.8077
  341TIP3    H2 1030   0.425   4.258   1.315  1.5128  1.1565 -2.0708
  342TIP3   OH2 1031   2.366   1.842   0.613 -0.2835 -0.1333 -0.1877
  342TIP3    H1 1032   2.438   1.787   0.644 -0.7786 -0.3494  0.5985
  342TIP3    H2 1033   2.329   1.880   0.693 -0.7309  0.3637 -0.6270
  343TIP3   OH2 1034   2.989   0.823   0.325 -0.3824 -0.9405 -0.4547
  343TIP3    H1 1035   2.964   0.905   0.283  2.3289  1.4019  2.0018
  343TIP3    H2 1036   2.924   0.811   0.395  0.1543  0.1292  0.2563
  344TIP3   OH2 1037   1.668   5.312   1.051  0.4316  0.2379 -0.6892
  344TIP3    H1 1038   1.582   5.328   1.012  0.5903  0.0947 -1.1058
  344TIP3    H2 1039   1.706   5.243   0.998  0.7582  0.2166 -0.4318
  345TIP3   OH2 1040   5.037   0.424   4.612  0.0062 -0.3882 -0.0365
  345TIP3    H1 1041   5.128   0.436   4.585  0.2478 -2.3183 -0.1992
  345TIP3    H2 1042   4.993   0.389   4.535 -0.9902  0.8207 -0.0598
  346TIP3   OH2 1043   1.083   4.630   2.386  0.1297  0.1609  0.1641
  346TIP3    H1 1044   1.038   4.654   2.467 -0.6334  0.4333 -0.3286
  346TIP3    H2 1045   1.019   4.578   2.338  0.8406 -0.6346  0.0543
  347TIP3   OH2 1046   2.739   4.419   4.840 -0.0748  0.4713  0.3980
  347TIP3    H1 1047   2.652   4.431   4.877 -0.1730  3.2968 -0.5583
  347TIP3    H2 1048   2.724   4.365   4.762 -0.6387 -0.6889  1.2659
  348TIP3   OH2 1049   2.285   4.605   1.853  0.6310 -0.6344 -0.1653
  348TIP3    H1 1050   2.278   4.587   1.947  1.6543  0.8479  0.2229
  348TIP3    H2 1051   2.377   4.628   1.839  0.2564  0.2531 -1.3333
  349TIP3   OH2 1052   0.691   3.924   0.263 -0.1552  0.7281  0.1877
  349TIP3    H1 1053   0.671   3.847   0.209 -1.6052  0.9715  0.3420
  349TIP3    H2 1054   0.785   3.939   0.249 -0.2542  0.1228 -1.3933
  350TIP3   OH2 1055   6.148   3.271   1.289 -0.2079 -0.3214 -0.1062
  350TIP3    H1 1056   6.116   3.198   1.237  0.5695 -0.0952 -0.9316
  350TIP3    H2 1057   6.240   3.251   1.306  0.3249  0.9340 -1.2662
  351TIP3   OH2 1058   3.926   3.788   2.713  0.0224  0.3135 -0.3808
  351TIP3    H1 1059   4.022   3.784   2.710  0.0523  1.3105 -1.3202
  351TIP3    H2 1060   3.897   3.706   2.672  0.4604 -0.0837  0.0860
  352TIP3   OH2 1061   0.262   2.965   3.297  0.9724 -0.0785  0.2542
  352TIP3    H1 1062   0.270   3.056   3.270 -0.1086  0.5906  2.0420
  352TIP3    H2 1063   0.181   2.935   3.255  1.4138 -0.3049 -0.4688
  353TIP3   OH2 1064   5.587   0.660   2.648 -0.1110  0.0048 -0.3265
  353TIP3    H1 1065   5.661   0.712   2.618 -0.3714  1.5560  1.5585
  353TIP3    H2 1066   5.522   0.724   2.678 -1.1782 -1.3530  0.4084
  354TIP3   OH2 1067   6.104   3.292   1.004 -0.2106  0.1021 -0.1799
  354TIP3    H1 1068   6.170   3.329   1.063 -0.4918 -0.2275  0.3364
  354TIP3    H2 1069   6.151   3.223   0.957  0.3249  1.0935 -1.1635
  355TIP3   OH2 1070   1.000   0.717   1.153  0.4059  0.4307  0.2967
  355TIP3    H1 1071   1.009   0.653   1.223  1.2677  0.3915  0.1619
  355TIP3    H2 1072   0.987   0.664   1.074  0.1927  0.4543  0.3142
  356TIP3   OH2 1073   1.167   0.985   2.814 -0.0999 -0.3561  0.2646
  356TIP3    H1 1074   1.214   1.030   2.884  0.0569 -0.4751  0.2370
  356TIP3    H2 1075   1.116   1.054   2.772  0.0756 -0.2173  0.2761
  357TIP3   OH2 1076   2.684   0.454   4.891 -0.2385  0.1238 -0.5750
  357TIP3    H1 1077   2.761   0.493   4.932 -0.1161 -1.9494  1.3245
  357TIP3    H2 1078   2.684   0.490   4.802  1.5215  2.0293  0.1073
  358TIP3   OH2 1079   1.250   4.529   3.717 -0.1014 -0.4986 -0.1240
  358TIP3    H1 1080   1.180   4.466   3.733  1.2910 -1.8598  0.9845
  358TIP3    H2 1081   1.269   4.521   3.623 -0.7430 -0.8552 -0.2279
  359TIP3   OH2 1082   5.696   2.299   1.150 -0.3906 -0.1551 -0.4455
  359TIP3    H1 1083   5.672   2.207   1.160 -0.5858 -0.1975 -1.3011
  359TIP3    H2 1084   5.613   2.346   1.158 -0.0893  0.1156  1.8041
  360TIP3   OH2 1085   3.093   2.137   2.346 -0.2848 -0.5403 -0.5127
  360TIP3    H1 1086   3.168   2.190   2.370 -0.2359 -0.3502 -1.0664
  360TIP3    H2 1087   3.033   2.145   2.420 -0.1519  0.0468 -0.4639
  361TIP3   OH2 1088   2.965   0.662   2.826  0.3337 -0.3935  0.3791
  361TIP3    H1 1089   2.896   0.601   2.852  0.6972 -0.0648  2.2083
  361TIP3    H2 1090   2.988   0.635   2.737 -0.3728 -2.1146  0.6833
  362TIP3   OH2 1091   1.154   2.137   5.113  0.4085  0.1112 -0.2529
  362TIP3    H1 1092   1.212   2.094   5.050  0.1093  0.4399 -0.7653
  362TIP3    H2 1093   1.096   2.067   5.144  1.0356 -0.2028  0.2122
  363TIP3   OH2 1094   0.464   5.481   0.383  0.1885 -0.1146 -0.0735
  363TIP3    H1 1095   0.510   5.560   0.354 -0.5330  0.4789  0.3575
  363TIP3    H2 1096   0.441   5.435   0.302 -1.0219  1.0713 -0.4359
  364TIP3   OH2 1097   0.626   4.404   3.571 -0.0540 -0.0646  0.2800
  364TIP3    H1 1098   0.683   4.461   3.520  0.9292 -1.1803  0.0732
  364TIP3    H2 1099   0.675   4.386   3.651 -1.1631  0.8696  1.1969
  365TIP3   OH2 1100   4.158   0.789   4.931  0.2968 -0.3516 -0.2643
  365TIP3    H1 1101   4.192   0.757   4.847 -0.4632 -1.4119 -0.1970
  365TIP3    H2 1102   4.082   0.842   4.906 -1.9760 -3.2935 -0.2149
  366TIP3   OH2 1103   0.726   3.091   2.545 -0.0088  0.5027  0.1221
  366TIP3    H1 1104   0.741   3.162   2.482 -1.2033  0.3552 -0.3616
  366TIP3    H2 1105   0.634   3.099   2.568  0.1800 -0.0670  1.1153
  367TIP3   OH2 1106   4.783   2.510   3.386  0.1598 -0.2413 -0.8428
  367TIP3    H1 1107   4.789   2.574   3.456  1.3218  0.0384 -1.1767
  367TIP3    H2 1108   4.753   2.430   3.429  0.0421  0.1522 -0.1844
  368TIP3   OH2 1109   4.704   0.634   1.906 -0.1066  0.1761 -0.1232
  368TIP3    H1 1110   4.694   0.613   1.999 -0.3674  0.2321 -0.1393
  368TIP3    H2 1111   4.795   0.612   1.887 -0.6231 -1.9716 -0.3804
  369TIP3   OH2 1112   0.090   3.363   0.039  0.4806  0.3390 -0.0316
  369TIP3    H1 1113   0.042   3.445   0.043 -0.5368 -0.1397 -1.4890
  369TIP3    H2 1114   0.159   3.379  -0.026  0.5863  0.2056  0.0485
  370TIP3   OH2 1115   0.401   0.325   3.656 -0.4795 -0.6223 -0.1935
  370TIP3    H1 1116   0.370   0.269   3.585  2.4038 -2.3653 -0.2207
  370TIP3    H2 1117   0.410   0.266   3.731  0.4996  0.2744  0.4227
  371TIP3   OH2 1118   0.266   5.123   2.260  0.1107 -0.5819 -0.1884
  371TIP3    H1 1119   0.302   5.034   2.262 -0.0596 -0.6360  1.2569
  371TIP3    H2 1120   0.175   5.112   2.232  0.2527 -0.7822 -0.5899
  372TIP3   OH2 1121   5.519   4.707   2.638  0.2376 -0.2265  0.5576
  372TIP3    H1 1122   5.510   4.681   2.730 -0.1234 -1.6139  0.1619
  372TIP3    H2 1123   5.429   4.726   2.610  0.0851 -1.6158  0.0191
  373TIP3   OH2 1124   2.154   3.661   1.688 -0.3379 -0.1414 -0.3722
  373TIP3    H1 1125   2.194   3.702   1.764 -0.9483  0.1944 -0.2245
  373TIP3    H2 1126   2.063   3.693   1.688 -0.5984 -0.8494 -0.7187
  374TIP3   OH2 1127   1.335   5.094   4.765  0.2219 -0.3672 -0.1917
  374TIP3    H1 1128   1.309   5.110   4.856 -1.1151  0.5975 -0.7141
  374TIP3    H2 1129   1.427   5.069   4.771  0.1622 -0.3220  1.4286
  375TIP3   OH2 1130   1.521   2.679   4.785 -0.0384 -0.0724 -0.0865
  375TIP3    H1 1131   1.595   2.721   4.741 -0.0992  0.3626  0.2135
  375TIP3    H2 1132   1.558   2.601   4.825  0.0939 -0.2760 -0.5992
  376TIP3   OH2 1133   0.913   5.804   2.762  0.1087  0.6386  0.6349
  376TIP3    H1 1134   0.924   5.735   2.828 -0.3710  1.6301  1.7971
  376TIP3    H2 1135   0.828   5.842   2.782  0.1616  1.2589 -0.2877
  377TIP3   OH2 1136   5.798   1.014   0.603 -0.1349  0.1239 -0.2694
  377TIP3    H1 1137   5.734   1.006   0.673 -1.1767 -0.5369 -1.2726
  377TIP3    H2 1138   5.839   1.100   0.619 -0.5443  0.1156  0.9613
  378TIP3   OH2 1139   3.046   4.966   2.680  0.0118 -0.3515  0.0265
  378TIP3    H1 1140   3.033   5.060   2.675  0.6746 -0.2856 -0.6169
  378TIP3    H2 1141   3.122   4.955   2.737  0.8596 -0.4125 -1.0995
  379TIP3   OH2 1142   0.822   3.091  -0.035  0.4146 -0.1086 -0.7771
  379TIP3    H1 1143   0.781   3.153   0.026  1.0782  0.1150 -0.5493
  379TIP3    H2 1144   0.835   3.012   0.018  2.4606  0.5962 -0.1069
  380TIP3   OH2 1145   5.225   3.325   3.783  0.2008  0.4919 -0.3508
  380TIP3    H1 1146   5.269   3.253   3.736 -1.3620 -0.6862 -0.0933
  380TIP3    H2 1147   5.290   3.355   3.847 -0.5837 -4.2053  3.1945
  381TIP3   OH2 1148   1.499   1.288   4.424  0.2274 -0.4172  0.8440
  381TIP3    H1 1149   1.571   1.235   4.390  0.0451  0.2277 -0.6517
  381TIP3    H2 1150   1.530   1.317   4.510  1.2382 -1.1401  0.7517
  382TIP3   OH2 1151   1.210   4.106   1.988  0.8261 -0.0701  0.3997
  382TIP3    H1 1152   1.122   4.137   2.012  0.5818 -0.6000  0.2034
  382TIP3    H2 1153   1.263   4.121   2.066  0.2566 -0.9376  0.9675
  383TIP3   OH2 1154   3.022   3.655   0.292 -0.1585  0.3891 -0.1127
  383TIP3    H1 1155   3.038   3.729   0.350 -0.4612  0.1904  0.2290
  383TIP3    H2 1156   2.927   3.651   0.284 -0.2278 -0.7297  0.8950
  384TIP3   OH2 1157   2.328   3.890   1.142  0.1693  0.5242  0.1316
  384TIP3    H1 1158   2.341   3.796   1.149  2.6260  0.8558  0.7310
  384TIP3    H2 1159   2.243   3.905   1.184 -0.6819 -1.4895 -0.7562
  385TIP3   OH2 1160   1.153   0.879   3.087  0.2098 -0.0553 -0.0685
  385TIP3    H1 1161   1.208   0.935   3.142  1.2860 -2.5734  1.6012
  385TIP3    H2 1162   1.215   0.840   3.025 -0.2905 -0.3376 -0.3883
  386TIP3   OH2 1163   0.916   4.152   0.806  0.5368  0.5600 -0.3703
  386TIP3    H1 1164   0.959   4.173   0.889  0.1366  0.2895 -0.0885
  386TIP3    H2 1165   0.979   4.177   0.739  1.4129 -0.4411  0.0486
  387TIP3   OH2 1166   0.490   0.397   4.444  0.2770 -0.0733 -0.1493
  387TIP3    H1 1167   0.503   0.367   4.354  1.5031  0.0999 -0.0502
  387TIP3    H2 1168   0.418   0.460   4.438  0.0631 -0.3861 -0.9395
  388TIP3   OH2 1169   1.818   5.127   1.800 -0.2365  0.1266 -0.2196
  388TIP3    H1 1170   1.734   5.156   1.835  0.0127 -0.5003  0.9476
  388TIP3    H2 1171   1.857   5.074   1.870  1.6840  1.3873 -0.2426
  389TIP3   OH2 1172   4.238   4.685   5.124 -0.3816 -0.0692 -0.4319
  389TIP3    H1 1173   4.314   4.738   5.102 -1.3094  2.0449  1.0816
  389TIP3    H2 1174   4.273   4.609   5.170  0.8949 -0.0936 -1.3991
  390TIP3   OH2 1175   2.993   2.040   3.715 -0.1472 -0.3212 -0.1054
  390TIP3    H1 1176   3.015   1.963   3.663  1.2141  0.6210 -0.9620
  390TIP3    H2 1177   2.950   2.100   3.653 -2.4933 -0.8849  0.8558
  391TIP3   OH2 1178   3.013   4.629   0.545  0.8742  0.6318  0.3212
  391TIP3    H1 1179   2.937   4.660   0.595 -1.0577  0.1249 -2.1149
  391TIP3    H2 1180   3.068   4.585   0.610 -1.2960  0.3028  2.0749
  392TIP3   OH2 1181   0.183   3.100   1.804 -0.2358  0.4753 -0.2537
  392TIP3    H1 1182   0.120   3.075   1.872  0.0093 -1.5131 -0.6959
  392TIP3    H2 1183   0.129   3.124   1.729 -0.4925  0.2965 -0.1272
  393TIP3   OH2 1184   3.590   5.155   1.116  0.0721  0.8334  0.2428
  393TIP3    H1 1185   3.665   5.109   1.153 -0.0616  0.3031 -0.1341
  393TIP3    H2 1186   3.581   5.120   1.028 -0.3039  1.2677  0.1040
  394TIP3   OH2 1187   5.975   2.517   3.224 -0.1755  0.3302 -0.4583
  394TIP3    H1 1188   5.919   2.587   3.257 -0.1483  0.6559 -1.0794
  394TIP3    H2 1189   5.964   2.521   3.129  1.2580  0.6971 -0.6240
  395TIP3   OH2 1190   2.187   5.770   0.357 -0.0052  0.4858  0.1160
  395TIP3    H1 1191   2.098   5.747   0.330  0.1096  1.0148 -0.7383
  395TIP3    H2 1192   2.175   5.842   0.420 -0.2442 -0.4102  1.1305
  396TIP3   OH2 1193   1.556   0.330   4.478 -0.3325  0.0431  0.4479
  396TIP3    H1 1194   1.629   0.384   4.509 -0.7101  0.0692  1.3144
  396TIP3    H2 1195   1.598   0.257   4.433  0.2406 -0.0368  1.0837
  397TIP3   OH2 1196   5.658   3.013   0.244  0.1565 -0.6680 -0.2813
  397TIP3    H1 1197   5.635   2.946   0.309 -2.8053 -0.3129 -0.8195
  397TIP3    H2 1198   5.704   3.080   0.294 -0.3561 -1.2818  1.0696
  398TIP3   OH2 1199   5.850   0.840   2.585  0.0645  0.6592  0.6382
  398TIP3    H1 1200   5.928   0.869   2.632 -1.1212  1.6161  2.0879
  398TIP3    H2 1201   5.882   0.774   2.523  1.8731  0.3883  1.8123
  399TIP3   OH2 1202   3.070   4.894   2.094  0.3629 -0.2012  0.2739
  399TIP3    H1 1203   3.070   4.799   2.083 -2.3914 -0.1303 -1.3218
  399TIP3    H2 1204   3.061   4.908   2.188  1.6125 -1.4666  0.6109
  400TIP3   OH2 1205   5.100   0.441   3.878  0.4638  0.3507  0.0946
  400TIP3    H1 1206   5.121   0.364   3.826  1.1507 -0.5609  1.6212
  400TIP3    H2 1207   5.150   0.429   3.959 -0.9925  1.4043  1.2084
  401TIP3   OH2 1208   0.883   2.175   0.506 -0.0324 -0.4193 -0.4095
  401TIP3    H1 1209   0.972   2.196   0.477 -0.1579 -0.1154 -0.5797
  401TIP3    H2 1210   0.854   2.106   0.446 -0.2973  0.2170 -1.0321
  402TIP3   OH2 1211   2.484   5.516   1.721 -0.1993  0.5994  0.2921
  402TIP3    H1 1212   2.471   5.500   1.627 -1.4682  0.2177  0.5144
  402TIP3    H2 1213   2.534   5.597   1.725  0.8021  0.0648 -0.7286
  403TIP3   OH2 1214   1.159   5.885   2.720  0.2450  1.0123  0.3263
  403TIP3    H1 1215   1.181   5.877   2.812  1.1377  1.7886  0.1979
  403TIP3    H2 1216   1.071   5.849   2.713  0.4943  0.1705  1.3260
  404TIP3   OH2 1217   2.431   0.129   0.955  0.3577 -0.2400  0.5589
  404TIP3    H1 1218   2.374   0.139   0.878  0.7577 -1.9366  0.0065
  404TIP3    H2 1219   2.377   0.160   1.028  0.3218  2.3732 -0.4756
  405TIP3   OH2 1220   4.725   5.386   0.359 -0.2772 -0.5521 -0.8365
  405TIP3    H1 1221   4.771   5.445   0.299 -1.0326 -1.0797 -1.9774
  405TIP3    H2 1222   4.636   5.421   0.363  0.7455  2.4599  3.9390
  406TIP3   OH2 1223   5.781   3.171   2.292  0.2663  0.5120  0.2645
  406TIP3    H1 1224   5.712   3.130   2.240  0.1247  0.6310  0.3583
  406TIP3    H2 1225   5.857   3.115   2.279  0.3120  0.6966 -0.3042
  407TIP3   OH2 1226   4.771   1.202   4.214  0.4737  0.5998 -0.3718
  407TIP3    H1 1227   4.793   1.271   4.150 -0.4888  0.4178 -0.9156
  407TIP3    H2 1228   4.676   1.198   4.213  0.5134 -0.7416 -0.3461
  408TIP3   OH2 1229   2.789   1.727   3.397  0.4112  0.4404 -0.0361
  408TIP3    H1 1230   2.715   1.666   3.391  0.0450  0.6985  1.3047
  408TIP3    H2 1231   2.790   1.772   3.313  0.7747 -1.4686 -1.1233
  409TIP3   OH2 1232   0.337   2.850   4.046 -0.1508 -0.1170 -0.2037
  409TIP3    H1 1233   0.268   2.796   4.008  1.4140 -2.1521 -0.3230
  409TIP3    H2 1234   0.416   2.796   4.041  0.9977  1.1919  2.0648
  410TIP3   OH2 1235   2.076   2.609   0.237 -0.0620 -0.0730 -0.1504
  410TIP3    H1 1236   2.099   2.516   0.247 -2.2793 -0.7931 -0.9559
  410TIP3    H2 1237   2.157   2.656   0.253  1.5894 -2.2420 -1.5340
  411TIP3   OH2 1238   3.604   4.835   3.532  0.4028  0.3877  0.1259
  411TIP3    H1 1239   3.696   4.809   3.522  1.3063  2.1814  2.6884
  411TIP3    H2 1240   3.563   4.763   3.579  0.1647 -0.8966 -1.9487
  412TIP3   OH2 1241   0.754   0.257   4.616 -0.0058 -0.5734  0.0667
  412TIP3    H1 1242   0.799   0.213   4.688  0.9410  0.6338  0.2446
  412TIP3    H2 1243   0.716   0.186   4.564 -1.7156 -1.4640  2.3471
  413TIP3   OH2 1244   4.604   0.083   2.822 -0.3670  0.0140  0.1381
  413TIP3    H1 1245   4.562   0.151   2.769 -1.5497 -0.3770  0.5531
  413TIP3    H2 1246   4.669   0.043   2.762 -2.8164 -1.5734 -1.6718
  414TIP3   OH2 1247   4.619   5.346   2.657  0.1266  0.5012 -0.0012
  414TIP3    H1 1248   4.697   5.321   2.706  1.3316  0.7194 -1.7356
  414TIP3    H2 1249   4.597   5.269   2.605 -0.9996  0.3507  0.6539
  415TIP3   OH2 1250   1.591   2.047   4.552 -0.7529 -0.6067 -0.0352
  415TIP3    H1 1251   1.625   1.985   4.487  0.7338 -0.8859  0.9426
  415TIP3    H2 1252   1.535   2.107   4.502  0.9918 -0.3013 -1.7401
  416TIP3   OH2 1253   1.163   1.591   0.018 -0.3467  0.6689  1.1151
  416TIP3    H1 1254   1.224   1.524  -0.012 -1.4868 -0.0635  0.3290
  416TIP3    H2 1255   1.111   1.547   0.086 -0.3687  1.0967  1.3743
  417TIP3   OH2 1256   6.032   2.264   1.484 -0.3769 -0.1696 -0.4169
  417TIP3    H1 1257   5.979   2.185   1.469  3.9748 -3.7056  0.7393
  417TIP3    H2 1258   6.007   2.293   1.571 -0.8019 -1.4448 -0.0882
  418TIP3   OH2 1259   6.173   5.398   0.044  0.0744  0.0415 -0.1296
  418TIP3    H1 1260   6.125   5.480   0.038 -1.2547 -0.7856 -1.5724
  418TIP3    H2 1261   6.251   5.411  -0.009  0.1138  0.5305  0.0491
  419TIP3   OH2 1262   0.506   4.195   1.584  0.1960 -0.6655 -0.3042
  419TIP3    H1 1263   0.545   4.282   1.593 -0.5367 -0.3460 -0.1134
  419TIP3    H2 1264   0.487   4.186   1.491 -1.9788  0.4143 -0.0338
  420TIP3   OH2 1265   2.379   4.114   3.712  0.1035 -0.1451 -0.2880
  420TIP3    H1 1266   2.388   4.207   3.689  2.5579 -0.5388 -1.2906
  420TIP3    H2 1267   2.464   4.091   3.750 -0.1264 -2.1943 -0.9103
  421TIP3   OH2 1268   0.395   0.013   2.388  0.2281 -0.0671  0.2531
  421TIP3    H1 1269   0.380   0.104   2.363 -1.7075 -0.6331 -0.8613
  421TIP3    H2 1270   0.317  -0.011   2.438 -1.0268 -2.0556 -2.3982
  422TIP3   OH2 1271   3.656   0.695   4.496 -0.1273 -0.7998  0.0111
  422TIP3    H1 1272   3.738   0.685   4.446 -0.6674 -0.6827 -0.9181
  422TIP3    H2 1273   3.675   0.654   4.580  0.9152 -0.7246 -0.1652
  423TIP3   OH2 1274   0.718   1.325   1.971 -0.3134 -0.4032  0.3708
  423TIP3    H1 1275   0.689   1.309   1.881 -0.3147  0.3748  0.2262
  423TIP3    H2 1276   0.793   1.267   1.982 -0.0707 -0.2265 -0.2682
  424TIP3   OH2 1277   5.895   0.420   1.619 -0.6221 -0.2771  0.5230
  424TIP3    H1 1278   5.880   0.507   1.583 -2.0870 -1.0226 -0.7705
  424TIP3    H2 1279   5.837   0.416   1.695 -1.4702 -0.5305 -0.1243
  425TIP3   OH2 1280   1.407   4.626   1.340  0.1520  0.1082  0.0674
  425TIP3    H1 1281   1.452   4.562   1.395 -0.3057 -1.0100 -0.8246
  425TIP3    H2 1282   1.322   4.638   1.383 -0.0843 -0.5288 -0.2030
  426TIP3   OH2 1283   3.855   1.644   0.930 -0.4226  0.6028 -0.0109
  426TIP3    H1 1284   3.926   1.594   0.972 -0.0533  1.1894  0.0653
  426TIP3    H2 1285   3.884   1.735   0.933 -0.3578  0.6664 -1.6000
  427TIP3   OH2 1286   5.163   3.474   2.171 -0.6837 -0.0253  0.1932
  427TIP3    H1 1287   5.218   3.461   2.094 -0.6603 -1.6708  0.4456
  427TIP3    H2 1288   5.118   3.390   2.182 -1.1569  0.3937  1.6016
  428TIP3   OH2 1289   5.312   2.745   0.053  0.3214 -0.0691  0.4069
  428TIP3    H1 1290   5.273   2.833   0.060  0.3438  0.2892 -2.5237
  428TIP3    H2 1291   5.402   2.756   0.084  0.5187  1.1410 -0.5151
  429TIP3   OH2 1292   5.145   1.210   3.165 -0.2601 -0.4885 -0.0200
  429TIP3    H1 1293   5.221   1.228   3.221 -0.3916 -1.5002  0.5010
  429TIP3    H2 1294   5.178   1.154   3.096 -0.3583 -0.2248 -0.2854
  430TIP3   OH2 1295   3.458   1.203   4.345  0.5292  0.5593  0.6530
  430TIP3    H1 1296   3.400   1.276   4.323 -1.6975 -0.7509  1.8470
  430TIP3    H2 1297   3.536   1.218   4.292 -1.4342  1.6477 -2.1625
  431TIP3   OH2 1298   0.669   5.371   3.929  0.1948  0.4305  0.0845
  431TIP3    H1 1299   0.616   5.432   3.878  0.0651  0.7730  0.6240
  431TIP3    H2 1300   0.626   5.367   4.015  1.2359  1.0071  0.6596
  432TIP3   OH2 1301   3.759   4.255   2.433 -0.8024  0.0236 -0.0701
  432TIP3    H1 1302   3.746   4.321   2.501 -0.0777 -0.7745  0.8769
  432TIP3    H2 1303   3.769   4.173   2.481  3.6050 -0.0775 -0.7970
  433TIP3   OH2 1304   3.869   0.518   4.649 -0.4873 -0.2082  0.7675
  433TIP3    H1 1305   3.821   0.543   4.728  0.2888 -0.8592  1.4591
  433TIP3    H2 1306   3.961   0.536   4.670 -0.1932 -1.1516  0.3212
  434TIP3   OH2 1307   5.421   4.793   0.827 -0.1393  0.4799  0.2692
  434TIP3    H1 1308   5.333   4.825   0.810 -0.6728  1.2759  3.6724
  434TIP3    H2 1309   5.408   4.702   0.856  0.3777  0.0610 -0.7676
  435TIP3   OH2 1310   0.828   0.902   1.018  0.4716 -0.1901 -0.0603
  435TIP3    H1 1311   0.879   0.837   1.066 -0.1441  0.5650  1.7120
  435TIP3    H2 1312   0.841   0.984   1.067 -1.8688  0.1653  0.0852
  436TIP3   OH2 1313   1.901   5.386   2.019  0.0468 -0.3141 -0.7675
  436TIP3    H1 1314   1.989   5.397   2.053 -0.5257  1.3569  0.2671
  436TIP3    H2 1315   1.910   5.400   1.925  0.7675  0.6130 -0.5699
  437TIP3   OH2 1316   0.856   1.015   3.243  0.0707  0.3883 -0.0821
  437TIP3    H1 1317   0.921   1.058   3.188  1.9813 -2.9032 -0.6939
  437TIP3    H2 1318   0.777   1.012   3.190  1.0383 -0.1915 -1.5482
  438TIP3   OH2 1319   2.474   2.977   3.178 -0.0472  0.1385  0.0586
  438TIP3    H1 1320   2.422   2.903   3.147 -1.3076  0.9372  0.2240
  438TIP3    H2 1321   2.499   3.024   3.098  1.3091 -0.7802 -0.1026
  439TIP3   OH2 1322   4.558   4.294   4.407 -0.2392  0.0196  0.0364
  439TIP3    H1 1323   4.632   4.233   4.401 -0.4315 -0.2074 -0.0435
  439TIP3    H2 1324   4.555   4.335   4.320 -0.0366  0.2291  0.1279
  440TIP3   OH2 1325   4.570   4.334   2.232  0.7109 -0.2767 -0.1576
  440TIP3    H1 1326   4.592   4.361   2.143  0.8550 -0.6738 -0.2445
  440TIP3    H2 1327   4.526   4.410   2.270 -1.4755 -0.8833 -1.3161
  441TIP3   OH2 1328   5.474   3.530   1.711 -0.4480 -0.3205 -0.9171
  441TIP3    H1 1329   5.396   3.552   1.659 -1.6532 -1.9978  0.0718
  441TIP3    H2 1330   5.488   3.607   1.766 -2.0424 -0.3407 -0.4110
  442TIP3   OH2 1331   2.862   0.265   0.487 -0.3389 -0.0207  0.1026
  442TIP3    H1 1332   2.843   0.235   0.576 -0.1030  0.7408  0.4153
  442TIP3    H2 1333   2.803   0.340   0.474 -0.9863 -0.6474 -0.7012
  443TIP3   OH2 1334   2.304   3.464   3.330  0.1510  0.1605  0.6263
  443TIP3    H1 1335   2.343   3.431   3.411 -0.8580 -0.7428  0.7771
  443TIP3    H2 1336   2.335   3.405   3.262  1.2079  1.0740  0.2851
  444TIP3   OH2 1337   1.412   4.769   2.733 -0.3489  0.3332  0.0212
  444TIP3    H1 1338   1.376   4.704   2.672 -3.1570  1.8622 -0.1255
  444TIP3    H2 1339   1.435   4.843   2.678  2.6666 -0.3170  0.2121
  445TIP3   OH2 1340   3.814   0.362   3.819  0.3925  0.1935 -0.1539
  445TIP3    H1 1341   3.766   0.280   3.826  1.1551 -0.1637  1.4181
  445TIP3    H2 1342   3.752   0.423   3.779 -0.5773 -0.8345 -0.2737
  446TIP3   OH2 1343   0.585   3.744   3.562  0.5250  0.1182 -0.1343
  446TIP3    H1 1344   0.508   3.799   3.548  0.3639  0.6085  2.2262
  446TIP3    H2 1345   0.588   3.686   3.486 -2.0719  0.2141 -0.3807
  447TIP3   OH2 1346   1.177   3.191   1.961 -0.0743  0.2524  0.3490
  447TIP3    H1 1347   1.219   3.274   1.937 -1.6195  1.2537  0.8816
  447TIP3    H2 1348   1.107   3.181   1.896  1.1639 -1.5930 -0.7877
  448TIP3   OH2 1349   5.889   4.546   2.574  0.4376 -0.1215 -0.6499
  448TIP3    H1 1350   5.941   4.595   2.638  0.1160 -0.7425  0.1075
  448TIP3    H2 1351   5.927   4.458   2.574  1.4734  0.2859 -2.5349
  449TIP3   OH2 1352   5.920   0.057   1.186  0.4968  0.3601 -0.4624
  449TIP3    H1 1353   5.967  -0.001   1.126  0.8211  0.8624 -0.7106
  449TIP3    H2 1354   5.988   0.092   1.243 -0.0741 -1.7012  1.6053
  450TIP3   OH2 1355   1.718   2.816   2.590  0.0985 -0.2415 -0.4139
  450TIP3    H1 1356   1.756   2.731   2.565 -0.1477 -0.6147  0.4421
  450TIP3    H2 1357   1.714   2.813   2.685  1.9942  1.5508 -0.1874
  451TIP3   OH2 1358   5.173   4.747   4.012  0.0810  0.1036  0.4531
  451TIP3    H1 1359   5.221   4.827   4.034  1.1480 -0.4995  0.4008
  451TIP3    H2 1360   5.242   4.684   3.988 -0.7013 -1.0003  1.0325
  452TIP3   OH2 1361   3.396   3.747   0.552  1.0302 -0.2411  0.3759
  452TIP3    H1 1362   3.403   3.822   0.493 -0.1356 -0.5085 -0.1148
  452TIP3    H2 1363   3.410   3.671   0.496 -2.1687 -0.6273 -0.0471
  453TIP3   OH2 1364   3.078   1.764   0.351  0.4486  0.4774 -0.0644
  453TIP3    H1 1365   3.155   1.709   0.341  1.4077  1.7517 -0.0274
  453TIP3    H2 1366   3.050   1.784   0.262  1.4758  1.7348 -0.1345
  454TIP3   OH2 1367   5.205   4.759   4.523  0.2981 -0.3625 -0.4229
  454TIP3    H1 1368   5.200   4.712   4.440 -0.1284  0.4504 -0.8678
  454TIP3    H2 1369   5.115   4.783   4.542  0.5069  0.2225 -0.1748
  455TIP3   OH2 1370   5.489   3.099   0.733 -0.6459 -0.0422 -0.3100
  455TIP3    H1 1371   5.500   3.121   0.640  2.5509 -2.1120 -0.5643
  455TIP3    H2 1372   5.394   3.100   0.746 -1.3615 -1.5049 -4.1004
  456TIP3   OH2 1373   2.269   1.522   3.394 -0.3822 -0.6517 -0.2519
  456TIP3    H1 1374   2.183   1.562   3.381 -0.9378 -1.8337 -0.2958
  456TIP3    H2 1375   2.308   1.520   3.306 -0.8744 -1.3601 -0.4574
  457TIP3   OH2 1376   0.653   3.640   4.606  0.3579 -0.2644 -0.2867
  457TIP3    H1 1377   0.600   3.705   4.560 -1.1484 -1.9173 -0.9473
  457TIP3    H2 1378   0.662   3.567   4.545  1.0124 -1.1983  0.8744
  458TIP3   OH2 1379   1.537   1.261   3.683  0.1539 -0.2852  0.3278
  458TIP3    H1 1380   1.615   1.284   3.733  1.7159 -0.6878 -1.7828
  458TIP3    H2 1381   1.497   1.346   3.661  0.4248 -0.0436  0.7521
  459TIP3   OH2 1382   3.566   5.118   1.589  0.0764 -0.4868  0.2267
  459TIP3    H1 1383   3.656   5.137   1.560 -0.3641  0.0683 -0.8419
  459TIP3    H2 1384   3.526   5.074   1.514 -0.7344 -0.1578  0.4603
  460TIP3   OH2 1385   2.305   4.755   3.343 -0.2747  0.0593 -0.8359
  460TIP3    H1 1386   2.353   4.682   3.305 -0.8175 -0.7151 -0.0891
  460TIP3    H2 1387   2.293   4.730   3.435 -1.6783  0.4465 -0.8919
  461TIP3   OH2 1388   1.766   3.458   2.876 -0.1281  0.2975 -0.3578
  461TIP3    H1 1389   1.815   3.528   2.834 -0.4420 -0.8692 -2.8546
  461TIP3    H2 1390   1.827   3.420   2.939  0.3299  2.1917  0.4128
  462TIP3   OH2 1391   5.618   5.198   0.764 -0.3675 -0.1030  0.5081
  462TIP3    H1 1392   5.624   5.294   0.763  0.0559 -0.1172  1.1226
  462TIP3    H2 1393   5.557   5.177   0.693 -2.1137  0.7411  1.6783
  463TIP3   OH2 1394   4.059   4.118   1.184  0.5115 -0.1017  0.0739
  463TIP3    H1 1395   4.025   4.036   1.219  0.8050  0.0643  0.7546
  463TIP3    H2 1396   4.148   4.125   1.219  1.3801 -0.6622 -1.8855
  464TIP3   OH2 1397   0.103   1.972   4.172  0.5611  0.1387  0.1050
  464TIP3    H1 1398   0.033   1.917   4.138  0.4630  1.2726 -1.6424
  464TIP3    H2 1399   0.166   1.979   4.100  2.0381 -0.0904  1.3162
  465TIP3   OH2 1400   3.840   3.964   0.295 -0.1854  1.0130 -0.2770
  465TIP3    H1 1401   3.904   3.936   0.361 -3.0270 -0.0512  2.2590
  465TIP3    H2 1402   3.856   4.058   0.284  0.9537  1.0430  1.2661
  466TIP3   OH2 1403   5.982   5.602   4.239  0.0318  0.2215 -0.0492
  466TIP3    H1 1404   6.053   5.548   4.205 -0.9336  0.1403 -2.1030
  466TIP3    H2 1405   6.025   5.675   4.282  1.3528 -1.2233  1.2131
  467TIP3   OH2 1406   6.208   1.132   3.597  0.1477  0.7599  0.2932
  467TIP3    H1 1407   6.120   1.123   3.634 -0.0443 -0.0432 -0.3408
  467TIP3    H2 1408   6.264   1.081   3.657 -0.1390 -0.4051 -0.3936
  468TIP3   OH2 1409   3.375   0.801   2.305 -0.2308  0.7636 -0.1843
  468TIP3    H1 1410   3.444   0.832   2.364  0.4863  0.7820 -1.0048
  468TIP3    H2 1411   3.297   0.795   2.359  0.4962  0.4262  0.8486
  469TIP3   OH2 1412   0.352   4.944   0.514 -0.3437 -0.5662 -0.1355
  469TIP3    H1 1413   0.404   4.970   0.438  0.7784  1.0284  1.1209
  469TIP3    H2 1414   0.291   5.017   0.528  1.1265  0.3500  1.9290
  470TIP3   OH2 1415   5.939   2.248   0.425 -0.0310  0.0682 -0.9226
  470TIP3    H1 1416   5.990   2.279   0.350  1.4874 -0.7720 -0.2875
  470TIP3    H2 1417   6.000   2.193   0.474 -1.4740 -0.6937  0.0778
  471TIP3   OH2 1418   5.891   5.208   0.377 -0.0342  0.6442 -0.3728
  471TIP3    H1 1419   5.911   5.178   0.466  1.1496  1.8871 -0.1864
  471TIP3    H2 1420   5.970   5.187   0.327 -0.1571  1.1909 -0.8045
  472TIP3   OH2 1421   5.450   2.303   3.722  0.3935 -0.0909 -0.1011
  472TIP3    H1 1422   5.535   2.331   3.688  0.9005  0.4538  1.5205
  472TIP3    H2 1423   5.389   2.317   3.649  1.1986  2.2755 -0.4041
  473TIP3   OH2 1424   0.716   1.929   1.096 -0.3865 -0.0472  0.0549
  473TIP3    H1 1425   0.628   1.955   1.067  0.5292  0.8059 -2.0864
  473TIP3    H2 1426   0.721   1.835   1.078  0.0843  0.4164 -2.5302
  474TIP3   OH2 1427   2.465   5.595   2.512  0.0940  0.0588  0.2275
  474TIP3    H1 1428   2.426   5.528   2.456 -0.6393  0.4157  0.2927
  474TIP3    H2 1429   2.392   5.625   2.567  0.4072  0.9077  0.1932
  475TIP3   OH2 1430   3.865   5.041   3.301 -0.1364 -0.5358  0.1995
  475TIP3    H1 1431   3.775   5.072   3.301 -0.1144 -0.1978  2.6911
  475TIP3    H2 1432   3.906   5.087   3.375  1.4018 -2.4205  0.6131
  476TIP3   OH2 1433   0.962   0.426   2.468  0.0948 -0.7183  0.0909
  476TIP3    H1 1434   1.019   0.449   2.542  1.2471 -3.0059  0.0020
  476TIP3    H2 1435   0.992   0.481   2.396  1.1801 -0.7839  0.4731
  477TIP3   OH2 1436   3.720   2.047   3.428 -0.1158 -0.1457 -0.1388
  477TIP3    H1 1437   3.627   2.031   3.409  0.4529 -0.2693 -3.4332
  477TIP3    H2 1438   3.749   1.969   3.475 -1.1491 -1.2498 -1.2639
  478TIP3   OH2 1439   3.164   5.493   2.371  0.7244 -0.4127  0.1451
  478TIP3    H1 1440   3.247   5.452   2.395 -0.0547 -1.5169  1.0872
  478TIP3    H2 1441   3.112   5.422   2.334 -0.2574 -0.0298  0.7598
  479TIP3   OH2 1442   4.506   0.209   0.594 -0.6126 -0.1352 -0.0767
  479TIP3    H1 1443   4.457   0.287   0.567 -0.2244  0.0972 -0.1304
  479TIP3    H2 1444   4.488   0.201   0.687  1.8420  1.9204  0.6958
  480TIP3   OH2 1445   2.578   1.137   1.269  0.9041  0.0821  0.2241
  480TIP3    H1 1446   2.644   1.133   1.338  0.0895  0.3170  1.0217
  480TIP3    H2 1447   2.498   1.165   1.313  0.2502 -0.2491 -0.7267
  481TIP3   OH2 1448   3.947   5.841   3.670 -0.4275 -0.1349 -0.6722
  481TIP3    H1 1449   3.865   5.843   3.719 -0.2375 -1.3545 -0.2750
  481TIP3    H2 1450   3.971   5.749   3.668  1.0801  0.2324 -0.5479
  482TIP3   OH2 1451   2.641  -0.017   4.805 -0.2508  0.1673  0.3829
  482TIP3    H1 1452   2.612   0.074   4.794  1.2985  0.4404 -2.2456
  482TIP3    H2 1453   2.719  -0.011   4.859 -0.6606  0.2728  0.9749
  483TIP3   OH2 1454   0.219   4.235   3.978  0.2897  0.1104  0.3591
  483TIP3    H1 1455   0.175   4.152   3.992 -0.5535  0.1381 -1.6570
  483TIP3    H2 1456   0.149   4.300   3.980  0.9987  0.8789  2.4061
  484TIP3   OH2 1457   2.210   2.534   3.910 -0.4996 -0.4168 -0.8106
  484TIP3    H1 1458   2.239   2.503   3.996  0.9014  3.1163  0.1630
  484TIP3    H2 1459   2.115   2.518   3.909 -0.7645  0.6014  1.9538
  485TIP3   OH2 1460   2.969   4.869   0.388  0.4263  0.4128  0.1155
  485TIP3    H1 1461   2.925   4.840   0.309 -1.6945 -0.3847  1.4977
  485TIP3    H2 1462   2.971   4.792   0.444  1.0106  1.1803  1.1985
  486TIP3   OH2 1463   5.536   1.629   1.544  0.2898 -0.7381  0.3288
  486TIP3    H1 1464   5.505   1.719   1.553  0.9478 -0.3741 -0.8272
  486TIP3    H2 1465   5.463   1.575   1.574 -0.3059  0.1653  0.5383
  487TIP3   OH2 1466   4.747   2.677   0.728 -0.7758  0.3304  0.4497
  487TIP3    H1 1467   4.711   2.619   0.796  1.4233 -2.3155 -0.4310
  487TIP3    H2 1468   4.688   2.665   0.654 -0.3208 -0.9715  0.2565
  488TIP3   OH2 1469   4.863   2.786   0.414 -0.6889  0.4078 -0.2328
  488TIP3    H1 1470   4.798   2.722   0.385  0.0295 -0.3509 -0.2157
  488TIP3    H2 1471   4.814   2.867   0.426 -2.0565 -0.6420  1.8331
  489TIP3   OH2 1472   5.865   3.608   2.647  0.1223 -0.2360 -0.3145
  489TIP3    H1 1473   5.812   3.528   2.650 -0.2678  0.0526  1.2614
  489TIP3    H2 1474   5.820   3.664   2.584  0.6791 -1.4254 -1.8235
  490TIP3   OH2 1475   0.910   0.858   1.754  0.1843 -0.4146  0.8448
  490TIP3    H1 1476   0.916   0.933   1.695  0.1898 -0.4508  0.7995
  490TIP3    H2 1477   0.958   0.788   1.709 -1.8429 -1.1877 -0.2543
  491TIP3   OH2 1478   4.804   4.478   1.203 -0.1236 -0.6429 -0.5337
  491TIP3    H1 1479   4.861   4.554   1.216 -0.7002  0.1283 -2.2771
  491TIP3    H2 1480   4.833   4.439   1.121 -0.0927 -2.1174  0.1374
  492TIP3   OH2 1481   4.856   1.273   2.308  0.1760  0.1580 -0.0354
  492TIP3    H1 1482   4.870   1.357   2.265 -0.0864  1.2373  1.8583
  492TIP3    H2 1483   4.762   1.256   2.297  0.2193  0.1264 -0.3739
  493TIP3   OH2 1484   0.465   5.582   3.378 -0.2258  0.5224  0.1400
  493TIP3    H1 1485   0.436   5.657   3.431  1.6505  2.4873 -1.4571
  493TIP3    H2 1486   0.436   5.603   3.289 -2.4887 -2.2676  0.0866
  494TIP3   OH2 1487   3.024   4.389   3.897  0.3101 -0.2029 -0.3924
  494TIP3    H1 1488   2.969   4.356   3.968  0.7302 -0.8409 -0.3503
  494TIP3    H2 1489   3.059   4.310   3.856  1.2304  0.1890 -0.3840
  495TIP3   OH2 1490   5.092   5.473   0.313 -0.1467  0.5854 -0.3662
  495TIP3    H1 1491   5.185   5.487   0.294  0.1110  1.0634  1.1058
  495TIP3    H2 1492   5.049   5.552   0.281  0.1502  0.9597  0.1370
  496TIP3   OH2 1493   5.521   0.901   2.785 -0.3919 -0.0295  0.2845
  496TIP3    H1 1494   5.598   0.894   2.842  1.3768  0.3245 -1.8841
  496TIP3    H2 1495   5.493   0.992   2.793  0.4696  0.2896 -0.0833
  497TIP3   OH2 1496   0.078   0.263   2.092  0.2727  0.0531  0.0853
  497TIP3    H1 1497   0.136   0.204   2.140 -0.7936 -1.3580 -0.2854
  497TIP3    H2 1498   0.017   0.296   2.159 -1.1005 -1.7738 -0.1870
  498TIP3   OH2 1499   4.458   2.175   0.826  1.3214 -0.0471 -0.2708
  498TIP3    H1 1500   4.467   2.170   0.730  2.0713 -1.8780 -0.1521
  498TIP3    H2 1501   4.397   2.104   0.847  0.7382  0.6844  0.5889
  499TIP3   OH2 1502   0.079   0.083   2.388  0.0519 -0.0644  0.1882
  499TIP3    H1 1503   0.133   0.025   2.442  0.3755 -1.5523 -1.6073
  499TIP3    H2 1504   0.040   0.025   2.322 -0.7727  1.5542 -0.8214
  500TIP3   OH2 1505   1.891   1.313   4.152 -0.0813 -0.4034 -0.0345
  500TIP3    H1 1506   1.987   1.311   4.163 -0.2319 -0.0591  1.7871
  500TIP3    H2 1507   1.875   1.389   4.097  0.6436  0.3610  0.7616
  501TIP3   OH2 1508   1.050   1.881   0.444  0.4549 -0.2261 -0.6567
  501TIP3    H1 1509   0.955   1.875   0.443  0.5426 -3.1251  0.5219
  501TIP3    H2 1510   1.070   1.944   0.374 -2.3338  1.9683  0.3129
  502TIP3   OH2 1511   6.106   4.152   2.008 -0.3482  0.5228 -0.2670
  502TIP3    H1 1512   6.037   4.113   2.062 -0.0275  0.7249  0.2894
  502TIP3    H2 1513   6.184   4.100   2.027  0.3984  2.1753  1.4321
  503TIP3   OH2 1514   1.285   0.738   0.982  0.0999  0.0289  0.1756
  503TIP3    H1 1515   1.375   0.769   0.996  0.3651  0.4403 -2.0216
  503TIP3    H2 1516   1.237   0.815   0.953 -1.0325 -0.1701  1.4213
  504TIP3   OH2 1517   3.919   1.742   1.903  0.0546  0.2826  0.2096
  504TIP3    H1 1518   3.858   1.707   1.838  1.6852 -0.5357 -0.9453
  504TIP3    H2 1519   3.982   1.792   1.851  2.7409 -2.2708  0.8041
  505TIP3   OH2 1520   1.707   0.758   2.834  0.3510  0.4857 -0.2149
  505TIP3    H1 1521   1.787   0.793   2.875  0.9565  0.4306 -1.3050
  505TIP3    H2 1522   1.644   0.830   2.840  0.5208  0.5873  0.5089
  506TIP3   OH2 1523   0.853   0.616   5.081  0.2452 -0.0754  0.1351
  506TIP3    H1 1524   0.899   0.689   5.123  1.5162  0.2927 -1.7551
  506TIP3    H2 1525   0.781   0.657   5.033  0.1903 -0.2166  0.0958
  507TIP3   OH2 1526   0.030   3.751   3.230 -0.4105 -0.0713  0.0186
  507TIP3    H1 1527   0.116   3.725   3.262  1.1283  0.7486 -3.0068
  507TIP3    H2 1528  -0.018   3.668   3.220 -0.1909 -0.4999  2.1469
  508TIP3   OH2 1529   0.938   5.745   2.022  0.3060 -0.4547  0.2401
  508TIP3    H1 1530   0.894   5.685   2.081  0.9881 -1.4048 -0.1988
  508TIP3    H2 1531   1.031   5.739   2.044  0.2915  1.3967  1.0375
  509TIP3   OH2 1532   5.682   0.962   5.166  0.3650 -0.5586 -0.1989
  509TIP3    H1 1533   5.627   1.014   5.224  2.0674 -0.6469  1.5905
  509TIP3    H2 1534   5.650   0.983   5.078 -3.2294 -1.4452  0.7051
  510TIP3   OH2 1535   1.721   2.775   4.363  0.2042  0.0444 -0.4087
  510TIP3    H1 1536   1.709   2.839   4.433 -2.2953 -0.3320 -0.3885
  510TIP3    H2 1537   1.633   2.760   4.330  0.6566 -3.4424 -0.3594
  511TIP3   OH2 1538   3.628   5.686   4.781  0.3904 -0.0376 -0.4093
  511TIP3    H1 1539   3.627   5.768   4.830 -0.8673  0.2634 -0.9081
  511TIP3    H2 1540   3.567   5.629   4.827  0.0253 -0.1246 -0.9851
  512TIP3   OH2 1541   1.193   4.329  -0.031 -0.4665  0.1469  0.3981
  512TIP3    H1 1542   1.205   4.388   0.043 -0.9167 -0.1476  0.7173
  512TIP3    H2 1543   1.151   4.252   0.007  1.3583 -0.9754  0.2443
  513TIP3   OH2 1544   4.124   4.989   1.226  0.2216  0.6291 -0.3850
  513TIP3    H1 1545   4.136   4.989   1.131 -3.3526  1.6842 -0.9942
  513TIP3    H2 1546   4.152   5.077   1.254  2.3464 -0.0556 -0.1961
  514TIP3   OH2 1547   5.716   3.105   1.571 -0.0940 -0.1427 -0.0195
  514TIP3    H1 1548   5.782   3.105   1.642  0.9005  1.4181 -0.8800
  514TIP3    H2 1549   5.657   3.176   1.594  0.6778  0.8895 -1.0988
  515TIP3   OH2 1550   1.524   4.648   4.535  0.2455  0.0231  0.8369
  515TIP3    H1 1551   1.508   4.586   4.464 -0.2716  0.5595  0.4723
  515TIP3    H2 1552   1.478   4.612   4.610 -1.5934  0.8401  0.1610
  516TIP3   OH2 1553   2.437   5.384   1.461 -0.0459 -0.1974  0.4213
  516TIP3    H1 1554   2.484   5.465   1.443  4.0450 -2.3940 -0.0315
  516TIP3    H2 1555   2.387   5.367   1.381 -0.2862  1.3788  0.1969
  517TIP3   OH2 1556   4.673   2.732   0.050  0.6514 -0.1910  0.1697
  517TIP3    H1 1557   4.598   2.792   0.052  0.2393 -0.5538 -1.9741
  517TIP3    H2 1558   4.642   2.656   0.001  2.2196 -0.6297 -0.2071
  518TIP3   OH2 1559   3.012   4.549   4.256  0.2818  0.2383  0.0013
  518TIP3    H1 1560   3.080   4.573   4.193  0.0395  0.6732 -0.0988
  518TIP3    H2 1561   3.045   4.469   4.298  1.6326  1.3277  1.1057
  519TIP3   OH2 1562   2.750   3.934   0.563  0.2916 -0.6692  0.6139
  519TIP3    H1 1563   2.778   4.002   0.624 -0.7078 -0.2254  0.5907
  519TIP3    H2 1564   2.674   3.894   0.604  0.6887 -1.5894  0.4877
  520TIP3   OH2 1565   6.318   1.061   4.237  0.1249  0.3738 -0.1621
  520TIP3    H1 1566   6.394   1.077   4.293  1.6679 -4.1210 -0.5745
  520TIP3    H2 1567   6.246   1.043   4.298  0.8728 -0.8848  0.3788
  521TIP3   OH2 1568   4.456   3.615   3.726  0.4241  0.1809  0.4514
  521TIP3    H1 1569   4.368   3.650   3.713  1.4843  2.4536 -1.4339
  521TIP3    H2 1570   4.513   3.691   3.721  2.6029 -1.3642  0.3830
  522TIP3   OH2 1571   3.292   1.173   1.807  0.2261 -0.1357  0.3587
  522TIP3    H1 1572   3.280   1.118   1.730 -0.2738  0.1446  0.2324
  522TIP3    H2 1573   3.385   1.164   1.828  0.3537 -0.2679 -0.2329
  523TIP3   OH2 1574   2.633   1.860   4.543  0.0402 -0.2452 -0.2049
  523TIP3    H1 1575   2.587   1.930   4.497  0.9958  0.0122 -0.7910
  523TIP3    H2 1576   2.673   1.902   4.618 -1.3308 -0.6240  0.7706
  524TIP3   OH2 1577   5.695   3.287   4.928  0.1043 -0.1776  0.1794
  524TIP3    H1 1578   5.600   3.282   4.939 -0.1600  1.4712 -0.9182
  524TIP3    H2 1579   5.728   3.202   4.958 -1.8498 -1.3381 -0.7486
  525TIP3   OH2 1580   1.915   1.823   0.094 -0.8370 -0.3383  0.4795
  525TIP3    H1 1581   1.997   1.778   0.076 -0.8487 -0.2595  0.2295
  525TIP3    H2 1582   1.875   1.773   0.165 -1.5362 -1.5672 -0.7584
  526TIP3   OH2 1583   5.771   1.523   1.711  0.4878  0.0145 -0.1966
  526TIP3    H1 1584   5.822   1.534   1.631  0.6868 -0.3903 -0.1314
  526TIP3    H2 1585   5.691   1.572   1.696  0.7465  0.3635 -0.4405
  527TIP3   OH2 1586   4.415   3.443   1.455  0.0006  0.0993  0.3306
  527TIP3    H1 1587   4.449   3.515   1.509  1.4154  0.5713 -1.1198
  527TIP3    H2 1588   4.344   3.406   1.508  1.0196  0.8035  2.3279
  528TIP3   OH2 1589   0.540   0.773   4.195 -0.7097  0.0901 -0.2607
  528TIP3    H1 1590   0.576   0.860   4.213 -2.9216  0.7126  1.6494
  528TIP3    H2 1591   0.602   0.713   4.235  0.5580  0.7879 -1.1094
  529TIP3   OH2 1592   2.782   1.146   1.053 -0.1838 -0.2113 -0.1510
  529TIP3    H1 1593   2.707   1.148   1.112  0.5136 -3.2829  1.0268
  529TIP3    H2 1594   2.820   1.234   1.058 -2.6330  0.8767  0.5830
  530TIP3   OH2 1595   1.571   3.020   4.329  0.0221 -0.2716 -0.0645
  530TIP3    H1 1596   1.642   3.063   4.280 -0.4351  0.4339 -0.1265
  530TIP3    H2 1597   1.491   3.059   4.294 -0.3698 -0.6781  0.3732
  531TIP3   OH2 1598   4.276   3.521   0.891 -0.0717 -0.1459  0.6561
  531TIP3    H1 1599   4.310   3.607   0.865 -0.8256 -0.2916 -0.9490
  531TIP3    H2 1600   4.346   3.460   0.868 -0.4551 -0.1964 -0.4099
  532TIP3   OH2 1601   5.448   1.792   5.141  0.9910 -0.4854  0.3638
  532TIP3    H1 1602   5.416   1.827   5.224 -0.2066 -1.9763  0.5793
  532TIP3    H2 1603   5.520   1.735   5.165 -0.8640 -2.8149  0.7188
  533TIP3   OH2 1604   2.308   5.862   2.052 -0.3390 -0.0670 -0.2526
  533TIP3    H1 1605   2.304   5.935   2.114 -2.6356  1.1347 -1.6439
  533TIP3    H2 1606   2.401   5.852   2.032  0.1451  1.6758  0.8981
  534TIP3   OH2 1607   3.522   1.907   1.917  0.1742 -1.0089  0.2680
  534TIP3    H1 1608   3.498   1.814   1.924  0.1946 -0.9851  0.6622
  534TIP3    H2 1609   3.563   1.914   1.831 -0.2549 -1.2691  0.0370
  535TIP3   OH2 1610   1.769   5.998   3.483  0.7500 -0.2123  0.7885
  535TIP3    H1 1611   1.683   6.041   3.479  1.2711  0.7596 -0.5982
  535TIP3    H2 1612   1.750   5.912   3.520 -0.7452  0.1704  0.9992
  536TIP3   OH2 1613   4.876   1.508   2.173 -0.2813 -0.5648  0.0757
  536TIP3    H1 1614   4.945   1.566   2.140 -0.9105 -0.0135 -0.3117
  536TIP3    H2 1615   4.806   1.568   2.199  0.2774 -0.9438  2.7363
  537TIP3   OH2 1616   4.066   3.498   0.344 -0.1332 -0.0692 -0.4108
  537TIP3    H1 1617   4.108   3.423   0.386 -0.2691  0.1839  0.1857
  537TIP3    H2 1618   3.983   3.508   0.390 -0.0100  0.5964 -0.3219
  538TIP3   OH2 1619   3.827   4.428   4.299  0.3340 -0.1344 -0.0378
  538TIP3    H1 1620   3.883   4.495   4.261 -0.8373  1.0949  0.3231
  538TIP3    H2 1621   3.835   4.353   4.240 -0.9122  1.4754 -2.4004
  539TIP3   OH2 1622   6.076   5.800   1.539 -0.1748  0.0791 -0.3312
  539TIP3    H1 1623   6.025   5.881   1.551 -0.3639 -0.1406  0.3676
  539TIP3    H2 1624   6.150   5.827   1.483 -0.7363  0.5263 -0.8772
  540TIP3   OH2 1625   1.757   0.480   2.900  0.2444  0.2135  0.3000
  540TIP3    H1 1626   1.671   0.466   2.938 -0.2116  0.7466 -0.5073
  540TIP3    H2 1627   1.755   0.570   2.867  1.8690  1.0223  2.2157
  541TIP3   OH2 1628   0.974   4.287   5.057 -0.2726  0.3716 -0.4092
  541TIP3    H1 1629   0.886   4.251   5.068  0.4794 -0.9997  1.9122
  541TIP3    H2 1630   1.025   4.215   5.019  0.4905  0.0605  1.1106
  542TIP3   OH2 1631   2.100   0.572   2.461 -0.1518 -0.4843 -0.1192
  542TIP3    H1 1632   2.110   0.609   2.549  0.7147 -0.1202 -0.3591
  542TIP3    H2 1633   2.064   0.644   2.409  1.2452 -0.0421 -0.5162
  543TIP3   OH2 1634   3.328   0.964   4.379  0.7257  1.0044 -0.1898
  543TIP3    H1 1635   3.379   0.903   4.326  0.4980  1.2379 -0.6871
  543TIP3    H2 1636   3.379   1.045   4.378  0.9692  0.8640  0.3716
  544TIP3   OH2 1637   2.326   1.276   4.460 -0.0638  0.0947 -0.0666
  544TIP3    H1 1638   2.346   1.354   4.512 -2.0336  0.2954  0.4791
  544TIP3    H2 1639   2.411   1.237   4.441  0.9070  1.8400  0.4752
  545TIP3   OH2 1640   4.052   0.880   1.179  1.0975 -0.2769  1.0748
  545TIP3    H1 1641   4.120   0.908   1.118  0.2370  0.6677  0.5258
  545TIP3    H2 1642   3.973   0.872   1.126  0.7788 -1.4551  1.6848
  546TIP3   OH2 1643   4.632   4.001   3.460  0.0140 -0.1202  0.0531
  546TIP3    H1 1644   4.610   4.016   3.369 -0.2965  0.3164  0.1962
  546TIP3    H2 1645   4.716   4.046   3.472  0.4370 -0.8298 -0.2072
  547TIP3   OH2 1646   5.948   5.946   0.993  0.4452 -0.0422 -0.3743
  547TIP3    H1 1647   5.885   5.963   0.923 -0.0469 -0.0491  0.0657
  547TIP3    H2 1648   5.903   5.885   1.052  0.4814  0.7128  0.4581
  548TIP3   OH2 1649   5.771   1.881   3.933 -0.2178  0.2012  0.0981
  548TIP3    H1 1650   5.740   1.961   3.975  0.0840  0.3470  0.0455
  548TIP3    H2 1651   5.819   1.834   4.002 -0.0212  0.2743  0.0121
  549TIP3   OH2 1652   0.743   4.896   2.405  0.2338  0.0591  0.3934
  549TIP3    H1 1653   0.715   4.806   2.389  1.3705 -0.0695 -0.9720
  549TIP3    H2 1654   0.837   4.890   2.422  0.2722  0.9615  0.5842
  550TIP3   OH2 1655   5.793   4.824   1.686  0.1304 -0.1283 -0.2731
  550TIP3    H1 1656   5.738   4.770   1.629 -0.3701 -0.0813  0.1577
  550TIP3    H2 1657   5.740   4.838   1.764 -0.2952  2.1106 -0.9177
  551TIP3   OH2 1658   2.558   3.814   0.741  0.1980 -0.4748  0.1925
  551TIP3    H1 1659   2.522   3.727   0.724 -1.3901 -0.0342  1.1084
  551TIP3    H2 1660   2.570   3.817   0.836  1.5467 -0.1628  0.0275
  552TIP3   OH2 1661   6.168   2.068   1.762 -0.1955 -0.4962  0.1725
  552TIP3    H1 1662   6.170   2.110   1.676 -0.6759 -1.0098 -0.0961
  552TIP3    H2 1663   6.228   2.120   1.816  0.2428 -0.2729 -0.5217
  553TIP3   OH2 1664   5.935   4.700   0.873  0.0191 -0.2942  0.6397
  553TIP3    H1 1665   5.962   4.631   0.933  0.1120 -0.5913  0.2599
  553TIP3    H2 1666   5.940   4.660   0.786  1.2102  0.5224  0.3050
  554TIP3   OH2 1667   1.777   2.898   1.885  0.0225 -0.3420 -0.4244
  554TIP3    H1 1668   1.743   2.920   1.972 -0.0895  0.4714 -0.6664
  554TIP3    H2 1669   1.732   2.817   1.861 -0.1615 -0.4119  0.1517
  555TIP3   OH2 1670   2.071   0.796   4.540 -0.1652  0.4912  0.3872
  555TIP3    H1 1671   2.114   0.719   4.502 -1.4772  0.4650 -1.1031
  555TIP3    H2 1672   2.119   0.812   4.621  2.1781  0.0141 -0.8193
  556TIP3   OH2 1673   3.057   5.367   0.255 -0.3552 -0.1255 -0.0927
  556TIP3    H1 1674   3.094   5.455   0.247 -0.4844 -0.2655 -3.1073
  556TIP3    H2 1675   3.093   5.334   0.338  4.3793  0.6498 -1.5448
  557TIP3   OH2 1676   1.861   3.267   3.030 -0.2299  0.0709  0.3761
  557TIP3    H1 1677   1.829   3.249   3.118 -1.3246  0.1090 -0.0035
  557TIP3    H2 1678   1.828   3.194   2.977 -0.3969  0.5509 -0.1853
  558TIP3   OH2 1679   5.148   5.613   1.626 -0.1215 -0.5927 -0.3628
  558TIP3    H1 1680   5.179   5.690   1.578 -2.4535  1.9144  1.8023
  558TIP3    H2 1681   5.222   5.552   1.625  1.4756  1.1689 -3.0904
  559TIP3   OH2 1682   6.072   2.262   4.584  0.0961 -0.3368  0.0820
  559TIP3    H1 1683   6.140   2.239   4.520 -1.2534  0.8729 -1.9077
  559TIP3    H2 1684   6.092   2.353   4.608  0.4111 -0.6860  1.1500
  560TIP3   OH2 1685   2.542   0.249   4.523  0.5011 -0.5583 -0.0430
  560TIP3    H1 1686   2.566   0.186   4.592  0.2973 -0.2672  0.2978
  560TIP3    H2 1687   2.569   0.334   4.557  1.0293 -0.4902 -0.6257
  561TIP3   OH2 1688   2.796   2.132   3.278 -0.8418  0.6537  0.7343
  561TIP3    H1 1689   2.790   2.195   3.207 -1.1925  0.3107  0.4554
  561TIP3    H2 1690   2.889   2.111   3.285 -1.0587 -1.7836 -1.8379
  562TIP3   OH2 1691   2.248   4.946   4.645 -0.2695 -0.5240  0.5886
  562TIP3    H1 1692   2.208   5.020   4.689  0.3095 -0.8991  1.7910
  562TIP3    H2 1693   2.326   4.926   4.697  0.0858 -1.3985 -0.2365
  563TIP3   OH2 1694   5.846   4.631   4.354  0.0085 -0.0367  0.0803
  563TIP3    H1 1695   5.773   4.693   4.360 -0.6365 -0.7486 -0.2621
  563TIP3    H2 1696   5.825   4.576   4.278  0.2794 -1.0461  0.7143
  564TIP3   OH2 1697   1.843   5.982   0.485 -0.3295 -0.9982 -0.3036
  564TIP3    H1 1698   1.857   5.894   0.519 -1.8746 -2.4562 -3.1386
  564TIP3    H2 1699   1.928   6.008   0.449  0.5002 -0.6802  1.7700
  565TIP3   OH2 1700   4.545   4.701   0.989 -0.8244  0.1287  0.0246
  565TIP3    H1 1701   4.572   4.709   1.081 -1.8426  3.9580  0.1625
  565TIP3    H2 1702   4.623   4.671   0.944  0.3293  0.1871  1.8671
  566TIP3   OH2 1703   3.610   5.746   1.198  0.3667  0.2418  0.4492
  566TIP3    H1 1704   3.651   5.695   1.128 -0.7521 -0.5687  0.3523
  566TIP3    H2 1705   3.672   5.743   1.270  1.2974  0.6311 -0.3133
  567TIP3   OH2 1706   4.621   0.391   1.264  0.4776  0.8112  0.2765
  567TIP3    H1 1707   4.590   0.457   1.202  1.7581  0.0512 -1.2452
  567TIP3    H2 1708   4.550   0.327   1.268 -0.5162  1.9153  1.3032
  568TIP3   OH2 1709   4.919   3.875   4.766 -0.7722 -0.1195  0.0392
  568TIP3    H1 1710   4.895   3.794   4.721 -0.9937 -0.4471  0.7469
  568TIP3    H2 1711   4.898   3.944   4.703  0.4935 -0.6626 -1.0242
  569TIP3   OH2 1712   3.710   1.584   4.676 -0.0972 -0.2358 -0.2644
  569TIP3    H1 1713   3.778   1.649   4.660 -0.0741 -0.2182 -0.0905
  569TIP3    H2 1714   3.666   1.614   4.755  0.1219 -0.6092  0.0013
  570TIP3   OH2 1715   3.632   1.649   1.133  0.0999 -0.8246  0.5416
  570TIP3    H1 1716   3.721   1.619   1.118 -0.2252 -1.5015 -0.1325
  570TIP3    H2 1717   3.631   1.739   1.102  0.6890 -0.6252  1.0861
  571TIP3   OH2 1718   1.062   3.878   1.618 -0.4088  0.4598  0.3530
  571TIP3    H1 1719   1.071   3.880   1.523 -1.1768  0.9581  0.2793
  571TIP3    H2 1720   0.968   3.891   1.633 -0.0921  2.0149  1.2134
  572TIP3   OH2 1721   3.237   2.774   3.100 -0.4027 -0.5208 -0.4707
  572TIP3    H1 1722   3.160   2.813   3.058  0.8019 -0.4777 -2.7889
  572TIP3    H2 1723   3.201   2.716   3.167 -2.3926  0.5037 -0.5689
  573TIP3   OH2 1724   0.779   0.141   4.209 -0.9781 -0.5566 -0.2511
  573TIP3    H1 1725   0.789   0.147   4.114  3.5851  0.9257  0.0666
  573TIP3    H2 1726   0.807   0.052   4.230  0.0180 -0.2448 -0.2071
  574TIP3   OH2 1727   4.458   2.512   4.793  0.0307  0.3069 -0.3113
  574TIP3    H1 1728   4.446   2.557   4.877  0.4861  2.2575 -1.2391
  574TIP3    H2 1729   4.524   2.445   4.811 -1.5341 -0.9017  1.4017
  575TIP3   OH2 1730   5.320   4.107   2.227 -0.3421 -0.1799  0.6162
  575TIP3    H1 1731   5.355   4.054   2.156 -0.2037  0.3641  0.2713
  575TIP3    H2 1732   5.368   4.190   2.221 -1.1919  0.3192  0.5728
  576TIP3   OH2 1733   3.157   3.930   3.820 -0.0438  0.0844  0.3756
  576TIP3    H1 1734   3.223   3.908   3.886 -0.1039  0.9959  0.7617
  576TIP3    H2 1735   3.078   3.885   3.850 -0.2129  0.9198  1.2481
  577TIP3   OH2 1736   3.988   3.375   2.377 -0.4521  0.0169 -0.4091
  577TIP3    H1 1737   3.979   3.329   2.461 -2.6401  0.7263 -0.2196
  577TIP3    H2 1738   4.083   3.389   2.369 -0.0500 -1.3198  1.2418
  578TIP3   OH2 1739   2.689   3.799   2.811  0.6229 -0.2193 -0.4245
  578TIP3    H1 1740   2.668   3.865   2.744  1.3259  1.3211  0.8112
  578TIP3    H2 1741   2.685   3.847   2.893 -1.6756 -2.3868  0.8657
  579TIP3   OH2 1742   0.915   1.082   1.599 -0.8833 -0.0953  0.3081
  579TIP3    H1 1743   0.897   1.082   1.505 -1.6925 -0.3808  0.4537
  579TIP3    H2 1744   0.851   1.144   1.635 -1.5269 -1.0525  0.8404
  580TIP3   OH2 1745   2.847   4.514   3.378  0.2609  0.6760 -0.5784
  580TIP3    H1 1746   2.861   4.420   3.389 -0.3618  0.9119  4.1609
  580TIP3    H2 1747   2.921   4.555   3.421 -0.3781  2.3257 -0.9776
  581TIP3   OH2 1748   2.653   0.884   1.149 -0.5259 -0.3607  0.7268
  581TIP3    H1 1749   2.713   0.918   1.082 -0.9674 -0.2039  0.4028
  581TIP3    H2 1750   2.613   0.962   1.187 -1.8954 -0.5063 -0.3458
  582TIP3   OH2 1751   2.463   4.053   1.324 -0.6156  0.2299 -0.2266
  582TIP3    H1 1752   2.531   4.114   1.295 -0.6165  0.6840  0.6993
  582TIP3    H2 1753   2.416   4.030   1.244  0.8864 -0.4337 -0.9698
  583TIP3   OH2 1754   6.011   2.320   1.216 -0.4370  0.9074 -0.1762
  583TIP3    H1 1755   5.923   2.349   1.240 -0.5739  0.6494 -0.3639
  583TIP3    H2 1756   6.049   2.288   1.298  0.6215  3.8518  0.6014
  584TIP3   OH2 1757   4.892   0.832   2.253 -0.6842 -0.2311 -0.6048
  584TIP3    H1 1758   4.808   0.876   2.240 -1.7370 -1.8747  0.2530
  584TIP3    H2 1759   4.954   0.903   2.271 -1.8791  1.0098 -1.2308
  585TIP3   OH2 1760   2.039   0.249   3.203  0.4623 -0.8376 -0.2961
  585TIP3    H1 1761   2.061   0.252   3.110  1.4402 -1.0612 -0.0881
  585TIP3    H2 1762   1.958   0.299   3.211  0.6406 -0.3898 -1.1903
  586TIP3   OH2 1763   5.725   5.462   2.629 -0.0218 -0.0680 -0.1163
  586TIP3    H1 1764   5.722   5.557   2.641  1.3129 -0.0977  0.6764
  586TIP3    H2 1765   5.804   5.447   2.578  0.3482 -0.8143  0.6539
  587TIP3   OH2 1766   3.565   1.218   1.924 -0.0330 -0.2258  0.2541
  587TIP3    H1 1767   3.587   1.164   1.999 -1.4946 -1.4681 -0.1706
  587TIP3    H2 1768   3.632   1.197   1.859  0.2377 -0.4375  0.6016
  588TIP3   OH2 1769   3.295   0.165   3.888 -0.5466 -0.2211  0.1196
  588TIP3    H1 1770   3.297   0.152   3.982 -1.6248 -0.1349  0.1709
  588TIP3    H2 1771   3.202   0.170   3.866 -0.3372 -0.9220 -1.0420
  589TIP3   OH2 1772   5.300   2.083   2.387  0.3333 -0.0417 -0.1390
  589TIP3    H1 1773   5.321   2.075   2.479  1.0292  1.9946 -0.0821
  589TIP3    H2 1774   5.215   2.128   2.385  0.3647  0.0091 -0.4911
  590TIP3   OH2 1775   2.000   0.654   3.777  0.0057 -0.7029  0.3478
  590TIP3    H1 1776   1.938   0.662   3.849  0.0831 -1.6697  0.5428
  590TIP3    H2 1777   1.955   0.600   3.712 -0.4858  1.0394 -0.8400
  591TIP3   OH2 1778   6.262   3.465   5.165 -0.1894  0.0202  0.0057
  591TIP3    H1 1779   6.345   3.442   5.123 -0.5145  1.2721 -1.3944
  591TIP3    H2 1780   6.202   3.482   5.093 -1.3944  0.1692  0.9975
  592TIP3   OH2 1781   0.780   5.272   0.081 -0.5707 -0.2243 -0.6687
  592TIP3    H1 1782   0.758   5.237   0.167 -1.7765 -0.1786 -0.9435
  592TIP3    H2 1783   0.699   5.266   0.031 -0.1605  0.7194 -1.4802
  593TIP3   OH2 1784   1.688   3.368   0.294 -0.0304  0.1779  0.4713
  593TIP3    H1 1785   1.612   3.319   0.264 -0.4343  0.7584  0.5522
  593TIP3    H2 1786   1.763   3.322   0.255 -0.5434  1.0698 -1.6461
  594TIP3   OH2 1787   4.748   3.366   4.320 -0.5040 -0.1377  0.5948
  594TIP3    H1 1788   4.758   3.320   4.236 -2.8661 -1.8252  1.1075
  594TIP3    H2 1789   4.833   3.356   4.363  0.6343  0.4253 -1.4057
  595TIP3   OH2 1790   4.825   3.060   4.329 -0.4483  0.5861 -0.1924
  595TIP3    H1 1791   4.886   3.134   4.333 -0.9627  0.9889  0.4665
  595TIP3    H2 1792   4.795   3.049   4.419 -0.9774  0.0842 -0.4261
  596TIP3   OH2 1793   3.779   5.252   0.498  0.5986  0.0521 -0.1581
  596TIP3    H1 1794   3.839   5.186   0.535 -0.3264  0.6003  2.4595
  596TIP3    H2 1795   3.706   5.201   0.463 -0.6977 -0.4008  2.9240
  597TIP3   OH2 1796   2.936   1.237   2.701  0.2180  0.4350  0.0217
  597TIP3    H1 1797   2.993   1.314   2.709  0.7834 -0.0282  0.5600
  597TIP3    H2 1798   2.927   1.205   2.791 -0.5851  0.2695 -0.1088
  598TIP3   OH2 1799   3.758   5.507   3.747  0.1208  0.2763  0.0130
  598TIP3    H1 1800   3.851   5.496   3.725  0.1995  1.2941 -0.1917
  598TIP3    H2 1801   3.711   5.462   3.676  0.4366  0.7046 -0.4723
  599TIP3   OH2 1802   3.526   4.623   2.736 -0.4233  0.0273 -0.2558
  599TIP3    H1 1803   3.593   4.633   2.803 -0.8122  0.1958  0.1094
  599TIP3    H2 1804   3.444   4.618   2.784 -0.5640 -1.6288 -0.5928
  600TIP3   OH2 1805   3.464   1.139   3.412 -0.6000  0.1879  0.0944
  600TIP3    H1 1806   3.476   1.132   3.506 -1.1004 -2.5196  0.0593
  600TIP3    H2 1807   3.551   1.160   3.378 -0.4534  1.3743  1.1300
  601TIP3   OH2 1808   6.332   3.371   0.749  0.1716 -1.0983 -0.3085
  601TIP3    H1 1809   6.292   3.374   0.836 -0.2148 -1.4918 -0.4609
  601TIP3    H2 1810   6.389   3.294   0.752  0.0279 -1.2112 -0.4533
  602TIP3   OH2 1811   5.513   2.431   0.500  0.4380 -0.4418 -0.2428
  602TIP3    H1 1812   5.536   2.450   0.591  0.3824  0.3059 -0.3805
  602TIP3    H2 1813   5.569   2.357   0.476  1.5440  0.3186 -0.0644
  603TIP3   OH2 1814   4.472   2.574   1.526 -0.0397  0.6203 -0.7580
  603TIP3    H1 1815   4.552   2.551   1.478  0.7816 -0.1172  0.8756
  603TIP3    H2 1816   4.479   2.525   1.608 -0.7295  2.8296  0.6989
  604TIP3   OH2 1817   2.526   1.400   0.488  0.2278  0.2071 -0.0523
  604TIP3    H1 1818   2.588   1.464   0.454  2.2795 -2.0479 -0.8338
  604TIP3    H2 1819   2.444   1.420   0.442  1.2360  1.2512 -1.5060
  605TIP3   OH2 1820   3.218   1.547   3.000  0.0018 -0.3457 -0.0211
  605TIP3    H1 1821   3.151   1.570   2.935 -0.1966 -1.3214 -0.1716
  605TIP3    H2 1822   3.217   1.451   3.003 -0.1575 -0.3205  1.5929
  606TIP3   OH2 1823   2.994   3.443   1.307 -0.1691 -0.3808 -0.1169
  606TIP3    H1 1824   2.906   3.466   1.336  0.0717  2.4143 -1.3004
  606TIP3    H2 1825   2.985   3.355   1.271 -2.2138 -0.6312  0.8822
  607TIP3   OH2 1826   2.220   3.513   0.234  0.0095 -0.0601 -0.0096
  607TIP3    H1 1827   2.146   3.531   0.176  0.9567  0.8435 -0.9909
  607TIP3    H2 1828   2.284   3.580   0.211  0.1037  0.8971  2.7117
  608TIP3   OH2 1829   4.258   3.043   1.579 -0.3008 -0.1576 -0.3832
  608TIP3    H1 1830   4.320   2.982   1.618 -1.7801 -0.8408  1.0335
  608TIP3    H2 1831   4.288   3.054   1.489  2.9550  1.0322  0.6819
  609TIP3   OH2 1832   1.538   1.149   0.914  0.0605  0.7272 -0.6436
  609TIP3    H1 1833   1.489   1.221   0.954 -1.0648 -0.9786  1.2878
  609TIP3    H2 1834   1.612   1.135   0.973  0.9722  1.0532 -1.6804
  610TIP3   OH2 1835   1.835   5.146   2.186  0.0617  0.3672  0.3230
  610TIP3    H1 1836   1.782   5.086   2.133 -0.6400 -0.2044  1.6441
  610TIP3    H2 1837   1.858   5.216   2.125 -0.1843 -0.5776 -0.9180
  611TIP3   OH2 1838   5.384   5.408   0.242 -0.6872  0.3767  0.2992
  611TIP3    H1 1839   5.375   5.319   0.275 -0.9460  0.7641  1.3185
  611TIP3    H2 1840   5.478   5.426   0.245 -0.7225  0.4744  1.0413
  612TIP3   OH2 1841   3.112   3.760   3.142 -0.2533  0.3127 -0.3649
  612TIP3    H1 1842   3.174   3.813   3.092  0.4072  0.4665  0.5944
  612TIP3    H2 1843   3.165   3.689   3.178 -0.5528  0.6254  0.7381
  613TIP3   OH2 1844   5.442   3.371   2.731  0.3573  0.2998 -0.6690
  613TIP3    H1 1845   5.534   3.368   2.703  0.6969  1.7710  0.1797
  613TIP3    H2 1846   5.397   3.416   2.659  0.3509 -0.1665 -0.9588
  614TIP3   OH2 1847   5.052   2.615   0.112  0.2214 -0.1198  0.4402
  614TIP3    H1 1848   5.015   2.686   0.059 -0.0192 -0.9275 -0.5163
  614TIP3    H2 1849   5.142   2.606   0.080  0.0178 -0.7330  0.0170
  615TIP3   OH2 1850   5.349   3.122   3.652 -0.0902 -0.1078  0.5645
  615TIP3    H1 1851   5.436   3.090   3.673 -0.2947 -0.8160  0.3669
  615TIP3    H2 1852   5.329   3.083   3.567 -1.1808 -1.1758  1.2634
  616TIP3   OH2 1853   6.326   5.247   2.157  0.0418 -0.4662 -0.0323
  616TIP3    H1 1854   6.300   5.155   2.148 -1.5381 -0.0091 -0.4789
  616TIP3    H2 1855   6.269   5.282   2.225  0.2567  0.3045 -0.2339
  617TIP3   OH2 1856   0.575   5.318   4.437 -0.6398 -0.0315 -0.2555
  617TIP3    H1 1857   0.658   5.282   4.469 -1.0614 -0.5509  0.2689
  617TIP3    H2 1858   0.520   5.241   4.420 -0.0755  0.1192 -3.3399
  618TIP3   OH2 1859   2.070   0.622   1.737  0.1506  0.2979  0.0901
  618TIP3    H1 1860   2.041   0.710   1.761 -0.5707 -0.3619  1.8292
  618TIP3    H2 1861   2.141   0.602   1.799 -0.1668 -0.5829  0.1946
  619TIP3   OH2 1862   3.391   3.273   3.576 -0.3513  0.6670 -0.0620
  619TIP3    H1 1863   3.333   3.207   3.539 -0.5391  0.3038  0.8521
  619TIP3    H2 1864   3.439   3.227   3.645  0.8990  1.0078 -0.6845
  620TIP3   OH2 1865   3.032   0.818   1.850 -0.4400 -0.3707 -0.3573
  620TIP3    H1 1866   3.127   0.820   1.858 -0.4976  0.2409  0.3011
  620TIP3    H2 1867   3.014   0.747   1.787  0.3784 -1.3701  0.4993
  621TIP3   OH2 1868   2.070   3.405   1.053 -0.1556 -0.0959  0.5496
  621TIP3    H1 1869   2.024   3.348   1.115 -0.4976  0.3144  0.6777
  621TIP3    H2 1870   2.088   3.485   1.102  2.4436 -0.9355  1.1336
  622TIP3   OH2 1871   1.539   0.679   2.263  0.6878  0.5841  0.3267
  622TIP3    H1 1872   1.531   0.692   2.358 -3.7507 -1.2584  0.4643
  622TIP3    H2 1873   1.478   0.742   2.225 -0.0299 -0.8405 -0.9816
  623TIP3   OH2 1874   0.667   3.549   0.536 -0.1179 -0.6706 -0.3729
  623TIP3    H1 1875   0.647   3.642   0.523  0.5734 -0.4007  0.3540
  623TIP3    H2 1876   0.653   3.509   0.451  0.4729  0.2853 -0.9409
  624TIP3   OH2 1877   5.000   1.361   1.764 -0.0873 -0.6000  0.0275
  624TIP3    H1 1878   4.921   1.341   1.815 -1.7338 -0.2281 -2.2113
  624TIP3    H2 1879   4.988   1.313   1.682  2.3736 -1.0425 -0.1232
  625TIP3   OH2 1880   4.949   0.529   1.838  0.5645 -0.2047 -0.0537
  625TIP3    H1 1881   5.006   0.561   1.768 -0.2012  1.1920 -0.0735
  625TIP3    H2 1882   5.006   0.475   1.893  1.5258 -0.0935 -0.9148
  626TIP3   OH2 1883   5.230   4.310   2.981  0.5359  0.0182 -0.2065
  626TIP3    H1 1884   5.307   4.260   3.009  1.1097 -0.1326 -1.9496
  626TIP3    H2 1885   5.156   4.260   3.015  1.1052 -1.7916 -1.4587
  627TIP3   OH2 1886   0.262   4.777   1.547 -0.0057  0.0394  0.2370
  627TIP3    H1 1887   0.223   4.720   1.481 -2.1059 -0.2232  1.6363
  627TIP3    H2 1888   0.217   4.756   1.628  0.8520  2.0113  1.3135
  628TIP3   OH2 1889   3.784   5.433   2.256  0.2335  0.0774 -0.3252
  628TIP3    H1 1890   3.787   5.337   2.261 -1.1943  0.0087 -0.4890
  628TIP3    H2 1891   3.722   5.458   2.324  0.7986  0.9086 -0.1133
  629TIP3   OH2 1892   3.698   3.621   4.923 -0.0375 -0.2198 -0.1738
  629TIP3    H1 1893   3.724   3.531   4.941 -1.0808 -0.2172  1.6144
  629TIP3    H2 1894   3.634   3.641   4.991 -0.2511  1.6910 -0.8839
  630TIP3   OH2 1895   0.956   2.995   4.592 -0.6466 -0.3432 -0.2574
  630TIP3    H1 1896   0.912   2.933   4.651  0.0923  0.2772  0.9768
  630TIP3    H2 1897   0.944   2.958   4.505 -0.9915 -1.7570  0.3711
  631TIP3   OH2 1898   3.164   3.837   4.509 -0.4452 -0.1723 -0.4675
  631TIP3    H1 1899   3.256   3.859   4.519 -0.4126 -0.9234  1.1853
  631TIP3    H2 1900   3.165   3.749   4.471 -0.4801 -0.2325 -0.3289
  632TIP3   OH2 1901   5.700   2.158   5.096 -0.1900  0.4829  0.2972
  632TIP3    H1 1902   5.737   2.236   5.054  0.1678 -1.0974 -2.6186
  632TIP3    H2 1903   5.615   2.188   5.130  0.1777  2.2609 -0.2192
  633TIP3   OH2 1904   2.986   1.882   4.899 -0.0614  0.5887  0.1312
  633TIP3    H1 1905   3.080   1.864   4.899 -0.3971 -1.3212 -0.3896
  633TIP3    H2 1906   2.961   1.874   4.991  0.0721 -0.1569  0.1082
  634TIP3   OH2 1907   0.346   3.494   0.816 -0.1101  0.1932  0.2727
  634TIP3    H1 1908   0.348   3.426   0.748 -3.0645 -1.2749  1.4400
  634TIP3    H2 1909   0.309   3.571   0.771  0.7143  0.1942 -0.4321
  635TIP3   OH2 1910   5.046   4.258   4.882  0.2632  0.6410 -0.0865
  635TIP3    H1 1911   4.961   4.275   4.842  0.6452  1.2904 -0.6438
  635TIP3    H2 1912   5.095   4.339   4.871  0.8553  0.3782  0.5010
  636TIP3   OH2 1913   2.913   1.746   1.390 -0.3058 -0.8426  0.6433
  636TIP3    H1 1914   2.869   1.827   1.365  0.7831 -0.0423  1.2130
  636TIP3    H2 1915   2.966   1.723   1.314  0.3020 -0.3367  0.8965
  637TIP3   OH2 1916   5.375   0.432   4.813  0.3940 -0.2320 -0.2061
  637TIP3    H1 1917   5.383   0.378   4.734 -2.2719 -1.6469  0.3917
  637TIP3    H2 1918   5.371   0.369   4.885  0.9375  0.9708  0.9155
  638TIP3   OH2 1919   4.492   4.403   3.886  0.0197 -0.2060 -0.1380
  638TIP3    H1 1920   4.435   4.466   3.929  0.8254  0.1307  0.4746
  638TIP3    H2 1921   4.572   4.452   3.867  0.1051 -0.6553 -1.0007
  639TIP3   OH2 1922   0.270   0.837   4.086 -0.2798 -0.0182  0.4059
  639TIP3    H1 1923   0.346   0.792   4.123 -0.2533 -0.9941 -0.7746
  639TIP3    H2 1924   0.195   0.786   4.116 -0.2846 -0.5751 -0.5239
  640TIP3   OH2 1925   5.103   1.659   2.104 -0.0206  0.6497 -0.7049
  640TIP3    H1 1926   5.169   1.674   2.036  0.2538  2.2758 -0.1305
  640TIP3    H2 1927   5.134   1.709   2.179  0.3285 -2.0531  1.1032
  641TIP3   OH2 1928   2.777   4.447   2.089  0.3405  0.7100  0.1055
  641TIP3    H1 1929   2.729   4.386   2.032 -1.6127  1.7557  0.5338
  641TIP3    H2 1930   2.862   4.456   2.048  1.0064 -2.8301  0.3986
  642TIP3   OH2 1931   4.795   0.465   3.058  0.5363  1.0874 -0.1302
  642TIP3    H1 1932   4.859   0.452   3.128  0.7541  3.4423  0.2080
  642TIP3    H2 1933   4.720   0.411   3.084  1.9972 -1.0421 -0.0881
  643TIP3   OH2 1934   0.125   0.120   4.451  0.1476 -0.1699  0.1457
  643TIP3    H1 1935   0.125   0.025   4.446  0.8459 -0.1129 -2.4294
  643TIP3    H2 1936   0.051   0.148   4.397  0.6472  0.7707 -0.0825
  644TIP3   OH2 1937   4.453   2.861   0.639 -0.0087  0.2413  0.5482
  644TIP3    H1 1938   4.383   2.815   0.686  0.9032 -0.3022  1.3939
  644TIP3    H2 1939   4.458   2.816   0.554  0.6497 -1.0382  1.2395
  645TIP3   OH2 1940   1.324   3.159   4.168  0.3971  0.0663 -0.3231
  645TIP3    H1 1941   1.392   3.178   4.102  1.0802 -1.7690 -0.1900
  645TIP3    H2 1942   1.247   3.135   4.116  0.9087 -1.2913 -0.4981
  646TIP3   OH2 1943   2.933   0.937   2.331 -0.0037 -0.0595 -0.2661
  646TIP3    H1 1944   2.994   0.910   2.400  2.2616  0.5293 -1.9299
  646TIP3    H2 1945   2.943   0.870   2.264 -0.3124  0.6781 -1.0533
  647TIP3   OH2 1946   4.116   3.163   1.783  0.8345 -0.2484 -0.1275
  647TIP3    H1 1947   4.163   3.109   1.847  3.3842  0.5082 -1.1981
  647TIP3    H2 1948   4.146   3.131   1.698 -1.1763 -0.1252 -0.9247
  648TIP3   OH2 1949   4.645   4.787   1.221 -0.1008  0.2995  0.5682
  648TIP3    H1 1950   4.620   4.763   1.310 -0.5379 -0.3607  0.2788
  648TIP3    H2 1951   4.734   4.753   1.212 -0.2518 -0.1028  0.5787
  649TIP3   OH2 1952   5.582   2.163   2.782  0.3116  0.3285 -0.0729
  649TIP3    H1 1953   5.504   2.205   2.818  1.1999  0.5530  1.7465
  649TIP3    H2 1954   5.567   2.069   2.798 -0.0033  0.2806 -0.6286
  650TIP3   OH2 1955   3.255   4.845   0.729  0.3064  0.0062 -0.0508
  650TIP3    H1 1956   3.344   4.867   0.701  1.0574 -0.8601  1.4718
  650TIP3    H2 1957   3.237   4.760   0.689  1.2166 -1.0332  1.5916
  651TIP3   OH2 1958   0.731   3.122   2.886  0.4108  0.2259  0.1360
  651TIP3    H1 1959   0.730   3.035   2.926  0.0672  0.4909  0.7258
  651TIP3    H2 1960   0.804   3.119   2.823  0.6926 -0.3368  0.4788
  652TIP3   OH2 1961   4.134   2.015   0.626  0.2166  0.2178 -0.0497
  652TIP3    H1 1962   4.060   1.955   0.615  1.6623 -1.6458  0.0389
  652TIP3    H2 1963   4.211   1.960   0.619  1.6038  1.8582  1.3577
  653TIP3   OH2 1964   0.939   0.843   4.332  0.3798 -0.2727  0.4892
  653TIP3    H1 1965   0.937   0.895   4.412 -0.3088  1.6731 -0.7063
  653TIP3    H2 1966   0.861   0.788   4.337  1.2673 -1.4479  1.9153
  654TIP3   OH2 1967   3.841   0.555   0.856 -0.0115 -0.2452  0.0821
  654TIP3    H1 1968   3.918   0.579   0.805 -0.0676 -1.0555 -0.3937
  654TIP3    H2 1969   3.774   0.617   0.829 -0.4015 -1.3991 -1.7612
  655TIP3   OH2 1970   4.058   4.060   1.744 -0.2200 -0.2693  0.1704
  655TIP3    H1 1971   4.008   4.088   1.667  2.3295 -0.7690 -1.7906
  655TIP3    H2 1972   4.080   4.141   1.790 -0.8692  0.1237 -0.1987
  656TIP3   OH2 1973   1.293   3.799   3.031 -0.2327  0.0226  0.4582
  656TIP3    H1 1974   1.303   3.884   2.989 -0.6873  0.2200  0.7444
  656TIP3    H2 1975   1.367   3.793   3.092 -0.5464  0.4716  0.8786
  657TIP3   OH2 1976   1.606   5.600   4.667  0.0707 -0.1435 -0.4045
  657TIP3    H1 1977   1.643   5.577   4.752  1.2599  0.6824 -0.6753
  657TIP3    H2 1978   1.512   5.610   4.683  0.2233 -0.4312  0.7071
  658TIP3   OH2 1979   1.322   0.510   1.974 -0.1234 -0.2750  0.7660
  658TIP3    H1 1980   1.306   0.430   2.023  0.0659 -0.1067  1.1062
  658TIP3    H2 1981   1.308   0.485   1.882 -0.1561 -0.6722  0.8767
  659TIP3   OH2 1982   1.959   5.115   3.632  0.0551 -0.0267  0.1329
  659TIP3    H1 1983   1.926   5.204   3.640 -0.4473 -0.0593 -1.3395
  659TIP3    H2 1984   1.941   5.090   3.541  1.3261 -1.1790  0.1639
  660TIP3   OH2 1985   1.799   4.130   0.777 -0.3156 -0.4655 -0.0963
  660TIP3    H1 1986   1.773   4.087   0.858  1.5633  0.7853  1.2488
  660TIP3    H2 1987   1.784   4.223   0.793 -1.3214 -0.2795 -1.7855
  661TIP3   OH2 1988   2.538   1.992   2.026 -0.2447 -0.4366 -0.1909
  661TIP3    H1 1989   2.558   2.081   2.056 -1.0472 -0.3758  0.1871
  661TIP3    H2 1990   2.519   2.003   1.933  5.0488 -1.0217 -1.6384
  662TIP3   OH2 1991   0.466   4.720   4.521  0.1716  0.0532 -0.0610
  662TIP3    H1 1992   0.490   4.719   4.614  1.5505 -0.4765 -0.3939
  662TIP3    H2 1993   0.546   4.749   4.476 -0.0209 -1.0968 -1.1921
  663TIP3   OH2 1994   1.712   0.431   3.998  0.3023  0.0883  0.4642
  663TIP3    H1 1995   1.655   0.375   4.050  0.5672 -0.8209 -0.1918
  663TIP3    H2 1996   1.761   0.370   3.943  0.8959  0.9464  0.0203
  664TIP3   OH2 1997   2.980   1.380   5.032 -0.5624  0.0033 -0.1836
  664TIP3    H1 1998   2.937   1.307   4.988 -0.4625 -0.9433  1.2373
  664TIP3    H2 1999   3.043   1.339   5.091  0.1483  1.2753 -0.0137
  665TIP3   OH2 2000   4.181   3.930   1.379 -0.2101 -0.1689 -0.0447
  665TIP3    H1 2001   4.130   3.869   1.325 -0.1300  1.1227 -1.6631
  665TIP3    H2 2002   4.115   3.977   1.430 -0.2984 -1.2659  0.9131
  666TIP3   OH2 2003   3.655   2.120   3.795  0.4552  0.6412  0.1787
  666TIP3    H1 2004   3.647   2.047   3.857  3.0936 -0.7123 -0.8770
  666TIP3    H2 2005   3.622   2.196   3.842  0.5805 -0.6663  2.5226
  667TIP3   OH2 2006   5.883   3.862   4.466  0.9604  0.2674  0.3817
  667TIP3    H1 2007   5.911   3.856   4.557 -0.1395 -0.9398  0.6682
  667TIP3    H2 2008   5.833   3.781   4.451  2.0570 -0.1026 -1.6112
  668TIP3   OH2 2009   0.264   5.287   1.558 -0.0276  0.2558 -0.1132
  668TIP3    H1 2010   0.328   5.330   1.614  0.7584  1.5884 -1.9139
  668TIP3    H2 2011   0.181   5.329   1.579 -0.0493 -0.3510  1.0973
  669TIP3   OH2 2012   1.261   2.478   5.021 -0.2149 -0.3208 -0.0925
  669TIP3    H1 2013   1.299   2.536   5.086 -1.1130 -0.1397  0.2870
  669TIP3    H2 2014   1.319   2.402   5.020  0.7406  0.3951 -0.3058
  670TIP3   OH2 2015   5.252   2.666   4.374  0.3597  0.3010 -0.5695
  670TIP3    H1 2016   5.206   2.724   4.313 -0.2230  0.0729 -0.3488
  670TIP3    H2 2017   5.343   2.696   4.370 -0.2151  2.4494  0.9104
  671TIP3   OH2 2018   3.484   5.771   2.366  0.4777  0.4016 -0.5332
  671TIP3    H1 2019   3.518   5.682   2.380  0.8723  0.3153 -1.8639
  671TIP3    H2 2020   3.522   5.797   2.282 -2.4876  0.4374 -1.9837
  672TIP3   OH2 2021   0.035   5.860   2.675 -0.4974 -0.2099  0.0307
  672TIP3    H1 2022   0.123   5.823   2.675 -0.0253  0.8556 -1.2609
  672TIP3    H2 2023  -0.023   5.784   2.676  0.4527 -0.9737 -0.9423
  673TIP3   OH2 2024   3.622   5.511   2.485 -0.3585  0.0446 -0.6528
  673TIP3    H1 2025   3.632   5.541   2.575  2.1337 -0.2989 -0.7379
  673TIP3    H2 2026   3.541   5.461   2.485  0.1590 -0.9107  1.6869
  674TIP3   OH2 2027   4.507   0.263   4.757  0.1699 -0.2515  0.1075
  674TIP3    H1 2028   4.559   0.209   4.697  0.3872  0.1972 -0.1112
  674TIP3    H2 2029   4.545   0.247   4.843  0.3421 -0.3198  0.0197
  675TIP3   OH2 2030   3.138   2.913   3.688 -0.5685 -0.6593  0.8977
  675TIP3    H1 2031   3.054   2.903   3.733 -1.6142  0.5264 -0.7029
  675TIP3    H2 2032   3.135   2.848   3.617 -0.9347  0.6165 -0.2807
  676TIP3   OH2 2033   1.071   3.686   1.116 -0.0954  0.3349 -0.1984
  676TIP3    H1 2034   1.074   3.708   1.023  0.2968  1.7939  0.1360
  676TIP3    H2 2035   1.136   3.616   1.126 -1.1840 -0.8984 -1.2443
  677TIP3   OH2 2036   5.822   1.021   1.041 -0.4314  0.2179 -0.4535
  677TIP3    H1 2037   5.829   0.960   0.967 -1.7050 -0.5625  0.0422
  677TIP3    H2 2038   5.768   1.093   1.007  2.0234  1.7481 -1.4157
  678TIP3   OH2 2039   2.456   2.575   1.106  0.0074  0.1100 -0.6332
  678TIP3    H1 2040   2.533   2.628   1.126  0.6483 -1.2072  0.6320
  678TIP3    H2 2041   2.440   2.589   1.012  1.0849  1.2806 -0.6651
  679TIP3   OH2 2042   3.633   4.709   0.956 -0.3048  0.0172 -0.2338
  679TIP3    H1 2043   3.638   4.771   1.028 -0.9723  1.8226 -1.6492
  679TIP3    H2 2044   3.655   4.762   0.878  0.0085 -1.7438 -1.3942
  680TIP3   OH2 2045   3.469   2.301   1.849  0.2937  0.5011 -0.2406
  680TIP3    H1 2046   3.557   2.297   1.885  1.0300  1.1128 -1.8631
  680TIP3    H2 2047   3.482   2.305   1.754 -1.5304 -0.9361 -0.6194
  681TIP3   OH2 2048   5.225   0.183   4.728  0.7989 -0.4161 -0.2105
  681TIP3    H1 2049   5.164   0.253   4.704  2.6307  1.6071  0.7124
  681TIP3    H2 2050   5.169   0.107   4.745 -1.4382  1.2503  0.3373
  682TIP3   OH2 2051   4.223   1.058   4.589  0.2359  0.3316  0.0747
  682TIP3    H1 2052   4.245   0.968   4.611  1.1884  0.6085  0.2948
  682TIP3    H2 2053   4.128   1.059   4.584  0.0919 -0.2455  1.9595
  683TIP3   OH2 2054   2.667   1.909   0.723 -0.2747  0.0450  0.0857
  683TIP3    H1 2055   2.735   1.923   0.658 -0.7732  0.7461 -0.2984
  683TIP3    H2 2056   2.637   1.819   0.708 -0.3634  0.1866 -0.6379
  684TIP3   OH2 2057   3.645   2.733   2.661 -0.2176 -0.1796  0.2360
  684TIP3    H1 2058   3.602   2.811   2.624  1.3101  1.5862  1.9209
  684TIP3    H2 2059   3.575   2.685   2.704 -1.5143 -0.7695 -2.3951
  685TIP3   OH2 2060   6.160   5.278   1.146 -0.2719  0.9326 -0.5654
  685TIP3    H1 2061   6.200   5.342   1.087  2.1536 -0.6821 -0.8134
  685TIP3    H2 2062   6.188   5.305   1.233  0.3171  0.5299 -0.6245
  686TIP3   OH2 2063   4.932   2.816  -0.007 -0.1643 -0.2781 -0.0717
  686TIP3    H1 2064   4.927   2.887   0.056 -0.8603  0.6387 -1.1062
  686TIP3    H2 2065   4.843   2.780  -0.009  0.0655 -0.8665  0.0928
  687TIP3   OH2 2066   0.700   3.327   4.921 -0.2439  0.4228 -0.4295
  687TIP3    H1 2067   0.612   3.346   4.952 -0.4447 -2.3787  0.9946
  687TIP3    H2 2068   0.756   3.335   4.998  0.0357 -1.7969 -0.3328
  688TIP3   OH2 2069   6.322   4.332   3.419  0.3450  0.1917  0.2409
  688TIP3    H1 2070   6.282   4.249   3.393 -1.6373  0.8663  0.9490
  688TIP3    H2 2071   6.411   4.308   3.447 -0.1449 -1.6559  0.3354
  689TIP3   OH2 2072   0.507   2.919   3.706  0.4808  0.4822 -0.1646
  689TIP3    H1 2073   0.586   2.868   3.690  0.3543  0.4146 -0.5958
  689TIP3    H2 2074   0.514   2.948   3.797 -0.4931 -2.1069  0.8275
  690TIP3   OH2 2075   5.553   1.393   3.558  0.2880 -0.0527 -0.1173
  690TIP3    H1 2076   5.520   1.372   3.471  0.6463  0.3522 -0.3536
  690TIP3    H2 2077   5.596   1.478   3.548 -0.7474  0.5912  0.7214
  691TIP3   OH2 2078   0.067   0.366   0.480  0.1912 -0.4765 -0.0826
  691TIP3    H1 2079   0.145   0.360   0.425  0.0573  0.1298 -0.3446
  691TIP3    H2 2080   0.062   0.280   0.523 -0.0651 -1.2137 -1.5075
  692TIP3   OH2 2081   0.885   1.219   0.912 -0.1400  0.1399 -0.0378
  692TIP3    H1 2082   0.889   1.187   1.002  0.4428 -0.8902 -0.4172
  692TIP3    H2 2083   0.974   1.207   0.878 -0.4737  0.0657 -0.9072
  693TIP3   OH2 2084   2.361   3.194   4.245  0.0109 -0.8072 -0.3301
  693TIP3    H1 2085   2.327   3.118   4.197  0.2775 -0.4744 -1.0558
  693TIP3    H2 2086   2.339   3.269   4.190 -3.2326  0.0610  1.9074
  694TIP3   OH2 2087   2.744   5.948   4.501  0.6818 -0.1958  0.0867
  694TIP3    H1 2088   2.706   6.023   4.547 -0.3115 -0.8121  0.2944
  694TIP3    H2 2089   2.684   5.933   4.427  1.1491 -0.4812 -0.2391
  695TIP3   OH2 2090   0.391   4.639   0.672 -0.4691  0.1423  1.1082
  695TIP3    H1 2091   0.413   4.661   0.763  1.5806  1.4055  0.3615
  695TIP3    H2 2092   0.317   4.697   0.651  1.3663  2.5587  0.9056
  696TIP3   OH2 2093   2.600   2.132   3.722 -0.6255 -0.1020 -0.0581
  696TIP3    H1 2094   2.526   2.111   3.666  0.1461  1.4608 -1.7831
  696TIP3    H2 2095   2.561   2.154   3.806 -1.8027 -2.8327  0.1932
  697TIP3   OH2 2096   2.183   0.254   4.103  0.1477  0.0689  0.0382
  697TIP3    H1 2097   2.143   0.205   4.031  0.0858 -0.9133  0.7176
  697TIP3    H2 2098   2.271   0.276   4.072  1.1698 -2.7542  0.6269
  698TIP3   OH2 2099   5.173   5.664   1.205 -0.0662 -0.0878 -0.4146
  698TIP3    H1 2100   5.184   5.605   1.280 -0.7583 -0.0447 -0.2698
  698TIP3    H2 2101   5.213   5.618   1.131  2.6200  0.7877  0.3682
  699TIP3   OH2 2102   0.351   1.055   2.047 -0.3765 -0.3594  0.0969
  699TIP3    H1 2103   0.261   1.047   2.078 -0.5681 -1.1590 -0.6201
  699TIP3    H2 2104   0.386   1.131   2.094 -1.3048 -0.2594  0.6541
  700TIP3   OH2 2105   4.489   5.307   1.812 -0.5378 -0.7110  0.6467
  700TIP3    H1 2106   4.566   5.361   1.792 -0.9700  0.0531  0.9758
  700TIP3    H2 2107   4.464   5.333   1.901  0.3574 -2.8428  1.5864
  701TIP3   OH2 2108   0.856   1.581   1.975  0.2752  0.0616 -0.0517
  701TIP3    H1 2109   0.810   1.498   1.958  1.5340 -0.9605  1.3232
  701TIP3    H2 2110   0.809   1.645   1.921 -3.1264 -0.7776  1.6094
  702TIP3   OH2 2111   4.382   4.307   0.572  0.6078  0.6080 -0.0277
  702TIP3    H1 2112   4.372   4.389   0.621 -0.3501  2.1712 -2.6036
  702TIP3    H2 2113   4.446   4.257   0.622 -1.4508  1.2798  3.6381
  703TIP3   OH2 2114   3.108   5.130   0.431 -0.0491 -0.4211  0.1831
  703TIP3    H1 2115   3.069   5.135   0.518  0.3378  1.0548  0.2957
  703TIP3    H2 2116   3.119   5.036   0.415 -0.6026 -0.7294  1.4971
  704TIP3   OH2 2117   2.410   4.385   2.373 -0.0585  0.0039 -0.3551
  704TIP3    H1 2118   2.354   4.313   2.343 -0.5488 -0.4151  1.4672
  704TIP3    H2 2119   2.459   4.348   2.447  0.0497  1.3900  0.2853
  705TIP3   OH2 2120   3.937   0.306   0.386  0.2771 -0.1739 -0.6277
  705TIP3    H1 2121   3.922   0.232   0.445 -0.6060 -0.3052 -0.9989
  705TIP3    H2 2122   4.010   0.354   0.426  0.3298 -0.7926  0.0479
  706TIP3   OH2 2123   0.885   2.938   2.197 -0.2901 -0.3657 -0.1547
  706TIP3    H1 2124   0.975   2.969   2.183 -0.3225  0.0123  0.4352
  706TIP3    H2 2125   0.893   2.878   2.272 -0.6370  0.2232  0.3627
  707TIP3   OH2 2126   4.581   5.139   4.341  0.0984 -0.0010  0.1692
  707TIP3    H1 2127   4.615   5.228   4.344  0.7461 -0.2339 -0.0654
  707TIP3    H2 2128   4.658   5.084   4.347 -0.2030 -0.5459 -0.7600
  708TIP3   OH2 2129   3.900   4.108   0.620  0.4659  0.1599 -0.1726
  708TIP3    H1 2130   3.971   4.045   0.632 -0.2099 -0.5198  0.4405
  708TIP3    H2 2131   3.926   4.161   0.545  1.2824 -0.5404 -0.3933
  709TIP3   OH2 2132   1.648   2.200   0.556  0.8005 -0.1384 -0.1920
  709TIP3    H1 2133   1.609   2.163   0.477 -1.5536  0.7331  0.4647
  709TIP3    H2 2134   1.662   2.292   0.536  0.4182  0.0340  0.3217
  710TIP3   OH2 2135   0.730   3.283   1.778 -0.8461 -0.0287 -0.0105
  710TIP3    H1 2136   0.781   3.356   1.744 -1.4192  0.9930  1.2230
  710TIP3    H2 2137   0.790   3.235   1.836 -0.7185 -0.0075 -0.1267
  711TIP3   OH2 2138   4.182   3.410   0.604  0.1815 -0.4137 -0.3237
  711TIP3    H1 2139   4.185   3.350   0.679 -0.0443  1.4514  1.2527
  711TIP3    H2 2140   4.110   3.469   0.623  1.4289  1.4139 -0.9392
  712TIP3   OH2 2141   1.915   1.985   0.460 -0.0917 -0.0374  0.4980
  712TIP3    H1 2142   1.904   2.074   0.427  0.0733  0.2164  1.1136
  712TIP3    H2 2143   1.830   1.943   0.444 -0.7101  0.7307  1.6681
  713TIP3   OH2 2144   5.894   2.926   4.097 -0.1430  0.3403 -0.5034
  713TIP3    H1 2145   5.904   2.855   4.160  2.6453  0.6720 -0.4219
  713TIP3    H2 2146   5.876   3.003   4.151 -0.7644  0.1199 -0.3884
  714TIP3   OH2 2147   1.830   2.720   3.730 -0.0772 -1.1519  0.2425
  714TIP3    H1 2148   1.737   2.724   3.708 -0.0478  1.0453  0.3528
  714TIP3    H2 2149   1.872   2.784   3.673  1.4705 -2.3992 -0.1089
  715TIP3   OH2 2150   2.671   3.829   3.901 -0.4854  0.4315  0.0283
  715TIP3    H1 2151   2.622   3.758   3.943  1.1951 -0.9738 -0.2582
  715TIP3    H2 2152   2.678   3.803   3.809  2.6773 -0.6863  0.4329
  716TIP3   OH2 2153   1.922   0.394   1.704  0.8539  0.2805 -0.2884
  716TIP3    H1 2154   1.844   0.380   1.758  2.0019 -1.0580  1.0864
  716TIP3    H2 2155   1.960   0.474   1.737  0.4113  0.6096 -0.5586
  717TIP3   OH2 2156   0.210   0.484   4.108 -0.2708  0.0588 -0.5598
  717TIP3    H1 2157   0.216   0.390   4.089 -2.0391  0.1577 -1.8503
  717TIP3    H2 2158   0.117   0.501   4.114  0.0341  1.7085 -0.1073
  718TIP3   OH2 2159   0.321   3.546   3.966 -0.0066  0.5711  0.5059
  718TIP3    H1 2160   0.263   3.611   4.004 -1.6846 -0.3876 -0.3159
  718TIP3    H2 2161   0.342   3.579   3.879 -0.0689  0.4785  0.4551
  719TIP3   OH2 2162   1.614   3.161   5.010  0.2198 -0.5462 -0.1617
  719TIP3    H1 2163   1.550   3.159   5.081  0.1121 -1.1387 -0.2746
  719TIP3    H2 2164   1.671   3.236   5.031  0.3877 -0.9075  0.7119
  720TIP3   OH2 2165   0.949   3.095   2.724  0.3029  0.5883 -0.4009
  720TIP3    H1 2166   0.893   3.062   2.654 -0.6616 -1.1634  1.1106
  720TIP3    H2 2167   1.011   3.024   2.741  0.7516  1.1295  0.2945
  721TIP3   OH2 2168   2.566   1.108   0.471  0.1910  0.4849 -0.1461
  721TIP3    H1 2169   2.585   1.186   0.523  1.3857  1.2629 -1.6599
  721TIP3    H2 2170   2.516   1.051   0.529  2.4549  0.7747  2.2509
  722TIP3   OH2 2171   2.659   1.597   0.312  0.3940  0.0731  0.0481
  722TIP3    H1 2172   2.663   1.692   0.321 -1.1963  0.1327  0.4256
  722TIP3    H2 2173   2.748   1.567   0.332  0.2698  1.2768  2.7538
  723TIP3   OH2 2174   1.213   5.233   4.411 -0.4905  0.1473  0.4127
  723TIP3    H1 2175   1.213   5.144   4.447 -0.9816  0.1856  0.5150
  723TIP3    H2 2176   1.224   5.289   4.488 -2.1198  0.2567  0.6030
  724TIP3   OH2 2177   6.266   2.487   0.534  0.5904  0.6327 -0.3131
  724TIP3    H1 2178   6.185   2.484   0.584  1.0407  1.2399  0.4747
  724TIP3    H2 2179   6.266   2.573   0.492  0.8540  0.6560 -0.2680
  725TIP3   OH2 2180   1.913   1.462   3.546 -0.7311  0.0214 -0.6543
  725TIP3    H1 2181   1.936   1.381   3.502  1.0112  0.8489 -1.3698
  725TIP3    H2 2182   1.992   1.488   3.593 -1.4443  0.9766  0.0624
  726TIP3   OH2 2183   4.773   3.553   0.397 -0.6746  0.2827  0.1646
  726TIP3    H1 2184   4.763   3.503   0.316  0.0321  0.5946 -0.1174
  726TIP3    H2 2185   4.732   3.637   0.379  0.3452  0.7118 -0.2092
  727TIP3   OH2 2186   0.087   3.441   3.088  0.1025  0.1742  0.1456
  727TIP3    H1 2187  -0.004   3.471   3.088  0.0841  0.1917  1.4708
  727TIP3    H2 2188   0.129   3.492   3.019 -0.6583  0.9585  0.2334
  728TIP3   OH2 2189   0.621   1.955   1.783  0.6010  0.3507  0.4399
  728TIP3    H1 2190   0.542   1.987   1.825  0.7133  0.2537  0.7285
  728TIP3    H2 2191   0.642   2.021   1.717  0.4390  0.5168  0.5550
  729TIP3   OH2 2192   1.887   3.527   1.683  0.3219 -0.3292 -0.2557
  729TIP3    H1 2193   1.792   3.519   1.685  0.2327  0.7665  0.6974
  729TIP3    H2 2194   1.915   3.509   1.773  1.2693 -3.0633 -1.0079
  730TIP3   OH2 2195   1.858   1.655   0.315  0.4058 -0.4699  0.1513
  730TIP3    H1 2196   1.931   1.645   0.377  1.2136 -0.4420 -0.7643
  730TIP3    H2 2197   1.791   1.595   0.347  1.3992 -1.5851  0.2167
  731TIP3   OH2 2198   2.633   3.685   3.379 -0.0807  0.1932  0.0807
  731TIP3    H1 2199   2.596   3.709   3.294 -1.6194 -2.1168  0.0271
  731TIP3    H2 2200   2.728   3.690   3.366 -0.2896  0.5321 -1.5435
  732TIP3   OH2 2201   4.798   0.936   4.352  0.1938 -0.3191  0.2270
  732TIP3    H1 2202   4.817   1.023   4.319 -0.8941 -0.3832 -0.6345
  732TIP3    H2 2203   4.787   0.948   4.447 -2.4819  1.0064 -0.1591
  733TIP3   OH2 2204   0.871   1.670   4.982  0.5088 -0.2274 -0.1199
  733TIP3    H1 2205   0.823   1.600   4.936  1.1948 -0.9562  0.2508
  733TIP3    H2 2206   0.819   1.749   4.965 -0.6010 -0.9181 -0.0658
  734TIP3   OH2 2207   3.067   2.582   0.413  0.0328 -0.1891  0.2466
  734TIP3    H1 2208   3.125   2.523   0.366 -1.2808 -3.3115  2.1994
  734TIP3    H2 2209   3.091   2.571   0.505  0.6873  3.5833  0.6754
  735TIP3   OH2 2210   4.801   0.355   1.645  0.3811  0.0787 -0.0778
  735TIP3    H1 2211   4.852   0.420   1.693 -0.2164 -0.0661  0.7810
  735TIP3    H2 2212   4.832   0.271   1.677  0.2844 -0.0311 -0.2670
  736TIP3   OH2 2213   0.386   0.265   2.320  0.3342  0.6540  0.1615
  736TIP3    H1 2214   0.370   0.346   2.369  0.9661  1.5121 -0.9852
  736TIP3    H2 2215   0.470   0.280   2.277 -0.2752  0.0161 -1.3097
  737TIP3   OH2 2216   3.201   4.704   4.910 -0.2899  0.5953  0.5063
  737TIP3    H1 2217   3.234   4.619   4.880 -1.5312  1.0204 -2.3451
  737TIP3    H2 2218   3.147   4.683   4.986 -3.0688 -1.7087 -1.8663
  738TIP3   OH2 2219   4.835   2.961   0.695  0.8532  0.3128 -0.1123
  738TIP3    H1 2220   4.847   2.966   0.789  1.1194 -0.1159 -0.1164
  738TIP3    H2 2221   4.821   2.867   0.678  0.7087  0.4000 -0.4835
  739TIP3   OH2 2222   4.937   3.302   1.542  0.3982 -0.7445 -0.7704
  739TIP3    H1 2223   4.843   3.293   1.526  0.4873 -0.7052 -1.3611
  739TIP3    H2 2224   4.955   3.243   1.615 -0.5275  1.1197  1.0561
  740TIP3   OH2 2225   1.225   4.296   1.642 -0.7328 -0.1054  0.1037
  740TIP3    H1 2226   1.131   4.290   1.659 -0.4804 -1.8979  1.1206
  740TIP3    H2 2227   1.262   4.216   1.679  1.0210 -0.1566 -1.5616
  741TIP3   OH2 2228   0.332   5.810   4.376  0.3456  0.0159 -0.3696
  741TIP3    H1 2229   0.389   5.850   4.442  1.3491 -1.2524 -0.4274
  741TIP3    H2 2230   0.256   5.868   4.372  0.4560  0.3616  1.5718
  742TIP3   OH2 2231   5.800   4.051   2.201  0.4609  0.1257 -0.2464
  742TIP3    H1 2232   5.782   4.129   2.149 -2.4636  0.4324  0.9828
  742TIP3    H2 2233   5.885   4.068   2.242  1.6563  0.9468 -2.8593
  743TIP3   OH2 2234   5.857   0.159   1.906  0.3332  0.1578 -0.0211
  743TIP3    H1 2235   5.841   0.192   1.995 -1.1763  0.5865 -0.4188
  743TIP3    H2 2236   5.951   0.168   1.893  0.4084  1.1904  1.1066
  744TIP3   OH2 2237   0.947   4.428   2.938  0.1409  0.1362  0.0334
  744TIP3    H1 2238   1.027   4.376   2.946 -0.0459 -0.1362  0.1110
  744TIP3    H2 2239   0.952   4.491   3.011  0.6554  0.6218 -0.4106
  745TIP3   OH2 2240   3.696   3.907   4.886 -0.4741 -0.0546  0.3466
  745TIP3    H1 2241   3.657   3.947   4.808 -1.4175 -0.7249  0.4593
  745TIP3    H2 2242   3.701   3.814   4.866 -1.4406 -0.3447  1.3623
  746TIP3   OH2 2243   5.260   4.594   2.304 -0.1360 -0.0213 -0.0923
  746TIP3    H1 2244   5.335   4.635   2.347 -0.8085 -1.0777  2.1932
  746TIP3    H2 2245   5.298   4.549   2.228  1.8628 -1.8527  1.8467
  747TIP3   OH2 2246   3.509   1.690   2.169  0.1898  0.2244  0.0917
  747TIP3    H1 2247   3.475   1.648   2.091  0.6011  1.2773 -0.6712
  747TIP3    H2 2248   3.492   1.627   2.239  0.2128 -0.9247 -0.9038
  748TIP3   OH2 2249   3.165   1.342   2.014 -0.1870 -0.1870 -0.2510
  748TIP3    H1 2250   3.224   1.282   1.969  0.8883  0.8425 -0.2538
  748TIP3    H2 2251   3.137   1.403   1.946 -0.1293  0.1755  0.0490
  749TIP3   OH2 2252   1.650   5.043   4.628  0.3520 -0.3838 -0.1174
  749TIP3    H1 2253   1.649   5.132   4.593 -2.2194  0.1653  1.0923
  749TIP3    H2 2254   1.680   5.054   4.719  0.1020 -0.7636  0.0108
  750TIP3   OH2 2255   0.871   3.258   1.181  0.0572 -0.1747 -0.4397
  750TIP3    H1 2256   0.804   3.228   1.243  0.4988 -0.4786 -0.1012
  750TIP3    H2 2257   0.856   3.206   1.102  0.9505 -1.4815  0.2116
  751TIP3   OH2 2258   1.646   0.350   1.831  0.2292 -0.1494 -0.4776
  751TIP3    H1 2259   1.565   0.323   1.787 -0.5190  1.0279  0.1238
  751TIP3    H2 2260   1.629   0.333   1.924  1.1004 -0.8920 -0.4326
  752TIP3   OH2 2261   5.909   1.514   0.655 -0.3440  0.2889 -0.2484
  752TIP3    H1 2262   5.817   1.537   0.648 -0.0282  1.4855 -0.5786
  752TIP3    H2 2263   5.950   1.591   0.694  0.6158  0.0012 -0.6667
  753TIP3   OH2 2264   4.028   2.246   3.059  0.6817  0.6355  0.2152
  753TIP3    H1 2265   3.969   2.203   3.121 -0.5934 -1.5044 -2.3210
  753TIP3    H2 2266   4.112   2.202   3.071  0.4436  0.2375  0.4416
  754TIP3   OH2 2267   0.009   5.282   4.015  0.0729 -0.1110 -0.6185
  754TIP3    H1 2268   0.099   5.279   3.981 -0.0598  0.5347 -1.0584
  754TIP3    H2 2269  -0.040   5.222   3.959  0.1938 -0.3506 -0.4724
  755TIP3   OH2 2270   1.362   5.262   1.011  0.2015  0.0928 -0.1959
  755TIP3    H1 2271   1.320   5.326   1.068 -1.1921 -0.5829 -0.4031
  755TIP3    H2 2272   1.369   5.306   0.927  0.0914  0.2852 -0.1057
  756TIP3   OH2 2273   3.057   1.976   1.498  0.1323  0.3357 -0.3325
  756TIP3    H1 2274   3.022   2.062   1.520  1.4700  1.3549 -1.9615
  756TIP3    H2 2275   2.986   1.933   1.450 -0.1913  0.9487 -0.4137
  757TIP3   OH2 2276   1.471   5.089   1.204 -0.2542 -0.0564 -0.0774
  757TIP3    H1 2277   1.535   5.136   1.257  0.7569 -0.8766 -0.5284
  757TIP3    H2 2278   1.453   5.148   1.130 -1.7351  1.1260  1.1642
  758TIP3   OH2 2279   4.476   4.378   0.134 -0.0973  0.3650 -0.0956
  758TIP3    H1 2280   4.449   4.290   0.160  0.1728  0.5972  1.0092
  758TIP3    H2 2281   4.443   4.435   0.203 -0.9319  1.2399 -1.1881
  759TIP3   OH2 2282   1.742   4.464   1.291  0.5327  0.0879 -0.4429
  759TIP3    H1 2283   1.700   4.446   1.375  1.6576  0.4830  0.2190
  759TIP3    H2 2284   1.670   4.466   1.228 -0.1968 -1.4703  0.2944
  760TIP3   OH2 2285   3.395   1.577   3.654  0.0363  0.0074 -0.3186
  760TIP3    H1 2286   3.418   1.667   3.632 -0.9147  0.4449  0.3799
  760TIP3    H2 2287   3.418   1.569   3.747 -0.0039 -0.4356 -0.3438
  761TIP3   OH2 2288   4.245   1.263   3.446 -0.3743  0.6898 -0.4715
  761TIP3    H1 2289   4.339   1.276   3.456 -0.0394 -0.5268 -1.5838
  761TIP3    H2 2290   4.235   1.234   3.355 -1.7936  0.5865 -0.3058
  762TIP3   OH2 2291   0.079   4.317   5.136  0.4456  0.1095  0.4705
  762TIP3    H1 2292  -0.004   4.334   5.091  0.2061 -1.0917  0.4395
  762TIP3    H2 2293   0.137   4.285   5.067  0.2937 -1.0560  0.8676
  763TIP3   OH2 2294   4.616   5.570   1.590  0.2042  0.3042 -0.0883
  763TIP3    H1 2295   4.700   5.616   1.591 -0.1655  1.0077 -0.9798
  763TIP3    H2 2296   4.638   5.480   1.615  1.3304  0.3053 -1.0358
  764TIP3   OH2 2297   2.384   0.412   1.441 -0.0226  0.3186  0.4112
  764TIP3    H1 2298   2.400   0.317   1.441  0.8512  0.4609  0.6415
  764TIP3    H2 2299   2.318   0.424   1.373 -0.7569 -0.5558  0.9432
  765TIP3   OH2 2300   0.451   1.278   2.155 -0.4406  0.3188  0.2673
  765TIP3    H1 2301   0.419   1.344   2.216 -0.6138  1.4311 -0.9860
  765TIP3    H2 2302   0.544   1.299   2.142  0.3150 -1.5325  2.1517
  766TIP3   OH2 2303   4.262   1.713   1.962  0.4155 -0.2142 -0.4393
  766TIP3    H1 2304   4.347   1.727   1.919  0.6593  0.3330  0.2008
  766TIP3    H2 2305   4.213   1.793   1.944 -0.3329 -0.8926 -1.5860
  767TIP3   OH2 2306   1.271   5.271   2.726  0.2727 -0.0985 -0.2572
  767TIP3    H1 2307   1.293   5.198   2.668 -0.1819 -0.0507 -0.4936
  767TIP3    H2 2308   1.195   5.312   2.685  0.1493  0.1359  0.2006
  768TIP3   OH2 2309   6.214   2.796   1.983  0.0025  0.4266 -0.3797
  768TIP3    H1 2310   6.264   2.758   2.055 -0.7035 -0.1537 -0.1751
  768TIP3    H2 2311   6.240   2.887   1.981 -1.1681  0.8876  1.7130
  769TIP3   OH2 2312   3.295   1.519   5.009  0.3368 -0.0326  0.7740
  769TIP3    H1 2313   3.375   1.546   4.962  0.8555  0.2181  1.7807
  769TIP3    H2 2314   3.243   1.474   4.942 -0.1904  2.6641 -0.7815
  770TIP3   OH2 2315   2.092   2.477   2.793 -0.0599 -0.6760 -0.4110
  770TIP3    H1 2316   2.004   2.467   2.756  0.0743  0.6797 -1.1717
  770TIP3    H2 2317   2.114   2.390   2.826 -2.6587 -0.5312  2.0575
  771TIP3   OH2 2318   3.740   5.562   1.024 -0.2267  0.4766 -0.5462
  771TIP3    H1 2319   3.738   5.496   1.094 -1.8388  0.3062 -0.7094
  771TIP3    H2 2320   3.725   5.511   0.944  0.2570  0.8332 -0.8604
  772TIP3   OH2 2321   4.380   5.257   2.405 -0.0684  0.1641 -0.6810
  772TIP3    H1 2322   4.342   5.246   2.318 -0.6411 -2.9097 -0.1542
  772TIP3    H2 2323   4.344   5.185   2.457  1.2013  1.1713  1.7851
  773TIP3   OH2 2324   4.689   2.755   1.739  0.0378  0.7927  0.5321
  773TIP3    H1 2325   4.653   2.666   1.735  1.7981  0.0905 -1.7801
  773TIP3    H2 2326   4.652   2.800   1.664 -0.1747  1.7708  1.2019
  774TIP3   OH2 2327   4.702   3.488   0.675 -1.1686  1.1924 -0.9802
  774TIP3    H1 2328   4.689   3.398   0.646 -1.0850  0.8410  0.0485
  774TIP3    H2 2329   4.705   3.539   0.594  0.5384  0.0562 -1.7036
  775TIP3   OH2 2330   3.026   4.478   4.828 -0.4325 -0.0009  0.2697
  775TIP3    H1 2331   3.048   4.385   4.826 -1.7789 -0.3826  1.6089
  775TIP3    H2 2332   2.932   4.481   4.846 -1.2457  1.5923 -3.3082
  776TIP3   OH2 2333   5.528   3.302   1.587 -0.1308 -0.5525  0.3219
  776TIP3    H1 2334   5.443   3.257   1.582  0.3831 -1.4505 -1.5609
  776TIP3    H2 2335   5.508   3.387   1.625 -1.7353 -1.0655  0.7145
  777TIP3   OH2 2336   5.262   1.711   4.937 -0.5269  0.1830  0.2649
  777TIP3    H1 2337   5.336   1.737   4.993 -1.0741  1.7529  0.3057
  777TIP3    H2 2338   5.201   1.785   4.942 -2.0410 -1.0031  0.0953
  778TIP3   OH2 2339   5.028   2.567   1.386 -0.4859 -0.2402 -0.5919
  778TIP3    H1 2340   5.030   2.656   1.420 -0.9929 -0.5845  0.3715
  778TIP3    H2 2341   5.013   2.512   1.463  2.0251 -1.3646 -0.8026
  779TIP3   OH2 2342   5.339   0.043   4.506  0.6677  0.1097 -0.3812
  779TIP3    H1 2343   5.297   0.092   4.578  0.0867 -0.2741 -0.4529
  779TIP3    H2 2344   5.431   0.069   4.511  0.7702 -0.4068  0.9132
  780TIP3   OH2 2345   4.671   0.355   4.349 -0.2054  0.4423  0.5469
  780TIP3    H1 2346   4.671   0.306   4.267 -1.7522 -0.9929  1.3352
  780TIP3    H2 2347   4.669   0.447   4.323 -0.0655  0.0273 -0.9952
  781TIP3   OH2 2348   2.954   4.076   2.139 -0.1686  0.6367 -0.5548
  781TIP3    H1 2349   2.956   4.098   2.046 -0.3020  0.4127 -0.6119
  781TIP3    H2 2350   2.975   3.983   2.142  2.3871  1.1660 -0.1651
  782TIP3   OH2 2351   3.461   3.512   0.420 -0.1909  0.2178 -0.5892
  782TIP3    H1 2352   3.432   3.441   0.478  0.7933 -1.2607 -1.8134
  782TIP3    H2 2353   3.528   3.471   0.365  0.1995  2.0536 -1.5388
  783TIP3   OH2 2354   3.510   0.210   0.888 -0.2461 -0.8502 -0.0217
  783TIP3    H1 2355   3.470   0.293   0.861 -0.7967 -0.0156  2.9403
  783TIP3    H2 2356   3.591   0.236   0.933  0.0367 -1.9832  0.1352
  784TIP3   OH2 2357   4.905   0.520   3.710 -0.3410 -0.5927 -0.2319
  784TIP3    H1 2358   4.978   0.485   3.761 -2.6480 -1.1942  2.9798
  784TIP3    H2 2359   4.923   0.614   3.704  1.9602 -1.0494 -1.9758
  785TIP3   OH2 2360   0.015   0.428   0.107  0.1599  0.0466 -0.3534
  785TIP3    H1 2361   0.067   0.362   0.061  1.8717  0.6116  0.6572
  785TIP3    H2 2362  -0.071   0.388   0.117  0.7081 -1.4041 -1.1294
  786TIP3   OH2 2363   4.762   2.122   3.987 -0.5295 -0.3445 -0.4297
  786TIP3    H1 2364   4.777   2.091   3.897 -0.2261 -0.2332 -0.4195
  786TIP3    H2 2365   4.667   2.135   3.992 -0.5073  0.0341 -0.8678
  787TIP3   OH2 2366   4.900   3.980   3.288 -0.4842 -1.0045 -0.5891
  787TIP3    H1 2367   4.915   4.036   3.364 -1.9794  0.3355 -1.2208
  787TIP3    H2 2368   4.959   3.906   3.301  0.9598  0.2928  0.7117
  788TIP3   OH2 2369   3.561   4.762   2.484 -0.3014  0.2494 -0.2609
  788TIP3    H1 2370   3.571   4.720   2.570 -1.5276  1.6823  0.6430
  788TIP3    H2 2371   3.645   4.749   2.441 -0.1711 -1.8595  0.5150
  789TIP3   OH2 2372   0.891   5.345   2.152  0.0209 -0.5737 -0.2190
  789TIP3    H1 2373   0.981   5.311   2.160 -0.5538 -2.0023  0.6032
  789TIP3    H2 2374   0.838   5.282   2.200 -1.5781 -0.3471 -1.5893
  790TIP3   OH2 2375   3.034   4.423   2.487 -0.1882 -0.8862  0.1222
  790TIP3    H1 2376   3.002   4.348   2.537  1.0390 -1.8387 -0.4710
  790TIP3    H2 2377   3.038   4.391   2.396 -2.7730  0.9251 -0.7651
  791TIP3   OH2 2378   6.008   2.328   1.808  0.2271 -0.0667  0.6336
  791TIP3    H1 2379   6.011   2.419   1.838 -1.7807 -0.5052  2.4262
  791TIP3    H2 2380   6.060   2.280   1.872 -0.3760 -0.4172  0.8729
  792TIP3   OH2 2381   2.014   2.712   1.577  0.3214 -0.4726 -0.5156
  792TIP3    H1 2382   2.082   2.696   1.643  0.3165  2.3053  0.3016
  792TIP3    H2 2383   2.058   2.764   1.510 -0.3887 -0.8414 -1.2744
  793TIP3   OH2 2384   1.304   4.727   1.100  0.5766 -0.2336  0.3912
  793TIP3    H1 2385   1.256   4.680   1.032 -0.8277  0.8076  0.6185
  793TIP3    H2 2386   1.308   4.666   1.174  1.2439 -1.0053 -0.2676
  794TIP3   OH2 2387   3.619   0.405   2.509 -0.1343 -0.0479 -0.1089
  794TIP3    H1 2388   3.607   0.481   2.566  0.6708 -0.3824  0.5256
  794TIP3    H2 2389   3.683   0.433   2.444 -1.2156  0.4058 -1.0121
  795TIP3   OH2 2390   1.556   4.320   2.606  0.0238 -0.8513  0.6066
  795TIP3    H1 2391   1.487   4.358   2.661  1.4137  1.5392  0.8227
  795TIP3    H2 2392   1.603   4.262   2.665 -0.5142 -0.8762  1.0261
  796TIP3   OH2 2393   0.051   3.236   3.813  0.2914 -0.4705  0.0033
  796TIP3    H1 2394   0.088   3.284   3.738 -1.2087 -0.8593 -1.0279
  796TIP3    H2 2395   0.126   3.190   3.851  1.2211  0.3285 -0.7872
  797TIP3   OH2 2396   5.875   4.518   3.346  0.4698 -0.5388  0.4351
  797TIP3    H1 2397   5.849   4.443   3.399  1.1155 -1.5412 -0.6296
  797TIP3    H2 2398   5.912   4.480   3.267  0.3486  0.9133 -0.3519
  798TIP3   OH2 2399   2.920   2.152   2.594 -0.2965 -0.4664  0.5567
  798TIP3    H1 2400   2.897   2.111   2.677 -2.2468  1.0312  0.8244
  798TIP3    H2 2401   2.844   2.137   2.538  1.5446 -2.7019 -1.5352
  799TIP3   OH2 2402   4.862   3.408   2.744  0.3600  0.1421  0.4015
  799TIP3    H1 2403   4.870   3.337   2.680  0.8185 -0.0433  0.6588
  799TIP3    H2 2404   4.783   3.455   2.718  1.1969  0.8301 -1.0731
  800TIP3   OH2 2405   3.418   2.854   5.106  0.2750  0.0486 -0.1827
  800TIP3    H1 2406   3.465   2.937   5.111 -1.7860  1.2349  1.6520
  800TIP3    H2 2407   3.428   2.815   5.192  0.4524 -1.2060 -0.7436
  801TIP3   OH2 2408   2.748   2.473   2.834 -0.3641 -0.5055 -0.3146
  801TIP3    H1 2409   2.757   2.513   2.747 -1.0401  0.1360 -0.1060
  801TIP3    H2 2410   2.664   2.505   2.866 -0.1749 -0.8290  0.5356
  802TIP3   OH2 2411   1.806   5.689   4.498  0.0501  0.2560  0.6082
  802TIP3    H1 2412   1.895   5.694   4.533  1.0746 -0.2992 -1.7159
  802TIP3    H2 2413   1.751   5.669   4.574  2.2077 -1.8530  1.7533
  803TIP3   OH2 2414   1.849   4.412   4.486  0.3578  0.4609  0.3015
  803TIP3    H1 2415   1.834   4.435   4.395  0.7359 -0.3686  0.0145
  803TIP3    H2 2416   1.831   4.492   4.535  1.4379  1.3144 -0.6235
  804TIP3   OH2 2417   6.356   0.835   1.397 -0.0730 -0.0323 -0.9157
  804TIP3    H1 2418   6.304   0.765   1.437  0.6106  0.1705  0.3725
  804TIP3    H2 2419   6.344   0.823   1.303 -0.8398 -1.2108 -0.6859
  805TIP3   OH2 2420   1.386   4.391   2.793 -0.0998  0.3881 -0.2270
  805TIP3    H1 2421   1.366   4.475   2.836 -2.2195  0.6031 -1.4987
  805TIP3    H2 2422   1.302   4.345   2.790  0.9428 -1.6431  0.0528
  806TIP3   OH2 2423   0.564   4.730   1.635  0.3427 -0.6847 -0.4297
  806TIP3    H1 2424   0.507   4.663   1.670  0.4886 -1.1788 -1.1159
  806TIP3    H2 2425   0.646   4.721   1.683  0.2838 -0.8477 -0.3626
  807TIP3   OH2 2426   5.424   0.241   5.040 -0.3293 -0.1179 -0.4145
  807TIP3    H1 2427   5.349   0.294   5.067 -0.8227 -1.1617  0.2932
  807TIP3    H2 2428   5.392   0.151   5.039  1.0511 -0.6543  0.4596
  808TIP3   OH2 2429   4.493   0.417   3.793  0.2013 -0.0518  0.3495
  808TIP3    H1 2430   4.506   0.448   3.704 -0.7348 -1.8943 -0.4913
  808TIP3    H2 2431   4.572   0.443   3.840 -0.2086  2.8662 -0.4062
  809TIP3   OH2 2432   2.907   5.051   3.532  0.1286  0.0521  0.3416
  809TIP3    H1 2433   2.853   5.099   3.469  0.2557 -0.1126  0.1073
  809TIP3    H2 2434   2.843   5.007   3.588  0.0104 -0.6131 -0.2928
  810TIP3   OH2 2435   3.428   5.671   0.552  0.1164  0.5443  0.2500
  810TIP3    H1 2436   3.404   5.596   0.606  0.2003 -1.2153 -1.9937
  810TIP3    H2 2437   3.377   5.743   0.588  0.4285 -0.4114  2.8328
  811TIP3   OH2 2438   3.488   5.952   1.330  0.2083  0.1305 -0.3933
  811TIP3    H1 2439   3.471   5.943   1.424  0.3821  0.5209 -0.3218
  811TIP3    H2 2440   3.537   5.873   1.307  3.2829  1.5791  0.5866
  812TIP3   OH2 2441   0.355   1.857   2.609  0.9946  0.1074 -0.5681
  812TIP3    H1 2442   0.291   1.919   2.643  1.1997  0.0191 -0.0150
  812TIP3    H2 2443   0.365   1.881   2.517  0.5302  0.4284 -0.5388
  813TIP3   OH2 2444   3.578   3.723   2.260  0.1410 -0.3159 -0.2021
  813TIP3    H1 2445   3.526   3.649   2.291  1.9831 -2.7162 -2.4722
  813TIP3    H2 2446   3.512   3.788   2.232 -1.5195 -0.9980  1.8734
  814TIP3   OH2 2447   4.140   5.449   4.078 -0.6329  0.1186 -0.1683
  814TIP3    H1 2448   4.126   5.419   4.168  0.8515 -0.3609 -0.0703
  814TIP3    H2 2449   4.052   5.454   4.040 -1.1862 -0.8467  0.9287
  815TIP3   OH2 2450   5.666   5.282   2.395 -0.1432 -0.3998  0.0220
  815TIP3    H1 2451   5.634   5.322   2.476 -0.0635  0.8549 -0.5343
  815TIP3    H2 2452   5.611   5.205   2.382  0.2687 -0.9900  1.6009
  816TIP3   OH2 2453   1.636   1.087   0.534  0.2170  0.4710  0.2505
  816TIP3    H1 2454   1.603   1.007   0.574  1.1035  0.0722  0.1931
  816TIP3    H2 2455   1.604   1.158   0.591  0.2483  0.0142  0.8411
  817TIP3   OH2 2456   3.415   2.589   1.529 -0.0919 -0.5289 -0.0719
  817TIP3    H1 2457   3.399   2.495   1.543  0.0818 -0.4163  0.9684
  817TIP3    H2 2458   3.430   2.623   1.617  0.2691  0.4039 -0.4936
  818TIP3   OH2 2459   1.112   3.072   0.974  0.0057  0.3445 -0.1377
  818TIP3    H1 2460   1.136   3.021   0.897 -0.8248  1.2334 -1.0162
  818TIP3    H2 2461   1.016   3.067   0.977 -0.1027  1.8708 -0.2873
  819TIP3   OH2 2462   3.193   2.131   1.234  0.0605  0.1859  0.6703
  819TIP3    H1 2463   3.209   2.123   1.140  2.0990  1.1908  0.8763
  819TIP3    H2 2464   3.179   2.041   1.264  2.9526 -0.6129 -0.0706
  820TIP3   OH2 2465   5.696   2.390   3.564 -0.1258 -0.0856 -0.7133
  820TIP3    H1 2466   5.720   2.309   3.519  2.9132  0.6872 -0.7015
  820TIP3    H2 2467   5.683   2.454   3.493  0.2576  0.0649 -0.6516
  821TIP3   OH2 2468   2.691   4.557   2.633  0.2953 -0.1604 -0.1694
  821TIP3    H1 2469   2.680   4.552   2.539 -0.3599  0.7558 -0.1575
  821TIP3    H2 2470   2.766   4.615   2.645  0.2389 -0.0978 -0.1211
  822TIP3   OH2 2471   3.451   5.531   1.043 -0.2606  0.5525 -0.0642
  822TIP3    H1 2472   3.406   5.534   1.127  0.8617  0.5126  0.5545
  822TIP3    H2 2473   3.500   5.613   1.039  2.0290 -0.7187  0.6673
  823TIP3   OH2 2474   3.157   2.448   3.658 -0.1366 -0.0778 -0.0164
  823TIP3    H1 2475   3.094   2.478   3.725  0.3070  0.2716  0.2481
  823TIP3    H2 2476   3.203   2.376   3.700  0.9761  0.9056  0.5199
  824TIP3   OH2 2477   1.235   4.320   4.140 -0.0162 -0.2508 -0.2488
  824TIP3    H1 2478   1.273   4.338   4.054  1.4640 -1.5129  0.1063
  824TIP3    H2 2479   1.204   4.230   4.135  2.5294 -1.3385  1.2888
  825TIP3   OH2 2480  -0.004   2.647   4.668  0.2228  0.5221 -0.5107
  825TIP3    H1 2481   0.041   2.681   4.746 -2.5697 -0.0128  1.4980
  825TIP3    H2 2482   0.028   2.557   4.660  0.0654  0.3584  0.4776
  826TIP3   OH2 2483   2.231   1.823   3.639  0.5226  0.2437  0.2244
  826TIP3    H1 2484   2.191   1.817   3.552  1.0487 -2.6768  0.0857
  826TIP3    H2 2485   2.296   1.894   3.630  1.3472 -0.6971 -2.1308
  827TIP3   OH2 2486   0.072   1.435   1.675 -0.4139  0.3172  0.0661
  827TIP3    H1 2487  -0.003   1.423   1.733 -0.4684 -0.2600 -0.1105
  827TIP3    H2 2488   0.137   1.371   1.706 -0.0836  0.6544  0.0754
  828TIP3   OH2 2489   3.088   0.983   4.543 -0.7323 -0.0166 -0.3047
  828TIP3    H1 2490   3.072   1.077   4.541 -0.6254  0.0167  0.3714
  828TIP3    H2 2491   3.180   0.974   4.518 -1.1357 -0.0559 -1.8932
  829TIP3   OH2 2492   1.642   0.864   1.574  0.8152  0.2628  0.1969
  829TIP3    H1 2493   1.552   0.889   1.596  0.1363 -2.0949  0.4135
  829TIP3    H2 2494   1.682   0.841   1.657  0.7336 -1.1974 -0.1317
  830TIP3   OH2 2495   4.566   0.406   2.884 -0.1197  0.1328 -0.0766
  830TIP3    H1 2496   4.657   0.383   2.865 -0.2717 -0.6839  0.1516
  830TIP3    H2 2497   4.515   0.352   2.823 -0.4067  1.7464 -1.3165
  831TIP3   OH2 2498   5.504   1.917   3.169  0.0701 -0.2349 -0.0181
  831TIP3    H1 2499   5.571   1.915   3.101 -2.4725 -1.3485 -2.6917
  831TIP3    H2 2500   5.470   1.827   3.172 -0.9928  0.1761  1.5866
  832TIP3   OH2 2501   3.175   4.958   0.141  0.2516  0.5931 -0.1282
  832TIP3    H1 2502   3.165   5.005   0.224 -0.8065 -0.4285  0.3408
  832TIP3    H2 2503   3.101   4.987   0.088 -0.0522 -0.0588 -0.0689
  833TIP3   OH2 2504   4.536   3.848   4.280  0.1249  0.1616  0.3705
  833TIP3    H1 2505   4.528   3.756   4.256 -0.5308  0.3361 -0.1255
  833TIP3    H2 2506   4.599   3.883   4.217  0.4146  0.0439  0.5926
  834TIP3   OH2 2507   5.759   4.576   1.318 -0.1405  0.6972  0.0127
  834TIP3    H1 2508   5.788   4.643   1.256 -0.4175 -0.3712 -1.2903
  834TIP3    H2 2509   5.705   4.516   1.267 -0.3875 -0.2184  1.2862
  835TIP3   OH2 2510   5.026   2.622   0.740  0.1569 -0.1940  0.2234
  835TIP3    H1 2511   4.947   2.666   0.708  0.8398  0.5162 -0.5319
  835TIP3    H2 2512   5.045   2.556   0.674  0.6779  0.2162 -0.0400
  836TIP3   OH2 2513   0.547   2.254   0.800 -0.1533 -0.0914 -0.4105
  836TIP3    H1 2514   0.514   2.331   0.847 -2.4694 -0.1777 -1.7386
  836TIP3    H2 2515   0.642   2.268   0.796 -0.2005  1.3507  1.6544
  837TIP3   OH2 2516   1.301   2.535   1.848 -0.1689 -0.5688  0.1097
  837TIP3    H1 2517   1.335   2.496   1.768 -0.2368 -0.6755  0.1330
  837TIP3    H2 2518   1.281   2.461   1.905  0.2251 -0.4834  0.3667
  838TIP3   OH2 2519   2.513   3.609   4.374 -0.1504  0.7084 -0.3306
  838TIP3    H1 2520   2.511   3.552   4.451 -1.8678  0.5571 -0.4424
  838TIP3    H2 2521   2.597   3.655   4.379  0.8334 -1.0827  0.3010
  839TIP3   OH2 2522   0.897   2.287   3.777 -0.3997  0.1909  0.3291
  839TIP3    H1 2523   0.864   2.207   3.817  0.9942  0.1520  1.4913
  839TIP3    H2 2524   0.988   2.266   3.754  1.3455  2.5152  4.2282
  840TIP3   OH2 2525   3.704   4.720   5.145  0.0050  0.0312 -0.1754
  840TIP3    H1 2526   3.760   4.652   5.182  1.1518 -0.5439 -2.7712
  840TIP3    H2 2527   3.742   4.802   5.177  0.5074 -0.4424  0.4804
  841TIP3   OH2 2528   0.462   2.043   1.027  0.1195  0.4224 -0.8728
  841TIP3    H1 2529   0.390   1.994   0.987 -1.6373  0.0015  2.3907
  841TIP3    H2 2530   0.453   2.132   0.993 -1.3834  0.1388 -1.2967
  842TIP3   OH2 2531   3.323   2.844   2.184  0.6880  0.5353  0.2745
  842TIP3    H1 2532   3.279   2.789   2.120  1.5632  0.1317 -0.0045
  842TIP3    H2 2533   3.375   2.783   2.237  0.9803  0.9945  0.5346
  843TIP3   OH2 2534   1.173   0.612   2.317 -0.0257  0.8397  0.4132
  843TIP3    H1 2535   1.180   0.669   2.241  1.3827  1.0335  0.6578
  843TIP3    H2 2536   1.145   0.670   2.388 -0.1299  0.9013  0.3233
  844TIP3   OH2 2537   3.125   2.764   0.798  0.0451  0.0548  0.0698
  844TIP3    H1 2538   3.058   2.766   0.866 -0.1837  0.5244 -0.1673
  844TIP3    H2 2539   3.079   2.793   0.719  0.1573 -1.0535 -0.4158
  845TIP3   OH2 2540   5.600   2.734   2.736 -0.0860 -0.5106 -0.7369
  845TIP3    H1 2541   5.582   2.727   2.830  0.7535  4.0361 -0.0315
  845TIP3    H2 2542   5.520   2.768   2.698  0.8567  1.7936 -0.8141
  846TIP3   OH2 2543   4.964   4.165   3.097  0.4103 -0.3799  0.4181
  846TIP3    H1 2544   4.917   4.125   3.025  0.0220  1.2466 -0.2697
  846TIP3    H2 2545   4.925   4.128   3.176  1.3206 -2.7249 -0.1574
  847TIP3   OH2 2546   4.967   3.646   4.134  0.4741  0.3774 -0.1318
  847TIP3    H1 2547   4.907   3.653   4.059  1.1617  0.2964 -0.7030
  847TIP3    H2 2548   4.946   3.722   4.189  0.2003  0.6391 -0.5927
  848TIP3   OH2 2549   2.720   4.698   0.254 -0.2186 -0.0702  0.0851
  848TIP3    H1 2550   2.638   4.726   0.295 -0.7432 -0.6118 -0.5699
  848TIP3    H2 2551   2.731   4.756   0.179 -0.7667 -0.9200 -0.6694
  849TIP3   OH2 2552   2.740   5.521   2.486  0.2323  0.1047 -0.6858
  849TIP3    H1 2553   2.750   5.562   2.400  1.2439 -0.4385 -0.8398
  849TIP3    H2 2554   2.652   5.546   2.514 -0.6381 -0.7966 -2.4404
  850TIP3   OH2 2555   5.488   1.791   4.513  0.4608 -0.4270 -0.1549
  850TIP3    H1 2556   5.408   1.745   4.537  0.4159 -0.5863 -0.5933
  850TIP3    H2 2557   5.546   1.723   4.478 -0.0770 -0.0116 -2.0101
  851TIP3   OH2 2558   5.413   1.082   4.382  0.7105 -0.2875 -0.1973
  851TIP3    H1 2559   5.395   0.989   4.372  1.4078 -0.5297  0.6946
  851TIP3    H2 2560   5.436   1.093   4.474 -0.7940  1.0231  0.0712
  852TIP3   OH2 2561   6.256   4.687   4.738  0.7798  0.5060  0.1658
  852TIP3    H1 2562   6.257   4.721   4.648 -1.5669 -0.0575 -0.1445
  852TIP3    H2 2563   6.323   4.619   4.738 -0.1364 -0.4983 -1.6493
  853TIP3   OH2 2564   4.351   0.312   0.940 -0.2143 -0.0552  0.0210
  853TIP3    H1 2565   4.439   0.318   0.903 -0.0197 -1.6305  0.1393
  853TIP3    H2 2566   4.361   0.252   1.014 -1.7493 -1.9947 -1.2379
  854TIP3   OH2 2567   1.151   2.237   3.483  0.0115 -0.2291 -0.1600
  854TIP3    H1 2568   1.165   2.226   3.577  1.2163  2.5554  0.0816
  854TIP3    H2 2569   1.201   2.165   3.443 -0.3141 -1.3060  1.2768
  855TIP3   OH2 2570   2.610   0.637   1.331 -0.7381 -0.5007 -0.3665
  855TIP3    H1 2571   2.524   0.678   1.331 -0.7993 -0.5783 -1.7691
  855TIP3    H2 2572   2.671   0.710   1.317 -0.6284 -0.5335 -0.0630
  856TIP3   OH2 2573   4.959   1.619   5.101 -0.8981  0.5952  0.4973
  856TIP3    H1 2574   5.022   1.691   5.108 -1.2366  0.7354  3.7902
  856TIP3    H2 2575   4.936   1.598   5.192 -0.3433 -4.1205 -0.1600
  857TIP3   OH2 2576   1.683   4.671   3.854  0.1514 -0.7995  0.7343
  857TIP3    H1 2577   1.609   4.676   3.793 -1.0242 -0.3890  2.1351
  857TIP3    H2 2578   1.755   4.713   3.807 -0.8137 -0.1699 -0.2448
  858TIP3   OH2 2579   5.240   3.014   0.944  0.0582  0.0088  0.0212
  858TIP3    H1 2580   5.250   2.919   0.954 -1.5752 -0.1856  0.0625
  858TIP3    H2 2581   5.165   3.024   0.885 -0.4187  1.2944  0.8140
  859TIP3   OH2 2582   4.742   3.949   0.256  0.7213  0.4760 -0.2521
  859TIP3    H1 2583   4.700   4.020   0.304 -1.8330 -1.3891  0.5411
  859TIP3    H2 2584   4.775   3.890   0.324  1.3347  0.0904 -0.8659
  860TIP3   OH2 2585   3.062   2.113   3.271  0.6419  0.2012  0.4624
  860TIP3    H1 2586   3.128   2.066   3.321  2.2210  0.6853 -1.0591
  860TIP3    H2 2587   3.096   2.114   3.182  0.0612  3.0786  0.1748
  861TIP3   OH2 2588   3.911   2.875   3.601  0.2604  0.0530  0.8145
  861TIP3    H1 2589   3.895   2.954   3.550 -1.3528  0.4198  1.8083
  861TIP3    H2 2590   4.006   2.876   3.618  0.4495  1.1136 -0.1946
  862TIP3   OH2 2591   3.840   1.790   4.116  0.5263 -0.0763  0.1723
  862TIP3    H1 2592   3.885   1.742   4.186  0.7485 -1.8094 -1.0819
  862TIP3    H2 2593   3.911   1.824   4.061  0.3846  2.0938  1.2225
  863TIP3   OH2 2594   4.648   0.742   4.053 -0.1428  0.1972  0.3728
  863TIP3    H1 2595   4.628   0.657   4.014 -0.8330  0.1704  0.7724
  863TIP3    H2 2596   4.572   0.796   4.035  0.8742  1.2067 -1.1322
  864TIP3   OH2 2597   4.402   4.529   0.363  0.1883 -0.4481 -0.0751
  864TIP3    H1 2598   4.408   4.445   0.409 -1.1456 -0.2303  0.5366
  864TIP3    H2 2599   4.421   4.595   0.429 -3.0132 -0.0544  0.6243
  865TIP3   OH2 2600   2.271   3.659   3.657  0.0527 -0.8010  0.1627
  865TIP3    H1 2601   2.224   3.681   3.738  0.5671  0.0515  0.2405
  865TIP3    H2 2602   2.262   3.737   3.603  2.5127 -0.0632  0.7157
  866TIP3   OH2 2603   3.808   3.808   4.381 -0.2552  0.5999  0.5952
  866TIP3    H1 2604   3.847   3.743   4.439  1.2407 -2.2796 -3.1858
  866TIP3    H2 2605   3.877   3.827   4.317 -2.5936  1.3820 -1.8782
  867TIP3   OH2 2606   4.169   5.402   4.575  0.1350 -0.5396  0.0583
  867TIP3    H1 2607   4.191   5.347   4.651  0.9534 -0.9433 -0.4549
  867TIP3    H2 2608   4.150   5.488   4.613 -3.0823 -1.5850  1.0752
  868TIP3   OH2 2609   1.804   2.257   4.518 -0.5080  0.5772 -0.2865
  868TIP3    H1 2610   1.776   2.203   4.444 -1.4561 -0.1492  0.5800
  868TIP3    H2 2611   1.735   2.323   4.527 -1.1008 -0.1512  0.7579
  869TIP3   OH2 2612   3.758   3.494   2.209  0.5655 -1.0934  0.3425
  869TIP3    H1 2613   3.712   3.575   2.191  1.9294 -0.4045 -0.1935
  869TIP3    H2 2614   3.697   3.425   2.184 -0.6151 -0.2506  0.8186
  870TIP3   OH2 2615   0.744   4.681   3.009 -0.2411 -0.1500 -0.1676
  870TIP3    H1 2616   0.827   4.676   3.057 -1.4225 -3.1998  1.8317
  870TIP3    H2 2617   0.765   4.733   2.931  3.3759 -0.2862  0.5375
  871TIP3   OH2 2618   5.062   4.513   2.667 -0.9390 -0.0667 -0.7227
  871TIP3    H1 2619   5.107   4.592   2.698 -0.0028 -1.2300  1.0329
  871TIP3    H2 2620   5.065   4.520   2.572  0.6333  1.1863 -0.6333
  872TIP3   OH2 2621   0.026   4.650   0.138  0.1926  0.1497 -0.2256
  872TIP3    H1 2622   0.098   4.586   0.138 -1.3328 -1.6751  0.5518
  872TIP3    H2 2623  -0.051   4.598   0.114 -1.4895  1.2136  2.4900
  873TIP3   OH2 2624   3.435   4.970   0.270  0.7502 -0.2451 -0.0031
  873TIP3    H1 2625   3.526   4.957   0.295  0.1116 -1.7053  1.8327
  873TIP3    H2 2626   3.435   5.052   0.221  2.6759  1.1570  2.1250
  874TIP3   OH2 2627   3.007   4.073   1.568  0.2531 -0.4018 -0.5075
  874TIP3    H1 2628   3.001   3.984   1.604  2.0279 -0.1325  0.5675
  874TIP3    H2 2629   2.918   4.108   1.576 -0.3750 -1.9144 -0.5357
  875TIP3   OH2 2630   2.891   4.204   3.231  0.2180  0.0894 -0.2439
  875TIP3    H1 2631   2.955   4.270   3.259  1.8532 -1.8591  0.8657
  875TIP3    H2 2632   2.924   4.122   3.267 -3.9635 -0.8247  2.1549
  876TIP3   OH2 2633   4.228   3.036   1.137  0.3407  0.2789 -0.2268
  876TIP3    H1 2634   4.218   3.119   1.185 -0.4083 -0.5079  1.0402
  876TIP3    H2 2635   4.242   2.971   1.206  0.7208 -0.6803 -1.1990
  877TIP3   OH2 2636   0.252   3.731   1.424  0.2832  0.0399 -0.1680
  877TIP3    H1 2637   0.181   3.715   1.361 -0.4343  0.2261  0.5732
  877TIP3    H2 2638   0.207   3.756   1.505  1.1929 -0.0803  0.3891
  878TIP3   OH2 2639   0.146   0.084   3.792 -0.1996  0.2489  0.1598
  878TIP3    H1 2640   0.216   0.024   3.765  0.4729  0.8205  0.5938
  878TIP3    H2 2641   0.079   0.027   3.829 -0.1634 -0.3459 -0.6657
  879TIP3   OH2 2642   2.872   5.504   2.726 -0.2419  0.1032  0.0802
  879TIP3    H1 2643   2.826   5.485   2.644 -0.3825 -1.2217  0.4331
  879TIP3    H2 2644   2.813   5.562   2.774 -1.6855 -1.6948  0.5958
  880TIP3   OH2 2645   1.737   5.589   1.848 -0.0262 -0.1840  0.0237
  880TIP3    H1 2646   1.766   5.500   1.831 -0.5737 -0.3033 -0.3075
  880TIP3    H2 2647   1.705   5.620   1.763  0.3547  0.4009  0.0905
  881TIP3   OH2 2648   2.989   3.719   2.889  0.2033  0.2519  0.2736
  881TIP3    H1 2649   2.943   3.645   2.929  1.9687 -1.1890 -0.2285
  881TIP3    H2 2650   3.007   3.778   2.962  1.9228 -1.5436  1.3944
  882TIP3   OH2 2651   5.985   4.581   2.041 -0.1965 -0.0756  0.1583
  882TIP3    H1 2652   6.079   4.561   2.042 -0.3077 -0.7087 -0.6127
  882TIP3    H2 2653   5.972   4.639   2.115  0.8659  0.2736  0.0879
  883TIP3   OH2 2654   5.822   0.682   1.603 -0.0844  0.1381 -0.3286
  883TIP3    H1 2655   5.731   0.706   1.620  0.3501  0.8504  1.1602
  883TIP3    H2 2656   5.856   0.753   1.548 -0.5108 -0.3400 -1.2422
  884TIP3   OH2 2657   0.830   5.768   1.229 -0.0061  0.1033 -0.1067
  884TIP3    H1 2658   0.753   5.757   1.174  0.7427  0.7486 -1.3077
  884TIP3    H2 2659   0.831   5.861   1.252 -0.6340 -0.2500  1.5341
  885TIP3   OH2 2660   0.525   5.035   2.555 -0.1950 -0.7942  0.1688
  885TIP3    H1 2661   0.565   4.984   2.485 -0.4688 -0.2916 -0.3705
  885TIP3    H2 2662   0.501   5.118   2.513 -0.9014 -0.7107  0.7097
  886TIP3   OH2 2663   4.895   3.839   4.318  0.3489  0.4376 -0.5774
  886TIP3    H1 2664   4.904   3.934   4.328  2.3247  0.1889  0.5198
  886TIP3    H2 2665   4.834   3.814   4.388  0.4102  0.8196 -0.3804
  887TIP3   OH2 2666   4.929   0.807   1.692 -0.4951  0.3245  0.5254
  887TIP3    H1 2667   4.834   0.819   1.693 -0.5415  0.5297 -1.5111
  887TIP3    H2 2668   4.964   0.877   1.746 -1.5215 -0.3206  2.0899
  888TIP3   OH2 2669   0.305   0.227   1.916 -0.1544 -0.1349 -0.2156
  888TIP3    H1 2670   0.230   0.282   1.940  0.6147 -0.0138  2.1997
  888TIP3    H2 2671   0.307   0.158   1.982 -0.3204 -2.4361 -2.4394
  889TIP3   OH2 2672   0.413   0.138   4.518 -0.1825 -0.0677  0.1725
  889TIP3    H1 2673   0.455   0.224   4.517  0.7303 -0.5002  0.1504
  889TIP3    H2 2674   0.322   0.155   4.542 -0.1663  0.9687 -0.4958
  890TIP3   OH2 2675   3.868   4.797   3.429 -0.2799  0.2297 -0.1416
  890TIP3    H1 2676   3.841   4.860   3.362 -2.0866 -1.4664 -1.1302
  890TIP3    H2 2677   3.881   4.715   3.380  3.9679  0.1322  0.7336
  891TIP3   OH2 2678   3.641   4.601   3.051  0.4608 -0.5368 -0.1411
  891TIP3    H1 2679   3.628   4.695   3.039 -2.6414 -0.5683  1.8724
  891TIP3    H2 2680   3.716   4.580   2.995  0.9872  3.0043 -1.0270
  892TIP3   OH2 2681   0.210   0.859   4.375 -0.2927  0.4514  0.0653
  892TIP3    H1 2682   0.194   0.943   4.417  1.2405  0.2489  1.1105
  892TIP3    H2 2683   0.268   0.879   4.301 -0.7872  0.4353 -0.3366
  893TIP3   OH2 2684   0.022   2.306   2.374 -0.0071  0.5589 -0.4777
  893TIP3    H1 2685  -0.044   2.279   2.438  0.0851 -0.5592 -0.8248
  893TIP3    H2 2686   0.104   2.309   2.423 -0.1722  1.1770 -0.2232
  894TIP3   OH2 2687   0.425   5.338   1.047 -0.1407  0.7362  0.1474
  894TIP3    H1 2688   0.515   5.332   1.078  0.0914  2.1742 -0.1845
  894TIP3    H2 2689   0.429   5.399   0.973 -1.1477 -0.3824 -0.8555
  895TIP3   OH2 2690   3.428   4.284   4.407  0.1633 -0.4893 -0.1178
  895TIP3    H1 2691   3.484   4.232   4.349 -0.0829 -1.2273  0.2995
  895TIP3    H2 2692   3.470   4.371   4.408  0.4853 -0.6163 -0.9495
  896TIP3   OH2 2693   2.330   0.879   3.202 -0.1154  0.6109  0.3044
  896TIP3    H1 2694   2.334   0.845   3.291 -2.5595  1.1254  0.6756
  896TIP3    H2 2695   2.385   0.820   3.151  0.8919 -0.0069  2.0512
  897TIP3   OH2 2696   1.608   2.419   4.849 -0.5260  0.2684 -0.0226
  897TIP3    H1 2697   1.556   2.340   4.838 -0.5390  0.1829  0.5862
  897TIP3    H2 2698   1.635   2.417   4.941  0.1886  0.5330 -0.2194
  898TIP3   OH2 2699   1.343   5.549   2.892  0.0067  0.1386  0.3777
  898TIP3    H1 2700   1.382   5.519   2.974  1.4056  0.4421 -0.1515
  898TIP3    H2 2701   1.278   5.483   2.871  0.9230 -0.9226  0.7839
  899TIP3   OH2 2702   0.078   1.397   2.053 -0.4975  0.0517 -0.3382
  899TIP3    H1 2703   0.027   1.360   2.125 -0.3038  1.5218  0.6016
  899TIP3    H2 2704   0.023   1.385   1.976 -1.9054  0.8327  0.5102
  900TIP3   OH2 2705   1.896   5.299   2.432 -0.6788  0.6780  0.3297
  900TIP3    H1 2706   1.833   5.370   2.439 -1.0038  0.3949  0.3292
  900TIP3    H2 2707   1.865   5.246   2.359  0.5327  1.4800 -0.8154
  901TIP3   OH2 2708   2.020   1.273   0.172  0.3947 -0.0025 -0.2162
  901TIP3    H1 2709   1.930   1.252   0.197  0.2356  0.0768 -0.7046
  901TIP3    H2 2710   2.072   1.248   0.248 -0.3022  2.3149  1.1328
  902TIP3   OH2 2711   3.894   2.004   1.665  0.1546  0.5289 -0.5389
  902TIP3    H1 2712   3.935   2.045   1.588  0.9899 -1.2495 -1.1035
  902TIP3    H2 2713   3.872   1.916   1.635 -0.6068  0.2049  0.9290
  903TIP3   OH2 2714   4.971   1.909   0.250 -0.4354  0.5234 -0.3029
  903TIP3    H1 2715   4.967   1.977   0.318  0.2137 -0.6382  0.9409
  903TIP3    H2 2716   4.880   1.894   0.226 -0.7213  0.5973  0.6915
  904TIP3   OH2 2717   5.552   0.261   0.299 -0.0670 -0.3268 -0.2426
  904TIP3    H1 2718   5.498   0.338   0.284 -1.1201 -0.8066  0.8953
  904TIP3    H2 2719   5.558   0.254   0.395  0.3731 -1.4044 -0.3351
  905TIP3   OH2 2720   5.240   4.158   1.871  0.7139  0.4170 -0.0768
  905TIP3    H1 2721   5.309   4.101   1.907 -0.0213  0.7080  1.9307
  905TIP3    H2 2722   5.177   4.167   1.942 -1.5035  0.0644 -1.8835
  906TIP3   OH2 2723   4.705   3.332   1.036  0.5582 -0.1063  0.1020
  906TIP3    H1 2724   4.645   3.323   0.962 -0.0999 -3.2187  0.8924
  906TIP3    H2 2725   4.655   3.378   1.103  0.6726  1.4217 -0.8193
  907TIP3   OH2 2726   5.331   5.867   4.560  0.1211 -0.3703  0.2960
  907TIP3    H1 2727   5.408   5.835   4.607  1.5707  2.4257  0.0772
  907TIP3    H2 2728   5.338   5.963   4.566 -0.7016  0.1262 -3.8451
  908TIP3   OH2 2729   4.981   5.714   5.170 -0.3046 -0.2398 -0.2581
  908TIP3    H1 2730   5.072   5.690   5.151 -0.0683 -0.0007  0.5369
  908TIP3    H2 2731   4.929   5.657   5.113  0.2996 -1.5139  0.4112
  909TIP3   OH2 2732   5.167   1.300   0.686 -0.0796  0.1932 -0.4308
  909TIP3    H1 2733   5.239   1.238   0.697  1.5403  1.9082 -0.7905
  909TIP3    H2 2734   5.149   1.300   0.592 -0.8471 -0.4914 -0.3030
  910TIP3   OH2 2735   5.520   5.142   2.978  0.0940  0.3387 -0.7973
  910TIP3    H1 2736   5.445   5.115   2.926  0.2766 -0.1172 -0.8293
  910TIP3    H2 2737   5.505   5.103   3.064  0.1462  0.4968 -0.7159
  911TIP3   OH2 2738   6.032   0.543   4.226 -0.4296 -0.1765 -0.0501
  911TIP3    H1 2739   5.990   0.624   4.254 -0.6376  0.1209 -1.1999
  911TIP3    H2 2740   5.984   0.474   4.273  0.3316  0.3905  1.6293
  912TIP3   OH2 2741   2.884   0.295   5.124 -0.3022  0.1953 -0.1893
  912TIP3    H1 2742   2.917   0.366   5.069 -1.6930  0.9545 -0.0790
  912TIP3    H2 2743   2.904   0.323   5.214 -0.5358  0.2801 -0.1635
  913TIP3   OH2 2744   2.785   1.818   3.146 -1.0362 -0.2417  0.2283
  913TIP3    H1 2745   2.755   1.904   3.117  1.6081  0.7612  0.2172
  913TIP3    H2 2746   2.757   1.759   3.077 -0.2315  1.1247 -1.3286
  914TIP3   OH2 2747   3.188   2.305   1.836  0.6363  0.0145  0.2409
  914TIP3    H1 2748   3.185   2.384   1.781  0.7139  0.2318  0.5464
  914TIP3    H2 2749   3.279   2.300   1.865  0.6686 -0.2794  0.0925
  915TIP3   OH2 2750   0.964   3.210   0.715  0.5741  0.0698  0.0009
  915TIP3    H1 2751   0.907   3.142   0.678 -1.1901  1.6950 -0.4392
  915TIP3    H2 2752   1.053   3.178   0.699 -0.0929 -3.3740  2.2107
  916TIP3   OH2 2753   3.740   5.267   0.125  0.2012 -0.3791 -0.2377
  916TIP3    H1 2754   3.651   5.248   0.157  0.1585 -1.1219 -0.7756
  916TIP3    H2 2755   3.768   5.186   0.083  0.8720  0.0785 -0.6864
  917TIP3   OH2 2756   3.840   0.793   0.043 -0.4758  0.0756 -0.2586
  917TIP3    H1 2757   3.834   0.822   0.134  0.0187 -2.0562  0.5177
  917TIP3    H2 2758   3.930   0.813   0.018 -0.4249  0.0966 -0.0636
  918TIP3   OH2 2759   5.527   3.774   3.373 -0.7066 -0.2996  0.3288
  918TIP3    H1 2760   5.510   3.838   3.443 -1.4630 -1.3648  1.1482
  918TIP3    H2 2761   5.564   3.827   3.301  0.2546  0.7919  1.5728
  919TIP3   OH2 2762   2.971   5.732   4.087  0.3330  0.5446  0.1642
  919TIP3    H1 2763   2.989   5.705   3.997 -0.0378  2.6233 -0.5882
  919TIP3    H2 2764   3.045   5.698   4.137 -1.2448 -3.9850 -0.1295
  920TIP3   OH2 2765   2.763   5.801   1.520  0.1829  0.2752 -0.0492
  920TIP3    H1 2766   2.763   5.886   1.563  0.7364  0.1170  0.2844
  920TIP3    H2 2767   2.831   5.808   1.453 -0.7764  0.5678 -1.0145
  921TIP3   OH2 2768   5.520   5.628   0.459  0.3602 -0.0301 -0.2888
  921TIP3    H1 2769   5.591   5.564   0.465 -0.2447 -0.8411 -1.4637
  921TIP3    H2 2770   5.451   5.593   0.515 -0.8120 -1.6056 -2.5579
  922TIP3   OH2 2771   3.414   1.619   2.487 -0.0005 -0.8868  0.0689
  922TIP3    H1 2772   3.442   1.528   2.476 -0.4376 -1.1687  1.1289
  922TIP3    H2 2773   3.491   1.664   2.523 -0.0331 -1.0255  0.3140
  923TIP3   OH2 2774   0.496   2.836   0.029  0.5620  0.4134 -0.8090
  923TIP3    H1 2775   0.448   2.793  -0.042 -2.2182  0.8760  0.6443
  923TIP3    H2 2776   0.435   2.901   0.063  1.8028  0.2613  1.9641
  924TIP3   OH2 2777   1.614   4.249   4.429  0.8068  0.1425 -0.1523
  924TIP3    H1 2778   1.650   4.247   4.518  0.9068  0.0127 -0.1949
  924TIP3    H2 2779   1.691   4.239   4.372  0.6479 -0.7872 -0.2313
  925TIP3   OH2 2780   0.935   5.117   3.845 -0.0541 -0.3578 -0.1519
  925TIP3    H1 2781   0.877   5.179   3.800 -1.2327  0.1877  1.9726
  925TIP3    H2 2782   0.881   5.081   3.916  1.8507 -0.7696  1.1518
  926TIP3   OH2 2783   4.387   1.840   3.840  0.0720  0.2680 -0.2812
  926TIP3    H1 2784   4.440   1.798   3.907 -0.5671  1.0556  0.7599
  926TIP3    H2 2785   4.341   1.768   3.797  0.2345 -0.2250  0.3568
  927TIP3   OH2 2786   0.224   1.669   4.166 -0.4495  0.0751  0.3316
  927TIP3    H1 2787   0.208   1.701   4.077 -1.7467  0.3304  0.6369
  927TIP3    H2 2788   0.303   1.616   4.158 -0.1812  0.6093 -0.8503
  928TIP3   OH2 2789   4.111   1.496   2.056 -0.4945 -0.0880  0.4702
  928TIP3    H1 2790   4.129   1.579   2.100  0.2204 -0.4781  0.9275
  928TIP3    H2 2791   4.138   1.510   1.965 -2.4504  0.8884 -0.0281
  929TIP3   OH2 2792   0.551   3.857   2.208  0.2991  0.1997  0.4231
  929TIP3    H1 2793   0.628   3.864   2.265  1.3601  0.2341 -0.9553
  929TIP3    H2 2794   0.501   3.937   2.224  1.7539  1.3072 -0.3070
  930TIP3   OH2 2795   1.078   0.683   4.818  0.4386 -0.4920  0.2295
  930TIP3    H1 2796   1.161   0.695   4.864  1.0458  0.1735 -0.9874
  930TIP3    H2 2797   1.029   0.762   4.837  0.8288 -0.0587 -0.5140
  931TIP3   OH2 2798   3.688   3.769   4.112 -0.5397  0.4278  0.1665
  931TIP3    H1 2799   3.766   3.741   4.161  0.5683  0.9300 -1.2200
  931TIP3    H2 2800   3.615   3.726   4.156  0.6280 -0.9228  0.8889
  932TIP3   OH2 2801   5.260   1.757   4.339  0.2322  0.4332  0.1139
  932TIP3    H1 2802   5.319   1.828   4.362 -0.5420  0.6079  1.6925
  932TIP3    H2 2803   5.240   1.714   4.422  0.1860 -1.2534 -0.7222
  933TIP3   OH2 2804   2.005   0.155   0.536  0.1264  0.4148  0.3904
  933TIP3    H1 2805   2.073   0.220   0.518  1.0928 -0.2675  1.4371
  933TIP3    H2 2806   1.979   0.172   0.627 -0.8616  0.4302  0.1209
  934TIP3   OH2 2807   3.317   2.305   1.417 -0.2912  0.6603 -0.2042
  934TIP3    H1 2808   3.316   2.220   1.374  0.7966  0.9270 -0.7844
  934TIP3    H2 2809   3.327   2.368   1.346  0.2469  1.1936  0.3314
  935TIP3   OH2 2810   3.226   0.131   2.868 -0.5977 -0.5924  0.1892
  935TIP3    H1 2811   3.210   0.100   2.779  0.2865 -1.3015  0.2566
  935TIP3    H2 2812   3.312   0.174   2.863 -0.1062 -1.4474  0.8736
  936TIP3   OH2 2813   2.270   4.253   1.092  0.4114 -0.0051 -0.1521
  936TIP3    H1 2814   2.260   4.175   1.037  0.3183 -0.5956  0.6718
  936TIP3    H2 2815   2.257   4.327   1.033  1.1806 -0.5991 -1.1018
  937TIP3   OH2 2816   4.857   2.481   1.187 -0.0701  0.3290  0.1742
  937TIP3    H1 2817   4.875   2.397   1.144 -0.8284  0.0327  0.4142
  937TIP3    H2 2818   4.934   2.497   1.242  2.2362  2.0510 -3.2216
  938TIP3   OH2 2819   2.050   0.621   2.719 -0.0202  0.3520 -0.1021
  938TIP3    H1 2820   2.082   0.552   2.777 -0.3573  1.6771  1.7649
  938TIP3    H2 2821   2.034   0.695   2.777 -0.4627  1.7469 -1.9107
  939TIP3   OH2 2822   5.318   4.292   1.202 -0.1978  0.2328  0.3944
  939TIP3    H1 2823   5.255   4.359   1.228 -1.2445 -0.0280 -1.2692
  939TIP3    H2 2824   5.304   4.282   1.108  2.4347  0.2316 -0.0777
  940TIP3   OH2 2825  -0.009   2.076   3.200  0.0408 -0.5263 -0.1342
  940TIP3    H1 2826   0.059   2.142   3.213 -0.8199  0.4284 -0.3154
  940TIP3    H2 2827  -0.049   2.066   3.286 -0.1814 -0.4001 -0.2204
  941TIP3   OH2 2828   4.901   4.369   4.372 -0.0097 -0.8084  0.1453
  941TIP3    H1 2829   4.941   4.330   4.450  0.8206  1.3362  0.8477
  941TIP3    H2 2830   4.838   4.433   4.407 -0.2081 -0.3787 -0.9552
  942TIP3   OH2 2831   4.585   0.543   3.576 -0.3918  0.2584 -0.0662
  942TIP3    H1 2832   4.660   0.563   3.520  1.2376 -3.8215  0.2988
  942TIP3    H2 2833   4.592   0.605   3.648  1.0594  1.6911 -1.3741
  943TIP3   OH2 2834   5.294   2.566   2.308  0.1639 -0.5466 -0.1610
  943TIP3    H1 2835   5.388   2.583   2.308  0.0166  0.3303  0.4612
  943TIP3    H2 2836   5.280   2.504   2.379  0.2375 -0.4474 -0.0601
  944TIP3   OH2 2837   0.559   1.212   3.475 -0.6228 -0.1249 -0.1775
  944TIP3    H1 2838   0.571   1.305   3.456 -2.0014 -0.0148 -0.6208
  944TIP3    H2 2839   0.509   1.210   3.557 -0.3075 -0.4809  0.0093
  945TIP3   OH2 2840   0.131   1.301   0.610  0.7950 -0.2563 -0.4103
  945TIP3    H1 2841   0.127   1.299   0.515  0.9436 -2.3112 -0.4142
  945TIP3    H2 2842   0.041   1.288   0.639  0.7330  0.4704 -0.2486
  946TIP3   OH2 2843   4.960   0.053   1.062  0.1403  0.0140 -0.5021
  946TIP3    H1 2844   5.047   0.018   1.044  0.6202  1.1799 -0.5977
  946TIP3    H2 2845   4.948   0.040   1.156 -0.3357 -1.7239 -0.7755
  947TIP3   OH2 2846   5.977   1.172   4.754 -0.1913 -0.4241 -0.4768
  947TIP3    H1 2847   5.996   1.200   4.843  1.2238  0.9346 -1.1723
  947TIP3    H2 2848   6.062   1.167   4.711 -0.7945 -1.6389 -1.6129
  948TIP3   OH2 2849   1.567   3.851   4.933 -0.2025 -0.6921 -0.9655
  948TIP3    H1 2850   1.620   3.808   5.000  1.4922  0.0392 -1.7751
  948TIP3    H2 2851   1.591   3.807   4.852 -0.4370 -0.0112 -1.4127
  949TIP3   OH2 2852   0.512   3.125   4.437 -0.1007 -0.1034  0.1954
  949TIP3    H1 2853   0.524   3.126   4.532  0.3261 -2.5921  0.2320
  949TIP3    H2 2854   0.594   3.159   4.401 -0.0728  0.3525  0.6783
  950TIP3   OH2 2855   3.701   5.293   1.929 -0.3732  0.9329 -0.3880
  950TIP3    H1 2856   3.624   5.301   1.985 -1.4880 -0.2793 -1.6657
  950TIP3    H2 2857   3.694   5.366   1.867 -0.0718  1.2523 -0.0563
  951TIP3   OH2 2858   2.960   2.733   4.848  0.0029  0.0018  0.1266
  951TIP3    H1 2859   3.005   2.658   4.809  1.3066 -0.7052  2.7722
  951TIP3    H2 2860   3.020   2.766   4.915 -1.5024  2.0136  0.6013
  952TIP3   OH2 2861   5.777   2.703   1.076  0.1360 -0.3602  0.1135
  952TIP3    H1 2862   5.777   2.798   1.067  1.3771 -0.4101 -0.6734
  952TIP3    H2 2863   5.688   2.681   1.105  0.3539  1.1913  2.2173
  953TIP3   OH2 2864   5.098   5.408   1.017  0.0719  0.4771 -0.2482
  953TIP3    H1 2865   5.192   5.396   1.000 -0.3025 -2.2021 -0.8000
  953TIP3    H2 2866   5.094   5.430   1.110  1.1424 -1.7811  0.3907
  954TIP3   OH2 2867   5.225   0.943   2.184 -0.1968 -0.3862 -0.1379
  954TIP3    H1 2868   5.221   0.940   2.279  1.2854  1.1805  0.0339
  954TIP3    H2 2869   5.209   1.035   2.163  0.0678 -0.5999 -1.3457
  955TIP3   OH2 2870   0.781   4.881   0.171  0.0503  0.0373  0.1922
  955TIP3    H1 2871   0.839   4.914   0.240 -0.4140  0.0957  0.5642
  955TIP3    H2 2872   0.766   4.789   0.194  0.7002 -0.2238 -0.3981
  956TIP3   OH2 2873   4.814   4.980   4.432 -0.1409 -0.0495 -0.4419
  956TIP3    H1 2874   4.850   5.068   4.422  2.0930 -0.9703 -1.0577
  956TIP3    H2 2875   4.804   4.969   4.527  2.9691 -0.3309 -0.0441
  957TIP3   OH2 2876   4.801   3.763   3.117  0.3949  0.1902  0.0848
  957TIP3    H1 2877   4.842   3.839   3.158  1.2809 -0.2054 -0.0460
  957TIP3    H2 2878   4.831   3.765   3.026 -0.7143  0.4744 -0.2832
  958TIP3   OH2 2879   4.758   4.500   2.081 -0.5110  0.3179  0.3132
  958TIP3    H1 2880   4.722   4.588   2.083  1.0707  1.0468 -0.9149
  958TIP3    H2 2881   4.853   4.513   2.071  0.0030 -1.4972  2.0235
  959TIP3   OH2 2882   2.587   3.465   4.593  0.2431  0.0500 -0.0253
  959TIP3    H1 2883   2.582   3.378   4.552  1.2248 -0.4010  0.7504
  959TIP3    H2 2884   2.680   3.475   4.615  0.0624  1.1181  0.2869
  960TIP3   OH2 2885   3.644   5.119   3.612  0.2772 -0.3048 -0.2009
  960TIP3    H1 2886   3.653   5.084   3.701 -3.2982 -1.2265 -0.0264
  960TIP3    H2 2887   3.634   5.041   3.557  0.0922  0.2870 -1.0177
  961TIP3   OH2 2888   4.809   2.827   5.027  0.0603  0.1114 -0.3540
  961TIP3    H1 2889   4.808   2.744   4.980 -0.5303  0.0835 -0.3032
  961TIP3    H2 2890   4.824   2.893   4.959 -0.8130  0.0728 -0.5931
  962TIP3   OH2 2891   2.641   4.049   2.133  0.1508  0.2294  0.1484
  962TIP3    H1 2892   2.735   4.030   2.138  0.2002  0.2228 -0.7611
  962TIP3    H2 2893   2.637   4.143   2.114  0.0424 -0.1791 -2.1376
  963TIP3   OH2 2894   3.482   3.782   3.191 -0.0262 -0.4362  0.3363
  963TIP3    H1 2895   3.474   3.862   3.138 -1.2032  0.4954  1.8724
  963TIP3    H2 2896   3.532   3.722   3.135  0.4755  1.1899 -1.0485
  964TIP3   OH2 2897   4.568   3.494   4.912 -0.4661  0.2211 -0.8603
  964TIP3    H1 2898   4.627   3.508   4.837  0.6654 -1.3318 -0.3134
  964TIP3    H2 2899   4.570   3.577   4.959  0.4454  0.5547 -1.4522
  965TIP3   OH2 2900   3.321   4.899   2.823 -0.0508  0.2911 -0.1623
  965TIP3    H1 2901   3.314   4.804   2.810 -1.1826  0.4446 -0.7744
  965TIP3    H2 2902   3.365   4.908   2.908 -0.7042 -0.7852  0.3102
  966TIP3   OH2 2903   2.019   3.281   4.075  0.2902  0.0364 -0.9003
  966TIP3    H1 2904   2.036   3.218   4.005 -1.3560 -0.9040 -0.5172
  966TIP3    H2 2905   1.980   3.356   4.031 -0.0356 -0.2402 -1.0869
  967TIP3   OH2 2906   1.922   3.857   4.155 -0.1640  0.7975  0.4594
  967TIP3    H1 2907   1.984   3.928   4.138 -0.5024  1.3996  1.6170
  967TIP3    H2 2908   1.933   3.836   4.247  0.8886 -1.6350 -0.1425
  968TIP3   OH2 2909   5.553   2.499   2.460 -0.0041 -0.2180  1.0175
  968TIP3    H1 2910   5.550   2.417   2.411  1.1628  0.4724 -0.2768
  968TIP3    H2 2911   5.628   2.489   2.519  0.0939 -0.1211  0.9111
  969TIP3   OH2 2912   1.671   3.765   4.398 -0.3143  0.1557  0.0258
  969TIP3    H1 2913   1.710   3.852   4.403  1.4476 -0.4449 -2.0250
  969TIP3    H2 2914   1.742   3.706   4.422 -1.4764 -0.7704  1.3530
  970TIP3   OH2 2915   1.237   0.929   4.404 -0.7827  0.4614 -0.3897
  970TIP3    H1 2916   1.235   1.011   4.453  0.0371  0.1691  0.1646
  970TIP3    H2 2917   1.146   0.913   4.380 -1.0257  1.2556 -0.0359
  971TIP3   OH2 2918   4.075   4.337   0.093  0.1177  0.5453  0.3324
  971TIP3    H1 2919   4.091   4.367   0.183  1.8280 -0.1813  0.3056
  971TIP3    H2 2920   4.155   4.292   0.068 -0.7638 -0.2728 -1.1717
  972TIP3   OH2 2921   4.508   1.419   0.125  0.2612  0.0358  0.5012
  972TIP3    H1 2922   4.428   1.399   0.076  0.3117 -0.8992  0.7802
  972TIP3    H2 2923   4.521   1.513   0.112 -0.4375  0.0493 -0.2125
  973TIP3   OH2 2924   1.415   5.913   2.683  0.6843 -0.0458 -0.4815
  973TIP3    H1 2925   1.437   5.914   2.776  0.4862 -2.4977 -0.3199
  973TIP3    H2 2926   1.323   5.939   2.680  0.4663 -0.6966  0.1266
  974TIP3   OH2 2927   5.439   4.537   2.870  0.4322  0.4510  0.6188
  974TIP3    H1 2928   5.532   4.511   2.872  0.1124 -0.9546 -0.6555
  974TIP3    H2 2929   5.392   4.454   2.864 -0.7796  1.2091 -1.3986
  975TIP3   OH2 2930   4.897   1.696   1.148  0.3156 -0.2933  0.1401
  975TIP3    H1 2931   4.985   1.689   1.185  0.5743  0.0974 -0.3832
  975TIP3    H2 2932   4.862   1.778   1.184 -0.6032 -1.3833  1.9004
  976TIP3   OH2 2933   4.278   0.660   1.032  0.4653 -0.2277  0.7070
  976TIP3    H1 2934   4.238   0.732   0.984  2.4607 -0.1224 -0.9363
  976TIP3    H2 2935   4.204   0.609   1.065 -0.9807  1.8320  0.8103
  977TIP3   OH2 2936   5.595   4.502   4.646 -0.4130 -0.1813  0.2813
  977TIP3    H1 2937   5.599   4.564   4.719 -2.6203  2.1204 -1.3376
  977TIP3    H2 2938   5.577   4.418   4.687  0.1172  0.6790  2.4644
  978TIP3   OH2 2939   4.860   0.468   0.926  0.4987  0.0634 -0.3718
  978TIP3    H1 2940   4.871   0.528   1.000 -0.1805  0.0961 -0.2915
  978TIP3    H2 2941   4.946   0.427   0.915  0.2509 -1.0075  1.3342
  979TIP3   OH2 2942   1.448   0.928   4.874 -0.1926  0.2854 -0.1829
  979TIP3    H1 2943   1.520   0.928   4.937  0.2289 -0.9492 -0.6394
  979TIP3    H2 2944   1.372   0.898   4.924  0.4087 -1.9358 -0.5014
  980TIP3   OH2 2945   5.961   2.265   3.039 -1.1076 -0.4270 -0.1769
  980TIP3    H1 2946   5.940   2.171   3.042  0.7585 -0.8696 -0.0911
  980TIP3    H2 2947   5.882   2.306   3.005 -1.9499 -2.0336 -0.2405
  981TIP3   OH2 2948   2.856   2.879   1.691  0.2977 -0.1881 -0.0489
  981TIP3    H1 2949   2.934   2.930   1.713  0.0762 -0.3134  1.0697
  981TIP3    H2 2950   2.817   2.856   1.776  0.4923 -2.4061 -0.5028
  982TIP3   OH2 2951   0.103   3.614   3.753 -0.5314 -0.6535  0.2136
  982TIP3    H1 2952   0.094   3.709   3.755  0.1159 -0.4667 -2.2768
  982TIP3    H2 2953   0.191   3.600   3.717 -0.9267 -2.1677 -0.2280
  983TIP3   OH2 2954   3.747   4.855   0.769 -0.2333 -0.0556 -0.3617
  983TIP3    H1 2955   3.801   4.934   0.775  2.3649 -1.7504  0.3033
  983TIP3    H2 2956   3.782   4.808   0.694 -1.9952 -0.4299 -0.9832
  984TIP3   OH2 2957   0.233   1.033   4.736  0.2524 -0.4153 -0.9298
  984TIP3    H1 2958   0.163   0.968   4.730  0.5135 -0.6180 -2.0550
  984TIP3    H2 2959   0.187   1.116   4.754 -0.2289 -0.6313 -1.1398
  985TIP3   OH2 2960   2.717   0.803   4.125  0.0224  0.1519 -0.1469
  985TIP3    H1 2961   2.698   0.883   4.173  1.9166 -0.7240  2.2400
  985TIP3    H2 2962   2.665   0.736   4.168  0.1518 -0.3103 -0.6947
  986TIP3   OH2 2963   3.812   0.621   1.255  0.0660 -0.2308  0.5649
  986TIP3    H1 2964   3.865   0.673   1.316 -0.1251  2.0125 -1.0391
  986TIP3    H2 2965   3.728   0.612   1.298  0.6657 -0.7835  1.6479
  987TIP3   OH2 2966   2.170   0.007   0.325  0.9710  0.2256 -0.2947
  987TIP3    H1 2967   2.252   0.019   0.373  0.6729 -1.8749  0.8362
  987TIP3    H2 2968   2.102   0.037   0.386  0.7537 -0.2036 -0.3216
  988TIP3   OH2 2969   0.045   1.589   1.084 -0.0306  0.7769 -0.5344
  988TIP3    H1 2970   0.001   1.674   1.078 -1.6496  0.2889  2.7138
  988TIP3    H2 2971  -0.023   1.525   1.062  0.5047  0.2134 -0.5734
  989TIP3   OH2 2972   2.098   2.845   0.440 -0.3462 -0.0899 -0.1148
  989TIP3    H1 2973   2.092   2.940   0.455 -0.8444  0.1138 -1.4097
  989TIP3    H2 2974   2.140   2.837   0.355 -0.5850 -1.0263 -0.1548
  990TIP3   OH2 2975   1.638   5.067   2.801  0.0189  0.0645 -0.1651
  990TIP3    H1 2976   1.672   4.982   2.829  0.5693  0.4941  0.5159
  990TIP3    H2 2977   1.691   5.131   2.849 -0.7336  0.7860 -0.2610
  991TIP3   OH2 2978   3.896   5.801   1.046 -0.3995 -0.0427 -0.1426
  991TIP3    H1 2979   3.853   5.719   1.022  1.0178 -1.5558  2.1381
  991TIP3    H2 2980   3.935   5.832   0.965 -1.1696 -1.5010 -1.1200
  992TIP3   OH2 2981   4.417   4.415   1.021 -0.2374  0.5324 -0.2387
  992TIP3    H1 2982   4.434   4.418   1.115 -1.8489 -0.8945  0.1519
  992TIP3    H2 2983   4.343   4.475   1.009  0.6068  1.4906 -0.7884
  993TIP3   OH2 2984   3.545   5.264   5.010 -0.3191  0.1440  0.0840
  993TIP3    H1 2985   3.548   5.186   5.065 -2.3244 -0.1824 -0.1990
  993TIP3    H2 2986   3.595   5.240   4.932 -1.6726 -1.2481 -0.4036
  994TIP3   OH2 2987   3.678   1.655   1.759  0.5788 -1.1228  0.1927
  994TIP3    H1 2988   3.650   1.673   1.669  1.6348 -1.4552 -0.2195
  994TIP3    H2 2989   3.646   1.567   1.776  1.9331 -1.7863 -0.5348
  995TIP3   OH2 2990   6.213   2.842   4.500  0.0233 -0.2199  0.1418
  995TIP3    H1 2991   6.288   2.803   4.543  1.4833  2.1245 -0.0931
  995TIP3    H2 2992   6.145   2.844   4.567  0.4726 -1.4623  0.6587
  996TIP3   OH2 2993   2.516   1.207   2.330 -0.0866 -0.3908  0.9591
  996TIP3    H1 2994   2.525   1.143   2.260 -0.9515 -0.3261  0.7717
  996TIP3    H2 2995   2.596   1.199   2.381 -0.4012 -1.9876  1.2488
  997TIP3   OH2 2996   5.327   3.179   4.740  0.5755  0.6276 -0.4226
  997TIP3    H1 2997   5.265   3.194   4.812  1.6426  1.9883  0.2570
  997TIP3    H2 2998   5.395   3.124   4.778  1.3552  1.6938 -0.2590
  998TIP3   OH2 2999   3.938   2.482   4.791  0.5983  0.0321  0.1537
  998TIP3    H1 3000   3.887   2.501   4.869  0.5355  0.5790 -0.0136
  998TIP3    H2 3001   4.000   2.554   4.784  0.0539  0.4378 -0.7522
  999TIP3   OH2 3002   2.526   1.401   0.172  0.0505  0.1521  0.1982
  999TIP3    H1 3003   2.591   1.376   0.106  1.4513  0.8019  1.2703
  999TIP3    H2 3004   2.565   1.477   0.216 -1.3401  0.3976  1.0522
 1000TIP3   OH2 3005   1.640   5.115   3.555  0.0136  0.3321 -0.4893
 1000TIP3    H1 3006   1.704   5.172   3.597 -1.5426  1.1684  0.8926
 1000TIP3    H2 3007   1.558   5.134   3.601 -1.0001 -1.4916 -1.4380
 1001TIP3   OH2 3008   5.960   5.363   4.978  0.1192 -0.2047 -0.6552
 1001TIP3    H1 3009   5.992   5.311   4.905 -1.6248  0.5688 -2.0429
 1001TIP3    H2 3010   6.007   5.446   4.971 -1.3939  0.5782 -2.1126
 1002TIP3   OH2 3011   0.218   1.008   0.968  0.2508  0.2281 -0.2879
 1002TIP3    H1 3012   0.210   1.095   1.006 -2.0753  0.2283 -0.6118
 1002TIP3    H2 3013   0.279   0.962   1.025  1.6332  2.0852 -0.1996
 1003TIP3   OH2 3014   4.515   0.280   2.658  0.5127 -0.1784  0.3552
 1003TIP3    H1 3015   4.432   0.320   2.633 -0.4944 -1.5462  1.3030
 1003TIP3    H2 3016   4.569   0.286   2.580 -0.0708  1.6966  0.0394
 1004TIP3   OH2 3017   4.551   5.385   4.876 -0.4408  0.0575 -0.2325
 1004TIP3    H1 3018   4.487   5.319   4.902 -0.8847  0.1943 -0.9299
 1004TIP3    H2 3019   4.635   5.340   4.876 -0.5069 -0.0884  0.8446
 1005TIP3   OH2 3020   5.661   4.663   5.132  0.4445 -0.7834  0.7538
 1005TIP3    H1 3021   5.584   4.695   5.180 -0.1978 -0.1575 -0.6108
 1005TIP3    H2 3022   5.683   4.580   5.174 -1.5429 -1.4365  0.6324
 1006TIP3   OH2 3023   2.146   2.224   2.899 -0.2610 -0.2414  0.0611
 1006TIP3    H1 3024   2.240   2.211   2.913 -0.3387 -0.6325  0.2508
 1006TIP3    H2 3025   2.110   2.229   2.988 -0.8651 -3.4623  0.1221
 1007TIP3   OH2 3026   4.459   4.385   3.596  0.4019  0.1500 -0.0693
 1007TIP3    H1 3027   4.515   4.459   3.573  1.2710 -0.1784  0.9327
 1007TIP3    H2 3028   4.423   4.407   3.682  2.2071 -1.4079  1.1513
 1008TIP3   OH2 3029   0.752   0.031   3.043  0.1543  0.2207 -0.6242
 1008TIP3    H1 3030   0.807   0.081   2.983 -0.7625  0.4170 -1.3214
 1008TIP3    H2 3031   0.682  -0.005   2.988  0.2182 -0.9917  0.0329
 1009TIP3   OH2 3032   3.457   5.988   4.086 -0.2785 -0.0721 -0.8582
 1009TIP3    H1 3033   3.500   5.984   4.000  0.3649 -0.6438 -0.5190
 1009TIP3    H2 3034   3.516   5.941   4.144 -1.0650 -0.3165 -0.2443
 1010TIP3   OH2 3035   2.039   4.154   4.737 -0.1676 -0.3413 -0.1544
 1010TIP3    H1 3036   2.128   4.123   4.755  0.7101  1.7912 -0.5052
 1010TIP3    H2 3037   1.996   4.155   4.823  1.1184  1.3576  0.5113
 1011TIP3   OH2 3038   3.382   2.188   3.544 -0.5169  0.5538  0.1909
 1011TIP3    H1 3039   3.447   2.250   3.509 -0.8039  0.4976 -0.4572
 1011TIP3    H2 3040   3.367   2.217   3.634 -0.2681  1.1186  0.0558
 1012TIP3   OH2 3041   0.925   2.412   4.447 -0.0564 -0.3119 -0.3609
 1012TIP3    H1 3042   0.860   2.358   4.493  0.3178 -0.1861  0.3287
 1012TIP3    H2 3043   1.006   2.361   4.450 -0.1030 -0.4385 -1.1600
 1013TIP3   OH2 3044   6.062   0.243   4.481  0.0270  0.9131  0.4176
 1013TIP3    H1 3045   5.989   0.273   4.427  0.3892  1.2862  0.1214
 1013TIP3    H2 3046   6.132   0.224   4.418 -0.0329 -0.0947  0.6412
 1014TIP3   OH2 3047   6.216   5.425   3.639 -0.2091  0.5581 -0.3666
 1014TIP3    H1 3048   6.204   5.520   3.650 -0.0440  0.4117  1.5051
 1014TIP3    H2 3049   6.161   5.386   3.707  1.0730 -0.6086  0.0588
 1015TIP3   OH2 3050   4.791   2.746   1.096 -0.0031  0.2186 -0.2068
 1015TIP3    H1 3051   4.876   2.702   1.097  0.3775  0.9582  0.4459
 1015TIP3    H2 3052   4.737   2.694   1.155  1.1379  1.9223  2.4980
 1016TIP3   OH2 3053   1.343   4.798   5.075  0.1424  0.0035 -0.3126
 1016TIP3    H1 3054   1.299   4.882   5.092 -1.0012 -0.5595 -0.3888
 1016TIP3    H2 3055   1.272   4.734   5.074  1.1034 -1.1221  0.7347
 1017TIP3   OH2 3056   5.182   1.975   0.524 -0.0491  0.4640  0.2136
 1017TIP3    H1 3057   5.237   2.046   0.557  0.4143  0.0978  0.2480
 1017TIP3    H2 3058   5.095   2.014   0.514  0.4255  1.3206 -0.7707
 1018TIP3   OH2 3059   4.646   0.972   2.211  0.2043 -0.4128  0.3189
 1018TIP3    H1 3060   4.585   0.989   2.140 -0.3530  1.0165  1.0968
 1018TIP3    H2 3061   4.591   0.959   2.289  0.8510 -0.1517  0.8343
 1019TIP3   OH2 3062   3.618   4.033   0.107  0.4587  0.3897 -0.2664
 1019TIP3    H1 3063   3.673   3.984   0.169  0.2222  1.3000  0.6886
 1019TIP3    H2 3064   3.671   4.039   0.027  0.4216 -1.5707 -0.4952
 1020TIP3   OH2 3065   0.720   0.257   2.475 -0.2156  0.1287  0.2662
 1020TIP3    H1 3066   0.779   0.329   2.496 -1.6028  1.5399 -0.4334
 1020TIP3    H2 3067   0.691   0.276   2.385 -0.4954 -1.3949  0.0144
 1021TIP3   OH2 3068   0.802   5.846   3.999  0.2825 -0.0297  0.4278
 1021TIP3    H1 3069   0.747   5.772   4.026  1.0449 -1.3326 -1.3725
 1021TIP3    H2 3070   0.891   5.820   4.025  0.5843  0.1238 -0.4237
 1022TIP3   OH2 3071   4.356   2.138   2.527 -0.2953 -0.2500 -0.3987
 1022TIP3    H1 3072   4.402   2.138   2.611 -1.5501 -0.1672  0.3193
 1022TIP3    H2 3073   4.330   2.229   2.514  1.1136  0.0212 -1.6100
 1023TIP3   OH2 3074   2.871   1.906   0.453 -0.3213  0.8088  0.1637
 1023TIP3    H1 3075   2.928   1.833   0.429  1.0008  2.5036 -2.2863
 1023TIP3    H2 3076   2.840   1.940   0.369 -1.7834  2.3878  1.2916
 1024TIP3   OH2 3077   0.423   5.045   3.810  0.1686  0.3005  0.0841
 1024TIP3    H1 3078   0.429   5.040   3.905  1.0473 -1.1513 -0.0213
 1024TIP3    H2 3079   0.432   4.955   3.780 -1.5556  0.5307 -1.3286
 1025TIP3   OH2 3080   4.431   3.104   0.932 -0.0538  0.1532  0.2588
 1025TIP3    H1 3081   4.362   3.082   0.995 -0.3195 -1.0649 -0.4257
 1025TIP3    H2 3082   4.493   3.031   0.937  0.7951  0.8618  0.3071
 1026TIP3   OH2 3083   1.206   2.829   5.192  0.0011  0.2873 -0.3866
 1026TIP3    H1 3084   1.224   2.817   5.099  0.4613  0.8240 -0.3778
 1026TIP3    H2 3085   1.286   2.800   5.236 -0.0751  0.3756 -0.1853
 1027TIP3   OH2 3086   5.323   0.789   3.175 -0.8298  0.1347  0.2992
 1027TIP3    H1 3087   5.236   0.750   3.181 -1.0742  0.6112 -0.1045
 1027TIP3    H2 3088   5.315   0.856   3.107 -0.5434  1.2177  1.3092
 1028TIP3   OH2 3089   5.179   1.479   3.833  0.1001  0.7602  0.4104
 1028TIP3    H1 3090   5.270   1.497   3.810  0.3905 -0.6625  0.3248
 1028TIP3    H2 3091   5.179   1.470   3.928  0.0483  0.7706  0.4113
 1029TIP3   OH2 3092   2.640   1.008   5.057 -0.4088 -0.3510  0.5546
 1029TIP3    H1 3093   2.673   1.024   5.145  0.4907  1.6052 -0.0588
 1029TIP3    H2 3094   2.549   1.038   5.060  0.5191  2.9717  0.1073
 1030TIP3   OH2 3095   5.677   0.604   4.618  0.6554  0.3315  0.3234
 1030TIP3    H1 3096   5.655   0.527   4.566 -0.8276  0.4849  0.6864
 1030TIP3    H2 3097   5.733   0.570   4.688 -0.0450 -0.4427  0.5260
 1031TIP3   OH2 3098   0.081   4.468   4.750  0.5686 -0.8565 -0.3162
 1031TIP3    H1 3099   0.159   4.470   4.695 -1.3791 -2.9159 -3.5207
 1031TIP3    H2 3100   0.079   4.379   4.785 -0.6974 -1.1186 -0.9798
 1032TIP3   OH2 3101   2.811   0.199   1.487 -0.3155  0.7978  0.0605
 1032TIP3    H1 3102   2.812   0.289   1.520 -1.4428  0.8858 -0.0986
 1032TIP3    H2 3103   2.821   0.144   1.565  1.8539  1.0506  0.0163
 1033TIP3   OH2 3104   5.770   5.941   2.512 -0.3803  0.1927  0.1420
 1033TIP3    H1 3105   5.777   5.985   2.596  1.2365  1.6175 -0.6770
 1033TIP3    H2 3106   5.753   6.011   2.449 -0.0188 -0.6361 -0.9162
 1034TIP3   OH2 3107   4.635   5.875   4.935  0.2655  0.8884 -0.7599
 1034TIP3    H1 3108   4.667   5.913   4.853 -1.9924  1.7395 -1.3290
 1034TIP3    H2 3109   4.577   5.943   4.972  0.2591  0.0271  0.9205
 1035TIP3   OH2 3110   0.615   5.818   2.854 -0.4717 -0.3155 -0.1462
 1035TIP3    H1 3111   0.553   5.844   2.786 -2.3875 -0.6200  1.3511
 1035TIP3    H2 3112   0.581   5.733   2.884  0.0541  0.0070  1.4293
 1036TIP3   OH2 3113   2.538   3.239   2.175  0.4745 -0.0764  0.2008
 1036TIP3    H1 3114   2.592   3.163   2.195  0.0693 -0.9374 -1.7364
 1036TIP3    H2 3115   2.571   3.271   2.091 -1.1560  0.1681 -0.3906
 1037TIP3   OH2 3116   3.004   0.323   3.788  0.1050 -0.7162 -0.2246
 1037TIP3    H1 3117   2.991   0.360   3.875 -1.6196  1.2093 -1.2090
 1037TIP3    H2 3118   3.052   0.391   3.740 -0.4809 -0.9951 -1.2375
 1038TIP3   OH2 3119   3.063   2.385   2.591 -0.2419  0.1353  0.2139
 1038TIP3    H1 3120   3.127   2.378   2.662  0.4213 -0.3769 -0.4240
 1038TIP3    H2 3121   2.997   2.319   2.612  0.6195 -0.9196 -0.3098
 1039TIP3   OH2 3122   1.915   0.018   2.673  0.2315  0.4060  0.2418
 1039TIP3    H1 3123   1.998  -0.029   2.677  0.4597  0.8900  1.9781
 1039TIP3    H2 3124   1.931   0.091   2.614  1.2527  0.8367  1.0220
 1040TIP3   OH2 3125   5.871   4.607   0.616 -0.0407  0.2057  0.0280
 1040TIP3    H1 3126   5.861   4.518   0.650  0.3549  0.0410 -0.2669
 1040TIP3    H2 3127   5.903   4.595   0.527 -0.6822  0.6378 -0.2674
 1041TIP3   OH2 3128   5.006   1.886   1.989 -0.1812 -0.2487  0.5386
 1041TIP3    H1 3129   5.042   1.801   2.013 -1.6886 -0.8602  0.7217
 1041TIP3    H2 3130   5.050   1.908   1.907  1.6117 -0.2905  1.4247
 1042TIP3   OH2 3131   3.910   1.324   0.502 -0.3044 -0.0914 -0.4717
 1042TIP3    H1 3132   3.867   1.392   0.553  0.3065 -1.0380  1.4296
 1042TIP3    H2 3133   3.995   1.313   0.544 -0.0772 -1.4778 -1.2146
 1043TIP3   OH2 3134   3.923   4.275   3.497 -0.5717 -0.0796 -0.3106
 1043TIP3    H1 3135   3.842   4.300   3.452  0.7871  0.8018 -2.3678
 1043TIP3    H2 3136   3.993   4.301   3.438  1.2585 -0.7551  1.4494
 1044TIP3   OH2 3137   3.778   2.452   0.121 -0.1872 -0.2383 -0.4026
 1044TIP3    H1 3138   3.748   2.442   0.211 -1.8268  0.1762 -0.8652
 1044TIP3    H2 3139   3.784   2.362   0.087  0.3698 -0.3893  0.0849
 1045TIP3   OH2 3140   1.528   1.277   0.059  0.7614  0.1762 -0.1820
 1045TIP3    H1 3141   1.498   1.349   0.004  1.4678 -0.1516 -1.0134
 1045TIP3    H2 3142   1.538   1.203  -0.001  1.3199 -0.2555  0.4226
 1046TIP3   OH2 3143   5.553   1.413   2.429 -0.1629  0.4337  0.6669
 1046TIP3    H1 3144   5.533   1.320   2.429  0.7696  0.1648 -1.2818
 1046TIP3    H2 3145   5.588   1.431   2.516  2.7280 -1.8215  0.1432
 1047TIP3   OH2 3146   2.404   5.381   0.511 -0.3345  0.9851  0.2444
 1047TIP3    H1 3147   2.360   5.354   0.430  0.6774 -0.6133  0.1809
 1047TIP3    H2 3148   2.352   5.454   0.544 -0.8325  1.6197 -1.7968
 1048TIP3   OH2 3149   3.789   3.326   3.727  0.8606  0.0376  0.1694
 1048TIP3    H1 3150   3.762   3.352   3.639 -1.0385  1.2618  1.0296
 1048TIP3    H2 3151   3.708   3.328   3.779  2.0195  0.0597  2.1058
 1049TIP3   OH2 3152   0.373   0.164   3.443  0.2560 -0.5178  0.0490
 1049TIP3    H1 3153   0.467   0.146   3.438  0.2852 -0.0397 -2.2817
 1049TIP3    H2 3154   0.331   0.081   3.424  0.1857 -0.6157  0.5974
 1050TIP3   OH2 3155   2.564   4.141   2.960  0.4030  0.4621 -0.3358
 1050TIP3    H1 3156   2.584   4.176   3.047 -1.4269 -0.6627  0.6042
 1050TIP3    H2 3157   2.474   4.170   2.944 -0.0106 -1.0856 -0.9329
 1051TIP3   OH2 3158   6.277   1.688   1.965 -0.1517 -0.9647  0.0241
 1051TIP3    H1 3159   6.227   1.627   1.910  0.6460 -1.7784  0.1716
 1051TIP3    H2 3160   6.266   1.654   2.054  1.3635 -1.6813 -0.0403
 1052TIP3   OH2 3161   3.411   2.435   0.773  0.1124  0.3844 -0.4911
 1052TIP3    H1 3162   3.355   2.383   0.715  0.5857 -0.0256 -0.5930
 1052TIP3    H2 3163   3.363   2.439   0.855 -1.2713  2.2463 -1.3193
 1053TIP3   OH2 3164   2.038   1.311   1.639  0.0690 -0.0075 -0.3997
 1053TIP3    H1 3165   2.077   1.230   1.606 -1.3099 -0.3905 -1.1465
 1053TIP3    H2 3166   2.103   1.346   1.700  1.5003 -0.7021 -1.4713
 1054TIP3   OH2 3167   1.869   4.245   1.155 -0.5164  0.7473 -0.5339
 1054TIP3    H1 3168   1.923   4.298   1.097 -1.2689  1.1099 -0.9242
 1054TIP3    H2 3169   1.828   4.308   1.215  0.0790  0.3986  0.2632
 1055TIP3   OH2 3170   2.363   0.566   0.595 -0.2535  0.1970 -0.0797
 1055TIP3    H1 3171   2.315   0.645   0.572 -0.6241 -0.1751 -0.5984
 1055TIP3    H2 3172   2.302   0.494   0.575 -0.7306 -0.1595  2.2800
 1056TIP3   OH2 3173   2.096   4.158   3.330 -0.0598  0.2112  0.1828
 1056TIP3    H1 3174   2.097   4.154   3.425 -1.1406  1.6420  0.2904
 1056TIP3    H2 3175   2.171   4.214   3.307 -0.9753  1.5620  0.3535
 1057TIP3   OH2 3176   4.861   0.126   2.470  0.4950 -0.5743  0.6123
 1057TIP3    H1 3177   4.807   0.142   2.393 -0.2627  0.3729  1.3258
 1057TIP3    H2 3178   4.935   0.074   2.437  1.1390  1.3144 -1.1044
 1058TIP3   OH2 3179   4.717   0.286   4.969  0.4829  0.2673 -0.2989
 1058TIP3    H1 3180   4.724   0.328   4.883  0.2363  1.7115  0.3576
 1058TIP3    H2 3181   4.754   0.199   4.956  0.2307  0.3630 -1.9273
 1059TIP3   OH2 3182   4.671   3.802   0.504 -0.0774 -0.3278  0.3808
 1059TIP3    H1 3183   4.578   3.815   0.488  0.4659  1.5764 -1.7386
 1059TIP3    H2 3184   4.694   3.870   0.568 -0.0991 -0.7329  0.8264
 1060TIP3   OH2 3185   4.938   0.674   0.507  0.1568 -0.1018 -0.5165
 1060TIP3    H1 3186   5.003   0.650   0.441  1.8482  1.3482  0.5527
 1060TIP3    H2 3187   4.884   0.595   0.516  2.1751 -1.6170 -0.9457
 1061TIP3   OH2 3188   6.010   4.839   3.803 -0.1799 -0.2517  0.0803
 1061TIP3    H1 3189   5.944   4.769   3.801  0.9121 -1.3223 -2.0007
 1061TIP3    H2 3190   6.093   4.793   3.809  0.4790  1.0402  1.5431
 1062TIP3   OH2 3191   3.032   4.410   1.961 -0.3067 -0.2725  0.5393
 1062TIP3    H1 3192   3.061   4.323   1.933 -1.6918 -0.4960 -0.2531
 1062TIP3    H2 3193   3.100   4.469   1.929 -0.1041 -0.9117 -0.2417
 1063TIP3   OH2 3194   5.894   5.264   3.378 -0.1482  0.0258  0.1970
 1063TIP3    H1 3195   5.900   5.251   3.283  0.8018  0.8834  0.1194
 1063TIP3    H2 3196   5.964   5.211   3.415 -1.3529 -1.3619  0.5504
 1064TIP3   OH2 3197   4.975   5.236   0.192  0.0641  0.4922  0.1012
 1064TIP3    H1 3198   4.977   5.315   0.246  0.0341  0.6586 -0.1398
 1064TIP3    H2 3199   5.015   5.169   0.246 -0.0797  0.6298  0.3788
 1065TIP3   OH2 3200   0.310   2.827   0.854 -0.2294 -0.4539  0.3545
 1065TIP3    H1 3201   0.351   2.821   0.941  1.7055 -0.4756 -0.4949
 1065TIP3    H2 3202   0.368   2.887   0.806 -1.1617 -0.6029 -0.9852
 1066TIP3   OH2 3203   4.465   0.991   1.931 -0.1101  0.3392  0.2102
 1066TIP3    H1 3204   4.471   0.906   1.887 -0.6774  0.5785 -0.3570
 1066TIP3    H2 3205   4.380   0.988   1.976  0.6097 -0.0255  1.5728
 1067TIP3   OH2 3206   3.043   0.432   0.323  0.4632  0.0164 -0.1613
 1067TIP3    H1 3207   3.047   0.339   0.301 -0.6514  0.1112 -0.8238
 1067TIP3    H2 3208   2.986   0.471   0.256  3.1281  1.7080 -1.6473
 1068TIP3   OH2 3209   0.130   5.561   2.282  0.2467 -0.1184  0.0333
 1068TIP3    H1 3210   0.137   5.513   2.200  2.9103 -2.5092  1.4668
 1068TIP3    H2 3211   0.157   5.650   2.260  2.6605 -1.1089 -1.4668
 1069TIP3   OH2 3212   5.217   5.021   1.490 -0.1573  0.2358 -0.3077
 1069TIP3    H1 3213   5.262   5.066   1.419 -2.9647  0.6847 -1.9534
 1069TIP3    H2 3214   5.225   5.079   1.565  0.2568  1.2581 -1.1225
 1070TIP3   OH2 3215   1.590   1.546   4.170  0.3090  0.0103 -0.1246
 1070TIP3    H1 3216   1.516   1.514   4.118  0.1857  0.2206 -0.0817
 1070TIP3    H2 3217   1.554   1.559   4.257 -0.2467  2.3683 -0.6229
 1071TIP3   OH2 3218   4.657   0.670   4.314  0.0304  0.5975  0.2409
 1071TIP3    H1 3219   4.649   0.704   4.224  1.4977  1.4688  0.4113
 1071TIP3    H2 3220   4.741   0.704   4.345  0.5954 -1.5127  1.1831
 1072TIP3   OH2 3221   1.343   3.966   4.982  0.3766 -0.0560 -0.1815
 1072TIP3    H1 3222   1.433   3.933   4.975  0.3828  0.0025 -0.3929
 1072TIP3    H2 3223   1.317   3.946   5.072  0.9609  0.8193  0.2042
 1073TIP3   OH2 3224   0.002   2.919   2.819 -0.8415  0.4599 -0.0088
 1073TIP3    H1 3225  -0.004   2.828   2.847 -0.7122  0.8029  1.1561
 1073TIP3    H2 3226   0.016   2.914   2.724 -0.9823 -0.7231  0.0246
 1074TIP3   OH2 3227   3.697   3.904   3.545  0.5578  0.1320  0.3427
 1074TIP3    H1 3228   3.637   3.845   3.499  0.3032  1.6904 -1.4630
 1074TIP3    H2 3229   3.690   3.879   3.637 -2.0487 -0.4486  0.0629
 1075TIP3   OH2 3230   0.175   3.069   0.863 -1.2139 -0.3014  0.0749
 1075TIP3    H1 3231   0.199   3.006   0.931 -1.6796 -0.0245  0.5020
 1075TIP3    H2 3232   0.240   3.055   0.793 -0.2117 -0.0040  0.9252
 1076TIP3   OH2 3233   1.449   3.043   1.573 -0.0216  0.0816  0.5932
 1076TIP3    H1 3234   1.361   3.006   1.573 -0.1067  0.2641 -0.4185
 1076TIP3    H2 3235   1.464   3.068   1.664  0.0318 -2.3650  1.3367
 1077TIP3   OH2 3236   2.821   3.515   3.036 -0.5151  0.1640  0.0517
 1077TIP3    H1 3237   2.818   3.424   3.065  1.7773  0.7911  2.6736
 1077TIP3    H2 3238   2.733   3.532   3.000 -1.7536 -2.3930  1.6159
 1078TIP3   OH2 3239   4.389   5.924   5.105 -0.1844 -0.3862 -0.1947
 1078TIP3    H1 3240   4.347   5.952   5.185 -1.7704 -1.6509 -0.5292
 1078TIP3    H2 3241   4.418   6.004   5.062 -0.6071  0.3837  0.9423
 1079TIP3   OH2 3242   1.860   1.962   3.332  0.2253 -0.5504  0.7941
 1079TIP3    H1 3243   1.831   1.982   3.243 -0.8032 -1.7272  0.8413
 1079TIP3    H2 3244   1.832   1.872   3.347  0.2683 -0.3335  2.3654
 1080TIP3   OH2 3245   1.449   1.136   3.443  0.1412  0.3208 -0.2210
 1080TIP3    H1 3246   1.442   1.133   3.539 -0.4387 -0.6833 -0.2801
 1080TIP3    H2 3247   1.536   1.102   3.425  0.0436 -0.0136 -0.0726
 1081TIP3   OH2 3248   0.924   5.613   4.424 -0.3115 -0.0812 -0.4283
 1081TIP3    H1 3249   0.912   5.564   4.505  0.5575 -0.3880 -0.4719
 1081TIP3    H2 3250   0.939   5.546   4.357  2.5191  0.2237 -0.2122
 1082TIP3   OH2 3251   0.941   4.984   0.366  0.7249 -0.5100 -0.2311
 1082TIP3    H1 3252   0.898   4.993   0.451 -0.0962  0.5306 -0.7267
 1082TIP3    H2 3253   0.976   5.072   0.348  0.4981 -0.5945 -1.1575
 1083TIP3   OH2 3254   2.743   4.077   3.564 -0.2663  0.2427 -0.3200
 1083TIP3    H1 3255   2.685   4.088   3.639  0.3525  0.1147  0.1862
 1083TIP3    H2 3256   2.795   4.000   3.586  2.1219  1.9815  0.6106
 1084TIP3   OH2 3257   4.171   0.273   0.686  0.0607  0.4015 -0.0849
 1084TIP3    H1 3258   4.231   0.321   0.628 -0.2727 -0.0001 -0.7834
 1084TIP3    H2 3259   4.165   0.327   0.764 -0.6669  1.7579 -1.0278
 1085TIP3   OH2 3260   4.154   3.386   1.125 -0.4083 -0.3971  0.1309
 1085TIP3    H1 3261   4.082   3.343   1.080  0.0166  1.1658 -2.2650
 1085TIP3    H2 3262   4.201   3.433   1.056  1.9856 -0.0697  1.8323
 1086TIP3   OH2 3263   1.444   4.627   2.021  0.0126  0.1111 -0.0387
 1086TIP3    H1 3264   1.396   4.627   2.104 -0.2218  0.0051 -0.1724
 1086TIP3    H2 3265   1.535   4.612   2.046 -0.0504  0.1291  0.2041
 1087TIP3   OH2 3266   2.972   0.926   2.656  0.1559 -0.7762 -0.0006
 1087TIP3    H1 3267   2.913   0.868   2.705 -1.2696  0.9473  0.4520
 1087TIP3    H2 3268   2.951   1.014   2.689  1.2768  0.1404 -1.5986
 1088TIP3   OH2 3269   3.801   2.676   0.385 -0.1847 -0.1109  0.1827
 1088TIP3    H1 3270   3.832   2.723   0.463  2.2964 -0.6627 -0.3694
 1088TIP3    H2 3271   3.852   2.595   0.385  0.4074  0.1787 -2.3510
 1089TIP3   OH2 3272   3.818   1.252   1.523  0.0474  0.3103 -0.0889
 1089TIP3    H1 3273   3.795   1.251   1.430  0.0243 -0.8693 -0.0880
 1089TIP3    H2 3274   3.893   1.193   1.529  0.1316  0.4881  0.6242
 1090TIP3   OH2 3275   3.295   1.554   3.269 -0.6105 -0.0442 -0.1103
 1090TIP3    H1 3276   3.258   1.630   3.313 -1.6465 -1.0494  0.7870
 1090TIP3    H2 3277   3.272   1.566   3.177 -1.9094  0.0717  0.2233
 1091TIP3   OH2 3278   2.830   5.603   5.117  0.0588  0.4246 -0.1167
 1091TIP3    H1 3279   2.756   5.544   5.127  0.4897 -0.2133 -0.5335
 1091TIP3    H2 3280   2.897   5.568   5.176  0.6698 -0.1208 -1.0959
 1092TIP3   OH2 3281   2.463   0.150   2.302 -0.3119 -0.5452 -0.1568
 1092TIP3    H1 3282   2.526   0.086   2.334  1.6608  1.9862  1.4129
 1092TIP3    H2 3283   2.397   0.156   2.371  0.4119  0.2699  0.4784
 1093TIP3   OH2 3284   5.896   2.600   2.978 -0.5398  0.4129  0.5708
 1093TIP3    H1 3285   5.947   2.627   2.902 -1.7639 -0.6455 -0.6885
 1093TIP3    H2 3286   5.860   2.514   2.953  0.8419 -1.0749  3.2127
 1094TIP3   OH2 3287   2.842   2.557   5.074 -0.0047  0.6502  0.4823
 1094TIP3    H1 3288   2.797   2.620   5.018 -1.6267  1.3079  2.4091
 1094TIP3    H2 3289   2.811   2.472   5.044  1.6935  0.7049 -1.7054
 1095TIP3   OH2 3290   5.926   1.365   1.103 -0.0152 -0.5301 -0.5519
 1095TIP3    H1 3291   5.858   1.331   1.044 -0.3393 -0.4800 -0.2153
 1095TIP3    H2 3292   5.945   1.292   1.162 -0.5062 -0.2266 -0.0084
 1096TIP3   OH2 3293   6.114   0.500   2.593  0.0130  0.0266  0.0773
 1096TIP3    H1 3294   6.111   0.471   2.684 -0.7704 -2.7912 -0.7278
 1096TIP3    H2 3295   6.186   0.450   2.554 -1.0695 -0.5366 -1.3140
 1097TIP3   OH2 3296   2.021   1.293   2.526  0.3154  0.7085  0.7720
 1097TIP3    H1 3297   2.114   1.288   2.502 -0.0522  0.3006 -0.6809
 1097TIP3    H2 3298   2.021   1.297   2.621  1.6863 -3.9960  1.2304
 1098TIP3   OH2 3299   6.261   0.478   4.537  0.6392 -0.1655 -0.0181
 1098TIP3    H1 3300   6.277   0.549   4.475  0.8399  0.6206  0.9038
 1098TIP3    H2 3301   6.244   0.401   4.483 -0.7033  0.8171 -1.0522
 1099TIP3   OH2 3302   4.695   3.115   1.545  0.6348  0.2170 -0.1697
 1099TIP3    H1 3303   4.731   3.032   1.512  1.2525  0.2458  0.4127
 1099TIP3    H2 3304   4.612   3.125   1.498 -0.2875 -1.5626  0.9486
 1100TIP3   OH2 3305   5.664   4.180   3.816  0.4075  0.3790 -0.6895
 1100TIP3    H1 3306   5.756   4.161   3.799  0.6407  0.8962 -0.0105
 1100TIP3    H2 3307   5.623   4.175   3.729  1.1467  0.5921 -1.0603
 1101TIP3   OH2 3308   2.356   0.570   1.653  0.2937  0.8503 -0.2324
 1101TIP3    H1 3309   2.302   0.649   1.651  0.0570  0.6867 -0.5248
 1101TIP3    H2 3310   2.387   0.560   1.562  1.1977  1.2007  0.0289
 1102TIP3   OH2 3311   1.007   0.778   3.406  0.3195 -0.0688 -0.2736
 1102TIP3    H1 3312   1.100   0.785   3.425  0.2697  0.1687 -0.1089
 1102TIP3    H2 3313   0.992   0.841   3.335  0.1773  0.3079  0.0897
 1103TIP3   OH2 3314   0.241   1.034   2.999 -0.4199 -0.3831  0.0928
 1103TIP3    H1 3315   0.294   1.065   2.926  0.3966 -0.6125  0.5772
 1103TIP3    H2 3316   0.304   1.007   3.065 -1.1361 -0.9682  0.5582
 1104TIP3   OH2 3317   3.227   3.364   0.591  0.0669 -0.0870 -0.2085
 1104TIP3    H1 3318   3.152   3.424   0.582  0.4191  0.1877 -1.4335
 1104TIP3    H2 3319   3.192   3.279   0.564 -0.0444 -0.1542  0.1356
 1105TIP3   OH2 3320   0.741   5.159   2.303  0.1145  0.2704  0.0110
 1105TIP3    H1 3321   0.727   5.139   2.210 -0.3219  1.1345 -0.1240
 1105TIP3    H2 3322   0.741   5.074   2.346  0.8899 -0.1856 -0.8513
 1106TIP3   OH2 3323   2.780   0.419   4.595 -0.0863 -0.2328  0.4147
 1106TIP3    H1 3324   2.827   0.496   4.627 -0.7963  0.5116 -0.2641
 1106TIP3    H2 3325   2.766   0.437   4.502 -0.5569 -1.0331  0.3204
 1107TIP3   OH2 3326   5.264   0.098   2.591 -0.4655  0.2208 -0.3207
 1107TIP3    H1 3327   5.209   0.043   2.646 -0.0802  0.4952  0.3564
 1107TIP3    H2 3328   5.307   0.037   2.531 -2.1175  0.0934 -1.4252
 1108TIP3   OH2 3329   1.503   4.204   1.134 -0.7287 -0.4580 -0.5845
 1108TIP3    H1 3330   1.522   4.173   1.223  0.3268 -2.0885 -1.3091
 1108TIP3    H2 3331   1.494   4.123   1.083  2.6504  0.3019 -2.7188
 1109TIP3   OH2 3332   5.694   5.730   2.658 -0.0981 -0.0174 -0.0806
 1109TIP3    H1 3333   5.699   5.795   2.588 -0.2475  1.2939  1.0834
 1109TIP3    H2 3334   5.739   5.771   2.732 -2.5582 -0.0547  1.5494
 1110TIP3   OH2 3335   5.983   4.722   3.474  0.1598  0.5738 -0.1029
 1110TIP3    H1 3336   5.924   4.689   3.543  1.7944 -1.3667  0.4811
 1110TIP3    H2 3337   5.959   4.672   3.396 -1.0337  2.0755 -0.7521
 1111TIP3   OH2 3338   4.945   4.306   1.366 -0.0529 -0.3761  0.4898
 1111TIP3    H1 3339   4.867   4.348   1.330 -0.0850 -0.8743 -0.0335
 1111TIP3    H2 3340   5.011   4.375   1.369 -0.1799 -0.2261 -0.1276
 1112TIP3   OH2 3341   4.518   5.350   3.308  0.7371  0.6694  0.0263
 1112TIP3    H1 3342   4.468   5.315   3.382  2.0309 -0.1256  0.5532
 1112TIP3    H2 3343   4.609   5.348   3.337  1.0717  2.3575 -0.8120
 1113TIP3   OH2 3344   0.606   2.375   4.815 -0.1437  0.7386 -0.4126
 1113TIP3    H1 3345   0.632   2.445   4.874 -1.5353  1.2880 -0.4188
 1113TIP3    H2 3346   0.512   2.388   4.802  0.0491  0.4440 -2.4747
 1114TIP3   OH2 3347   1.736   1.295   3.863  0.0731 -0.0767 -0.9302
 1114TIP3    H1 3348   1.825   1.258   3.858 -0.1632 -1.4653  2.1770
 1114TIP3    H2 3349   1.746   1.374   3.915 -0.5668 -0.7701  0.3025
 1115TIP3   OH2 3350   4.629   3.427   1.792 -0.3670  0.5053 -0.5881
 1115TIP3    H1 3351   4.593   3.505   1.834 -1.5972 -0.4037  0.1258
 1115TIP3    H2 3352   4.562   3.399   1.730 -0.3289 -0.4358 -0.2349
 1116TIP3   OH2 3353   3.937   0.971   3.406  0.2663  0.2759  0.0292
 1116TIP3    H1 3354   4.013   1.000   3.457 -0.1826 -0.8264  1.3990
 1116TIP3    H2 3355   3.924   0.880   3.432  0.5754 -0.6878 -2.8314
 1117TIP3   OH2 3356   3.398   5.285   0.896 -0.3726 -0.1510 -0.6389
 1117TIP3    H1 3357   3.319   5.258   0.941  1.1426  1.1616  3.2753
 1117TIP3    H2 3358   3.426   5.365   0.942  3.9658 -1.3592 -0.6768
 1118TIP3   OH2 3359   0.005   2.590   1.636  0.0266  0.0779  0.7812
 1118TIP3    H1 3360   0.082   2.586   1.693 -0.7840 -1.5316  1.8234
 1118TIP3    H2 3361  -0.069   2.603   1.695 -0.5330  1.7955 -0.2188
 1119TIP3   OH2 3362   4.554   1.312   1.605  0.4001  0.0965  0.1046
 1119TIP3    H1 3363   4.645   1.317   1.575  1.2040  2.7785  2.5134
 1119TIP3    H2 3364   4.512   1.391   1.570 -0.0463  0.5733  1.6137
 1120TIP3   OH2 3365   3.356   3.881   2.302 -0.6045 -0.2514 -0.1251
 1120TIP3    H1 3366   3.380   3.860   2.392 -0.2716  0.0577 -0.1394
 1120TIP3    H2 3367   3.380   3.974   2.292 -0.4238 -0.3460 -0.6007
 1121TIP3   OH2 3368   0.737   5.084   4.923  0.5794 -0.0963  0.2980
 1121TIP3    H1 3369   0.826   5.074   4.888 -0.2489 -1.4926 -1.6216
 1121TIP3    H2 3370   0.730   5.014   4.989  1.3569  1.0089  1.6168
 1122TIP3   OH2 3371   5.465   5.069   2.331  0.5748  0.4424  0.2539
 1122TIP3    H1 3372   5.409   5.025   2.396 -1.5195  0.3017 -1.5192
 1122TIP3    H2 3373   5.481   5.002   2.264  0.3349  1.3519 -0.7325
 1123TIP3   OH2 3374   1.654   2.771   3.431  0.0239 -0.1158  0.2310
 1123TIP3    H1 3375   1.561   2.761   3.453 -0.1930  1.4604  0.1219
 1123TIP3    H2 3376   1.655   2.823   3.351  0.9955 -0.1861  0.1841
 1124TIP3   OH2 3377   3.879   0.457   2.733 -0.1259  0.2195  0.2754
 1124TIP3    H1 3378   3.946   0.438   2.798  1.3411  1.8859 -0.6481
 1124TIP3    H2 3379   3.867   0.552   2.738 -1.0170  0.2029 -0.9115
 1125TIP3   OH2 3380   3.557   2.226   1.612 -0.3242  0.0367 -0.2782
 1125TIP3    H1 3381   3.476   2.252   1.569 -0.8213  0.7647  1.0326
 1125TIP3    H2 3382   3.627   2.260   1.556 -0.8815 -1.0209 -1.6815
 1126TIP3   OH2 3383   0.616   1.815   0.638 -0.3247 -0.3014  0.4529
 1126TIP3    H1 3384   0.569   1.897   0.627 -1.1449 -0.7402  0.6320
 1126TIP3    H2 3385   0.548   1.750   0.656  0.3361 -0.9684  0.6011
 1127TIP3   OH2 3386   4.439   0.660   2.816  0.0321  0.4144 -0.4095
 1127TIP3    H1 3387   4.469   0.570   2.829 -1.0542  0.0939 -0.0570
 1127TIP3    H2 3388   4.349   0.651   2.784 -0.0246  1.3732 -0.5426
 1128TIP3   OH2 3389   2.553   0.185   1.265 -0.8058  0.6535 -0.4119
 1128TIP3    H1 3390   2.519   0.261   1.217 -0.6289  0.6864 -0.4850
 1128TIP3    H2 3391   2.620   0.148   1.207 -2.1389 -0.6388 -1.2294
 1129TIP3   OH2 3392   5.834   3.334   1.359 -0.3732  0.3067  0.1927
 1129TIP3    H1 3393   5.920   3.296   1.376  0.4218  2.1200  0.3743
 1129TIP3    H2 3394   5.772   3.269   1.394  0.8725 -1.1727 -0.2313
 1130TIP3   OH2 3395   5.219   5.860   1.474 -0.0849  0.4746 -0.9091
 1130TIP3    H1 3396   5.282   5.865   1.402  0.9748 -1.8652 -0.2567
 1130TIP3    H2 3397   5.201   5.951   1.497  0.4615  1.2663 -3.3039
 1131TIP3   OH2 3398   1.574   0.995   2.941  0.1030 -0.1473 -0.0122
 1131TIP3    H1 3399   1.519   1.063   2.981 -0.2140 -0.5486  0.2555
 1131TIP3    H2 3400   1.657   1.002   2.987 -0.2776 -0.6428  0.7875
 1132TIP3   OH2 3401   1.931   2.814   4.194 -0.7164 -0.0262 -0.1856
 1132TIP3    H1 3402   1.969   2.883   4.249  0.1627 -1.0256  0.5037
 1132TIP3    H2 3403   1.856   2.782   4.245 -1.8287  1.1415 -1.0133
 1133TIP3   OH2 3404   0.965   2.806   1.124  0.8740 -0.3462  0.1813
 1133TIP3    H1 3405   0.948   2.897   1.099 -1.3182 -1.1115 -1.4611
 1133TIP3    H2 3406   0.997   2.765   1.044 -0.1620 -1.4565  0.3120
 1134TIP3   OH2 3407   3.825   4.948   3.022  0.2363  0.0011 -0.3826
 1134TIP3    H1 3408   3.868   5.013   2.966  0.1592  0.9128  0.5704
 1134TIP3    H2 3409   3.835   4.983   3.111  0.0185 -1.2083  0.1404
 1135TIP3   OH2 3410   2.674   5.529   3.250 -0.0239 -0.1187  0.6655
 1135TIP3    H1 3411   2.735   5.581   3.302  0.2324 -0.3110  0.5644
 1135TIP3    H2 3412   2.722   5.448   3.231  0.0499  0.1212 -0.2236
 1136TIP3   OH2 3413   4.895   0.628   2.730  0.2034 -0.2461  0.0169
 1136TIP3    H1 3414   4.934   0.676   2.656 -0.5569 -0.4131 -0.5083
 1136TIP3    H2 3415   4.867   0.544   2.692 -0.0818 -0.3815  0.5194
 1137TIP3   OH2 3416   3.672   1.787   3.251  0.6495  0.5263  0.0004
 1137TIP3    H1 3417   3.613   1.712   3.242 -0.0563  0.9431  1.0212
 1137TIP3    H2 3418   3.615   1.863   3.243  1.4604  1.0088 -1.8085
 1138TIP3   OH2 3419   2.730   5.548   3.627  0.2784  0.0491 -0.1061
 1138TIP3    H1 3420   2.673   5.497   3.569 -0.2519  1.0269 -0.4634
 1138TIP3    H2 3421   2.732   5.499   3.709 -2.7514  1.0046  0.6393
 1139TIP3   OH2 3422   3.385   0.290   2.440 -0.5098 -0.5273 -0.1749
 1139TIP3    H1 3423   3.421   0.201   2.443  1.3825  0.2044 -0.1138
 1139TIP3    H2 3424   3.461   0.347   2.447 -1.6576  1.1171 -0.5737
 1140TIP3   OH2 3425   2.732   1.289   4.762 -0.2300 -0.3678  0.3094
 1140TIP3    H1 3426   2.814   1.252   4.796  0.4262  0.9065  0.2006
 1140TIP3    H2 3427   2.676   1.298   4.839  0.7129  1.1519  0.8755
 1141TIP3   OH2 3428   1.403   2.316   0.638  0.0337  0.9536 -0.1075
 1141TIP3    H1 3429   1.490   2.343   0.611  0.5626  0.4949  1.0419
 1141TIP3    H2 3430   1.419   2.258   0.713 -1.1080 -1.1999 -1.4239
 1142TIP3   OH2 3431   0.297   5.335   2.595  0.6125  0.0984 -0.1892
 1142TIP3    H1 3432   0.217   5.335   2.543  0.9266 -1.1123 -0.7161
 1142TIP3    H2 3433   0.364   5.371   2.536  0.3194  1.9943  0.5520
 1143TIP3   OH2 3434   5.545   3.250   1.003 -0.0747  0.3722  0.3597
 1143TIP3    H1 3435   5.557   3.168   0.955  0.1269  0.5893  0.0340
 1143TIP3    H2 3436   5.571   3.318   0.941 -0.5513  0.7034  0.5216
 1144TIP3   OH2 3437   3.467   4.538   3.327  0.4801 -0.0752  0.0604
 1144TIP3    H1 3438   3.481   4.559   3.235 -0.0601 -0.1669 -0.0497
 1144TIP3    H2 3439   3.433   4.619   3.365  1.4004  0.1851  0.3509
 1145TIP3   OH2 3440   5.836   4.797   3.222  0.2252 -0.2599  0.1161
 1145TIP3    H1 3441   5.859   4.707   3.200 -0.4584 -0.2158 -0.8570
 1145TIP3    H2 3442   5.895   4.821   3.293  0.4286 -1.4656  0.3713
 1146TIP3   OH2 3443   1.312   1.134   2.987 -0.6393 -0.4132 -0.8402
 1146TIP3    H1 3444   1.341   1.185   3.062 -0.1242  0.2902 -1.5108
 1146TIP3    H2 3445   1.325   1.191   2.912 -1.8001 -0.8508 -1.4035
 1147TIP3   OH2 3446   2.262   4.306   4.198  0.0297 -0.3098 -0.5955
 1147TIP3    H1 3447   2.318   4.316   4.121  2.2139 -0.7650  0.8449
 1147TIP3    H2 3448   2.259   4.393   4.237  0.0923 -0.3775 -0.4387
 1148TIP3   OH2 3449   5.105   3.529   3.610  0.0301  0.3904  0.5741
 1148TIP3    H1 3450   5.145   3.461   3.664  2.6217  1.7775  0.5459
 1148TIP3    H2 3451   5.013   3.528   3.634 -0.2027 -3.5387  0.1054
 1149TIP3   OH2 3452   4.559   2.508   1.776  0.7143 -0.3368 -0.1269
 1149TIP3    H1 3453   4.533   2.426   1.819  2.8664 -0.9280  0.1471
 1149TIP3    H2 3454   4.552   2.574   1.845  1.0012 -0.6909  0.2515
 1150TIP3   OH2 3455   0.031   1.005   3.755  0.1767 -0.4252 -0.2354
 1150TIP3    H1 3456   0.071   1.052   3.828 -1.0344  0.5561 -0.1704
 1150TIP3    H2 3457   0.035   0.912   3.781  2.1071 -0.3413 -0.1257
 1151TIP3   OH2 3458   5.090   4.535   4.854 -0.7293 -0.6251  0.2277
 1151TIP3    H1 3459   5.002   4.513   4.823 -0.5974 -0.5939 -0.1750
 1151TIP3    H2 3460   5.081   4.622   4.891 -0.9304 -0.7407  0.4545
 1152TIP3   OH2 3461   5.064   1.009   0.690 -0.0038  0.3418 -0.6853
 1152TIP3    H1 3462   5.143   0.973   0.648  0.9213  2.0072 -0.4771
 1152TIP3    H2 3463   5.011   1.042   0.617 -1.0397 -1.6666 -0.9097
 1153TIP3   OH2 3464   5.430   5.311   5.023  0.6678 -0.2500  0.2985
 1153TIP3    H1 3465   5.420   5.336   4.931 -1.5422  0.2002  0.5987
 1153TIP3    H2 3466   5.522   5.288   5.032  0.7375 -1.2633 -2.2584
 1154TIP3   OH2 3467   4.037   2.077   1.173  0.1783  0.8219 -0.2132
 1154TIP3    H1 3468   4.130   2.054   1.165  0.6955  2.3231  0.9331
 1154TIP3    H2 3469   4.030   2.163   1.131 -1.1683 -0.1520 -2.1596
 1155TIP3   OH2 3470   3.133   0.732   5.125 -0.1442  0.2720 -0.4748
 1155TIP3    H1 3471   3.173   0.803   5.175  1.0267 -0.4187 -0.3942
 1155TIP3    H2 3472   3.089   0.678   5.191  0.7153 -0.1915 -0.2555
 1156TIP3   OH2 3473   2.274   3.489   4.752 -0.1795 -0.4041 -0.0797
 1156TIP3    H1 3474   2.256   3.549   4.679  0.9361  1.6531  1.2592
 1156TIP3    H2 3475   2.199   3.498   4.810 -0.2113 -0.6570 -0.0775
 1157TIP3   OH2 3476   5.274   1.858   2.232 -0.3108  0.3158 -0.3515
 1157TIP3    H1 3477   5.302   1.862   2.140 -0.5077  1.4846 -0.3733
 1157TIP3    H2 3478   5.302   1.941   2.269  1.7557 -0.9949  1.2486
 1158TIP3   OH2 3479   0.713   3.126   3.392  0.4580 -0.1830  0.1447
 1158TIP3    H1 3480   0.726   3.031   3.399 -0.4452 -0.5962 -2.6385
 1158TIP3    H2 3481   0.790   3.158   3.346 -0.0187  0.1418 -0.4464
 1159TIP3   OH2 3482   0.461   0.711   1.559  0.4778  0.4841 -0.1902
 1159TIP3    H1 3483   0.472   0.645   1.627 -0.5217 -0.0494 -0.5313
 1159TIP3    H2 3484   0.524   0.779   1.582  1.6762 -0.6683  0.0440
 1160TIP3   OH2 3485   4.772   2.621   1.995 -0.3882  0.0244 -0.2111
 1160TIP3    H1 3486   4.814   2.590   1.915  0.0304 -1.0832  0.4178
 1160TIP3    H2 3487   4.823   2.697   2.022 -0.3065  0.1783 -0.7922
 1161TIP3   OH2 3488   4.303   0.129   4.481 -1.0371  0.2400 -0.2666
 1161TIP3    H1 3489   4.337   0.218   4.479  1.0453 -0.5154 -1.3413
 1161TIP3    H2 3490   4.247   0.122   4.404 -1.7953  0.8013  0.2177
 1162TIP3   OH2 3491   3.312   2.214   4.827  0.2920  0.8277 -0.0558
 1162TIP3    H1 3492   3.329   2.226   4.734 -2.5544 -0.4331 -0.8565
 1162TIP3    H2 3493   3.218   2.231   4.837 -0.5585 -3.4743  1.6287
 1163TIP3   OH2 3494   5.229   5.451   4.240  0.4854  0.1433  0.3901
 1163TIP3    H1 3495   5.268   5.526   4.284  0.6170 -0.8207  2.0453
 1163TIP3    H2 3496   5.139   5.478   4.219  0.9422  1.1851 -0.2424
 1164TIP3   OH2 3497   0.031   1.770   3.435 -0.1379  0.5139  0.2758
 1164TIP3    H1 3498   0.126   1.763   3.433 -0.1109  0.8822  0.1962
 1164TIP3    H2 3499   0.002   1.743   3.348 -0.0868  0.6963  0.2033
 1165TIP3   OH2 3500   0.720   4.241   4.230 -0.0382 -0.6914 -0.4157
 1165TIP3    H1 3501   0.633   4.245   4.191  0.0532 -0.1371 -0.5768
 1165TIP3    H2 3502   0.729   4.323   4.279  0.0235 -1.1779  0.4093
 1166TIP3   OH2 3503   4.783   5.188   0.744  0.1629 -0.3610 -0.6720
 1166TIP3    H1 3504   4.807   5.104   0.784  0.5340 -0.1602 -0.4577
 1166TIP3    H2 3505   4.787   5.250   0.817 -1.2650 -0.3491 -0.5791
 1167TIP3   OH2 3506   0.161   2.573   2.103  0.3622  0.0037 -0.5239
 1167TIP3    H1 3507   0.213   2.509   2.152 -0.5703 -0.8403 -0.5864
 1167TIP3    H2 3508   0.178   2.551   2.011 -1.7310 -1.7294 -0.5688
 1168TIP3   OH2 3509   1.773   4.815   4.824 -0.1838  0.3951 -0.5516
 1168TIP3    H1 3510   1.790   4.864   4.904  1.7836  0.3428 -0.8771
 1168TIP3    H2 3511   1.678   4.818   4.813 -0.3118  2.1726  0.6574
 1169TIP3   OH2 3512   1.879   3.423   0.528 -0.2580 -0.4600 -0.4354
 1169TIP3    H1 3513   1.864   3.409   0.622  0.0756  1.8437  0.0175
 1169TIP3    H2 3514   1.801   3.388   0.486 -0.7403 -0.8655  0.7516
 1170TIP3   OH2 3515   2.610   0.978   4.313 -0.4338 -0.3904  0.1677
 1170TIP3    H1 3516   2.588   0.917   4.383  0.9444  1.0405  1.9307
 1170TIP3    H2 3517   2.619   1.063   4.356 -0.5360  0.7621 -1.9206
 1171TIP3   OH2 3518   4.549   1.318   2.391  0.4570 -0.4151  0.5191
 1171TIP3    H1 3519   4.524   1.270   2.312 -2.3236 -0.9493  1.6312
 1171TIP3    H2 3520   4.601   1.255   2.441  0.9296 -0.5920 -0.1773
 1172TIP3   OH2 3521   2.514   4.443   4.963 -0.1340  0.0143  0.0119
 1172TIP3    H1 3522   2.533   4.518   5.019 -0.2763 -0.3052  0.4966
 1172TIP3    H2 3523   2.419   4.438   4.962 -0.1142 -1.1537  1.3437
 1173TIP3   OH2 3524   5.229   2.910   1.591  0.6060  0.3450 -0.3778
 1173TIP3    H1 3525   5.157   2.868   1.545  1.3316  0.3828 -1.5666
 1173TIP3    H2 3526   5.300   2.846   1.591  0.1406 -0.2716  2.0872
 1174TIP3   OH2 3527   0.699   4.638   2.376  0.7210  0.1575 -0.1181
 1174TIP3    H1 3528   0.607   4.612   2.384  0.5461  0.4062 -1.1729
 1174TIP3    H2 3529   0.748   4.563   2.409  0.1535 -0.2656 -0.2279
 1175TIP3   OH2 3530   1.614   4.709   4.144 -0.5110 -0.1846  0.1179
 1175TIP3    H1 3531   1.635   4.681   4.055 -1.7166 -1.3834  0.1797
 1175TIP3    H2 3532   1.540   4.769   4.133  0.9235  1.6534  0.1362
 1176TIP3   OH2 3533   1.242   1.557   1.958  0.5334  0.0120  0.4359
 1176TIP3    H1 3534   1.235   1.545   2.053 -0.5226 -1.2751  0.2063
 1176TIP3    H2 3535   1.158   1.594   1.932  0.7275  0.1266 -0.0428
 1177TIP3   OH2 3536   0.518   4.155   0.675 -0.6808 -1.1405 -0.4991
 1177TIP3    H1 3537   0.440   4.166   0.620 -0.2540 -0.3831 -0.9722
 1177TIP3    H2 3538   0.558   4.074   0.643  0.0981 -0.2112 -2.0232
 1178TIP3   OH2 3539   6.012   3.884   4.768  0.1208 -0.1797  0.0292
 1178TIP3    H1 3540   5.918   3.875   4.781 -0.1027  1.0984 -0.5822
 1178TIP3    H2 3541   6.039   3.949   4.832  0.7825 -1.2488  0.8717
 1179TIP3   OH2 3542   0.040   3.853   2.270 -0.1792  0.4342 -0.1819
 1179TIP3    H1 3543   0.104   3.901   2.323  1.0005  0.7740 -1.8267
 1179TIP3    H2 3544   0.031   3.769   2.315 -0.8512  1.4735  1.7004
 1180TIP3   OH2 3545   1.134   2.870   3.699 -0.1431 -0.2873  0.1908
 1180TIP3    H1 3546   1.100   2.874   3.610 -0.7645  2.9877  0.4484
 1180TIP3    H2 3547   1.064   2.830   3.750 -0.8514  0.2463 -0.3548
 1181TIP3   OH2 3548   2.163   5.199   4.761  0.0672  0.1298 -0.2849
 1181TIP3    H1 3549   2.106   5.236   4.693  0.6073  0.1494 -0.7388
 1181TIP3    H2 3550   2.237   5.260   4.765  1.2631 -1.1730 -1.4591
 1182TIP3   OH2 3551   3.211   5.963   1.280 -0.2773 -0.3585  0.3549
 1182TIP3    H1 3552   3.176   5.973   1.192 -1.2423  1.6791  0.8945
 1182TIP3    H2 3553   3.306   5.964   1.269 -0.3629 -1.6065 -0.7518
 1183TIP3   OH2 3554   0.184   4.721   0.961  0.0029  0.4081  0.2148
 1183TIP3    H1 3555   0.102   4.698   0.917  0.0654  1.2219 -0.3637
 1183TIP3    H2 3556   0.252   4.694   0.899  0.2371 -1.0239  1.0416
 1184TIP3   OH2 3557   2.045   0.778   0.817  0.3668 -0.2406  0.1466
 1184TIP3    H1 3558   1.993   0.847   0.776  1.1331 -0.1512 -0.6838
 1184TIP3    H2 3559   1.980   0.715   0.848 -0.2305 -0.3809 -1.3236
 1185TIP3   OH2 3560   4.211   4.046   4.136 -0.1496 -0.1182 -0.2166
 1185TIP3    H1 3561   4.278   4.050   4.204 -0.1119  1.6470 -0.2963
 1185TIP3    H2 3562   4.256   4.013   4.059  1.3105  3.0372 -0.8914
 1186TIP3   OH2 3563   1.524   0.735   0.483  0.5747 -0.1960  0.3227
 1186TIP3    H1 3564   1.481   0.811   0.442  0.1557 -1.1585 -1.0786
 1186TIP3    H2 3565   1.454   0.670   0.493  0.7228 -0.1207  2.3635
 1187TIP3   OH2 3566   4.193   1.951   4.389  0.5388 -0.5427  0.0713
 1187TIP3    H1 3567   4.278   1.909   4.402  0.3613 -0.7232  0.6984
 1187TIP3    H2 3568   4.206   2.010   4.315  1.7322  0.8031  1.2675
 1188TIP3   OH2 3569   6.127   2.456   4.846  0.2793  0.1590 -0.1723
 1188TIP3    H1 3570   6.063   2.465   4.916  1.9889  2.0943  1.2518
 1188TIP3    H2 3571   6.104   2.525   4.784 -0.5794 -0.8659 -1.0325
 1189TIP3   OH2 3572   4.737   5.087   2.169 -0.0752  0.7266  0.0177
 1189TIP3    H1 3573   4.811   5.035   2.138 -1.1514 -0.1328 -1.2527
 1189TIP3    H2 3574   4.691   5.029   2.230 -1.4644 -0.0507 -1.6523
 1190TIP3   OH2 3575   2.887   5.360   3.053  0.5119 -0.2046  0.6442
 1190TIP3    H1 3576   2.806   5.312   3.039  0.8640 -0.7419  0.4020
 1190TIP3    H2 3577   2.884   5.431   2.989 -0.5327  0.7990  1.7600
 1191TIP3   OH2 3578   6.322   1.920   2.573 -0.0630 -0.3337  0.5148
 1191TIP3    H1 3579   6.339   1.874   2.490  0.1314 -1.0051  0.9218
 1191TIP3    H2 3580   6.231   1.949   2.566  0.4858  1.2880 -0.7252
 1192TIP3   OH2 3581   1.419   5.557   4.075  0.3545  0.5018  0.1280
 1192TIP3    H1 3582   1.358   5.547   4.148  1.1921 -0.7690  0.6851
 1192TIP3    H2 3583   1.406   5.480   4.021  1.0049  0.5473 -0.1036
 1193TIP3   OH2 3584   4.981   5.603   0.801  0.1683  0.1804 -0.2170
 1193TIP3    H1 3585   4.886   5.615   0.804 -0.0115 -0.9614 -0.7373
 1193TIP3    H2 3586   5.004   5.572   0.889 -0.3383 -2.0157 -0.8117
 1194TIP3   OH2 3587   3.071   5.185   4.035 -0.1497  0.0481 -0.0606
 1194TIP3    H1 3588   2.997   5.131   4.007  0.9976 -1.0248 -1.1484
 1194TIP3    H2 3589   3.041   5.227   4.116 -1.4108 -1.4924  0.3101
 1195TIP3   OH2 3590   5.852   5.609   3.035 -0.3944  0.2059 -0.4415
 1195TIP3    H1 3591   5.914   5.591   2.965  0.9035  0.2367  0.6516
 1195TIP3    H2 3592   5.891   5.568   3.112  0.1351  3.2449  1.0729
 1196TIP3   OH2 3593   4.947   0.802   3.763  0.1583 -0.0955  0.1701
 1196TIP3    H1 3594   5.043   0.805   3.763  0.2165 -1.3383  0.6799
 1196TIP3    H2 3595   4.920   0.875   3.818  0.8388 -0.2530  0.7125
 1197TIP3   OH2 3596   6.234   4.233   2.645  0.0691  0.4371  0.3784
 1197TIP3    H1 3597   6.329   4.243   2.656  1.0799 -2.8748 -3.2261
 1197TIP3    H2 3598   6.208   4.177   2.719  1.1673  0.4024  0.7634
 1198TIP3   OH2 3599   4.362   1.611   3.436 -0.1883  0.3427 -0.1519
 1198TIP3    H1 3600   4.333   1.603   3.345  3.2873 -1.2481 -1.3259
 1198TIP3    H2 3601   4.376   1.521   3.464 -0.0725  0.8659  1.5690
 1199TIP3   OH2 3602   3.639   3.351   2.835  0.8858  0.2055  0.2739
 1199TIP3    H1 3603   3.585   3.274   2.848  0.8383  0.3517  0.9575
 1199TIP3    H2 3604   3.620   3.379   2.745  2.4374 -1.7617 -0.7483
 1200TIP3   OH2 3605   3.531   4.580   2.071 -0.0419 -0.1571 -0.1235
 1200TIP3    H1 3606   3.572   4.663   2.044 -2.3063  0.9838 -0.2976
 1200TIP3    H2 3607   3.457   4.607   2.126 -0.8321 -2.0828 -0.1763
 1201TIP3   OH2 3608   1.688   0.679   5.145 -0.3699  0.4006  0.2397
 1201TIP3    H1 3609   1.713   0.589   5.128 -1.1275  0.3615 -0.7735
 1201TIP3    H2 3610   1.767   0.721   5.179  0.0440 -0.5831  0.5049
 1202TIP3   OH2 3611   5.141   5.913   4.299 -0.2746 -0.4905 -0.0940
 1202TIP3    H1 3612   5.217   5.909   4.358  1.1980 -0.8390 -1.9332
 1202TIP3    H2 3613   5.163   5.853   4.228 -1.9865 -0.0428 -1.0437
 1203TIP3   OH2 3614   2.902   4.607   3.741  0.1478  0.3584 -0.7864
 1203TIP3    H1 3615   2.946   4.684   3.778  0.0033 -0.2060  0.6009
 1203TIP3    H2 3616   2.940   4.533   3.786 -0.5184 -0.3171 -1.3020
 1204TIP3   OH2 3617   1.949   1.801   1.272 -0.2793  0.0818 -0.2248
 1204TIP3    H1 3618   1.909   1.854   1.341  0.0545 -0.4453  0.3877
 1204TIP3    H2 3619   2.008   1.861   1.226 -0.5487  0.4502 -0.0917
 1205TIP3   OH2 3620   4.273   0.523   0.736  0.1346  0.1259  0.4055
 1205TIP3    H1 3621   4.292   0.473   0.816  0.6896  0.9970  0.8354
 1205TIP3    H2 3622   4.349   0.579   0.725 -0.3979  0.7435 -0.1772
 1206TIP3   OH2 3623   3.687   1.057   4.503  0.3282 -0.2558 -0.6032
 1206TIP3    H1 3624   3.642   0.988   4.552 -0.2129  0.9500  0.6379
 1206TIP3    H2 3625   3.617   1.103   4.457  0.3907  0.9071  0.4207
 1207TIP3   OH2 3626   2.609   2.474   3.852 -0.1007 -0.2388 -0.3004
 1207TIP3    H1 3627   2.560   2.509   3.778 -1.9397  1.3492  1.5373
 1207TIP3    H2 3628   2.696   2.457   3.817 -1.2368 -0.8050 -3.1163
 1208TIP3   OH2 3629   6.046   0.327   3.384 -0.3154 -0.8671 -0.3648
 1208TIP3    H1 3630   6.082   0.412   3.359 -1.1530 -0.4431 -0.1586
 1208TIP3    H2 3631   6.067   0.270   3.310 -1.2978 -0.0394 -1.3107
 1209TIP3   OH2 3632   4.228   5.887   0.666  0.6691 -0.2003 -0.6832
 1209TIP3    H1 3633   4.225   5.885   0.762 -1.1031 -0.7569 -0.7164
 1209TIP3    H2 3634   4.308   5.937   0.646  0.8772  0.2554  1.0762
 1210TIP3   OH2 3635   0.372   5.320   0.146  0.0842 -0.2732  0.0018
 1210TIP3    H1 3636   0.362   5.227   0.127  0.5496 -0.5139  0.8843
 1210TIP3    H2 3637   0.400   5.359   0.063  0.6564 -1.0497 -0.1774
 1211TIP3   OH2 3638   1.063   5.215   3.599  0.7430  0.4081 -0.1908
 1211TIP3    H1 3639   0.971   5.189   3.609  1.5076 -1.6401  2.8224
 1211TIP3    H2 3640   1.104   5.141   3.554  1.3845  0.1588  0.7918
 1212TIP3   OH2 3641   5.308   0.628   0.184  0.1306  0.1520 -0.0295
 1212TIP3    H1 3642   5.368   0.683   0.235 -1.3909 -0.0578  2.1451
 1212TIP3    H2 3643   5.221   0.666   0.199 -0.5040 -0.4999 -1.7541
 1213TIP3   OH2 3644   5.903   1.999   1.415 -0.0762  0.1191  0.3277
 1213TIP3    H1 3645   5.841   1.990   1.342  1.6218 -2.3697 -0.9334
 1213TIP3    H2 3646   5.927   1.909   1.438  2.0592  0.9538  1.6617
 1214TIP3   OH2 3647   2.245   0.586   4.474  0.1246 -0.4782  0.3652
 1214TIP3    H1 3648   2.303   0.539   4.534  3.4296  0.9902 -1.3906
 1214TIP3    H2 3649   2.193   0.518   4.433  0.4855 -1.8971  2.1178
 1215TIP3   OH2 3650   0.860   5.602   2.250 -0.0748  0.0809  0.6475
 1215TIP3    H1 3651   0.841   5.577   2.340 -2.9143  0.8850  0.3696
 1215TIP3    H2 3652   0.873   5.519   2.203 -0.8397 -0.4505  1.3597
 1216TIP3   OH2 3653   0.663   4.852   5.052  0.0445 -0.2153 -0.1369
 1216TIP3    H1 3654   0.595   4.872   5.116  0.0073 -2.2152  0.5017
 1216TIP3    H2 3655   0.675   4.757   5.058  1.9676 -0.0885 -1.1604
 1217TIP3   OH2 3656   4.196   2.248   3.356 -0.2305 -0.4307  0.5021
 1217TIP3    H1 3657   4.114   2.258   3.404  0.4433  0.8859  1.4313
 1217TIP3    H2 3658   4.198   2.323   3.297 -0.2204 -1.0864 -0.3521
 1218TIP3   OH2 3659   4.576   2.719   2.185 -0.0040 -0.3684 -0.2180
 1218TIP3    H1 3660   4.610   2.730   2.096 -2.9032  1.1759 -1.2825
 1218TIP3    H2 3661   4.638   2.767   2.241  1.4195 -0.6583 -1.4813
 1219TIP3   OH2 3662   0.390   2.769   1.937 -0.5815  0.3093  0.1113
 1219TIP3    H1 3663   0.470   2.715   1.939 -1.0698 -0.4921 -0.8766
 1219TIP3    H2 3664   0.354   2.761   2.025  0.2246  0.3727  0.4584
 1220TIP3   OH2 3665   1.886   1.017   0.722  0.3887  0.4236 -0.3540
 1220TIP3    H1 3666   1.865   1.050   0.809  1.3381  1.2084 -0.4004
 1220TIP3    H2 3667   1.805   1.026   0.672 -0.7168 -1.7455  0.9048
 1221TIP3   OH2 3668   0.791   3.955   1.559  0.1360  0.6242  0.6224
 1221TIP3    H1 3669   0.799   3.880   1.501  0.4824  0.8080  0.4322
 1221TIP3    H2 3670   0.698   3.957   1.584 -0.3856  1.5051 -1.2243
 1222TIP3   OH2 3671   4.671   3.037   4.594  0.2755  0.0967 -0.4933
 1222TIP3    H1 3672   4.708   3.074   4.675  0.4561 -0.7798 -0.1658
 1222TIP3    H2 3673   4.607   3.102   4.565  0.0704  0.3299  0.4619
 1223TIP3   OH2 3674   2.172   5.574   1.980  0.2447  0.3823  0.2878
 1223TIP3    H1 3675   2.255   5.530   1.965  0.2147  0.0034  1.1782
 1223TIP3    H2 3676   2.174   5.598   2.072 -1.1567 -0.7811  0.6603
 1224TIP3   OH2 3677   5.054   4.624   0.320 -0.1367  0.0888  0.0078
 1224TIP3    H1 3678   5.147   4.615   0.341 -0.2457 -0.3799  0.2757
 1224TIP3    H2 3679   5.050   4.608   0.225  0.2132  1.2578 -0.2254
 1225TIP3   OH2 3680   3.977   0.320   3.553  0.3766 -0.1299  0.2839
 1225TIP3    H1 3681   3.961   0.307   3.646  0.7367 -0.2205  0.3366
 1225TIP3    H2 3682   4.005   0.234   3.521  1.1936  0.1254  0.2948
 1226TIP3   OH2 3683   5.142   1.283   0.397 -0.2589 -0.1460 -0.2627
 1226TIP3    H1 3684   5.221   1.335   0.385 -0.3637  0.1380  0.2355
 1226TIP3    H2 3685   5.147   1.215   0.330  0.9437 -0.7781  0.4399
 1227TIP3   OH2 3686   1.879   5.034   0.072  0.2321 -0.0078  0.2817
 1227TIP3    H1 3687   1.894   4.942   0.092 -1.3406 -0.3072  0.2743
 1227TIP3    H2 3688   1.898   5.043  -0.021  0.9374 -0.1877  0.4064
 1228TIP3   OH2 3689   3.887   3.796   2.993 -0.4725  0.4234 -0.3542
 1228TIP3    H1 3690   3.898   3.881   3.036  0.5444 -0.1490  0.5879
 1228TIP3    H2 3691   3.887   3.817   2.900  0.6696  1.3998 -0.1760
 1229TIP3   OH2 3692   6.048   3.039   3.448 -0.5412  0.5609  0.7547
 1229TIP3    H1 3693   6.036   3.042   3.353  3.0652  0.5883  0.1881
 1229TIP3    H2 3694   6.009   3.120   3.480 -1.4544  0.7345 -0.7119
 1230TIP3   OH2 3695   6.162   0.071   3.241 -0.6519  0.3116 -0.2410
 1230TIP3    H1 3696   6.148   0.108   3.154 -1.1183  1.2010  0.1918
 1230TIP3    H2 3697   6.222  -0.002   3.227 -1.9052 -0.5274 -1.5224
 1231TIP3   OH2 3698   0.013   5.219   4.383 -0.1893 -0.2209 -0.3309
 1231TIP3    H1 3699   0.076   5.270   4.333 -1.2248  1.3885 -0.0654
 1231TIP3    H2 3700  -0.013   5.148   4.324 -0.6473  1.0560 -1.7284
 1232TIP3   OH2 3701   5.686   1.982   4.584 -0.6617  0.1724 -0.5434
 1232TIP3    H1 3702   5.645   1.935   4.512 -2.1169  1.3947 -0.5750
 1232TIP3    H2 3703   5.615   1.993   4.648  0.0369  0.9802  0.1145
 1233TIP3   OH2 3704   1.065   4.389   3.854  0.3974  0.1737  0.2217
 1233TIP3    H1 3705   1.033   4.331   3.923  0.4927  0.8059  0.8092
 1233TIP3    H2 3706   1.053   4.477   3.889  0.0672  0.5295 -0.7328
 1234TIP3   OH2 3707   2.825   5.249   3.359  0.0058 -0.0791  0.5370
 1234TIP3    H1 3708   2.730   5.250   3.370  0.0696 -0.7291  1.2387
 1234TIP3    H2 3709   2.839   5.207   3.274 -0.3648  1.0603 -0.1009
 1235TIP3   OH2 3710   5.582   1.870   3.760  0.1468 -0.1565  0.2426
 1235TIP3    H1 3711   5.661   1.871   3.814  1.3192  0.8120 -1.4016
 1235TIP3    H2 3712   5.526   1.937   3.799  0.5921 -0.0962  0.7916
 1236TIP3   OH2 3713   6.274   5.324   2.647 -0.2087  0.2944  0.9565
 1236TIP3    H1 3714   6.320   5.253   2.691 -0.3923 -1.1112 -1.0166
 1236TIP3    H2 3715   6.181   5.306   2.664 -0.2425  0.1849  0.6672
 1237TIP3   OH2 3716   1.182   4.479   0.418 -0.3448  0.3105 -0.5271
 1237TIP3    H1 3717   1.236   4.469   0.340  0.1686 -0.2626 -0.1155
 1237TIP3    H2 3718   1.236   4.442   0.489 -1.4216 -0.6187 -0.1614
 1238TIP3   OH2 3719   0.515   2.861   2.818 -0.5365 -0.1178 -0.0200
 1238TIP3    H1 3720   0.532   2.800   2.746  2.5708 -0.7461  1.0908
 1238TIP3    H2 3721   0.486   2.806   2.890 -0.8290  0.1391  0.0588
 1239TIP3   OH2 3722   5.560   5.052   1.690  0.3059 -0.0328  0.1491
 1239TIP3    H1 3723   5.630   5.000   1.730  1.1145  0.6631 -0.3239
 1239TIP3    H2 3724   5.583   5.142   1.711 -0.7699  0.1780  0.4665
 1240TIP3   OH2 3725   4.205   4.826   4.244 -0.4329  0.2923 -1.0198
 1240TIP3    H1 3726   4.272   4.776   4.290 -0.6908  1.1069  0.3006
 1240TIP3    H2 3727   4.246   4.912   4.228 -1.2480  0.9242  0.1268
 1241TIP3   OH2 3728   0.360   5.593   1.387 -0.0475 -0.2647  0.1923
 1241TIP3    H1 3729   0.333   5.635   1.468 -0.2914  0.0786 -0.0671
 1241TIP3    H2 3730   0.282   5.546   1.357  0.5432 -1.9734  1.1310
 1242TIP3   OH2 3731   6.361   0.796   4.165  0.6529  0.1185  0.0672
 1242TIP3    H1 3732   6.320   0.876   4.198  0.9679  0.3647 -0.1294
 1242TIP3    H2 3733   6.354   0.802   4.070  0.5210 -0.1756  0.0552
 1243TIP3   OH2 3734   0.590   4.287   2.674 -0.3728 -0.2823 -0.1985
 1243TIP3    H1 3735   0.622   4.368   2.714 -0.3208 -0.7870  0.8203
 1243TIP3    H2 3736   0.515   4.263   2.728 -0.2571 -1.0248 -0.3674
 1244TIP3   OH2 3737   4.898   0.859   0.879  0.0227  0.3562 -0.5457
 1244TIP3    H1 3738   4.937   0.879   0.794  0.9162 -0.9685 -0.4840
 1244TIP3    H2 3739   4.944   0.915   0.941 -0.1746  0.8551 -0.8476
 1245TIP3   OH2 3740   0.529   4.987   0.733  0.0013  0.4822  0.1978
 1245TIP3    H1 3741   0.539   5.070   0.779  2.4851  1.0278 -1.1823
 1245TIP3    H2 3742   0.463   5.005   0.666  0.7929  1.4686 -0.3361
 1246TIP3   OH2 3743   3.736   4.228   4.500  0.0801  0.1462 -0.0445
 1246TIP3    H1 3744   3.765   4.290   4.434  1.8628 -0.2003  0.3612
 1246TIP3    H2 3745   3.744   4.275   4.583 -4.0961  1.3166 -0.0673
 1247TIP3   OH2 3746   4.601   4.903   2.330 -0.6920  0.0673  0.1987
 1247TIP3    H1 3747   4.611   4.847   2.407 -1.3481 -1.4725 -0.7950
 1247TIP3    H2 3748   4.525   4.868   2.284  0.1891  0.4093 -1.5989
 1248TIP3   OH2 3749   3.870   0.692   4.293 -0.5373 -0.4457 -0.3277
 1248TIP3    H1 3750   3.949   0.693   4.239 -0.7299  0.3888 -0.6161
 1248TIP3    H2 3751   3.805   0.647   4.238 -0.8668  0.8219 -1.0188
 1249TIP3   OH2 3752   5.342   0.009   3.570 -0.1132 -0.0907  0.9353
 1249TIP3    H1 3753   5.426   0.049   3.549  0.5468 -1.7874  0.1557
 1249TIP3    H2 3754   5.356  -0.035   3.654  0.6528 -2.5489 -0.3742
 1250TIP3   OH2 3755   4.186   3.182   0.816  0.2395  0.2968  1.1369
 1250TIP3    H1 3756   4.271   3.149   0.843  0.6961  1.3427  1.0215
 1250TIP3    H2 3757   4.138   3.104   0.789  1.8545 -0.1333 -0.7197
 1251TIP3   OH2 3758   3.848   2.604   3.662  0.0966 -0.2501  0.1736
 1251TIP3    H1 3759   3.888   2.691   3.661 -1.1527  0.3461 -0.3820
 1251TIP3    H2 3760   3.793   2.604   3.740  1.2061 -1.0972  0.9860
 1252TIP3   OH2 3761   6.249   4.179   1.193  0.5030  0.0058  0.6649
 1252TIP3    H1 3762   6.218   4.142   1.110  0.9241 -0.5143  0.7362
 1252TIP3    H2 3763   6.323   4.124   1.218  0.3806  0.1600  1.3902
 1253TIP3   OH2 3764   3.970   5.777   4.017  0.1072  0.5551 -0.2685
 1253TIP3    H1 3765   3.894   5.782   3.959  0.3894 -1.9351 -0.9886
 1253TIP3    H2 3766   3.942   5.717   4.087  0.6921  1.3884  0.7051
 1254TIP3   OH2 3767   6.270   3.090   1.975  0.1188  0.1682  0.3115
 1254TIP3    H1 3768   6.311   3.165   2.019 -0.5247  0.0109  1.2079
 1254TIP3    H2 3769   6.179   3.117   1.962 -0.1693 -0.5217  0.8224
 1255TIP3   OH2 3770   1.943   1.048   4.456  0.1048 -0.2713 -0.2325
 1255TIP3    H1 3771   1.918   1.028   4.365  1.9927 -0.3486 -0.7892
 1255TIP3    H2 3772   2.006   0.979   4.479  2.3356  1.6475 -0.1481
 1256TIP3   OH2 3773   0.828   2.958   0.682  0.4046 -0.4771 -0.2691
 1256TIP3    H1 3774   0.829   2.870   0.719  0.6699 -0.5645 -0.4829
 1256TIP3    H2 3775   0.778   2.950   0.601 -0.7641 -0.1476  0.4039
 1257TIP3   OH2 3776   2.571   5.487   2.993  0.1085 -0.3264  0.3762
 1257TIP3    H1 3777   2.633   5.531   2.935  0.2445 -1.0161 -0.0086
 1257TIP3    H2 3778   2.595   5.518   3.081 -0.0652  0.6763  0.0816
 1258TIP3   OH2 3779   0.396   3.871   2.901 -0.1981  0.2188 -0.6166
 1258TIP3    H1 3780   0.489   3.891   2.889 -0.0760 -0.5073 -0.9134
 1258TIP3    H2 3781   0.395   3.792   2.956 -0.5891 -0.6548 -1.8313
 1259TIP3   OH2 3782   0.903   4.871   1.000  0.2026  0.1931 -0.1777
 1259TIP3    H1 3783   0.944   4.864   0.914 -0.8472 -1.4751 -0.5779
 1259TIP3    H2 3784   0.974   4.855   1.062  1.2850  2.7685 -0.5938
 1260TIP3   OH2 3785   3.849   1.380   2.327 -0.0740 -0.3349 -0.2840
 1260TIP3    H1 3786   3.893   1.461   2.351 -2.7144  1.3680 -0.7912
 1260TIP3    H2 3787   3.868   1.369   2.233 -0.8433  0.5164 -0.5549
 1261TIP3   OH2 3788   4.012   3.020   4.399  0.1472  0.2585  0.2365
 1261TIP3    H1 3789   3.953   2.972   4.341  0.8248  0.4324 -0.6217
 1261TIP3    H2 3790   4.009   2.972   4.482 -0.7863 -0.0320  0.0401
 1262TIP3   OH2 3791   5.683   2.028   2.281  0.1073 -0.1654  0.2953
 1262TIP3    H1 3792   5.721   2.034   2.368  0.2776 -0.5897  0.2519
 1262TIP3    H2 3793   5.622   1.955   2.286 -0.6264  0.4353  0.3330
 1263TIP3   OH2 3794   1.343   1.273   1.065  0.6398  0.2208  0.2128
 1263TIP3    H1 3795   1.356   1.367   1.073 -0.9450  0.4202  0.7649
 1263TIP3    H2 3796   1.295   1.248   1.144 -0.7287 -0.6816 -0.8489
 1264TIP3   OH2 3797   3.550   5.307   3.895  0.0871  0.0022 -0.0235
 1264TIP3    H1 3798   3.474   5.274   3.944 -0.6639 -1.1619 -1.8766
 1264TIP3    H2 3799   3.582   5.232   3.846  2.9916  0.2722  1.2978
 1265TIP3   OH2 3800   0.538   0.587   2.397 -0.1564  0.2623 -0.2345
 1265TIP3    H1 3801   0.582   0.642   2.334  0.1516  2.6999  1.9609
 1265TIP3    H2 3802   0.455   0.632   2.415 -0.9804 -1.2387 -0.0579
 1266TIP3   OH2 3803   6.114   3.213   3.794  0.5871  0.2488 -0.2005
 1266TIP3    H1 3804   6.074   3.149   3.853 -0.1088  1.1208  0.3047
 1266TIP3    H2 3805   6.198   3.233   3.835  1.0129 -0.6505 -0.5967
 1267TIP3   OH2 3806   5.860   5.021   2.732 -0.0461 -0.5965 -0.9425
 1267TIP3    H1 3807   5.903   4.962   2.793 -3.0268 -2.7389 -0.6440
 1267TIP3    H2 3808   5.808   5.079   2.787 -1.6247 -1.6012 -1.2918
 1268TIP3   OH2 3809   2.822   5.000   1.999  0.0301 -0.5324  0.4862
 1268TIP3    H1 3810   2.829   5.093   1.976 -1.2632 -0.8346 -1.3485
 1268TIP3    H2 3811   2.911   4.966   1.988  0.1272  0.0871 -0.7857
 1269TIP3   OH2 3812   3.420   3.635   4.715 -0.4222  0.5093  0.4430
 1269TIP3    H1 3813   3.376   3.587   4.785  0.6740 -3.4614 -1.3239
 1269TIP3    H2 3814   3.377   3.607   4.635  3.7727 -2.1953 -1.2162
 1270TIP3   OH2 3815   3.168   5.865   3.056  0.3819 -0.1041 -0.0236
 1270TIP3    H1 3816   3.252   5.857   3.010  0.1034 -1.3392 -0.3380
 1270TIP3    H2 3817   3.192   5.904   3.141  1.3220 -0.6681 -0.0097
 1271TIP3   OH2 3818   1.106   1.725   0.668  0.3514 -0.6075 -0.3028
 1271TIP3    H1 3819   1.105   1.777   0.587  0.5049 -2.1002 -1.2923
 1271TIP3    H2 3820   1.013   1.717   0.691  0.3549  0.6041  0.2168
 1272TIP3   OH2 3821   5.670   4.776   2.920 -0.7086 -0.4814 -0.5396
 1272TIP3    H1 3822   5.688   4.687   2.888 -0.4394 -0.6593  0.0948
 1272TIP3    H2 3823   5.735   4.790   2.989 -0.3186  0.4617 -1.0889
 1273TIP3   OH2 3824   3.451   4.366   3.513  0.2984 -0.3939 -0.0637
 1273TIP3    H1 3825   3.479   4.410   3.433  0.3326 -0.4013 -0.0557
 1273TIP3    H2 3826   3.357   4.383   3.518  0.3610 -0.0891  0.0836
 1274TIP3   OH2 3827   3.585   3.839   3.834 -0.7579 -0.1144  0.5717
 1274TIP3    H1 3828   3.501   3.858   3.876 -1.3320 -1.7608  0.2384
 1274TIP3    H2 3829   3.621   3.767   3.885  0.8591  1.0729  1.1909
 1275TIP3   OH2 3830   2.620   2.684   4.962 -0.0042 -1.1956 -0.2843
 1275TIP3    H1 3831   2.620   2.590   4.944  1.6279 -1.2605 -0.0989
 1275TIP3    H2 3832   2.580   2.724   4.884 -0.6846 -2.0166 -0.3708
 1276TIP3   OH2 3833   2.274   1.902   2.600 -0.2663  0.1366 -0.3048
 1276TIP3    H1 3834   2.268   1.823   2.655 -3.8066 -0.9182 -1.8650
 1276TIP3    H2 3835   2.196   1.953   2.624  0.2725  1.6083 -1.5582
 1277TIP3   OH2 3836   6.186   1.784   1.072 -0.1869 -0.1718 -0.0095
 1277TIP3    H1 3837   6.111   1.730   1.096 -0.7443  1.0167  1.1022
 1277TIP3    H2 3838   6.190   1.851   1.141  3.1751 -1.3916  1.1787
 1278TIP3   OH2 3839   5.464   5.719   0.171 -0.1644  0.6357  0.1857
 1278TIP3    H1 3840   5.490   5.692   0.259  0.3855  3.1189  0.8730
 1278TIP3    H2 3841   5.402   5.653   0.143  2.5695 -2.4393  0.7900
 1279TIP3   OH2 3842   4.812   2.202   5.077 -0.9835 -0.3881 -0.0515
 1279TIP3    H1 3843   4.879   2.185   5.011 -0.9344 -0.8147  0.1056
 1279TIP3    H2 3844   4.733   2.160   5.042 -0.6476 -1.7394  0.7485
 1280TIP3   OH2 3845   5.879   4.442   4.125 -0.5951 -0.0674  0.2886
 1280TIP3    H1 3846   5.876   4.531   4.090  0.8380  0.3266  1.0651
 1280TIP3    H2 3847   5.799   4.433   4.176 -1.3267  0.3449 -0.7635
 1281TIP3   OH2 3848   0.591   4.819   4.781 -0.2108  0.8222 -0.6112
 1281TIP3    H1 3849   0.655   4.814   4.852 -1.2388 -2.1047  0.2410
 1281TIP3    H2 3850   0.507   4.799   4.822 -1.4085  2.4832 -2.0882
 1282TIP3   OH2 3851   0.734   4.922   1.401 -0.0062 -0.1498 -0.2328
 1282TIP3    H1 3852   0.677   4.881   1.336 -0.3010 -1.1896  0.6427
 1282TIP3    H2 3853   0.818   4.878   1.391 -0.2651 -0.8554  0.5722
 1283TIP3   OH2 3854   4.398   4.775   2.209 -0.1787  0.0821  0.4709
 1283TIP3    H1 3855   4.323   4.716   2.201  0.1483 -0.2145 -0.6580
 1283TIP3    H2 3856   4.361   4.863   2.203 -0.4588 -0.0561  0.1292
 1284TIP3   OH2 3857   0.175   5.418   3.136  0.3737  0.1387 -0.2336
 1284TIP3    H1 3858   0.125   5.342   3.165  2.0413 -0.6801  0.6743
 1284TIP3    H2 3859   0.141   5.438   3.049  0.1296 -1.8877 -0.6483
 1285TIP3   OH2 3860   4.433   0.371   1.785 -0.5200 -0.7058 -0.2531
 1285TIP3    H1 3861   4.483   0.389   1.705 -0.4871  1.2919  0.1687
 1285TIP3    H2 3862   4.491   0.316   1.838  1.4637  1.7557  0.3310
 1286TIP3   OH2 3863   5.719   0.322   4.586 -0.5229 -0.0358 -0.0825
 1286TIP3    H1 3864   5.738   0.231   4.565 -0.3763 -0.1353  0.4587
 1286TIP3    H2 3865   5.662   0.317   4.663 -1.4643  0.2968 -0.7392
 1287TIP3   OH2 3866   4.540   3.038   2.153 -0.4415 -0.6772  0.4312
 1287TIP3    H1 3867   4.517   2.981   2.080 -1.0242 -0.2849  0.3058
 1287TIP3    H2 3868   4.626   3.073   2.130 -0.4759 -0.8116  0.0904
 1288TIP3   OH2 3869   2.867   1.766   0.967  0.5191 -0.2280 -0.2819
 1288TIP3    H1 3870   2.949   1.740   1.010  0.7728  2.5138  1.0704
 1288TIP3    H2 3871   2.889   1.768   0.874  2.0191  0.4888  0.0595
 1289TIP3   OH2 3872   1.321   5.451   3.766 -0.4316  0.6627 -0.1318
 1289TIP3    H1 3873   1.325   5.414   3.854 -1.1007  2.2442  0.6066
 1289TIP3    H2 3874   1.227   5.461   3.749 -0.2907  2.4340 -0.0664
 1290TIP3   OH2 3875   6.312   4.020   0.789 -0.2365  0.2013 -0.1389
 1290TIP3    H1 3876   6.344   3.934   0.816 -1.4012 -0.4468 -0.7275
 1290TIP3    H2 3877   6.311   4.016   0.694  0.0180  1.0013 -0.1808
 1291TIP3   OH2 3878   3.115   4.188   2.928 -0.2196 -0.0345 -0.0473
 1291TIP3    H1 3879   3.019   4.182   2.925 -0.2319 -0.2160 -3.8879
 1291TIP3    H2 3880   3.145   4.097   2.933 -0.3726 -0.3409 -2.9204
 1292TIP3   OH2 3881   2.333   1.207   1.414  0.1453  0.2498 -0.6325
 1292TIP3    H1 3882   2.326   1.130   1.471  0.1592  0.4371 -0.3764
 1292TIP3    H2 3883   2.243   1.236   1.401  0.1151  0.0138 -0.9767
 1293TIP3   OH2 3884   4.604   1.712   0.033 -0.3353 -0.6434 -0.1371
 1293TIP3    H1 3885   4.607   1.807   0.038  0.6918 -0.5642 -1.5300
 1293TIP3    H2 3886   4.542   1.693  -0.037 -2.5757 -1.1291  1.8689
 1294TIP3   OH2 3887   0.170   0.218   4.046 -0.3592  0.3633 -0.8146
 1294TIP3    H1 3888   0.126   0.137   4.072 -0.2385 -0.2690 -2.4482
 1294TIP3    H2 3889   0.179   0.211   3.951  0.6395  1.8092 -0.8643
 1295TIP3   OH2 3890   5.942   1.936   0.962  0.5473  0.0207 -0.1568
 1295TIP3    H1 3891   6.003   1.890   0.904 -1.1478 -0.8589 -1.3259
 1295TIP3    H2 3892   5.856   1.922   0.922 -0.3614  1.8316  1.0228
 1296TIP3   OH2 3893   0.471   3.470   4.988 -0.0889  0.2465 -0.1597
 1296TIP3    H1 3894   0.405   3.518   4.937 -2.1364 -0.0923  1.9911
 1296TIP3    H2 3895   0.443   3.379   4.983  0.2416  0.0865  0.6993
 1297TIP3   OH2 3896   0.953   4.201   1.694  0.3525 -0.4461  0.0343
 1297TIP3    H1 3897   0.931   4.115   1.731 -1.1428 -0.7850 -1.5519
 1297TIP3    H2 3898   0.938   4.192   1.600 -0.2483  1.6616 -0.1293
 1298TIP3   OH2 3899   1.783   1.688   1.077 -0.9305  0.8592 -0.4910
 1298TIP3    H1 3900   1.784   1.763   1.017  0.3434  0.4622 -1.0073
 1298TIP3    H2 3901   1.837   1.715   1.151 -1.0772  0.7258 -0.3341
 1299TIP3   OH2 3902   0.320   1.985   2.286 -0.1714 -0.3287  0.2539
 1299TIP3    H1 3903   0.349   2.057   2.342 -1.6694  0.4615  0.0651
 1299TIP3    H2 3904   0.229   2.005   2.267 -0.4215 -1.9352 -0.3722
 1300TIP3   OH2 3905   4.208   5.368   5.160  0.2458  0.4535 -0.0351
 1300TIP3    H1 3906   4.191   5.434   5.227  0.2999 -0.2904  0.7370
 1300TIP3    H2 3907   4.175   5.406   5.079 -1.9861  0.4611  0.7951
 1301TIP3   OH2 3908   1.433   4.446   4.316 -0.6076 -0.1020 -0.4296
 1301TIP3    H1 3909   1.481   4.365   4.332 -1.0875  0.0056  1.7959
 1301TIP3    H2 3910   1.372   4.423   4.246 -1.0036 -1.8106  0.4098
 1302TIP3   OH2 3911   0.861   5.932   0.955 -0.1786  0.3239 -0.2600
 1302TIP3    H1 3912   0.917   5.929   1.032  0.8714  0.7715 -0.9888
 1302TIP3    H2 3913   0.792   5.868   0.972  0.6288 -0.3279  0.5893
 1303TIP3   OH2 3914   2.362   5.384   4.695 -0.3071 -0.3950  0.1516
 1303TIP3    H1 3915   2.371   5.457   4.634 -1.0220 -1.0992 -0.8304
 1303TIP3    H2 3916   2.432   5.397   4.759  0.6208  0.2186 -0.9596
 1304TIP3   OH2 3917   2.420   4.205   4.380 -0.0762 -0.2962 -0.5869
 1304TIP3    H1 3918   2.394   4.271   4.444  0.6835  0.3476 -0.9183
 1304TIP3    H2 3919   2.369   4.226   4.302 -1.1169 -1.1748 -0.1684
 1305TIP3   OH2 3920   4.106   0.510   0.456 -0.4760  0.1551 -0.7920
 1305TIP3    H1 3921   4.130   0.537   0.368  2.6107  1.2989  0.2463
 1305TIP3    H2 3922   4.048   0.578   0.488  1.9346  2.2224 -0.5118
 1306TIP3   OH2 3923   2.959   2.175   4.226 -0.1680  0.5980 -0.3153
 1306TIP3    H1 3924   2.902   2.241   4.187  1.0466  1.2461 -1.0338
 1306TIP3    H2 3925   2.986   2.120   4.153 -0.0454  0.1525  0.0587
 1307TIP3   OH2 3926   2.570   3.975   4.498 -0.1325 -0.3447  0.2344
 1307TIP3    H1 3927   2.525   4.051   4.462  0.9207 -0.0258 -0.4681
 1307TIP3    H2 3928   2.558   3.907   4.432 -1.3190 -0.9122  0.9898
 1308TIP3   OH2 3929   4.882   1.040   0.222 -0.2581  0.3880  0.3285
 1308TIP3    H1 3930   4.868   1.133   0.206  0.3517  0.3925 -0.2173
 1308TIP3    H2 3931   4.934   1.010   0.147  0.2333 -0.2178  0.8965
 1309TIP3   OH2 3932   3.886   3.173   3.256  0.4746  0.5105 -0.2661
 1309TIP3    H1 3933   3.942   3.246   3.230  2.3746 -0.0508  1.8650
 1309TIP3    H2 3934   3.945   3.098   3.261 -0.6660 -0.3588  1.0439
 1310TIP3   OH2 3935   3.167   3.853   3.523 -0.1070  0.6821  0.0785
 1310TIP3    H1 3936   3.113   3.917   3.476 -0.9267  0.2488  0.4163
 1310TIP3    H2 3937   3.161   3.881   3.615 -0.0470  0.4233  0.1600
 1311TIP3   OH2 3938   5.514   2.452   0.788 -0.7472 -0.2278  0.0451
 1311TIP3    H1 3939   5.462   2.415   0.859 -2.5100  0.6946 -0.7003
 1311TIP3    H2 3940   5.488   2.544   0.784 -1.2097 -0.3919 -2.1823
 1312TIP3   OH2 3941   1.089   5.658   0.335 -0.1402 -0.3890 -0.2165
 1312TIP3    H1 3942   1.131   5.624   0.415 -0.1901 -0.7033 -0.3244
 1312TIP3    H2 3943   1.073   5.580   0.282 -0.4002 -0.2109 -0.3956
 1313TIP3   OH2 3944   4.147   3.698   4.903 -0.8156  0.3029  0.1754
 1313TIP3    H1 3945   4.055   3.709   4.878 -0.7940 -0.5405 -0.3199
 1313TIP3    H2 3946   4.146   3.630   4.970 -0.6233  0.8300  0.7185
 1314TIP3   OH2 3947   2.809   3.928   3.057  0.0144  0.2745  0.3731
 1314TIP3    H1 3948   2.740   3.936   3.123  0.8674  1.6839  1.1569
 1314TIP3    H2 3949   2.823   4.017   3.025  0.6811 -0.1554 -0.6025
 1315TIP3   OH2 3950   1.197   2.975   1.532  0.5429  0.9493 -0.2040
 1315TIP3    H1 3951   1.170   3.041   1.468 -1.7387 -1.1214 -1.5282
 1315TIP3    H2 3952   1.150   2.896   1.507  4.1950 -1.6822  0.4236
 1316TIP3   OH2 3953   0.260   1.896   1.339 -0.1899 -0.2743  0.4224
 1316TIP3    H1 3954   0.190   1.937   1.288  0.0899 -0.5137 -0.1628
 1316TIP3    H2 3955   0.340   1.921   1.294  0.1122  0.0223  1.1072
 1317TIP3   OH2 3956   1.090   5.759   1.459  0.0305  0.2976 -0.2084
 1317TIP3    H1 3957   1.074   5.679   1.408  1.9221 -1.0711  1.2149
 1317TIP3    H2 3958   1.020   5.760   1.524 -0.8751  0.6529 -1.1600
 1318TIP3   OH2 3959   3.233   3.790   2.761  0.7557  0.6541  0.0507
 1318TIP3    H1 3960   3.149   3.780   2.806  0.0909  2.2649 -0.7950
 1318TIP3    H2 3961   3.259   3.700   2.740  0.1926 -0.0181  1.9789
 1319TIP3   OH2 3962   5.645   3.272   3.410 -0.0421  0.1844 -0.1585
 1319TIP3    H1 3963   5.613   3.346   3.461  1.0127  0.7127 -0.2397
 1319TIP3    H2 3964   5.585   3.267   3.335 -0.1008  0.9683 -0.1677
 1320TIP3   OH2 3965   2.106   3.471   0.793  0.5604 -0.4266 -0.5114
 1320TIP3    H1 3966   2.083   3.421   0.871 -0.9656 -3.1596 -2.5554
 1320TIP3    H2 3967   2.077   3.560   0.812 -1.2587 -1.3494  1.4497
 1321TIP3   OH2 3968   1.064   2.462   1.354 -0.8232 -0.0258  0.5785
 1321TIP3    H1 3969   1.105   2.471   1.268 -0.4250  0.7853  0.8395
 1321TIP3    H2 3970   0.971   2.450   1.335 -0.9493  1.5455  0.0426
 1322TIP3   OH2 3971   3.765   0.326   0.180  0.4726 -0.4535 -0.6628
 1322TIP3    H1 3972   3.729   0.415   0.186  1.4190 -0.0595 -0.6729
 1322TIP3    H2 3973   3.827   0.320   0.253  1.4034 -0.6274 -1.4486
 1323TIP3   OH2 3974   5.608   4.431   1.136 -0.0728  0.4634  0.0682
 1323TIP3    H1 3975   5.537   4.372   1.110 -0.5126  0.5090  1.1176
 1323TIP3    H2 3976   5.641   4.466   1.053  0.6906 -1.7819 -0.6439
 1324TIP3   OH2 3977   0.675   1.141   3.830 -0.3324 -0.3921  0.9579
 1324TIP3    H1 3978   0.735   1.078   3.869  1.1892 -0.2558 -0.9823
 1324TIP3    H2 3979   0.678   1.217   3.888  2.1404 -0.0356  0.4882
 1325TIP3   OH2 3980   1.493   5.366   4.983 -0.3023 -0.1826 -0.1522
 1325TIP3    H1 3981   1.517   5.274   4.987  2.3825  0.4492  0.5079
 1325TIP3    H2 3982   1.562   5.406   4.930  0.2635  1.8441  1.9468
 1326TIP3   OH2 3983   4.027   4.606   4.956  0.1207 -0.2468 -0.0779
 1326TIP3    H1 3984   4.026   4.532   5.017  0.6273  0.5490  0.9230
 1326TIP3    H2 3985   4.081   4.672   4.999  1.4727 -0.0830 -1.9119
 1327TIP3   OH2 3986   4.024   4.369   5.111 -0.5252  0.1037 -0.2435
 1327TIP3    H1 3987   4.053   4.326   5.030 -0.8260 -0.4871 -0.0437
 1327TIP3    H2 3988   4.086   4.339   5.177 -0.2831  0.5837 -0.2496
 1328TIP3   OH2 3989   1.094   1.447   1.344  0.0068  0.1934 -0.0780
 1328TIP3    H1 3990   1.051   1.458   1.259  2.3826  1.4502 -1.2350
 1328TIP3    H2 3991   1.140   1.363   1.336 -1.6597 -0.8709  0.9396
 1329TIP3   OH2 3992   3.519   4.592   3.675  0.1165  0.0057  0.3510
 1329TIP3    H1 3993   3.529   4.502   3.707 -1.0385 -1.2681 -2.4999
 1329TIP3    H2 3994   3.461   4.583   3.599 -0.9780  3.3483  0.6673
 1330TIP3   OH2 3995   1.050   3.583   4.629 -0.0391  0.0239 -0.3504
 1330TIP3    H1 3996   1.098   3.614   4.552 -0.3858  0.7324 -0.2837
 1330TIP3    H2 3997   1.115   3.582   4.699  0.3768 -1.0048 -0.7317
 1331TIP3   OH2 3998   6.155   2.232   0.798  0.3615 -0.1948 -0.2950
 1331TIP3    H1 3999   6.095   2.207   0.869  0.7151 -0.0264  0.0669
 1331TIP3    H2 4000   6.119   2.313   0.763  0.7541  0.2828  0.3828
 1332TIP3   OH2 4001   2.634   4.263   1.307 -0.2632 -0.0675  0.8014
 1332TIP3    H1 4002   2.704   4.322   1.281 -0.5507  0.4910  1.2859
 1332TIP3    H2 4003   2.554   4.314   1.296 -0.6187 -0.7847  0.0041
 1333TIP3   OH2 4004   1.148   4.419   4.505  0.1840 -0.3120 -0.3789
 1333TIP3    H1 4005   1.086   4.467   4.450  1.5566  1.4468 -0.4853
 1333TIP3    H2 4006   1.223   4.402   4.448  1.5290  1.3166  0.7961
 1334TIP3   OH2 4007   1.237   1.342   2.782  0.3295  0.1491 -0.0917
 1334TIP3    H1 4008   1.169   1.287   2.743  0.4246  0.2065 -0.3382
 1334TIP3    H2 4009   1.256   1.408   2.715  1.5855 -0.6619 -0.5572
 1335TIP3   OH2 4010   4.577   4.175   0.699 -0.4131  0.1099 -0.2422
 1335TIP3    H1 4011   4.644   4.112   0.670 -0.7356  0.1643 -1.1629
 1335TIP3    H2 4012   4.614   4.217   0.776  0.6341  0.1651 -0.7565
 1336TIP3   OH2 4013   0.990   2.362   2.892 -0.3905 -0.3711  0.2625
 1336TIP3    H1 4014   1.051   2.370   2.819 -2.0167 -0.5937 -1.1869
 1336TIP3    H2 4015   1.002   2.273   2.925 -0.3573 -0.6178 -0.4144
 1337TIP3   OH2 4016   3.089   0.095   1.660 -0.7016 -0.0689  0.0297
 1337TIP3    H1 4017   3.137   0.054   1.732 -0.2526 -0.2641 -0.3761
 1337TIP3    H2 4018   3.003   0.053   1.662 -0.3951 -0.7155 -0.1020
 1338TIP3   OH2 4019   5.979   4.941   4.042  0.2678 -0.1545  0.2716
 1338TIP3    H1 4020   5.994   4.913   3.952  0.6615 -0.6286  0.4802
 1338TIP3    H2 4021   5.968   5.036   4.036  1.2349 -0.0591 -0.1586
 1339TIP3   OH2 4022   5.467   4.173   2.980  0.2315 -0.2791 -0.1103
 1339TIP3    H1 4023   5.552   4.175   2.936 -0.6346 -0.5185 -1.8961
 1339TIP3    H2 4024   5.408   4.134   2.915 -1.0712 -0.9078  1.3966
 1340TIP3   OH2 4025   3.907   4.402   1.202 -0.0252 -0.8066  0.2931
 1340TIP3    H1 4026   3.932   4.453   1.279 -1.5326 -1.7363  1.4624
 1340TIP3    H2 4027   3.965   4.326   1.202 -0.3229 -1.0416  0.8096
 1341TIP3   OH2 4028   5.541   1.007   3.227 -0.5989 -0.0311  0.1134
 1341TIP3    H1 4029   5.488   1.086   3.237 -0.0494  0.4777 -0.8458
 1341TIP3    H2 4030   5.550   0.972   3.316 -1.4121  0.6056  0.4542
 1342TIP3   OH2 4031   5.261   1.964   3.555  0.2854 -0.0943  0.5065
 1342TIP3    H1 4032   5.281   1.885   3.606 -0.7356 -0.9131 -0.3060
 1342TIP3    H2 4033   5.196   2.011   3.607  1.7162  0.8284  1.5309
 1343TIP3   OH2 4034   1.524   5.020   4.169 -0.3082 -0.4506  0.3290
 1343TIP3    H1 4035   1.508   5.112   4.191 -2.2250 -0.2687 -1.5446
 1343TIP3    H2 4036   1.518   4.974   4.253  0.4685  1.0772  1.2648
 1344TIP3   OH2 4037   0.903   0.665   0.376  0.1772 -0.3292 -0.4183
 1344TIP3    H1 4038   0.810   0.685   0.360 -0.3253 -1.4746  0.8720
 1344TIP3    H2 4039   0.937   0.745   0.416  0.4803  1.0953 -3.2253
 1345TIP3   OH2 4040   5.331   3.682   0.936  0.3536  0.3363  0.4310
 1345TIP3    H1 4041   5.294   3.640   1.014 -2.2910  0.0005 -0.8683
 1345TIP3    H2 4042   5.272   3.657   0.866 -0.2422  4.5142 -0.8436
 1346TIP3   OH2 4043   2.432   5.489   4.313 -0.2501 -0.1936 -0.1315
 1346TIP3    H1 4044   2.512   5.472   4.264  0.1658  0.8082  0.1809
 1346TIP3    H2 4045   2.462   5.532   4.394 -1.0826  0.0070  0.0829
 1347TIP3   OH2 4046   1.189   1.094   1.666 -0.4933 -1.0056 -0.5135
 1347TIP3    H1 4047   1.180   1.134   1.753 -2.6297 -1.5202 -0.4505
 1347TIP3    H2 4048   1.104   1.106   1.625  0.1578 -1.7066 -2.1450
 1348TIP3   OH2 4049   2.470   4.395   3.678  0.3816  0.0152 -0.1552
 1348TIP3    H1 4050   2.472   4.452   3.602 -0.5301 -0.6823 -0.7223
 1348TIP3    H2 4051   2.561   4.367   3.689  0.8455  1.5480  0.1414
 1349TIP3   OH2 4052   4.819   5.794   4.039 -0.0503  0.2990 -0.4040
 1349TIP3    H1 4053   4.729   5.825   4.044 -0.1898  0.4561 -2.7706
 1349TIP3    H2 4054   4.811   5.699   4.026  0.1354  0.2997 -0.5244
 1350TIP3   OH2 4055   5.869   1.911   0.351  0.1670  0.4214  0.0149
 1350TIP3    H1 4056   5.932   1.845   0.380 -0.5605  0.2867  1.3788
 1350TIP3    H2 4057   5.829   1.874   0.273 -0.2945 -0.8206  0.8151
 1351TIP3   OH2 4058   5.502   5.951   2.746 -0.1332 -0.0080 -0.3810
 1351TIP3    H1 4059   5.567   5.924   2.811  0.2471 -0.4852 -0.9572
 1351TIP3    H2 4060   5.545   6.021   2.696 -0.4541  0.4112 -0.0842
 1352TIP3   OH2 4061   6.226   3.634   4.654 -0.0558 -0.5771 -0.6340
 1352TIP3    H1 4062   6.229   3.618   4.560 -0.0401 -2.0391 -0.4103
 1352TIP3    H2 4063   6.134   3.623   4.677  0.0936 -1.2632 -0.3287
 1353TIP3   OH2 4064   5.061   3.386   0.207  0.3835 -0.0096 -0.1866
 1353TIP3    H1 4065   5.155   3.379   0.224  0.1934 -1.1402  0.4860
 1353TIP3    H2 4066   5.037   3.472   0.242  1.1769  0.3309 -0.4478
 1354TIP3   OH2 4067   2.752   3.031   0.487 -0.2435 -0.0317 -0.4795
 1354TIP3    H1 4068   2.713   2.945   0.470 -3.1305  1.4046 -1.9730
 1354TIP3    H2 4069   2.780   3.062   0.401 -0.7031  1.1121 -0.2345
 1355TIP3   OH2 4070   2.898   4.521   1.668 -0.2378 -0.4269 -0.6037
 1355TIP3    H1 4071   2.815   4.497   1.625 -0.2335  1.4801 -1.7975
 1355TIP3    H2 4072   2.964   4.473   1.619 -0.4884 -0.4950 -0.8815
 1356TIP3   OH2 4073   1.307   1.823   0.086 -0.2818 -0.1954 -0.0055
 1356TIP3    H1 4074   1.256   1.745   0.065 -0.0399 -0.3047 -0.1904
 1356TIP3    H2 4075   1.381   1.790   0.138  0.1885 -0.1804 -0.6566
 1357TIP3   OH2 4076   4.297   3.587   0.042 -0.4316  0.6752 -0.1753
 1357TIP3    H1 4077   4.308   3.493   0.030 -1.4525  0.2391  1.9447
 1357TIP3    H2 4078   4.357   3.626  -0.021  0.9411 -1.4005 -0.2429
 1358TIP3   OH2 4079   2.403   3.406   0.054  0.1117 -0.2978  0.0855
 1358TIP3    H1 4080   2.368   3.473  -0.005  0.8427  0.7263  0.7776
 1358TIP3    H2 4081   2.335   3.394   0.120  0.2777  0.3237  0.3796
 1359TIP3   OH2 4082   2.099   1.789   3.902 -0.0243  0.1921  0.0701
 1359TIP3    H1 4083   2.013   1.828   3.919 -0.9064 -1.3066 -0.7321
 1359TIP3    H2 4084   2.129   1.831   3.822  0.8191  1.9758  1.2709
 1360TIP3   OH2 4085   4.850   1.225   3.046  0.1083  0.0534  0.2812
 1360TIP3    H1 4086   4.838   1.131   3.060  0.7272 -0.0236  0.3277
 1360TIP3    H2 4087   4.871   1.259   3.133  0.0742  0.2038  0.2298
 1361TIP3   OH2 4088   2.226   2.080   0.102 -0.3531  0.8323 -0.1402
 1361TIP3    H1 4089   2.246   2.039   0.185 -2.2162  0.5817  0.2430
 1361TIP3    H2 4090   2.130   2.089   0.102 -0.6522 -0.9651 -3.0676
 1362TIP3   OH2 4091   0.303   4.061   0.085 -0.0859  0.3369  0.0835
 1362TIP3    H1 4092   0.388   4.034   0.049 -0.9433 -1.8271 -0.4625
 1362TIP3    H2 4093   0.244   4.059   0.010 -1.1424 -0.6383  0.9211
 1363TIP3   OH2 4094   2.193   4.872   4.294 -0.3641 -0.4282 -0.5737
 1363TIP3    H1 4095   2.121   4.812   4.280  0.4130 -1.4872 -0.1524
 1363TIP3    H2 4096   2.260   4.820   4.338  0.8763  0.3710 -1.4316
 1364TIP3   OH2 4097   5.138   3.700   4.434  0.4423 -0.4012  0.3768
 1364TIP3    H1 4098   5.048   3.733   4.426  0.9801  1.0003 -0.0745
 1364TIP3    H2 4099   5.135   3.615   4.391 -1.2543 -1.5819  2.5746
 1365TIP3   OH2 4100   1.535   5.475   3.109 -0.6105 -0.4192 -0.2733
 1365TIP3    H1 4101   1.615   5.488   3.058 -0.7576 -0.2623 -0.4665
 1365TIP3    H2 4102   1.558   5.409   3.174 -0.2673 -0.2294 -0.2041
 1366TIP3   OH2 4103   1.551   5.776   3.053  0.2582  0.1564  0.5116
 1366TIP3    H1 4104   1.549   5.713   3.125  0.5945  0.6522  0.9581
 1366TIP3    H2 4105   1.606   5.848   3.085 -1.5453  1.5158  0.7167
 1367TIP3   OH2 4106   5.668   0.017   3.839 -0.0575  0.1565 -0.4343
 1367TIP3    H1 4107   5.642   0.079   3.771  2.2042  0.8321 -0.7867
 1367TIP3    H2 4108   5.662  -0.069   3.797  0.3498  0.4790 -1.1687
 1368TIP3   OH2 4109   3.968   3.025   2.327 -0.1339 -0.1781 -0.0908
 1368TIP3    H1 4110   3.975   3.119   2.308  0.1745 -0.0514  0.6132
 1368TIP3    H2 4111   3.907   3.020   2.400 -1.3286 -0.6583 -1.0915
 1369TIP3   OH2 4112   6.054   3.191   0.337 -0.2101 -0.3202 -0.4334
 1369TIP3    H1 4113   6.125   3.245   0.302 -2.7694  4.1695  0.6212
 1369TIP3    H2 4114   6.090   3.155   0.418  1.5161 -0.0134 -1.0048
 1370TIP3   OH2 4115   1.009   2.807   4.870  0.0400 -0.0991  0.1208
 1370TIP3    H1 4116   1.092   2.760   4.880  0.0915  0.2429  1.4900
 1370TIP3    H2 4117   0.942   2.740   4.887  0.0124 -0.3880 -1.0390
 1371TIP3   OH2 4118   6.249   4.235   4.338 -0.0193  0.0539 -0.2055
 1371TIP3    H1 4119   6.320   4.181   4.303 -1.3079 -1.5900 -0.4120
 1371TIP3    H2 4120   6.182   4.235   4.270 -0.8107  0.3636  0.5462
 1372TIP3   OH2 4121   3.322   4.619   4.593  0.7384 -0.5241 -0.1187
 1372TIP3    H1 4122   3.226   4.614   4.587  0.7661 -0.3306 -0.9179
 1372TIP3    H2 4123   3.352   4.610   4.502  1.3386  2.0663 -0.2752
 1373TIP3   OH2 4124  -0.002   5.533   4.700 -0.6098 -0.0756 -0.4651
 1373TIP3    H1 4125   0.059   5.459   4.704  0.2827  0.6625 -0.1178
 1373TIP3    H2 4126   0.011   5.569   4.612 -0.3361  0.2474 -0.2944
 1374TIP3   OH2 4127   4.895   1.225   1.195  0.1090  0.3508  0.5342
 1374TIP3    H1 4128   4.899   1.300   1.135 -1.0256 -1.4872 -2.0081
 1374TIP3    H2 4129   4.908   1.149   1.139 -1.3851 -1.5347  2.5871
 1375TIP3   OH2 4130   1.983   1.619   5.148  0.7218  0.3883 -0.2257
 1375TIP3    H1 4131   1.971   1.527   5.171  0.2952  0.6815  0.8173
 1375TIP3    H2 4132   1.894   1.651   5.131  0.9028  0.5255 -0.9339
 1376TIP3   OH2 4133   5.399   4.475   4.452 -0.4912  0.0159  0.1074
 1376TIP3    H1 4134   5.318   4.480   4.503 -0.1824  3.2302  0.4466
 1376TIP3    H2 4135   5.469   4.470   4.517 -0.2854  0.3394 -0.0846
 1377TIP3   OH2 4136   0.744   3.242   0.399 -0.6097 -0.4925 -0.4383
 1377TIP3    H1 4137   0.665   3.200   0.433 -1.1548 -0.3846 -1.5253
 1377TIP3    H2 4138   0.808   3.232   0.469 -2.3022  1.6628  1.5922
 1378TIP3   OH2 4139   5.027   4.553   2.092 -0.3040 -0.0369 -0.0645
 1378TIP3    H1 4140   5.114   4.538   2.130 -0.3243  0.3739  0.1535
 1378TIP3    H2 4141   5.044   4.585   2.004 -0.2191  0.6567  0.2011
 1379TIP3   OH2 4142   1.224   5.234   0.035  0.1544 -0.0532 -0.0769
 1379TIP3    H1 4143   1.215   5.308  -0.025  0.7779 -0.2557 -0.4283
 1379TIP3    H2 4144   1.142   5.185   0.027 -0.3154  0.6647  0.2546
 1380TIP3   OH2 4145   4.833   2.950   1.322  0.6447 -0.5228  0.0206
 1380TIP3    H1 4146   4.761   2.926   1.263  0.9578  0.5371 -0.8070
 1380TIP3    H2 4147   4.878   3.022   1.278  1.5791 -0.4657  1.0297
 1381TIP3   OH2 4148   0.646   4.637   2.028  0.4054 -0.6988 -0.1273
 1381TIP3    H1 4149   0.585   4.694   2.075 -0.6624 -1.6924 -0.2687
 1381TIP3    H2 4150   0.649   4.674   1.939 -0.5590 -1.0551 -0.3182
 1382TIP3   OH2 4151   6.005   5.437   2.244  0.2432  0.9904  0.3872
 1382TIP3    H1 4152   6.019   5.488   2.164  0.9682 -0.5693 -0.5359
 1382TIP3    H2 4153   6.093   5.427   2.281  0.3216 -0.6833 -0.1808
 1383TIP3   OH2 4154   2.283   3.780   0.149 -0.1954  0.5288  0.6070
 1383TIP3    H1 4155   2.235   3.797   0.230  0.1509 -1.1319  1.1917
 1383TIP3    H2 4156   2.273   3.861   0.098 -1.4877  1.1373  1.7581
 1384TIP3   OH2 4157   1.519   1.053   4.107  0.1299 -0.0024  0.0621
 1384TIP3    H1 4158   1.590   1.001   4.071  1.0781  0.2793  1.4343
 1384TIP3    H2 4159   1.472   1.087   4.031  1.9626  0.4833 -0.9002
 1385TIP3   OH2 4160   3.706   1.925   0.554  0.3298  0.0432 -0.5025
 1385TIP3    H1 4161   3.715   1.985   0.627  0.1707 -1.1061  0.4936
 1385TIP3    H2 4162   3.615   1.897   0.555  0.7324 -1.3769  0.0378
 1386TIP3   OH2 4163   6.127   3.410   4.170 -0.6676  0.5419  0.6430
 1386TIP3    H1 4164   6.193   3.410   4.240 -0.0697  0.8788  0.0957
 1386TIP3    H2 4165   6.123   3.319   4.140 -2.1959  0.0325  2.2575
 1387TIP3   OH2 4166   3.948   5.659   4.792 -0.7359 -0.0650 -0.1988
 1387TIP3    H1 4167   3.960   5.707   4.711 -0.4985 -0.8551 -0.6467
 1387TIP3    H2 4168   3.857   5.673   4.816 -0.6315  0.7043 -0.2470
 1388TIP3   OH2 4169   2.501   1.429   4.634  0.4759 -0.1191  0.0426
 1388TIP3    H1 4170   2.503   1.510   4.684 -0.6418  0.1670 -0.3550
 1388TIP3    H2 4171   2.593   1.403   4.628  0.9834  1.6801 -0.7092
 1389TIP3   OH2 4172   4.525   1.346   2.799 -0.0610 -0.1345  0.3588
 1389TIP3    H1 4173   4.515   1.441   2.801  1.0475 -0.0091  1.9693
 1389TIP3    H2 4174   4.589   1.330   2.729  1.3512  0.5391  1.4243
 1390TIP3   OH2 4175   0.930   1.262   2.417  0.0840  1.0363 -0.2583
 1390TIP3    H1 4176   0.936   1.209   2.338 -2.7065  3.2811 -2.1613
 1390TIP3    H2 4177   0.959   1.349   2.391 -0.1941  1.6723  1.3957
 1391TIP3   OH2 4178   0.361   3.879   3.605  0.9560 -0.2496  0.1447
 1391TIP3    H1 4179   0.289   3.872   3.668  2.2037  1.3038  1.8603
 1391TIP3    H2 4180   0.333   3.948   3.544  0.3208 -0.7872 -0.1769
 1392TIP3   OH2 4181   2.638   0.994   2.483  0.2782 -0.0792  0.4323
 1392TIP3    H1 4182   2.685   1.018   2.403  0.0205 -0.8489  0.0394
 1392TIP3    H2 4183   2.673   0.908   2.506 -0.7330 -0.5350  0.2959
 1393TIP3   OH2 4184   4.372   0.690   3.998  0.1837  0.5180  0.4161
 1393TIP3    H1 4185   4.324   0.607   4.003  1.0614 -0.0118  0.2456
 1393TIP3    H2 4186   4.316   0.747   3.944 -0.3692  0.0074  0.4382
 1394TIP3   OH2 4187   1.711   2.166   4.272  0.0706 -0.9014 -0.2703
 1394TIP3    H1 4188   1.671   2.189   4.188 -0.6427 -0.3522  0.2158
 1394TIP3    H2 4189   1.797   2.130   4.248  0.6340  0.9180 -1.1362
 1395TIP3   OH2 4190   0.881   3.085   1.925  0.3885 -0.0614 -0.1752
 1395TIP3    H1 4191   0.961   3.032   1.921  1.0703  0.9417 -0.4480
 1395TIP3    H2 4192   0.833   3.051   2.000  0.8926 -0.9320 -0.2297
 1396TIP3   OH2 4193   4.969   2.822   2.028  0.2680 -0.0327  0.4575
 1396TIP3    H1 4194   4.986   2.808   2.122  0.3314  1.8365  0.7652
 1396TIP3    H2 4195   5.044   2.874   1.998 -0.2763  0.2933 -0.3699
 1397TIP3   OH2 4196   6.246   1.303   1.865 -0.1703  0.4684  0.0527
 1397TIP3    H1 4197   6.191   1.381   1.860 -0.8544  0.1171  1.4580
 1397TIP3    H2 4198   6.192   1.238   1.911  0.8434 -0.4036  0.0647
 1398TIP3   OH2 4199   1.114   3.050   0.176  0.1603 -0.0745 -0.3086
 1398TIP3    H1 4200   1.207   3.069   0.191  0.1104  0.6991 -0.8567
 1398TIP3    H2 4201   1.105   3.052   0.080 -0.3279 -0.6319 -0.2787
 1399TIP3   OH2 4202   3.270   2.367   0.373  0.1474 -0.5144  0.4432
 1399TIP3    H1 4203   3.336   2.339   0.309 -0.0841 -1.2999  0.5434
 1399TIP3    H2 4204   3.290   2.316   0.452 -1.2727 -1.6247  0.1233
 1400TIP3   OH2 4205   0.658   2.627   0.426 -0.1442  0.1571  0.1933
 1400TIP3    H1 4206   0.587   2.620   0.362  0.8350  1.0959 -1.0346
 1400TIP3    H2 4207   0.715   2.553   0.408 -0.8744 -0.7104  1.3104
 1401TIP3   OH2 4208   0.841   2.813   2.476 -0.0723  0.1974 -0.4756
 1401TIP3    H1 4209   0.768   2.871   2.495 -0.9257 -0.4625 -1.6471
 1401TIP3    H2 4210   0.822   2.733   2.525  0.4832  0.4437  0.1628
 1402TIP3   OH2 4211   2.340   4.283   3.235  0.3932  0.4117 -0.1526
 1402TIP3    H1 4212   2.365   4.356   3.179  0.4915 -0.2671 -1.0037
 1402TIP3    H2 4213   2.424   4.248   3.267  0.6410 -1.8360 -2.9699
 1403TIP3   OH2 4214   3.847   1.340   4.486 -0.0021 -0.2220 -0.7752
 1403TIP3    H1 4215   3.822   1.288   4.409 -1.5543 -0.6177 -0.0386
 1403TIP3    H2 4216   3.809   1.427   4.470  1.1021  0.2017 -1.1993
 1404TIP3   OH2 4217   2.272   2.817   0.231  0.5515 -0.0133  0.3301
 1404TIP3    H1 4218   2.318   2.755   0.287 -0.1106  0.0365  0.9358
 1404TIP3    H2 4219   2.341   2.876   0.199  1.4440 -1.8841 -1.4116
 1405TIP3   OH2 4220   1.317   1.706   2.740  0.0410  0.5884 -0.9931
 1405TIP3    H1 4221   1.342   1.791   2.704 -2.3703  0.1602 -4.1746
 1405TIP3    H2 4222   1.380   1.644   2.702 -0.4662  0.5609 -1.8310
 1406TIP3   OH2 4223   1.645   2.891   4.612  0.0350  0.0719  0.1423
 1406TIP3    H1 4224   1.573   2.941   4.574 -0.6389 -1.9489 -1.3942
 1406TIP3    H2 4225   1.642   2.912   4.705 -4.2242 -1.7827  0.6497
 1407TIP3   OH2 4226   4.190   3.377   2.135  0.5835 -0.0059 -0.1469
 1407TIP3    H1 4227   4.253   3.340   2.073  0.4902 -1.6170  0.6630
 1407TIP3    H2 4228   4.236   3.376   2.219  0.0543  0.3860  0.1512
 1408TIP3   OH2 4229   0.871   3.518   0.170  0.6712  0.0610 -0.1826
 1408TIP3    H1 4230   0.783   3.510   0.208  1.2856 -1.6190  1.0067
 1408TIP3    H2 4231   0.909   3.593   0.215  0.2203  0.1143  0.1209
 1409TIP3   OH2 4232   4.500   2.239   3.968  0.1498 -0.1992  0.4046
 1409TIP3    H1 4233   4.485   2.305   4.036 -2.5896  0.8889 -1.0848
 1409TIP3    H2 4234   4.415   2.195   3.959  1.3328 -2.5125 -0.1323
 1410TIP3   OH2 4235   4.898   1.516   2.592 -0.2259 -0.1922  0.2149
 1410TIP3    H1 4236   4.808   1.533   2.566 -0.7221 -0.7801  1.4869
 1410TIP3    H2 4237   4.916   1.581   2.659  0.1814 -0.3023  0.2142
 1411TIP3   OH2 4238   4.837   5.252   4.405  0.4515 -0.1403 -0.0165
 1411TIP3    H1 4239   4.871   5.270   4.317  0.8958  1.2479  0.4318
 1411TIP3    H2 4240   4.765   5.314   4.416  0.8853  0.2176  0.8859
 1412TIP3   OH2 4241   1.314   3.035   2.593 -0.3639  0.4283 -0.4802
 1412TIP3    H1 4242   1.282   3.124   2.610 -0.9991  0.5271 -2.0377
 1412TIP3    H2 4243   1.235   2.984   2.578 -0.0124 -0.4826  0.6274
 1413TIP3   OH2 4244   2.985   1.532   2.137  0.3454  0.0356 -0.3137
 1413TIP3    H1 4245   3.041   1.606   2.160  0.2654  0.7903 -2.3045
 1413TIP3    H2 4246   3.039   1.455   2.151  0.9677  0.5689  0.3149
 1414TIP3   OH2 4247   3.902   3.308   1.337  0.2255 -0.1947  0.5763
 1414TIP3    H1 4248   3.946   3.274   1.259  0.4723 -1.0802  1.0997
 1414TIP3    H2 4249   3.856   3.233   1.374 -2.6219  0.8720 -0.4988
 1415TIP3   OH2 4250   2.899   4.941   4.771  0.2017 -0.0269 -0.0310
 1415TIP3    H1 4251   2.883   4.902   4.857  0.8782  0.9699  0.5663
 1415TIP3    H2 4252   2.827   4.909   4.717  1.3788 -3.1103  0.0604
 1416TIP3   OH2 4253   0.665   3.987   2.892  0.6186  0.0912  0.0952
 1416TIP3    H1 4254   0.737   4.050   2.883  2.0534 -1.1011  2.1472
 1416TIP3    H2 4255   0.652   3.952   2.804 -0.4987  3.4003 -1.2124
 1417TIP3   OH2 4256   4.806   1.835   0.562 -0.3914 -0.7243 -0.4290
 1417TIP3    H1 4257   4.869   1.900   0.531 -1.3119 -0.1165 -1.0792
 1417TIP3    H2 4258   4.767   1.874   0.640 -1.6687  0.0014 -1.3809
 1418TIP3   OH2 4259   0.938   2.139   4.600  0.2004  0.0171  0.0219
 1418TIP3    H1 4260   1.028   2.169   4.615  0.3688  0.1180 -1.0831
 1418TIP3    H2 4261   0.925   2.150   4.506 -2.1741  3.3228  0.5444
 1419TIP3   OH2 4262   3.389   4.097   3.678 -0.5543 -0.4122  0.0746
 1419TIP3    H1 4263   3.399   4.122   3.587 -0.3715  2.1792  0.7249
 1419TIP3    H2 4264   3.446   4.021   3.689 -0.1195 -0.3966 -1.8032
 1420TIP3   OH2 4265   4.844   4.632   4.120 -0.1344  0.1477 -0.1815
 1420TIP3    H1 4266   4.837   4.699   4.052 -0.8869 -0.4334 -0.6968
 1420TIP3    H2 4267   4.847   4.681   4.202  0.0398  0.8325 -0.5867
 1421TIP3   OH2 4268   1.558   3.814   2.888 -0.4300 -0.1660 -0.0766
 1421TIP3    H1 4269   1.550   3.783   2.798 -1.8503 -0.0922  0.0012
 1421TIP3    H2 4270   1.525   3.904   2.886 -0.3451 -0.1167  0.4819
 1422TIP3   OH2 4271   6.225   1.334   3.021 -0.2927 -0.2159 -0.0847
 1422TIP3    H1 4272   6.181   1.342   3.106  0.7560  0.1489  0.4372
 1422TIP3    H2 4273   6.302   1.390   3.028 -0.1165 -0.2892 -1.2335
 1423TIP3   OH2 4274   2.594   0.266   3.486  0.6975 -0.0043  0.6035
 1423TIP3    H1 4275   2.637   0.302   3.408  1.6303 -0.4055  0.9084
 1423TIP3    H2 4276   2.626   0.176   3.491 -0.3024 -0.3573  0.7792
 1424TIP3   OH2 4277   2.230   2.745   5.209 -0.1484  0.2171 -0.6237
 1424TIP3    H1 4278   2.274   2.752   5.124 -0.1306 -1.1061 -0.7447
 1424TIP3    H2 4279   2.170   2.672   5.199  0.6898 -0.7315  0.8577
 1425TIP3   OH2 4280   1.962   0.078   4.270 -0.1806  0.1167  0.3756
 1425TIP3    H1 4281   1.978   0.172   4.276 -2.4449  0.5518  0.4277
 1425TIP3    H2 4282   1.943   0.062   4.178 -1.4538  0.0456  0.6313
 1426TIP3   OH2 4283   5.455   1.579   3.772  0.0218 -0.5377  0.1371
 1426TIP3    H1 4284   5.453   1.505   3.711 -1.5724 -0.0430 -0.4527
 1426TIP3    H2 4285   5.546   1.583   3.801  0.4182 -1.9311 -0.7931
 1427TIP3   OH2 4286   3.030   0.925   3.145 -0.0776  0.5738 -0.1317
 1427TIP3    H1 4287   3.019   0.937   3.240  1.1754  2.1072 -0.1508
 1427TIP3    H2 4288   2.999   1.007   3.107 -1.8524 -0.5227 -1.2070
 1428TIP3   OH2 4289   1.474   5.000   3.727  0.2212  0.4913 -0.3611
 1428TIP3    H1 4290   1.406   5.059   3.760 -0.2411 -0.2276  0.0069
 1428TIP3    H2 4291   1.426   4.928   3.687  0.7850  0.8219 -1.6734
 1429TIP3   OH2 4292   2.807   4.063   0.795  0.0146 -0.5082 -0.5279
 1429TIP3    H1 4293   2.817   4.014   0.876  1.3565 -0.8772 -0.8792
 1429TIP3    H2 4294   2.805   4.155   0.822  0.5479 -0.6248 -0.0706
 1430TIP3   OH2 4295   2.689   0.040   2.397  0.9967 -0.2160 -0.0755
 1430TIP3    H1 4296   2.706   0.015   2.488 -0.2427  1.5380  0.7095
 1430TIP3    H2 4297   2.750   0.111   2.379 -0.1331  0.8590  0.1450
 1431TIP3   OH2 4298   0.595   5.715   2.322 -0.5228 -0.2102  0.5304
 1431TIP3    H1 4299   0.594   5.811   2.329  0.5776 -0.0530 -0.9753
 1431TIP3    H2 4300   0.685   5.694   2.297 -0.6246 -1.6971  1.3134
 1432TIP3   OH2 4301   0.370   1.434   3.641 -0.1587 -0.0991  0.4248
 1432TIP3    H1 4302   0.389   1.342   3.655  0.1527 -0.1340 -0.1954
 1432TIP3    H2 4303   0.312   1.458   3.713 -0.9018 -0.9882  0.1431
 1433TIP3   OH2 4304   1.206   3.680   2.407 -0.3446 -0.0371 -0.1079
 1433TIP3    H1 4305   1.241   3.712   2.324 -1.9960  1.1291 -0.3930
 1433TIP3    H2 4306   1.260   3.603   2.427  0.6443  0.1600 -1.8045
 1434TIP3   OH2 4307   0.795   4.880   3.750 -0.2623 -0.1459 -0.7277
 1434TIP3    H1 4308   0.805   4.882   3.654  0.9341 -1.2148 -0.6526
 1434TIP3    H2 4309   0.855   4.947   3.782 -0.6876  0.2351 -0.7183
 1435TIP3   OH2 4310   1.566   4.893   2.123  0.4270  0.0859 -0.0107
 1435TIP3    H1 4311   1.640   4.892   2.183  0.9336 -0.9196 -0.6260
 1435TIP3    H2 4312   1.568   4.807   2.082 -0.9198  0.1515 -0.2420
 1436TIP3   OH2 4313   4.094   0.023   2.618 -0.5378 -0.2382 -0.0203
 1436TIP3    H1 4314   4.045  -0.050   2.580  1.0225 -0.3815 -1.8920
 1436TIP3    H2 4315   4.044   0.047   2.696 -2.7695 -1.2787 -1.0394
 1437TIP3   OH2 4316   0.911   5.611   2.957 -0.0900 -0.2962  0.1000
 1437TIP3    H1 4317   0.817   5.613   2.936  0.3702  1.2403 -2.1752
 1437TIP3    H2 4318   0.934   5.519   2.954 -0.9578 -0.5162 -2.4749
 1438TIP3   OH2 4319   4.547   2.026   4.605  0.3714  0.2311 -0.7116
 1438TIP3    H1 4320   4.559   2.086   4.532  1.6985  0.0779 -0.6363
 1438TIP3    H2 4321   4.468   1.977   4.582  1.0247 -0.1467 -2.2834
 1439TIP3   OH2 4322   2.344   5.424   2.321  0.7566  0.0076  0.4430
 1439TIP3    H1 4323   2.285   5.424   2.246  1.0176  1.2594  0.2149
 1439TIP3    H2 4324   2.360   5.332   2.339 -1.8466 -0.3970  0.9870
 1440TIP3   OH2 4325   2.667   5.736   4.658 -0.5069  0.2734  0.0171
 1440TIP3    H1 4326   2.737   5.674   4.682 -1.4948 -0.1855  1.9099
 1440TIP3    H2 4327   2.710   5.799   4.600  0.6435 -1.9222 -1.7039
 1441TIP3   OH2 4328   1.206   1.895   2.407 -0.0317 -0.1766 -0.4057
 1441TIP3    H1 4329   1.278   1.893   2.470  1.0670  1.8093 -1.5072
 1441TIP3    H2 4330   1.128   1.911   2.460  0.8393  1.2398  0.5121
 1442TIP3   OH2 4331   5.143   2.848   4.227  0.0592  0.4532  0.6356
 1442TIP3    H1 4332   5.078   2.843   4.157  3.4259  0.4717 -2.7632
 1442TIP3    H2 4333   5.163   2.942   4.234  1.5982  0.2259 -0.3264
 1443TIP3   OH2 4334   5.189   2.955   2.000  0.1910  0.4067  0.3825
 1443TIP3    H1 4335   5.276   2.985   1.977  0.9853 -2.0722 -0.1719
 1443TIP3    H2 4336   5.197   2.922   2.090 -0.2216  0.3180  0.3913
 1444TIP3   OH2 4337   0.219   2.938   3.739  0.0178 -0.1365 -0.4655
 1444TIP3    H1 4338   0.311   2.933   3.717  0.2966  0.3206  0.5206
 1444TIP3    H2 4339   0.208   3.026   3.776 -0.9798  0.1090 -1.2796
 1445TIP3   OH2 4340   2.663   5.412   4.735  0.2822  0.0219 -0.4100
 1445TIP3    H1 4341   2.730   5.366   4.683 -0.5270 -2.4722  0.6451
 1445TIP3    H2 4342   2.707   5.431   4.818 -0.0104 -0.7357 -0.0787
 1446TIP3   OH2 4343   4.890   4.880   0.980 -0.1276  0.6167  0.4459
 1446TIP3    H1 4344   4.803   4.903   0.947 -0.3209 -1.5173 -0.6721
 1446TIP3    H2 4345   4.899   4.787   0.962  2.9269  1.0167 -0.7307
 1447TIP3   OH2 4346   1.299   2.779   1.924 -0.3040  0.3522 -0.2139
 1447TIP3    H1 4347   1.346   2.768   2.006  0.3814  0.8901 -0.5197
 1447TIP3    H2 4348   1.299   2.692   1.884 -0.7566  0.0611  0.4074
 1448TIP3   OH2 4349   4.684   1.193   2.584  0.1274 -0.6344 -0.2514
 1448TIP3    H1 4350   4.772   1.197   2.548 -0.4028 -1.1002 -1.6776
 1448TIP3    H2 4351   4.679   1.108   2.627  0.5563 -0.3462  0.3916
 1449TIP3   OH2 4352   3.014   2.228   1.615 -0.2919 -0.6452 -0.3972
 1449TIP3    H1 4353   3.070   2.254   1.688 -2.7578 -1.3942  1.9322
 1449TIP3    H2 4354   2.964   2.307   1.594 -0.6259 -0.8163 -0.2504
 1450TIP3   OH2 4355   0.672   3.647   4.908  0.1573  0.0517 -0.5655
 1450TIP3    H1 4356   0.595   3.594   4.927 -0.2654  1.0059  0.4579
 1450TIP3    H2 4357   0.672   3.655   4.812  0.0626 -1.5049 -0.7260
 1451TIP3   OH2 4358   5.963   4.459   5.065 -0.6048 -0.4857 -0.5207
 1451TIP3    H1 4359   6.041   4.405   5.054 -0.8186 -0.5762 -1.7057
 1451TIP3    H2 4360   5.965   4.520   4.991 -0.6061  0.8419  0.5413
 1452TIP3   OH2 4361   5.788   5.643   2.377 -0.0152 -0.1302 -0.2769
 1452TIP3    H1 4362   5.871   5.668   2.416 -0.1675  2.1016 -1.2794
 1452TIP3    H2 4363   5.807   5.626   2.285 -0.3361 -1.7092 -0.0951
 1453TIP3   OH2 4364   2.066   1.924   4.774 -0.1210 -0.6266  0.2043
 1453TIP3    H1 4365   2.097   1.894   4.689  0.3890  0.2085  0.0859
 1453TIP3    H2 4366   1.988   1.975   4.755 -1.8609 -2.9947  0.5291
 1454TIP3   OH2 4367   1.079   2.803   4.093  0.9822  0.3477 -0.4515
 1454TIP3    H1 4368   1.027   2.799   4.012  0.9181 -1.2660 -0.3718
 1454TIP3    H2 4369   1.057   2.887   4.132 -1.1623 -0.0331 -0.7117
 1455TIP3   OH2 4370   0.738   0.282   1.382 -0.1428  0.5796  0.6553
 1455TIP3    H1 4371   0.658   0.320   1.417 -0.8291  0.9412 -1.2124
 1455TIP3    H2 4372   0.712   0.241   1.300  1.4618  0.1144  0.3340
 1456TIP3   OH2 4373   1.811   1.831   4.991 -0.1368 -0.1396  0.8023
 1456TIP3    H1 4374   1.793   1.774   4.917 -0.0217 -2.1013  2.2185
 1456TIP3    H2 4375   1.857   1.906   4.953  0.8120 -1.5518 -0.9642
 1457TIP3   OH2 4376   4.991   1.619   2.854  0.1859 -0.4438 -0.4384
 1457TIP3    H1 4377   5.055   1.560   2.895  0.6696  0.7796  0.6410
 1457TIP3    H2 4378   4.909   1.603   2.900  0.6112  0.5685  0.7415
 1458TIP3   OH2 4379   3.157   2.928   0.199  0.0404 -1.1074  0.2476
 1458TIP3    H1 4380   3.231   2.872   0.174 -0.7418 -1.2447 -1.9177
 1458TIP3    H2 4381   3.128   2.967   0.117 -0.8736  0.7375  1.3974
 1459TIP3   OH2 4382   5.863   0.341   4.336  0.1949  0.0758 -0.1880
 1459TIP3    H1 4383   5.786   0.337   4.393  0.3166 -0.8167 -0.0606
 1459TIP3    H2 4384   5.830   0.312   4.251  0.7743 -2.3524  0.3381
 1460TIP3   OH2 4385   3.419   1.379   0.809 -0.6197 -0.2582  0.0955
 1460TIP3    H1 4386   3.333   1.403   0.775  0.2934  0.7835 -1.5798
 1460TIP3    H2 4387   3.423   1.419   0.896 -1.3485  0.7446 -0.3276
 1461TIP3   OH2 4388   4.476   5.019   1.531 -0.5533  0.3856  0.6440
 1461TIP3    H1 4389   4.442   5.108   1.531 -0.3029  0.4824  0.3428
 1461TIP3    H2 4390   4.397   4.964   1.527 -0.7018  0.5941  0.6645
 1462TIP3   OH2 4391   2.198   3.771   0.824  0.0511  0.0436 -0.1409
 1462TIP3    H1 4392   2.228   3.723   0.746  1.1209 -1.0008  0.8724
 1462TIP3    H2 4393   2.265   3.753   0.890  0.3520  2.7556  0.3931
 1463TIP3   OH2 4394   5.003   0.132   1.970  0.2430  0.1908 -0.8264
 1463TIP3    H1 4395   4.970   0.106   1.884  0.0436 -1.5235 -0.2729
 1463TIP3    H2 4396   5.098   0.134   1.960  0.1843  0.7999 -1.2888
 1464TIP3   OH2 4397   1.678   5.708   3.606  0.2799  0.2934  0.0214
 1464TIP3    H1 4398   1.651   5.673   3.691 -1.0376  2.8153  0.7532
 1464TIP3    H2 4399   1.772   5.723   3.615  0.1501  0.5616  1.0641
 1465TIP3   OH2 4400   3.842   4.159   1.002  0.1057  0.0787 -0.2997
 1465TIP3    H1 4401   3.756   4.140   1.039  0.7266 -2.3376  0.0524
 1465TIP3    H2 4402   3.904   4.136   1.072  1.0818  1.4111 -0.6812
 1466TIP3   OH2 4403   4.102   1.657   4.869  0.0405  0.1954  0.5881
 1466TIP3    H1 4404   4.099   1.716   4.793 -0.3706 -1.1391 -0.4597
 1466TIP3    H2 4405   4.062   1.576   4.838 -0.2588 -0.3376  2.2861
 1467TIP3   OH2 4406   6.143   3.773   2.174  0.2247  0.1977 -0.6293
 1467TIP3    H1 4407   6.117   3.865   2.175 -0.8216 -0.0640 -1.6177
 1467TIP3    H2 4408   6.239   3.776   2.179  0.2575  1.3790 -1.3895
 1468TIP3   OH2 4409   6.037   2.008   4.219 -0.3994 -0.0575 -0.1165
 1468TIP3    H1 4410   5.972   2.069   4.183 -1.2397 -1.0726 -0.3695
 1468TIP3    H2 4411   6.116   2.061   4.229 -0.9077  0.9133 -0.9647
 1469TIP3   OH2 4412   1.804   4.885   3.705 -0.0624  0.6550  0.0166
 1469TIP3    H1 4413   1.859   4.940   3.760 -0.1509  0.3383  0.4271
 1469TIP3    H2 4414   1.733   4.943   3.676  0.9918  1.3330 -1.3098
 1470TIP3   OH2 4415   1.205   3.385   3.036  0.2471 -0.2174 -0.5834
 1470TIP3    H1 4416   1.207   3.422   2.947 -2.5074 -1.3440 -1.2296
 1470TIP3    H2 4417   1.188   3.292   3.022  1.6346 -0.7730  1.1314
 1471TIP3   OH2 4418   1.918   3.381   1.922  0.0949  0.3208 -0.1363
 1471TIP3    H1 4419   1.857   3.309   1.910  0.5554 -0.2740  0.9661
 1471TIP3    H2 4420   2.004   3.344   1.903  0.4136  0.3613  1.1252
 1472TIP3   OH2 4421   6.000   0.771   1.176 -0.3497 -0.5229 -0.1099
 1472TIP3    H1 4422   5.913   0.774   1.213 -0.5332 -0.9550 -0.4927
 1472TIP3    H2 4423   5.986   0.761   1.082  0.0899  1.2174 -0.4014
 1473TIP3   OH2 4424   4.805   1.316   1.431  0.1710  0.7388  0.2938
 1473TIP3    H1 4425   4.779   1.406   1.411  1.5632  1.4480  1.4739
 1473TIP3    H2 4426   4.850   1.285   1.352 -0.3759  1.0390 -0.1414
 1474TIP3   OH2 4427   4.390   5.209   5.021  0.4711 -0.3247  0.2154
 1474TIP3    H1 4428   4.332   5.278   5.055  1.8816  1.0130  0.0262
 1474TIP3    H2 4429   4.395   5.145   5.092  0.7933  0.8178  1.2508
 1475TIP3   OH2 4430   2.616   0.269   1.835 -0.3554 -0.0336 -0.0675
 1475TIP3    H1 4431   2.546   0.210   1.806 -0.6420  0.7350 -0.9793
 1475TIP3    H2 4432   2.653   0.226   1.912 -1.4345 -0.7484  0.0703
 1476TIP3   OH2 4433   2.403   2.772   3.986 -0.4120 -0.4923 -0.6660
 1476TIP3    H1 4434   2.338   2.712   3.950  0.6819 -0.7651 -2.2821
 1476TIP3    H2 4435   2.442   2.724   4.059 -0.8233 -1.0018 -0.7724
 1477TIP3   OH2 4436   5.377   5.147   3.242 -0.6842  0.2067  0.2694
 1477TIP3    H1 4437   5.361   5.084   3.312 -1.3866 -0.3106 -0.3415
 1477TIP3    H2 4438   5.301   5.139   3.185  0.8446 -0.9544 -1.7370
 1478TIP3   OH2 4439   3.585   0.388   3.324 -0.5437 -0.4386  0.7645
 1478TIP3    H1 4440   3.499   0.416   3.293 -0.6715 -0.8004  0.7853
 1478TIP3    H2 4441   3.623   0.340   3.251 -1.0486 -1.7264  1.3075
 1479TIP3   OH2 4442   0.728   2.216   4.069 -0.2123 -0.4286 -0.2179
 1479TIP3    H1 4443   0.717   2.181   3.981 -0.3620  0.1617 -0.4327
 1479TIP3    H2 4444   0.651   2.183   4.117  0.2812 -1.4276 -0.0742
 1480TIP3   OH2 4445   3.881   5.188   3.954  0.3201  0.9018  0.6927
 1480TIP3    H1 4446   3.938   5.124   3.912 -0.8679  1.8435 -2.7081
 1480TIP3    H2 4447   3.810   5.136   3.991  0.3685  0.1033 -0.2818
 1481TIP3   OH2 4448   3.515   0.022   4.236 -0.1729 -0.2175  0.2354
 1481TIP3    H1 4449   3.553  -0.048   4.183 -0.4702 -0.5648  0.4765
 1481TIP3    H2 4450   3.441   0.053   4.185  0.6918  0.7723 -0.4482
 1482TIP3   OH2 4451   4.063   4.996   3.909 -0.7588  0.4864 -0.9602
 1482TIP3    H1 4452   4.031   4.957   3.991  1.5692  0.7669  0.1719
 1482TIP3    H2 4453   4.095   4.922   3.858  0.6010  0.5387 -0.2412
 1483TIP3   OH2 4454   1.014   1.358   4.430 -0.4279  0.0549  0.4837
 1483TIP3    H1 4455   1.084   1.301   4.461 -1.0797 -0.6363  0.7198
 1483TIP3    H2 4456   1.002   1.423   4.500  0.8634  1.0050 -0.1369
 1484TIP3   OH2 4457   3.432   0.227   1.951 -0.0409  0.4838  0.1844
 1484TIP3    H1 4458   3.378   0.232   2.030  0.5452 -1.1816  0.7387
 1484TIP3    H2 4459   3.375   0.258   1.881 -0.8292  1.2544  1.1375
 1485TIP3   OH2 4460   2.854   0.116   4.900  0.2250 -0.6055 -0.0946
 1485TIP3    H1 4461   2.845   0.178   4.972 -1.0092 -0.2426 -0.5443
 1485TIP3    H2 4462   2.925   0.152   4.847  0.6366 -0.4739  0.5304
 1486TIP3   OH2 4463   4.524   1.743   1.878  0.4574 -0.0012 -0.2436
 1486TIP3    H1 4464   4.562   1.784   1.956  2.3822 -2.1214  0.0323
 1486TIP3    H2 4465   4.572   1.781   1.805  2.5357 -1.8779  0.0364
 1487TIP3   OH2 4466   4.544   0.431   1.551 -0.1455  0.2859 -0.3317
 1487TIP3    H1 4467   4.550   0.526   1.544  2.1172  0.4543  2.4333
 1487TIP3    H2 4468   4.635   0.401   1.557 -0.8283 -1.6308  2.4822
 1488TIP3   OH2 4469   4.661   4.739   2.069  0.0696 -0.1239 -0.5255
 1488TIP3    H1 4470   4.678   4.777   1.983  0.8445  0.7575 -0.0096
 1488TIP3    H2 4471   4.587   4.788   2.103  0.4647  0.2932 -0.2501
 1489TIP3   OH2 4472   0.102   5.502   1.265  0.5943 -0.1911 -0.1261
 1489TIP3    H1 4473   0.014   5.495   1.303  1.3057 -0.3700  1.5811
 1489TIP3    H2 4474   0.125   5.413   1.241  0.7878 -0.3448  0.6032
 1490TIP3   OH2 4475   5.554   4.920   1.350 -0.2901  0.1097  0.5129
 1490TIP3    H1 4476   5.528   4.859   1.419  2.6156 -2.1735 -0.2402
 1490TIP3    H2 4477   5.626   4.970   1.388 -0.7163  1.0588  0.1151
 1491TIP3   OH2 4478   6.303   0.585   2.112  0.1480  0.2698 -0.4482
 1491TIP3    H1 4479   6.241   0.570   2.041  1.1580 -0.2438 -1.2445
 1491TIP3    H2 4480   6.280   0.520   2.179 -0.6006  0.5456 -0.4285
 1492TIP3   OH2 4481   0.338   0.100   4.266 -0.6807 -0.5554 -0.1763
 1492TIP3    H1 4482   0.358   0.081   4.357  0.9588 -2.3669 -0.8282
 1492TIP3    H2 4483   0.389   0.178   4.245  1.9190 -2.1842 -0.4148
 1493TIP3   OH2 4484   3.369   0.805   0.568 -0.1571  0.2087  0.1137
 1493TIP3    H1 4485   3.313   0.873   0.531  1.2301  1.6384  0.5504
 1493TIP3    H2 4486   3.333   0.723   0.532 -1.9298  1.1287 -0.3412
 1494TIP3   OH2 4487   5.683   5.334   1.625 -0.6171 -0.3176 -0.5618
 1494TIP3    H1 4488   5.709   5.390   1.698 -0.1543  0.5704 -1.3951
 1494TIP3    H2 4489   5.600   5.372   1.595 -0.0587  0.2179 -1.4361
 1495TIP3   OH2 4490   3.175   4.953   1.481 -0.3720  0.0851 -0.0002
 1495TIP3    H1 4491   3.111   5.022   1.496  0.5287  1.0117 -0.2540
 1495TIP3    H2 4492   3.159   4.925   1.391 -1.6846 -1.0899  0.5577
 1496TIP3   OH2 4493   3.509   5.918   2.606  0.2915  0.1667  0.1198
 1496TIP3    H1 4494   3.502   5.881   2.518 -0.0391 -0.4900  0.4083
 1496TIP3    H2 4495   3.585   5.975   2.603  0.2829  0.1463 -0.5923
 1497TIP3   OH2 4496   6.258   0.989   0.539  0.1260 -0.3353  0.1210
 1497TIP3    H1 4497   6.261   0.981   0.634  0.0982  0.2170  0.1730
 1497TIP3    H2 4498   6.288   1.078   0.522  2.0081 -1.0460 -0.5110
 1498TIP3   OH2 4499   0.759   3.720   3.094  0.3767  0.6658  0.2541
 1498TIP3    H1 4500   0.763   3.810   3.061  1.4455  0.7792  0.6381
 1498TIP3    H2 4501   0.834   3.713   3.154 -2.1024  0.8341  3.6598
 1499TIP3   OH2 4502   2.659   2.098   2.443 -0.2092 -0.3803  0.3224
 1499TIP3    H1 4503   2.607   2.177   2.439 -0.8251 -0.6969  1.6128
 1499TIP3    H2 4504   2.648   2.057   2.357 -1.7751 -0.2366  0.4360
 1500TIP3   OH2 4505   2.589   3.596   1.670 -0.6916  0.1676 -0.1603
 1500TIP3    H1 4506   2.657   3.632   1.726  0.0328  0.0171 -0.9153
 1500TIP3    H2 4507   2.519   3.661   1.671 -1.1657 -0.3144  1.7510
 1501TIP3   OH2 4508   6.320   2.077   3.599 -0.4525 -0.2024 -0.4250
 1501TIP3    H1 4509   6.259   2.063   3.525  1.4730  0.3083 -2.2002
 1501TIP3    H2 4510   6.298   2.164   3.631 -0.4576  0.1306 -1.2910
 1502TIP3   OH2 4511   2.054   2.402   2.129 -0.3903 -0.3894  0.5687
 1502TIP3    H1 4512   2.102   2.330   2.089  1.4884  0.4462  1.2000
 1502TIP3    H2 4513   1.973   2.362   2.162  0.2353 -2.0299  0.1997
 1503TIP3   OH2 4514   4.764   3.522   0.031  0.1573 -0.4577  0.1319
 1503TIP3    H1 4515   4.762   3.458   0.102  2.3587  0.1857  0.8650
 1503TIP3    H2 4516   4.779   3.470  -0.048  0.8876 -0.9537  0.5863
 1504TIP3   OH2 4517   2.753   0.084   2.667 -0.0053  0.2197  0.2371
 1504TIP3    H1 4518   2.693   0.028   2.717 -0.3640  0.0682 -0.3515
 1504TIP3    H2 4519   2.807   0.127   2.734  1.5282 -2.2032  0.6666
 1505TIP3   OH2 4520   5.350   4.574   0.387 -0.1700 -0.3663  1.1042
 1505TIP3    H1 4521   5.361   4.558   0.293 -1.6487 -0.6687  0.9652
 1505TIP3    H2 4522   5.440   4.583   0.420  0.3623  0.3329 -0.4229
 1506TIP3   OH2 4523   6.123   5.942   4.986  0.1014 -0.1230  0.2184
 1506TIP3    H1 4524   6.175   5.953   5.065 -0.2209 -0.7098  0.5187
 1506TIP3    H2 4525   6.056   6.010   4.991  1.6889  1.6187 -0.9014
 1507TIP3   OH2 4526   1.352   0.041   4.388 -0.4622 -1.0645 -0.3715
 1507TIP3    H1 4527   1.279   0.078   4.438 -1.7161 -3.2462 -0.4655
 1507TIP3    H2 4528   1.384  -0.030   4.443 -0.7790 -2.4432 -1.9029
 1508TIP3   OH2 4529   3.862   2.833   4.606  0.1353 -0.5030  0.4544
 1508TIP3    H1 4530   3.911   2.767   4.557 -0.6051 -1.3871  0.8804
 1508TIP3    H2 4531   3.918   2.854   4.681  0.4768 -0.4611  0.1923
 1509TIP3   OH2 4532   3.748   1.115   1.742 -0.0200  0.5844  0.3042
 1509TIP3    H1 4533   3.706   1.029   1.736  1.4413 -0.3875  2.4390
 1509TIP3    H2 4534   3.743   1.151   1.654 -1.6992 -1.1738 -0.3955
 1510TIP3   OH2 4535   2.066   2.264   1.681  0.2274 -0.0544  0.5000
 1510TIP3    H1 4536   2.100   2.241   1.767  0.4611  0.6303  0.5980
 1510TIP3    H2 4537   2.092   2.192   1.624 -0.0150 -0.5604  1.0191
 1511TIP3   OH2 4538   6.196   3.064   0.873  0.5051  0.3183  0.5657
 1511TIP3    H1 4539   6.147   2.982   0.878 -1.8362  1.4442 -1.6199
 1511TIP3    H2 4540   6.288   3.038   0.879 -0.1517 -2.4915 -0.3726
 1512TIP3   OH2 4541   5.533   0.172   2.764  0.2296  0.4313  0.5212
 1512TIP3    H1 4542   5.559   0.152   2.854 -0.1755  0.5381  0.6636
 1512TIP3    H2 4543   5.532   0.087   2.720  0.6076  0.3998  0.5667
 1513TIP3   OH2 4544   4.698   5.672   2.206 -0.1915  0.5420  0.2226
 1513TIP3    H1 4545   4.616   5.721   2.201 -0.2042  0.4038 -3.2743
 1513TIP3    H2 4546   4.763   5.728   2.164  0.8833 -0.5412  0.3701
 1514TIP3   OH2 4547   3.962   3.552   0.695 -0.7359 -0.2081  0.0723
 1514TIP3    H1 4548   3.978   3.629   0.749  3.3913  0.1796 -1.3206
 1514TIP3    H2 4549   3.955   3.480   0.757  0.4826  0.6486  1.2522
 1515TIP3   OH2 4550   4.195   1.248   3.150  0.8403 -0.0045 -0.5597
 1515TIP3    H1 4551   4.283   1.223   3.125  0.6989 -0.4188 -0.6542
 1515TIP3    H2 4552   4.166   1.307   3.080  1.3872  0.9060 -0.0358
 1516TIP3   OH2 4553   0.369   5.149   3.429 -0.5170 -0.8148 -0.2661
 1516TIP3    H1 4554   0.437   5.081   3.423  1.0876  0.6634  0.1136
 1516TIP3    H2 4555   0.397   5.215   3.366 -1.8500 -0.3418 -0.3790
 1517TIP3   OH2 4556   2.126   2.953   3.067 -0.4256  0.2473  0.1783
 1517TIP3    H1 4557   2.072   3.010   3.122 -0.7298 -0.4457  0.6071
 1517TIP3    H2 4558   2.066   2.919   3.001 -0.0250  1.2114 -0.7120
 1518TIP3   OH2 4559   3.514   2.764   1.174  0.4876 -0.1640 -0.2835
 1518TIP3    H1 4560   3.600   2.803   1.188  0.1426  0.0223  1.6189
 1518TIP3    H2 4561   3.495   2.780   1.081  1.4712  1.9198 -0.1857
 1519TIP3   OH2 4562   0.043   2.864   2.524  0.2983 -0.5565 -0.4198
 1519TIP3    H1 4563   0.084   2.779   2.510 -0.9403 -1.7746  2.5356
 1519TIP3    H2 4564   0.116   2.926   2.523  1.6948 -2.1026  0.5013
 1520TIP3   OH2 4565   0.897   1.218   0.102 -0.3937  0.3111  0.0814
 1520TIP3    H1 4566   0.812   1.253   0.075 -1.1272 -0.5295  1.2392
 1520TIP3    H2 4567   0.891   1.124   0.083  0.2687  0.2409  0.2009
 1521TIP3   OH2 4568   3.419   0.232   4.471 -0.8789  0.0999  0.2534
 1521TIP3    H1 4569   3.463   0.262   4.550  1.4472 -0.6302 -0.6771
 1521TIP3    H2 4570   3.462   0.149   4.450 -3.3102 -1.1103 -0.3034
 1522TIP3   OH2 4571   0.016   2.118   1.477  0.1287 -0.0825  0.2704
 1522TIP3    H1 4572  -0.004   2.203   1.517 -1.2578  0.3037 -1.1043
 1522TIP3    H2 4573   0.070   2.139   1.401 -0.6248 -0.3577 -0.3573
 1523TIP3   OH2 4574   4.728   1.308   3.601 -0.1624  0.3155  0.5611
 1523TIP3    H1 4575   4.795   1.317   3.669  0.9087  0.9083 -0.5239
 1523TIP3    H2 4576   4.713   1.213   3.596  2.8109 -0.1981 -1.1484
 1524TIP3   OH2 4577   3.353   5.158   3.325 -0.0184 -0.2536 -0.6613
 1524TIP3    H1 4578   3.313   5.245   3.326  1.4346  0.4541 -0.2032
 1524TIP3    H2 4579   3.359   5.135   3.233  2.6600  1.6900 -1.1067
 1525TIP3   OH2 4580   4.240   2.035   2.305  0.3700 -0.4996 -0.5649
 1525TIP3    H1 4581   4.167   2.079   2.263  1.1767 -0.1245 -1.6025
 1525TIP3    H2 4582   4.263   2.090   2.380 -0.9900 -1.1073  0.3415
 1526TIP3   OH2 4583   3.127   5.180   1.216  0.1142 -0.1576 -0.0165
 1526TIP3    H1 4584   3.099   5.250   1.157 -0.3077  0.2785  0.6930
 1526TIP3    H2 4585   3.146   5.224   1.299 -1.0199 -0.9863  0.7074
 1527TIP3   OH2 4586   1.307   5.094   2.500  0.0258  0.4719  1.0133
 1527TIP3    H1 4587   1.295   5.034   2.426 -2.1738  2.3104 -0.2336
 1527TIP3    H2 4588   1.400   5.115   2.499  0.1437  0.0401 -0.8927
 1528TIP3   OH2 4589   3.008   2.443   2.317 -0.2359  0.1603 -0.2758
 1528TIP3    H1 4590   2.957   2.373   2.276  0.0748 -0.2094 -0.0483
 1528TIP3    H2 4591   3.026   2.411   2.405  1.2973 -0.2246 -0.6864
 1529TIP3   OH2 4592   5.937   4.349   2.230  0.1424  0.2158  0.4336
 1529TIP3    H1 4593   5.879   4.381   2.161  0.2758  0.5834  0.4880
 1529TIP3    H2 4594   6.024   4.379   2.204  0.2190  0.1989  0.6694
 1530TIP3   OH2 4595   5.520   2.899   1.655 -0.3310 -0.2006  0.1149
 1530TIP3    H1 4596   5.570   2.819   1.669  0.7024  0.6511  1.6209
 1530TIP3    H2 4597   5.583   2.961   1.619 -0.6004  0.5298  0.8648
 1531TIP3   OH2 4598   0.824   4.591   3.863  0.8159  0.1707 -0.2013
 1531TIP3    H1 4599   0.824   4.679   3.825  0.2029  0.4986  0.5306
 1531TIP3    H2 4600   0.735   4.579   3.897  1.0528 -0.5120  0.2044
 1532TIP3   OH2 4601   2.179   2.085   1.487  0.3982 -0.3984 -0.6077
 1532TIP3    H1 4602   2.193   2.107   1.395  1.4633  2.0604  0.0673
 1532TIP3    H2 4603   2.248   2.131   1.534 -0.3275 -1.3051  1.4807
 1533TIP3   OH2 4604   5.632   3.557   1.104 -0.0123  0.2077 -0.6704
 1533TIP3    H1 4605   5.692   3.484   1.092  0.6492  0.2029  2.0256
 1533TIP3    H2 4606   5.589   3.540   1.187 -2.2881  1.2767 -1.5287
 1534TIP3   OH2 4607   0.056   3.569   1.049 -0.2676  0.2447  0.5343
 1534TIP3    H1 4608   0.098   3.484   1.033 -1.2546 -0.0960 -0.4361
 1534TIP3    H2 4609   0.059   3.580   1.144  3.7615  1.2030  0.4847
 1535TIP3   OH2 4610   3.957   5.645   0.550  0.2662  0.0685  0.3748
 1535TIP3    H1 4611   3.969   5.740   0.553 -0.8066  0.2929 -1.1328
 1535TIP3    H2 4612   3.864   5.632   0.571  0.0485 -0.5023 -0.8436
 1536TIP3   OH2 4613   0.304   3.240   4.686 -0.2137 -0.4433  0.5353
 1536TIP3    H1 4614   0.396   3.242   4.714  0.0343 -0.2079 -0.2606
 1536TIP3    H2 4615   0.293   3.320   4.633 -1.2099  0.1643  1.6215
 1537TIP3   OH2 4616   1.461   5.938   0.070 -0.1648  0.0798  0.1723
 1537TIP3    H1 4617   1.426   5.955   0.157 -0.1611 -1.4482  0.5094
 1537TIP3    H2 4618   1.507   5.854   0.080  0.6603  0.3619 -1.0741
 1538TIP3   OH2 4619   4.551   1.873   1.643 -0.0822  0.0241 -0.1708
 1538TIP3    H1 4620   4.548   1.801   1.581 -1.0008 -0.9411  0.9451
 1538TIP3    H2 4621   4.460   1.903   1.650 -0.1398 -0.4338  1.3043
 1539TIP3   OH2 4622   2.292   2.237   0.757  0.3782  0.2902 -0.3954
 1539TIP3    H1 4623   2.327   2.213   0.671  1.3771 -0.1595  0.1158
 1539TIP3    H2 4624   2.369   2.263   0.808 -0.0277 -0.6248  0.7349
 1540TIP3   OH2 4625   1.692   4.013   4.761  0.6829  0.0478  0.4129
 1540TIP3    H1 4626   1.659   4.013   4.851 -1.4871  1.3098 -0.3274
 1540TIP3    H2 4627   1.711   4.105   4.742 -1.6070  0.2298 -1.3093
 1541TIP3   OH2 4628   5.137   3.770   0.567  0.4804  0.6386 -0.1766
 1541TIP3    H1 4629   5.194   3.840   0.600 -1.1032  1.7838  0.2148
 1541TIP3    H2 4630   5.069   3.815   0.517  1.1122 -0.8519 -2.5552
 1542TIP3   OH2 4631   2.884   2.660   0.947 -0.6373 -0.1558 -0.2469
 1542TIP3    H1 4632   2.970   2.653   0.988  0.2450  1.8867 -1.6222
 1542TIP3    H2 4633   2.847   2.572   0.956  1.7477 -1.2186  0.0212
 1543TIP3   OH2 4634   2.462   0.341   4.138 -0.1656  0.1738  0.2622
 1543TIP3    H1 4635   2.477   0.281   4.211  2.6054  0.7867  0.3087
 1543TIP3    H2 4636   2.521   0.310   4.070 -0.5719  1.3350 -0.6396
 1544TIP3   OH2 4637   5.876   3.165   3.124  0.1595 -0.5150 -0.4905
 1544TIP3    H1 4638   5.971   3.157   3.125  0.1212 -1.1757  1.4868
 1544TIP3    H2 4639   5.858   3.224   3.051  2.0009 -1.1982 -1.5553
 1545TIP3   OH2 4640   4.486   3.349   0.861  0.3600  0.3635  0.4729
 1545TIP3    H1 4641   4.525   3.334   0.775  1.0015  0.9026  0.6658
 1545TIP3    H2 4642   4.463   3.261   0.892  1.1133  0.0651  0.2149
 1546TIP3   OH2 4643   5.812   5.004   1.477  0.1064  0.4866  0.0750
 1546TIP3    H1 4644   5.810   4.972   1.567  1.0526  1.2492  0.3868
 1546TIP3    H2 4645   5.884   4.955   1.436 -0.2782  0.1889 -0.2564
 1547TIP3   OH2 4646   1.260   0.075   1.436 -0.3204  0.3682 -0.2736
 1547TIP3    H1 4647   1.342   0.124   1.436  0.0847 -0.2725 -1.1361
 1547TIP3    H2 4648   1.281  -0.006   1.389 -0.9906 -0.5982  1.0256
 1548TIP3   OH2 4649   5.545   1.432   0.921 -0.3363 -0.1597  0.1657
 1548TIP3    H1 4650   5.456   1.397   0.928 -0.3352 -0.4872 -1.2057
 1548TIP3    H2 4651   5.532   1.521   0.887 -0.2027  0.2906  1.2667
 1549TIP3   OH2 4652   3.708   0.289   1.226 -0.3016 -0.6983  0.2047
 1549TIP3    H1 4653   3.711   0.310   1.133 -0.0252 -1.5990  0.0012
 1549TIP3    H2 4654   3.734   0.197   1.231 -1.4584 -0.9992  1.0673
 1550TIP3   OH2 4655   2.546   2.235   3.970 -0.5093 -0.0241 -0.4150
 1550TIP3    H1 4656   2.454   2.218   3.948 -0.2703  1.5610 -3.1272
 1550TIP3    H2 4657   2.559   2.327   3.946  1.7994 -0.2335 -0.1370
 1551TIP3   OH2 4658   6.035   2.468   0.692  0.4410  0.4813 -0.4518
 1551TIP3    H1 4659   6.025   2.529   0.765 -0.1086 -0.2519  0.1040
 1551TIP3    H2 4660   5.946   2.444   0.668  0.6429  0.1108 -0.8461
 1552TIP3   OH2 4661   3.773   2.970   2.925  0.2555 -0.6634 -0.4143
 1552TIP3    H1 4662   3.738   2.887   2.958  0.4720 -0.6954 -0.2607
 1552TIP3    H2 4663   3.699   3.011   2.881 -0.4450  0.0291  1.3168
 1553TIP3   OH2 4664   5.958   3.611   0.732 -0.3716 -0.4044 -0.0986
 1553TIP3    H1 4665   5.993   3.622   0.821 -0.4378 -1.0629  0.0104
 1553TIP3    H2 4666   6.004   3.534   0.698 -0.7200 -0.4554 -0.4526
 1554TIP3   OH2 4667   0.915   5.283   0.385 -1.1722 -0.3121 -0.3442
 1554TIP3    H1 4668   0.821   5.268   0.383 -1.1370 -0.4931 -1.5614
 1554TIP3    H2 4669   0.932   5.319   0.472 -2.3395 -0.3975 -0.0645
 1555TIP3   OH2 4670   3.678   3.442   3.451 -0.3087 -0.2021 -0.3903
 1555TIP3    H1 4671   3.602   3.385   3.446  0.1386 -1.2176  2.6893
 1555TIP3    H2 4672   3.642   3.529   3.471 -0.7305 -0.4573 -0.0259
 1556TIP3   OH2 4673   5.660   2.552   0.047 -0.1605 -0.1148  0.2872
 1556TIP3    H1 4674   5.657   2.508  -0.038 -2.9737 -1.4315  0.9338
 1556TIP3    H2 4675   5.725   2.620   0.036  0.2400 -0.8070 -2.6348
 1557TIP3   OH2 4676   5.068   3.771   3.343 -0.0607  0.7779  0.1032
 1557TIP3    H1 4677   5.147   3.727   3.311  0.3027  0.0406  1.8853
 1557TIP3    H2 4678   5.019   3.702   3.388 -1.5367  1.3233 -0.6287
 1558TIP3   OH2 4679   5.104   2.985   0.180 -0.3485 -0.6785  0.1055
 1558TIP3    H1 4680   5.096   2.902   0.228  0.6085 -1.9013 -1.7611
 1558TIP3    H2 4681   5.135   3.047   0.246  2.8983 -2.7522  0.7393
 1559TIP3   OH2 4682   4.075   1.520   1.027 -0.2746  0.5923 -0.1602
 1559TIP3    H1 4683   4.135   1.593   1.037 -0.5242  0.9849 -1.3309
 1559TIP3    H2 4684   4.118   1.447   1.072  1.8336  0.4428 -2.2276
 1560TIP3   OH2 4685   2.183   3.923   3.737  0.6683 -0.2921  0.2921
 1560TIP3    H1 4686   2.251   3.973   3.691  1.5331 -0.6892  1.0960
 1560TIP3    H2 4687   2.105   3.977   3.730  0.3017 -0.9977 -2.9816
 1561TIP3   OH2 4688   5.035   0.045   4.263  0.3700 -0.1722 -0.0894
 1561TIP3    H1 4689   4.971  -0.019   4.234  0.7635 -0.4213 -0.4279
 1561TIP3    H2 4690   5.110   0.032   4.204  0.4448  0.6112 -0.1746
 1562TIP3   OH2 4691   2.140   3.984   1.516 -0.1889  0.0381 -0.1320
 1562TIP3    H1 4692   2.156   4.062   1.461  0.2465  0.7790  1.0091
 1562TIP3    H2 4693   2.212   3.985   1.579 -0.7184 -0.7627  0.4921
 1563TIP3   OH2 4694   1.426   3.562   1.438 -0.0372 -0.3217 -0.6454
 1563TIP3    H1 4695   1.422   3.468   1.454  1.0133 -0.3153 -0.2755
 1563TIP3    H2 4696   1.343   3.596   1.473 -0.1456 -1.0201 -0.2095
 1564TIP3   OH2 4697   6.197   5.222   4.878 -0.1293 -0.3528 -0.0422
 1564TIP3    H1 4698   6.237   5.228   4.791 -3.0759 -1.7231 -1.6145
 1564TIP3    H2 4699   6.222   5.136   4.910  3.2596  1.1521  1.8493
 1565TIP3   OH2 4700   1.869   1.469   1.401 -0.1378 -0.0679  0.2175
 1565TIP3    H1 4701   1.887   1.460   1.495 -1.3970 -0.2457  0.4548
 1565TIP3    H2 4702   1.814   1.547   1.395  0.2743  0.1787 -0.4292
 1566TIP3   OH2 4703   2.779   0.740   2.495 -0.1629 -0.3582 -0.5917
 1566TIP3    H1 4704   2.771   0.650   2.463  1.0214 -0.0127 -1.9634
 1566TIP3    H2 4705   2.868   0.745   2.529  0.1872  0.5771 -1.5682
 1567TIP3   OH2 4706   1.783   3.200   3.778 -0.5226 -0.0608  0.4296
 1567TIP3    H1 4707   1.739   3.189   3.694  0.2075  0.3837 -0.0156
 1567TIP3    H2 4708   1.823   3.287   3.774 -0.3981 -0.0707  1.1991
 1568TIP3   OH2 4709   1.425   3.737   1.774  0.2372  0.3729  0.0494
 1568TIP3    H1 4710   1.376   3.754   1.693 -0.8180  0.8756  0.7666
 1568TIP3    H2 4711   1.365   3.685   1.827  0.5332  0.8725  0.8914
 1569TIP3   OH2 4712   5.480   5.030   3.848 -0.2204  0.2042  0.3251
 1569TIP3    H1 4713   5.533   5.060   3.774 -0.9601 -0.2903 -0.4276
 1569TIP3    H2 4714   5.391   5.023   3.812 -0.3346 -1.4817  0.8318
 1570TIP3   OH2 4715   2.691   2.962   1.284 -0.2435  0.0758 -0.3291
 1570TIP3    H1 4716   2.747   3.028   1.242 -0.0440 -0.0916 -0.3280
 1570TIP3    H2 4717   2.665   2.904   1.212 -1.3819  0.8256 -0.5488
 1571TIP3   OH2 4718   5.411   1.598   0.329  0.0046  0.2118 -0.0809
 1571TIP3    H1 4719   5.492   1.636   0.363  0.0984  1.6944 -1.8296
 1571TIP3    H2 4720   5.342   1.635   0.383  0.4118 -0.4217  0.8926
 1572TIP3   OH2 4721   0.838   3.548   2.524  0.1777  0.2381  0.5933
 1572TIP3    H1 4722   0.884   3.593   2.594 -0.1458  0.8926  0.3930
 1572TIP3    H2 4723   0.894   3.473   2.502  0.5360  0.3314  1.1823
 1573TIP3   OH2 4724   1.582   5.832   2.266  0.2903 -0.5872  0.6193
 1573TIP3    H1 4725   1.519   5.886   2.217  0.0349  0.0112  1.5920
 1573TIP3    H2 4726   1.656   5.890   2.283  0.1830 -0.6513  1.3309
 1574TIP3   OH2 4727   2.659   1.553   2.621  0.1661 -0.3144 -0.4305
 1574TIP3    H1 4728   2.747   1.531   2.654  0.8652 -0.2852 -2.1761
 1574TIP3    H2 4729   2.663   1.534   2.527 -1.3904  0.6739 -0.7314
 1575TIP3   OH2 4730   5.544   3.919   4.518 -0.0553  0.4859 -0.1903
 1575TIP3    H1 4731   5.533   3.894   4.426 -1.4310 -0.0425  0.0963
 1575TIP3    H2 4732   5.587   3.844   4.558  1.3042  1.0474 -0.5515
 1576TIP3   OH2 4733   1.517   0.887   3.593 -0.0075  0.7659  0.4458
 1576TIP3    H1 4734   1.461   0.889   3.671 -0.6009 -1.4767  0.1711
 1576TIP3    H2 4735   1.461   0.849   3.525  0.9462  1.3464 -0.6870
 1577TIP3   OH2 4736   1.610   0.239   0.997  0.2415  0.2731 -0.0914
 1577TIP3    H1 4737   1.623   0.290   1.077 -2.0179 -1.4139  1.4709
 1577TIP3    H2 4738   1.654   0.156   1.015 -0.2087 -0.0828 -0.6446
 1578TIP3   OH2 4739   1.744   4.527   2.750 -0.0627 -0.4822 -0.3938
 1578TIP3    H1 4740   1.678   4.560   2.689  1.3165  2.8748 -0.2860
 1578TIP3    H2 4741   1.827   4.553   2.711  0.9875 -0.8648  1.4934
 1579TIP3   OH2 4742   5.765   3.055   4.562 -0.3716 -0.2391  0.1350
 1579TIP3    H1 4743   5.847   3.090   4.597  0.5607  1.5446 -3.3927
 1579TIP3    H2 4744   5.779   2.961   4.557  1.6773  0.0708 -0.7524
 1580TIP3   OH2 4745   2.399   5.544   4.965  0.1384  0.2319  0.0042
 1580TIP3    H1 4746   2.398   5.623   4.911  0.4016  0.0554 -0.2650
 1580TIP3    H2 4747   2.425   5.574   5.052 -0.6034  0.5649  0.1175
 1581TIP3   OH2 4748   4.696   2.023   2.479  0.0552  0.1141  0.0767
 1581TIP3    H1 4749   4.682   2.075   2.400  1.1870 -0.4998 -0.5612
 1581TIP3    H2 4750   4.778   1.976   2.462 -0.8585 -1.7758  0.6718
 1582TIP3   OH2 4751   1.109   2.061   0.776 -0.4723  0.4306 -0.1636
 1582TIP3    H1 4752   1.015   2.057   0.756 -0.4787  0.5047 -0.1498
 1582TIP3    H2 4753   1.128   1.978   0.819 -0.3451  0.0251 -0.9790
 1583TIP3   OH2 4754   1.140   1.225   0.880 -0.0028 -0.4851 -0.2250
 1583TIP3    H1 4755   1.172   1.138   0.904 -1.1066 -0.4102  1.7233
 1583TIP3    H2 4756   1.183   1.285   0.941  1.0386  0.4312 -1.7888
 1584TIP3   OH2 4757   3.303   3.991   4.839  0.4242 -0.4738  0.4526
 1584TIP3    H1 4758   3.330   4.004   4.748 -0.2126  0.1515  0.3451
 1584TIP3    H2 4759   3.343   4.064   4.886 -0.6614  0.1774  0.3747
 1585TIP3   OH2 4760   0.689   4.381   1.201  0.4990 -0.0476  0.4233
 1585TIP3    H1 4761   0.695   4.293   1.237 -0.8335  0.4231  1.9162
 1585TIP3    H2 4762   0.780   4.409   1.190  0.9783 -0.5619  2.6604
 1586TIP3   OH2 4763   1.018   2.716   0.559  0.0925  0.3117 -0.8720
 1586TIP3    H1 4764   1.024   2.741   0.467 -0.6199 -1.3109 -1.4044
 1586TIP3    H2 4765   1.077   2.641   0.568 -0.4405 -0.0427 -0.2118
 1587TIP3   OH2 4766   3.620   3.086   5.064  0.5560 -0.4848 -0.1044
 1587TIP3    H1 4767   3.570   3.146   5.008 -0.1121 -1.6248 -0.7735
 1587TIP3    H2 4768   3.695   3.137   5.094 -0.7691  1.1324  0.5491
 1588TIP3   OH2 4769   3.384   1.773   0.738  0.3835  0.0217  0.3159
 1588TIP3    H1 4770   3.413   1.859   0.768  1.2893 -0.6698  1.4934
 1588TIP3    H2 4771   3.288   1.779   0.736  0.4417  1.0978  0.2229
 1589TIP3   OH2 4772   0.186   0.636   5.093 -0.5628 -0.3086 -1.2403
 1589TIP3    H1 4773   0.224   0.708   5.042  1.2859 -1.3522 -1.4074
 1589TIP3    H2 4774   0.161   0.676   5.176  0.7007  0.4895 -1.2185
 1590TIP3   OH2 4775   3.104   2.532   3.304 -0.0007 -0.0679  0.3405
 1590TIP3    H1 4776   3.021   2.492   3.277 -0.3345 -0.0511  1.3074
 1590TIP3    H2 4777   3.171   2.472   3.272 -0.4911 -1.4463  1.7714
 1591TIP3   OH2 4778   1.416   2.675   0.487  0.0344 -0.2098  0.4350
 1591TIP3    H1 4779   1.416   2.692   0.393  0.8189  0.2129  0.5042
 1591TIP3    H2 4780   1.340   2.619   0.501 -1.4700  1.6013 -0.1076
 1592TIP3   OH2 4781   0.850   4.207   2.781  0.2488 -0.2190 -0.0202
 1592TIP3    H1 4782   0.761   4.235   2.760  0.2646  0.8434  1.2077
 1592TIP3    H2 4783   0.877   4.264   2.853  1.8880 -0.6080 -0.2876
 1593TIP3   OH2 4784   5.543   4.395   1.614 -0.0560  0.6264 -0.1558
 1593TIP3    H1 4785   5.608   4.325   1.614 -0.4897  0.2190 -0.3813
 1593TIP3    H2 4786   5.475   4.365   1.553 -1.0105  0.5291  0.9246
 1594TIP3   OH2 4787   2.360   1.981   1.788  0.5171 -0.0918  0.1435
 1594TIP3    H1 4788   2.366   1.919   1.716 -0.3468  0.0775 -0.0758
 1594TIP3    H2 4789   2.379   2.066   1.748  1.8150 -0.1938  0.4634
 1595TIP3   OH2 4790   5.889   1.038   3.501 -0.0392 -0.1114  0.2842
 1595TIP3    H1 4791   5.918   1.128   3.486  0.9029 -0.4134  0.2041
 1595TIP3    H2 4792   5.949   0.984   3.449  0.1867 -0.8647  1.2913
 1596TIP3   OH2 4793   3.221   2.935   1.716 -0.3138  0.0204  0.2044
 1596TIP3    H1 4794   3.261   3.021   1.708  0.7368 -0.4286  0.4066
 1596TIP3    H2 4795   3.209   2.905   1.626 -2.8663  1.3022  0.0241
 1597TIP3   OH2 4796   2.792   4.868   0.951  0.3504 -0.9142 -0.1341
 1597TIP3    H1 4797   2.749   4.905   0.874  0.1167 -0.5124  0.1913
 1597TIP3    H2 4798   2.729   4.878   1.022  1.4278  0.8161  0.6330
 1598TIP3   OH2 4799   0.620   0.672   0.378 -0.0104  0.2478 -0.1003
 1598TIP3    H1 4800   0.566   0.675   0.300  0.2987 -0.2422 -0.3448
 1598TIP3    H2 4801   0.563   0.637   0.446 -0.2515  0.5800 -0.1318
 1599TIP3   OH2 4802   2.663   5.297   1.729 -0.4613 -0.0006  0.2581
 1599TIP3    H1 4803   2.607   5.373   1.743  0.4251  0.5309  1.0531
 1599TIP3    H2 4804   2.725   5.326   1.662 -0.0595  0.0178  0.6348
 1600TIP3   OH2 4805   0.464   0.891   4.707 -0.5823 -0.3084  0.1508
 1600TIP3    H1 4806   0.415   0.810   4.691 -0.9540 -0.3989  1.5809
 1600TIP3    H2 4807   0.397   0.959   4.711 -0.5004 -0.2696  1.0579
 1601TIP3   OH2 4808   2.755   3.470   1.457  0.3002 -0.0281  0.0532
 1601TIP3    H1 4809   2.713   3.510   1.533  0.6812  0.6820 -0.0955
 1601TIP3    H2 4810   2.699   3.395   1.435 -2.2056  2.0772 -1.4351
 1602TIP3   OH2 4811   1.661   5.665   0.892  0.8521 -0.0557 -0.2294
 1602TIP3    H1 4812   1.722   5.591   0.893  1.1032  0.1283 -0.9924
 1602TIP3    H2 4813   1.676   5.710   0.975 -0.5748 -1.8687  1.0767
 1603TIP3   OH2 4814   3.402   5.351   2.486 -0.3701  0.0905 -0.7501
 1603TIP3    H1 4815   3.351   5.292   2.431  0.4882 -1.6918  0.2694
 1603TIP3    H2 4816   3.428   5.297   2.561  2.9243  0.8884 -1.1658
 1604TIP3   OH2 4817   2.610   5.107   4.620  0.2781 -0.1784  0.5705
 1604TIP3    H1 4818   2.695   5.150   4.608 -0.4438  1.2447  0.3711
 1604TIP3    H2 4819   2.584   5.129   4.709  0.3017 -0.9775  0.7824
 1605TIP3   OH2 4820   2.813   0.012   1.675 -0.2355 -0.3990 -0.3247
 1605TIP3    H1 4821   2.824  -0.008   1.769 -0.3265 -1.7932 -0.5853
 1605TIP3    H2 4822   2.719   0.023   1.664 -0.2262 -0.2490 -0.2468
 1606TIP3   OH2 4823   4.751   1.570   1.413  0.1824 -0.6799  0.1796
 1606TIP3    H1 4824   4.670   1.617   1.394  0.3066 -0.8933 -0.9843
 1606TIP3    H2 4825   4.815   1.607   1.351  0.5724 -1.5773  0.0303
 1607TIP3   OH2 4826  -0.012   0.342   1.092 -0.0777  0.2479 -0.3588
 1607TIP3    H1 4827   0.020   0.431   1.075  0.3195  0.4167  1.1611
 1607TIP3    H2 4828   0.047   0.307   1.159  1.0365 -1.9334 -2.3002
 1608TIP3   OH2 4829   1.976   3.810   0.104 -0.6723 -0.3058  0.3057
 1608TIP3    H1 4830   1.964   3.718   0.130 -1.2014  0.0607  1.4021
 1608TIP3    H2 4831   1.960   3.860   0.184  1.7606  0.6433  0.2592
 1609TIP3   OH2 4832   3.017   2.819   0.545 -0.3103  0.3229  0.0618
 1609TIP3    H1 4833   2.962   2.879   0.494  1.2662  1.0774 -0.8333
 1609TIP3    H2 4834   3.045   2.753   0.481  2.7278  1.9839 -0.5076
 1610TIP3   OH2 4835   2.573   1.890   0.374 -0.1548  0.6266 -0.0103
 1610TIP3    H1 4836   2.486   1.854   0.357 -0.2339  0.2810  1.0398
 1610TIP3    H2 4837   2.586   1.879   0.468  1.3476 -0.0670 -0.2568
 1611TIP3   OH2 4838   3.513   2.143   4.308  0.1052  0.2193  1.0403
 1611TIP3    H1 4839   3.493   2.058   4.270  0.3731  0.8194 -0.4841
 1611TIP3    H2 4840   3.445   2.156   4.375 -2.0993  0.3469 -1.1036
 1612TIP3   OH2 4841   5.779   4.072   4.308 -0.7277  0.0014  0.3003
 1612TIP3    H1 4842   5.798   4.004   4.373  0.4492 -0.0830 -0.1135
 1612TIP3    H2 4843   5.719   4.132   4.353 -1.2416 -0.9282  0.8970
 1613TIP3   OH2 4844   4.220   4.982   2.820  0.5551  0.3353 -0.5065
 1613TIP3    H1 4845   4.281   5.048   2.788  0.7942 -0.3057 -1.3896
 1613TIP3    H2 4846   4.238   4.904   2.768 -1.2445  0.2290 -1.0504
 1614TIP3   OH2 4847   3.081   5.957   3.944 -0.2385  0.4430  0.5788
 1614TIP3    H1 4848   3.090   5.943   4.038 -0.0301  1.1094  0.6604
 1614TIP3    H2 4849   3.170   5.948   3.910 -0.4007 -0.3814  0.3613
 1615TIP3   OH2 4850   5.736   5.178   3.812 -0.5109 -0.1927 -0.1605
 1615TIP3    H1 4851   5.668   5.245   3.819  0.5941  0.9221  0.5434
 1615TIP3    H2 4852   5.764   5.182   3.721 -1.3341 -0.6139 -0.4378
 1616TIP3   OH2 4853   5.008   2.304   0.192  0.1760 -0.2921 -0.0582
 1616TIP3    H1 4854   5.092   2.317   0.235 -0.6872  1.0304  1.3034
 1616TIP3    H2 4855   4.993   2.385   0.143  0.4853 -1.2187 -1.7875
 1617TIP3   OH2 4856   2.158   2.175   1.918 -0.4207 -0.0863 -0.3434
 1617TIP3    H1 4857   2.233   2.229   1.939  0.6025 -0.4642 -2.6842
 1617TIP3    H2 4858   2.178   2.089   1.955  0.5293 -0.2885 -1.2771
 1618TIP3   OH2 4859   1.673   5.074   3.940 -0.6121 -0.3665 -0.3139
 1618TIP3    H1 4860   1.612   5.052   3.870 -1.4297  0.6378  0.0402
 1618TIP3    H2 4861   1.625   5.053   4.021  0.1188 -1.0351 -0.0499
 1619TIP3   OH2 4862   2.826   3.821   3.582 -0.2604 -0.2227 -0.3142
 1619TIP3    H1 4863   2.864   3.738   3.610  1.5300  0.7360  0.2648
 1619TIP3    H2 4864   2.735   3.800   3.561  0.1880 -2.3499 -0.3654
 1620TIP3   OH2 4865   2.465   5.627   4.535 -0.2378  0.4266 -0.6052
 1620TIP3    H1 4866   2.537   5.648   4.594 -1.3901 -1.8303  1.8122
 1620TIP3    H2 4867   2.386   5.655   4.582 -1.1143  0.3953 -1.9968
 1621TIP3   OH2 4868   1.027   0.148   2.498  0.3163  0.2433 -0.0887
 1621TIP3    H1 4869   1.055   0.230   2.457  0.4666 -0.0451 -0.5644
 1621TIP3    H2 4870   0.972   0.106   2.432  2.0896 -1.1266 -0.7934
 1622TIP3   OH2 4871   5.536   3.493   4.220 -0.0847  0.7992  0.0704
 1622TIP3    H1 4872   5.476   3.504   4.294  1.4183  0.2076  1.4287
 1622TIP3    H2 4873   5.524   3.573   4.168 -1.7193  0.8837  0.5124
 1623TIP3   OH2 4874   6.266   1.560   0.416  0.1532 -0.3158  0.2675
 1623TIP3    H1 4875   6.250   1.495   0.484  0.1711 -0.1903  0.3918
 1623TIP3    H2 4876   6.320   1.626   0.458  0.2716 -0.3015  0.0943
 1624TIP3   OH2 4877   2.039   0.869   3.983  0.1669  0.5931  0.3847
 1624TIP3    H1 4878   2.048   0.828   3.896  1.8568  0.6368  0.5035
 1624TIP3    H2 4879   1.973   0.816   4.027  0.1394 -0.1659 -0.5181
 1625TIP3   OH2 4880   1.667   3.542   1.285 -0.3928  0.2468  0.1336
 1625TIP3    H1 4881   1.665   3.446   1.287 -0.7901  0.2487  2.0358
 1625TIP3    H2 4882   1.582   3.569   1.320 -1.5043  1.3894 -3.0439
 1626TIP3   OH2 4883   1.208   0.390   0.026 -0.0244  0.1210  0.1094
 1626TIP3    H1 4884   1.171   0.425   0.107  0.1285 -0.9607  0.6649
 1626TIP3    H2 4885   1.150   0.318   0.002  2.1830 -2.3077  1.5722
 1627TIP3   OH2 4886   5.894   2.778   4.913  0.4599  0.5253  0.1744
 1627TIP3    H1 4887   5.819   2.724   4.888  0.8712 -0.0116  0.0756
 1627TIP3    H2 4888   5.884   2.792   5.007  1.1449 -1.0294  0.5267
 1628TIP3   OH2 4889   4.237   4.914   1.483 -0.2791 -0.2580  0.4145
 1628TIP3    H1 4890   4.156   4.894   1.530  0.3875 -0.4286  1.5140
 1628TIP3    H2 4891   4.208   4.947   1.398 -1.4905 -1.9480  0.1121
 1629TIP3   OH2 4892   1.379   3.923   4.314 -0.1058 -0.1513  0.1611
 1629TIP3    H1 4893   1.422   3.924   4.400  0.5903 -0.5569 -0.1785
 1629TIP3    H2 4894   1.288   3.949   4.333  0.2678  0.6890  0.8899
 1630TIP3   OH2 4895   0.219   2.363   3.715  0.1001  0.4111 -0.7559
 1630TIP3    H1 4896   0.153   2.309   3.759  0.0865  0.9259 -0.1350
 1630TIP3    H2 4897   0.302   2.336   3.754 -0.1305  2.6778  1.5684
 1631TIP3   OH2 4898   4.358   4.181   2.931 -0.4204 -0.1493  0.4076
 1631TIP3    H1 4899   4.401   4.146   3.009  0.3967 -1.8487 -0.7298
 1631TIP3    H2 4900   4.403   4.264   2.914 -0.6344  0.2599  1.7314
 1632TIP3   OH2 4901   4.140   1.975   3.158  0.0593 -0.6140  0.3263
 1632TIP3    H1 4902   4.199   1.949   3.229  0.0795 -0.1414  0.4858
 1632TIP3    H2 4903   4.065   1.917   3.166  0.0014 -0.4754  0.8212
 1633TIP3   OH2 4904   3.438   4.246   4.897  0.4466 -0.1669 -0.0257
 1633TIP3    H1 4905   3.386   4.242   4.977  0.5785 -1.2877  0.0244
 1633TIP3    H2 4906   3.403   4.321   4.849 -0.9887 -0.6591  0.1837
 1634TIP3   OH2 4907   4.212   4.766   3.740  0.0165  0.0518 -0.2406
 1634TIP3    H1 4908   4.125   4.785   3.704  0.1224 -2.6691 -2.2653
 1634TIP3    H2 4909   4.272   4.814   3.683 -0.0665  1.6048  0.9118
 1635TIP3   OH2 4910   1.257   5.385   0.342 -0.7867  0.4067  0.3239
 1635TIP3    H1 4911   1.247   5.414   0.251 -0.3831 -0.8339 -0.1491
 1635TIP3    H2 4912   1.276   5.291   0.334 -0.6908  0.2981  1.6941
 1636TIP3   OH2 4913   3.452   3.484   3.759  0.1045 -0.0897 -0.1410
 1636TIP3    H1 4914   3.439   3.416   3.692 -1.0487 -1.4303  1.3494
 1636TIP3    H2 4915   3.385   3.549   3.741 -1.7199 -1.5520  0.9465
 1637TIP3   OH2 4916   4.348   5.921   2.907 -0.6818  0.2075  0.1430
 1637TIP3    H1 4917   4.319   5.831   2.919  1.4540 -0.4942  0.3942
 1637TIP3    H2 4918   4.355   5.956   2.996  1.5819 -0.4650  0.2870
 1638TIP3   OH2 4919   4.407   5.149   3.153  1.0163 -0.5701  0.4666
 1638TIP3    H1 4920   4.419   5.185   3.065 -0.9006 -1.8084 -0.3853
 1638TIP3    H2 4921   4.435   5.218   3.212 -0.4363  1.4818 -1.0880
 1639TIP3   OH2 4922   2.408   3.301   3.509 -0.7061  0.2122  0.1063
 1639TIP3    H1 4923   2.491   3.319   3.467 -0.9982  2.3523  0.3240
 1639TIP3    H2 4924   2.378   3.220   3.469  1.9374 -1.1968  0.7774
 1640TIP3   OH2 4925   1.220   0.613   3.264 -0.0246  0.3993 -0.4543
 1640TIP3    H1 4926   1.271   0.692   3.283 -0.7155  0.7282  0.0806
 1640TIP3    H2 4927   1.237   0.555   3.338  0.8732 -0.1598 -1.0900
 1641TIP3   OH2 4928   4.272   1.284   5.079 -0.7047  0.0635  0.5553
 1641TIP3    H1 4929   4.311   1.256   4.997 -0.3065 -0.3619  0.8855
 1641TIP3    H2 4930   4.263   1.379   5.071 -2.9484 -0.2029 -0.9675
 1642TIP3   OH2 4931   3.350   2.150   4.530 -0.7290  0.0010 -0.3747
 1642TIP3    H1 4932   3.317   2.068   4.493  0.0526 -0.2769 -0.4853
 1642TIP3    H2 4933   3.284   2.215   4.507 -2.0560 -0.8339  0.9250
 1643TIP3   OH2 4934   0.728   2.136   3.399  0.3751 -0.7829  0.2056
 1643TIP3    H1 4935   0.798   2.073   3.412  1.7707  0.4505 -0.8741
 1643TIP3    H2 4936   0.653   2.084   3.371  1.8414 -1.9084 -1.9297
 1644TIP3   OH2 4937   5.195   3.831   4.742  0.2042  0.1862  0.5182
 1644TIP3    H1 4938   5.212   3.827   4.648  1.2957 -1.5217  0.7394
 1644TIP3    H2 4939   5.103   3.856   4.749  0.3504  1.2555 -0.9656
 1645TIP3   OH2 4940   5.084   2.035   3.762 -0.2302  0.0573 -0.1703
 1645TIP3    H1 4941   5.138   1.981   3.820  0.5774 -0.5309 -1.4025
 1645TIP3    H2 4942   5.070   2.116   3.811 -0.2864 -0.7282  1.1620
 1646TIP3   OH2 4943   5.060   0.778   1.228  0.3851 -0.5330  0.2471
 1646TIP3    H1 4944   5.055   0.851   1.166 -1.4575 -1.4963 -0.8479
 1646TIP3    H2 4945   5.017   0.810   1.307 -0.3630 -0.3784 -0.2089
 1647TIP3   OH2 4946   4.460   1.570   0.832  0.0730  0.4600  0.2177
 1647TIP3    H1 4947   4.477   1.507   0.901 -0.3830 -1.3916 -1.2742
 1647TIP3    H2 4948   4.379   1.614   0.858 -0.5770 -0.8368  0.4771
 1648TIP3   OH2 4949   2.503   1.052   4.089 -0.1441  0.0866  0.6070
 1648TIP3    H1 4950   2.545   1.014   4.166 -1.3243  0.5102  1.4912
 1648TIP3    H2 4951   2.434   0.990   4.066  0.1577 -0.0060 -0.0824
 1649TIP3   OH2 4952   0.812   3.606   2.049  0.0342  0.3188 -1.1642
 1649TIP3    H1 4953   0.859   3.647   2.121  0.2129  0.6318 -1.4577
 1649TIP3    H2 4954   0.792   3.677   1.988 -0.4173  0.1134 -1.2608
 1650TIP3   OH2 4955   3.994   3.235   2.604  0.1496 -0.8067  0.5327
 1650TIP3    H1 4956   3.935   3.162   2.585 -2.2425  0.4151  2.6289
 1650TIP3    H2 4957   3.973   3.259   2.694 -0.0811  3.2061 -0.4016
 1651TIP3   OH2 4958   1.401   4.442   3.918  0.0002 -0.8173  0.4062
 1651TIP3    H1 4959   1.405   4.532   3.951  4.4774 -0.2622 -0.9962
 1651TIP3    H2 4960   1.367   4.450   3.829  0.4667 -0.4938  0.2567
 1652TIP3   OH2 4961   5.150   3.720   2.760  0.6475 -0.0569 -0.1341
 1652TIP3    H1 4962   5.229   3.735   2.709  0.2752 -1.0064 -1.0291
 1652TIP3    H2 4963   5.181   3.682   2.842  1.2359  1.3049  0.3173
 1653TIP3   OH2 4964   0.581   3.302   3.166  0.0686 -0.0794 -0.1611
 1653TIP3    H1 4965   0.645   3.244   3.207 -0.0548  1.2470  2.0444
 1653TIP3    H2 4966   0.628   3.341   3.092  1.0013 -0.9620 -0.0563
 1654TIP3   OH2 4967   1.065   5.233   4.779  0.4016  0.6216 -0.2939
 1654TIP3    H1 4968   1.015   5.152   4.786  0.4762  0.4087 -1.8462
 1654TIP3    H2 4969   1.138   5.221   4.840 -0.1934 -0.0035  0.3138
 1655TIP3   OH2 4970   1.868   4.450   1.753  0.2473 -0.0671  0.5431
 1655TIP3    H1 4971   1.794   4.405   1.713  1.3014  0.0832 -1.7697
 1655TIP3    H2 4972   1.944   4.421   1.702  1.7962 -0.1195  2.7444
 1656TIP3   OH2 4973   2.325   2.187   2.673  0.3861  0.1564 -0.8277
 1656TIP3    H1 4974   2.355   2.096   2.667 -0.3866 -0.1712  0.1739
 1656TIP3    H2 4975   2.230   2.181   2.679  0.3429  1.0202 -0.5033
 1657TIP3   OH2 4976   2.513   4.996   4.069  0.2485  0.2079 -0.1943
 1657TIP3    H1 4977   2.475   4.909   4.051  2.7936 -0.6481 -1.9880
 1657TIP3    H2 4978   2.489   5.048   3.993  0.8640  0.3036 -0.3214
 1658TIP3   OH2 4979   0.990   4.632   3.160 -0.0111  0.3081 -0.9202
 1658TIP3    H1 4980   1.048   4.692   3.112 -1.2599  0.8444 -1.7987
 1658TIP3    H2 4981   1.009   4.650   3.252  1.3828  0.2945 -1.1703
 1659TIP3   OH2 4982   0.574   5.100   2.082 -0.5112 -0.0523  0.1118
 1659TIP3    H1 4983   0.495   5.147   2.055 -1.4221 -1.8850 -0.6189
 1659TIP3    H2 4984   0.594   5.043   2.007  1.0176 -0.2401  0.6277
 1660TIP3   OH2 4985   5.280   2.924   2.279 -0.4852  0.0306 -0.0421
 1660TIP3    H1 4986   5.244   2.862   2.342 -2.8823  0.5562 -0.7571
 1660TIP3    H2 4987   5.269   3.010   2.320 -0.3344  0.2325 -0.4121
 1661TIP3   OH2 4988   3.060   4.693   1.819 -0.2995  0.7759  0.0824
 1661TIP3    H1 4989   3.131   4.652   1.770  0.7126 -0.1872  2.2297
 1661TIP3    H2 4990   2.981   4.646   1.791  0.2734  0.0923 -0.4218
 1662TIP3   OH2 4991   2.493   1.398   0.923  0.4022 -0.0397 -0.1588
 1662TIP3    H1 4992   2.406   1.379   0.959 -1.1326  1.5066 -2.6925
 1662TIP3    H2 4993   2.522   1.475   0.971 -0.0605  0.0187  0.0356
 1663TIP3   OH2 4994   1.461   1.973   1.279 -0.1019  0.8313 -0.2087
 1663TIP3    H1 4995   1.368   1.992   1.271 -0.5834 -1.5933 -1.2713
 1663TIP3    H2 4996   1.490   2.024   1.355 -2.9335 -0.5537  1.9721
 1664TIP3   OH2 4997   5.581   4.414   3.935  0.3504  0.0357 -0.0813
 1664TIP3    H1 4998   5.659   4.410   3.990  0.3297 -0.9939 -0.0966
 1664TIP3    H2 4999   5.604   4.364   3.857 -0.3901 -0.4636  0.0039
 1665TIP3   OH2 5000   3.026   5.384   4.241 -0.5586 -0.2814 -0.0123
 1665TIP3    H1 5001   3.004   5.477   4.238  0.9094  0.0851 -1.3833
 1665TIP3    H2 5002   3.116   5.382   4.273 -0.1820 -1.1269 -1.0597
 1666TIP3   OH2 5003   5.239   5.352   3.713  0.1031 -0.0357  0.1882
 1666TIP3    H1 5004   5.311   5.345   3.651 -0.3300  1.6513 -0.5653
 1666TIP3    H2 5005   5.165   5.382   3.660 -0.3225  1.2891  1.4833
 1667TIP3   OH2 5006   1.152   4.690   0.624 -0.2012  0.0635 -0.0793
 1667TIP3    H1 5007   1.057   4.682   0.616 -0.2663 -2.2889  1.8129
 1667TIP3    H2 5008   1.186   4.659   0.540 -1.1111 -0.9629 -0.0928
 1668TIP3   OH2 5009   6.161   2.013   4.991  0.1083 -0.4755  0.2316
 1668TIP3    H1 5010   6.198   2.098   4.969  3.5877 -1.5232  1.3766
 1668TIP3    H2 5011   6.132   1.976   4.908 -1.0613  1.5756 -0.3297
 1669TIP3   OH2 5012   4.696   3.194   0.701  0.2686 -0.2910  0.0692
 1669TIP3    H1 5013   4.774   3.241   0.728  0.0422  0.5053 -0.6427
 1669TIP3    H2 5014   4.719   3.101   0.713  0.8572 -0.0292  1.0752
 1670TIP3   OH2 5015   4.383   2.927   4.856 -0.4654 -0.2375  0.3597
 1670TIP3    H1 5016   4.439   2.926   4.933  0.1342  2.1825  0.0283
 1670TIP3    H2 5017   4.381   3.019   4.829 -0.0520 -1.0680 -2.9317
 1671TIP3   OH2 5018   3.394   5.560   4.536  0.7595 -0.3901  0.2037
 1671TIP3    H1 5019   3.382   5.529   4.626  1.1809 -1.4217 -0.0775
 1671TIP3    H2 5020   3.372   5.484   4.482 -0.0858  0.3998 -0.5902
 1672TIP3   OH2 5021   1.772   5.843   4.287  0.4828 -0.3446  0.0572
 1672TIP3    H1 5022   1.735   5.927   4.315 -0.3140 -0.3060 -1.0208
 1672TIP3    H2 5023   1.760   5.785   4.362 -1.5624 -0.2463 -0.1272
 1673TIP3   OH2 5024   3.277   2.631   2.499 -0.0405  0.0357  0.0582
 1673TIP3    H1 5025   3.195   2.680   2.504 -1.4608 -1.8324 -2.5241
 1673TIP3    H2 5026   3.297   2.609   2.591 -3.3825 -0.8456  0.7114
 1674TIP3   OH2 5027   0.283   3.125   3.936 -0.5414  0.3500 -0.0622
 1674TIP3    H1 5028   0.351   3.153   3.998 -1.1063  0.8347  0.3481
 1674TIP3    H2 5029   0.268   3.033   3.959 -0.5435  0.4450  0.3320
 1675TIP3   OH2 5030   4.114   1.373   2.598 -0.0502 -0.2402  0.0827
 1675TIP3    H1 5031   4.091   1.298   2.654  1.0474 -1.0851 -0.5597
 1675TIP3    H2 5032   4.064   1.360   2.518 -0.2082 -0.0428  0.1504
 1676TIP3   OH2 5033   3.983   2.690   1.744  0.4784 -0.3434  0.6724
 1676TIP3    H1 5034   3.988   2.696   1.649 -0.6297 -0.9505  0.5577
 1676TIP3    H2 5035   3.965   2.779   1.774  0.1251 -0.2755  0.2612
 1677TIP3   OH2 5036   1.837   1.090   0.996 -0.7181  0.0533 -0.5597
 1677TIP3    H1 5037   1.922   1.046   0.997 -0.7989 -0.1843 -2.0874
 1677TIP3    H2 5038   1.849   1.165   1.053  1.3851  1.5110 -2.7061
 1678TIP3   OH2 5039   4.347   0.184   3.056  0.3806  0.3978 -0.2211
 1678TIP3    H1 5040   4.281   0.223   3.000  0.5147  0.5169 -0.2967
 1678TIP3    H2 5041   4.342   0.090   3.037  0.0593  0.3777 -0.0376
 1679TIP3   OH2 5042   2.968   1.781   2.862 -0.5329 -0.3189 -0.5420
 1679TIP3    H1 5043   2.895   1.730   2.898 -0.2665 -0.9170 -0.8388
 1679TIP3    H2 5044   3.012   1.721   2.802 -0.2229  0.2697 -0.9114
 1680TIP3   OH2 5045   4.927   3.522   3.278 -0.3927  0.2999 -0.1685
 1680TIP3    H1 5046   4.890   3.445   3.322 -1.3796  1.5367  1.2851
 1680TIP3    H2 5047   4.895   3.517   3.188 -0.7992 -0.7656  0.0246
 1681TIP3   OH2 5048   4.566   3.457   3.561  0.3380 -0.4508  0.4186
 1681TIP3    H1 5049   4.537   3.522   3.625 -0.4846 -2.3293  2.0399
 1681TIP3    H2 5050   4.533   3.491   3.477 -2.3272  0.0036  1.5309
 1682TIP3   OH2 5051   2.439   0.332   0.188 -0.0373 -0.2935 -0.1475
 1682TIP3    H1 5052   2.438   0.410   0.245 -1.4092 -0.8381  0.6175
 1682TIP3    H2 5053   2.494   0.357   0.114 -0.0516  1.2348  0.3249
 1683TIP3   OH2 5054   6.185   1.394   1.179 -0.1985 -0.4028  0.2311
 1683TIP3    H1 5055   6.107   1.419   1.129 -0.2796 -3.4637 -1.4659
 1683TIP3    H2 5056   6.195   1.462   1.244 -2.6089  1.6217 -1.3253
 1684TIP3   OH2 5057   6.096   4.497   0.308 -0.3156 -0.2143 -0.2945
 1684TIP3    H1 5058   6.094   4.586   0.343 -0.4539  0.2573 -1.4365
 1684TIP3    H2 5059   6.144   4.446   0.373  0.3045  0.8293  0.0828
 1685TIP3   OH2 5060   4.496   2.214   2.977  0.0823  0.4711 -0.5947
 1685TIP3    H1 5061   4.494   2.264   3.059  2.5580  0.3439 -0.4013
 1685TIP3    H2 5062   4.424   2.250   2.925 -1.2161  0.9148  1.4000
 1686TIP3   OH2 5063   5.374   1.434   1.638  0.0048 -0.4684  0.3058
 1686TIP3    H1 5064   5.303   1.376   1.666  0.7279 -2.5103 -1.8363
 1686TIP3    H2 5065   5.454   1.389   1.665  0.5684 -0.1842 -0.8434
 1687TIP3   OH2 5066   0.468   5.955   0.294  0.1480 -0.7189 -0.1077
 1687TIP3    H1 5067   0.508   5.870   0.277  0.9465 -0.3743 -0.0084
 1687TIP3    H2 5068   0.533   6.019   0.264  0.4924 -0.1200  1.7557
 1688TIP3   OH2 5069   2.179   2.722   1.366 -0.0153 -0.1049 -0.3337
 1688TIP3    H1 5070   2.158   2.640   1.321  0.4352  0.2229 -1.1703
 1688TIP3    H2 5071   2.275   2.723   1.370  0.1549  1.5492 -2.6557
 1689TIP3   OH2 5072   5.841   0.222   4.961 -0.7035 -0.7741  0.7645
 1689TIP3    H1 5073   5.847   0.280   5.038 -1.0541  0.0993  0.1490
 1689TIP3    H2 5074   5.920   0.168   4.967  0.8400  1.2496  0.2037
 1690TIP3   OH2 5075   6.197   2.703   3.651 -0.2176  0.3615 -0.0488
 1690TIP3    H1 5076   6.121   2.645   3.653 -0.5929  0.8093 -0.8294
 1690TIP3    H2 5077   6.161   2.790   3.667  0.4842  0.2835  2.2598
 1691TIP3   OH2 5078   5.249   5.060   3.702 -0.7901 -0.3424 -0.6285
 1691TIP3    H1 5079   5.211   5.147   3.692  2.2928  0.9808 -2.2468
 1691TIP3    H2 5080   5.277   5.035   3.613  1.6745 -1.2968  0.3090
 1692TIP3   OH2 5081   1.801   1.106   2.581 -0.2931 -0.1036  0.1547
 1692TIP3    H1 5082   1.802   1.069   2.493 -1.3640 -1.7919  0.8137
 1692TIP3    H2 5083   1.866   1.177   2.578 -0.0540 -0.3616 -1.8727
 1693TIP3   OH2 5084   5.916   0.914   4.687  0.2658 -0.3575 -0.1944
 1693TIP3    H1 5085   5.918   0.865   4.770 -0.2678  0.1780  0.1483
 1693TIP3    H2 5086   5.908   1.006   4.714 -0.8694 -0.2409 -0.8426
 1694TIP3   OH2 5087   3.176   1.609   1.446  0.0842 -1.0702  0.5496
 1694TIP3    H1 5088   3.091   1.616   1.490  0.2060  0.3174  0.6025
 1694TIP3    H2 5089   3.230   1.675   1.488  0.4424 -0.2264 -1.1582
 1695TIP3   OH2 5090   6.136   2.065   3.398  0.2709 -0.2277  0.5767
 1695TIP3    H1 5091   6.064   2.012   3.433 -0.0739  0.0855  0.3529
 1695TIP3    H2 5092   6.109   2.155   3.413  1.4151 -0.0917  2.0839
 1696TIP3   OH2 5093   1.180   1.170   4.776 -0.0365  0.0739  1.0228
 1696TIP3    H1 5094   1.195   1.264   4.763 -1.6476  0.1998 -0.3931
 1696TIP3    H2 5095   1.211   1.153   4.865  0.4759  1.9027  1.2507
 1697TIP3   OH2 5096   0.812   4.687   1.745  0.4855 -0.0311  0.4224
 1697TIP3    H1 5097   0.865   4.749   1.695  0.1961  0.2754  0.4861
 1697TIP3    H2 5098   0.873   4.619   1.773  0.6937 -0.0721 -0.1344
 1698TIP3   OH2 5099   5.690   5.922   3.456  0.4573  0.5001 -0.0862
 1698TIP3    H1 5100   5.608   5.876   3.471  1.0687 -0.9492 -0.9649
 1698TIP3    H2 5101   5.675   5.972   3.375 -0.2247  1.9665  0.8992
 1699TIP3   OH2 5102   4.728   3.713   3.409  0.4237  0.4075  0.0919
 1699TIP3    H1 5103   4.698   3.803   3.425 -0.0056  0.4271 -0.7727
 1699TIP3    H2 5104   4.760   3.714   3.319  1.7681  0.0363  0.5440
 1700TIP3   OH2 5105   0.544   3.787   0.437  0.2408 -0.5187  0.0087
 1700TIP3    H1 5106   0.468   3.804   0.381 -0.7660  0.7627  1.6594
 1700TIP3    H2 5107   0.613   3.841   0.400  0.2203 -1.2620 -1.1793
 1701TIP3   OH2 5108   5.460   2.063   3.875 -0.1515 -0.4459 -0.4749
 1701TIP3    H1 5109   5.476   2.144   3.826  1.8330 -0.6206 -0.2248
 1701TIP3    H2 5110   5.386   2.084   3.932  0.2960  1.2125 -0.4356
 1702TIP3   OH2 5111   2.766   4.426   2.361  0.1194  0.0851 -0.5375
 1702TIP3    H1 5112   2.763   4.436   2.266  1.5419  0.2546 -0.5782
 1702TIP3    H2 5113   2.829   4.492   2.390 -1.1259  0.8162  0.6626
 1703TIP3   OH2 5114   4.353   5.258   3.504  0.1888 -0.1460  0.0638
 1703TIP3    H1 5115   4.283   5.323   3.504 -0.9740 -1.3505  0.7126
 1703TIP3    H2 5116   4.341   5.210   3.586  1.0131 -1.1775 -0.3959
 1704TIP3   OH2 5117   2.145   1.603   1.516 -0.1954  0.8444 -0.1534
 1704TIP3    H1 5118   2.152   1.593   1.611 -1.3524 -0.9113 -0.2130
 1704TIP3    H2 5119   2.054   1.628   1.501 -0.0331  1.0656 -0.8092
 1705TIP3   OH2 5120   5.095   4.228   1.567  0.1912 -0.4037 -0.7750
 1705TIP3    H1 5121   5.053   4.256   1.649  0.6466  0.4818 -0.8350
 1705TIP3    H2 5122   5.035   4.256   1.498  1.1904  1.5992 -0.9150
 1706TIP3   OH2 5123   1.506   4.264   3.106 -0.1212 -0.1871 -0.1725
 1706TIP3    H1 5124   1.542   4.233   3.189  0.5888 -0.5329 -0.5939
 1706TIP3    H2 5125   1.568   4.331   3.077 -0.9393  0.6956  0.0900
 1707TIP3   OH2 5126   4.440   1.494   4.443  0.5988 -0.1685 -0.9426
 1707TIP3    H1 5127   4.459   1.490   4.537  1.2992  2.0874 -0.9307
 1707TIP3    H2 5128   4.382   1.419   4.427 -0.1454 -0.1822  1.4365
 1708TIP3   OH2 5129   2.614   5.588   1.393 -0.4238 -0.1843 -0.3207
 1708TIP3    H1 5130   2.663   5.641   1.456 -0.2083 -0.9725  0.2003
 1708TIP3    H2 5131   2.601   5.645   1.318  2.5326 -0.3459 -1.0842
 1709TIP3   OH2 5132   2.630   4.748   4.226  0.1596  0.2085 -0.1631
 1709TIP3    H1 5133   2.618   4.796   4.308  2.8822  1.4862 -0.3825
 1709TIP3    H2 5134   2.620   4.815   4.158 -0.3763 -0.4823 -0.7799
 1710TIP3   OH2 5135   5.969   3.416   4.819  0.5448 -0.1219  0.0615
 1710TIP3    H1 5136   5.902   3.394   4.883 -0.9196  1.3875 -0.8789
 1710TIP3    H2 5137   6.033   3.468   4.867  0.9222 -1.3049  0.8920
 1711TIP3   OH2 5138   3.654   2.552   3.863  0.3708  0.7484 -0.1955
 1711TIP3    H1 5139   3.564   2.553   3.894  0.6221 -0.1832  0.6198
 1711TIP3    H2 5140   3.701   2.608   3.925  0.3117  1.4219 -0.7573
 1712TIP3   OH2 5141   4.157   3.386   1.561 -0.1023  0.7133 -0.2273
 1712TIP3    H1 5142   4.089   3.449   1.535 -0.1983  0.4577 -0.6130
 1712TIP3    H2 5143   4.111   3.321   1.614  0.0398  1.0833  0.3541
 1713TIP3   OH2 5144   4.887   0.338   2.647  0.3082  0.1558  0.0448
 1713TIP3    H1 5145   4.858   0.268   2.589 -0.3386 -0.9690  1.6542
 1713TIP3    H2 5146   4.954   0.298   2.703  0.0226  0.8345  0.9040
 1714TIP3   OH2 5147   3.096   3.432   1.729 -0.3817 -0.4983 -0.6206
 1714TIP3    H1 5148   3.027   3.475   1.779  0.1977  1.6577 -1.5750
 1714TIP3    H2 5149   3.095   3.474   1.643  2.2460 -0.1642 -0.5907
 1715TIP3   OH2 5150   1.252   1.837   0.886 -0.5696  0.2079  0.1485
 1715TIP3    H1 5151   1.342   1.866   0.871 -0.4450  0.7527  1.7201
 1715TIP3    H2 5152   1.225   1.798   0.803  0.5967  1.3741 -0.8288
 1716TIP3   OH2 5153   0.732   3.405   0.836 -0.6234  0.5669 -0.0988
 1716TIP3    H1 5154   0.810   3.364   0.798 -2.9174 -1.5785 -2.9567
 1716TIP3    H2 5155   0.742   3.498   0.815  0.5830  0.1607 -1.5836
 1717TIP3   OH2 5156   4.929   4.737   1.226 -0.4599 -0.1573 -0.1020
 1717TIP3    H1 5157   4.993   4.728   1.297 -0.8175  1.6293  0.4864
 1717TIP3    H2 5158   4.970   4.797   1.164 -0.6327 -0.8135 -0.8625
 1718TIP3   OH2 5159   0.519   2.010   0.134  0.4118  0.7619  0.0607
 1718TIP3    H1 5160   0.449   2.006   0.069  0.8657  1.8299 -0.5243
 1718TIP3    H2 5161   0.475   2.035   0.216 -0.2688 -1.2941  0.3737
 1719TIP3   OH2 5162   6.269   2.893   1.363  0.0753 -0.1862 -0.1884
 1719TIP3    H1 5163   6.263   2.987   1.380  1.2878 -0.3988  1.8143
 1719TIP3    H2 5164   6.194   2.856   1.409 -0.0934 -0.2490 -0.5139
 1720TIP3   OH2 5165   1.465   3.305   0.539 -0.7312 -0.2778  0.0010
 1720TIP3    H1 5166   1.489   3.386   0.495 -0.7538 -0.3228 -0.0929
 1720TIP3    H2 5167   1.373   3.291   0.518 -1.8254  1.5739  2.9029
 1721TIP3   OH2 5168   1.036   4.927   0.775  0.0600  0.1179 -0.7786
 1721TIP3    H1 5169   1.107   4.890   0.722 -0.7177 -2.6015 -0.0962
 1721TIP3    H2 5170   1.080   4.975   0.845  1.1454  0.7154 -1.8335
 1722TIP3   OH2 5171   0.491   4.775   1.346  0.3557  0.0899  0.0431
 1722TIP3    H1 5172   0.412   4.727   1.321 -0.0594  0.0279  1.4260
 1722TIP3    H2 5173   0.563   4.726   1.305 -0.3143  0.4709 -1.7108
 1723TIP3   OH2 5174   1.998   2.861   4.540  0.1213  0.5925  0.2203
 1723TIP3    H1 5175   1.990   2.928   4.473  2.0584  1.3693  0.7115
 1723TIP3    H2 5176   2.020   2.909   4.620 -0.9951 -0.4176  1.1823
 1724TIP3   OH2 5177   4.625   1.663   3.574  0.0058  0.1094 -0.1191
 1724TIP3    H1 5178   4.536   1.648   3.542  0.4643 -1.1788 -0.8643
 1724TIP3    H2 5179   4.682   1.620   3.510  1.0861 -0.3234  1.0787
 1725TIP3   OH2 5180   5.311   1.033   5.058  1.0458  0.3447  0.4546
 1725TIP3    H1 5181   5.397   1.069   5.038  0.2520  1.6460 -0.8252
 1725TIP3    H2 5182   5.261   1.042   4.977 -0.1417 -0.8920  1.0010
 1726TIP3   OH2 5183   1.927   5.747   5.082  0.8970 -0.4908  0.0599
 1726TIP3    H1 5184   2.020   5.769   5.070  0.8922  0.2239  1.1964
 1726TIP3    H2 5185   1.910   5.764   5.175 -0.3618 -0.6603 -0.1232
 1727TIP3   OH2 5186   1.255   3.988   2.289 -0.1993 -0.3042  0.1317
 1727TIP3    H1 5187   1.305   3.915   2.251  0.7203  0.4369 -0.1399
 1727TIP3    H2 5188   1.309   4.065   2.270 -2.6531  0.9360 -2.4712
 1728TIP3   OH2 5189   5.839   4.859   2.502  0.3103  0.5166  0.1007
 1728TIP3    H1 5190   5.818   4.775   2.542  0.3387 -0.2315 -1.4026
 1728TIP3    H2 5191   5.846   4.920   2.576 -1.5773 -0.3810  1.0852
 1729TIP3   OH2 5192   3.077   2.320   5.155 -0.5009  0.3824 -0.0935
 1729TIP3    H1 5193   3.029   2.346   5.233 -0.5802  1.2420 -0.4224
 1729TIP3    H2 5194   3.010   2.312   5.087 -0.2776  0.8714 -0.3759
 1730TIP3   OH2 5195   2.151   0.092   2.872  0.0309 -0.0756  0.4080
 1730TIP3    H1 5196   2.132   0.020   2.812  0.7721  0.6882 -0.8018
 1730TIP3    H2 5197   2.075   0.149   2.866  0.7516  0.7956 -1.0802
 1731TIP3   OH2 5198   0.295   5.212   4.749  0.5079 -0.0640 -0.0209
 1731TIP3    H1 5199   0.384   5.207   4.781 -0.1042  1.0779  2.0200
 1731TIP3    H2 5200   0.287   5.301   4.713  0.1951 -0.1575 -0.1883
 1732TIP3   OH2 5201   6.097   2.981   2.967  0.1456  0.5041 -0.3761
 1732TIP3    H1 5202   6.091   3.027   2.884 -0.1444  2.4564  0.6605
 1732TIP3    H2 5203   6.185   3.001   2.999 -0.2995  1.1220  0.5064
 1733TIP3   OH2 5204   1.308   2.918   1.126 -0.1228 -0.9888  0.4387
 1733TIP3    H1 5205   1.303   2.859   1.050  0.5470 -0.4332 -0.0520
 1733TIP3    H2 5206   1.237   2.980   1.111 -2.6697 -3.1959  2.3552
 1734TIP3   OH2 5207   1.213   3.067   4.907  0.5454  0.1769 -0.7831
 1734TIP3    H1 5208   1.222   3.025   4.821 -0.9802 -1.1469 -0.3299
 1734TIP3    H2 5209   1.270   3.016   4.964 -0.2612 -0.4165 -0.5128
 1735TIP3   OH2 5210   1.639   0.981   3.280  0.2258 -0.4043 -0.0811
 1735TIP3    H1 5211   1.730   0.954   3.275  0.1008 -0.9003  0.2255
 1735TIP3    H2 5212   1.591   0.914   3.231 -0.2138 -1.4132  1.6174
 1736TIP3   OH2 5213   3.546   1.044   2.118 -0.8314  0.2881  0.1841
 1736TIP3    H1 5214   3.455   1.046   2.089 -0.4191 -2.1074 -1.5659
 1736TIP3    H2 5215   3.564   0.952   2.135  1.1202  0.7842  1.1195
 1737TIP3   OH2 5216   3.150   2.517   4.732  0.2140 -1.1518 -0.0607
 1737TIP3    H1 5217   3.234   2.556   4.757 -0.5008 -0.0468  0.7349
 1737TIP3    H2 5218   3.137   2.544   4.641 -0.1355  0.2998  0.3884
 1738TIP3   OH2 5219   3.100   2.746   4.123  0.2096  0.1964  0.4179
 1738TIP3    H1 5220   3.014   2.709   4.140 -0.4262  0.5560 -1.6771
 1738TIP3    H2 5221   3.084   2.840   4.111  0.8972  0.2864  0.1393
 1739TIP3   OH2 5222   0.977   3.056   4.156  0.0178 -0.2709  0.1797
 1739TIP3    H1 5223   0.911   3.100   4.102 -1.0611 -0.4021  1.3642
 1739TIP3    H2 5224   1.019   3.127   4.205 -0.8343 -0.4028  1.1265
 1740TIP3   OH2 5225   2.014   5.067   3.043  0.2905 -0.4831  0.3018
 1740TIP3    H1 5226   2.057   5.139   3.088  1.4056  0.1495 -1.6488
 1740TIP3    H2 5227   2.032   4.990   3.097  1.2152  0.2924  1.1295
 1741TIP3   OH2 5228   4.841   5.025   3.165 -0.0845 -0.1290  0.2566
 1741TIP3    H1 5229   4.746   5.034   3.177 -0.1823 -0.2275 -0.4387
 1741TIP3    H2 5230   4.869   5.112   3.135  0.6249  1.1042  3.8939
 1742TIP3   OH2 5231   3.889   1.844   2.740  0.0764 -0.0499 -0.1143
 1742TIP3    H1 5232   3.903   1.884   2.826  1.7719  1.2870 -0.9468
 1742TIP3    H2 5233   3.803   1.876   2.713 -0.7296 -0.9234  1.2614
 1743TIP3   OH2 5234   1.837   3.574   4.747  0.3030 -0.3707  0.2559
 1743TIP3    H1 5235   1.840   3.666   4.718  0.4831  0.4821  2.7359
 1743TIP3    H2 5236   1.858   3.524   4.668 -0.4403  1.6598 -1.3355
 1744TIP3   OH2 5237   4.238   2.702   2.340 -0.1641 -0.1863 -0.1588
 1744TIP3    H1 5238   4.327   2.673   2.321  0.2198  0.3884  0.7303
 1744TIP3    H2 5239   4.185   2.662   2.271  0.7946 -0.4268 -0.7751
 1745TIP3   OH2 5240   2.665   4.787   3.792  0.1184  0.6346  0.2448
 1745TIP3    H1 5241   2.587   4.760   3.842  1.9573 -0.1730  2.9235
 1745TIP3    H2 5242   2.727   4.715   3.805  1.6852  1.7000 -0.9704
 1746TIP3   OH2 5243   1.848   2.492   2.721  0.4436  0.6238  0.0740
 1746TIP3    H1 5244   1.809   2.561   2.774 -1.5952 -0.9971  0.8337
 1746TIP3    H2 5245   1.824   2.514   2.631  0.9690  1.5793  0.1541
 1747TIP3   OH2 5246   4.041   3.281   5.018  0.1351 -0.1930 -0.0645
 1747TIP3    H1 5247   4.044   3.198   5.067  2.4500 -0.4100 -0.4612
 1747TIP3    H2 5248   4.122   3.326   5.042 -1.0211  1.9600  0.0650
 1748TIP3   OH2 5249   5.622   0.073   1.026 -0.8090 -0.8797 -0.1516
 1748TIP3    H1 5250   5.676   0.047   0.952  0.2355  1.6162 -0.3545
 1748TIP3    H2 5251   5.551   0.124   0.987 -0.0896  0.7072  0.4915
 1749TIP3   OH2 5252   5.840   2.848   3.080  0.0992  0.3400 -0.4870
 1749TIP3    H1 5253   5.870   2.761   3.054 -0.8354 -0.0919 -0.1670
 1749TIP3    H2 5254   5.913   2.906   3.059  0.4465 -0.4062 -1.4121
 1750TIP3   OH2 5255   4.742   1.157   0.660  0.7752 -0.1658  0.1010
 1750TIP3    H1 5256   4.746   1.229   0.597  1.4444 -0.0001  0.3233
 1750TIP3    H2 5257   4.752   1.078   0.607  0.0423 -0.1079 -0.1434
 1751TIP3   OH2 5258   0.089   4.067   4.234 -0.0323  0.0542  0.3249
 1751TIP3    H1 5259   0.076   4.020   4.152  1.7472  1.9316 -1.1636
 1751TIP3    H2 5260   0.063   4.005   4.302 -0.3111 -2.0544 -1.5763
 1752TIP3   OH2 5261   3.795   5.310   3.170 -0.1022 -0.4485  0.8320
 1752TIP3    H1 5262   3.718   5.254   3.177 -0.0495 -0.6798 -0.2707
 1752TIP3    H2 5263   3.774   5.387   3.223 -1.5169 -0.0530 -0.2501
 1753TIP3   OH2 5264   5.001   0.922   3.236 -0.4734  0.2894 -0.1154
 1753TIP3    H1 5265   4.954   0.932   3.319 -0.3233  1.1409 -0.1242
 1753TIP3    H2 5266   4.947   0.967   3.172 -0.4587 -0.1449 -0.4339
 1754TIP3   OH2 5267   1.486   5.660   2.458 -0.3809  0.1558 -0.0776
 1754TIP3    H1 5268   1.520   5.732   2.404 -0.4766 -1.0851 -1.8848
 1754TIP3    H2 5269   1.556   5.642   2.520  0.1769  0.9356 -0.4592
 1755TIP3   OH2 5270   3.145   5.651   2.722  0.3154 -0.3987 -0.0699
 1755TIP3    H1 5271   3.118   5.629   2.633  0.1511 -0.6011  0.0274
 1755TIP3    H2 5272   3.062   5.664   2.769  0.4084  1.1064 -0.2881
 1756TIP3   OH2 5273   2.517   0.551   2.136 -0.3935 -0.2775 -1.1484
 1756TIP3    H1 5274   2.517   0.557   2.040 -1.6130  0.3540 -1.1303
 1756TIP3    H2 5275   2.456   0.480   2.155 -1.1182  0.4322 -0.8093
 1757TIP3   OH2 5276   4.880   3.955   1.761 -0.5943  0.6870  0.5146
 1757TIP3    H1 5277   4.839   4.041   1.752  0.3134  1.2122  1.2305
 1757TIP3    H2 5278   4.809   3.893   1.746 -0.8589  1.5029 -2.1067
 1758TIP3   OH2 5279   0.543   3.904   0.861 -0.0220 -0.0510 -0.0371
 1758TIP3    H1 5280   0.588   3.839   0.915  1.0230  0.1285 -0.6500
 1758TIP3    H2 5281   0.606   3.924   0.791 -0.8897  0.5635 -0.6607
 1759TIP3   OH2 5282   2.095   4.487   4.715 -0.0582 -0.0450  0.5429
 1759TIP3    H1 5283   2.081   4.575   4.751  0.0976  0.0678  0.3338
 1759TIP3    H2 5284   2.010   4.444   4.723 -0.2892  0.3232  0.1126
 1760TIP3   OH2 5285   5.310   1.073   3.950  0.2443 -0.2139  0.5509
 1760TIP3    H1 5286   5.299   0.984   3.918  1.4752 -0.3743  0.5314
 1760TIP3    H2 5287   5.364   1.116   3.884 -0.4056  0.5841  0.5155
 1761TIP3   OH2 5288   4.430   0.477   2.178 -0.0217  0.0907 -0.0176
 1761TIP3    H1 5289   4.373   0.401   2.186  0.3303 -0.1827 -0.0591
 1761TIP3    H2 5290   4.414   0.511   2.090  0.4294 -0.4360 -0.3071
 1762TIP3   OH2 5291   0.277   4.249   4.274 -0.0382 -0.2597 -0.3552
 1762TIP3    H1 5292   0.217   4.181   4.243 -0.4782 -0.7713  1.4841
 1762TIP3    H2 5293   0.219   4.319   4.306  0.3535 -0.1943  0.2308
 1763TIP3   OH2 5294   4.265   4.650   1.031  0.2576  0.0709 -0.2943
 1763TIP3    H1 5295   4.344   4.674   0.984  0.2913  0.1937 -0.1742
 1763TIP3    H2 5296   4.194   4.692   0.982  0.1592 -0.8898 -1.0115
 1764TIP3   OH2 5297   2.195  -0.009   4.408 -0.6803  0.6116  0.4461
 1764TIP3    H1 5298   2.225   0.067   4.456  0.5800  0.3162  0.1441
 1764TIP3    H2 5299   2.101   0.007   4.394 -0.8932  1.1081  2.1948
 1765TIP3   OH2 5300   1.050   3.769   3.785  0.2737  0.2248  0.3286
 1765TIP3    H1 5301   0.989   3.762   3.858 -0.2364  0.4784 -0.0684
 1765TIP3    H2 5302   1.022   3.700   3.724  1.1928 -0.5201  0.7228
 1766TIP3   OH2 5303   1.748   5.124   0.356  0.1955  0.6306  0.0216
 1766TIP3    H1 5304   1.702   5.091   0.279 -0.8513  2.5918 -0.2531
 1766TIP3    H2 5305   1.679   5.154   0.415  1.0206  2.3310  0.2086
 1767TIP3   OH2 5306   3.984   5.121   2.872 -0.2019  0.2008  0.3055
 1767TIP3    H1 5307   4.032   5.203   2.887  0.6735 -0.2192 -0.1036
 1767TIP3    H2 5308   4.049   5.062   2.834 -0.2816 -1.2945  2.3058
 1768TIP3   OH2 5309   4.272   1.245   4.384 -0.1253  0.3116 -0.5102
 1768TIP3    H1 5310   4.236   1.217   4.300 -0.0176 -0.2342 -0.3778
 1768TIP3    H2 5311   4.260   1.170   4.442  0.8839  0.2422 -0.3643
 1769TIP3   OH2 5312   2.224   1.279   0.941  0.2353  0.3727  0.5055
 1769TIP3    H1 5313   2.209   1.323   0.857  1.7647  0.4797  0.2670
 1769TIP3    H2 5314   2.201   1.188   0.925 -2.4603  0.8866  0.8561
 1770TIP3   OH2 5315   4.249   0.021   0.148  0.2751 -0.0624 -0.1934
 1770TIP3    H1 5316   4.173   0.079   0.140  0.5418  0.6089  1.7468
 1770TIP3    H2 5317   4.298   0.055   0.222  1.3269 -1.8031 -0.0253
 1771TIP3   OH2 5318   2.884   5.301   3.666  0.0604 -0.0708 -0.2597
 1771TIP3    H1 5319   2.886   5.370   3.600  2.1739  0.5148  0.3498
 1771TIP3    H2 5320   2.890   5.220   3.616 -1.4328  0.1749 -0.9181
 1772TIP3   OH2 5321   5.068   1.742   1.511 -0.3569 -0.0504 -0.0100
 1772TIP3    H1 5322   5.056   1.664   1.565  2.3959  0.0477  0.8919
 1772TIP3    H2 5323   5.105   1.708   1.429 -0.9467  0.1457 -0.3599
 1773TIP3   OH2 5324   4.008   3.956   5.040 -0.8199  0.2596 -0.3518
 1773TIP3    H1 5325   4.011   3.918   5.127 -1.9155  1.8451  0.4096
 1773TIP3    H2 5326   4.055   3.893   4.985  0.8318 -0.2649  1.5401
 1774TIP3   OH2 5327   3.486   1.421   4.634  0.8974  0.1842 -0.4019
 1774TIP3    H1 5328   3.435   1.501   4.635 -0.2935 -0.5466  0.5919
 1774TIP3    H2 5329   3.573   1.447   4.602  0.8655  2.0588  0.9197
 1775TIP3   OH2 5330   5.582   0.172   0.591  0.2429  0.3779 -0.0240
 1775TIP3    H1 5331   5.663   0.208   0.627  0.3389  1.0392 -0.9015
 1775TIP3    H2 5332   5.512   0.219   0.637  0.3526  0.2210  0.3082
 1776TIP3   OH2 5333   2.691   5.420   0.489  0.3644  0.3994  0.9953
 1776TIP3    H1 5334   2.724   5.435   0.578  1.9495  0.8260  0.3644
 1776TIP3    H2 5335   2.597   5.405   0.501  0.6191 -0.0391  2.7906
 1777TIP3   OH2 5336   4.137   5.105   2.518 -0.3814  0.0539 -0.5739
 1777TIP3    H1 5337   4.054   5.065   2.545  0.0516 -0.0770  0.6458
 1777TIP3    H2 5338   4.123   5.199   2.528 -1.1890  0.2321 -2.8275
 1778TIP3   OH2 5339   0.488   1.997   3.685 -0.1969  0.1547 -0.1498
 1778TIP3    H1 5340   0.418   1.957   3.736 -0.4327  0.3446 -0.3232
 1778TIP3    H2 5341   0.503   1.937   3.612  1.0341 -0.7803  0.8350
 1779TIP3   OH2 5342   1.074   5.067   3.252  0.3823 -0.1095 -0.2498
 1779TIP3    H1 5343   0.981   5.089   3.251  0.7216  1.4401 -0.9827
 1779TIP3    H2 5344   1.095   5.052   3.344 -0.7500 -1.3455 -0.1581
 1780TIP3   OH2 5345   5.872   0.978   3.866  0.1686 -0.4282  0.1411
 1780TIP3    H1 5346   5.815   0.989   3.789  1.0064 -1.0141 -0.5832
 1780TIP3    H2 5347   5.901   1.066   3.887  0.3182 -0.3146 -0.5188
 1781TIP3   OH2 5348   0.267   4.651   2.559  0.0434  0.1907  0.3087
 1781TIP3    H1 5349   0.248   4.744   2.567 -1.8204 -0.0984 -0.3929
 1781TIP3    H2 5350   0.308   4.628   2.642 -0.0802  1.4991  0.7500
 1782TIP3   OH2 5351   2.142   4.472   3.259  0.0155 -0.1786 -0.6652
 1782TIP3    H1 5352   2.123   4.444   3.169  0.6127  0.9623 -1.1698
 1782TIP3    H2 5353   2.228   4.436   3.277 -0.1303 -0.4584 -0.5245
 1783TIP3   OH2 5354   0.137   5.093   0.754  0.1973  0.0428 -0.6650
 1783TIP3    H1 5355   0.156   5.082   0.847  0.5165 -1.0411 -0.8468
 1783TIP3    H2 5356   0.091   5.013   0.729 -1.3620  1.0224 -1.0765
 1784TIP3   OH2 5357   1.768   5.405   0.581 -0.0145 -0.4324  0.4054
 1784TIP3    H1 5358   1.686   5.356   0.584  0.6982 -1.8380 -1.2277
 1784TIP3    H2 5359   1.825   5.361   0.644 -0.2876  0.1271  1.0515
 1785TIP3   OH2 5360   4.002   5.438   1.404  0.0647 -0.3483 -0.0832
 1785TIP3    H1 5361   3.925   5.412   1.353  1.8614 -1.4387 -2.4277
 1785TIP3    H2 5362   4.008   5.533   1.392 -2.2788  0.2141  2.2905
 1786TIP3   OH2 5363   4.503   3.920   2.542 -0.4143  0.1902 -0.4963
 1786TIP3    H1 5364   4.435   3.946   2.480 -1.8119 -0.7765  0.5306
 1786TIP3    H2 5365   4.568   3.989   2.538 -0.7247  0.4182 -2.6183
 1787TIP3   OH2 5366   5.244   1.012   2.974  0.4007  0.2185  0.2140
 1787TIP3    H1 5367   5.157   1.012   2.934  0.2021  0.1786  0.6411
 1787TIP3    H2 5368   5.304   1.036   2.903  0.0279  0.3532 -0.0538
 1788TIP3   OH2 5369   0.545   2.290   4.498  0.5588  0.2519 -0.4410
 1788TIP3    H1 5370   0.512   2.355   4.436 -0.5372  0.0349 -0.1061
 1788TIP3    H2 5371   0.563   2.339   4.578 -2.2095 -0.0870  0.5082
 1789TIP3   OH2 5372   2.369   2.912   2.339 -0.3734 -0.1485  0.4322
 1789TIP3    H1 5373   2.302   2.891   2.275  0.2969  1.4855 -0.8803
 1789TIP3    H2 5374   2.449   2.872   2.305 -0.0066  0.7570  0.1864
 1790TIP3   OH2 5375   2.222   5.943   1.330  0.1545 -0.5913 -0.3593
 1790TIP3    H1 5376   2.308   5.907   1.352  0.5269  1.7350  2.5281
 1790TIP3    H2 5377   2.161   5.896   1.387  0.3663  1.5566  1.8061
 1791TIP3   OH2 5378   2.824   3.385   5.008  0.0358  0.1811  0.9695
 1791TIP3    H1 5379   2.909   3.391   5.052  0.9781  0.5635 -0.7966
 1791TIP3    H2 5380   2.790   3.475   5.008  0.3237  0.2961  0.4183
 1792TIP3   OH2 5381   5.728   5.967   0.810 -0.2108 -0.2767  0.1208
 1792TIP3    H1 5382   5.695   6.056   0.791 -0.5094 -0.3022  0.5057
 1792TIP3    H2 5383   5.729   5.924   0.724  3.4195  1.1973 -0.7785
 1793TIP3   OH2 5384   4.579   0.707   1.527  0.2244  0.0130 -0.5338
 1793TIP3    H1 5385   4.539   0.772   1.469  0.9674  1.1575  0.2049
 1793TIP3    H2 5386   4.665   0.690   1.487  0.0250 -0.5476 -0.7360
 1794TIP3   OH2 5387   4.271   0.108   3.891  0.2137  0.1927  0.1518
 1794TIP3    H1 5388   4.254   0.037   3.954 -0.7022  0.1542 -0.1176
 1794TIP3    H2 5389   4.254   0.188   3.940  0.0018  0.1784  0.1045
 1795TIP3   OH2 5390   0.888   1.376   3.017  0.1774 -0.2575 -0.4657
 1795TIP3    H1 5391   0.909   1.305   3.078 -1.4407 -1.2541 -0.9986
 1795TIP3    H2 5392   0.946   1.448   3.043  0.0970 -0.9105  1.7231
 1796TIP3   OH2 5393   5.137   0.267   1.674 -0.4782 -0.3166  0.1345
 1796TIP3    H1 5394   5.061   0.213   1.652  1.0951 -2.6519  0.0021
 1796TIP3    H2 5395   5.122   0.349   1.628 -2.2420 -1.2298 -1.0587
 1797TIP3   OH2 5396   1.198   2.964   0.735 -0.4684 -0.0338  0.3303
 1797TIP3    H1 5397   1.143   2.941   0.659  0.0376  0.4321 -0.1809
 1797TIP3    H2 5398   1.277   2.912   0.723 -0.0279  0.6857  0.0748
 1798TIP3   OH2 5399   4.641   0.745   3.739 -0.0276 -0.1913  0.0962
 1798TIP3    H1 5400   4.736   0.750   3.730  0.0057 -0.4711  0.2571
 1798TIP3    H2 5401   4.622   0.792   3.820 -0.0906  0.3867 -0.2521
 1799TIP3   OH2 5402   0.127   2.472   4.360  0.1818  0.0066  0.4680
 1799TIP3    H1 5403   0.142   2.549   4.305  1.6233  1.2658  2.4791
 1799TIP3    H2 5404   0.203   2.416   4.344  0.3353  0.1239  0.7904
 1800TIP3   OH2 5405   1.467   2.778   4.291 -0.1544 -0.4606  0.0981
 1800TIP3    H1 5406   1.513   2.860   4.310  1.3611 -0.8977 -1.4013
 1800TIP3    H2 5407   1.395   2.776   4.354  0.4347  1.4612  0.9248
 1801TIP3   OH2 5408   0.955   0.588   3.734 -0.0156  0.1967  0.0796
 1801TIP3    H1 5409   0.942   0.662   3.674  1.2735 -0.2242 -0.7890
 1801TIP3    H2 5410   0.907   0.612   3.813  0.9548  2.3177  0.1112
 1802TIP3   OH2 5411   3.191   1.333   4.271  0.2553  0.0882  0.4544
 1802TIP3    H1 5412   3.115   1.281   4.296 -1.7279  1.5641 -2.1060
 1802TIP3    H2 5413   3.178   1.353   4.179  3.5146  0.8980  0.0245
 1803TIP3   OH2 5414   3.917   0.612   3.327 -0.1634 -0.1051 -0.5699
 1803TIP3    H1 5415   3.907   0.532   3.275  1.6604 -1.2916  0.7741
 1803TIP3    H2 5416   3.850   0.671   3.294 -0.4059 -1.5391 -2.8331
 1804TIP3   OH2 5417   6.121   2.852   4.788  0.1562 -0.1185  0.1479
 1804TIP3    H1 5418   6.158   2.767   4.765 -0.8019 -0.8393  1.1490
 1804TIP3    H2 5419   6.032   2.832   4.818 -0.3944  1.3418 -0.4054
 1805TIP3   OH2 5420   4.332   3.992   4.440 -0.0983  0.2483  0.4804
 1805TIP3    H1 5421   4.267   3.940   4.488  0.7071 -2.0843 -0.7628
 1805TIP3    H2 5422   4.391   3.926   4.402  2.3956  2.2130  0.6974
 1806TIP3   OH2 5423   0.137   0.384   4.948  0.0841  0.5989 -0.4631
 1806TIP3    H1 5424   0.142   0.470   4.990 -0.3659  0.4538 -0.1032
 1806TIP3    H2 5425   0.192   0.392   4.870  1.0092  0.8376  0.2044
 1807TIP3   OH2 5426   1.244   3.695   4.467  0.0621 -0.1308 -0.5711
 1807TIP3    H1 5427   1.223   3.785   4.493 -1.3605 -0.0669 -1.8090
 1807TIP3    H2 5428   1.336   3.698   4.441  0.1311  0.8823 -0.2392
 1808TIP3   OH2 5429   2.251   1.275   2.817 -0.4369 -0.0605 -0.1709
 1808TIP3    H1 5430   2.161   1.300   2.797 -0.3850  2.4118  2.0960
 1808TIP3    H2 5431   2.300   1.358   2.815  1.7527 -1.2743 -0.9498
 1809TIP3   OH2 5432   1.312   2.454   4.244  0.6297 -0.5468  0.1049
 1809TIP3    H1 5433   1.337   2.390   4.310  1.2104  1.1775  1.6572
 1809TIP3    H2 5434   1.396   2.485   4.208  0.3759 -0.4327 -0.3996
 1810TIP3   OH2 5435   3.614   1.418   1.621  0.3353  0.5233  0.0759
 1810TIP3    H1 5436   3.700   1.376   1.626 -0.3237 -1.0020 -0.4876
 1810TIP3    H2 5437   3.583   1.398   1.533 -0.6121  0.9898  0.2914
 1811TIP3   OH2 5438   2.898   2.348   1.950 -0.0282  0.2588 -0.0635
 1811TIP3    H1 5439   2.924   2.301   2.029 -0.0686  4.3980  2.7182
 1811TIP3    H2 5440   2.974   2.343   1.893  1.3039 -0.1458  1.6622
 1812TIP3   OH2 5441   5.097   4.789   4.964  0.3404 -0.2804 -0.1288
 1812TIP3    H1 5442   5.188   4.764   4.944  0.2043 -0.7097 -0.2295
 1812TIP3    H2 5443   5.094   4.883   4.948  0.8712 -0.1935  0.2617
 1813TIP3   OH2 5444   5.624   4.831   4.415  0.6775  0.7470 -0.2287
 1813TIP3    H1 5445   5.531   4.814   4.399  1.3793 -1.2064 -3.1288
 1813TIP3    H2 5446   5.632   4.927   4.409 -0.8326  0.8071 -2.5827
 1814TIP3   OH2 5447   3.409   0.999   2.701  0.2575 -0.4654  0.4296
 1814TIP3    H1 5448   3.462   1.041   2.769  0.4750 -2.7323  1.7792
 1814TIP3    H2 5449   3.330   1.052   2.696  0.8365  0.5339  1.4802
 1815TIP3   OH2 5450   1.113   1.040   3.778  0.3931  0.3301 -0.7309
 1815TIP3    H1 5451   1.026   1.008   3.755 -0.7405  0.9368  2.2277
 1815TIP3    H2 5452   1.169   0.963   3.778 -0.9644 -0.7168  0.5862
 1816TIP3   OH2 5453   1.344   1.397   4.147 -0.4066  0.1226 -0.4673
 1816TIP3    H1 5454   1.396   1.374   4.224 -0.8219  1.3275  0.1935
 1816TIP3    H2 5455   1.340   1.316   4.096  0.4132 -0.5232  0.4550
 1817TIP3   OH2 5456   0.912   0.876   3.657 -0.1777 -0.1730  0.0319
 1817TIP3    H1 5457   0.857   0.939   3.610  2.5009  2.0046 -0.4314
 1817TIP3    H2 5458   0.974   0.845   3.592  2.1294  1.1226  1.4708
 1818TIP3   OH2 5459   6.163   4.866   0.166  0.8187 -0.6085  0.1324
 1818TIP3    H1 5460   6.250   4.828   0.166 -0.0620 -2.9272  2.5241
 1818TIP3    H2 5461   6.158   4.916   0.248  0.2406  0.4289 -0.5133
 1819TIP3   OH2 5462   4.590   0.777  -0.013  0.3045  0.2156  0.0460
 1819TIP3    H1 5463   4.499   0.773  -0.042  0.0770 -1.8915  0.8803
 1819TIP3    H2 5464   4.587   0.829   0.068 -0.1244  0.2795 -0.0078
 1820TIP3   OH2 5465   3.354   3.414   2.398 -0.4110  0.6062 -0.0100
 1820TIP3    H1 5466   3.324   3.444   2.313 -0.7036  0.4408  0.0341
 1820TIP3    H2 5467   3.293   3.345   2.423 -0.3296  0.6539  0.3345
 1821TIP3   OH2 5468   0.385   0.724   0.758 -0.4371  0.0788  0.2124
 1821TIP3    H1 5469   0.335   0.724   0.840  0.5775 -0.1431  0.8419
 1821TIP3    H2 5470   0.365   0.809   0.719 -0.8316  0.2402  0.7488
 1822TIP3   OH2 5471   3.396   5.374   0.637 -0.1558 -0.4450  0.8082
 1822TIP3    H1 5472   3.409   5.339   0.725  0.0219  0.7944  1.2991
 1822TIP3    H2 5473   3.302   5.387   0.630 -0.1404 -0.2355  0.9551
 1823TIP3   OH2 5474   0.532   1.034   0.604 -0.4901  0.1876  0.0372
 1823TIP3    H1 5475   0.570   1.021   0.691 -1.0563  0.8976  0.4029
 1823TIP3    H2 5476   0.438   1.028   0.618 -0.5524 -0.6490 -0.7054
 1824TIP3   OH2 5477   5.649   5.539   4.842 -0.2639 -0.5722  0.4401
 1824TIP3    H1 5478   5.645   5.448   4.871 -1.6508 -0.1674  1.6619
 1824TIP3    H2 5479   5.701   5.584   4.908  0.6164 -0.5005 -0.2835
 1825TIP3   OH2 5480   3.729   3.417   4.119  0.4282  0.4317 -0.1685
 1825TIP3    H1 5481   3.674   3.483   4.161  2.2839  3.1949 -1.7732
 1825TIP3    H2 5482   3.775   3.374   4.192 -2.2840 -0.6483  1.0428
 1826TIP3   OH2 5483   2.051   2.715   2.364 -0.5621  0.2151 -0.2702
 1826TIP3    H1 5484   1.963   2.747   2.346  0.2199  1.8158 -1.5111
 1826TIP3    H2 5485   2.103   2.741   2.288  0.6660 -2.1204 -0.3173
 1827TIP3   OH2 5486   3.081   2.725   5.205 -0.3058 -0.0569  0.5044
 1827TIP3    H1 5487   3.023   2.651   5.187 -2.0594  1.3612  0.0396
 1827TIP3    H2 5488   3.133   2.734   5.126 -0.3139 -0.5775  0.4339
 1828TIP3   OH2 5489   2.462   1.041   3.516  0.0608 -0.3427  0.0075
 1828TIP3    H1 5490   2.445   1.033   3.610  0.2753  0.1144  0.0894
 1828TIP3    H2 5491   2.521   0.969   3.496 -0.5581 -0.8847  0.0713
 1829TIP3   OH2 5492   0.787   1.065   3.506 -0.6487 -0.1384  0.0564
 1829TIP3    H1 5493   0.699   1.103   3.495 -0.7217 -0.5830 -1.0100
 1829TIP3    H2 5494   0.820   1.056   3.416  1.1395  1.4969  0.4833
 1830TIP3   OH2 5495   4.537   0.593   1.078  0.4228  0.5533 -0.3698
 1830TIP3    H1 5496   4.447   0.626   1.087  0.5202  1.2042 -1.6004
 1830TIP3    H2 5497   4.584   0.664   1.034  0.7924 -0.9792 -2.5632
 1831TIP3   OH2 5498   6.112   1.067   0.949  0.1648 -0.2502  0.0342
 1831TIP3    H1 5499   6.199   1.033   0.925  0.4934  0.9979 -0.6431
 1831TIP3    H2 5500   6.052   0.996   0.928  0.8029 -0.3652 -1.4989
 1832TIP3   OH2 5501   0.277   5.385   3.950  0.4414  0.2932 -0.2081
 1832TIP3    H1 5502   0.294   5.359   3.859  1.3519  0.7841 -0.1951
 1832TIP3    H2 5503   0.266   5.480   3.946 -0.4710  0.2021  0.0651
 1833TIP3   OH2 5504   6.131   4.981   2.640 -0.6486 -0.1452 -0.3700
 1833TIP3    H1 5505   6.073   5.046   2.680 -1.8423 -1.4165  0.0521
 1833TIP3    H2 5506   6.127   5.000   2.546  0.3660  1.4251 -0.1256
 1834TIP3   OH2 5507   3.119   1.562   1.799 -0.4218 -0.1372 -0.3082
 1834TIP3    H1 5508   3.041   1.540   1.748 -0.4710  0.3373 -0.4421
 1834TIP3    H2 5509   3.193   1.536   1.743 -0.4709  0.8021 -0.8153
 1835TIP3   OH2 5510   2.579   0.095   4.285  0.2922 -0.0408  0.4511
 1835TIP3    H1 5511   2.671   0.072   4.268  0.0637 -0.6042 -0.0415
 1835TIP3    H2 5512   2.570   0.090   4.380  0.2584 -1.9580  0.3701
 1836TIP3   OH2 5513   3.218   0.167   1.424  0.1828 -0.4664  0.3349
 1836TIP3    H1 5514   3.202   0.151   1.518 -0.9021  0.9625  0.4278
 1836TIP3    H2 5515   3.134   0.149   1.382  1.0026 -2.4073 -0.5959
 1837TIP3   OH2 5516   3.066   0.393   2.179 -0.5685 -0.2738  0.6131
 1837TIP3    H1 5517   3.044   0.347   2.098  0.5901 -3.0741  1.7583
 1837TIP3    H2 5518   3.074   0.484   2.153  2.4945 -1.3315 -3.1372
 1838TIP3   OH2 5519   4.832   1.966   4.546  0.0498  0.4872 -0.0858
 1838TIP3    H1 5520   4.875   2.011   4.618  1.1501  0.4849 -0.7210
 1838TIP3    H2 5521   4.750   1.933   4.583  0.1115  1.3886  0.8706
 1839TIP3   OH2 5522   0.343   5.858   0.901  0.7437  0.6369 -0.3704
 1839TIP3    H1 5523   0.329   5.942   0.945  2.2218  1.0702 -0.6691
 1839TIP3    H2 5524   0.267   5.847   0.845 -0.5528  0.6971  1.3144
 1840TIP3   OH2 5525   5.753   1.917   0.600 -0.2867 -0.1056  0.3301
 1840TIP3    H1 5526   5.775   1.931   0.508  0.7024 -1.7853  0.2602
 1840TIP3    H2 5527   5.831   1.875   0.636 -0.9457 -0.1413  1.7509
 1841TIP3   OH2 5528   2.275   3.605   3.084 -0.4849  0.1654 -0.3877
 1841TIP3    H1 5529   2.180   3.610   3.080 -0.4478  1.1079 -0.4361
 1841TIP3    H2 5530   2.295   3.585   3.176 -0.6564  4.0130  0.6478
 1842TIP3   OH2 5531   2.252   2.991   4.109  0.7054 -0.4441 -0.2060
 1842TIP3    H1 5532   2.264   2.904   4.070  0.3104 -0.7647  0.3685
 1842TIP3    H2 5533   2.195   2.976   4.184  2.1044  0.0176  1.0053
 1843TIP3   OH2 5534   1.902   5.770   3.069 -0.3870 -0.1031 -0.3166
 1843TIP3    H1 5535   1.889   5.688   3.117  0.9401  0.5230  1.2407
 1843TIP3    H2 5536   1.842   5.832   3.111  0.9308  0.5042  0.7478
 1844TIP3   OH2 5537   0.781   2.769   4.587 -0.3246 -0.0469  0.1139
 1844TIP3    H1 5538   0.781   2.800   4.497 -1.3611 -0.3797 -0.0136
 1844TIP3    H2 5539   0.691   2.743   4.604 -0.1358 -0.0488  1.2313
 1845TIP3   OH2 5540   2.468   0.061   5.072 -0.2638  0.2972 -0.0013
 1845TIP3    H1 5541   2.419  -0.016   5.041  1.5267 -0.9127  0.0204
 1845TIP3    H2 5542   2.473   0.119   4.996  1.4126 -1.2541 -1.1766
 1846TIP3   OH2 5543   2.988   1.602   0.060  0.5344 -0.1275  0.0864
 1846TIP3    H1 5544   3.068   1.605   0.008 -0.6299  1.1727 -1.7392
 1846TIP3    H2 5545   2.960   1.694   0.066 -0.3858 -0.4546  1.4470
 1847TIP3   OH2 5546   2.977   5.411   4.855 -0.0451  0.3412  0.0935
 1847TIP3    H1 5547   2.990   5.378   4.943  0.4328 -0.0040 -0.1074
 1847TIP3    H2 5548   3.065   5.419   4.818 -0.3140 -0.9895 -0.8944
 1848TIP3   OH2 5549   1.922   4.080   2.652 -0.8097 -0.0094  0.1741
 1848TIP3    H1 5550   1.917   3.984   2.655 -0.1410 -0.0533  0.0125
 1848TIP3    H2 5551   2.013   4.098   2.630 -0.3264  0.7089  2.4581
 1849TIP3   OH2 5552   3.338   4.882   4.264 -0.1064 -0.4301 -0.4410
 1849TIP3    H1 5553   3.287   4.885   4.345 -1.0900 -1.0297 -1.0095
 1849TIP3    H2 5554   3.377   4.795   4.263  3.7671  1.0656  1.5948
 1850TIP3   OH2 5555   5.409   4.860   2.870  0.3665  0.3630 -0.3267
 1850TIP3    H1 5556   5.343   4.835   2.935  0.8312  0.2837  0.1241
 1850TIP3    H2 5557   5.492   4.834   2.910  0.8689  2.4211  0.0794
 1851TIP3   OH2 5558   1.616   3.070   2.975 -0.2018  0.1885  0.5712
 1851TIP3    H1 5559   1.607   2.979   2.948 -0.4260  0.2247  0.5242
 1851TIP3    H2 5560   1.604   3.120   2.894  2.9093  0.1528 -0.0448
 1852TIP3   OH2 5561   0.476   4.516   2.469 -0.4436 -0.4435 -0.0100
 1852TIP3    H1 5562   0.461   4.436   2.519 -1.5335  0.4495  1.1489
 1852TIP3    H2 5563   0.396   4.566   2.479 -0.3034  0.2261 -1.8538
 1853TIP3   OH2 5564   4.366   1.114   1.711 -0.3070 -0.5732  0.2719
 1853TIP3    H1 5565   4.422   1.188   1.687 -1.0232 -0.0772  0.0954
 1853TIP3    H2 5566   4.419   1.063   1.773  0.7512 -0.7251 -0.7264
 1854TIP3   OH2 5567   2.598   5.646   0.108  0.3313  0.0618  0.5290
 1854TIP3    H1 5568   2.515   5.693   0.123  0.2227 -0.3445  1.2637
 1854TIP3    H2 5569   2.656   5.678   0.178  0.4578 -0.4176  0.6469
 1855TIP3   OH2 5570   2.590   4.666   5.131 -0.4133  0.8509 -0.0498
 1855TIP3    H1 5571   2.566   4.639   5.219  1.2251 -0.1255  0.1359
 1855TIP3    H2 5572   2.546   4.750   5.119 -0.2073  1.2743  1.8961
 1856TIP3   OH2 5573   5.122   0.368  -0.024 -0.0156 -0.3376 -0.1344
 1856TIP3    H1 5574   5.073   0.333   0.051  1.0135  0.3666  0.9032
 1856TIP3    H2 5575   5.119   0.463  -0.012 -1.0020 -0.1260 -1.7681
 1857TIP3   OH2 5576   1.106   4.837   3.985 -0.6348 -0.2214 -0.2903
 1857TIP3    H1 5577   1.015   4.857   4.003 -0.5431 -1.5053  1.9645
 1857TIP3    H2 5578   1.108   4.742   3.970  0.1440  0.0044 -1.8608
 1858TIP3   OH2 5579   5.821   0.270   3.513 -0.4106 -0.0746  0.3247
 1858TIP3    H1 5580   5.893   0.308   3.462 -0.8644  0.8820  0.3834
 1858TIP3    H2 5581   5.849   0.279   3.604  0.7514 -2.4739  0.3128
 1859TIP3   OH2 5582   5.396   3.957   3.604  0.3227 -0.1371 -0.0723
 1859TIP3    H1 5583   5.380   3.975   3.697 -4.2998  2.7630 -1.1385
 1859TIP3    H2 5584   5.441   4.036   3.572  1.2001 -0.7926 -0.5033
 1860TIP3   OH2 5585   5.065   4.009   5.034  0.0397  0.4459 -0.4540
 1860TIP3    H1 5586   5.059   4.085   4.977  0.9211 -1.1555 -2.8695
 1860TIP3    H2 5587   4.976   3.976   5.040  0.0189  0.2767 -1.5026
 1861TIP3   OH2 5588   1.337   5.309   1.335  0.6159 -0.4532  0.2534
 1861TIP3    H1 5589   1.415   5.364   1.322  0.8706 -0.7206  0.6258
 1861TIP3    H2 5590   1.368   5.220   1.317  0.1337 -0.4485 -0.6349
 1862TIP3   OH2 5591   2.534   2.576   1.915  0.5381 -0.0516  0.2173
 1862TIP3    H1 5592   2.622   2.586   1.950  0.7020 -0.1550 -0.1579
 1862TIP3    H2 5593   2.516   2.660   1.872 -0.1377  0.5332  1.5726
 1863TIP3   OH2 5594   1.438   1.860   1.961  0.0379  0.3684  0.2372
 1863TIP3    H1 5595   1.346   1.850   1.937  0.7141 -2.9542 -1.6714
 1863TIP3    H2 5596   1.446   1.813   2.044  0.5503 -2.9077 -1.5008
 1864TIP3   OH2 5597   4.392   6.000   4.729  0.6955  0.1497  0.1285
 1864TIP3    H1 5598   4.360   5.911   4.741  1.1420  0.2287  2.2293
 1864TIP3    H2 5599   4.360   6.025   4.642 -0.0599 -1.7733 -0.2060
 1865TIP3   OH2 5600   0.937   0.653   0.709  0.3067  0.2729  0.6284
 1865TIP3    H1 5601   0.881   0.711   0.761  0.6349  0.4886  0.7418
 1865TIP3    H2 5602   0.961   0.705   0.632  0.2992  0.1575  0.5473
 1866TIP3   OH2 5603   1.982   5.680   4.232  0.1923  0.8565  0.3588
 1866TIP3    H1 5604   1.977   5.630   4.313 -2.4370 -0.0772 -0.2791
 1866TIP3    H2 5605   1.902   5.733   4.231 -0.1542  0.4082 -1.8367
 1867TIP3   OH2 5606   5.609   4.545   0.439 -0.6347  0.5047  0.5611
 1867TIP3    H1 5607   5.624   4.627   0.487 -3.1755  1.7653 -0.6371
 1867TIP3    H2 5608   5.651   4.559   0.354 -0.6587  0.3668  0.5263
 1868TIP3   OH2 5609   6.100   5.101   2.390  0.6881 -0.6533  0.6480
 1868TIP3    H1 5610   6.131   5.192   2.388 -0.4246 -0.2555 -1.0871
 1868TIP3    H2 5611   6.016   5.104   2.343  0.8476 -2.6526  0.1546
 1869TIP3   OH2 5612   5.567   2.604   4.579  0.0369  0.1858  0.1872
 1869TIP3    H1 5613   5.574   2.530   4.519 -1.7253 -0.1785  0.3754
 1869TIP3    H2 5614   5.521   2.672   4.529 -0.1640  0.4028  0.6538
 1870TIP3   OH2 5615   4.111   4.658   3.050 -0.4319 -0.2326 -0.5304
 1870TIP3    H1 5616   4.198   4.647   3.011 -0.3151  0.4783 -0.4775
 1870TIP3    H2 5617   4.060   4.702   2.983 -0.7372 -0.6046 -0.5417
 1871TIP3   OH2 5618   3.948   4.060   1.480  0.2324 -0.5735  0.4070
 1871TIP3    H1 5619   3.897   3.987   1.514 -1.3279 -0.5739 -1.7362
 1871TIP3    H2 5620   3.885   4.133   1.476  1.5474  0.7111  1.7334
 1872TIP3   OH2 5621   2.047   2.941   1.264 -0.1791  0.2065 -0.2598
 1872TIP3    H1 5622   1.996   2.889   1.203 -1.4079  0.4924  0.4845
 1872TIP3    H2 5623   2.069   2.880   1.335 -1.5024  0.6281  0.5461
 1873TIP3   OH2 5624   2.327   1.004   1.146 -0.0181  0.0425  0.3140
 1873TIP3    H1 5625   2.400   1.042   1.097  0.0998 -0.7400 -0.1528
 1873TIP3    H2 5626   2.304   1.069   1.211  0.6109  0.6129 -0.0251
 1874TIP3   OH2 5627   3.896   2.593   2.710  0.1290 -0.0792  0.4450
 1874TIP3    H1 5628   3.820   2.650   2.700 -0.8508 -1.5400 -0.8474
 1874TIP3    H2 5629   3.898   2.571   2.803 -0.9761  0.0571  0.5046
 1875TIP3   OH2 5630   0.052   2.621   2.381  0.1654 -0.0960  0.5942
 1875TIP3    H1 5631   0.026   2.547   2.326 -1.2891 -0.5379  1.8109
 1875TIP3    H2 5632   0.040   2.590   2.471 -1.5900  1.9364  1.1551
 1876TIP3   OH2 5633   1.581   0.902   0.724  0.5376 -0.3380  0.4007
 1876TIP3    H1 5634   1.546   0.923   0.810 -0.7167 -1.3454  0.1711
 1876TIP3    H2 5635   1.540   0.819   0.701  1.6047 -0.5732 -0.7568
 1877TIP3   OH2 5636   4.239   2.608   3.328  0.3771  0.2916 -0.3690
 1877TIP3    H1 5637   4.285   2.613   3.411  0.2855 -1.1948 -0.2018
 1877TIP3    H2 5638   4.150   2.579   3.352 -0.0486  1.1544 -0.8661
 1878TIP3   OH2 5639   1.298   5.970   3.335 -0.7669  0.4359  0.0445
 1878TIP3    H1 5640   1.270   5.953   3.245 -0.3594  0.4938 -0.0959
 1878TIP3    H2 5641   1.227   6.021   3.374 -0.5238  1.2389 -0.5379
 1879TIP3   OH2 5642   6.228   2.349   3.160  0.0718  0.0604 -0.3659
 1879TIP3    H1 5643   6.138   2.325   3.139 -0.0971  1.6955 -1.7392
 1879TIP3    H2 5644   6.259   2.279   3.217 -2.2377 -0.2858  0.5830
 1880TIP3   OH2 5645   4.112   1.441   3.609 -0.0564 -0.1701  0.2072
 1880TIP3    H1 5646   4.153   1.373   3.555  0.8415 -0.4312  1.1709
 1880TIP3    H2 5647   4.021   1.413   3.617 -0.0499 -0.4646 -0.6214
 1881TIP3   OH2 5648   4.619   4.118   3.833  0.0946 -0.1934  0.9118
 1881TIP3    H1 5649   4.564   4.196   3.826  0.0197 -0.3672 -1.0032
 1881TIP3    H2 5650   4.705   4.152   3.859 -0.3948  0.2971  1.9244
 1882TIP3   OH2 5651   3.399   3.858   0.129 -0.0563  0.3338  0.1783
 1882TIP3    H1 5652   3.479   3.806   0.138  1.7344  2.5013 -1.8551
 1882TIP3    H2 5653   3.428   3.949   0.143 -2.5286  1.0622  1.0183
 1883TIP3   OH2 5654   2.663   1.264   3.659  0.5454  0.1943 -0.1302
 1883TIP3    H1 5655   2.624   1.190   3.705  2.2125 -1.1589 -0.7828
 1883TIP3    H2 5656   2.598   1.288   3.593  0.6469 -1.8524 -1.0557
 1884TIP3   OH2 5657   5.794   3.736   4.102 -0.4405  1.1470 -0.3676
 1884TIP3    H1 5658   5.715   3.695   4.068 -1.9496  1.2581  2.5941
 1884TIP3    H2 5659   5.842   3.665   4.145  1.7314  0.8722 -3.0088
 1885TIP3   OH2 5660   3.147   1.176   5.159  0.4996  0.0957 -0.3444
 1885TIP3    H1 5661   3.184   1.175   5.071  0.6063  2.2163 -0.3714
 1885TIP3    H2 5662   3.066   1.126   5.151  1.4637 -1.4067 -1.1579
 1886TIP3   OH2 5663   5.255   1.788   3.753  0.0371  0.2148  0.3945
 1886TIP3    H1 5664   5.215   1.799   3.839 -1.7297 -0.5042 -0.2869
 1886TIP3    H2 5665   5.337   1.742   3.770  0.3589  1.2816  1.8005
 1887TIP3   OH2 5666   2.251   4.679   2.916 -0.0312  0.1366  0.4805
 1887TIP3    H1 5667   2.290   4.618   2.979 -2.2077 -2.2208 -0.2481
 1887TIP3    H2 5668   2.273   4.642   2.831 -1.9317 -0.0819  0.0290
 1888TIP3   OH2 5669   6.201   4.773   1.910 -0.4909 -0.3635 -0.4434
 1888TIP3    H1 5670   6.259   4.744   1.839  0.9175  1.5282 -0.1521
 1888TIP3    H2 5671   6.125   4.810   1.866  0.1580  0.3562 -0.9842
 1889TIP3   OH2 5672   1.142   3.438   0.281  0.3025 -0.0889 -0.4421
 1889TIP3    H1 5673   1.061   3.414   0.235  0.2603 -0.7674 -0.0223
 1889TIP3    H2 5674   1.120   3.431   0.374  0.9831 -0.7852 -0.3262
 1890TIP3   OH2 5675   3.641   5.682   4.515  0.4311 -0.2117  0.3075
 1890TIP3    H1 5676   3.555   5.653   4.483  0.4530  0.2744 -0.1928
 1890TIP3    H2 5677   3.634   5.673   4.610 -0.2064 -0.0954  0.2783
 1891TIP3   OH2 5678   3.450   5.125   4.199  0.0698  0.3509  0.0129
 1891TIP3    H1 5679   3.445   5.135   4.104  1.7229  2.6887  0.0879
 1891TIP3    H2 5680   3.390   5.054   4.219 -0.3721 -0.1557 -2.7682
 1892TIP3   OH2 5681   3.236   5.146   4.651 -0.0631 -0.3129  0.0024
 1892TIP3    H1 5682   3.247   5.053   4.671 -0.1467 -0.3477 -0.1176
 1892TIP3    H2 5683   3.181   5.148   4.573  0.1526 -0.1701 -0.1474
 1893TIP3   OH2 5684   3.762   1.257   1.257 -0.3562  0.0691 -0.2188
 1893TIP3    H1 5685   3.676   1.298   1.251 -0.8306 -0.8213  0.2774
 1893TIP3    H2 5686   3.756   1.180   1.200  0.0660 -0.0673 -0.0836
 1894TIP3   OH2 5687   3.320   0.744   1.310  0.2354  0.0103 -0.1566
 1894TIP3    H1 5688   3.225   0.731   1.313 -0.0145  0.9054 -2.1983
 1894TIP3    H2 5689   3.349   0.689   1.238  1.3121 -0.3372  0.5210
 1895TIP3   OH2 5690   0.781   1.328   3.650 -0.4542  0.5246  0.0284
 1895TIP3    H1 5691   0.740   1.305   3.733  0.2627 -0.5041  0.1103
 1895TIP3    H2 5692   0.783   1.245   3.601  1.7731  0.4609  0.1397
 1896TIP3   OH2 5693   0.736   0.611   1.611  0.5382  0.2819 -0.3207
 1896TIP3    H1 5694   0.738   0.694   1.562 -0.1201  0.6803  0.3012
 1896TIP3    H2 5695   0.822   0.606   1.652  1.1568 -0.1266 -1.5953
 1897TIP3   OH2 5696   6.067   2.997   0.127 -0.1546 -0.0617 -0.2232
 1897TIP3    H1 5697   6.074   3.041   0.212 -3.0104 -1.8446  1.1009
 1897TIP3    H2 5698   5.996   3.043   0.082  0.0648 -0.3296 -0.8558
 1898TIP3   OH2 5699   3.232   1.793   5.010 -0.2260 -0.3363 -0.4216
 1898TIP3    H1 5700   3.222   1.698   5.017 -0.3966 -0.3055 -0.2213
 1898TIP3    H2 5701   3.301   1.806   4.945  1.2220 -0.6592  0.9912
 1899TIP3   OH2 5702   2.121   1.878   3.367 -0.4207  0.4264  0.0617
 1899TIP3    H1 5703   2.035   1.918   3.363 -1.0789 -0.9677 -0.1663
 1899TIP3    H2 5704   2.181   1.947   3.339 -1.5955  0.9994 -1.1308
 1900TIP3   OH2 5705   1.477   3.891   3.286  0.2709  0.5862  0.4016
 1900TIP3    H1 5706   1.491   3.797   3.299 -0.9617  0.2512 -0.4914
 1900TIP3    H2 5707   1.528   3.933   3.355  0.7611 -0.7423  0.8762
 1901TIP3   OH2 5708   3.923   0.093   3.794 -0.1297  0.3468  0.1505
 1901TIP3    H1 5709   3.837   0.097   3.752  0.5557 -1.5899 -1.6430
 1901TIP3    H2 5710   3.906   0.056   3.880 -1.1533  0.5543  0.0485
 1902TIP3   OH2 5711   1.906   3.916   3.276  0.3582 -0.0807  0.2311
 1902TIP3    H1 5712   1.825   3.937   3.229 -0.1091  1.2442  1.5387
 1902TIP3    H2 5713   1.953   4.000   3.280  1.0224 -0.4777  0.9316
 1903TIP3   OH2 5714   1.694   3.654   0.749 -0.5648  0.1773  0.1569
 1903TIP3    H1 5715   1.784   3.667   0.719 -1.0915 -1.4456 -2.4834
 1903TIP3    H2 5716   1.698   3.666   0.844  2.2828  0.8324  0.0404
 1904TIP3   OH2 5717   4.112   4.341   3.318  0.2182 -0.3467 -0.1195
 1904TIP3    H1 5718   4.110   4.329   3.223 -0.7830 -0.8712 -0.0445
 1904TIP3    H2 5719   4.203   4.324   3.343  0.5942  0.2796 -1.0412
 1905TIP3   OH2 5720   0.090   5.329   3.510 -0.0065  0.1041 -0.3320
 1905TIP3    H1 5721   0.024   5.361   3.571  0.4837 -0.8408  0.7261
 1905TIP3    H2 5722   0.172   5.369   3.540  0.2396 -0.3777 -0.3535
 1906TIP3   OH2 5723   1.220   1.646   3.311  0.3146 -0.2778  0.3269
 1906TIP3    H1 5724   1.303   1.689   3.290 -0.2690  0.7954  0.1229
 1906TIP3    H2 5725   1.167   1.715   3.352  0.3658 -1.5545  2.7127
 1907TIP3   OH2 5726   2.411   0.934   2.625 -0.5371 -0.0608  0.0002
 1907TIP3    H1 5727   2.493   0.956   2.581  0.0121  0.6224  1.3107
 1907TIP3    H2 5728   2.367   0.873   2.565  0.9975 -0.5701 -0.6530
 1908TIP3   OH2 5729  -0.011   2.845   2.235 -0.4456  0.2557 -0.3750
 1908TIP3    H1 5730   0.012   2.780   2.302  0.7591  1.1372  0.0991
 1908TIP3    H2 5731   0.032   2.926   2.264 -1.6711  1.1988 -1.1078
 1909TIP3   OH2 5732   4.496   2.966   0.183 -0.7322  0.2666  0.4424
 1909TIP3    H1 5733   4.414   2.981   0.137  0.1537 -0.9116 -1.6769
 1909TIP3    H2 5734   4.561   3.015   0.132  0.0737  0.2121  1.3876
 1910TIP3   OH2 5735   1.543   5.018   0.823 -0.0965  0.5269  0.2383
 1910TIP3    H1 5736   1.625   5.067   0.819 -0.5585  1.3316  0.4037
 1910TIP3    H2 5737   1.554   4.958   0.897  1.2324 -1.0585 -1.1694
 1911TIP3   OH2 5738   5.422   5.451   1.905  0.1780 -0.0267 -0.0435
 1911TIP3    H1 5739   5.416   5.527   1.847 -0.7231  0.5837  0.8146
 1911TIP3    H2 5740   5.511   5.453   1.939  0.1012  0.7756  0.1248
 1912TIP3   OH2 5741   0.514   1.981   3.347 -0.2710 -0.5729 -0.2204
 1912TIP3    H1 5742   0.446   2.006   3.411 -0.9023 -0.9930 -0.7164
 1912TIP3    H2 5743   0.469   1.923   3.286  0.2945 -0.0675 -1.1362
 1913TIP3   OH2 5744   3.422   3.048   4.567  0.0096 -0.4820  0.4198
 1913TIP3    H1 5745   3.434   3.067   4.474  1.3114  2.3248  1.0471
 1913TIP3    H2 5746   3.368   2.970   4.569 -0.0130 -0.6616 -2.6870
 1914TIP3   OH2 5747   4.028   5.812   2.002 -0.1553  0.0259 -0.1191
 1914TIP3    H1 5748   3.989   5.888   2.044  2.0427  0.4142  1.3932
 1914TIP3    H2 5749   4.123   5.829   2.004  0.2670 -1.7312 -1.7919
 1915TIP3   OH2 5750   3.682   3.988   4.589 -0.4840 -0.0278 -0.4969
 1915TIP3    H1 5751   3.721   3.918   4.536  0.0429 -0.6115  0.6179
 1915TIP3    H2 5752   3.724   4.068   4.558 -0.3572 -0.3235 -1.1056
 1916TIP3   OH2 5753   3.632   2.414   0.372  0.0798  0.1246 -0.6131
 1916TIP3    H1 5754   3.616   2.508   0.380 -0.5218 -0.1285  2.2333
 1916TIP3    H2 5755   3.707   2.397   0.429 -0.2619 -1.2099 -0.5121
 1917TIP3   OH2 5756   0.227   0.930   1.773 -0.3474 -0.3658 -0.4819
 1917TIP3    H1 5757   0.259   0.979   1.850  0.9873 -0.6345 -0.8346
 1917TIP3    H2 5758   0.215   0.841   1.805  0.5076 -0.5477 -0.6418
 1918TIP3   OH2 5759   3.832   1.993   4.953 -0.1081 -0.6211 -0.7801
 1918TIP3    H1 5760   3.925   1.973   4.961  0.9568  3.6043 -0.2903
 1918TIP3    H2 5761   3.807   1.958   4.867  2.0920 -1.2042 -1.2432
 1919TIP3   OH2 5762   6.287   0.702   0.161 -0.1911  0.3358  0.2439
 1919TIP3    H1 5763   6.265   0.673   0.250  0.0749 -0.0746  0.1798
 1919TIP3    H2 5764   6.308   0.622   0.114 -0.2561  0.5590 -0.1735
 1920TIP3   OH2 5765   2.636   4.603   3.545 -0.9836  0.6256 -0.4009
 1920TIP3    H1 5766   2.700   4.591   3.475 -0.6195 -1.7645  0.2575
 1920TIP3    H2 5767   2.688   4.609   3.625 -1.5211 -0.8176  0.0851
 1921TIP3   OH2 5768   3.416   1.889   3.655 -0.1318 -0.3042  0.3688
 1921TIP3    H1 5769   3.497   1.839   3.643 -0.0126 -0.1972  0.7361
 1921TIP3    H2 5770   3.432   1.972   3.610 -0.3548 -0.6153 -0.3004
 1922TIP3   OH2 5771   2.400   0.711   2.470  0.0903 -0.5017 -0.0315
 1922TIP3    H1 5772   2.428   0.620   2.475 -0.9386 -0.8375 -0.1083
 1922TIP3    H2 5773   2.402   0.732   2.376 -1.2039 -0.9559 -0.1713
 1923TIP3   OH2 5774   4.618   1.678   4.044  0.3382 -0.3656 -0.2347
 1923TIP3    H1 5775   4.649   1.625   3.970  0.3614 -0.1901 -0.3519
 1923TIP3    H2 5776   4.627   1.621   4.120 -0.7856 -0.9642 -0.5277
 1924TIP3   OH2 5777   3.302   2.260   3.836 -0.0887 -0.0293 -0.9502
 1924TIP3    H1 5778   3.242   2.302   3.899  2.3233 -0.0647  1.5912
 1924TIP3    H2 5779   3.313   2.171   3.869  0.7260 -0.2736 -1.8410
 1925TIP3   OH2 5780   5.418   2.389   1.094  0.0252 -0.0400  0.2417
 1925TIP3    H1 5781   5.352   2.418   1.157  0.1420 -1.3580  0.9933
 1925TIP3    H2 5782   5.395   2.298   1.075 -0.6109  0.5719 -2.4116
 1926TIP3   OH2 5783   2.408   1.778   2.810 -0.5818  0.3949  0.1544
 1926TIP3    H1 5784   2.376   1.783   2.901  0.5533 -0.4827  0.6317
 1926TIP3    H2 5785   2.465   1.854   2.801 -1.3848  0.9805 -0.1317
 1927TIP3   OH2 5786   5.039   4.662   2.454  0.3344 -0.0046 -0.1229
 1927TIP3    H1 5787   5.125   4.636   2.419  1.6301  0.9596  2.1674
 1927TIP3    H2 5788   4.991   4.695   2.378  1.9515 -0.6146 -1.4658
 1928TIP3   OH2 5789   4.116   1.154   4.168  0.2715  0.0352  0.1052
 1928TIP3    H1 5790   4.159   1.070   4.151  1.2975  0.4060  0.7697
 1928TIP3    H2 5791   4.038   1.131   4.218  0.3853 -0.5494  0.0217
 1929TIP3   OH2 5792   2.252   0.239   4.525  0.1509 -0.3780  0.1319
 1929TIP3    H1 5793   2.340   0.269   4.547 -0.3578  1.2627  0.0330
 1929TIP3    H2 5794   2.218   0.201   4.607  0.0980  1.1483  0.8445
 1930TIP3   OH2 5795   4.855   1.452   1.045 -0.7990 -0.0683  0.9921
 1930TIP3    H1 5796   4.807   1.471   0.964  1.1738  0.0749 -0.2195
 1930TIP3    H2 5797   4.855   1.535   1.093 -0.0040  0.5347  0.0046
 1931TIP3   OH2 5798   2.671   0.527   0.452  0.0918  0.2888  0.2834
 1931TIP3    H1 5799   2.633   0.584   0.385 -1.1492 -1.7255 -0.8684
 1931TIP3    H2 5800   2.689   0.584   0.526 -3.1720  1.8071  0.0554
 1932TIP3   OH2 5801   3.556   1.391   4.892  0.3112  0.9725  0.0548
 1932TIP3    H1 5802   3.594   1.303   4.901  2.1586  1.6616 -0.5999
 1932TIP3    H2 5803   3.535   1.399   4.799  1.4722  1.7001 -0.1703
 1933TIP3   OH2 5804   6.365   3.942   1.827  0.0663 -0.5541  0.0054
 1933TIP3    H1 5805   6.287   3.894   1.800 -0.1223 -0.8366  1.0333
 1933TIP3    H2 5806   6.351   3.961   1.920 -0.1096  1.9476 -0.4487
 1934TIP3   OH2 5807   1.928   4.194   1.602  0.2615 -0.3444  0.3072
 1934TIP3    H1 5808   1.976   4.150   1.532 -0.9643 -1.8023  0.3338
 1934TIP3    H2 5809   1.973   4.167   1.682  0.5210 -0.2090  0.2071
 1935TIP3   OH2 5810   0.660   3.375   2.023 -0.2131  0.6651 -0.1035
 1935TIP3    H1 5811   0.715   3.453   2.028  1.4876 -0.5419  0.9549
 1935TIP3    H2 5812   0.666   3.347   1.932  0.4455  0.8819 -0.1298
 1936TIP3   OH2 5813   1.214   3.192   0.580  0.0979 -0.3728 -0.1517
 1936TIP3    H1 5814   1.264   3.110   0.583  1.1799  0.1976 -1.6573
 1936TIP3    H2 5815   1.140   3.172   0.522 -0.2140 -0.5636  0.3022
 1937TIP3   OH2 5816   0.186   5.883   0.651  0.1175  0.1893 -0.0484
 1937TIP3    H1 5817   0.208   5.791   0.638  0.0884  0.0394  0.8989
 1937TIP3    H2 5818   0.244   5.931   0.592 -0.7268 -0.4871 -1.5006
 1938TIP3   OH2 5819   5.707   1.111   2.097 -0.0716  0.3991 -0.6109
 1938TIP3    H1 5820   5.772   1.081   2.033 -1.8214  1.7294 -3.1632
 1938TIP3    H2 5821   5.758   1.161   2.161  1.7069 -0.7381 -1.0532
 1939TIP3   OH2 5822   0.846   2.251   0.778 -0.1173  0.3596 -0.4136
 1939TIP3    H1 5823   0.852   2.224   0.687 -1.3527  2.9023 -1.3367
 1939TIP3    H2 5824   0.814   2.174   0.825  2.3614 -1.5989 -1.7219
 1940TIP3   OH2 5825   1.607   3.096   3.542 -0.5925 -0.2632 -0.1075
 1940TIP3    H1 5826   1.522   3.059   3.569 -0.3803 -0.1583  0.7508
 1940TIP3    H2 5827   1.640   3.035   3.476 -2.0296  0.5219 -1.6012
 1941TIP3   OH2 5828   3.213   2.409   2.826 -0.3773 -0.6124 -0.2522
 1941TIP3    H1 5829   3.207   2.340   2.892 -0.6422 -0.7257 -0.3948
 1941TIP3    H2 5830   3.158   2.479   2.860 -0.1695 -0.5016 -0.1443
 1942TIP3   OH2 5831   6.224   5.213   0.756 -0.0257 -0.5642  0.8757
 1942TIP3    H1 5832   6.318   5.227   0.762 -0.0733  0.0173  0.3461
 1942TIP3    H2 5833   6.186   5.300   0.769 -0.4512 -0.6340  0.1470
 1943TIP3   OH2 5834   4.933   3.908   0.854  0.2326 -0.3011  0.0942
 1943TIP3    H1 5835   4.944   3.831   0.798  1.1377  0.4789 -0.8448
 1943TIP3    H2 5836   4.871   3.880   0.921  0.3838 -1.7820 -0.3421
 1944TIP3   OH2 5837   1.686   1.194   2.126  0.2833 -0.5262  0.3823
 1944TIP3    H1 5838   1.752   1.244   2.174  1.2645 -1.0980 -0.3580
 1944TIP3    H2 5839   1.603   1.229   2.158  0.9341  1.3730  0.1173
 1945TIP3   OH2 5840   5.969   4.480   1.034  0.5022  0.2944 -0.1080
 1945TIP3    H1 5841   5.926   4.397   1.016  0.3307  0.2413  0.5245
 1945TIP3    H2 5842   6.045   4.457   1.087  0.5715  0.5200 -0.1078
 1946TIP3   OH2 5843   2.094   5.902   4.079  0.2444  0.2619 -0.4360
 1946TIP3    H1 5844   2.089   5.809   4.102 -1.0189  0.5562  0.5910
 1946TIP3    H2 5845   2.075   5.948   4.161 -0.3115  1.4106 -1.1840
 1947TIP3   OH2 5846   5.561   3.035   2.132 -0.5278  0.4674  0.0191
 1947TIP3    H1 5847   5.522   3.050   2.046 -1.0386 -0.8285 -0.0047
 1947TIP3    H2 5848   5.493   2.991   2.182  0.5251 -0.9335  0.3126
 1948TIP3   OH2 5849   5.964   5.171   5.190  0.1439 -0.4063 -0.1629
 1948TIP3    H1 5850   5.937   5.080   5.197 -1.2461  0.0458  1.0137
 1948TIP3    H2 5851   5.939   5.197   5.102 -2.8417 -0.2164  0.6219
 1949TIP3   OH2 5852   5.585   0.204   3.636 -0.2415 -0.0865  0.2392
 1949TIP3    H1 5853   5.666   0.207   3.585  0.8050 -0.1228  1.8631
 1949TIP3    H2 5854   5.559   0.295   3.646  0.3375  0.0122  0.8633
 1950TIP3   OH2 5855   5.305   3.987   0.343 -0.0769 -0.0409 -0.2395
 1950TIP3    H1 5856   5.213   4.007   0.359 -0.0952  0.7450 -1.2147
 1950TIP3    H2 5857   5.309   3.965   0.250  1.0411  2.0570 -0.7389
 1951TIP3   OH2 5858   4.422   5.489   2.060  0.1734 -0.8392 -0.1145
 1951TIP3    H1 5859   4.356   5.546   2.100 -0.3826 -0.6296 -1.2856
 1951TIP3    H2 5860   4.424   5.412   2.117 -0.9182 -0.7382  0.0825
 1952TIP3   OH2 5861   5.054   3.266   1.980 -0.3838  0.1192 -0.0165
 1952TIP3    H1 5862   5.074   3.202   1.911 -1.3901 -0.5388  0.2837
 1952TIP3    H2 5863   5.019   3.342   1.933 -0.2239  0.0230 -0.2949
 1953TIP3   OH2 5864   3.852   4.573   0.292  0.1633  0.0700  0.2901
 1953TIP3    H1 5865   3.946   4.554   0.292  0.5684  1.7813  1.8141
 1953TIP3    H2 5866   3.832   4.596   0.202  1.3850  0.4178  0.0972
 1954TIP3   OH2 5867   5.944   4.764   0.349 -0.4075  0.5186  0.0882
 1954TIP3    H1 5868   5.889   4.701   0.302 -0.6113  0.1901  0.7622
 1954TIP3    H2 5869   6.001   4.800   0.281 -0.2963 -0.3791 -0.3095
 1955TIP3   OH2 5870   6.157   5.156   1.515 -0.2825 -0.4424  0.4122
 1955TIP3    H1 5871   6.131   5.067   1.490  0.4080 -0.3499 -0.7453
 1955TIP3    H2 5872   6.247   5.147   1.546 -0.0748 -0.1031 -0.0744
 1956TIP3   OH2 5873   6.131   5.554   3.131  0.5818  0.3887  0.1291
 1956TIP3    H1 5874   6.179   5.622   3.179  1.6271 -0.7649  0.7771
 1956TIP3    H2 5875   6.196   5.516   3.073 -0.2383  0.5563 -0.9153
 1957TIP3   OH2 5876   2.708   1.321   2.907 -0.0884 -0.2848  0.8908
 1957TIP3    H1 5877   2.663   1.272   2.838  1.8340 -1.2114  0.2308
 1957TIP3    H2 5878   2.681   1.277   2.988 -2.2106  0.6903  0.7756
 1958TIP3   OH2 5879   3.408   1.015   4.031  0.1471 -0.7287 -0.0004
 1958TIP3    H1 5880   3.318   0.996   4.005  0.3760 -0.4193 -1.0437
 1958TIP3    H2 5881   3.434   0.939   4.083 -0.5538 -1.0479 -0.1019
 1959TIP3   OH2 5882   5.744   5.865   4.555  0.1100 -0.4944  0.1463
 1959TIP3    H1 5883   5.803   5.789   4.553  0.4017 -0.2494 -1.4941
 1959TIP3    H2 5884   5.794   5.932   4.601  1.0935 -0.3278 -1.1249
 1960TIP3   OH2 5885   3.666   2.845   4.791  0.0977 -0.0713 -0.3238
 1960TIP3    H1 5886   3.732   2.849   4.722 -0.1678  1.5327 -0.5064
 1960TIP3    H2 5887   3.609   2.772   4.766  0.3264  0.1372 -1.5034
 1961TIP3   OH2 5888   2.080   5.952   1.907 -0.7086 -0.3448 -0.2137
 1961TIP3    H1 5889   2.162   5.917   1.943  0.5132  1.4272 -1.1511
 1961TIP3    H2 5890   2.024   5.875   1.897  0.7303 -1.5697  0.7169
 1962TIP3   OH2 5891   0.177   4.127   1.203  0.3828  0.4962 -0.0018
 1962TIP3    H1 5892   0.210   4.212   1.232  0.7218  1.5691 -3.2273
 1962TIP3    H2 5893   0.250   4.087   1.157 -0.1561 -1.0734  0.4266
 1963TIP3   OH2 5894   5.725   1.712   1.061 -0.0944 -0.2464  0.4011
 1963TIP3    H1 5895   5.631   1.697   1.070 -0.2988 -0.0788 -1.1452
 1963TIP3    H2 5896   5.733   1.772   0.987  1.1033  1.7687  2.0291
 1964TIP3   OH2 5897   3.310   1.873   1.250  0.1432 -0.0583 -0.5300
 1964TIP3    H1 5898   3.386   1.929   1.234  0.9869 -1.4564 -1.6710
 1964TIP3    H2 5899   3.324   1.839   1.338  2.4450 -2.5310 -1.6927
 1965TIP3   OH2 5900   1.942   0.292   2.915 -0.0306 -0.0486  0.4868
 1965TIP3    H1 5901   1.876   0.362   2.918 -0.3191 -0.2206 -0.9214
 1965TIP3    H2 5902   2.026   0.339   2.918 -0.2227  0.2957  0.5625
 1966TIP3   OH2 5903   6.091   3.596   3.943 -0.6962 -0.1110  0.2308
 1966TIP3    H1 5904   6.142   3.546   4.006  1.8000 -1.6936 -2.7518
 1966TIP3    H2 5905   6.033   3.531   3.902  1.0990 -0.3049 -2.2404
 1967TIP3   OH2 5906   1.241   1.214   5.059  0.0084 -0.0016  0.0894
 1967TIP3    H1 5907   1.159   1.263   5.057  0.7220  1.2169 -1.2648
 1967TIP3    H2 5908   1.249   1.183   5.149 -2.4021 -1.0139  0.0334
 1968TIP3   OH2 5909   5.246   0.889   3.746  0.2066  0.1395 -0.2630
 1968TIP3    H1 5910   5.206   0.912   3.662 -0.5163  2.9655  0.7217
 1968TIP3    H2 5911   5.330   0.849   3.724  0.3629  1.5045 -2.3425
 1969TIP3   OH2 5912   4.604   2.827   3.849  0.0910 -0.2788  0.0375
 1969TIP3    H1 5913   4.588   2.911   3.891 -0.8780 -0.9114  0.9847
 1969TIP3    H2 5914   4.699   2.817   3.851  0.1418  0.2479  1.0162
 1970TIP3   OH2 5915   6.034   2.701   0.140  0.1015 -0.8281 -0.1583
 1970TIP3    H1 5916   5.949   2.703   0.184 -0.0208 -0.0863 -0.4174
 1970TIP3    H2 5917   6.077   2.783   0.167  0.3568 -0.7621 -0.7538
 1971TIP3   OH2 5918   5.456   4.212   4.062 -0.7530  0.3774  0.4078
 1971TIP3    H1 5919   5.535   4.163   4.084 -0.6828  0.5429  0.5305
 1971TIP3    H2 5920   5.489   4.295   4.027 -0.8533 -0.0075 -0.6543
 1972TIP3   OH2 5921   1.856   3.003   1.645  0.4955  0.3992  0.2542
 1972TIP3    H1 5922   1.823   2.963   1.726 -0.1175 -2.2060 -1.1793
 1972TIP3    H2 5923   1.788   2.987   1.580  1.0653  2.2581 -0.8641
 1973TIP3   OH2 5924   1.403   1.093   1.483 -0.6045  0.3900 -0.1763
 1973TIP3    H1 5925   1.487   1.124   1.516  0.3505 -1.5158 -0.6765
 1973TIP3    H2 5926   1.350   1.081   1.562 -0.9228  2.8488  0.0555
 1974TIP3   OH2 5927   4.083   1.338   3.971 -0.4485  0.1639 -0.2947
 1974TIP3    H1 5928   4.083   1.252   4.013 -0.1027 -0.4596 -1.5142
 1974TIP3    H2 5929   4.015   1.387   4.017 -0.3241 -0.6010  0.7348
 1975TIP3   OH2 5930   1.221   3.648   0.126 -0.0501  0.1433 -0.3348
 1975TIP3    H1 5931   1.209   3.554   0.140  3.1629 -0.1848  1.1101
 1975TIP3    H2 5932   1.170   3.667   0.047  0.6997 -3.2336 -1.8345
 1976TIP3   OH2 5933   4.239   3.857   2.044 -0.4933  0.2701  0.4875
 1976TIP3    H1 5934   4.152   3.848   2.084 -0.9397  1.5052 -0.1589
 1976TIP3    H2 5935   4.229   3.823   1.955  0.0958 -0.9997  0.8833
 1977TIP3   OH2 5936   3.305   0.972   1.017  0.4329  0.0869  0.0440
 1977TIP3    H1 5937   3.381   0.945   1.070 -1.0539  0.6875  2.6701
 1977TIP3    H2 5938   3.266   0.890   0.987  0.1985 -0.4092  1.6188
 1978TIP3   OH2 5939   3.294   0.706   1.804  0.2590  0.0607  0.1579
 1978TIP3    H1 5940   3.385   0.675   1.801  1.3318  2.8781  1.0478
 1978TIP3    H2 5941   3.250   0.657   1.733  2.5251 -1.0838 -0.5639
 1979TIP3   OH2 5942   1.215   4.398   5.072  0.2532 -0.4888  0.3147
 1979TIP3    H1 5943   1.279   4.328   5.080 -0.2618 -0.8561  1.4462
 1979TIP3    H2 5944   1.135   4.354   5.042  0.0479 -0.3082  0.6014
 1980TIP3   OH2 5945   0.511   5.936   4.523 -0.4311 -0.3794  0.7499
 1980TIP3    H1 5946   0.522   5.930   4.618 -0.4368 -2.2888  0.6795
 1980TIP3    H2 5947   0.586   5.888   4.487 -0.2339  0.6280 -0.2401
 1981TIP3   OH2 5948   6.179   2.766   0.655 -0.3025  0.1708  0.3430
 1981TIP3    H1 5949   6.099   2.783   0.705  0.0181 -0.3669  1.0463
 1981TIP3    H2 5950   6.248   2.757   0.721  0.3349  0.5596 -0.2522
 1982TIP3   OH2 5951   3.671   3.624   1.581  0.5054 -0.1853  0.2115
 1982TIP3    H1 5952   3.622   3.681   1.641  0.2764 -0.3507  0.1797
 1982TIP3    H2 5953   3.607   3.597   1.516  0.5232 -0.7856  0.4398
 1983TIP3   OH2 5954   2.265   2.905   0.896  0.1273  0.4239 -0.0545
 1983TIP3    H1 5955   2.290   2.948   0.978 -2.7559  0.0903  1.1056
 1983TIP3    H2 5956   2.348   2.871   0.861  1.4890  0.7745  2.5812
 1984TIP3   OH2 5957   1.133   0.958   0.958 -0.2891  0.4980  0.0214
 1984TIP3    H1 5958   1.107   0.987   1.046  0.8745  0.0751  0.5247
 1984TIP3    H2 5959   1.059   0.905   0.927 -0.2307 -0.3378  1.2385
 1985TIP3   OH2 5960   1.059   1.623   2.760  0.3355 -0.6866  0.0807
 1985TIP3    H1 5961   1.076   1.569   2.837 -0.7853 -0.1111  0.7531
 1985TIP3    H2 5962   1.143   1.665   2.741  0.5275 -0.5351  1.2356
 1986TIP3   OH2 5963   1.186   4.989   4.563 -0.2220 -0.3781 -0.8156
 1986TIP3    H1 5964   1.202   5.050   4.635  1.6983  2.7169 -3.6131
 1986TIP3    H2 5965   1.268   4.940   4.554 -0.5502 -0.9464 -0.7802
 1987TIP3   OH2 5966   5.183   1.717   2.433 -0.1951 -0.2391 -0.4368
 1987TIP3    H1 5967   5.202   1.625   2.414  1.8654 -0.1713  0.9657
 1987TIP3    H2 5968   5.229   1.765   2.365 -0.3667 -0.2264 -0.5429
 1988TIP3   OH2 5969   0.742   3.735   0.964 -0.6419  0.1731 -0.5510
 1988TIP3    H1 5970   0.778   3.670   1.024 -0.7060  0.8412  0.2466
 1988TIP3    H2 5971   0.786   3.720   0.881 -2.3613 -2.4304 -1.0993
 1989TIP3   OH2 5972   4.600   4.449   4.184 -0.2534 -0.4413  0.3627
 1989TIP3    H1 5973   4.689   4.480   4.165 -0.4067  0.0584  0.4671
 1989TIP3    H2 5974   4.571   4.409   4.102  0.0304 -0.5229  0.2993
 1990TIP3   OH2 5975   2.102   0.315   1.326 -0.1360  0.3561  0.6873
 1990TIP3    H1 5976   2.102   0.378   1.398  1.0509  0.5492  0.5361
 1990TIP3    H2 5977   2.062   0.362   1.253 -0.6273  0.4249  0.9974
 1991TIP3   OH2 5978   5.055   2.426   2.126  0.2236 -0.0034  0.2319
 1991TIP3    H1 5979   5.138   2.404   2.167  0.4078  0.6087  0.1967
 1991TIP3    H2 5980   5.022   2.343   2.092  0.5635 -0.3393  0.7079
 1992TIP3   OH2 5981   3.293   4.660   1.631 -0.2192 -0.1141  0.3712
 1992TIP3    H1 5982   3.269   4.567   1.638  1.7675 -0.7038  0.1806
 1992TIP3    H2 5983   3.368   4.660   1.572 -0.3341  1.6660  0.1902
 1993TIP3   OH2 5984   0.175   1.599   1.904 -0.4527  0.3622 -0.4226
 1993TIP3    H1 5985   0.102   1.660   1.894  0.9759  2.0993 -0.8384
 1993TIP3    H2 5986   0.140   1.528   1.957 -1.7901  2.3292  1.5173
 1994TIP3   OH2 5987   3.163   4.829   3.167 -0.6984  0.2373 -0.1247
 1994TIP3    H1 5988   3.123   4.834   3.254 -0.8297 -0.8305 -0.1095
 1994TIP3    H2 5989   3.190   4.738   3.159 -0.9970  0.2417 -1.3415
 1995TIP3   OH2 5990   3.405   5.921   0.289 -0.0873 -0.2500 -0.3765
 1995TIP3    H1 5991   3.347   5.913   0.365  0.2759  0.2028 -0.0459
 1995TIP3    H2 5992   3.388   6.010   0.256  0.4394 -0.1005 -0.2544
 1996TIP3   OH2 5993   1.942   2.666   2.046 -0.1241 -0.5834  0.4386
 1996TIP3    H1 5994   1.959   2.578   2.080  1.3002 -1.1497 -1.5047
 1996TIP3    H2 5995   1.945   2.655   1.950  1.3896  1.7633  0.1333
 1997TIP3   OH2 5996   5.105   2.146   2.093 -0.3695  0.7540  0.1823
 1997TIP3    H1 5997   5.161   2.107   2.027  0.6918 -3.7595  3.2902
 1997TIP3    H2 5998   5.019   2.106   2.078  0.2084 -1.4190  2.1387
 1998TIP3   OH2 5999   1.690   1.963   0.099 -0.0845 -0.6106 -0.2797
 1998TIP3    H1 6000   1.785   1.947   0.104  0.1119  0.5952  0.2633
 1998TIP3    H2 6001   1.665   1.983   0.189 -0.7890 -0.5416 -0.4886
 1999TIP3   OH2 6002   5.144   0.512   3.296  0.1347 -0.0561 -0.0034
 1999TIP3    H1 6003   5.085   0.440   3.319  1.0634 -1.6946 -2.4207
 1999TIP3    H2 6004   5.105   0.552   3.219  0.2841  1.2734  0.5825
 2000TIP3   OH2 6005   5.037   0.994   1.057  0.2810 -0.4893 -0.4933
 2000TIP3    H1 6006   5.122   1.006   1.099 -0.2279 -1.1612  0.8060
 2000TIP3    H2 6007   5.030   1.066   0.995  1.1777  0.4274  0.4262
 2001TIP3   OH2 6008   0.811   3.531   1.147  0.3166 -0.1352  0.0318
 2001TIP3    H1 6009   0.846   3.442   1.144  0.2232 -0.1978  0.7481
 2001TIP3    H2 6010   0.801   3.550   1.240  0.6663  0.7541 -0.1001
 2002TIP3   OH2 6011   3.029   0.814   3.538 -0.0579  0.1237  0.2435
 2002TIP3    H1 6012   3.018   0.773   3.623 -2.4888  0.2019  0.0252
 2002TIP3    H2 6013   3.033   0.908   3.556 -2.0411  0.2548  0.2288
 2003TIP3   OH2 6014   2.217   0.651   1.977 -0.2781  0.2010 -0.1191
 2003TIP3    H1 6015   2.164   0.603   2.041 -0.8356 -1.1062 -1.5132
 2003TIP3    H2 6016   2.265   0.716   2.030 -1.7996  0.1413  1.4178
 2004TIP3   OH2 6017   2.106   5.444   2.876  0.2657  0.4691 -0.5758
 2004TIP3    H1 6018   2.163   5.380   2.918 -0.8378 -2.5493 -3.2828
 2004TIP3    H2 6019   2.056   5.483   2.948  2.6436  0.0674  1.4082
 2005TIP3   OH2 6020   4.294   5.212   1.075 -0.3973 -0.0841  0.1565
 2005TIP3    H1 6021   4.204   5.234   1.052  0.1866  1.0752 -1.1333
 2005TIP3    H2 6022   4.301   5.232   1.169 -1.9497 -1.9523  0.7439
 2006TIP3   OH2 6023   1.326   0.194   0.718  0.1207  0.0238  0.0935
 2006TIP3    H1 6024   1.341   0.226   0.630  2.6325  1.6626  1.0103
 2006TIP3    H2 6025   1.269   0.259   0.758  0.6566  0.4051  0.2579
 2007TIP3   OH2 6026   4.331   5.676   3.660  0.0148  0.1001  0.0791
 2007TIP3    H1 6027   4.271   5.696   3.588  0.3392 -2.3835 -0.9737
 2007TIP3    H2 6028   4.285   5.608   3.710  1.0082 -0.2114  0.5809
 2008TIP3   OH2 6029   3.917   2.303   3.985 -0.5072 -0.4781  0.1594
 2008TIP3    H1 6030   3.823   2.300   3.966 -0.5280 -0.6398  0.2864
 2008TIP3    H2 6031   3.925   2.263   4.071 -0.7620  2.7263  1.8409
 2009TIP3   OH2 6032   5.137   1.357   5.048  0.4551  0.2807  0.4834
 2009TIP3    H1 6033   5.120   1.411   5.125  0.5829 -0.9469  1.4057
 2009TIP3    H2 6034   5.117   1.414   4.974 -0.4102  1.2564  1.4308
 2010TIP3   OH2 6035   6.065   5.405   1.817 -0.1369  0.4866  0.1870
 2010TIP3    H1 6036   6.134   5.338   1.817  0.4044  1.0281  0.6588
 2010TIP3    H2 6037   6.004   5.377   1.749 -0.0676 -0.6329  0.5606
 2011TIP3   OH2 6038   1.240   4.269   0.841 -0.7499  0.5895 -0.0311
 2011TIP3    H1 6039   1.212   4.185   0.879 -0.9096  0.9181  0.5798
 2011TIP3    H2 6040   1.231   4.332   0.912  1.3221  0.7736  0.1230
 2012TIP3   OH2 6041   0.476   2.057   0.644  0.3490 -0.1360 -0.2130
 2012TIP3    H1 6042   0.386   2.027   0.659  0.2133 -0.4582 -1.5146
 2012TIP3    H2 6043   0.492   2.122   0.712  0.6786 -3.1244  2.8706
 2013TIP3   OH2 6044   3.740   5.758   3.872 -0.2221  0.0013 -0.0176
 2013TIP3    H1 6045   3.670   5.753   3.937 -0.0668 -1.2574  0.0782
 2013TIP3    H2 6046   3.735   5.674   3.825  0.4041  0.4214 -0.8573
 2014TIP3   OH2 6047   2.127   3.343   2.948  0.0506 -0.1545 -0.0751
 2014TIP3    H1 6048   2.044   3.301   2.971  0.5692 -0.7656  0.7539
 2014TIP3    H2 6049   2.179   3.338   3.029  0.8872  0.2373 -0.5778
 2015TIP3   OH2 6050   2.919   4.999   2.416 -0.5508  0.5059  0.2499
 2015TIP3    H1 6051   2.849   5.065   2.420 -0.1477  1.0570 -1.2475
 2015TIP3    H2 6052   2.954   4.997   2.505 -2.1054  0.5973  0.9015
 2016TIP3   OH2 6053   3.648   0.163   1.642 -0.5901  0.0137 -0.4650
 2016TIP3    H1 6054   3.578   0.111   1.682 -0.7363 -2.3584 -3.4249
 2016TIP3    H2 6055   3.714   0.171   1.711 -1.5642 -2.2466  0.8548
 2017TIP3   OH2 6056   5.725   1.905   0.098  0.0351  0.6363  0.5566
 2017TIP3    H1 6057   5.676   1.838   0.050 -1.1575 -0.9225  3.6558
 2017TIP3    H2 6058   5.665   1.980   0.103  0.2889  0.9229 -0.5890
 2018TIP3   OH2 6059   2.012   1.317   3.822 -0.8204 -0.6410 -0.5809
 2018TIP3    H1 6060   1.965   1.397   3.798 -1.5774 -0.4154  1.4334
 2018TIP3    H2 6061   2.095   1.322   3.774 -0.3387  1.9720  0.3795
 2019TIP3   OH2 6062   3.762   3.079   0.363 -0.9584 -0.2032 -0.8374
 2019TIP3    H1 6063   3.724   2.994   0.345 -2.7986  0.3661  0.1355
 2019TIP3    H2 6064   3.746   3.094   0.456  1.6967  0.1035 -0.3550
 2020TIP3   OH2 6065   0.778   0.664   3.320 -0.7159 -0.3438  0.1230
 2020TIP3    H1 6066   0.773   0.574   3.351  2.3090 -1.5890 -2.4701
 2020TIP3    H2 6067   0.850   0.703   3.368 -0.8765  0.1175 -0.0038
 2021TIP3   OH2 6068   2.190   5.936   3.631  0.7746  0.2962 -0.3092
 2021TIP3    H1 6069   2.195   5.988   3.711 -0.9855 -0.3966  0.2870
 2021TIP3    H2 6070   2.176   6.001   3.562 -0.2338  0.7270  0.2800
 2022TIP3   OH2 6071   3.149   3.063   5.141 -0.3186 -0.4141 -0.0830
 2022TIP3    H1 6072   3.164   2.982   5.092 -0.1838 -0.8217  0.6173
 2022TIP3    H2 6073   3.212   3.059   5.214  0.2927  0.7290 -0.5211
 2023TIP3   OH2 6074   4.222   4.645   1.294 -0.0701  0.2132  0.0977
 2023TIP3    H1 6075   4.254   4.635   1.204 -0.6129 -0.0804 -0.0623
 2023TIP3    H2 6076   4.252   4.732   1.320 -0.3444  0.5041 -0.5433
 2024TIP3   OH2 6077   3.019   2.843   2.015  0.4802  0.1569  0.2736
 2024TIP3    H1 6078   3.025   2.813   2.106  1.2058  1.0290  0.5316
 2024TIP3    H2 6079   3.100   2.812   1.974 -0.0907 -0.6965 -0.2315
 2025TIP3   OH2 6080   0.695   1.739   0.165  0.1354 -0.3662  0.5319
 2025TIP3    H1 6081   0.615   1.776   0.128 -0.5226 -1.8053  0.4645
 2025TIP3    H2 6082   0.665   1.681   0.234  1.1911 -0.1158  1.2162
 2026TIP3   OH2 6083   5.815   5.726   4.958 -0.4488 -0.1483  0.2087
 2026TIP3    H1 6084   5.847   5.730   5.048 -2.0465 -0.1668  0.8098
 2026TIP3    H2 6085   5.792   5.816   4.936  1.9094  0.2556 -1.0042
 2027TIP3   OH2 6086  -0.016   4.471   1.180  0.4524  0.2696 -0.0044
 2027TIP3    H1 6087   0.034   4.505   1.254  0.1198  1.2778 -0.2296
 2027TIP3    H2 6088  -0.006   4.376   1.186  1.2084  0.3858  0.7786
 2028TIP3   OH2 6089   3.163   4.536   0.728 -0.2147  0.0345  0.0514
 2028TIP3    H1 6090   3.162   4.513   0.821 -0.4434  1.2116  0.3619
 2028TIP3    H2 6091   3.248   4.505   0.697  0.5449  1.0075  1.0479
 2029TIP3   OH2 6092   1.880   1.226   3.058  0.1871 -0.3716  0.5359
 2029TIP3    H1 6093   1.973   1.234   3.079  0.2091 -0.9204  0.6720
 2029TIP3    H2 6094   1.863   1.132   3.059 -0.0521 -0.3674 -0.8426
 2030TIP3   OH2 6095   4.104   3.658   2.290 -0.2367  0.2037 -0.6333
 2030TIP3    H1 6096   4.068   3.729   2.236  0.0132  0.3970 -0.5487
 2030TIP3    H2 6097   4.195   3.683   2.304  0.0189 -0.4344 -1.1034
 2031TIP3   OH2 6098   5.316   1.289   0.960 -0.3859  0.1239  0.3890
 2031TIP3    H1 6099   5.272   1.240   1.029 -0.5615 -0.7033 -0.3051
 2031TIP3    H2 6100   5.245   1.320   0.903 -0.1521 -0.3131 -0.1474
 2032TIP3   OH2 6101   2.313   2.443   3.655 -0.5714  0.1230 -0.5511
 2032TIP3    H1 6102   2.239   2.407   3.607 -0.2391 -0.0440 -0.9471
 2032TIP3    H2 6103   2.275   2.478   3.735 -1.2391  1.0168 -1.2350
 2033TIP3   OH2 6104   5.656   5.446   3.820  0.4580  0.4475 -0.0632
 2033TIP3    H1 6105   5.748   5.458   3.800  1.1915 -1.8930  1.5233
 2033TIP3    H2 6106   5.647   5.474   3.912  0.0953 -1.3110  0.4693
 2034TIP3   OH2 6107   0.900   4.441   1.852 -0.2520 -0.1605  0.4539
 2034TIP3    H1 6108   0.942   4.372   1.801 -0.9433  0.7008 -1.3767
 2034TIP3    H2 6109   0.809   4.413   1.860 -0.2869  0.0115  0.6954
 2035TIP3   OH2 6110   5.699   4.335   5.043  0.3435 -0.4505  0.1242
 2035TIP3    H1 6111   5.771   4.397   5.050  0.4677 -0.4830 -0.7453
 2035TIP3    H2 6112   5.709   4.296   4.956 -1.2183  0.1719 -0.3737
 2036TIP3   OH2 6113   5.463   0.722   4.249  0.1495  0.3741  0.3957
 2036TIP3    H1 6114   5.556   0.742   4.260  0.2906 -0.2392  0.3312
 2036TIP3    H2 6115   5.452   0.705   4.156  0.2056 -0.6665  0.5640
 2037TIP3   OH2 6116   0.899   0.408   4.399 -0.5635  0.2639  0.4689
 2037TIP3    H1 6117   0.941   0.334   4.356  1.1479  2.1623 -1.3489
 2037TIP3    H2 6118   0.839   0.368   4.463  0.8369 -2.6228  0.1305
 2038TIP3   OH2 6119   5.465   0.738   3.416  0.5947 -0.2307 -0.3384
 2038TIP3    H1 6120   5.401   0.686   3.465  0.9286 -1.9990 -1.6780
 2038TIP3    H2 6121   5.416   0.777   3.344 -0.1971  3.4988  1.9553
 2039TIP3   OH2 6122   0.328   5.242   5.157 -0.0148  0.0404 -0.0795
 2039TIP3    H1 6123   0.319   5.325   5.110 -1.6164 -0.0286  0.0474
 2039TIP3    H2 6124   0.384   5.262   5.232  2.6899  0.1335 -2.0012
 2040TIP3   OH2 6125   5.222   4.368   4.006  0.4115 -0.3757  0.3892
 2040TIP3    H1 6126   5.245   4.286   4.049  0.0376  0.0829  1.4872
 2040TIP3    H2 6127   5.266   4.436   4.057 -0.9624  0.2723  0.7815
 2041TIP3   OH2 6128   2.036   3.351   2.278  0.3969 -0.1113 -0.5676
 2041TIP3    H1 6129   2.118   3.322   2.317 -1.2523 -1.9215  1.8927
 2041TIP3    H2 6130   2.004   3.275   2.230  0.5530  0.8835 -2.3174
 2042TIP3   OH2 6131   2.747   4.186   1.555  0.0291  1.0020  0.2396
 2042TIP3    H1 6132   2.705   4.100   1.549 -0.1534  1.0895  0.2338
 2042TIP3    H2 6133   2.721   4.231   1.475  0.4497  0.9224  0.0554
 2043TIP3   OH2 6134   5.548   4.425   0.679 -0.7198  0.3766 -0.2065
 2043TIP3    H1 6135   5.501   4.342   0.669  1.0627 -0.4674 -2.1473
 2043TIP3    H2 6136   5.567   4.453   0.590  1.3184  1.3334  0.4787
 2044TIP3   OH2 6137   0.813   5.469   1.025 -0.3757  0.0858 -0.0445
 2044TIP3    H1 6138   0.806   5.473   1.121  0.0245  1.3582 -0.0556
 2044TIP3    H2 6139   0.847   5.381   1.007 -0.0604 -0.0203  1.0017
 2045TIP3   OH2 6140   0.056   1.256   4.667 -0.1413 -0.6206 -0.5578
 2045TIP3    H1 6141   0.046   1.241   4.761  1.9704  1.1623  0.0289
 2045TIP3    H2 6142   0.037   1.349   4.655  2.1547 -0.1752 -1.3774
 2046TIP3   OH2 6143   2.650   4.510   1.562 -0.4962 -0.7879 -0.0002
 2046TIP3    H1 6144   2.621   4.481   1.475 -1.0823  1.9928 -0.8280
 2046TIP3    H2 6145   2.667   4.603   1.552 -0.4063 -0.4006  2.8616
 2047TIP3   OH2 6146   2.724   4.705   0.547  0.2014  0.9633  0.8701
 2047TIP3    H1 6147   2.757   4.670   0.464  0.9953  3.1766  0.1810
 2047TIP3    H2 6148   2.653   4.646   0.572 -0.6193  0.7040 -1.8241
 2048TIP3   OH2 6149   2.425   2.617   0.343 -0.2911  0.0534 -0.3462
 2048TIP3    H1 6150   2.494   2.664   0.391 -0.5542 -0.7334  0.8587
 2048TIP3    H2 6151   2.466   2.534   0.317 -0.3821  0.1539 -0.8143
 2049TIP3   OH2 6152   1.661   4.642   2.487 -0.1868  0.1727 -0.1910
 2049TIP3    H1 6153   1.661   4.738   2.488  1.1325  0.3520 -3.6873
 2049TIP3    H2 6154   1.753   4.619   2.501 -0.1849 -0.4495 -1.1503
 2050TIP3   OH2 6155   0.749   5.055   1.629  0.2511  0.2127 -0.6434
 2050TIP3    H1 6156   0.752   4.993   1.556  0.6928  0.9839 -1.3064
 2050TIP3    H2 6157   0.838   5.091   1.633  0.7614 -1.1557  1.4837
 2051TIP3   OH2 6158   5.832   1.318   3.544 -0.0918 -0.0951 -0.1451
 2051TIP3    H1 6159   5.811   1.258   3.616  1.1268  1.4932  1.6059
 2051TIP3    H2 6160   5.752   1.370   3.533 -0.7944 -1.2872 -0.9918
 2052TIP3   OH2 6161   1.874   1.609   2.895 -0.3751  0.1347 -0.0179
 2052TIP3    H1 6162   1.925   1.688   2.912 -0.8063  0.5261 -0.5104
 2052TIP3    H2 6163   1.787   1.641   2.869 -0.6142 -0.5006 -0.0343
 2053TIP3   OH2 6164   3.912   1.023   4.356 -0.2281  0.1445 -0.9084
 2053TIP3    H1 6165   3.827   1.014   4.398  0.3947 -0.1571  0.3350
 2053TIP3    H2 6166   3.910   0.961   4.283 -0.4550 -1.1485  0.1534
 2054TIP3   OH2 6167   1.821   4.019   4.428 -0.7582 -0.1976  0.3752
 2054TIP3    H1 6168   1.812   4.034   4.334  1.2450 -0.3929  0.0914
 2054TIP3    H2 6169   1.889   4.081   4.455 -0.4980 -0.9279  1.4580
 2055TIP3   OH2 6170   5.960   1.256   3.857  0.6490 -0.5710 -0.4517
 2055TIP3    H1 6171   5.986   1.339   3.817 -0.9489  0.7033  0.9694
 2055TIP3    H2 6172   6.031   1.235   3.917  1.3165 -0.5419 -1.2158
 2056TIP3   OH2 6173   2.674   2.879   1.931 -0.0187  0.7896 -0.1514
 2056TIP3    H1 6174   2.762   2.915   1.935  0.2331  0.1212  0.6725
 2056TIP3    H2 6175   2.663   2.833   2.014 -0.4965 -0.5973 -0.9370
 2057TIP3   OH2 6176   5.745   3.040   0.693 -0.2235  0.0623  0.4864
 2057TIP3    H1 6177   5.658   3.075   0.711 -0.4405 -0.9738  1.5806
 2057TIP3    H2 6178   5.802   3.083   0.756 -0.1667 -0.1525  0.5847
 2058TIP3   OH2 6179   0.485   4.306   4.806 -0.2979 -0.1373  0.2350
 2058TIP3    H1 6180   0.525   4.290   4.720  1.3077 -0.3035  0.9841
 2058TIP3    H2 6181   0.464   4.219   4.839 -1.7146 -0.0336 -0.3229
 2059TIP3   OH2 6182   2.386   2.045   3.559 -0.2532 -0.4083  0.1056
 2059TIP3    H1 6183   2.333   2.086   3.491  0.1546  0.0188  0.0370
 2059TIP3    H2 6184   2.455   2.000   3.512 -0.0898 -0.2853  0.2256
 2060TIP3   OH2 6185   3.550   1.447   2.316 -0.0803 -0.1823  0.0667
 2060TIP3    H1 6186   3.545   1.352   2.330  0.2692 -0.1256  0.5990
 2060TIP3    H2 6187   3.643   1.465   2.304 -0.1628  0.0744 -0.1968
 2061TIP3   OH2 6188   2.995   0.995   1.644  0.8555  0.0639  0.6355
 2061TIP3    H1 6189   2.994   0.938   1.720 -2.3182  0.6145  1.1218
 2061TIP3    H2 6190   2.948   1.074   1.672  0.0937  0.5246 -1.7103
 2062TIP3   OH2 6191   0.632   1.673   1.805 -0.2729  0.0288  0.0940
 2062TIP3    H1 6192   0.616   1.767   1.790 -0.5947  0.0963  0.8170
 2062TIP3    H2 6193   0.631   1.635   1.718 -3.1642  0.2428 -0.0460
 2063TIP3   OH2 6194   1.223   5.784   2.461 -0.3545 -0.4893 -0.1174
 2063TIP3    H1 6195   1.302   5.731   2.475  0.4869  0.9773  0.9029
 2063TIP3    H2 6196   1.199   5.814   2.549 -0.8342  0.7727 -0.6680
 2064TIP3   OH2 6197   5.207   0.210   0.328  0.2919 -0.1113  0.2058
 2064TIP3    H1 6198   5.118   0.204   0.364 -0.1457  2.1992 -0.2860
 2064TIP3    H2 6199   5.202   0.161   0.246 -0.9186  0.9490 -0.4011
 2065TIP3   OH2 6200   1.031   2.448   3.368 -0.2821 -0.3453  0.1683
 2065TIP3    H1 6201   1.081   2.375   3.405  2.5217  0.1954 -2.2135
 2065TIP3    H2 6202   0.965   2.406   3.313  0.2661 -1.1270  0.0869
 2066TIP3   OH2 6203   0.339   3.187   3.188  0.3446 -0.8276 -0.1090
 2066TIP3    H1 6204   0.428   3.221   3.174  0.0715 -0.6262 -1.4663
 2066TIP3    H2 6205   0.292   3.208   3.108 -1.7780  1.5947  1.6253
 2067TIP3   OH2 6206   1.583   3.564   3.934  0.1374 -0.5186  0.0669
 2067TIP3    H1 6207   1.555   3.607   4.015  1.5597 -1.6068  1.1842
 2067TIP3    H2 6208   1.562   3.627   3.865 -2.5130 -0.1726  1.0628
 2068TIP3   OH2 6209   2.039   0.055   3.975  0.9182 -0.0256  0.5994
 2068TIP3    H1 6210   2.072  -0.008   3.911  0.6566  1.2903 -0.8910
 2068TIP3    H2 6211   1.944   0.056   3.961  0.9902  1.1967  0.1114
 2069TIP3   OH2 6212   2.651   2.780   0.432  0.2996  0.2810  0.3356
 2069TIP3    H1 6213   2.691   2.739   0.355  0.1579 -1.1153  0.9660
 2069TIP3    H2 6214   2.716   2.769   0.501  0.0134  0.6110  0.6613
 2070TIP3   OH2 6215   1.265   3.653   4.795 -0.0375  0.2546 -0.6074
 2070TIP3    H1 6216   1.275   3.744   4.822 -0.7489  0.3642 -0.6895
 2070TIP3    H2 6217   1.337   3.638   4.734  0.2154  0.6938 -0.4188
 2071TIP3   OH2 6218   0.237   4.411   3.589  0.1117 -0.1571 -0.0051
 2071TIP3    H1 6219   0.248   4.466   3.667  0.7987 -0.6935  0.2917
 2071TIP3    H2 6220   0.263   4.466   3.516  0.3419  0.0572  0.2376
 2072TIP3   OH2 6221   0.548   4.067   3.699  0.1549  0.5355  0.3042
 2072TIP3    H1 6222   0.612   4.009   3.741  1.4008  1.0648 -0.7899
 2072TIP3    H2 6223   0.477   4.009   3.672  0.1534 -0.0684  1.5331
 2073TIP3   OH2 6224   3.237   4.361   2.743 -0.4513  0.7206 -0.0880
 2073TIP3    H1 6225   3.188   4.308   2.806  0.5203  1.0592  1.0004
 2073TIP3    H2 6226   3.245   4.304   2.666 -0.6840 -0.1577  0.5133
 2074TIP3   OH2 6227   5.033   0.920   1.468 -0.4778 -0.1537  0.5156
 2074TIP3    H1 6228   4.994   0.868   1.538  1.2747 -1.0682  0.8821
 2074TIP3    H2 6229   5.030   1.010   1.499  0.4396 -0.5707  1.8957
 2075TIP3   OH2 6230   2.584   1.687   4.736  0.4181  0.0681  0.7814
 2075TIP3    H1 6231   2.588   1.753   4.666 -0.7865  0.8816  1.4450
 2075TIP3    H2 6232   2.644   1.721   4.804  2.3762 -1.2224 -0.2001
 2076TIP3   OH2 6233   1.666   2.935   1.431  0.0910  0.1436 -0.1034
 2076TIP3    H1 6234   1.633   2.923   1.342  1.8788 -1.5745 -0.6091
 2076TIP3    H2 6235   1.590   2.961   1.482 -1.0393  0.8714 -2.0584
 2077TIP3   OH2 6236   2.328   5.759   0.096 -0.2228  0.0039 -0.1172
 2077TIP3    H1 6237   2.285   5.828   0.046 -2.2714 -0.3103  1.0886
 2077TIP3    H2 6238   2.294   5.769   0.185 -0.4848 -2.4203  0.1335
 2078TIP3   OH2 6239   2.535   3.036   3.914  0.6685 -0.2440  0.6098
 2078TIP3    H1 6240   2.493   2.959   3.952  0.4050 -1.3779 -1.7904
 2078TIP3    H2 6241   2.484   3.055   3.835  0.7266  2.4248  1.1061
 2079TIP3   OH2 6242   5.155   3.236   0.662 -0.1267 -0.0080 -0.1357
 2079TIP3    H1 6243   5.120   3.146   0.656 -0.7698  0.0884  1.4976
 2079TIP3    H2 6244   5.092   3.289   0.613 -0.0674 -0.3659 -0.6077
 2080TIP3   OH2 6245   3.786   1.881   4.689  0.1555 -0.0023  0.1801
 2080TIP3    H1 6246   3.697   1.908   4.669  0.2488  1.9926  1.9902
 2080TIP3    H2 6247   3.838   1.913   4.615 -0.6282 -1.6103 -1.1238
 2081TIP3   OH2 6248   1.802   1.964   1.450  0.3946  0.0394 -0.4365
 2081TIP3    H1 6249   1.775   2.021   1.378 -1.7637 -0.8978 -0.4403
 2081TIP3    H2 6250   1.764   2.005   1.528 -1.1042 -1.2751 -0.4306
 2082TIP3   OH2 6251   1.669   4.269   1.653  0.1392  0.0710 -0.4198
 2082TIP3    H1 6252   1.618   4.188   1.649  1.2037 -0.5960 -1.1885
 2082TIP3    H2 6253   1.750   4.248   1.605  1.2225  1.0288  0.9123
 2083TIP3   OH2 6254   3.533   5.012   0.875 -0.4812 -0.8986  0.2330
 2083TIP3    H1 6255   3.485   5.050   0.801  0.1665 -2.8622 -1.2961
 2083TIP3    H2 6256   3.609   4.970   0.834  2.5304  1.8020  2.4635
 2084TIP3   OH2 6257   5.165   0.922   3.484 -0.0822  0.4069  0.2653
 2084TIP3    H1 6258   5.089   0.979   3.497 -1.3764 -1.1053 -0.2919
 2084TIP3    H2 6259   5.173   0.916   3.388 -0.2392 -0.6828  0.3170
 2085TIP3   OH2 6260   0.721   3.861   3.776 -0.4368 -0.0334 -0.1924
 2085TIP3    H1 6261   0.674   3.811   3.709  0.2303 -0.0135 -0.6890
 2085TIP3    H2 6262   0.724   3.802   3.852 -1.7440  0.1818  0.0544
 2086TIP3   OH2 6263   0.320   1.622   1.010  0.5768  0.2203  0.1110
 2086TIP3    H1 6264   0.329   1.702   0.957  1.3062 -0.2673 -0.5236
 2086TIP3    H2 6265   0.226   1.610   1.019  0.4492  1.4609  0.6923
 2087TIP3   OH2 6266   0.118   4.685   3.100 -0.3878  0.0569  0.3450
 2087TIP3    H1 6267   0.050   4.700   3.166  1.7641  0.7109  2.5791
 2087TIP3    H2 6268   0.070   4.674   3.018 -3.1550  0.5017  1.7821
 2088TIP3   OH2 6269   1.975   0.866   0.104  0.2594 -0.0704 -0.3082
 2088TIP3    H1 6270   2.056   0.916   0.092 -0.4512  1.2891  0.3720
 2088TIP3    H2 6271   1.949   0.884   0.194 -1.4877  0.5708 -0.9032
 2089TIP3   OH2 6272   2.050   0.931   4.799 -0.4004 -0.1278 -0.1758
 2089TIP3    H1 6273   2.094   0.983   4.732 -0.0751  0.0210  0.1476
 2089TIP3    H2 6274   1.960   0.962   4.798 -0.0320  1.0468  0.5828
 2090TIP3   OH2 6275   2.499   0.295   0.621  0.0383 -0.0460  0.1341
 2090TIP3    H1 6276   2.551   0.363   0.577  0.4118 -0.4024  0.0264
 2090TIP3    H2 6277   2.511   0.313   0.715  1.2220 -0.7614  0.1420
 2091TIP3   OH2 6278   6.290   4.550   0.911  0.2620  0.0328  1.0760
 2091TIP3    H1 6279   6.267   4.552   1.004 -0.7831  1.1396  0.8286
 2091TIP3    H2 6280   6.308   4.458   0.892 -1.3102 -0.5077  1.9898
 2092TIP3   OH2 6281   0.844   1.844   3.456 -0.5168  0.0646  0.4134
 2092TIP3    H1 6282   0.844   1.865   3.363  1.7224 -2.7649 -0.3532
 2092TIP3    H2 6283   0.923   1.888   3.490  1.3545 -2.6275 -0.1501
 2093TIP3   OH2 6284   5.806   1.598   5.011  0.1291 -0.4609 -0.4194
 2093TIP3    H1 6285   5.763   1.642   4.938 -0.0986 -0.0297 -0.0370
 2093TIP3    H2 6286   5.892   1.639   5.017 -0.1963  0.1658  0.1290
 2094TIP3   OH2 6287   2.230   0.408   3.355 -0.3081  0.1609  0.1845
 2094TIP3    H1 6288   2.179   0.357   3.291 -0.5463  1.1334 -0.4282
 2094TIP3    H2 6289   2.173   0.413   3.432  0.4520 -2.0168  0.9644
 2095TIP3   OH2 6290   4.718   4.949   5.166 -0.4859 -0.3030  0.5242
 2095TIP3    H1 6291   4.712   5.037   5.128 -1.5774  0.3774  2.1481
 2095TIP3    H2 6292   4.768   4.961   5.246  0.7872 -1.4962 -0.0458
 2096TIP3   OH2 6293   5.334   2.457   3.930 -0.3868 -0.0389 -0.2707
 2096TIP3    H1 6294   5.374   2.396   3.868 -0.1728 -0.8532  0.6436
 2096TIP3    H2 6295   5.279   2.513   3.876  0.3140 -0.2939 -1.2809
 2097TIP3   OH2 6296   4.791   0.817   4.631  0.1250  0.0453  0.0221
 2097TIP3    H1 6297   4.820   0.891   4.684  0.2249  1.0716 -1.3807
 2097TIP3    H2 6298   4.871   0.784   4.590 -0.1889  0.7216 -1.2108
 2098TIP3   OH2 6299   0.143   0.237   1.269  0.5341  0.0627 -0.4291
 2098TIP3    H1 6300   0.116   0.160   1.319 -1.3985  0.2367 -1.1080
 2098TIP3    H2 6301   0.224   0.266   1.312 -1.3119  0.6188  3.0498
 2099TIP3   OH2 6302   2.445   4.020   2.322 -0.1165 -0.4419 -0.4917
 2099TIP3    H1 6303   2.378   4.087   2.308  0.9442  0.5051 -1.2433
 2099TIP3    H2 6304   2.503   4.028   2.246  0.1890 -2.0517 -0.4674
 2100TIP3   OH2 6305   3.728   3.945   5.191 -0.2807  0.1955  0.6089
 2100TIP3    H1 6306   3.822   3.950   5.172 -0.1973 -0.5359  0.7936
 2100TIP3    H2 6307   3.686   3.956   5.106 -0.0538  1.1265  0.6078
 2101TIP3   OH2 6308   5.835   2.578   1.913 -0.1408  0.2150 -0.1957
 2101TIP3    H1 6309   5.897   2.583   1.840 -0.8061  0.2619 -0.7786
 2101TIP3    H2 6310   5.836   2.666   1.952 -1.1700  0.7873 -1.3600
 2102TIP3   OH2 6311   1.000   1.524   4.631 -0.4625 -0.1498 -0.6042
 2102TIP3    H1 6312   0.914   1.504   4.669 -1.8740  2.8961 -1.8360
 2102TIP3    H2 6313   1.062   1.509   4.702 -2.0146 -2.1575  0.4182
 2103TIP3   OH2 6314   2.765   3.635   0.320  0.5161  0.1933 -0.1684
 2103TIP3    H1 6315   2.694   3.696   0.341  0.0318 -0.8001  1.2917
 2103TIP3    H2 6316   2.731   3.581   0.249  0.4085  0.7178 -0.5158
 2104TIP3   OH2 6317   4.366   4.764   0.101 -0.1387 -0.5665  0.6106
 2104TIP3    H1 6318   4.299   4.808   0.049 -0.0647  0.7479  1.6091
 2104TIP3    H2 6319   4.325   4.682   0.129 -1.5305  0.4719  1.6804
 2105TIP3   OH2 6320   2.161   4.467   1.406 -0.8506  0.1658  0.3200
 2105TIP3    H1 6321   2.149   4.430   1.493 -1.0814  2.1912  1.2103
 2105TIP3    H2 6322   2.082   4.519   1.391 -1.2901 -0.9454 -1.5626
 2106TIP3   OH2 6323   5.542   1.846   3.481  0.0486  0.2667  0.6637
 2106TIP3    H1 6324   5.596   1.767   3.476  0.9713  0.8527  1.0748
 2106TIP3    H2 6325   5.545   1.871   3.573 -0.1370  0.8422  0.5143
 2107TIP3   OH2 6326   1.793   4.934   4.259 -0.3064  0.0533  0.0859
 2107TIP3    H1 6327   1.734   4.988   4.205 -0.0195  0.9415  0.6322
 2107TIP3    H2 6328   1.749   4.850   4.266 -1.7916  0.8664  0.9384
 2108TIP3   OH2 6329   4.793   3.089   2.071  0.2672  0.2289  0.3894
 2108TIP3    H1 6330   4.779   3.131   1.986 -1.1793  2.2094  1.5181
 2108TIP3    H2 6331   4.818   2.999   2.049  2.3073  1.2775 -2.1423
 2109TIP3   OH2 6332   3.501   0.267   4.954  0.0160 -0.0751  0.1914
 2109TIP3    H1 6333   3.563   0.237   5.020  0.5738 -2.0397 -1.1531
 2109TIP3    H2 6334   3.415   0.249   4.991  0.3299 -2.2236 -0.0075
 2110TIP3   OH2 6335   0.671   0.671   2.628  0.0788 -0.5108  0.3720
 2110TIP3    H1 6336   0.692   0.579   2.647 -1.0360 -0.7021  0.7473
 2110TIP3    H2 6337   0.654   0.671   2.533 -0.9929 -0.9357  0.5440
 2111TIP3   OH2 6338   3.319   5.596   4.121 -0.1731  0.3424  0.0772
 2111TIP3    H1 6339   3.378   5.528   4.153  0.0339  1.0854  1.3411
 2111TIP3    H2 6340   3.279   5.632   4.199 -0.9537  1.0793 -0.6371
 2112TIP3   OH2 6341   2.195   2.365   0.276 -0.1899 -0.2626 -0.5435
 2112TIP3    H1 6342   2.253   2.337   0.347 -0.0857  0.6133 -0.2779
 2112TIP3    H2 6343   2.241   2.337   0.196  0.2052 -0.2926 -0.3082
 2113TIP3   OH2 6344   5.039   4.941   0.259 -0.2528  0.0320  0.4628
 2113TIP3    H1 6345   5.022   4.855   0.297 -0.2646 -0.4639 -0.6347
 2113TIP3    H2 6346   5.063   4.924   0.168  1.2723  1.0771  0.6255
 2114TIP3   OH2 6347   4.307   2.758   0.998  0.8706 -0.4384  0.1724
 2114TIP3    H1 6348   4.315   2.730   1.089  1.3754 -0.8612  0.0052
 2114TIP3    H2 6349   4.347   2.845   0.996 -1.1323  0.5464  0.7931
 2115TIP3   OH2 6350   2.348   2.778   3.039 -0.8315  0.3511 -0.7874
 2115TIP3    H1 6351   2.261   2.811   3.061 -1.1680 -0.6368 -0.6100
 2115TIP3    H2 6352   2.346   2.686   3.065  0.2196  0.2835 -0.9205
 2116TIP3   OH2 6353   3.628   2.722   4.441  0.2415  0.6256  0.4227
 2116TIP3    H1 6354   3.721   2.702   4.441  0.2783  0.7829 -0.0627
 2116TIP3    H2 6355   3.621   2.802   4.493  0.0334 -0.8236  2.7963
 2117TIP3   OH2 6356   5.919   2.848   3.627 -0.0882 -0.6011  0.3720
 2117TIP3    H1 6357   5.964   2.930   3.610 -0.5193 -0.4537 -0.0734
 2117TIP3    H2 6358   5.849   2.870   3.688 -0.4134 -0.5725 -0.0088
 2118TIP3   OH2 6359   5.297   4.282   3.571 -0.1764  0.7321  0.1126
 2118TIP3    H1 6360   5.284   4.347   3.502 -1.3958 -0.6395 -1.0049
 2118TIP3    H2 6361   5.365   4.225   3.537 -0.2160  0.5203  0.3903
 2119TIP3   OH2 6362   4.393   1.911   0.550 -0.3220  0.0099  0.2170
 2119TIP3    H1 6363   4.357   1.830   0.513  0.5930 -0.3166  0.0303
 2119TIP3    H2 6364   4.479   1.887   0.583 -0.4398  0.6862  1.0652
 2120TIP3   OH2 6365   3.000   3.863   0.452 -0.6063  0.0997  0.1640
 2120TIP3    H1 6366   3.052   3.899   0.523 -0.0165  0.7936 -0.6050
 2120TIP3    H2 6367   2.912   3.855   0.489 -0.0033 -1.0462  1.4637
 2121TIP3   OH2 6368   3.911   5.932   0.509  0.4423 -0.3945 -0.5028
 2121TIP3    H1 6369   3.816   5.919   0.504  0.2665  0.3555  0.4656
 2121TIP3    H2 6370   3.935   5.969   0.425 -0.3298  0.4958 -0.3546
 2122TIP3   OH2 6371   3.996   2.483   0.355 -0.3111  0.5854  0.0788
 2122TIP3    H1 6372   3.998   2.419   0.284  1.2921  2.1922 -1.4182
 2122TIP3    H2 6373   4.073   2.462   0.408 -0.1579  0.8576 -0.0344
 2123TIP3   OH2 6374   4.185   3.827   4.615  0.0135  0.0934  0.0782
 2123TIP3    H1 6375   4.099   3.836   4.657  0.1866 -1.2072  0.7687
 2123TIP3    H2 6376   4.247   3.822   4.688  0.2082 -3.5638 -0.1088
 2124TIP3   OH2 6377   0.847   3.631   0.713  0.3129  0.1660  0.1863
 2124TIP3    H1 6378   0.809   3.553   0.674  0.2734 -0.3182  1.1632
 2124TIP3    H2 6379   0.876   3.684   0.638 -1.3070  0.0624 -0.5411
 2125TIP3   OH2 6380   4.268   5.758   0.406 -0.3103  0.2721  0.2670
 2125TIP3    H1 6381   4.358   5.747   0.435 -0.0711 -0.7239 -0.7693
 2125TIP3    H2 6382   4.224   5.805   0.478  1.0681  0.9593  0.6864
 2126TIP3   OH2 6383   1.848   1.548   1.737 -0.0510 -0.1956  0.0131
 2126TIP3    H1 6384   1.758   1.522   1.755 -0.7631  1.1711 -1.4227
 2126TIP3    H2 6385   1.841   1.614   1.669  2.0149  0.3378  0.2656
 2127TIP3   OH2 6386   2.311   5.765   2.766  0.3100 -0.1634  0.2211
 2127TIP3    H1 6387   2.279   5.683   2.728 -1.4419  0.5875  0.0058
 2127TIP3    H2 6388   2.275   5.833   2.709  1.7903  0.7884  0.3574
 2128TIP3   OH2 6389   5.848   2.580   1.367 -0.0600  0.4091 -0.9331
 2128TIP3    H1 6390   5.796   2.500   1.372  1.3159 -0.4645 -0.1083
 2128TIP3    H2 6391   5.810   2.629   1.294 -1.9996 -0.2011 -0.3749
 2129TIP3   OH2 6392   3.819   4.561   4.797  0.0645  0.4217  0.3681
 2129TIP3    H1 6393   3.894   4.567   4.856 -0.7957  0.4158  1.4906
 2129TIP3    H2 6394   3.782   4.474   4.815  0.9924 -0.4684 -1.7014
 2130TIP3   OH2 6395   3.209   1.134   4.896  0.9719  0.4012  0.2021
 2130TIP3    H1 6396   3.249   1.188   4.827 -0.3955  2.9137  1.2212
 2130TIP3    H2 6397   3.223   1.044   4.867  3.1316  1.2653 -1.7877
 2131TIP3   OH2 6398   5.046   2.581   2.567 -0.1488 -0.1230 -0.3450
 2131TIP3    H1 6399   4.977   2.635   2.606  1.0070 -0.0069  1.6755
 2131TIP3    H2 6400   5.031   2.493   2.602 -0.2364 -0.4637 -1.2191
 2132TIP3   OH2 6401   0.597   2.331   1.681  0.3289  0.0653 -0.4106
 2132TIP3    H1 6402   0.611   2.261   1.617  2.0798  0.6663 -0.7545
 2132TIP3    H2 6403   0.656   2.310   1.753 -0.9119 -0.0728  0.6123
 2133TIP3   OH2 6404   3.250   4.105   1.212  0.2047 -0.5024  0.6692
 2133TIP3    H1 6405   3.202   4.081   1.133  0.0627  1.7844 -0.0071
 2133TIP3    H2 6406   3.314   4.170   1.183  1.4137 -0.9822  2.1388
 2134TIP3   OH2 6407   0.652   4.951   1.871 -0.2121 -0.5692  0.0311
 2134TIP3    H1 6408   0.678   4.973   1.781 -1.1806 -1.3370 -0.4631
 2134TIP3    H2 6409   0.731   4.917   1.912  0.8361  1.8889  0.2084
 2135TIP3   OH2 6410   5.189   5.826   0.280 -0.1912 -0.0599  0.3049
 2135TIP3    H1 6411   5.193   5.922   0.271 -3.3894  0.1935  0.3753
 2135TIP3    H2 6412   5.195   5.794   0.190  0.4458  0.2039  0.2445
 2136TIP3   OH2 6413   6.138   4.606   1.416 -0.2819  0.2517 -0.6308
 2136TIP3    H1 6414   6.101   4.526   1.379 -1.1459  0.2636  0.1829
 2136TIP3    H2 6415   6.229   4.584   1.434 -0.6912 -0.7915  0.2486
 2137TIP3   OH2 6416   4.170   4.828   0.823 -0.5163 -0.3716 -0.4417
 2137TIP3    H1 6417   4.230   4.868   0.760  1.6601 -2.7932 -0.0836
 2137TIP3    H2 6418   4.134   4.902   0.872  1.3204  1.3047 -1.4601
 2138TIP3   OH2 6419   3.655   4.794   1.769  0.0041 -0.4393 -0.4243
 2138TIP3    H1 6420   3.566   4.828   1.759  0.5085  0.5474 -2.1037
 2138TIP3    H2 6421   3.699   4.857   1.825 -0.2774 -0.7782  0.1798
 2139TIP3   OH2 6422   4.438   2.602   5.055 -0.1405 -0.4536  0.1783
 2139TIP3    H1 6423   4.461   2.694   5.072 -0.4411 -0.3720  0.1548
 2139TIP3    H2 6424   4.519   2.554   5.070 -0.3950 -0.4083  1.9419
 2140TIP3   OH2 6425   3.981   3.612   1.973 -0.2173  0.4519  0.2075
 2140TIP3    H1 6426   3.897   3.657   1.969 -0.1477  0.5094 -0.7440
 2140TIP3    H2 6427   4.042   3.671   1.930  0.0585 -0.1347 -0.2215
 2141TIP3   OH2 6428   3.868   3.165   1.630  0.1802 -0.2658 -0.4069
 2141TIP3    H1 6429   3.885   3.254   1.660  0.9100 -0.9821  1.4531
 2141TIP3    H2 6430   3.796   3.174   1.568  0.8471  1.7094 -0.9508
 2142TIP3   OH2 6431   6.325   2.656   2.889 -0.2361  0.2563  0.8714
 2142TIP3    H1 6432   6.268   2.653   2.966 -1.4415 -0.4302 -0.0140
 2142TIP3    H2 6433   6.375   2.575   2.893  0.8466  0.9466  1.7517
 2143TIP3   OH2 6434   4.823   4.476   3.173 -0.0674 -0.1730  0.0146
 2143TIP3    H1 6435   4.919   4.483   3.169  0.0663 -1.3584  0.4828
 2143TIP3    H2 6436   4.792   4.565   3.162  1.1567  0.4557  1.2917
 2144TIP3   OH2 6437   0.927   5.461   3.976 -0.1653  0.9483  0.0970
 2144TIP3    H1 6438   0.832   5.454   3.974 -0.1368  0.1398 -2.7141
 2144TIP3    H2 6439   0.954   5.455   3.884  2.5240  2.6925  0.6421
 2145TIP3   OH2 6440   0.610   0.980   0.244  0.3678  0.4766  0.2274
 2145TIP3    H1 6441   0.597   0.908   0.306  0.1329  1.0750  0.8801
 2145TIP3    H2 6442   0.633   1.055   0.299  0.7534  0.8727 -0.4589
 2146TIP3   OH2 6443   0.830   5.718   1.575  0.7369  0.0779 -0.0873
 2146TIP3    H1 6444   0.778   5.743   1.651  1.4683 -0.9297  0.7687
 2146TIP3    H2 6445   0.767   5.720   1.502 -0.0453  0.7390  0.5750
 2147TIP3   OH2 6446   4.938   1.148   1.598  0.1433 -0.4733 -0.4561
 2147TIP3    H1 6447   4.869   1.112   1.653  0.3984 -1.2568 -0.6370
 2147TIP3    H2 6448   4.892   1.188   1.524 -0.3914  2.8973  1.5259
 2148TIP3   OH2 6449   1.798   1.537   3.992 -0.0442  0.2136 -0.4196
 2148TIP3    H1 6450   1.824   1.629   3.986  1.3934 -0.0336  1.1066
 2148TIP3    H2 6451   1.723   1.537   4.052 -0.1525  0.4065 -0.5544
 2149TIP3   OH2 6452   2.244   3.076   4.492  0.1339  0.5677 -0.2298
 2149TIP3    H1 6453   2.301   3.109   4.422 -0.9512  1.2367 -0.8263
 2149TIP3    H2 6454   2.207   3.155   4.532 -0.0357  0.1563  0.4542
 2150TIP3   OH2 6455   6.067   1.877   2.463 -0.0044  0.3064  0.2750
 2150TIP3    H1 6456   6.057   1.782   2.461 -0.5008  0.3200  1.4047
 2150TIP3    H2 6457   6.093   1.901   2.374 -0.5371 -0.8149 -0.1884
 2151TIP3   OH2 6458   1.841   0.902   0.375 -0.2429  0.2907 -0.0706
 2151TIP3    H1 6459   1.766   0.961   0.366  0.3794  1.0543 -0.2922
 2151TIP3    H2 6460   1.808   0.830   0.429 -1.5042 -0.0171 -1.1991
 2152TIP3   OH2 6461   3.084   4.087   2.485 -0.0823  0.1086  0.4754
 2152TIP3    H1 6462   3.063   4.001   2.521 -1.5018 -0.7519 -2.1084
 2152TIP3    H2 6463   2.999   4.122   2.456  0.7400  1.4098 -0.4619
 2153TIP3   OH2 6464   0.419   0.571   2.079  0.3237 -0.0683  0.1103
 2153TIP3    H1 6465   0.490   0.615   2.124  0.2223  0.1426  0.0634
 2153TIP3    H2 6466   0.356   0.549   2.148  0.7119 -0.8008  0.2431
 2154TIP3   OH2 6467   4.260   2.961   2.184 -0.2539 -0.2338 -0.1660
 2154TIP3    H1 6468   4.340   3.007   2.209  0.3125 -0.5972 -1.2296
 2154TIP3    H2 6469   4.273   2.872   2.215 -0.3311 -0.2461 -0.1693
 2155TIP3   OH2 6470   3.363   0.601   1.088 -0.3847 -0.6727 -0.4042
 2155TIP3    H1 6471   3.358   0.616   0.993 -3.7192  1.1001 -0.0962
 2155TIP3    H2 6472   3.317   0.518   1.102 -1.5426 -0.0194 -0.2266
 2156TIP3   OH2 6473   6.220   3.977   4.611  0.3284  0.0221  0.1425
 2156TIP3    H1 6474   6.185   4.049   4.559  0.1121 -0.8139 -0.8847
 2156TIP3    H2 6475   6.143   3.924   4.634  0.6867 -0.8774 -0.6693
 2157TIP3   OH2 6476   3.291   5.559   3.514 -0.5126  0.1551 -0.1899
 2157TIP3    H1 6477   3.360   5.621   3.537 -0.0515 -0.0468 -1.0055
 2157TIP3    H2 6478   3.296   5.492   3.582 -0.0154  0.2245 -0.1535
 2158TIP3   OH2 6479   4.866   1.302   0.170 -0.0304  0.8026  0.2919
 2158TIP3    H1 6480   4.826   1.302   0.083 -0.2089 -1.0713  0.3417
 2158TIP3    H2 6481   4.951   1.344   0.157 -0.0667  0.5738 -0.7840
 2159TIP3   OH2 6482   3.919   0.756   3.577 -0.6850 -0.0346 -0.2016
 2159TIP3    H1 6483   3.850   0.724   3.635  0.5479 -1.2974  0.6333
 2159TIP3    H2 6484   3.927   0.688   3.510 -0.6234  0.3560 -0.5905
 2160TIP3   OH2 6485   1.934   0.749   2.332  0.2218 -0.0693 -0.1833
 2160TIP3    H1 6486   1.862   0.708   2.381 -1.9999  2.9488 -0.6190
 2160TIP3    H2 6487   1.923   0.718   2.243 -2.2552  2.1723 -0.7889
 2161TIP3   OH2 6488   2.748   2.730   0.689 -0.3473 -0.5713  0.2215
 2161TIP3    H1 6489   2.782   2.746   0.777 -0.8732  1.0385  0.1498
 2161TIP3    H2 6490   2.798   2.655   0.658  1.5044  0.2871  0.9981
 2162TIP3   OH2 6491   5.249   3.199   1.554  0.0516 -0.3649  0.6482
 2162TIP3    H1 6492   5.231   3.130   1.491 -0.6084 -1.9619  2.4818
 2162TIP3    H2 6493   5.185   3.185   1.624  1.5683  0.5103  2.2876
 2163TIP3   OH2 6494   2.201   4.897   4.002  0.2194 -0.8558  0.4889
 2163TIP3    H1 6495   2.118   4.850   3.993 -1.6164  2.2315  0.1887
 2163TIP3    H2 6496   2.210   4.913   4.096  0.8287 -1.6754  0.5863
 2164TIP3   OH2 6497   0.790   2.406   0.369 -0.2999  0.2013 -0.5151
 2164TIP3    H1 6498   0.743   2.349   0.309 -2.0079 -1.5386  2.2951
 2164TIP3    H2 6499   0.840   2.347   0.425 -0.8027  1.5033  1.4152
 2165TIP3   OH2 6500   2.318   3.876   4.572 -0.1328 -0.1303  0.0525
 2165TIP3    H1 6501   2.410   3.903   4.562 -0.5059  0.8847 -0.8079
 2165TIP3    H2 6502   2.293   3.908   4.659 -0.7517  3.1045 -1.1588
 2166TIP3   OH2 6503   1.887   3.759   3.631  0.2576 -0.2601  0.3356
 2166TIP3    H1 6504   1.822   3.696   3.600 -0.1135 -0.3197  1.1879
 2166TIP3    H2 6505   1.853   3.786   3.716  0.9553  0.3042  0.4331
 2167TIP3   OH2 6506   4.481   5.561   3.122 -0.4275  0.0399  0.4692
 2167TIP3    H1 6507   4.518   5.513   3.196  0.0635  0.3732  0.4478
 2167TIP3    H2 6508   4.456   5.494   3.059 -2.1403 -0.3474  1.5055
 2168TIP3   OH2 6509   4.438   1.656   2.186 -0.1228 -0.1444 -0.2673
 2168TIP3    H1 6510   4.379   1.678   2.114 -2.1460 -2.4604  0.5175
 2168TIP3    H2 6511   4.406   1.708   2.260 -1.2428 -1.3758  0.1497
 2169TIP3   OH2 6512   1.024   3.520   3.682  0.2070  0.2334 -0.1504
 2169TIP3    H1 6513   1.120   3.519   3.686  0.2531  0.5450 -0.9291
 2169TIP3    H2 6514   1.004   3.496   3.591 -0.5004 -1.3256  0.3740
 2170TIP3   OH2 6515   0.709   0.577   1.188  0.5429 -0.3764 -0.4215
 2170TIP3    H1 6516   0.669   0.625   1.115  0.0018  0.9998  0.7199
 2170TIP3    H2 6517   0.747   0.499   1.148 -0.2354  0.0471 -2.0789
 2171TIP3   OH2 6518   1.263   4.212   3.477 -0.3884  0.2040  0.0199
 2171TIP3    H1 6519   1.175   4.236   3.504 -1.3759 -1.0448 -1.9321
 2171TIP3    H2 6520   1.277   4.125   3.516 -0.0458  0.3504  0.2317
 2172TIP3   OH2 6521   1.983   1.370   2.814 -0.3030  0.4735  0.1870
 2172TIP3    H1 6522   1.906   1.323   2.846 -0.3533  0.2770 -0.2243
 2172TIP3    H2 6523   1.968   1.461   2.840 -0.3336  0.3143  0.7422
 2173TIP3   OH2 6524   5.526   0.745   0.309 -0.5773  0.2215 -0.3073
 2173TIP3    H1 6525   5.553   0.825   0.353 -2.5185  0.7529 -0.0253
 2173TIP3    H2 6526   5.603   0.688   0.315  0.4806  1.6485  0.4085
 2174TIP3   OH2 6527   2.734   5.896   4.105  0.5054  0.1764  0.4262
 2174TIP3    H1 6528   2.690   5.879   4.188 -1.2002 -0.5834 -0.5850
 2174TIP3    H2 6529   2.793   5.820   4.094  1.2422  0.6109  1.2214
 2175TIP3   OH2 6530   4.786   5.517   3.968  0.2763  0.0855  0.1364
 2175TIP3    H1 6531   4.691   5.521   3.956  0.3107 -1.2808 -0.7819
 2175TIP3    H2 6532   4.819   5.480   3.887  1.4573 -0.8591  1.0101
 2176TIP3   OH2 6533   5.607   3.539   3.515  0.5364 -0.0900 -0.9415
 2176TIP3    H1 6534   5.699   3.562   3.510  0.4692  1.4113  2.3145
 2176TIP3    H2 6535   5.563   3.605   3.461  1.1046  1.8888  0.8940
 2177TIP3   OH2 6536   4.547   2.129   4.339 -1.0410  0.0261  0.2099
 2177TIP3    H1 6537   4.457   2.138   4.307 -0.8404 -1.4889 -0.9058
 2177TIP3    H2 6538   4.575   2.043   4.308  1.3158  1.0574 -0.7933
 2178TIP3   OH2 6539   6.007   0.633   3.173  0.2415 -0.5119  0.1002
 2178TIP3    H1 6540   5.916   0.614   3.194  0.8418 -2.6744  1.0529
 2178TIP3    H2 6541   6.003   0.684   3.092 -1.8280  0.2545  0.6290
 2179TIP3   OH2 6542   0.553   1.944   2.902 -0.3207 -0.2589 -0.1609
 2179TIP3    H1 6543   0.566   1.863   2.852  0.5168 -1.2194  1.5065
 2179TIP3    H2 6544   0.641   1.974   2.923 -0.6262 -0.0434  0.9178
 2180TIP3   OH2 6545   2.489   4.160   4.956 -0.1636  0.3947  0.2514
 2180TIP3    H1 6546   2.530   4.128   5.037  2.0466  0.2843 -0.8504
 2180TIP3    H2 6547   2.501   4.255   4.960 -0.1719  0.4009  0.1326
 2181TIP3   OH2 6548   5.354   2.039   4.522  0.4800 -0.2756 -0.0877
 2181TIP3    H1 6549   5.327   2.074   4.607 -0.1183 -0.5254 -0.1689
 2181TIP3    H2 6550   5.396   1.955   4.542 -0.7479 -0.9188 -0.1229
 2182TIP3   OH2 6551   5.763   4.002   0.838  0.4675  0.5436 -0.7824
 2182TIP3    H1 6552   5.693   3.994   0.903  1.1644 -0.8660 -0.1752
 2182TIP3    H2 6553   5.753   3.926   0.782  0.6727  1.0734 -1.5589
 2183TIP3   OH2 6554   2.140   5.330   2.121  0.2380  0.4186 -0.2985
 2183TIP3    H1 6555   2.190   5.323   2.040  1.7963  1.3175  0.5484
 2183TIP3    H2 6556   2.129   5.239   2.150 -0.2299  0.0955 -1.4248
 2184TIP3   OH2 6557   0.806   1.389   0.489 -0.3976  0.0162  0.1394
 2184TIP3    H1 6558   0.732   1.421   0.438 -0.4615 -1.8008 -1.0248
 2184TIP3    H2 6559   0.768   1.357   0.570 -0.9687 -1.0839 -0.5316
 2185TIP3   OH2 6560   1.790   2.256   2.907  0.4526  0.0393  0.1965
 2185TIP3    H1 6561   1.849   2.312   2.857  0.2769 -0.4175 -0.5438
 2185TIP3    H2 6562   1.729   2.318   2.948 -0.6885  0.3725 -1.8278
 2186TIP3   OH2 6563   5.975   5.252   4.082 -0.1055 -0.6096 -0.1957
 2186TIP3    H1 6564   5.926   5.231   4.161 -0.6874  2.1430  0.2696
 2186TIP3    H2 6565   6.049   5.304   4.113  1.1115 -1.6309 -1.2567
 2187TIP3   OH2 6566   3.942   3.609   3.758 -0.3302  0.5972  0.2079
 2187TIP3    H1 6567   3.850   3.594   3.779 -0.3176  0.0532 -0.1038
 2187TIP3    H2 6568   3.990   3.541   3.806 -0.4296 -1.7337 -2.7497
 2188TIP3   OH2 6569   4.943   0.313   0.209 -0.0980 -0.0840 -0.0320
 2188TIP3    H1 6570   4.870   0.372   0.226  0.9990  1.2551  0.1914
 2188TIP3    H2 6571   4.944   0.254   0.284  0.3278  1.2655  1.0751
 2189TIP3   OH2 6572   2.153   1.013   1.595  0.4980 -0.0475 -0.4504
 2189TIP3    H1 6573   2.129   0.988   1.684 -1.9841  0.1841 -0.9845
 2189TIP3    H2 6574   2.238   0.972   1.581  0.1818 -1.5122  1.4411
 2190TIP3   OH2 6575   2.840   1.180   2.413 -0.2710 -0.3457 -0.1267
 2190TIP3    H1 6576   2.875   1.096   2.386 -1.7947 -1.8344  2.1778
 2190TIP3    H2 6577   2.862   1.186   2.506 -1.4852  1.0908  0.1123
 2191TIP3   OH2 6578   3.564   0.636   0.367 -0.0471  0.1074 -0.6384
 2191TIP3    H1 6579   3.599   0.597   0.287 -0.7518  0.3830 -1.0901
 2191TIP3    H2 6580   3.550   0.728   0.345  0.5337  0.3654  0.0620
 2192TIP3   OH2 6581   5.437   0.712   1.217  0.1987  0.1259 -0.0652
 2192TIP3    H1 6582   5.408   0.646   1.154  0.2695  1.2679 -1.3602
 2192TIP3    H2 6583   5.358   0.739   1.262 -0.0122 -0.0504 -0.3233
 2193TIP3   OH2 6584   1.818   4.731   0.690  0.3274  0.3539 -0.4837
 2193TIP3    H1 6585   1.866   4.797   0.640  0.7015  0.5049  0.0531
 2193TIP3    H2 6586   1.781   4.780   0.764 -1.2304  0.3627 -1.2356
 2194TIP3   OH2 6587   1.811   0.462   4.467 -0.3715  0.0196 -0.5030
 2194TIP3    H1 6588   1.764   0.525   4.413 -0.4019  1.6026  1.2512
 2194TIP3    H2 6589   1.898   0.457   4.428 -0.9421 -0.3559 -1.7878
 2195TIP3   OH2 6590   6.184   3.743   2.794 -0.2818  1.1312 -0.4421
 2195TIP3    H1 6591   6.168   3.653   2.765 -0.3699  1.2956 -0.9044
 2195TIP3    H2 6592   6.268   3.738   2.841 -0.7420  0.6286  0.3639
 2196TIP3   OH2 6593   1.539   1.194   2.544 -0.5156  0.2890  0.5040
 2196TIP3    H1 6594   1.625   1.156   2.563 -0.4748  0.5263  0.7923
 2196TIP3    H2 6595   1.558   1.280   2.506 -0.6230  0.2474  0.3523
 2197TIP3   OH2 6596   1.935   5.662   0.370  0.2027 -0.5288 -0.0322
 2197TIP3    H1 6597   1.862   5.634   0.315 -0.9265  0.1626  1.0512
 2197TIP3    H2 6598   1.893   5.705   0.445  1.7125 -0.7026  0.9497
 2198TIP3   OH2 6599   5.017   4.913   1.967  0.0799 -0.3168 -0.0697
 2198TIP3    H1 6600   4.999   5.005   1.983 -0.6580 -0.2378 -1.2084
 2198TIP3    H2 6601   5.066   4.912   1.884  3.3829 -0.7048  1.7222
 2199TIP3   OH2 6602   1.338   4.616   2.271  0.5282 -0.2667  0.0662
 2199TIP3    H1 6603   1.274   4.639   2.339  1.6523  0.6233  0.8718
 2199TIP3    H2 6604   1.394   4.550   2.313  0.8239 -0.2054 -0.2277
 2200TIP3   OH2 6605   3.059   1.808   3.230 -0.5372  0.6153  0.0552
 2200TIP3    H1 6606   3.042   1.862   3.307  0.3820  2.1246 -0.7554
 2200TIP3    H2 6607   2.973   1.793   3.192 -0.8423  1.2009  0.4916
 2201TIP3   OH2 6608   4.832   5.741   4.415 -0.1070 -0.0952  0.0919
 2201TIP3    H1 6609   4.797   5.697   4.492 -0.6663  0.1247 -0.0312
 2201TIP3    H2 6610   4.763   5.733   4.349  0.1409  0.2004 -0.2088
 2202TIP3   OH2 6611   6.025   1.686   0.388 -0.5122  0.5732 -0.1311
 2202TIP3    H1 6612   6.031   1.685   0.484 -2.7393  2.1212  0.0982
 2202TIP3    H2 6613   6.116   1.687   0.359  0.2598 -1.5300  1.8858
 2203TIP3   OH2 6614   4.366   3.995   3.314  0.6498  0.0045  0.2045
 2203TIP3    H1 6615   4.402   4.018   3.400  2.6049  0.5724 -0.7080
 2203TIP3    H2 6616   4.443   3.984   3.258 -0.5849  0.0631 -1.5907
 2204TIP3   OH2 6617   4.157   0.310   1.165  0.7902  0.0865  0.6945
 2204TIP3    H1 6618   4.145   0.374   1.235 -0.2071  0.6858  0.0018
 2204TIP3    H2 6619   4.146   0.361   1.084 -0.6490 -1.0462  0.1317
 2205TIP3   OH2 6620   1.482   4.572   0.812  0.6336 -0.1034  0.1619
 2205TIP3    H1 6621   1.388   4.559   0.794 -0.3371  3.4704  1.8313
 2205TIP3    H2 6622   1.494   4.541   0.902  1.2614 -1.0568 -0.2263
 2206TIP3   OH2 6623   6.342   4.960   2.289 -0.3783  0.6415  0.2841
 2206TIP3    H1 6624   6.286   4.951   2.366  1.3378 -1.6073  1.3914
 2206TIP3    H2 6625   6.281   4.968   2.216 -2.3162 -3.3208  1.2146
 2207TIP3   OH2 6626   5.952   0.793   0.660  0.3613  0.7604  0.0285
 2207TIP3    H1 6627   6.007   0.773   0.584  2.1795  1.6071  1.0327
 2207TIP3    H2 6628   5.907   0.874   0.636  1.7088  1.5907  0.1848
 2208TIP3   OH2 6629   0.436   1.161   3.708 -0.2088  0.2238 -0.1054
 2208TIP3    H1 6630   0.376   1.093   3.737  0.6870 -1.6595 -2.3883
 2208TIP3    H2 6631   0.518   1.143   3.755  0.5038 -1.3201 -1.8500
 2209TIP3   OH2 6632   3.325   5.803   2.832  0.0599  0.7994 -0.1765
 2209TIP3    H1 6633   3.388   5.827   2.763 -0.1643  0.3019 -0.5640
 2209TIP3    H2 6634   3.264   5.744   2.788  1.6267 -1.9746  1.1731
 2210TIP3   OH2 6635   0.219   2.630   3.752 -0.2737  0.3851  0.6518
 2210TIP3    H1 6636   0.214   2.536   3.737 -0.9945  0.4584  0.3927
 2210TIP3    H2 6637   0.250   2.666   3.669  1.9825  0.2108  1.3537
 2211TIP3   OH2 6638   0.940   5.801   3.650 -0.0928 -0.1343  0.1554
 2211TIP3    H1 6639   0.928   5.891   3.621  0.4201 -0.8818 -2.6816
 2211TIP3    H2 6640   1.028   5.799   3.687 -0.7403  0.8491  1.8540
 2212TIP3   OH2 6641   3.857   2.139   2.872 -0.1246  0.3425 -0.1777
 2212TIP3    H1 6642   3.925   2.166   2.809 -0.9518  3.0704 -0.0547
 2212TIP3    H2 6643   3.880   2.185   2.953 -1.0436 -0.2689  0.4439
 2213TIP3   OH2 6644   3.515   2.957   2.475  0.3801 -0.2036  0.1350
 2213TIP3    H1 6645   3.425   2.984   2.455  0.2389 -0.4308  0.4509
 2213TIP3    H2 6646   3.520   2.867   2.442 -0.1526 -0.9324  1.9410
 2214TIP3   OH2 6647   6.337   1.521   4.739 -0.5003  0.5403 -0.0363
 2214TIP3    H1 6648   6.327   1.615   4.725 -2.9349  0.2763 -0.4273
 2214TIP3    H2 6649   6.248   1.488   4.751  0.3336 -1.6259  0.8325
 2215TIP3   OH2 6650   4.663   5.109   2.501  0.0899  0.1522 -0.3118
 2215TIP3    H1 6651   4.757   5.092   2.508 -0.2175 -1.2983  0.9578
 2215TIP3    H2 6652   4.631   5.043   2.439 -0.1787  0.1740 -0.2003
 2216TIP3   OH2 6653   2.950   3.827   3.938  0.2661  0.2052  0.1475
 2216TIP3    H1 6654   2.873   3.783   3.902 -0.0421  0.8773 -0.0272
 2216TIP3    H2 6655   2.915   3.904   3.983  0.9570  1.4389 -1.3581
 2217TIP3   OH2 6656   0.338   1.981   3.975 -0.3832  0.1679  0.1682
 2217TIP3    H1 6657   0.343   2.051   4.039  0.5352  2.0390 -1.8149
 2217TIP3    H2 6658   0.419   1.931   3.988  0.5075  1.3961 -0.3762
 2218TIP3   OH2 6659   0.452   5.126   1.446  0.5040  0.6569  0.1090
 2218TIP3    H1 6660   0.505   5.126   1.366  0.2760  0.5444 -0.0409
 2218TIP3    H2 6661   0.376   5.180   1.425 -1.7354 -2.6699 -1.1998
 2219TIP3   OH2 6662   3.729   0.421   2.263 -0.1125 -0.3105  0.1446
 2219TIP3    H1 6663   3.777   0.505   2.270  0.8029 -0.7943 -0.1130
 2219TIP3    H2 6664   3.642   0.446   2.235  0.1747  0.5606 -0.0213
 2220TIP3   OH2 6665   2.461   0.752   4.486 -0.2645 -0.1054 -0.5958
 2220TIP3    H1 6666   2.381   0.700   4.477 -0.8589  0.5978  0.3297
 2220TIP3    H2 6667   2.494   0.729   4.573  0.5995 -0.4535 -1.0065
 2221TIP3   OH2 6668   4.356   4.344   2.472  0.3336  0.4600 -0.2199
 2221TIP3    H1 6669   4.431   4.322   2.527  1.0366  2.2538 -0.4024
 2221TIP3    H2 6670   4.291   4.378   2.533 -0.0345 -0.3139 -0.1658
 2222TIP3   OH2 6671   3.071   3.293   4.492 -0.4616 -0.0346 -0.8509
 2222TIP3    H1 6672   3.013   3.256   4.558 -0.3602 -0.9265 -1.2561
 2222TIP3    H2 6673   3.037   3.381   4.477 -0.4336  0.2208  0.4559
 2223TIP3   OH2 6674   0.448   1.598   4.598 -0.2672  0.1301 -0.2863
 2223TIP3    H1 6675   0.496   1.555   4.527  1.1429  1.1319  0.0140
 2223TIP3    H2 6676   0.416   1.679   4.559 -1.6326 -0.4570 -0.4386
 2224TIP3   OH2 6677   3.086   4.345   2.227 -0.0341 -0.0971 -0.9162
 2224TIP3    H1 6678   3.044   4.373   2.146 -0.7273 -0.7665 -0.8038
 2224TIP3    H2 6679   3.083   4.249   2.223  0.4619 -0.1381 -0.3748
 2225TIP3   OH2 6680   2.409   0.740   3.739 -0.3624 -0.2898  0.1388
 2225TIP3    H1 6681   2.395   0.675   3.808  0.7357  0.3547  0.9985
 2225TIP3    H2 6682   2.503   0.755   3.738 -0.4800  0.4992 -0.7740
 2226TIP3   OH2 6683   0.079   2.368   4.603 -0.4020  0.0650 -0.7499
 2226TIP3    H1 6684   0.009   2.324   4.553 -0.9533 -0.4936  0.4828
 2226TIP3    H2 6685   0.143   2.394   4.536 -2.0194  1.0673 -1.9692
 2227TIP3   OH2 6686   4.501   0.684   0.346  0.1843 -0.5218  0.4212
 2227TIP3    H1 6687   4.451   0.743   0.289  0.3935 -0.2399  0.5253
 2227TIP3    H2 6688   4.538   0.742   0.413 -0.9463 -0.9954  1.4791
 2228TIP3   OH2 6689   2.629   4.563   3.061  0.0678 -0.5887 -0.3988
 2228TIP3    H1 6690   2.608   4.636   3.004  1.1009 -0.1980 -0.2989
 2228TIP3    H2 6691   2.721   4.545   3.045  0.2216 -0.8603  0.7063
 2229TIP3   OH2 6692   0.115   1.457   3.109  0.1002 -0.1650 -0.5728
 2229TIP3    H1 6693   0.156   1.446   3.195 -0.9861  0.5193  0.0580
 2229TIP3    H2 6694   0.187   1.451   3.047  1.2492  1.5643  0.5198
 2230TIP3   OH2 6695   5.597   3.941   2.422  0.0354 -0.1391 -0.7843
 2230TIP3    H1 6696   5.605   4.003   2.350 -2.4805 -1.0931 -1.9805
 2230TIP3    H2 6697   5.679   3.951   2.471  1.0602  1.8106 -2.7297
 2231TIP3   OH2 6698   0.183   3.750   1.705 -0.7907 -0.1595 -0.0591
 2231TIP3    H1 6699   0.251   3.817   1.693 -1.3852  0.2412 -1.4752
 2231TIP3    H2 6700   0.122   3.789   1.768 -0.4146  0.0417  0.1880
 2232TIP3   OH2 6701   3.785   0.796   1.045 -0.4792 -0.3969  0.1136
 2232TIP3    H1 6702   3.723   0.755   0.985 -0.9742 -0.8248  0.9013
 2232TIP3    H2 6703   3.781   0.743   1.124 -0.2547  0.4789  0.7349
 2233TIP3   OH2 6704   6.191   5.427   4.194 -1.1057 -0.0427  0.1246
 2233TIP3    H1 6705   6.267   5.469   4.234 -0.7831 -2.3832  2.2108
 2233TIP3    H2 6706   6.228   5.360   4.137 -1.6076 -0.3002  0.0987
 2234TIP3   OH2 6707   3.585   3.367   2.537  0.9945  0.4443  0.1566
 2234TIP3    H1 6708   3.509   3.406   2.492  0.6341  0.5656  0.8557
 2234TIP3    H2 6709   3.606   3.289   2.486  0.1411  0.1904  0.1794
 2235TIP3   OH2 6710   5.198   5.160   4.737 -0.0440 -0.3333 -0.3708
 2235TIP3    H1 6711   5.272   5.221   4.741  0.2224 -0.6759 -0.0618
 2235TIP3    H2 6712   5.128   5.211   4.695 -0.3405  0.7563  1.3267
 2236TIP3   OH2 6713   2.827   2.479   3.305  0.2903 -0.0043  0.0312
 2236TIP3    H1 6714   2.796   2.559   3.349 -0.3790  0.7034 -1.6363
 2236TIP3    H2 6715   2.747   2.428   3.290  0.4594 -0.0751 -0.6483
 2237TIP3   OH2 6716   2.319   4.198   1.531 -0.1692 -1.0028 -0.2811
 2237TIP3    H1 6717   2.347   4.276   1.482 -0.8340 -1.1933 -0.9869
 2237TIP3    H2 6718   2.378   4.129   1.502  1.7740 -0.3614  1.8603
 2238TIP3   OH2 6719   0.588   0.368   0.949  0.7542  0.0279  0.1565
 2238TIP3    H1 6720   0.671   0.327   0.973  1.1063 -0.2561 -1.4559
 2238TIP3    H2 6721   0.612   0.452   0.911  0.4056 -0.4764 -1.2395
 2239TIP3   OH2 6722   1.032   3.945   3.212  0.5486  0.2774  0.0422
 2239TIP3    H1 6723   1.017   3.898   3.294 -0.5723  0.0510 -0.2800
 2239TIP3    H2 6724   1.121   3.980   3.221  1.2581 -1.5158  0.4843
 2240TIP3   OH2 6725   6.156   0.414   1.496 -0.5215  0.1678  0.1325
 2240TIP3    H1 6726   6.129   0.466   1.420 -0.9931  0.3119  0.3940
 2240TIP3    H2 6727   6.191   0.333   1.459 -1.7402 -0.2198 -0.2141
 2241TIP3   OH2 6728   2.079   1.579   4.336 -0.3486 -0.6980  0.3482
 2241TIP3    H1 6729   2.082   1.491   4.373 -0.4020 -0.8211  0.0587
 2241TIP3    H2 6730   2.097   1.567   4.243 -0.7435 -0.4426  0.2377
 2242TIP3   OH2 6731   1.144   5.985   3.121  0.1852 -0.0379 -0.5036
 2242TIP3    H1 6732   1.099   6.030   3.049 -1.3173 -1.8087 -0.7595
 2242TIP3    H2 6733   1.200   5.921   3.077 -0.3985 -0.8159 -0.1430
 2243TIP3   OH2 6734   6.330   5.165   3.278  0.3394 -0.1745 -0.0038
 2243TIP3    H1 6735   6.273   5.106   3.328  0.4650  0.3377  0.7647
 2243TIP3    H2 6736   6.378   5.213   3.345  0.9207  0.1364 -0.6374
 2244TIP3   OH2 6737   0.732   4.483   0.657 -0.0728 -0.0801  0.0245
 2244TIP3    H1 6738   0.679   4.430   0.597  1.4597 -1.3223 -0.2953
 2244TIP3    H2 6739   0.728   4.571   0.621 -1.1638 -0.3318 -0.5066
 2245TIP3   OH2 6740   4.121   1.983   4.816  0.0453  0.4274 -0.0897
 2245TIP3    H1 6741   4.103   2.069   4.777 -0.4602  0.2743 -0.1901
 2245TIP3    H2 6742   4.120   1.923   4.742  3.0366  0.6791 -0.4633
 2246TIP3   OH2 6743   6.025   1.804   1.592  0.0095  0.3967 -0.2739
 2246TIP3    H1 6744   6.010   1.848   1.675  0.1989 -2.7222  1.5587
 2246TIP3    H2 6745   6.120   1.803   1.581  0.0818 -0.4794  0.2967
 2247TIP3   OH2 6746   1.818   0.762   2.063 -0.0341  0.8499  0.2549
 2247TIP3    H1 6747   1.845   0.744   1.973 -0.3140 -3.2980  0.8020
 2247TIP3    H2 6748   1.722   0.756   2.060  0.0103 -1.9901  1.0905
 2248TIP3   OH2 6749   1.117   1.322   3.283  0.3203 -0.4481  0.2169
 2248TIP3    H1 6750   1.134   1.415   3.273  0.0875 -0.2006  1.7577
 2248TIP3    H2 6751   1.022   1.316   3.290  0.2416 -0.9582 -1.0547
 2249TIP3   OH2 6752   0.081   4.711   1.759  0.5115  0.0904 -0.0203
 2249TIP3    H1 6753   0.047   4.630   1.797  0.2418 -0.4469 -1.3617
 2249TIP3    H2 6754   0.153   4.736   1.817 -0.3941 -0.2373  1.3083
 2250TIP3   OH2 6755   0.782   1.088   0.462 -0.1434 -0.0570 -0.1736
 2250TIP3    H1 6756   0.818   1.176   0.450 -0.5147  0.1363  0.1199
 2250TIP3    H2 6757   0.734   1.093   0.544  0.4619 -0.7393  0.2339
 2251TIP3   OH2 6758   0.828   2.567   1.519  0.2760  0.3011  0.4232
 2251TIP3    H1 6759   0.922   2.573   1.538  0.5735  0.4755 -0.9890
 2251TIP3    H2 6760   0.790   2.531   1.599  1.6500 -0.4738  0.7680
 2252TIP3   OH2 6761   2.868   5.669   4.856 -0.4436 -0.3323  0.3297
 2252TIP3    H1 6762   2.826   5.670   4.942 -2.1308 -0.5454 -0.4587
 2252TIP3    H2 6763   2.882   5.576   4.837  0.3208 -0.2671  0.5438
 2253TIP3   OH2 6764   1.311   3.779   3.886 -0.0044  0.3090 -0.1280
 2253TIP3    H1 6765   1.218   3.786   3.866 -0.2007  1.5772  1.0621
 2253TIP3    H2 6766   1.339   3.869   3.902  0.8623 -0.2545  1.8483
 2254TIP3   OH2 6767   3.126   0.176   0.535 -0.3403  1.0426  0.2590
 2254TIP3    H1 6768   3.038   0.212   0.523 -1.3353 -1.4375 -0.4733
 2254TIP3    H2 6769   3.112   0.083   0.549  2.2568  0.1493 -2.0790
 2255TIP3   OH2 6770   1.352   2.737   2.747  0.2169  0.3333  0.1558
 2255TIP3    H1 6771   1.357   2.644   2.772  1.0049 -0.0806 -1.3820
 2255TIP3    H2 6772   1.431   2.776   2.785 -0.2347  0.4314  1.0024
 2256TIP3   OH2 6773   0.721   5.605   0.807 -0.8161  0.1196  0.1399
 2256TIP3    H1 6774   0.781   5.659   0.756 -0.4340 -0.5106 -0.0921
 2256TIP3    H2 6775   0.778   5.558   0.868 -0.8007 -1.8868 -1.3146
 2257TIP3   OH2 6776   1.866   2.971   5.116 -0.2834  0.1650  0.0234
 2257TIP3    H1 6777   1.884   2.961   5.209  0.1310  1.3409  0.0811
 2257TIP3    H2 6778   1.952   2.977   5.075 -0.4491 -0.9715 -0.5269
 2258TIP3   OH2 6779   1.648   1.506   3.557  0.3492  0.0568  0.4245
 2258TIP3    H1 6780   1.630   1.454   3.478  0.7477 -3.5628  2.4787
 2258TIP3    H2 6781   1.743   1.501   3.568  0.9044  4.1435 -0.9500
 2259TIP3   OH2 6782   5.252   2.976   2.881  0.4755  0.8483  0.0264
 2259TIP3    H1 6783   5.228   3.020   2.800 -0.8549  1.6447  0.7946
 2259TIP3    H2 6784   5.337   3.013   2.905 -0.3614  2.6977  0.3779
 2260TIP3   OH2 6785   3.639   1.192   3.915  0.4445  0.0979 -0.2257
 2260TIP3    H1 6786   3.692   1.135   3.859  0.0325  1.9312 -2.6600
 2260TIP3    H2 6787   3.558   1.143   3.929  0.5280 -0.3836 -1.3267
 2261TIP3   OH2 6788   5.311   0.993   0.539 -0.4694 -0.5295  0.5216
 2261TIP3    H1 6789   5.310   1.010   0.445 -0.6025 -2.1925  0.2002
 2261TIP3    H2 6790   5.377   1.054   0.574  1.1333 -1.3516 -0.9404
 2262TIP3   OH2 6791   5.336   2.273   2.858  0.2894  0.3584  0.0206
 2262TIP3    H1 6792   5.268   2.291   2.923  0.6136  1.1156  0.1661
 2262TIP3    H2 6793   5.356   2.359   2.821 -1.2430 -0.2555 -2.4705
 2263TIP3   OH2 6794   1.364   5.727   1.160 -0.5937 -0.0064  0.0937
 2263TIP3    H1 6795   1.302   5.761   1.224  0.5969  0.6994  0.9249
 2263TIP3    H2 6796   1.389   5.803   1.107  1.3112  0.2778  1.2997
 2264TIP3   OH2 6797   0.178   2.091   2.663 -0.2073  0.0189  0.1234
 2264TIP3    H1 6798   0.101   2.044   2.632 -0.4147 -0.2114  0.9729
 2264TIP3    H2 6799   0.172   2.089   2.758 -0.2859  1.8679  0.2032
 2265TIP3   OH2 6800   5.805   4.698   4.048 -0.4230  0.4945  0.2042
 2265TIP3    H1 6801   5.737   4.735   3.992  0.9571  0.1144 -1.7900
 2265TIP3    H2 6802   5.865   4.771   4.064  0.1750  0.1277 -0.3729
 2266TIP3   OH2 6803   1.127   2.172   1.009  0.3428  0.8984 -0.0844
 2266TIP3    H1 6804   1.145   2.132   0.924  2.1866  0.6817  0.3646
 2266TIP3    H2 6805   1.094   2.260   0.988 -1.0424  0.1844 -1.0209
 2267TIP3   OH2 6806   1.888   3.884   1.634 -0.5187 -0.0654  0.3966
 2267TIP3    H1 6807   1.862   3.826   1.562  1.4979  0.5245 -0.8672
 2267TIP3    H2 6808   1.964   3.931   1.602 -1.3208  2.4274  1.8474
 2268TIP3   OH2 6809   5.148   2.820   2.506  0.0820  0.2067  0.1543
 2268TIP3    H1 6810   5.103   2.889   2.555  1.6359 -0.0354  2.0859
 2268TIP3    H2 6811   5.098   2.741   2.524 -0.2694  0.3930  0.0067
 2269TIP3   OH2 6812   5.663   1.469   4.162 -0.2899  0.0239 -0.2915
 2269TIP3    H1 6813   5.646   1.379   4.134  0.9961 -0.4632  0.4221
 2269TIP3    H2 6814   5.576   1.507   4.175 -0.9137 -1.9866  2.1265
 2270TIP3   OH2 6815   0.552   2.558   1.958 -0.2201  0.2179  0.6079
 2270TIP3    H1 6816   0.490   2.486   1.963  1.1701 -1.1501 -0.8134
 2270TIP3    H2 6817   0.607   2.547   2.036 -0.2776  0.0155  0.6202
 2271TIP3   OH2 6818   3.475   2.625   4.724  0.0654 -0.4400 -0.5307
 2271TIP3    H1 6819   3.532   2.556   4.690  0.4721  0.2707 -1.3459
 2271TIP3    H2 6820   3.464   2.604   4.816  0.5463 -1.3406 -0.6655
 2272TIP3   OH2 6821   1.884   3.885   1.913 -0.2709 -0.3326  0.0604
 2272TIP3    H1 6822   1.876   3.871   1.819 -0.5072  0.1083  0.0130
 2272TIP3    H2 6823   1.841   3.969   1.929 -0.0908 -0.3263  0.5379
 2273TIP3   OH2 6824   3.429   3.804   2.568 -0.4282  0.0128  0.0751
 2273TIP3    H1 6825   3.376   3.820   2.645 -0.7409 -0.0490 -0.1239
 2273TIP3    H2 6826   3.417   3.710   2.550  0.2247 -0.1313  0.3818
 2274TIP3   OH2 6827   3.417   3.914   4.595 -0.2008  0.3318 -0.1657
 2274TIP3    H1 6828   3.441   3.842   4.653  0.0968 -2.3467 -3.3308
 2274TIP3    H2 6829   3.500   3.954   4.570 -0.0913 -0.3189 -0.8629
 2275TIP3   OH2 6830   1.461   5.010   3.361 -0.3728 -0.3199  0.1652
 2275TIP3    H1 6831   1.534   5.008   3.422 -1.1212 -0.9041  1.0712
 2275TIP3    H2 6832   1.394   5.062   3.404 -0.2053  0.9276 -1.0186
 2276TIP3   OH2 6833   4.149   4.292   3.066 -0.0014 -0.2063  0.1770
 2276TIP3    H1 6834   4.223   4.240   3.036  1.5388  0.0355  3.1436
 2276TIP3    H2 6835   4.091   4.298   2.990  1.0244 -3.8804 -1.0994
 2277TIP3   OH2 6836   3.478   0.951   1.231 -0.1220  0.1945 -0.1564
 2277TIP3    H1 6837   3.564   0.926   1.263 -0.6002  1.0039  1.9304
 2277TIP3    H2 6838   3.417   0.896   1.280 -0.8941  1.4578  0.3532
 2278TIP3   OH2 6839   0.997   2.899   3.444  0.3812  0.5516 -0.1123
 2278TIP3    H1 6840   0.904   2.908   3.468  0.5885  0.2857  0.8163
 2278TIP3    H2 6841   0.996   2.846   3.365 -0.2535  0.4475 -0.0385
 2279TIP3   OH2 6842   1.732   0.057   1.626  0.2357 -0.6055  0.3422
 2279TIP3    H1 6843   1.727   0.069   1.721 -1.2377  1.1739  0.0973
 2279TIP3    H2 6844   1.812   0.103   1.600  1.1242 -1.8595  0.7981
 2280TIP3   OH2 6845   4.174   0.577   3.364  0.0674 -0.6919 -0.2331
 2280TIP3    H1 6846   4.207   0.576   3.275 -2.0252  0.6246 -1.0963
 2280TIP3    H2 6847   4.081   0.599   3.355 -1.1279 -3.9431  1.9908
 2281TIP3   OH2 6848   4.499   1.845   3.101  0.3133 -0.0013 -0.2134
 2281TIP3    H1 6849   4.504   1.876   3.010  0.0027  1.8203  0.3541
 2281TIP3    H2 6850   4.575   1.885   3.143  1.0155 -1.6238  0.1434
 2282TIP3   OH2 6851   4.552   3.866   3.713  0.2216  0.5350  0.4298
 2282TIP3    H1 6852   4.622   3.880   3.649  1.0801  0.1874  1.2644
 2282TIP3    H2 6853   4.569   3.930   3.782  0.4384 -0.3415  1.2149
 2283TIP3   OH2 6854   4.881   4.547   0.517 -0.1402 -0.5114  0.3730
 2283TIP3    H1 6855   4.887   4.628   0.567  0.3785 -0.2965 -0.0157
 2283TIP3    H2 6856   4.959   4.548   0.462 -0.8431 -0.5912 -0.6521
 2284TIP3   OH2 6857   1.767   3.942   0.240 -0.0959  0.4778 -0.1902
 2284TIP3    H1 6858   1.679   3.904   0.233  0.7160 -1.5246 -0.1697
 2284TIP3    H2 6859   1.752   4.036   0.246 -2.1945  0.2414 -0.9887
 2285TIP3   OH2 6860   2.507   5.007   2.394  0.2301  0.5627 -0.3547
 2285TIP3    H1 6861   2.439   5.073   2.410  0.3932  0.2581  1.7842
 2285TIP3    H2 6862   2.573   5.053   2.343  0.0157  1.8595  0.5033
 2286TIP3   OH2 6863   1.974   5.286   1.101 -0.4345  0.0222  0.6376
 2286TIP3    H1 6864   1.943   5.231   1.172 -1.6996 -0.6992 -0.4269
 2286TIP3    H2 6865   2.015   5.225   1.039  0.8129  0.6552  0.8103
 2287TIP3   OH2 6866   0.015   0.978   5.105 -0.3108 -0.4089  0.1713
 2287TIP3    H1 6867   0.067   0.913   5.057  0.6997  1.3419 -1.1990
 2287TIP3    H2 6868  -0.054   0.926   5.147 -0.3902 -2.1990 -1.9976
 2288TIP3   OH2 6869   5.793   3.125   2.720 -0.1629  0.2085  0.2882
 2288TIP3    H1 6870   5.887   3.133   2.731 -0.2434 -0.4971  1.6724
 2288TIP3    H2 6871   5.781   3.043   2.672 -0.1229 -0.6333  1.6634
 2289TIP3   OH2 6872   1.706   5.477   2.187  0.1182 -0.2920  0.1225
 2289TIP3    H1 6873   1.642   5.406   2.181 -0.6682  0.4032  0.1143
 2289TIP3    H2 6874   1.780   5.447   2.134 -0.0144 -1.2910  0.4822
 2290TIP3   OH2 6875   6.056   4.048   2.302 -0.2311 -0.2250 -0.3861
 2290TIP3    H1 6876   6.119   4.120   2.306 -0.3914 -0.1636  2.3175
 2290TIP3    H2 6877   6.083   3.988   2.371 -1.6102 -1.5093 -0.9130
 2291TIP3   OH2 6878   5.241   2.675   2.997 -0.0404  0.2712 -0.2485
 2291TIP3    H1 6879   5.210   2.657   2.908  3.1694  1.2694 -1.7211
 2291TIP3    H2 6880   5.255   2.769   2.999  2.8022 -0.0819  0.2099
 2292TIP3   OH2 6881   5.662   0.569   0.690  0.2965  0.2676  0.2787
 2292TIP3    H1 6882   5.585   0.624   0.675 -0.9558 -1.6643 -0.8113
 2292TIP3    H2 6883   5.669   0.563   0.785 -0.1047  1.5102  0.4040
 2293TIP3   OH2 6884   4.542   5.893   3.323  0.2333  0.0475  0.8424
 2293TIP3    H1 6885   4.554   5.810   3.369 -1.0945  0.0024  1.1420
 2293TIP3    H2 6886   4.619   5.900   3.267 -1.1680 -3.1428 -1.8593
 2294TIP3   OH2 6887   4.150   0.582   1.581  0.3563 -0.1778 -0.4007
 2294TIP3    H1 6888   4.131   0.501   1.628  1.3263  0.6517  1.5381
 2294TIP3    H2 6889   4.207   0.556   1.509  1.6298 -1.0957  0.8941
 2295TIP3   OH2 6890   3.697   4.444   2.615  0.0452  0.1654 -0.1842
 2295TIP3    H1 6891   3.628   4.477   2.673 -0.6643  0.7059 -1.2918
 2295TIP3    H2 6892   3.778   4.476   2.654 -0.5086  1.7427 -0.2240
 2296TIP3   OH2 6893   1.578   1.199   1.235  0.0266 -0.2264  0.3200
 2296TIP3    H1 6894   1.618   1.198   1.322  0.2361 -2.4809  0.2726
 2296TIP3    H2 6895   1.489   1.231   1.249  0.5451  0.9286  1.0922
 2297TIP3   OH2 6896   3.666   0.104   3.737  0.0942  0.3012  0.5136
 2297TIP3    H1 6897   3.635   0.114   3.647 -0.0688 -0.5944  0.4645
 2297TIP3    H2 6898   3.590   0.072   3.786  0.3240  0.2798  0.8660
 2298TIP3   OH2 6899   0.816   4.335   3.753 -0.3166  0.1599  0.4875
 2298TIP3    H1 6900   0.824   4.265   3.817 -0.2621  0.3308  0.6699
 2298TIP3    H2 6901   0.858   4.410   3.795  1.8684 -0.3275 -0.6950
 2299TIP3   OH2 6902   3.201   3.620   3.711  0.2534  0.3158  0.1521
 2299TIP3    H1 6903   3.120   3.596   3.756 -0.6012 -0.0037 -1.4777
 2299TIP3    H2 6904   3.175   3.634   3.620  1.7999  1.5915 -0.1392
 2300TIP3   OH2 6905   4.801   3.100   0.086  0.1524 -0.6324 -0.3511
 2300TIP3    H1 6906   4.750   3.052   0.021  0.9190 -0.6571 -0.9328
 2300TIP3    H2 6907   4.841   3.173   0.038 -1.1625  0.7591  0.5477
 2301TIP3   OH2 6908   5.868   0.061   2.587  0.7017 -0.1553 -0.0919
 2301TIP3    H1 6909   5.902   0.088   2.672  1.6265  1.0661 -0.8051
 2301TIP3    H2 6910   5.940   0.012   2.547 -0.5238 -2.7285  0.6828
 2302TIP3   OH2 6911   3.149   4.261   0.597  0.0527 -0.0157  0.3390
 2302TIP3    H1 6912   3.158   4.208   0.518 -0.2232  0.9107 -0.3354
 2302TIP3    H2 6913   3.084   4.328   0.573 -0.3248  0.0401  1.4811
 2303TIP3   OH2 6914   3.615   3.520   4.531  0.4217  0.4842 -0.2993
 2303TIP3    H1 6915   3.600   3.570   4.611  0.9830  0.9491 -0.4832
 2303TIP3    H2 6916   3.618   3.429   4.560 -1.4339  0.4475 -0.0665
 2304TIP3   OH2 6917   3.132   5.331   3.811 -0.2845  0.1411  0.0710
 2304TIP3    H1 6918   3.118   5.281   3.892  2.0551 -3.4085 -1.4725
 2304TIP3    H2 6919   3.053   5.314   3.759 -0.1772 -0.6720  0.1637
 2305TIP3   OH2 6920   1.119   0.257   1.312  0.2473  0.0771 -0.2351
 2305TIP3    H1 6921   1.167   0.247   1.230 -0.8550 -0.8547 -0.8035
 2305TIP3    H2 6922   1.151   0.185   1.367  0.3896  0.1989 -0.1593
 2306TIP3   OH2 6923   2.326   0.292   1.691  0.5051 -0.1667  0.4390
 2306TIP3    H1 6924   2.352   0.239   1.615 -0.1197 -1.3052  0.9834
 2306TIP3    H2 6925   2.324   0.382   1.658  0.8856 -0.5592 -0.7212
 2307TIP3   OH2 6926   2.986   4.050   1.859 -0.0736 -0.0781  0.6053
 2307TIP3    H1 6927   3.063   4.108   1.858 -0.9285  1.2537 -2.9802
 2307TIP3    H2 6928   3.011   3.976   1.804 -1.0926  0.0435 -0.0445
 2308TIP3   OH2 6929   4.273   1.708   1.012 -0.5330 -0.5526 -0.0379
 2308TIP3    H1 6930   4.278   1.783   1.071  1.7853 -0.4907 -0.2216
 2308TIP3    H2 6931   4.240   1.745   0.930 -2.1776 -0.3225  0.6941
 2309TIP3   OH2 6932   3.840   1.548   0.674  0.0362  0.5667 -0.3833
 2309TIP3    H1 6933   3.745   1.560   0.672 -0.1744 -0.9048 -0.7003
 2309TIP3    H2 6934   3.870   1.604   0.745 -1.0657  1.0889 -0.3088
 2310TIP3   OH2 6935   1.967   5.728   3.404 -0.0641  0.2014  0.0858
 2310TIP3    H1 6936   2.049   5.762   3.368 -1.7928  3.1589 -1.3988
 2310TIP3    H2 6937   1.993   5.685   3.486  3.1132 -0.4378 -1.1131
 2311TIP3   OH2 6938   3.342   1.477   1.651 -0.7575 -0.1608 -0.0282
 2311TIP3    H1 6939   3.336   1.422   1.573  0.0646 -0.1513 -0.1051
 2311TIP3    H2 6940   3.433   1.467   1.680  0.2003  3.1277 -1.4989
 2312TIP3   OH2 6941   1.748   5.287   0.058  0.2239 -0.0732  0.3684
 2312TIP3    H1 6942   1.690   5.253  -0.010  0.9399 -0.5979  0.0034
 2312TIP3    H2 6943   1.800   5.211   0.085  0.3251  0.2535  1.1169
 2313TIP3   OH2 6944   0.778   5.207   1.259 -0.3611 -0.0653 -0.0739
 2313TIP3    H1 6945   0.700   5.261   1.247  0.4478  1.4846  1.3091
 2313TIP3    H2 6946   0.744   5.124   1.293 -1.5030  0.1270 -0.7090
 2314TIP3   OH2 6947   4.859   3.010   3.926  0.0639 -0.1842  0.0553
 2314TIP3    H1 6948   4.898   3.098   3.922  2.2794 -0.9030  2.9389
 2314TIP3    H2 6949   4.804   3.011   4.004 -0.4981 -1.1521 -0.3125
 2315TIP3   OH2 6950   6.018   2.975   2.265 -0.0192  0.2675  0.4139
 2315TIP3    H1 6951   6.108   2.980   2.232  0.9928  0.6859  2.9661
 2315TIP3    H2 6952   6.028   2.958   2.359 -2.6801 -4.3244  0.1407
 2316TIP3   OH2 6953   5.289   4.412   1.756  0.4148 -0.1438  0.1145
 2316TIP3    H1 6954   5.384   4.404   1.768  0.4693  0.0640 -0.1778
 2316TIP3    H2 6955   5.255   4.326   1.779  0.5303  0.1857  1.6064
 2317TIP3   OH2 6956   2.178   2.121   2.394 -0.0337  0.0916 -0.1575
 2317TIP3    H1 6957   2.201   2.070   2.472 -0.4674 -1.3173 -0.9073
 2317TIP3    H2 6958   2.088   2.150   2.409  0.2722  0.8042  0.3452
 2318TIP3   OH2 6959   6.338   4.064   3.328 -0.1266 -0.0889 -0.3842
 2318TIP3    H1 6960   6.271   4.037   3.265 -0.4086 -1.3127  0.3975
 2318TIP3    H2 6961   6.322   4.009   3.405  0.4643  1.0924  0.6084
 2319TIP3   OH2 6962   4.845   5.332   0.970  0.5015 -0.0279 -0.4232
 2319TIP3    H1 6963   4.830   5.425   0.958 -1.0091 -0.1821  0.0109
 2319TIP3    H2 6964   4.939   5.321   0.962  0.6186  1.4115 -1.2654
 2320TIP3   OH2 6965   3.897   5.604   2.547 -0.4627 -0.1210  0.0132
 2320TIP3    H1 6966   3.850   5.619   2.629  0.2365 -1.1757  0.6389
 2320TIP3    H2 6967   3.835   5.556   2.492 -0.7688  0.1571  0.1180
 2321TIP3   OH2 6968   2.586   3.086   5.127  0.6260 -0.0510 -0.2557
 2321TIP3    H1 6969   2.597   3.083   5.032  1.2750  1.7276 -0.2855
 2321TIP3    H2 6970   2.675   3.087   5.162  0.4836  1.7024  0.1982
 2322TIP3   OH2 6971   3.142   3.935   4.241 -0.1610  0.1556  0.3785
 2322TIP3    H1 6972   3.136   3.915   4.334 -1.5783  2.0733  0.7672
 2322TIP3    H2 6973   3.091   3.867   4.198 -1.0811  0.3150  1.1900
 2323TIP3   OH2 6974   3.749   5.277   2.820 -0.4136  0.4891 -0.7229
 2323TIP3    H1 6975   3.839   5.246   2.825 -0.6307  0.0037  0.5345
 2323TIP3    H2 6976   3.705   5.237   2.895 -1.7480  0.5040 -1.4568
 2324TIP3   OH2 6977   4.598   0.635   4.617 -0.4318  0.1787 -0.4172
 2324TIP3    H1 6978   4.645   0.714   4.644 -0.4287  0.2154 -0.5309
 2324TIP3    H2 6979   4.606   0.633   4.522  0.4006 -0.4772 -0.3497
 2325TIP3   OH2 6980   1.191   2.514   0.539  0.1162 -0.1536  0.0803
 2325TIP3    H1 6981   1.224   2.440   0.589 -0.4843  0.1889  1.0085
 2325TIP3    H2 6982   1.169   2.478   0.453 -1.7927 -1.4372  1.0371
 2326TIP3   OH2 6983   3.203   4.835   2.427 -0.5177 -0.6868 -0.0091
 2326TIP3    H1 6984   3.207   4.749   2.469  0.9036 -0.8504 -0.4373
 2326TIP3    H2 6985   3.110   4.860   2.433 -0.8586 -1.9999  0.5969
 2327TIP3   OH2 6986   1.190   5.144   5.012  0.2773 -0.6477  0.3825
 2327TIP3    H1 6987   1.145   5.067   5.046 -1.1940 -0.4111 -0.8886
 2327TIP3    H2 6988   1.228   5.186   5.089 -0.1618 -1.8319  1.2798
 2328TIP3   OH2 6989   3.171   0.244   4.337  0.2214  0.5139 -0.0622
 2328TIP3    H1 6990   3.250   0.239   4.391  1.6302  0.5497 -2.0443
 2328TIP3    H2 6991   3.128   0.325   4.366 -0.2056 -0.5128  2.4256
 2329TIP3   OH2 6992   6.348   1.894   1.627 -0.2690  0.0395  0.0177
 2329TIP3    H1 6993   6.305   1.918   1.710  3.1537  0.8952  1.7222
 2329TIP3    H2 6994   6.376   1.978   1.590  1.3406 -0.5324 -0.1304
 2330TIP3   OH2 6995   4.192   3.731   2.830 -0.3023  0.4401 -0.2578
 2330TIP3    H1 6996   4.264   3.755   2.889  0.8225  0.5084 -1.6233
 2330TIP3    H2 6997   4.158   3.650   2.869  0.8696  0.0959  0.1291
 2331TIP3   OH2 6998   1.390   2.750   1.632  0.4045  0.7633  0.0124
 2331TIP3    H1 6999   1.339   2.830   1.627  0.6818  0.8765 -2.3446
 2331TIP3    H2 7000   1.411   2.729   1.541  0.5999 -1.8367  0.5649
 2332TIP3   OH2 7001   4.848   5.702   4.917  0.0299 -0.1622  0.3508
 2332TIP3    H1 7002   4.895   5.778   4.883  1.9370  0.0354  3.0897
 2332TIP3    H2 7003   4.756   5.728   4.916  0.4408  1.4122 -0.5381
 2333TIP3   OH2 7004   3.952   5.082   4.300  0.7327 -0.3183 -0.6149
 2333TIP3    H1 7005   3.943   5.024   4.225  2.5200 -1.5918  0.0857
 2333TIP3    H2 7006   3.992   5.028   4.368 -0.6493  0.8404  1.2161
 2334TIP3   OH2 7007   1.322   1.873   3.571  0.1988  0.6544 -0.4412
 2334TIP3    H1 7008   1.407   1.833   3.585 -0.2929 -0.0032  0.8804
 2334TIP3    H2 7009   1.259   1.810   3.607 -0.9756  0.5357 -2.5347
 2335TIP3   OH2 7010   0.255   1.125   2.464 -0.3460  0.4138 -0.0391
 2335TIP3    H1 7011   0.348   1.131   2.445  0.0147 -0.5996  1.2044
 2335TIP3    H2 7012   0.214   1.105   2.380  0.5577  0.7969 -0.5821
 2336TIP3   OH2 7013   4.732   5.318   1.652  0.3249  0.0826 -0.0427
 2336TIP3    H1 7014   4.702   5.227   1.664  0.5311 -0.2170 -1.5865
 2336TIP3    H2 7015   4.752   5.324   1.559  0.3302  1.7288  0.0404
 2337TIP3   OH2 7016   1.648   0.172   3.371 -0.4348 -0.2263 -0.1473
 2337TIP3    H1 7017   1.622   0.101   3.313 -0.2463 -1.0649  0.7733
 2337TIP3    H2 7018   1.717   0.134   3.426 -1.5193  0.1154  1.5237
 2338TIP3   OH2 7019   3.090   0.957   4.228  0.2791 -0.3900 -0.0079
 2338TIP3    H1 7020   3.178   0.977   4.260  0.2839 -1.1302  0.4517
 2338TIP3    H2 7021   3.044   1.041   4.230  0.8290 -0.0921  0.2255
 2339TIP3   OH2 7022   4.765   1.982   3.755  0.0417 -0.2871 -0.6194
 2339TIP3    H1 7023   4.810   1.920   3.812 -0.2520  0.5885  0.6267
 2339TIP3    H2 7024   4.834   2.023   3.704  0.5235  0.1476  0.3689
 2340TIP3   OH2 7025   2.929   1.732   1.963  0.0763 -0.0344  0.4533
 2340TIP3    H1 7026   2.921   1.664   2.030  0.3991  0.9664  1.5203
 2340TIP3    H2 7027   2.963   1.685   1.886 -2.9187 -1.7534  0.0208
 2341TIP3   OH2 7028   1.772   4.820   2.834  0.4206 -0.5967 -0.2235
 2341TIP3    H1 7029   1.823   4.793   2.758  0.4145 -0.6466 -0.2099
 2341TIP3    H2 7030   1.724   4.742   2.860 -0.3467 -0.3238 -0.7799
 2342TIP3   OH2 7031   4.400   1.036   0.828 -0.3253  0.7798 -0.3885
 2342TIP3    H1 7032   4.433   0.990   0.751  1.1604 -0.3577  0.8702
 2342TIP3    H2 7033   4.422   1.128   0.813 -1.7872  0.8919 -2.1502
 2343TIP3   OH2 7034   3.987   3.578   4.223 -0.1059  0.5543  0.0306
 2343TIP3    H1 7035   3.954   3.524   4.151  1.6305 -1.1900  0.4361
 2343TIP3    H2 7036   4.002   3.664   4.185 -1.5205  0.3538 -1.0399
 2344TIP3   OH2 7037   0.084   2.072   1.174  0.0094  0.5124  0.0036
 2344TIP3    H1 7038  -0.006   2.072   1.143  0.1050 -2.1549 -0.5270
 2344TIP3    H2 7039   0.105   2.164   1.188 -2.4198  1.2757 -0.9021
 2345TIP3   OH2 7040   5.884   0.329   3.779 -0.0356  0.3365 -0.1091
 2345TIP3    H1 7041   5.978   0.338   3.794 -0.3882  2.1190  1.3760
 2345TIP3    H2 7042   5.855   0.416   3.752 -1.2802 -0.1794 -0.5424
 2346TIP3   OH2 7043   0.100   0.568   0.648  0.5884  0.0848  0.0237
 2346TIP3    H1 7044   0.119   0.515   0.726 -2.7906 -1.9842 -0.3269
 2346TIP3    H2 7045   0.102   0.505   0.576 -0.3148  1.1193 -0.9333
 2347TIP3   OH2 7046   0.253   4.916   2.580  0.5302 -0.6037  0.2592
 2347TIP3    H1 7047   0.339   4.957   2.574  1.0416 -1.1198  3.0221
 2347TIP3    H2 7048   0.195   4.985   2.612  0.2097 -0.6501 -0.2027
 2348TIP3   OH2 7049   6.155   4.584   2.695 -0.1430  0.4469 -0.0831
 2348TIP3    H1 7050   6.237   4.545   2.664 -0.7032  0.9901 -2.4233
 2348TIP3    H2 7051   6.109   4.512   2.739  1.1531 -0.0895  0.4502
 2349TIP3   OH2 7052   0.182   3.355   4.163  0.4059  0.6776  0.4611
 2349TIP3    H1 7053   0.271   3.384   4.146  0.7092 -1.3475 -1.9867
 2349TIP3    H2 7054   0.131   3.391   4.090  0.2409 -2.1262 -0.9320
 2350TIP3   OH2 7055   0.759   2.061   3.838 -0.0923  0.0498  0.2744
 2350TIP3    H1 7056   0.800   1.975   3.836  1.1137  0.6090 -0.7568
 2350TIP3    H2 7057   0.668   2.045   3.810  0.1030 -0.8837  0.1543
 2351TIP3   OH2 7058   4.296   5.855   3.959 -0.7046  0.1143 -0.6594
 2351TIP3    H1 7059   4.216   5.821   3.918 -0.0900 -2.3222  0.0213
 2351TIP3    H2 7060   4.299   5.812   4.044 -0.1558  2.4553  0.5894
 2352TIP3   OH2 7061   5.687   5.116   4.747  0.5969  0.3684  0.2567
 2352TIP3    H1 7062   5.615   5.132   4.686 -0.4937  1.0419  1.6643
 2352TIP3    H2 7063   5.690   5.021   4.755  0.8772  0.2608 -0.9699
 2353TIP3   OH2 7064   6.235   5.791   2.136 -0.4518 -0.3491 -0.2197
 2353TIP3    H1 7065   6.141   5.806   2.142 -0.1970  0.9390  1.0208
 2353TIP3    H2 7066   6.273   5.844   2.206  1.2617 -0.2411 -1.1563
 2354TIP3   OH2 7067   3.272   1.294   3.725  0.1332 -0.2716 -0.2332
 2354TIP3    H1 7068   3.307   1.286   3.636 -0.2825 -0.2974 -0.4003
 2354TIP3    H2 7069   3.250   1.204   3.750  0.8265 -0.3383  0.1379
 2355TIP3   OH2 7070   1.681   5.553   4.218  0.1823 -0.1780 -0.2788
 2355TIP3    H1 7071   1.600   5.568   4.169 -0.2682 -0.8392  0.2482
 2355TIP3    H2 7072   1.720   5.640   4.226 -0.9348  0.3059  0.2378
 2356TIP3   OH2 7073   4.547   2.418   3.177  0.2746  0.1918 -0.4687
 2356TIP3    H1 7074   4.546   2.433   3.083 -2.4875  0.1670 -0.5346
 2356TIP3    H2 7075   4.533   2.504   3.215 -0.8503 -0.0788 -0.2210
 2357TIP3   OH2 7076   0.839   4.236   0.477 -0.1944  0.7706  0.2352
 2357TIP3    H1 7077   0.857   4.310   0.419  0.6219  0.0256 -0.4960
 2357TIP3    H2 7078   0.926   4.211   0.510 -0.4447  0.0443  0.3506
 2358TIP3   OH2 7079   0.447   3.579   1.098 -0.3926  0.4962  0.4288
 2358TIP3    H1 7080   0.404   3.531   1.028  0.9821  0.0538 -0.1349
 2358TIP3    H2 7081   0.540   3.560   1.087  0.0641  2.2668  0.9730
 2359TIP3   OH2 7082   0.338   3.960   1.656  0.0426  0.1706 -0.4025
 2359TIP3    H1 7083   0.415   4.015   1.642 -0.5668  1.7542  1.8890
 2359TIP3    H2 7084   0.265   4.012   1.620 -0.3654  0.2661  0.5453
 2360TIP3   OH2 7085   5.027   5.513   3.265 -0.3536  0.4332 -0.4498
 2360TIP3    H1 7086   5.004   5.478   3.180  0.1784  0.7094 -0.7129
 2360TIP3    H2 7087   5.123   5.509   3.268 -0.4048 -1.9990  1.1718
 2361TIP3   OH2 7088   3.065   4.873   4.099 -0.0588 -0.2479 -0.2505
 2361TIP3    H1 7089   3.021   4.922   4.169 -0.9111 -0.6199 -0.5108
 2361TIP3    H2 7090   3.150   4.848   4.137  0.0142  0.6335  0.1980
 2362TIP3   OH2 7091   1.935   4.658   1.299  0.1866 -0.0850 -0.1011
 2362TIP3    H1 7092   1.956   4.680   1.208 -1.4031  1.9852 -0.0611
 2362TIP3    H2 7093   1.870   4.588   1.292  0.8459 -0.6661 -0.5070
 2363TIP3   OH2 7094   2.110   1.042   3.203 -0.3572 -0.3311 -0.6197
 2363TIP3    H1 7095   2.146   1.130   3.212 -0.8329 -0.0743 -1.1352
 2363TIP3    H2 7096   2.186   0.984   3.207 -0.0376  0.1009 -0.3075
 2364TIP3   OH2 7097   0.760   4.720   0.558  0.0494 -0.9253 -0.7187
 2364TIP3    H1 7098   0.759   4.815   0.566  1.7960 -0.9471 -0.0686
 2364TIP3    H2 7099   0.737   4.704   0.466  0.3471  0.1480 -0.9934
 2365TIP3   OH2 7100   3.878   5.282   5.027  0.5162  0.2761 -0.0023
 2365TIP3    H1 7101   3.808   5.236   4.981  0.6277  0.3861 -0.2814
 2365TIP3    H2 7102   3.916   5.215   5.085 -0.1547  0.3463  0.5382
 2366TIP3   OH2 7103   4.222   4.181   3.743  0.1130  0.6307  0.7261
 2366TIP3    H1 7104   4.265   4.162   3.660 -0.1132  3.1859 -0.0740
 2366TIP3    H2 7105   4.260   4.119   3.805  0.1495 -1.4895 -1.2875
 2367TIP3   OH2 7106   3.437   0.754   2.847  0.0028 -0.1726  0.1588
 2367TIP3    H1 7107   3.395   0.834   2.816 -0.8138 -1.5190 -2.5624
 2367TIP3    H2 7108   3.364   0.694   2.865  0.6313 -1.1037 -0.3145
 2368TIP3   OH2 7109   3.833   2.735   0.030  0.0977  0.3361 -0.1834
 2368TIP3    H1 7110   3.909   2.764   0.081  0.5066 -1.8598  0.6026
 2368TIP3    H2 7111   3.828   2.641   0.048 -2.0647  0.1999 -1.2357
 2369TIP3   OH2 7112   2.653   5.935   2.645  0.4913 -0.3480 -0.4606
 2369TIP3    H1 7113   2.687   5.998   2.582 -1.8041 -0.2788 -1.7811
 2369TIP3    H2 7114   2.588   5.885   2.595 -1.1448 -0.5865  1.7472
 2370TIP3   OH2 7115   5.490   5.550   3.536 -0.1821  0.0391  0.2391
 2370TIP3    H1 7116   5.451   5.463   3.549 -2.2419  1.0168  0.8992
 2370TIP3    H2 7117   5.577   5.531   3.501 -0.4199 -2.3050  0.7280
 2371TIP3   OH2 7118   5.808   5.572   4.590 -0.2005  0.0214 -0.9010
 2371TIP3    H1 7119   5.892   5.534   4.618 -0.0487  0.7986 -0.2775
 2371TIP3    H2 7120   5.746   5.546   4.658  0.1149  1.7025  0.0663
 2372TIP3   OH2 7121   1.643   1.527   0.481 -0.3027  0.0568 -0.0292
 2372TIP3    H1 7122   1.631   1.591   0.552 -2.1592 -0.7224  0.4225
 2372TIP3    H2 7123   1.643   1.442   0.525  1.4547 -0.3255 -0.6976
 2373TIP3   OH2 7124   3.135   5.989   0.092  0.0962  0.2825  0.1897
 2373TIP3    H1 7125   3.190   5.913   0.074  1.5889  1.3738  0.0034
 2373TIP3    H2 7126   3.093   6.008   0.008  0.3662  0.1796  0.0313
 2374TIP3   OH2 7127   3.237   0.269   5.006  0.0100 -0.3037  0.4819
 2374TIP3    H1 7128   3.209   0.201   5.067  2.4482 -1.7041  0.1964
 2374TIP3    H2 7129   3.195   0.246   4.923  0.6758 -1.3957  0.4315
 2375TIP3   OH2 7130   1.567   0.635   2.001  0.2003  0.1457 -0.2522
 2375TIP3    H1 7131   1.541   0.640   2.093  1.9293  0.0164  0.2834
 2375TIP3    H2 7132   1.508   0.570   1.963 -0.2020 -0.1870  0.8941
 2376TIP3   OH2 7133   4.549   1.695   5.015  0.0011  0.5704  0.4698
 2376TIP3    H1 7134   4.581   1.762   4.954 -0.9089  0.6475  0.0633
 2376TIP3    H2 7135   4.503   1.745   5.083 -0.1456  0.3968  0.4981
 2377TIP3   OH2 7136   4.565   4.788   3.455 -0.4945 -0.4149  0.1887
 2377TIP3    H1 7137   4.602   4.700   3.443  1.2430  0.0943  1.4605
 2377TIP3    H2 7138   4.605   4.820   3.535 -0.0323  2.0756 -0.9447
 2378TIP3   OH2 7139   6.302   3.354   2.588  0.2610 -0.2741  0.1164
 2378TIP3    H1 7140   6.371   3.417   2.571  1.3978 -1.5329 -0.1407
 2378TIP3    H2 7141   6.333   3.273   2.546  0.0605 -1.6850  2.5212
 2379TIP3   OH2 7142   3.752   1.968   4.408 -0.4084 -0.1385 -0.0282
 2379TIP3    H1 7143   3.721   1.898   4.350  1.0829 -1.0125  0.1441
 2379TIP3    H2 7144   3.692   2.041   4.393 -2.5259 -1.7132  0.3793
 2380TIP3   OH2 7145   1.461   1.204   4.900  0.0729  0.0858  0.5200
 2380TIP3    H1 7146   1.450   1.118   4.860  0.7052  0.6634 -0.9627
 2380TIP3    H2 7147   1.379   1.220   4.947 -0.9357 -0.3975 -1.0167
 2381TIP3   OH2 7148   5.509   2.581   2.988  0.7309 -0.0622 -0.0069
 2381TIP3    H1 7149   5.554   2.663   3.010  1.2270 -0.7829  1.8331
 2381TIP3    H2 7150   5.417   2.605   2.981  1.1080  1.0336 -1.6682
 2382TIP3   OH2 7151   5.668   0.339   3.283 -0.2969 -0.5777  0.4235
 2382TIP3    H1 7152   5.576   0.341   3.308 -0.2716 -3.3752  1.0967
 2382TIP3    H2 7153   5.712   0.300   3.359  1.5507  1.0255  0.2629
 2383TIP3   OH2 7154   3.523   1.988   4.670  0.2957  0.8588 -0.5709
 2383TIP3    H1 7155   3.463   1.929   4.717  1.7552  1.0930  1.7476
 2383TIP3    H2 7156   3.466   2.050   4.626 -1.2107  0.2734  0.4702
 2384TIP3   OH2 7157   0.661   5.241   0.320  0.3353 -0.4363  0.2507
 2384TIP3    H1 7158   0.592   5.282   0.372 -0.7481 -0.3021 -1.2216
 2384TIP3    H2 7159   0.635   5.149   0.313  0.4773 -0.4591 -0.0298
 2385TIP3   OH2 7160   5.184   5.306   2.743 -0.4344 -0.3469  0.3046
 2385TIP3    H1 7161   5.153   5.315   2.653 -0.3231  0.4409  0.3384
 2385TIP3    H2 7162   5.248   5.377   2.753 -1.4989  0.4809  1.4551
 2386TIP3   OH2 7163   2.643   3.330   2.789 -0.1303 -0.3030  0.0412
 2386TIP3    H1 7164   2.663   3.367   2.703  2.0793  1.0559  1.0187
 2386TIP3    H2 7165   2.580   3.391   2.827  1.2555  0.9335  0.4995
 2387TIP3   OH2 7166   3.889   3.283   2.077 -0.0958 -0.2435 -0.1388
 2387TIP3    H1 7167   3.843   3.204   2.106  0.2608 -0.5844 -0.4722
 2387TIP3    H2 7168   3.957   3.250   2.018 -1.2015  0.4538 -1.8700
 2388TIP3   OH2 7169   1.991   5.599   1.365 -0.4481  0.5344  0.5640
 2388TIP3    H1 7170   1.922   5.665   1.357 -0.2338  0.6107 -0.9499
 2388TIP3    H2 7171   2.051   5.619   1.293 -0.1117 -1.0089  0.3889
 2389TIP3   OH2 7172   6.181   4.589   4.027 -0.0085 -0.0040 -0.1642
 2389TIP3    H1 7173   6.174   4.640   4.108 -3.2182  0.1502 -0.4075
 2389TIP3    H2 7174   6.242   4.639   3.972  1.6864  0.2527  1.8466
 2390TIP3   OH2 7175   1.408   2.803   0.725  0.1803  0.0063  0.1494
 2390TIP3    H1 7176   1.396   2.783   0.632 -0.8984  0.2805  0.2169
 2390TIP3    H2 7177   1.457   2.728   0.759  2.2221  0.7213 -0.9806
 2391TIP3   OH2 7178   0.411   0.277   1.399  0.4201  0.2876  0.6968
 2391TIP3    H1 7179   0.435   0.364   1.367  0.2085  0.2021  0.2955
 2391TIP3    H2 7180   0.435   0.278   1.492 -0.3976  1.0812  0.9136
 2392TIP3   OH2 7181   1.638   5.207   1.404 -0.1083 -0.2444 -0.0850
 2392TIP3    H1 7182   1.707   5.148   1.435  0.1123  0.2896  0.4555
 2392TIP3    H2 7183   1.620   5.264   1.478  1.8334  2.3834 -1.4372
 2393TIP3   OH2 7184   0.770   1.661   3.651 -0.3269 -0.5727  0.4082
 2393TIP3    H1 7185   0.747   1.572   3.623  0.4185 -0.0172 -2.3210
 2393TIP3    H2 7186   0.781   1.710   3.569  2.4173  1.2511  1.6887
 2394TIP3   OH2 7187   4.135   5.712   3.445  0.2362  0.4076 -0.0623
 2394TIP3    H1 7188   4.058   5.700   3.501 -1.2132  0.9118 -1.8490
 2394TIP3    H2 7189   4.155   5.624   3.413 -0.7023  0.5055 -0.9550
 2395TIP3   OH2 7190   5.115   1.600   3.595 -0.2523 -0.3726 -0.5333
 2395TIP3    H1 7191   5.147   1.685   3.625  2.5867 -1.0705 -1.3152
 2395TIP3    H2 7192   5.115   1.545   3.674 -0.9255  0.0046 -0.2632
 2396TIP3   OH2 7193   0.357   0.760   1.051 -0.1806  0.0428  0.3344
 2396TIP3    H1 7194   0.352   0.766   1.147  0.3762 -1.3466  0.4797
 2396TIP3    H2 7195   0.451   0.750   1.033 -0.4294 -1.7684 -0.1767
 2397TIP3   OH2 7196   1.897   4.931   0.506  0.2035  0.0217 -0.4738
 2397TIP3    H1 7197   1.914   5.018   0.543 -1.7486 -0.1158  0.9532
 2397TIP3    H2 7198   1.824   4.945   0.446  0.0899 -0.5751 -0.4777
 2398TIP3   OH2 7199   1.890   4.929   1.960 -0.0760 -0.4405 -0.1186
 2398TIP3    H1 7200   1.923   4.865   1.897 -1.7315 -0.6645 -0.8227
 2398TIP3    H2 7201   1.879   4.879   2.041  2.9799  0.0682  0.7360
 2399TIP3   OH2 7202   5.023   4.607   0.906 -0.1684  0.3895  0.2873
 2399TIP3    H1 7203   5.069   4.646   0.832 -0.1725  0.2890  0.2319
 2399TIP3    H2 7204   5.078   4.629   0.982  0.9281 -1.2391  0.0204
 2400TIP3   OH2 7205   2.296   2.623   1.629 -0.7269 -0.6811 -0.2872
 2400TIP3    H1 7206   2.261   2.540   1.659 -0.1850 -0.5777  0.6389
 2400TIP3    H2 7207   2.340   2.603   1.547 -3.5284 -0.7066 -1.9346
 2401TIP3   OH2 7208   2.172   3.098   0.126  0.5368 -0.1599 -0.5049
 2401TIP3    H1 7209   2.144   3.145   0.047 -0.5883  2.4097  1.2763
 2401TIP3    H2 7210   2.234   3.157   0.168 -0.1351 -0.6855  1.3113
 2402TIP3   OH2 7211   2.446   0.043   1.925 -0.0876 -0.0714  0.3747
 2402TIP3    H1 7212   2.369   0.033   1.869  0.1057 -1.7379  0.3796
 2402TIP3    H2 7213   2.451  -0.038   1.975  1.6026  0.0700  0.4851
 2403TIP3   OH2 7214   1.167   2.992   2.154  0.4390 -0.3320  0.0038
 2403TIP3    H1 7215   1.155   3.067   2.096 -1.1267 -1.0105 -0.6058
 2403TIP3    H2 7216   1.197   2.922   2.097  0.1180 -0.6556  0.2273
 2404TIP3   OH2 7217   6.361   5.368   1.648 -0.6253  0.6745 -0.0867
 2404TIP3    H1 7218   6.309   5.294   1.680  1.4543 -1.1559 -0.6849
 2404TIP3    H2 7219   6.351   5.435   1.715 -1.7978 -0.5291  0.9933
 2405TIP3   OH2 7220   4.808   3.693   3.661 -0.1013  0.3364  0.1942
 2405TIP3    H1 7221   4.805   3.598   3.666 -2.4592  0.2105 -1.9776
 2405TIP3    H2 7222   4.768   3.715   3.577 -1.2781  3.3255  1.3850
 2406TIP3   OH2 7223   3.005   0.094   3.645 -0.0288 -0.3308  0.4829
 2406TIP3    H1 7224   2.991   0.175   3.694  2.2270 -0.3104  1.2274
 2406TIP3    H2 7225   3.009   0.121   3.554  1.1154  0.4923  0.7591
 2407TIP3   OH2 7226   0.770   1.332   3.984 -0.0695 -0.8456 -0.0223
 2407TIP3    H1 7227   0.719   1.413   3.992 -0.5340 -0.9800 -1.4355
 2407TIP3    H2 7228   0.850   1.350   4.034 -0.3906  0.3066  0.1100
 2408TIP3   OH2 7229   3.882   0.141   4.921  0.0062 -0.8102  0.0980
 2408TIP3    H1 7230   3.817   0.089   4.873  0.1532 -0.9820  0.0892
 2408TIP3    H2 7231   3.835   0.172   4.998 -0.6237  0.5119 -0.7768
 2409TIP3   OH2 7232   4.986   5.827   2.017  0.3020  0.7072  0.0308
 2409TIP3    H1 7233   4.931   5.834   1.939 -0.9578 -0.1466  0.8092
 2409TIP3    H2 7234   4.939   5.878   2.084  1.8908  2.3187  0.0096
 2410TIP3   OH2 7235   0.944   3.530   1.412 -0.1336 -0.1344  0.3681
 2410TIP3    H1 7236   0.997   3.606   1.392  1.0552 -0.8050  0.8674
 2410TIP3    H2 7237   0.988   3.457   1.367 -0.0217 -0.8721  1.6226
 2411TIP3   OH2 7238   2.664   1.366   0.707 -0.4950  0.1780  0.6392
 2411TIP3    H1 7239   2.617   1.396   0.785 -1.0649  3.6699 -0.8454
 2411TIP3    H2 7240   2.600   1.375   0.636  0.9544  0.1745 -0.7145
 2412TIP3   OH2 7241   5.177   3.365   0.928 -0.6043 -0.1091 -0.5224
 2412TIP3    H1 7242   5.180   3.441   0.870  0.0637  0.4287  0.1997
 2412TIP3    H2 7243   5.235   3.301   0.886  0.3015  0.4760 -0.1953
 2413TIP3   OH2 7244   2.785   0.773   3.047  0.0014  0.1110 -0.1458
 2413TIP3    H1 7245   2.780   0.768   2.951 -0.8929 -0.1628 -0.0890
 2413TIP3    H2 7246   2.823   0.860   3.064  0.5587 -0.0036 -0.7532
 2414TIP3   OH2 7247   0.684   5.393   3.395 -0.5573 -0.5477  0.2294
 2414TIP3    H1 7248   0.741   5.466   3.420 -0.0087 -0.6113 -0.7804
 2414TIP3    H2 7249   0.595   5.428   3.403 -0.2904  0.3132 -0.4659
 2415TIP3   OH2 7250   0.257   0.704   2.854 -0.2031 -0.3728 -0.3160
 2415TIP3    H1 7251   0.343   0.744   2.845 -1.3199  1.8370 -2.0643
 2415TIP3    H2 7252   0.235   0.716   2.946 -0.6050  3.5749 -0.7693
 2416TIP3   OH2 7253   5.939   1.640   2.004  0.5919  0.7996 -0.2557
 2416TIP3    H1 7254   5.962   1.727   1.969  0.4717  0.9760  0.1018
 2416TIP3    H2 7255   6.016   1.614   2.055  0.4737  0.8677 -0.0419
 2417TIP3   OH2 7256   4.654   4.903   0.767 -0.4037  0.0351 -0.7245
 2417TIP3    H1 7257   4.592   4.876   0.834  0.9341 -0.7107  0.2488
 2417TIP3    H2 7258   4.603   4.906   0.686 -1.9719  0.6608  0.2556
 2418TIP3   OH2 7259   1.784   4.155   4.196  0.4067 -0.0747 -0.0319
 2418TIP3    H1 7260   1.737   4.084   4.152 -0.5455  0.0183  0.7802
 2418TIP3    H2 7261   1.873   4.151   4.161 -0.1899 -0.2828 -1.6003
 2419TIP3   OH2 7262   0.776   1.747   4.641  0.0019 -0.5135  0.7104
 2419TIP3    H1 7263   0.747   1.722   4.554 -0.0928  2.5463 -0.2750
 2419TIP3    H2 7264   0.872   1.754   4.634 -0.0944  0.8931  0.4318
 2420TIP3   OH2 7265   6.168   1.245   2.507 -0.4960  0.2701 -0.3663
 2420TIP3    H1 7266   6.100   1.304   2.475  0.9017  1.8706 -0.4612
 2420TIP3    H2 7267   6.183   1.272   2.598 -1.1304 -1.1894  0.2190
 2421TIP3   OH2 7268   3.883   4.115   2.093  0.1592  0.1107 -0.8405
 2421TIP3    H1 7269   3.823   4.181   2.127 -0.4472 -1.4562  1.2942
 2421TIP3    H2 7270   3.833   4.069   2.026 -0.1851  0.3522 -0.7525
 2422TIP3   OH2 7271   0.198   1.715   5.162 -0.6501  0.5135 -0.0115
 2422TIP3    H1 7272   0.182   1.679   5.249 -0.8076  2.0939  0.6335
 2422TIP3    H2 7273   0.111   1.730   5.125 -0.5857  0.2662 -0.2712
 2423TIP3   OH2 7274   3.880   3.442   1.052 -0.0839 -0.1806 -0.1127
 2423TIP3    H1 7275   3.862   3.444   1.146  1.7923  3.4471  0.3418
 2423TIP3    H2 7276   3.794   3.435   1.011 -0.9672 -1.4501  1.8386
 2424TIP3   OH2 7277   3.668   1.495   0.151  0.1754 -0.5323 -0.1278
 2424TIP3    H1 7278   3.751   1.497   0.103 -1.0614 -0.1906 -2.4335
 2424TIP3    H2 7279   3.660   1.583   0.188 -0.1964  0.2660 -1.9567
 2425TIP3   OH2 7280   3.247   4.733   0.354 -0.6114  0.0637  0.7784
 2425TIP3    H1 7281   3.298   4.815   0.358  0.5757 -0.5629 -0.4781
 2425TIP3    H2 7282   3.162   4.760   0.321  0.5355  0.5555 -2.0647
 2426TIP3   OH2 7283   0.396   2.401   4.281  0.0613 -0.4889 -0.3000
 2426TIP3    H1 7284   0.396   2.495   4.298  1.4837 -0.5240 -0.0302
 2426TIP3    H2 7285   0.434   2.392   4.194 -0.6423 -0.7850 -0.5845
 2427TIP3   OH2 7286   5.104   5.901   0.744  0.6422  0.4307  0.6573
 2427TIP3    H1 7287   5.111   5.818   0.697  0.3355  0.8981 -0.2471
 2427TIP3    H2 7288   5.014   5.901   0.777  0.7178  0.2991  0.8658
 2428TIP3   OH2 7289   4.481   0.687   0.757 -0.1040  0.1588 -0.3891
 2428TIP3    H1 7290   4.518   0.728   0.835 -0.5480  0.4167 -0.3094
 2428TIP3    H2 7291   4.500   0.750   0.686  1.1126 -0.4907 -0.6761
 2429TIP3   OH2 7292   0.942   0.072   5.171  0.1211 -0.1373 -0.0269
 2429TIP3    H1 7293   0.924   0.035   5.085  0.4662  0.1878 -0.2452
 2429TIP3    H2 7294   0.987   0.155   5.152  0.4610 -0.2048  0.4685
 2430TIP3   OH2 7295   1.447   2.856   5.034  0.0885  0.7166 -0.3975
 2430TIP3    H1 7296   1.514   2.831   4.970 -0.6190  0.4306 -1.0491
 2430TIP3    H2 7297   1.495   2.900   5.104  1.1586 -0.9316 -0.0547
 2431TIP3   OH2 7298   6.278   5.473   0.975  0.3848  0.2203 -0.3475
 2431TIP3    H1 7299   6.355   5.529   0.969  0.3539  0.2750 -0.2267
 2431TIP3    H2 7300   6.224   5.497   0.899  0.0055  0.9020  0.1298
 2432TIP3   OH2 7301   0.971   5.074   2.779  0.0605 -0.5970  0.5875
 2432TIP3    H1 7302   1.034   5.078   2.851  1.2240  0.7169 -0.4420
 2432TIP3    H2 7303   0.897   5.127   2.808  0.4444 -0.2349  0.9188
 2433TIP3   OH2 7304   2.169   3.430   2.538 -0.2278  0.8183 -0.3238
 2433TIP3    H1 7305   2.118   3.350   2.535 -1.2625  1.4477  0.0580
 2433TIP3    H2 7306   2.230   3.417   2.611  1.9358 -0.9333 -2.3083
 2434TIP3   OH2 7307   4.564   4.774   4.503  0.1165 -0.1686  0.0488
 2434TIP3    H1 7308   4.552   4.758   4.409 -2.6114 -0.7833  0.4319
 2434TIP3    H2 7309   4.545   4.867   4.514 -0.4706 -0.2945  0.1113
 2435TIP3   OH2 7310   6.251   0.975   2.536  0.5813  0.3644  0.2396
 2435TIP3    H1 7311   6.183   0.968   2.604 -0.5462 -1.7466 -0.9851
 2435TIP3    H2 7312   6.244   1.064   2.504 -1.9345  0.1133 -0.1116
 2436TIP3   OH2 7313   4.323   5.535   2.442  0.2162 -0.0372 -0.2864
 2436TIP3    H1 7314   4.359   5.449   2.420  0.4745  0.0445 -0.1844
 2436TIP3    H2 7315   4.296   5.527   2.534  2.3817  0.6831  0.4771
 2437TIP3   OH2 7316   0.479   4.729   0.909  0.1397 -0.4620 -0.1063
 2437TIP3    H1 7317   0.503   4.742   1.001 -1.3015 -2.3309  0.5788
 2437TIP3    H2 7318   0.530   4.796   0.862  0.1795  1.1984  2.1228
 2438TIP3   OH2 7319   6.068   5.994   3.461  0.0464  0.0785 -0.1434
 2438TIP3    H1 7320   6.154   5.958   3.440 -0.1331 -0.5383  0.1478
 2438TIP3    H2 7321   6.011   5.917   3.467 -0.2992  0.3917  0.6925
 2439TIP3   OH2 7322   1.552   1.865   3.312 -0.6061 -0.0321 -0.1764
 2439TIP3    H1 7323   1.556   1.778   3.272  0.5723  0.9052 -2.2699
 2439TIP3    H2 7324   1.541   1.848   3.406  1.7692 -2.4706 -0.2204
 2440TIP3   OH2 7325   1.958   3.035   4.761  0.1730 -0.1303  0.2369
 2440TIP3    H1 7326   1.920   3.114   4.722 -0.7166 -0.7015 -0.0702
 2440TIP3    H2 7327   1.883   2.988   4.797  0.8496 -0.1392  1.7284
 2441TIP3   OH2 7328   5.748   1.663   2.613  0.4292  0.2516 -0.5255
 2441TIP3    H1 7329   5.728   1.571   2.628 -2.4121  1.1013  2.0501
 2441TIP3    H2 7330   5.835   1.675   2.649  0.1835 -1.1595  0.6338
 2442TIP3   OH2 7331   0.776   4.475   4.384  0.3490  0.1231 -0.3142
 2442TIP3    H1 7332   0.682   4.478   4.402  0.6313 -1.4821  1.9655
 2442TIP3    H2 7333   0.806   4.565   4.395 -0.8929  0.6374 -0.9791
 2443TIP3   OH2 7334   5.258   3.975   4.532 -0.0137 -0.0441  0.3910
 2443TIP3    H1 7335   5.352   3.963   4.520  0.3242  2.2158  0.4213
 2443TIP3    H2 7336   5.223   3.978   4.443 -0.1268 -1.0941  0.3808
 2444TIP3   OH2 7337   2.958   3.201   0.843 -0.4106 -0.4997  0.1805
 2444TIP3    H1 7338   2.930   3.289   0.870  0.4796  0.3541 -1.5462
 2444TIP3    H2 7339   2.952   3.201   0.748 -0.8424 -2.4995  0.1567
 2445TIP3   OH2 7340   6.140   1.196   4.057  0.0343  0.1458 -0.1301
 2445TIP3    H1 7341   6.211   1.260   4.053 -0.4283  0.8371  1.5443
 2445TIP3    H2 7342   6.167   1.135   4.126  0.0754 -0.9878 -1.1264
 2446TIP3   OH2 7343   6.014   3.886   3.944 -0.0393  0.1042 -0.0384
 2446TIP3    H1 7344   5.987   3.907   4.034  0.8940 -0.2389  0.3390
 2446TIP3    H2 7345   6.037   3.793   3.947 -0.0206  0.0892 -0.6371
 2447TIP3   OH2 7346   4.787   5.211   5.151  0.3831  0.6020  0.1861
 2447TIP3    H1 7347   4.845   5.257   5.090  0.0146 -0.8523 -1.3592
 2447TIP3    H2 7348   4.721   5.276   5.175  1.6181  1.7605  0.5624
 2448TIP3   OH2 7349   0.097   2.897   0.597 -0.1937 -0.6278 -0.1857
 2448TIP3    H1 7350   0.037   2.857   0.661 -0.8655 -2.5263 -1.8705
 2448TIP3    H2 7351   0.172   2.838   0.595  0.2062 -0.1111 -0.5241
 2449TIP3   OH2 7352   0.552   0.197   2.098 -0.6100  0.5539  0.1613
 2449TIP3    H1 7353   0.463   0.228   2.079 -0.0748  1.4177 -1.0930
 2449TIP3    H2 7354   0.608   0.271   2.078  0.6905 -0.9817 -2.4486
 2450TIP3   OH2 7355   2.281   0.903   4.127 -0.1327  0.1390  0.2413
 2450TIP3    H1 7356   2.227   0.958   4.070  0.2362  0.8099  0.5215
 2450TIP3    H2 7357   2.246   0.815   4.116 -1.2701  0.5493  0.3825
 2451TIP3   OH2 7358   3.182   5.651   4.367 -0.2394 -0.0447  0.0290
 2451TIP3    H1 7359   3.259   5.633   4.421  1.1550  3.8007 -0.3406
 2451TIP3    H2 7360   3.117   5.685   4.429 -0.7026 -0.7868 -0.0334
 2452TIP3   OH2 7361   0.353   4.396   2.012 -0.1512  0.0384  0.1204
 2452TIP3    H1 7362   0.442   4.388   2.046  0.1654  0.3431 -0.6135
 2452TIP3    H2 7363   0.308   4.453   2.074  0.1383 -0.1868  0.5403
 2453TIP3   OH2 7364   1.043   3.410   2.173 -0.4565 -0.0574 -0.0053
 2453TIP3    H1 7365   1.001   3.465   2.107 -0.6560 -0.1716  0.0256
 2453TIP3    H2 7366   0.977   3.343   2.194 -0.0431 -0.5914 -0.3932
 2454TIP3   OH2 7367   4.540   2.911   1.199 -0.7263  0.1253 -0.4738
 2454TIP3    H1 7368   4.501   2.827   1.222  0.1247 -0.2670 -0.4347
 2454TIP3    H2 7369   4.583   2.895   1.115  0.2455  0.2527 -0.0174
 2455TIP3   OH2 7370   4.332   2.880   4.186 -0.2813  0.2568 -0.7918
 2455TIP3    H1 7371   4.336   2.965   4.229 -0.6293 -0.1601  0.0909
 2455TIP3    H2 7372   4.250   2.881   4.137 -0.0556  0.5994 -1.1711
 2456TIP3   OH2 7373   0.713   0.814   4.663 -0.1080 -0.1043 -0.4278
 2456TIP3    H1 7374   0.714   0.722   4.639  0.3042  0.0499 -1.0196
 2456TIP3    H2 7375   0.620   0.839   4.660 -0.2074 -0.4607 -0.3850
 2457TIP3   OH2 7376   5.644   1.743   4.787 -0.0013  0.1779  0.0179
 2457TIP3    H1 7377   5.656   1.819   4.731  2.2244  0.4603  0.8000
 2457TIP3    H2 7378   5.569   1.697   4.749  0.3813  1.2319 -2.1608
 2458TIP3   OH2 7379   2.139   2.814   3.442  0.5706  0.0930 -0.5732
 2458TIP3    H1 7380   2.112   2.753   3.373  1.0648  0.1929 -0.8572
 2458TIP3    H2 7381   2.058   2.858   3.468  0.6199  1.2140 -2.2086
 2459TIP3   OH2 7382   1.390   3.472   2.429  0.2683  0.0707  0.3449
 2459TIP3    H1 7383   1.387   3.452   2.335 -1.6092 -0.6487  0.5169
 2459TIP3    H2 7384   1.466   3.423   2.461  1.0564  0.4869 -0.8163
 2460TIP3   OH2 7385   4.715   5.645   0.774 -0.3864 -0.1881 -0.3533
 2460TIP3    H1 7386   4.684   5.662   0.685 -0.4940  1.2520 -0.0692
 2460TIP3    H2 7387   4.637   5.659   0.829 -0.2914 -0.9341 -0.0270
 2461TIP3   OH2 7388   3.925   3.346   2.862  0.2202  0.1974 -0.1360
 2461TIP3    H1 7389   3.948   3.427   2.907 -1.1879  0.2021  0.6387
 2461TIP3    H2 7390   3.830   3.339   2.872 -0.0964 -0.0583 -2.7403
 2462TIP3   OH2 7391   2.071   3.449   3.505  0.3213 -0.1302  0.0809
 2462TIP3    H1 7392   2.132   3.446   3.431  0.1831 -0.1461 -0.0355
 2462TIP3    H2 7393   2.111   3.509   3.568 -0.9218  2.2591 -1.2535
 2463TIP3   OH2 7394   4.102   5.308   4.302 -0.4331 -0.4355  0.0293
 2463TIP3    H1 7395   4.035   5.240   4.297 -1.2432  0.3296  0.1289
 2463TIP3    H2 7396   4.096   5.341   4.391 -0.7626  0.4463 -0.3015
 2464TIP3   OH2 7397   5.395   0.377   0.701  0.2575 -0.3232 -0.5498
 2464TIP3    H1 7398   5.357   0.293   0.675  2.1816 -0.4705 -3.3261
 2464TIP3    H2 7399   5.357   0.440   0.639  1.2713  0.2555 -0.5959
 2465TIP3   OH2 7400   2.153   1.329   4.238 -0.1724 -0.2636  0.2234
 2465TIP3    H1 7401   2.213   1.312   4.311  0.0373  0.5210  0.2374
 2465TIP3    H2 7402   2.176   1.263   4.173  0.5532 -0.1152  0.3199
 2466TIP3   OH2 7403   5.976   2.966   0.551 -0.6992  0.0607 -0.0884
 2466TIP3    H1 7404   5.978   2.873   0.529 -1.2513 -0.0904  0.4820
 2466TIP3    H2 7405   5.892   2.979   0.595  0.1370  0.4357  1.4793
 2467TIP3   OH2 7406   1.044   3.208   1.400  0.3007  0.5307 -0.3069
 2467TIP3    H1 7407   1.086   3.212   1.314 -0.3165 -2.5653 -0.8750
 2467TIP3    H2 7408   0.951   3.201   1.382  0.2463 -1.5349  0.4626
 2468TIP3   OH2 7409   0.598   3.504   0.270  0.0593 -0.1843 -0.0586
 2468TIP3    H1 7410   0.587   3.567   0.199  0.6957  0.5909  0.5064
 2468TIP3    H2 7411   0.525   3.444   0.261  0.7280 -0.7751 -2.0390
 2469TIP3   OH2 7412   2.051   4.800   3.608 -0.4611 -0.3573 -0.2026
 2469TIP3    H1 7413   2.055   4.766   3.519  0.0882  0.2330 -0.4058
 2469TIP3    H2 7414   1.973   4.855   3.609 -0.7593 -0.7729 -0.1666
 2470TIP3   OH2 7415   1.516   0.163   1.995  0.1238  0.0513  0.0922
 2470TIP3    H1 7416   1.487   0.163   1.904  0.5199 -0.9918 -0.0515
 2470TIP3    H2 7417   1.599   0.115   1.995  0.4558  0.5924  0.9094
 2471TIP3   OH2 7418   5.199   1.819   3.278  0.8025  0.2016 -0.2692
 2471TIP3    H1 7419   5.193   1.775   3.193  1.7240 -1.3591  0.4318
 2471TIP3    H2 7420   5.113   1.804   3.319  0.2712  1.1687 -0.9971
 2472TIP3   OH2 7421   3.275   0.527   4.126  0.4152 -0.0953  0.1908
 2472TIP3    H1 7422   3.241   0.592   4.188  2.1287  1.7227 -0.6684
 2472TIP3    H2 7423   3.358   0.498   4.164  1.9169  1.6598 -1.4919
 2473TIP3   OH2 7424   5.355   3.674   0.438 -0.3608  0.5334  0.0887
 2473TIP3    H1 7425   5.404   3.610   0.490  0.6112  1.0866 -0.1238
 2473TIP3    H2 7426   5.275   3.690   0.489 -0.4256 -0.5376  0.3401
 2474TIP3   OH2 7427   5.174   1.217   2.216  0.1572 -0.1852 -0.1254
 2474TIP3    H1 7428   5.230   1.276   2.167 -1.4818  0.0798 -1.8056
 2474TIP3    H2 7429   5.219   1.204   2.300  1.1067  2.5583 -0.1159
 2475TIP3   OH2 7430   0.691   5.046   1.011  0.0020 -0.5208 -0.1813
 2475TIP3    H1 7431   0.744   5.103   0.956 -0.1483 -1.6779 -1.5902
 2475TIP3    H2 7432   0.749   4.973   1.033  0.2810  0.2552  1.8306
 2476TIP3   OH2 7433   1.717   1.695   1.507  0.3238  0.1214  0.1973
 2476TIP3    H1 7434   1.717   1.748   1.427  1.4667  0.9320  0.6941
 2476TIP3    H2 7435   1.633   1.713   1.549 -0.0177  0.1830 -0.5051
 2477TIP3   OH2 7436   1.625   3.374   4.448 -0.3330  0.6399  0.2474
 2477TIP3    H1 7437   1.660   3.360   4.360  0.9864  1.4285  0.6141
 2477TIP3    H2 7438   1.533   3.351   4.441  0.3648 -2.3320 -0.5877
 2478TIP3   OH2 7439   5.513   5.734   4.134 -0.5866  0.0696  0.2177
 2478TIP3    H1 7440   5.422   5.750   4.108 -0.8143  0.3165  1.1017
 2478TIP3    H2 7441   5.506   5.690   4.219  0.1170  0.3934  0.4569
 2479TIP3   OH2 7442   5.449   2.834   3.246  0.1603 -0.0190 -0.3236
 2479TIP3    H1 7443   5.526   2.890   3.245 -0.5673  1.0142 -0.5640
 2479TIP3    H2 7444   5.431   2.816   3.154 -0.6945  0.9247 -0.3587
 2480TIP3   OH2 7445   4.344   1.435   4.008  0.0288 -0.2697 -0.2256
 2480TIP3    H1 7446   4.251   1.415   4.010 -0.4086  1.6014 -0.0622
 2480TIP3    H2 7447   4.371   1.413   3.919 -1.1717  1.4522 -1.0820
 2481TIP3   OH2 7448   4.714   5.946   3.106  0.3341  0.0390 -0.2027
 2481TIP3    H1 7449   4.805   5.922   3.125  0.1724 -0.1740  0.3422
 2481TIP3    H2 7450   4.683   5.878   3.046  0.4978  0.0449 -0.2942
 2482TIP3   OH2 7451   2.401   1.508   2.754  0.7284  0.1657  0.2961
 2482TIP3    H1 7452   2.400   1.603   2.766  3.4704  0.0601  2.2654
 2482TIP3    H2 7453   2.468   1.493   2.687 -0.2295 -0.3882 -0.5702
 2483TIP3   OH2 7454   2.268   5.482   0.887  0.3634  0.2960 -0.3316
 2483TIP3    H1 7455   2.265   5.387   0.872 -0.4682  0.3313 -0.4462
 2483TIP3    H2 7456   2.194   5.516   0.836  0.0833  0.8974  0.4678
 2484TIP3   OH2 7457   3.862   1.436   4.091  0.2739  0.2484 -0.0247
 2484TIP3    H1 7458   3.843   1.478   4.175 -0.2703  1.1038 -0.5577
 2484TIP3    H2 7459   3.815   1.489   4.027 -1.4308 -1.8340 -0.6159
 2485TIP3   OH2 7460   2.991   4.279   1.285  0.4301  0.4583  0.7419
 2485TIP3    H1 7461   3.081   4.260   1.257 -0.5466 -1.4844 -1.4474
 2485TIP3    H2 7462   2.963   4.199   1.329 -1.0549 -0.0514 -1.0150
 2486TIP3   OH2 7463   4.192   3.425   3.480 -0.4736  0.9591  0.2792
 2486TIP3    H1 7464   4.104   3.461   3.489 -0.2648  1.1540  1.9362
 2486TIP3    H2 7465   4.248   3.502   3.467 -0.6888  0.7233 -2.6013
 2487TIP3   OH2 7466   4.212   5.176   3.756  0.2441 -0.2699 -0.1826
 2487TIP3    H1 7467   4.301   5.152   3.780  0.6358  1.1875 -0.1507
 2487TIP3    H2 7468   4.157   5.122   3.813  1.0859 -1.1635 -0.1882
 2488TIP3   OH2 7469   0.369   0.456   1.095  0.0538 -0.3846  0.4200
 2488TIP3    H1 7470   0.398   0.442   1.185 -0.4921 -3.0292  0.2560
 2488TIP3    H2 7471   0.450   0.457   1.044  0.2749 -0.3002  0.7671
 2489TIP3   OH2 7472   1.848   1.911   1.952  0.3218  0.2367 -0.1199
 2489TIP3    H1 7473   1.871   1.862   1.873  0.9511 -0.2569  0.3549
 2489TIP3    H2 7474   1.887   1.861   2.023  1.4629  1.6905  0.3478
 2490TIP3   OH2 7475   3.619   2.811   0.205  0.0904 -0.5714 -0.2034
 2490TIP3    H1 7476   3.661   2.756   0.271 -0.8265 -1.2382 -0.1475
 2490TIP3    H2 7477   3.672   2.800   0.126  1.4916  0.6306  0.5290
 2491TIP3   OH2 7478   4.729   4.246   0.059  0.4037 -0.8576  0.1630
 2491TIP3    H1 7479   4.818   4.220   0.080  0.2582 -1.0965  0.4986
 2491TIP3    H2 7480   4.696   4.286   0.140  0.6518  0.4692 -0.3639
 2492TIP3   OH2 7481   5.749   3.785   4.860  0.2196  0.3518 -0.2536
 2492TIP3    H1 7482   5.671   3.839   4.845  1.0114  1.5003 -0.4284
 2492TIP3    H2 7483   5.716   3.704   4.899 -0.9688  1.2419  0.6648
 2493TIP3   OH2 7484   4.718   0.508   2.146 -0.1392 -0.0600 -0.2085
 2493TIP3    H1 7485   4.628   0.536   2.160  0.1938  0.2691  1.3851
 2493TIP3    H2 7486   4.730   0.433   2.204  0.5283 -0.3157 -0.6528
 2494TIP3   OH2 7487   1.451   5.828   4.040  0.0112  0.3068  0.5268
 2494TIP3    H1 7488   1.425   5.859   3.953 -0.4885 -0.5226  0.3703
 2494TIP3    H2 7489   1.428   5.735   4.040 -0.6709  0.4526  1.7985
 2495TIP3   OH2 7490   0.215   2.872   4.352  0.2814  0.9117 -0.7777
 2495TIP3    H1 7491   0.257   2.953   4.326 -0.0352  1.3281 -0.0243
 2495TIP3    H2 7492   0.200   2.881   4.446  1.7277 -0.6874 -0.3342
 2496TIP3   OH2 7493   1.272   2.723   4.533  0.2315 -0.1371  0.4711
 2496TIP3    H1 7494   1.218   2.665   4.480 -0.9316  1.3327 -0.0412
 2496TIP3    H2 7495   1.246   2.705   4.624  2.2203 -2.6479  0.6672
 2497TIP3   OH2 7496   0.896   2.456   0.984 -0.1823  0.2207 -0.7374
 2497TIP3    H1 7497   0.873   2.475   1.075  0.3323  0.2679 -0.6115
 2497TIP3    H2 7498   0.831   2.391   0.956 -1.7380  1.8386 -1.0544
 2498TIP3   OH2 7499   5.915   3.282   3.394 -0.4013  0.2967 -0.0959
 2498TIP3    H1 7500   5.820   3.291   3.401 -0.5261 -0.8735 -0.0767
 2498TIP3    H2 7501   5.931   3.265   3.302 -0.3284 -0.6768  0.0904
 2499TIP3   OH2 7502   2.206   1.165   3.669  0.5789  0.3077 -0.2399
 2499TIP3    H1 7503   2.130   1.108   3.658 -0.5177  1.6584  0.0849
 2499TIP3    H2 7504   2.241   1.176   3.581  1.1448 -1.2646 -0.2487
 2500TIP3   OH2 7505   4.888   3.336   4.998  0.0300  0.0192  0.0815
 2500TIP3    H1 7506   4.965   3.299   5.039  1.3431 -1.0624 -3.0400
 2500TIP3    H2 7507   4.910   3.428   4.983  0.2575 -0.0133  0.2255
 2501TIP3   OH2 7508   0.276   4.384   1.250  0.2164 -0.2502  0.5846
 2501TIP3    H1 7509   0.348   4.390   1.188  1.3806 -0.5068  1.8638
 2501TIP3    H2 7510   0.240   4.473   1.254 -0.6031 -0.4603 -1.2383
 2502TIP3   OH2 7511   0.111   5.572   0.254 -0.1230 -0.2129 -1.0060
 2502TIP3    H1 7512   0.137   5.504   0.192 -0.7728  0.3541 -1.9347
 2502TIP3    H2 7513   0.126   5.654   0.206  1.5780  0.3696  0.4292
 2503TIP3   OH2 7514   1.191   3.520   4.104  0.0758  0.3207 -0.1019
 2503TIP3    H1 7515   1.192   3.440   4.052 -1.4980  0.9188 -1.0985
 2503TIP3    H2 7516   1.283   3.535   4.126  0.4162 -1.6484 -0.0272
 2504TIP3   OH2 7517   2.529   3.722   2.231  0.0638  0.1685  0.1488
 2504TIP3    H1 7518   2.472   3.785   2.275  1.1367  1.1105  0.2545
 2504TIP3    H2 7519   2.492   3.636   2.253 -2.3424  0.7518 -1.2676
 2505TIP3   OH2 7520   2.924   2.125   0.592  0.1296 -0.6363  0.1970
 2505TIP3    H1 7521   2.973   2.186   0.537 -0.0664 -0.3121  0.3805
 2505TIP3    H2 7522   2.912   2.047   0.537  0.6875 -0.6500  0.0849
 2506TIP3   OH2 7523   3.692   0.765   0.725  0.3331 -0.7067  1.1112
 2506TIP3    H1 7524   3.784   0.781   0.705  0.6155 -1.8574  1.4476
 2506TIP3    H2 7525   3.644   0.813   0.658  1.2014 -1.9592 -0.4645
 2507TIP3   OH2 7526   3.004   5.820   1.378  0.3623 -0.2567  0.6522
 2507TIP3    H1 7527   3.011   5.829   1.473 -0.9995  0.3834  0.7020
 2507TIP3    H2 7528   3.067   5.883   1.344 -0.4862  0.8894  1.1282
 2508TIP3   OH2 7529   3.186   3.443   0.239 -0.7898 -0.2361  0.4968
 2508TIP3    H1 7530   3.275   3.436   0.272 -0.4620 -0.0708 -0.3402
 2508TIP3    H2 7531   3.153   3.525   0.276 -0.1002  0.4330 -0.3405
 2509TIP3   OH2 7532   5.134   1.811   0.910  0.0873  0.0374  0.2738
 2509TIP3    H1 7533   5.088   1.760   0.844 -1.7089 -0.5358  1.8842
 2509TIP3    H2 7534   5.227   1.796   0.892 -0.3300 -0.1214 -2.0566
 2510TIP3   OH2 7535   0.354   5.520   5.059 -0.3445  0.3263 -0.3289
 2510TIP3    H1 7536   0.287   5.571   5.015  1.7718  3.3835 -0.3111
 2510TIP3    H2 7537   0.423   5.510   4.993  0.1812 -0.7214  0.3454
 2511TIP3   OH2 7538   4.230   5.741   4.766 -0.3586  0.3584 -0.1398
 2511TIP3    H1 7539   4.161   5.780   4.821 -0.9867 -0.3107 -0.4304
 2511TIP3    H2 7540   4.182   5.695   4.697  0.4306  1.6896 -1.6323
 2512TIP3   OH2 7541   0.339   1.228   1.040  0.1580  0.2456  0.4080
 2512TIP3    H1 7542   0.315   1.278   1.118  1.6440  0.2636  0.8802
 2512TIP3    H2 7543   0.399   1.161   1.072  0.3633 -0.0881 -0.6453
 2513TIP3   OH2 7544   2.215  -0.004   3.267 -0.1483  0.4069 -0.2299
 2513TIP3    H1 7545   2.157   0.072   3.256 -1.5129 -0.4556  0.7052
 2513TIP3    H2 7546   2.286   0.011   3.205 -0.8749  1.9844 -0.7337
 2514TIP3   OH2 7547   5.114   2.169   1.197 -0.1745  0.1373  0.4856
 2514TIP3    H1 7548   5.142   2.078   1.196  0.2800  0.2722 -0.5426
 2514TIP3    H2 7549   5.055   2.177   1.123  0.5807  0.9015 -0.0528
 2515TIP3   OH2 7550   0.056   5.443   1.934 -0.0875 -0.0040 -0.1130
 2515TIP3    H1 7551   0.011   5.362   1.957  1.0335 -0.7970 -0.6384
 2515TIP3    H2 7552   0.144   5.433   1.972 -0.1801  1.3233  0.5224
 2516TIP3   OH2 7553   5.688   0.960   3.657 -0.1730  0.1711  0.1677
 2516TIP3    H1 7554   5.620   1.024   3.640 -0.8616 -0.6393 -0.2190
 2516TIP3    H2 7555   5.751   0.971   3.586 -0.2870  0.4200  0.1067
 2517TIP3   OH2 7556   0.153   1.560   0.133  0.2101 -0.5413 -0.0951
 2517TIP3    H1 7557   0.124   1.604   0.053 -2.4742  1.2084  1.6868
 2517TIP3    H2 7558   0.079   1.506   0.159  0.7696 -0.5667  1.5555
 2518TIP3   OH2 7559   3.043   1.805   3.549  0.2032  0.0988  0.5241
 2518TIP3    H1 7560   3.082   1.733   3.597  0.3277 -0.0728  0.1660
 2518TIP3    H2 7561   2.949   1.793   3.559  0.1860 -0.7701 -0.4793
 2519TIP3   OH2 7562   5.543   2.007   4.811 -0.2196 -0.3029  0.4005
 2519TIP3    H1 7563   5.464   2.023   4.862  0.3239  1.4355  0.7830
 2519TIP3    H2 7564   5.609   2.063   4.852  0.9408 -0.9331 -0.5415
 2520TIP3   OH2 7565   4.780   5.958   4.704 -0.1052  0.3573 -0.1994
 2520TIP3    H1 7566   4.722   6.014   4.652 -2.0306  0.2923  1.7097
 2520TIP3    H2 7567   4.855   5.940   4.647 -1.4787  1.3095 -2.4248
 2521TIP3   OH2 7568   4.350   1.166   2.933  0.7827  0.2124 -0.0754
 2521TIP3    H1 7569   4.389   1.084   2.904  0.2199  0.1921 -0.7817
 2521TIP3    H2 7570   4.404   1.234   2.893  0.1684  0.1841 -0.9612
 2522TIP3   OH2 7571   4.687   1.692   2.313 -0.8477 -0.0026  0.0237
 2522TIP3    H1 7572   4.605   1.648   2.292  0.5811 -2.2244 -1.3623
 2522TIP3    H2 7573   4.703   1.670   2.404 -1.3013 -0.4053  0.0101
 2523TIP3   OH2 7574   4.580   2.676   2.499  0.0625  0.0817 -0.0373
 2523TIP3    H1 7575   4.598   2.582   2.493  0.5294  0.1673 -0.0483
 2523TIP3    H2 7576   4.530   2.687   2.580 -0.4581 -0.2422 -0.3110
 2524TIP3   OH2 7577   2.338   3.377   3.749  0.2315  0.6608  0.4561
 2524TIP3    H1 7578   2.297   3.449   3.701 -0.0797 -0.6916 -1.4082
 2524TIP3    H2 7579   2.368   3.317   3.681 -4.3608 -3.7751  1.7318
 2525TIP3   OH2 7580   0.412   1.422   0.094 -0.1102  0.4790 -0.1432
 2525TIP3    H1 7581   0.333   1.471   0.117  0.5894  1.3139  0.5410
 2525TIP3    H2 7582   0.381   1.333   0.077 -1.1621  0.7329  0.3587
 2526TIP3   OH2 7583   2.766   2.208   4.809  0.5696 -0.2176  0.2309
 2526TIP3    H1 7584   2.732   2.119   4.809  1.9558 -0.7539  0.1637
 2526TIP3    H2 7585   2.809   2.218   4.894  2.4654 -0.4337 -0.6521
 2527TIP3   OH2 7586   5.927   4.448   3.827 -0.1678  1.1110 -0.1467
 2527TIP3    H1 7587   5.957   4.474   3.914 -0.6835 -1.9018  1.0548
 2527TIP3    H2 7588   5.987   4.378   3.801 -1.6719  0.0670 -0.9688
 2528TIP3   OH2 7589   0.271   1.734   3.649  0.2041  0.5498 -0.1384
 2528TIP3    H1 7590   0.292   1.687   3.569 -0.8019  1.3992 -0.9227
 2528TIP3    H2 7591   0.298   1.674   3.720 -0.4703 -0.9334 -1.0862
 2529TIP3   OH2 7592   5.381   1.559   4.182  0.2353 -0.0434  0.3576
 2529TIP3    H1 7593   5.328   1.627   4.224 -0.4284 -0.0785 -0.4161
 2529TIP3    H2 7594   5.318   1.496   4.148  0.8056 -0.5074  0.1399
 2530TIP3   OH2 7595   3.869   4.613   1.779 -0.6395 -0.1365 -0.4349
 2530TIP3    H1 7596   3.837   4.549   1.842  0.7379  0.5936  1.0561
 2530TIP3    H2 7597   3.797   4.674   1.768 -0.6601  0.1097  0.9663
 2531TIP3   OH2 7598   4.702   0.157   3.086  0.5700 -0.0255 -0.0302
 2531TIP3    H1 7599   4.660   0.081   3.126  2.1376 -2.3156 -2.3679
 2531TIP3    H2 7600   4.686   0.147   2.992 -1.6367  4.2254 -0.3542
 2532TIP3   OH2 7601   4.272   4.312   4.403  0.3218 -0.0645  0.0737
 2532TIP3    H1 7602   4.363   4.295   4.430  0.0370 -1.4406  0.2837
 2532TIP3    H2 7603   4.231   4.225   4.405 -1.0855  0.5820  0.3119
 2533TIP3   OH2 7604   3.559   4.322   4.043 -0.6673  0.3195 -0.4388
 2533TIP3    H1 7605   3.558   4.248   4.103  0.8539  0.5868 -0.0214
 2533TIP3    H2 7606   3.618   4.295   3.972 -1.6766  0.3836 -1.3227
 2534TIP3   OH2 7607   0.688   2.353   3.601 -0.6856  0.1794  0.1292
 2534TIP3    H1 7608   0.703   2.285   3.535 -1.9222  0.1336 -0.1262
 2534TIP3    H2 7609   0.762   2.345   3.661  0.7072  0.4757 -1.4538
 2535TIP3   OH2 7610   5.957   1.630   1.159 -0.3108 -0.2802 -0.0743
 2535TIP3    H1 7611   5.874   1.666   1.127 -1.1625 -1.6392  0.5432
 2535TIP3    H2 7612   5.943   1.536   1.161  0.9250 -0.4601  0.9299
 2536TIP3   OH2 7613   3.885   5.896   0.788 -0.7369 -0.0218  0.0209
 2536TIP3    H1 7614   3.870   5.984   0.822 -3.3444  0.3010 -1.6865
 2536TIP3    H2 7615   3.893   5.908   0.693  0.0919 -1.5076 -0.1195
 2537TIP3   OH2 7616   3.345   3.371   4.200 -0.0110  0.0847  0.1782
 2537TIP3    H1 7617   3.361   3.305   4.132 -2.3117  1.6275 -2.0343
 2537TIP3    H2 7618   3.305   3.322   4.272  0.0152 -1.2121 -0.6515
 2538TIP3   OH2 7619   1.096   5.490   1.873  0.1189 -0.5184  0.1250
 2538TIP3    H1 7620   1.117   5.407   1.915  1.1352  0.4141  1.5496
 2538TIP3    H2 7621   1.134   5.556   1.930 -2.0911  1.0397 -0.0853
 2539TIP3   OH2 7622   4.456   3.380   0.164  0.2250  0.1967  0.0923
 2539TIP3    H1 7623   4.546   3.402   0.140  0.0447 -0.7208 -1.6531
 2539TIP3    H2 7624   4.450   3.400   0.257  2.1428  0.5609  0.1862
 2540TIP3   OH2 7625   5.630   1.664   2.369  0.4746 -0.2070  0.0257
 2540TIP3    H1 7626   5.671   1.689   2.451  0.5099  0.0616 -0.0732
 2540TIP3    H2 7627   5.590   1.579   2.387  0.6205 -0.2249  0.2728
 2541TIP3   OH2 7628   0.332   2.781   1.140 -0.0503  0.3827  0.2561
 2541TIP3    H1 7629   0.367   2.805   1.225  1.1185 -0.4576  0.0356
 2541TIP3    H2 7630   0.268   2.712   1.158  0.8922 -0.4821  0.3962
 2542TIP3   OH2 7631   4.294   0.281   2.377  0.2166 -0.4276  0.2426
 2542TIP3    H1 7632   4.278   0.302   2.469 -2.1531  1.9878 -0.5971
 2542TIP3    H2 7633   4.209   0.291   2.334  1.1810 -1.7368 -2.2127
 2543TIP3   OH2 7634   0.174   0.741   3.160 -0.0378 -0.0209  0.1932
 2543TIP3    H1 7635   0.197   0.832   3.175  1.7409  0.0852 -2.4332
 2543TIP3    H2 7636   0.078   0.741   3.153 -0.2005  1.3096  1.8621
 2544TIP3   OH2 7637   4.528   4.481   1.289  0.2248  0.1301  0.2387
 2544TIP3    H1 7638   4.524   4.546   1.359 -1.4082 -0.9777  1.2528
 2544TIP3    H2 7639   4.615   4.492   1.251  0.1592  2.5608  0.6559
 2545TIP3   OH2 7640   6.043   5.849   4.362 -0.3485  0.0607  0.3762
 2545TIP3    H1 7641   6.040   5.862   4.456 -0.9790  1.1417  0.2150
 2545TIP3    H2 7642   6.095   5.923   4.329  0.2402 -0.5417 -0.0936
 2546TIP3   OH2 7643   0.991   1.267   4.154  0.5086 -0.1599  0.0108
 2546TIP3    H1 7644   1.024   1.311   4.233  0.3237  0.4109 -0.2217
 2546TIP3    H2 7645   1.031   1.180   4.156 -1.6227 -1.1917  2.1653
 2547TIP3   OH2 7646   3.068   3.438   4.162  0.2073 -0.0665  0.5286
 2547TIP3    H1 7647   3.034   3.349   4.149  1.6651 -0.6328  0.4218
 2547TIP3    H2 7648   3.163   3.428   4.156  0.4185  1.3987  1.2017
 2548TIP3   OH2 7649   3.502   2.876   3.077 -0.1816 -0.0574 -0.4451
 2548TIP3    H1 7650   3.421   2.832   3.101  0.2400 -0.9970 -0.7084
 2548TIP3    H2 7651   3.568   2.806   3.076  0.5477  0.6223 -0.6268
 2549TIP3   OH2 7652   4.348   1.893   4.940 -0.0836 -0.0112  0.7541
 2549TIP3    H1 7653   4.274   1.939   4.900  1.7613  1.2364 -1.4956
 2549TIP3    H2 7654   4.342   1.914   5.033 -2.5618 -0.0519  0.6762
 2550TIP3   OH2 7655   6.158   4.287   4.658 -0.4051 -0.4398 -0.4564
 2550TIP3    H1 7656   6.076   4.335   4.654 -0.4112 -0.4050  0.0924
 2550TIP3    H2 7657   6.189   4.285   4.567 -1.4652 -1.2510 -0.8221
 2551TIP3   OH2 7658   5.554   2.516   2.087 -0.1797  0.0757 -0.2571
 2551TIP3    H1 7659   5.611   2.465   2.146  0.9793  0.4855 -0.9813
 2551TIP3    H2 7660   5.613   2.545   2.018 -1.6033 -0.8605 -1.9392
 2552TIP3   OH2 7661   1.159   5.034   0.999  0.4719 -0.3644 -0.4344
 2552TIP3    H1 7662   1.204   5.118   0.991 -0.8550  0.2223 -2.3289
 2552TIP3    H2 7663   1.218   4.980   1.052  3.0037  0.6022 -2.1036
 2553TIP3   OH2 7664   5.849   2.372   4.968 -0.1238 -0.1286  0.4095
 2553TIP3    H1 7665   5.851   2.301   4.903  0.1869  1.9919 -2.0309
 2553TIP3    H2 7666   5.797   2.441   4.927  0.4202  1.4874  2.2815
 2554TIP3   OH2 7667   3.289   5.065   3.075 -0.0091 -0.1917 -0.0141
 2554TIP3    H1 7668   3.267   4.981   3.115 -0.4707 -1.1722 -2.1526
 2554TIP3    H2 7669   3.213   5.086   3.020  1.7517 -0.5813 -2.8061
 2555TIP3   OH2 7670   1.958   1.471   0.924 -0.1201  0.0856  0.2633
 2555TIP3    H1 7671   1.934   1.450   1.014 -1.8436  1.6213  0.2262
 2555TIP3    H2 7672   1.930   1.562   0.913  2.4380  0.8062 -1.0338
 2556TIP3   OH2 7673   2.469   4.462   0.330  0.5692 -0.3775 -0.8101
 2556TIP3    H1 7674   2.434   4.511   0.256 -1.8853 -0.7936  0.0107
 2556TIP3    H2 7675   2.499   4.529   0.391  0.3004  0.0183 -1.1071
 2557TIP3   OH2 7676   1.992   5.599   2.322  0.6140 -0.6079  0.2301
 2557TIP3    H1 7677   2.027   5.511   2.306  2.1540 -0.3993  2.1288
 2557TIP3    H2 7678   2.068   5.654   2.338 -0.2032  1.5008 -2.3832
 2558TIP3   OH2 7679   4.093   1.125   2.761  0.1327  0.5028 -0.2309
 2558TIP3    H1 7680   4.174   1.126   2.814  0.1471  0.4686 -0.2526
 2558TIP3    H2 7681   4.025   1.098   2.823 -0.0513  1.5770  0.0554
 2559TIP3   OH2 7682   2.221   5.809   2.343  0.5289  0.1030  0.5290
 2559TIP3    H1 7683   2.238   5.851   2.427  0.6323 -0.5165  0.8217
 2559TIP3    H2 7684   2.306   5.810   2.298  0.2038  1.6082 -0.1245
 2560TIP3   OH2 7685   3.707   5.094   4.844  0.7823 -0.6812 -0.2412
 2560TIP3    H1 7686   3.661   5.018   4.808  0.3659  0.2118 -1.6432
 2560TIP3    H2 7687   3.799   5.074   4.831  0.6619 -0.7838 -0.9351
 2561TIP3   OH2 7688   4.036   5.421   0.972 -0.3626  0.5296  0.0909
 2561TIP3    H1 7689   4.027   5.428   0.877 -1.3291 -0.5231  0.0929
 2561TIP3    H2 7690   4.087   5.499   0.996 -2.1050  2.1174 -1.0091
 2562TIP3   OH2 7691   2.994   5.625   1.952  0.5067  0.3625  0.3022
 2562TIP3    H1 7692   2.991   5.709   1.996  3.3674  0.7955 -0.1296
 2562TIP3    H2 7693   3.017   5.646   1.861  0.5190 -0.8372  0.0018
 2563TIP3   OH2 7694   2.372   5.751   1.498  0.0660 -0.5415 -0.2827
 2563TIP3    H1 7695   2.414   5.828   1.535  2.0256 -1.9276  0.5012
 2563TIP3    H2 7696   2.430   5.724   1.427 -0.1580 -1.7745 -0.0130
 2564TIP3   OH2 7697   3.266   3.942   2.992  0.2694 -0.9636  0.1887
 2564TIP3    H1 7698   3.349   3.961   3.036  0.4141  0.8704 -0.7586
 2564TIP3    H2 7699   3.290   3.907   2.907  0.1605  0.7043 -0.5751
 2565TIP3   OH2 7700   4.148   2.307   3.847 -0.4598  0.2530 -0.1293
 2565TIP3    H1 7701   4.059   2.307   3.882 -0.3880 -0.4988  0.0640
 2565TIP3    H2 7702   4.185   2.390   3.878 -0.5760 -0.1447  1.1489
 2566TIP3   OH2 7703   2.977   3.048   3.307 -0.3522  0.2909  0.3554
 2566TIP3    H1 7704   2.892   3.004   3.308 -0.5491  0.6470 -0.0292
 2566TIP3    H2 7705   2.992   3.076   3.397 -0.6992  0.3203  0.4031
 2567TIP3   OH2 7706   5.325   0.571   1.794 -0.0873 -0.8034  0.2458
 2567TIP3    H1 7707   5.349   0.659   1.823 -0.7091 -0.5947  0.1360
 2567TIP3    H2 7708   5.409   0.528   1.778  0.2226  0.3465 -1.4376
 2568TIP3   OH2 7709   3.604   4.557   1.485  0.1337  0.1742 -0.0854
 2568TIP3    H1 7710   3.628   4.505   1.408 -2.3131 -0.0644 -0.7851
 2568TIP3    H2 7711   3.650   4.640   1.473 -1.4850  0.8150 -2.7894
 2569TIP3   OH2 7712   3.102   2.974   4.546  0.5225 -0.7356  0.0081
 2569TIP3    H1 7713   3.092   2.983   4.641  2.4549  0.4654  0.1473
 2569TIP3    H2 7714   3.159   2.898   4.535 -0.2690 -1.3065 -0.2542
 2570TIP3   OH2 7715   0.445   3.444   2.847 -0.2044 -0.6370 -0.4162
 2570TIP3    H1 7716   0.361   3.400   2.861  0.0404 -0.7127  0.9590
 2570TIP3    H2 7717   0.507   3.372   2.831 -0.4042 -0.5770 -1.5050
 2571TIP3   OH2 7718   0.465   4.446   1.043 -0.3854  0.7484 -0.1511
 2571TIP3    H1 7719   0.487   4.496   0.964  1.6706  0.8772  0.4438
 2571TIP3    H2 7720   0.550   4.416   1.076 -1.3124 -0.3126  1.3556
 2572TIP3   OH2 7721   2.371   5.134   1.560  0.2377 -0.1264 -0.2646
 2572TIP3    H1 7722   2.378   5.229   1.544  0.5019 -0.1604 -0.3586
 2572TIP3    H2 7723   2.386   5.095   1.474 -1.8899 -0.1863 -0.6697
 2573TIP3   OH2 7724   4.164   5.165   0.703  0.2087 -0.3622  0.1284
 2573TIP3    H1 7725   4.124   5.252   0.697  0.5831 -0.2486 -1.0794
 2573TIP3    H2 7726   4.258   5.181   0.695  0.4037 -0.7606  1.4208
 2574TIP3   OH2 7727   2.880   0.841   4.453 -0.5623  0.3859 -0.4391
 2574TIP3    H1 7728   2.952   0.891   4.490 -0.7376  1.1974 -1.1847
 2574TIP3    H2 7729   2.865   0.879   4.367 -0.4905 -1.1486 -1.1805
 2575TIP3   OH2 7730   3.165   3.669   1.204 -0.1237  0.1162  0.8310
 2575TIP3    H1 7731   3.115   3.591   1.224  0.2632 -0.2767  0.3120
 2575TIP3    H2 7732   3.103   3.727   1.159  0.1804 -0.9002 -1.0111
 2576TIP3   OH2 7733   3.460   5.002   2.344  0.8437  0.0523  0.1425
 2576TIP3    H1 7734   3.504   4.918   2.362  0.1127 -0.4328 -0.2650
 2576TIP3    H2 7735   3.377   4.995   2.391 -0.3597 -0.5355 -1.9784
 2577TIP3   OH2 7736   3.296   0.236   2.172  0.6712  0.7824  0.2222
 2577TIP3    H1 7737   3.240   0.313   2.159  2.6043  2.3587  0.8784
 2577TIP3    H2 7738   3.320   0.238   2.264  1.5470 -0.0357  0.0299
 2578TIP3   OH2 7739   4.009   2.117   1.461 -0.3882  0.1257  0.1661
 2578TIP3    H1 7740   4.078   2.171   1.423 -1.0517  0.3123 -0.8052
 2578TIP3    H2 7741   3.982   2.059   1.390  0.1823 -1.3902  1.1307
 2579TIP3   OH2 7742   6.126   3.811   1.235 -0.1160  0.2915 -0.0515
 2579TIP3    H1 7743   6.153   3.873   1.167  0.4668 -0.3952 -0.4645
 2579TIP3    H2 7744   6.031   3.805   1.226 -0.2324  1.3791  0.2302
 2580TIP3   OH2 7745   3.488   0.999   4.716  0.0596  0.3437  0.0266
 2580TIP3    H1 7746   3.548   1.039   4.780 -1.4686  2.5637  0.2143
 2580TIP3    H2 7747   3.456   0.920   4.759  1.0697  0.3761  0.8859
 2581TIP3   OH2 7748   2.788   0.267   4.054  0.2077  0.1008  0.4589
 2581TIP3    H1 7749   2.826   0.218   4.127  1.0450  2.9182  2.0928
 2581TIP3    H2 7750   2.862   0.313   4.015 -0.6167  0.6002 -0.5857
 2582TIP3   OH2 7751   4.029   2.344   1.073  0.4720 -0.1898 -0.0563
 2582TIP3    H1 7752   3.971   2.409   1.032  0.4324 -0.8529 -1.0782
 2582TIP3    H2 7753   4.094   2.323   1.006  1.6155  0.1574  0.9033
 2583TIP3   OH2 7754   6.139   3.987   1.016  0.1178  0.5482 -0.3208
 2583TIP3    H1 7755   6.204   3.985   0.946  1.4811  0.5380  0.9092
 2583TIP3    H2 7756   6.060   3.950   0.977  1.1159 -0.3196 -1.5715
 2584TIP3   OH2 7757   5.153   2.543   3.731 -0.4218  0.4830 -0.0651
 2584TIP3    H1 7758   5.190   2.540   3.643  0.8564  0.4984  0.4541
 2584TIP3    H2 7759   5.094   2.619   3.729 -0.7834  0.2016 -1.0295
 2585TIP3   OH2 7760   0.485   3.104   2.722  0.0172  0.3309  0.2679
 2585TIP3    H1 7761   0.544   3.150   2.780 -1.7706  1.4210  1.3321
 2585TIP3    H2 7762   0.486   3.013   2.752  1.5395  0.2067 -0.1097
 2586TIP3   OH2 7763   2.379   4.446   3.007 -0.0278 -0.2981  0.2394
 2586TIP3    H1 7764   2.466   4.472   3.038 -0.6321  2.1736  0.0482
 2586TIP3    H2 7765   2.390   4.434   2.912  0.1388 -0.2225  0.2480
 2587TIP3   OH2 7766   5.795   4.975   5.014  0.4109  0.1734 -0.2052
 2587TIP3    H1 7767   5.710   4.935   5.001  0.5396 -0.1879  0.0265
 2587TIP3    H2 7768   5.847   4.948   4.938  0.2071  0.7102 -0.5401
 2588TIP3   OH2 7769   3.479   3.064   3.302 -0.2543 -0.2446 -0.1105
 2588TIP3    H1 7770   3.394   3.103   3.282 -0.4763 -0.5475  0.2470
 2588TIP3    H2 7771   3.500   3.011   3.225 -0.5470 -0.4433 -0.0518
 2589TIP3   OH2 7772   4.398   2.740   4.632 -0.4039 -0.3357  0.0841
 2589TIP3    H1 7773   4.426   2.662   4.679  0.6887  0.4053  0.7165
 2589TIP3    H2 7774   4.382   2.805   4.702 -0.0560  0.3838 -0.4970
 2590TIP3   OH2 7775   6.161   0.905   0.025 -0.1373 -0.4162 -0.4267
 2590TIP3    H1 7776   6.198   0.849   0.093 -0.3206 -0.3838 -0.2993
 2590TIP3    H2 7777   6.225   0.902  -0.046 -0.0988 -0.7108 -0.3831
 2591TIP3   OH2 7778   4.861   0.045   4.930 -0.3606 -0.5004  0.5806
 2591TIP3    H1 7779   4.919   0.065   5.003  0.2153 -0.7374  0.1892
 2591TIP3    H2 7780   4.915  -0.004   4.868 -0.7060  0.1017 -0.2249
 2592TIP3   OH2 7781   5.720   2.103   3.570  0.4671 -0.3070 -0.2846
 2592TIP3    H1 7782   5.639   2.055   3.591 -0.6834  1.1819 -1.1547
 2592TIP3    H2 7783   5.789   2.037   3.578 -0.9901 -2.0128 -0.9865
 2593TIP3   OH2 7784   4.262   3.418   2.968  0.2983 -0.2801  0.2450
 2593TIP3    H1 7785   4.276   3.391   3.058  1.6854  2.6401  1.0478
 2593TIP3    H2 7786   4.191   3.482   2.972 -0.3393 -0.8799 -0.9163
 2594TIP3   OH2 7787   4.460   2.664   4.050 -0.1162  0.0630  0.2561
 2594TIP3    H1 7788   4.436   2.748   4.089  2.5981  1.3220 -0.5896
 2594TIP3    H2 7789   4.512   2.686   3.973 -1.3554 -2.4198 -1.4369
 2595TIP3   OH2 7790   1.294   3.580   1.997  0.3466  0.3922 -0.0212
 2595TIP3    H1 7791   1.202   3.564   1.975  0.5927 -0.7305 -0.2932
 2595TIP3    H2 7792   1.322   3.502   2.043  0.7841  1.3426  1.3786
 2596TIP3   OH2 7793   4.640   2.274   3.704  0.0766  0.5190 -0.2600
 2596TIP3    H1 7794   4.558   2.287   3.657 -1.8282  0.9219  2.8744
 2596TIP3    H2 7795   4.613   2.261   3.795  3.5430  1.1299  0.9877
 2597TIP3   OH2 7796   6.176   3.630   1.522  0.4700 -0.0143 -0.1435
 2597TIP3    H1 7797   6.088   3.646   1.490  0.0255  2.1366  1.9041
 2597TIP3    H2 7798   6.169   3.547   1.570 -0.5001  0.2172  0.1361
 2598TIP3   OH2 7799   2.308   5.471   3.559  0.0485 -0.5821 -0.3738
 2598TIP3    H1 7800   2.365   5.402   3.593 -0.4138 -1.5281 -1.4404
 2598TIP3    H2 7801   2.262   5.505   3.636  1.0057 -0.7679  0.3015
 2599TIP3   OH2 7802   0.703   0.496   4.072  0.3149  0.0603  0.1566
 2599TIP3    H1 7803   0.742   0.575   4.034  1.3088  0.4961  1.9479
 2599TIP3    H2 7804   0.757   0.424   4.038  1.5652  0.4924  1.1528
 2600TIP3   OH2 7805   4.451   4.408   2.818 -0.0393  0.0531 -0.2732
 2600TIP3    H1 7806   4.509   4.472   2.858 -0.5887  0.6366 -0.3892
 2600TIP3    H2 7807   4.496   4.382   2.737 -0.3555  1.2130 -0.8505
 2601TIP3   OH2 7808   2.795   2.273   3.038  0.1599  0.2414 -0.1046
 2601TIP3    H1 7809   2.716   2.219   3.037  1.2861 -1.4986  0.0594
 2601TIP3    H2 7810   2.769   2.354   2.996 -1.6432 -0.3793 -0.2791
 2602TIP3   OH2 7811   1.868   2.105   3.734 -0.2914 -0.6746  0.3161
 2602TIP3    H1 7812   1.954   2.139   3.755  0.4908 -1.6801 -1.0876
 2602TIP3    H2 7813   1.848   2.143   3.648 -0.1075 -2.3944 -0.5314
 2603TIP3   OH2 7814   3.828   5.650   0.189  0.0838 -0.2356  0.2343
 2603TIP3    H1 7815   3.861   5.564   0.211 -1.8784 -1.8238 -2.3725
 2603TIP3    H2 7816   3.760   5.668   0.254 -0.2620 -1.1943  0.1434
 2604TIP3   OH2 7817   1.195   4.311   2.550 -0.0994 -0.0249 -0.4128
 2604TIP3    H1 7818   1.195   4.261   2.469 -2.0213 -1.4028  0.3495
 2604TIP3    H2 7819   1.136   4.384   2.533 -0.3275 -0.1900 -0.3412
 2605TIP3   OH2 7820   4.419   2.258   1.570 -0.1977  0.5709 -0.6041
 2605TIP3    H1 7821   4.358   2.309   1.624  0.6156  1.2381 -0.2799
 2605TIP3    H2 7822   4.499   2.254   1.623  0.3370  0.5058 -1.4042
 2606TIP3   OH2 7823   1.852   2.558   1.125  0.1689  0.7084  0.4368
 2606TIP3    H1 7824   1.797   2.594   1.195 -0.3291  0.5074  0.1527
 2606TIP3    H2 7825   1.885   2.634   1.078 -0.6867  0.8150 -0.0132
 2607TIP3   OH2 7826   0.230   4.278   4.896  0.1288  0.5167 -0.5690
 2607TIP3    H1 7827   0.211   4.214   4.827  0.9756 -0.5910  0.1884
 2607TIP3    H2 7828   0.321   4.303   4.882  0.2930  0.3198  0.1117
 2608TIP3   OH2 7829   2.909   0.008   1.936  0.3292  0.0311  0.2058
 2608TIP3    H1 7830   2.960  -0.032   2.007  0.6888 -0.1307 -0.1393
 2608TIP3    H2 7831   2.840   0.056   1.981  1.5909  1.4264  0.7559
 2609TIP3   OH2 7832   4.860   2.143   2.894 -0.5206  0.6597  0.1545
 2609TIP3    H1 7833   4.859   2.079   2.965 -0.9605  1.1783  0.6203
 2609TIP3    H2 7834   4.937   2.197   2.911 -1.0946  1.3202  0.7331
 2610TIP3   OH2 7835   5.744   3.446   2.366 -0.1431  0.2634  0.7634
 2610TIP3    H1 7836   5.820   3.500   2.344  0.0643  0.0793  1.0246
 2610TIP3    H2 7837   5.772   3.357   2.347 -0.2579  0.1854  0.9564
 2611TIP3   OH2 7838   2.663   2.007   2.951 -0.6335 -0.4017  0.0695
 2611TIP3    H1 7839   2.631   1.965   2.872 -0.9493 -1.2341  0.6258
 2611TIP3    H2 7840   2.586   2.052   2.987 -1.2000 -2.2979  1.3399
 2612TIP3   OH2 7841   5.771   3.088   1.840 -0.2088 -0.5887  0.2645
 2612TIP3    H1 7842   5.727   3.003   1.837 -1.0752 -0.1337 -1.3483
 2612TIP3    H2 7843   5.706   3.147   1.877  0.1727 -0.5023  0.8038
 2613TIP3   OH2 7844   5.055   4.132   0.962  0.3358  0.2227 -0.2334
 2613TIP3    H1 7845   5.022   4.063   0.906  0.3852 -1.2449  1.4650
 2613TIP3    H2 7846   4.978   4.185   0.983 -0.6902 -1.9684  2.0320
 2614TIP3   OH2 7847   4.075   0.620   4.108 -0.1697  0.0133  0.2733
 2614TIP3    H1 7848   4.074   0.524   4.106 -0.5482  0.0218  0.0543
 2614TIP3    H2 7849   4.063   0.646   4.017  2.4055  0.2590 -0.0828
 2615TIP3   OH2 7850   5.735   4.204   0.490  0.5013  0.0283  0.4673
 2615TIP3    H1 7851   5.721   4.218   0.584  0.1103 -0.6876  0.5171
 2615TIP3    H2 7852   5.725   4.110   0.477 -1.4349  0.3430 -0.6256
 2616TIP3   OH2 7853   2.135   5.249   3.819 -0.8155  0.1187 -0.2072
 2616TIP3    H1 7854   2.086   5.196   3.757 -0.9575  0.8270 -0.7194
 2616TIP3    H2 7855   2.090   5.238   3.903 -0.4883 -1.0247 -0.1653
 2617TIP3   OH2 7856   1.787   1.732   4.728  0.0258 -0.1678  0.4015
 2617TIP3    H1 7857   1.793   1.662   4.663  2.9436 -0.7724  1.1486
 2617TIP3    H2 7858   1.794   1.813   4.677 -0.6113 -0.5037 -0.2384
 2618TIP3   OH2 7859   3.239   4.503   0.183  0.3649  0.6554 -0.6021
 2618TIP3    H1 7860   3.267   4.569   0.246 -0.1365  0.3252 -0.0298
 2618TIP3    H2 7861   3.183   4.443   0.233  0.2952  0.1575 -1.2602
 2619TIP3   OH2 7862   1.902   4.092   2.994 -0.8647  0.3763  0.1125
 2619TIP3    H1 7863   1.830   4.055   3.045  0.5353 -0.0737  1.8916
 2619TIP3    H2 7864   1.979   4.044   3.024  0.7436  3.2771  1.0011
 2620TIP3   OH2 7865   2.736   4.089   2.636  1.0239 -0.5723  0.3670
 2620TIP3    H1 7866   2.693   4.004   2.622  0.8853 -0.6915  1.4512
 2620TIP3    H2 7867   2.768   4.113   2.549  0.7743 -1.5747 -0.0263
 2621TIP3   OH2 7868   4.528   2.869   1.549 -0.1884 -0.0183  0.0588
 2621TIP3    H1 7869   4.495   2.787   1.512  0.7977 -0.0717 -0.7227
 2621TIP3    H2 7870   4.498   2.936   1.488 -1.4886  0.2959  0.9969
 2622TIP3   OH2 7871   5.065   0.534   4.916 -0.0781 -0.2641  0.2927
 2622TIP3    H1 7872   5.069   0.508   4.824 -1.4229 -1.2115  0.4851
 2622TIP3    H2 7873   5.051   0.629   4.913  3.3206  0.3389 -0.4191
 2623TIP3   OH2 7874   4.403   3.307   1.749 -0.2766  0.3374  0.7104
 2623TIP3    H1 7875   4.418   3.321   1.842  0.8907  4.0579  0.1469
 2623TIP3    H2 7876   4.311   3.329   1.736 -0.5917 -0.7498  1.0344
 2624TIP3   OH2 7877   0.732   5.723   1.817 -0.1643  0.1548  0.2262
 2624TIP3    H1 7878   0.761   5.633   1.830  2.8084  0.7096 -1.6469
 2624TIP3    H2 7879   0.783   5.775   1.879 -0.2190  0.7400 -0.1994
 2625TIP3   OH2 7880   1.702   0.203   0.049 -0.0875  0.4039 -0.1124
 2625TIP3    H1 7881   1.784   0.245   0.077 -0.7489  1.1783  0.7241
 2625TIP3    H2 7882   1.638   0.273   0.049 -0.6892 -0.1242 -1.1125
 2626TIP3   OH2 7883   4.585   0.147   1.895  0.4036 -0.3039  0.0973
 2626TIP3    H1 7884   4.618   0.063   1.928  0.2501  0.0044  1.0880
 2626TIP3    H2 7885   4.656   0.182   1.843  0.6588 -0.8239  0.0847
 2627TIP3   OH2 7886   2.257   4.434   4.939 -0.0012  0.0497  0.2861
 2627TIP3    H1 7887   2.222   4.359   4.988  0.6178 -1.1593 -1.0748
 2627TIP3    H2 7888   2.208   4.434   4.857 -0.4101  1.5316  0.5025
 2628TIP3   OH2 7889   5.611   0.812   3.950  0.0966 -0.9157  0.4294
 2628TIP3    H1 7890   5.694   0.827   3.904  0.5703 -1.2596  1.1619
 2628TIP3    H2 7891   5.544   0.834   3.885  0.7448  0.9839  0.3487
 2629TIP3   OH2 7892   4.855   0.650   1.124 -0.0468  0.2203  0.4123
 2629TIP3    H1 7893   4.910   0.729   1.120 -0.1871  0.3619  1.1422
 2629TIP3    H2 7894   4.840   0.637   1.217  1.3475 -1.6168  0.4419
 2630TIP3   OH2 7895   2.485   1.239   1.707 -0.2834  0.3094  1.0119
 2630TIP3    H1 7896   2.552   1.305   1.690 -1.1776  1.1929  0.8237
 2630TIP3    H2 7897   2.426   1.280   1.770 -1.5034  0.1689  0.0086
 2631TIP3   OH2 7898   3.059   0.787   3.807 -0.6466 -0.5945 -0.1713
 2631TIP3    H1 7899   3.036   0.795   3.900 -0.8837 -2.3811 -0.0359
 2631TIP3    H2 7900   3.128   0.720   3.805  1.8698  1.8371 -0.9730
 2632TIP3   OH2 7901   0.089   2.057   3.866  0.1861 -0.2602 -0.2267
 2632TIP3    H1 7902   0.177   2.023   3.880  0.1050 -1.6718 -2.6369
 2632TIP3    H2 7903   0.079   2.060   3.771 -2.0992  0.6497 -0.0256
 2633TIP3   OH2 7904   3.767   3.364   4.951 -0.6788  0.2006 -0.3016
 2633TIP3    H1 7905   3.762   3.339   4.859  0.9806  0.3368 -0.4640
 2633TIP3    H2 7906   3.852   3.330   4.980 -0.5163  1.4421  0.7684
 2634TIP3   OH2 7907   6.311   3.285   0.281  0.0729  0.1240  0.5107
 2634TIP3    H1 7908   6.362   3.219   0.327 -0.8753  0.1817  1.6810
 2634TIP3    H2 7909   6.349   3.288   0.193 -0.3423 -2.4820  0.1820
 2635TIP3   OH2 7910   5.439   2.195   3.369 -0.0619  0.0582  0.2448
 2635TIP3    H1 7911   5.400   2.264   3.422  0.4555  0.1186  0.5421
 2635TIP3    H2 7912   5.527   2.226   3.348 -0.3381  0.1524 -0.8677
 2636TIP3   OH2 7913   5.692   5.079   4.337 -0.0744 -0.1664  0.3029
 2636TIP3    H1 7914   5.767   5.126   4.372 -0.0535 -1.5569  2.2971
 2636TIP3    H2 7915   5.711   5.068   4.244  3.2970 -2.3840  1.1105
 2637TIP3   OH2 7916   0.771   2.832   0.086 -0.3318 -0.2442  0.4321
 2637TIP3    H1 7917   0.683   2.848   0.052  0.1076 -0.1073 -0.6904
 2637TIP3    H2 7918   0.817   2.789   0.014  0.4642 -0.5125  1.0796
 2638TIP3   OH2 7919   2.342   1.381   3.756 -0.2862  0.2539  0.3049
 2638TIP3    H1 7920   2.352   1.359   3.848  1.7252 -0.5734 -0.0522
 2638TIP3    H2 7921   2.303   1.303   3.716  1.2363 -0.4210  0.0618
 2639TIP3   OH2 7922   2.975   1.989   4.632 -0.0478  0.4443  0.0363
 2639TIP3    H1 7923   3.000   1.923   4.567  4.4040  1.9395 -0.0858
 2639TIP3    H2 7924   2.972   1.941   4.714 -1.5693 -0.6962 -0.6378
 2640TIP3   OH2 7925   2.655   5.737   0.375  0.3478  0.7603  0.0155
 2640TIP3    H1 7926   2.718   5.665   0.386 -0.2653  0.3135  0.7414
 2640TIP3    H2 7927   2.665   5.789   0.454  1.0282  1.6939 -0.6617
 2641TIP3   OH2 7928   6.046   1.507   4.367 -0.8201 -0.3274 -0.0800
 2641TIP3    H1 7929   6.107   1.553   4.424 -1.2515 -1.3705  1.2630
 2641TIP3    H2 7930   6.095   1.433   4.332 -0.9890 -0.5103  0.0740
 2642TIP3   OH2 7931   1.632   3.825   2.450 -0.2553 -0.1557 -0.2860
 2642TIP3    H1 7932   1.603   3.905   2.494 -0.0699  1.7076 -3.2354
 2642TIP3    H2 7933   1.588   3.827   2.365  0.9446 -2.4207 -1.0537
 2643TIP3   OH2 7934   1.757   3.203   4.638 -0.2467 -0.3256 -0.6133
 2643TIP3    H1 7935   1.717   3.256   4.569 -0.3073 -0.9849 -1.0972
 2643TIP3    H2 7936   1.687   3.144   4.666  0.1258 -0.8955 -0.8597
 2644TIP3   OH2 7937   0.002   4.269   0.894 -0.0095  0.2396  0.0965
 2644TIP3    H1 7938  -0.001   4.183   0.853  0.7509 -0.8490  2.1673
 2644TIP3    H2 7939   0.092   4.279   0.923 -0.3502  1.2380  0.8813
 2645TIP3   OH2 7940   0.632   2.516   2.222 -0.3738 -0.0108  0.2611
 2645TIP3    H1 7941   0.599   2.433   2.256 -1.1396  0.6576  1.1756
 2645TIP3    H2 7942   0.582   2.583   2.268  1.1081  1.0041  0.4591
 2646TIP3   OH2 7943   0.950   0.025   1.925 -0.4332  0.0091  0.9719
 2646TIP3    H1 7944   0.901   0.102   1.953  0.3112  0.5803  0.7467
 2646TIP3    H2 7945   0.895  -0.050   1.951 -2.9650  0.6263 -2.0572
 2647TIP3   OH2 7946   5.548   1.286   4.652 -0.0303 -0.1137  0.5305
 2647TIP3    H1 7947   5.512   1.336   4.725  0.6903  0.1999  0.6790
 2647TIP3    H2 7948   5.516   1.196   4.666 -1.8105  0.3770 -0.0481
 2648TIP3   OH2 7949   3.271   1.805   3.902 -0.0041 -0.2656  0.0807
 2648TIP3    H1 7950   3.334   1.831   3.968 -0.1166 -0.3296  0.2148
 2648TIP3    H2 7951   3.286   1.864   3.829 -1.0426  0.9638  0.8225
 2649TIP3   OH2 7952   1.520   0.470   3.321  0.8362 -0.0197 -0.3956
 2649TIP3    H1 7953   1.475   0.405   3.375 -1.0382  1.6402  0.1619
 2649TIP3    H2 7954   1.531   0.546   3.378  0.8255  1.0033 -1.6989
 2650TIP3   OH2 7955   3.232   1.153   0.161 -0.1353  0.0679  0.4591
 2650TIP3    H1 7956   3.314   1.181   0.203  0.0734 -0.4341  0.3996
 2650TIP3    H2 7957   3.236   1.193   0.074  0.1004 -0.0445  0.4162
 2651TIP3   OH2 7958   2.910   2.871   3.899 -1.0377 -0.0092  0.2826
 2651TIP3    H1 7959   2.887   2.888   3.991 -1.5471 -2.0074  0.5655
 2651TIP3    H2 7960   2.827   2.856   3.855 -0.6849 -1.5346  0.0652
 2652TIP3   OH2 7961   2.943   3.589   0.802  0.6291  0.3788  0.0229
 2652TIP3    H1 7962   3.037   3.604   0.789  0.6999 -0.2525 -0.1889
 2652TIP3    H2 7963   2.911   3.565   0.715  0.5028 -0.6499  0.3507
 2653TIP3   OH2 7964   4.673   3.329   2.385  0.0003 -0.3461 -0.1148
 2653TIP3    H1 7965   4.715   3.411   2.356 -0.6863  0.1319  0.2174
 2653TIP3    H2 7966   4.630   3.296   2.307  0.3861 -0.4577 -0.2819
 2654TIP3   OH2 7967   0.554   0.680   3.729 -0.0823  0.4260 -0.8111
 2654TIP3    H1 7968   0.628   0.736   3.752 -1.3389  1.7803  0.0813
 2654TIP3    H2 7969   0.512   0.660   3.812 -1.2973  0.4921 -1.3955
 2655TIP3   OH2 7970   0.801   1.707   2.840 -0.3227  0.2854 -0.1821
 2655TIP3    H1 7971   0.742   1.714   2.765  0.1913 -0.7188 -0.7018
 2655TIP3    H2 7972   0.869   1.647   2.811  0.3128  0.4986  0.8261
 2656TIP3   OH2 7973   4.246   1.256   4.787  0.1699 -0.6158  0.9515
 2656TIP3    H1 7974   4.238   1.187   4.722 -0.3625  2.9244 -3.1886
 2656TIP3    H2 7975   4.156   1.278   4.811 -0.0846  1.6456 -1.5822
 2657TIP3   OH2 7976   4.705   3.358   2.103  0.2420 -0.4686 -0.2190
 2657TIP3    H1 7977   4.770   3.287   2.109  1.0991  0.2046 -1.2942
 2657TIP3    H2 7978   4.753   3.436   2.130 -0.2902 -0.0514 -0.4728
 2658TIP3   OH2 7979   5.700   3.313   4.119 -0.3293  0.2607 -0.1653
 2658TIP3    H1 7980   5.722   3.252   4.189  0.2699 -0.7183 -1.1544
 2658TIP3    H2 7981   5.646   3.380   4.160 -0.2191 -0.4368  1.1557
 2659TIP3   OH2 7982   5.891   2.688   0.563 -0.1832  0.3969 -0.0378
 2659TIP3    H1 7983   5.953   2.630   0.608 -0.3645 -0.7541 -1.2009
 2659TIP3    H2 7984   5.813   2.687   0.618 -0.6658 -1.5824 -0.6615
 2660TIP3   OH2 7985   2.553   4.708   1.837 -0.1360  0.3009  0.2796
 2660TIP3    H1 7986   2.563   4.614   1.851  0.2338  0.4144  0.7855
 2660TIP3    H2 7987   2.642   4.741   1.826 -0.1967  0.7249  0.9835
 2661TIP3   OH2 7988   5.238   5.746   4.091 -0.0336  0.1478  0.0308
 2661TIP3    H1 7989   5.219   5.675   4.030 -0.4050 -0.9829  1.4281
 2661TIP3    H2 7990   5.215   5.825   4.042 -0.7713 -0.7422 -1.1299
 2662TIP3   OH2 7991   0.720   1.873   4.870 -0.6170 -0.2472 -0.8832
 2662TIP3    H1 7992   0.762   1.958   4.859 -0.8732 -0.1095 -0.8159
 2662TIP3    H2 7993   0.729   1.830   4.785 -0.7453 -0.0361 -1.0040
 2663TIP3   OH2 7994   3.906   0.203   2.153  0.0549 -0.0766  0.2614
 2663TIP3    H1 7995   3.908   0.126   2.210 -0.3293 -1.4545 -1.5018
 2663TIP3    H2 7996   3.843   0.262   2.194 -0.6192 -1.2552  0.9774
 2664TIP3   OH2 7997   5.555   3.098   2.870  0.0337  0.4745  0.3224
 2664TIP3    H1 7998   5.643   3.120   2.839 -0.1926  1.7126  0.5259
 2664TIP3    H2 7999   5.515   3.182   2.890 -1.5697  0.0109 -0.7602
 2665TIP3   OH2 8000   3.270   3.236   1.790  0.0546  0.4845 -0.3845
 2665TIP3    H1 8001   3.248   3.213   1.880 -0.0376 -0.0067 -0.5261
 2665TIP3    H2 8002   3.209   3.306   1.767  0.8530  1.4373  0.3143
 2666TIP3   OH2 8003   2.956   5.104   1.553  0.1325  0.4750  0.2550
 2666TIP3    H1 8004   2.867   5.067   1.552  0.6017 -0.7196  0.0079
 2666TIP3    H2 8005   2.999   5.061   1.627  0.5654  0.8667  0.2313
 2667TIP3   OH2 8006   0.041   2.791   0.855  0.6444  0.6356  0.1113
 2667TIP3    H1 8007   0.020   2.764   0.944  0.9833  0.5515  0.1663
 2667TIP3    H2 8008   0.134   2.815   0.858  0.7100  0.4354 -0.2656
 2668TIP3   OH2 8009   3.699   2.819   0.959  0.8162 -0.7275 -0.0073
 2668TIP3    H1 8010   3.703   2.893   0.898 -0.2698 -1.1630 -0.6467
 2668TIP3    H2 8011   3.751   2.847   1.034  1.9031 -0.0374 -0.9841
 2669TIP3   OH2 8012   0.281   2.626   0.568 -0.5678 -0.1142 -0.1903
 2669TIP3    H1 8013   0.297   2.532   0.560 -1.1287 -0.3642  1.3401
 2669TIP3    H2 8014   0.289   2.644   0.661 -0.9318  1.2752 -0.4096
 2670TIP3   OH2 8015   0.882   0.917   2.642 -0.4487 -0.3510 -0.6107
 2670TIP3    H1 8016   0.870   0.955   2.729  1.2214  0.4971 -0.7123
 2670TIP3    H2 8017   0.795   0.918   2.603 -0.9505  0.7134  0.4755
 2671TIP3   OH2 8018   1.811   0.457   2.149  0.4125  0.3138 -0.2258
 2671TIP3    H1 8019   1.764   0.450   2.232 -0.0363 -0.0054 -0.5088
 2671TIP3    H2 8020   1.778   0.538   2.109 -0.9299 -0.6285 -1.0680
 2672TIP3   OH2 8021   4.663   3.737   5.080 -0.2836  0.1681 -0.4477
 2672TIP3    H1 8022   4.656   3.826   5.047 -2.3262 -0.2015 -1.1399
 2672TIP3    H2 8023   4.695   3.747   5.170  1.0741  1.4528 -1.0296
 2673TIP3   OH2 8024   3.484   2.701   2.362  0.1608  0.3539  0.0315
 2673TIP3    H1 8025   3.512   2.619   2.320  0.3826  0.2031  0.4617
 2673TIP3    H2 8026   3.424   2.672   2.431  1.2857  0.4326  1.0776
 2674TIP3   OH2 8027   1.351   2.564   3.820  0.2052 -0.1912 -0.0058
 2674TIP3    H1 8028   1.281   2.563   3.755  0.3510  1.7590 -0.2412
 2674TIP3    H2 8029   1.334   2.642   3.873  1.4184 -0.4532  0.8141
 2675TIP3   OH2 8030   2.312   2.580   0.592 -0.0075 -0.3023  0.0359
 2675TIP3    H1 8031   2.349   2.556   0.507 -1.8713  0.0015 -0.9009
 2675TIP3    H2 8032   2.232   2.627   0.571 -0.9248 -0.8926  1.9856
 2676TIP3   OH2 8033   5.521   4.625   2.371  0.2096 -0.3888 -0.1621
 2676TIP3    H1 8034   5.597   4.569   2.359 -0.3149 -1.0681 -0.3683
 2676TIP3    H2 8035   5.528   4.656   2.461 -0.4566 -2.2713  0.5916
 2677TIP3   OH2 8036   0.168   4.765   0.607  0.4366  0.0277  0.0178
 2677TIP3    H1 8037   0.112   4.748   0.531 -0.9658  0.1674  0.9845
 2677TIP3    H2 8038   0.237   4.822   0.573 -2.5685  3.8795 -0.3361
 2678TIP3   OH2 8039   6.074   2.634   2.331  0.3583 -0.0179  0.3650
 2678TIP3    H1 8040   6.098   2.555   2.281 -0.1515 -0.2417  0.4763
 2678TIP3    H2 8041   6.138   2.700   2.303  0.1542 -0.1772 -0.4965
 2679TIP3   OH2 8042   4.247   1.581   0.478  0.1657  0.6957 -0.0054
 2679TIP3    H1 8043   4.238   1.626   0.394  0.4914  0.1345 -0.3485
 2679TIP3    H2 8044   4.215   1.493   0.462 -1.0946  0.9813  0.8410
 2680TIP3   OH2 8045   1.166   2.560   3.608  0.3398  0.1202 -0.0887
 2680TIP3    H1 8046   1.123   2.577   3.524  0.0591 -0.5493 -0.0906
 2680TIP3    H2 8047   1.109   2.495   3.650  0.0820  0.9728  0.9277
 2681TIP3   OH2 8048   6.323   0.961   0.804 -0.2904 -0.1757  0.1153
 2681TIP3    H1 8049   6.307   0.869   0.822 -0.8698  0.2339  1.8937
 2681TIP3    H2 8050   6.396   0.984   0.862 -2.1419  1.1904  2.0101
 2682TIP3   OH2 8051   0.194   2.031   0.697  0.1188 -0.0115 -0.0482
 2682TIP3    H1 8052   0.140   1.985   0.761  0.6203 -0.1522  0.2825
 2682TIP3    H2 8053   0.135   2.094   0.656  0.2302  1.5051  1.9594
 2683TIP3   OH2 8054   1.241   0.804   0.427 -0.2456 -0.1233 -0.0097
 2683TIP3    H1 8055   1.284   0.889   0.435  0.3421 -0.3758 -0.4117
 2683TIP3    H2 8056   1.237   0.771   0.517 -1.7345  0.9204  0.3441
 2684TIP3   OH2 8057   2.992   0.706   2.201  0.3475  0.2284 -0.1926
 2684TIP3    H1 8058   2.931   0.733   2.133 -0.9715 -1.0570  0.4266
 2684TIP3    H2 8059   3.073   0.684   2.154 -0.2219  0.2758 -1.2214
 2685TIP3   OH2 8060   4.166   1.222   2.112  0.5547  0.1124  0.3618
 2685TIP3    H1 8061   4.150   1.316   2.104  0.8496  0.3461  2.1394
 2685TIP3    H2 8062   4.219   1.213   2.191 -0.1992 -1.6322  0.7279
 2686TIP3   OH2 8063   3.743   3.738   2.019  0.0760 -0.0492 -0.1029
 2686TIP3    H1 8064   3.667   3.747   2.076 -0.5984 -0.9452 -0.8345
 2686TIP3    H2 8065   3.728   3.801   1.948  0.1031 -0.1085 -0.1613
 2687TIP3   OH2 8066   6.021   1.764   5.113  0.7653 -0.2630  0.0308
 2687TIP3    H1 8067   6.037   1.749   5.206  0.8771 -0.4231 -0.0125
 2687TIP3    H2 8068   5.957   1.835   5.110  1.5421  0.4451  0.2022
 2688TIP3   OH2 8069   2.151   5.047   1.716 -0.3750 -0.3126 -0.3421
 2688TIP3    H1 8070   2.221   5.085   1.663 -0.6955 -0.1050 -0.6149
 2688TIP3    H2 8071   2.118   4.974   1.664  0.0274 -0.7800  0.0432
 2689TIP3   OH2 8072   5.703   5.829   2.944 -0.1203 -0.1048 -0.3352
 2689TIP3    H1 8073   5.624   5.811   2.996  0.1741 -0.1471  0.0996
 2689TIP3    H2 8074   5.767   5.764   2.974  0.0151 -0.2122 -0.8407
 2690TIP3   OH2 8075   1.735   2.669   1.544 -0.0076  0.4429  0.3362
 2690TIP3    H1 8076   1.830   2.675   1.558 -0.1866  1.5079  1.1510
 2690TIP3    H2 8077   1.718   2.732   1.474 -0.0694 -0.0415 -0.0920
 2691TIP3   OH2 8078   2.607   1.996   4.267 -0.5045 -0.1417 -0.0767
 2691TIP3    H1 8079   2.693   1.958   4.286 -1.0652 -0.7822  1.2858
 2691TIP3    H2 8080   2.564   1.931   4.212 -0.8242 -0.7142  0.8371
 2692TIP3   OH2 8081   4.559   3.795   1.086  0.1924  0.3835  0.4119
 2692TIP3    H1 8082   4.612   3.872   1.067  0.1767 -0.1787 -2.1641
 2692TIP3    H2 8083   4.620   3.722   1.086 -0.2908 -0.0378 -0.7319
 2693TIP3   OH2 8084   1.727   3.044   4.038 -0.4899 -0.2677 -0.0597
 2693TIP3    H1 8085   1.721   3.099   3.960  2.2569  1.1853  0.6372
 2693TIP3    H2 8086   1.799   2.984   4.019  0.1613  0.0520  1.3393
 2694TIP3   OH2 8087   2.351   3.945   1.699 -0.1921  0.3203  0.7378
 2694TIP3    H1 8088   2.444   3.968   1.705 -0.1250  0.0439  0.7374
 2694TIP3    H2 8089   2.341   3.868   1.755 -0.4904  0.5545  1.0185
 2695TIP3   OH2 8090   3.305   3.591   2.186 -0.3774 -0.0335 -0.5176
 2695TIP3    H1 8091   3.243   3.555   2.122 -0.5566  0.0628 -0.4002
 2695TIP3    H2 8092   3.267   3.675   2.210  0.3177  0.4848 -1.1953
 2696TIP3   OH2 8093   1.819   2.549   0.303 -0.0136 -0.1209  0.6256
 2696TIP3    H1 8094   1.901   2.560   0.256 -0.5982  0.1800 -0.3652
 2696TIP3    H2 8095   1.818   2.619   0.368 -1.3459  2.7306 -2.1614
 2697TIP3   OH2 8096   2.309   3.861   5.043 -0.2162 -0.5409  0.1181
 2697TIP3    H1 8097   2.298   3.877   5.137  0.0163 -0.4254  0.1271
 2697TIP3    H2 8098   2.389   3.809   5.037  0.5989  0.7068 -0.1188
 2698TIP3   OH2 8099   3.799   2.681   2.378 -0.4463  0.3249  0.2795
 2698TIP3    H1 8100   3.733   2.612   2.373  0.7521 -0.8637  0.2123
 2698TIP3    H2 8101   3.800   2.707   2.470 -0.3872 -0.2901  0.4564
 2699TIP3   OH2 8102   2.209   3.377   1.346 -0.3601 -0.1072 -0.2157
 2699TIP3    H1 8103   2.236   3.371   1.438 -0.4095  0.7258 -0.1407
 2699TIP3    H2 8104   2.149   3.303   1.334 -0.6363 -0.0135  0.5236
 2700TIP3   OH2 8105   5.107   4.970   0.543  0.3207  0.4205 -0.3280
 2700TIP3    H1 8106   5.155   5.051   0.561 -0.5996  0.6708  1.2697
 2700TIP3    H2 8107   5.059   4.989   0.462 -1.0771  2.1084  0.8046
 2701TIP3   OH2 8108   3.857   2.908   0.622 -0.1182 -0.2109 -0.1580
 2701TIP3    H1 8109   3.863   3.002   0.634  0.4306 -0.4357  1.5791
 2701TIP3    H2 8110   3.767   2.893   0.591 -0.4876  0.7980  0.3894
 2702TIP3   OH2 8111   3.619   5.910   4.937  0.8029  0.1540 -0.2248
 2702TIP3    H1 8112   3.613   6.001   4.909  0.2016  0.8346  1.9104
 2702TIP3    H2 8113   3.680   5.911   5.011  1.5371 -1.3452 -0.7712
 2703TIP3   OH2 8114   5.532   2.390   4.142 -0.5946  0.4334  0.1588
 2703TIP3    H1 8115   5.463   2.411   4.080  0.9260  1.3815 -1.2872
 2703TIP3    H2 8116   5.498   2.315   4.192 -2.4026  0.5133 -0.8814
 2704TIP3   OH2 8117   4.246   4.649   2.774 -0.4070  0.0391 -0.0456
 2704TIP3    H1 8118   4.232   4.555   2.762  1.5750 -0.5871  1.8424
 2704TIP3    H2 8119   4.306   4.673   2.703 -0.3648 -0.3029 -0.1280
 2705TIP3   OH2 8120   0.767   2.536   3.086 -0.6725 -0.5384  0.1872
 2705TIP3    H1 8121   0.814   2.459   3.119  0.1442  0.2079  0.7927
 2705TIP3    H2 8122   0.728   2.506   3.004 -1.1561 -1.8720  0.8770
 2706TIP3   OH2 8123   4.609   1.115   4.517  0.5160  0.0095  1.1552
 2706TIP3    H1 8124   4.548   1.132   4.588  1.1376 -0.3190  1.7847
 2706TIP3    H2 8125   4.674   1.185   4.523 -0.0595  0.6335  0.1887
 2707TIP3   OH2 8126   2.341   4.857   2.224 -0.4410  0.2564  0.2314
 2707TIP3    H1 8127   2.312   4.881   2.136  0.8892  1.2475  0.0215
 2707TIP3    H2 8128   2.409   4.921   2.245  1.2423 -1.6359  0.8621
 2708TIP3   OH2 8129   4.437   2.777   3.038  0.1448  0.8388  0.5327
 2708TIP3    H1 8130   4.490   2.756   3.115  0.7401 -0.4868 -0.2175
 2708TIP3    H2 8131   4.352   2.805   3.075  0.4420  0.3123  1.6689
 2709TIP3   OH2 8132   1.824   1.929   2.576  0.0107 -0.3159 -0.1877
 2709TIP3    H1 8133   1.864   1.842   2.573 -0.1474 -0.5654  2.7136
 2709TIP3    H2 8134   1.738   1.915   2.617  0.4863  1.3238  1.4966
 2710TIP3   OH2 8135   1.174   1.760   4.955 -0.1055 -0.1655  0.1259
 2710TIP3    H1 8136   1.080   1.750   4.972 -0.0401 -0.3623  0.3879
 2710TIP3    H2 8137   1.216   1.713   5.028  0.1935 -0.1859 -0.0597
 2711TIP3   OH2 8138   4.272   3.420   2.397 -0.9714  0.0500 -0.2001
 2711TIP3    H1 8139   4.336   3.382   2.457 -0.7635 -1.4231 -1.3180
 2711TIP3    H2 8140   4.297   3.512   2.391  0.6010 -0.3414 -0.0340
 2712TIP3   OH2 8141   3.567   4.606   0.161  0.7127  0.0823  0.1325
 2712TIP3    H1 8142   3.534   4.613   0.251 -2.0060 -0.0529 -0.7773
 2712TIP3    H2 8143   3.530   4.524   0.128  2.5868 -0.4528 -0.8160
 2713TIP3   OH2 8144   4.107   5.695   1.596 -0.5786 -0.3160 -0.5031
 2713TIP3    H1 8145   4.066   5.721   1.514  0.6638 -0.6881 -1.2576
 2713TIP3    H2 8146   4.191   5.656   1.571 -0.2905 -0.6858  0.9189
 2714TIP3   OH2 8147   1.854   1.919   4.555 -0.0600 -0.1787 -0.0746
 2714TIP3    H1 8148   1.928   1.977   4.535  0.5493 -0.7846  0.3839
 2714TIP3    H2 8149   1.853   1.855   4.484 -0.7036  0.3449 -0.5550
 2715TIP3   OH2 8150   2.568   3.442   0.937  0.0214  0.5421  0.5441
 2715TIP3    H1 8151   2.556   3.361   0.987  0.0533 -0.7277 -1.4235
 2715TIP3    H2 8152   2.597   3.414   0.851  0.3207  2.6862 -0.1247
 2716TIP3   OH2 8153   3.246   5.383   4.803 -0.3841 -0.3662  0.5247
 2716TIP3    H1 8154   3.294   5.340   4.874  0.3494 -0.1058  0.1980
 2716TIP3    H2 8155   3.230   5.313   4.740  2.0641  0.0363 -0.6814
 2717TIP3   OH2 8156   0.638   5.065   4.001 -0.0728  0.4592 -0.1180
 2717TIP3    H1 8157   0.552   5.053   4.042 -0.4993  1.5032 -0.6717
 2717TIP3    H2 8158   0.625   5.137   3.940  1.7965  2.4015  1.6070
 2718TIP3   OH2 8159   3.330   2.747   4.265  0.0843  0.5291 -0.1496
 2718TIP3    H1 8160   3.364   2.835   4.282  1.9181  0.1455 -1.4025
 2718TIP3    H2 8161   3.245   2.761   4.225  0.5853  1.7882 -0.8320
 2719TIP3   OH2 8162   2.406   3.633   1.016 -0.0151 -0.5045  0.0627
 2719TIP3    H1 8163   2.464   3.564   0.985  0.7413  0.1461 -0.0108
 2719TIP3    H2 8164   2.441   3.657   1.102  1.0354  1.1888 -0.7594
 2720TIP3   OH2 8165   3.300   3.195   0.801 -0.5035  0.0838 -0.1504
 2720TIP3    H1 8166   3.257   3.180   0.886 -2.6887 -2.6144 -1.5717
 2720TIP3    H2 8167   3.255   3.272   0.766  0.4877  1.2901  1.0905
 2721TIP3   OH2 8168   5.425   4.823   4.122 -0.4358  0.1542 -0.0907
 2721TIP3    H1 8169   5.515   4.830   4.091 -1.1189  0.6138 -2.1349
 2721TIP3    H2 8170   5.411   4.904   4.172  0.5497 -0.3637  1.0530
 2722TIP3   OH2 8171   5.725   3.639   0.376 -0.0599 -0.0178 -0.4365
 2722TIP3    H1 8172   5.785   3.564   0.372  1.4079  1.1173 -0.6382
 2722TIP3    H2 8173   5.742   3.677   0.462 -0.5357  0.2960 -0.4806
 2723TIP3   OH2 8174   1.616   5.030   0.129  0.1080  0.0053 -0.2698
 2723TIP3    H1 8175   1.702   5.047   0.089 -0.2098  0.6450 -0.7103
 2723TIP3    H2 8176   1.554   5.070   0.068 -0.5030 -0.4671  0.0391
 2724TIP3   OH2 8177   1.600   2.542   2.016 -0.1182  0.5056 -0.4109
 2724TIP3    H1 8178   1.551   2.613   2.059  1.3302  0.7310  0.9376
 2724TIP3    H2 8179   1.625   2.579   1.931 -2.1413  0.4220 -1.0949
 2725TIP3   OH2 8180   0.173   5.295   0.555  0.6737 -0.0490  0.2223
 2725TIP3    H1 8181   0.091   5.342   0.540  1.6168  1.8206  0.5929
 2725TIP3    H2 8182   0.151   5.227   0.619 -0.6295  0.2196  0.0945
 2726TIP3   OH2 8183   6.265   3.003   3.612 -0.4176  0.0366 -0.0364
 2726TIP3    H1 8184   6.202   3.002   3.540 -1.7627  0.5819  1.0925
 2726TIP3    H2 8185   6.293   3.094   3.618 -0.6952  0.0955  0.4326
 2727TIP3   OH2 8186   3.195   4.473   3.628  0.2991  0.4750 -0.0683
 2727TIP3    H1 8187   3.214   4.462   3.721  0.7269  2.7155  0.1690
 2727TIP3    H2 8188   3.108   4.437   3.616  0.5809 -0.6217  1.0044
 2728TIP3   OH2 8189   5.244   3.422   5.075  0.5009 -0.3944 -0.1075
 2728TIP3    H1 8190   5.273   3.499   5.124 -1.2716  0.3689 -0.1455
 2728TIP3    H2 8191   5.303   3.352   5.102  0.7059  0.4253  1.7348
 2729TIP3   OH2 8192   2.215   5.509   1.706  0.2794  0.2125  0.1385
 2729TIP3    H1 8193   2.307   5.514   1.732 -0.3388  1.8239  2.3205
 2729TIP3    H2 8194   2.192   5.598   1.680 -1.1685  0.3223  1.6515
 2730TIP3   OH2 8195   5.063   6.001   3.306 -0.2823 -0.5349 -0.0044
 2730TIP3    H1 8196   5.132   5.948   3.344 -0.0828 -0.6527 -0.5271
 2730TIP3    H2 8197   5.076   5.995   3.211 -0.8217 -0.3155 -0.1013
 2731TIP3   OH2 8198   4.961   5.993   0.041  0.7194 -0.1820 -0.3901
 2731TIP3    H1 8199   4.952   5.996   0.136 -0.7001 -1.9262 -0.4230
 2731TIP3    H2 8200   5.044   5.948   0.026  1.0528  0.2918  0.0002
 2732TIP3   OH2 8201   2.318   3.455   1.623  0.3715 -0.6868  0.3326
 2732TIP3    H1 8202   2.404   3.495   1.634  1.3044 -2.5208  0.0788
 2732TIP3    H2 8203   2.256   3.524   1.646  1.8658  1.0123 -0.5286
 2733TIP3   OH2 8204   1.774   4.354   3.233 -0.8270  0.3297 -0.0612
 2733TIP3    H1 8205   1.783   4.418   3.163  1.3784 -0.2652 -0.4099
 2733TIP3    H2 8206   1.863   4.323   3.249 -1.3757 -0.2453  2.3868
 2734TIP3   OH2 8207   6.236   0.498   3.281 -0.3189 -0.3540 -0.4261
 2734TIP3    H1 8208   6.298   0.568   3.298  0.2013 -0.5677 -1.3644
 2734TIP3    H2 8209   6.174   0.535   3.219 -1.3518 -0.0384  0.7487
 2735TIP3   OH2 8210   4.905   3.479   1.874 -0.2583 -0.4120 -0.3993
 2735TIP3    H1 8211   4.903   3.515   1.963 -0.9465 -1.3798 -0.0000
 2735TIP3    H2 8212   4.813   3.461   1.853 -0.0525 -0.6853 -1.0969
 2736TIP3   OH2 8213   4.718   2.600   0.281  0.1340  0.0571  0.8596
 2736TIP3    H1 8214   4.723   2.504   0.285 -0.9144  0.0272  1.9124
 2736TIP3    H2 8215   4.692   2.618   0.190  1.4712 -0.5729  0.3187
 2737TIP3   OH2 8216   3.912   4.055   3.081 -0.6789  0.5082 -0.0918
 2737TIP3    H1 8217   3.979   4.072   3.147 -0.8646 -0.3578  0.3431
 2737TIP3    H2 8218   3.830   4.083   3.122 -0.7122  0.5690 -0.2013
 2738TIP3   OH2 8219   0.360   5.112   4.365 -0.5683 -0.4508 -0.1689
 2738TIP3    H1 8220   0.321   5.185   4.318 -1.1819  0.6634  1.9093
 2738TIP3    H2 8221   0.285   5.066   4.404 -0.1831 -2.1662 -1.3678
 2739TIP3   OH2 8222   2.640   3.203   4.899 -0.6101 -0.4583 -0.0612
 2739TIP3    H1 8223   2.580   3.274   4.876 -1.7534 -1.1561  0.6174
 2739TIP3    H2 8224   2.704   3.243   4.958  0.4469  0.6075 -1.8448
 2740TIP3   OH2 8225   5.045   2.158   1.467  0.6218 -0.0075  0.5542
 2740TIP3    H1 8226   5.081   2.172   1.379  0.2196 -0.6775  0.2688
 2740TIP3    H2 8227   5.121   2.141   1.522  1.0602  2.4212  0.7697
 2741TIP3   OH2 8228   1.864   3.673   1.446  0.4698 -0.2679  0.4108
 2741TIP3    H1 8229   1.859   3.628   1.531  0.5451  0.0912  0.6086
 2741TIP3    H2 8230   1.797   3.631   1.393  0.7184 -0.8012  0.5014
 2742TIP3   OH2 8231   5.587   3.316   1.882 -0.4953  0.6847  0.1640
 2742TIP3    H1 8232   5.627   3.371   1.950  2.0181  1.3032 -1.6743
 2742TIP3    H2 8233   5.570   3.375   1.810  0.4700 -0.5476 -1.1405
 2743TIP3   OH2 8234   0.859   1.033   4.020 -0.9280  0.4164 -0.4057
 2743TIP3    H1 8235   0.931   1.004   4.077 -0.5024 -0.5146 -1.3837
 2743TIP3    H2 8236   0.862   1.129   4.024  0.5421  0.4069 -0.6159
 2744TIP3   OH2 8237   2.827   5.072   3.989 -0.1050 -0.5385 -0.0023
 2744TIP3    H1 8238   2.796   4.987   3.959  0.2182 -0.2716 -1.1237
 2744TIP3    H2 8239   2.799   5.134   3.921  0.2470  0.1470  0.4621
 2745TIP3   OH2 8240   0.357   2.778   1.665 -0.0200  0.0802 -0.1728
 2745TIP3    H1 8241   0.357   2.811   1.755  1.2542 -0.3729  0.0237
 2745TIP3    H2 8242   0.448   2.754   1.649 -0.2099  0.2648 -1.6359
 2746TIP3   OH2 8243   4.582   1.483   2.015  0.9475 -0.1474  0.2320
 2746TIP3    H1 8244   4.567   1.526   2.099 -2.0586 -0.9593  0.2014
 2746TIP3    H2 8245   4.558   1.549   1.950 -0.5222 -0.7482  0.1301
 2747TIP3   OH2 8246   5.147   0.588   2.363  0.0010 -0.0493 -0.2899
 2747TIP3    H1 8247   5.160   0.509   2.415  0.9537  0.1226 -0.2503
 2747TIP3    H2 8248   5.233   0.630   2.360 -1.1440  2.9906  2.8675
 2748TIP3   OH2 8249   5.546   3.716   2.804  0.2172  0.4240 -0.0335
 2748TIP3    H1 8250   5.504   3.744   2.723  1.0915  0.4178 -0.5125
 2748TIP3    H2 8251   5.477   3.673   2.854 -0.4429  0.8376 -0.5750
 2749TIP3   OH2 8252   2.848   2.961   4.146 -0.0768 -0.0252  0.2075
 2749TIP3    H1 8253   2.760   2.984   4.119  0.1903  0.9434  0.1344
 2749TIP3    H2 8254   2.850   2.977   4.240 -0.1273 -0.5542  0.3037
 2750TIP3   OH2 8255   1.970   2.809   0.976  0.3691 -0.6371 -0.4777
 2750TIP3    H1 8256   2.059   2.839   0.959 -0.1634  1.4429  0.1274
 2750TIP3    H2 8257   1.946   2.761   0.897  1.1999  0.8104 -1.6745
 2751TIP3   OH2 8258   3.183   3.144   0.442  0.2812 -0.4473  0.2658
 2751TIP3    H1 8259   3.169   3.145   0.347 -1.7710  0.0745  0.5109
 2751TIP3    H2 8260   3.250   3.078   0.457  0.7010 -0.4730 -1.5526
 2752TIP3   OH2 8261   0.395   2.074   4.570  0.2580 -0.3791  0.1990
 2752TIP3    H1 8262   0.354   2.111   4.648  1.6856  2.4080 -0.2417
 2752TIP3    H2 8263   0.467   2.134   4.550 -0.6995 -0.3176 -3.8896
 2753TIP3   OH2 8264   1.020   3.714   0.303 -0.0357 -0.3107  0.0956
 2753TIP3    H1 8265   1.088   3.658   0.266  0.5915 -0.2536  1.1426
 2753TIP3    H2 8266   1.023   3.793   0.248  1.6835  0.2580  0.9210
 2754TIP3   OH2 8267   2.178   5.534   3.232  0.0920  0.3389 -0.5219
 2754TIP3    H1 8268   2.226   5.592   3.291 -2.1491  1.1371  0.6401
 2754TIP3    H2 8269   2.198   5.567   3.144 -0.2401  2.1926  0.0551
 2755TIP3   OH2 8270   1.401   4.884   0.425 -0.4836 -0.3659  0.0932
 2755TIP3    H1 8271   1.435   4.798   0.448  1.9467  0.3769 -0.4308
 2755TIP3    H2 8272   1.357   4.914   0.505  0.8438 -1.0652  1.1203
 2756TIP3   OH2 8273   0.631   0.739   5.006  0.2651 -0.1430  0.1391
 2756TIP3    H1 8274   0.599   0.825   5.034  0.3088 -0.1158  0.1053
 2756TIP3    H2 8275   0.643   0.748   4.911  0.8950  0.0136  0.2320
 2757TIP3   OH2 8276   0.444   1.524   4.081  0.2272  0.1514  0.2729
 2757TIP3    H1 8277   0.426   1.430   4.080 -0.2793  0.2480 -0.3777
 2757TIP3    H2 8278   0.492   1.540   4.000  1.0117  0.3283  0.7635
 2758TIP3   OH2 8279   2.450   0.898   0.637  0.3379 -0.4425 -0.2108
 2758TIP3    H1 8280   2.438   0.920   0.729  0.8929  0.3590 -0.3110
 2758TIP3    H2 8281   2.445   0.803   0.634 -0.5136 -0.4401  0.5159
 2759TIP3   OH2 8282   4.081   0.398   2.265 -0.8263  0.1032 -0.2383
 2759TIP3    H1 8283   4.023   0.368   2.194 -1.0843 -1.7449  0.6859
 2759TIP3    H2 8284   4.030   0.384   2.344 -0.4768  1.9971  0.3500
 2760TIP3   OH2 8285   3.243   2.073   5.080 -0.3395  0.1562 -0.1499
 2760TIP3    H1 8286   3.160   2.110   5.109  0.3410  1.4120  0.3100
 2760TIP3    H2 8287   3.220   1.992   5.036 -1.7003 -0.1353  1.0451
 2761TIP3   OH2 8288   2.645   5.414   3.892 -0.3518  0.4804  0.2478
 2761TIP3    H1 8289   2.666   5.331   3.850 -0.2558  0.5876  0.0782
 2761TIP3    H2 8290   2.550   5.423   3.882 -0.1644  1.2161 -1.3283
 2762TIP3   OH2 8291   5.011   5.760   3.822  0.2408  0.4937  0.3478
 2762TIP3    H1 8292   4.972   5.803   3.898  2.0638 -1.1184  2.3277
 2762TIP3    H2 8293   5.049   5.832   3.771 -0.6482  1.5907  1.1717
 2763TIP3   OH2 8294   3.700   1.148   3.244  0.4395  0.2770 -0.5115
 2763TIP3    H1 8295   3.767   1.138   3.311  1.8363  1.8956 -1.5756
 2763TIP3    H2 8296   3.742   1.201   3.176 -1.7051  0.7628 -1.5384
 2764TIP3   OH2 8297   3.403   2.256   2.644  0.5871 -0.2383 -0.2414
 2764TIP3    H1 8298   3.385   2.303   2.562  0.2490 -0.8632 -0.5323
 2764TIP3    H2 8299   3.319   2.254   2.689  0.5006 -0.9212 -0.4241
 2765TIP3   OH2 8300   2.994   5.685   2.490 -0.4302  0.1854 -0.4593
 2765TIP3    H1 8301   2.924   5.621   2.503  0.7167 -0.9065  0.6048
 2765TIP3    H2 8302   3.030   5.664   2.403  0.4804 -1.1959  0.2266
 2766TIP3   OH2 8303   4.006   4.339   0.861 -0.1759 -0.1591 -0.1642
 2766TIP3    H1 8304   3.972   4.418   0.902 -0.4185 -0.4625  0.2305
 2766TIP3    H2 8305   3.953   4.268   0.899  1.3365 -0.7267  0.9778
 2767TIP3   OH2 8306   4.732   2.371   4.736  0.0993  0.2927  0.4931
 2767TIP3    H1 8307   4.726   2.374   4.641 -0.7582  0.1674  0.5275
 2767TIP3    H2 8308   4.779   2.290   4.756 -1.7457 -0.9041  0.2153
 2768TIP3   OH2 8309   3.644   1.903   3.960  0.3931 -0.1524 -0.3410
 2768TIP3    H1 8310   3.701   1.870   4.030 -0.8103 -0.1631  0.6765
 2768TIP3    H2 8311   3.559   1.916   4.003 -0.4872 -0.5270 -1.8945
 2769TIP3   OH2 8312   2.943   0.361   1.920  0.1300 -0.6385  0.5620
 2769TIP3    H1 8313   2.897   0.285   1.883 -0.4986  0.0994 -0.2317
 2769TIP3    H2 8314   2.897   0.437   1.882  0.3051  0.1447  1.8689
 2770TIP3   OH2 8315   1.848   1.382   2.301 -0.6548 -0.0143 -0.2137
 2770TIP3    H1 8316   1.837   1.475   2.319  0.8455  0.0970  0.3136
 2770TIP3    H2 8317   1.912   1.352   2.365 -1.8908 -1.6758  0.3194
 2771TIP3   OH2 8318   0.070   3.804   4.757  0.1796 -0.3787  0.1812
 2771TIP3    H1 8319   0.053   3.894   4.727 -0.8215 -0.4603  0.4582
 2771TIP3    H2 8320   0.002   3.752   4.714  0.4750 -0.9369  0.3878
 2772TIP3   OH2 8321   4.872   4.736   4.366 -0.0699  0.0925  0.1263
 2772TIP3    H1 8322   4.819   4.687   4.429 -1.3507 -0.7758 -1.5562
 2772TIP3    H2 8323   4.855   4.828   4.386  0.0333 -0.1455  1.4105
 2773TIP3   OH2 8324   0.708   2.852   3.348  0.2544 -0.2292  0.4339
 2773TIP3    H1 8325   0.673   2.765   3.367  0.1656  0.2795  3.0133
 2773TIP3    H2 8326   0.673   2.873   3.261 -1.1043 -2.0703  0.4603
 2774TIP3   OH2 8327   2.199   0.995   2.772  0.1602  0.0168 -0.2899
 2774TIP3    H1 8328   2.221   1.085   2.795 -1.5088  0.4990 -0.4085
 2774TIP3    H2 8329   2.264   0.970   2.707  0.8806  1.0041  0.0238
 2775TIP3   OH2 8330   1.342   3.970   3.583 -0.3078  0.0755  0.3519
 2775TIP3    H1 8331   1.364   4.012   3.666 -0.0803  0.5457  0.0563
 2775TIP3    H2 8332   1.427   3.954   3.541 -0.4702  1.0853 -0.3938
 2776TIP3   OH2 8333   5.064   0.139   3.413  0.5417 -0.2278 -0.0504
 2776TIP3    H1 8334   5.143   0.085   3.402  0.8346  0.2818 -0.4767
 2776TIP3    H2 8335   4.997   0.077   3.442  0.3544 -1.2401 -2.4405
 2777TIP3   OH2 8336   4.641   2.754   4.439  0.4733  0.3566 -0.1065
 2777TIP3    H1 8337   4.607   2.793   4.520  1.4857 -0.7877  0.9212
 2777TIP3    H2 8338   4.736   2.755   4.451  0.6924  1.0187 -1.7115
 2778TIP3   OH2 8339   4.503   2.533   2.912 -0.2420  0.4046 -0.6897
 2778TIP3    H1 8340   4.446   2.513   2.838 -0.4386 -0.1857 -0.3850
 2778TIP3    H2 8341   4.466   2.614   2.949 -0.4427  0.4247 -0.9314
 2779TIP3   OH2 8342   6.035   4.380   1.324  0.8681 -0.0000  0.5383
 2779TIP3    H1 8343   5.952   4.332   1.320 -0.0531  1.4987  0.9737
 2779TIP3    H2 8344   6.096   4.326   1.272 -0.9669  0.0173 -1.8314
 2780TIP3   OH2 8345   5.057   0.717   2.055  0.4319  0.5229 -0.1763
 2780TIP3    H1 8346   5.124   0.781   2.077  0.4823  0.4341 -0.0759
 2780TIP3    H2 8347   5.041   0.731   1.961  1.0814  0.0822 -0.3613
 2781TIP3   OH2 8348   5.303   0.831   2.652 -0.1718 -0.6275 -0.0726
 2781TIP3    H1 8349   5.374   0.873   2.699 -0.0840 -0.2374 -0.5419
 2781TIP3    H2 8350   5.290   0.747   2.697 -0.0766 -0.2778  0.6184
 2782TIP3   OH2 8351   0.451   0.539   0.566 -0.3260  0.2176 -0.2082
 2782TIP3    H1 8352   0.409   0.595   0.632 -1.0340 -0.3352 -0.1792
 2782TIP3    H2 8353   0.379   0.504   0.514 -0.0270 -1.6260  0.5234
 2783TIP3   OH2 8354   0.594   3.166   4.697  0.6745  0.0785  0.0355
 2783TIP3    H1 8355   0.606   3.127   4.784  1.1982 -1.2003 -0.5711
 2783TIP3    H2 8356   0.676   3.212   4.680  0.9137 -0.3925 -0.1149
 2784TIP3   OH2 8357   1.990   5.697   1.806 -0.0167 -0.5510  0.6845
 2784TIP3    H1 8358   2.050   5.644   1.858  0.2880 -0.8368  0.0409
 2784TIP3    H2 8359   1.906   5.688   1.850  0.1259 -1.2152  0.8309
 2785TIP3   OH2 8360   2.973   1.194   4.250  0.1876  0.2163 -0.4763
 2785TIP3    H1 8361   2.918   1.228   4.321  0.0948 -1.3574  0.2505
 2785TIP3    H2 8362   2.929   1.223   4.170 -1.0969 -0.0631  0.0981
 2786TIP3   OH2 8363   6.176   1.742   0.045 -0.2516 -0.3859 -0.2040
 2786TIP3    H1 8364   6.249   1.743  -0.018 -0.3463  2.7907 -0.4039
 2786TIP3    H2 8365   6.216   1.770   0.127 -0.6573 -1.9274  0.5489
 2787TIP3   OH2 8366   2.653   0.905   2.194  0.2511  0.2296 -0.7077
 2787TIP3    H1 8367   2.678   0.840   2.128 -1.0370 -0.8311 -0.2045
 2787TIP3    H2 8368   2.564   0.880   2.219 -0.3395  2.2983 -0.6028
 2788TIP3   OH2 8369   2.368   0.740   1.308  0.3791  0.5791  0.6087
 2788TIP3    H1 8370   2.339   0.820   1.263 -0.4682  0.0318  0.1574
 2788TIP3    H2 8371   2.312   0.671   1.273  0.7694 -0.1349  1.3600
 2789TIP3   OH2 8372   6.024   1.016   2.713 -0.2040  0.3074  0.2979
 2789TIP3    H1 8373   6.082   1.074   2.763 -2.0560  3.3634 -0.7816
 2789TIP3    H2 8374   5.936   1.044   2.738 -1.2082 -1.4949 -1.0051
 2790TIP3   OH2 8375   4.668   1.191   0.924 -0.0954 -0.0945 -0.3780
 2790TIP3    H1 8376   4.649   1.278   0.888 -3.2796 -1.3866 -2.2896
 2790TIP3    H2 8377   4.720   1.148   0.856 -1.5571 -0.7664 -1.1306
 2791TIP3   OH2 8378   1.759   4.471   0.090 -0.2471 -0.0274 -0.0937
 2791TIP3    H1 8379   1.771   4.479   0.184 -0.7885  1.7926 -0.1277
 2791TIP3    H2 8380   1.667   4.493   0.076  0.0186  0.5040 -1.1039
 2792TIP3   OH2 8381   1.975   5.485   3.974 -0.5435 -0.0323 -0.4220
 2792TIP3    H1 8382   2.008   5.396   3.966  0.7493  0.4734 -0.9818
 2792TIP3    H2 8383   2.020   5.521   4.051 -1.7478 -0.1320  0.3617
 2793TIP3   OH2 8384   5.528   5.920   1.922 -0.7308  0.6173 -0.2570
 2793TIP3    H1 8385   5.554   6.007   1.952 -0.0814  1.3780 -2.7924
 2793TIP3    H2 8386   5.432   5.923   1.922 -0.8756  0.0595  2.8785
 2794TIP3   OH2 8387   0.328   5.098   2.849  0.2904  0.6892  0.6026
 2794TIP3    H1 8388   0.284   5.173   2.809  0.1261 -0.2525 -1.0581
 2794TIP3    H2 8389   0.259   5.052   2.896  0.6912  2.4107  3.0358
 2795TIP3   OH2 8390   1.878   3.252   3.352 -0.2077 -0.0876 -0.5831
 2795TIP3    H1 8391   1.883   3.343   3.323  0.2859  0.0446 -0.0920
 2795TIP3    H2 8392   1.938   3.246   3.426 -1.4204 -0.4167  0.4243
 2796TIP3   OH2 8393   4.098   1.788   4.600 -0.3059 -0.0206 -0.2202
 2796TIP3    H1 8394   4.066   1.708   4.558 -0.5453 -0.4671  0.7869
 2796TIP3    H2 8395   4.137   1.838   4.528 -0.6204 -0.7992 -0.9582
 2797TIP3   OH2 8396   2.562   0.526   3.915 -0.1012 -0.2572 -0.1506
 2797TIP3    H1 8397   2.567   0.500   4.007  1.1608 -1.1914 -0.4522
 2797TIP3    H2 8398   2.501   0.465   3.875  1.3809 -1.6102 -0.4511
 2798TIP3   OH2 8399   5.233   5.258   2.389 -0.1029  0.1702 -0.1630
 2798TIP3    H1 8400   5.301   5.225   2.330 -1.8411 -0.4793 -1.8885
 2798TIP3    H2 8401   5.154   5.211   2.363 -0.9397 -0.2782  2.8325
 2799TIP3   OH2 8402   5.629   4.656   1.547 -0.0005  0.1096  0.2702
 2799TIP3    H1 8403   5.599   4.586   1.605  1.3183 -0.6016  0.1328
 2799TIP3    H2 8404   5.660   4.611   1.469 -0.4698  0.9648 -0.4267
 2800TIP3   OH2 8405   4.749   0.204   4.605 -0.2896  0.6937  0.3607
 2800TIP3    H1 8406   4.711   0.264   4.541 -1.3294  0.0079  0.3073
 2800TIP3    H2 8407   4.794   0.260   4.667  0.1842  1.4111 -0.6073
 2801TIP3   OH2 8408   2.361   0.082   0.042 -0.0792  0.2861  0.4673
 2801TIP3    H1 8409   2.403   0.113   0.123  0.6050 -0.8535  0.5656
 2801TIP3    H2 8410   2.394   0.142  -0.025 -0.3856  1.0333  0.9739
 2802TIP3   OH2 8411   4.221   0.316   4.749  0.2146  0.1050 -0.3520
 2802TIP3    H1 8412   4.203   0.365   4.668 -0.7485 -2.2755 -1.6961
 2802TIP3    H2 8413   4.316   0.314   4.755  0.2921  0.8300 -1.1239
 2803TIP3   OH2 8414   3.618   4.217   1.853 -0.2485  0.0326  0.5403
 2803TIP3    H1 8415   3.555   4.207   1.782 -1.2767 -1.4820  1.6073
 2803TIP3    H2 8416   3.643   4.127   1.876  1.6425  0.5605  0.7509
 2804TIP3   OH2 8417   4.734   3.497   1.287  0.2327 -0.3216  0.0744
 2804TIP3    H1 8418   4.667   3.445   1.330  0.6543 -0.3077  0.7661
 2804TIP3    H2 8419   4.749   3.571   1.346  2.5211 -1.5360  1.1461
 2805TIP3   OH2 8420   2.331   3.102   1.427 -0.4744  0.1828 -0.3529
 2805TIP3    H1 8421   2.251   3.077   1.473 -0.1006  1.0850  0.8241
 2805TIP3    H2 8422   2.385   3.022   1.428 -0.7405  0.0057  0.2067
 2806TIP3   OH2 8423   4.503   3.389   2.593  0.0685  0.1363 -0.5141
 2806TIP3    H1 8424   4.556   3.398   2.514  3.1109 -1.3660  1.1759
 2806TIP3    H2 8425   4.504   3.295   2.612  0.3679  0.5742  1.8866
 2807TIP3   OH2 8426   5.180   5.029   2.724 -0.2286  0.0760  0.8859
 2807TIP3    H1 8427   5.180   4.988   2.810  1.7434 -0.8699  0.4898
 2807TIP3    H2 8428   5.208   5.119   2.740  0.5032 -0.2013  1.2060
 2808TIP3   OH2 8429   6.261   3.090   4.881  0.0518  0.0168 -0.1808
 2808TIP3    H1 8430   6.298   3.137   4.806  2.9480 -2.0107 -0.2210
 2808TIP3    H2 8431   6.203   3.024   4.842 -0.1381  0.3564 -0.4735
 2809TIP3   OH2 8432   2.743   1.543   4.946 -0.1763  0.1473 -0.3950
 2809TIP3    H1 8433   2.784   1.560   5.031 -0.2882  1.3441 -0.5659
 2809TIP3    H2 8434   2.814   1.549   4.883 -0.0890 -0.7676 -0.3969
 2810TIP3   OH2 8435   4.327   5.067   4.229  0.1580 -0.4951 -0.1598
 2810TIP3    H1 8436   4.263   5.137   4.243 -0.1364 -0.4356 -1.6671
 2810TIP3    H2 8437   4.404   5.095   4.279  0.3963  1.4227 -1.5121
 2811TIP3   OH2 8438   2.362   5.678   3.381  0.1765  0.3843  0.0876
 2811TIP3    H1 8439   2.355   5.594   3.426  0.0284  0.2843 -0.1178
 2811TIP3    H2 8440   2.449   5.711   3.403  0.8307 -0.5240 -1.0197
 2812TIP3   OH2 8441   2.821   0.095   0.281  0.7646  0.6155 -0.9848
 2812TIP3    H1 8442   2.825   0.166   0.345 -0.0548  0.5177 -0.8090
 2812TIP3    H2 8443   2.871   0.024   0.321 -1.2164 -0.0954  0.4292
 2813TIP3   OH2 8444   0.896   3.024   5.011  0.0935 -0.4530  0.2146
 2813TIP3    H1 8445   0.926   2.955   4.951 -1.1397 -0.4075 -0.4824
 2813TIP3    H2 8446   0.804   3.036   4.989  0.0718  0.8122  0.9385
 2814TIP3   OH2 8447   4.749   4.736   3.131 -1.0330  0.2985 -0.2766
 2814TIP3    H1 8448   4.667   4.786   3.127 -0.3763  1.3877 -0.4766
 2814TIP3    H2 8449   4.803   4.773   3.062  0.4511  1.0805  1.2510
 2815TIP3   OH2 8450   0.494   0.125   0.818 -0.5473  0.0043 -0.1265
 2815TIP3    H1 8451   0.532   0.197   0.869 -0.1675 -0.1671 -0.1586
 2815TIP3    H2 8452   0.534   0.046   0.855 -1.5390 -0.2567  0.4070
 2816TIP3   OH2 8453   3.962   5.438   2.981 -0.2180 -0.3861  0.0567
 2816TIP3    H1 8454   3.961   5.533   2.971 -0.3317 -0.4361 -0.4716
 2816TIP3    H2 8455   3.883   5.417   3.030  0.8634 -0.0356  2.0158
 2817TIP3   OH2 8456   2.747   1.615   2.950 -0.0731  0.1061  0.1827
 2817TIP3    H1 8457   2.698   1.637   2.871 -3.1220 -2.1187  1.2551
 2817TIP3    H2 8458   2.758   1.520   2.946  1.3484  0.1735  1.5704
 2818TIP3   OH2 8459   1.739   4.545   0.340 -0.2112 -0.0259 -0.1105
 2818TIP3    H1 8460   1.656   4.512   0.375  0.0017 -0.2113  0.2261
 2818TIP3    H2 8461   1.794   4.557   0.417 -0.6293  2.1795 -0.0965
 2819TIP3   OH2 8462   4.029   5.081   3.535 -0.4313  0.1329  0.6642
 2819TIP3    H1 8463   4.024   4.998   3.582  0.6627  0.4250  1.3444
 2819TIP3    H2 8464   4.122   5.105   3.539 -0.2854  0.2054 -1.6142
 2820TIP3   OH2 8465   0.823   5.496   4.934 -0.7714 -0.1331 -0.0771
 2820TIP3    H1 8466   0.736   5.534   4.934 -0.2137  1.2045 -0.3367
 2820TIP3    H2 8467   0.813   5.412   4.979 -1.7082  1.0724  2.0945
 2821TIP3   OH2 8468   6.186   2.556   1.872  0.2260 -0.0572 -0.1073
 2821TIP3    H1 8469   6.171   2.503   1.951 -0.2022 -0.8376 -0.6994
 2821TIP3    H2 8470   6.203   2.644   1.906 -1.6857  0.0074  0.7989
 2822TIP3   OH2 8471   1.271   0.806   4.029 -0.9147  0.2036 -0.5288
 2822TIP3    H1 8472   1.348   0.786   4.082 -1.9608  3.2771  2.5732
 2822TIP3    H2 8473   1.202   0.752   4.066 -0.8680 -0.5291 -1.4762
 2823TIP3   OH2 8474   5.940   0.214   1.453 -0.0820  0.2921 -0.3338
 2823TIP3    H1 8475   6.020   0.229   1.403  0.7731 -1.1857  0.5030
 2823TIP3    H2 8476   5.927   0.294   1.504  1.1299  0.3788 -0.1451
 2824TIP3   OH2 8477   3.059   2.830   2.507  0.1521 -0.5633 -0.4901
 2824TIP3    H1 8478   3.033   2.922   2.505  1.4296 -0.1923 -2.2643
 2824TIP3    H2 8479   3.065   2.809   2.600 -0.6266  0.9944 -0.0498
 2825TIP3   OH2 8480   5.303   2.077   2.669 -0.1995  0.0329 -0.1909
 2825TIP3    H1 8481   5.273   2.116   2.751 -2.3121  0.8178 -1.2638
 2825TIP3    H2 8482   5.317   1.985   2.689  3.3563  0.8231  2.0187
 2826TIP3   OH2 8483   5.740   4.916   0.495  0.6438  0.3896  0.4312
 2826TIP3    H1 8484   5.731   4.981   0.426 -2.5144 -0.6460 -0.3266
 2826TIP3    H2 8485   5.789   4.844   0.454 -1.8596 -0.5522 -1.1778
 2827TIP3   OH2 8486   0.861   6.000   3.361  0.3188  0.2338  0.2432
 2827TIP3    H1 8487   0.876   5.930   3.297 -0.0370 -0.3965  0.8375
 2827TIP3    H2 8488   0.766   6.003   3.371  0.2643  1.3306 -0.3326
 2828TIP3   OH2 8489   5.810   2.991   1.034 -0.4974  0.1991  0.1323
 2828TIP3    H1 8490   5.806   3.017   1.126 -1.3857  0.0128  0.1573
 2828TIP3    H2 8491   5.854   3.064   0.990  1.3421 -0.3674  0.9203
 2829TIP3   OH2 8492   0.839   3.057   0.934 -0.0929 -0.0615  0.3722
 2829TIP3    H1 8493   0.743   3.055   0.943 -0.0710  0.9904  1.0210
 2829TIP3    H2 8494   0.854   3.034   0.842 -0.9486 -0.4844  0.3210
 2830TIP3   OH2 8495   5.240   3.126   0.360  0.2648  0.3659 -0.3716
 2830TIP3    H1 8496   5.211   3.199   0.415 -1.6632 -0.5400 -0.1187
 2830TIP3    H2 8497   5.231   3.049   0.415  0.2312 -0.3231 -1.3116
 2831TIP3   OH2 8498   6.031   2.745   2.782  0.2242  0.0297 -0.0935
 2831TIP3    H1 8499   6.081   2.800   2.841  2.1130 -0.3863 -1.2130
 2831TIP3    H2 8500   5.961   2.802   2.749 -0.1942  0.5782  1.6204
 2832TIP3   OH2 8501   0.387   4.357   0.376  0.1177  0.4534  0.2373
 2832TIP3    H1 8502   0.360   4.325   0.462 -2.1497  0.5993 -0.3623
 2832TIP3    H2 8503   0.455   4.297   0.348 -0.1008 -0.4318  1.5441
 2833TIP3   OH2 8504   1.534   4.308   3.663 -0.0046  0.0731  0.0796
 2833TIP3    H1 8505   1.591   4.378   3.695  1.7866  0.3450 -3.2708
 2833TIP3    H2 8506   1.449   4.349   3.650  0.5127  1.1311 -0.0483
 2834TIP3   OH2 8507   5.851   1.651   3.718  0.2381  0.5645  0.4633
 2834TIP3    H1 8508   5.795   1.598   3.775  0.3852 -0.1406 -0.0319
 2834TIP3    H2 8509   5.872   1.729   3.770 -0.3182  0.3307  1.0511
 2835TIP3   OH2 8510   1.719   5.280   3.751  0.0050 -0.2559  0.5046
 2835TIP3    H1 8511   1.736   5.216   3.821  2.9272  1.4369  1.4895
 2835TIP3    H2 8512   1.674   5.352   3.795  1.6753  0.7293  0.6729
 2836TIP3   OH2 8513   5.301   0.414   4.527  0.1415 -0.0741  0.3276
 2836TIP3    H1 8514   5.340   0.371   4.450  0.1886 -0.3552  0.5046
 2836TIP3    H2 8515   5.343   0.500   4.530 -0.3051  0.1707 -0.3067
 2837TIP3   OH2 8516   6.306   2.574   0.074 -0.4538  0.4186  0.7482
 2837TIP3    H1 8517   6.299   2.550  -0.019  0.1684 -2.2306  1.3137
 2837TIP3    H2 8518   6.216   2.593   0.100 -0.8832 -0.4376 -0.0356
 2838TIP3   OH2 8519   3.569   4.508   4.377  0.2267  0.2907  0.3894
 2838TIP3    H1 8520   3.569   4.599   4.350 -0.9625  0.1714 -0.0883
 2838TIP3    H2 8521   3.660   4.479   4.366  0.3491  1.0538 -0.7193
 2839TIP3   OH2 8522   5.903   0.088   3.998  0.3827  0.6884  0.1722
 2839TIP3    H1 8523   5.851   0.064   3.921  0.4752 -1.2350  0.6577
 2839TIP3    H2 8524   5.853   0.159   4.039 -0.4622  0.6947 -0.8145
 2840TIP3   OH2 8525   2.480   0.551   3.357  0.1165  0.1344  0.5490
 2840TIP3    H1 8526   2.487   0.494   3.434  2.0745  0.0979  0.3832
 2840TIP3    H2 8527   2.409   0.512   3.306  0.2645 -1.1569  1.2679
 2841TIP3   OH2 8528   1.825   1.833   3.647 -0.4409  0.7354 -0.3653
 2841TIP3    H1 8529   1.865   1.919   3.664  1.0460 -0.2298  1.4851
 2841TIP3    H2 8530   1.872   1.800   3.571  0.0548  0.9517 -0.1587
 2842TIP3   OH2 8531   3.105   4.284   4.351 -0.1185  0.0281  0.3425
 2842TIP3    H1 8532   3.180   4.228   4.334 -0.0967 -0.2062  1.1734
 2842TIP3    H2 8533   3.062   4.244   4.427 -0.3138  0.9218  0.7140
 2843TIP3   OH2 8534   3.801   4.075   2.666  0.3215  0.6982  1.3028
 2843TIP3    H1 8535   3.706   4.079   2.656  0.4439  2.2561  0.4583
 2843TIP3    H2 8536   3.822   3.982   2.656 -1.1281  0.3016  1.7165
 2844TIP3   OH2 8537   1.049   5.710   4.736 -0.0463  0.6394 -0.1742
 2844TIP3    H1 8538   1.041   5.716   4.831 -0.3300 -0.9148 -0.0796
 2844TIP3    H2 8539   0.978   5.652   4.710 -0.9030  2.2221 -1.5149
 2845TIP3   OH2 8540   0.205   2.786   0.358 -0.0403 -0.3499 -0.0688
 2845TIP3    H1 8541   0.121   2.748   0.384  0.1625 -2.0507 -1.7135
 2845TIP3    H2 8542   0.268   2.748   0.420  0.0225 -2.0900 -1.1282
 2846TIP3   OH2 8543   5.294   5.199   1.303  0.3421 -0.1429 -0.4756
 2846TIP3    H1 8544   5.369   5.258   1.295 -0.5807  0.8517 -2.3699
 2846TIP3    H2 8545   5.269   5.180   1.212 -1.5481 -0.6316  0.1111
 2847TIP3   OH2 8546   4.282   0.672   3.611  0.2113  0.5374 -0.3934
 2847TIP3    H1 8547   4.235   0.634   3.537  0.1970 -0.1474 -0.0451
 2847TIP3    H2 8548   4.373   0.679   3.580  0.1291  0.6444 -0.6151
 2848TIP3   OH2 8549   1.671   4.468   2.995  0.2387  0.2587  0.5796
 2848TIP3    H1 8550   1.685   4.466   2.900  1.3003 -0.4758  0.7389
 2848TIP3    H2 8551   1.619   4.547   3.009 -2.4717 -1.1242 -0.9117
 2849TIP3   OH2 8552   3.448   5.222   2.107  0.1411 -0.3709 -0.1520
 2849TIP3    H1 8553   3.412   5.158   2.046 -1.6828  0.1262  0.3604
 2849TIP3    H2 8554   3.387   5.224   2.180  0.0837  1.9999 -0.1817
 2850TIP3   OH2 8555   2.279   1.907   3.030  0.1647 -0.0753  0.0096
 2850TIP3    H1 8556   2.341   1.883   3.100  1.3423 -0.2353 -1.0440
 2850TIP3    H2 8557   2.298   1.999   3.013  0.7602 -0.3604 -0.9296
 2851TIP3   OH2 8558   0.497   2.026   1.295 -0.4446 -1.2957  0.5091
 2851TIP3    H1 8559   0.469   2.116   1.274  0.5475 -0.6275  1.8954
 2851TIP3    H2 8560   0.546   1.998   1.218 -1.0872 -0.7983 -0.0984
 2852TIP3   OH2 8561   2.736   5.204   0.844 -0.5519 -0.1105  0.0393
 2852TIP3    H1 8562   2.669   5.163   0.790 -2.6191  0.1036  2.2615
 2852TIP3    H2 8563   2.691   5.227   0.925  1.7969  1.7281  0.9592
 2853TIP3   OH2 8564   5.173   4.445   3.751  0.8146  0.4799 -0.0079
 2853TIP3    H1 8565   5.212   4.367   3.712  1.4296  0.3666  0.7952
 2853TIP3    H2 8566   5.183   4.432   3.845 -4.1344 -1.1225  0.5677
 2854TIP3   OH2 8567   5.300   1.065   1.180 -0.0059 -0.4142 -0.1243
 2854TIP3    H1 8568   5.365   1.069   1.250 -0.6026 -1.0114  0.4772
 2854TIP3    H2 8569   5.352   1.059   1.100  0.7480  2.4215  0.0463
 2855TIP3   OH2 8570   4.914   2.091   0.525 -0.0026  0.0735  0.5800
 2855TIP3    H1 8571   4.895   2.169   0.473 -0.9029 -0.7830 -0.4103
 2855TIP3    H2 8572   4.877   2.110   0.611 -1.8698  0.0256 -0.1745
 2856TIP3   OH2 8573   0.998   0.402   1.874 -0.0370  0.1543 -0.3457
 2856TIP3    H1 8574   1.049   0.373   1.950 -0.3350  1.7542  0.4991
 2856TIP3    H2 8575   1.029   0.346   1.803  2.3891  0.5569  0.2900
 2857TIP3   OH2 8576   2.488   4.895   2.627  0.4705  0.3510 -0.8749
 2857TIP3    H1 8577   2.510   4.967   2.568  0.1492  0.0648 -1.3461
 2857TIP3    H2 8578   2.485   4.817   2.571 -0.7870  0.2232 -0.6722
 2858TIP3   OH2 8579   3.475   3.085   0.345  0.7785  0.5427 -0.0734
 2858TIP3    H1 8580   3.506   2.999   0.373 -1.1222 -0.3310 -0.4736
 2858TIP3    H2 8581   3.508   3.094   0.255  1.6161  0.5687  0.2353
 2859TIP3   OH2 8582   4.783   1.310   4.490 -0.4795  0.7792  0.4143
 2859TIP3    H1 8583   4.798   1.275   4.402 -1.1617  1.8257 -0.1514
 2859TIP3    H2 8584   4.816   1.400   4.486 -2.7087  1.6752  0.4380
 2860TIP3   OH2 8585   5.851   3.800   1.203 -0.5457 -0.0618 -0.3743
 2860TIP3    H1 8586   5.831   3.833   1.115  0.0372  0.7642 -0.2098
 2860TIP3    H2 8587   5.803   3.858   1.262 -0.7017 -0.4346 -0.1287
 2861TIP3   OH2 8588   3.069   0.536   1.070  0.1434 -0.3676 -0.2298
 2861TIP3    H1 8589   3.096   0.525   1.161  0.2576 -0.5690 -0.2884
 2861TIP3    H2 8590   3.000   0.472   1.057 -2.1641  1.7763  0.6496
 2862TIP3   OH2 8591   5.784   3.945   0.229 -0.4237 -0.0228  0.0692
 2862TIP3    H1 8592   5.718   3.878   0.245  0.2691 -0.7589 -0.1099
 2862TIP3    H2 8593   5.820   3.965   0.316 -0.0250 -0.5130  0.0164
 2863TIP3   OH2 8594   4.713   4.410   0.312  0.1457 -0.0598  0.7072
 2863TIP3    H1 8595   4.777   4.458   0.364  2.1788 -0.8515 -0.9218
 2863TIP3    H2 8596   4.685   4.471   0.244  0.6646 -0.3213  0.2554
 2864TIP3   OH2 8597   2.926   4.607   0.932  0.2257  0.0377  0.0412
 2864TIP3    H1 8598   2.874   4.686   0.918  0.5928  0.3233  0.2627
 2864TIP3    H2 8599   2.976   4.625   1.012  1.4300  0.1703 -0.7295
 2865TIP3   OH2 8600   0.113   1.840   4.543  0.2929  0.1068 -0.1388
 2865TIP3    H1 8601   0.161   1.762   4.517 -1.9474 -1.0473 -1.1492
 2865TIP3    H2 8602   0.138   1.907   4.478  2.2993  0.3326  0.7926
 2866TIP3   OH2 8603   5.839   2.842   2.061 -0.0213  0.2017 -0.2571
 2866TIP3    H1 8604   5.756   2.858   2.108 -0.1531 -0.4827 -0.2483
 2866TIP3    H2 8605   5.906   2.878   2.120 -0.2573  0.1436  0.0544
 2867TIP3   OH2 8606   4.562   0.733   5.046  0.1364  0.0725  0.1624
 2867TIP3    H1 8607   4.622   0.807   5.039  0.5675 -0.2403  0.4860
 2867TIP3    H2 8608   4.482   0.770   5.081  0.8413  0.1458  1.7974
 2868TIP3   OH2 8609   4.890   4.830   2.256 -0.4585  0.9715 -0.1937
 2868TIP3    H1 8610   4.940   4.793   2.183 -0.5299  0.1897  0.1374
 2868TIP3    H2 8611   4.799   4.830   2.225 -0.7838 -1.1832  0.5470
 2869TIP3   OH2 8612   5.285   5.243   2.049  0.0963 -0.6102 -0.4942
 2869TIP3    H1 8613   5.217   5.300   2.084  1.3866  0.0130  1.1173
 2869TIP3    H2 8614   5.349   5.302   2.009  1.9049 -0.7416  1.9973
 2870TIP3   OH2 8615   3.298   4.601   4.313  0.2440 -0.1143  0.9738
 2870TIP3    H1 8616   3.248   4.606   4.231  0.1914  1.6161  1.0670
 2870TIP3    H2 8617   3.369   4.539   4.294 -0.1706 -0.2763 -0.1483
 2871TIP3   OH2 8618   1.388   1.753   0.675  0.2923 -0.1749  0.6385
 2871TIP3    H1 8619   1.401   1.659   0.665  2.3397  0.0993  0.4109
 2871TIP3    H2 8620   1.393   1.788   0.585 -0.1193  0.1901  0.7539
 2872TIP3   OH2 8621   1.791   1.974   2.993  0.4589  0.2695 -0.1725
 2872TIP3    H1 8622   1.765   2.059   2.956 -0.1391  0.1479 -0.0372
 2872TIP3    H2 8623   1.735   1.910   2.950 -0.4993  0.1587  1.1652
 2873TIP3   OH2 8624  -0.026   0.316   2.523  0.0040 -0.1335 -0.3145
 2873TIP3    H1 8625   0.010   0.247   2.467  1.1774 -0.8284  1.2378
 2873TIP3    H2 8626   0.049   0.349   2.573 -0.9417  0.6921  0.6189
 2874TIP3   OH2 8627   1.020   0.378   2.161 -0.6895 -0.2235  0.7033
 2874TIP3    H1 8628   1.056   0.466   2.174 -2.3041  0.8562 -1.4577
 2874TIP3    H2 8629   1.096   0.321   2.156  0.4412  1.1657  1.2636
 2875TIP3   OH2 8630   3.223   3.763   1.934  0.4832 -0.4636 -0.1669
 2875TIP3    H1 8631   3.172   3.780   1.855  1.4781  2.3506 -0.2935
 2875TIP3    H2 8632   3.158   3.761   2.005 -0.0881  0.4837 -0.6453
 2876TIP3   OH2 8633   2.201   5.783   3.019 -0.1344  0.0502  0.1855
 2876TIP3    H1 8634   2.110   5.772   2.994  0.1634 -0.3170 -0.7822
 2876TIP3    H2 8635   2.249   5.786   2.936  0.8088 -0.4574  0.6967
 2877TIP3   OH2 8636   2.251   1.065   4.649 -0.5703 -0.9345  0.1475
 2877TIP3    H1 8637   2.245   1.158   4.629  0.8871 -1.0302 -0.8613
 2877TIP3    H2 8638   2.284   1.025   4.569 -1.4104 -2.3733  0.4803
 2878TIP3   OH2 8639   5.272   5.243   4.047 -0.0755 -0.4025 -0.1125
 2878TIP3    H1 8640   5.297   5.288   3.966  0.0006 -0.0373  0.1108
 2878TIP3    H2 8641   5.237   5.312   4.103 -0.8185 -0.7699 -0.1067
 2879TIP3   OH2 8642   2.834   4.808   5.014 -0.3732  0.0316  0.2424
 2879TIP3    H1 8643   2.917   4.767   5.039 -1.7277 -2.4931  0.9207
 2879TIP3    H2 8644   2.767   4.745   5.042 -2.5246  1.9298 -0.3829
 2880TIP3   OH2 8645   5.372   5.560   0.689  0.3584  0.2896  0.6753
 2880TIP3    H1 8646   5.329   5.476   0.671 -0.0282  0.7224 -0.4639
 2880TIP3    H2 8647   5.329   5.592   0.769  0.6316 -0.6609  1.2279
 2881TIP3   OH2 8648   1.242   2.668   4.806  0.2489  0.5035 -0.0219
 2881TIP3    H1 8649   1.238   2.609   4.882  0.6371  1.7556  1.0129
 2881TIP3    H2 8650   1.336   2.677   4.789  0.1905  0.8499 -0.1507
 2882TIP3   OH2 8651   5.727   0.601   0.396 -0.4061  0.1239 -0.0643
 2882TIP3    H1 8652   5.793   0.535   0.378  0.4209  0.6707  0.8350
 2882TIP3    H2 8653   5.724   0.607   0.492 -0.7572  1.0850 -0.1160
 2883TIP3   OH2 8654   2.908   5.925   4.760  0.4347 -0.3315 -0.0337
 2883TIP3    H1 8655   2.931   5.837   4.788 -0.2340 -0.4133  0.2880
 2883TIP3    H2 8656   2.882   5.916   4.668  0.2590 -0.4937  0.0312
 2884TIP3   OH2 8657   5.931   0.163   0.882  0.1515 -0.0665 -0.4008
 2884TIP3    H1 8658   5.901   0.221   0.812  1.6379  0.7319 -0.4418
 2884TIP3    H2 8659   5.914   0.212   0.963  1.4156  0.4723 -0.4357
 2885TIP3   OH2 8660   0.592   1.557   3.864  0.1835 -0.4264  0.0105
 2885TIP3    H1 8661   0.534   1.552   3.789  0.9376 -2.5353 -0.4796
 2885TIP3    H2 8662   0.642   1.638   3.851 -2.4044  1.3641  0.3613
 2886TIP3   OH2 8663   2.501   5.116   0.316 -0.7689  0.2614  0.1140
 2886TIP3    H1 8664   2.584   5.101   0.361 -0.7323  0.7961  0.2393
 2886TIP3    H2 8665   2.526   5.137   0.226 -0.8480 -0.9116 -0.1896
 2887TIP3   OH2 8666   1.569   5.349   0.265  0.2747 -0.1582 -0.2025
 2887TIP3    H1 8667   1.495   5.334   0.206 -0.1095 -1.9514  0.6946
 2887TIP3    H2 8668   1.644   5.311   0.219  0.1654 -0.6510  0.0320
 2888TIP3   OH2 8669   0.759   3.172   1.414  0.2942 -0.1287  0.0037
 2888TIP3    H1 8670   0.757   3.099   1.476  0.8930 -0.3145 -0.1898
 2888TIP3    H2 8671   0.689   3.231   1.444 -0.0432 -0.6680  0.2944
 2889TIP3   OH2 8672   0.152   1.943   4.946 -0.1201  0.2776 -0.1345
 2889TIP3    H1 8673   0.068   1.897   4.951  0.0748 -0.0989 -0.3482
 2889TIP3    H2 8674   0.211   1.883   4.901  0.1484  0.7156 -0.3813
 2890TIP3   OH2 8675   5.489   5.543   2.431  0.3843  0.5259  0.5821
 2890TIP3    H1 8676   5.467   5.479   2.500 -0.3635  0.1825  0.0396
 2890TIP3    H2 8677   5.584   5.538   2.424  0.5683  1.1677  2.1606
 2891TIP3   OH2 8678   5.267   5.888   3.433 -0.0428 -0.2670 -0.1548
 2891TIP3    H1 8679   5.332   5.828   3.395 -0.3811 -0.0961 -1.0185
 2891TIP3    H2 8680   5.315   5.970   3.445  0.2762 -0.5485  0.5270
 2892TIP3   OH2 8681   3.930   1.797   3.070  0.0138  0.6090 -0.1258
 2892TIP3    H1 8682   3.910   1.755   2.987  0.4720 -0.8264  0.4631
 2892TIP3    H2 8683   3.864   1.764   3.131 -0.1240  1.3941  0.1687
 2893TIP3   OH2 8684   3.063   0.601   1.685  1.1742 -0.6227  0.2307
 2893TIP3    H1 8685   2.970   0.585   1.700  0.8223  1.1027  0.1342
 2893TIP3    H2 8686   3.086   0.543   1.613  0.4019 -1.7111  0.8303
 2894TIP3   OH2 8687   4.205   0.957   1.977 -0.2897 -0.6082 -0.2352
 2894TIP3    H1 8688   4.194   1.024   2.044  0.8059 -0.6873  0.0361
 2894TIP3    H2 8689   4.155   0.990   1.902  0.8317  0.8967 -0.3717
 2895TIP3   OH2 8690   1.535   0.742   3.178  0.3918  1.0677 -0.5318
 2895TIP3    H1 8691   1.479   0.752   3.101  0.3281 -1.7072 -0.9418
 2895TIP3    H2 8692   1.604   0.681   3.151  0.7309  0.5124  1.3888
 2896TIP3   OH2 8693   1.546   2.127   3.300  0.3196  0.1275  0.6845
 2896TIP3    H1 8694   1.628   2.159   3.263 -0.6519  0.2611 -1.5507
 2896TIP3    H2 8695   1.556   2.032   3.302  0.3049  0.0991 -0.2176
 2897TIP3   OH2 8696   3.887   5.931   3.425  0.4029 -0.1498 -0.3388
 2897TIP3    H1 8697   3.929   5.918   3.510 -1.9696  2.5247  1.4567
 2897TIP3    H2 8698   3.941   5.997   3.382 -0.4008  1.3791  0.8639
 2898TIP3   OH2 8699   3.675   1.691   4.986 -0.2219  0.0843 -0.1692
 2898TIP3    H1 8700   3.761   1.730   4.973 -0.0066 -0.6819 -1.1854
 2898TIP3    H2 8701   3.691   1.613   5.039 -0.3127  0.0367 -0.2112
 2899TIP3   OH2 8702   0.350   3.351   0.273  0.1265 -0.2450  0.2995
 2899TIP3    H1 8703   0.267   3.356   0.321  0.7788 -0.1631  1.4564
 2899TIP3    H2 8704   0.347   3.425   0.212  0.4583  1.4562  2.2148
 2900TIP3   OH2 8705   3.274   4.725   0.990 -0.3739 -0.1300 -0.0349
 2900TIP3    H1 8706   3.290   4.730   0.896 -0.5281  0.0619 -0.0520
 2900TIP3    H2 8707   3.263   4.816   1.017  0.7758 -0.0837  0.3595
 2901TIP3   OH2 8708   4.382   5.277   0.395 -0.8183 -0.3496  0.3407
 2901TIP3    H1 8709   4.319   5.349   0.395 -0.6974 -0.2430  0.2399
 2901TIP3    H2 8710   4.422   5.281   0.308 -1.8505 -1.4450 -0.2157
 2902TIP3   OH2 8711   1.846   1.047   4.209  0.6588  0.1769  0.1285
 2902TIP3    H1 8712   1.783   1.005   4.150  1.1987 -0.6414  0.1137
 2902TIP3    H2 8713   1.849   1.138   4.180 -1.3462  0.5128  0.8406
 2903TIP3   OH2 8714   0.641   3.453   2.353 -0.1240 -0.0236 -0.2492
 2903TIP3    H1 8715   0.696   3.387   2.311 -0.6070 -0.6291  0.0394
 2903TIP3    H2 8716   0.697   3.493   2.419 -0.6002 -2.1315  1.5365
 2904TIP3   OH2 8717   4.588   1.222   0.332 -0.1852  0.1107 -0.4479
 2904TIP3    H1 8718   4.566   1.285   0.263 -1.0333  0.7289  0.3645
 2904TIP3    H2 8719   4.656   1.265   0.383  1.4402 -0.8986 -1.6449
 2905TIP3   OH2 8720   2.734   0.899   3.882  0.2825  0.3897  0.6620
 2905TIP3    H1 8721   2.702   0.867   3.966  0.8063  0.2021  0.7946
 2905TIP3    H2 8722   2.759   0.820   3.834 -0.7952  0.4258 -0.0105
 2906TIP3   OH2 8723   5.451   4.580   3.144  0.2420  0.5640  0.0385
 2906TIP3    H1 8724   5.439   4.588   3.049  0.9335  0.3629 -0.0701
 2906TIP3    H2 8725   5.536   4.537   3.153 -0.1886 -0.1716  0.7317
 2907TIP3   OH2 8726   4.765   0.409   0.527  0.4466 -0.5106 -0.2929
 2907TIP3    H1 8727   4.736   0.439   0.441  1.1724  1.1541  0.0125
 2907TIP3    H2 8728   4.687   0.370   0.566 -0.2155 -0.1460 -1.2122
 2908TIP3   OH2 8729   3.561   5.573   3.995  0.4548  0.1054  0.4781
 2908TIP3    H1 8730   3.560   5.489   3.948  0.4991  1.0833 -1.3623
 2908TIP3    H2 8731   3.469   5.598   4.000  0.4312 -0.0744  1.1378
 2909TIP3   OH2 8732   1.809   4.543   4.795  0.2194  0.2044 -0.1836
 2909TIP3    H1 8733   1.816   4.636   4.774  3.4769  0.0164 -0.4115
 2909TIP3    H2 8734   1.814   4.540   4.890  2.8450  0.2300 -0.2437
 2910TIP3   OH2 8735   3.600   4.060   0.805  0.5081 -0.0929 -0.4114
 2910TIP3    H1 8736   3.672   4.118   0.827 -0.3661  0.6030  0.7333
 2910TIP3    H2 8737   3.598   3.995   0.875  1.0712 -1.1528 -1.3439
 2911TIP3   OH2 8738   1.635   5.943   4.750  0.6673  0.0879 -0.5781
 2911TIP3    H1 8739   1.703   6.000   4.714 -0.5371  1.1098 -1.2985
 2911TIP3    H2 8740   1.572   5.933   4.679 -0.7365  0.4727  0.5686
 2912TIP3   OH2 8741   0.242   4.874   4.541 -0.2682 -0.0624 -0.0223
 2912TIP3    H1 8742   0.223   4.875   4.635 -1.3686  1.9301 -0.2059
 2912TIP3    H2 8743   0.329   4.834   4.534 -0.2042 -0.3186  1.8201
 2913TIP3   OH2 8744   5.155   1.580   1.712  0.1048 -0.6197 -0.1439
 2913TIP3    H1 8745   5.249   1.564   1.710 -0.2566 -3.0274 -0.4552
 2913TIP3    H2 8746   5.119   1.508   1.763 -1.7236 -0.6665 -1.4051
 2914TIP3   OH2 8747   2.859   2.485   1.663 -0.3947  0.2544 -0.0873
 2914TIP3    H1 8748   2.793   2.467   1.729 -1.2699  0.0144 -1.0015
 2914TIP3    H2 8749   2.815   2.542   1.600  0.3262  0.2349 -0.6268
 2915TIP3   OH2 8750   2.141   4.801   2.401 -0.2478 -0.4795 -0.1506
 2915TIP3    H1 8751   2.219   4.828   2.352 -0.9493 -0.2727 -1.1991
 2915TIP3    H2 8752   2.145   4.705   2.400  1.1332 -0.4895  1.7396
 2916TIP3   OH2 8753   1.310   0.361   3.582 -0.4321  0.4704 -0.0396
 2916TIP3    H1 8754   1.279   0.447   3.613  1.1869  0.7491  0.9647
 2916TIP3    H2 8755   1.404   0.362   3.603  0.0188 -0.7669 -1.8578
 2917TIP3   OH2 8756   2.123   2.279   3.524 -0.1122  0.2439  0.7025
 2917TIP3    H1 8757   2.160   2.221   3.458  0.4910  0.9091  0.4407
 2917TIP3    H2 8758   2.048   2.320   3.481  0.3408  0.7515  0.3997
 2918TIP3   OH2 8759   3.831   2.255   5.140 -0.1059  0.6619 -0.0886
 2918TIP3    H1 8760   3.868   2.184   5.087 -0.4487  0.5828 -0.2274
 2918TIP3    H2 8761   3.903   2.284   5.196 -0.2770 -0.5838  0.8124
 2919TIP3   OH2 8762   6.165   5.869   3.100  0.6931 -0.5679 -0.5150
 2919TIP3    H1 8763   6.161   5.963   3.082  0.3351 -0.6780 -1.0289
 2919TIP3    H2 8764   6.088   5.850   3.154  0.6288 -0.6094 -0.6205
 2920TIP3   OH2 8765   5.968   4.285   2.501  0.2984  0.3123  0.1927
 2920TIP3    H1 8766   6.054   4.322   2.523  0.3857  0.5946 -0.5984
 2920TIP3    H2 8767   5.963   4.292   2.406  0.3122 -1.7227  0.0061
 2921TIP3   OH2 8768   1.509   1.649   0.255  0.6258  0.2590  0.2937
 2921TIP3    H1 8769   1.547   1.608   0.177 -2.3517 -1.9306 -0.1886
 2921TIP3    H2 8770   1.549   1.602   0.328  0.4763 -0.5182 -0.1106
 2922TIP3   OH2 8771   5.291   3.562   4.823 -0.3038 -0.1260 -0.1519
 2922TIP3    H1 8772   5.312   3.549   4.915 -0.3446 -0.6341 -0.2107
 2922TIP3    H2 8773   5.249   3.648   4.819 -1.8286 -0.8019  0.5619
 2923TIP3   OH2 8774   1.032   4.743   1.610 -0.0150 -0.0813  0.0100
 2923TIP3    H1 8775   1.115   4.711   1.575  0.0841 -0.4371  0.5602
 2923TIP3    H2 8776   1.048   4.835   1.631 -0.1047  0.1599 -0.9619
 2924TIP3   OH2 8777   0.388   3.578   3.718  0.3226 -0.5704 -0.0812
 2924TIP3    H1 8778   0.396   3.489   3.682  1.4791 -0.2899 -0.5832
 2924TIP3    H2 8779   0.444   3.631   3.661 -0.5926  0.5390  0.0345
 2925TIP3   OH2 8780   6.147   2.086   0.531 -0.1990 -0.0614  0.3437
 2925TIP3    H1 8781   6.101   2.007   0.560  0.4964 -0.2738  0.9094
 2925TIP3    H2 8782   6.178   2.126   0.612 -1.6242  1.4937  0.1584
 2926TIP3   OH2 8783   3.653   3.430   0.659 -0.2945  0.1171 -0.0093
 2926TIP3    H1 8784   3.723   3.446   0.596  0.8765  0.5534  1.3810
 2926TIP3    H2 8785   3.606   3.355   0.623  0.2248  0.4676 -1.4974
 2927TIP3   OH2 8786   2.141   4.280   5.133  0.3167 -0.0770  0.0698
 2927TIP3    H1 8787   2.066   4.315   5.181 -0.3606 -1.8230  0.3792
 2927TIP3    H2 8788   2.217   4.306   5.185 -0.2074  0.2754  0.6765
 2928TIP3   OH2 8789   5.163   0.390   4.146 -0.1966 -0.1147 -0.0814
 2928TIP3    H1 8790   5.251   0.362   4.171 -0.8599 -1.7656  0.5855
 2928TIP3    H2 8791   5.107   0.359   4.218 -1.5186 -0.4971 -1.2304
 2929TIP3   OH2 8792   2.466   4.752   0.790 -0.2063 -0.5463  0.1805
 2929TIP3    H1 8793   2.543   4.785   0.744 -0.4847  0.9510  0.7385
 2929TIP3    H2 8794   2.501   4.694   0.857  0.8141  2.6989  2.7169
 2930TIP3   OH2 8795   4.758   2.757   3.519  0.2258  0.2766 -0.2908
 2930TIP3    H1 8796   4.818   2.748   3.593 -0.1778  0.2878  0.0449
 2930TIP3    H2 8797   4.725   2.847   3.525  0.6509  0.4727 -0.8443
 2931TIP3   OH2 8798   4.630   2.135   1.682  0.0634 -0.1970 -0.4416
 2931TIP3    H1 8799   4.591   2.052   1.655 -2.0357  0.4484  0.3898
 2931TIP3    H2 8800   4.679   2.113   1.762 -1.5690 -0.4592  0.5396
 2932TIP3   OH2 8801   3.433   2.584   2.780 -0.2003 -0.2216  0.0283
 2932TIP3    H1 8802   3.362   2.520   2.775  0.4856 -1.1100  1.1534
 2932TIP3    H2 8803   3.496   2.545   2.840  2.9231 -1.1478 -3.4957
 2933TIP3   OH2 8804   4.764   2.476   3.962 -0.5607  0.3153  0.6695
 2933TIP3    H1 8805   4.696   2.408   3.959 -1.4586  1.0890  2.2363
 2933TIP3    H2 8806   4.799   2.469   4.051  1.0046  0.3474  0.0742
 2934TIP3   OH2 8807   6.313   3.264   4.668 -0.1676 -0.3095  0.2074
 2934TIP3    H1 8808   6.390   3.314   4.642  0.4725 -1.5216 -0.3443
 2934TIP3    H2 8809   6.241   3.327   4.665  1.1542  1.5840  3.4526
 2935TIP3   OH2 8810   2.928   3.689   2.067 -0.8909 -0.2098  0.2199
 2935TIP3    H1 8811   2.897   3.612   2.116 -2.4743  1.4918  2.0503
 2935TIP3    H2 8812   2.963   3.747   2.134 -1.0111  1.2423 -0.9463
 2936TIP3   OH2 8813   3.865   3.436   1.564 -0.6656 -0.0716  0.0508
 2936TIP3    H1 8814   3.797   3.499   1.589 -0.8310 -0.1798 -0.1215
 2936TIP3    H2 8815   3.871   3.443   1.469 -0.1006  0.2754  0.1104
 2937TIP3   OH2 8816   6.201   2.289   2.595  0.2262  0.2769  0.2812
 2937TIP3    H1 8817   6.245   2.357   2.644  0.4523  0.8080 -0.6396
 2937TIP3    H2 8818   6.187   2.219   2.659  0.7201  0.8468  1.0344
 2938TIP3   OH2 8819   0.805   0.195   4.886 -0.4257  0.3446  0.2913
 2938TIP3    H1 8820   0.731   0.217   4.943  0.1618  1.4651  0.6617
 2938TIP3    H2 8821   0.851   0.278   4.874 -0.4489  0.1100 -1.7208
 2939TIP3   OH2 8822   1.929   3.783   0.860 -0.5898 -0.5085 -0.3906
 2939TIP3    H1 8823   1.897   3.873   0.872 -0.6722 -0.6023  0.1019
 2939TIP3    H2 8824   2.023   3.793   0.842 -0.4665 -0.3604  0.3168
 2940TIP3   OH2 8825   1.150   5.693   3.314  0.1742  0.1929  0.0616
 2940TIP3    H1 8826   1.196   5.609   3.326 -0.6272 -0.4444 -1.0981
 2940TIP3    H2 8827   1.183   5.748   3.384  1.9353 -0.5719 -0.0930
 2941TIP3   OH2 8828   6.360   1.206   4.932  0.0248  0.5532  0.2704
 2941TIP3    H1 8829   6.349   1.124   4.980 -0.7776  0.0858 -0.6466
 2941TIP3    H2 8830   6.317   1.272   4.986  0.3607  0.3000  0.8470
 2942TIP3   OH2 8831   1.308   4.558   2.590 -0.2310  0.0240 -0.0686
 2942TIP3    H1 8832   1.323   4.463   2.583  2.6820  0.5106 -2.2997
 2942TIP3    H2 8833   1.218   4.570   2.559 -0.6500 -1.9795  0.2151
 2943TIP3   OH2 8834   1.743   5.740   0.029 -0.2171 -0.0750 -0.1137
 2943TIP3    H1 8835   1.790   5.823   0.022 -0.1823 -0.1250 -0.4692
 2943TIP3    H2 8836   1.810   5.677   0.058 -0.0103 -0.1933 -0.8351
 2944TIP3   OH2 8837   2.616   4.097   3.824  0.1163  0.2929 -0.2544
 2944TIP3    H1 8838   2.647   4.021   3.873 -2.9528  0.1300  1.7422
 2944TIP3    H2 8839   2.660   4.171   3.864 -0.0812 -0.1133  0.7518
 2945TIP3   OH2 8840   2.152   1.766   4.562  0.1023 -0.1240  0.2618
 2945TIP3    H1 8841   2.133   1.693   4.505  2.2042 -1.1098  0.7326
 2945TIP3    H2 8842   2.201   1.828   4.508  0.1668 -0.0467  0.4049
 2946TIP3   OH2 8843   2.493   2.686   2.533  0.2053  0.2539 -0.0060
 2946TIP3    H1 8844   2.474   2.600   2.570  0.8741  0.5144  0.9893
 2946TIP3    H2 8845   2.440   2.747   2.584  0.3335  0.5183 -0.1829
 2947TIP3   OH2 8846   2.084   2.576   3.296  0.6477 -0.4653 -0.5189
 2947TIP3    H1 8847   2.040   2.592   3.212 -0.8547 -0.2723  0.2722
 2947TIP3    H2 8848   2.149   2.508   3.276 -1.2110 -2.0828 -1.4090
 2948TIP3   OH2 8849   1.702   2.811   0.085  0.1391  0.2549  0.3625
 2948TIP3    H1 8850   1.699   2.723   0.049  0.2332  0.2116  0.4601
 2948TIP3    H2 8851   1.795   2.829   0.096  0.1148  0.3148  0.4688
 2949TIP3   OH2 8852   2.472   4.857   4.758 -0.1409 -0.2748 -0.2862
 2949TIP3    H1 8853   2.499   4.944   4.787  0.3589 -0.6678  0.4761
 2949TIP3    H2 8854   2.551   4.803   4.767 -0.5031 -0.8563 -0.5195
 2950TIP3   OH2 8855   5.218   0.391   5.079  0.2471 -0.5229 -0.1521
 2950TIP3    H1 8856   5.171   0.412   5.160  2.1796  0.4029  0.7912
 2950TIP3    H2 8857   5.193   0.462   5.019 -0.4568 -0.6910 -0.0710
 2951TIP3   OH2 8858   3.201   4.194   1.889 -0.0917  0.2838  0.4803
 2951TIP3    H1 8859   3.266   4.133   1.925 -0.1352 -0.9450 -1.4285
 2951TIP3    H2 8860   3.250   4.274   1.873  1.4251 -1.0853 -2.3404
 2952TIP3   OH2 8861   0.761   3.407   3.784  0.2851  0.3530  0.2764
 2952TIP3    H1 8862   0.714   3.389   3.702  1.3111  1.2668 -0.5443
 2952TIP3    H2 8863   0.829   3.469   3.759 -0.2098  1.7044  2.0893
 2953TIP3   OH2 8864   3.760   1.071   1.008  0.1454 -0.3628 -0.2916
 2953TIP3    H1 8865   3.752   0.977   1.023  1.5809 -0.6475 -1.0787
 2953TIP3    H2 8866   3.670   1.103   1.003 -0.3995 -1.2775  2.2218
 2954TIP3   OH2 8867   2.891   2.584   4.401  0.0768  0.1566 -0.2682
 2954TIP3    H1 8868   2.828   2.655   4.405  1.8975  1.8915 -0.8799
 2954TIP3    H2 8869   2.842   2.506   4.429 -2.1274  1.5160 -0.1698
 2955TIP3   OH2 8870   0.407   1.235   5.089 -0.2489 -0.0564 -0.4347
 2955TIP3    H1 8871   0.314   1.214   5.101 -0.2393  1.0991  2.3341
 2955TIP3    H2 8872   0.406   1.324   5.054 -0.2365  0.5739  1.0843
 2956TIP3   OH2 8873   1.345   5.577   4.833 -0.0008  0.2947 -0.4269
 2956TIP3    H1 8874   1.267   5.579   4.889 -0.5922 -0.5925 -1.1889
 2956TIP3    H2 8875   1.406   5.519   4.878 -0.9898 -1.5132 -1.2930
 2957TIP3   OH2 8876   2.504   2.667   4.218 -0.5681 -0.0284  0.5327
 2957TIP3    H1 8877   2.561   2.704   4.286 -1.6974  1.7536  0.5842
 2957TIP3    H2 8878   2.450   2.602   4.264 -0.5545  0.3642  1.1058
 2958TIP3   OH2 8879   1.600   4.623   3.304 -0.0133  0.8068  0.1377
 2958TIP3    H1 8880   1.672   4.650   3.247 -0.7791 -0.6582 -1.6072
 2958TIP3    H2 8881   1.624   4.535   3.332 -0.6711  0.6811  0.3134
 2959TIP3   OH2 8882   2.161   0.624   3.068 -0.2324  0.3561  0.1771
 2959TIP3    H1 8883   2.251   0.655   3.084  0.5797 -1.4180 -0.6656
 2959TIP3    H2 8884   2.171   0.553   3.004 -2.4746  1.5355 -1.6214
 2960TIP3   OH2 8885   1.881   1.364   0.682 -0.8198  0.0787 -0.1375
 2960TIP3    H1 8886   1.786   1.364   0.692 -0.7953 -0.4388  0.1520
 2960TIP3    H2 8887   1.914   1.399   0.765 -0.7003 -1.8301  0.6845
 2961TIP3   OH2 8888   5.297   1.804   1.947 -0.4295 -0.4080  0.1168
 2961TIP3    H1 8889   5.304   1.894   1.916 -0.6697  0.1937  1.6927
 2961TIP3    H2 8890   5.333   1.751   1.876 -1.2331  0.8311 -1.2792
 2962TIP3   OH2 8891   5.368   5.859   1.252 -0.0310  0.4243 -0.4044
 2962TIP3    H1 8892   5.373   5.916   1.176 -1.9560  1.0316 -0.1300
 2962TIP3    H2 8893   5.310   5.788   1.226 -0.6835  0.6207  0.4555
 2963TIP3   OH2 8894   1.410   3.349   4.779 -0.3185 -0.3428  0.2309
 2963TIP3    H1 8895   1.451   3.400   4.850 -0.5686  2.1320 -1.2707
 2963TIP3    H2 8896   1.318   3.341   4.805  0.0815 -1.7253  1.3477
 2964TIP3   OH2 8897   2.046   0.827   2.919 -0.2815 -0.5825 -0.2683
 2964TIP3    H1 8898   2.098   0.794   2.993  0.3977  0.9295 -0.0206
 2964TIP3    H2 8899   2.106   0.886   2.873 -1.4382  0.3483 -0.6195
 2965TIP3   OH2 8900   4.529   4.868   3.179 -0.3551  0.2957 -0.3810
 2965TIP3    H1 8901   4.520   4.857   3.273 -1.1615 -1.1241 -0.6004
 2965TIP3    H2 8902   4.454   4.921   3.153  0.0319  0.9519 -0.2146
 2966TIP3   OH2 8903   3.987   4.046   4.408 -0.0459  0.2738  0.2687
 2966TIP3    H1 8904   4.037   4.046   4.327  0.3635 -0.7215  0.5071
 2966TIP3    H2 8905   3.910   4.101   4.389  0.2774  0.4321 -0.6319
 2967TIP3   OH2 8906   6.277   1.755   5.030 -0.2347 -0.1079  0.8314
 2967TIP3    H1 8907   6.187   1.773   5.057 -0.6366 -0.8058 -0.0004
 2967TIP3    H2 8908   6.273   1.751   4.934  0.6281 -0.4204  0.8006
 2968TIP3   OH2 8909   2.693   1.012   0.248  0.2390  0.3810  0.1486
 2968TIP3    H1 8910   2.783   1.041   0.263  0.1282 -0.5400  3.4898
 2968TIP3    H2 8911   2.646   1.037   0.328 -1.5689 -2.4348  0.1114
 2969TIP3   OH2 8912   2.461   5.077   1.294  0.4509 -0.1310  0.2344
 2969TIP3    H1 8913   2.399   5.125   1.239  2.6158  2.1824 -0.4284
 2969TIP3    H2 8914   2.426   4.988   1.299 -2.2096  0.7350 -1.0723
 2970TIP3   OH2 8915   3.894   0.825   1.761 -0.7285 -0.0116  0.2653
 2970TIP3    H1 8916   3.838   0.805   1.836 -0.3813 -0.5849  0.3791
 2970TIP3    H2 8917   3.883   0.750   1.703  1.8005 -1.3673  1.4068
 2971TIP3   OH2 8918   3.473   4.964   1.386 -0.0746  0.3624 -0.6759
 2971TIP3    H1 8919   3.454   4.959   1.293 -0.9110  1.8804 -0.6194
 2971TIP3    H2 8920   3.388   4.952   1.429  0.4220 -1.1425 -0.0553
 2972TIP3   OH2 8921   4.656   1.043   3.589 -0.0733  0.0038  0.9674
 2972TIP3    H1 8922   4.675   0.974   3.525  1.0878 -0.7707  2.0935
 2972TIP3    H2 8923   4.561   1.042   3.598 -0.1982 -0.3908 -0.1526
 2973TIP3   OH2 8924   4.622   4.636   0.592 -0.0760  0.1444  0.2684
 2973TIP3    H1 8925   4.602   4.691   0.516 -0.5602 -0.0587  0.2420
 2973TIP3    H2 8926   4.708   4.598   0.573 -0.5439 -0.5466 -0.5622
 2974TIP3   OH2 8927   4.558   2.859   0.921 -0.2904 -0.5747  0.2251
 2974TIP3    H1 8928   4.550   2.852   0.826 -0.3464  1.7287 -0.0036
 2974TIP3    H2 8929   4.652   2.847   0.937 -0.1235  0.0188 -0.2537
 2975TIP3   OH2 8930   6.156   3.572   4.917  0.5526  0.0590 -0.1436
 2975TIP3    H1 8931   6.216   3.608   4.852 -0.0598 -0.1023 -0.8050
 2975TIP3    H2 8932   6.105   3.647   4.947  1.0834  0.1987  0.4296
 2976TIP3   OH2 8933   3.444   5.204   0.142 -0.2819  0.0164  0.5774
 2976TIP3    H1 8934   3.393   5.217   0.061 -1.1460  0.4047  1.1683
 2976TIP3    H2 8935   3.430   5.285   0.192 -0.6175 -0.6378  1.5709
 2977TIP3   OH2 8936   4.445   3.131   0.597 -0.1281  0.1582  0.6126
 2977TIP3    H1 8937   4.529   3.144   0.642 -0.2804  0.4632  0.8188
 2977TIP3    H2 8938   4.421   3.041   0.616  0.8956 -0.4167 -0.7257
 2978TIP3   OH2 8939   2.831   2.367   1.023 -0.2926 -1.1490 -0.2776
 2978TIP3    H1 8940   2.904   2.355   1.085 -0.4574 -1.5031 -0.1503
 2978TIP3    H2 8941   2.771   2.295   1.042  0.0099 -1.7098 -1.3512
 2979TIP3   OH2 8942   1.074   1.996   2.761 -0.6662  0.2691  0.2012
 2979TIP3    H1 8943   1.148   1.989   2.701  0.4785 -1.1125  1.6868
 2979TIP3    H2 8944   0.998   1.968   2.710  0.1853 -0.4009 -0.7304
 2980TIP3   OH2 8945   1.697   4.710   1.776 -0.0484  0.1042  0.5821
 2980TIP3    H1 8946   1.792   4.724   1.776  0.6965 -3.7519  0.5826
 2980TIP3    H2 8947   1.675   4.701   1.683 -0.4792  1.0082  0.5819
 2981TIP3   OH2 8948   5.147   3.335   1.196 -0.1095  0.1847  0.1470
 2981TIP3    H1 8949   5.165   3.374   1.111  1.0672  1.9495  1.1443
 2981TIP3    H2 8950   5.204   3.383   1.257  1.0983 -2.7817  1.5634
 2982TIP3   OH2 8951   6.169   0.192   1.295 -0.4192 -0.3745 -0.3500
 2982TIP3    H1 8952   6.209   0.244   1.225  1.9651 -0.0555  1.1277
 2982TIP3    H2 8953   6.238   0.133   1.323 -1.5410 -0.9887  1.2553
 2983TIP3   OH2 8954   4.797   1.334   0.458 -0.0773 -0.2245  0.6560
 2983TIP3    H1 8955   4.850   1.323   0.380 -1.9432  1.1715 -0.9090
 2983TIP3    H2 8956   4.822   1.420   0.492  0.8440 -0.8949  1.7370
 2984TIP3   OH2 8957   1.414   5.896   1.774 -0.3753 -0.1743  0.3963
 2984TIP3    H1 8958   1.322   5.920   1.787 -0.5634 -0.4023 -0.4137
 2984TIP3    H2 8959   1.414   5.800   1.777 -0.5581 -0.2992 -1.7676
 2985TIP3   OH2 8960   1.820   5.817   1.408  0.2566 -0.4055  0.5088
 2985TIP3    H1 8961   1.756   5.883   1.381 -1.2559 -1.8979  0.2228
 2985TIP3    H2 8962   1.890   5.867   1.449 -0.2938  1.4441 -0.6641
 2986TIP3   OH2 8963   2.458   2.686   2.161 -0.1815 -0.5854  0.1038
 2986TIP3    H1 8964   2.377   2.651   2.197 -0.2568 -0.6824 -0.1585
 2986TIP3    H2 8965   2.450   2.673   2.066  0.0858 -0.4837  0.0662
 2987TIP3   OH2 8966   6.202   3.787   3.777 -0.2909  0.2330  0.9436
 2987TIP3    H1 8967   6.123   3.837   3.797 -0.2341 -0.3129  2.7034
 2987TIP3    H2 8968   6.179   3.696   3.798 -0.0805 -0.3833 -1.2462
 2988TIP3   OH2 8969   1.260   5.440   3.321  0.3753 -0.1477  0.2979
 2988TIP3    H1 8970   1.318   5.405   3.389  0.3074  0.7969  0.8605
 2988TIP3    H2 8971   1.291   5.400   3.240  1.0444 -0.5879  0.7607
 2989TIP3   OH2 8972   3.826   4.788   0.486  0.3821 -0.3642  0.4414
 2989TIP3    H1 8973   3.820   4.760   0.395  1.0205  0.7602  0.0338
 2989TIP3    H2 8974   3.900   4.738   0.522 -0.0598 -1.0315  0.4394
 2990TIP3   OH2 8975   6.244   2.481   2.149 -0.1768  0.4029  0.0625
 2990TIP3    H1 8976   6.266   2.403   2.201 -0.2587 -0.0964 -0.6393
 2990TIP3    H2 8977   6.328   2.516   2.121  0.0253  1.9229  2.2535
 2991TIP3   OH2 8978   0.208   5.852   4.955 -0.8629  0.0069 -0.0411
 2991TIP3    H1 8979   0.149   5.911   4.908 -0.0553  0.6258 -0.3141
 2991TIP3    H2 8980   0.163   5.768   4.956 -0.4205 -0.3649 -2.9520
 2992TIP3   OH2 8981   5.470   0.285   0.950 -0.0667 -0.1486  0.1651
 2992TIP3    H1 8982   5.446   0.296   0.858 -1.1723 -0.9981  0.3382
 2992TIP3    H2 8983   5.387   0.284   0.997  0.5471  2.3566  1.4510
 2993TIP3   OH2 8984   1.224   1.069   3.297  0.1783 -0.3099  0.0430
 2993TIP3    H1 8985   1.160   1.140   3.304 -0.7480 -1.1904  0.7681
 2993TIP3    H2 8986   1.296   1.096   3.353  0.0016  0.2276  0.0156
 2994TIP3   OH2 8987   5.020   2.372   3.532  0.2424  0.0882  0.4349
 2994TIP3    H1 8988   4.971   2.444   3.572  0.9044  0.1515  1.1591
 2994TIP3    H2 8989   4.965   2.295   3.546 -0.2039  0.3508  0.1641
 2995TIP3   OH2 8990   2.574   4.440   1.807 -0.0953 -0.2708  0.4985
 2995TIP3    H1 8991   2.606   4.460   1.719  1.1228  0.9195  1.1756
 2995TIP3    H2 8992   2.637   4.377   1.841  0.6538  0.8455  1.2474
 2996TIP3   OH2 8993   0.455   4.583   0.092  0.1650 -0.4791 -0.1364
 2996TIP3    H1 8994   0.495   4.651   0.038  2.6617 -0.7435  1.2777
 2996TIP3    H2 8995   0.391   4.630   0.146 -0.0772  0.2808 -1.0585
 2997TIP3   OH2 8996   2.121   1.166   0.685 -0.1909  0.1288 -0.1074
 2997TIP3    H1 8997   2.063   1.090   0.687  0.0902 -0.1325 -1.0986
 2997TIP3    H2 8998   2.062   1.241   0.674 -0.3718 -0.1108 -0.8281
 2998TIP3   OH2 8999   2.536   3.544   2.970  0.2376  0.2969  0.7498
 2998TIP3    H1 9000   2.453   3.513   3.006 -1.1935  0.9892 -1.7522
 2998TIP3    H2 9001   2.539   3.636   2.993 -0.6624  0.7314 -0.7172
 2999TIP3   OH2 9002   6.301   2.735   1.115 -0.0714 -0.1832  0.3429
 2999TIP3    H1 9003   6.293   2.781   1.198 -0.9699 -0.3528  0.3637
 2999TIP3    H2 9004   6.237   2.664   1.120  0.3131 -0.5836 -0.2408
 3000TIP3   OH2 9005   1.810   4.406   3.624 -0.5100  0.6389  0.0357
 3000TIP3    H1 9006   1.837   4.353   3.549 -1.6495 -0.4895  0.3880
 3000TIP3    H2 9007   1.789   4.342   3.692  1.1715  1.6585  1.5841
 3001TIP3   OH2 9008   1.513   0.469   3.042 -0.3162 -0.3683 -0.2355
 3001TIP3    H1 9009   1.536   0.476   3.134  1.3015 -2.0053 -0.4477
 3001TIP3    H2 9010   1.418   0.479   3.040 -0.4458 -0.8704  1.6765
 3002TIP3   OH2 9011   0.081   4.315   0.474 -0.1304  0.1056  0.6090
 3002TIP3    H1 9012   0.157   4.332   0.530  0.9302 -1.1546 -0.3707
 3002TIP3    H2 9013   0.006   4.320   0.533  0.7264  1.0547  1.6721
 3003TIP3   OH2 9014   6.020   3.427   1.910 -0.2838  0.2610 -0.3576
 3003TIP3    H1 9015   5.944   3.448   1.856 -1.9798 -1.2793  1.2676
 3003TIP3    H2 9016   6.021   3.495   1.978  0.4421  0.8687 -0.9621
 3004TIP3   OH2 9017   2.079   4.769   0.392 -0.1936 -0.3625 -0.5957
 3004TIP3    H1 9018   2.146   4.747   0.457 -0.8719 -0.0158  0.2500
 3004TIP3    H2 9019   2.015   4.821   0.441 -0.7019 -0.0526 -1.5626
 3005TIP3   OH2 9020   0.967   4.736   4.853 -1.1814  0.1398 -0.0749
 3005TIP3    H1 9021   0.994   4.719   4.943  2.5472 -0.1150 -1.0416
 3005TIP3    H2 9022   0.960   4.649   4.813 -0.1959  0.2768 -0.5988
 3006TIP3   OH2 9023   3.011   2.263   0.373  0.0595  0.2020 -0.4288
 3006TIP3    H1 9024   3.075   2.317   0.326  1.4398 -0.7426  0.2974
 3006TIP3    H2 9025   3.041   2.173   0.360 -1.5682 -0.3251 -0.6905
 3007TIP3   OH2 9026   0.915   5.777   3.201 -0.0947  0.2816  0.8199
 3007TIP3    H1 9027   0.924   5.707   3.136 -1.5116 -0.5379  1.4481
 3007TIP3    H2 9028   0.999   5.778   3.247  0.4918  0.0621 -0.2332
 3008TIP3   OH2 9029   5.075   2.524   5.124  0.0842 -0.3641 -0.2191
 3008TIP3    H1 9030   5.032   2.492   5.045  0.7996 -0.6366 -0.5105
 3008TIP3    H2 9031   5.066   2.452   5.187 -1.0794  0.1193  0.1791
 3009TIP3   OH2 9032   0.965   4.978   4.757 -0.0221  0.5219 -0.0324
 3009TIP3    H1 9033   0.957   4.899   4.810 -1.3628  0.7640  0.1563
 3009TIP3    H2 9034   1.018   4.952   4.682 -0.0385 -0.4223  0.2769
 3010TIP3   OH2 9035   4.979   2.034   0.871 -0.2305  0.5567  0.0687
 3010TIP3    H1 9036   5.023   1.953   0.898  2.6220  2.2665  1.0037
 3010TIP3    H2 9037   4.899   2.036   0.923  0.5702 -0.7698  1.4398
 3011TIP3   OH2 9038   2.034   2.609   4.406 -0.2218 -0.4664 -0.8382
 3011TIP3    H1 9039   1.992   2.694   4.418  0.3942 -0.1940 -0.5944
 3011TIP3    H2 9040   2.091   2.599   4.482  0.0225 -0.9141 -1.0765
 3012TIP3   OH2 9041   3.784   0.773   5.072  0.2074 -0.4602 -0.1607
 3012TIP3    H1 9042   3.848   0.844   5.071  1.2328 -1.3413 -0.3627
 3012TIP3    H2 9043   3.756   0.766   5.163  0.5183 -0.1484 -0.0413
 3013TIP3   OH2 9044   2.535   5.955   0.511 -0.1898  0.1910  0.2585
 3013TIP3    H1 9045   2.484   5.914   0.581 -0.5112  0.2620  0.0667
 3013TIP3    H2 9046   2.501   6.045   0.506 -0.6861 -0.0359 -0.4936
 3014TIP3   OH2 9047   1.699   2.128   1.687  0.2086  0.0576  0.0324
 3014TIP3    H1 9048   1.675   2.103   1.777  2.7229 -2.1986  0.2036
 3014TIP3    H2 9049   1.713   2.223   1.691 -1.6489  0.3212  1.5023
 3015TIP3   OH2 9050   1.593   5.237   1.912 -0.1286  0.2526  0.0118
 3015TIP3    H1 9051   1.513   5.193   1.941  0.2678 -0.0139  0.7255
 3015TIP3    H2 9052   1.575   5.330   1.925 -1.0352  0.3485 -1.6679
 3016TIP3   OH2 9053   1.346   3.471   3.238  1.1840 -0.1147 -0.5921
 3016TIP3    H1 9054   1.422   3.526   3.217  0.8790 -0.2782 -2.2315
 3016TIP3    H2 9055   1.300   3.459   3.155 -1.2827  0.8930  0.5179
 3017TIP3   OH2 9056   5.764   0.497   3.082  0.3350 -0.2248  0.1575
 3017TIP3    H1 9057   5.733   0.470   3.168  0.8903  0.3987  0.5690
 3017TIP3    H2 9058   5.685   0.503   3.028  0.0577 -1.3196  0.4141
 3018TIP3   OH2 9059   5.643   5.474   0.206  0.0533 -0.5047 -0.4567
 3018TIP3    H1 9060   5.687   5.555   0.181  0.9353 -0.6072  0.6884
 3018TIP3    H2 9061   5.677   5.454   0.293 -1.4841 -1.1615  0.0246
 3019TIP3   OH2 9062   0.036   2.338   1.631 -0.0748 -0.4129 -0.1581
 3019TIP3    H1 9063   0.019   2.433   1.631 -1.4579 -0.5984  1.4951
 3019TIP3    H2 9064   0.082   2.322   1.714 -2.2589 -1.4881  0.9400
 3020TIP3   OH2 9065   2.539   1.664   0.752 -0.2920 -0.4208  0.1552
 3020TIP3    H1 9066   2.508   1.576   0.733  2.0472 -1.0188 -1.3554
 3020TIP3    H2 9067   2.573   1.658   0.841  3.1547 -2.2350 -1.0685
 3021TIP3   OH2 9068   2.438   4.733   3.952 -0.5799  0.1481  0.1270
 3021TIP3    H1 9069   2.408   4.643   3.961 -0.2926 -0.2148 -2.0812
 3021TIP3    H2 9070   2.365   4.780   3.913  0.2716  0.1640 -1.5249
 3022TIP3   OH2 9071   2.346   4.396   4.620  0.3239 -0.2726 -0.3285
 3022TIP3    H1 9072   2.267   4.447   4.638 -0.9344 -1.8901 -1.0252
 3022TIP3    H2 9073   2.417   4.460   4.626 -1.2138  1.7653 -1.9103
 3023TIP3   OH2 9074   3.624   3.723   0.170 -0.2051  0.8861  0.4916
 3023TIP3    H1 9075   3.704   3.714   0.118  0.0784  1.1313  0.8786
 3023TIP3    H2 9076   3.576   3.642   0.153 -0.4809  1.2954 -0.7476
 3024TIP3   OH2 9077   5.244   3.417   4.592  0.0516  0.3275 -0.5032
 3024TIP3    H1 9078   5.255   3.326   4.620  0.8840  0.2750 -0.9706
 3024TIP3    H2 9079   5.238   3.467   4.673  0.6219 -0.0332 -0.2289
 3025TIP3   OH2 9080   0.984   5.895   0.228  0.3154  0.0032  0.8089
 3025TIP3    H1 9081   0.908   5.860   0.181 -0.3388  0.4502  1.5042
 3025TIP3    H2 9082   1.020   5.819   0.275  0.0852 -0.1396  0.7552
 3026TIP3   OH2 9083   3.564   5.530   2.068 -0.1665 -0.1591 -0.4453
 3026TIP3    H1 9084   3.609   5.608   2.101 -0.0680 -0.3745 -0.0643
 3026TIP3    H2 9085   3.619   5.457   2.096 -0.7306 -0.4246 -0.0081
 3027TIP3   OH2 9086   3.215   3.549   4.571  0.0819  0.4957 -0.3169
 3027TIP3    H1 9087   3.219   3.455   4.555  1.3380  0.0367  2.1149
 3027TIP3    H2 9088   3.132   3.563   4.615  0.2724  0.3598  0.0919
 3028TIP3   OH2 9089   0.820   3.873   4.437  0.1781  0.3450  0.1293
 3028TIP3    H1 9090   0.834   3.817   4.360  1.4655 -0.3286  0.8214
 3028TIP3    H2 9091   0.726   3.887   4.440  0.2040  1.5814 -2.4051
 3029TIP3   OH2 9092   3.222   3.057   4.803 -0.1047 -0.2864  0.1410
 3029TIP3    H1 9093   3.274   3.089   4.729 -1.1023  0.2294 -0.3534
 3029TIP3    H2 9094   3.198   3.136   4.851 -1.4901 -0.3793 -0.3556
 3030TIP3   OH2 9095   4.038   0.235   0.105  0.4744 -0.5208 -0.0639
 3030TIP3    H1 9096   4.088   0.316   0.095 -1.4034  0.9479  1.5907
 3030TIP3    H2 9097   3.947   0.260   0.091 -0.1201 -2.4838 -0.0990
 3031TIP3   OH2 9098   2.565   5.828   4.317 -0.8982  0.8001 -0.0565
 3031TIP3    H1 9099   2.476   5.853   4.342 -1.2429  0.6029 -1.0429
 3031TIP3    H2 9100   2.578   5.743   4.359 -1.9991 -0.2067 -1.6311
 3032TIP3   OH2 9101   1.640   0.315   2.618 -0.0841  0.6463  1.1958
 3032TIP3    H1 9102   1.671   0.366   2.693  1.4081 -0.6299  1.5011
 3032TIP3    H2 9103   1.588   0.245   2.656  0.7386 -0.0488  1.0565
 3033TIP3   OH2 9104   3.632   1.734   0.297 -0.1316 -0.0767  0.7232
 3033TIP3    H1 9105   3.582   1.816   0.296 -0.3144 -0.1747 -0.8068
 3033TIP3    H2 9106   3.722   1.760   0.315  0.0452  0.6416 -1.0025
 3034TIP3   OH2 9107   1.113   1.362   0.208 -0.2279 -1.1669  0.1940
 3034TIP3    H1 9108   1.029   1.316   0.213 -0.5308 -0.4951  2.2596
 3034TIP3    H2 9109   1.119   1.409   0.291  1.3080  0.3679 -0.7307
 3035TIP3   OH2 9110   1.927   2.043   4.163 -0.0506 -0.0510 -0.2723
 3035TIP3    H1 9111   2.014   2.032   4.124 -0.3279 -0.1785 -0.8775
 3035TIP3    H2 9112   1.873   2.074   4.090 -0.0375  2.2282  0.5902
 3036TIP3   OH2 9113   0.723   5.388   3.120 -0.2111  0.0096 -0.1425
 3036TIP3    H1 9114   0.799   5.413   3.174 -0.3213  1.2300 -0.5299
 3036TIP3    H2 9115   0.655   5.367   3.184 -0.5237  1.9969  0.2732
 3037TIP3   OH2 9116   3.486   1.169   0.978 -0.0465 -0.0051 -0.0435
 3037TIP3    H1 9117   3.420   1.099   0.976 -1.9945  1.5483  2.6194
 3037TIP3    H2 9118   3.466   1.224   0.903  1.1864 -1.8876 -1.8705
 3038TIP3   OH2 9119   5.468   0.240  -0.005 -0.0068 -0.0124 -0.5982
 3038TIP3    H1 9120   5.420   0.258   0.076  0.2998 -0.7141 -0.2554
 3038TIP3    H2 9121   5.556   0.217   0.024  0.1958  0.0534 -1.1545
 3039TIP3   OH2 9122   3.430   0.488   5.175 -0.0541  0.2831  0.2859
 3039TIP3    H1 9123   3.387   0.412   5.214 -1.0373  0.5727 -0.1991
 3039TIP3    H2 9124   3.444   0.464   5.083  1.9869 -0.2872  0.7024
 3040TIP3   OH2 9125   6.288   5.398   2.969 -0.3051  0.2609  0.0853
 3040TIP3    H1 9126   6.275   5.304   2.974 -1.4149  0.4342  1.1624
 3040TIP3    H2 9127   6.365   5.410   2.913 -0.3877 -1.2503 -0.3805
 3041TIP3   OH2 9128   3.452   2.252   0.197 -0.0035 -0.4855 -0.1100
 3041TIP3    H1 9129   3.517   2.220   0.260 -2.5935 -1.4216  2.3325
 3041TIP3    H2 9130   3.437   2.178   0.138 -0.9118 -1.4017  1.1924
 3042TIP3   OH2 9131   5.734   3.753   0.649  0.2370 -0.2061  0.0457
 3042TIP3    H1 9132   5.656   3.746   0.702 -0.4700  1.4921 -0.7110
 3042TIP3    H2 9133   5.799   3.698   0.693 -1.1629 -1.0991  1.0452
 3043TIP3   OH2 9134   1.479   0.640   4.925  0.0311 -0.2914  0.5670
 3043TIP3    H1 9135   1.450   0.714   4.872 -2.4485 -0.2192  1.8588
 3043TIP3    H2 9136   1.487   0.676   5.013  1.4503 -0.9960  0.7545
 3044TIP3   OH2 9137   2.063   0.556   1.460  0.0441 -0.0675  0.1449
 3044TIP3    H1 9138   2.085   0.583   1.549 -0.6723 -0.6853  0.5126
 3044TIP3    H2 9139   2.003   0.624   1.429 -0.7901 -0.5758  0.6308
 3045TIP3   OH2 9140   5.163   3.125   4.323 -0.2352 -0.4530  0.7035
 3045TIP3    H1 9141   5.130   3.215   4.319 -0.0708 -0.4258 -0.1654
 3045TIP3    H2 9142   5.161   3.104   4.417 -0.9729  0.1902  0.8509
 3046TIP3   OH2 9143   4.030   5.565   2.182 -0.4547  0.4295 -0.1352
 3046TIP3    H1 9144   3.940   5.534   2.166 -1.1525  2.9682 -1.6045
 3046TIP3    H2 9145   4.043   5.635   2.118  3.0742 -0.6860 -0.8553
 3047TIP3   OH2 9146   1.933   1.122   1.902  0.2344 -0.0305  0.3866
 3047TIP3    H1 9147   1.867   1.190   1.884 -0.0935 -0.6260 -0.7193
 3047TIP3    H2 9148   1.997   1.165   1.958 -0.4629  0.9177  0.4781
 3048TIP3   OH2 9149   3.410   2.232   3.002 -0.3135 -0.1328  0.4600
 3048TIP3    H1 9150   3.461   2.295   2.952 -0.2392  2.0901  3.1236
 3048TIP3    H2 9151   3.343   2.201   2.940  0.4678  1.5377 -1.3307
 3049TIP3   OH2 9152   1.406   4.057   2.923  0.3152  0.2606 -0.1529
 3049TIP3    H1 9153   1.455   4.130   2.959  0.7346 -0.2814  0.4021
 3049TIP3    H2 9154   1.373   4.089   2.839 -1.1952  1.7561  0.9422
 3050TIP3   OH2 9155   3.270   3.525   3.203  0.1460 -0.2213  0.0204
 3050TIP3    H1 9156   3.210   3.455   3.179 -2.1911  1.7954 -0.4102
 3050TIP3    H2 9157   3.332   3.529   3.131 -0.9184 -0.5571 -0.9447
 3051TIP3   OH2 9158   4.102   0.927   0.297  0.4777 -0.1313 -0.4184
 3051TIP3    H1 9159   4.019   0.917   0.344  0.6262 -3.2291 -0.6553
 3051TIP3    H2 9160   4.168   0.927   0.365  0.4349 -0.0889 -0.3764
 3052TIP3   OH2 9161   0.575   2.194   2.033 -0.2172 -0.0107  0.8216
 3052TIP3    H1 9162   0.664   2.212   2.004 -0.7119  2.8864  0.7923
 3052TIP3    H2 9163   0.574   2.215   2.126 -0.9200  0.3468  0.7481
 3053TIP3   OH2 9164   5.168   4.287   4.313 -0.7108 -0.5029 -0.2235
 3053TIP3    H1 9165   5.079   4.319   4.329 -0.6395 -0.1736 -0.4758
 3053TIP3    H2 9166   5.217   4.365   4.287 -0.2064 -0.5767  0.4857
 3054TIP3   OH2 9167   0.564   1.010   5.019 -0.3941 -0.3571  0.4107
 3054TIP3    H1 9168   0.640   1.025   5.076 -0.6803  0.5374  0.5638
 3054TIP3    H2 9169   0.520   1.094   5.015 -0.2970 -0.3654 -1.2873
 3055TIP3   OH2 9170   5.374   2.281   1.775 -0.1241  0.1206  0.1147
 3055TIP3    H1 9171   5.411   2.246   1.856  0.6544 -0.3765 -0.4361
 3055TIP3    H2 9172   5.362   2.374   1.792 -1.1830 -0.1834  1.2315
 3056TIP3   OH2 9173   3.341   0.029   5.107 -1.0282 -0.4434  0.6089
 3056TIP3    H1 9174   3.377  -0.011   5.027 -1.0415  1.1301 -0.2180
 3056TIP3    H2 9175   3.246   0.033   5.090 -0.8637  1.4520 -0.0700
 3057TIP3   OH2 9176   0.581   2.669   2.617 -0.0944 -0.2170 -0.2085
 3057TIP3    H1 9177   0.540   2.613   2.683 -2.1551  1.3105 -0.0971
 3057TIP3    H2 9178   0.530   2.654   2.537  1.4190 -0.9207 -1.0698
 3058TIP3   OH2 9179   0.793   3.322   4.390  0.0556 -0.2100 -0.3895
 3058TIP3    H1 9180   0.779   3.340   4.482 -0.0602  1.3150 -0.6883
 3058TIP3    H2 9181   0.881   3.284   4.386  0.8972  1.5800  0.1548
 3059TIP3   OH2 9182   4.136   3.001   4.035  0.1179 -0.1557  0.1610
 3059TIP3    H1 9183   4.064   3.045   3.989 -0.2800 -0.4583  0.4846
 3059TIP3    H2 9184   4.188   3.073   4.071 -0.8030  0.0683  1.1077
 3060TIP3   OH2 9185   2.006   3.193   2.555 -0.0015 -0.2663  0.0261
 3060TIP3    H1 9186   2.076   3.128   2.566  1.2598  1.2229  1.3130
 3060TIP3    H2 9187   1.965   3.200   2.641  1.5344  2.3569  0.6625
 3061TIP3   OH2 9188   4.278   1.362   2.333 -0.2106  0.4164  0.0552
 3061TIP3    H1 9189   4.372   1.378   2.340 -0.0825 -0.6351  0.8865
 3061TIP3    H2 9190   4.237   1.444   2.363  0.4289  0.4933  0.7348
 3062TIP3   OH2 9191   0.250   0.551   4.383 -0.0321  0.0702  0.2411
 3062TIP3    H1 9192   0.233   0.644   4.369 -0.3830  0.0900  0.7738
 3062TIP3    H2 9193   0.234   0.511   4.298 -1.2455  0.3096  0.3402
 3063TIP3   OH2 9194   4.216   2.371   1.698 -0.3712 -0.1411  0.7358
 3063TIP3    H1 9195   4.141   2.353   1.754 -0.2850  0.3001  0.9959
 3063TIP3    H2 9196   4.237   2.462   1.715  0.0626 -0.1902  0.4690
 3064TIP3   OH2 9197   5.249   3.815   4.095  0.1003  0.0969  0.6304
 3064TIP3    H1 9198   5.196   3.761   4.153  0.3075  0.6415  1.3289
 3064TIP3    H2 9199   5.208   3.803   4.009 -1.3975  0.7997  1.2108
 3065TIP3   OH2 9200   1.156   0.722   2.062 -0.1742 -0.3820 -0.2950
 3065TIP3    H1 9201   1.230   0.669   2.033  0.4157 -1.0688  2.2232
 3065TIP3    H2 9202   1.174   0.810   2.028  0.9960 -0.8746 -1.0000
 3066TIP3   OH2 9203   3.109   1.560   3.654 -0.3884  0.2998  0.7300
 3066TIP3    H1 9204   3.089   1.496   3.723 -1.3727 -1.9321 -1.4548
 3066TIP3    H2 9205   3.204   1.557   3.644 -0.4555 -1.4278  0.2252
 3067TIP3   OH2 9206   0.044   3.860   4.404 -0.7546 -0.4703 -0.4216
 3067TIP3    H1 9207   0.029   3.766   4.397  0.6232 -0.6333 -1.9127
 3067TIP3    H2 9208  -0.018   3.890   4.470 -0.1379 -2.6829  1.2738
 3068TIP3   OH2 9209   1.791   1.951   0.938 -0.0286 -0.4117  0.0463
 3068TIP3    H1 9210   1.840   1.986   0.864 -2.1585  2.2132 -0.2956
 3068TIP3    H2 9211   1.817   2.005   1.012 -0.7547 -0.4267  0.3249
 3069TIP3   OH2 9212   5.938   5.928   4.076 -0.0563 -0.3886 -0.0919
 3069TIP3    H1 9213   5.852   5.952   4.110 -0.0448 -1.0266  0.4178
 3069TIP3    H2 9214   5.979   5.879   4.148  1.3240  1.1866  0.2471
 3070TIP3   OH2 9215   5.174   1.230   2.678  0.0701 -0.2488 -0.0820
 3070TIP3    H1 9216   5.173   1.272   2.591 -0.4741  0.4039  0.2286
 3070TIP3    H2 9217   5.093   1.260   2.720  0.0623 -0.9883  0.4581
 3071TIP3   OH2 9218   2.594   2.370   2.389 -0.0237 -0.0388  0.2472
 3071TIP3    H1 9219   2.636   2.444   2.432 -0.1115  0.1324  0.0412
 3071TIP3    H2 9220   2.503   2.373   2.420  0.0317 -0.2069  0.4295
 3072TIP3   OH2 9221   3.910   5.390   1.660  0.2881 -0.2649 -0.4002
 3072TIP3    H1 9222   3.975   5.440   1.709 -1.0813  1.5372 -0.2932
 3072TIP3    H2 9223   3.934   5.403   1.568  0.7995 -0.6500 -0.3203
 3073TIP3   OH2 9224   3.251   1.273   1.489 -0.3242  0.2011  0.3632
 3073TIP3    H1 9225   3.276   1.270   1.397  0.2607 -1.5548  0.5438
 3073TIP3    H2 9226   3.277   1.188   1.524  0.9451  1.3747  2.5359
 3074TIP3   OH2 9227   1.561   1.860   3.961  0.5114 -0.0091 -0.0417
 3074TIP3    H1 9228   1.497   1.905   3.906  0.3221 -1.3056 -0.9365
 3074TIP3    H2 9229   1.513   1.786   3.998  1.0035  0.0812  0.8092
 3075TIP3   OH2 9230   3.948   3.310   0.826 -0.2710  0.2794  0.1695
 3075TIP3    H1 9231   4.032   3.265   0.819 -1.7090 -2.6362  0.1993
 3075TIP3    H2 9232   3.945   3.340   0.917  0.0996 -1.0117  0.6326
 3076TIP3   OH2 9233   5.360   2.118   1.043  0.0518 -0.0693 -0.3709
 3076TIP3    H1 9234   5.390   2.081   0.960  1.3606 -0.2855  0.1708
 3076TIP3    H2 9235   5.286   2.064   1.068 -0.0022 -0.3567 -1.1289
 3077TIP3   OH2 9236   5.067   3.371   4.373 -0.2078  0.2236  0.2608
 3077TIP3    H1 9237   5.128   3.406   4.437 -1.3956  2.0531  0.4626
 3077TIP3    H2 9238   5.080   3.424   4.294  0.1704 -0.9977 -0.5280
 3078TIP3   OH2 9239   4.109   2.427   4.485  0.2634 -0.4776  0.1444
 3078TIP3    H1 9240   4.196   2.390   4.472 -0.2581 -1.8044  0.2558
 3078TIP3    H2 9241   4.109   2.508   4.434  1.3384 -0.8169 -0.4106
 3079TIP3   OH2 9242   2.779   1.060   3.380 -0.2585 -0.3437 -0.0328
 3079TIP3    H1 9243   2.764   0.982   3.434 -2.3590  0.9038  1.3128
 3079TIP3    H2 9244   2.851   1.106   3.423 -1.9896  0.6964  1.9050
 3080TIP3   OH2 9245   0.522   5.490   3.718  0.1892 -0.1383  0.6542
 3080TIP3    H1 9246   0.456   5.559   3.721 -1.2397 -1.4139  0.3840
 3080TIP3    H2 9247   0.477   5.416   3.676  1.9607 -0.9153  0.0108
 3081TIP3   OH2 9248   2.903   2.677   3.115  0.3798  0.7422 -0.3937
 3081TIP3    H1 9249   2.924   2.590   3.149  1.0821  0.2842 -1.9143
 3081TIP3    H2 9250   2.810   2.673   3.094  0.8903 -0.5595 -2.8422
 3082TIP3   OH2 9251   2.520   2.860   4.770  0.5053  0.2393  0.2800
 3082TIP3    H1 9252   2.477   2.868   4.685  0.8202  2.9670  0.3134
 3082TIP3    H2 9253   2.608   2.893   4.756  1.2525 -1.2541  1.2223
 3083TIP3   OH2 9254   2.944   3.542   3.550  0.2675  0.6569  0.1805
 3083TIP3    H1 9255   3.011   3.477   3.531  1.4686  1.7072  0.6769
 3083TIP3    H2 9256   2.942   3.598   3.472  0.0517  0.7092  0.2222
 3084TIP3   OH2 9257   2.047   3.612   1.265  0.2631  0.5670  0.8377
 3084TIP3    H1 9258   2.095   3.543   1.311  1.4311  1.7320  1.4343
 3084TIP3    H2 9259   1.971   3.630   1.320 -1.8361 -2.3296 -0.8411
 3085TIP3   OH2 9260   4.200   2.558   3.976  0.7683 -0.7191 -0.2019
 3085TIP3    H1 9261   4.293   2.581   3.982  0.1825  1.4798  1.4792
 3085TIP3    H2 9262   4.163   2.625   3.919 -0.0832 -0.4967  0.5916
 3086TIP3   OH2 9263   4.313   5.737   4.229  0.3605 -0.4431  0.9722
 3086TIP3    H1 9264   4.291   5.645   4.246  0.5819 -0.3559  1.7785
 3086TIP3    H2 9265   4.339   5.771   4.314  1.0246  0.1686  0.5312
 3087TIP3   OH2 9266   5.993   4.650   2.994 -0.1211  0.0899 -0.0328
 3087TIP3    H1 9267   6.005   4.556   3.009  2.1257  0.3795  0.3513
 3087TIP3    H2 9268   6.081   4.682   2.973 -0.9379  2.0226 -0.7287
 3088TIP3   OH2 9269   5.472   5.127   0.530 -0.6530  0.4113  0.5120
 3088TIP3    H1 9270   5.474   5.072   0.451  0.2252  0.0312  0.7857
 3088TIP3    H2 9271   5.382   5.158   0.535 -0.6051  0.8544 -0.9179
 3089TIP3   OH2 9272   3.524   5.538   0.062  0.7865 -0.1674  1.0061
 3089TIP3    H1 9273   3.582   5.603   0.102  0.4790  0.6904  0.1312
 3089TIP3    H2 9274   3.484   5.492   0.136  0.4355  1.1737  1.6927
 3090TIP3   OH2 9275   3.773   5.350   1.273  0.1427 -0.6468  0.2114
 3090TIP3    H1 9276   3.686   5.369   1.308  0.7495  1.2786  0.8305
 3090TIP3    H2 9277   3.785   5.256   1.286 -1.7677 -0.9281  0.2302
 3091TIP3   OH2 9278   5.407   1.599   4.733 -0.8173  0.2395  0.0717
 3091TIP3    H1 9279   5.358   1.641   4.804  0.1923 -1.1473  1.6567
 3091TIP3    H2 9280   5.405   1.506   4.755  0.8825 -0.0457 -0.8438
 3092TIP3   OH2 9281   1.498   2.884   2.421 -0.0514 -0.5245  0.2529
 3092TIP3    H1 9282   1.421   2.896   2.476 -1.4113 -1.1838 -1.4044
 3092TIP3    H2 9283   1.567   2.855   2.481 -0.9437  0.5477  1.8516
 3093TIP3   OH2 9284   5.330   4.030   2.792 -0.0045  0.0296 -0.4676
 3093TIP3    H1 9285   5.257   4.066   2.742  0.2946 -0.4394 -1.2441
 3093TIP3    H2 9286   5.404   4.030   2.732  0.7554  0.8466  0.4180
 3094TIP3   OH2 9287   3.956   3.170   1.092  0.2663 -0.5171 -0.0917
 3094TIP3    H1 9288   3.997   3.088   1.063  0.1868 -0.8317  0.6765
 3094TIP3    H2 9289   3.862   3.152   1.090  0.2459 -0.4216 -0.0022
 3095TIP3   OH2 9290   3.190   4.015   0.680  0.4346  0.0656 -0.0107
 3095TIP3    H1 9291   3.280   4.017   0.649  0.1442  0.8937 -0.8810
 3095TIP3    H2 9292   3.160   4.106   0.670 -0.2921 -0.0585  0.8922
 3096TIP3   OH2 9293   3.309   1.283   3.038  0.6096  0.1256  0.3463
 3096TIP3    H1 9294   3.362   1.264   3.115 -0.4876  1.6240  1.5340
 3096TIP3    H2 9295   3.293   1.198   2.998  1.5931 -0.6280  1.5010
 3097TIP3   OH2 9296   2.995   3.497   4.736  0.2692 -0.0520  0.6277
 3097TIP3    H1 9297   2.992   3.403   4.718 -0.0304  0.2294 -0.9021
 3097TIP3    H2 9298   2.916   3.532   4.695  0.4884  0.8975  0.9970
 3098TIP3   OH2 9299   4.485   0.444   3.136 -0.0413  0.1123 -0.2167
 3098TIP3    H1 9300   4.522   0.452   3.048  0.4183 -0.4077 -0.0819
 3098TIP3    H2 9301   4.415   0.509   3.139  1.5287  1.8641 -0.1301
 3099TIP3   OH2 9302   5.803   1.608   4.486 -0.2344 -0.0200  0.2174
 3099TIP3    H1 9303   5.725   1.553   4.475 -0.8204  0.9211 -0.4731
 3099TIP3    H2 9304   5.868   1.567   4.429 -0.1957 -0.8423  0.8353
 3100TIP3   OH2 9305   0.886   0.304   3.271  0.1384  0.1936  0.3143
 3100TIP3    H1 9306   0.884   0.212   3.298  0.6734 -0.8772 -2.7885
 3100TIP3    H2 9307   0.959   0.343   3.320  1.3574 -1.6697  0.0774
 3101TIP3   OH2 9308   5.952   2.555   1.612  0.0911 -0.0836  0.3290
 3101TIP3    H1 9309   6.045   2.540   1.625  0.1650  0.7727  0.8772
 3101TIP3    H2 9310   5.942   2.566   1.517  1.1540  3.3308  0.4558
 3102TIP3   OH2 9311   1.023   3.640   3.053 -0.2471  0.8842  0.0057
 3102TIP3    H1 9312   1.067   3.558   3.076 -1.2598  0.7033  1.3984
 3102TIP3    H2 9313   1.092   3.706   3.058  1.1828 -0.1107 -3.4885
 3103TIP3   OH2 9314   6.260   5.797   1.312 -0.2162  0.0727 -0.2629
 3103TIP3    H1 9315   6.239   5.860   1.243  0.1177  0.9765  0.4411
 3103TIP3    H2 9316   6.334   5.747   1.278  1.0479  1.6308  0.0724
 3104TIP3   OH2 9317   1.061   4.662   4.314 -0.0685  0.4323  0.2975
 3104TIP3    H1 9318   1.026   4.626   4.232 -0.7001  1.8170 -0.0694
 3104TIP3    H2 9319   1.137   4.714   4.286 -0.5709  1.3003  0.5128
 3105TIP3   OH2 9320   5.982   4.743   1.162  0.0610  0.1775 -0.3527
 3105TIP3    H1 9321   6.035   4.745   1.241  0.0833  1.4034 -0.3831
 3105TIP3    H2 9322   5.956   4.651   1.152 -0.3828  0.0946  1.3597
 3106TIP3   OH2 9323   1.794   2.762   2.251  0.1615  0.2571 -0.2650
 3106TIP3    H1 9324   1.844   2.737   2.173  1.8602  1.6173  0.3177
 3106TIP3    H2 9325   1.734   2.830   2.221 -2.1165 -1.9890 -1.1555
 3107TIP3   OH2 9326   3.492   0.498   4.293 -0.4443  0.4757 -0.1723
 3107TIP3    H1 9327   3.501   0.555   4.370  1.0706  0.8221 -0.5659
 3107TIP3    H2 9328   3.438   0.425   4.323  0.7588  0.1994  1.4754
 3108TIP3   OH2 9329   1.308   4.460   3.181  0.3838  0.1011 -0.0124
 3108TIP3    H1 9330   1.260   4.482   3.100 -1.0917 -0.8833  0.5485
 3108TIP3    H2 9331   1.376   4.399   3.152  0.0190 -0.0585 -0.5642
 3109TIP3   OH2 9332   4.801   4.076   5.146  0.4247  0.6569  0.2247
 3109TIP3    H1 9333   4.785   4.170   5.153  2.8807  1.1515  0.0045
 3109TIP3    H2 9334   4.794   4.043   5.235 -0.4221  1.0226  0.3051
 3110TIP3   OH2 9335   5.593   3.114   1.249 -0.3339  0.1090  0.1058
 3110TIP3    H1 9336   5.498   3.114   1.235 -0.1588  1.0241 -1.3503
 3110TIP3    H2 9337   5.628   3.154   1.169  1.2841 -0.2829  0.5932
 3111TIP3   OH2 9338   6.171   1.905   3.055  0.1153  0.4511 -0.0602
 3111TIP3    H1 9339   6.089   1.955   3.054 -0.5154 -0.5215  1.0425
 3111TIP3    H2 9340   6.236   1.966   3.091 -0.4563  0.7521  0.4836
 3112TIP3   OH2 9341   2.748   2.021   0.220  0.3605 -0.1278  0.2158
 3112TIP3    H1 9342   2.689   1.993   0.289  1.4542 -0.5760  0.9814
 3112TIP3    H2 9343   2.743   2.117   0.222  0.5593 -0.1306  1.0693
 3113TIP3   OH2 9344   5.754   2.697   2.428  0.2968  0.0576  0.4797
 3113TIP3    H1 9345   5.682   2.635   2.434  1.4284 -1.5264 -1.3013
 3113TIP3    H2 9346   5.810   2.663   2.358  1.2092  2.8623 -0.2765
 3114TIP3   OH2 9347   2.041   1.816   2.968  0.6801  0.1874  0.3822
 3114TIP3    H1 9348   1.969   1.878   2.980  1.5718  2.0007 -2.5243
 3114TIP3    H2 9349   2.120   1.867   2.987  1.3889 -0.3434 -0.9807
 3115TIP3   OH2 9350   0.471   3.586   1.514  0.4245 -0.1189  0.2401
 3115TIP3    H1 9351   0.529   3.631   1.453  0.3254  3.5151  2.5683
 3115TIP3    H2 9352   0.383   3.613   1.487  0.2285 -0.4910  0.5000
 3116TIP3   OH2 9353   4.271   3.925   3.866  0.2261  0.3871 -0.5279
 3116TIP3    H1 9354   4.268   3.831   3.884  0.8115  0.6759  1.2603
 3116TIP3    H2 9355   4.335   3.933   3.795 -0.4037 -0.6132 -1.2433
 3117TIP3   OH2 9356   2.312   4.947   2.953  0.6474  0.0661  0.4376
 3117TIP3    H1 9357   2.256   4.978   3.024 -0.4278  0.5161 -0.5859
 3117TIP3    H2 9358   2.303   4.852   2.956  0.5561  0.0855  0.8588
 3118TIP3   OH2 9359   4.403   2.183   0.561  0.1027 -0.1269  0.1885
 3118TIP3    H1 9360   4.321   2.229   0.541  0.8098  0.9059 -0.3918
 3118TIP3    H2 9361   4.376   2.091   0.572 -1.0691  0.1277 -0.3747
 3119TIP3   OH2 9362   1.193   4.578   2.937 -0.7038  0.2510  0.2034
 3119TIP3    H1 9363   1.214   4.671   2.948  0.1896  0.1613 -0.5843
 3119TIP3    H2 9364   1.131   4.576   2.865 -1.2594  0.2841  0.6741
 3120TIP3   OH2 9365   0.162   4.912   4.040 -0.4919  0.6094 -0.2881
 3120TIP3    H1 9366   0.106   4.902   4.117  0.9403 -1.7100  0.5499
 3120TIP3    H2 9367   0.118   4.862   3.971 -1.1044  1.5890 -0.6277
 3121TIP3   OH2 9368   2.026   2.614   3.023  0.2665  0.0280  0.2796
 3121TIP3    H1 9369   1.931   2.612   3.018  0.1594 -0.5090  2.1238
 3121TIP3    H2 9370   2.055   2.561   2.949 -0.7340  2.5469 -2.1190
 3122TIP3   OH2 9371   2.236   3.246   0.709  0.0280  0.3349 -0.2820
 3122TIP3    H1 9372   2.310   3.280   0.659 -1.2173  0.6384 -2.0201
 3122TIP3    H2 9373   2.187   3.325   0.735 -0.9823  0.0549 -1.2769
 3123TIP3   OH2 9374   2.139   4.520   2.412 -0.2288 -0.2934 -0.2253
 3123TIP3    H1 9375   2.228   4.487   2.394 -0.5344 -1.1919 -0.1220
 3123TIP3    H2 9376   2.081   4.460   2.364 -0.8256 -0.2130  0.3890
 3124TIP3   OH2 9377   3.325   3.049   3.842 -0.1554  0.2080  0.0863
 3124TIP3    H1 9378   3.267   2.986   3.798  0.7089  0.5388 -1.5741
 3124TIP3    H2 9379   3.271   3.127   3.853  0.2798  1.0276 -2.7390
 3125TIP3   OH2 9380   0.185   2.080   2.950  0.5736 -0.3310 -0.2218
 3125TIP3    H1 9381   0.247   2.126   3.007  1.3558  0.5306 -1.7219
 3125TIP3    H2 9382   0.134   2.025   3.010  1.1586  0.7586  1.3456
 3126TIP3   OH2 9383   1.507   1.718   2.463  0.3221  0.6622  0.1521
 3126TIP3    H1 9384   1.485   1.802   2.503  0.0502  1.0095 -0.7049
 3126TIP3    H2 9385   1.594   1.731   2.425  0.3133  0.5396  0.0882
 3127TIP3   OH2 9386   3.593   2.280   4.040  0.6162 -0.7124 -0.2059
 3127TIP3    H1 9387   3.575   2.207   4.100 -1.4259 -0.1946 -0.1277
 3127TIP3    H2 9388   3.518   2.338   4.050  0.0760 -0.6988 -3.4169
 3128TIP3   OH2 9389   4.451   0.954   2.399  0.2639  0.4969  0.1214
 3128TIP3    H1 9390   4.425   0.876   2.448  0.3593 -0.9656 -1.9969
 3128TIP3    H2 9391   4.379   1.016   2.411 -1.5018 -1.2420 -0.8801
 3129TIP3   OH2 9392   2.618   3.384   4.221  0.7362 -0.1981  0.5099
 3129TIP3    H1 9393   2.528   3.400   4.249  1.1372  2.3102  0.5577
 3129TIP3    H2 9394   2.610   3.320   4.151 -0.9200 -1.2232  1.5559
 3130TIP3   OH2 9395   3.375   1.025   3.166 -0.3286 -1.0208  0.3295
 3130TIP3    H1 9396   3.371   1.087   3.239  0.1447  0.0249 -0.5075
 3130TIP3    H2 9397   3.363   0.939   3.207 -0.2703 -0.4456  1.6056
 3131TIP3   OH2 9398   3.347   4.903   1.706 -0.4177 -0.1497  0.3479
 3131TIP3    H1 9399   3.281   4.945   1.650 -0.3557 -1.1689 -0.5188
 3131TIP3    H2 9400   3.333   4.809   1.693  0.1936 -0.3930  1.3683
 3132TIP3   OH2 9401   4.586   4.331   2.597  0.1960  0.2967  0.6424
 3132TIP3    H1 9402   4.621   4.252   2.554  0.0547 -0.9102  2.6323
 3132TIP3    H2 9403   4.657   4.395   2.590  0.6568 -0.2758 -0.2281
 3133TIP3   OH2 9404   3.479   4.115   2.848 -0.1656  0.0503 -0.1330
 3133TIP3    H1 9405   3.495   4.024   2.873 -0.3140 -0.3328 -1.3674
 3133TIP3    H2 9406   3.477   4.113   2.752  0.9378  1.5479 -0.2084
 3134TIP3   OH2 9407   2.374   3.214   0.343  0.2513 -0.1503  0.6624
 3134TIP3    H1 9408   2.409   3.302   0.353 -0.0201  0.3327 -2.0073
 3134TIP3    H2 9409   2.451   3.158   0.330  0.2953  0.2625 -1.0374
 3135TIP3   OH2 9410   0.846   1.948   2.902  0.0465  0.1618  0.1607
 3135TIP3    H1 9411   0.936   1.970   2.878  0.4333 -0.3586  1.0805
 3135TIP3    H2 9412   0.828   1.865   2.857 -0.0070  0.3019 -0.0801
 3136TIP3   OH2 9413   3.841   1.623   3.738 -0.3110 -0.0793 -0.0235
 3136TIP3    H1 9414   3.778   1.598   3.806  1.0603 -0.1628  1.2838
 3136TIP3    H2 9415   3.878   1.539   3.708  0.4301  0.0517  0.4964
 3137TIP3   OH2 9416   4.982   5.050   1.704  0.5956  0.1767 -0.1025
 3137TIP3    H1 9417   5.003   5.129   1.653  1.3142 -0.9607 -1.6595
 3137TIP3    H2 9418   4.889   5.035   1.687  0.7725 -0.0576 -0.9278
 3138TIP3   OH2 9419   4.356   1.556   2.632  0.4048  0.2221  0.3173
 3138TIP3    H1 9420   4.300   1.481   2.613 -1.3389  1.5335  0.0516
 3138TIP3    H2 9421   4.302   1.613   2.686  0.6958  2.4691 -1.5804
 3139TIP3   OH2 9422   3.969   2.140   2.200 -0.2414 -0.7678 -0.4694
 3139TIP3    H1 9423   3.943   2.145   2.292 -1.0937 -0.0005 -0.7352
 3139TIP3    H2 9424   3.913   2.071   2.164  1.1572 -2.1609 -0.1021
 3140TIP3   OH2 9425   5.041   3.999   2.871 -0.6253  0.3611  0.1797
 3140TIP3    H1 9426   5.096   3.939   2.819 -1.7034 -0.8437  0.3726
 3140TIP3    H2 9427   5.056   4.085   2.832  2.3111  0.3187  0.9659
 3141TIP3   OH2 9428   2.647   3.547   2.608  0.0896 -0.2791  0.2078
 3141TIP3    H1 9429   2.670   3.620   2.666  1.0614  0.7715 -1.4085
 3141TIP3    H2 9430   2.567   3.576   2.565 -1.8433 -1.9369  2.4048
 3142TIP3   OH2 9431   0.196   2.584   3.128 -0.0926  0.1257  0.8675
 3142TIP3    H1 9432   0.110   2.601   3.091  0.5356  2.8347  0.4094
 3142TIP3    H2 9433   0.182   2.581   3.223 -0.8209 -0.5630  0.7440
 3143TIP3   OH2 9434   4.825   3.769   1.431  0.8600  0.0568 -0.2529
 3143TIP3    H1 9435   4.865   3.781   1.345 -0.5638  0.5224 -0.8673
 3143TIP3    H2 9436   4.895   3.793   1.493  1.4586  1.0780 -1.2913
 3144TIP3   OH2 9437   6.233   2.618   3.122  0.1658  0.0276  0.4587
 3144TIP3    H1 9438   6.245   2.527   3.149  1.3670  0.2663  0.7802
 3144TIP3    H2 9439   6.173   2.655   3.188  0.6894 -0.1928  1.0626
 3145TIP3   OH2 9440   1.376   2.304   4.447  0.0584 -0.4025 -0.7749
 3145TIP3    H1 9441   1.446   2.358   4.484  0.3710 -1.1137 -0.3013
 3145TIP3    H2 9442   1.316   2.289   4.521 -0.3399 -0.2070 -1.0551
 3146TIP3   OH2 9443   0.125   0.391   1.622 -0.1834  0.8276  0.7340
 3146TIP3    H1 9444   0.162   0.415   1.537  2.0059  1.2983  1.7388
 3146TIP3    H2 9445   0.133   0.471   1.675  1.5302 -0.3030  2.3120
 3147TIP3   OH2 9446   1.785   2.056   4.810  0.0815 -0.4776 -0.3421
 3147TIP3    H1 9447   1.783   2.146   4.777  0.6914 -0.6002 -0.7329
 3147TIP3    H2 9448   1.709   2.015   4.769 -1.5851  0.4525  1.6650
 3148TIP3   OH2 9449   4.430   5.422   4.191  0.5907 -0.3164  0.1614
 3148TIP3    H1 9450   4.354   5.379   4.150 -0.8274  2.7927 -0.8248
 3148TIP3    H2 9451   4.395   5.461   4.271  1.4923  0.1014  0.3643
 3149TIP3   OH2 9452   4.077   4.977   5.014  0.4017 -0.1028  0.4092
 3149TIP3    H1 9453   4.080   4.898   5.069 -3.0839 -0.5555  0.1835
 3149TIP3    H2 9454   4.068   5.049   5.075  0.6418 -0.1792  0.5350
 3150TIP3   OH2 9455   2.570   2.484   3.540 -0.5289 -0.2589  0.0449
 3150TIP3    H1 9456   2.568   2.452   3.450  0.3356  1.7764 -0.7668
 3150TIP3    H2 9457   2.485   2.461   3.577 -0.8532 -1.1996 -1.2659
 3151TIP3   OH2 9458   1.157   4.602   0.887  0.0728  0.2318 -0.6099
 3151TIP3    H1 9459   1.099   4.532   0.860 -0.5613  0.9285 -1.0987
 3151TIP3    H2 9460   1.162   4.660   0.811  1.5458  0.1091 -0.6378
 3152TIP3   OH2 9461   1.174   2.318   1.995 -0.4099  0.0451 -0.0924
 3152TIP3    H1 9462   1.108   2.255   2.023 -1.5392  0.9223 -0.6812
 3152TIP3    H2 9463   1.258   2.276   2.016 -1.0572 -2.2615 -1.6640
 3153TIP3   OH2 9464   5.984   2.575   0.942 -0.1171 -0.2753 -0.6320
 3153TIP3    H1 9465   6.053   2.528   0.988  0.5595 -0.0362 -1.3811
 3153TIP3    H2 9466   5.913   2.583   1.006 -0.0679 -1.8928 -0.3408
 3154TIP3   OH2 9467   1.611   2.516   4.092  0.3186  0.2009 -0.4322
 3154TIP3    H1 9468   1.644   2.469   4.015  0.7132  1.0885 -0.8177
 3154TIP3    H2 9469   1.622   2.608   4.070 -1.9163  0.5294 -0.3234
 3155TIP3   OH2 9470   3.430   2.812   3.660 -0.3272  0.0657  0.3367
 3155TIP3    H1 9471   3.354   2.868   3.644 -0.4218 -0.2230 -0.2514
 3155TIP3    H2 9472   3.404   2.726   3.626 -0.3010 -0.4226  1.5131
 3156TIP3   OH2 9473   0.330   1.788   4.397  0.2679  0.4235 -0.1919
 3156TIP3    H1 9474   0.357   1.880   4.403 -1.7635  0.9486  2.0189
 3156TIP3    H2 9475   0.316   1.774   4.303  2.6108  1.6990 -0.8263
 3157TIP3   OH2 9476   5.626   0.854   0.067  0.4329 -0.4994 -0.3094
 3157TIP3    H1 9477   5.576   0.816   0.139  0.3663  1.6805  0.8752
 3157TIP3    H2 9478   5.716   0.827   0.084  0.0882 -2.1514 -0.9153
 3158TIP3   OH2 9479   4.972   3.277   3.862  0.1365  0.3199  0.2802
 3158TIP3    H1 9480   5.062   3.256   3.840 -0.5470 -1.1110 -1.4503
 3158TIP3    H2 9481   4.943   3.336   3.793 -0.6913 -0.4828 -0.0801
 3159TIP3   OH2 9482   0.222   4.452   0.164 -0.0864  0.7531  0.6789
 3159TIP3    H1 9483   0.290   4.454   0.232  0.5000  3.7364  0.1514
 3159TIP3    H2 9484   0.252   4.384   0.104  0.2015 -0.8598  2.5329
 3160TIP3   OH2 9485   2.499   2.171   1.381 -0.1225  0.2300  0.4232
 3160TIP3    H1 9486   2.514   2.102   1.317 -1.1284 -1.0262  1.4706
 3160TIP3    H2 9487   2.566   2.237   1.362  0.5026 -0.7616 -0.9740
 3161TIP3   OH2 9488   4.896   5.435   4.985  0.1648 -0.0467 -0.2736
 3161TIP3    H1 9489   4.855   5.511   4.943  0.0217 -0.4834 -0.9495
 3161TIP3    H2 9490   4.891   5.366   4.919  1.0919 -0.3949  0.0038
 3162TIP3   OH2 9491   1.431   2.723   2.176 -0.4021 -0.2682  0.1340
 3162TIP3    H1 9492   1.480   2.749   2.253 -1.5315 -0.6977  1.0338
 3162TIP3    H2 9493   1.347   2.691   2.210 -1.7380  1.3864 -1.3734
 3163TIP3   OH2 9494   0.444   4.763   3.759  0.1158 -0.2667  0.2389
 3163TIP3    H1 9495   0.367   4.711   3.738 -0.3498  0.7488 -0.6457
 3163TIP3    H2 9496   0.492   4.710   3.823 -0.7566 -1.3937 -0.0118
 3164TIP3   OH2 9497   3.577   2.382   4.607 -0.4263 -0.2645 -0.2737
 3164TIP3    H1 9498   3.655   2.397   4.555 -0.9535 -1.8279 -1.6085
 3164TIP3    H2 9499   3.510   2.355   4.544 -2.3601  1.8872  0.6876
 3165TIP3   OH2 9500   1.961   2.499   1.802 -0.6857 -0.5503 -0.0047
 3165TIP3    H1 9501   1.868   2.476   1.800 -0.9348  0.4341 -0.5008
 3165TIP3    H2 9502   2.003   2.429   1.752 -1.1765 -0.9308  0.1001
 3166TIP3   OH2 9503   2.260   5.509   2.668 -0.5836 -0.1031 -0.3973
 3166TIP3    H1 9504   2.238   5.420   2.641  0.9312 -0.4998 -0.4320
 3166TIP3    H2 9505   2.217   5.521   2.753 -0.4757 -1.0176 -0.2090
 3167TIP3   OH2 9506   5.445   3.973   1.971 -0.0707 -0.3763 -0.0228
 3167TIP3    H1 9507   5.441   3.882   1.942 -1.1065  0.3892 -2.6328
 3167TIP3    H2 9508   5.537   3.997   1.962  0.0343 -0.8920 -0.3616
 3168TIP3   OH2 9509   3.547   1.600   0.667 -0.5341  0.0385  0.2468
 3168TIP3    H1 9510   3.498   1.680   0.687  0.9631  0.2927  3.7666
 3168TIP3    H2 9511   3.502   1.531   0.717  1.2862 -0.1476  1.7322
 3169TIP3   OH2 9512   5.834   4.030   2.543 -0.2099 -0.1719  0.4409
 3169TIP3    H1 9513   5.853   4.007   2.634 -0.8430 -0.9948  0.3784
 3169TIP3    H2 9514   5.884   4.110   2.527  0.5300 -0.4596  1.2688
 3170TIP3   OH2 9515   4.746   4.499   3.865  0.2719  0.9812 -0.2666
 3170TIP3    H1 9516   4.778   4.431   3.924 -1.1599 -1.9399 -2.6000
 3170TIP3    H2 9517   4.819   4.562   3.860  2.0613 -0.8039  1.3051
 3171TIP3   OH2 9518   2.194   2.026   4.075  0.0422 -0.4562 -0.3067
 3171TIP3    H1 9519   2.205   1.932   4.060 -1.0656 -1.1187  2.5188
 3171TIP3    H2 9520   2.261   2.066   4.019 -0.8038 -2.7116 -3.2458
 3172TIP3   OH2 9521   1.198   2.858   2.917 -0.0170 -0.4094  0.0644
 3172TIP3    H1 9522   1.262   2.813   2.862 -0.3997  0.0534 -0.7964
 3172TIP3    H2 9523   1.127   2.794   2.927 -0.5559 -0.0469 -1.1485
 3173TIP3   OH2 9524   5.572   5.523   2.876 -0.4283 -0.1060 -0.0832
 3173TIP3    H1 9525   5.645   5.549   2.933  0.2990 -2.3147  0.1047
 3173TIP3    H2 9526   5.614   5.479   2.802 -1.5286 -1.4059  0.0203
 3174TIP3   OH2 9527   0.411   3.467   4.432  0.2388  0.0452  0.2761
 3174TIP3    H1 9528   0.461   3.398   4.389  0.4870  0.5876 -0.3244
 3174TIP3    H2 9529   0.418   3.542   4.373  0.2202  0.6734  1.0570
 3175TIP3   OH2 9530   0.202   0.651   1.515 -0.0253 -0.3771 -0.2592
 3175TIP3    H1 9531   0.138   0.720   1.497 -0.1577 -0.2333  0.6942
 3175TIP3    H2 9532   0.283   0.698   1.534 -0.1252 -0.4633  0.4349
 3176TIP3   OH2 9533   1.902   5.378   1.746 -0.2105 -0.2924  0.2189
 3176TIP3    H1 9534   1.852   5.297   1.743 -2.1723  0.8139  0.8681
 3176TIP3    H2 9535   1.962   5.373   1.672 -1.8599 -1.3732 -1.1241
 3177TIP3   OH2 9536   3.848   5.140   1.523  0.2100  0.1532 -0.3696
 3177TIP3    H1 9537   3.895   5.082   1.583 -0.8305 -0.1657  0.1530
 3177TIP3    H2 9538   3.855   5.226   1.563  1.6292  0.3976 -1.0705
 3178TIP3   OH2 9539   1.571   1.759   3.570 -0.3285  0.2567  0.4692
 3178TIP3    H1 9540   1.624   1.680   3.565 -0.3925  0.2625 -2.9973
 3178TIP3    H2 9541   1.629   1.826   3.606  1.4620 -0.2045 -1.3857
 3179TIP3   OH2 9542   2.768   3.475   2.167 -0.3492 -0.2394  0.1073
 3179TIP3    H1 9543   2.747   3.404   2.228 -0.5840 -0.1814  0.0972
 3179TIP3    H2 9544   2.747   3.555   2.217  0.0616 -0.1720  0.1751
 3180TIP3   OH2 9545   4.387   1.064   4.151  0.0436 -0.1805 -0.2867
 3180TIP3    H1 9546   4.435   1.146   4.151 -0.7607  0.3179  0.9995
 3180TIP3    H2 9547   4.416   1.020   4.231 -0.6336 -0.4828 -0.2040
 3181TIP3   OH2 9548   0.522   3.983   2.492  0.5630  0.1302 -0.1434
 3181TIP3    H1 9549   0.574   3.935   2.556 -0.2906 -1.8474 -0.8811
 3181TIP3    H2 9550   0.442   4.005   2.538  0.6425  0.1858 -0.0313
 3182TIP3   OH2 9551   3.231   4.212   3.321 -0.3101 -0.6699 -0.1323
 3182TIP3    H1 9552   3.217   4.215   3.226 -1.2926 -2.6562 -0.1045
 3182TIP3    H2 9553   3.314   4.166   3.331 -0.5211 -1.0298 -0.0216
 3183TIP3   OH2 9554   1.164   4.409   1.281  0.7584  0.7579  0.5480
 3183TIP3    H1 9555   1.084   4.367   1.312  1.3820 -1.7920 -1.0267
 3183TIP3    H2 9556   1.234   4.367   1.331  1.3232  1.0049 -0.0203
 3184TIP3   OH2 9557   5.003   5.914   1.143  0.6423  0.3377 -0.0676
 3184TIP3    H1 9558   4.947   5.926   1.219 -0.7547  0.1949 -1.0248
 3184TIP3    H2 9559   5.045   5.830   1.156 -1.4783 -0.8758 -0.5586
 3185TIP3   OH2 9560   3.925   3.569   4.486 -0.7091 -0.2422  0.0505
 3185TIP3    H1 9561   3.948   3.573   4.394 -0.7588 -4.0030 -0.2540
 3185TIP3    H2 9562   3.883   3.484   4.497  1.2901 -0.9501  3.9380
 3186TIP3   OH2 9563   5.579   3.448   3.074  0.3464  0.3566  0.2805
 3186TIP3    H1 9564   5.516   3.498   3.022  1.7741  2.5005  0.4960
 3186TIP3    H2 9565   5.530   3.419   3.150 -0.7797  0.5727 -0.3454
 3187TIP3   OH2 9566   2.655   5.445   4.169  0.5560  0.2955  0.5260
 3187TIP3    H1 9567   2.731   5.391   4.191  0.9593  0.0159 -1.3400
 3187TIP3    H2 9568   2.649   5.439   4.073 -1.5822  0.6496  0.5991
 3188TIP3   OH2 9569   5.752   0.304   4.069 -0.3531 -0.2817  0.2884
 3188TIP3    H1 9570   5.758   0.301   3.973 -0.0100  2.3572  0.1479
 3188TIP3    H2 9571   5.691   0.375   4.086  0.0818 -0.2952  2.0343
 3189TIP3   OH2 9572   0.928   1.732  -0.018 -0.3353  0.0676  0.7682
 3189TIP3    H1 9573   0.864   1.720   0.052 -0.5311 -3.4125  0.1609
 3189TIP3    H2 9574   1.013   1.723   0.026 -0.2662  2.2396  1.1745
 3190TIP3   OH2 9575   0.140   2.137   5.167 -1.0882  0.5354  0.2390
 3190TIP3    H1 9576   0.100   2.083   5.235 -2.0344 -1.9766 -2.1134
 3190TIP3    H2 9577   0.119   2.092   5.085  1.2226  2.5772 -1.6490
 3191TIP3   OH2 9578   4.339   4.553   0.673  0.4233 -0.0173  0.0148
 3191TIP3    H1 9579   4.263   4.605   0.648 -0.3094 -0.4796  1.1983
 3191TIP3    H2 9580   4.413   4.615   0.670 -0.1779  0.7084 -0.0551
 3192TIP3   OH2 9581   1.490   2.352   1.238  0.5140  0.7163 -0.1883
 3192TIP3    H1 9582   1.487   2.262   1.270  1.1460  0.2996 -1.2693
 3192TIP3    H2 9583   1.553   2.351   1.166  0.6001  2.0438 -0.1659
 3193TIP3   OH2 9584   5.551   3.187   4.457 -0.3828 -0.0025 -0.0804
 3193TIP3    H1 9585   5.521   3.271   4.491 -0.5201 -1.2198  3.0887
 3193TIP3    H2 9586   5.639   3.176   4.492  0.9715  0.1366 -3.0975
 3194TIP3   OH2 9587   4.638   1.567   4.288  0.0394 -0.3731 -0.5293
 3194TIP3    H1 9588   4.712   1.574   4.348 -0.1738 -0.5363 -0.2482
 3194TIP3    H2 9589   4.564   1.542   4.343 -0.6199  1.4048 -0.5181
 3195TIP3   OH2 9590   4.483   2.179   3.330 -0.0166  0.2600  0.2201
 3195TIP3    H1 9591   4.482   2.265   3.287 -2.9847 -0.4462 -1.4904
 3195TIP3    H2 9592   4.519   2.120   3.264  0.4473 -0.0674  0.7590
 3196TIP3   OH2 9593   4.290   4.148   2.048  0.8529 -0.1956 -0.1764
 3196TIP3    H1 9594   4.251   4.184   2.128  1.7824  0.6693 -0.0858
 3196TIP3    H2 9595   4.250   4.062   2.037  0.1797 -0.0150  0.8216
 3197TIP3   OH2 9596   0.206   0.254   2.822 -0.3781  0.1315  0.2238
 3197TIP3    H1 9597   0.150   0.210   2.886 -0.6289 -3.0045 -1.8925
 3197TIP3    H2 9598   0.295   0.244   2.856 -0.6476 -0.0067  0.8911
 3198TIP3   OH2 9599   5.155   5.000   4.381 -0.0397 -0.8029 -0.1706
 3198TIP3    H1 9600   5.179   4.930   4.441 -0.7063 -2.2516 -1.5251
 3198TIP3    H2 9601   5.216   4.992   4.308 -1.6749 -1.6483 -1.5156
 3199TIP3   OH2 9602   6.005   4.237   3.409  0.4600  0.1786  0.1395
 3199TIP3    H1 9603   6.017   4.142   3.413 -0.0172  0.1446  0.9522
 3199TIP3    H2 9604   6.036   4.261   3.322  2.0867 -0.5106  0.4834
 3200TIP3   OH2 9605   4.700   1.236   4.868 -0.0439  0.0054  0.1414
 3200TIP3    H1 9606   4.722   1.321   4.907 -0.5319  1.9101 -3.3456
 3200TIP3    H2 9607   4.624   1.206   4.917  0.6668  1.1028  2.0313
 3201TIP3   OH2 9608   1.452   3.683   3.684 -0.1469 -0.3826 -0.2477
 3201TIP3    H1 9609   1.403   3.726   3.755  1.0968  0.0414  0.3841
 3201TIP3    H2 9610   1.391   3.680   3.611 -1.2147 -0.1420  0.6116
 3202TIP3   OH2 9611   1.956   4.081   2.351 -0.3380  0.3734 -0.3815
 3202TIP3    H1 9612   1.926   4.102   2.440 -1.0268  2.4971 -1.0447
 3202TIP3    H2 9613   1.876   4.055   2.305  0.1275 -1.4345 -0.2445
 3203TIP3   OH2 9614   0.054   2.996   4.085  0.7720 -0.6769  0.1467
 3203TIP3    H1 9615   0.125   3.061   4.084  0.6892 -0.5491 -2.2612
 3203TIP3    H2 9616   0.058   2.959   4.173  2.4067  0.8607  0.8002
 3204TIP3   OH2 9617   4.938   2.319   0.972 -0.3254  0.2670 -0.9629
 3204TIP3    H1 9618   4.876   2.286   0.907  1.7947  0.5957 -3.2650
 3204TIP3    H2 9619   5.012   2.352   0.921  1.7114  0.0585  1.6308
 3205TIP3   OH2 9620   5.663   4.890   1.927 -0.0138 -0.7204 -0.5393
 3205TIP3    H1 9621   5.614   4.830   1.984 -1.0332 -0.8582 -1.5398
 3205TIP3    H2 9622   5.747   4.903   1.973 -0.8208 -0.7792  1.0102
 3206TIP3   OH2 9623   2.146   1.564   3.695 -0.6970  0.8086 -0.0905
 3206TIP3    H1 9624   2.171   1.648   3.734  0.0515  0.1082  0.9935
 3206TIP3    H2 9625   2.228   1.527   3.663 -0.9406  0.2579 -0.0826
 3207TIP3   OH2 9626   6.055   3.108   1.652  0.7617  0.4677  0.0135
 3207TIP3    H1 9627   6.057   3.038   1.718  1.6534 -0.1288 -0.6367
 3207TIP3    H2 9628   6.072   3.064   1.569 -2.7460  0.8004 -1.0439
 3208TIP3   OH2 9629   1.805   0.624   2.580  0.8017  0.3015 -0.3626
 3208TIP3    H1 9630   1.749   0.691   2.619  0.3448 -1.6691  2.7362
 3208TIP3    H2 9631   1.882   0.620   2.637  0.6864 -1.9287 -0.2594
 3209TIP3   OH2 9632   4.245   2.191   1.384 -0.1490  0.2494  0.3422
 3209TIP3    H1 9633   4.315   2.224   1.439  1.0825 -1.9725  0.2502
 3209TIP3    H2 9634   4.287   2.123   1.330 -1.8085  0.6738 -1.6247
 3210TIP3   OH2 9635   4.832   5.608   1.312  0.0376 -0.3548  0.1427
 3210TIP3    H1 9636   4.918   5.570   1.327  1.2549  1.8750 -0.6177
 3210TIP3    H2 9637   4.828   5.683   1.371 -0.0145  1.4537 -2.0296
 3211TIP3   OH2 9638   0.236   0.046   2.613 -0.3925 -0.8236  0.5410
 3211TIP3    H1 9639   0.231  -0.036   2.663  0.6746 -0.2280  1.7203
 3211TIP3    H2 9640   0.211   0.113   2.676  0.8381 -0.0575  0.2549
 3212TIP3   OH2 9641   5.047   0.647   0.751 -0.3226  0.0626 -0.0028
 3212TIP3    H1 9642   5.014   0.624   0.664  1.9974 -2.5393 -0.3487
 3212TIP3    H2 9643   4.973   0.630   0.810 -1.2243 -0.4709 -1.2381
 3213TIP3   OH2 9644   0.473   3.187   2.228 -0.1936 -0.1043  0.1744
 3213TIP3    H1 9645   0.513   3.126   2.166 -0.5273  1.0435 -1.2197
 3213TIP3    H2 9646   0.402   3.137   2.269  1.3847 -1.5613  1.2809
 3214TIP3   OH2 9647   1.531   5.767   3.382 -0.0402 -0.8934  0.1918
 3214TIP3    H1 9648   1.460   5.830   3.379  0.7295  0.0209  0.7618
 3214TIP3    H2 9649   1.532   5.735   3.472  0.8449 -0.2079  0.4394
 3215TIP3   OH2 9650   3.004   2.232   4.499 -0.7854 -0.1655 -0.6687
 3215TIP3    H1 9651   3.009   2.160   4.561  1.7128 -0.3118 -0.9474
 3215TIP3    H2 9652   3.003   2.190   4.413 -1.9965  0.0921 -0.7941
 3216TIP3   OH2 9653   4.321   1.970   0.100  0.1530 -0.1049  0.4748
 3216TIP3    H1 9654   4.291   2.061   0.101 -1.8217 -0.6822 -0.7835
 3216TIP3    H2 9655   4.416   1.976   0.089  0.0421  1.7917  0.2350
 3217TIP3   OH2 9656   3.676   3.149   2.360  0.3991 -0.1403 -0.3615
 3217TIP3    H1 9657   3.669   3.137   2.265  0.6722  0.2510 -0.4323
 3217TIP3    H2 9658   3.610   3.089   2.396 -1.2267  1.2341 -0.8940
 3218TIP3   OH2 9659   4.227   3.222   1.327  0.0478 -0.2912 -0.3103
 3218TIP3    H1 9660   4.210   3.269   1.409  0.4014 -0.7815  0.0495
 3218TIP3    H2 9661   4.204   3.285   1.258 -2.9814 -0.7799  0.1125
 3219TIP3   OH2 9662   2.741   3.521   3.986  0.4447 -0.1445  0.2918
 3219TIP3    H1 9663   2.655   3.498   3.951 -0.2714  1.9416  0.5618
 3219TIP3    H2 9664   2.732   3.512   4.081 -0.1627  2.0517  0.4856
 3220TIP3   OH2 9665   1.718   5.488   4.886 -0.1175 -0.1290  0.0624
 3220TIP3    H1 9666   1.728   5.561   4.947  1.7958 -1.2437  1.1686
 3220TIP3    H2 9667   1.787   5.426   4.910 -0.2140 -1.2924 -2.3066
 3221TIP3   OH2 9668   3.381   2.795   0.848  0.8038  0.0717 -0.0179
 3221TIP3    H1 9669   3.409   2.721   0.795  1.3924 -0.0120  0.3997
 3221TIP3    H2 9670   3.286   2.800   0.836  0.7956 -0.6045 -0.2289
 3222TIP3   OH2 9671   0.925   0.805   2.961  0.3156 -0.1346  0.0734
 3222TIP3    H1 9672   1.011   0.840   2.986  0.4062 -0.5171  0.3097
 3222TIP3    H2 9673   0.945   0.721   2.920  0.0366 -0.3570  0.3860
 3223TIP3   OH2 9674   2.167   5.271   2.617  0.1862 -0.3767 -0.1585
 3223TIP3    H1 9675   2.090   5.267   2.560 -0.2155 -0.8102  0.3909
 3223TIP3    H2 9676   2.142   5.217   2.693  0.5222  0.5713  0.6363
 3224TIP3   OH2 9677   1.294   3.336   2.649  0.1169  0.0687  0.4452
 3224TIP3    H1 9678   1.330   3.379   2.571  1.1212 -1.4960  0.0092
 3224TIP3    H2 9679   1.316   3.396   2.721 -0.9292  1.5889 -0.4499
 3225TIP3   OH2 9680   6.080   4.279   3.675 -0.1455  0.6693 -0.6660
 3225TIP3    H1 9681   6.059   4.297   3.583  0.4511  0.8647 -0.7702
 3225TIP3    H2 9682   6.142   4.347   3.699  1.3036 -0.5750 -0.7425
 3226TIP3   OH2 9683   0.588   1.135   4.686  0.0524  0.0544 -0.1199
 3226TIP3    H1 9684   0.673   1.154   4.726  0.0411  1.2025 -0.5930
 3226TIP3    H2 9685   0.579   1.040   4.692  1.8585 -0.2235 -1.0013
 3227TIP3   OH2 9686   4.577   5.965   1.467 -0.6493 -0.0404 -0.1063
 3227TIP3    H1 9687   4.634   5.973   1.544 -1.8327  0.3244  0.7511
 3227TIP3    H2 9688   4.498   6.012   1.491 -1.1456 -0.1492 -1.4649
 3228TIP3   OH2 9689   4.967   4.577   0.030  0.3506 -0.1194  0.0418
 3228TIP3    H1 9690   4.980   4.483   0.020 -0.5214 -0.5370  2.2617
 3228TIP3    H2 9691   4.881   4.585   0.071 -0.4673  1.7780 -1.8794
 3229TIP3   OH2 9692   3.619   0.122   3.454 -0.1274  0.2033 -0.4884
 3229TIP3    H1 9693   3.542   0.082   3.414 -0.9217  1.4083 -0.2335
 3229TIP3    H2 9694   3.615   0.214   3.428  0.5540  0.5416  0.5147
 3230TIP3   OH2 9695   3.366   4.679   2.275  0.2166  0.3626  0.0315
 3230TIP3    H1 9696   3.299   4.747   2.280 -0.0119  0.1521 -0.1153
 3230TIP3    H2 9697   3.420   4.692   2.353 -0.9815 -0.4743  1.0455
 3231TIP3   OH2 9698   1.147   0.253   4.970  0.0084 -0.0369 -0.0131
 3231TIP3    H1 9699   1.192   0.318   4.915 -1.7353 -0.3151 -1.8838
 3231TIP3    H2 9700   1.094   0.305   5.030 -1.2219  0.3430 -1.3650
 3232TIP3   OH2 9701   2.493   3.517   3.896  0.1235  0.2520 -0.8955
 3232TIP3    H1 9702   2.444   3.559   3.967  0.4851 -1.0681  0.1751
 3232TIP3    H2 9703   2.425   3.478   3.840 -0.1171 -1.0949  0.2819
 3233TIP3   OH2 9704   5.909   5.762   1.774 -0.2846 -0.1470  0.0473
 3233TIP3    H1 9705   5.835   5.821   1.758  0.0574 -0.0469 -1.2250
 3233TIP3    H2 9706   5.944   5.742   1.687  1.1216 -0.2715  0.6136
 3234TIP3   OH2 9707   2.561   0.157   3.904  0.3977 -0.1605 -0.3570
 3234TIP3    H1 9708   2.621   0.177   3.976  2.2399  0.7511 -2.0386
 3234TIP3    H2 9709   2.609   0.096   3.849  0.1078  1.1035 -2.1045
 3235TIP3   OH2 9710   1.446   1.701   2.186 -0.0703 -0.3552 -0.0878
 3235TIP3    H1 9711   1.354   1.680   2.198 -0.2786  1.1840  1.3965
 3235TIP3    H2 9712   1.476   1.729   2.272  1.8524 -0.9981 -0.4864
 3236TIP3   OH2 9713   3.193   1.047   3.843 -0.6425  0.0444  0.0834
 3236TIP3    H1 9714   3.155   0.963   3.816 -0.6970 -0.4082  1.5156
 3236TIP3    H2 9715   3.124   1.089   3.894  0.0020  0.1565  0.8879
 3237TIP3   OH2 9716   5.334   5.718   2.303 -0.1617 -0.6177  0.1065
 3237TIP3    H1 9717   5.272   5.718   2.376 -0.7315  0.5837 -0.3430
 3237TIP3    H2 9718   5.405   5.661   2.332  0.5528  1.3001  2.4504
 3238TIP3   OH2 9719   3.694   5.617   0.653  0.3533 -0.1769  0.2772
 3238TIP3    H1 9720   3.608   5.621   0.612  1.4251 -1.5108 -2.3119
 3238TIP3    H2 9721   3.689   5.543   0.713 -0.9256  1.1882  2.0039
 3239TIP3   OH2 9722   2.604   5.896   1.959 -0.3270 -0.0224 -0.3804
 3239TIP3    H1 9723   2.624   5.831   1.891 -0.5464  1.8053 -2.2929
 3239TIP3    H2 9724   2.686   5.943   1.972 -0.7822  0.9308 -0.8663
 3240TIP3   OH2 9725   1.066   0.454   2.734  0.0205 -0.8882  0.1844
 3240TIP3    H1 9726   0.972   0.466   2.752  0.3907 -0.8169  2.4137
 3240TIP3    H2 9727   1.101   0.543   2.735  0.0734 -0.8778 -1.0932
 3241TIP3   OH2 9728   1.282   4.087   3.232 -0.2922 -0.3885  0.1350
 3241TIP3    H1 9729   1.370   4.051   3.236  0.7114  1.7832 -0.6337
 3241TIP3    H2 9730   1.281   4.157   3.297 -1.3440 -0.1555 -0.1033
 3242TIP3   OH2 9731   3.120   5.746   2.203 -0.7176 -0.3966 -0.4100
 3242TIP3    H1 9732   3.146   5.654   2.202  1.1585 -0.0133  2.2056
 3242TIP3    H2 9733   3.167   5.786   2.130  2.3602 -0.7096  1.2291
 3243TIP3   OH2 9734   3.985   3.008   1.430  0.1061  0.1772  0.0742
 3243TIP3    H1 9735   3.932   3.055   1.494 -0.8676  0.0209 -0.6054
 3243TIP3    H2 9736   4.066   3.060   1.424 -0.8950  1.7535 -0.5823
 3244TIP3   OH2 9737   3.157   0.470   1.473  0.0164 -0.3436  0.1290
 3244TIP3    H1 9738   3.198   0.417   1.404 -0.2580  0.4168 -0.6244
 3244TIP3    H2 9739   3.158   0.559   1.439  2.0958  0.4985  2.1026
 3245TIP3   OH2 9740   0.610   1.061   4.152  1.0251  0.0302  0.2887
 3245TIP3    H1 9741   0.639   1.116   4.224 -1.2647  0.0338  1.2987
 3245TIP3    H2 9742   0.688   1.047   4.099  2.1291  2.5578  1.1037
 3246TIP3   OH2 9743   4.074   2.251   1.953 -0.3928 -0.1677  0.0826
 3246TIP3    H1 9744   4.051   2.226   2.043 -1.6023 -0.4025 -0.2715
 3246TIP3    H2 9745   4.000   2.306   1.925 -0.0761 -0.1914 -0.8077
 3247TIP3   OH2 9746   4.384   2.464   0.688  0.1229 -0.2461  0.1523
 3247TIP3    H1 9747   4.359   2.377   0.657  0.1705 -0.8705  1.7797
 3247TIP3    H2 9748   4.446   2.496   0.622 -1.1555 -0.7164 -1.3426
 3248TIP3   OH2 9749   5.488   5.796   3.092  0.3250 -0.6215  0.3879
 3248TIP3    H1 9750   5.525   5.718   3.134  0.7218 -0.1026  1.0184
 3248TIP3    H2 9751   5.396   5.775   3.079  0.9312 -2.2633 -1.9562
 3249TIP3   OH2 9752   5.164   1.431   2.982 -0.2160  0.1368  0.2944
 3249TIP3    H1 9753   5.163   1.461   3.073  0.3613  0.0938  0.3163
 3249TIP3    H2 9754   5.158   1.335   2.988 -1.9610  0.1936  0.2274
 3250TIP3   OH2 9755   6.174   5.802   4.754 -0.3064 -0.0503 -0.1538
 3250TIP3    H1 9756   6.266   5.822   4.733 -0.6054  1.3654 -0.2168
 3250TIP3    H2 9757   6.155   5.855   4.832 -0.6641 -1.4614  0.7644
 3251TIP3   OH2 9758   3.495   0.514   3.713  0.4110  0.4098 -0.0536
 3251TIP3    H1 9759   3.453   0.448   3.657 -0.8161 -1.0338  2.4296
 3251TIP3    H2 9760   3.579   0.531   3.671  0.1633 -1.6819 -1.5422
 3252TIP3   OH2 9761   4.700   0.216   4.112 -0.3774 -0.3908  0.0780
 3252TIP3    H1 9762   4.756   0.142   4.088  0.6352  0.5334 -0.5447
 3252TIP3    H2 9763   4.612   0.179   4.119 -0.2169 -1.3252 -2.0567
 3253TIP3   OH2 9764   2.024   3.061   4.298 -0.2006  0.3736 -0.1172
 3253TIP3    H1 9765   2.051   3.115   4.372  0.3875  0.5606 -0.4567
 3253TIP3    H2 9766   1.988   3.123   4.235 -1.7770  0.0845  0.4741
 3254TIP3   OH2 9767   0.302   2.787   2.214  0.3092  0.0528 -0.1000
 3254TIP3    H1 9768   0.231   2.730   2.185  1.5364 -2.0478  0.7726
 3254TIP3    H2 9769   0.258   2.864   2.251 -1.5192 -1.2272  0.5280
 3255TIP3   OH2 9770   2.184   2.836   2.151  0.1638 -0.1222 -0.6218
 3255TIP3    H1 9771   2.128   2.897   2.103  1.7037  1.0925 -0.9574
 3255TIP3    H2 9772   2.189   2.759   2.096 -2.2385 -0.8432  0.0409
 3256TIP3   OH2 9773   2.264   0.101   2.493 -0.1552  0.3413 -0.7730
 3256TIP3    H1 9774   2.284   0.173   2.553  2.1401  0.4733 -1.6109
 3256TIP3    H2 9775   2.279   0.022   2.545  0.6214  0.4612 -0.8059
 3257TIP3   OH2 9776   5.502   4.251   4.724 -0.4747  0.5504 -0.2338
 3257TIP3    H1 9777   5.555   4.186   4.769 -1.6033  0.7269  1.4527
 3257TIP3    H2 9778   5.413   4.216   4.729 -0.7604  1.0738 -1.4582
 3258TIP3   OH2 9779   1.147   1.049   4.132 -0.4320 -0.4763  0.0158
 3258TIP3    H1 9780   1.180   0.983   4.193 -1.4264 -0.4104  0.6472
 3258TIP3    H2 9781   1.178   1.021   4.047  0.2227 -1.0656  0.4413
 3259TIP3   OH2 9782   6.335   3.484   2.319  0.1510 -0.5263  0.2564
 3259TIP3    H1 9783   6.325   3.447   2.231 -2.6113 -0.0418  0.2712
 3259TIP3    H2 9784   6.252   3.529   2.335  1.7784  2.1318  1.8816
 3260TIP3   OH2 9785   5.919   2.559   4.639  0.2398  0.1444 -0.2597
 3260TIP3    H1 9786   5.972   2.521   4.569 -0.4942  1.2564 -1.4864
 3260TIP3    H2 9787   5.849   2.496   4.653 -0.1199  0.3157 -1.1992
 3261TIP3   OH2 9788   4.871   4.151   3.885 -0.0524 -0.7443  0.6126
 3261TIP3    H1 9789   4.939   4.084   3.889 -1.3332 -2.1488  0.1227
 3261TIP3    H2 9790   4.911   4.229   3.921  1.7417 -1.5814  0.5194
 3262TIP3   OH2 9791   4.526   5.575   0.266 -0.3776 -0.6769 -0.1565
 3262TIP3    H1 9792   4.431   5.571   0.262 -0.3203 -2.6024 -0.7816
 3262TIP3    H2 9793   4.552   5.616   0.184 -0.6424 -1.1616 -0.4880
 3263TIP3   OH2 9794   3.634   1.460   5.174  0.1274 -0.4158 -0.1466
 3263TIP3    H1 9795   3.580   1.440   5.098 -0.4698 -2.0239  0.6307
 3263TIP3    H2 9796   3.707   1.398   5.169  1.9393  1.6546 -1.1273
 3264TIP3   OH2 9797   0.250   2.553   5.067 -0.3729 -0.1123  0.2789
 3264TIP3    H1 9798   0.230   2.641   5.098  0.0457  0.3228 -0.6582
 3264TIP3    H2 9799   0.331   2.529   5.113  0.0749  0.4033 -0.2287
 3265TIP3   OH2 9800   5.851   1.275   0.538 -0.4111  0.0379  0.1073
 3265TIP3    H1 9801   5.763   1.272   0.500 -0.3165 -0.4554 -0.0874
 3265TIP3    H2 9802   5.864   1.366   0.563 -0.2393  0.5194 -1.6028
 3266TIP3   OH2 9803   1.511   3.556   0.470  0.5089 -0.1302  0.1099
 3266TIP3    H1 9804   1.446   3.620   0.500  0.6229 -0.5063  1.2179
 3266TIP3    H2 9805   1.589   3.608   0.451  0.3941  0.1397  0.3728
 3267TIP3   OH2 9806   1.591   4.298   2.025  0.1496  0.0101  0.0160
 3267TIP3    H1 9807   1.532   4.325   1.955 -2.6157 -1.5111  1.6231
 3267TIP3    H2 9808   1.605   4.378   2.076  0.0318  0.5361 -0.7605
 3268TIP3   OH2 9809   3.242   2.105   0.609  0.1241  0.1641 -0.8278
 3268TIP3    H1 9810   3.184   2.069   0.676 -1.2487  1.1302 -1.4593
 3268TIP3    H2 9811   3.330   2.086   0.642 -0.4933  0.7020  1.3125
 3269TIP3   OH2 9812   0.205   2.165   4.766  0.2216  0.0380 -0.2756
 3269TIP3    H1 9813   0.149   2.218   4.709  1.4885  2.2345  0.3755
 3269TIP3    H2 9814   0.149   2.138   4.838 -0.3924  0.8154 -0.4506
 3270TIP3   OH2 9815   0.928   3.653   2.762  0.5381  0.0850  0.0479
 3270TIP3    H1 9816   0.924   3.690   2.850  2.2862  0.0071  0.1825
 3270TIP3    H2 9817   0.956   3.562   2.775 -2.9253 -1.2026 -0.3388
 3271TIP3   OH2 9818   5.382   1.333   0.227  0.4962  0.3684 -0.0165
 3271TIP3    H1 9819   5.303   1.342   0.173  0.6665 -2.9363 -1.0525
 3271TIP3    H2 9820   5.400   1.422   0.258 -1.6159  1.8490 -2.5836
 3272TIP3   OH2 9821   5.227   2.700   4.877  0.3690 -0.2544 -0.2243
 3272TIP3    H1 9822   5.206   2.608   4.863 -0.3526 -0.0650 -0.4153
 3272TIP3    H2 9823   5.320   2.707   4.854  0.3613 -0.8792 -0.4598
 3273TIP3   OH2 9824   2.520   5.835   2.410 -0.0126 -0.2542  0.2473
 3273TIP3    H1 9825   2.523   5.740   2.420 -0.3319 -0.2613  0.2797
 3273TIP3    H2 9826   2.610   5.860   2.390 -0.2160 -0.7477 -1.4458
 3274TIP3   OH2 9827   0.119   4.158   4.689 -0.0735  0.0148  0.0302
 3274TIP3    H1 9828   0.027   4.133   4.691 -0.8600  2.5639  0.2108
 3274TIP3    H2 9829   0.153   4.120   4.608 -1.6988  0.1847 -0.7733
 3275TIP3   OH2 9830   3.468   0.527   2.243  0.5013  0.0543  0.0849
 3275TIP3    H1 9831   3.451   0.621   2.240  1.2467  0.3165  2.2120
 3275TIP3    H2 9832   3.411   0.495   2.313  2.4906 -0.4810  1.5484
 3276TIP3   OH2 9833   3.733   4.225   1.495  0.4047  0.4605  0.4558
 3276TIP3    H1 9834   3.701   4.242   1.406  0.5531  0.7403  0.4545
 3276TIP3    H2 9835   3.658   4.243   1.551  0.4859  0.8755  0.4335
 3277TIP3   OH2 9836   2.850   3.494   0.537  0.1780 -0.0370 -0.2103
 3277TIP3    H1 9837   2.832   3.548   0.460  1.6010 -0.8338 -1.1555
 3277TIP3    H2 9838   2.908   3.424   0.505 -1.0898 -1.7866  1.0820
 3278TIP3   OH2 9839   4.867   4.830   2.609  0.2953 -0.0709 -0.3623
 3278TIP3    H1 9840   4.776   4.809   2.589 -0.0690 -0.4959  1.5430
 3278TIP3    H2 9841   4.918   4.759   2.570 -0.2743 -0.4090 -0.4964
 3279TIP3   OH2 9842   5.496   0.466   2.050 -0.0542 -0.1256 -0.1938
 3279TIP3    H1 9843   5.533   0.500   2.131 -0.5503  0.5198 -0.2348
 3279TIP3    H2 9844   5.467   0.543   2.001 -0.5221 -0.5552 -0.6157
 3280TIP3   OH2 9845   3.866   4.913   0.184  0.0676  0.7020 -0.2704
 3280TIP3    H1 9846   3.877   4.983   0.120  1.2325 -0.6248 -1.5936
 3280TIP3    H2 9847   3.861   4.833   0.132  0.4921 -0.3750  1.2724
 3281TIP3   OH2 9848   0.648   3.801   2.677 -0.4261 -0.1128  0.4513
 3281TIP3    H1 9849   0.599   3.720   2.664  0.4084 -0.6563  0.6258
 3281TIP3    H2 9850   0.740   3.774   2.678 -0.0672  0.9754 -0.5602
 3282TIP3   OH2 9851   3.936   5.418   0.272  0.0384 -0.1616 -0.0504
 3282TIP3    H1 9852   3.905   5.353   0.209  0.0111 -0.1302 -0.0695
 3282TIP3    H2 9853   3.898   5.392   0.355 -0.0736 -0.0995 -0.0814
 3283TIP3   OH2 9854   6.293   4.441   3.726 -0.3813  0.3220 -0.1726
 3283TIP3    H1 9855   6.354   4.418   3.657 -0.8112 -0.3315 -0.3403
 3283TIP3    H2 9856   6.319   4.529   3.753  1.3966 -0.3773  0.5791
 3284TIP3   OH2 9857   4.665   5.165   0.139 -0.7335 -0.1510 -0.3073
 3284TIP3    H1 9858   4.740   5.164   0.199 -1.0235 -2.1059  0.1107
 3284TIP3    H2 9859   4.609   5.236   0.170  0.9835  1.4629 -0.7268
 3285TIP3   OH2 9860   0.056   0.818   3.493 -0.3176 -0.7475  0.6393
 3285TIP3    H1 9861  -0.009   0.799   3.560 -1.5668 -1.3699 -0.6949
 3285TIP3    H2 9862   0.136   0.775   3.524 -0.0856  1.1385  2.9554
 3286TIP3   OH2 9863   6.224   4.621   3.231  0.6270 -0.1595  0.0215
 3286TIP3    H1 9864   6.154   4.557   3.218  0.4508  0.1269 -0.4370
 3286TIP3    H2 9865   6.279   4.581   3.299 -0.1813 -0.2221  0.6662
 3287TIP3   OH2 9866   0.668   1.047   0.838 -0.0048 -0.1848 -0.1803
 3287TIP3    H1 9867   0.745   1.090   0.874  0.5234 -0.5767 -0.8376
 3287TIP3    H2 9868   0.614   1.027   0.915  0.2201  0.7074  0.2207
 3288TIP3   OH2 9869   6.302   1.249   2.254 -0.0371  0.6543 -0.7391
 3288TIP3    H1 9870   6.260   1.253   2.339 -0.9024  1.4922 -1.1919
 3288TIP3    H2 9871   6.329   1.157   2.245  0.1246  0.5694  0.4449
 3289TIP3   OH2 9872   4.319   5.540   1.556  0.3647  0.1980  0.3738
 3289TIP3    H1 9873   4.295   5.448   1.564 -0.4096  0.1889 -1.5528
 3289TIP3    H2 9874   4.415   5.540   1.559  0.3675 -0.6696  0.4438
 3290TIP3   OH2 9875   1.349   4.253   1.386  0.3285  1.0247 -0.4517
 3290TIP3    H1 9876   1.353   4.290   1.474 -0.4177 -1.1151  0.5463
 3290TIP3    H2 9877   1.423   4.193   1.382 -0.9088 -0.5532 -0.4411
 3291TIP3   OH2 9878   3.218   3.155   4.297 -0.3368  0.1284  0.5251
 3291TIP3    H1 9879   3.177   3.183   4.379 -0.5251 -1.1604  0.8870
 3291TIP3    H2 9880   3.146   3.148   4.235 -0.5281 -1.0940  0.8715
 3292TIP3   OH2 9881   0.294   0.384   0.332 -0.3613  0.2255 -0.9693
 3292TIP3    H1 9882   0.370   0.338   0.298 -0.3702 -0.2385 -0.3831
 3292TIP3    H2 9883   0.268   0.443   0.262 -0.2713 -0.5693 -1.6814
 3293TIP3   OH2 9884   5.352   5.511   1.048  0.2595 -0.4858 -0.1891
 3293TIP3    H1 9885   5.388   5.454   1.115 -0.2722  0.9438  1.3837
 3293TIP3    H2 9886   5.426   5.566   1.021 -0.0560  0.6275  1.0924
 3294TIP3   OH2 9887   1.614   5.230   3.266  0.0003  0.0709 -0.8221
 3294TIP3    H1 9888   1.558   5.184   3.329 -1.1889  0.9415 -1.2074
 3294TIP3    H2 9889   1.695   5.246   3.314 -0.8020  0.5383  0.4396
 3295TIP3   OH2 9890   5.377   3.377   4.030 -0.3385  0.4357 -0.2632
 3295TIP3    H1 9891   5.392   3.290   4.067 -1.7497  0.8307  1.3855
 3295TIP3    H2 9892   5.462   3.419   4.032  0.4472 -1.0176 -1.4593
 3296TIP3   OH2 9893   2.550   5.039   1.805  0.2657  0.0495  0.1915
 3296TIP3    H1 9894   2.511   4.992   1.731 -0.8915 -1.1476  1.4901
 3296TIP3    H2 9895   2.595   5.113   1.765  0.5668 -1.1224 -1.7894
 3297TIP3   OH2 9896   2.453   4.672   2.418  0.0506  0.2685  0.0851
 3297TIP3    H1 9897   2.486   4.609   2.354 -1.7090 -0.4565 -0.1741
 3297TIP3    H2 9898   2.453   4.756   2.372  0.8103  0.1487 -0.1421
 3298TIP3   OH2 9899   3.249   3.554   4.914  0.1299 -0.4152 -0.2006
 3298TIP3    H1 9900   3.176   3.571   4.854  0.4642 -1.5804 -0.9715
 3298TIP3    H2 9901   3.269   3.640   4.952  0.3307  0.5187 -2.2594
 3299TIP3   OH2 9902   0.506   2.856   4.664  0.4708 -0.1579  0.1490
 3299TIP3    H1 9903   0.461   2.937   4.640  0.3636  0.0560  1.0520
 3299TIP3    H2 9904   0.567   2.882   4.733  0.0494 -0.9427  0.8291
 3300TIP3   OH2 9905   3.686   4.343   0.626 -0.2207  0.1426 -0.2935
 3300TIP3    H1 9906   3.685   4.248   0.608  0.6107  0.1264 -0.2803
 3300TIP3    H2 9907   3.778   4.368   0.618 -0.3572  0.8501  0.2575
 3301TIP3   OH2 9908   4.548   5.354   0.959  0.6786  0.2243  0.5958
 3301TIP3    H1 9909   4.638   5.323   0.967  0.2829 -0.8104  1.2956
 3301TIP3    H2 9910   4.509   5.337   1.044  0.1831  1.9200  0.7317
 3302TIP3   OH2 9911   1.310   1.635   4.009  0.0243  0.0200  0.7056
 3302TIP3    H1 9912   1.335   1.613   3.919  1.8843 -1.3294  1.4770
 3302TIP3    H2 9913   1.278   1.552   4.046  1.6834 -0.1121  1.9806
 3303TIP3   OH2 9914   2.929   5.902   2.688 -0.2808 -0.6344 -0.2214
 3303TIP3    H1 9915   2.834   5.899   2.702 -0.1400 -0.9242  0.7791
 3303TIP3    H2 9916   2.951   5.818   2.648 -0.2962 -1.0522  0.6304
 3304TIP3   OH2 9917   4.765   2.829   4.758 -0.0270 -0.1563 -0.1432
 3304TIP3    H1 9918   4.859   2.841   4.749  0.1318 -0.7729  0.5798
 3304TIP3    H2 9919   4.726   2.893   4.699  0.8271  0.9874  0.5030
 3305TIP3   OH2 9920   3.017   2.947   3.060 -0.2873  0.0647  0.2875
 3305TIP3    H1 9921   3.016   2.986   3.148  1.6307  0.2499  0.2883
 3305TIP3    H2 9922   2.958   2.872   3.066 -1.8746  1.3193  1.0940
 3306TIP3   OH2 9923   3.825   3.011   2.584 -0.0382  0.4223 -0.1764
 3306TIP3    H1 9924   3.732   3.032   2.594 -0.4593 -0.7673 -1.2785
 3306TIP3    H2 9925   3.852   2.979   2.670 -0.2681  2.0613  0.5312
 3307TIP3   OH2 9926   3.664   1.677   2.604  0.1394 -0.5004  1.1193
 3307TIP3    H1 9927   3.746   1.636   2.632  0.8801  0.9386  1.1882
 3307TIP3    H2 9928   3.684   1.771   2.603 -1.2093 -0.1963  0.1150
 3308TIP3   OH2 9929   3.633   0.902   2.454  0.3216  0.0266  0.0400
 3308TIP3    H1 9930   3.577   0.945   2.519 -0.5228 -0.3501 -0.4171
 3308TIP3    H2 9931   3.680   0.835   2.504  1.7666  1.5303  0.7914
 3309TIP3   OH2 9932   2.220   3.733   4.178  0.0918  0.4816 -0.1086
 3309TIP3    H1 9933   2.313   3.722   4.159  0.1430  1.4563 -0.4672
 3309TIP3    H2 9934   2.216   3.813   4.231 -0.4242 -0.2022  0.9153
 3310TIP3   OH2 9935   0.532   1.056   1.128 -0.2826 -0.0742 -0.0185
 3310TIP3    H1 9936   0.508   1.015   1.211  1.0690 -2.1048 -0.5484
 3310TIP3    H2 9937   0.626   1.076   1.138 -0.0120 -0.7125 -1.1678
 3311TIP3   OH2 9938   3.558   0.346   4.691  0.7450 -0.1603  0.3478
 3311TIP3    H1 9939   3.551   0.441   4.686 -1.3717 -0.3317 -1.4082
 3311TIP3    H2 9940   3.536   0.325   4.782  1.3864  1.0191  0.7861
 3312TIP3   OH2 9941   1.811   2.619   0.786 -0.5680 -0.2636  0.0210
 3312TIP3    H1 9942   1.733   2.659   0.747 -0.6860  1.4623  1.8372
 3312TIP3    H2 9943   1.780   2.536   0.822 -0.8245 -1.0651 -1.9137
 3313TIP3   OH2 9944   3.604   0.496   0.654  0.1329  0.6577  0.0743
 3313TIP3    H1 9945   3.628   0.572   0.706  0.6498  0.3176  0.3370
 3313TIP3    H2 9946   3.575   0.532   0.570  1.1857  1.0947 -0.1063
 3314TIP3   OH2 9947   0.918   1.551   4.216  0.4498  0.6071  0.1467
 3314TIP3    H1 9948   0.987   1.617   4.225  0.2738  0.7928  0.1602
 3314TIP3    H2 9949   0.954   1.472   4.256  1.6461 -0.0503 -2.0612
 3315TIP3   OH2 9950   4.620   4.083   2.195 -0.4506 -0.2253 -0.2941
 3315TIP3    H1 9951   4.607   4.070   2.101 -3.2369 -1.1767  0.1129
 3315TIP3    H2 9952   4.597   4.175   2.210 -2.6840 -0.7144 -0.2748
 3316TIP3   OH2 9953   2.832   3.979   0.261  0.5954  0.5706  0.0128
 3316TIP3    H1 9954   2.746   3.988   0.219  0.1721 -0.0016  0.7189
 3316TIP3    H2 9955   2.811   3.946   0.348  1.6765 -2.2560 -0.7056
 3317TIP3   OH2 9956   4.582   5.274   2.073 -0.5853  0.2171  0.0972
 3317TIP3    H1 9957   4.626   5.357   2.055  0.4679  0.0044  1.5680
 3317TIP3    H2 9958   4.652   5.214   2.100 -1.6666 -0.2560  2.0727
 3318TIP3   OH2 9959   1.452   3.293   1.017 -0.4514  0.2533  0.3065
 3318TIP3    H1 9960   1.496   3.351   0.955  0.2598 -0.4585  0.1190
 3318TIP3    H2 9961   1.436   3.213   0.967 -2.5387  0.6977  0.1963
 3319TIP3   OH2 9962   6.114   3.928   4.291  0.1731  0.3932  0.2512
 3319TIP3    H1 9963   6.100   4.007   4.239  0.7172  0.8897  0.8491
 3319TIP3    H2 9964   6.029   3.911   4.331 -0.3486 -0.1910 -1.0401
 3320TIP3   OH2 9965   3.762   5.001   1.896 -0.1494  0.0243  0.3816
 3320TIP3    H1 9966   3.746   5.083   1.943 -1.6267  0.5662 -0.9949
 3320TIP3    H2 9967   3.857   4.997   1.886  0.1702  0.2106  2.7790
 3321TIP3   OH2 9968   2.559   1.951   2.680 -0.0415  0.5618 -0.1835
 3321TIP3    H1 9969   2.513   1.885   2.629  0.8667  0.4800 -0.9278
 3321TIP3    H2 9970   2.598   2.009   2.614  1.0253  0.5411  0.4156
 3322TIP3   OH2 9971   5.733   5.253   2.800  0.2844 -0.4829  0.3570
 3322TIP3    H1 9972   5.648   5.228   2.834  1.1732 -1.4660  1.9881
 3322TIP3    H2 9973   5.715   5.328   2.743 -1.5629 -0.1209  1.3277
 3323TIP3   OH2 9974   1.402   5.168   2.971 -0.1773 -0.0587  0.1287
 3323TIP3    H1 9975   1.495   5.147   2.972 -0.3846 -1.1142 -0.5164
 3323TIP3    H2 9976   1.381   5.179   2.878 -0.7333  0.0136  0.2557
 3324TIP3   OH2 9977   5.557   2.256   2.334  0.2143 -0.4009 -0.1983
 3324TIP3    H1 9978   5.494   2.195   2.372  0.0034 -0.0804 -0.0207
 3324TIP3    H2 9979   5.623   2.201   2.292  0.0809 -0.7479  0.0457
 3325TIP3   OH2 9980   3.433   3.272   4.954  0.5602  0.0338  0.1540
 3325TIP3    H1 9981   3.482   3.346   4.989 -0.9446  0.8439  0.6679
 3325TIP3    H2 9982   3.343   3.305   4.945  0.1350 -1.3123 -0.9363
 3326TIP3   OH2 9983   5.539   2.289   4.613 -0.2151 -0.2889 -0.2051
 3326TIP3    H1 9984   5.606   2.224   4.635 -1.4390 -1.6078 -0.1479
 3326TIP3    H2 9985   5.505   2.259   4.528  0.7744  1.6525 -1.3591
 3327TIP3   OH2 9986   2.417   4.002   0.508 -0.1042  0.1730  0.3144
 3327TIP3    H1 9987   2.415   4.041   0.595  3.0426 -2.5932  1.8455
 3327TIP3    H2 9988   2.481   4.055   0.460  0.1717  0.1190  0.6138
 3328TIP3   OH2 9989   1.836   2.194   3.479  0.0004  0.1388  0.7926
 3328TIP3    H1 9990   1.789   2.257   3.425  0.9329  1.0267  0.9832
 3328TIP3    H2 9991   1.840   2.115   3.425 -0.9391  0.3208  0.4381
 3329TIP3   OH2 9992   3.652   5.479   1.722 -0.3655 -0.0708 -0.0370
 3329TIP3    H1 9993   3.737   5.444   1.697  0.9465  2.3781  0.7735
 3329TIP3    H2 9994   3.659   5.573   1.708 -2.8211  0.2547  0.4595
 3330TIP3   OH2 9995   3.489   4.127   1.631 -0.6195  0.1990  0.5840
 3330TIP3    H1 9996   3.525   4.038   1.631 -1.4483 -0.1482  0.4763
 3330TIP3    H2 9997   3.403   4.118   1.589  0.3730  1.4926 -1.9879
 3331TIP3   OH2 9998   1.365   3.001   3.637 -0.6000  0.0937 -0.3047
 3331TIP3    H1 9999   1.286   2.963   3.676  0.6154 -1.7035  0.5814
 3331TIP3    H210000   1.404   3.053   3.708 -0.5211  0.2184 -0.4403
 3332TIP3   OH210001   5.309   0.889   1.431  0.6478 -0.3303  0.2413
 3332TIP3    H110002   5.310   0.978   1.466  0.0830 -0.7488  1.3693
 3332TIP3    H210003   5.217   0.870   1.415  0.6778 -1.0363  0.8682
 3333TIP3   OH210004   4.912   0.114   1.384  0.2877 -0.1328 -0.6939
 3333TIP3    H110005   4.881   0.103   1.473  0.0571  0.3715 -0.7056
 3333TIP3    H210006   4.842   0.080   1.329  0.0294  0.4038 -0.7032
 3334TIP3   OH210007   5.752   4.162   3.113 -0.0119 -0.1748  0.1609
 3334TIP3    H110008   5.755   4.133   3.021  0.2349 -0.6874  0.3236
 3334TIP3    H210009   5.838   4.198   3.129 -0.6064  1.5241 -0.3026
 3335TIP3   OH210010   3.482   1.992   3.245  0.1428  0.3941 -0.5760
 3335TIP3    H110011   3.391   2.009   3.267 -0.1781 -0.3497 -1.2775
 3335TIP3    H210012   3.500   2.051   3.172 -0.0671 -0.1479 -1.0646
 3336TIP3   OH210013   3.790   2.100   3.153  0.4033 -0.5942  0.5652
 3336TIP3    H110014   3.775   2.079   3.245  0.3291 -0.0754  0.6724
 3336TIP3    H210015   3.809   2.016   3.112  0.7985 -0.7811  1.1258
 3337TIP3   OH210016   2.248   4.806   0.617 -0.0262  0.4409  0.1278
 3337TIP3    H110017   2.285   4.889   0.587  1.6947 -0.0337  0.7913
 3337TIP3    H210018   2.315   4.770   0.675 -1.3929 -0.6991  1.0738
 3338TIP3   OH210019   4.736   3.153   1.819 -0.1027 -0.9092  0.1754
 3338TIP3    H110020   4.716   3.143   1.726  1.0165 -1.0105 -0.0737
 3338TIP3    H210021   4.691   3.233   1.845  0.7836 -0.0497 -0.8406
 3339TIP3   OH210022   4.313   4.119   0.122 -0.0487  0.8870 -0.0240
 3339TIP3    H110023   4.358   4.036   0.130 -2.1496 -0.2999  0.3288
 3339TIP3    H210024   4.301   4.149   0.212  1.0123  1.8023 -0.1583
 3340TIP3   OH210025   6.125   5.213   0.213  0.0659  0.1325  0.2845
 3340TIP3    H110026   6.160   5.297   0.184 -0.2701  0.2402  0.1967
 3340TIP3    H210027   6.141   5.154   0.140 -2.3036  0.7871 -0.8571
 3341TIP3   OH210028   0.347   0.191   3.109  0.0815 -0.2554 -0.0051
 3341TIP3    H110029   0.387   0.229   3.030 -0.9073 -1.6745 -1.2688
 3341TIP3    H210030   0.394   0.108   3.121  0.1091 -0.1230  0.7984
 3342TIP3   OH210031   3.185   1.883   2.969 -0.3395  0.0077  0.0780
 3342TIP3    H110032   3.157   1.873   3.060 -3.5937  2.1713 -0.5159
 3342TIP3    H210033   3.130   1.822   2.920  0.9726 -0.7101 -0.5584
 3343TIP3   OH210034   4.977   3.561   1.628 -0.2306 -0.0153  0.2093
 3343TIP3    H110035   4.965   3.467   1.613  0.3488  0.0816 -0.9208
 3343TIP3    H210036   4.947   3.574   1.718  1.0288 -1.5304  0.8953
 3344TIP3   OH210037   3.380   4.908   4.673 -0.3010  0.5806 -0.3091
 3344TIP3    H110038   3.441   4.892   4.745 -0.2841  0.2805 -0.3907
 3344TIP3    H210039   3.342   4.823   4.655 -2.4275  1.1134  1.2405
 3345TIP3   OH210040   1.936   0.229   2.492 -0.1601  0.0113  0.3532
 3345TIP3    H110041   1.876   0.299   2.517 -0.4301 -0.5731  1.3819
 3345TIP3    H210042   1.923   0.219   2.397 -0.4086  1.0617  0.2674
 3346TIP3   OH210043   5.097   0.832   4.682  0.2954 -0.0627  0.0360
 3346TIP3    H110044   5.129   0.834   4.592 -0.7086  0.5229 -0.3249
 3346TIP3    H210045   5.155   0.771   4.727  1.3601  0.3133 -0.7923
 3347TIP3   OH210046   2.119   1.339   3.216  0.6055 -0.1752 -0.0348
 3347TIP3    H110047   2.133   1.419   3.166  1.3941  0.3716  1.0146
 3347TIP3    H210048   2.150   1.360   3.304  2.2038 -2.0950 -0.0734
 3348TIP3   OH210049   6.165   3.219   3.189  0.1275 -0.5195  0.1622
 3348TIP3    H110050   6.186   3.288   3.127 -0.8476 -1.4190 -1.2397
 3348TIP3    H210051   6.202   3.248   3.272  0.6074  1.1879 -0.6179
 3349TIP3   OH210052   6.086   1.054   4.363 -0.3346  0.0252 -0.0064
 3349TIP3    H110053   6.128   1.108   4.430 -0.1323  0.6281 -0.6092
 3349TIP3    H210054   6.011   1.107   4.333 -2.1061 -1.3864  1.6704
 3350TIP3   OH210055   4.764   0.710   2.957  0.2271  0.1858  0.2895
 3350TIP3    H110056   4.754   0.620   2.987  0.1025  0.5151  1.2846
 3350TIP3    H210057   4.815   0.703   2.876 -1.0983 -0.8876 -0.5052
 3351TIP3   OH210058   2.582   4.480   4.519 -0.0267  0.3029  0.3124
 3351TIP3    H110059   2.541   4.486   4.433 -3.5943  0.4361  1.8431
 3351TIP3    H210060   2.676   4.481   4.501 -0.5433  3.1937 -3.3570
 3352TIP3   OH210061   3.453   0.785   5.054 -0.0879  0.3826  0.1511
 3352TIP3    H110062   3.491   0.699   5.037 -0.6648 -0.0127  0.8166
 3352TIP3    H210063   3.427   0.782   5.146  1.5995  1.9300  0.7488
 3353TIP3   OH210064   2.228   5.032   5.012 -0.2334  0.0554 -0.2557
 3353TIP3    H110065   2.160   5.075   5.065 -0.8731 -0.0965 -0.9346
 3353TIP3    H210066   2.214   5.067   4.924 -1.9997 -2.8775 -1.2654
 3354TIP3   OH210067   3.098   5.900   1.030 -0.3459 -0.3434 -0.9417
 3354TIP3    H110068   3.097   5.894   0.934  1.3326  0.4985 -1.0465
 3354TIP3    H210069   3.117   5.811   1.059  2.5116 -0.0286 -1.5700
 3355TIP3   OH210070   0.644   4.179   0.940  0.0853  0.2086  0.4314
 3355TIP3    H110071   0.584   4.154   0.869 -0.8779 -0.1456  1.3456
 3355TIP3    H210072   0.723   4.210   0.895 -0.1850 -0.7766 -0.7909
 3356TIP3   OH210073   5.145   4.499   1.327 -0.0175 -0.0475 -0.0233
 3356TIP3    H110074   5.192   4.530   1.404 -0.1729 -0.7515  0.3552
 3356TIP3    H210075   5.171   4.559   1.257 -0.3942  1.0111  0.7222
 3357TIP3   OH210076   2.570   3.867   1.920 -0.6330 -0.1152 -0.0519
 3357TIP3    H110077   2.658   3.841   1.895 -0.6122 -0.2167  0.1230
 3357TIP3    H210078   2.583   3.926   1.995 -0.5306  2.3330 -1.8905
 3358TIP3   OH210079   1.005   5.367   2.916  0.3400 -0.2464  0.2344
 3358TIP3    H110080   1.083   5.312   2.932  0.0161 -1.2022 -1.2738
 3358TIP3    H210081   0.938   5.305   2.887 -0.7657  0.6710  0.7625
 3359TIP3   OH210082   2.267   1.125   2.039 -0.4008 -0.5848 -0.3812
 3359TIP3    H110083   2.181   1.155   2.069  0.1346  0.6690 -0.0376
 3359TIP3    H210084   2.307   1.203   2.001  1.7715 -0.2831  2.1921
 3360TIP3   OH210085   2.748   4.348   3.682  1.0289 -0.0785 -0.0932
 3360TIP3    H110086   2.788   4.306   3.606  1.8626  0.2741  0.1425
 3360TIP3    H210087   2.812   4.413   3.710 -0.2633  1.4118 -0.4927
 3361TIP3   OH210088   0.779   4.750   4.495  0.1839  0.2379  0.3590
 3361TIP3    H110089   0.749   4.781   4.581  1.4426  0.3212  0.7895
 3361TIP3    H210090   0.833   4.821   4.461 -1.2353  0.7024 -1.0513
 3362TIP3   OH210091   1.968   2.378   4.281 -0.1275 -0.3751  0.1758
 3362TIP3    H110092   1.909   2.328   4.337 -1.6980  1.3386  0.1250
 3362TIP3    H210093   1.987   2.458   4.331 -0.8752  0.8080 -1.3438
 3363TIP3   OH210094   0.156   3.481   4.568 -0.2960 -0.2786  0.3556
 3363TIP3    H110095   0.230   3.522   4.523 -0.8212 -0.9874 -1.2186
 3363TIP3    H210096   0.100   3.554   4.593  0.2522  0.1646  0.3095
 3364TIP3   OH210097   5.719   0.644   3.332  0.0981 -0.5030 -0.3582
 3364TIP3    H110098   5.713   0.665   3.239  0.2204 -0.8570 -0.4457
 3364TIP3    H210099   5.633   0.668   3.368  0.8798  2.2438 -0.0229
 3365TIP3   OH210100   2.028   2.602   0.573  0.4776 -0.1377 -0.9449
 3365TIP3    H110101   1.959   2.603   0.639  0.6265  0.4749 -0.7897
 3365TIP3    H210102   2.017   2.684   0.526  0.4198 -0.5411 -1.6392
 3366TIP3   OH210103   5.458   2.351   0.033  0.2054 -0.1292  0.1221
 3366TIP3    H110104   5.527   2.416   0.042  1.3043 -1.1119 -0.7271
 3366TIP3    H210105   5.481   2.283   0.097 -1.1336  0.4545  1.2644
 3367TIP3   OH210106   4.228   2.675   0.304 -0.0339 -0.0774 -0.0342
 3367TIP3    H110107   4.190   2.716   0.382  1.1115 -1.5853  1.3997
 3367TIP3    H210108   4.153   2.644   0.254 -0.8443  1.9561 -0.1679
 3368TIP3   OH210109   4.906   5.264   4.140 -0.0775 -0.0576 -0.0749
 3368TIP3    H110110   4.966   5.209   4.091  3.4526  1.4036  2.2360
 3368TIP3    H210111   4.898   5.344   4.087 -1.4954 -0.8844 -1.1932
 3369TIP3   OH210112   3.824   3.974   1.869  0.3324 -0.1360 -0.0572
 3369TIP3    H110113   3.903   4.025   1.855 -0.5906  1.1109 -0.9184
 3369TIP3    H210114   3.803   3.939   1.783  2.0979 -3.8696  0.8113
 3370TIP3   OH210115   1.052   3.432   0.540 -0.1178 -0.6795  0.1198
 3370TIP3    H110116   1.126   3.471   0.587 -0.3082  1.3853 -1.1906
 3370TIP3    H210117   1.017   3.368   0.601  2.3723 -1.3201  1.0143
 3371TIP3   OH210118   1.533   2.757   3.728 -0.5231  0.7701 -0.3881
 3371TIP3    H110119   1.464   2.691   3.720 -0.1285  0.3017 -0.0580
 3371TIP3    H210120   1.505   2.829   3.673 -0.3536 -0.1986 -1.7797
 3372TIP3   OH210121   6.074   5.626   4.940  0.0150 -0.1255 -0.1590
 3372TIP3    H110122   6.114   5.697   4.890  0.6408 -1.9993 -2.5367
 3372TIP3    H210123   5.980   5.646   4.939 -0.0068 -0.0528 -2.1867
 3373TIP3   OH210124   1.113   2.269   0.370 -0.3248  0.1301 -0.1303
 3373TIP3    H110125   1.169   2.192   0.364 -1.4659 -0.6901 -0.6742
 3373TIP3    H210126   1.151   2.331   0.308  0.3784 -0.1385  0.0261
 3374TIP3   OH210127   0.049   2.311   0.979 -0.0248 -0.1237 -0.1267
 3374TIP3    H110128  -0.026   2.252   0.974  0.0618 -0.3414  0.8126
 3374TIP3    H210129   0.088   2.309   0.892 -0.2555 -1.1521 -0.2168
 3375TIP3   OH210130   2.557   5.343   2.669  0.5083  0.5371 -0.0181
 3375TIP3    H110131   2.525   5.285   2.737  0.1576  1.5722  0.7366
 3375TIP3    H210132   2.480   5.395   2.644  0.9705  1.1783 -0.1376
 3376TIP3   OH210133   5.024   3.102   1.725  0.3771  0.2999  0.3574
 3376TIP3    H110134   5.062   3.020   1.692 -2.2238 -0.2261 -1.6569
 3376TIP3    H210135   4.941   3.075   1.764  0.6254  1.7312  1.9671
 3377TIP3   OH210136   4.148   3.937   0.638  0.3268 -0.6725  0.1655
 3377TIP3    H110137   4.235   3.944   0.676  0.6192 -0.9063 -0.4446
 3377TIP3    H210138   4.091   3.916   0.712  0.4390  1.4991  0.9270
 3378TIP3   OH210139   5.343   3.921   0.095  0.3676 -0.2544  0.5081
 3378TIP3    H110140   5.437   3.909   0.109  0.4354  1.0674  1.3435
 3378TIP3    H210141   5.336   4.004   0.047 -0.2889 -1.3297 -1.3791
 3379TIP3   OH210142   5.311   4.477   3.372  0.0346  0.0434 -0.1336
 3379TIP3    H110143   5.376   4.482   3.302 -0.1170 -1.0818 -0.3682
 3379TIP3    H210144   5.302   4.568   3.403  1.0378  0.3494 -0.7052
 3380TIP3   OH210145   0.391   4.758   2.981 -0.3189 -0.5868  0.0791
 3380TIP3    H110146   0.306   4.719   2.998 -1.0391  0.7595 -0.3091
 3380TIP3    H210147   0.426   4.779   3.067 -1.0492  0.2094  0.1935
 3381TIP3   OH210148   3.741   0.924   4.109 -0.3795 -0.1152 -0.0083
 3381TIP3    H110149   3.795   0.872   4.049  2.3152  1.9148  0.4746
 3381TIP3    H210150   3.710   0.998   4.057 -1.1541 -0.2792  0.2046
 3382TIP3   OH210151   2.788   0.474   4.315 -0.6162 -0.7017  0.2929
 3382TIP3    H110152   2.747   0.403   4.266  1.1624 -1.3879 -0.2845
 3382TIP3    H210153   2.728   0.548   4.305 -1.6034 -1.5957 -0.6460
 3383TIP3   OH210154   0.483   1.410   3.156 -0.0141 -0.0132 -0.2006
 3383TIP3    H110155   0.528   1.465   3.092 -0.4824  0.7307  0.1048
 3383TIP3    H210156   0.394   1.402   3.123  0.2219 -1.1691 -0.6013
 3384TIP3   OH210157   1.250   1.438   4.746  0.2820  0.0463  0.1993
 3384TIP3    H110158   1.330   1.450   4.694 -1.0938  0.1892 -2.0008
 3384TIP3    H210159   1.267   1.486   4.827  1.7806  1.5695 -0.9393
 3385TIP3   OH210160   3.632   1.938   2.656  0.3208  0.2488  0.1548
 3385TIP3    H110161   3.645   2.031   2.638  1.5869 -0.3176 -2.3917
 3385TIP3    H210162   3.538   1.929   2.673  0.0951  1.9046 -0.1087
 3386TIP3   OH210163   4.600   2.690   3.300  0.2735 -0.1301 -0.0979
 3386TIP3    H110164   4.656   2.615   3.277  0.2905 -0.3957  0.7607
 3386TIP3    H210165   4.643   2.729   3.376 -0.0066  0.4624 -0.2377
 3387TIP3   OH210166   3.142   1.142   0.896  0.3228 -0.5769  0.3899
 3387TIP3    H110167   3.187   1.100   0.969  0.5375 -0.1386  0.5115
 3387TIP3    H210168   3.059   1.173   0.933  1.4986  1.9697  1.1611
 3388TIP3   OH210169   5.423   1.662   3.137 -0.7021  0.2115 -0.5165
 3388TIP3    H110170   5.360   1.604   3.179  0.6555 -1.7239 -1.0261
 3388TIP3    H210171   5.471   1.606   3.076  1.1753  1.6998 -0.5153
 3389TIP3   OH210172   5.602   1.832   2.748 -0.1790 -1.0793  0.3618
 3389TIP3    H110173   5.634   1.782   2.672  0.3048 -0.4986  0.1797
 3389TIP3    H210174   5.508   1.843   2.731 -0.1177 -1.1489 -0.0380
 3390TIP3   OH210175   5.852   1.311   4.566 -0.1474 -0.2302 -0.4751
 3390TIP3    H110176   5.758   1.311   4.583  0.0081  1.2952  0.4983
 3390TIP3    H210177   5.888   1.249   4.629 -0.6202 -2.0384 -1.8852
 3391TIP3   OH210178   6.193   4.081   1.605  0.2168  0.3882  0.2047
 3391TIP3    H110179   6.182   3.995   1.645 -1.1486  0.3284 -0.2347
 3391TIP3    H210180   6.276   4.075   1.558  0.8972 -0.1596  1.4293
 3392TIP3   OH210181   0.816   5.100   4.237 -0.1498  0.8243  0.0825
 3392TIP3    H110182   0.857   5.031   4.288  0.5445  0.2285 -1.2530
 3392TIP3    H210183   0.769   5.055   4.167 -0.6277  1.6549 -0.1588
 3393TIP3   OH210184   0.250   3.200   2.579  0.3800  0.3633 -0.0654
 3393TIP3    H110185   0.328   3.167   2.622 -2.2909 -3.2052  2.6797
 3393TIP3    H210186   0.244   3.150   2.497  0.7009  0.3323 -0.0702
 3394TIP3   OH210187   2.084   3.589   0.463 -0.3486  0.0048  0.0015
 3394TIP3    H110188   2.014   3.525   0.472 -0.1491 -0.0007  2.0140
 3394TIP3    H210189   2.143   3.552   0.397 -0.0930 -2.0733  1.3112
 3395TIP3   OH210190   4.706   3.974   4.077  0.1853  0.3200 -0.2742
 3395TIP3    H110191   4.652   4.027   4.019  0.6262  0.3419 -0.6651
 3395TIP3    H210192   4.755   3.916   4.019 -0.0931 -0.3410  0.1288
 3396TIP3   OH210193   3.963   4.722   1.226 -0.7543 -0.2276 -0.2908
 3396TIP3    H110194   4.025   4.679   1.285  0.0371  0.9041 -0.2773
 3396TIP3    H210195   4.007   4.801   1.197 -1.2575 -0.5764 -2.1679
 3397TIP3   OH210196   6.319   3.078   4.411 -0.2097  0.0471  0.5007
 3397TIP3    H110197   6.257   3.010   4.384  1.3614 -1.0265 -0.5865
 3397TIP3    H210198   6.359   3.043   4.491 -1.3187  0.9733  1.4973
 3398TIP3   OH210199   3.715   5.566   2.763 -0.1266  0.0795  0.1254
 3398TIP3    H110200   3.666   5.616   2.829  0.9711  0.7806  0.4351
 3398TIP3    H210201   3.690   5.475   2.780  0.6416  0.1740  1.9835
 3399TIP3   OH210202   0.395   1.232   4.099 -0.0951  0.1118  0.5700
 3399TIP3    H110203   0.331   1.188   4.044 -0.2247 -2.1318  2.3640
 3399TIP3    H210204   0.456   1.163   4.126  0.7720  1.3905  2.0822
 3400TIP3   OH210205   1.153   0.140   4.565  0.0762 -0.0572 -0.6394
 3400TIP3    H110206   1.240   0.178   4.579 -0.0030  0.0774 -0.5116
 3400TIP3    H210207   1.092   0.208   4.594 -0.0858  0.1541 -1.4599
 3401TIP3   OH210208   1.935   3.862   4.695 -0.3279 -0.6082 -0.1996
 3401TIP3    H110209   1.847   3.894   4.673 -0.3542  0.0329  0.7860
 3401TIP3    H210210   1.994   3.928   4.658 -0.2780 -0.8099 -0.4801
 3402TIP3   OH210211   4.270   3.696   1.597 -0.1280  0.1875 -0.2371
 3402TIP3    H110212   4.249   3.751   1.521 -1.2826  0.0630 -0.0322
 3402TIP3    H210213   4.268   3.606   1.563 -1.3333  0.0818  0.0564
 3403TIP3   OH210214   0.964   0.890   0.527  0.0905 -0.4853 -0.1005
 3403TIP3    H110215   1.031   0.954   0.553  0.6986 -0.1196 -2.3999
 3403TIP3    H210216   0.893   0.943   0.490 -0.5707 -1.0073  0.3938
 3404TIP3   OH210217   5.709   1.107   2.555 -0.1587  0.0468  0.1297
 3404TIP3    H110218   5.684   1.116   2.647 -3.2756 -1.6373 -0.4391
 3404TIP3    H210219   5.751   1.021   2.550  0.2616  0.2543 -0.0092
 3405TIP3   OH210220   2.352   2.247   0.472  0.4210  0.0306  0.7131
 3405TIP3    H110221   2.344   2.156   0.443 -0.3543 -0.9119  3.5297
 3405TIP3    H210222   2.420   2.284   0.415  0.4979 -2.1691 -0.7797
 3406TIP3   OH210223   0.134   4.312   2.726  0.4293 -0.3472  0.3730
 3406TIP3    H110224   0.172   4.242   2.671 -0.7515 -1.5380  1.0091
 3406TIP3    H210225   0.207   4.372   2.741  1.1932 -0.8003 -1.1890
 3407TIP3   OH210226   6.226   0.167   0.610  0.0986  0.6058  0.1054
 3407TIP3    H110227   6.236   0.073   0.596 -0.1362  0.1279  2.6928
 3407TIP3    H210228   6.216   0.177   0.705  1.0705  3.3422  0.0162
 3408TIP3   OH210229   1.679   4.170   2.787 -0.2492  0.0603  0.2331
 3408TIP3    H110230   1.716   4.206   2.868 -1.1954 -0.6422  0.9974
 3408TIP3    H210231   1.747   4.111   2.755 -0.4468 -0.7820  1.3121
 3409TIP3   OH210232   2.705   0.766   0.142 -0.1716 -0.0286 -0.1042
 3409TIP3    H110233   2.700   0.853   0.180 -1.1507  0.4503 -1.2832
 3409TIP3    H210234   2.799   0.748   0.134  0.0406  0.3954  1.2750
 3410TIP3   OH210235   2.166   4.380   3.525 -0.2374 -0.5055 -0.4162
 3410TIP3    H110236   2.230   4.444   3.556  0.8676 -1.5013 -0.5600
 3410TIP3    H210237   2.135   4.414   3.441 -2.1499  1.4741  0.9902
 3411TIP3   OH210238   4.376   4.008   0.794  0.4063 -0.2207 -0.7212
 3411TIP3    H110239   4.313   4.068   0.834  0.4821  0.3001 -1.3665
 3411TIP3    H210240   4.453   4.061   0.776  1.3896 -1.0460  0.8389
 3412TIP3   OH210241   4.128   4.490   0.315  0.4235 -0.0518 -0.2330
 3412TIP3    H110242   4.210   4.526   0.350  0.6876 -0.0506 -0.8393
 3412TIP3    H210243   4.096   4.431   0.383  1.2669 -0.5510 -0.2572
 3413TIP3   OH210244   5.747   4.626   0.196 -0.7413 -0.0139  0.1089
 3413TIP3    H110245   5.751   4.556   0.131  2.1210 -0.1588  0.3413
 3413TIP3    H210246   5.706   4.700   0.150 -1.3941 -0.9923 -0.9335
 3414TIP3   OH210247   3.349   2.399   3.216  0.2118 -0.1917  0.4620
 3414TIP3    H110248   3.435   2.408   3.257  0.5757 -0.1732 -0.2869
 3414TIP3    H210249   3.367   2.357   3.131 -0.5367 -0.3670  0.3804
 3415TIP3   OH210250   2.893   1.525   3.951 -0.0163 -0.3622  0.2068
 3415TIP3    H110251   2.907   1.600   3.893  0.6947 -1.1492 -0.6608
 3415TIP3    H210252   2.805   1.494   3.930 -1.4072  1.7511  2.3857
 3416TIP3   OH210253   4.622   0.815   0.953 -0.0885  0.2740  0.1771
 3416TIP3    H110254   4.715   0.794   0.965 -0.4279 -1.6902 -0.3356
 3416TIP3    H210255   4.621   0.908   0.932  1.8240  0.1902 -0.4689
 3417TIP3   OH210256   2.899   4.366   0.810  0.3246 -0.0229 -0.8586
 3417TIP3    H110257   2.859   4.364   0.723  0.5506  0.5969 -0.9801
 3417TIP3    H210258   2.925   4.457   0.823 -0.1268 -0.0142  0.0573
 3418TIP3   OH210259   5.738   5.782   0.570  0.1309  0.5782 -0.6266
 3418TIP3    H110260   5.661   5.740   0.531  1.0610 -0.8509 -0.9903
 3418TIP3    H210261   5.763   5.849   0.507 -1.0934  1.4062 -0.2683
 3419TIP3   OH210262   0.150   0.084   1.634  0.5915  0.1998 -0.1816
 3419TIP3    H110263   0.103   0.059   1.714 -0.1767  1.4665 -0.1991
 3419TIP3    H210264   0.174   0.176   1.649  1.5206  0.0863 -0.9126
 3420TIP3   OH210265   4.912   0.827   4.122 -0.2374  0.1468 -0.0039
 3420TIP3    H110266   4.843   0.765   4.097  0.7207 -1.2248  0.5831
 3420TIP3    H210267   4.876   0.873   4.198 -1.3508  1.0577 -1.0453
 3421TIP3   OH210268   3.833   3.295   4.556 -0.6982 -0.0398  0.1101
 3421TIP3    H110269   3.886   3.264   4.630 -0.7826  1.3259  0.7706
 3421TIP3    H210270   3.745   3.264   4.577 -0.7342  0.3981  0.6213
 3422TIP3   OH210271   6.117   4.968   0.956  0.1861  0.9060  0.2292
 3422TIP3    H110272   6.166   5.049   0.941  1.9242  0.0013  0.8095
 3422TIP3    H210273   6.142   4.911   0.883  1.0286 -0.0288  1.2266
 3423TIP3   OH210274   3.182   5.402   3.312  0.0016 -0.5161 -0.2300
 3423TIP3    H110275   3.095   5.441   3.305  1.3791  2.6568 -0.9762
 3423TIP3    H210276   3.228   5.457   3.376  1.7374 -1.6207 -0.4703
 3424TIP3   OH210277   3.331   5.940   1.630  0.0703  0.2897 -0.3443
 3424TIP3    H110278   3.239   5.916   1.626 -0.4901  2.3096 -0.2369
 3424TIP3    H210279   3.332   6.028   1.668  2.0180  0.4338 -0.6228
 3425TIP3   OH210280   6.248   1.136   2.817 -0.1114  1.4734 -0.0147
 3425TIP3    H110281   6.287   1.051   2.836 -0.6926  1.3148  0.5208
 3425TIP3    H210282   6.250   1.183   2.900  0.5811  2.1514 -0.4010
 3426TIP3   OH210283   1.828   1.302   4.403  0.0683  0.1797 -0.3890
 3426TIP3    H110284   1.860   1.212   4.411 -2.5634 -0.8637 -0.2715
 3426TIP3    H210285   1.841   1.323   4.310 -0.2653 -0.7808 -0.6745
 3427TIP3   OH210286   5.863   0.709   2.161 -0.2235 -0.5368 -0.1826
 3427TIP3    H110287   5.905   0.746   2.239 -0.5498  1.8074 -1.0293
 3427TIP3    H210288   5.769   0.718   2.178 -0.2953  0.4789 -1.0271
 3428TIP3   OH210289   5.893   0.470   2.016  0.7993 -0.1321  0.1731
 3428TIP3    H110290   5.866   0.545   2.070  1.9541  0.5693 -0.1985
 3428TIP3    H210291   5.935   0.509   1.940  0.8908 -1.1559 -0.3116
 3429TIP3   OH210292   2.653   0.949   1.638  0.1383  0.0668  0.5181
 3429TIP3    H110293   2.658   0.898   1.718 -0.1644 -0.8051 -0.0055
 3429TIP3    H210294   2.676   1.038   1.665  0.0788 -0.2186  1.5552
 3430TIP3   OH210295   2.213   1.474   0.083  0.2884 -0.0525  0.5398
 3430TIP3    H110296   2.138   1.423   0.114 -0.7496  0.0513 -1.6495
 3430TIP3    H210297   2.273   1.477   0.158 -2.3814  0.8558  2.7831
 3431TIP3   OH210298   5.900   5.962   3.146  0.3916  0.5126 -0.1634
 3431TIP3    H110299   5.956   5.969   3.070  0.7246  1.3046  0.1381
 3431TIP3    H210300   5.818   5.925   3.113  1.7553 -2.7727 -0.2444
 3432TIP3   OH210301   2.761   5.223   2.496 -0.0680 -0.8640 -0.6271
 3432TIP3    H110302   2.689   5.254   2.550  0.8942  0.1343  0.1266
 3432TIP3    H210303   2.770   5.289   2.427  0.3240 -0.8337 -0.5463
 3433TIP3   OH210304   2.777   0.541   1.746 -0.6567 -0.1566 -0.1484
 3433TIP3    H110305   2.738   0.509   1.664 -1.0119 -4.4676  1.4619
 3433TIP3    H210306   2.703   0.567   1.799 -0.8941 -1.8926  0.4357
 3434TIP3   OH210307   1.756   3.765  -0.033 -0.2135 -0.5427  0.6599
 3434TIP3    H110308   1.831   3.809   0.007  0.1982 -1.3393  0.7850
 3434TIP3    H210309   1.722   3.708   0.036 -0.6593 -0.5217  0.4615
 3435TIP3   OH210310   3.026   2.603   2.899  0.0425 -0.1777  0.0227
 3435TIP3    H110311   2.947   2.568   2.858 -0.6518  2.7313 -1.3486
 3435TIP3    H210312   2.999   2.629   2.987  0.9270 -4.0902  1.6682
 3436TIP3   OH210313   2.171   0.419   2.879  0.2338 -0.1248  0.0854
 3436TIP3    H110314   2.255   0.394   2.919 -0.7160 -2.1631  0.9644
 3436TIP3    H210315   2.175   0.382   2.791  0.1449 -0.4756  0.2282
 3437TIP3   OH210316   5.900   1.604   1.470  0.3859 -0.5744  0.3581
 3437TIP3    H110317   5.954   1.676   1.505  3.1182 -1.4014 -1.7818
 3437TIP3    H210318   5.883   1.630   1.380  2.5057 -3.0312 -0.8688
 3438TIP3   OH210319   6.205   4.677   2.373 -0.1309  0.4801 -0.4110
 3438TIP3    H110320   6.268   4.680   2.301  1.3203  0.9033  0.8213
 3438TIP3    H210321   6.247   4.623   2.440 -1.1461  0.6383  0.3785
 3439TIP3   OH210322   1.606   1.947   0.676  0.0790 -0.3456 -0.2879
 3439TIP3    H110323   1.642   2.035   0.667 -0.5727 -0.0585 -0.0808
 3439TIP3    H210324   1.519   1.959   0.714  0.3980 -1.1502  0.7421
 3440TIP3   OH210325   5.129   1.429   0.077 -0.2481  0.1267 -0.3575
 3440TIP3    H110326   5.143   1.391  -0.009  0.6965  0.0013 -0.1602
 3440TIP3    H210327   5.126   1.523   0.062  0.1999  0.1193 -0.4869
 3441TIP3   OH210328   2.383   3.213   1.719 -0.3475  0.2167  0.6051
 3441TIP3    H110329   2.448   3.194   1.652 -1.0191 -1.2738  0.3481
 3441TIP3    H210330   2.344   3.296   1.691  1.2830  1.0592  0.6755
 3442TIP3   OH210331   4.003   3.956   0.866  0.0942  0.2894 -0.1912
 3442TIP3    H110332   3.935   4.023   0.868  1.2920  1.5398 -0.2356
 3442TIP3    H210333   4.036   3.951   0.955  0.8527  0.6556 -0.4454
 3443TIP3   OH210334   1.607   1.322   4.679 -0.1912  0.5363  0.0491
 3443TIP3    H110335   1.575   1.295   4.765 -1.2758  0.0214 -0.4881
 3443TIP3    H210336   1.597   1.417   4.678  1.0184  0.7074  0.9314
 3444TIP3   OH210337   3.641   3.358   0.923  0.2226 -0.3213 -0.1397
 3444TIP3    H110338   3.624   3.390   0.834 -1.1085 -1.6857 -0.4153
 3444TIP3    H210339   3.560   3.374   0.970  0.6680 -0.2975  0.6412
 3445TIP3   OH210340   6.217   3.095   0.547  0.3342  0.2546  0.2847
 3445TIP3    H110341   6.283   3.083   0.615  0.5690  1.7939  0.3790
 3445TIP3    H210342   6.148   3.033   0.569 -0.0452  1.3600  2.5279
 3446TIP3   OH210343   4.944   1.200   2.056  0.2785 -0.4137 -0.2973
 3446TIP3    H110344   4.856   1.204   2.094  0.2925 -0.8158 -0.2134
 3446TIP3    H210345   5.002   1.233   2.125 -0.0333  2.2461 -1.2091
 3447TIP3   OH210346   0.281   3.427   2.272  0.1226 -0.3158 -0.0522
 3447TIP3    H110347   0.287   3.335   2.298 -0.5731 -0.2830  0.2339
 3447TIP3    H210348   0.207   3.462   2.321  1.2444  0.7788  0.9302
 3448TIP3   OH210349   3.369   4.637   0.566  0.0140  0.1996 -0.2964
 3448TIP3    H110350   3.312   4.660   0.493 -1.7292 -0.4017  0.8080
 3448TIP3    H210351   3.447   4.599   0.525 -0.5143  0.7267 -1.8546
 3449TIP3   OH210352   2.325   4.021   3.968  0.2260 -0.0025  0.0210
 3449TIP3    H110353   2.373   4.090   3.923  0.4097 -0.8296 -1.1132
 3449TIP3    H210354   2.272   3.980   3.899 -1.6361  0.4747  1.1071
 3450TIP3   OH210355   3.680   5.000   0.373  0.1396  0.4743 -0.0955
 3450TIP3    H110356   3.755   4.996   0.313 -0.2258 -0.8019 -0.5067
 3450TIP3    H210357   3.707   4.946   0.448 -0.6565 -0.6872 -0.6140
 3451TIP3   OH210358   2.401   5.698   0.533  0.3223 -0.2133 -0.2254
 3451TIP3    H110359   2.478   5.676   0.480 -1.6301 -1.2305 -2.8964
 3451TIP3    H210360   2.338   5.734   0.470 -2.3039 -1.7688  1.3209
 3452TIP3   OH210361   3.743   5.277   4.352 -0.1092  0.2424 -0.0621
 3452TIP3    H110362   3.691   5.208   4.393  0.1421  0.0668 -0.0356
 3452TIP3    H210363   3.818   5.231   4.315  0.7404  0.6541  1.0980
 3453TIP3   OH210364   1.683   2.056   5.133 -0.1102  0.2810 -0.2535
 3453TIP3    H110365   1.627   1.978   5.132  0.7853 -0.3749 -1.2044
 3453TIP3    H210366   1.722   2.059   5.046  0.0255  1.6981 -0.1668
 3454TIP3   OH210367   0.059   3.284   1.620  0.0193  0.5175  0.0303
 3454TIP3    H110368   0.123   3.345   1.657 -0.3465  1.2874 -0.5861
 3454TIP3    H210369  -0.025   3.327   1.631 -0.5595 -0.9206  1.7476
 3455TIP3   OH210370   2.484   5.598   0.778 -0.1403  0.3967 -0.2313
 3455TIP3    H110371   2.442   5.627   0.697 -0.4291  2.6532  0.6598
 3455TIP3    H210372   2.411   5.574   0.835  0.0544 -0.9453 -0.5084
 3456TIP3   OH210373   5.599   0.729   4.843 -0.3310  0.0354 -0.6508
 3456TIP3    H110374   5.660   0.779   4.897  0.1318 -0.6245 -0.5483
 3456TIP3    H210375   5.643   0.721   4.759 -0.2455 -0.4952 -0.5581
 3457TIP3   OH210376   6.242   5.059   3.894 -0.5529  0.0447 -0.2236
 3457TIP3    H110377   6.288   4.977   3.913 -1.4148 -0.4250 -0.1522
 3457TIP3    H210378   6.173   5.035   3.833  1.5903  1.3579 -3.4950
 3458TIP3   OH210379   1.751   0.183   5.073  0.0331  0.8126  0.2180
 3458TIP3    H110380   1.779   0.167   5.163  0.6938  0.2117 -0.0805
 3458TIP3    H210381   1.776   0.274   5.056 -1.1097  1.2859  0.9932
 3459TIP3   OH210382   5.983   2.323   4.254 -0.3024  0.5061 -0.0012
 3459TIP3    H110383   6.031   2.325   4.337  0.1694 -0.8366 -0.2130
 3459TIP3    H210384   6.050   2.340   4.188 -0.6081  1.1914 -0.1450
 3460TIP3   OH210385   2.098   5.671   3.679  0.1266 -0.3470 -0.1633
 3460TIP3    H110386   2.055   5.671   3.764 -0.5401  3.0580 -0.3881
 3460TIP3    H210387   2.150   5.751   3.677  2.3060 -1.6586 -1.9893
 3461TIP3   OH210388   3.728   0.108   2.543  0.1253  0.0109  0.3200
 3461TIP3    H110389   3.705   0.199   2.527 -0.6790 -0.0427  1.1270
 3461TIP3    H210390   3.675   0.082   2.617  0.8297 -0.9310  0.5163
 3462TIP3   OH210391   5.086   5.474   1.393 -0.4983 -0.3026  0.6450
 3462TIP3    H110392   5.069   5.379   1.390 -2.5650 -0.0432  2.0655
 3462TIP3    H210393   5.138   5.486   1.473 -2.7292  0.0177  2.1227
 3463TIP3   OH210394   0.417   2.126   4.238 -0.3836 -0.2155 -0.3520
 3463TIP3    H110395   0.469   2.092   4.311 -0.9304 -0.3079 -0.0013
 3463TIP3    H210396   0.388   2.213   4.268  0.3088  0.2203 -0.9075
 3464TIP3   OH210397   2.872   3.382   0.191  0.3902 -0.2839  0.0096
 3464TIP3    H110398   2.880   3.357   0.099 -0.4823 -0.8824  0.0857
 3464TIP3    H210399   2.962   3.400   0.219  0.7230 -0.6202 -0.8160
 3465TIP3   OH210400   2.437   1.801   3.297 -0.1869  0.0560  0.3271
 3465TIP3    H110401   2.486   1.718   3.301 -1.5027 -0.7086  1.7847
 3465TIP3    H210402   2.480   1.857   3.361  0.3512  0.3060 -0.2467
 3466TIP3   OH210403   2.369   4.821   1.350  0.0984 -0.7728 -0.1933
 3466TIP3    H110404   2.284   4.812   1.307 -0.5852  2.7751  0.0645
 3466TIP3    H210405   2.354   4.793   1.440 -0.5797 -0.9188 -0.3453
 3467TIP3   OH210406   6.139   3.826   2.476  0.0861 -0.3008 -0.2483
 3467TIP3    H110407   6.150   3.731   2.470  1.7463 -0.1635  0.3365
 3467TIP3    H210408   6.153   3.846   2.568  0.3426  0.5919 -0.4764
 3468TIP3   OH210409   0.049   0.618   1.055  0.2574 -0.4634 -0.0525
 3468TIP3    H110410   0.144   0.620   1.065  0.2383  2.9153  0.5772
 3468TIP3    H210411   0.018   0.700   1.095 -2.7626 -0.6113 -1.7529
 3469TIP3   OH210412   0.707   4.175   2.430  0.2540  0.0533 -0.3251
 3469TIP3    H110413   0.639   4.108   2.430 -1.2396  1.4425 -2.1860
 3469TIP3    H210414   0.695   4.222   2.512 -1.5494  0.6882 -0.8969
 3470TIP3   OH210415   3.988   3.870   2.173 -0.1617 -0.2887  0.0003
 3470TIP3    H110416   3.958   3.943   2.119  2.0618  1.5284  1.0676
 3470TIP3    H210417   3.910   3.843   2.221 -1.0578  1.3569 -0.4362
 3471TIP3   OH210418   1.371   0.730   2.942 -0.2442  0.1997 -0.3722
 3471TIP3    H110419   1.356   0.636   2.930  0.8885 -0.3230  1.8557
 3471TIP3    H210420   1.384   0.764   2.853 -1.3199 -1.6012 -1.2689
 3472TIP3   OH210421   4.360   1.893   3.362  0.2193 -0.2763 -0.2461
 3472TIP3    H110422   4.337   1.806   3.395  2.9379 -0.6605  0.9194
 3472TIP3    H210423   4.428   1.876   3.297  0.5080  0.9679 -0.2793
 3473TIP3   OH210424   6.131   1.760   4.112 -0.1903  0.1038  0.0338
 3473TIP3    H110425   6.106   1.834   4.168  1.3025  1.4300 -0.9376
 3473TIP3    H210426   6.060   1.698   4.120 -1.7965  1.9038  0.4741
 3474TIP3   OH210427   1.567   1.713   1.248 -0.3562  0.1424 -0.0639
 3474TIP3    H110428   1.523   1.797   1.259 -0.7022  0.0665 -0.7891
 3474TIP3    H210429   1.636   1.730   1.184 -1.1029 -0.3446 -1.0330
 3475TIP3   OH210430   6.360   4.668   2.115  0.8260  0.0887  0.1955
 3475TIP3    H110431   6.291   4.722   2.078  0.2493 -0.4095  0.5140
 3475TIP3    H210432   6.349   4.583   2.073  1.1713 -0.0247  0.3325
 3476TIP3   OH210433   3.206   0.706   4.344 -0.0205 -0.1708  0.0285
 3476TIP3    H110434   3.249   0.743   4.421  0.8046 -0.6936 -0.1728
 3476TIP3    H210435   3.148   0.776   4.313 -2.0063 -0.6577  2.3467
 3477TIP3   OH210436   0.167   1.125   4.455  0.5528  0.2143 -0.0351
 3477TIP3    H110437   0.237   1.182   4.424  0.4937  0.4456  0.2502
 3477TIP3    H210438   0.121   1.177   4.520  0.9086 -0.3900  0.7220
 3478TIP3   OH210439   4.004   0.526   1.077 -0.9300 -0.5239 -0.4780
 3478TIP3    H110440   3.956   0.560   1.001 -0.2825 -0.3429 -0.8149
 3478TIP3    H210441   3.939   0.522   1.147 -1.5289 -0.6506 -1.0296
 3479TIP3   OH210442   4.036   2.279   4.235 -0.0262  0.3397  0.1869
 3479TIP3    H110443   4.122   2.241   4.216 -0.4409 -0.1321 -0.7955
 3479TIP3    H210444   3.999   2.222   4.302  0.7288  1.0046  1.2155
 3480TIP3   OH210445   6.128   3.836   1.741 -0.2265  0.6399 -0.0890
 3480TIP3    H110446   6.128   3.755   1.691 -0.2475  0.1833  0.6371
 3480TIP3    H210447   6.074   3.817   1.818 -0.3106  1.3693  0.0418
 3481TIP3   OH210448   4.904   2.155   4.217  0.2021  0.0601  0.2748
 3481TIP3    H110449   4.847   2.101   4.272  2.4854 -1.3523  1.3840
 3481TIP3    H210450   4.868   2.145   4.129 -1.5676 -0.3219  0.9866
 3482TIP3   OH210451   4.528   3.192   3.678 -0.3702 -0.2644  0.2013
 3482TIP3    H110452   4.609   3.141   3.668 -0.5238 -0.1744 -2.0145
 3482TIP3    H210453   4.556   3.283   3.677 -0.5567 -0.1028 -3.1480
 3483TIP3   OH210454   0.729   1.555   4.451  0.2814  0.3896  0.0330
 3483TIP3    H110455   0.755   1.543   4.359  1.9315  3.0318  0.0598
 3483TIP3    H210456   0.722   1.466   4.485  4.0302 -0.6986 -1.5216
 3484TIP3   OH210457   6.023   2.339   3.453  0.4213  0.3641  0.2600
 3484TIP3    H110458   5.928   2.339   3.466  0.2896  1.5926 -0.4913
 3484TIP3    H210459   6.038   2.408   3.387  2.0560  1.8783  2.1024
 3485TIP3   OH210460   3.262   4.514   1.382 -0.2834 -0.3888 -0.2142
 3485TIP3    H110461   3.319   4.554   1.317  1.0801 -0.6248  0.7786
 3485TIP3    H210462   3.321   4.490   1.454 -1.5958 -0.9426  0.7243
 3486TIP3   OH210463   0.724   1.372   5.032  0.0419 -0.3715 -0.1819
 3486TIP3    H110464   0.636   1.390   4.998  0.7551  2.5092 -0.8103
 3486TIP3    H210465   0.726   1.417   5.117  0.9420 -0.2682 -0.2518
 3487TIP3   OH210466   0.851   3.228   2.237  0.3860  0.5762 -0.3267
 3487TIP3    H110467   0.786   3.237   2.168  0.6060  2.4368 -0.3225
 3487TIP3    H210468   0.845   3.136   2.263 -1.7176  0.5247 -0.8194
 3488TIP3   OH210469   5.436   2.872   1.348  0.5241 -0.8943  0.3129
 3488TIP3    H110470   5.390   2.942   1.302  1.5665 -1.0364 -0.9932
 3488TIP3    H210471   5.438   2.901   1.440 -0.5201 -0.0282  0.0827
 3489TIP3   OH210472   0.991   1.451   1.046  0.0559 -0.6205 -0.1711
 3489TIP3    H110473   0.924   1.397   1.004 -0.9808  0.9725 -0.6677
 3489TIP3    H210474   1.057   1.465   0.978 -0.5249  0.1056 -0.6159
 3490TIP3   OH210475   4.275   1.769   2.392 -0.8474  0.3092  0.0451
 3490TIP3    H110476   4.295   1.780   2.485 -0.9729  0.0838  0.0999
 3490TIP3    H210477   4.263   1.858   2.359  0.0308  0.4358  0.0541
 3491TIP3   OH210478   3.010   5.252   2.685  0.1077 -0.1670 -0.2448
 3491TIP3    H110479   2.923   5.280   2.714  0.9418  2.1561  0.3422
 3491TIP3    H210480   3.034   5.315   2.617  0.5076 -2.0798 -1.9383
 3492TIP3   OH210481   5.781   3.935   3.580  0.0198  0.0732 -0.0431
 3492TIP3    H110482   5.835   3.947   3.501  0.6700 -0.8606  0.2468
 3492TIP3    H210483   5.827   3.983   3.648 -0.5026  0.8152 -0.1911
 3493TIP3   OH210484   6.172   0.208   3.902 -0.0813  0.6294  0.2317
 3493TIP3    H110485   6.209   0.158   3.829 -0.7772  0.1004  0.2302
 3493TIP3    H210486   6.080   0.180   3.906 -0.2748  1.3121  0.7486
 3494TIP3   OH210487   2.897   3.991   4.904 -0.0340 -0.2252  0.8352
 3494TIP3    H110488   2.969   4.051   4.886  0.2730 -0.5887  0.8422
 3494TIP3    H210489   2.824   4.024   4.852  0.8289 -1.2748 -1.1116
 3495TIP3   OH210490   4.876   4.382   2.313  0.2608 -0.0342  0.4874
 3495TIP3    H110491   4.800   4.380   2.255 -0.9138 -2.1992  1.9589
 3495TIP3    H210492   4.946   4.419   2.259 -2.1022  3.5180 -0.4395
 3496TIP3   OH210493   2.798   3.192   1.192 -0.1796  0.1704 -0.8772
 3496TIP3    H110494   2.708   3.200   1.163  0.0880 -0.9971 -2.0877
 3496TIP3    H210495   2.846   3.258   1.140 -0.0804 -0.3200 -1.4141
 3497TIP3   OH210496   5.806   3.294   0.156  0.0925 -0.1158 -0.3651
 3497TIP3    H110497   5.872   3.356   0.124 -0.0029  0.1743 -0.0103
 3497TIP3    H210498   5.816   3.296   0.252  0.3278 -0.9150 -0.3662
 3498TIP3   OH210499   2.098   4.364   2.744 -0.2850  0.4782 -0.5823
 3498TIP3    H110500   2.044   4.391   2.670 -0.2735  0.6695 -0.5217
 3498TIP3    H210501   2.177   4.418   2.736 -0.1864  0.3391 -0.5581
 3499TIP3   OH210502   1.403   2.142   0.849  0.4378 -0.3250 -0.7825
 3499TIP3    H110503   1.321   2.120   0.805 -0.3928  1.3981 -0.1947
 3499TIP3    H210504   1.421   2.068   0.907 -1.4474 -0.1146  0.1090
 3500TIP3   OH210505   0.272   2.417   1.521 -0.2724  0.0252 -0.4592
 3500TIP3    H110506   0.189   2.389   1.560 -1.3015 -0.8714 -3.0974
 3500TIP3    H210507   0.339   2.369   1.570 -1.4344 -0.7078  0.4639
 3501TIP3   OH210508   1.445   1.452   3.023 -0.1033  0.7201  0.2069
 3501TIP3    H110509   1.460   1.383   3.087 -1.0641  0.2661 -0.0465
 3501TIP3    H210510   1.501   1.430   2.949 -0.3971  0.2211  0.1338
 3502TIP3   OH210511   1.940   1.648   2.569  0.7595 -0.4419 -0.2543
 3502TIP3    H110512   2.010   1.647   2.634  1.8745 -0.5162 -1.4194
 3502TIP3    H210513   1.874   1.588   2.605  0.1616  1.4354  2.0004
 3503TIP3   OH210514   6.210   4.915   4.894 -0.6176 -0.4783  0.1306
 3503TIP3    H110515   6.245   4.854   4.829  1.7331  1.0802 -0.1845
 3503TIP3    H210516   6.115   4.906   4.887 -0.4968 -0.3043 -3.6380
 3504TIP3   OH210517   5.309   0.008   5.097  0.0468  0.2440  0.3293
 3504TIP3    H110518   5.239   0.072   5.084  1.5769  1.7018 -1.2506
 3504TIP3    H210519   5.268  -0.076   5.079 -1.3002  1.0625 -0.6513
 3505TIP3   OH210520   4.631   3.008   3.206 -0.1154  0.5518 -0.4042
 3505TIP3    H110521   4.647   3.100   3.186 -0.4843  0.3021 -1.9682
 3505TIP3    H210522   4.553   3.008   3.261  1.1531  1.2918  1.4982
 3506TIP3   OH210523   4.202   1.259   0.612  0.1955 -0.1309  0.2087
 3506TIP3    H110524   4.293   1.262   0.640  0.1515 -1.8574  0.6866
 3506TIP3    H210525   4.153   1.297   0.685  0.4465 -0.2441  0.4392
 3507TIP3   OH210526   3.415   4.313   0.373  0.1539  0.0803  0.1940
 3507TIP3    H110527   3.394   4.272   0.457  0.8892  0.6292  0.6600
 3507TIP3    H210528   3.478   4.381   0.395 -1.5602  1.9712 -0.4567
 3508TIP3   OH210529   6.175   2.144   1.085  0.1290 -0.1174  0.3388
 3508TIP3    H110530   6.103   2.192   1.126  0.4882 -0.2015  1.0808
 3508TIP3    H210531   6.134   2.066   1.049 -0.3275  0.3628 -0.1915
 3509TIP3   OH210532   3.441   5.326   1.712  0.6028  0.1026  0.0571
 3509TIP3    H110533   3.484   5.244   1.689  0.4379  0.1358 -0.3815
 3509TIP3    H210534   3.512   5.382   1.743  0.4832 -0.8075  2.1705
 3510TIP3   OH210535   1.974   1.997   0.720  0.1644 -0.1274 -0.0571
 3510TIP3    H110536   1.964   1.974   0.627 -0.8050  1.2604 -0.3256
 3510TIP3    H210537   1.998   2.089   0.719 -1.7029  0.4338  1.0841
 3511TIP3   OH210538   3.723   0.239   2.824 -0.2193 -0.4868 -0.1113
 3511TIP3    H110539   3.762   0.309   2.771 -0.2544 -0.4494 -0.0874
 3511TIP3    H210540   3.785   0.166   2.817 -0.0407 -0.3574  0.0944
 3512TIP3   OH210541   5.864   3.767   2.399  0.3130  0.2594 -0.0837
 3512TIP3    H110542   5.944   3.802   2.437 -0.2177  0.2819  1.0691
 3512TIP3    H210543   5.852   3.816   2.318 -0.1686  2.4625  1.2601
 3513TIP3   OH210544   2.203   2.222   1.250 -0.5387  0.0566  0.5735
 3513TIP3    H110545   2.167   2.302   1.289  0.2797 -0.2134  1.9244
 3513TIP3    H210546   2.268   2.253   1.188 -0.7842  0.4567  0.5118
 3514TIP3   OH210547   2.531   1.955   1.220  0.9589  0.7599 -0.1287
 3514TIP3    H110548   2.506   1.864   1.238  3.4381  0.2543  1.2151
 3514TIP3    H210549   2.521   1.963   1.125 -2.0061  0.0320  0.0320
 3515TIP3   OH210550   2.723   1.137   3.120 -0.5232  0.0346  0.5790
 3515TIP3    H110551   2.751   1.099   3.203  0.6316  1.1361  0.7130
 3515TIP3    H210552   2.629   1.118   3.115 -0.4054 -0.9196  1.6455
 3516TIP3   OH210553   2.715   0.518   2.679 -0.0522 -0.4116  0.2017
 3516TIP3    H110554   2.748   0.485   2.763 -1.0105  0.8922  1.1400
 3516TIP3    H210555   2.641   0.461   2.659 -0.1436 -0.4013  0.5054
 3517TIP3   OH210556   5.976   5.637   0.644 -0.0340 -0.0370  0.0635
 3517TIP3    H110557   5.892   5.666   0.680  0.1567  0.5664  0.0452
 3517TIP3    H210558   6.024   5.719   0.629  0.3976 -0.3553 -0.3093
 3518TIP3   OH210559   2.182   0.256   0.230 -0.3489 -0.5483  0.0195
 3518TIP3    H110560   2.186   0.161   0.218  0.7340 -0.6538  1.1086
 3518TIP3    H210561   2.259   0.289   0.184 -1.3868 -0.0464 -1.4376
 3519TIP3   OH210562   2.152   3.237   1.874 -0.3518  1.1190 -0.3491
 3519TIP3    H110563   2.096   3.161   1.891 -0.6244  1.4730  0.4119
 3519TIP3    H210564   2.237   3.199   1.852 -0.4627  0.5867  0.0928
 3520TIP3   OH210565   3.118   3.160   3.572  0.8606  0.3648  0.2006
 3520TIP3    H110566   3.153   3.088   3.625  2.1128  1.4233  0.8653
 3520TIP3    H210567   3.024   3.159   3.590  0.5976 -1.9736 -0.9181
 3521TIP3   OH210568   4.943   4.114   0.150 -0.4966  0.3916 -0.0721
 3521TIP3    H110569   4.877   4.067   0.200 -0.3440 -0.3749 -0.5685
 3521TIP3    H210570   5.009   4.139   0.214  0.3437 -1.6989 -0.0132
 3522TIP3   OH210571   0.080   5.065   3.618  0.3074  0.2806  0.3443
 3522TIP3    H110572   0.142   5.055   3.690  1.1257 -1.3067 -0.5269
 3522TIP3    H210573   0.092   5.156   3.589  1.2514  0.4083  1.0649
 3523TIP3   OH210574   1.664   4.776   0.975 -0.6578  0.9733 -0.3673
 3523TIP3    H110575   1.596   4.753   0.912  0.2599  0.2553 -1.1166
 3523TIP3    H210576   1.621   4.766   1.060 -1.7535  1.4374 -0.8412
 3524TIP3   OH210577   4.209   2.688   0.747  0.5064  0.3255  0.2292
 3524TIP3    H110578   4.215   2.707   0.840  1.7908  1.8635 -0.1280
 3524TIP3    H210579   4.273   2.619   0.732  0.7368  0.5035  0.3913
 3525TIP3   OH210580   3.007   3.891   5.175  0.0636  0.6149 -0.9638
 3525TIP3    H110581   3.092   3.872   5.136 -0.2624  0.3812 -1.5740
 3525TIP3    H210582   2.963   3.948   5.112 -1.0362 -0.9366 -1.6788
 3526TIP3   OH210583   1.934   5.343   4.558 -0.1854  0.0277 -0.8447
 3526TIP3    H110584   1.987   5.395   4.497 -1.2065  0.9751 -0.9576
 3526TIP3    H210585   1.941   5.254   4.524  2.2977 -0.1224 -0.1559
 3527TIP3   OH210586   3.456   0.297   2.928 -0.1656  0.0127 -0.0128
 3527TIP3    H110587   3.402   0.375   2.921 -1.0204 -0.7073 -3.5724
 3527TIP3    H210588   3.546   0.329   2.929 -0.5071  1.1023  2.8996
 3528TIP3   OH210589   4.244   0.867   1.545  0.5225  0.3363  0.2551
 3528TIP3    H110590   4.316   0.881   1.606  0.3101  0.2255  0.5325
 3528TIP3    H210591   4.231   0.772   1.544  0.3729  0.3564  0.2147
 3529TIP3   OH210592   4.897   3.560   2.163 -0.3378  0.0626  0.0272
 3529TIP3    H110593   4.984   3.580   2.198 -0.2781  0.6733 -0.4379
 3529TIP3    H210594   4.842   3.632   2.193 -0.5268  0.0235 -0.2204
 3530TIP3   OH210595   0.267   2.280   2.504  0.5803 -0.3929 -0.0120
 3530TIP3    H110596   0.363   2.283   2.501  0.6255 -1.5833 -0.1133
 3530TIP3    H210597   0.247   2.203   2.557 -0.3293 -0.6140 -0.6683
 3531TIP3   OH210598   3.958   0.057   2.866 -0.0379 -0.2001 -0.2703
 3531TIP3    H110599   3.988  -0.002   2.936 -0.4732  0.5990  0.6073
 3531TIP3    H210600   3.990   0.143   2.892 -1.9994  0.4801  0.0702
 3532TIP3   OH210601   3.343   0.286   3.631 -0.1602 -0.3187 -0.2249
 3532TIP3    H110602   3.292   0.246   3.562 -0.6737 -0.8787  0.4628
 3532TIP3    H210603   3.304   0.254   3.712  0.0892  0.7297  0.3392
 3533TIP3   OH210604   2.777   3.994   4.138  0.1936 -0.7234  0.3971
 3533TIP3    H110605   2.756   4.057   4.207  0.4195 -0.5117  0.2765
 3533TIP3    H210606   2.692   3.966   4.103  0.0894 -0.5860  0.5408
 3534TIP3   OH210607   5.778   2.400   0.750 -0.3432 -0.5932  0.4537
 3534TIP3    H110608   5.775   2.343   0.827 -0.0793 -1.7656 -0.3786
 3534TIP3    H210609   5.694   2.446   0.751 -1.0261 -1.8043  0.5690
 3535TIP3   OH210610   3.172   1.368   0.713 -0.4317 -0.0326 -0.0792
 3535TIP3    H110611   3.123   1.353   0.632  1.8946  0.5191 -1.7113
 3535TIP3    H210612   3.173   1.282   0.756 -0.6478 -0.6747 -1.2883
 3536TIP3   OH210613   4.318   0.321   3.406  0.9061 -0.3200  1.1429
 3536TIP3    H110614   4.255   0.392   3.408  0.0250 -0.8532 -2.1291
 3536TIP3    H210615   4.277   0.250   3.455 -0.6503 -0.3380 -0.1359
 3537TIP3   OH210616   2.888   0.565   3.169  0.0844 -0.2703  0.8389
 3537TIP3    H110617   2.865   0.644   3.119 -0.8850 -1.4601 -0.6636
 3537TIP3    H210618   2.955   0.595   3.230 -0.2577  1.7267  0.3177
 3538TIP3   OH210619   0.987   4.587   0.081 -0.0446  0.0593  0.7497
 3538TIP3    H110620   1.046   4.647   0.126  0.1637  0.5058 -0.0852
 3538TIP3    H210621   1.039   4.551   0.010 -0.3062 -0.7805  0.9752
 3539TIP3   OH210622   4.742   2.808   3.040 -0.0566 -0.1828 -0.2965
 3539TIP3    H110623   4.831   2.800   3.076 -0.7049 -1.3334  1.1529
 3539TIP3    H210624   4.697   2.866   3.101 -0.2952  0.4892 -1.0934
 3540TIP3   OH210625   4.954   4.079   1.246  0.1372  0.2685 -0.1856
 3540TIP3    H110626   4.933   4.161   1.290 -1.2138  1.2542 -2.4935
 3540TIP3    H210627   5.050   4.075   1.247  0.2298  1.8623 -0.0023
 3541TIP3   OH210628   2.747   2.633   4.050 -0.0058 -0.1012  0.3411
 3541TIP3    H110629   2.690   2.616   4.125  0.2076 -1.7944  0.1625
 3541TIP3    H210630   2.689   2.631   3.974 -0.0936  0.8011  0.3735
 3542TIP3   OH210631   1.019   4.612   1.183  1.0467  0.6578  0.1669
 3542TIP3    H110632   1.018   4.609   1.088 -1.6547  1.2602  0.0962
 3542TIP3    H210633   1.082   4.545   1.209  0.8466 -0.4521 -2.0342
 3543TIP3   OH210634   0.608   4.516   3.196 -0.2942  0.2763 -0.0011
 3543TIP3    H110635   0.622   4.596   3.145  0.0250 -0.3492 -0.9080
 3543TIP3    H210636   0.613   4.445   3.132 -2.0318 -0.3870  0.5374
 3544TIP3   OH210637   5.703   3.969   4.062 -0.0432 -0.0779  0.6133
 3544TIP3    H110638   5.732   4.011   4.144  1.6602 -0.1431  0.0854
 3544TIP3    H210639   5.736   3.879   4.068  0.5416  0.0534 -0.3317
 3545TIP3   OH210640   4.284   5.237   1.595 -0.0558 -0.0063  0.3905
 3545TIP3    H110641   4.211   5.185   1.629 -2.0858  1.7269 -1.0213
 3545TIP3    H210642   4.339   5.255   1.672 -1.4487 -0.8431  1.6380
 3546TIP3   OH210643   3.714   0.809   3.002 -0.3319  0.4144  0.2678
 3546TIP3    H110644   3.639   0.750   2.997  0.3859 -0.4049 -1.7387
 3546TIP3    H210645   3.684   0.890   2.962 -0.1868  0.1040 -0.4857
 3547TIP3   OH210646   1.791   5.138   0.878  0.1199 -0.0135 -0.1257
 3547TIP3    H110647   1.815   5.048   0.898  0.6354 -0.2314 -1.5751
 3547TIP3    H210648   1.861   5.169   0.820 -2.1493 -0.1236 -3.2004
 3548TIP3   OH210649   3.901   4.562   0.982 -0.2853 -0.2073 -0.4887
 3548TIP3    H110650   3.827   4.618   1.006  0.4781  1.1758 -1.2366
 3548TIP3    H210651   3.911   4.503   1.056  0.5531  2.3876  1.6091
 3549TIP3   OH210652   1.967   1.927   1.695 -0.0616 -0.1977  0.4400
 3549TIP3    H110653   1.902   1.996   1.706 -0.4329 -0.1490 -1.6763
 3549TIP3    H210654   1.994   1.934   1.604  2.0868 -0.9669  0.9629
 3550TIP3   OH210655   0.596   4.202   0.293  0.0855 -0.2723 -0.8160
 3550TIP3    H110656   0.580   4.110   0.271 -0.2815 -0.2250 -0.7425
 3550TIP3    H210657   0.677   4.201   0.345  0.8257 -0.4221 -1.9260
 3551TIP3   OH210658   1.067   0.465   0.250 -0.0071  0.2314 -0.0103
 3551TIP3    H110659   1.031   0.538   0.299  1.4352  0.5811  0.5768
 3551TIP3    H210660   1.074   0.394   0.314  0.6370  0.2739 -0.0239
 3552TIP3   OH210661   4.732   3.777   4.525  0.1206  0.3507 -0.1520
 3552TIP3    H110662   4.644   3.758   4.493  0.2050 -0.6005  0.1220
 3552TIP3    H210663   4.719   3.828   4.604 -0.1613  0.8160 -0.4984
 3553TIP3   OH210664   3.246   0.701   0.269 -0.4325 -0.2391 -0.3889
 3553TIP3    H110665   3.253   0.607   0.288  0.9599 -0.6897 -2.7268
 3553TIP3    H210666   3.157   0.724   0.295 -0.7690 -2.1721  0.3736
 3554TIP3   OH210667   3.590   3.228   4.701  0.3383 -0.1733  0.3432
 3554TIP3    H110668   3.527   3.245   4.772  1.1690 -0.1922  1.1045
 3554TIP3    H210669   3.554   3.153   4.655 -1.5019  1.3064 -0.8011
 3555TIP3   OH210670   6.041   4.976   1.765  0.6434 -0.0345  0.0086
 3555TIP3    H110671   6.040   4.921   1.687  1.2488 -0.6734  0.4366
 3555TIP3    H210672   5.983   5.049   1.744  0.0976 -0.6589 -0.6998
 3556TIP3   OH210673   5.130   0.354   2.515  0.5425  0.0398 -0.0012
 3556TIP3    H110674   5.156   0.265   2.538  0.4937  0.0403  0.0586
 3556TIP3    H210675   5.038   0.359   2.541  0.4091 -0.0457 -0.4615
 3557TIP3   OH210676   1.413   2.275   0.200 -0.0320  0.7944 -0.4063
 3557TIP3    H110677   1.337   2.333   0.190  0.9311  1.7374 -3.9643
 3557TIP3    H210678   1.393   2.199   0.146  0.0151 -0.8589  1.7702
 3558TIP3   OH210679   1.778   0.074   2.906  0.1752 -0.0337  0.6310
 3558TIP3    H110680   1.820   0.028   2.834 -1.4868 -1.1537  0.3292
 3558TIP3    H210681   1.820   0.161   2.907  1.7449 -0.7452 -0.2520
 3559TIP3   OH210682   4.726   3.034   3.578  0.3026  0.4373  0.1167
 3559TIP3    H110683   4.813   3.001   3.604 -0.1452 -0.6730  0.2640
 3559TIP3    H210684   4.733   3.047   3.483  0.3476 -0.5768 -0.0283
 3560TIP3   OH210685   6.286   3.622   4.378  0.4936 -0.0285  0.2135
 3560TIP3    H110686   6.209   3.643   4.324  0.3880  1.4333  0.8746
 3560TIP3    H210687   6.305   3.530   4.359 -0.7022 -0.0811 -0.8500
 3561TIP3   OH210688   1.361   0.421   2.331 -0.1476  0.5275  0.3638
 3561TIP3    H110689   1.318   0.504   2.309  0.2074  0.7906  0.6513
 3561TIP3    H210690   1.453   0.445   2.344  0.0364  0.0150  0.0124
 3562TIP3   OH210691   5.479   2.604   0.265 -0.0515 -0.3012  0.3216
 3562TIP3    H110692   5.563   2.596   0.220  0.9338  2.8755  1.2927
 3562TIP3    H210693   5.490   2.556   0.347  0.4788 -0.6804  0.0336
 3563TIP3   OH210694   5.172   2.840   3.417 -0.1145 -0.2114  0.0565
 3563TIP3    H110695   5.204   2.765   3.366  0.0577 -1.1122  1.4377
 3563TIP3    H210696   5.236   2.909   3.401 -1.8923  0.8504 -3.8280
 3564TIP3   OH210697   2.979   2.263   3.542 -0.0145 -0.2203 -0.0873
 3564TIP3    H110698   3.035   2.336   3.569 -0.4265 -0.4694  1.5220
 3564TIP3    H210699   2.999   2.251   3.449  2.3891 -0.1120  0.3517
 3565TIP3   OH210700   2.802   2.939   4.712 -0.0007  0.2278 -0.0701
 3565TIP3    H110701   2.857   2.876   4.758 -1.0153 -0.9984 -0.4861
 3565TIP3    H210702   2.833   2.937   4.622 -1.3678 -1.2865 -0.5554
 3566TIP3   OH210703   4.441   2.306   1.932  0.3013 -0.2650 -0.3921
 3566TIP3    H110704   4.346   2.303   1.915  0.0004 -0.6301  1.1656
 3566TIP3    H210705   4.460   2.220   1.971  1.6450 -0.9063 -2.3574
 3567TIP3   OH210706   3.953   1.126   4.636  0.3295  0.3337 -0.0121
 3567TIP3    H110707   3.884   1.190   4.657 -0.4466 -0.5302  0.1329
 3567TIP3    H210708   3.941   1.107   4.543 -0.3150 -0.6056  0.2538
 3568TIP3   OH210709   0.519   4.715   2.754  0.1525 -0.1934 -0.3135
 3568TIP3    H110710   0.471   4.736   2.834 -0.0435 -0.1903 -0.4328
 3568TIP3    H210711   0.568   4.795   2.734  1.7924 -0.8272  0.9272
 3569TIP3   OH210712   1.004   2.373   5.020 -0.8860 -0.0660  0.6886
 3569TIP3    H110713   1.049   2.289   5.030  0.6758  0.5296 -0.8434
 3569TIP3    H210714   1.074   2.436   5.008 -2.1102  0.9762 -1.5134
 3570TIP3   OH210715   6.003   5.293   3.798  0.1147  0.0964 -0.3725
 3570TIP3    H110716   5.957   5.285   3.881  0.9410  2.5070  0.3835
 3570TIP3    H210717   5.959   5.364   3.752  2.1961  1.6242 -0.1523
 3571TIP3   OH210718   5.651   1.508   0.054  0.5496 -0.2015  0.2122
 3571TIP3    H110719   5.721   1.464   0.005 -0.5493 -0.7054 -0.9647
 3571TIP3    H210720   5.571   1.472   0.017 -0.3762  1.9580  0.0110
 3572TIP3   OH210721   4.953   2.766   1.749  0.1378  0.2066  0.2352
 3572TIP3    H110722   4.859   2.751   1.737 -0.0693  1.8279 -0.4832
 3572TIP3    H210723   4.963   2.775   1.843 -0.8049  1.9816  0.2107
 3573TIP3   OH210724   5.887   5.946   0.182  0.1127 -0.0539 -0.0703
 3573TIP3    H110725   5.967   5.902   0.209 -0.1370 -2.1331 -2.3812
 3573TIP3    H210726   5.917   6.028   0.141  0.7048  1.0946  2.4745
 3574TIP3   OH210727   5.000   3.002   3.588 -0.1754 -0.4703 -0.6425
 3574TIP3    H110728   5.079   2.948   3.594  0.5065  0.6023  0.6427
 3574TIP3    H210729   5.033   3.088   3.562 -0.9371 -0.0398 -0.1882
 3575TIP3   OH210730   0.047   4.846   1.320  0.1018 -0.2977 -0.3194
 3575TIP3    H110731   0.068   4.923   1.372  2.6419 -0.7703 -0.5389
 3575TIP3    H210732  -0.018   4.877   1.257 -0.7777  1.0175  1.1592
 3576TIP3   OH210733   0.507   4.636   0.429 -0.3063  1.0619 -0.6683
 3576TIP3    H110734   0.478   4.662   0.517  1.1260 -0.9325  0.4727
 3576TIP3    H210735   0.451   4.561   0.408  0.3540  0.6058 -0.8048
 3577TIP3   OH210736   3.802   5.836   3.190 -0.1564  0.6870 -0.3640
 3577TIP3    H110737   3.866   5.879   3.247 -1.1361 -0.5533  1.8057
 3577TIP3    H210738   3.828   5.743   3.192  0.8189  0.8003 -3.4385
 3578TIP3   OH210739   1.814   2.608   4.704 -0.6290 -0.4282  0.2111
 3578TIP3    H110740   1.827   2.546   4.632  1.0275 -1.4930  1.3706
 3578TIP3    H210741   1.859   2.688   4.675 -0.8510 -0.4976 -0.3414
 3579TIP3   OH210742   4.463   3.585   1.995 -0.1950  0.2615 -0.2749
 3579TIP3    H110743   4.382   3.535   2.001 -0.8026  1.2355 -0.1134
 3579TIP3    H210744   4.472   3.626   2.082  0.9826 -0.5888  0.0294
 3580TIP3   OH210745   4.797   2.186   3.497 -0.2640 -0.3087  0.4831
 3580TIP3    H110746   4.783   2.092   3.498 -1.2346 -0.1766  1.4184
 3580TIP3    H210747   4.726   2.222   3.550  0.0610  0.9562  0.1101
 3581TIP3   OH210748   5.859   5.183   2.235  0.5774  0.1072 -0.0879
 3581TIP3    H110749   5.903   5.266   2.254  2.2378 -0.9105  0.6767
 3581TIP3    H210750   5.779   5.187   2.287  0.8505  1.0329  0.2989
 3582TIP3   OH210751   2.916   4.584   3.115 -0.5012  0.1389  0.4031
 3582TIP3    H110752   2.888   4.576   3.206 -2.5403 -0.8575 -0.2525
 3582TIP3    H210753   3.008   4.610   3.120 -0.9063  1.3390  2.7183
 3583TIP3   OH210754   1.334   1.065   0.486  0.1143 -0.1001  0.2546
 3583TIP3    H110755   1.418   1.093   0.524  0.6620  0.5486 -1.3622
 3583TIP3    H210756   1.326   1.115   0.405 -0.4514 -2.2302 -1.0973
 3584TIP3   OH210757   3.240   5.837   1.978 -0.4704 -0.9145  0.2764
 3584TIP3    H110758   3.199   5.918   2.009  0.2045 -1.3010  2.3266
 3584TIP3    H210759   3.296   5.865   1.906 -1.2448  0.2288  0.0837
 3585TIP3   OH210760   3.334   1.212   4.660  0.4140 -0.0206  0.3224
 3585TIP3    H110761   3.390   1.136   4.680  1.0242  0.1671 -0.6075
 3585TIP3    H210762   3.395   1.286   4.655  0.2945 -0.0206 -1.9681
 3586TIP3   OH210763   2.631   2.517   4.684 -0.4055 -0.0846  0.2312
 3586TIP3    H110764   2.695   2.589   4.688 -0.2039 -0.2875  0.8112
 3586TIP3    H210765   2.633   2.488   4.593  1.7923 -1.3840  0.6200
 3587TIP3   OH210766   1.337   3.360   2.172 -0.1746 -0.1027 -0.4396
 3587TIP3    H110767   1.242   3.346   2.175 -0.0600 -1.3122 -1.5348
 3587TIP3    H210768   1.375   3.278   2.202  0.5622  0.7780  1.1546
 3588TIP3   OH210769   0.855   3.495   1.682  0.4512  0.2702  0.3095
 3588TIP3    H110770   0.878   3.517   1.591  0.8718  0.6665  0.5075
 3588TIP3    H210771   0.790   3.561   1.706  1.7126  1.3411  0.9038
 3589TIP3   OH210772   1.114   4.648   5.083 -0.1520  0.5551 -0.1765
 3589TIP3    H110773   1.053   4.631   5.154 -1.0181  0.4181 -0.9258
 3589TIP3    H210774   1.163   4.566   5.073 -0.6258  0.2853 -0.3005
 3590TIP3   OH210775   4.423   2.399   4.166  0.6364  0.2470 -0.2334
 3590TIP3    H110776   4.457   2.425   4.252 -1.4771 -0.9991  1.0546
 3590TIP3    H210777   4.369   2.473   4.138 -2.7879 -1.1695  1.9698
 3591TIP3   OH210778   6.276   0.827   3.236 -0.2245 -0.2875  0.1339
 3591TIP3    H110779   6.290   0.913   3.195 -1.3211 -0.3652 -0.4368
 3591TIP3    H210780   6.316   0.835   3.323  0.1379  0.6331 -0.1082
 3592TIP3   OH210781   5.575   0.829   1.494  0.9095  0.0327  0.2741
 3592TIP3    H110782   5.597   0.921   1.480 -1.0159  0.6161  0.8287
 3592TIP3    H210783   5.484   0.822   1.465  1.5281 -2.1063 -1.3886
 3593TIP3   OH210784   2.780   3.816   2.353 -0.1671 -0.1816  0.2990
 3593TIP3    H110785   2.720   3.843   2.423 -1.6705  0.7882 -1.2925
 3593TIP3    H210786   2.723   3.778   2.286  1.2887 -1.5039 -0.2363
 3594TIP3   OH210787   2.580   2.337   3.288  0.1073  0.3690 -0.4139
 3594TIP3    H110788   2.622   2.276   3.350 -1.6214 -0.7362 -0.2572
 3594TIP3    H210789   2.537   2.280   3.224  0.8866  1.4903 -2.0056
 3595TIP3   OH210790   2.686   1.900   1.617  0.5888 -0.3970 -0.1004
 3595TIP3    H110791   2.618   1.865   1.559 -0.7168  0.1591  1.0401
 3595TIP3    H210792   2.677   1.995   1.610 -0.8269 -0.2697  2.3032
 3596TIP3   OH210793   0.607   1.752   2.633 -0.6059  0.4761 -0.3077
 3596TIP3    H110794   0.601   1.682   2.568 -2.2811  0.0675  0.2322
 3596TIP3    H210795   0.527   1.803   2.621 -1.2696  0.0498  1.7722
 3597TIP3   OH210796   2.214   2.151   3.304 -0.1477 -0.0287 -0.4097
 3597TIP3    H110797   2.295   2.152   3.254  0.2956  1.3883  0.2847
 3597TIP3    H210798   2.145   2.163   3.238 -0.2837 -5.2145 -1.6006
 3598TIP3   OH210799   5.913   5.710   3.892  0.1323 -0.1242 -0.0776
 3598TIP3    H110800   5.916   5.798   3.929 -1.3256 -0.0740 -0.0173
 3598TIP3    H210801   5.847   5.664   3.944  1.0556 -1.3376  0.0532
 3599TIP3   OH210802   2.162   0.715   4.904 -0.2073  0.1336  0.3548
 3599TIP3    H110803   2.126   0.802   4.918 -1.8826 -0.6142  0.9474
 3599TIP3    H210804   2.239   0.711   4.961 -0.1881  1.1742  0.4142
 3600TIP3   OH210805   1.600   3.343   3.444  0.3157  0.3616  0.0504
 3600TIP3    H110806   1.628   3.258   3.479 -1.9177  0.5215  2.4750
 3600TIP3    H210807   1.596   3.329   3.349 -0.6966 -2.5020  0.4092
 3601TIP3   OH210808   6.283   3.580   0.158  0.0499  0.1873 -0.8244
 3601TIP3    H110809   6.329   3.544   0.234  0.5746  2.9297  0.2551
 3601TIP3    H210810   6.282   3.674   0.173 -1.6479  0.6383 -3.2573
 3602TIP3   OH210811   1.577   1.306   0.680  0.4938  0.1010 -0.3152
 3602TIP3    H110812   1.501   1.363   0.688  0.2247 -0.3568  0.5476
 3602TIP3    H210813   1.576   1.254   0.760  1.2163 -0.5234 -0.6993
 3603TIP3   OH210814   1.879   0.237   0.812 -0.2663 -0.3745 -0.1528
 3603TIP3    H110815   1.836   0.165   0.857 -1.1010 -0.3944 -0.9582
 3603TIP3    H210816   1.808   0.284   0.768  0.2043  1.2133  0.7093
 3604TIP3   OH210817   2.377   2.845   4.547 -0.1027 -0.6005 -0.2725
 3604TIP3    H110818   2.351   2.928   4.507  2.6818  1.2808  1.4963
 3604TIP3    H210819   2.297   2.792   4.547 -2.0173  2.0753 -1.3714
 3605TIP3   OH210820   5.699   1.065   1.458 -0.3448 -0.3487  0.1811
 3605TIP3    H110821   5.761   1.084   1.388 -0.2274 -1.8411 -0.1487
 3605TIP3    H210822   5.737   1.107   1.535  0.3231  0.0020 -0.3228
 3606TIP3   OH210823   4.916   5.809   0.297  0.1289 -0.4289  0.1000
 3606TIP3    H110824   4.913   5.729   0.245  0.6261 -1.2374  1.2773
 3606TIP3    H210825   5.008   5.816   0.324 -0.4196 -0.9223  2.2187
 3607TIP3   OH210826   2.577   3.159   2.984  0.9129 -0.5476  0.4819
 3607TIP3    H110827   2.499   3.126   2.938  1.7032 -0.3501 -1.0846
 3607TIP3    H210828   2.612   3.226   2.925  1.8209 -0.0708  1.5417
 3608TIP3   OH210829   6.312   1.246   3.355  0.3128  0.5400 -0.3169
 3608TIP3    H110830   6.261   1.202   3.423 -0.2162  0.7782 -0.5490
 3608TIP3    H210831   6.349   1.323   3.399  1.6859 -0.4000  0.2286
 3609TIP3   OH210832   0.830   0.121   2.712 -0.7574 -0.2246  0.7031
 3609TIP3    H110833   0.883   0.147   2.637 -1.6263 -1.0277 -0.2092
 3609TIP3    H210834   0.778   0.048   2.680  1.0242 -2.6610  2.9036
 3610TIP3   OH210835   0.859   0.318   3.930 -0.1163  0.2582  0.3123
 3610TIP3    H110836   0.802   0.252   3.889  0.2329 -0.1830  0.5326
 3610TIP3    H210837   0.946   0.280   3.926  0.0736  0.6671  0.5395
 3611TIP3   OH210838   5.606   4.770   3.872  0.8952 -0.0166 -0.0199
 3611TIP3    H110839   5.574   4.856   3.844  2.3559  0.4002 -0.4928
 3611TIP3    H210840   5.532   4.711   3.858 -0.7402  1.4236  1.9334
 3612TIP3   OH210841   4.118   0.100   4.274 -0.6039  0.1532  0.4263
 3612TIP3    H110842   4.045   0.076   4.331  0.3314  0.8327  1.9892
 3612TIP3    H210843   4.087   0.177   4.227 -0.9518  0.3823  1.0114
 3613TIP3   OH210844   2.649   5.163   3.807  0.3734  0.3853  0.2636
 3613TIP3    H110845   2.558   5.167   3.834  0.7087 -0.7993  1.7304
 3613TIP3    H210846   2.649   5.106   3.730 -0.1252  0.3172  0.3132
 3614TIP3   OH210847   0.110   5.888   4.687 -0.2922 -0.1382  0.6362
 3614TIP3    H110848   0.202   5.862   4.688  0.4557  2.2592  1.0652
 3614TIP3    H210849   0.089   5.897   4.594  0.2326  0.2840  0.5525
 3615TIP3   OH210850   0.163   2.136   4.396  0.3495  0.1962  0.0605
 3615TIP3    H110851   0.236   2.084   4.429  0.1136 -0.8155 -0.9187
 3615TIP3    H210852   0.140   2.093   4.313  0.2569  1.9823 -0.8731
 3616TIP3   OH210853   5.791   0.044   1.610  0.1523  0.1284  0.4637
 3616TIP3    H110854   5.839   0.105   1.555  0.7392 -0.0144  0.8041
 3616TIP3    H210855   5.762   0.096   1.685  2.0375 -0.2950  1.5779
 3617TIP3   OH210856   5.256   5.904   0.985  0.3174  0.5763 -0.2568
 3617TIP3    H110857   5.170   5.929   1.019  1.5599  3.1257  1.3172
 3617TIP3    H210858   5.260   5.943   0.898  0.2095  1.2623  0.0387
 3618TIP3   OH210859   3.069   3.143   2.863  0.3126  0.4316 -0.0968
 3618TIP3    H110860   3.060   3.083   2.936  0.6110 -0.3195 -0.6665
 3618TIP3    H210861   2.999   3.117   2.802  0.5826  0.5085 -0.4445
 3619TIP3   OH210862   4.077   0.509   4.958  0.4181  0.3878 -0.3247
 3619TIP3    H110863   4.166   0.537   4.979  0.0408  0.4993  1.2469
 3619TIP3    H210864   4.023   0.586   4.978 -0.4176 -0.7686  2.3095
 3620TIP3   OH210865   1.538   5.256   0.535  0.0418 -0.8036  0.2319
 3620TIP3    H110866   1.450   5.259   0.572 -0.5514 -2.3732 -0.9463
 3620TIP3    H210867   1.533   5.308   0.455 -0.1412 -1.7947 -0.4193
 3621TIP3   OH210868   4.050   4.419   0.557  1.0061 -0.0671  0.7484
 3621TIP3    H110869   4.056   4.514   0.572 -0.5930  0.0578  0.7598
 3621TIP3    H210870   4.066   4.381   0.643  4.6730 -0.0219  0.2328
 3622TIP3   OH210871   1.040   2.118   3.073  0.3261  0.4904  0.5388
 3622TIP3    H110872   1.118   2.117   3.128  0.4324  1.6606  0.4364
 3622TIP3    H210873   1.011   2.027   3.070 -0.0064  0.4467  2.9997
 3623TIP3   OH210874   5.048   1.223   4.655 -0.4885  0.4533  0.5220
 3623TIP3    H110875   5.094   1.241   4.574 -0.5445 -0.5326  0.2541
 3623TIP3    H210876   4.966   1.272   4.648 -0.5201  0.3211 -0.0454
 3624TIP3   OH210877   2.267   4.889   3.742 -0.2262 -0.6257  0.2304
 3624TIP3    H110878   2.242   4.901   3.833 -1.0967  1.9691 -0.2515
 3624TIP3    H210879   2.187   4.861   3.698 -0.1969 -0.3929  0.0238
 3625TIP3   OH210880   5.786   2.131   4.099 -0.2368  0.1450 -0.5815
 3625TIP3    H110881   5.713   2.173   4.053 -0.1289  1.0878  0.0964
 3625TIP3    H210882   5.836   2.203   4.137  0.9475 -0.4976 -0.8621
 3626TIP3   OH210883   1.921   0.099   1.404 -0.3548  0.1557  0.1251
 3626TIP3    H110884   1.992   0.137   1.457  0.7269 -0.2212 -0.9942
 3626TIP3    H210885   1.954   0.104   1.315 -2.1776  0.8752 -0.5551
 3627TIP3   OH210886   4.112   4.301   1.869  0.2969  0.5747 -0.2444
 3627TIP3    H110887   4.063   4.309   1.951 -0.5028 -0.8438 -0.5470
 3627TIP3    H210888   4.108   4.388   1.830  0.5723  1.2464  1.1373
 3628TIP3   OH210889   5.419   4.199   0.609  0.4500  0.1918 -0.5896
 3628TIP3    H110890   5.468   4.141   0.550  2.0298  0.7169  0.1515
 3628TIP3    H210891   5.348   4.234   0.555  0.4927 -1.0906 -1.5263
 3629TIP3   OH210892   0.801   5.267   3.644 -0.6977 -0.1730  0.0877
 3629TIP3    H110893   0.767   5.345   3.687  1.4998  0.3434  0.9999
 3629TIP3    H210894   0.778   5.279   3.552 -2.7809  0.1862  0.6121
 3630TIP3   OH210895   2.052   1.246   4.995  0.0235  0.3076  0.8886
 3630TIP3    H110896   2.094   1.190   5.060  2.7741 -1.1764 -1.8715
 3630TIP3    H210897   1.966   1.207   4.981 -1.0469  1.2141  4.1000
 3631TIP3   OH210898   0.433   2.381   4.007  0.2008 -0.2665 -0.1128
 3631TIP3    H110899   0.337   2.374   4.005  0.2049 -0.2839 -0.2925
 3631TIP3    H210900   0.462   2.325   3.935  0.2409  1.8353 -1.8010
 3632TIP3   OH210901   5.137   4.930   2.982  0.6358 -0.3289 -0.0159
 3632TIP3    H110902   5.190   4.884   3.047 -0.1437 -1.0998  0.0900
 3632TIP3    H210903   5.131   5.019   3.016 -1.2678 -1.1299  1.9829
 3633TIP3   OH210904   3.263   0.489   2.877  0.1208 -0.7892 -0.1741
 3633TIP3    H110905   3.220   0.463   2.796  1.7894 -1.1382 -0.9946
 3633TIP3    H210906   3.196   0.538   2.925 -0.3571  1.2212 -2.6545
 3634TIP3   OH210907   2.515   0.524   1.846  0.5989  0.7643 -0.5092
 3634TIP3    H110908   2.457   0.529   1.770  0.0551 -1.5993 -0.3185
 3634TIP3    H210909   2.548   0.435   1.845  1.7361  1.1243  1.2199
 3635TIP3   OH210910   2.775   0.451   0.950 -0.2921  0.2864 -0.2177
 3635TIP3    H110911   2.780   0.504   0.870 -1.5798 -1.5919 -1.6340
 3635TIP3    H210912   2.682   0.437   0.964 -0.0157 -0.7606  0.7022
 3636TIP3   OH210913   3.505   0.790   4.211 -0.0033 -0.2980 -0.2183
 3636TIP3    H110914   3.495   0.697   4.230 -2.0593 -0.3937 -1.4812
 3636TIP3    H210915   3.598   0.800   4.192  0.7218 -1.6049  2.1417
 3637TIP3   OH210916   4.878   3.168   1.164  0.3609 -0.6321 -0.3295
 3637TIP3    H110917   4.811   3.222   1.120  0.8024  0.4634  0.3114
 3637TIP3    H210918   4.932   3.231   1.211  0.7910 -1.6691  0.5868
 3638TIP3   OH210919   3.618   1.425   0.431  0.2527 -0.1347 -0.3123
 3638TIP3    H110920   3.636   1.470   0.348 -2.3351 -1.1258 -1.5267
 3638TIP3    H210921   3.622   1.494   0.497  0.9813  0.9578 -1.4463
 3639TIP3   OH210922   4.280   1.657   1.486 -0.0794  0.0076 -0.2588
 3639TIP3    H110923   4.228   1.727   1.444 -4.1372 -2.3210  0.3482
 3639TIP3    H210924   4.330   1.618   1.414 -1.0054  0.8842 -1.4199
 3640TIP3   OH210925   1.325   5.355   2.099 -0.8125  0.2301  0.2708
 3640TIP3    H110926   1.302   5.266   2.075 -1.9468  0.9294 -1.4806
 3640TIP3    H210927   1.300   5.363   2.191 -0.1900 -1.3792  0.6110
 3641TIP3   OH210928   2.020   3.254   4.531 -0.1306  0.2879 -0.2330
 3641TIP3    H110929   1.928   3.247   4.557  0.0021  2.6380  1.2395
 3641TIP3    H210930   2.042   3.346   4.547  3.0791 -0.6364  1.6693
 3642TIP3   OH210931   5.391   0.700   2.421 -0.0656 -0.2036 -0.0014
 3642TIP3    H110932   5.330   0.754   2.471  1.3093  1.2806  0.1326
 3642TIP3    H210933   5.447   0.659   2.487  0.8243  0.6172 -0.2297
 3643TIP3   OH210934   3.783   2.534   0.923 -0.0741 -0.0896 -0.3416
 3643TIP3    H110935   3.722   2.469   0.957  0.5249 -0.1187  0.7035
 3643TIP3    H210936   3.731   2.615   0.918 -0.3382 -0.2365  0.0230
 3644TIP3   OH210937   5.707   4.521   0.893  0.5621 -0.6805  0.7680
 3644TIP3    H110938   5.783   4.579   0.882  0.4042 -0.5486  0.3646
 3644TIP3    H210939   5.690   4.487   0.806  0.6907 -1.3952  1.0172
 3645TIP3   OH210940   4.749   2.037   1.030  1.3045 -0.3312 -0.3137
 3645TIP3    H110941   4.786   2.047   1.118  1.4815  0.2002 -0.4434
 3645TIP3    H210942   4.675   2.098   1.028  2.1184  0.6681 -0.9727
 3646TIP3   OH210943   3.425   1.695   4.559 -0.3494 -0.2160  0.1793
 3646TIP3    H110944   3.405   1.780   4.521 -1.0702 -0.6717 -0.4826
 3646TIP3    H210945   3.340   1.655   4.576 -0.0194 -0.8824  0.3160
 3647TIP3   OH210946   4.191   4.001   2.738  0.5597  0.2295 -0.0590
 3647TIP3    H110947   4.189   3.909   2.763  0.3959  0.4171  0.6532
 3647TIP3    H210948   4.225   4.046   2.816  1.1754  0.7074 -0.5969
 3648TIP3   OH210949   4.085   2.115   5.082  0.8610 -0.0971  0.6914
 3648TIP3    H110950   4.093   2.061   5.003  1.1790  0.6706  0.1830
 3648TIP3    H210951   4.153   2.182   5.072 -0.7169  1.5500  0.3728
 3649TIP3   OH210952   1.747   5.598   3.330 -0.0788  0.2206 -0.5506
 3649TIP3    H110953   1.670   5.655   3.336 -0.5272 -0.3663 -0.6643
 3649TIP3    H210954   1.820   5.655   3.354 -0.3358  1.2155 -2.0098
 3650TIP3   OH210955   1.721   0.696   4.325  0.7416 -0.2254  0.1706
 3650TIP3    H110956   1.662   0.766   4.354  1.9056  0.3383  1.2695
 3650TIP3    H210957   1.808   0.732   4.337  1.3569 -1.5827 -0.0378
 3651TIP3   OH210958   5.006   1.936   2.479 -0.7399 -0.0308 -0.0229
 3651TIP3    H110959   5.064   1.871   2.440  0.1995  0.0333  1.2079
 3651TIP3    H210960   5.034   2.020   2.442 -0.3621 -0.0568  0.2040
 3652TIP3   OH210961   6.253   4.195   2.387 -0.8794 -0.2271  0.2726
 3652TIP3    H110962   6.244   4.201   2.482  0.8048  0.9185  0.4052
 3652TIP3    H210963   6.338   4.152   2.375 -0.2047  1.3091 -0.6792
 3653TIP3   OH210964   5.598   5.730   2.142  0.8345 -0.6659 -0.5837
 3653TIP3    H110965   5.588   5.767   2.230  1.0178  0.3848 -0.9905
 3653TIP3    H210966   5.554   5.792   2.085  0.8791 -1.2490 -1.2614
 3654TIP3   OH210967   0.648   4.295   3.014  0.8068 -0.2386  0.0717
 3654TIP3    H110968   0.702   4.234   3.065  0.1657 -0.8913 -0.0181
 3654TIP3    H210969   0.579   4.241   2.977 -0.6238  0.7762  1.1537
 3655TIP3   OH210970   1.067   5.377   0.846 -0.3120  0.6422 -0.5157
 3655TIP3    H110971   1.087   5.465   0.878  1.6282 -0.6536  2.2544
 3655TIP3    H210972   1.016   5.337   0.917 -0.8610 -0.5985 -1.5728
 3656TIP3   OH210973   3.492   3.168   4.045 -0.1570 -0.7697  0.3785
 3656TIP3    H110974   3.477   3.120   3.963 -2.3439  0.1880  0.1560
 3656TIP3    H210975   3.564   3.228   4.024 -0.7284 -0.4965 -0.8674
 3657TIP3   OH210976   1.930   0.224   2.004  0.3120  0.5220  0.3017
 3657TIP3    H110977   1.901   0.302   2.052 -1.4090  0.3132 -0.3464
 3657TIP3    H210978   2.005   0.255   1.952 -0.4923  1.8166 -0.1265
 3658TIP3   OH210979   1.343   1.202   0.246 -0.2240 -0.0721  0.7116
 3658TIP3    H110980   1.412   1.204   0.180 -0.2307 -1.0769  0.6637
 3658TIP3    H210981   1.283   1.272   0.220  0.2654  0.1657  0.1980
 3659TIP3   OH210982   3.647   2.261   4.859 -0.7972 -0.6267 -0.2432
 3659TIP3    H110983   3.722   2.300   4.903 -0.5909 -0.2146 -0.9302
 3659TIP3    H210984   3.646   2.302   4.772  0.4008 -3.2757 -1.6526
 3660TIP3   OH210985   3.345   4.742   0.039 -0.4222  0.2206 -0.0201
 3660TIP3    H110986   3.279   4.785   0.095 -0.7791 -1.2813  0.7526
 3660TIP3    H210987   3.361   4.658   0.081 -0.0122 -0.5718 -1.7075
 3661TIP3   OH210988   3.135   4.183   3.763 -0.2755 -0.1923  0.8669
 3661TIP3    H110989   3.222   4.184   3.722  0.2161 -1.2916  1.8568
 3661TIP3    H210990   3.116   4.091   3.779 -1.5218  0.0502  0.9154
 3662TIP3   OH210991   0.609   1.476   3.458 -0.1982  0.4540 -0.4982
 3662TIP3    H110992   0.517   1.482   3.485 -0.4236 -0.2845 -1.0695
 3662TIP3    H210993   0.623   1.556   3.407 -0.1492  1.1912  0.6439
 3663TIP3   OH210994   5.906   0.756   4.902 -0.0676  0.0226  0.6335
 3663TIP3    H110995   5.918   0.765   4.997  0.2147 -2.8951  0.9715
 3663TIP3    H210996   5.871   0.668   4.891  1.6876 -0.4455 -2.0861
 3664TIP3   OH210997   5.522   2.667   1.174 -0.2508 -0.0652  0.1026
 3664TIP3    H110998   5.489   2.743   1.222 -2.4173 -0.3890 -0.7877
 3664TIP3    H210999   5.452   2.602   1.180  1.1204 -1.6371 -0.0464
 3665TIP3   OH211000   6.295   4.716   5.114 -0.1673  0.4109  0.3946
 3665TIP3    H111001   6.275   4.781   5.181 -0.9026  0.7549 -0.1406
 3665TIP3    H211002   6.244   4.744   5.038 -0.3199 -0.6678  0.0904
 3666TIP3   OH211003   3.618   3.709   0.725  0.3571  0.2837 -0.4858
 3666TIP3    H111004   3.530   3.737   0.701  0.3874  0.2038 -0.6905
 3666TIP3    H211005   3.626   3.621   0.688  0.2593 -0.0024  0.1487
 3667TIP3   OH211006   4.041   1.743   4.288  0.3571  0.0974  0.2869
 3667TIP3    H111007   4.104   1.700   4.230  0.7003  0.4922  0.3574
 3667TIP3    H211008   4.089   1.818   4.323 -0.0436  0.2030  0.6145
 3668TIP3   OH211009   6.259   4.783   0.760  0.5434 -0.0590 -0.3783
 3668TIP3    H111010   6.227   4.698   0.790  1.3222  0.3085  1.6369
 3668TIP3    H211011   6.333   4.763   0.703  0.3233 -0.7338 -0.4320
 3669TIP3   OH211012   1.150   4.459   2.088  0.2904  0.6899  0.2691
 3669TIP3    H111013   1.072   4.514   2.093 -0.6528 -0.7127  2.5700
 3669TIP3    H211014   1.221   4.516   2.119 -0.2291  1.2993  0.3695
 3670TIP3   OH211015   3.888   0.646   2.359  0.1832 -0.2007  0.1427
 3670TIP3    H111016   3.847   0.728   2.330  0.4713 -0.8701 -2.4594
 3670TIP3    H211017   3.977   0.671   2.383 -0.7449  0.7721  2.9717
 3671TIP3   OH211018   0.435   5.290   3.190  0.0939 -0.0434 -0.2246
 3671TIP3    H111019   0.353   5.307   3.143  0.0625 -1.6753 -0.8133
 3671TIP3    H211020   0.475   5.218   3.143  1.1060 -0.3244  1.0171
 3672TIP3   OH211021   4.545   0.921   4.739  0.3340 -0.4745  0.7679
 3672TIP3    H111022   4.600   0.919   4.661  1.2618 -0.8781  1.4177
 3672TIP3    H211023   4.461   0.885   4.710 -0.0821  1.3955 -0.5795
 3673TIP3   OH211024   0.030   5.163   4.659 -0.5188 -0.2220  0.1152
 3673TIP3    H111025   0.024   5.176   4.564 -0.7174 -1.0598  0.0084
 3673TIP3    H211026   0.117   5.196   4.682 -0.4070 -0.1649 -0.3785
 3674TIP3   OH211027   4.727   5.474   1.963  0.0489  0.1850 -0.0706
 3674TIP3    H111028   4.793   5.490   1.895 -0.9308 -1.3628 -1.4612
 3674TIP3    H211029   4.709   5.560   2.000  0.5025  1.1094 -1.8983
 3675TIP3   OH211030   2.502   1.822   4.086 -0.7244 -0.0086 -0.0944
 3675TIP3    H111031   2.557   1.854   4.016  1.9176 -1.0618  1.3637
 3675TIP3    H211032   2.478   1.733   4.060  0.2400 -0.3922  0.2994
 3676TIP3   OH211033   2.214   0.593   1.135  0.2149 -0.6505  0.4058
 3676TIP3    H111034   2.240   0.617   1.046  0.7184 -0.6705  0.5461
 3676TIP3    H211035   2.133   0.543   1.124 -0.8162  1.0109  0.0843
 3677TIP3   OH211036   2.684   2.703   2.355 -0.2164  0.0397  0.0975
 3677TIP3    H111037   2.632   2.696   2.275 -0.5955 -2.4950  0.4828
 3677TIP3    H211038   2.619   2.714   2.425  0.0219  0.7394  0.2139
 3678TIP3   OH211039   3.679   2.219   1.189 -0.2844 -0.3111 -0.1747
 3678TIP3    H111040   3.642   2.266   1.114 -0.2780 -0.0478 -0.0177
 3678TIP3    H211041   3.750   2.167   1.152 -1.7383 -1.9917 -0.7197
 3679TIP3   OH211042   4.942   0.644   4.446 -0.0580 -0.4164 -0.2341
 3679TIP3    H111043   4.997   0.630   4.369  0.0431 -1.7366  0.0491
 3679TIP3    H211044   4.966   0.573   4.506  0.0136  0.7042  1.1118
 3680TIP3   OH211045   0.454   4.826   2.117 -0.2557  0.2178 -0.3406
 3680TIP3    H111046   0.513   4.898   2.138  0.6998 -0.9689  1.3574
 3680TIP3    H211047   0.392   4.824   2.190  0.0342 -0.9513 -0.1049
 3681TIP3   OH211048   1.840   1.320   1.172 -0.4780 -0.1992 -0.0169
 3681TIP3    H111049   1.848   1.374   1.251 -0.0252  1.8809 -1.3999
 3681TIP3    H211050   1.756   1.276   1.182  0.3869 -1.4937  2.4560
 3682TIP3   OH211051   4.699   4.621   0.131 -0.3961  0.0162  0.0994
 3682TIP3    H111052   4.629   4.581   0.080 -0.6293  0.9008 -0.2990
 3682TIP3    H211053   4.679   4.715   0.129 -0.0796  0.1256  1.3175
 3683TIP3   OH211054   1.761   2.327   3.232  0.3275  0.1070 -0.0115
 3683TIP3    H111055   1.707   2.380   3.173 -2.1179 -1.1756  0.9232
 3683TIP3    H211056   1.788   2.389   3.301 -1.4690  0.4655  0.4253
 3684TIP3   OH211057   0.849   1.819   3.155  0.4444  0.6742  0.6721
 3684TIP3    H111058   0.936   1.841   3.123  0.9127 -0.9820  0.7021
 3684TIP3    H211059   0.800   1.793   3.077  0.4695  0.1034  0.8421
 3685TIP3   OH211060   3.443   4.163   2.073  0.9816 -0.1368 -0.6021
 3685TIP3    H111061   3.456   4.210   2.155  2.8797 -1.7676  0.0953
 3685TIP3    H211062   3.513   4.195   2.015  2.6110 -2.3099  0.0415
 3686TIP3   OH211063   2.031   5.817   4.615  0.2840 -0.1724 -0.5953
 3686TIP3    H111064   1.983   5.802   4.696 -1.0392 -1.1447 -1.5306
 3686TIP3    H211065   1.999   5.902   4.584 -0.8216 -0.7884 -1.1835
 3687TIP3   OH211066   0.479   0.517   4.968 -0.1284 -0.3298  0.1616
 3687TIP3    H111067   0.545   0.568   5.015  0.4278 -1.3079  0.4790
 3687TIP3    H211068   0.498   0.426   4.992 -2.0961 -0.5878  0.9063
 3688TIP3   OH211069   3.170   4.568   3.217  0.7304  0.0399 -0.1585
 3688TIP3    H111070   3.212   4.549   3.302  0.6684  0.0907 -0.1172
 3688TIP3    H211071   3.201   4.497   3.160 -0.7787 -1.1409  0.4210
 3689TIP3   OH211072   3.375   4.931   1.986  0.0545  0.0249  0.3994
 3689TIP3    H111073   3.380   4.938   1.891 -0.7876 -0.5314  0.3081
 3689TIP3    H211074   3.298   4.982   2.010  1.2745  1.6857  0.9796
 3690TIP3   OH211075   3.088   0.354   0.806 -0.6247  0.1820  0.0661
 3690TIP3    H111076   3.144   0.336   0.730  0.0907 -0.3572  0.7117
 3690TIP3    H211077   3.142   0.332   0.882 -0.7335  2.2725  0.8197
 3691TIP3   OH211078   0.943   3.839   4.688  0.8851 -0.5146  0.1762
 3691TIP3    H111079   0.934   3.744   4.687  0.3063 -0.4585 -0.7432
 3691TIP3    H211080   0.901   3.869   4.608  0.9627  0.5323  0.5008
 3692TIP3   OH211081   2.882   5.806   0.678 -0.1109 -0.0445  0.3533
 3692TIP3    H111082   2.951   5.795   0.612  0.5995  0.9058  0.9190
 3692TIP3    H211083   2.877   5.901   0.692 -0.9454 -0.1638  0.9521
 3693TIP3   OH211084   4.081   0.814   2.487 -0.1688  0.2028  0.3756
 3693TIP3    H111085   4.130   0.892   2.514  1.7255 -0.8539  0.2003
 3693TIP3    H211086   4.125   0.785   2.407 -1.3381 -0.6075  0.0047
 3694TIP3   OH211087   2.267   2.032   2.140  0.3128  0.5084  0.7341
 3694TIP3    H111088   2.260   2.043   2.235  0.5280 -0.8769  0.9224
 3694TIP3    H211089   2.358   2.005   2.126  0.7180  2.1308 -0.0344
 3695TIP3   OH211090   2.434   2.814   1.419 -0.2474  0.2179  0.2082
 3695TIP3    H111091   2.432   2.817   1.515  0.2817  2.3392  0.1950
 3695TIP3    H211092   2.526   2.830   1.397  0.6658 -4.5504 -0.6890
 3696TIP3   OH211093   3.960   3.115   0.170 -0.1573 -0.2964  0.2814
 3696TIP3    H111094   3.893   3.100   0.237  0.0457 -2.9673 -0.0323
 3696TIP3    H211095   4.039   3.137   0.220 -0.4714 -0.3401  0.8064
 3697TIP3   OH211096   5.438   5.600   4.368 -0.1221  0.1866 -0.1639
 3697TIP3    H111097   5.383   5.571   4.440 -0.4033 -0.5604 -0.6690
 3697TIP3    H211098   5.520   5.628   4.410 -0.7955  1.1124  0.5705
 3698TIP3   OH211099   1.215   0.516   3.009  0.6887  0.2515 -0.8143
 3698TIP3    H111100   1.127   0.482   2.989  0.7052 -0.0170 -0.4500
 3698TIP3    H211101   1.204   0.560   3.094  1.1775 -0.8990 -0.1259
 3699TIP3   OH211102   2.944   5.952   2.394  0.4142  0.2216  0.1696
 3699TIP3    H111103   2.949   5.897   2.472  1.0478 -0.3686 -0.2791
 3699TIP3    H211104   3.032   5.951   2.358  0.3184  1.1632 -0.1043
 3700TIP3   OH211105   1.446   2.181   2.320 -0.5142  0.1123 -0.3472
 3700TIP3    H111106   1.522   2.126   2.338 -0.4941  0.2695  0.0579
 3700TIP3    H211107   1.379   2.120   2.287 -0.9457 -0.3897  1.3631
 3701TIP3   OH211108   5.401   4.586   3.843  0.0260 -0.4163  0.5941
 3701TIP3    H111109   5.320   4.542   3.817 -0.5626  1.5735 -1.2104
 3701TIP3    H211110   5.454   4.517   3.884 -1.2638 -2.5199 -1.0836
 3702TIP3   OH211111   1.008   3.910   2.937 -0.6931 -0.0187  0.6077
 3702TIP3    H111112   1.000   3.897   3.031  3.5441  0.6246  1.2495
 3702TIP3    H211113   1.070   3.982   2.927  0.4980 -1.2787 -2.6463
 3703TIP3   OH211114   3.603   2.666   1.798  0.2802  0.8051 -0.6657
 3703TIP3    H111115   3.556   2.663   1.882  0.6239 -0.0867 -0.4891
 3703TIP3    H211116   3.681   2.611   1.813  0.0534  0.1660 -1.7383
 3704TIP3   OH211117   0.713   2.933   3.995  0.2985 -0.1335 -0.3676
 3704TIP3    H111118   0.638   2.875   4.003  1.0663 -0.9595  1.6784
 3704TIP3    H211119   0.705   2.993   4.069 -0.2197  2.1621 -2.1622
 3705TIP3   OH211120   0.243   0.632   4.759 -0.3797 -0.2003  0.3411
 3705TIP3    H111121   0.301   0.607   4.832  1.4080 -0.2371 -1.0282
 3705TIP3    H211122   0.245   0.556   4.701 -0.0881  0.6087 -0.7403
 3706TIP3   OH211123   2.425   5.263   5.033 -0.0615  0.0920  0.5375
 3706TIP3    H111124   2.424   5.359   5.036  0.6428  0.1608 -0.7945
 3706TIP3    H211125   2.397   5.236   5.120  0.9571  1.5159  1.3470
 3707TIP3   OH211126   6.102   2.109   2.810  0.3703  0.0577 -0.1987
 3707TIP3    H111127   6.012   2.135   2.789  0.2384  1.3836  1.7078
 3707TIP3    H211128   6.101   2.095   2.905  2.2951  0.6899 -0.0389
 3708TIP3   OH211129   4.214   5.243   1.337  0.5283  0.1003  0.1512
 3708TIP3    H111130   4.134   5.287   1.367  0.1193 -0.3796 -0.2264
 3708TIP3    H211131   4.266   5.233   1.417 -0.5206 -1.1026  0.7149
 3709TIP3   OH211132   4.884   0.022   3.602  0.4227 -0.4430  0.1449
 3709TIP3    H111133   4.901   0.095   3.661  1.2928 -0.8795  0.4643
 3709TIP3    H211134   4.930  -0.052   3.642 -0.1435 -1.0815 -0.3543
 3710TIP3   OH211135   5.663   0.570   4.095 -0.1618 -0.9699  0.0373
 3710TIP3    H111136   5.715   0.561   4.015 -0.0947  0.3832 -0.0835
 3710TIP3    H211137   5.577   0.600   4.065  0.1764  0.5945  0.5221
 3711TIP3   OH211138   3.663   0.227   0.563 -0.5151 -0.2605 -0.0066
 3711TIP3    H111139   3.666   0.315   0.600  0.5547 -0.7548  1.1545
 3711TIP3    H211140   3.585   0.227   0.507  0.1058  1.7806 -0.9795
 3712TIP3   OH211141   6.008   0.243   3.028  0.1398  0.5534  0.2114
 3712TIP3    H111142   6.071   0.303   2.989 -0.2815  0.6239 -0.3763
 3712TIP3    H211143   5.929   0.296   3.041  0.6599  0.9045  2.4328
 3713TIP3   OH211144   2.053   4.714   4.467  0.3418 -0.3919  0.3272
 3713TIP3    H111145   2.082   4.699   4.558  1.7358  2.1668  0.3896
 3713TIP3    H211146   1.958   4.722   4.474  0.5830  2.4401  2.1101
 3714TIP3   OH211147   5.959   1.052   1.295  0.2315  0.6382 -0.2407
 3714TIP3    H111148   5.915   1.059   1.211  0.2799  2.1622 -0.1702
 3714TIP3    H211149   6.052   1.044   1.273  0.2574  1.1823 -0.3319
 3715TIP3   OH211150   0.670   0.296   0.359  0.1011  0.3273  0.0358
 3715TIP3    H111151   0.600   0.246   0.319  0.1869  0.3804 -0.1814
 3715TIP3    H211152   0.666   0.382   0.316 -0.6242  0.8183  1.0277
 3716TIP3   OH211153   6.242   5.033   4.223  0.0966  0.3664  0.8831
 3716TIP3    H111154   6.175   4.972   4.254  0.3960 -0.5152 -0.1318
 3716TIP3    H211155   6.212   5.059   4.136  2.0454 -1.6781 -0.5046
 3717TIP3   OH211156   3.675   3.350   0.292  0.0719  0.0855  0.0400
 3717TIP3    H111157   3.750   3.370   0.348  0.0241 -0.7049  0.3963
 3717TIP3    H211158   3.696   3.265   0.254 -0.9343 -0.4428  0.6410
 3718TIP3   OH211159   6.174   3.223   0.001  0.3234  0.3282 -0.0673
 3718TIP3    H111160   6.118   3.280   0.053  0.6051  0.7213 -0.1915
 3718TIP3    H211161   6.177   3.141   0.050  0.0278  0.4653  0.1816
 3719TIP3   OH211162   3.206   5.278   1.519 -0.7736 -0.3249  0.5278
 3719TIP3    H111163   3.292   5.278   1.561  0.7022 -0.9741 -2.2143
 3719TIP3    H211164   3.147   5.319   1.583  1.6265  0.4894  2.3568
 3720TIP3   OH211165   0.855   0.427   0.517 -0.4885 -0.1722 -0.2597
 3720TIP3    H111166   0.826   0.349   0.470  0.2428 -1.5494  1.4946
 3720TIP3    H211167   0.844   0.498   0.453 -3.0843 -1.3467 -1.2421
 3721TIP3   OH211168   4.985   0.793   4.906 -0.3746 -0.1532  0.2835
 3721TIP3    H111169   5.004   0.799   4.812  0.3893  0.7148  0.4744
 3721TIP3    H211170   4.966   0.883   4.932  3.1822  0.3450  1.6887
 3722TIP3   OH211171   2.482   1.143   2.772  0.5756  0.3745  0.0024
 3722TIP3    H111172   2.415   1.210   2.761  1.6492  1.3494 -0.8203
 3722TIP3    H211173   2.456   1.073   2.712  0.8012  1.1736 -1.0611
 3723TIP3   OH211174   3.186   1.631   2.319  0.5574 -0.3688 -0.1773
 3723TIP3    H111175   3.271   1.626   2.363 -0.3921  0.2293  1.8948
 3723TIP3    H211176   3.127   1.583   2.377 -0.5115 -0.9016 -1.6571
 3724TIP3   OH211177   2.904   3.810   4.597 -0.5484  0.0868 -0.0201
 3724TIP3    H111178   2.995   3.820   4.568 -0.3920 -0.0468  0.3977
 3724TIP3    H211179   2.891   3.881   4.660 -0.8615  0.3434 -0.3772
 3725TIP3   OH211180   4.096   1.440   4.506 -0.2518  0.3456 -0.4530
 3725TIP3    H111181   4.159   1.390   4.454  0.9361  0.1829  1.0727
 3725TIP3    H211182   4.016   1.387   4.503 -0.4134  0.6163 -2.5260
 3726TIP3   OH211183   1.150   1.624   4.377  0.0918  0.0541  0.5832
 3726TIP3    H111184   1.103   1.562   4.433 -0.5898  1.2137  1.3259
 3726TIP3    H211185   1.239   1.625   4.412 -0.4527  1.1765  2.0566
 3727TIP3   OH211186   0.186   4.833   0.020  0.2330 -0.0345  0.4106
 3727TIP3    H111187   0.240   4.800   0.092 -0.0866  0.8200  1.0496
 3727TIP3    H211188   0.102   4.788   0.031  0.2774 -0.1191  0.4034
 3728TIP3   OH211189   5.412   0.423   4.280 -0.1871  0.2373 -0.4681
 3728TIP3    H111190   5.410   0.517   4.261 -1.2564  0.2483 -0.3611
 3728TIP3    H211191   5.436   0.382   4.196  1.1976  0.6360 -0.3015
 3729TIP3   OH211192   3.128   4.970   4.967  0.4686  0.3106 -0.3787
 3729TIP3    H111193   3.158   4.880   4.954 -0.6728 -0.2656  0.7693
 3729TIP3    H211194   3.042   4.973   4.925 -0.4123  0.2413  1.3532
 3730TIP3   OH211195   1.566   5.145   2.557  0.0720 -0.0391  0.0464
 3730TIP3    H111196   1.589   5.128   2.649 -0.7949  2.0177  0.6927
 3730TIP3    H211197   1.602   5.232   2.539 -2.1959  0.8154 -0.6683
 3731TIP3   OH211198   0.379   2.299   1.082 -0.3739 -0.4667 -0.1269
 3731TIP3    H111199   0.378   2.380   1.031 -1.8162 -1.0956 -1.1934
 3731TIP3    H211200   0.297   2.301   1.131  0.3743 -0.5062  1.1647
 3732TIP3   OH211201   5.223   4.744   2.730  0.3877 -0.1388  0.2522
 3732TIP3    H111202   5.295   4.790   2.773 -0.0363 -0.0522  0.8827
 3732TIP3    H211203   5.221   4.781   2.641 -0.7218  1.9862  1.0936
 3733TIP3   OH211204   2.114   0.259   4.747  0.9214  0.4074 -0.2417
 3733TIP3    H111205   2.119   0.216   4.832  1.6176  1.3918  0.2253
 3733TIP3    H211206   2.029   0.232   4.712  0.9236 -0.5541  0.4559
 3734TIP3   OH211207   1.036   5.762   4.131  0.0247  0.0793  0.3294
 3734TIP3    H111208   1.027   5.805   4.216 -2.2408 -0.3356  0.3781
 3734TIP3    H211209   1.076   5.678   4.151 -0.0289  0.1896  0.9349
 3735TIP3   OH211210   4.495   1.400   1.054 -0.2204 -0.1476  0.1726
 3735TIP3    H111211   4.442   1.430   1.128  1.3404  2.4944  0.3578
 3735TIP3    H211212   4.575   1.366   1.095  0.4264  0.8301 -0.2463
 3736TIP3   OH211213   5.274   1.031   2.444  0.6853 -0.2957  0.4395
 3736TIP3    H111214   5.352   1.085   2.428  0.7148 -0.4741 -0.0361
 3736TIP3    H211215   5.294   0.984   2.525  1.7195 -1.4727 -0.4619
 3737TIP3   OH211216   1.078   4.199   0.216  0.4481 -0.2851  0.0136
 3737TIP3    H111217   1.088   4.192   0.311 -1.5499  0.0887  0.2948
 3737TIP3    H211218   1.002   4.256   0.204  0.1520 -0.9980 -1.8156
 3738TIP3   OH211219   5.132   3.882   3.618  0.2809 -0.4993  0.4442
 3738TIP3    H111220   5.223   3.887   3.590  0.0555  0.1741 -0.2200
 3738TIP3    H211221   5.082   3.877   3.536 -0.2752 -0.9491  0.8028
 3739TIP3   OH211222   2.976   3.976   3.327 -0.2584 -0.0638  0.0144
 3739TIP3    H111223   2.980   3.898   3.272 -0.2293 -0.9488  1.2174
 3739TIP3    H211224   2.914   3.953   3.396 -0.1943  0.9581  0.4344
 3740TIP3   OH211225   2.106   4.394   3.928 -0.4587 -0.1248 -0.0971
 3740TIP3    H111226   2.069   4.443   3.854 -0.2833 -2.5258 -1.8988
 3740TIP3    H211227   2.065   4.433   4.005 -0.7580  2.4006 -1.4292
 3741TIP3   OH211228   2.902   2.038   1.017 -0.5236  0.0765  0.1944
 3741TIP3    H111229   2.887   2.050   1.111 -1.8796  0.6561 -0.0779
 3741TIP3    H211230   2.878   1.947   0.999  2.0047 -0.7937  0.7962
 3742TIP3   OH211231   3.153   0.197   1.054  0.4282  0.7686  0.3124
 3742TIP3    H111232   3.166   0.104   1.072  0.5969  0.6274 -0.5145
 3742TIP3    H211233   3.059   0.212   1.068  0.5934  0.7357  1.5673
 3743TIP3   OH211234   2.543   5.209   0.049  0.5171 -0.2415  0.3970
 3743TIP3    H111235   2.452   5.193   0.024  0.3970 -1.5975  1.5093
 3743TIP3    H211236   2.586   5.124   0.037  1.7266  0.4684 -0.4308
 3744TIP3   OH211237   5.603   2.437   1.480 -0.5399 -0.0936  0.4331
 3744TIP3    H111238   5.517   2.422   1.441 -0.6288  0.5999  0.3365
 3744TIP3    H211239   5.639   2.350   1.494 -0.9302 -0.3739 -0.2593
 3745TIP3   OH211240   0.652   4.442   1.559  0.1601 -0.3545 -0.3065
 3745TIP3    H111241   0.582   4.502   1.580 -0.3772 -1.1912  0.3531
 3745TIP3    H211242   0.725   4.498   1.533 -0.7189  0.5293 -0.9405
 3746TIP3   OH211243   1.514   0.942   4.346  0.6588  0.1985  0.0173
 3746TIP3    H111244   1.419   0.945   4.360  0.8268  1.7032  1.0931
 3746TIP3    H211245   1.528   0.994   4.267  0.6088  0.0358 -0.1006
 3747TIP3   OH211246   2.267   4.033   4.842 -0.3818 -0.0957  0.0193
 3747TIP3    H111247   2.345   4.086   4.853  0.9076 -1.7253 -0.7573
 3747TIP3    H211248   2.273   3.967   4.911 -0.5409 -0.8247 -0.6478
 3748TIP3   OH211249   4.272   0.128   5.003 -0.4124  0.1168  0.6711
 3748TIP3    H111250   4.281   0.055   5.064 -0.5709 -1.4715 -1.0978
 3748TIP3    H211251   4.355   0.129   4.955  0.3640  2.3771  1.9115
 3749TIP3   OH211252   1.476   1.655   4.427  0.2014 -0.3289  0.3235
 3749TIP3    H111253   1.496   1.746   4.407 -0.3935 -0.1350  0.6182
 3749TIP3    H211254   1.505   1.643   4.517 -0.2617 -0.2702  0.4804
 3750TIP3   OH211255   3.792   0.702   2.002 -0.3898  0.1790  0.1635
 3750TIP3    H111256   3.774   0.730   2.092  0.4291 -1.1082  0.7511
 3750TIP3    H211257   3.872   0.651   2.008 -0.7232 -0.5537 -1.1909
 3751TIP3   OH211258   3.010   4.725   3.484  0.4059  0.4963 -0.1726
 3751TIP3    H111259   2.996   4.700   3.575 -0.1892  1.4640  0.0130
 3751TIP3    H211260   2.959   4.805   3.472  1.4679  1.0871 -1.0047
 3752TIP3   OH211261   2.994   3.904   1.248  0.1014  0.0668  0.0849
 3752TIP3    H111262   3.086   3.906   1.274 -0.0338 -0.2609  0.6031
 3752TIP3    H211263   2.951   3.853   1.317 -0.1989 -1.2223 -1.0184
 3753TIP3   OH211264   4.372   1.583   3.154  0.8875  0.3779 -0.3105
 3753TIP3    H111265   4.426   1.661   3.138 -0.7674  1.7793  0.6070
 3753TIP3    H211266   4.300   1.590   3.093  1.5895 -1.4197 -1.4353
 3754TIP3   OH211267   0.590   3.346   1.508 -0.1536  0.2939 -0.1832
 3754TIP3    H111268   0.594   3.296   1.589 -0.9189 -0.9584 -0.8984
 3754TIP3    H211269   0.547   3.428   1.532 -0.9504 -0.3285  0.5432
 3755TIP3   OH211270   0.179   5.643   3.898  0.1149  0.8431  0.1263
 3755TIP3    H111271   0.088   5.623   3.921  0.2981  0.7566  0.8204
 3755TIP3    H211272   0.174   5.723   3.847 -0.3843  0.6537 -0.1308
 3756TIP3   OH211273   1.821   2.787   0.436 -0.2923 -0.2976 -0.5383
 3756TIP3    H111274   1.748   2.820   0.487 -0.9614 -0.4633 -1.3664
 3756TIP3    H211275   1.880   2.861   0.426  0.7518 -0.6820  1.9570
 3757TIP3   OH211276   2.608   4.194   3.250 -0.9608  0.4374 -0.2366
 3757TIP3    H111277   2.596   4.178   3.343 -0.5367 -3.9864 -0.6886
 3757TIP3    H211278   2.702   4.202   3.238 -0.7903 -1.4237 -0.4422
 3758TIP3   OH211279   2.882   5.235   4.646 -0.0822 -0.2851  0.1708
 3758TIP3    H111280   2.932   5.153   4.646  0.2849 -0.0620  0.7626
 3758TIP3    H211281   2.929   5.292   4.706 -0.8478  0.0543  0.4560
 3759TIP3   OH211282   3.131   2.487   4.455 -0.4656 -0.1261 -0.2185
 3759TIP3    H111283   3.061   2.547   4.430 -0.1482 -0.0006 -0.8386
 3759TIP3    H211284   3.089   2.402   4.465 -0.5339 -0.2856 -1.6761
 3760TIP3   OH211285   1.452   3.006   3.914  0.3739 -0.2763  0.1625
 3760TIP3    H111286   1.507   3.022   3.991  1.7166 -0.4656 -0.7163
 3760TIP3    H211287   1.416   2.919   3.928  0.5837 -0.2959  0.5997
 3761TIP3   OH211288   4.750   1.563   2.969  0.3896 -0.1770 -0.3527
 3761TIP3    H111289   4.668   1.568   2.920 -0.0432  0.3559  0.4118
 3761TIP3    H211290   4.727   1.520   3.051  1.0188 -0.6355 -0.4042
 3762TIP3   OH211291   1.857   1.699   3.410  0.2280 -0.0772 -0.1097
 3762TIP3    H111292   1.894   1.618   3.446  0.5261 -0.2924 -0.8610
 3762TIP3    H211293   1.847   1.680   3.316 -0.1245  0.6034 -0.2153
 3763TIP3   OH211294   3.648   3.667   3.006  0.3111 -0.8419  1.0548
 3763TIP3    H111295   3.721   3.728   2.992  0.5301 -1.3094  0.1019
 3763TIP3    H211296   3.689   3.586   3.036  0.3364 -1.5282 -0.7271
 3764TIP3   OH211297   1.875   0.755   1.397  0.2001 -0.0135 -0.0014
 3764TIP3    H111298   1.819   0.809   1.453  0.3864  0.5394 -0.3501
 3764TIP3    H211299   1.935   0.816   1.356 -0.2428 -0.3367 -1.1853
 3765TIP3   OH211300   6.085   5.572   4.651 -0.5367  0.1473 -0.5363
 3765TIP3    H111301   6.091   5.659   4.691  1.5566  0.0723 -0.5907
 3765TIP3    H211302   6.168   5.530   4.673 -0.7897 -1.1955 -2.0043
 3766TIP3   OH211303   6.122   0.754   2.923 -0.4839  0.2091 -0.2491
 3766TIP3    H111304   6.091   0.830   2.874  1.8741  2.0542  0.8858
 3766TIP3    H211305   6.218   0.757   2.914 -0.1839 -1.2446  1.7193
 3767TIP3   OH211306   0.363   2.347   1.935 -0.3586  0.4970 -0.1947
 3767TIP3    H111307   0.423   2.281   1.970  0.2829  0.2881 -1.6331
 3767TIP3    H211308   0.279   2.301   1.929  0.4957 -0.8832 -3.0071
 3768TIP3   OH211309   5.841   5.773   1.203 -0.0034 -0.2146  0.0044
 3768TIP3    H111310   5.902   5.759   1.275  0.2344  1.5179  0.1988
 3768TIP3    H211311   5.757   5.791   1.246  0.0139  0.2618 -0.1511
 3769TIP3   OH211312   5.244   0.376   2.949  0.4024 -0.2129  0.4242
 3769TIP3    H111313   5.241   0.330   3.032  0.0845  0.1605  0.6244
 3769TIP3    H211314   5.178   0.333   2.894 -1.1199  1.0429  1.1724
 3770TIP3   OH211315   1.952   4.364   2.297  0.6272  0.3784 -0.2597
 3770TIP3    H111316   1.903   4.355   2.379 -0.8372  2.7345 -0.7831
 3770TIP3    H211317   1.901   4.316   2.233  1.7357 -1.4044  0.1230
 3771TIP3   OH211318   3.535   3.039   0.814  0.6012  0.0964 -0.1982
 3771TIP3    H111319   3.469   3.099   0.779 -0.4071  0.1165  1.6230
 3771TIP3    H211320   3.488   2.958   0.830  1.1178 -0.0327  0.7094
 3772TIP3   OH211321   5.357   3.359   2.033  0.1361 -0.5532  0.1726
 3772TIP3    H111322   5.389   3.289   2.089  3.1698  0.8332  0.3539
 3772TIP3    H211323   5.410   3.353   1.954  0.3317  1.3847  0.1135
 3773TIP3   OH211324   6.046   1.337   2.099  0.0319  0.1135 -0.7075
 3773TIP3    H111325   5.990   1.350   2.176 -0.6210 -1.3609 -0.8983
 3773TIP3    H211326   6.046   1.242   2.086 -0.2242  0.3571 -2.7874
 3774TIP3   OH211327   1.549   3.637   4.643 -0.1533 -0.2551 -0.3582
 3774TIP3    H111328   1.568   3.556   4.597 -2.3342 -1.0350 -0.0119
 3774TIP3    H211329   1.540   3.702   4.574  1.7027 -0.2526 -0.6313
 3775TIP3   OH211330   2.069   0.640   0.467  0.6276  0.6591  0.5605
 3775TIP3    H111331   2.038   0.627   0.378  0.6759  0.1399  0.6172
 3775TIP3    H211332   1.990   0.630   0.521  0.7776 -0.0740  0.6565
 3776TIP3   OH211333   6.052   3.451   0.128  0.1247  0.0085  0.5061
 3776TIP3    H111334   6.120   3.511   0.097 -1.7733  1.3954 -1.3693
 3776TIP3    H211335   6.036   3.478   0.219  0.5344  1.1798  0.2542
 3777TIP3   OH211336   5.032   2.304   3.859 -0.2747  0.3189 -0.0821
 3777TIP3    H111337   5.071   2.353   3.787  1.0733  1.7798  1.5716
 3777TIP3    H211338   4.954   2.354   3.882 -0.8563 -0.2944 -0.6392
 3778TIP3   OH211339   4.370   0.856   3.028  0.5248 -0.3574 -0.1558
 3778TIP3    H111340   4.386   0.894   2.942  0.4114 -1.2361 -0.5725
 3778TIP3    H211341   4.368   0.762   3.013 -0.6653 -0.4758  0.6018
 3779TIP3   OH211342   0.305   4.261   0.899 -0.0841 -0.2844  0.4182
 3779TIP3    H111343   0.342   4.335   0.946 -2.4281  0.7173  0.8184
 3779TIP3    H211344   0.333   4.184   0.948  0.9201  0.4515  1.0220
 3780TIP3   OH211345   2.614   2.204   1.071  0.4057 -0.0068  0.1827
 3780TIP3    H111346   2.591   2.130   1.015  0.5413  0.1566 -0.0910
 3780TIP3    H211347   2.534   2.257   1.075  1.0667  1.2822 -1.8809
 3781TIP3   OH211348   1.436   5.265   4.272 -0.2228 -0.2505  0.4926
 3781TIP3    H111349   1.359   5.253   4.328 -0.7790  1.8721  0.2697
 3781TIP3    H211350   1.467   5.354   4.292  1.1439 -0.4245 -0.6702
 3782TIP3   OH211351   3.580   2.458   3.324 -0.1694 -0.4886 -0.3355
 3782TIP3    H111352   3.589   2.551   3.348 -1.0859 -0.4431 -0.1243
 3782TIP3    H211353   3.580   2.412   3.408 -1.5941 -0.4909 -0.3020
 3783TIP3   OH211354   1.775   2.333   0.784  0.1506  0.0847  0.1546
 3783TIP3    H111355   1.726   2.272   0.728  0.4324  0.6053 -0.6863
 3783TIP3    H211356   1.860   2.342   0.741  0.8785 -0.5334  1.4055
 3784TIP3   OH211357   0.505   2.975   2.082 -0.2555  0.0917  0.3862
 3784TIP3    H111358   0.441   2.912   2.114  0.0870  0.3644  1.6875
 3784TIP3    H211359   0.487   2.983   1.989  0.4149 -2.7732 -0.0887
 3785TIP3   OH211360   4.505   1.855   2.589 -0.0166  0.3929 -0.1982
 3785TIP3    H111361   4.591   1.885   2.558 -1.2270  1.5330 -2.8830
 3785TIP3    H211362   4.450   1.934   2.584 -1.5352 -0.6141  0.0978
 3786TIP3   OH211363   0.702   0.414   1.926 -0.2907 -0.3639  0.1451
 3786TIP3    H111364   0.784   0.396   1.880 -0.3501 -1.5132  0.4655
 3786TIP3    H211365   0.729   0.431   2.016 -0.3122  0.4201  0.0138
 3787TIP3   OH211366   0.047   5.066   2.696 -0.0743 -0.2412 -0.1765
 3787TIP3    H111367   0.079   5.037   2.782 -1.0563 -0.1663  0.2265
 3787TIP3    H211368  -0.041   5.030   2.689  0.1357 -0.5610 -1.3307
 3788TIP3   OH211369   2.336   1.303   4.811 -0.6727 -0.2870 -0.3441
 3788TIP3    H111370   2.408   1.298   4.875 -1.0190 -0.1948  0.0614
 3788TIP3    H211371   2.379   1.321   4.728 -0.2349 -0.0612 -0.0765
 3789TIP3   OH211372   6.259   0.221   4.314 -0.2371 -0.3983 -0.4768
 3789TIP3    H111373   6.275   0.294   4.253  0.0316 -1.2210 -1.4061
 3789TIP3    H211374   6.234   0.148   4.258 -1.4867 -0.7703  0.5213
 3790TIP3   OH211375   3.052   0.380   3.446 -0.1598  0.4883 -0.5000
 3790TIP3    H111376   3.019   0.406   3.532  0.4252  0.1058 -0.1540
 3790TIP3    H211377   3.033   0.455   3.390 -0.1126  0.9405  0.0751
 3791TIP3   OH211378   0.563   2.491   5.095 -0.3550 -0.6707 -0.6948
 3791TIP3    H111379   0.546   2.528   5.181  0.7255  0.3133 -0.8777
 3791TIP3    H211380   0.609   2.408   5.112  0.8247  0.0350 -0.3126
 3792TIP3   OH211381   0.874   4.550   1.438 -0.3967 -0.4615 -0.5484
 3792TIP3    H111382   0.908   4.575   1.352  0.0324  0.8651 -0.0212
 3792TIP3    H211383   0.910   4.615   1.498  0.5490 -2.2251  0.9096
 3793TIP3   OH211384   1.999   0.979   3.611  0.2815 -0.5265 -0.2533
 3793TIP3    H111385   2.043   0.895   3.602 -0.2674 -0.8038 -0.3456
 3793TIP3    H211386   1.912   0.958   3.644  0.4998  0.0797  0.7972
 3794TIP3   OH211387   3.974   1.018   3.036  0.9270  0.9515  0.5096
 3794TIP3    H111388   4.058   0.994   3.074  0.9158  1.1635  0.6682
 3794TIP3    H211389   3.932   1.072   3.103  0.3406  0.2089  0.7536
 3795TIP3   OH211390   2.969   3.872   2.638 -0.4987 -0.4956 -0.6793
 3795TIP3    H111391   2.963   3.800   2.701 -0.8002  0.0896 -0.0195
 3795TIP3    H211392   2.922   3.944   2.680  2.1186  0.9881 -0.0596
 3796TIP3   OH211393   0.374   3.755   0.683 -0.2158 -0.0419 -0.0512
 3796TIP3    H111394   0.431   3.796   0.750 -0.2667 -1.2500  0.7628
 3796TIP3    H211395   0.427   3.757   0.603  0.5952 -0.2267  0.4585
 3797TIP3   OH211396   0.778   2.893   0.383 -0.5879  0.3902 -0.1417
 3797TIP3    H111397   0.765   2.885   0.288  1.1773 -0.6921 -0.3354
 3797TIP3    H211398   0.758   2.806   0.417  1.0548  0.0853  0.1385
 3798TIP3   OH211399   4.268   5.992   3.452 -0.3079 -0.3186  0.3710
 3798TIP3    H111400   4.299   5.991   3.361 -0.1172 -1.0507  0.4469
 3798TIP3    H211401   4.234   5.904   3.467 -1.5616  0.1829  0.5901
 3799TIP3   OH211402   2.940   0.121   4.524 -0.0713 -0.4159  0.1521
 3799TIP3    H111403   2.861   0.168   4.549 -1.0204 -0.9440 -1.6672
 3799TIP3    H211404   2.951   0.139   4.431  2.0591 -0.2379  0.3726
 3800TIP3   OH211405   1.212   3.241   1.125 -0.0377  0.4898 -0.1257
 3800TIP3    H111406   1.177   3.163   1.083 -0.2313 -0.3839  1.5690
 3800TIP3    H211407   1.298   3.253   1.085  0.9339 -1.9036  1.0366
 3801TIP3   OH211408   5.252   3.990   0.673  0.1041 -0.4772  0.3081
 3801TIP3    H111409   5.331   4.033   0.643  0.8262 -1.6453  0.4488
 3801TIP3    H211410   5.180   4.039   0.634  0.9545 -1.2057 -2.3575
 3802TIP3   OH211411   4.310   0.571   1.368 -0.1234 -0.0319 -0.0699
 3802TIP3    H111412   4.392   0.620   1.375 -0.5134  0.4935  0.9120
 3802TIP3    H211413   4.338   0.480   1.352  0.6344  0.1918 -0.0385
 3803TIP3   OH211414   1.916   4.654   2.560 -0.7037 -0.4164 -0.2654
 3803TIP3    H111415   1.984   4.621   2.501  0.6451  1.3508  0.2102
 3803TIP3    H211416   1.943   4.744   2.580 -2.3611 -0.1863  1.2083
 3804TIP3   OH211417   1.263   4.035   1.726  0.0631  0.6274  0.1733
 3804TIP3    H111418   1.195   3.975   1.695  1.2111 -0.3987 -0.4226
 3804TIP3    H211419   1.236   4.056   1.815  0.6716 -2.4372  1.2035
 3805TIP3   OH211420   2.406  -0.002   3.485 -0.0726  0.9210 -0.4521
 3805TIP3    H111421   2.361  -0.016   3.401  1.2224  0.6521 -1.1220
 3805TIP3    H211422   2.338   0.034   3.542 -0.3948  3.7953 -2.4056
 3806TIP3   OH211423   0.793   5.757   0.082 -0.5689  0.0936 -0.0692
 3806TIP3    H111424   0.829   5.676   0.044 -0.9487 -0.1282  0.0329
 3806TIP3    H211425   0.743   5.796   0.011 -0.4050  0.2289 -0.1111
 3807TIP3   OH211426   3.903   4.882   4.107  0.0325 -0.9714 -0.5334
 3807TIP3    H111427   3.920   4.795   4.145 -1.7999 -1.5907 -1.0291
 3807TIP3    H211428   3.812   4.878   4.079  0.0446  0.9923 -0.9672
 3808TIP3   OH211429   6.247   1.409   5.085  0.2739  0.1623 -0.7493
 3808TIP3    H111430   6.163   1.440   5.119 -0.2732  0.0192 -1.9349
 3808TIP3    H211431   6.310   1.478   5.109 -0.0938  0.0785  0.4966
 3809TIP3   OH211432   1.443   2.198   4.757 -0.5920  0.0798  0.1528
 3809TIP3    H111433   1.521   2.173   4.707  0.2447  1.0940  0.9070
 3809TIP3    H211434   1.407   2.115   4.788  0.0662 -0.4179 -0.3807
 3810TIP3   OH211435   5.569   5.594   1.596  0.2589  0.2011 -0.1251
 3810TIP3    H111436   5.492   5.628   1.642  0.5638  0.9752 -0.1794
 3810TIP3    H211437   5.644   5.629   1.644  0.6071 -1.1007  0.3471
 3811TIP3   OH211438   1.811   3.847   3.901  0.6116 -0.0651 -0.1230
 3811TIP3    H111439   1.736   3.901   3.925  0.5637  0.5889 -1.6112
 3811TIP3    H211440   1.855   3.828   3.984 -0.8481  0.0316  0.7123
 3812TIP3   OH211441   4.440   2.794   0.383  0.1125 -0.3966  0.1444
 3812TIP3    H111442   4.355   2.760   0.355 -0.6311 -0.1862  1.9471
 3812TIP3    H211443   4.470   2.848   0.310 -0.5454 -1.7292 -1.1659
 3813TIP3   OH211444   1.529   0.115   3.691  0.3622 -0.2880  0.2560
 3813TIP3    H111445   1.462   0.056   3.724 -0.1116 -0.0708 -0.2896
 3813TIP3    H211446   1.534   0.096   3.598  1.4886 -0.7095  0.3916
 3814TIP3   OH211447   2.919   1.087   0.597 -0.3116  0.9626 -0.0404
 3814TIP3    H111448   2.896   1.170   0.555 -0.4195  2.5530  2.9066
 3814TIP3    H211449   3.015   1.084   0.593 -0.2076  1.9794  1.0281
 3815TIP3   OH211450   1.862   4.794   0.197  0.1603  0.0777  0.0137
 3815TIP3    H111451   1.774   4.800   0.234  0.6510  0.7590  1.1087
 3815TIP3    H211452   1.916   4.762   0.269  0.5909 -1.7053 -1.0386
 3816TIP3   OH211453   1.221   3.335   3.915  0.4590  0.2862 -0.0062
 3816TIP3    H111454   1.168   3.267   3.873  0.4060  1.9394 -2.9033
 3816TIP3    H211455   1.288   3.357   3.850 -0.4208  3.9599  0.0579
 3817TIP3   OH211456   1.038   2.645   2.923  0.6993  0.1169 -1.1673
 3817TIP3    H111457   0.996   2.666   2.840  0.6238 -1.5754 -1.5984
 3817TIP3    H211458   0.985   2.574   2.960  1.1333  0.3694  0.0047
 3818TIP3   OH211459   2.288   1.455   0.361  0.7564  0.0590  0.4723
 3818TIP3    H111460   2.281   1.360   0.371 -0.1100  0.0241 -0.3137
 3818TIP3    H211461   2.216   1.490   0.413 -0.5592  0.1265 -1.3066
 3819TIP3   OH211462   4.152   0.042   1.067 -0.3449 -0.5455  0.6167
 3819TIP3    H111463   4.139   0.024   1.159 -0.2643  1.7449  1.1494
 3819TIP3    H211464   4.148   0.138   1.060  1.1159 -0.5502 -1.5109
 3820TIP3   OH211465   5.084   2.983   0.591  0.3583 -0.4536 -0.0592
 3820TIP3    H111466   4.994   2.977   0.620  0.4419 -1.2942  0.0423
 3820TIP3    H211467   5.102   2.899   0.548  1.0428 -0.2426 -0.2106
 3821TIP3   OH211468   2.618   5.153   2.205 -0.3024 -0.2975  0.1669
 3821TIP3    H111469   2.694   5.124   2.155  0.0036  1.4616 -0.4945
 3821TIP3    H211470   2.548   5.159   2.140 -0.3895  0.2303  0.3018
 3822TIP3   OH211471   3.717   3.405   3.126  0.1212  0.2695 -0.1219
 3822TIP3    H111472   3.672   3.346   3.066  1.1508 -0.4093 -0.2536
 3822TIP3    H211473   3.679   3.386   3.212 -0.6969  0.5840 -0.4070
 3823TIP3   OH211474   5.740   2.501   2.654 -0.2252  0.2245  0.4205
 3823TIP3    H111475   5.692   2.572   2.695  1.0076  1.3858 -0.0625
 3823TIP3    H211476   5.832   2.523   2.668  0.2115 -1.7889  1.1100
 3824TIP3   OH211477   3.551   3.807   1.723 -0.4765 -0.5969  0.2474
 3824TIP3    H111478   3.529   3.826   1.814 -2.2633 -1.9759  0.1604
 3824TIP3    H211479   3.487   3.742   1.696 -0.4412  0.2914 -2.2284
 3825TIP3   OH211480   2.133   3.964   3.060  0.0965  0.4832  0.3318
 3825TIP3    H111481   2.167   3.996   3.143  0.0285 -1.2241  1.0663
 3825TIP3    H211482   2.211   3.936   3.012  0.0246  0.0641  0.4559
 3826TIP3   OH211483   4.832   4.812   4.944 -0.2491 -0.1370 -0.3499
 3826TIP3    H111484   4.927   4.818   4.943 -0.2379 -0.3063 -0.5215
 3826TIP3    H211485   4.805   4.853   5.026 -0.1001  1.0190 -0.8557
 3827TIP3   OH211486   6.244   1.670   4.489 -0.2832 -0.6321  0.8050
 3827TIP3    H111487   6.314   1.607   4.472 -0.9096 -0.8145 -1.3315
 3827TIP3    H211488   6.289   1.754   4.501  0.3384 -0.7739 -0.3997
 3828TIP3   OH211489   4.690   4.572   2.868 -0.1771  0.0702 -0.5262
 3828TIP3    H111490   4.761   4.633   2.887 -1.1200  1.8103 -2.2179
 3828TIP3    H211491   4.732   4.486   2.864  1.4327  0.7586  0.5588
 3829TIP3   OH211492   4.822   2.688   2.672 -0.8621  0.1968  0.0554
 3829TIP3    H111493   4.795   2.627   2.741 -0.6094 -0.5024 -0.4622
 3829TIP3    H211494   4.771   2.767   2.690 -0.4623  0.1909  1.3229
 3830TIP3   OH211495   3.861   3.235   4.295  0.1838 -1.3243 -0.0577
 3830TIP3    H111496   3.845   3.248   4.388 -0.6731 -1.5132 -0.1720
 3830TIP3    H211497   3.922   3.161   4.291  0.8335 -0.8174  0.3761
 3831TIP3   OH211498   4.248   3.790   1.087 -0.0795 -0.1621  0.2916
 3831TIP3    H111499   4.312   3.736   1.042 -0.8879 -1.1341  0.2696
 3831TIP3    H211500   4.288   3.877   1.092  0.8371 -0.5272 -0.5379
 3832TIP3   OH211501   0.613   2.774   2.305  0.2551 -0.0211  0.0325
 3832TIP3    H111502   0.673   2.802   2.236  1.1902 -0.0994  0.7941
 3832TIP3    H211503   0.528   2.810   2.280  0.3341 -0.9754 -1.7216
 3833TIP3   OH211504   2.227   4.345   2.038 -0.0462 -0.0666 -0.6278
 3833TIP3    H111505   2.151   4.395   2.070  0.3765 -0.6854  1.4811
 3833TIP3    H211506   2.189   4.278   1.982 -1.3659 -1.7112  2.0569
 3834TIP3   OH211507   1.853   5.330   3.350  0.0245  0.0288  0.5862
 3834TIP3    H111508   1.897   5.341   3.434 -1.0714 -0.2360  1.2190
 3834TIP3    H211509   1.807   5.413   3.336 -2.1563 -0.8920  1.7118
 3835TIP3   OH211510   1.481   4.489   1.104  0.1309  0.1065  0.1211
 3835TIP3    H111511   1.461   4.521   1.192  0.1423  1.0780 -0.2147
 3835TIP3    H211512   1.467   4.395   1.109  1.3535 -0.0331  1.4946
 3836TIP3   OH211513   5.148   2.588   1.693 -0.1905 -0.5624  0.3610
 3836TIP3    H111514   5.196   2.597   1.775 -0.7831 -1.0321  0.7710
 3836TIP3    H211515   5.073   2.646   1.703  0.2368  0.1082 -0.2438
 3837TIP3   OH211516   4.783   2.792   2.331 -0.7550  0.3067 -0.8701
 3837TIP3    H111517   4.840   2.716   2.344 -1.9226 -1.2349 -3.7673
 3837TIP3    H211518   4.769   2.827   2.419  0.8050 -2.1079  0.4542
 3838TIP3   OH211519   2.465   5.754   1.189 -0.1699 -0.7340  0.0654
 3838TIP3    H111520   2.414   5.673   1.183  0.0473 -0.9543  1.0321
 3838TIP3    H211521   2.521   5.753   1.111 -0.3825 -1.3619 -0.0859
 3839TIP3   OH211522   4.401   3.816   0.482  0.1641 -0.3536 -0.0123
 3839TIP3    H111523   4.354   3.830   0.564  0.0856  0.2155 -0.1511
 3839TIP3    H211524   4.342   3.764   0.428  0.9009 -2.2541  0.9258
 3840TIP3   OH211525   1.760   4.772   4.522  0.1890 -0.3065 -0.3833
 3840TIP3    H111526   1.673   4.731   4.525  0.0755 -0.0285  0.4268
 3840TIP3    H211527   1.749   4.852   4.573  1.4480 -1.2741  1.5121
 3841TIP3   OH211528   3.178   4.973   3.446 -0.0874  0.0392 -0.3753
 3841TIP3    H111529   3.227   5.049   3.413 -2.1605  1.6293  0.0022
 3841TIP3    H211530   3.091   5.008   3.466 -0.8491 -2.2845  0.6420
 3842TIP3   OH211531   2.466   3.524   1.300 -0.8193  0.9498  0.0950
 3842TIP3    H111532   2.517   3.456   1.345  0.9200  1.9171 -0.3367
 3842TIP3    H211533   2.376   3.494   1.308 -0.2808 -0.4904  1.4958
 3843TIP3   OH211534   4.093   2.264   4.728 -0.3700  0.1353  0.3083
 3843TIP3    H111535   4.116   2.299   4.641 -1.2905 -2.1982 -0.9730
 3843TIP3    H211536   4.027   2.324   4.762 -1.4809  0.0368 -1.5369
 3844TIP3   OH211537   1.573   2.980   3.267 -0.5333  0.1063 -0.3307
 3844TIP3    H111538   1.480   2.990   3.291 -0.8682  0.0869 -1.5624
 3844TIP3    H211539   1.591   3.053   3.208  0.2078  0.0399 -0.1966
 3845TIP3   OH211540   6.239   0.889   2.128 -0.1189 -0.2930  0.2048
 3845TIP3    H111541   6.275   0.807   2.095 -0.8093 -0.5899  0.1832
 3845TIP3    H211542   6.176   0.863   2.195 -2.2027  0.0694 -1.5339
 3846TIP3   OH211543   0.585   2.097   1.541  0.2990  0.2341 -0.8582
 3846TIP3    H111544   0.600   2.105   1.447 -1.6134  1.7166 -1.0875
 3846TIP3    H211545   0.496   2.064   1.549  0.6618 -0.5194  0.4561
 3847TIP3   OH211546   1.255   4.835   4.274 -0.1749  1.1984  0.5128
 3847TIP3    H111547   1.339   4.841   4.319 -0.7358 -0.0333  1.8182
 3847TIP3    H211548   1.232   4.926   4.254  1.5638  1.5452 -0.1151
 3848TIP3   OH211549   6.207   4.393   2.133 -0.1049  0.2094 -0.0463
 3848TIP3    H111550   6.281   4.358   2.183 -1.0919 -0.6041  0.9191
 3848TIP3    H211551   6.192   4.328   2.064  0.2566  0.5213 -0.4210
 3849TIP3   OH211552   5.962   3.761   1.948  0.1956 -0.4795  0.1852
 3849TIP3    H111553   5.877   3.772   1.991  0.1444  2.3194 -0.4565
 3849TIP3    H211554   6.026   3.758   2.019 -0.2568 -0.6262  0.5916
 3850TIP3   OH211555   3.188   4.572   4.056  0.2785 -0.3547  0.1415
 3850TIP3    H111556   3.104   4.553   4.013 -0.3621 -0.2045  1.3054
 3850TIP3    H211557   3.253   4.553   3.988 -0.7886  3.6541 -2.3565
 3851TIP3   OH211558   4.691   1.940   4.848 -0.1058  0.1827  0.3453
 3851TIP3    H111559   4.629   1.986   4.792 -0.6997  0.8484  1.5034
 3851TIP3    H211560   4.777   1.972   4.821 -0.4825  1.6756  0.8375
 3852TIP3   OH211561   2.524   3.779   0.372  0.0482  0.1985 -0.1052
 3852TIP3    H111562   2.524   3.874   0.378  0.2141  0.1609  0.7067
 3852TIP3    H211563   2.508   3.760   0.280  0.3022  1.0122 -0.3236
 3853TIP3   OH211564   1.905   0.872   3.282  0.8004  0.1966 -0.1447
 3853TIP3    H111565   1.993   0.908   3.292  1.1312  0.2035 -2.5989
 3853TIP3    H211566   1.918   0.785   3.245 -0.2134  0.3198 -0.8391
 3854TIP3   OH211567   5.011   0.388   2.117  0.0213  0.6283 -0.6759
 3854TIP3    H111568   5.002   0.294   2.103 -0.3058  0.4337  0.7017
 3854TIP3    H211569   5.101   0.399   2.148 -0.7033  0.3960  1.6839
 3855TIP3   OH211570   1.693   5.992   4.040 -0.2621  0.2815 -0.3281
 3855TIP3    H111571   1.756   5.947   4.098  0.1268  1.5828  0.3007
 3855TIP3    H211572   1.634   5.923   4.012  0.5903 -0.7200  0.2296
 3856TIP3   OH211573   2.144   0.945   2.394 -0.2574  0.4126  0.4470
 3856TIP3    H111574   2.067   0.889   2.382  0.5193 -0.2511 -1.9599
 3856TIP3    H211575   2.120   1.029   2.354  0.6807 -0.2460 -1.6292
 3857TIP3   OH211576   3.099   4.213   4.817  0.2123 -0.1225  0.2000
 3857TIP3    H111577   3.158   4.199   4.744 -0.2939 -0.3660 -0.1682
 3857TIP3    H211578   3.147   4.182   4.894  0.5174 -0.4062 -0.1070
 3858TIP3   OH211579   3.967   4.848   3.681  0.2902  0.5486 -0.0357
 3858TIP3    H111580   3.947   4.832   3.589 -0.7931  1.5258  0.0060
 3858TIP3    H211581   3.911   4.787   3.730  2.3738 -1.4967  0.0025
 3859TIP3   OH211582   3.750   3.158   0.678  0.2382  0.2919 -0.2246
 3859TIP3    H111583   3.789   3.229   0.730  0.5541 -0.9381  1.3022
 3859TIP3    H211584   3.693   3.112   0.739  0.2515 -0.9331 -1.1022
 3860TIP3   OH211585   0.535   1.026   2.427  0.1496 -0.1791  0.0973
 3860TIP3    H111586   0.576   1.089   2.487 -0.8793 -0.3816  1.0496
 3860TIP3    H211587   0.608   0.971   2.398  0.9997  1.1955 -0.4573
 3861TIP3   OH211588   4.097   3.780   1.808  0.3188 -0.0669  0.3817
 3861TIP3    H111589   4.158   3.741   1.744 -1.2260  0.1811 -1.3134
 3861TIP3    H211590   4.102   3.874   1.791  0.2488  0.0461  0.9696
 3862TIP3   OH211591   4.223   3.611   4.474 -0.4080 -0.5208  0.4890
 3862TIP3    H111592   4.215   3.701   4.506  0.8314 -0.0446 -0.4389
 3862TIP3    H211593   4.148   3.600   4.415  0.2658  0.4816 -0.6093
 3863TIP3   OH211594   5.073   0.196   2.815  0.4411  0.3227 -0.1432
 3863TIP3    H111595   5.069   0.184   2.910 -0.0672  1.3335 -0.0240
 3863TIP3    H211596   5.073   0.107   2.780  0.8112 -0.0702  0.8014
 3864TIP3   OH211597   3.267   1.923   4.428  0.9301 -0.1260 -0.3318
 3864TIP3    H111598   3.203   1.853   4.441  1.1827 -0.4446 -0.8021
 3864TIP3    H211599   3.292   1.917   4.336  1.3216  0.2668 -0.2558
 3865TIP3   OH211600   1.837   0.956   3.020 -0.3457  0.0758 -0.2941
 3865TIP3    H111601   1.861   0.933   3.110 -0.6213 -0.5053 -0.3661
 3865TIP3    H211602   1.906   0.919   2.966 -1.3052 -1.4991 -0.4921
 3866TIP3   OH211603   0.118   4.091   0.305 -0.2185  0.5857 -0.9329
 3866TIP3    H111604   0.179   4.098   0.231  1.2326  1.0374  0.2373
 3866TIP3    H211605   0.132   4.172   0.355  0.4157 -0.6197  0.9517
 3867TIP3   OH211606   5.720   1.432   3.261 -0.0735 -0.7485  0.4437
 3867TIP3    H111607   5.633   1.393   3.274 -0.2466 -0.6002 -0.2374
 3867TIP3    H211608   5.777   1.357   3.244 -0.1562 -0.8074  0.4259
 3868TIP3   OH211609   2.560   3.182   4.641  0.0163  0.5060  0.1165
 3868TIP3    H111610   2.607   3.166   4.722 -2.1363  0.9771  1.5479
 3868TIP3    H211611   2.477   3.136   4.652 -1.4812  2.8342 -0.6078
 3869TIP3   OH211612   5.427   1.817   1.281  0.7877 -0.1037 -0.2482
 3869TIP3    H111613   5.394   1.795   1.368 -0.2399 -0.5780 -0.7317
 3869TIP3    H211614   5.444   1.733   1.239 -1.2075 -0.0262 -1.3876
 3870TIP3   OH211615   1.884   2.287   2.426 -0.2322  0.5130  0.5149
 3870TIP3    H111616   1.812   2.317   2.482 -0.4391  0.3640  0.3290
 3870TIP3    H211617   1.847   2.285   2.338 -0.0740  0.1897  0.4543
 3871TIP3   OH211618   3.954   0.833   3.947  0.2198 -0.1143  0.4982
 3871TIP3    H111619   4.022   0.869   4.004  0.7710  1.6053 -1.1472
 3871TIP3    H211620   3.998   0.819   3.863 -1.2958  0.4434 -0.4282
 3872TIP3   OH211621   2.018   0.995   1.345  0.0866 -0.5099  0.1058
 3872TIP3    H111622   2.063   1.059   1.290  0.5916 -2.1847 -1.5301
 3872TIP3    H211623   2.073   0.988   1.423  0.9719 -0.2161 -0.4717
 3873TIP3   OH211624   4.992   2.561   2.888  0.0059  0.6820 -0.0314
 3873TIP3    H111625   4.910   2.514   2.876  0.1010 -0.1051  2.0341
 3873TIP3    H211626   4.967   2.654   2.892 -0.5941  0.5582 -0.7412
 3874TIP3   OH211627   5.483   2.701   0.903 -0.4481 -0.1579 -0.2575
 3874TIP3    H111628   5.492   2.686   0.997  1.2202  0.2884 -0.3204
 3874TIP3    H211629   5.399   2.745   0.894 -0.8902 -0.7076  0.9501
 3875TIP3   OH211630   0.946   4.674   2.129  0.2485 -0.2531  0.0519
 3875TIP3    H111631   0.875   4.637   2.181  0.4664 -0.0543  0.4936
 3875TIP3    H211632   0.903   4.704   2.049 -0.2077  0.0660  0.4082
 3876TIP3   OH211633   4.832   0.608   3.465  0.1502 -0.4498 -0.0166
 3876TIP3    H111634   4.886   0.588   3.389 -0.1886  1.2074 -0.7345
 3876TIP3    H211635   4.850   0.537   3.527  1.4935 -1.0758 -1.0830
 3877TIP3   OH211636   2.183   5.284   1.866 -0.0755 -0.4077 -0.5053
 3877TIP3    H111637   2.173   5.364   1.813 -0.1987 -0.7690 -1.0384
 3877TIP3    H211638   2.138   5.217   1.815 -0.6314 -0.6596  0.3089
 3878TIP3   OH211639   4.870   5.318   2.298  0.3583 -0.2489  0.3414
 3878TIP3    H111640   4.788   5.328   2.347 -0.7884 -0.6941 -1.3995
 3878TIP3    H211641   4.854   5.243   2.240  1.1932  0.9877 -1.5823
 3879TIP3   OH211642   2.175   3.695   2.215 -0.3488 -0.1960  0.0064
 3879TIP3    H111643   2.087   3.709   2.180 -1.1367 -1.1415  1.5049
 3879TIP3    H211644   2.220   3.644   2.148 -1.1030 -0.1344 -0.5512
 3880TIP3   OH211645   1.812   0.715   4.666 -0.1063 -0.0503 -0.0194
 3880TIP3    H111646   1.886   0.744   4.611  0.7805 -0.2246  1.0570
 3880TIP3    H211647   1.738   0.768   4.635  0.2673 -0.4202 -1.6456
 3881TIP3   OH211648   0.461   3.652   3.063  0.7936 -0.1990  0.1480
 3881TIP3    H111649   0.555   3.666   3.074  1.0786 -1.0108 -1.0127
 3881TIP3    H211650   0.454   3.596   2.985 -0.7345  1.0220 -0.6445
 3882TIP3   OH211651   5.050   4.198   4.578  0.2057 -0.1597 -0.0300
 3882TIP3    H111652   4.985   4.134   4.607  0.3123  0.4505  1.6615
 3882TIP3    H211653   5.112   4.147   4.526 -0.6749 -1.0716 -0.2241
 3883TIP3   OH211654   5.900   2.005   3.030 -0.2111 -0.3042  0.4796
 3883TIP3    H111655   5.878   1.974   3.118  2.1800 -0.2589  1.1653
 3883TIP3    H211656   5.867   1.936   2.972 -2.4193 -0.0324  1.2907
 3884TIP3   OH211657   1.475   3.672   4.181 -0.4844  0.4832  0.4720
 3884TIP3    H111658   1.431   3.757   4.189 -0.8207  0.3123  0.4318
 3884TIP3    H211659   1.551   3.679   4.240 -0.4011  0.8814  0.3174
 3885TIP3   OH211660   6.150   0.038   4.645 -0.3996  0.4919 -0.0773
 3885TIP3    H111661   6.148   0.134   4.636 -0.2104  0.5524  0.5074
 3885TIP3    H211662   6.146   0.006   4.555  0.8798  1.0801 -0.3718
 3886TIP3   OH211663   3.024   0.045   2.196 -0.2499  0.1950 -0.2352
 3886TIP3    H111664   3.053  -0.007   2.271 -1.2882 -0.0391  0.0242
 3886TIP3    H211665   2.976   0.118   2.235  2.7194  2.4577 -0.4891
 3887TIP3   OH211666   2.590   5.959   0.208  0.3542 -0.2343 -0.5762
 3887TIP3    H111667   2.609   5.892   0.275  1.3012 -1.5032 -2.0392
 3887TIP3    H211668   2.497   5.977   0.218  0.1929 -1.3825  0.2134
 3888TIP3   OH211669   2.727   2.973   2.262 -0.1657  0.8230 -0.4541
 3888TIP3    H111670   2.731   2.896   2.319 -1.0500  0.5455 -0.7477
 3888TIP3    H211671   2.697   3.044   2.319 -1.3182  0.4841 -0.6207
 3889TIP3   OH211672   2.949   0.188   2.927  0.1986 -0.4175 -0.5117
 3889TIP3    H111673   2.918   0.117   2.982  0.2177  1.3660  1.9871
 3889TIP3    H211674   3.042   0.170   2.914  0.5786 -0.0723  1.4889
 3890TIP3   OH211675   3.161   5.601   3.894  0.1725  0.1862  0.4739
 3890TIP3    H111676   3.202   5.589   3.980  1.2384  0.8045  0.0590
 3890TIP3    H211677   3.134   5.513   3.868  0.3965 -0.0929  1.1622
 3891TIP3   OH211678   1.739   0.994   3.708  0.0487  0.5990  0.1045
 3891TIP3    H111679   1.700   1.079   3.725 -1.6658 -0.0073 -0.5934
 3891TIP3    H211680   1.666   0.939   3.681  1.0812 -1.1494  0.7079
 3892TIP3   OH211681   2.995   5.886   0.306  0.3150 -0.0588  0.4257
 3892TIP3    H111682   2.908   5.865   0.273 -0.2014  1.2670  0.8816
 3892TIP3    H211683   3.043   5.914   0.228  0.1992 -0.3290  0.2527
 3893TIP3   OH211684   1.749   0.291   0.351  0.4219  0.0597  0.4791
 3893TIP3    H111685   1.807   0.303   0.276  0.4776 -2.6592 -0.0272
 3893TIP3    H211686   1.764   0.200   0.378 -2.6772 -0.3813  1.1197
 3894TIP3   OH211687   0.420   3.018   0.712 -0.4611 -0.2297  0.1981
 3894TIP3    H111688   0.459   3.105   0.707  1.6538 -1.0988  0.4712
 3894TIP3    H211689   0.445   2.975   0.630 -0.9954 -0.7676  0.3048
 3895TIP3   OH211690   1.037   0.947   4.868  0.1145  0.3648  0.0644
 3895TIP3    H111691   1.004   1.020   4.921  0.4497  0.3268  0.3295
 3895TIP3    H211692   1.089   0.989   4.800  2.0571  0.3182  1.4242
 3896TIP3   OH211693   5.016   0.985   2.788  0.2417 -0.6608  0.2645
 3896TIP3    H111694   5.074   0.939   2.727  0.0817 -1.0546  0.4098
 3896TIP3    H211695   5.026   1.077   2.765 -0.9359 -0.9007 -1.3694
 3897TIP3   OH211696   4.201   4.187   2.295 -0.0461  0.2283 -0.1162
 3897TIP3    H111697   4.257   4.235   2.355 -1.6392  1.1757  0.6849
 3897TIP3    H211698   4.150   4.129   2.352 -1.3011  0.8526 -0.5819
 3898TIP3   OH211699   2.150   0.351   2.612  0.0849 -0.0299  0.3883
 3898TIP3    H111700   2.158   0.436   2.569 -0.6737  0.6626  1.5519
 3898TIP3    H211701   2.087   0.304   2.558 -1.2363  1.0072  0.9626
 3899TIP3   OH211702   2.202   1.663   0.918 -0.3399  0.7056 -0.3428
 3899TIP3    H111703   2.193   1.641   1.011 -0.4603  1.7995 -0.0827
 3899TIP3    H211704   2.160   1.590   0.872 -0.1087  0.0604  0.4455
 3900TIP3   OH211705   2.598   0.799   3.493  0.1227 -0.1402  0.3522
 3900TIP3    H111706   2.631   0.753   3.570 -0.2477 -0.7987  0.1230
 3900TIP3    H211707   2.598   0.734   3.424  1.6736  0.7630 -0.5624
 3901TIP3   OH211708   5.172   1.522   3.253  0.6601  0.3210  0.6359
 3901TIP3    H111709   5.108   1.504   3.322 -0.6046 -2.9304 -1.1500
 3901TIP3    H211710   5.253   1.480   3.284  0.5500  0.2689  0.8538
 3902TIP3   OH211711   0.269   5.652   2.876  0.3659  0.3659  0.1737
 3902TIP3    H111712   0.220   5.721   2.920  1.0745  1.2057 -0.2881
 3902TIP3    H211713   0.319   5.699   2.809 -0.4561 -0.8211 -1.3319
 3903TIP3   OH211714   5.069   0.764   0.243 -0.1896  0.3307 -0.0825
 3903TIP3    H111715   5.066   0.846   0.194 -1.8239 -1.0322 -2.5107
 3903TIP3    H211716   4.988   0.719   0.219  1.8495 -3.1872 -1.1203
 3904TIP3   OH211717   3.274   2.753   4.562  0.4301  0.4706  0.1395
 3904TIP3    H111718   3.252   2.690   4.494 -0.6149  0.2900  0.6292
 3904TIP3    H211719   3.350   2.715   4.606 -0.3495 -0.5882  0.5988
 3905TIP3   OH211720   4.141   2.451   1.315  0.4290  0.0864  0.6808
 3905TIP3    H111721   4.180   2.371   1.349  1.4125  0.1238 -0.3060
 3905TIP3    H211722   4.082   2.421   1.246 -0.3889  0.1168  1.3544
 3906TIP3   OH211723   2.689   5.245   1.124 -0.0775 -0.2022  0.4243
 3906TIP3    H111724   2.625   5.178   1.101 -0.2767  0.5992 -1.5134
 3906TIP3    H211725   2.752   5.200   1.180 -0.9792 -1.6332  0.3237
 3907TIP3   OH211726   1.746   4.496   4.237  0.4213  0.8986  0.2254
 3907TIP3    H111727   1.669   4.552   4.249  0.7710  1.0391  2.1114
 3907TIP3    H211728   1.734   4.458   4.150 -0.6632  2.6040 -0.4327
 3908TIP3   OH211729   2.921   3.967  -0.006  0.8033 -0.1892 -0.3317
 3908TIP3    H111730   2.974   3.890   0.012  0.5989  0.3164  2.9102
 3908TIP3    H211731   2.902   4.005   0.080 -2.7236  1.0923 -1.4980
 3909TIP3   OH211732   3.545   1.689   1.483  0.2824 -0.0589 -0.1405
 3909TIP3    H111733   3.462   1.737   1.487  1.3444  1.7578  1.7863
 3909TIP3    H211734   3.521   1.603   1.448 -2.1925  0.8213 -0.8272
 3910TIP3   OH211735   4.137   5.181   0.336  0.2218  0.3573 -0.3765
 3910TIP3    H111736   4.154   5.230   0.256  0.5017  0.7624 -0.0706
 3910TIP3    H211737   4.224   5.168   0.374  0.2303 -0.9150 -0.7656
 3911TIP3   OH211738   3.671   2.578   1.364 -0.1042 -0.0984 -0.3561
 3911TIP3    H111739   3.740   2.641   1.345 -0.0416  0.1445  0.6406
 3911TIP3    H211740   3.589   2.627   1.350 -0.0553  0.3536  0.8514
 3912TIP3   OH211741   2.730   1.390   2.093 -0.7462  0.0853 -0.4340
 3912TIP3    H111742   2.811   1.434   2.067 -1.3297  1.6879  0.3434
 3912TIP3    H211743   2.759   1.314   2.143  0.2925  0.9839  0.3754
 3913TIP3   OH211744   2.170   5.875   3.295  0.3508  0.5433 -0.2682
 3913TIP3    H111745   2.179   5.863   3.201 -0.0537  0.6314 -0.3192
 3913TIP3    H211746   2.238   5.819   3.333  0.1417  0.0710 -0.5887
 3914TIP3   OH211747   0.451   0.624   3.975  0.3152  0.4674 -0.4819
 3914TIP3    H111748   0.521   0.646   4.036  1.9260  0.3809 -2.1982
 3914TIP3    H211749   0.395   0.564   4.023  1.9400 -0.1906  0.6781
 3915TIP3   OH211750   0.114   3.608   2.835 -0.4711  0.3082  0.0895
 3915TIP3    H111751   0.146   3.696   2.855  2.2368 -1.1068  2.8695
 3915TIP3    H211752   0.141   3.592   2.744 -2.2568  2.7278 -0.9556
 3916TIP3   OH211753   2.398   3.977   2.699  0.0883  0.0448  0.6681
 3916TIP3    H111754   2.358   4.063   2.710 -1.5553 -0.1752 -2.4664
 3916TIP3    H211755   2.374   3.929   2.779 -2.1747  1.3608  0.8457
 3917TIP3   OH211756   6.190   0.702   3.651 -0.5736  0.1991 -0.0807
 3917TIP3    H111757   6.110   0.728   3.605 -1.5875 -0.3092  1.3235
 3917TIP3    H211758   6.195   0.607   3.641  0.2363  0.2884 -0.7011
 3918TIP3   OH211759   2.717   4.838   4.587  0.0047 -0.6729 -0.7580
 3918TIP3    H111760   2.663   4.908   4.551 -1.3148 -1.3153 -0.0623
 3918TIP3    H211761   2.762   4.801   4.511 -2.2785 -1.6255 -1.7312
 3919TIP3   OH211762   0.551   3.798   4.401  0.2717 -0.2178 -0.1495
 3919TIP3    H111763   0.482   3.758   4.348  0.2155 -0.0375 -0.2134
 3919TIP3    H211764   0.534   3.892   4.395 -1.4463 -0.2533  2.5035
 3920TIP3   OH211765   1.867   5.412   2.734 -0.2256  0.2736  0.4632
 3920TIP3    H111766   1.859   5.499   2.772  1.9023  0.7783 -0.1123
 3920TIP3    H211767   1.957   5.387   2.752 -0.8011 -1.8601  0.6508
 3921TIP3   OH211768   1.281   4.687   1.808 -0.4294  0.5017 -0.1172
 3921TIP3    H111769   1.322   4.637   1.878 -1.5519 -0.3970 -0.0690
 3921TIP3    H211770   1.230   4.754   1.853 -0.6479  0.3229 -0.0992
 3922TIP3   OH211771   6.112   3.426   0.611  0.2168 -0.2501  0.4469
 3922TIP3    H111772   6.117   3.330   0.613  0.7761 -0.2319  0.0908
 3922TIP3    H211773   6.197   3.455   0.642  1.4252  0.1019 -2.8223
 3923TIP3   OH211774   4.573   5.541   3.631  0.1816  0.1438 -0.5020
 3923TIP3    H111775   4.624   5.593   3.693  0.9153  0.8746 -1.6814
 3923TIP3    H211776   4.482   5.563   3.651  0.4667  2.6960 -1.5634
 3924TIP3   OH211777   4.290   0.404   3.970 -0.5037  0.2553 -0.1105
 3924TIP3    H111778   4.212   0.395   3.914 -1.0091  0.2343  0.5901
 3924TIP3    H211779   4.362   0.416   3.908 -1.1605  1.0295 -0.7434
 3925TIP3   OH211780   4.139   1.598   1.710  0.2084 -0.3318  0.1929
 3925TIP3    H111781   4.123   1.668   1.773 -0.4590 -1.0682  0.8596
 3925TIP3    H211782   4.183   1.641   1.637  1.1072  0.5130  1.2040
 3926TIP3   OH211783   5.315   3.909   5.072  0.2892 -0.1169  0.6014
 3926TIP3    H111784   5.349   3.994   5.102  0.4362  0.5806 -1.3777
 3926TIP3    H211785   5.224   3.927   5.048  0.5748 -0.2872 -0.6514
 3927TIP3   OH211786   1.107   1.741   3.719 -0.0512  0.2716  0.0621
 3927TIP3    H111787   1.023   1.721   3.676  1.4256 -0.0933 -2.9427
 3927TIP3    H211788   1.143   1.656   3.741 -0.4297  0.4305  1.3764
 3928TIP3   OH211789   0.362   2.487   0.854 -0.0473  0.2541  0.5096
 3928TIP3    H111790   0.304   2.510   0.926 -0.1271 -0.6026  0.7297
 3928TIP3    H211791   0.419   2.563   0.844 -0.7166  0.8036  0.7783
 3929TIP3   OH211792   5.509   3.214   0.481 -0.0389  0.5665 -0.2827
 3929TIP3    H111793   5.482   3.185   0.394  0.6790  1.0972 -0.6955
 3929TIP3    H211794   5.597   3.249   0.469  0.7723 -0.8963  0.9735
 3930TIP3   OH211795   4.032   0.536   1.983  0.3706 -0.2159 -0.0762
 3930TIP3    H111796   4.014   0.485   1.904 -2.0129  0.6422 -0.1504
 3930TIP3    H211797   4.106   0.592   1.957 -1.5147  1.4188 -2.4604
 3931TIP3   OH211798   1.537   0.098   2.775 -0.7989 -0.0170 -0.1052
 3931TIP3    H111799   1.500   0.118   2.861 -0.7561  0.7382 -0.2500
 3931TIP3    H211800   1.623   0.060   2.793 -0.7569  0.2151  0.1906
 3932TIP3   OH211801   1.738   3.647   0.277  0.1703 -0.2466  0.1274
 3932TIP3    H111802   1.764   3.558   0.255  0.7158 -0.2045  0.5551
 3932TIP3    H211803   1.653   3.659   0.236  0.6242 -0.5575 -0.9543
 3933TIP3   OH211804   0.575   1.323   4.489 -0.6332 -0.0662 -0.3996
 3933TIP3    H111805   0.553   1.269   4.565  0.8075 -0.0514  0.0388
 3933TIP3    H211806   0.621   1.263   4.430  1.8067  0.8458  0.4798
 3934TIP3   OH211807   3.531   1.981   4.997 -0.0375 -0.5394  0.3007
 3934TIP3    H111808   3.627   1.986   5.002  0.0137 -2.1765  1.7503
 3934TIP3    H211809   3.513   1.893   4.967 -1.1068 -0.4940  0.7625
 3935TIP3   OH211810   4.306   3.397   5.050 -0.1490  0.1014  0.6559
 3935TIP3    H111811   4.309   3.436   5.137  0.0577  1.6481 -0.0280
 3935TIP3    H211812   4.392   3.414   5.013  0.4022 -2.0832  0.7444
 3936TIP3   OH211813   5.670   5.099   3.530  0.3718 -0.2209  0.2656
 3936TIP3    H111814   5.637   5.027   3.476 -1.2262 -0.0705  0.9777
 3936TIP3    H211815   5.764   5.103   3.511  0.1671 -1.3312 -1.1202
 3937TIP3   OH211816   0.597   0.481   0.161  0.5061  0.5758  0.0241
 3937TIP3    H111817   0.665   0.537   0.124 -0.6078  2.4516  0.6549
 3937TIP3    H211818   0.515   0.520   0.130 -0.3368 -0.0554  1.3730
 3938TIP3   OH211819   2.405   5.161   2.005  0.1614 -0.2268  0.5988
 3938TIP3    H111820   2.317   5.163   1.967 -0.5658 -1.1858  2.1052
 3938TIP3    H211821   2.454   5.098   1.952 -0.2723 -0.2026  0.1662
 3939TIP3   OH211822   2.015   2.090   5.053 -0.0101  0.4407 -0.3533
 3939TIP3    H111823   2.070   2.012   5.048 -0.6878 -0.0555 -0.2118
 3939TIP3    H211824   2.000   2.115   4.962 -0.6597 -0.2235 -0.4354
 3940TIP3   OH211825   3.606   2.179   2.382 -0.4476  0.2425  0.8766
 3940TIP3    H111826   3.691   2.165   2.423  0.7591  1.0579 -1.2158
 3940TIP3    H211827   3.576   2.091   2.358  1.5177  0.1231 -1.5185
 3941TIP3   OH211828   2.219   2.486   0.888  0.2609  0.0678 -0.0417
 3941TIP3    H111829   2.290   2.523   0.837 -0.5500  1.8928  0.0852
 3941TIP3    H211830   2.143   2.488   0.829 -0.0261 -0.5347  0.2868
 3942TIP3   OH211831   3.820   3.566   2.539  0.1855  0.0882 -0.5250
 3942TIP3    H111832   3.876   3.516   2.480  0.9319 -0.4179  0.5671
 3942TIP3    H211833   3.736   3.520   2.538  0.4116 -0.3286 -0.6626
 3943TIP3   OH211834   2.337   0.774   5.110  0.2960 -0.2569  0.7680
 3943TIP3    H111835   2.343   0.839   5.180 -2.1044  0.4524  0.4091
 3943TIP3    H211836   2.384   0.814   5.036 -1.3601  1.3122  0.4664
 3944TIP3   OH211837   5.093   1.950   5.018  0.3729  0.1559  0.1211
 3944TIP3    H111838   5.092   1.960   5.113  2.6699  0.9461  0.1185
 3944TIP3    H211839   5.029   2.014   4.987  1.4095  1.7252  1.0535
 3945TIP3   OH211840   0.468   4.545   4.968 -0.3519  0.2202  0.1439
 3945TIP3    H111841   0.385   4.589   4.954 -0.6168 -0.1240  0.5998
 3945TIP3    H211842   0.483   4.495   4.887  0.6644  2.2297 -0.9736
 3946TIP3   OH211843   2.575   1.284   3.390 -0.4075 -0.6225 -0.2671
 3946TIP3    H111844   2.518   1.212   3.364 -0.8061  0.0863 -1.4804
 3946TIP3    H211845   2.658   1.266   3.346 -0.1148 -0.9594  0.4123
 3947TIP3   OH211846   1.564   5.336   1.630  0.9364  0.3600 -0.0995
 3947TIP3    H111847   1.610   5.420   1.621  1.5583  0.2708  1.7406
 3947TIP3    H211848   1.600   5.298   1.710 -0.4208 -0.9867 -0.0878
 3948TIP3   OH211849   2.667   5.453   2.169  0.3198 -0.0539 -0.2165
 3948TIP3    H111850   2.576   5.483   2.159  0.8254  2.3341  1.4543
 3948TIP3    H211851   2.660   5.358   2.177 -1.9872  0.0275 -0.5489
 3949TIP3   OH211852   2.064   4.117   4.096  0.1347 -0.3838  0.0174
 3949TIP3    H111853   2.095   4.205   4.121  0.2218 -0.3714 -0.1336
 3949TIP3    H211854   2.144   4.067   4.080  0.0818 -0.0852 -1.2962
 3950TIP3   OH211855   4.530   1.057   4.968 -0.2717 -0.2418  0.0501
 3950TIP3    H111856   4.538   1.006   4.887 -1.3099  0.5512 -0.5795
 3950TIP3    H211857   4.483   0.999   5.028  0.5392 -0.8505  0.1092
 3951TIP3   OH211858   4.391   4.988   4.566 -0.3802  0.0439  0.3190
 3951TIP3    H111859   4.402   5.072   4.520  0.5491  0.0284  0.5039
 3951TIP3    H211860   4.296   4.975   4.568 -0.6584  1.9372  1.8151
 3952TIP3   OH211861   1.661   3.311   2.647  0.4342  0.4176  0.0573
 3952TIP3    H111862   1.682   3.349   2.732  1.3171  0.2666 -0.0774
 3952TIP3    H211863   1.623   3.226   2.667  0.9283  0.2475  0.3053
 3953TIP3   OH211864   0.982   4.417   0.658 -0.0816 -0.1151 -0.5079
 3953TIP3    H111865   1.045   4.428   0.586 -0.1399 -1.0748 -0.7272
 3953TIP3    H211866   0.897   4.437   0.619  0.0682  1.1753 -0.2137
 3954TIP3   OH211867   3.477   5.048   2.653 -0.5976 -0.0583 -0.6454
 3954TIP3    H111868   3.395   5.033   2.699  0.3988 -0.5057  1.0975
 3954TIP3    H211869   3.513   4.961   2.637  0.4548  0.1368  0.4466
 3955TIP3   OH211870   3.699   0.163   5.116  0.3165  0.0732  0.0847
 3955TIP3    H111871   3.645   0.089   5.141  1.0794 -0.4525  0.2107
 3955TIP3    H211872   3.699   0.220   5.193  0.6185 -0.3294  0.3849
 3956TIP3   OH211873   1.304   0.832   3.749 -0.2688 -0.2882  0.8018
 3956TIP3    H111874   1.289   0.739   3.732  2.1206 -0.5451 -0.3618
 3956TIP3    H211875   1.307   0.838   3.845  0.4132 -1.6079  0.8929
 3957TIP3   OH211876   0.108   0.657   2.469 -0.3104  0.6219  0.3468
 3957TIP3    H111877   0.134   0.740   2.509 -2.5639  1.3578  0.4407
 3957TIP3    H211878   0.129   0.591   2.535  0.6524  1.1991  0.6473
 3958TIP3   OH211879   1.548   4.096   1.424 -0.5265 -0.4150 -0.0882
 3958TIP3    H111880   1.511   4.035   1.487  1.4543 -0.4244  1.1369
 3958TIP3    H211881   1.627   4.052   1.391 -0.6544  0.2698 -1.3782
 3959TIP3   OH211882   4.058   4.720   2.501  0.8110  0.1774  0.4632
 3959TIP3    H111883   4.009   4.796   2.529 -0.0584  0.0330 -0.5909
 3959TIP3    H211884   4.004   4.645   2.527  1.4913 -0.0794  1.1783
 3960TIP3   OH211885   2.148   1.187   0.417 -0.0363  0.3695 -0.1017
 3960TIP3    H111886   2.124   1.095   0.410  2.8598 -0.4269 -0.7202
 3960TIP3    H211887   2.165   1.201   0.510 -0.2124  0.2178 -0.0469
 3961TIP3   OH211888   5.449   1.226   0.666 -0.3438 -0.2512 -0.1541
 3961TIP3    H111889   5.491   1.256   0.586 -1.1498 -1.2845 -0.9862
 3961TIP3    H211890   5.479   1.287   0.733 -1.9955  2.5354 -1.7435
 3962TIP3   OH211891   4.216   3.263   0.077  0.1122  0.1662 -0.4254
 3962TIP3    H111892   4.207   3.179   0.121 -0.9745  0.4012 -0.1697
 3962TIP3    H211893   4.293   3.303   0.117 -1.0827  0.5580  1.6449
 3963TIP3   OH211894   5.162   1.010   0.130 -0.4134 -0.0541  0.8221
 3963TIP3    H111895   5.208   0.967   0.057 -1.2252  0.2640  0.1024
 3963TIP3    H211896   5.231   1.053   0.180  0.0368  1.0344 -0.6484
 3964TIP3   OH211897   3.702   3.834   1.234 -0.5708 -0.1336  0.2245
 3964TIP3    H111898   3.697   3.839   1.139 -0.3344  0.6353  0.2417
 3964TIP3    H211899   3.627   3.780   1.260 -1.3064  0.6070 -0.3228
 3965TIP3   OH211900   1.960   4.023   0.590  0.0981 -0.2230 -0.2377
 3965TIP3    H111901   1.895   3.955   0.569 -0.3399  0.0856  0.1013
 3965TIP3    H211902   1.913   4.084   0.646  0.0954  1.0785 -1.6102
 3966TIP3   OH211903   1.357   1.485   5.012 -0.0582  0.0277 -0.3551
 3966TIP3    H111904   1.271   1.506   5.049  0.0087 -0.3348  0.0144
 3966TIP3    H211905   1.390   1.415   5.068  0.1998 -0.2795 -0.8904
 3967TIP3   OH211906   0.745   4.154   5.052  0.3109 -0.6129  0.1558
 3967TIP3    H111907   0.664   4.203   5.039  1.3668  1.0209 -0.5999
 3967TIP3    H211908   0.717   4.072   5.093 -1.6427  0.1567  0.4792
 3968TIP3   OH211909   0.647   4.255   4.583  0.1676  0.5160  0.0070
 3968TIP3    H111910   0.698   4.213   4.652 -0.6605 -0.0632  0.2900
 3968TIP3    H211911   0.711   4.301   4.530  1.1842 -1.3676 -0.4952
 3969TIP3   OH211912   0.677   0.113   3.888 -0.2485 -0.4663 -0.4025
 3969TIP3    H111913   0.659   0.020   3.879 -0.8921 -0.3348 -0.5305
 3969TIP3    H211914   0.591   0.155   3.883 -0.0368  0.0835  0.3032
 3970TIP3   OH211915   3.249   3.175   3.269  0.4619  0.0394  0.5463
 3970TIP3    H111916   3.206   3.218   3.194  0.8981  1.1102  0.8969
 3970TIP3    H211917   3.181   3.118   3.305 -0.6078  1.4914  0.9206
 3971TIP3   OH211918   1.119   4.057   1.372  0.0339 -0.6327 -0.0783
 3971TIP3    H111919   1.198   4.107   1.349  0.7470 -0.8609  1.7286
 3971TIP3    H211920   1.076   4.111   1.438 -1.2319 -0.6261 -0.8828
 3972TIP3   OH211921   1.833   3.986   1.044 -0.3122  0.3358 -0.3475
 3972TIP3    H111922   1.907   3.927   1.057 -0.4201  0.0433 -1.0114
 3972TIP3    H211923   1.868   4.072   1.065 -0.6175 -0.1142  2.3681
 3973TIP3   OH211924   1.223   0.157   1.078  0.1387  0.2566  0.0962
 3973TIP3    H111925   1.269   0.207   1.010  1.1288  0.8552  1.1767
 3973TIP3    H211926   1.135   0.145   1.042  0.4828  0.9860 -1.0801
 3974TIP3   OH211927   2.814   0.433   3.618  0.3610 -0.2485  0.0160
 3974TIP3    H111928   2.831   0.370   3.688  0.3261  1.0840  1.2495
 3974TIP3    H211929   2.730   0.405   3.581  0.6005 -1.2347  0.1877
 3975TIP3   OH211930   6.295   3.980   0.512 -0.0538 -0.3850 -0.7087
 3975TIP3    H111931   6.300   3.885   0.497  2.1733 -0.5902  0.8589
 3975TIP3    H211932   6.340   4.018   0.436 -0.2213 -0.6173 -0.9271
 3976TIP3   OH211933   5.860   0.901   3.048  0.1856  0.2772 -0.4606
 3976TIP3    H111934   5.836   0.977   2.995  0.2416  1.3382  0.9959
 3976TIP3    H211935   5.777   0.856   3.063 -0.5754  2.2361  1.9322
 3977TIP3   OH211936   2.414   2.187   1.639 -0.2921 -0.1523  0.0978
 3977TIP3    H111937   2.464   2.263   1.668 -0.1524 -0.0784 -0.3255
 3977TIP3    H211938   2.455   2.162   1.556 -0.6077 -0.4289  0.0249
 3978TIP3   OH211939   5.936   5.087   1.125  0.2256  0.3213  0.6157
 3978TIP3    H111940   5.908   5.129   1.206  0.0927  0.0690  0.7023
 3978TIP3    H211941   5.997   5.150   1.085  0.5581  0.3000  1.0768
 3979TIP3   OH211942   4.366   3.178   4.747  0.4835  0.2132  0.1378
 3979TIP3    H111943   4.346   3.267   4.774  0.4479  0.4701 -0.6838
 3979TIP3    H211944   4.419   3.189   4.668  0.0329 -0.4959 -0.2763
 3980TIP3   OH211945   4.703   4.634   4.772 -0.4213  0.3162 -0.8929
 3980TIP3    H111946   4.727   4.670   4.857 -1.0592 -1.6143  0.1596
 3980TIP3    H211947   4.614   4.666   4.757 -0.6175  0.0069 -0.4259
 3981TIP3   OH211948   2.359   2.536   3.253 -0.1040  0.5266 -0.4031
 3981TIP3    H111949   2.432   2.481   3.225  0.1877 -0.6833  2.3262
 3981TIP3    H211950   2.398   2.596   3.317 -1.0271  1.7249 -0.9392
 3982TIP3   OH211951   1.773   1.201   0.282  0.5308 -0.1934  0.1816
 3982TIP3    H111952   1.689   1.193   0.237  0.7996  0.5070 -0.4660
 3982TIP3    H211953   1.753   1.183   0.374 -0.3598  0.1820  0.0731
 3983TIP3   OH211954   4.207   5.905   0.937 -0.3643  0.1264 -0.1449
 3983TIP3    H111955   4.283   5.957   0.965  0.6005 -1.7398  0.8739
 3983TIP3    H211956   4.170   5.870   1.018  0.1434 -2.2472 -0.8527
 3984TIP3   OH211957   4.991   3.075   3.246 -0.4780 -0.2134 -0.3780
 3984TIP3    H111958   5.019   2.984   3.239  0.6238  0.1198 -0.5047
 3984TIP3    H211959   5.018   3.114   3.163 -0.3876  0.3639 -0.0814
 3985TIP3   OH211960   2.308   3.047   3.404  0.0647 -0.1754 -0.4108
 3985TIP3    H111961   2.240   2.982   3.388  0.7905 -0.9567 -0.3725
 3985TIP3    H211962   2.366   3.040   3.328  1.4996 -1.3178  0.7300
 3986TIP3   OH211963   4.870   2.418   2.385 -0.0191 -0.1492 -0.4007
 3986TIP3    H111964   4.774   2.428   2.382 -0.0959 -0.5351  0.3827
 3986TIP3    H211965   4.904   2.507   2.389 -0.2765  0.0495 -2.0579
 3987TIP3   OH211966   2.639   2.334   0.687  0.0930  0.3911 -0.5257
 3987TIP3    H111967   2.713   2.390   0.664 -0.4570  0.9014 -1.0475
 3987TIP3    H211968   2.669   2.245   0.665  0.5726  0.5877 -0.6695
 3988TIP3   OH211969   6.046   5.745   2.813 -0.0769 -0.0231  0.0249
 3988TIP3    H111970   6.075   5.777   2.899  1.1140 -0.0619 -0.3534
 3988TIP3    H211971   6.124   5.708   2.773 -0.9944 -1.6133 -0.3795
 3989TIP3   OH211972   0.964   4.915   4.403  0.1063  0.4341  0.4082
 3989TIP3    H111973   1.031   4.967   4.447  0.7763  2.0193 -2.2303
 3989TIP3    H211974   1.012   4.844   4.361  0.1343  1.2901 -1.0792
 3990TIP3   OH211975   5.376   3.990   3.898  0.0245 -0.1477  0.5798
 3990TIP3    H111976   5.459   3.949   3.874 -0.1541  0.4711 -1.2299
 3990TIP3    H211977   5.401   4.063   3.955  0.6056 -0.7115  1.0583
 3991TIP3   OH211978   2.283   3.351   4.029  0.3749 -0.0492  0.1333
 3991TIP3    H111979   2.304   3.327   3.939  0.9897 -4.2243  1.1791
 3991TIP3    H211980   2.187   3.357   4.030  0.4181  2.4903 -1.1589
 3992TIP3   OH211981   4.420   0.130   2.179  0.3743 -0.5897 -0.3268
 3992TIP3    H111982   4.390   0.187   2.251  0.3306 -1.2765  0.2075
 3992TIP3    H211983   4.355   0.142   2.111 -0.0121 -0.5208  0.0473
 3993TIP3   OH211984   5.315   5.547   2.834 -0.5983  0.7486 -0.1397
 3993TIP3    H111985   5.409   5.531   2.844 -0.7522 -1.0432 -1.1665
 3993TIP3    H211986   5.310   5.626   2.779  0.2686  1.5649  0.9096
 3994TIP3   OH211987   5.687   2.638   4.826 -0.0144  0.2463 -0.1190
 3994TIP3    H111988   5.657   2.583   4.753 -0.4785  0.2343  0.0754
 3994TIP3    H211989   5.610   2.689   4.851 -0.3926 -0.9958  1.4886
 3995TIP3   OH211990   2.212   4.185   2.295  0.1208  0.1031  0.6746
 3995TIP3    H111991   2.125   4.150   2.316 -0.7527  1.3406 -0.6619
 3995TIP3    H211992   2.202   4.221   2.207  1.4243  2.0834  1.2709
 3996TIP3   OH211993   0.375   0.888   3.823 -0.2394  0.1676  0.7689
 3996TIP3    H111994   0.415   0.811   3.782 -1.9573 -0.1472 -0.4609
 3996TIP3    H211995   0.335   0.854   3.904  1.4742  0.3961  1.7596
 3997TIP3   OH211996   5.153   4.923   0.818  0.2149 -0.0201  0.4772
 3997TIP3    H111997   5.125   4.833   0.803  2.0930 -0.7770  1.1860
 3997TIP3    H211998   5.154   4.963   0.731 -0.8142 -0.6199  0.1769
 3998TIP3   OH211999   3.888   1.510   2.652 -0.7672 -0.2264 -0.4015
 3998TIP3    H112000   3.914   1.572   2.584 -1.9425  2.0735  1.1313
 3998TIP3    H212001   3.968   1.460   2.670  1.1823  2.9249  0.4322
 3999TIP3   OH212002   4.721   2.345   2.061  0.0302  0.0890 -0.8984
 3999TIP3    H112003   4.770   2.427   2.060  0.0547  0.2497  2.3665
 3999TIP3    H212004   4.647   2.360   2.002  1.5227  1.3655 -2.5684
 4000TIP3   OH212005   1.679   3.937   3.106  0.1808 -0.2298  0.0465
 4000TIP3    H112006   1.599   3.927   3.159 -0.2101  0.3433 -0.4163
 4000TIP3    H212007   1.655   3.901   3.020  0.2624  0.3730 -0.2338
 4001TIP3   OH212008   3.172   5.641   1.059 -0.0809 -0.5351  0.2215
 4001TIP3    H112009   3.100   5.585   1.028  0.0152 -0.3050 -0.4370
 4001TIP3    H212010   3.248   5.583   1.061  0.3074 -0.1671 -1.6862
 4002TIP3   OH212011   3.517   4.592   4.040 -0.1616  0.1997  0.1888
 4002TIP3    H112012   3.526   4.497   4.050 -0.3849  0.1374 -0.1798
 4002TIP3    H212013   3.606   4.626   4.053 -0.2790  0.0516  1.4614
 4003TIP3   OH212014   4.777   1.491   3.397  0.4596 -0.1338  1.2825
 4003TIP3    H112015   4.846   1.428   3.418  2.4442  1.4782 -0.0600
 4003TIP3    H212016   4.734   1.454   3.319  2.6731  0.8058 -0.5043
 4004TIP3   OH212017   1.005   1.198   2.694 -0.6037  0.0238  0.2071
 4004TIP3    H112018   0.928   1.194   2.751 -2.7545  2.3978 -2.2438
 4004TIP3    H212019   0.969   1.199   2.605  2.0706  3.0906 -1.0393
 4005TIP3   OH212020   1.166   0.191   3.958  0.2338 -0.4949 -0.3878
 4005TIP3    H112021   1.190   0.282   3.940  3.8586 -0.2675  3.7374
 4005TIP3    H212022   1.241   0.140   3.927  0.2578 -1.4607  1.1288
 4006TIP3   OH212023   6.299   2.257   4.917 -0.2419  0.0417  0.0065
 4006TIP3    H112024   6.320   2.304   4.998 -1.4009 -0.3263  0.5376
 4006TIP3    H212025   6.226   2.306   4.880  0.6605  0.5591 -1.1547
 4007TIP3   OH212026   3.967   3.849   3.497 -0.6610  0.0218 -0.0673
 4007TIP3    H112027   3.997   3.930   3.455  1.8334 -1.2923 -1.0427
 4007TIP3    H212028   3.873   3.862   3.509 -0.9605  1.8334 -3.1358
 4008TIP3   OH212029   6.290   1.666   3.217  0.3510  0.3299  0.2907
 4008TIP3    H112030   6.201   1.652   3.183 -0.5634 -1.2392  3.0030
 4008TIP3    H212031   6.343   1.599   3.174 -0.0921  0.3879 -0.3490
 4009TIP3   OH212032   3.324   4.448   1.858 -0.1872  0.2822 -0.1469
 4009TIP3    H112033   3.376   4.425   1.781  0.9021  0.7318  0.4393
 4009TIP3    H212034   3.379   4.509   1.908 -1.6430  1.4951  0.0472
 4010TIP3   OH212035   3.083   4.628   2.172 -1.0534 -0.0458 -0.2818
 4010TIP3    H112036   3.051   4.654   2.259 -0.0562 -1.2457  0.4830
 4010TIP3    H212037   3.101   4.534   2.181 -2.2135 -0.5046 -2.2030
 4011TIP3   OH212038   5.026   0.806   2.546  1.0785 -0.0853  0.2650
 4011TIP3    H112039   5.096   0.757   2.502 -0.7590 -1.7170 -1.0337
 4011TIP3    H212040   4.997   0.869   2.480  1.0918  0.3802  0.6952
 4012TIP3   OH212041   6.026   4.909   4.296 -0.4019  0.0152 -0.2660
 4012TIP3    H112042   6.009   4.898   4.203  2.2815 -2.0519 -0.6451
 4012TIP3    H212043   5.964   4.848   4.339 -0.5669 -0.1971 -0.8007
 4013TIP3   OH212044   6.189   0.736   2.411 -0.7593 -0.7766 -0.0076
 4013TIP3    H112045   6.216   0.818   2.451 -1.6825  0.3133 -1.5132
 4013TIP3    H212046   6.261   0.675   2.431 -0.1547  0.3083  1.3109
 4014TIP3   OH212047   0.105   4.347   2.250 -0.3877 -0.5017 -0.1487
 4014TIP3    H112048   0.176   4.284   2.257  2.0828  2.1217 -0.0333
 4014TIP3    H212049   0.112   4.400   2.329 -1.9573  0.4067 -0.5733
 4015TIP3   OH212050   4.657   4.801   3.730 -0.3901  0.2286 -0.3834
 4015TIP3    H112051   4.692   4.876   3.777 -1.6977  1.0968 -0.7624
 4015TIP3    H212052   4.691   4.725   3.778  0.8517  1.0437  0.0675
 4016TIP3   OH212053   0.706   5.858   0.504 -0.6679  0.7801 -0.0501
 4016TIP3    H112054   0.657   5.802   0.565  0.6625 -0.3041  0.0814
 4016TIP3    H212055   0.696   5.946   0.539 -0.9935  0.3354  1.0125
 4017TIP3   OH212056   0.344   5.274   3.675 -0.0496  0.6209  0.3006
 4017TIP3    H112057   0.343   5.239   3.586  0.0424  1.1819  0.0773
 4017TIP3    H212058   0.398   5.212   3.725  0.8647  0.9277 -0.2904
 4018TIP3   OH212059   4.852   1.812   2.691  0.5254 -0.5925  0.6698
 4018TIP3    H112060   4.923   1.762   2.731  0.7543 -0.6383  0.2167
 4018TIP3    H212061   4.895   1.867   2.626  0.2632  0.1514  1.1175
 4019TIP3   OH212062   2.147   4.342   0.214 -0.0876  0.7537  0.5705
 4019TIP3    H112063   2.064   4.306   0.183  0.1284  1.9638 -1.5802
 4019TIP3    H212064   2.191   4.268   0.257 -0.2307 -1.2577 -2.4763
 4020TIP3   OH212065   3.009   3.216   1.524  0.0598 -0.0261 -0.7913
 4020TIP3    H112066   2.939   3.277   1.550  0.8099  0.5248  0.0280
 4020TIP3    H212067   2.990   3.136   1.573  0.2890  0.3033 -0.1485
 4021TIP3   OH212068   5.886   0.351   2.707 -0.0772 -0.1385 -0.3739
 4021TIP3    H112069   5.797   0.370   2.736  0.4092  1.0124  0.4373
 4021TIP3    H212070   5.942   0.402   2.766  1.1142 -0.7135 -0.9705
 4022TIP3   OH212071   5.649   5.351   3.383 -0.1894  0.2261  0.5846
 4022TIP3    H112072   5.620   5.260   3.382 -0.6666  0.3696 -0.9356
 4022TIP3    H212073   5.743   5.347   3.399 -0.4373 -0.4236  2.0934
 4023TIP3   OH212074   6.180   1.941   1.334 -0.6275 -0.3071  0.3166
 4023TIP3    H112075   6.113   2.008   1.343  0.3002  0.9105 -1.2269
 4023TIP3    H212076   6.249   1.967   1.394 -0.3884 -0.0264 -0.0759
 4024TIP3   OH212077   3.452   4.510   4.797  0.5029  0.2812 -0.1532
 4024TIP3    H112078   3.396   4.548   4.729 -1.1610 -0.4334  0.7544
 4024TIP3    H212079   3.539   4.507   4.758 -0.1091  1.3117 -1.6765
 4025TIP3   OH212080   4.161   1.961   3.558 -0.1626 -0.7651  0.3921
 4025TIP3    H112081   4.113   1.925   3.633 -0.1070 -2.5068 -0.3618
 4025TIP3    H212082   4.115   1.925   3.482  1.5564 -1.4575 -0.3573
 4026TIP3   OH212083   5.883   5.392   1.103  0.4145 -0.1145  0.4283
 4026TIP3    H112084   5.961   5.338   1.097 -0.8029 -1.8286 -1.5486
 4026TIP3    H212085   5.873   5.411   1.196  2.3797 -1.0445  0.8645
 4027TIP3   OH212086   0.400   4.063   1.087 -0.4514 -0.3907 -0.3056
 4027TIP3    H112087   0.437   4.040   1.002 -1.6045 -1.2790 -0.5875
 4027TIP3    H212088   0.413   3.984   1.141  1.4517  0.5927  0.7932
 4028TIP3   OH212089   1.166   2.067   4.275 -0.0102 -0.1066 -0.0102
 4028TIP3    H112090   1.163   1.972   4.279 -0.0159 -0.0913  0.3592
 4028TIP3    H212091   1.255   2.087   4.245  0.4028 -0.1929  1.1246
 4029TIP3   OH212092   2.062   3.027   0.745 -0.2459  0.2974 -0.5141
 4029TIP3    H112093   2.121   2.971   0.796 -0.3031  0.2155 -0.5372
 4029TIP3    H212094   2.107   3.111   0.740  0.8053 -0.3261 -2.2484
 4030TIP3   OH212095   2.509   1.668   5.015  0.5263 -0.2256 -0.4651
 4030TIP3    H112096   2.560   1.620   4.950  2.4678 -0.3381  1.0285
 4030TIP3    H212097   2.575   1.719   5.063 -1.2129  2.4920 -0.7570
 4031TIP3   OH212098   1.496   4.912   4.424  0.0666 -0.2058 -0.3631
 4031TIP3    H112099   1.550   4.977   4.468 -0.1341 -0.9271  1.0087
 4031TIP3    H212100   1.497   4.836   4.482 -1.3514 -0.7002 -0.9322
 4032TIP3   OH212101   2.248   1.182   2.456 -0.7288  0.2055 -0.4879
 4032TIP3    H112102   2.332   1.182   2.411 -1.0271 -0.8104 -1.0844
 4032TIP3    H212103   2.229   1.090   2.472 -2.2036  0.3219 -1.3142
 4033TIP3   OH212104   5.459   5.013   5.207 -0.1696  0.1653 -0.4871
 4033TIP3    H112105   5.485   5.002   5.116 -0.2943  1.0210 -0.6374
 4033TIP3    H212106   5.378   5.064   5.204  0.0590  0.5864  0.1074
 4034TIP3   OH212107   0.933   3.992   2.641 -0.6834  0.0442  0.9214
 4034TIP3    H112108   0.885   4.068   2.674  1.4032  1.7332  0.2504
 4034TIP3    H212109   0.964   3.947   2.720 -0.6396  0.7688  1.3270
 4035TIP3   OH212110   1.714   1.327   3.338  0.2844  0.1264  0.0948
 4035TIP3    H112111   1.762   1.388   3.282  1.1616  0.5812  1.2928
 4035TIP3    H212112   1.772   1.251   3.346 -0.5985 -0.7068 -1.0041
 4036TIP3   OH212113   1.542   4.036   1.745  0.8934 -0.4900 -0.2632
 4036TIP3    H112114   1.447   4.038   1.743  0.8724  1.6397  0.1983
 4036TIP3    H212115   1.564   3.976   1.815 -0.1635  0.0791  0.5817
 4037TIP3   OH212116   0.344   3.554   4.765 -0.1461 -0.2457  0.0027
 4037TIP3    H112117   0.407   3.526   4.698 -0.3277 -0.0302 -0.2565
 4037TIP3    H212118   0.335   3.648   4.752 -0.3419 -0.2382  0.1937
 4038TIP3   OH212119   4.901   0.336   3.301 -0.2988  0.1027 -0.2502
 4038TIP3    H112120   4.952   0.258   3.325  0.5573  0.6793 -0.1674
 4038TIP3    H212121   4.811   0.314   3.326 -0.0439 -0.8023 -0.0868
 4039TIP3   OH212122   4.305   0.098   1.681 -0.7742  0.4958 -0.3156
 4039TIP3    H112123   4.396   0.092   1.710 -1.1747  1.1301  1.1435
 4039TIP3    H212124   4.254   0.072   1.757 -1.8235 -1.4061 -1.5741
 4040TIP3   OH212125   1.782   2.549   3.391 -0.1604 -0.0429 -0.3933
 4040TIP3    H112126   1.727   2.627   3.398 -0.0458  0.0361 -0.3870
 4040TIP3    H212127   1.864   2.572   3.435 -0.5830 -0.5908  0.7180
 4041TIP3   OH212128   3.476   0.874   0.262  0.1149 -0.7632 -0.8653
 4041TIP3    H112129   3.399   0.820   0.243 -0.4884 -0.0855 -0.4162
 4041TIP3    H212130   3.441   0.946   0.314  1.0907 -0.5337 -0.5211
 4042TIP3   OH212131   2.925   1.398   1.036  0.0167  0.3738 -0.5883
 4042TIP3    H112132   2.885   1.430   1.116 -1.1098 -1.7415 -0.2255
 4042TIP3    H212133   3.019   1.409   1.049 -0.0057 -1.4578  1.8023
 4043TIP3   OH212134   5.593   0.224   4.844  0.4091 -0.1685  0.1207
 4043TIP3    H112135   5.681   0.232   4.882  0.3821 -2.4614  0.8364
 4043TIP3    H212136   5.534   0.236   4.918  0.1120  0.9406 -0.2828
 4044TIP3   OH212137   2.588   3.874   2.530  0.5237 -0.4681 -0.2550
 4044TIP3    H112138   2.553   3.913   2.450 -0.7977 -1.5687 -0.2388
 4044TIP3    H212139   2.514   3.871   2.590  1.2837 -0.4785  0.7107
 4045TIP3   OH212140   2.650   5.214   1.444 -0.0743  0.0866 -0.6471
 4045TIP3    H112141   2.609   5.163   1.375 -0.0339 -0.6163 -0.1604
 4045TIP3    H212142   2.588   5.284   1.463 -0.8044 -0.6529 -0.2917
 4046TIP3   OH212143   4.727   1.920   3.461  0.2499 -0.4254  0.2749
 4046TIP3    H112144   4.677   1.889   3.535  1.3684 -2.1111  0.3796
 4046TIP3    H212145   4.795   1.853   3.448  1.5233  0.9964 -0.7839
 4047TIP3   OH212146   4.732   2.585   1.430 -0.3686  0.3865  0.4822
 4047TIP3    H112147   4.741   2.575   1.336 -2.7576 -1.6033  0.3674
 4047TIP3    H212148   4.810   2.545   1.467  1.9668  3.5584 -0.5689
 4048TIP3   OH212149   5.343   4.640   4.897 -0.2919  0.7995  0.1161
 4048TIP3    H112150   5.318   4.577   4.965  3.6026  0.1051  1.1398
 4048TIP3    H212151   5.317   4.599   4.815 -0.4506 -0.7675  0.9225
 4049TIP3   OH212152   2.740   3.201   4.020  0.2453 -0.3198  0.4279
 4049TIP3    H112153   2.764   3.265   3.953 -1.2985  1.5180  1.5020
 4049TIP3    H212154   2.669   3.150   3.980  0.2685 -0.1474  0.1633
 4050TIP3   OH212155   1.303   5.807   2.948  0.5562 -0.1079 -0.2656
 4050TIP3    H112156   1.296   5.720   2.910 -0.4088 -0.0265 -0.2990
 4050TIP3    H212157   1.387   5.807   2.994 -0.0252 -1.5199  0.8764
 4051TIP3   OH212158   2.299   4.137   0.041 -0.5105  0.2520 -0.5223
 4051TIP3    H112159   2.249   4.217   0.058 -0.0442  0.5036 -0.3084
 4051TIP3    H212160   2.244   4.087  -0.019 -1.7882 -0.2308  0.9797
 4052TIP3   OH212161   1.413   0.910   2.703  0.4204 -0.1472 -0.1475
 4052TIP3    H112162   1.475   0.944   2.767 -0.2092 -1.1404  1.0618
 4052TIP3    H212163   1.337   0.968   2.710 -0.2926 -1.1852  1.2473
 4053TIP3   OH212164   4.494   1.350   3.482 -0.2345  0.4234  0.1488
 4053TIP3    H112165   4.579   1.325   3.518 -0.0442  2.5629  1.3361
 4053TIP3    H212166   4.511   1.368   3.390 -0.1197 -2.2268 -0.4445
 4054TIP3   OH212167   4.422   1.054   1.110  0.8288 -0.0793 -0.4528
 4054TIP3    H112168   4.408   1.034   1.017  0.9766  1.7224 -0.8973
 4054TIP3    H212169   4.512   1.085   1.115  0.2146  1.7685 -0.0983
 4055TIP3   OH212170   5.963   5.525   3.346 -0.4714  0.6563  0.3586
 4055TIP3    H112171   6.030   5.540   3.279 -0.2203 -1.5634  0.0632
 4055TIP3    H212172   5.925   5.440   3.325 -0.9678  0.2594  2.5481
 4056TIP3   OH212173   2.504   4.621   2.119  0.5705  0.3794 -0.0710
 4056TIP3    H112174   2.592   4.604   2.085  0.2828 -0.7592 -0.2812
 4056TIP3    H212175   2.489   4.714   2.101  1.5281  0.4623 -0.5024
 4057TIP3   OH212176   6.261   0.335   0.842 -0.0014  0.0508  0.3178
 4057TIP3    H112177   6.287   0.324   0.934  0.2806 -0.0328  0.2293
 4057TIP3    H212178   6.343   0.328   0.793  0.0210  1.1970  0.1504
 4058TIP3   OH212179   3.453   4.833   3.283 -0.1681 -0.0117 -0.7281
 4058TIP3    H112180   3.510   4.845   3.358 -1.2147 -0.7800  0.2269
 4058TIP3    H212181   3.364   4.834   3.319 -0.7489  0.4871 -2.0729
 4059TIP3   OH212182   5.672   3.463   2.091 -0.6170 -0.0743 -0.3684
 4059TIP3    H112183   5.767   3.474   2.093 -0.8223  2.1145  1.4007
 4059TIP3    H212184   5.644   3.487   2.179 -2.9754  1.0206 -1.3562
 4060TIP3   OH212185   0.949   4.281   1.413  0.1753 -0.5391 -0.2967
 4060TIP3    H112186   0.867   4.231   1.405 -0.9290  0.8722  1.3864
 4060TIP3    H212187   0.924   4.358   1.464  2.6412 -0.1961  0.4870
 4061TIP3   OH212188   1.320   5.124   0.290 -0.1110 -0.3257 -0.0184
 4061TIP3    H112189   1.308   5.095   0.200  0.6981 -1.4795  0.2210
 4061TIP3    H212190   1.365   5.051   0.333  0.2616  0.5326  1.1099
 4062TIP3   OH212191   1.121   4.914   3.492 -0.1433  0.6119 -0.0400
 4062TIP3    H112192   1.089   4.826   3.512  0.7164  0.1885 -0.4694
 4062TIP3    H212193   1.215   4.909   3.508 -0.0932  1.4591 -0.0604
 4063TIP3   OH212194   2.888   0.482   1.313  0.4528 -0.5128 -0.0492
 4063TIP3    H112195   2.904   0.389   1.296 -2.6914 -0.9708 -1.1701
 4063TIP3    H212196   2.817   0.483   1.376  1.5778  1.2133  1.2724
 4064TIP3   OH212197   0.322   4.158   1.902 -0.3972  0.0025  0.1873
 4064TIP3    H112198   0.409   4.118   1.903 -0.7861 -0.8763 -0.5340
 4064TIP3    H212199   0.336   4.244   1.942  0.7087 -0.3089  0.5186
 4065TIP3   OH212200   6.095   2.770   3.323 -0.2147  0.6361 -0.4222
 4065TIP3    H112201   6.005   2.741   3.310 -0.5981  1.1033  1.0287
 4065TIP3    H212202   6.103   2.782   3.418  1.0572  1.6192 -0.6320
 4066TIP3   OH212203   3.092   5.779   3.459  0.0920  0.5390  0.3204
 4066TIP3    H112204   3.142   5.701   3.482 -0.6714 -0.9391 -2.5342
 4066TIP3    H212205   3.134   5.850   3.507  1.7748 -1.3698  1.8457
 4067TIP3   OH212206   4.153   0.077   3.450 -0.3112  0.3628 -0.2324
 4067TIP3    H112207   4.062   0.051   3.461 -0.3231 -0.0690 -1.2157
 4067TIP3    H212208   4.190   0.009   3.393  0.7485  0.2737  0.5417
 4068TIP3   OH212209   3.268   0.091   4.150  0.4036 -0.4538  0.3512
 4068TIP3    H112210   3.232   0.010   4.188 -0.1589 -0.4963 -0.2568
 4068TIP3    H212211   3.236   0.160   4.208 -0.5650 -0.5069 -0.0850
 4069TIP3   OH212212   3.206   4.198   5.073 -0.4140  0.7560 -0.2232
 4069TIP3    H112213   3.225   4.112   5.111 -1.2352  0.6087 -0.1233
 4069TIP3    H212214   3.159   4.244   5.143  0.1980  1.3625 -0.2069
 4070TIP3   OH212215   5.121   0.545   1.628  0.5740 -0.2134  0.5327
 4070TIP3    H112216   5.196   0.549   1.687  0.7699 -0.0020  0.2737
 4070TIP3    H212217   5.157   0.568   1.542  0.1799  0.0584  0.4368
 4071TIP3   OH212218   5.950   0.572   3.948  0.3558  0.2668 -0.3513
 4071TIP3    H112219   6.035   0.530   3.953  0.1665  0.0400  3.4348
 4071TIP3    H212220   5.946   0.628   4.025 -3.6790 -1.3093  0.8391
 4072TIP3   OH212221   1.088   0.234   4.246 -0.0742 -0.1156  0.2708
 4072TIP3    H112222   1.070   0.164   4.183  0.3170 -0.5725  0.6616
 4072TIP3    H212223   1.182   0.252   4.235 -0.6702  2.2943 -1.8071
 4073TIP3   OH212224   5.606   3.722   0.129  0.4570  0.3787  0.2229
 4073TIP3    H112225   5.633   3.693   0.216  2.8878 -1.4087 -1.0337
 4073TIP3    H212226   5.625   3.648   0.071  0.9914  2.2563 -2.1745
 4074TIP3   OH212227   0.590   4.957   4.401 -0.3611  0.1824  0.8440
 4074TIP3    H112228   0.614   4.946   4.493 -0.8031  2.8126  1.3542
 4074TIP3    H212229   0.516   5.018   4.403 -1.3294 -0.8129 -1.2087
 4075TIP3   OH212230   4.572   0.170   3.674  0.0394 -0.0094 -0.4550
 4075TIP3    H112231   4.595   0.118   3.751 -0.5706 -3.2827 -2.2948
 4075TIP3    H212232   4.518   0.241   3.709  0.0815 -1.1602  2.1915
 4076TIP3   OH212233   1.731   0.614   1.786 -0.4996  0.1194  0.9505
 4076TIP3    H112234   1.666   0.647   1.848  0.9262 -1.2782  3.3293
 4076TIP3    H212235   1.728   0.519   1.797  0.6977 -0.0817 -0.2275
 4077TIP3   OH212236   2.683   0.456   1.491 -0.2791 -0.2733 -0.6933
 4077TIP3    H112237   2.611   0.399   1.518 -0.9396 -0.3420 -2.4811
 4077TIP3    H212238   2.642   0.529   1.446  0.6588  0.9133  0.2978
 4078TIP3   OH212239   5.835   1.683   4.126  0.1303 -0.1979  0.3258
 4078TIP3    H112240   5.790   1.599   4.138  0.4940 -0.5349 -0.5487
 4078TIP3    H212241   5.789   1.744   4.184 -1.0915 -0.6550 -0.1309
 4079TIP3   OH212242   5.387   2.160   0.543 -0.5343 -0.3030 -0.5324
 4079TIP3    H112243   5.387   2.254   0.524 -1.7754 -0.2693 -0.4706
 4079TIP3    H212244   5.409   2.119   0.460 -1.4423  0.0016 -0.9345
 4080TIP3   OH212245   2.367   4.515   2.685 -0.2953 -0.6677 -0.1352
 4080TIP3    H112246   2.378   4.575   2.612 -0.4795 -1.1488 -0.5627
 4080TIP3    H212247   2.408   4.433   2.655  0.3492 -0.6341  0.6040
 4081TIP3   OH212248   6.337   5.567   3.374 -0.5145 -0.4794  0.0451
 4081TIP3    H112249   6.389   5.540   3.299  0.1905 -1.5764  0.8990
 4081TIP3    H212250   6.299   5.486   3.408  1.6722 -0.5741  2.6900
 4082TIP3   OH212251   4.905   2.781   4.414 -0.8748  0.1769 -0.0337
 4082TIP3    H112252   4.984   2.728   4.405 -2.8294 -2.5705 -3.2595
 4082TIP3    H212253   4.932   2.868   4.383  1.3044 -0.1155  0.8525
 4083TIP3   OH212254   1.481   3.995   2.582 -0.1190 -0.3694  0.0752
 4083TIP3    H112255   1.477   4.090   2.573  0.8058 -0.0206  2.6897
 4083TIP3    H212256   1.392   3.965   2.564 -0.2701  0.8891 -1.4313
 4084TIP3   OH212257   5.417   0.598   0.897  0.3731  0.1068 -0.0761
 4084TIP3    H112258   5.410   0.520   0.842  1.2581 -0.0942  0.0860
 4084TIP3    H212259   5.376   0.668   0.846  0.7734 -0.1752 -0.7853
 4085TIP3   OH212260   0.868   0.644   2.077 -0.1599  0.4866 -0.5339
 4085TIP3    H112261   0.960   0.668   2.072 -0.1224  0.3537 -0.4783
 4085TIP3    H212262   0.848   0.641   2.170 -0.0377 -0.1777 -0.5267
 4086TIP3   OH212263   3.574   4.106   4.230  0.0170 -0.0967  0.0570
 4086TIP3    H112264   3.594   4.055   4.151 -0.3685  0.5559 -0.4753
 4086TIP3    H212265   3.652   4.098   4.284  0.5134 -0.0943 -0.6424
 4087TIP3   OH212266   5.080   5.058   2.289 -0.4965 -0.0095 -0.4501
 4087TIP3    H112267   5.151   5.025   2.236 -0.2518  0.4068 -0.3849
 4087TIP3    H212268   5.009   4.995   2.276 -0.0469 -0.5518 -0.3353
 4088TIP3   OH212269   1.707   4.574   2.044  0.3383  0.1336  1.0368
 4088TIP3    H112270   1.755   4.580   1.962 -2.2590  1.0250 -0.5158
 4088TIP3    H212271   1.775   4.581   2.112  2.6844 -1.7286 -0.9371
 4089TIP3   OH212272   0.197   4.936   3.302 -0.3708  0.0958 -0.2642
 4089TIP3    H112273   0.184   4.930   3.397 -0.8253 -0.7304 -0.3736
 4089TIP3    H212274   0.148   5.014   3.276 -1.6773 -0.6372 -0.0617
 4090TIP3   OH212275   0.622   5.654   4.131 -0.1150  0.1946 -0.5373
 4090TIP3    H112276   0.611   5.563   4.105  0.4875  0.8157 -3.1604
 4090TIP3    H212277   0.538   5.695   4.109 -0.4874  0.2862  0.8927
 4091TIP3   OH212278   0.465   2.239   3.763  0.3057  0.6001  0.4779
 4091TIP3    H112279   0.470   2.151   3.726 -1.3819  0.8242 -0.3319
 4091TIP3    H212280   0.539   2.286   3.723  0.8160 -0.2342  0.4153
 4092TIP3   OH212281   4.168   5.347   2.810 -0.6587 -0.1293 -0.2784
 4092TIP3    H112282   4.109   5.377   2.879  1.0953 -2.4287  2.5069
 4092TIP3    H212283   4.141   5.395   2.732 -2.5310  3.0292  2.0526
 4093TIP3   OH212284   4.973   5.944   4.521  0.1523  0.7476 -0.0066
 4093TIP3    H112285   4.933   5.871   4.475 -0.1018  1.2598 -0.6251
 4093TIP3    H212286   5.050   5.966   4.468  1.1851 -0.1280  1.0887
 4094TIP3   OH212287   0.188   0.069   1.007  0.3218  0.3154  0.1835
 4094TIP3    H112288   0.193   0.137   1.074  1.0957 -0.8947  1.3979
 4094TIP3    H212289   0.232   0.107   0.931  0.4624  1.2917  0.7352
 4095TIP3   OH212290   2.013   4.874   2.644 -0.6378 -0.4110 -0.4434
 4095TIP3    H112291   2.073   4.879   2.570 -0.5611  0.7030 -0.3202
 4095TIP3    H212292   2.046   4.939   2.706 -1.8030  0.0402 -0.2633
 4096TIP3   OH212293   1.020   3.081   0.425  0.1146 -0.3944 -0.1458
 4096TIP3    H112294   1.058   3.095   0.338  1.1748  0.7905  0.4817
 4096TIP3    H212295   0.975   2.997   0.417 -1.9622  0.7842 -2.5612
 4097TIP3   OH212296   2.641   2.603   1.552  0.2197  0.0222 -0.2022
 4097TIP3    H112297   2.576   2.579   1.486 -0.4432  1.0881  0.0297
 4097TIP3    H212298   2.598   2.670   1.605  1.6797  1.1658 -0.3841
 4098TIP3   OH212299   4.025   1.139   0.951 -0.1423  0.0255  0.6175
 4098TIP3    H112300   4.030   1.210   0.887  0.4364  0.6872  1.3660
 4098TIP3    H212301   3.931   1.127   0.967 -0.2349  1.6208  1.5253
 4099TIP3   OH212302   5.861   2.183   4.747 -0.2447  0.0996 -0.0128
 4099TIP3    H112303   5.856   2.094   4.711 -0.4746  0.5870 -1.2483
 4099TIP3    H212304   5.922   2.229   4.690  0.0663  0.6806  0.7674
 4100TIP3   OH212305   0.967   4.087   4.348  0.2648 -0.1796 -0.2715
 4100TIP3    H112306   0.921   4.152   4.295  1.1245  0.7667  0.1316
 4100TIP3    H212307   0.899   4.022   4.369 -0.4455  0.2174 -1.2405
 4101TIP3   OH212308   5.114   0.648   4.232  0.1029 -0.0435  0.0711
 4101TIP3    H112309   5.139   0.561   4.199  2.1788  0.5382 -0.0558
 4101TIP3    H212310   5.090   0.697   4.153  0.6207 -0.0093 -0.0735
 4102TIP3   OH212311   4.622   5.712   2.946  0.0521  0.2643  0.0990
 4102TIP3    H112312   4.571   5.669   3.014  1.0755  1.6310  1.7895
 4102TIP3    H212313   4.561   5.722   2.873 -1.8087  0.9175  1.6716
 4103TIP3   OH212314   4.889   5.991   5.171 -0.1226 -0.4275 -0.2410
 4103TIP3    H112315   4.982   6.002   5.189 -0.3186 -2.3788  2.4558
 4103TIP3    H212316   4.879   5.898   5.150 -1.3805 -0.0833 -1.3251
 4104TIP3   OH212317   5.428   3.118   4.187 -0.3532  0.2483 -0.5967
 4104TIP3    H112318   5.334   3.105   4.202 -0.2906 -0.7126 -0.9743
 4104TIP3    H212319   5.463   3.138   4.274 -1.0143  1.4266 -0.5751
 4105TIP3   OH212320   3.106   2.503   0.686 -0.5175 -0.0525 -0.3298
 4105TIP3    H112321   3.098   2.570   0.754  1.0597 -0.2216  0.0639
 4105TIP3    H212322   3.089   2.421   0.732 -2.7110  0.0391 -0.8661
 4106TIP3   OH212323   5.785   1.364   1.921 -0.2946 -0.2481  0.3869
 4106TIP3    H112324   5.857   1.380   1.982 -1.2897 -0.0292  1.5184
 4106TIP3    H212325   5.780   1.445   1.869 -0.9090  0.4807  1.5502
 4107TIP3   OH212326   3.837   3.538   0.475  0.2894 -0.4592  0.6407
 4107TIP3    H112327   3.818   3.619   0.428 -1.5795 -1.7645 -1.0381
 4107TIP3    H212328   3.866   3.567   0.562  0.4849  1.9915 -0.1720
 4108TIP3   OH212329   4.606   4.289   3.113 -0.0337  0.4766  0.0259
 4108TIP3    H112330   4.688   4.336   3.101 -1.7929  3.3290 -2.1656
 4108TIP3    H212331   4.566   4.331   3.189  0.4898 -0.9672  1.1465
 4109TIP3   OH212332   4.468   3.139   2.971 -0.2759  0.1409  0.0597
 4109TIP3    H112333   4.396   3.145   2.908 -1.1847 -1.7991  0.8208
 4109TIP3    H212334   4.473   3.046   2.993  0.3684  0.6711  2.4254
 4110TIP3   OH212335   0.223   1.486   4.901  0.1601  0.2363  0.9781
 4110TIP3    H112336   0.231   1.565   4.954  0.7035  1.0833 -0.3028
 4110TIP3    H212337   0.140   1.497   4.854  1.1186  1.0110 -0.6330
 4111TIP3   OH212338   2.245   0.630   0.869 -0.6182 -0.4568  0.5494
 4111TIP3    H112339   2.188   0.703   0.844  0.5884  0.9953  1.8771
 4111TIP3    H212340   2.194   0.552   0.845 -2.6583  0.7752  0.5663
 4112TIP3   OH212341   2.634   3.715   1.201 -0.7863 -0.2282 -0.1240
 4112TIP3    H112342   2.722   3.698   1.232 -0.7562 -1.6635 -0.9209
 4112TIP3    H212343   2.577   3.664   1.259 -0.9736 -0.4330 -0.4836
 4113TIP3   OH212344   5.584   0.216   3.070 -0.2795 -0.2168  0.0049
 4113TIP3    H112345   5.529   0.271   3.015  1.6327  1.0888 -0.6955
 4113TIP3    H212346   5.616   0.274   3.139 -1.0047 -1.3464  1.3566
 4114TIP3   OH212347   2.857   1.313   4.471  0.2690  0.0073  0.6139
 4114TIP3    H112348   2.843   1.406   4.454 -0.0278 -0.3751 -1.4842
 4114TIP3    H212349   2.951   1.305   4.486  0.4425  0.5403 -0.1343
 4115TIP3   OH212350   5.863   0.943   1.923  0.5570  0.3286 -0.1379
 4115TIP3    H112351   5.898   0.866   1.968  1.1020  0.0601 -0.9810
 4115TIP3    H212352   5.785   0.912   1.879  0.8805  0.2019 -0.6317
 4116TIP3   OH212353   2.339   3.855   3.334 -0.0659 -0.1439 -0.1906
 4116TIP3    H112354   2.259   3.853   3.388  1.0793 -3.0884  1.6461
 4116TIP3    H212355   2.407   3.818   3.391  2.3584  1.0386 -2.1362
 4117TIP3   OH212356  -0.000   4.051   2.077 -0.0471 -0.1916  0.3298
 4117TIP3    H112357   0.064   4.122   2.081  0.0429 -0.2133 -0.5533
 4117TIP3    H212358   0.021   3.995   2.152  0.0095  0.5939  0.9158
 4118TIP3   OH212359   1.889   5.277   4.938 -0.0753  0.3912 -0.1915
 4118TIP3    H112360   1.914   5.312   5.023 -0.7971  3.3484 -1.0854
 4118TIP3    H212361   1.970   5.279   4.887  0.0761 -0.1426  0.0202
 4119TIP3   OH212362   3.555   3.571   4.269 -0.0697  0.1623  0.0053
 4119TIP3    H112363   3.480   3.513   4.254  1.1565 -1.7646  0.8899
 4119TIP3    H212364   3.573   3.563   4.363  1.4104  0.3549 -0.2373
 4120TIP3   OH212365   4.255   5.606   0.764  0.0910  0.2051  0.4470
 4120TIP3    H112366   4.203   5.570   0.692 -0.6748  0.8476  0.6678
 4120TIP3    H212367   4.292   5.687   0.728  0.4189  0.0817  0.5014
 4121TIP3   OH212368   1.301   3.002   3.335 -0.2021 -0.4026  0.4149
 4121TIP3    H112369   1.302   2.971   3.425  0.6209 -0.9751  0.2113
 4121TIP3    H212370   1.291   3.097   3.342 -2.5835 -0.6334  1.0461
 4122TIP3   OH212371   1.614   3.920   4.124 -0.4377  0.1920 -0.1739
 4122TIP3    H112372   1.547   3.941   4.189 -0.8242 -0.4449 -0.3577
 4122TIP3    H212373   1.614   3.824   4.119 -0.7370  0.2412 -1.4451
 4123TIP3   OH212374   4.666   5.721   0.045 -0.0209  0.7763 -0.2372
 4123TIP3    H112375   4.688   5.714  -0.048 -0.1542  1.3999 -0.3215
 4123TIP3    H212376   4.661   5.815   0.061 -1.2508  0.6650  0.1094
 4124TIP3   OH212377   5.967   0.696   3.457 -0.9292 -0.2517  0.4934
 4124TIP3    H112378   5.877   0.672   3.435 -0.4674 -2.2670  0.6356
 4124TIP3    H212379   6.007   0.718   3.373 -1.6577  1.1307  0.4859
 4125TIP3   OH212380   4.150   0.898   0.875  0.2840  0.5674 -0.2354
 4125TIP3    H112381   4.226   0.941   0.836 -0.6930  0.3959 -2.4736
 4125TIP3    H212382   4.092   0.969   0.900  0.6924  0.6578  0.5043
 4126TIP3   OH212383   1.721   3.550   2.031 -0.1918 -0.4431 -0.6076
 4126TIP3    H112384   1.689   3.552   1.941  0.1952 -1.1276 -0.7651
 4126TIP3    H212385   1.806   3.506   2.026  0.5193  0.8424 -0.1078
 4127TIP3   OH212386   6.257   1.759   2.846 -0.1295 -0.3339  0.5029
 4127TIP3    H112387   6.263   1.836   2.790 -0.5763 -0.3950  0.3680
 4127TIP3    H212388   6.230   1.793   2.931 -0.3568 -0.3456  0.4352
 4128TIP3   OH212389   5.812   2.755   0.304 -0.0544  0.3192 -0.0781
 4128TIP3    H112390   5.738   2.807   0.334  0.1376  0.0036  0.9978
 4128TIP3    H212391   5.846   2.713   0.383  0.7567 -0.2055 -0.6778
 4129TIP3   OH212392   0.184   3.550   2.558 -0.3706  0.2032 -0.1263
 4129TIP3    H112393   0.266   3.508   2.582 -1.1152 -1.9380 -1.0682
 4129TIP3    H212394   0.211   3.631   2.514  1.1590  0.2365  0.7851
 4130TIP3   OH212395   3.960   3.440   3.261 -0.0601  0.3371  0.5084
 4130TIP3    H112396   3.887   3.430   3.200  1.0158 -1.5175 -0.6038
 4130TIP3    H212397   3.920   3.441   3.347 -1.4230 -0.4184 -0.0832
 4131TIP3   OH212398   6.030   4.438   4.471  0.4825  0.7109  0.0710
 4131TIP3    H112399   5.972   4.512   4.453 -0.2806  0.2722  0.6489
 4131TIP3    H212400   6.027   4.385   4.392  1.6761  1.6963 -0.6599
 4132TIP3   OH212401   4.488   2.016   3.663  0.1226 -0.4546 -0.3792
 4132TIP3    H112402   4.580   2.029   3.688 -0.2986 -0.0094  0.9850
 4132TIP3    H212403   4.465   1.931   3.702 -0.0520 -0.5715 -0.7327
 4133TIP3   OH212404   1.826   3.584   3.270 -0.2913 -0.0025  0.1753
 4133TIP3    H112405   1.821   3.664   3.322 -0.5103  0.6165 -0.7771
 4133TIP3    H212406   1.906   3.593   3.219 -0.0236 -0.6558  0.4730
 4134TIP3   OH212407   0.497   2.883   0.476  0.1051 -0.2387  0.1308
 4134TIP3    H112408   0.518   2.920   0.390  1.4884 -0.6760  0.2546
 4134TIP3    H212409   0.458   2.797   0.456 -1.1242  0.3498 -0.0887
 4135TIP3   OH212410   2.318   2.353   2.268 -0.3751 -0.0839 -0.4073
 4135TIP3    H112411   2.296   2.271   2.311  0.8807  0.2777  1.0232
 4135TIP3    H212412   2.265   2.419   2.313  0.8069  0.2722  0.5340
 4136TIP3   OH212413   4.193   3.663   3.889  0.0013 -0.0363 -0.3665
 4136TIP3    H112414   4.146   3.580   3.879 -1.3450  0.6928 -0.4511
 4136TIP3    H212415   4.183   3.706   3.803 -1.9075  1.4496  0.5075
 4137TIP3   OH212416   2.787   0.348   3.322  0.1753  0.0539  0.0144
 4137TIP3    H112417   2.858   0.350   3.386 -1.4530  0.7539  1.8955
 4137TIP3    H212418   2.811   0.416   3.258  0.5528  1.2121  1.3486
 4138TIP3   OH212419   3.713   0.806   3.289  0.1710  0.6603  0.0109
 4138TIP3    H112420   3.753   0.882   3.334 -1.0226  0.9576  0.6062
 4138TIP3    H212421   3.721   0.827   3.196  0.1056  1.3896  0.1616
 4139TIP3   OH212422   2.746   3.744   4.356  0.0994  0.2134 -0.3318
 4139TIP3    H112423   2.780   3.751   4.445 -0.2091  0.9064 -0.2643
 4139TIP3    H212424   2.821   3.763   4.300  0.3255 -0.3515 -0.2273
 4140TIP3   OH212425   2.298   1.355   1.886 -0.1402 -0.0856 -0.1855
 4140TIP3    H112426   2.239   1.427   1.865 -1.3316 -0.8484  0.4282
 4140TIP3    H212427   2.353   1.389   1.957 -0.3090  0.3935 -0.2809
 4141TIP3   OH212428   3.450   1.745   4.841 -0.4483  0.5106 -0.0771
 4141TIP3    H112429   3.473   1.740   4.748 -0.5178 -0.9998 -0.0433
 4141TIP3    H212430   3.526   1.711   4.887 -0.8529  0.1479  0.3402
 4142TIP3   OH212431   5.893   2.125   3.822 -0.1322  0.1213  0.2570
 4142TIP3    H112432   5.903   2.035   3.855  0.5073 -0.2499 -0.8948
 4142TIP3    H212433   5.887   2.116   3.727 -0.1755  1.2962  0.1286
 4143TIP3   OH212434   4.248   1.100   2.526  0.4146  0.5168 -0.4322
 4143TIP3    H112435   4.247   1.100   2.622  1.4995  0.6894 -0.4076
 4143TIP3    H212436   4.255   1.193   2.502 -1.5530  0.6373 -0.7407
 4144TIP3   OH212437   5.477   3.821   1.249  0.2479 -0.1148 -0.4990
 4144TIP3    H112438   5.485   3.812   1.344  0.9185 -0.8314 -0.6178
 4144TIP3    H212439   5.557   3.782   1.214  0.1497  0.4214 -1.3515
 4145TIP3   OH212440   0.646   2.976   4.929 -0.0402  0.2446 -0.0847
 4145TIP3    H112441   0.660   2.881   4.938  0.8660  0.2715 -0.9609
 4145TIP3    H212442   0.618   3.005   5.016  1.4998 -0.5260  0.7073
 4146TIP3   OH212443   0.974   1.876   1.185 -0.0051  0.0821 -0.1302
 4146TIP3    H112444   0.908   1.938   1.153  0.5807 -0.5853 -2.9423
 4146TIP3    H212445   0.937   1.790   1.166  0.8984 -0.3301 -0.0669
 4147TIP3   OH212446   4.256   4.479   1.511  0.4610  0.2907 -0.2097
 4147TIP3    H112447   4.298   4.400   1.477  0.0339  0.0469 -0.1787
 4147TIP3    H212448   4.259   4.541   1.438 -0.2133 -0.1441 -0.6226
 4148TIP3   OH212449   6.039   2.822   1.479 -0.0558  0.6979  0.1659
 4148TIP3    H112450   5.987   2.793   1.404 -0.5008  0.3064  0.6136
 4148TIP3    H212451   6.017   2.760   1.549  1.8654 -0.1870  0.0646
 4149TIP3   OH212452   4.834   5.986   3.459 -0.1535  0.0190  0.2021
 4149TIP3    H112453   4.836   5.894   3.486 -0.0199 -0.3744 -1.1101
 4149TIP3    H212454   4.909   5.995   3.401 -1.4794  0.3545 -1.5297
 4150TIP3   OH212455   4.564   4.386   1.908 -0.0779  0.0122  0.7759
 4150TIP3    H112456   4.583   4.419   1.821 -0.4909  0.7987  0.9701
 4150TIP3    H212457   4.639   4.413   1.961  0.2980 -0.6937  0.6203
 4151TIP3   OH212458   0.104   0.030   3.186 -0.1748 -0.4036  0.4295
 4151TIP3    H112459   0.189   0.022   3.229 -0.3093 -1.1253  0.5812
 4151TIP3    H212460   0.087   0.124   3.183 -0.7621 -0.3531  3.1300
 4152TIP3   OH212461   1.320   4.064   0.199  0.2033 -0.5080 -0.2346
 4152TIP3    H112462   1.232   4.095   0.220  0.3608 -0.0760 -0.2049
 4152TIP3    H212463   1.347   4.014   0.276  0.1875 -0.2019 -0.0305
 4153TIP3   OH212464   1.299   5.294   0.693 -0.0264  0.0022 -0.4374
 4153TIP3    H112465   1.352   5.364   0.730  0.6649 -1.9016  2.5000
 4153TIP3    H212466   1.212   5.308   0.731  0.0716 -0.5917  0.0177
 4154TIP3   OH212467   6.291   2.267   4.393  0.1952 -0.3450 -0.4981
 4154TIP3    H112468   6.295   2.334   4.325  3.1391 -1.2018 -1.3006
 4154TIP3    H212469   6.379   2.231   4.397 -0.3971 -1.7836  2.3555
 4155TIP3   OH212470   0.441   2.591   2.935  0.0795 -0.1209 -0.6448
 4155TIP3    H112471   0.416   2.505   2.905 -0.4534 -1.1650  2.3879
 4155TIP3    H212472   0.367   2.621   2.989  0.3882  2.0957 -1.3261
 4156TIP3   OH212473   3.617   5.127   3.217 -0.2858  0.6067 -0.3148
 4156TIP3    H112474   3.542   5.119   3.277 -1.1979  0.2734 -1.4524
 4156TIP3    H212475   3.579   5.116   3.130  1.1409  0.1539 -0.9127
 4157TIP3   OH212476   6.293   1.877   0.250  0.3846  0.3975  0.1969
 4157TIP3    H112477   6.239   1.954   0.234 -0.2280 -0.0089  0.2660
 4157TIP3    H212478   6.333   1.894   0.335  0.0029  0.5062  0.3611
 4158TIP3   OH212479   2.118   5.721   1.121 -0.1538  0.0660  0.6602
 4158TIP3    H112480   2.096   5.732   1.028 -0.9816  0.4628  0.8993
 4158TIP3    H212481   2.147   5.808   1.148 -1.1498  0.2722  1.0931
 4159TIP3   OH212482   3.116   2.131   2.089  0.1987  0.1092  0.1998
 4159TIP3    H112483   3.210   2.141   2.071 -0.1745  2.2236 -0.9183
 4159TIP3    H212484   3.109   2.139   2.184  1.0819  0.6346  0.2362
 4160TIP3   OH212485   2.133   2.533   1.160 -0.5319  0.4907  0.1809
 4160TIP3    H112486   2.042   2.517   1.136  0.1985 -2.3324 -1.2013
 4160TIP3    H212487   2.182   2.517   1.079  1.3026  0.6476  1.1982
 4161TIP3   OH212488   4.344   3.822   3.034  0.1235  0.1721  0.3450
 4161TIP3    H112489   4.301   3.860   3.111 -1.8300 -1.2515  0.0196
 4161TIP3    H212490   4.412   3.765   3.070  0.2743  0.7337  0.9573
 4162TIP3   OH212491   1.143   4.232   3.009 -0.1567  0.1870 -0.0255
 4162TIP3    H112492   1.201   4.183   3.066 -2.2826 -1.1798  1.1157
 4162TIP3    H212493   1.156   4.194   2.922 -2.4074 -3.3431  0.9494
 4163TIP3   OH212494   1.993   0.323   3.799 -0.8505  0.2931  0.6952
 4163TIP3    H112495   1.939   0.385   3.749 -1.0335  0.5475  1.1970
 4163TIP3    H212496   1.933   0.252   3.822 -0.5645 -0.2232 -0.1417
 4164TIP3   OH212497   4.457   3.877   0.170  0.7987  0.2888  0.4308
 4164TIP3    H112498   4.385   3.825   0.204  1.3475 -0.8810 -0.1551
 4164TIP3    H212499   4.536   3.835   0.203  1.2471  0.8041  0.0391
 4165TIP3   OH212500   0.135   4.981   4.896  0.6310  0.4588  0.3183
 4165TIP3    H112501   0.044   4.961   4.920  0.0360  2.3444 -0.2433
 4165TIP3    H212502   0.132   5.070   4.861  2.7093  0.5635  0.2910
 4166TIP3   OH212503   6.114   2.500   4.467  0.0955 -0.2283 -0.3686
 4166TIP3    H112504   6.206   2.482   4.449  1.2120  2.5478  1.7979
 4166TIP3    H212505   6.096   2.582   4.422 -1.7813 -1.3481 -1.8060
 4167TIP3   OH212506   0.586   2.722   4.111 -0.2652 -0.4241 -0.0809
 4167TIP3    H112507   0.526   2.725   4.185  0.0234 -1.0827  0.1927
 4167TIP3    H212508   0.667   2.685   4.147 -0.1562 -0.8542 -0.7433
 4168TIP3   OH212509   5.871   0.807   0.300  0.5250 -0.4610 -0.0319
 4168TIP3    H112510   5.842   0.716   0.300  0.0952 -0.3357 -0.8288
 4168TIP3    H212511   5.946   0.808   0.360  1.4693 -1.6421 -1.1140
 4169TIP3   OH212512   0.133   0.981   2.235  0.0948  0.5237 -0.3111
 4169TIP3    H112513   0.202   0.917   2.253  0.4766  0.6695 -1.1808
 4169TIP3    H212514   0.070   0.935   2.180  0.9495  1.1895 -1.9125
 4170TIP3   OH212515   2.932   1.497   0.701  0.3305 -0.4398 -0.4612
 4170TIP3    H112516   2.971   1.453   0.776 -0.1220  0.5712  0.4029
 4170TIP3    H212517   2.838   1.478   0.708  0.2989 -0.4450 -0.8481
 4171TIP3   OH212518   6.294   5.479   0.482  0.1827  0.3896 -0.2996
 4171TIP3    H112519   6.352   5.517   0.416 -0.8092  1.2927 -0.6980
 4171TIP3    H212520   6.210   5.472   0.438 -0.1484 -0.3616  0.4331
 4172TIP3   OH212521   3.192   2.833   4.960  0.2543  0.0630 -0.2596
 4172TIP3    H112522   3.192   2.899   4.890 -1.0605 -1.6079 -1.9590
 4172TIP3    H212523   3.282   2.835   4.995  0.7880  1.3806 -1.5877
 4173TIP3   OH212524   3.500   4.453   0.814  0.1213  0.5916  0.0521
 4173TIP3    H112525   3.531   4.540   0.839  0.2782  0.6499 -0.3438
 4173TIP3    H212526   3.563   4.423   0.749  0.5981 -0.2024  0.8460
 4174TIP3   OH212527   4.601   4.713   2.572  0.0870 -0.7152  0.5611
 4174TIP3    H112528   4.516   4.700   2.530 -0.3453  0.2439  1.1228
 4174TIP3    H212529   4.614   4.634   2.624 -0.1081 -1.2022 -0.1153
 4175TIP3   OH212530   2.303   4.188   2.859  0.5648  0.5107  0.2258
 4175TIP3    H112531   2.260   4.201   2.944  1.0567 -1.1415  0.7620
 4175TIP3    H212532   2.233   4.203   2.795  0.1416  1.6156  0.9168
 4176TIP3   OH212533   2.805   0.761   2.006  0.2414 -0.9520  0.0592
 4176TIP3    H112534   2.872   0.803   1.952  0.7558 -0.7969  0.7982
 4176TIP3    H212535   2.728   0.757   1.950  0.0219  1.3695  0.0902
 4177TIP3   OH212536   4.440   4.379   3.340  0.1895 -0.7180  0.0522
 4177TIP3    H112537   4.434   4.467   3.303 -3.0943 -0.4315  0.9755
 4177TIP3    H212538   4.443   4.393   3.435  1.3330 -1.5938  0.1655
 4178TIP3   OH212539   5.650   5.025   0.252 -0.1263 -0.0222  0.5060
 4178TIP3    H112540   5.717   5.086   0.221 -0.2404 -0.2194 -0.1411
 4178TIP3    H212541   5.567   5.070   0.234 -0.2093 -0.3429  0.0779
 4179TIP3   OH212542   5.411   5.404   3.134  0.7133 -0.3804 -0.3183
 4179TIP3    H112543   5.431   5.313   3.157 -0.0296 -0.6222 -0.6187
 4179TIP3    H212544   5.439   5.412   3.043  1.2533 -0.1562 -0.1376
 4180TIP3   OH212545   1.440   5.500   0.771 -0.3097  0.4547  0.4461
 4180TIP3    H112546   1.434   5.517   0.677 -0.7251 -1.1041  0.1663
 4180TIP3    H212547   1.504   5.564   0.803  0.1977  0.6896 -0.9700
 4181TIP3   OH212548   3.325   4.988   1.141 -0.1362 -0.4610 -0.1417
 4181TIP3    H112549   3.274   5.064   1.169  1.1533  0.7590 -0.9535
 4181TIP3    H212550   3.387   5.024   1.078 -0.8723 -2.5457 -2.1948
 4182TIP3   OH212551   0.072   5.720   1.945  0.1700  0.2846  0.0085
 4182TIP3    H112552   0.019   5.741   2.022 -1.1317  0.7780 -0.9822
 4182TIP3    H212553   0.050   5.629   1.924  1.6440 -0.3477  1.0562
 4183TIP3   OH212554   2.906   4.727   2.669  0.1081  0.1792  0.0847
 4183TIP3    H112555   2.953   4.810   2.667  1.6931 -0.7026 -0.6843
 4183TIP3    H212556   2.959   4.669   2.724 -0.2536 -0.7202 -0.4814
 4184TIP3   OH212557   6.013   3.978   3.334  0.2643 -1.0443 -0.2891
 4184TIP3    H112558   6.087   3.922   3.357  1.1615 -0.3735 -1.4343
 4184TIP3    H212559   5.983   3.945   3.249 -0.8926 -1.4373  0.2575
 4185TIP3   OH212560   3.919   3.152   3.919  0.1895 -0.1548  0.4655
 4185TIP3    H112561   3.877   3.191   3.842  1.6397  0.2823 -0.1433
 4185TIP3    H212562   3.877   3.195   3.994 -0.7539 -0.0764 -0.0935
 4186TIP3   OH212563   5.109   4.822   0.025 -0.0337 -0.5158  0.8113
 4186TIP3    H112564   5.203   4.811   0.013  0.3693 -0.1087  3.1160
 4186TIP3    H212565   5.074   4.733   0.027  0.6388 -0.7619  2.0851
 4187TIP3   OH212566   5.140   4.465   4.582  0.1781 -0.9073  0.4443
 4187TIP3    H112567   5.111   4.374   4.591 -1.9550 -0.0951  2.8454
 4187TIP3    H212568   5.114   4.507   4.663  2.2429  1.6172 -0.0640
 4188TIP3   OH212569   3.697   3.105   3.459 -0.0493 -0.1395 -0.4824
 4188TIP3    H112570   3.624   3.081   3.401 -0.4361 -0.8693  0.2951
 4188TIP3    H212571   3.763   3.141   3.399  0.2317 -2.3576 -1.6310
 4189TIP3   OH212572   5.050   3.407   2.468  0.2827 -0.0571 -0.3685
 4189TIP3    H112573   4.969   3.458   2.471  1.0404  1.2771 -1.4149
 4189TIP3    H212574   5.028   3.331   2.413 -0.5047 -0.2127  0.1403
 4190TIP3   OH212575   3.210   0.570   0.519 -0.1149  0.2273 -0.3346
 4190TIP3    H112576   3.154   0.513   0.466 -0.0587  0.1834 -0.3464
 4190TIP3    H212577   3.153   0.600   0.590 -0.3197  0.6545 -0.6793
 4191TIP3   OH212578   5.885   3.555   3.127  0.5965  0.4398 -0.0498
 4191TIP3    H112579   5.834   3.485   3.085  0.2320 -0.0393  1.1559
 4191TIP3    H212580   5.839   3.635   3.104  0.5877  0.2286 -0.8185
 4192TIP3   OH212581   2.297   2.194   3.856 -0.4247 -0.2460 -0.0837
 4192TIP3    H112582   2.310   2.162   3.767  0.3230 -1.0519  0.2947
 4192TIP3    H212583   2.215   2.243   3.852 -0.8936 -1.0530 -1.0100
 4193TIP3   OH212584   6.247   2.389   3.654  0.0003 -0.2403 -0.1643
 4193TIP3    H112585   6.155   2.402   3.629 -0.1801  0.7189  0.8929
 4193TIP3    H212586   6.297   2.415   3.577 -0.6051 -0.5619 -0.6743
 4194TIP3   OH212587   6.185   5.008   3.441  0.0733  0.5898 -0.3876
 4194TIP3    H112588   6.099   5.023   3.479 -0.3909 -0.4796 -0.9601
 4194TIP3    H212589   6.245   5.012   3.516 -0.4569  1.4191  0.0007
 4195TIP3   OH212590   3.626   0.633   2.680 -0.0560  0.2604 -0.2137
 4195TIP3    H112591   3.567   0.691   2.729  1.1173 -1.2721  3.2734
 4195TIP3    H212592   3.713   0.671   2.692  0.1662  0.4767 -2.2075
 4196TIP3   OH212593   1.347   3.755   2.193 -0.4664 -0.1904  0.6415
 4196TIP3    H112594   1.316   3.718   2.111 -0.7276  0.0990  0.6096
 4196TIP3    H212595   1.434   3.717   2.205  1.3462  2.7094 -1.7652
 4197TIP3   OH212596   3.898   0.431   1.702  0.3580  0.1065  0.3711
 4197TIP3    H112597   3.896   0.424   1.607 -1.0326 -1.6346  0.4628
 4197TIP3    H212598   3.973   0.379   1.728 -0.9647 -1.9712  0.2946
 4198TIP3   OH212599   2.187   4.430   0.513 -0.7891  0.3661  0.2224
 4198TIP3    H112600   2.282   4.429   0.501 -0.8499  0.1570 -0.2503
 4198TIP3    H212601   2.158   4.344   0.485 -1.1601  0.5497  0.0385
 4199TIP3   OH212602   5.694   2.002   1.228 -0.0080 -0.5073  0.0694
 4199TIP3    H112603   5.718   1.931   1.168 -1.2204 -1.1838  0.3629
 4199TIP3    H212604   5.599   2.006   1.223  0.0656  2.9917 -2.1060
 4200TIP3   OH212605   4.246   3.433   4.692  0.0518 -0.4946  0.7439
 4200TIP3    H112606   4.299   3.500   4.736  1.3330  0.7015 -2.3250
 4200TIP3    H212607   4.214   3.476   4.613 -1.5681 -2.6695  0.1273
 4201TIP3   OH212608   4.859   5.889   0.866  0.1462  0.2489 -0.1379
 4201TIP3    H112609   4.876   5.900   0.960  1.2100  1.1461 -0.4000
 4201TIP3    H212610   4.826   5.800   0.857  1.8245 -0.5253  0.8737
 4202TIP3   OH212611   6.097   3.553   2.508  0.3975  0.1244  0.1888
 4202TIP3    H112612   6.023   3.552   2.569 -1.9410 -1.0426 -2.4437
 4202TIP3    H212613   6.145   3.473   2.526 -1.4331 -1.2429 -0.7012
 4203TIP3   OH212614   4.315   4.101   4.999  0.3171  0.2397 -0.3274
 4203TIP3    H112615   4.341   4.193   5.002 -0.7192  0.5955 -1.3629
 4203TIP3    H212616   4.225   4.103   4.967  0.2912 -1.1424 -0.4014
 4204TIP3   OH212617   0.355   0.827   2.296 -0.0498  0.3827  0.4421
 4204TIP3    H112618   0.423   0.787   2.242  0.2358  0.5247  0.6939
 4204TIP3    H212619   0.400   0.896   2.345 -0.2567  0.1141  1.0223
 4205TIP3   OH212620   3.289   5.876   0.764 -0.0033 -0.0577 -0.2328
 4205TIP3    H112621   3.378   5.903   0.743  0.4168  0.0022  1.5045
 4205TIP3    H212622   3.298   5.786   0.795 -0.2355  0.6168  1.9035
 4206TIP3   OH212623   3.256   2.465   1.004 -0.1724  0.4353  0.6163
 4206TIP3    H112624   3.306   2.449   1.084 -0.8459  0.9156  1.1480
 4206TIP3    H212625   3.202   2.542   1.024 -0.5620  0.3919 -0.2003
 4207TIP3   OH212626   1.424   0.136   0.210 -0.2024  0.4275  0.1991
 4207TIP3    H112627   1.457   0.186   0.136  0.1666  0.0671  0.1177
 4207TIP3    H212628   1.500   0.087   0.242 -0.7146 -0.6403 -0.1753
 4208TIP3   OH212629   2.681   4.932   0.690  0.3522  0.2743 -0.3711
 4208TIP3    H112630   2.629   4.998   0.645 -0.8263 -0.2061  0.2589
 4208TIP3    H212631   2.709   4.872   0.620 -0.4593  0.1942 -0.6381
 4209TIP3   OH212632   3.803   1.987   2.052 -0.2140 -0.3332  0.0930
 4209TIP3    H112633   3.804   1.915   1.989  1.0471  0.8254 -1.2869
 4209TIP3    H212634   3.761   2.059   2.004  0.2598  0.4034  0.7727
 4210TIP3   OH212635   4.893   2.444   4.204  0.4336 -0.1973 -0.2765
 4210TIP3    H112636   4.879   2.368   4.260 -0.5515 -0.5494 -0.9687
 4210TIP3    H212637   4.985   2.440   4.180  0.7859 -0.2284  1.0246
 4211TIP3   OH212638   3.248   4.972   3.750  0.2369  0.3266 -0.3424
 4211TIP3    H112639   3.246   4.965   3.655 -1.3346 -0.9883 -0.2413
 4211TIP3    H212640   3.295   4.894   3.779  0.6750  0.7012 -0.0149
 4212TIP3   OH212641   2.379   0.949   4.884  0.3439  0.1803  0.0711
 4212TIP3    H112642   2.345   0.983   4.802  0.9202  0.2356 -0.1524
 4212TIP3    H212643   2.364   1.019   4.948  0.2381  0.2891 -0.0751
 4213TIP3   OH212644   2.545   1.543   3.386 -0.3712  0.2245  0.5854
 4213TIP3    H112645   2.457   1.551   3.423 -0.6248 -1.6404  0.4842
 4213TIP3    H212646   2.566   1.449   3.394  0.8438  0.3082 -1.0923
 4214TIP3   OH212647   6.274   3.141   2.419  0.8307 -0.2332 -0.3658
 4214TIP3    H112648   6.266   3.051   2.451 -3.2614 -0.1811 -0.6500
 4214TIP3    H212649   6.356   3.142   2.370  1.6790 -3.4211  0.7159
 4215TIP3   OH212650   5.369   3.948   0.957 -0.0296  0.6544 -0.3718
 4215TIP3    H112651   5.326   3.995   0.886 -1.7843  1.2514  1.0122
 4215TIP3    H212652   5.325   3.863   0.960  0.9836  0.0868 -0.8394
 4216TIP3   OH212653   5.442   0.343   2.582  0.0474  0.3334 -0.2715
 4216TIP3    H112654   5.348   0.326   2.571  0.2484 -0.6125 -0.6208
 4216TIP3    H212655   5.476   0.263   2.621  0.7621  0.5540 -0.4402
 4217TIP3   OH212656   5.530   4.310   2.207  0.2131  0.1323 -0.1320
 4217TIP3    H112657   5.556   4.346   2.292  0.7395 -1.8093  0.5675
 4217TIP3    H212658   5.604   4.330   2.149  0.2392  0.6872  0.0876
 4218TIP3   OH212659   2.681   1.436   1.735  0.2478 -0.8868 -0.5888
 4218TIP3    H112660   2.666   1.523   1.772  0.4930 -0.3591 -1.6950
 4218TIP3    H212661   2.755   1.447   1.676  0.5928 -1.9650 -0.3848
 4219TIP3   OH212662   3.760   1.280   2.980  0.3641 -0.0644  0.2577
 4219TIP3    H112663   3.844   1.325   2.978  0.5218 -0.3731 -0.1570
 4219TIP3    H212664   3.696   1.350   2.995  0.7490  0.0771  1.2663
 4220TIP3   OH212665   5.759   5.724   0.108  0.1439  0.2667 -0.1676
 4220TIP3    H112666   5.834   5.693   0.058  0.9161  2.2019 -0.3105
 4220TIP3    H212667   5.786   5.810   0.141 -2.1501  1.2274 -0.5813
 4221TIP3   OH212668   5.775   2.796   4.536  0.0560  0.2050  0.1462
 4221TIP3    H112669   5.690   2.758   4.513  0.1102 -0.0579  0.3845
 4221TIP3    H212670   5.811   2.737   4.601  0.3214  0.4438  0.2169
 4222TIP3   OH212671   6.180   1.300   0.601  0.4891  0.4640 -0.5076
 4222TIP3    H112672   6.091   1.274   0.576  1.2024 -0.8196 -1.8307
 4222TIP3    H212673   6.178   1.305   0.697  0.2247 -4.5104 -0.0314
 4223TIP3   OH212674   1.970   3.503   0.110  0.5520 -0.5222 -0.0824
 4223TIP3    H112675   1.968   3.413   0.142  2.7508 -0.7346 -0.4006
 4223TIP3    H212676   1.931   3.498   0.022  1.2898 -1.3054 -0.3748
 4224TIP3   OH212677   3.701   4.314   4.807  0.4084 -0.1594  0.1820
 4224TIP3    H112678   3.774   4.276   4.856  0.3674 -2.1712 -1.1874
 4224TIP3    H212679   3.623   4.277   4.847  0.2481  0.2563  0.2554
 4225TIP3   OH212680   3.723   0.543   4.085  0.2954  0.1177  0.4398
 4225TIP3    H112681   3.760   0.486   4.018 -0.6844  1.3595 -1.2277
 4225TIP3    H212682   3.666   0.486   4.136 -2.5790 -0.0895 -2.6746
 4226TIP3   OH212683   3.253   4.104   1.504 -0.3485  0.3539  0.0967
 4226TIP3    H112684   3.165   4.077   1.530 -0.7032 -0.4871 -1.8887
 4226TIP3    H212685   3.247   4.122   1.411  1.1444  2.2249  0.2857
 4227TIP3   OH212686   2.349   2.748   2.771 -0.6377  0.0396 -0.1145
 4227TIP3    H112687   2.262   2.733   2.733 -0.9369 -2.4689  1.3504
 4227TIP3    H212688   2.334   2.752   2.865  0.7185  0.7873  0.0951
 4228TIP3   OH212689   4.503   3.102   2.652  0.1679  0.0416 -0.2004
 4228TIP3    H112690   4.413   3.136   2.652 -0.1488 -0.7735  0.3733
 4228TIP3    H212691   4.510   3.053   2.570 -0.1464 -0.4955  0.0918
 4229TIP3   OH212692   2.760   2.263   1.319  0.4046 -0.5274  0.2215
 4229TIP3    H112693   2.836   2.320   1.306  0.2761 -0.2458  0.6677
 4229TIP3    H212694   2.716   2.262   1.234 -0.5865  1.5101  0.6431
 4230TIP3   OH212695   2.543   2.183   5.045  0.4635 -0.1843 -0.5834
 4230TIP3    H112696   2.544   2.200   5.139 -3.1285  0.2348 -0.5026
 4230TIP3    H212697   2.466   2.129   5.031  1.2229 -0.6999 -3.2690
 4231TIP3   OH212698   3.847   5.466   4.025 -0.0919 -0.5283  0.2738
 4231TIP3    H112699   3.829   5.382   3.983 -1.6844 -0.2896  0.4183
 4231TIP3    H212700   3.761   5.510   4.029  0.0832 -0.2607  3.1377
 4232TIP3   OH212701   6.176   4.984   2.077  0.0862 -0.2082 -0.0075
 4232TIP3    H112702   6.206   4.920   2.012 -0.1910  0.5506 -0.9018
 4232TIP3    H212703   6.083   4.998   2.056  0.4732  1.5004 -0.7009
 4233TIP3   OH212704   3.492   1.229   0.583 -0.2062  0.8752 -0.7703
 4233TIP3    H112705   3.477   1.256   0.674  1.0711  1.2336 -0.6471
 4233TIP3    H212706   3.558   1.290   0.551  0.3725 -0.1084 -1.5038
 4234TIP3   OH212707   1.473   3.138   2.272  0.4314 -0.8872 -0.0690
 4234TIP3    H112708   1.556   3.177   2.299  0.5794 -0.7568 -0.6946
 4234TIP3    H212709   1.461   3.063   2.331 -0.5951  0.9146  2.1539
 4235TIP3   OH212710   0.307   4.485   4.564 -0.3432 -0.2310 -0.0972
 4235TIP3    H112711   0.362   4.409   4.546  1.3698  0.4222  1.9934
 4235TIP3    H212712   0.355   4.559   4.526 -0.1554  0.2405  1.0187
 4236TIP3   OH212713   1.904   2.912   3.532  0.4977  0.2187  0.1365
 4236TIP3    H112714   1.923   2.993   3.581  1.6573 -0.0611  0.1769
 4236TIP3    H212715   1.812   2.920   3.508  0.1815  0.8486  1.4610
 4237TIP3   OH212716   1.569   2.917   1.187 -0.4024  0.5302  0.5929
 4237TIP3    H112717   1.474   2.914   1.174 -0.2260 -2.1948 -0.8471
 4237TIP3    H212718   1.604   2.948   1.103  0.0603 -1.6745 -0.0893
 4238TIP3   OH212719   1.523   3.957   1.033 -0.6110  0.1150 -0.1686
 4238TIP3    H112720   1.500   3.864   1.025 -1.6874  0.0549  2.3657
 4238TIP3    H212721   1.618   3.958   1.041 -0.6860 -1.0437  1.5972
 4239TIP3   OH212722   0.794   5.136   3.324  0.0900  0.1411  0.2707
 4239TIP3    H112723   0.737   5.091   3.262 -0.6119 -0.8444  1.5894
 4239TIP3    H212724   0.753   5.222   3.336 -0.4051 -0.0890  0.2521
 4240TIP3   OH212725   4.060   5.041   0.946 -0.0039  0.1703  0.1179
 4240TIP3    H112726   3.977   5.090   0.948  0.4861  1.2015 -1.8693
 4240TIP3    H212727   4.108   5.080   0.873  2.0498 -0.7291  0.9306
 4241TIP3   OH212728   6.015   1.655   3.130  0.1584 -0.1199 -0.2233
 4241TIP3    H112729   5.989   1.733   3.080 -1.7116  0.1591  1.0940
 4241TIP3    H212730   5.958   1.586   3.097  3.0498 -1.5853 -2.7561
 4242TIP3   OH212731   5.287   3.269   2.966 -0.1161 -0.2556  0.6581
 4242TIP3    H112732   5.193   3.249   2.972  0.0485 -0.6509  2.2299
 4242TIP3    H212733   5.303   3.279   2.872 -1.9833  1.0617  0.4144
 4243TIP3   OH212734   3.396   2.514   4.055  0.2807  0.1921  0.2082
 4243TIP3    H112735   3.310   2.473   4.058  0.3930 -0.0766 -0.2090
 4243TIP3    H212736   3.378   2.607   4.039  0.0825  0.0877 -0.1616
 4244TIP3   OH212737   1.557   4.481   1.520 -0.4272  0.2345  0.1212
 4244TIP3    H112738   1.532   4.544   1.588 -1.2139  0.9496 -0.8020
 4244TIP3    H212739   1.581   4.402   1.569  1.3242  1.4589  1.3433
 4245TIP3   OH212740   0.912   0.017   3.669  0.3034 -0.9139 -0.1918
 4245TIP3    H112741   0.944  -0.046   3.604  1.3665 -1.2000  0.5745
 4245TIP3    H212742   0.902   0.099   3.620  1.5052 -1.0135 -0.6406
 4246TIP3   OH212743   5.488   2.192   2.009  0.2202 -0.4751 -0.6854
 4246TIP3    H112744   5.458   2.248   2.081  0.2711  1.2834 -1.9586
 4246TIP3    H212745   5.577   2.223   1.990  1.2338 -2.6685  0.1473
 4247TIP3   OH212746   1.446   4.288   4.715 -0.0607 -0.2061 -0.3556
 4247TIP3    H112747   1.541   4.281   4.706  0.2158  1.1733  1.0206
 4247TIP3    H212748   1.433   4.340   4.795 -1.9240  1.5721 -1.7056
 4248TIP3   OH212749   3.412   4.394   1.610 -0.8627  0.0672 -0.2757
 4248TIP3    H112750   3.449   4.307   1.597  0.7541  0.6639  0.1510
 4248TIP3    H212751   3.482   4.454   1.585 -1.2320  1.2476  1.3751
 4249TIP3   OH212752   1.767   1.224   4.906 -0.1309  0.5129 -0.1553
 4249TIP3    H112753   1.776   1.144   4.855 -1.4683 -1.1933  2.1230
 4249TIP3    H212754   1.673   1.233   4.922  0.2308  0.8300  2.1549
 4250TIP3   OH212755   2.734   4.773   1.508 -0.3916 -0.7450 -0.3142
 4250TIP3    H112756   2.754   4.815   1.592 -0.1370 -1.5522  0.0411
 4250TIP3    H212757   2.818   4.735   1.481 -0.7476 -1.5672 -0.3035
 4251TIP3   OH212758   5.126   4.639   4.279 -0.4871  0.0782  0.0312
 4251TIP3    H112759   5.142   4.677   4.192  1.5501 -0.1988  0.2280
 4251TIP3    H212760   5.031   4.638   4.288 -0.7007  3.5937 -0.6479
 4252TIP3   OH212761   4.309   5.543   1.012  0.7642  0.0968 -0.0580
 4252TIP3    H112762   4.295   5.565   0.920 -1.8803 -2.3715 -0.3908
 4252TIP3    H212763   4.329   5.450   1.012 -0.6520 -0.2934  1.8905
 4253TIP3   OH212764   3.244   3.804   5.054  0.2449  0.5176  0.7283
 4253TIP3    H112765   3.263   3.836   4.966 -0.5195  2.2992  1.1562
 4253TIP3    H212766   3.301   3.855   5.111 -0.4355  0.5492  1.3905
 4254TIP3   OH212767   2.726   1.911   5.113  0.0418  0.1996 -0.1594
 4254TIP3    H112768   2.810   1.897   5.156 -0.2502 -3.9749 -0.5488
 4254TIP3    H212769   2.663   1.912   5.185  0.1770  0.8517 -0.0418
 4255TIP3   OH212770   4.283   2.283   2.821  0.4866  0.3637  0.7718
 4255TIP3    H112771   4.193   2.315   2.820  0.1606 -0.4993  0.4011
 4255TIP3    H212772   4.273   2.187   2.820  1.3843  0.2306 -1.7752
 4256TIP3   OH212773   5.609   4.013   1.095 -0.1942 -0.3333  0.4110
 4256TIP3    H112774   5.524   4.023   1.051 -0.5903 -0.8333  1.0374
 4256TIP3    H212775   5.590   3.958   1.171  0.6375 -0.1828  0.7390
 4257TIP3   OH212776   3.213   1.363   2.768 -0.3382  0.2159 -0.0346
 4257TIP3    H112777   3.260   1.333   2.690  0.0048  1.2001 -0.2227
 4257TIP3    H212778   3.257   1.319   2.841  1.7712  2.0320 -0.0817
 4258TIP3   OH212779   1.572   3.619   2.251  0.3019 -0.0916  0.1609
 4258TIP3    H112780   1.617   3.600   2.169  1.0870 -0.0050  0.5618
 4258TIP3    H212781   1.630   3.584   2.319 -0.6847 -0.8163  0.6475
 4259TIP3   OH212782   5.731   2.905   1.387 -0.5742 -0.0499 -0.5751
 4259TIP3    H112783   5.656   2.919   1.329 -0.0081  0.2253 -1.2488
 4259TIP3    H212784   5.725   2.977   1.450 -0.8835 -0.0362 -0.6169
 4260TIP3   OH212785   3.969   5.279   1.950 -0.2526  0.4532  0.2725
 4260TIP3    H112786   4.017   5.359   1.929  0.3661 -0.2739 -1.2279
 4260TIP3    H212787   3.877   5.300   1.932 -0.0674  0.7563 -0.3326
 4261TIP3   OH212788   1.170   1.951   3.371  0.6691 -0.0252  0.2263
 4261TIP3    H112789   1.227   1.942   3.447  1.4753  0.0837 -0.3488
 4261TIP3    H212790   1.228   1.982   3.301 -0.2891  0.9943 -0.1379
 4262TIP3   OH212791   2.918   1.147   4.894  0.0780 -0.6868 -0.3670
 4262TIP3    H112792   2.977   1.072   4.898 -0.5757 -1.1512  1.5693
 4262TIP3    H212793   2.836   1.116   4.934 -1.4622 -0.0068 -2.8029
 4263TIP3   OH212794   5.632   3.031   3.630 -0.0239  0.5480  0.0811
 4263TIP3    H112795   5.671   3.084   3.560 -0.0856  0.2852 -0.1503
 4263TIP3    H212796   5.668   3.069   3.710  0.5197  0.4669 -0.1158
 4264TIP3   OH212797   1.484   0.372   0.035  0.2654 -0.1024  0.5487
 4264TIP3    H112798   1.500   0.464   0.014  0.3501 -0.5179 -1.4097
 4264TIP3    H212799   1.389   0.363   0.029  0.3759 -0.4717 -0.8667
 4265TIP3   OH212800   3.405   0.186   0.442  0.0793 -0.1187  0.5721
 4265TIP3    H112801   3.412   0.107   0.496 -0.1065 -0.0175  0.7484
 4265TIP3    H212802   3.314   0.213   0.451  0.2459  0.3588  0.8627
 4266TIP3   OH212803   0.904   0.993   4.544  0.6386 -0.7218  0.2106
 4266TIP3    H112804   0.916   1.061   4.611 -1.9563 -1.0478  1.1066
 4266TIP3    H212805   0.851   0.927   4.587  1.2704 -2.3107 -1.3534
 4267TIP3   OH212806   1.555   0.552   1.457 -0.4866 -0.7069  0.0219
 4267TIP3    H112807   1.550   0.616   1.528 -2.0902 -2.6549  1.7884
 4267TIP3    H212808   1.643   0.516   1.463 -0.8766 -1.5137  1.7551
 4268TIP3   OH212809   6.120   4.880   3.208  0.2293  0.3583  0.0847
 4268TIP3    H112810   6.164   4.796   3.202  2.0262  1.3246 -1.1638
 4268TIP3    H212811   6.152   4.918   3.290  0.8026  0.5554 -0.2277
 4269TIP3   OH212812   1.412   5.364   3.518  0.1256  0.2395  0.4361
 4269TIP3    H112813   1.384   5.386   3.606  0.2221 -0.5269  0.6626
 4269TIP3    H212814   1.507   5.361   3.523  0.0931 -0.8369  0.5631
 4270TIP3   OH212815   6.037   4.282   1.743 -0.1904  0.1182  0.3651
 4270TIP3    H112816   6.088   4.227   1.684 -0.2041  0.2200  0.2568
 4270TIP3    H212817   6.054   4.246   1.830 -0.3798 -0.1992  0.2743
 4271TIP3   OH212818   0.975   2.762   3.209  0.4152 -0.2738  0.2363
 4271TIP3    H112819   0.915   2.689   3.221 -1.1229  0.7905 -0.6162
 4271TIP3    H212820   1.044   2.728   3.152 -0.1841 -1.1014 -0.0016
 4272TIP3   OH212821   2.771   0.707   0.790  0.0876 -0.1613 -0.4501
 4272TIP3    H112822   2.676   0.705   0.801  0.0632 -0.4078 -0.6940
 4272TIP3    H212823   2.798   0.789   0.832 -0.1062 -0.6078  0.5840
 4273TIP3   OH212824   0.093   4.049   1.483 -0.0880 -0.4064 -0.2219
 4273TIP3    H112825   0.060   4.078   1.398 -3.2703  0.3741  1.1217
 4273TIP3    H212826   0.081   3.954   1.483  2.3679 -0.8027 -1.4875
 4274TIP3   OH212827   4.890   4.302   0.692  0.1097 -0.2076 -0.1352
 4274TIP3    H112828   4.914   4.238   0.626 -0.6819  1.6794 -2.4036
 4274TIP3    H212829   4.878   4.384   0.643  0.1011  1.4575  2.4519
 4275TIP3   OH212830   2.076   4.758   4.803  0.0749 -0.0496 -0.0628
 4275TIP3    H112831   2.004   4.821   4.801  0.2417  0.2701  1.8479
 4275TIP3    H212832   2.147   4.801   4.757 -0.2738  0.5594 -0.0419
 4276TIP3   OH212833   2.467   4.897   5.074  0.0246 -0.2485 -0.6115
 4276TIP3    H112834   2.379   4.925   5.101  1.0383  1.9649  0.6016
 4276TIP3    H212835   2.482   4.943   4.991  0.6497  0.7307  0.0255
 4277TIP3   OH212836   3.599   5.866   3.414 -0.6399 -0.5538 -0.0063
 4277TIP3    H112837   3.573   5.814   3.338 -2.6264  0.9663 -0.4342
 4277TIP3    H212838   3.689   5.894   3.393  0.0037 -2.6529 -0.3335
 4278TIP3   OH212839   2.054   2.046   2.675 -0.4007  0.2658 -0.0688
 4278TIP3    H112840   1.969   2.011   2.650 -0.6830  1.8885 -1.5517
 4278TIP3    H212841   2.046   2.063   2.769 -1.2717 -0.7274  0.0587
 4279TIP3   OH212842   2.909   1.540   0.416  0.1081 -0.2686 -0.4388
 4279TIP3    H112843   2.971   1.607   0.386  2.2968 -2.9092 -2.3897
 4279TIP3    H212844   2.921   1.537   0.511  0.9941  1.1251 -0.4819
 4280TIP3   OH212845   3.714   2.131   1.818 -0.4980 -0.3138  0.4662
 4280TIP3    H112846   3.659   2.171   1.751  0.6366 -1.0405 -0.9639
 4280TIP3    H212847   3.789   2.097   1.770  0.1495 -1.2585  2.0619
 4281TIP3   OH212848   5.404   0.388   3.316 -0.4630  0.0018 -0.4124
 4281TIP3    H112849   5.352   0.318   3.277 -0.4018 -0.8158  0.9066
 4281TIP3    H212850   5.340   0.445   3.359 -0.2832 -1.5590  2.0862
 4282TIP3   OH212851   2.016   1.394   4.725  0.0537  0.0320  0.1574
 4282TIP3    H112852   1.926   1.364   4.737  0.1903 -0.6768 -0.4847
 4282TIP3    H212853   2.035   1.376   4.632  0.4279  1.3654 -0.0424
 4283TIP3   OH212854   3.048   0.492   4.428  0.0355 -0.5911 -0.0546
 4283TIP3    H112855   3.096   0.570   4.397 -1.4966  0.5298  0.2663
 4283TIP3    H212856   2.974   0.484   4.368 -0.6063 -0.9432  0.7665
 4284TIP3   OH212857   3.993   2.493   3.443 -0.2438  0.4648 -0.1319
 4284TIP3    H112858   3.968   2.539   3.523 -1.2858  1.8587 -1.2097
 4284TIP3    H212859   3.943   2.412   3.445  1.0144 -0.3185  1.4102
 4285TIP3   OH212860   5.486   5.808   0.795 -0.0251  0.5744  0.7571
 4285TIP3    H112861   5.459   5.784   0.884  0.5723  0.6943  0.9687
 4285TIP3    H212862   5.565   5.860   0.806  1.1305 -0.9468  0.0811
 4286TIP3   OH212863   4.470   5.258   3.824 -0.2126  0.2610  0.0621
 4286TIP3    H112864   4.537   5.281   3.887  0.8387 -0.1935 -0.8451
 4286TIP3    H212865   4.518   5.242   3.742 -1.2350 -1.5124 -0.2661
 4287TIP3   OH212866   1.165   1.734   2.185 -0.1105 -0.6981 -0.3070
 4287TIP3    H112867   1.129   1.793   2.119 -0.1605 -0.3478  0.0299
 4287TIP3    H212868   1.163   1.785   2.267 -0.7815 -1.3968  0.1239
 4288TIP3   OH212869   1.882   5.776   2.124 -0.0179  0.5143  0.1892
 4288TIP3    H112870   1.937   5.853   2.136  0.6154  0.3137 -1.2301
 4288TIP3    H212871   1.909   5.716   2.194 -0.2276  1.3959  1.0451
 4289TIP3   OH212872   3.031   4.836   3.825 -0.2280 -0.5880  0.5713
 4289TIP3    H112873   3.109   4.890   3.813  1.4066 -2.9843 -0.3187
 4289TIP3    H212874   3.013   4.840   3.919 -1.2038  2.6930  0.3712
 4290TIP3   OH212875   3.245   3.342   2.787  0.1330  0.0163 -0.2710
 4290TIP3    H112876   3.273   3.268   2.734 -0.1495  0.8043 -1.5578
 4290TIP3    H212877   3.156   3.319   2.814 -0.1193  0.0555 -1.0317
 4291TIP3   OH212878   2.398   1.130   5.106 -0.6512 -0.3665  0.2458
 4291TIP3    H112879   2.312   1.137   5.147 -0.6655 -0.6003  0.2554
 4291TIP3    H212880   2.455   1.186   5.159 -1.1753  1.2055 -0.8014
 4292TIP3   OH212881   0.521   2.516   3.257 -0.2562  0.6707  0.5355
 4292TIP3    H112882   0.526   2.599   3.209 -1.5504  0.1479 -0.5613
 4292TIP3    H212883   0.576   2.456   3.208  0.0727  0.6574  0.9073
 4293TIP3   OH212884   4.639   4.251   0.952 -0.3269 -0.4788 -0.0488
 4293TIP3    H112885   4.710   4.314   0.965 -0.1822  0.0798 -2.8219
 4293TIP3    H212886   4.562   4.293   0.987  0.0885  0.5317 -0.3157
 4294TIP3   OH212887   2.351   0.346   2.147 -0.3128  0.1237 -0.0126
 4294TIP3    H112888   2.387   0.268   2.190  2.0132  1.2561  0.2154
 4294TIP3    H212889   2.265   0.358   2.187  0.5138 -0.6350  2.1134
 4295TIP3   OH212890   0.224   2.668   0.097  0.2479 -0.5153 -0.6028
 4295TIP3    H112891   0.206   2.715   0.179  1.6833  1.2772 -1.2543
 4295TIP3    H212892   0.139   2.634   0.070 -0.1952 -1.6432  1.8695
 4296TIP3   OH212893   3.699   5.493   3.332 -0.2372 -0.6719 -0.1192
 4296TIP3    H112894   3.674   5.458   3.417  1.4292  1.0737  1.1466
 4296TIP3    H212895   3.630   5.555   3.310  0.9540  1.3537  1.5949
 4297TIP3   OH212896   1.396  -0.000   3.207 -0.3001 -0.0563  0.0922
 4297TIP3    H112897   1.375   0.079   3.157  0.6393 -0.3979 -0.8732
 4297TIP3    H212898   1.356  -0.071   3.157  0.0186 -0.3260  0.2171
 4298TIP3   OH212899   0.370   5.621   3.147 -0.9210  0.2152  0.0771
 4298TIP3    H112900   0.346   5.672   3.069 -0.4232  0.6728  0.2226
 4298TIP3    H212901   0.307   5.548   3.147 -0.4146 -0.2549 -1.2146
 4299TIP3   OH212902   1.978   2.862   2.847  0.2602  0.8402 -0.0125
 4299TIP3    H112903   1.906   2.799   2.855  0.8936  0.1502  0.3914
 4299TIP3    H212904   2.039   2.823   2.785  0.0953  1.6204 -0.6824
 4300TIP3   OH212905   4.386   0.636   2.424 -0.5270  0.5119  0.6793
 4300TIP3    H112906   4.442   0.620   2.348  2.2003  0.2669  2.6090
 4300TIP3    H212907   4.298   0.640   2.387  0.6676  0.8000 -2.5372
 4301TIP3   OH212908   3.606   2.348   3.586 -0.7039 -0.6082  0.6466
 4301TIP3    H112909   3.608   2.408   3.661 -0.4229  0.0176  0.1529
 4301TIP3    H212910   3.643   2.266   3.619  0.2487 -0.0663  0.9657
 4302TIP3   OH212911   5.111   1.036   4.159 -0.5298  0.1719  0.0632
 4302TIP3    H112912   5.198   1.026   4.119 -0.7191  1.6926 -0.7822
 4302TIP3    H212913   5.052   0.992   4.098 -0.4843  0.0502  0.1062
 4303TIP3   OH212914   3.968   4.606   3.285 -0.1830  0.2078 -0.1987
 4303TIP3    H112915   4.006   4.523   3.312  1.0327  1.4144  2.1174
 4303TIP3    H212916   4.019   4.631   3.207  0.5795 -0.4486  0.0768
 4304TIP3   OH212917   5.707   3.385   2.637 -0.2057  0.1030  0.6737
 4304TIP3    H112918   5.701   3.404   2.543  3.5745 -0.1015  0.2571
 4304TIP3    H212919   5.724   3.291   2.642 -1.7801 -0.1757  1.7345
 4305TIP3   OH212920   0.478   5.750   0.669  0.5210 -0.6614  0.4124
 4305TIP3    H112921   0.455   5.738   0.761  1.8904 -0.1667  0.8424
 4305TIP3    H212922   0.415   5.695   0.621  0.3703 -1.6508  1.6950
 4306TIP3   OH212923   2.944   3.389   2.581  0.2432 -0.0061  0.5532
 4306TIP3    H112924   2.964   3.479   2.555  0.4436  0.1052  1.0726
 4306TIP3    H212925   2.872   3.363   2.524 -0.3323  0.7579  0.9193
 4307TIP3   OH212926   5.236   4.679   3.559 -0.1726 -0.0017  0.1421
 4307TIP3    H112927   5.160   4.727   3.590 -1.2189 -0.9580 -0.8694
 4307TIP3    H212928   5.224   4.590   3.590 -0.0405 -0.4202 -0.9459
 4308TIP3   OH212929   1.510   1.564   1.952  0.3185  0.3984 -0.1526
 4308TIP3    H112930   1.419   1.553   1.925 -0.2333  0.0631  1.6870
 4308TIP3    H212931   1.505   1.615   2.033  1.7101 -0.2178  0.3552
 4309TIP3   OH212932   5.903   1.290   2.515  0.0212 -0.4365 -0.1153
 4309TIP3    H112933   5.858   1.207   2.532 -0.5872 -0.1083 -0.0924
 4309TIP3    H212934   5.907   1.334   2.600  1.7286 -1.1056  0.1760
 4310TIP3   OH212935   6.171   3.304   3.538 -0.6207  0.0874 -0.1779
 4310TIP3    H112936   6.079   3.310   3.513 -0.8245 -1.1888  0.1919
 4310TIP3    H212937   6.169   3.269   3.627  0.2490 -2.3743 -1.0656
 4311TIP3   OH212938   4.931   5.192   1.998 -0.0112 -0.0808 -0.5168
 4311TIP3    H112939   4.993   5.258   2.029  1.4797 -1.6776  0.0260
 4311TIP3    H212940   4.903   5.224   1.912  0.8040  1.1626 -0.3409
 4312TIP3   OH212941   2.872   5.792   3.742  0.4498  0.6657 -0.1997
 4312TIP3    H112942   2.915   5.817   3.824  0.0795  2.3612 -0.4911
 4312TIP3    H212943   2.804   5.730   3.769  2.5661 -1.5766  0.3417
 4313TIP3   OH212944   1.036   1.119   3.082  0.0915 -0.0629  0.2284
 4313TIP3    H112945   1.122   1.158   3.065  0.5112 -1.3973 -0.8766
 4313TIP3    H212946   1.048   1.026   3.063 -1.1378 -0.5865  1.8126
 4314TIP3   OH212947   1.049   5.482   3.668  0.3372  0.0045  0.4488
 4314TIP3    H112948   0.966   5.507   3.626  1.2260  0.8821 -0.8552
 4314TIP3    H212949   1.052   5.386   3.660 -0.9184 -0.1357  1.2834
 4315TIP3   OH212950   2.862   2.345   4.019 -0.3635 -0.3138 -0.7782
 4315TIP3    H112951   2.808   2.418   4.051  1.4600  0.1505  1.4863
 4315TIP3    H212952   2.833   2.333   3.928 -3.6271  0.4276  0.0145
 4316TIP3   OH212953   4.161   4.648   2.234 -0.1129 -0.0677 -0.5784
 4316TIP3    H112954   4.128   4.680   2.319  0.6607 -0.1512 -0.2346
 4316TIP3    H212955   4.083   4.633   2.182 -0.6890 -1.2769  0.5737
 4317TIP3   OH212956   4.282   1.996   1.591  0.2399  0.0356  0.3877
 4317TIP3    H112957   4.234   1.986   1.509  1.9355  0.1467 -0.6768
 4317TIP3    H212958   4.333   2.076   1.580  2.0206 -0.9880  0.6929
 4318TIP3   OH212959   4.085   5.695   4.537  0.6125  0.3566 -0.3555
 4318TIP3    H112960   4.020   5.630   4.510 -1.8386  1.5259  2.2666
 4318TIP3    H212961   4.070   5.769   4.478  1.5952 -0.3871 -1.5996
 4319TIP3   OH212962   5.933   5.183   4.371  0.1193 -0.2346  0.3257
 4319TIP3    H112963   5.996   5.244   4.410 -1.1799  0.4599  1.4024
 4319TIP3    H212964   5.985   5.106   4.349  1.1686 -0.1278  2.2358
 4320TIP3   OH212965   4.886   0.160   0.413 -0.1641  0.3505 -0.3529
 4320TIP3    H112966   4.835   0.233   0.447  0.0388  0.2146  0.2525
 4320TIP3    H212967   4.821   0.099   0.377 -0.3884  0.4210 -0.0631
 4321TIP3   OH212968   5.344   4.206   2.489  0.0388 -0.0977  0.2818
 4321TIP3    H112969   5.342   4.154   2.408 -1.6766 -1.2519  1.0005
 4321TIP3    H212970   5.293   4.284   2.468  0.1185 -0.1067  0.0496
 4322TIP3   OH212971   2.374   3.309   3.112 -0.6460 -0.6207 -0.3011
 4322TIP3    H112972   2.463   3.280   3.132 -0.5909 -0.1288  0.2010
 4322TIP3    H212973   2.347   3.255   3.037  0.3223 -0.3114 -0.8920
 4323TIP3   OH212974   1.640   3.387  -0.019  0.0004  0.0153 -0.0716
 4323TIP3    H112975   1.648   3.418   0.072  0.6911  1.2308 -0.5096
 4323TIP3    H212976   1.552   3.414  -0.046 -0.2156 -0.3701  0.2425
 4324TIP3   OH212977   2.478   0.766   0.882  0.4854 -0.0251  0.2409
 4324TIP3    H112978   2.487   0.770   0.977  0.4471  0.6734  0.2230
 4324TIP3    H212979   2.405   0.706   0.867  0.1040  0.3255  0.6762
 4325TIP3   OH212980   3.405   5.746   5.191  0.2443 -0.1903  0.5231
 4325TIP3    H112981   3.371   5.832   5.165 -3.3216 -1.8877 -1.0777
 4325TIP3    H212982   3.439   5.708   5.110 -1.3004 -1.4912  0.4282
 4326TIP3   OH212983   3.527   4.860   3.005 -0.5336  0.2766  0.1778
 4326TIP3    H112984   3.484   4.858   3.091  1.2841 -0.8246  1.1236
 4326TIP3    H212985   3.613   4.898   3.022 -0.6939  1.4430 -1.4603
 4327TIP3   OH212986   6.220   0.034   4.108  0.1140 -0.0912 -0.1310
 4327TIP3    H112987   6.171  -0.045   4.083 -0.5883  0.2561  0.0984
 4327TIP3    H212988   6.204   0.095   4.036 -1.5429  0.7541  0.8859
 4328TIP3   OH212989   1.006   2.727   0.855  0.8161 -0.7456  0.3302
 4328TIP3    H112990   1.036   2.731   0.765  0.1978  1.0436  0.1643
 4328TIP3    H212991   0.920   2.687   0.850  1.2599 -1.7070  0.2743
 4329TIP3   OH212992   6.064   0.514   1.001 -0.6100  0.0105 -0.2768
 4329TIP3    H112993   6.142   0.485   0.955 -0.1893  1.5873 -0.6177
 4329TIP3    H212994   6.030   0.586   0.948 -0.2464  1.7373  1.6936
 4330TIP3   OH212995   1.374   4.799   3.211 -0.0060  0.2806  0.0127
 4330TIP3    H112996   1.429   4.742   3.265  0.7443  0.3013 -0.7131
 4330TIP3    H212997   1.369   4.881   3.260 -3.4153 -1.1652  2.5055
 4331TIP3   OH212998   4.824   4.062   4.601  0.0699  0.0539  0.2450
 4331TIP3    H112999   4.801   4.062   4.508  0.4987  0.1149  0.1334
 4331TIP3    H213000   4.740   4.059   4.647 -0.1394 -0.1980 -0.1446
 4332TIP3   OH213001   2.339   2.369   1.991 -0.3758 -0.0564  0.3317
 4332TIP3    H113002   2.386   2.443   1.955  0.1242 -1.0303 -1.1222
 4332TIP3    H213003   2.334   2.386   2.085  0.8381  1.1769  0.1932
 4333TIP3   OH213004   4.129   4.930   4.545 -0.5751 -0.2672  0.6311
 4333TIP3    H113005   4.118   4.837   4.524 -0.2398  0.1254 -1.4736
 4333TIP3    H213006   4.064   4.947   4.613 -1.4995 -1.7424  0.1584
 4334TIP3   OH213007   3.404   3.518   2.966 -0.1319  0.2827 -0.2899
 4334TIP3    H113008   3.371   3.441   2.918  0.2274  0.1740 -0.3664
 4334TIP3    H213009   3.499   3.514   2.955 -0.0371  0.2150  0.4964
 4335TIP3   OH213010   0.235   1.051   3.396 -0.7134 -0.2642 -0.4454
 4335TIP3    H113011   0.176   1.003   3.454 -1.5638  1.1415 -0.0937
 4335TIP3    H213012   0.177   1.095   3.333 -0.0018  0.5897 -0.5324
 4336TIP3   OH213013   4.001   3.065   2.888  0.2102  0.0722  0.1146
 4336TIP3    H113014   3.923   3.020   2.922 -0.0009  0.8195  0.6439
 4336TIP3    H213015   3.969   3.151   2.861  0.7179  0.1149 -0.3683
 4337TIP3   OH213016   4.679   2.022   3.205  0.1786 -0.9784  0.0159
 4337TIP3    H113017   4.745   1.977   3.153  0.3068  0.4025 -1.0730
 4337TIP3    H213018   4.728   2.072   3.269  0.6621  2.9242 -2.9813
 4338TIP3   OH213019   5.753   2.294   3.269 -0.1191 -0.6020  0.3270
 4338TIP3    H113020   5.838   2.338   3.264  0.3520 -1.2996  1.6602
 4338TIP3    H213021   5.703   2.330   3.196  0.4804  1.6109  0.9419
 4339TIP3   OH213022   2.468   2.467   2.953 -0.1545 -0.0100 -0.3294
 4339TIP3    H113023   2.423   2.386   2.973  0.8439 -0.4606  0.1591
 4339TIP3    H213024   2.446   2.485   2.861 -0.2662 -0.9100 -0.4815
 4340TIP3   OH213025   5.114   4.040   3.845 -0.1188  0.1164  0.0505
 4340TIP3    H113026   5.209   4.029   3.846  0.1995  2.3499 -0.6764
 4340TIP3    H213027   5.083   3.977   3.780  1.0863  0.6220 -1.0428
 4341TIP3   OH213028   1.500   5.851   0.764 -0.2958  0.0929 -0.7359
 4341TIP3    H113029   1.561   5.788   0.802 -0.2227  1.0988  0.9061
 4341TIP3    H213030   1.550   5.894   0.695 -0.0732 -1.0111 -1.2865
 4342TIP3   OH213031   5.344   3.442   2.489  0.0832 -0.1466  0.5300
 4342TIP3    H113032   5.250   3.429   2.483  0.3168 -1.4523 -1.4479
 4342TIP3    H213033   5.370   3.470   2.401  1.4786  0.6068  1.1557
 4343TIP3   OH213034   2.817   1.090   2.081 -0.4692 -0.1720 -0.5450
 4343TIP3    H113035   2.733   1.046   2.096 -0.6693  0.0060 -1.1407
 4343TIP3    H213036   2.863   1.080   2.164 -1.1055 -0.2141 -0.1846
 4344TIP3   OH213037   5.280   0.740   5.086 -0.3214  0.1896 -0.0255
 4344TIP3    H113038   5.282   0.836   5.078  1.2235  0.1341 -0.7324
 4344TIP3    H213039   5.300   0.709   4.998 -0.7345 -0.7942  0.2182
 4345TIP3   OH213040   4.857   5.962   2.542 -0.1896 -0.4092  0.3390
 4345TIP3    H113041   4.777   5.946   2.491  0.3108 -0.5143 -0.4261
 4345TIP3    H213042   4.894   6.042   2.504  0.4486 -0.7628  0.1950
 4346TIP3   OH213043   3.803   0.887   2.226  0.4298 -0.4223  0.3025
 4346TIP3    H113044   3.836   0.971   2.193 -1.0778 -0.2624 -0.9375
 4346TIP3    H213045   3.740   0.911   2.294 -0.5239 -0.4770 -0.5332
 4347TIP3   OH213046   3.262   1.978   3.430 -0.1280 -0.3791 -0.3315
 4347TIP3    H113047   3.279   1.904   3.490  1.6755 -1.6043 -2.2251
 4347TIP3    H213048   3.310   2.051   3.468  0.6533 -1.0284 -0.0336
 4348TIP3   OH213049   3.484   1.427   3.869 -0.0801 -0.0619 -0.1633
 4348TIP3    H113050   3.406   1.379   3.842 -1.0020  0.2726  1.7113
 4348TIP3    H213051   3.538   1.362   3.913 -0.8422  0.3142  1.4245
 4349TIP3   OH213052   2.415   3.461   0.650 -0.0096  0.5864 -0.3784
 4349TIP3    H113053   2.349   3.523   0.619  1.0164  1.5994 -0.5999
 4349TIP3    H213054   2.422   3.478   0.744 -0.2884  0.2460 -0.2918
 4350TIP3   OH213055   2.090   2.012   1.094 -0.4614  0.3799 -0.3478
 4350TIP3    H113056   2.151   1.976   1.030  0.1995  2.2632 -0.8574
 4350TIP3    H213057   2.143   2.068   1.150 -1.4001  0.5082  0.4415
 4351TIP3   OH213058   4.641   0.453   0.280  0.0301  0.8570 -0.1645
 4351TIP3    H113059   4.582   0.409   0.218 -0.1240 -0.2090  0.7117
 4351TIP3    H213060   4.591   0.527   0.313 -1.3266 -0.7192  1.4785
 4352TIP3   OH213061   1.733   3.651   1.025  0.0224 -0.0483  0.1695
 4352TIP3    H113062   1.718   3.612   1.111 -0.2271 -1.6163 -0.5490
 4352TIP3    H213063   1.824   3.683   1.030 -0.9094  2.6499  1.9773
 4353TIP3   OH213064   4.449   3.389   0.455 -0.2272  0.3386 -0.4465
 4353TIP3    H113065   4.501   3.315   0.486  0.5640  1.1325  0.1903
 4353TIP3    H213066   4.377   3.396   0.518 -0.3675  0.0430 -0.5729
 4354TIP3   OH213067   1.107   5.942   1.878  0.2968 -0.0051 -0.4064
 4354TIP3    H113068   1.132   5.975   1.965 -0.2650  0.9321 -0.5887
 4354TIP3    H213069   1.043   5.873   1.896  0.6074 -0.2076 -0.0614
 4355TIP3   OH213070   0.595   1.620   2.999  0.1841 -0.0038 -0.1028
 4355TIP3    H113071   0.673   1.627   2.943 -0.3957 -2.2140 -1.2977
 4355TIP3    H213072   0.526   1.662   2.949  0.1966  0.2123  0.0634
 4356TIP3   OH213073   2.030   3.817   4.961 -0.4606  0.4971  0.0505
 4356TIP3    H113074   2.126   3.815   4.962 -0.4563 -1.7773 -0.0105
 4356TIP3    H213075   2.007   3.797   4.871 -0.9678 -0.3834  0.3616
 4357TIP3   OH213076   5.111   3.055   4.605 -0.3326  0.4197  0.4613
 4357TIP3    H113077   5.191   3.094   4.640  0.2357  0.1777 -0.5159
 4357TIP3    H213078   5.076   3.002   4.677  1.3417 -0.8919  0.3914
 4358TIP3   OH213079   1.144   3.442   4.944  0.1097 -0.0191 -0.4513
 4358TIP3    H113080   1.157   3.472   5.034  0.8403 -0.9812 -0.2300
 4358TIP3    H213081   1.183   3.511   4.890  1.2920 -0.3044  0.0316
 4359TIP3   OH213082   0.832   4.907   3.481 -0.0980  0.2536 -0.2600
 4359TIP3    H113083   0.843   4.990   3.435 -0.2089  0.7269  0.5611
 4359TIP3    H213084   0.920   4.867   3.479 -0.2572 -0.0924 -1.5293
 4360TIP3   OH213085   1.828   4.705   3.151 -0.0502 -0.0139 -0.1271
 4360TIP3    H113086   1.818   4.691   3.056 -1.0659  2.2649 -0.4266
 4360TIP3    H213087   1.795   4.794   3.165  0.9078  0.0209  2.2541
 4361TIP3   OH213088   1.237   2.277   1.448 -0.4098 -0.0796  0.2387
 4361TIP3    H113089   1.172   2.347   1.440 -0.1102  0.1770  0.0206
 4361TIP3    H213090   1.234   2.231   1.365  0.0759  0.2783  0.0171
 4362TIP3   OH213091   5.201   3.427   3.341 -0.0121  0.1999  0.2669
 4362TIP3    H113092   5.187   3.463   3.429 -0.2636  0.0847  0.2775
 4362TIP3    H213093   5.118   3.443   3.296 -0.9135 -2.1673  0.9099
 4363TIP3   OH213094   4.771   5.308   1.342 -0.4863  0.1015 -0.0231
 4363TIP3    H113095   4.771   5.373   1.273 -0.6974  0.4430  0.2978
 4363TIP3    H213096   4.861   5.276   1.344 -0.0617  1.2670  0.6345
 4364TIP3   OH213097   2.308   3.453   2.766 -0.3362 -0.5798 -0.7239
 4364TIP3    H113098   2.326   3.541   2.797  0.7596 -1.4950  1.4761
 4364TIP3    H213099   2.260   3.411   2.837 -0.3861 -1.9151 -1.4924
 4365TIP3   OH213100   5.892   3.912   3.102  0.2047  0.6175  0.2293
 4365TIP3    H113101   5.864   4.003   3.097  0.5184  0.7075  0.0702
 4365TIP3    H213102   5.859   3.872   3.022  2.2897  1.2305 -1.0411
 4366TIP3   OH213103   2.182   0.133   3.635 -0.5252 -0.0346 -0.1225
 4366TIP3    H113104   2.109   0.166   3.583 -0.3507 -0.4622 -0.6570
 4366TIP3    H213105   2.222   0.211   3.673 -2.3078  0.0754  1.6349
 4367TIP3   OH213106   2.166   3.700   2.664 -0.6099  0.6325  0.1093
 4367TIP3    H113107   2.172   3.615   2.622  3.2912  1.4241 -1.4327
 4367TIP3    H213108   2.155   3.762   2.591 -0.0329  1.6294  0.8388
 4368TIP3   OH213109   6.030   4.375   2.805  0.0008 -0.2134 -0.0993
 4368TIP3    H113110   6.019   4.345   2.895  1.6759 -1.4392 -0.2569
 4368TIP3    H213111   6.084   4.308   2.764  0.8251  1.2415 -1.5019
 4369TIP3   OH213112   3.422   3.008   4.281 -0.1093 -0.2809 -0.0523
 4369TIP3    H113113   3.477   3.066   4.228  0.2533 -1.3955 -0.9195
 4369TIP3    H213114   3.340   3.057   4.292 -0.1660  0.0002 -1.5905
 4370TIP3   OH213115   2.709   1.556   2.335  0.1711 -0.1206  0.4516
 4370TIP3    H113116   2.660   1.615   2.277 -0.2969  0.1752  1.1317
 4370TIP3    H213117   2.715   1.474   2.287 -1.3785 -0.3012  0.5250
 4371TIP3   OH213118   3.303   2.434   5.067 -0.1442  0.3115  0.0704
 4371TIP3    H113119   3.218   2.392   5.053  0.4670 -0.4500 -1.4957
 4371TIP3    H213120   3.328   2.408   5.156 -0.5990 -1.2158 -0.2244
 4372TIP3   OH213121   4.548   0.852   1.299  0.3658  0.1110  0.1220
 4372TIP3    H113122   4.464   0.863   1.255  0.1618  2.4075  0.9289
 4372TIP3    H213123   4.613   0.863   1.230  0.0198 -0.6887 -0.3383
 4373TIP3   OH213124   0.150   3.920   2.790 -0.1881  0.0083 -0.1391
 4373TIP3    H113125   0.152   3.974   2.711  1.0166  1.9164  1.1234
 4373TIP3    H213126   0.240   3.919   2.821 -0.4217 -1.6808  0.6295
 4374TIP3   OH213127   5.603   4.205   4.457  0.0973 -0.0098  0.4450
 4374TIP3    H113128   5.546   4.133   4.431  0.0272  0.3300 -0.3713
 4374TIP3    H213129   5.579   4.223   4.548 -1.1933  0.2068  0.0807
 4375TIP3   OH213130   3.981   5.041   4.728 -0.0218  0.1376  0.1275
 4375TIP3    H113131   3.973   4.981   4.803 -0.3798 -0.4319 -0.3510
 4375TIP3    H213132   4.067   5.081   4.738 -1.0405  1.9799  2.2326
 4376TIP3   OH213133   3.061   1.287   0.444  0.0041 -0.1864 -0.2436
 4376TIP3    H113134   2.997   1.332   0.389 -1.0781  0.5259  1.5392
 4376TIP3    H213135   3.146   1.323   0.417 -0.6495  1.3425 -0.3264
 4377TIP3   OH213136   5.004   0.655   3.120 -0.3962 -0.0831 -0.4687
 4377TIP3    H113137   5.001   0.749   3.138 -2.1599 -0.2490  0.3001
 4377TIP3    H213138   4.934   0.640   3.057  0.5116 -0.7640 -1.3562
 4378TIP3   OH213139   1.356   0.778   1.521 -0.2561 -0.2898 -0.2863
 4378TIP3    H113140   1.386   0.764   1.431 -1.1446  2.2976 -1.0646
 4378TIP3    H213141   1.328   0.870   1.523 -2.1937 -0.8344  2.0784
 4379TIP3   OH213142   6.004   4.055   0.106 -0.3229 -0.3163  0.3639
 4379TIP3    H113143   5.973   4.137   0.143 -0.1810 -0.6293  1.1984
 4379TIP3    H213144   5.936   3.991   0.128  0.4822 -0.8326  1.4693
 4380TIP3   OH213145   1.768   5.507   1.213  0.3890 -0.8178 -0.3114
 4380TIP3    H113146   1.733   5.437   1.158 -0.0139 -2.9629  2.4322
 4380TIP3    H213147   1.852   5.473   1.243  1.0702  0.7372 -0.3505
 4381TIP3   OH213148   2.935   1.126   3.897  0.3359  0.6183 -0.1688
 4381TIP3    H113149   2.860   1.066   3.895  0.8378 -0.0850  1.0589
 4381TIP3    H213150   2.932   1.171   3.813  0.1778 -1.4182 -1.2936
 4382TIP3   OH213151   5.130   0.221   3.713 -0.1525  0.1709  0.0058
 4382TIP3    H113152   5.138   0.224   3.618  0.5800 -2.0111 -0.0696
 4382TIP3    H213153   5.172   0.138   3.738 -1.8614 -0.1757  2.0566
 4383TIP3   OH213154   5.713   1.618   3.439  0.0143 -0.4800 -0.2914
 4383TIP3    H113155   5.800   1.648   3.463  0.1152  0.1833 -1.3864
 4383TIP3    H213156   5.726   1.567   3.359 -0.3925 -1.9122  0.5218
 4384TIP3   OH213157   3.982   5.412   0.653 -0.0541 -0.1285  0.2123
 4384TIP3    H113158   3.990   5.491   0.599 -1.6773  0.5418  0.8896
 4384TIP3    H213159   3.913   5.360   0.610  1.1899 -1.3530 -0.3878
 4385TIP3   OH213160   4.167   0.451   3.731 -0.3196 -0.2243  0.2111
 4385TIP3    H113161   4.216   0.531   3.715  1.5149 -1.1965  0.6879
 4385TIP3    H213162   4.106   0.445   3.658  1.8265 -0.0712 -1.7135
 4386TIP3   OH213163   3.078   5.104   4.442  0.0751 -0.2186  0.1774
 4386TIP3    H113164   3.075   5.009   4.438  0.2068 -0.2659  1.0453
 4386TIP3    H213165   2.990   5.132   4.419 -0.3558 -0.6144  1.2685
 4387TIP3   OH213166   0.982   3.819   1.344 -0.0753 -0.0851 -0.5946
 4387TIP3    H113167   1.020   3.759   1.279  0.1297  0.0907 -0.6398
 4387TIP3    H213168   1.010   3.906   1.315  2.1117 -0.1329  1.0506
 4388TIP3   OH213169   1.384   3.108   0.171  0.8164 -0.1810  0.1941
 4388TIP3    H113170   1.393   3.203   0.183 -0.8770 -0.1991  1.8661
 4388TIP3    H213171   1.466   3.072   0.206  1.3890  0.6139 -0.2738
 4389TIP3   OH213172   5.646   4.842   3.448 -0.0703 -0.5153  0.1531
 4389TIP3    H113173   5.679   4.796   3.371 -0.0092 -1.3296  0.6445
 4389TIP3    H213174   5.685   4.795   3.522  0.1498  0.4668  0.6722
 4390TIP3   OH213175   3.326   5.491   1.274 -0.0010  0.1177  0.4557
 4390TIP3    H113176   3.366   5.432   1.338 -0.8108 -1.0319 -0.0647
 4390TIP3    H213177   3.288   5.561   1.327  1.5767  0.5709  1.0395
 4391TIP3   OH213178   3.355   2.516   1.241  0.2655  0.0696 -0.0756
 4391TIP3    H113179   3.412   2.588   1.267 -1.1458  1.3040 -0.3176
 4391TIP3    H213180   3.274   2.529   1.291 -0.6331 -0.3830 -1.3517
 4392TIP3   OH213181   4.410   3.911   2.254 -0.2148 -0.8468  0.6250
 4392TIP3    H113182   4.477   3.977   2.235  2.0828 -2.7835  1.3947
 4392TIP3    H213183   4.347   3.919   2.182  0.4903  1.4612  0.1748
 4393TIP3   OH213184   0.615   3.879   5.115 -0.3165 -0.5001  0.3551
 4393TIP3    H113185   0.662   3.834   5.044  0.5740 -0.4387  0.8835
 4393TIP3    H213186   0.549   3.816   5.143 -0.0483 -0.9048  0.0962
 4394TIP3   OH213187   1.669   2.273   0.116  0.1929 -0.1449 -0.1737
 4394TIP3    H113188   1.651   2.215   0.043  0.1603  0.8294 -0.9596
 4394TIP3    H213189   1.583   2.292   0.154 -0.2204  2.0357 -2.0088
 4395TIP3   OH213190   2.004   0.737   4.262  0.2691  0.5376 -0.1985
 4395TIP3    H113191   2.079   0.685   4.231 -0.1220 -0.1323 -0.0417
 4395TIP3    H213192   2.041   0.792   4.331  0.7014  0.4934 -0.3897
 4396TIP3   OH213193   4.561   1.745   1.314  0.4558 -0.1614  0.2582
 4396TIP3    H113194   4.480   1.796   1.304  0.3754 -0.2826  0.2808
 4396TIP3    H213195   4.631   1.809   1.309  0.3611 -0.0661  0.1459
 4397TIP3   OH213196   4.086   2.795   1.277 -0.3296 -0.4042  0.5838
 4397TIP3    H113197   4.067   2.868   1.336 -0.0525 -0.4550  0.7352
 4397TIP3    H213198   4.114   2.724   1.334  1.5079  0.0338  0.2944
 4398TIP3   OH213199   1.591   3.855   1.999  0.1153  0.4966  0.5430
 4398TIP3    H113200   1.512   3.805   1.981  0.3963  0.3125 -0.2346
 4398TIP3    H213201   1.663   3.795   1.978  0.4560  1.2447 -0.5479
 4399TIP3   OH213202   4.199   4.373   2.703 -0.3743  0.0870 -0.3309
 4399TIP3    H113203   4.283   4.358   2.748 -0.7588 -0.6486  0.1639
 4399TIP3    H213204   4.142   4.304   2.736 -0.9189  0.0415 -1.3396
 4400TIP3   OH213205   0.153   0.895   2.612 -0.2881 -0.1107 -0.3745
 4400TIP3    H113206   0.222   0.955   2.581 -0.0582  0.0712  0.4626
 4400TIP3    H213207   0.073   0.928   2.572  0.0384 -0.0467 -0.9929
 4401TIP3   OH213208   5.258   3.173   2.393  0.5492  0.5825 -0.0675
 4401TIP3    H113209   5.329   3.237   2.389 -0.3288  1.5403 -0.7548
 4401TIP3    H213210   5.188   3.210   2.338 -0.5544 -0.2422  0.7285
 4402TIP3   OH213211   3.466   1.962   0.261 -0.2779  0.1832  0.2178
 4402TIP3    H113212   3.396   2.006   0.310 -1.0426  0.3364 -0.9918
 4402TIP3    H213213   3.451   1.985   0.170  2.0249  1.1238  0.0187
 4403TIP3   OH213214   2.242   5.643   4.666 -0.0969 -0.2286  0.4580
 4403TIP3    H113215   2.207   5.731   4.653  0.4264 -0.1605 -0.5565
 4403TIP3    H213216   2.165   5.587   4.674 -0.4369  0.1545 -0.0745
 4404TIP3   OH213217   0.353   3.330   1.949  0.9881 -0.2113  0.7346
 4404TIP3    H113218   0.285   3.265   1.939 -0.7456  1.6231 -0.0771
 4404TIP3    H213219   0.363   3.369   1.862  1.6245  0.9332  1.2932
 4405TIP3   OH213220   5.276   1.050   1.654  0.2776 -0.2149  0.1971
 4405TIP3    H113221   5.257   0.965   1.693 -2.5705  0.4775  0.5232
 4405TIP3    H213222   5.251   1.114   1.720  0.4161  0.8998 -0.7883
 4406TIP3   OH213223   0.429   2.683   4.340  0.7098  0.1223  0.2539
 4406TIP3    H113224   0.456   2.664   4.430  1.8483  0.7479  0.0746
 4406TIP3    H213225   0.364   2.752   4.348  0.4671 -0.1511  0.6246
 4407TIP3   OH213226   4.920   3.606   5.016  0.4033 -0.6180  0.2748
 4407TIP3    H113227   4.932   3.657   4.936  0.6138 -1.2715 -0.1116
 4407TIP3    H213228   4.832   3.629   5.046 -0.3040 -1.5603 -0.9985
 4408TIP3   OH213229   5.261   5.563   4.611 -0.1289 -0.3333 -0.2254
 4408TIP3    H113230   5.182   5.514   4.633 -0.6254  0.3777 -0.3751
 4408TIP3    H213231   5.238   5.654   4.629  0.3345 -0.0113 -1.1929
 4409TIP3   OH213232   5.131   1.273   4.378 -0.8393  0.4928  0.6821
 4409TIP3    H113233   5.173   1.205   4.324  1.4533  2.0840  0.2972
 4409TIP3    H213234   5.121   1.347   4.319 -3.2102  0.5830  1.1221
 4410TIP3   OH213235   2.851   3.417   1.018  0.0181  0.1889 -0.5639
 4410TIP3    H113236   2.755   3.418   1.011  0.0735  0.2111 -1.3926
 4410TIP3    H213237   2.880   3.489   0.961  0.4601  1.2898  1.0004
 4411TIP3   OH213238   2.017   5.200   0.452  0.1439  0.2738 -0.4925
 4411TIP3    H113239   2.063   5.264   0.397 -1.7885  1.8521 -0.3916
 4411TIP3    H213240   1.942   5.172   0.399 -1.1783  1.0500  0.8838
 4412TIP3   OH213241   4.175   5.284   0.069 -0.6412  0.4105 -0.1980
 4412TIP3    H113242   4.165   5.216   0.001 -0.7271 -0.1861  0.4001
 4412TIP3    H213243   4.157   5.366   0.023 -2.5898 -0.1313 -0.4837
 4413TIP3   OH213244   1.527   1.942   0.998 -0.1357 -0.1220 -0.4031
 4413TIP3    H113245   1.616   1.950   0.964 -0.2542  2.1403 -0.3342
 4413TIP3    H213246   1.533   1.971   1.089 -0.9139 -0.1221 -0.3462
 4414TIP3   OH213247   6.345   3.814   1.398 -0.2494  0.0266 -0.4219
 4414TIP3    H113248   6.274   3.829   1.337  0.1012  0.8300 -0.6462
 4414TIP3    H213249   6.308   3.758   1.466 -1.1519  0.6189 -0.4218
 4415TIP3   OH213250   0.458   0.943   3.157 -0.1028 -0.3313  0.2809
 4415TIP3    H113251   0.463   0.943   3.252  2.1235  1.3112  0.2519
 4415TIP3    H213252   0.530   0.885   3.129  0.2023  0.3415 -0.3791
 4416TIP3   OH213253   1.684   1.183   1.509  0.5477 -0.1541 -0.8752
 4416TIP3    H113254   1.700   1.128   1.586 -1.6073  0.3010 -0.0457
 4416TIP3    H213255   1.755   1.247   1.510  0.9325 -0.5781  0.3347
 4417TIP3   OH213256   5.210   1.781   4.608 -0.0872  0.4957 -0.1547
 4417TIP3    H113257   5.224   1.870   4.639 -0.8895  0.0579  1.5719
 4417TIP3    H213258   5.198   1.729   4.688 -0.7266 -0.9698 -1.1640
 4418TIP3   OH213259   5.249   3.651   1.194 -0.1643 -0.3176 -0.2860
 4418TIP3    H113260   5.296   3.732   1.211 -0.4187 -0.1559 -0.3463
 4418TIP3    H213261   5.280   3.590   1.261  0.2533 -0.2631 -0.4292
 4419TIP3   OH213262   1.938   3.704   2.826  0.0278 -0.2125 -0.4636
 4419TIP3    H113263   2.019   3.698   2.774 -0.2912 -1.9935 -0.8238
 4419TIP3    H213264   1.887   3.771   2.781  1.3951  1.1692 -0.0549
 4420TIP3   OH213265   3.014   3.525   3.901  0.5823  0.4361 -0.4390
 4420TIP3    H113266   3.033   3.463   3.971 -1.2695 -0.7831 -0.9351
 4420TIP3    H213267   2.922   3.547   3.913  1.2053  3.2351 -0.2249
 4421TIP3   OH213268   3.828   5.221   0.999 -0.0416  0.3942 -0.4241
 4421TIP3    H113269   3.778   5.229   1.080 -0.9427  0.0284 -0.9273
 4421TIP3    H213270   3.893   5.292   1.003 -0.0899  0.3910  0.5927
 4422TIP3   OH213271   1.385   4.197   2.220 -0.2426 -0.7496 -0.2807
 4422TIP3    H113272   1.377   4.290   2.199 -0.4075 -1.0814 -1.7704
 4422TIP3    H213273   1.479   4.180   2.217 -0.3542 -1.2710 -3.1412
 4423TIP3   OH213274   1.525   0.254   4.941 -0.1846  0.2083 -0.3642
 4423TIP3    H113275   1.601   0.226   4.991 -0.3707 -1.0804 -0.7770
 4423TIP3    H213276   1.556   0.329   4.890  0.1822  1.1272  1.1368
 4424TIP3   OH213277   2.506   0.462   1.125 -0.2147  0.5269  0.3347
 4424TIP3    H113278   2.565   0.493   1.193  0.4051 -0.7840  0.4400
 4424TIP3    H213279   2.427   0.514   1.135  0.1168  0.8182  1.6155
 4425TIP3   OH213280   1.667   2.746   3.995  0.2605 -0.4806 -0.3203
 4425TIP3    H113281   1.608   2.790   3.934  0.3274  0.4356  0.2601
 4425TIP3    H213282   1.690   2.813   4.059 -1.0507 -1.8244  1.6580
 4426TIP3   OH213283   1.739   0.716   3.503  0.1482  0.6705  0.0099
 4426TIP3    H113284   1.662   0.763   3.535 -1.2892 -0.4691 -1.5754
 4426TIP3    H213285   1.768   0.766   3.427 -0.8776 -0.4631 -1.1753
 4427TIP3   OH213286   0.049   2.302   0.683 -0.1765  0.2516 -0.1102
 4427TIP3    H113287  -0.029   2.290   0.737 -1.3875 -0.5857 -1.9661
 4427TIP3    H213288   0.021   2.359   0.612  0.2563 -1.7052 -1.9581
 4428TIP3   OH213289   5.601   0.986   0.808  0.6792 -1.0804 -0.0666
 4428TIP3    H113290   5.561   0.965   0.892  0.9030  1.1906  0.6665
 4428TIP3    H213291   5.546   1.055   0.771  1.7163 -0.6426 -0.8498
 4429TIP3   OH213292   3.322   5.965   3.249 -0.3857 -0.6187  0.3643
 4429TIP3    H113293   3.358   5.889   3.296 -0.7122 -0.8333  0.2728
 4429TIP3    H213294   3.398   6.019   3.229 -0.1722 -0.8221  0.6134
 4430TIP3   OH213295   4.645   5.408   4.486 -0.5681 -0.0742 -0.1164
 4430TIP3    H113296   4.678   5.472   4.549 -0.0995 -1.0931  0.6945
 4430TIP3    H213297   4.555   5.436   4.468 -0.2201  1.0690 -0.1440
 4431TIP3   OH213298   0.145   3.873   3.781  0.0696  0.1106  0.3178
 4431TIP3    H113299   0.068   3.923   3.753  0.1221  0.1938  0.3189
 4431TIP3    H213300   0.172   3.915   3.863  0.3011  0.2813  0.1560
 4432TIP3   OH213301   3.110   3.131   2.012 -0.0427  0.7044  0.6178
 4432TIP3    H113302   3.101   3.042   1.977  0.1013  0.3240  1.4949
 4432TIP3    H213303   3.074   3.125   2.101 -0.9023  1.7583  0.3588
 4433TIP3   OH213304   2.369   1.292   4.017  0.0840 -0.5606 -0.2201
 4433TIP3    H113305   2.300   1.229   3.996  0.5916 -0.7842 -1.3040
 4433TIP3    H213306   2.442   1.238   4.047 -0.0233 -0.3590  0.4274
 4434TIP3   OH213307   5.537   3.690   1.948  0.4495 -0.4473 -0.1083
 4434TIP3    H113308   5.618   3.729   1.982  0.4040 -0.6423  0.2351
 4434TIP3    H213309   5.545   3.597   1.970 -0.5627 -0.2254  1.3429
 4435TIP3   OH213310   3.100   0.189   4.770  0.4627  0.5417  0.3980
 4435TIP3    H113311   3.157   0.113   4.777 -1.0872 -0.6271  1.1383
 4435TIP3    H213312   3.083   0.199   4.676  1.3933  0.5385  0.2272
 4436TIP3   OH213313   5.843   3.567   1.764 -0.7574  0.1807 -0.0799
 4436TIP3    H113314   5.870   3.575   1.673 -1.1572  0.0026 -0.2162
 4436TIP3    H213315   5.873   3.648   1.805 -1.9345  0.9810 -0.7273
 4437TIP3   OH213316   0.114   3.050   5.083 -0.3828 -0.2343  0.6106
 4437TIP3    H113317   0.074   3.044   5.170 -1.4258  0.7017  0.2291
 4437TIP3    H213318   0.040   3.065   5.024  0.3017 -0.8990 -0.4525
 4438TIP3   OH213319   1.650   5.594   0.400  0.8201 -0.1573  0.4882
 4438TIP3    H113320   1.622   5.510   0.362 -2.1855  0.6909  0.6263
 4438TIP3    H213321   1.706   5.569   0.473 -0.2818 -2.0769  0.7528
 4439TIP3   OH213322   5.124   5.720   2.479  0.1611  0.1691 -0.0460
 4439TIP3    H113323   5.200   5.725   2.538 -0.5110 -0.4346  0.8970
 4439TIP3    H213324   5.054   5.684   2.533 -0.2053 -1.4432 -1.4942
 4440TIP3   OH213325   3.511   5.746   1.673  0.0209  0.1230  0.5174
 4440TIP3    H113326   3.546   5.788   1.751 -1.1236  0.9235  0.6332
 4440TIP3    H213327   3.443   5.806   1.643  0.0782 -0.4394 -0.7864
 4441TIP3   OH213328   0.564   2.668   0.866  0.3152 -0.3062  0.3144
 4441TIP3    H113329   0.639   2.659   0.808  0.6269 -2.3055  0.9387
 4441TIP3    H213330   0.584   2.744   0.921  0.7882  0.5679 -1.0367
 4442TIP3   OH213331   4.998   1.318   3.396  0.7241 -0.4267 -0.5023
 4442TIP3    H113332   5.056   1.308   3.321  0.5706  2.3108 -1.0936
 4442TIP3    H213333   5.052   1.297   3.471  2.0459  0.4773 -1.1531
 4443TIP3   OH213334   4.826   5.567   4.632  0.1934  0.1216 -0.1733
 4443TIP3    H113335   4.816   5.595   4.722  1.9015  1.0399 -0.2292
 4443TIP3    H213336   4.920   5.578   4.613  0.0663 -1.0365 -1.7292
 4444TIP3   OH213337   2.205   2.860   1.784 -0.4745 -0.1763 -0.1827
 4444TIP3    H113338   2.204   2.914   1.704 -0.8805 -1.2199 -0.8935
 4444TIP3    H213339   2.161   2.914   1.849  0.7517  1.1134 -0.3690
 4445TIP3   OH213340   5.370   5.078   4.217  0.2821  0.0401 -0.5722
 4445TIP3    H113341   5.446   5.134   4.228  0.9475 -0.8057 -0.7811
 4445TIP3    H213342   5.330   5.108   4.135  0.1546  0.7452 -0.2600
 4446TIP3   OH213343   2.918   3.216   4.699 -0.7729 -0.1495 -0.3297
 4446TIP3    H113344   2.963   3.217   4.783  1.7512 -0.0732 -1.6095
 4446TIP3    H213345   2.856   3.143   4.705  0.6244 -1.2702  0.9622
 4447TIP3   OH213346   4.792   4.799   1.823  0.1015  0.3976  0.1200
 4447TIP3    H113347   4.876   4.838   1.850  1.2038 -1.5354 -0.2875
 4447TIP3    H213348   4.792   4.807   1.728  1.1582 -1.9308 -0.1572
 4448TIP3   OH213349   3.091   1.363   4.030 -0.3710 -0.0395 -0.0130
 4448TIP3    H113350   3.021   1.419   3.999  0.6773  1.3123 -0.0362
 4448TIP3    H213351   3.088   1.286   3.973 -0.4245  1.0136 -1.4892
 4449TIP3   OH213352   3.240   0.335   1.797  0.4539 -0.4972  0.8179
 4449TIP3    H113353   3.173   0.403   1.788  0.0270 -1.1259 -1.1506
 4449TIP3    H213354   3.203   0.259   1.753  1.9148 -1.2832  0.8909
 4450TIP3   OH213355   3.575   0.045   2.138 -0.1091  0.4382 -0.3329
 4450TIP3    H113356   3.523   0.079   2.210 -0.7812 -0.1042 -0.5549
 4450TIP3    H213357   3.585   0.120   2.078 -0.5738  0.5668 -0.2533
 4451TIP3   OH213358   5.064   4.231   2.432 -0.0398 -0.0917  0.2417
 4451TIP3    H113359   4.980   4.269   2.409 -0.2845 -0.9049 -0.2667
 4451TIP3    H213360   5.053   4.137   2.418  0.3572 -0.4528  2.0283
 4452TIP3   OH213361   4.881   3.739   2.820  0.4077 -0.4930  0.2679
 4452TIP3    H113362   4.819   3.728   2.749 -0.1006 -1.0207  0.7788
 4452TIP3    H213363   4.966   3.747   2.777 -0.0928  1.2033 -0.4922
 4453TIP3   OH213364   2.346   5.958   4.824 -0.3485 -0.0837  0.0695
 4453TIP3    H113365   2.407   5.890   4.854 -1.9344 -0.9974  1.4179
 4453TIP3    H213366   2.331   5.937   4.731  1.7355  0.4990 -0.4531
 4454TIP3   OH213367   3.608   1.128   4.926 -0.4331 -0.0044  0.4237
 4454TIP3    H113368   3.555   1.102   5.002  0.5355 -0.8396  0.8403
 4454TIP3    H213369   3.697   1.099   4.948  0.2652  1.5784 -0.1503
 4455TIP3   OH213370   3.557   0.600   1.346 -0.5126 -0.0527 -0.3960
 4455TIP3    H113371   3.480   0.655   1.365 -0.3026 -0.2751  1.2661
 4455TIP3    H213372   3.527   0.511   1.363 -0.2306 -0.2624 -0.9779
 4456TIP3   OH213373   5.326   1.850   1.524  0.0099  0.1914  0.3392
 4456TIP3    H113374   5.343   1.940   1.551  0.3952 -0.0527  0.9254
 4456TIP3    H213375   5.234   1.836   1.546 -0.2672  0.6716 -0.4435
 4457TIP3   OH213376   5.154   4.010   4.280  0.0646  0.1995  0.1784
 4457TIP3    H113377   5.177   4.102   4.269  0.4011  0.0729 -0.1819
 4457TIP3    H213378   5.158   3.973   4.192 -2.4605  0.3808 -0.0965
 4458TIP3   OH213379   6.110   1.871   3.862 -0.1616 -0.2592 -0.1544
 4458TIP3    H113380   6.158   1.811   3.804  2.7024  0.2352  1.4963
 4458TIP3    H213381   6.085   1.816   3.937 -0.3684 -0.0577 -0.0753
 4459TIP3   OH213382   5.706   3.647   4.464 -0.1268  0.4607  0.1973
 4459TIP3    H113383   5.746   3.596   4.393 -1.1910 -1.8976  1.2048
 4459TIP3    H213384   5.613   3.630   4.455 -0.2073 -1.0327  2.9251
 4460TIP3   OH213385   3.650   4.085   3.944  0.2485  0.1776  0.1343
 4460TIP3    H113386   3.722   4.100   3.883  1.7422 -0.1060  1.7612
 4460TIP3    H213387   3.597   4.017   3.902 -0.3809  1.9241 -2.1198
 4461TIP3   OH213388   4.006   2.942   3.311 -0.0245  0.4845 -0.1434
 4461TIP3    H113389   3.972   2.856   3.336 -1.4552  0.2942 -2.4824
 4461TIP3    H213390   4.056   2.926   3.231  1.0736  1.6018  0.2872
 4462TIP3   OH213391   1.986   0.459   1.107 -0.0887  0.0833  0.6421
 4462TIP3    H113392   1.906   0.511   1.114  0.6983  1.2889  0.9013
 4462TIP3    H213393   2.003   0.452   1.013 -1.8386 -2.3435  0.4137
 4463TIP3   OH213394   0.414   5.458   1.699  0.0466  0.2918 -0.2462
 4463TIP3    H113395   0.502   5.424   1.715 -1.2136 -2.3763  2.0150
 4463TIP3    H213396   0.413   5.543   1.742  0.8960 -0.7418  1.9925
 4464TIP3   OH213397   1.039   5.003   2.523  0.1283  0.3266 -0.7708
 4464TIP3    H113398   1.127   5.018   2.557  0.2539 -0.8005 -0.5682
 4464TIP3    H213399   0.981   5.025   2.596  0.3987 -2.1394  0.2751
 4465TIP3   OH213400   5.550   2.641   3.920 -0.6616  0.2505 -0.2228
 4465TIP3    H113401   5.473   2.584   3.912 -0.2573 -0.2861 -0.3810
 4465TIP3    H213402   5.528   2.701   3.992 -0.5857 -0.9574  0.8605
 4466TIP3   OH213403   4.495   5.077   2.800  0.1119  0.4263 -0.5018
 4466TIP3    H113404   4.508   4.982   2.803  2.3702  0.6335 -1.7457
 4466TIP3    H213405   4.523   5.103   2.713 -1.7591  2.1275 -0.6751
 4467TIP3   OH213406   5.433   3.061   1.901 -0.0442  0.1243  0.3821
 4467TIP3    H113407   5.408   3.016   1.820  1.0587 -0.2517  0.2339
 4467TIP3    H213408   5.460   3.148   1.872 -0.8966  0.4428  0.5127
 4468TIP3   OH213409   5.642   0.417   2.813  0.2763  0.4340  0.0434
 4468TIP3    H113410   5.596   0.361   2.750 -0.4676 -1.5684  2.2298
 4468TIP3    H213411   5.621   0.507   2.785 -1.4853 -0.3902 -1.4972
 4469TIP3   OH213412   2.175   0.391   0.483 -0.5440 -0.0536  0.1837
 4469TIP3    H113413   2.156   0.481   0.457  1.2288  0.2568 -0.1722
 4469TIP3    H213414   2.193   0.346   0.400  0.1418 -0.3344  0.4829
 4470TIP3   OH213415   0.830   1.943   0.816  0.4283 -0.1427 -0.3250
 4470TIP3    H113416   0.766   1.905   0.756  1.0880 -0.0910 -1.0726
 4470TIP3    H213417   0.847   1.874   0.880 -0.5933 -0.0498  0.0696
 4471TIP3   OH213418   4.053   3.252   4.752  0.1116  0.0046  0.2248
 4471TIP3    H113419   4.109   3.329   4.739  1.2289 -0.3618  2.4617
 4471TIP3    H213420   4.046   3.243   4.847 -1.3230 -1.7286 -0.0003
 4472TIP3   OH213421   1.844   5.749   4.826 -0.1996  0.3150 -0.2044
 4472TIP3    H113422   1.850   5.750   4.922 -2.2316 -1.4722  0.0073
 4472TIP3    H213423   1.756   5.782   4.807  0.0511  0.3150 -1.4550
 4473TIP3   OH213424   1.795   1.048   4.698  0.0408  0.4836 -1.1505
 4473TIP3    H113425   1.703   1.021   4.688  0.1688 -0.0982 -0.8080
 4473TIP3    H213426   1.831   1.041   4.610 -0.6322  2.2213 -1.5983
 4474TIP3   OH213427   5.951   5.881   2.243 -0.1306 -0.3562 -0.3068
 4474TIP3    H113428   5.975   5.873   2.336 -1.5676  0.6329  0.2004
 4474TIP3    H213429   5.855   5.881   2.244 -0.1844  1.3020 -1.6047
 4475TIP3   OH213430   1.999   0.245   3.477 -0.0008 -0.1804 -0.6681
 4475TIP3    H113431   1.943   0.321   3.496  0.7381  0.7897 -2.1258
 4475TIP3    H213432   1.960   0.206   3.399 -0.4325 -1.3861  0.1360
 4476TIP3   OH213433   1.471   5.586   2.012 -0.3571 -0.0147 -0.0268
 4476TIP3    H113434   1.405   5.520   2.031 -0.1547  0.5333  2.9750
 4476TIP3    H213435   1.430   5.643   1.947 -1.5284 -1.5418 -0.6813
 4477TIP3   OH213436   0.700   2.577   3.468  0.3604  0.0517 -0.7376
 4477TIP3    H113437   0.699   2.497   3.521 -0.5210  0.5330 -0.0045
 4477TIP3    H213438   0.674   2.547   3.380  0.4816 -0.5340 -0.5780
 4478TIP3   OH213439   1.740   4.884   5.146 -0.4411  0.1533 -0.5269
 4478TIP3    H113440   1.665   4.854   5.198 -0.5353  0.0401 -0.7285
 4478TIP3    H213441   1.812   4.826   5.173 -0.4391  0.2282 -0.3716
 4479TIP3   OH213442   5.387   4.785   1.737  0.1701  0.0358  0.0561
 4479TIP3    H113443   5.416   4.727   1.808 -1.4736 -0.0185  0.7355
 4479TIP3    H213444   5.466   4.829   1.707  0.9573 -0.2274  1.6726
 4480TIP3   OH213445   5.760   4.181   2.841 -0.1517  0.3330 -0.3226
 4480TIP3    H113446   5.718   4.161   2.758 -0.6137 -0.6575  0.1376
 4480TIP3    H213447   5.854   4.176   2.822 -0.2543  0.1324 -0.7863
 4481TIP3   OH213448   0.268   0.047   2.136  0.0191  0.2070  0.1290
 4481TIP3    H113449   0.298   0.069   2.225 -0.8436 -0.3789  0.5733
 4481TIP3    H213450   0.246  -0.046   2.141  1.0764 -0.1197 -1.0181
 4482TIP3   OH213451   3.046   4.876   1.202 -0.1911  0.0889  0.0758
 4482TIP3    H113452   3.081   4.965   1.210 -2.8976  1.1066  1.9546
 4482TIP3    H213453   3.002   4.875   1.117 -2.0924  1.3907  0.9797
 4483TIP3   OH213454   0.471   0.926   3.430  0.3830 -0.1568  0.1037
 4483TIP3    H113455   0.384   0.965   3.429  1.4713  2.5008  0.3932
 4483TIP3    H213456   0.513   0.963   3.508  1.6505 -1.7640  0.2528
 4484TIP3   OH213457   2.206   0.296   1.923  0.2872 -0.7487 -0.0486
 4484TIP3    H113458   2.247   0.327   1.842 -1.1168  0.7263 -0.2338
 4484TIP3    H213459   2.265   0.326   1.993  0.3427  0.0011 -0.4052
 4485TIP3   OH213460   5.964   4.091   1.446  0.5333  0.0640 -0.0550
 4485TIP3    H113461   6.046   4.089   1.494  1.0264  1.4368 -0.7802
 4485TIP3    H213462   5.986   4.131   1.362 -0.4748 -1.4548 -1.1046
 4486TIP3   OH213463   3.280   5.656   0.288  0.1320  0.2347  0.0422
 4486TIP3    H113464   3.314   5.713   0.219  0.3872  0.5023  0.3884
 4486TIP3    H213465   3.310   5.695   0.369 -3.1074  2.0011  0.5822
 4487TIP3   OH213466   1.566   4.432   2.352  0.2214 -0.0605  0.4470
 4487TIP3    H113467   1.559   4.359   2.413 -1.3778  0.4022  0.8681
 4487TIP3    H213468   1.601   4.505   2.404 -0.7488  0.2146  0.7476
 4488TIP3   OH213469   3.358   5.337   3.656 -0.3646  0.2244  0.5367
 4488TIP3    H113470   3.423   5.286   3.704 -1.6739 -2.6013 -0.5048
 4488TIP3    H213471   3.276   5.319   3.701 -1.2838 -0.8725 -1.4672
 4489TIP3   OH213472   6.107   2.917   2.509  0.0850  0.7629 -0.6532
 4489TIP3    H113473   6.026   2.870   2.530  1.1308 -1.3660 -1.0726
 4489TIP3    H213474   6.176   2.852   2.520  1.8848  2.7314  0.5232
 4490TIP3   OH213475   4.350   3.356   3.233 -0.2162  0.4538 -0.1897
 4490TIP3    H113476   4.294   3.335   3.307  0.3803  0.5709  0.3007
 4490TIP3    H213477   4.388   3.441   3.255  0.0936  0.4107 -0.5521
 4491TIP3   OH213478   5.721   2.711   0.776  0.1026  0.1680 -0.2763
 4491TIP3    H113479   5.635   2.723   0.816  0.8245 -0.0460  1.3881
 4491TIP3    H213480   5.777   2.679   0.846  1.4830 -0.0006 -1.4024
 4492TIP3   OH213481   6.307   3.906   4.055 -0.0551  0.1488 -0.1131
 4492TIP3    H113482   6.289   3.906   3.961 -0.3109  0.9107 -0.0690
 4492TIP3    H213483   6.221   3.891   4.096 -0.0271  0.3417  0.0150
 4493TIP3   OH213484   0.692   0.815   3.099  0.1936  0.3351  0.9343
 4493TIP3    H113485   0.724   0.762   3.173 -0.0770  0.8870  1.4522
 4493TIP3    H213486   0.764   0.815   3.037  0.0049 -1.1196  0.6638
 4494TIP3   OH213487   5.946   4.322   0.694 -0.2448  0.4086 -0.3037
 4494TIP3    H113488   5.932   4.278   0.777 -0.6872  0.9152 -0.1038
 4494TIP3    H213489   5.988   4.256   0.638  0.4404  0.1967  0.4500
 4495TIP3   OH213490   1.867   5.778   2.519 -0.4817  0.1248  0.3102
 4495TIP3    H113491   1.867   5.696   2.471 -1.0980  0.4705 -0.3041
 4495TIP3    H213492   1.869   5.753   2.611  1.3859 -0.5432  0.1194
 4496TIP3   OH213493   5.820   2.851   2.645  0.0875 -0.2303 -0.1971
 4496TIP3    H113494   5.788   2.800   2.570 -0.8355  0.5779 -0.3691
 4496TIP3    H213495   5.755   2.836   2.713  1.3545 -1.6290  0.7520
 4497TIP3   OH213496   5.445   1.991   0.309 -0.3039  0.2065 -0.1854
 4497TIP3    H113497   5.452   1.926   0.378  1.1678 -0.4370 -0.9067
 4497TIP3    H213498   5.371   1.961   0.256 -0.5653 -0.0470  0.3158
 4498TIP3   OH213499   4.826   5.939   2.200 -0.0450  0.0533  0.0173
 4498TIP3    H113500   4.827   6.032   2.179  0.8818  0.4606  1.6562
 4498TIP3    H213501   4.747   5.926   2.253 -0.4040 -0.2000 -0.5655
 4499TIP3   OH213502   4.733   4.513   4.529 -0.3166  0.0134  0.2351
 4499TIP3    H113503   4.717   4.565   4.608 -1.0980  1.6381 -0.9231
 4499TIP3    H213504   4.654   4.461   4.518 -0.2383 -0.1577  0.4833
 4500TIP3   OH213505   5.554   4.178   3.525 -0.5768 -0.1667 -0.0906
 4500TIP3    H113506   5.551   4.181   3.429 -0.9193  1.0197 -0.0697
 4500TIP3    H213507   5.611   4.251   3.549 -3.1328  1.7736  0.6438
 4501TIP3   OH213508   5.923   2.720   4.314 -0.3853 -0.8294  0.4340
 4501TIP3    H113509   5.875   2.757   4.389 -1.8570  0.6259 -1.1342
 4501TIP3    H213510   5.887   2.632   4.303 -0.0008 -1.1373  1.5482
 4502TIP3   OH213511   3.701   1.235   4.216 -0.4163  0.2008  0.0973
 4502TIP3    H113512   3.691   1.188   4.134 -1.6245  0.2005  0.2377
 4502TIP3    H213513   3.750   1.314   4.192 -1.6601  0.7102 -0.8209
 4503TIP3   OH213514   0.537   1.613   1.159  0.0896 -0.2976  0.5128
 4503TIP3    H113515   0.463   1.606   1.098 -1.4763  0.9490  2.1467
 4503TIP3    H213516   0.496   1.636   1.243  2.4643  2.2014  1.1080
 4504TIP3   OH213517   6.183   1.595   1.360 -0.0191 -0.2433  0.2133
 4504TIP3    H113518   6.139   1.675   1.331  0.9861  0.2545 -0.0014
 4504TIP3    H213519   6.275   1.620   1.367  0.2712 -1.3168  0.4069
 4505TIP3   OH213520   1.416   3.384   0.211 -0.4466 -0.2663  0.2498
 4505TIP3    H113521   1.321   3.389   0.215 -0.3906  1.7058  0.3732
 4505TIP3    H213522   1.445   3.474   0.229  1.4699 -1.0399  1.3538
 4506TIP3   OH213523   6.203   4.505   1.704  0.2426  0.1291  0.8470
 4506TIP3    H113524   6.146   4.430   1.719 -1.3160  0.8988 -0.8840
 4506TIP3    H213525   6.144   4.580   1.701  1.5582  1.1914  0.6920
 4507TIP3   OH213526   5.481   1.568   1.162 -0.7210  0.1001 -0.1945
 4507TIP3    H113527   5.505   1.509   1.090  0.5148 -0.7266  0.8616
 4507TIP3    H213528   5.500   1.518   1.241 -0.2100  1.7115  0.7242
 4508TIP3   OH213529   1.196   2.061   1.254 -0.0867 -0.2503 -0.1810
 4508TIP3    H113530   1.187   2.104   1.169  3.1353 -2.0506 -1.6241
 4508TIP3    H213531   1.128   1.993   1.253  0.4734 -0.8421 -1.7773
 4509TIP3   OH213532   2.725   4.293   1.006  0.4208  0.2662 -0.7930
 4509TIP3    H113533   2.806   4.323   0.964  0.3548 -1.0956 -1.9749
 4509TIP3    H213534   2.745   4.204   1.036 -0.2591  0.3806  0.0286
 4510TIP3   OH213535   3.675   4.823   1.483  0.3074 -0.1830  0.0901
 4510TIP3    H113536   3.584   4.851   1.473  0.7161  0.9395 -0.6755
 4510TIP3    H213537   3.693   4.838   1.576 -0.3989 -0.8049  0.3430
 4511TIP3   OH213538   0.465   3.087   1.830 -0.3530 -0.1052  0.4608
 4511TIP3    H113539   0.432   3.161   1.882 -0.3742  0.0604  0.2150
 4511TIP3    H213540   0.387   3.043   1.798 -0.3742  0.9524 -1.0654
 4512TIP3   OH213541   4.038   2.540   2.139 -0.3235  0.0476  0.0084
 4512TIP3    H113542   3.976   2.481   2.096 -0.1720 -0.3566  0.3352
 4512TIP3    H213543   4.009   2.628   2.114  0.6274 -0.2026 -2.0813
 4513TIP3   OH213544   3.539   5.146   2.967 -0.3714 -0.0758 -0.1590
 4513TIP3    H113545   3.528   5.169   2.874 -1.1501 -0.4610 -0.1687
 4513TIP3    H213546   3.454   5.110   2.993  0.5993 -2.4165  0.0232
 4514TIP3   OH213547   5.737   5.573   4.325 -0.0609 -0.6274  0.1800
 4514TIP3    H113548   5.739   5.553   4.419  1.1540 -1.2939  0.0349
 4514TIP3    H213549   5.829   5.582   4.301 -0.3610 -0.5738 -0.9795
 4515TIP3   OH213550   5.022   5.310   4.586  0.0728 -0.1414 -0.1575
 4515TIP3    H113551   4.936   5.305   4.546 -0.6130  0.9392  1.0897
 4515TIP3    H213552   5.083   5.300   4.513 -1.0630 -2.1684 -0.8985
 4516TIP3   OH213553   4.808   1.120   3.312 -0.4297 -0.0863 -0.1420
 4516TIP3    H113554   4.808   1.029   3.342  0.7608  0.3590  1.3114
 4516TIP3    H213555   4.879   1.161   3.361 -1.9661  2.0280  0.4216
 4517TIP3   OH213556   3.037   2.292   0.825 -0.1249  0.2934  0.2216
 4517TIP3    H113557   2.955   2.307   0.872 -1.5217 -0.3638 -1.8589
 4517TIP3    H213558   3.036   2.198   0.806  0.5051  0.5053 -0.8928
 4518TIP3   OH213559   3.867   1.256   4.960  0.0775 -0.2948 -0.3408
 4518TIP3    H113560   3.880   1.305   5.041 -1.2428  0.2550 -0.4318
 4518TIP3    H213561   3.911   1.309   4.893 -2.5900  1.7346 -0.7112
 4519TIP3   OH213562   3.831   3.834   0.572 -0.5166 -0.2321 -0.1680
 4519TIP3    H113563   3.759   3.817   0.633  0.8985  1.1561  2.0197
 4519TIP3    H213564   3.840   3.929   0.571  2.7960 -0.3814  1.6563
 4520TIP3   OH213565   0.481   1.599   5.099 -0.3773 -0.2401  0.1344
 4520TIP3    H113566   0.429   1.623   5.176  0.0625  0.3473  0.2584
 4520TIP3    H213567   0.458   1.665   5.033  2.1395  1.6776  1.0401
 4521TIP3   OH213568   5.343   0.417   0.411 -0.0219 -0.1962  0.5821
 4521TIP3    H113569   5.316   0.470   0.335  0.5620  0.1230  0.5907
 4521TIP3    H213570   5.303   0.332   0.396  0.0539 -0.1230 -0.0672
 4522TIP3   OH213571   5.671   4.417   3.104  0.3948  0.2415  0.1448
 4522TIP3    H113572   5.763   4.436   3.089  0.2689  0.2586 -0.6204
 4522TIP3    H213573   5.666   4.322   3.107  0.6952  0.2487  1.8987
 4523TIP3   OH213574   3.964   0.748   1.463 -0.1324  0.1896  1.4140
 4523TIP3    H113575   4.019   0.674   1.489  0.6796  1.0693  2.2925
 4523TIP3    H213576   4.027   0.816   1.439 -0.8031 -0.4218 -2.6867
 4524TIP3   OH213577   0.421   0.855   1.310  0.2566  0.4621  0.2444
 4524TIP3    H113578   0.394   0.931   1.362 -1.9430  0.2452 -0.4750
 4524TIP3    H213579   0.465   0.797   1.373  0.0972  1.4128  1.2504
 4525TIP3   OH213580   2.982   1.298   1.408  0.1037 -0.5846  0.0066
 4525TIP3    H113581   2.935   1.215   1.405 -1.1107  0.0489  0.8580
 4525TIP3    H213582   3.069   1.275   1.442 -0.1784 -1.5109  0.1426
 4526TIP3   OH213583   3.600   5.700   0.335 -0.1945 -0.2673 -0.1056
 4526TIP3    H113584   3.552   5.689   0.417 -0.4275  1.3147  0.0077
 4526TIP3    H213585   3.614   5.795   0.328  1.6662 -0.5492 -0.8573
 4527TIP3   OH213586   0.853   1.205   4.715 -0.1357  0.2474  0.4520
 4527TIP3    H113587   0.910   1.185   4.790 -1.5132  1.0268  1.7831
 4527TIP3    H213588   0.827   1.296   4.729 -0.3280  0.4476 -1.0752
 4528TIP3   OH213589   3.812   1.895   0.074  0.1166 -0.1182  0.5039
 4528TIP3    H113590   3.819   1.812   0.121 -0.3034  0.8059  2.2710
 4528TIP3    H213591   3.745   1.879   0.008  0.4394 -1.3375  0.4397
 4529TIP3   OH213592   5.754   4.261   2.024  0.2188 -0.5738 -0.0987
 4529TIP3    H113593   5.806   4.323   1.972 -0.6488 -0.1976 -0.5347
 4529TIP3    H213594   5.684   4.233   1.965  0.2290 -1.4861  0.3066
 4530TIP3   OH213595   6.209   5.401   1.391  0.0666 -0.1945  0.2379
 4530TIP3    H113596   6.161   5.323   1.419 -0.3307 -0.7819 -1.8790
 4530TIP3    H213597   6.238   5.442   1.472 -0.1984 -2.2367  1.4258
 4531TIP3   OH213598   2.523   2.737   3.347  0.1122  0.0787 -0.2361
 4531TIP3    H113599   2.496   2.721   3.437  1.9595 -0.1606  0.3081
 4531TIP3    H213600   2.553   2.828   3.346 -1.1283  0.5186 -0.9660
 4532TIP3   OH213601   1.235   0.423   4.578 -0.0708 -0.5471  0.0331
 4532TIP3    H113602   1.281   0.480   4.517 -1.4650 -0.5309 -1.0283
 4532TIP3    H213603   1.148   0.462   4.588  0.2587 -0.2308  2.4835
 4533TIP3   OH213604   6.122   1.328   0.859  0.1634  0.4585 -0.5661
 4533TIP3    H113605   6.053   1.365   0.915  0.5449  0.9745 -0.4274
 4533TIP3    H213606   6.138   1.241   0.895 -0.6608  0.2002 -0.8146
 4534TIP3   OH213607   5.828   3.085   4.295 -0.2500  0.4078 -0.0646
 4534TIP3    H113608   5.768   3.058   4.365 -0.3159  1.3136  0.2363
 4534TIP3    H213609   5.901   3.127   4.341 -0.2261  0.8794 -0.5240
 4535TIP3   OH213610   0.208   0.395   0.852 -0.1491  0.2635  0.5572
 4535TIP3    H113611   0.246   0.326   0.797  0.3663  1.5171 -0.7135
 4535TIP3    H213612   0.271   0.404   0.924  0.0745 -0.1948  0.4253
 4536TIP3   OH213613   4.198   5.612   2.697  0.2128 -0.0662 -0.0009
 4536TIP3    H113614   4.176   5.704   2.685  2.1786  0.3777 -0.6891
 4536TIP3    H213615   4.196   5.599   2.792 -1.1119  0.3806  0.0503
 4537TIP3   OH213616   3.937   1.792   0.618  0.0991  0.5108 -0.2290
 4537TIP3    H113617   3.874   1.863   0.605  0.9160  1.0167 -1.7006
 4537TIP3    H213618   3.896   1.715   0.579 -1.2245 -0.1466  2.2555
 4538TIP3   OH213619   6.077   0.060   4.908  0.5813  0.5053  0.4384
 4538TIP3    H113620   6.092   0.042   4.815  0.2157  0.0123  0.4697
 4538TIP3    H213621   6.113  -0.017   4.953 -3.4357 -1.6370  0.4334
 4539TIP3   OH213622   4.054   5.969   0.190 -0.2355 -0.7469 -0.4586
 4539TIP3    H113623   4.149   5.983   0.182 -0.0366 -2.4730 -1.5682
 4539TIP3    H213624   4.046   5.879   0.223 -1.4991 -0.3704  0.3351
 4540TIP3   OH213625   6.049   4.711   1.651 -0.1108  0.2079 -0.2802
 4540TIP3    H113626   5.962   4.747   1.669 -0.1219 -0.4006  1.0306
 4540TIP3    H213627   6.039   4.666   1.567 -1.5938 -1.4355  0.7036
 4541TIP3   OH213628   3.694   4.739   1.229  0.2168  0.0442  0.2437
 4541TIP3    H113629   3.685   4.786   1.312  1.3603 -0.4589  0.6884
 4541TIP3    H213630   3.789   4.736   1.214 -0.0058  0.9606 -1.5914
 4542TIP3   OH213631   0.225   1.966   3.504 -0.4673  0.6036 -0.6055
 4542TIP3    H113632   0.269   1.901   3.559 -0.9158  0.3841 -0.5080
 4542TIP3    H213633   0.135   1.936   3.497 -0.5686  0.9694 -0.9420
 4543TIP3   OH213634   3.382   4.126   2.396  0.5947  0.8084 -0.1978
 4543TIP3    H113635   3.292   4.125   2.429  1.4249  1.9099  2.4192
 4543TIP3    H213636   3.393   4.214   2.359  0.3838  0.4038 -1.2431
 4544TIP3   OH213637   5.169   3.578   0.763  0.0296  0.3820 -0.1284
 4544TIP3    H113638   5.073   3.582   0.763 -0.0660 -0.6152 -2.0870
 4544TIP3    H213639   5.196   3.632   0.689  0.9313 -0.0223 -0.1095
 4545TIP3   OH213640   3.226   5.915   2.391 -0.1983  0.2887 -0.8152
 4545TIP3    H113641   3.321   5.909   2.397 -0.0733  1.7645 -0.9825
 4545TIP3    H213642   3.200   5.835   2.345  0.8711 -0.5381 -0.0236
 4546TIP3   OH213643   3.201   2.802   2.769  0.5304 -0.1640  0.2107
 4546TIP3    H113644   3.143   2.786   2.844  0.4268  1.4444  0.5167
 4546TIP3    H213645   3.288   2.812   2.808  0.6476 -0.3369 -0.0053
 4547TIP3   OH213646   2.221   5.815   5.050  0.2406  0.6884 -0.1133
 4547TIP3    H113647   2.226   5.859   4.965 -0.2797  1.1943  0.1085
 4547TIP3    H213648   2.266   5.875   5.110 -1.2360  1.3666  0.3586
 4548TIP3   OH213649   2.831   3.153   3.586  0.0321  0.2584 -0.1495
 4548TIP3    H113650   2.760   3.095   3.611 -0.1176  0.5916  0.2095
 4548TIP3    H213651   2.806   3.238   3.622 -0.1814  0.7457 -1.3970
 4549TIP3   OH213652   5.830   0.354   1.179 -0.0751 -0.0691  0.1278
 4549TIP3    H113653   5.803   0.442   1.150 -1.0095 -0.6746 -0.9171
 4549TIP3    H213654   5.915   0.368   1.221 -0.7479  1.5137  1.0457
 4550TIP3   OH213655   3.760   2.322   1.438  0.2458 -0.1694  0.1241
 4550TIP3    H113656   3.723   2.409   1.424 -0.4378 -0.6642 -1.4025
 4550TIP3    H213657   3.751   2.279   1.353  2.2517 -1.1109  0.3209
 4551TIP3   OH213658   4.854   5.678   2.668 -0.1852  0.3571  0.0733
 4551TIP3    H113659   4.800   5.626   2.728 -0.5395  0.8372  0.1809
 4551TIP3    H213660   4.800   5.685   2.589 -0.5435  1.3326  0.3892
 4552TIP3   OH213661   3.141   0.707   3.011 -0.1785 -0.3812  0.8325
 4552TIP3    H113662   3.057   0.699   2.967 -1.0003 -0.1477  2.2976
 4552TIP3    H213663   3.128   0.774   3.077  1.5610  0.6128  0.2424
 4553TIP3   OH213664   0.110   1.823   3.065  0.6414 -0.5105  0.0598
 4553TIP3    H113665   0.046   1.778   3.119  0.5454 -0.3427  0.0866
 4553TIP3    H213666   0.096   1.789   2.977 -0.7163  0.8354 -0.2836
 4554TIP3   OH213667   4.376   4.657   3.940  0.0591  0.0756  0.0243
 4554TIP3    H113668   4.348   4.680   3.851 -0.7666 -1.2507 -0.0887
 4554TIP3    H213669   4.375   4.739   3.988 -3.1644  0.3081 -0.2213
 4555TIP3   OH213670   5.719   3.966   1.382 -0.4880  0.8769 -0.2237
 4555TIP3    H113671   5.796   4.010   1.418  0.0363 -0.8784  0.9113
 4555TIP3    H213672   5.659   3.958   1.455 -0.4248 -0.5502 -0.2898
 4556TIP3   OH213673   4.798   2.099   1.927  0.2087 -0.4262  0.0128
 4556TIP3    H113674   4.761   2.154   1.996 -1.5536 -0.3073 -0.9630
 4556TIP3    H213675   4.791   2.010   1.961  0.1947 -0.2944  0.3549
 4557TIP3   OH213676   3.742   2.735   3.067  0.1150 -0.2989 -0.3697
 4557TIP3    H113677   3.766   2.757   3.157  0.9113  1.8126 -1.0295
 4557TIP3    H213678   3.803   2.666   3.042  1.3947  0.6549  0.0115
 4558TIP3   OH213679   1.317   4.322   0.602  0.1723  0.0712 -0.2858
 4558TIP3    H113680   1.290   4.301   0.692 -0.6517  0.6275 -0.4005
 4558TIP3    H213681   1.408   4.293   0.598 -0.3615 -1.8508  0.1155
 4559TIP3   OH213682   2.118   0.401   0.850  0.3378 -0.1530  0.0301
 4559TIP3    H113683   2.176   0.350   0.794  0.2972  0.1018 -0.2496
 4559TIP3    H213684   2.033   0.358   0.843  0.0338  0.5791 -1.0827
 4560TIP3   OH213685   1.279   5.716   3.605 -0.1157  0.1385  0.1670
 4560TIP3    H113686   1.366   5.675   3.610  0.3587  0.6153 -2.3895
 4560TIP3    H213687   1.218   5.643   3.609  0.5258 -0.4308 -0.1468
 4561TIP3   OH213688   2.730   5.687   2.862  0.2429 -0.6408  0.0233
 4561TIP3    H113689   2.657   5.747   2.879  0.7677  0.0322 -0.0559
 4561TIP3    H213690   2.787   5.697   2.938 -0.2045 -1.8898  0.5631
 4562TIP3   OH213691   5.057   3.817   0.254  0.0347  0.0716  0.1398
 4562TIP3    H113692   5.143   3.793   0.288  1.5731  2.9511 -1.3534
 4562TIP3    H213693   5.031   3.894   0.305 -1.3104 -0.3009  0.0602
 4563TIP3   OH213694   1.045   3.591   1.849 -1.1857  0.2144  0.5716
 4563TIP3    H113695   1.051   3.682   1.877 -2.7858  0.2373  0.8886
 4563TIP3    H213696   0.952   3.574   1.838 -0.8930 -1.2491  0.0302
 4564TIP3   OH213697   6.195   0.676   1.548 -0.1321 -0.3902  0.0929
 4564TIP3    H113698   6.113   0.722   1.530 -0.6445 -1.7016 -1.1492
 4564TIP3    H213699   6.176   0.584   1.526  1.4982 -0.8138  0.3439
 4565TIP3   OH213700   2.326   4.650   3.596  0.8954 -0.3370  0.2830
 4565TIP3    H113701   2.417   4.663   3.622  0.7918 -0.3779  0.6794
 4565TIP3    H213702   2.276   4.705   3.656  0.7751  1.1969 -1.1747
 4566TIP3   OH213703   4.941   4.287   1.869 -0.0004  0.6550  0.5675
 4566TIP3    H113704   4.997   4.244   1.934  1.0816  0.2493 -0.5972
 4566TIP3    H213705   4.926   4.374   1.905 -0.1002  0.1767  1.7424
 4567TIP3   OH213706   0.848   2.641   4.225 -0.8126 -0.5935  0.0146
 4567TIP3    H113707   0.872   2.592   4.146 -1.1695  1.7715 -1.6835
 4567TIP3    H213708   0.895   2.597   4.296  3.3195 -0.1354 -2.1212
 4568TIP3   OH213709   2.963   4.231   4.101 -0.8675  0.4705  0.0328
 4568TIP3    H113710   3.017   4.240   4.180  1.4945 -0.7028 -1.3575
 4568TIP3    H213711   2.923   4.145   4.109 -0.6319  0.3531 -0.0651
 4569TIP3   OH213712   5.638   3.882   3.812 -0.5132  0.6098  0.7937
 4569TIP3    H113713   5.670   3.933   3.886  1.4155  0.4146  0.1410
 4569TIP3    H213714   5.662   3.934   3.735 -0.1100 -0.4433  0.1992
 4570TIP3   OH213715   0.200   1.507   3.837  0.1114  0.6626  0.0858
 4570TIP3    H113716   0.117   1.470   3.808 -0.0287  0.3946  0.8171
 4570TIP3    H213717   0.198   1.500   3.932  1.0025  0.5893  0.1072
 4571TIP3   OH213718   4.012   3.847   4.180  0.3503  0.2655 -0.1712
 4571TIP3    H113719   3.959   3.882   4.108  1.1182  0.5286 -0.6155
 4571TIP3    H213720   4.092   3.899   4.179  1.2201 -1.0438 -0.3911
 4572TIP3   OH213721   1.988   5.140   1.331 -0.4369 -0.4638  0.1280
 4572TIP3    H113722   1.920   5.150   1.398 -0.1226  0.4069  0.3380
 4572TIP3    H213723   2.057   5.200   1.359  0.4968 -1.4564  0.0114
 4573TIP3   OH213724   4.425   3.689   2.416  0.3931  1.0757 -0.6467
 4573TIP3    H113725   4.422   3.755   2.346  0.6613  1.4686 -0.3000
 4573TIP3    H213726   4.452   3.739   2.493 -0.1060  0.6883 -0.2146
 4574TIP3   OH213727   5.011   5.096   3.958 -0.1775 -0.0163  0.3802
 4574TIP3    H113728   4.964   5.075   3.877  0.4636 -0.0803  0.0154
 4574TIP3    H213729   5.096   5.129   3.928  1.5343 -3.4524  1.0396
 4575TIP3   OH213730   5.285   4.600   1.536  0.0297  0.0396  0.0208
 4575TIP3    H113731   5.296   4.532   1.602  0.3593  0.0596 -0.0141
 4575TIP3    H213732   5.351   4.666   1.557  1.7022 -0.9932 -1.6554
 4576TIP3   OH213733   0.057   0.819   4.735  0.0103 -0.0729  0.1705
 4576TIP3    H113734   0.136   0.768   4.756  0.8208  1.0542 -0.0351
 4576TIP3    H213735  -0.014   0.773   4.779  0.9052 -0.6779  1.0223
 4577TIP3   OH213736   6.297   5.918   2.363  0.6412  0.4653 -0.3404
 4577TIP3    H113737   6.360   5.963   2.420  0.9272 -0.3986  0.0452
 4577TIP3    H213738   6.239   5.987   2.333  1.6267  1.2448 -0.5090
 4578TIP3   OH213739   3.686   5.007   3.883  0.4660 -0.0358  0.4278
 4578TIP3    H113740   3.746   4.945   3.841  1.9532  0.3282  1.9212
 4578TIP3    H213741   3.643   4.956   3.952 -0.0643  0.0115  0.1358
 4579TIP3   OH213742   0.206   0.525   3.794 -0.3448  0.6599 -0.2290
 4579TIP3    H113743   0.212   0.554   3.885 -1.9560  0.3792 -0.0102
 4579TIP3    H213744   0.258   0.445   3.791 -2.8417 -1.1496  1.2844
 4580TIP3   OH213745   0.148   5.873   1.512 -0.0124  0.0933  0.4547
 4580TIP3    H113746   0.134   5.906   1.601 -0.5293  1.7753 -0.2133
 4580TIP3    H213747   0.060   5.859   1.477  0.1924 -0.8078  0.2855
 4581TIP3   OH213748   1.819   5.054   1.544  0.1611 -0.1956 -0.2029
 4581TIP3    H113749   1.824   5.068   1.639  1.7333 -0.3536 -0.2310
 4581TIP3    H213750   1.814   4.959   1.533 -0.6670 -0.1545 -0.2819
 4582TIP3   OH213751   2.622   1.954   3.449 -0.1895  0.1226  0.7555
 4582TIP3    H113752   2.680   1.880   3.465  1.1413  1.4410  2.4239
 4582TIP3    H213753   2.674   2.014   3.396 -0.7377  0.4971  0.6297
 4583TIP3   OH213754   3.348   1.574   4.262  0.2474 -0.3083  0.2849
 4583TIP3    H113755   3.337   1.660   4.220 -0.7659 -0.4574  0.2156
 4583TIP3    H213756   3.285   1.518   4.217 -0.0251 -0.7628  1.2134
 4584TIP3   OH213757   2.020   4.927   0.852 -0.2099 -0.0080 -0.6924
 4584TIP3    H113758   2.027   4.956   0.761  2.1771  0.6442 -0.3878
 4584TIP3    H213759   2.106   4.947   0.890 -1.4241  0.5778  1.9646
 4585TIP3   OH213760   4.251   5.464   3.828  0.4606  0.1186 -0.5138
 4585TIP3    H113761   4.219   5.461   3.918  0.0149  0.8791 -0.6384
 4585TIP3    H213762   4.273   5.373   3.807 -0.4967 -0.2350 -0.0172
 4586TIP3   OH213763   3.359   3.886   4.020  0.5937  0.2743 -0.1734
 4586TIP3    H113764   3.338   3.793   4.013  0.4107  0.3289 -0.3515
 4586TIP3    H213765   3.312   3.915   4.098  0.8632  0.1589  0.0331
 4587TIP3   OH213766   1.062   3.384   2.453 -0.2474 -0.4695  0.1119
 4587TIP3    H113767   1.074   3.409   2.362  0.3173 -1.5150 -0.1196
 4587TIP3    H213768   1.150   3.380   2.489 -0.4567 -0.2106  0.6714
 4588TIP3   OH213769   5.645   3.432   0.813 -0.2972  0.5393 -0.2474
 4588TIP3    H113770   5.652   3.512   0.865 -1.3028 -0.4386  1.4603
 4588TIP3    H213771   5.560   3.439   0.769 -1.3018 -0.4255  1.4494
 4589TIP3   OH213772   5.510   1.406   1.884  0.2205 -0.0174  0.1353
 4589TIP3    H113773   5.598   1.385   1.917  0.9022 -0.0981 -1.6341
 4589TIP3    H213774   5.519   1.494   1.849 -0.3346 -0.1341 -0.3052
 4590TIP3   OH213775   2.331   1.481   1.367 -0.2766 -0.5036  0.3551
 4590TIP3    H113776   2.364   1.395   1.395 -0.4998 -0.2635  1.4208
 4590TIP3    H213777   2.272   1.507   1.438 -1.1879 -0.0270 -0.5557
 4591TIP3   OH213778   1.529   1.546   4.790  0.0066 -0.3677 -0.3030
 4591TIP3    H113779   1.496   1.523   4.876 -1.6106  0.2275 -0.7140
 4591TIP3    H213780   1.591   1.617   4.806 -0.3036 -0.2393  0.3774
 4592TIP3   OH213781   1.212   1.935   3.884  0.5068 -0.1801  0.2872
 4592TIP3    H113782   1.194   1.905   3.973 -0.1893 -1.5466 -0.2743
 4592TIP3    H213783   1.176   1.866   3.828  1.0413  0.5858 -1.0539
 4593TIP3   OH213784   2.385   1.788   1.536  0.2594 -0.3600  0.4578
 4593TIP3    H113785   2.323   1.846   1.491 -0.0489 -0.1624  1.1335
 4593TIP3    H213786   2.357   1.700   1.510 -0.2714 -0.2718  0.7127
 4594TIP3   OH213787   5.703   5.893   1.611 -0.2941  0.0659 -0.6098
 4594TIP3    H113788   5.720   5.953   1.539  0.2820  1.8816  0.9540
 4594TIP3    H213789   5.667   5.948   1.681  0.6244 -1.3200  1.0405
 4595TIP3   OH213790   5.281   2.861   3.864  0.5300  0.3573 -0.3444
 4595TIP3    H113791   5.218   2.910   3.811 -0.8597  0.5065  1.3559
 4595TIP3    H213792   5.352   2.840   3.804 -0.5384  1.3188 -2.0113
 4596TIP3   OH213793   2.947   1.485   3.416 -0.1682 -0.2402  0.5924
 4596TIP3    H113794   2.891   1.563   3.417 -1.1832 -0.9532  1.1639
 4596TIP3    H213795   3.025   1.510   3.466 -0.1442  0.6320  0.1383
 4597TIP3   OH213796   1.025   1.416   5.133  0.0149  0.2748 -0.3483
 4597TIP3    H113797   1.060   1.424   5.222 -0.2573 -0.2551 -0.1918
 4597TIP3    H213798   0.969   1.493   5.123  0.2745  0.4901 -0.1685
 4598TIP3   OH213799   4.809   4.933   4.716 -0.0626 -0.1794 -0.2809
 4598TIP3    H113800   4.770   4.860   4.667  4.9604 -1.9161 -2.4200
 4598TIP3    H213801   4.808   4.903   4.807 -0.4620 -1.7206 -0.7541
 4599TIP3   OH213802   0.565   2.939   1.320 -0.0003 -0.4713  0.4964
 4599TIP3    H113803   0.647   2.891   1.328 -0.5287 -1.2575  1.3422
 4599TIP3    H213804   0.549   2.974   1.408  0.3770  1.2934 -0.0870
 4600TIP3   OH213805   0.712   2.896   3.051 -0.6025  0.1672 -0.0703
 4600TIP3    H113806   0.622   2.881   3.022 -0.6709 -1.1400  0.7314
 4600TIP3    H213807   0.749   2.808   3.062  0.8796  0.6792 -0.6706
 4601TIP3   OH213808   0.414   5.859   4.126  0.5087 -0.1273 -0.1543
 4601TIP3    H113809   0.397   5.834   4.216 -2.1815 -2.5707 -1.1704
 4601TIP3    H213810   0.421   5.954   4.128 -0.2594 -0.0598  2.5253
 4602TIP3   OH213811   3.338   2.276   2.376  0.4768 -0.1560 -0.1261
 4602TIP3    H113812   3.423   2.233   2.366  1.5193  1.9049 -0.7048
 4602TIP3    H213813   3.354   2.367   2.349 -1.0989  1.1493  2.8415
 4603TIP3   OH213814   1.137   5.109   2.999 -0.7586 -0.5905 -0.0980
 4603TIP3    H113815   1.100   5.090   3.085  0.1820 -2.1033  0.0064
 4603TIP3    H213816   1.222   5.148   3.018 -0.5196 -0.9917 -0.3357
 4604TIP3   OH213817   5.623   2.160   1.466  0.2321 -0.5718  0.3368
 4604TIP3    H113818   5.549   2.122   1.418  0.2195 -0.0025 -0.1084
 4604TIP3    H213819   5.699   2.110   1.436  0.2059 -0.3001 -0.1935
 4605TIP3   OH213820   0.234   0.138   0.688  0.7695  0.4536  0.2056
 4605TIP3    H113821   0.275   0.157   0.604  1.6513  1.7757  0.8992
 4605TIP3    H213822   0.304   0.099   0.741  0.2911 -0.1406  0.4154
 4606TIP3   OH213823   4.000   1.885   0.966  0.0041  0.0141 -0.1304
 4606TIP3    H113824   4.032   1.944   0.897  0.9671 -1.7330 -1.2837
 4606TIP3    H213825   4.017   1.932   1.048 -1.4128  2.2701 -1.0335
 4607TIP3   OH213826   0.797   5.001   0.595  0.3136  0.5876  0.3425
 4607TIP3    H113827   0.714   5.020   0.639  0.7530  1.0613  0.9707
 4607TIP3    H213828   0.856   4.975   0.665  0.6902  0.2129 -0.1103
 4608TIP3   OH213829   6.092   1.935   4.735 -0.2153  0.4504  0.3330
 4608TIP3    H113830   6.092   1.963   4.643  2.0760 -2.6345 -0.7913
 4608TIP3    H213831   6.025   1.867   4.739  0.4539 -0.2062  0.6237
 4609TIP3   OH213832   3.574   5.724   2.923  0.2198 -0.7949 -0.1044
 4609TIP3    H113833   3.484   5.715   2.891 -0.6937  2.3265  1.2147
 4609TIP3    H213834   3.577   5.810   2.964  2.4116 -2.6957  4.4400
 4610TIP3   OH213835   0.424   1.965   5.155  0.4057  0.0791  0.3852
 4610TIP3    H113836   0.364   1.919   5.214  0.7349  0.2612  0.8687
 4610TIP3    H213837   0.410   1.924   5.069  0.3866 -0.6202  0.7186
 4611TIP3   OH213838   6.026   1.357   2.824  0.5419  0.2501  0.1745
 4611TIP3    H113839   6.107   1.313   2.851  1.4275 -0.2784 -2.9798
 4611TIP3    H213840   5.958   1.292   2.836  0.9441 -0.0822  0.6965
 4612TIP3   OH213841   6.300   1.422   4.148  0.4327  0.9889 -0.7231
 4612TIP3    H113842   6.357   1.439   4.223 -1.1786  0.0608  0.8105
 4612TIP3    H213843   6.241   1.498   4.145  0.8355  1.2837 -1.4184
 4613TIP3   OH213844   4.987   5.565   4.229 -0.2190  0.4262 -0.2041
 4613TIP3    H113845   4.948   5.613   4.302  0.0896  1.4833 -0.7139
 4613TIP3    H213846   4.968   5.619   4.152  0.5999 -0.0018 -0.7191
 4614TIP3   OH213847   5.374   0.789   1.966  0.0325 -0.0118  0.5253
 4614TIP3    H113848   5.337   0.812   2.051  0.9728  0.6936  0.7620
 4614TIP3    H213849   5.431   0.863   1.944  1.8201 -1.3192  0.5066
 4615TIP3   OH213850   3.149   2.540   1.728  0.1651 -0.4064  0.0984
 4615TIP3    H113851   3.200   2.605   1.776 -0.4653  0.3178 -0.1875
 4615TIP3    H213852   3.058   2.567   1.742 -0.0380 -0.3225 -1.3030
 4616TIP3   OH213853   5.349   2.044   4.978 -0.1902  0.1272 -0.0840
 4616TIP3    H113854   5.328   1.987   5.051  0.8046  0.8922  0.8228
 4616TIP3    H213855   5.302   2.126   4.996 -0.4850  0.0917 -0.6548
 4617TIP3   OH213856   5.913   1.727   4.709  0.0846  0.0229  0.7085
 4617TIP3    H113857   5.911   1.689   4.621 -0.0847 -0.6850  1.0059
 4617TIP3    H213858   5.822   1.743   4.731 -0.1106 -1.9190  1.6107
 4618TIP3   OH213859   2.603   1.185   4.495 -0.2711 -0.2781  0.5797
 4618TIP3    H113860   2.691   1.218   4.478  0.7600 -2.3145  1.5758
 4618TIP3    H213861   2.588   1.204   4.588 -1.2122  0.7167  0.2419
 4619TIP3   OH213862   0.852   3.206   3.958  0.1545 -0.3699  0.2059
 4619TIP3    H113863   0.928   3.189   3.903  0.1732  0.6282 -0.0995
 4619TIP3    H213864   0.806   3.278   3.915  0.4835  0.8387  1.7635
 4620TIP3   OH213865   0.717   5.025   4.621 -0.4216  0.4160 -0.0589
 4620TIP3    H113866   0.688   4.984   4.702  0.6504 -3.0315 -1.2634
 4620TIP3    H213867   0.809   5.047   4.636  1.1823 -4.2155 -1.4523
 4621TIP3   OH213868   2.141   0.149   4.992  0.4646  0.2675  0.0126
 4621TIP3    H113869   2.094   0.218   5.040 -0.9983 -0.0684 -0.8555
 4621TIP3    H213870   2.190   0.102   5.059  0.3223  1.2397  0.8276
 4622TIP3   OH213871   5.994   2.894   1.828  0.7356 -0.0101 -0.3818
 4622TIP3    H113872   6.072   2.898   1.883 -0.6667  0.6882  1.6919
 4622TIP3    H213873   5.921   2.900   1.890 -0.9954 -1.6055 -2.1573
 4623TIP3   OH213874   0.081   5.609   4.429 -0.4557  0.8498 -0.0237
 4623TIP3    H113875   0.025   5.660   4.370 -0.9516 -0.3623 -0.6522
 4623TIP3    H213876   0.157   5.586   4.376 -0.6962  0.1224 -0.0637
 4624TIP3   OH213877   2.375   2.324   1.052 -0.5179  0.0656  0.0807
 4624TIP3    H113878   2.296   2.332   1.000 -0.7505 -2.2334 -0.0501
 4624TIP3    H213879   2.409   2.413   1.059 -1.9507  0.8128 -1.6553
 4625TIP3   OH213880   2.796   4.823   1.768 -0.0124  0.4660  0.2885
 4625TIP3    H113881   2.793   4.901   1.823  0.7703 -0.1776  1.2734
 4625TIP3    H213882   2.880   4.783   1.789  0.0750 -0.0710 -1.0133
 4626TIP3   OH213883   5.113   3.710   3.845 -0.2184 -0.0146  0.1549
 4626TIP3    H113884   5.108   3.765   3.766  1.2612 -0.1879 -0.0977
 4626TIP3    H213885   5.165   3.634   3.817  3.7089  1.6537  2.1637
 4627TIP3   OH213886   5.239   4.652   1.110 -1.5169 -0.4665 -0.8439
 4627TIP3    H113887   5.285   4.735   1.124 -2.3232 -0.1483  0.0849
 4627TIP3    H213888   5.297   4.601   1.054  0.5410 -0.5869  1.2705
 4628TIP3   OH213889   2.892   4.533   0.097 -0.1273 -0.2125  0.0871
 4628TIP3    H113890   2.899   4.606   0.037  0.0252  0.8088  1.3086
 4628TIP3    H213891   2.822   4.557   0.157 -0.2895 -1.2125  0.3291
 4629TIP3   OH213892   5.804   2.578   3.996  0.3254  0.4689  0.2613
 4629TIP3    H113893   5.802   2.494   3.950  0.3130  1.1012 -0.9308
 4629TIP3    H213894   5.716   2.615   3.982 -0.0224  0.2468  1.6541
 4630TIP3   OH213895   6.004   0.280   2.442  0.5819 -0.1635  0.3386
 4630TIP3    H113896   6.014   0.346   2.510  1.2245  0.0495  0.0394
 4630TIP3    H213897   5.927   0.230   2.469 -0.0005  0.7923  0.5019
 4631TIP3   OH213898   3.674   1.595   3.961 -0.2257 -0.2675  0.0140
 4631TIP3    H113899   3.585   1.562   3.949 -0.2817 -0.2918  0.4709
 4631TIP3    H213900   3.662   1.686   3.989 -0.0799  0.0761 -1.0225
 4632TIP3   OH213901   4.581   0.305   2.394  0.5689  0.0590  0.3380
 4632TIP3    H113902   4.493   0.302   2.357  0.3865 -0.2308  0.7802
 4632TIP3    H213903   4.636   0.259   2.331  0.3689  0.0752  0.1510
 4633TIP3   OH213904   1.823   0.670   0.866 -0.2475  0.4761  0.0806
 4633TIP3    H113905   1.780   0.585   0.855  1.3422 -0.5066  1.1625
 4633TIP3    H213906   1.785   0.705   0.947 -0.8415  0.7733 -0.3203
 4634TIP3   OH213907   4.451   2.861   3.626  0.0780  0.3167  0.4851
 4634TIP3    H113908   4.497   2.924   3.570  0.4273  0.0423  0.4597
 4634TIP3    H213909   4.506   2.853   3.704  2.2724 -2.9847 -1.1554
 4635TIP3   OH213910   6.128   1.281   4.529  0.9358  0.1260 -0.2625
 4635TIP3    H113911   6.044   1.279   4.483 -0.0300  0.8218  1.3729
 4635TIP3    H213912   6.124   1.359   4.584  1.3170 -1.4194  2.1598
 4636TIP3   OH213913   0.844   4.864   4.042 -0.0335 -0.1277 -0.5977
 4636TIP3    H113914   0.796   4.827   4.116 -0.2600  1.1816 -0.0561
 4636TIP3    H213915   0.776   4.902   3.987 -0.1841 -3.4677 -3.0038
 4637TIP3   OH213916   3.196   5.974   4.216 -0.0321 -0.6085 -0.7817
 4637TIP3    H113917   3.208   5.953   4.309  0.1349 -1.3356 -0.9612
 4637TIP3    H213918   3.285   5.974   4.180 -0.1167 -0.5858 -0.9908
 4638TIP3   OH213919   5.943   4.890   4.793 -0.2456  0.2875  0.1807
 4638TIP3    H113920   5.988   4.942   4.726 -0.7273  0.9759  0.3876
 4638TIP3    H213921   5.888   4.830   4.744 -0.8847  1.0448 -0.0516
 4639TIP3   OH213922   2.584   4.728   2.846  0.2888  0.2372  0.4296
 4639TIP3    H113923   2.531   4.783   2.788  1.0251 -1.3562 -1.8824
 4639TIP3    H213924   2.612   4.654   2.791  2.0678 -0.7433  2.4934
 4640TIP3   OH213925   2.538   2.849   0.840 -0.9344  0.3599 -0.5282
 4640TIP3    H113926   2.597   2.911   0.797 -0.2621 -0.8312 -1.3911
 4640TIP3    H213927   2.563   2.764   0.804 -0.7119 -0.6460  1.8111
 4641TIP3   OH213928   5.509   1.077   1.887  0.2696  0.5640  0.1721
 4641TIP3    H113929   5.560   1.102   1.965  0.6878 -1.0155  0.4463
 4641TIP3    H213930   5.474   1.159   1.854  0.8196  1.3810  1.5241
 4642TIP3   OH213931   3.329   3.549   2.640  0.3680  0.2244  0.0001
 4642TIP3    H113932   3.314   3.478   2.701 -1.3320  0.0897 -0.5097
 4642TIP3    H213933   3.342   3.506   2.555  0.0452  0.4928 -0.1873
 4643TIP3   OH213934   5.534   4.609   1.916 -0.1056  0.4215  0.0752
 4643TIP3    H113935   5.611   4.578   1.868 -0.0405  1.7893 -0.7676
 4643TIP3    H213936   5.560   4.602   2.008 -0.0493 -1.7693 -0.0677
 4644TIP3   OH213937   2.117   1.812   1.933  0.1405  0.0625 -0.0065
 4644TIP3    H113938   2.070   1.867   1.870 -0.7824 -1.9560 -1.1842
 4644TIP3    H213939   2.204   1.851   1.938  0.1032  0.5797 -2.1933
 4645TIP3   OH213940   5.099   5.440   0.608  0.5329 -1.1069  0.2242
 4645TIP3    H113941   5.040   5.485   0.668  0.3460  0.0160 -0.7513
 4645TIP3    H213942   5.077   5.476   0.521  2.2716 -1.0211 -0.2299
 4646TIP3   OH213943   6.011  -0.027   2.877 -0.1816  0.2128 -0.2902
 4646TIP3    H113944   5.925  -0.035   2.919  0.5395 -0.1829  1.1484
 4646TIP3    H213945   6.034   0.065   2.888  0.3743 -0.0632  0.9533
 4647TIP3   OH213946   0.125   3.761   0.836  0.3450  0.2217 -0.2573
 4647TIP3    H113947   0.123   3.686   0.895  1.5553  1.1486  1.0009
 4647TIP3    H213948   0.204   3.749   0.784 -0.0653  0.0500 -0.8506
 4648TIP3   OH213949   3.752   3.042   2.096 -1.3069  0.2381  0.3308
 4648TIP3    H113950   3.773   2.975   2.162 -0.6238  0.1211  0.0053
 4648TIP3    H213951   3.799   3.014   2.018  0.4372  1.9892  0.6655
 4649TIP3   OH213952   0.174   5.398   2.821  0.1097 -0.2485 -0.0935
 4649TIP3    H113953   0.217   5.364   2.742  0.1633  1.2628 -0.7524
 4649TIP3    H213954   0.221   5.478   2.841 -1.8375  1.0144 -0.3327
 4650TIP3   OH213955   5.389   1.491   2.755  0.0562 -0.2538  0.0997
 4650TIP3    H113956   5.386   1.475   2.850 -0.1908  0.9825  0.3195
 4650TIP3    H213957   5.306   1.457   2.723  1.4999 -3.8101 -0.2515
 4651TIP3   OH213958   3.743   3.763   0.956 -0.5198 -0.3326  0.1831
 4651TIP3    H113959   3.831   3.733   0.936  0.8629  2.7736  0.9756
 4651TIP3    H213960   3.690   3.737   0.881  2.1363  1.7418 -2.6784
 4652TIP3   OH213961   1.494   4.288   0.224  0.3321  0.2796 -0.3339
 4652TIP3    H113962   1.583   4.271   0.255  0.1191  1.8924  1.4071
 4652TIP3    H213963   1.449   4.204   0.230  1.3806 -0.2638  0.0689
 4653TIP3   OH213964   5.229   5.197   0.630 -0.3555 -0.3060 -0.2405
 4653TIP3    H113965   5.173   5.274   0.618 -0.3074 -0.0737  0.9027
 4653TIP3    H213966   5.240   5.190   0.725  1.1495 -0.6411 -0.4152
 4654TIP3   OH213967   3.125   2.676   1.106  0.0894 -0.3078 -0.4419
 4654TIP3    H113968   3.075   2.755   1.127  2.8345  0.6629  3.7965
 4654TIP3    H213969   3.209   2.689   1.149  0.4617 -5.8416  1.3452
 4655TIP3   OH213970   5.780   4.711   4.679 -0.3368 -0.1677  0.1156
 4655TIP3    H113971   5.722   4.690   4.605  0.6559 -2.3784 -0.1164
 4655TIP3    H213972   5.729   4.688   4.756 -0.8333  0.7509  0.0813
 4656TIP3   OH213973   2.006   4.523   4.144 -0.1833 -0.7599  0.4122
 4656TIP3    H113974   2.085   4.533   4.197  0.4160  0.9152 -0.7090
 4656TIP3    H213975   1.939   4.498   4.206  0.0997  2.7094  2.3740
 4657TIP3   OH213976   3.970   1.663   5.139 -0.3497  0.5759  0.1377
 4657TIP3    H113977   3.973   1.743   5.192  2.9786 -0.4533  1.7831
 4657TIP3    H213978   4.049   1.667   5.086  0.5833 -2.1271  1.1911
 4658TIP3   OH213979   1.099   0.363   0.655  0.1597 -0.2016 -0.1736
 4658TIP3    H113980   1.148   0.330   0.579  1.4264  1.6993 -0.2656
 4658TIP3    H213981   1.019   0.399   0.618  0.8323  0.8351 -0.6675
 4659TIP3   OH213982   0.540   5.373   4.180  0.4876 -0.5402 -0.3282
 4659TIP3    H113983   0.447   5.390   4.166  0.8819  0.9517 -1.3790
 4659TIP3    H213984   0.551   5.378   4.275 -0.2645  0.7172 -0.2832
 4660TIP3   OH213985   2.681   5.777   0.995 -0.1487 -0.1812  0.3930
 4660TIP3    H113986   2.720   5.691   1.010 -0.1345 -0.4092 -0.8693
 4660TIP3    H213987   2.754   5.839   1.008 -0.2201 -0.3096  1.5695
 4661TIP3   OH213988   0.616   0.744   0.976  0.0169 -0.1481  0.0893
 4661TIP3    H113989   0.585   0.722   0.888  0.5480 -1.8201  0.2707
 4661TIP3    H213990   0.664   0.825   0.966  0.4728 -0.5644 -1.2655
 4662TIP3   OH213991   0.062   2.337   2.872  0.0773 -0.7998  0.0182
 4662TIP3    H113992   0.131   2.273   2.854 -0.1954 -1.2732  0.5984
 4662TIP3    H213993  -0.009   2.285   2.911  0.1520 -0.0421  1.2241
 4663TIP3   OH213994   1.247   4.596   1.565  0.0629 -0.8528 -0.6242
 4663TIP3    H113995   1.272   4.645   1.643 -1.2183 -0.2315 -0.5892
 4663TIP3    H213996   1.276   4.506   1.583 -0.5039 -0.7887  0.7248
 4664TIP3   OH213997   5.112   0.483   1.186 -0.3007 -0.6025 -0.3087
 4664TIP3    H113998   5.113   0.578   1.198 -0.1047 -0.5884 -0.4380
 4664TIP3    H213999   5.032   0.454   1.230 -1.0578 -0.2342 -1.3913
 4665TIP3   OH214000   4.331   4.638   3.271  0.2993  0.3499 -0.0612
 4665TIP3    H114001   4.311   4.696   3.344 -1.1669  0.2842 -0.3802
 4665TIP3    H214002   4.257   4.648   3.210 -1.2077 -3.3521  0.8356
 4666TIP3   OH214003   2.108   2.437   1.444  0.3632 -0.0645  0.0843
 4666TIP3    H114004   2.088   2.379   1.516  0.4715 -0.8145 -0.4777
 4666TIP3    H214005   2.102   2.525   1.481 -2.2207 -0.2988  0.3674
 4667TIP3   OH214006   3.860   0.782   2.659  0.6834  0.2621 -0.2245
 4667TIP3    H114007   3.935   0.789   2.600  1.1066  0.2450  0.3000
 4667TIP3    H214008   3.849   0.870   2.694  1.0957  0.0495  0.4593
 4668TIP3   OH214009   3.933   2.318   1.633 -0.5201 -0.3342 -0.7848
 4668TIP3    H114010   3.984   2.243   1.602 -0.1231 -0.3147 -0.1924
 4668TIP3    H214011   3.876   2.341   1.559  0.1549 -0.5093 -1.3632
 4669TIP3   OH214012   2.235   4.067   0.887  0.3018  0.1157  0.3698
 4669TIP3    H114013   2.238   3.972   0.896  0.4166  0.1489  0.6757
 4669TIP3    H214014   2.162   4.083   0.827 -0.5164 -0.0955  1.3028
 4670TIP3   OH214015   3.466   0.041   2.413 -0.2245  0.0709 -0.5084
 4670TIP3    H114016   3.553   0.021   2.448 -0.1291 -0.6604 -1.1470
 4670TIP3    H214017   3.417  -0.041   2.422 -0.8874  0.5071 -0.0544
 4671TIP3   OH214018   2.124   5.496   5.001  0.6231  0.5775  0.4180
 4671TIP3    H114019   2.219   5.495   4.994  0.5782 -0.0952 -0.2315
 4671TIP3    H214020   2.093   5.517   4.913  0.1610 -0.0601  0.4203
 4672TIP3   OH214021   4.895   3.626   0.814 -0.3178 -0.0328  0.3106
 4672TIP3    H114022   4.839   3.559   0.775 -0.0729  0.2326 -0.5148
 4672TIP3    H214023   4.862   3.636   0.904 -0.3920 -1.2169  0.4297
 4673TIP3   OH214024   1.758   4.942   2.470 -0.2062 -0.5258  0.2034
 4673TIP3    H114025   1.822   4.949   2.541  0.1482 -0.9140 -0.0751
 4673TIP3    H214026   1.706   5.022   2.477  0.8158  0.1813 -0.0513
 4674TIP3   OH214027   1.117   0.156   3.497 -0.3072  0.3404  0.8514
 4674TIP3    H114028   1.194   0.204   3.528 -0.3443  0.3747  0.8904
 4674TIP3    H214029   1.043   0.200   3.538 -0.2270 -1.1227  2.6882
 4675TIP3   OH214030   0.845   3.714   4.221  0.0902 -0.4802  0.1474
 4675TIP3    H114031   0.940   3.718   4.207 -0.0972  0.7661 -0.9428
 4675TIP3    H214032   0.823   3.622   4.207  1.0340 -0.6433 -0.3753
 4676TIP3   OH214033   5.836   4.356   4.765  0.0892 -0.6425  0.1814
 4676TIP3    H114034   5.789   4.375   4.683  0.0165 -1.0097  0.1399
 4676TIP3    H214035   5.893   4.432   4.777 -1.0642  0.1819  0.6330
 4677TIP3   OH214036   0.454   0.566   1.787  0.5777  0.3247  0.3142
 4677TIP3    H114037   0.484   0.505   1.855 -0.4549 -0.8461 -0.2356
 4677TIP3    H214038   0.367   0.594   1.816  0.5880  0.6731  0.0133
 4678TIP3   OH214039   2.438   1.125   3.057  0.4944  0.1951 -0.4588
 4678TIP3    H114040   2.405   1.038   3.081 -0.6350  0.7340  0.0248
 4678TIP3    H214041   2.445   1.123   2.962  0.9383 -0.5786 -0.4144
 4679TIP3   OH214042   0.274   5.648   0.518 -0.1669 -0.0723  0.4772
 4679TIP3    H114043   0.238   5.561   0.537 -0.2253 -0.2869 -0.5533
 4679TIP3    H214044   0.280   5.651   0.423  0.4836  0.8001  0.5353
 4680TIP3   OH214045   5.257   5.720   2.030 -0.1633 -0.2387 -0.1462
 4680TIP3    H114046   5.302   5.711   2.114 -1.1485 -2.1507  0.2340
 4680TIP3    H214047   5.170   5.753   2.052 -0.9529 -2.1617 -0.1866
 4681TIP3   OH214048   1.882   0.113   2.257 -0.0775  0.5171  0.3840
 4681TIP3    H114049   1.900   0.144   2.168 -0.8000  0.1594  0.1025
 4681TIP3    H214050   1.811   0.050   2.246  1.2655 -1.1638  0.9630
 4682TIP3   OH214051   1.165   3.907   0.644  0.0358 -0.1476 -0.3551
 4682TIP3    H114052   1.227   3.966   0.688  1.6051 -1.4386 -0.7365
 4682TIP3    H214053   1.158   3.832   0.702  0.3001 -0.8338 -1.1846
 4683TIP3   OH214054   2.695   5.690   1.772 -0.2553 -0.1285  0.2654
 4683TIP3    H114055   2.764   5.654   1.827  0.1078  1.7533  1.1159
 4683TIP3    H214056   2.741   5.727   1.697 -0.6387 -1.4544 -0.6724
 4684TIP3   OH214057   3.747   1.205   0.324  0.3692 -0.0972 -0.2868
 4684TIP3    H114058   3.667   1.255   0.310  0.3264 -0.1734 -0.3190
 4684TIP3    H214059   3.797   1.256   0.388  0.3478  0.0095 -0.3562
 4685TIP3   OH214060   1.980   3.573   4.219  0.2544 -0.4501 -0.0572
 4685TIP3    H114061   1.947   3.558   4.131 -2.0053  2.3780  0.1613
 4685TIP3    H214062   2.056   3.631   4.208 -0.8732  1.0686 -0.1621
 4686TIP3   OH214063   4.903   0.401   1.349  0.1139  0.2812 -0.2842
 4686TIP3    H114064   4.910   0.313   1.386  2.3483 -0.0798 -1.3694
 4686TIP3    H214065   4.819   0.401   1.303  0.8867 -1.9958 -1.8870
 4687TIP3   OH214066   4.078   2.463   2.423 -0.5476  0.1148  0.2352
 4687TIP3    H114067   4.076   2.449   2.329  2.2746  3.0863 -0.4406
 4687TIP3    H214068   4.037   2.548   2.436  1.7876  1.1692  1.2267
 4688TIP3   OH214069   0.160   1.282   2.686 -0.0344  0.0839 -0.0518
 4688TIP3    H114070   0.097   1.220   2.723 -0.3203  0.0856 -0.5265
 4688TIP3    H214071   0.190   1.240   2.605  0.4755  0.1444  0.1016
 4689TIP3   OH214072   3.516   4.303   3.055 -0.1750  0.3993  0.0194
 4689TIP3    H114073   3.533   4.265   2.968  0.0398 -1.7551  0.9319
 4689TIP3    H214074   3.584   4.369   3.066  0.6249 -0.2318 -0.9132
 4690TIP3   OH214075   2.259   5.195   0.895 -0.1063  0.4972  0.4578
 4690TIP3    H114076   2.338   5.190   0.841  0.0481  1.4583  0.5787
 4690TIP3    H214077   2.279   5.142   0.972 -0.0562 -0.2903 -0.0839
 4691TIP3   OH214078   5.765   1.187   1.703 -0.7204 -0.0085  0.0144
 4691TIP3    H114079   5.728   1.260   1.753 -1.6028 -0.6666  0.3673
 4691TIP3    H214080   5.820   1.140   1.766 -0.3513  0.2142 -0.1429
 4692TIP3   OH214081   4.886   1.560   0.595 -0.6619  0.5525 -0.2213
 4692TIP3    H114082   4.870   1.642   0.548  0.6896  0.9324 -0.0449
 4692TIP3    H214083   4.958   1.579   0.654 -1.4043 -0.3206  1.0124
 4693TIP3   OH214084   3.887   0.027   2.353 -0.3444 -0.2979 -0.1214
 4693TIP3    H114085   3.941  -0.033   2.404 -1.2276 -0.8788  0.1590
 4693TIP3    H214086   3.824   0.061   2.416 -0.5676  0.0438 -0.5286
 4694TIP3   OH214087   1.497   3.085   0.863  0.0240 -0.3652 -0.0830
 4694TIP3    H114088   1.543   3.090   0.779 -1.4691 -0.5963 -0.9508
 4694TIP3    H214089   1.439   3.009   0.854 -0.9409  0.2404  0.7348
 4695TIP3   OH214090   4.200   4.984   2.296  0.0350  0.3898  0.1405
 4695TIP3    H114091   4.186   5.028   2.380 -0.4298  0.7428 -0.1180
 4695TIP3    H214092   4.127   5.013   2.241 -0.2787 -0.6837 -0.0457
 4696TIP3   OH214093   2.414   0.120   1.477 -0.5703 -0.0267 -0.0258
 4696TIP3    H114094   2.374   0.033   1.470 -0.5864 -0.1563  1.4311
 4696TIP3    H214095   2.470   0.126   1.400 -3.2016  0.0796 -2.0873
 4697TIP3   OH214096   0.106   1.657   1.347 -0.0307 -0.3157  0.0129
 4697TIP3    H114097   0.157   1.734   1.369  0.9847 -0.3957 -1.8450
 4697TIP3    H214098   0.113   1.650   1.252  0.0032 -2.7620  0.1284
 4698TIP3   OH214099   1.144   1.808   4.164  0.1990 -0.6044 -0.3975
 4698TIP3    H114100   1.210   1.769   4.108  0.7770  0.3585 -0.4036
 4698TIP3    H214101   1.133   1.745   4.236  0.0543 -1.4466 -1.1330
 4699TIP3   OH214102   0.850   2.304   3.205  0.0510  0.5728  0.1903
 4699TIP3    H114103   0.793   2.249   3.259 -0.3736  0.5690 -0.2550
 4699TIP3    H214104   0.916   2.243   3.171 -0.0370  0.4582  0.2218
 4700TIP3   OH214105   1.789   5.220   3.003  0.4771  0.4018  0.1901
 4700TIP3    H114106   1.843   5.141   3.012 -1.4248 -1.0235 -0.1093
 4700TIP3    H214107   1.743   5.227   3.086 -0.2937  0.4518 -0.2309
 4701TIP3   OH214108   0.838   5.480   4.658  0.3663 -0.2389 -0.2912
 4701TIP3    H114109   0.846   5.469   4.753 -0.1928  0.3004 -0.1749
 4701TIP3    H214110   0.847   5.391   4.623 -1.4697 -0.7752  0.4414
 4702TIP3   OH214111   4.623   3.313   3.219  0.3694  0.4419  0.0083
 4702TIP3    H114112   4.659   3.358   3.142 -0.4068 -0.9570 -1.2143
 4702TIP3    H214113   4.538   3.280   3.190  1.5913 -3.3320  0.2297
 4703TIP3   OH214114   5.338   4.213   1.463  0.3596 -0.1960 -0.3997
 4703TIP3    H114115   5.256   4.229   1.509  1.8077  0.8187  2.0437
 4703TIP3    H214116   5.320   4.238   1.372 -1.5279  1.8847  0.4493
 4704TIP3   OH214117   1.489   3.295   1.479 -0.9017 -0.3002 -0.2237
 4704TIP3    H114118   1.464   3.212   1.519 -2.9224 -0.7721 -2.2544
 4704TIP3    H214119   1.545   3.270   1.405 -1.9454  0.0672 -1.1580
 4705TIP3   OH214120   0.896   4.219   4.016 -0.3306 -0.1566 -0.0314
 4705TIP3    H114121   0.952   4.156   4.061 -0.0771 -0.0100 -0.1345
 4705TIP3    H214122   0.836   4.250   4.083 -0.6993 -0.7794 -0.0694
 4706TIP3   OH214123   0.257   3.082   1.227 -0.3221  0.1347 -0.3054
 4706TIP3    H114124   0.259   2.990   1.202  0.1492  0.0715 -0.0391
 4706TIP3    H214125   0.347   3.103   1.250 -0.9114 -0.1512  2.5655
 4707TIP3   OH214126   4.460   1.767   4.690  0.6226 -0.0010  0.0459
 4707TIP3    H114127   4.553   1.789   4.694  0.8710 -0.4929 -1.9176
 4707TIP3    H214128   4.426   1.791   4.776  2.3585  1.0897  0.4815
 4708TIP3   OH214129   5.654   0.629   1.019 -0.1102 -0.3410  0.1429
 4708TIP3    H114130   5.641   0.676   1.101 -0.7519  0.5706 -0.4677
 4708TIP3    H214131   5.566   0.615   0.985  0.1939  0.8522 -1.2327
 4709TIP3   OH214132   3.526   2.027   1.321 -0.2613 -0.3357 -0.1323
 4709TIP3    H114133   3.570   1.947   1.293 -2.0042 -1.0626 -0.9543
 4709TIP3    H214134   3.577   2.098   1.282  0.1527 -1.1393 -1.0879
 4710TIP3   OH214135   0.406   1.092   2.789  0.1434 -0.2931  0.1835
 4710TIP3    H114136   0.452   1.013   2.762 -0.2480  0.2749 -2.3633
 4710TIP3    H214137   0.426   1.157   2.721 -0.0513  1.6362  1.8564
 4711TIP3   OH214138   2.540   4.299   2.107 -0.8852 -0.1574  0.2517
 4711TIP3    H114139   2.453   4.299   2.065 -0.5220 -1.3093 -0.5690
 4711TIP3    H214140   2.545   4.383   2.151 -2.3148  0.0531  0.0769
 4712TIP3   OH214141   6.262   5.625   2.734 -0.1477  0.0202 -0.2513
 4712TIP3    H114142   6.260   5.558   2.666 -2.1382 -1.8798  1.5037
 4712TIP3    H214143   6.301   5.581   2.810  0.7753  1.6613  0.2938
 4713TIP3   OH214144   2.100   5.434   0.338  0.7963 -0.1362  0.4011
 4713TIP3    H114145   2.031   5.441   0.272 -0.0694 -1.9151  1.0434
 4713TIP3    H214146   2.135   5.523   0.346 -1.1156  0.7397 -0.2707
 4714TIP3   OH214147   1.622   5.708   5.080  0.4411 -0.3756  0.6837
 4714TIP3    H114148   1.583   5.796   5.087  0.0420 -0.3829 -1.0190
 4714TIP3    H214149   1.699   5.711   5.137  0.7265  1.2578  0.2638
 4715TIP3   OH214150   3.551   4.055   2.587 -0.2544  0.5620  0.0699
 4715TIP3    H114151   3.521   3.965   2.579  0.6694  0.3006 -0.6000
 4715TIP3    H214152   3.509   4.102   2.515  1.0126  0.1609 -0.9699
 4716TIP3   OH214153   3.091   3.229   4.934 -0.2524 -0.7474 -0.1882
 4716TIP3    H114154   3.110   3.189   5.019  0.0647 -0.6259 -0.1993
 4716TIP3    H214155   3.072   3.321   4.954  1.3950 -0.3318 -0.4000
 4717TIP3   OH214156   1.155   2.193   3.753 -0.4140  0.2653  0.5998
 4717TIP3    H114157   1.161   2.105   3.789  0.2544  0.7045  1.6035
 4717TIP3    H214158   1.203   2.248   3.815  1.7222  0.9128 -1.4866
 4718TIP3   OH214159   1.479   2.134   3.937 -0.3332 -0.1196 -0.4596
 4718TIP3    H114160   1.440   2.194   4.000 -0.2787 -0.1732 -0.3744
 4718TIP3    H214161   1.410   2.117   3.873 -0.8526 -1.1779  0.3568
 4719TIP3   OH214162   1.404   5.866   4.883  0.2836  0.1472  0.1381
 4719TIP3    H114163   1.489   5.885   4.843 -1.1726  0.3328 -3.1556
 4719TIP3    H214164   1.393   5.771   4.871 -0.2673  0.2383 -0.0784
 4720TIP3   OH214165   5.940   0.665   1.834 -0.4065 -0.0269  0.6646
 4720TIP3    H114166   5.913   0.698   1.748 -0.2180 -0.4836  0.4257
 4720TIP3    H214167   6.034   0.651   1.825 -0.5537 -1.0378  0.6232
 4721TIP3   OH214168   5.113   2.079   0.057  0.3914  0.2152 -0.5585
 4721TIP3    H114169   5.060   2.013   0.101  0.4362 -0.4103 -1.4007
 4721TIP3    H214170   5.078   2.163   0.087  1.3703 -0.1331  1.7858
 4722TIP3   OH214171   3.724   5.122   2.565  0.4155 -0.7616  0.2824
 4722TIP3    H114172   3.743   5.191   2.629  1.0829 -1.6906  1.1122
 4722TIP3    H214173   3.637   5.091   2.588 -0.6309  0.8804 -1.1327
 4723TIP3   OH214174   1.834   3.059   0.390 -0.8435 -0.0672 -0.8575
 4723TIP3    H114175   1.825   3.068   0.485  1.9432 -0.4889 -0.4795
 4723TIP3    H214176   1.913   3.109   0.369 -0.8249 -0.8487 -2.8044
 4724TIP3   OH214177   0.854   3.287   3.223  0.4266 -0.5247 -0.4200
 4724TIP3    H114178   0.904   3.210   3.196  2.3708  0.3368  0.5063
 4724TIP3    H214179   0.827   3.329   3.141  0.3267 -1.5692 -0.9360
 4725TIP3   OH214180   3.450   0.509   1.938 -0.4196  0.1913  0.1990
 4725TIP3    H114181   3.461   0.422   1.900  1.4048  0.9609 -1.2122
 4725TIP3    H214182   3.491   0.502   2.024 -0.7962 -0.4790  0.3322
 4726TIP3   OH214183   0.063   4.992   1.753  0.5374  0.3307  0.1823
 4726TIP3    H114184   0.050   4.897   1.742 -0.1594  0.7336 -3.7680
 4726TIP3    H214185   0.157   5.004   1.745  0.6232 -0.0168  0.6244
 4727TIP3   OH214186   4.503   0.469   5.020  0.0292 -0.1161  0.2826
 4727TIP3    H114187   4.539   0.557   5.032 -1.8984  0.6754  0.7002
 4727TIP3    H214188   4.579   0.412   5.020  1.5676  1.7142 -2.0932
 4728TIP3   OH214189   4.496   5.657   5.115 -0.9886 -0.7082  0.2880
 4728TIP3    H114190   4.440   5.725   5.151 -1.0783 -0.5378 -0.1587
 4728TIP3    H214191   4.560   5.704   5.061 -1.0368 -0.9681 -0.0051
 4729TIP3   OH214192   2.477   4.556   3.291 -0.2403  0.1856 -0.2910
 4729TIP3    H114193   2.518   4.495   3.352 -0.9159 -2.4510 -2.3126
 4729TIP3    H214194   2.541   4.567   3.221 -1.2707 -0.5829 -1.3855
 4730TIP3   OH214195   2.215   2.560   4.616  0.2137  0.3421 -0.2003
 4730TIP3    H114196   2.283   2.535   4.553 -0.0407  0.0645 -0.3659
 4730TIP3    H214197   2.217   2.491   4.682  2.8178  2.3074  1.9857
 4731TIP3   OH214198   0.975   0.500   0.958 -0.7265  0.1347  0.1799
 4731TIP3    H114199   0.981   0.509   0.863 -0.9799  2.0711  0.3143
 4731TIP3    H214200   1.018   0.416   0.977 -1.2537 -0.6065 -1.6801
 4732TIP3   OH214201   4.159   0.423   4.499 -0.1363 -0.2050  0.0941
 4732TIP3    H114202   4.119   0.510   4.506  1.7517  0.7007  0.0785
 4732TIP3    H214203   4.224   0.432   4.430  2.2916 -0.7020  2.1718
 4733TIP3   OH214204   1.415   2.700   0.230  0.1879  0.5489  0.1466
 4733TIP3    H114205   1.497   2.746   0.213  0.1316  0.1120 -1.5076
 4733TIP3    H214206   1.357   2.727   0.159 -0.3624 -0.8415  0.0308
 4734TIP3   OH214207   3.842   2.944   1.838  0.0051  0.2940  0.0947
 4734TIP3    H114208   3.749   2.945   1.817  0.3784 -0.3799 -1.7393
 4734TIP3    H214209   3.880   3.013   1.782  0.4091  1.7683  2.0587
 4735TIP3   OH214210   0.278   1.954   1.973 -0.4730  0.4388 -0.0686
 4735TIP3    H114211   0.351   2.003   2.011 -0.4963  0.8595 -0.5593
 4735TIP3    H214212   0.310   1.863   1.969  0.8461  0.9345 -2.1993
 4736TIP3   OH214213   2.300   5.059   0.500  0.6060 -0.3770 -0.1678
 4736TIP3    H114214   2.373   5.086   0.445  0.1190  3.0081  0.6387
 4736TIP3    H214215   2.222   5.086   0.452  0.1403  1.4725  1.4859
 4737TIP3   OH214216   6.101   1.520   1.813  0.5583 -0.6758 -0.3648
 4737TIP3    H114217   6.028   1.533   1.872  0.0140 -2.7954 -0.4902
 4737TIP3    H214218   6.070   1.553   1.728  0.5056  0.2558  0.0066
 4738TIP3   OH214219   2.500   3.830   3.132 -0.2765  0.3044 -0.1061
 4738TIP3    H114220   2.431   3.850   3.195  0.3417  0.6683  0.4702
 4738TIP3    H214221   2.473   3.873   3.051 -1.2362 -0.4368 -0.1893
 4739TIP3   OH214222   0.673   0.090   1.609 -0.3266  0.2275 -0.0637
 4739TIP3    H114223   0.657   0.181   1.633  0.1148  0.2178  0.2888
 4739TIP3    H214224   0.614   0.040   1.664  0.0167  0.2582  0.3372
 4740TIP3   OH214225   3.254   0.393   1.217 -0.0073  0.6010  0.4395
 4740TIP3    H114226   3.312   0.364   1.287 -1.4281  0.4792  1.5908
 4740TIP3    H214227   3.251   0.319   1.156  1.0148  0.6050  0.3654
 4741TIP3   OH214228   0.057   2.394   0.302  1.1141 -0.0106 -0.0636
 4741TIP3    H114229  -0.000   2.418   0.375  0.2066 -0.5257 -0.5908
 4741TIP3    H214230   0.031   2.452   0.231 -0.0196 -1.4524 -0.8647
 4742TIP3   OH214231   0.969   0.170   0.856  0.0716  0.3294 -0.0394
 4742TIP3    H114232   1.027   0.206   0.788  0.4622 -1.1057 -0.4973
 4742TIP3    H214233   0.910   0.112   0.808  0.2271 -0.5564  0.8177
 4743TIP3   OH214234   1.368   5.057   2.036  0.6381 -0.2593 -1.0283
 4743TIP3    H114235   1.455   5.019   2.031  0.8753  0.2309 -0.7455
 4743TIP3    H214236   1.339   5.038   2.126  0.6354 -0.0467 -0.9823
 4744TIP3   OH214237   4.094   3.581   1.340 -0.2852  0.3837 -0.2511
 4744TIP3    H114238   4.115   3.514   1.275 -1.3526 -0.5212  0.3092
 4744TIP3    H214239   4.052   3.651   1.290  0.3721  0.4198 -0.7667
 4745TIP3   OH214240   4.652   3.682   2.199  0.2886  0.2353 -0.5514
 4745TIP3    H114241   4.707   3.759   2.215 -1.4636  1.7096 -1.3379
 4745TIP3    H214242   4.596   3.677   2.277  1.0701 -0.8925 -0.0360
 4746TIP3   OH214243   5.514   4.798   2.161  0.1585 -0.0524 -0.2319
 4746TIP3    H114244   5.521   4.736   2.233  1.1555 -0.1493 -0.3911
 4746TIP3    H214245   5.420   4.812   2.150 -0.0079  0.1360  1.2249
 4747TIP3   OH214246   5.405   5.358   4.749  0.4448  0.0464  0.2335
 4747TIP3    H114247   5.473   5.333   4.686 -0.7188 -1.9236 -0.3401
 4747TIP3    H214248   5.377   5.445   4.720  2.0126  0.4892 -0.0877
 4748TIP3   OH214249   2.008   3.678   3.100 -0.5198  0.0633 -0.4341
 4748TIP3    H114250   1.990   3.765   3.136  0.1722  0.0098  0.0816
 4748TIP3    H214251   1.975   3.680   3.011 -3.3942 -0.1658  0.5157
 4749TIP3   OH214252   5.201   1.050   4.796  0.1542  0.1493  0.5938
 4749TIP3    H114253   5.168   1.121   4.741 -0.0291  0.3522  0.9567
 4749TIP3    H214254   5.139   0.978   4.783  0.1210  0.1921  0.5195
 4750TIP3   OH214255   5.924   5.250   3.105  0.2959  0.5524  0.0775
 4750TIP3    H114256   6.016   5.226   3.095 -0.1578 -1.7624  0.8781
 4750TIP3    H214257   5.880   5.212   3.028 -0.2022  0.3609  0.4503
 4751TIP3   OH214258   0.109   3.702   5.057  0.0282  0.0706  0.2077
 4751TIP3    H114259   0.109   3.743   4.971  0.3852 -0.7221 -0.1885
 4751TIP3    H214260   0.109   3.608   5.039 -2.3788 -0.1797  1.0703
 4752TIP3   OH214261   3.795   1.624   2.906  0.2795  0.3117  0.1646
 4752TIP3    H114262   3.700   1.612   2.911  0.1738  0.9990 -0.0560
 4752TIP3    H214263   3.816   1.610   2.814  0.1355  1.8317 -0.1239
 4753TIP3   OH214264   4.363   3.847   4.851 -0.2666  0.1850 -0.1441
 4753TIP3    H114265   4.297   3.796   4.899  0.0803  0.4957  0.6926
 4753TIP3    H214266   4.412   3.893   4.920  0.8569 -0.0772 -0.7389
 4754TIP3   OH214267   3.570   5.532   5.025 -0.5337  0.0316  0.0846
 4754TIP3    H114268   3.611   5.568   5.104  3.7459 -0.2944 -1.7059
 4754TIP3    H214269   3.567   5.438   5.040  1.9199 -0.2340 -0.6443
 4755TIP3   OH214270   3.682   0.612   1.756  0.3040 -0.0226 -0.4130
 4755TIP3    H114271   3.734   0.535   1.733  1.1101 -0.1939  1.6993
 4755TIP3    H214272   3.702   0.627   1.849  1.5749  3.7820 -1.1157
 4756TIP3   OH214273   1.191   2.351   4.663 -0.8697  0.1037 -0.2437
 4756TIP3    H114274   1.166   2.440   4.688 -1.3738  0.0197 -0.4341
 4756TIP3    H214275   1.260   2.327   4.725  1.0395  1.5245 -1.6929
 4757TIP3   OH214276   0.509   1.779   2.266 -0.0689 -0.0280  0.0764
 4757TIP3    H114277   0.460   1.861   2.279  1.6806  1.3834 -1.7337
 4757TIP3    H214278   0.520   1.771   2.171  1.1995 -1.5221  0.2979
 4758TIP3   OH214279   0.699   1.976   4.381  0.6005  0.4659 -0.2520
 4758TIP3    H114280   0.758   1.901   4.381  0.4712  0.3149 -2.2820
 4758TIP3    H214281   0.756   2.051   4.362  0.2220  0.3438 -2.0348
 4759TIP3   OH214282   5.316   0.193   1.449  0.3906  0.3665 -0.0539
 4759TIP3    H114283   5.292   0.116   1.398 -0.3127  0.5189  0.0407
 4759TIP3    H214284   5.270   0.183   1.532  0.4343  0.8019  0.0257
 4760TIP3   OH214285   6.083   0.223   0.372 -0.0686  0.6651 -0.2435
 4760TIP3    H114286   6.123   0.198   0.288 -1.4576  1.0625 -1.0684
 4760TIP3    H214287   6.127   0.169   0.437  0.0358 -0.7351 -1.4311
 4761TIP3   OH214288   2.341   3.736   1.885 -0.2700  0.8027 -0.1951
 4761TIP3    H114289   2.342   3.657   1.939  1.0948 -1.4337 -3.2121
 4761TIP3    H214290   2.423   3.781   1.907 -0.5064  0.8237  0.6993
 4762TIP3   OH214291   1.696   0.946   5.020 -0.0556  0.2197 -0.3342
 4762TIP3    H114292   1.725   0.859   4.993  0.6200  0.4830 -0.4740
 4762TIP3    H214293   1.751   0.968   5.095  0.5923  1.0029 -1.0172
 4763TIP3   OH214294   2.045   2.343   0.648  0.0148  0.4286  0.1034
 4763TIP3    H114295   2.130   2.320   0.686 -0.3571  0.2091  0.8303
 4763TIP3    H214296   2.066   2.397   0.572  0.7736  1.1801  0.8239
 4764TIP3   OH214297   0.255   4.158   3.081 -0.1149  0.0411  0.1365
 4764TIP3    H114298   0.273   4.095   3.151 -1.1090 -3.1608 -2.2289
 4764TIP3    H214299   0.163   4.145   3.060  0.1061  1.0050 -1.6221
 4765TIP3   OH214300   4.516   5.726   1.362 -0.2861 -0.4031 -0.1518
 4765TIP3    H114301   4.510   5.686   1.449 -0.6540  0.5032  0.2541
 4765TIP3    H214302   4.554   5.812   1.378 -0.1181 -0.3263 -0.9271
 4766TIP3   OH214303   3.371   2.771   0.078 -0.4037 -0.0249  0.0020
 4766TIP3    H114304   3.385   2.681   0.049  0.5719  0.2826 -0.5445
 4766TIP3    H214305   3.444   2.789   0.137 -0.6684  0.3579  0.2165
 4767TIP3   OH214306   1.955   4.653   3.389  0.3905  0.2346 -0.5863
 4767TIP3    H114307   1.910   4.677   3.308 -0.5220 -0.8654 -0.4397
 4767TIP3    H214308   2.019   4.588   3.362  0.7736  0.5927 -0.5537
 4768TIP3   OH214309   2.013   2.579   5.161 -0.2978  0.3093  0.4205
 4768TIP3    H114310   1.987   2.546   5.075  1.0574 -0.4268  0.2716
 4768TIP3    H214311   1.983   2.670   5.161 -1.9735 -0.1926 -0.0882
 4769TIP3   OH214312   2.229   2.541   4.190 -0.9750 -0.3016  0.2882
 4769TIP3    H114313   2.151   2.578   4.231 -0.1718  0.9757  0.7303
 4769TIP3    H214314   2.287   2.519   4.263 -0.7763 -0.9103 -0.0449
 4770TIP3   OH214315   6.154   3.386   1.676  0.7731 -0.1352  0.1716
 4770TIP3    H114316   6.119   3.298   1.660 -1.1829  0.4050  1.1434
 4770TIP3    H214317   6.136   3.402   1.768  3.3960  0.3637  0.6736
 4771TIP3   OH214318   4.140   0.849   0.022 -0.0553  0.8356  0.0672
 4771TIP3    H114319   4.164   0.915   0.087  1.6190  0.5306 -0.1953
 4771TIP3    H214320   4.220   0.799   0.007 -0.3786  0.8728 -2.2034
 4772TIP3   OH214321   0.400   2.622   1.386  0.7179  0.0261  0.1162
 4772TIP3    H114322   0.353   2.562   1.444  1.4772 -0.4447  0.2582
 4772TIP3    H214323   0.342   2.699   1.379 -0.1558 -0.6214  0.1139
 4773TIP3   OH214324   6.052   2.062   0.176  0.2616  0.0245 -0.6243
 4773TIP3    H114325   5.982   2.062   0.242  0.8508  1.6188  0.0606
 4773TIP3    H214326   6.009   2.031   0.096 -1.3443  1.2789 -0.3104
 4774TIP3   OH214327   4.504   1.301   4.181 -0.5005  0.0352  0.3234
 4774TIP3    H114328   4.493   1.343   4.266 -1.2273  0.8647 -0.1595
 4774TIP3    H214329   4.445   1.350   4.123 -1.5025 -1.7618 -0.2398
 4775TIP3   OH214330   2.292   5.347   4.107 -0.2647 -0.3859  0.1961
 4775TIP3    H114331   2.344   5.408   4.160  2.4309 -0.6427 -1.8923
 4775TIP3    H214332   2.257   5.284   4.170  1.0203  0.5069  1.9025
 4776TIP3   OH214333   1.149   5.965  -0.007 -0.5673  0.2116 -0.0265
 4776TIP3    H114334   1.237   5.948   0.029 -1.0165 -2.5647 -0.0664
 4776TIP3    H214335   1.092   5.903   0.038 -2.0669  0.1631 -1.8919
 4777TIP3   OH214336   5.397   2.861   2.607  0.2098  0.5281  0.1512
 4777TIP3    H114337   5.381   2.955   2.620  1.2441  1.2598 -2.9909
 4777TIP3    H214338   5.315   2.827   2.571 -0.3562  0.0315  1.8131
 4778TIP3   OH214339   1.550   3.301   3.978 -0.1493 -0.2564 -0.0240
 4778TIP3    H114340   1.534   3.392   3.951 -1.7911 -0.7368 -0.8491
 4778TIP3    H214341   1.578   3.257   3.898  2.0583 -0.2207  0.6714
 4779TIP3   OH214342   5.137   2.759   0.389  0.2902 -0.0960  0.0072
 4779TIP3    H114343   5.145   2.702   0.312  1.3464 -1.7057  1.2571
 4779TIP3    H214344   5.055   2.733   0.430  1.1366 -1.3259  0.9973
 4780TIP3   OH214345   0.813   1.757   3.900  0.4335 -0.4221  0.5643
 4780TIP3    H114346   0.884   1.717   3.949  1.1607 -0.2333 -0.3083
 4780TIP3    H214347   0.830   1.733   3.809  0.3024  0.9802  0.1440
 4781TIP3   OH214348   1.915   2.486   4.927  0.2637 -0.3536  0.2227
 4781TIP3    H114349   1.852   2.434   4.977  0.3514  0.3060  1.0447
 4781TIP3    H214350   1.865   2.521   4.853  0.3266 -1.9990 -0.6484
 4782TIP3   OH214351   2.536   3.275   1.405 -0.5421  0.0879  0.1958
 4782TIP3    H114352   2.594   3.212   1.447 -0.1033 -0.2345 -0.8444
 4782TIP3    H214353   2.448   3.241   1.420 -0.3755 -0.1634  0.6059
 4783TIP3   OH214354   0.304   0.897   4.991  0.3886  0.4365  0.1532
 4783TIP3    H114355   0.319   0.951   4.913 -0.0899  3.5062  2.0057
 4783TIP3    H214356   0.388   0.899   5.038 -0.1187  1.0924  1.0729
 4784TIP3   OH214357   5.779   1.914   5.029  0.6845  0.1430 -0.4663
 4784TIP3    H114358   5.728   1.861   4.967  0.0310  1.7041 -1.3121
 4784TIP3    H214359   5.731   1.996   5.036  1.7411  0.6967  0.7145
 4785TIP3   OH214360   1.787   0.442   5.081 -0.6899  0.5818  0.5216
 4785TIP3    H114361   1.856   0.481   5.027 -1.8489  0.4659 -1.1336
 4785TIP3    H214362   1.814   0.460   5.171  1.3933  0.6711 -0.0676
 4786TIP3   OH214363   1.364   5.947   0.990  0.0854  0.0452  0.1011
 4786TIP3    H114364   1.413   5.902   0.921 -2.8719 -0.1672 -2.0632
 4786TIP3    H214365   1.381   6.040   0.974  0.8679 -0.0703  0.2584
 4787TIP3   OH214366   2.580   1.327   4.972  0.2032  0.3145 -0.0723
 4787TIP3    H114367   2.593   1.302   5.064  0.3661 -0.2326 -0.2410
 4787TIP3    H214368   2.636   1.403   4.959  0.4668  0.1637  0.1817
 4788TIP3   OH214369   5.722   1.465   3.883  0.3045 -0.0902 -0.2618
 4788TIP3    H114370   5.703   1.476   3.976 -2.5582 -3.8638 -0.1831
 4788TIP3    H214371   5.775   1.385   3.878 -0.3431 -0.4717 -1.8802
 4789TIP3   OH214372   3.348   2.494   0.036  0.4070  0.4750 -0.0497
 4789TIP3    H114373   3.314   2.456  -0.045 -0.3555  0.5518  0.2257
 4789TIP3    H214374   3.342   2.423   0.100 -2.1372  1.3167  0.7727
 4790TIP3   OH214375   6.019   0.948   3.268  0.3885  0.5387  0.6273
 4790TIP3    H114376   6.100   0.897   3.262 -0.2375 -0.6377  1.7360
 4790TIP3    H214377   5.975   0.932   3.184  0.4736 -0.2806  0.7325
 4791TIP3   OH214378   0.408   0.166   3.882 -0.5743  0.1338 -0.0760
 4791TIP3    H114379   0.370   0.087   3.921  0.3827  0.3986  1.5142
 4791TIP3    H214380   0.392   0.234   3.947 -0.3245  0.9770 -0.8871
 4792TIP3   OH214381   2.598   2.861   2.730  0.0201  0.2085  0.0851
 4792TIP3    H114382   2.641   2.800   2.671 -0.4934 -0.6624  0.5898
 4792TIP3    H214383   2.510   2.824   2.744 -1.0103  2.0405 -1.0928
 4793TIP3   OH214384   3.999   1.038   1.418 -0.4218 -0.3341  0.0330
 4793TIP3    H114385   3.906   1.019   1.434 -0.7037  0.5688 -0.4417
 4793TIP3    H214386   4.016   1.002   1.331 -0.7331  0.7774 -0.5078
 4794TIP3   OH214387   4.414   2.593   3.544  0.3824 -0.0033 -0.5488
 4794TIP3    H114388   4.429   2.668   3.602 -0.0600 -0.1881 -0.1952
 4794TIP3    H214389   4.490   2.593   3.485 -0.1173  1.3350 -1.2321
 4795TIP3   OH214390   4.231   2.338   4.969 -0.3920 -0.1359  0.0704
 4795TIP3    H114391   4.283   2.417   4.957 -0.4321 -0.1018  0.1194
 4795TIP3    H214392   4.179   2.331   4.889 -0.0285 -0.3833 -0.1443
 4796TIP3   OH214393   4.778   0.987   5.190  0.1790 -0.1333 -0.4814
 4796TIP3    H114394   4.847   1.026   5.136  0.5775  0.9816  0.7750
 4796TIP3    H214395   4.814   0.905   5.221  0.5710 -0.0004 -0.5869
 4797TIP3   OH214396   4.337   0.000   0.785 -0.1668 -0.3396 -0.3651
 4797TIP3    H114397   4.424  -0.032   0.810  0.6278  0.7745 -1.6040
 4797TIP3    H214398   4.317   0.067   0.851  0.3270  0.0406 -0.5919
 4798TIP3   OH214399   5.765   2.492   4.305 -0.6292  0.1808  0.4198
 4798TIP3    H114400   5.684   2.468   4.260 -0.8499 -0.2535  1.0272
 4798TIP3    H214401   5.827   2.423   4.281 -1.0939 -0.7339  1.7006
 4799TIP3   OH214402   1.955   4.601   2.180 -0.3109  0.3659  0.5422
 4799TIP3    H114403   1.951   4.506   2.192 -1.5274  0.3759  0.3300
 4799TIP3    H214404   2.047   4.622   2.191 -0.2257 -0.6455  2.0115
 4800TIP3   OH214405   5.745   2.298   1.967  0.2241 -0.3126  0.9426
 4800TIP3    H114406   5.826   2.264   2.005  0.5299 -3.3652 -1.8967
 4800TIP3    H214407   5.767   2.386   1.936  3.1380 -1.6200 -1.1818
 4801TIP3   OH214408   1.637   5.419   2.564 -0.2475 -0.3077 -0.4365
 4801TIP3    H114409   1.568   5.455   2.618  0.4566  0.1929  0.1479
 4801TIP3    H214410   1.709   5.400   2.625 -0.5802 -2.7573 -0.6973
 4802TIP3   OH214411   3.195   3.738   0.760 -0.6326  0.5028 -0.3852
 4802TIP3    H114412   3.182   3.828   0.790 -1.9735  0.3004 -0.3057
 4802TIP3    H214413   3.257   3.746   0.688 -1.2379  1.5790 -0.8130
 4803TIP3   OH214414   2.099   4.183   1.314  0.0752 -0.5697  0.2843
 4803TIP3    H114415   2.012   4.203   1.280  0.1003 -1.1600 -0.1499
 4803TIP3    H214416   2.159   4.227   1.254  0.0684  0.2035  0.8392
 4804TIP3   OH214417   3.459   4.037   0.582  0.0227 -0.4785  0.0401
 4804TIP3    H114418   3.507   3.982   0.520 -2.1426 -0.4968 -1.7414
 4804TIP3    H214419   3.517   4.044   0.657  2.4024 -1.1921 -1.6135
 4805TIP3   OH214420   1.439   2.065   0.025 -0.6277  0.7463  0.6908
 4805TIP3    H114421   1.374   1.998   0.003 -1.5090  1.3189  1.5045
 4805TIP3    H214422   1.517   2.015   0.048 -1.2433 -0.0048  1.1906
 4806TIP3   OH214423   1.866   3.806   2.581 -1.0833  0.0463  0.0524
 4806TIP3    H114424   1.781   3.811   2.538 -0.7611  0.3864 -0.5676
 4806TIP3    H214425   1.916   3.744   2.527 -0.0671  1.8352 -1.2001
 4807TIP3   OH214426   3.127   5.405   0.602 -0.6012 -0.3019 -0.6886
 4807TIP3    H114427   3.062   5.346   0.641  0.2849  0.5181  2.3290
 4807TIP3    H214428   3.075   5.476   0.565 -1.5218 -0.5464  0.0817
 4808TIP3   OH214429   2.653   2.356   1.822  0.4265  0.3526  0.0290
 4808TIP3    H114430   2.723   2.345   1.886 -1.1006 -1.7098  1.4818
 4808TIP3    H214431   2.608   2.437   1.849  1.3484  0.9024 -0.0466
 4809TIP3   OH214432   5.789   1.988   3.301 -0.1006 -0.0615 -0.1021
 4809TIP3    H114433   5.710   1.950   3.339 -0.1387  0.3791  0.2566
 4809TIP3    H214434   5.778   2.082   3.310 -0.6151  0.1219 -2.2258
 4810TIP3   OH214435   4.320   5.823   4.501  0.2340 -0.1157 -0.3040
 4810TIP3    H114436   4.368   5.769   4.564  1.6545  0.2393 -1.0345
 4810TIP3    H214437   4.228   5.815   4.527  0.2240 -3.6853 -0.9584
 4811TIP3   OH214438   4.819   3.393   3.652  0.3767 -0.8144  0.7376
 4811TIP3    H114439   4.724   3.394   3.638  0.2823  1.4669  1.0573
 4811TIP3    H214440   4.856   3.372   3.566 -0.4223 -0.7131  0.3587
 4812TIP3   OH214441   3.316   1.842   1.527 -0.0098  0.5879  0.3986
 4812TIP3    H114442   3.377   1.892   1.581 -0.0645 -0.1703  1.1953
 4812TIP3    H214443   3.241   1.901   1.515 -0.0539  0.7348  1.2780
 4813TIP3   OH214444   1.513   4.676   2.982 -0.0396 -0.0655  0.4130
 4813TIP3    H114445   1.471   4.721   3.056 -0.7729  1.0208 -0.6341
 4813TIP3    H214446   1.479   4.720   2.904  1.7926 -0.2492 -0.5478
 4814TIP3   OH214447   5.217   5.157   5.146 -0.3521 -0.0354  0.5788
 4814TIP3    H114448   5.284   5.211   5.105 -0.0182  0.5943  1.8888
 4814TIP3    H214449   5.142   5.216   5.158 -1.1442 -0.7171 -0.8215
 4815TIP3   OH214450   6.205   2.494   3.909  0.1930 -0.0293 -0.5814
 4815TIP3    H114451   6.201   2.473   3.815  0.7444 -0.2970 -0.5467
 4815TIP3    H214452   6.142   2.566   3.920 -1.0087 -1.0094 -0.8764
 4816TIP3   OH214453   0.830   4.448   0.920  0.1156 -0.3030 -0.5769
 4816TIP3    H114454   0.793   4.481   0.838  1.4127 -0.7285 -1.3601
 4816TIP3    H214455   0.910   4.403   0.894  0.7267 -0.1778  0.9618
 4817TIP3   OH214456   4.296   0.678   1.964 -0.2672  0.4492 -0.0034
 4817TIP3    H114457   4.290   0.770   1.990  3.0264 -0.1739  3.8222
 4817TIP3    H214458   4.335   0.680   1.877  1.8746  2.7333  0.8970
 4818TIP3   OH214459   5.811   0.512   4.825 -0.4926 -0.5741  0.1552
 4818TIP3    H114460   5.889   0.470   4.788 -1.4116 -1.5248 -0.7998
 4818TIP3    H214461   5.776   0.447   4.885 -0.0554  0.2256  1.2993
 4819TIP3   OH214462   0.779   5.589   3.566 -0.4165 -0.1912  0.2477
 4819TIP3    H114463   0.706   5.584   3.627 -1.8237  1.2049 -1.1974
 4819TIP3    H214464   0.822   5.672   3.587 -0.7130  0.1376 -0.3767
 4820TIP3   OH214465   5.433   1.261   3.772 -0.1593  0.0027  0.1300
 4820TIP3    H114466   5.437   1.261   3.677  1.3025  0.4509  0.1621
 4820TIP3    H214467   5.492   1.332   3.798 -1.5873  0.8126  1.3472
 4821TIP3   OH214468   0.165   1.026   1.531 -0.4924  0.1152  0.0996
 4821TIP3    H114469   0.192   1.001   1.619  0.0558  1.2853  0.2781
 4821TIP3    H214470   0.092   0.968   1.511 -1.7525  0.9413  2.0139
 4822TIP3   OH214471   4.995   0.127   3.088 -0.3213 -0.1060 -0.2664
 4822TIP3    H114472   4.913   0.177   3.085 -0.3161 -0.1672 -1.8994
 4822TIP3    H214473   4.968   0.036   3.100 -0.5862 -0.2776 -1.9372
 4823TIP3   OH214474   5.490   4.787   0.570 -0.2010  0.0004 -0.5454
 4823TIP3    H114475   5.484   4.790   0.665  0.9513  1.0116 -0.4710
 4823TIP3    H214476   5.555   4.854   0.548 -0.1512 -0.4816 -2.0144
 4824TIP3   OH214477   2.974   3.108   2.541  0.0577  0.0500  0.0277
 4824TIP3    H114478   2.993   3.199   2.567 -0.7249  0.1602  0.2520
 4824TIP3    H214479   2.897   3.085   2.594  0.5193 -0.8969  0.2995
 4825TIP3   OH214480   2.794   1.966   1.287 -0.2102  0.2665  0.2538
 4825TIP3    H114481   2.710   1.953   1.243  0.0137 -0.5251  0.0339
 4825TIP3    H214482   2.791   2.056   1.319 -1.5141 -0.0313  1.0532
 4826TIP3   OH214483   2.467   2.544   0.798  0.4904  0.1246 -0.0166
 4826TIP3    H114484   2.419   2.558   0.717  1.3447  1.2770 -0.3520
 4826TIP3    H214485   2.545   2.495   0.772  0.3674 -0.2175  0.2457
 4827TIP3   OH214486   4.786   2.295   0.740  0.2533  0.0930  0.1219
 4827TIP3    H114487   4.713   2.343   0.778 -0.3760 -0.4588 -0.3702
 4827TIP3    H214488   4.802   2.338   0.656  0.0848 -0.1652 -0.0457
 4828TIP3   OH214489   5.777   4.344   3.598 -0.4481 -0.1730 -0.3067
 4828TIP3    H114490   5.840   4.283   3.561 -0.0824  0.9206 -1.5706
 4828TIP3    H214491   5.817   4.373   3.680 -0.0710 -0.6886 -0.3028
 4829TIP3   OH214492   5.941   0.731   0.909  0.1881  0.2228 -0.1656
 4829TIP3    H114493   5.849   0.709   0.925  0.3129 -1.7573 -1.7592
 4829TIP3    H214494   5.946   0.745   0.815  1.6813 -0.6449 -0.2457
 4830TIP3   OH214495   4.635   2.172   2.247  0.3646  0.0700  0.0367
 4830TIP3    H114496   4.570   2.227   2.291  1.2712  0.2643  1.1652
 4830TIP3    H214497   4.679   2.232   2.187  0.0526  0.1253 -0.1399
 4831TIP3   OH214498   3.577   2.340   0.974 -0.2329  0.0695  0.2976
 4831TIP3    H114499   3.531   2.371   0.896  0.7995 -0.4226 -0.5402
 4831TIP3    H214500   3.620   2.259   0.946  1.2498  0.5711  0.9792
 4832TIP3   OH214501   3.830   1.354   3.646 -0.2877  0.5288 -0.2112
 4832TIP3    H114502   3.738   1.348   3.619 -0.5993  2.9628  0.0666
 4832TIP3    H214503   3.842   1.281   3.707 -2.1564  0.3868  0.0510
 4833TIP3   OH214504   6.269   2.196   0.016  0.6512  0.0555 -0.6960
 4833TIP3    H114505   6.329   2.266   0.039  1.3727 -0.9251  0.5377
 4833TIP3    H214506   6.218   2.180   0.095 -0.5267  0.1446 -1.4001
 4834TIP3   OH214507   5.625   2.867   0.486  0.4574 -0.2888  0.3615
 4834TIP3    H114508   5.561   2.796   0.481  0.9834 -0.6790 -1.6997
 4834TIP3    H214509   5.625   2.893   0.579 -1.4640 -1.3673  0.7112
 4835TIP3   OH214510   5.189   2.746   0.924  0.2935  0.0429 -0.3211
 4835TIP3    H114511   5.143   2.691   0.860 -2.1859 -0.6783  1.9115
 4835TIP3    H214512   5.186   2.696   1.005  0.6642  2.1717  1.0914
 4836TIP3   OH214513   5.335   1.773   2.673  0.1513 -0.0468 -0.2578
 4836TIP3    H114514   5.346   1.696   2.729  0.0107 -0.8249 -1.2786
 4836TIP3    H214515   5.266   1.750   2.612 -2.3474  2.1517  1.5151
 4837TIP3   OH214516   0.329   2.458   4.815 -0.0879  0.1601 -0.0281
 4837TIP3    H114517   0.279   2.378   4.795  0.4764 -0.3641  0.5974
 4837TIP3    H214518   0.291   2.490   4.896 -0.1319  0.3751 -0.1341
 4838TIP3   OH214519   4.243   4.228   0.887 -0.2051  0.0533  0.7213
 4838TIP3    H114520   4.296   4.308   0.880 -0.2784  0.0578  0.1198
 4838TIP3    H214521   4.154   4.257   0.865  0.2166 -0.6931 -2.3959
 4839TIP3   OH214522   2.423   0.925   1.503 -0.2117  0.2016 -0.0691
 4839TIP3    H114523   2.440   0.846   1.451  4.0281  0.3174  0.8220
 4839TIP3    H214524   2.497   0.930   1.563 -2.8329  2.2781  3.2921
 4840TIP3   OH214525   6.208   2.104   3.997 -0.1325  0.0556 -0.0863
 4840TIP3    H114526   6.298   2.095   3.966 -0.8116 -1.5510 -1.7826
 4840TIP3    H214527   6.158   2.043   3.944 -1.9873 -0.3210  1.9376
 4841TIP3   OH214528   1.561   0.237   4.105 -0.2528  0.1395 -0.0427
 4841TIP3    H114529   1.496   0.289   4.151 -1.0306 -0.7032 -0.1415
 4841TIP3    H214530   1.586   0.169   4.168 -0.8170 -0.6115 -0.6164
 4842TIP3   OH214531   4.029   5.570   3.658 -0.2772  0.1712 -0.5485
 4842TIP3    H114532   4.066   5.535   3.739 -2.9064 -1.5719 -0.0066
 4842TIP3    H214533   4.028   5.496   3.597 -2.0242  0.3750 -0.8058
 4843TIP3   OH214534   4.408   5.362   2.909 -0.3454 -0.6710 -0.2488
 4843TIP3    H114535   4.469   5.372   2.837  0.5982  2.1940  0.8128
 4843TIP3    H214536   4.325   5.339   2.867 -0.1051  1.9320 -2.4180
 4844TIP3   OH214537   2.131   1.130   4.003  0.0335  0.2680 -0.2100
 4844TIP3    H114538   2.093   1.189   3.937 -0.0179 -1.4001 -1.7430
 4844TIP3    H214539   2.074   1.053   4.001 -0.0187  0.1930  1.8949
 4845TIP3   OH214540   0.402   5.403   0.626 -0.0808  0.6277  0.2158
 4845TIP3    H114541   0.433   5.446   0.547  0.7860  0.2495  0.3414
 4845TIP3    H214542   0.324   5.354   0.597  1.0563 -0.6840 -0.7488
 4846TIP3   OH214543   4.822   4.409   4.855 -0.3474  0.3367 -0.3900
 4846TIP3    H114544   4.765   4.337   4.828 -1.1467  0.5261  0.7045
 4846TIP3    H214545   4.775   4.488   4.826  0.3030  0.4494 -1.1795
 4847TIP3   OH214546   6.156   1.758   3.596  0.8308 -0.3998 -0.4894
 4847TIP3    H114547   6.236   1.774   3.547  0.8922 -0.8931 -0.5546
 4847TIP3    H214548   6.088   1.749   3.529  0.5287  1.0224 -0.4002
 4848TIP3   OH214549   4.247   5.712   1.239 -0.0037  0.0737  0.6183
 4848TIP3    H114550   4.341   5.713   1.254  0.0876  1.8280  0.1460
 4848TIP3    H214551   4.235   5.651   1.166  1.0144  1.2433 -0.5875
 4849TIP3   OH214552   2.259   0.202   0.719  0.7836  0.4354  0.6514
 4849TIP3    H114553   2.311   0.256   0.660  0.4137  0.4482  0.3348
 4849TIP3    H214554   2.271   0.113   0.687  0.0548  0.5086  0.1388
 4850TIP3   OH214555   0.868   5.402   0.649  0.4654  0.3990  0.0592
 4850TIP3    H114556   0.936   5.366   0.707 -1.1597 -0.3394  1.6465
 4850TIP3    H214557   0.844   5.485   0.690  0.5996  0.7800 -0.6376
 4851TIP3   OH214558   0.507   5.778   3.833  0.5606 -0.5534  0.3857
 4851TIP3    H114559   0.474   5.786   3.922 -1.2887  1.5846 -0.3916
 4851TIP3    H214560   0.574   5.846   3.826 -0.9879  0.9670 -0.4704
 4852TIP3   OH214561   5.958   1.035   0.140  0.0992 -0.2136  0.1525
 4852TIP3    H114562   6.024   0.985   0.091 -0.9938 -1.2372 -0.3213
 4852TIP3    H214563   5.916   0.970   0.196 -0.7495  0.3560  0.1930
 4853TIP3   OH214564   3.354   3.155   1.548  0.1973  0.3029 -0.4080
 4853TIP3    H114565   3.281   3.203   1.508 -1.7957 -1.5259  0.8243
 4853TIP3    H214566   3.364   3.194   1.635  1.0881  0.8772 -0.7465
 4854TIP3   OH214567   1.673   1.099   1.796 -0.5109  0.1470 -0.0465
 4854TIP3    H114568   1.706   1.092   1.886 -0.7381  1.5094  0.1573
 4854TIP3    H214569   1.595   1.154   1.803 -0.6583  0.0880 -1.0598
 4855TIP3   OH214570   3.722   0.475   3.554  0.2443  0.1753  0.1236
 4855TIP3    H114571   3.657   0.461   3.485  1.1901  1.8591 -1.1873
 4855TIP3    H214572   3.804   0.445   3.517  0.7951  1.2600  0.4086
 4856TIP3   OH214573   0.907   3.962   2.361  0.9030 -0.3330 -0.2609
 4856TIP3    H114574   0.881   4.052   2.345 -0.8872 -0.7878 -0.1502
 4856TIP3    H214575   0.923   3.958   2.455  1.5521 -0.0006 -0.3566
 4857TIP3   OH214576   3.981   1.435   4.768 -0.2875  0.3175  0.7331
 4857TIP3    H114577   4.041   1.411   4.697 -0.9211 -1.9523  0.8844
 4857TIP3    H214578   3.898   1.452   4.725  0.0037  1.7462  0.6934
 4858TIP3   OH214579   1.000   4.846   1.312 -0.4209  0.7490  0.4441
 4858TIP3    H114580   1.078   4.891   1.346  0.7952 -0.5453 -0.4952
 4858TIP3    H214581   1.035   4.783   1.249 -2.0542 -1.4207  1.5908
 4859TIP3   OH214582   1.776   1.618   2.033 -0.2450 -0.1317  0.2150
 4859TIP3    H114583   1.694   1.571   2.019 -1.5367  2.0941 -0.1177
 4859TIP3    H214584   1.801   1.650   1.946  0.7552 -0.3966  0.3894
 4860TIP3   OH214585   1.749   4.281   4.723 -0.5941 -0.1471  0.4507
 4860TIP3    H114586   1.751   4.368   4.763 -0.6668  0.1748 -0.2327
 4860TIP3    H214587   1.811   4.287   4.650 -2.4146  0.1060 -1.1501
 4861TIP3   OH214588   3.762   4.436   1.947  0.2107 -0.0874 -0.0717
 4861TIP3    H114589   3.732   4.350   1.918 -0.7387 -0.1630  1.0806
 4861TIP3    H214590   3.681   4.483   1.970  0.6969  1.1816 -0.8294
 4862TIP3   OH214591   4.877   0.959   3.004  0.0925 -0.6982 -0.4623
 4862TIP3    H114592   4.806   0.899   2.981  0.2179 -0.7973 -0.5917
 4862TIP3    H214593   4.937   0.955   2.929  2.7193 -4.2281  1.4970
 4863TIP3   OH214594   5.799   3.359   2.955  0.0625  0.1021  0.6145
 4863TIP3    H114595   5.776   3.344   2.863 -0.0724  0.3071  0.6135
 4863TIP3    H214596   5.724   3.407   2.991  1.3158  2.5587  0.1168
 4864TIP3   OH214597   0.922   5.474   1.629  0.3032  0.5817 -0.2398
 4864TIP3    H114598   0.972   5.480   1.710  0.5480  1.9056 -0.4649
 4864TIP3    H214599   0.897   5.565   1.609  0.0271  0.2516 -1.4996
 4865TIP3   OH214600   1.234   3.508   1.212  0.2053 -1.0095 -0.3905
 4865TIP3    H114601   1.314   3.498   1.263 -1.2156 -0.7379  2.0442
 4865TIP3    H214602   1.212   3.419   1.184  0.1773 -1.4050  0.8548
 4866TIP3   OH214603   2.064   5.768   0.827  0.6215 -0.1975  0.1696
 4866TIP3    H114604   1.995   5.826   0.859 -1.5240 -1.8062 -1.2258
 4866TIP3    H214605   2.127   5.826   0.784 -1.2788  1.1807 -0.9239
 4867TIP3   OH214606   4.115   2.674   4.723  0.4549 -0.1394  0.5234
 4867TIP3    H114607   4.132   2.757   4.767  0.5897 -0.4457  1.0628
 4867TIP3    H214608   4.194   2.657   4.673  0.5315 -0.0669  0.6189
 4868TIP3   OH214609   4.758   1.034   1.779 -0.2491  0.0029  0.5166
 4868TIP3    H114610   4.816   1.007   1.851 -1.3343 -0.0179  1.4001
 4868TIP3    H214611   4.715   1.113   1.812 -2.5192 -1.3081  0.8649
 4869TIP3   OH214612   2.589   3.929   1.017  0.9613  0.0825 -0.1714
 4869TIP3    H114613   2.603   3.850   1.070  0.3713  0.1722  0.1288
 4869TIP3    H214614   2.497   3.953   1.034  1.9727  2.7599  2.4284
 4870TIP3   OH214615   5.640   2.621   1.673 -0.0957 -0.0582  0.3239
 4870TIP3    H114616   5.734   2.621   1.692  0.1042 -1.0342 -0.5809
 4870TIP3    H214617   5.630   2.557   1.604 -1.4969 -0.2216  0.6585
 4871TIP3   OH214618   6.123   0.467   5.023 -0.2672 -0.5835 -0.1924
 4871TIP3    H114619   6.141   0.442   4.932 -1.2541 -2.5798  0.0959
 4871TIP3    H214620   6.028   0.459   5.032 -0.6012  2.5971  0.2404
 4872TIP3   OH214621   5.033   3.903   2.001  0.0294 -0.2150 -0.0712
 4872TIP3    H114622   5.110   3.849   1.981 -2.1402 -3.5120 -0.3102
 4872TIP3    H214623   4.984   3.906   1.918 -0.6286  0.9171  0.3415
 4873TIP3   OH214624   0.229   4.601   3.388  0.8061  0.1634 -0.1260
 4873TIP3    H114625   0.153   4.647   3.425 -0.8675 -2.3604 -0.2198
 4873TIP3    H214626   0.239   4.640   3.301 -2.3482 -1.3789 -1.3409
 4874TIP3   OH214627   2.528   4.533   0.956 -0.3598  0.0092 -0.3996
 4874TIP3    H114628   2.537   4.545   1.050  0.6981  1.3585 -0.6502
 4874TIP3    H214629   2.606   4.482   0.931  0.7873  1.9362 -0.9062
 4875TIP3   OH214630   2.479   0.636   0.261  0.2350 -0.2306 -0.0377
 4875TIP3    H114631   2.558   0.669   0.218  0.5280  1.3003  1.5463
 4875TIP3    H214632   2.425   0.714   0.276 -0.2607 -0.8337  1.4902
 4876TIP3   OH214633   4.729   4.513   3.470 -0.6376  0.1386 -0.3101
 4876TIP3    H114634   4.736   4.478   3.381  1.1578  1.0341 -0.5727
 4876TIP3    H214635   4.787   4.458   3.522 -0.2916  0.7014 -0.0811
 4877TIP3   OH214636   0.670   3.712   1.377  0.1642 -0.2220  0.5837
 4877TIP3    H114637   0.629   3.731   1.293 -0.0955  1.4888  1.0708
 4877TIP3    H214638   0.764   3.723   1.361  0.0580  0.9472  0.7081
 4878TIP3   OH214639   1.609   2.391   2.359  0.2483  0.6286  0.5823
 4878TIP3    H114640   1.550   2.424   2.427 -0.4469  0.0536  0.2719
 4878TIP3    H214641   1.559   2.322   2.315  0.6527  1.0508 -0.5738
 4879TIP3   OH214642   1.136   4.051   4.122  0.1782  0.3452  0.0363
 4879TIP3    H114643   1.155   3.958   4.113 -0.4247  0.2430 -0.2360
 4879TIP3    H214644   1.117   4.063   4.215  1.8395  0.5129  0.3804
 4880TIP3   OH214645   1.197   5.913   2.170  0.1056 -0.3334 -0.8960
 4880TIP3    H114646   1.282   5.956   2.166 -0.2286  0.4905  0.3312
 4880TIP3    H214647   1.134   5.985   2.177 -0.7559 -0.9057 -2.3028
 4881TIP3   OH214648   0.674   2.709   4.981  0.2474 -0.1285 -0.2043
 4881TIP3    H114649   0.735   2.649   4.938  0.2927 -0.1101 -0.1654
 4881TIP3    H214650   0.633   2.655   5.049  0.4293 -0.0635 -0.0424
 4882TIP3   OH214651   1.260   2.046   2.187  0.2219  0.3648  0.4579
 4882TIP3    H114652   1.213   2.019   2.265 -0.6741  4.0074  1.3610
 4882TIP3    H214653   1.193   2.056   2.119  0.1779  1.9466  0.6889
 4883TIP3   OH214654   5.585   2.841   2.991 -0.2661 -0.1779  0.7400
 4883TIP3    H114655   5.571   2.933   2.969  0.3880 -0.1835  0.2910
 4883TIP3    H214656   5.674   2.838   3.027  0.1678 -0.8253 -0.3600
 4884TIP3   OH214657   4.903   5.320   3.054 -0.3282 -0.1397 -0.2168
 4884TIP3    H114658   4.827   5.293   3.002  0.5458 -1.0084 -1.0802
 4884TIP3    H214659   4.932   5.402   3.014 -0.1266 -0.4020 -0.6101
 4885TIP3   OH214660   6.007   4.588   4.803 -0.2978  0.0583 -0.2968
 4885TIP3    H114661   6.097   4.621   4.804  0.2151 -0.9860  3.4090
 4885TIP3    H214662   5.962   4.644   4.739  2.2941  2.5237 -0.1925
 4886TIP3   OH214663   4.475   1.250   2.135  0.2052 -0.2289  0.6954
 4886TIP3    H114664   4.493   1.332   2.090  0.3326  0.1603  1.4445
 4886TIP3    H214665   4.452   1.189   2.065  0.7347  0.2715  0.0694
 4887TIP3   OH214666   1.706   0.465   2.395  0.4586 -0.1873 -0.1978
 4887TIP3    H114667   1.747   0.537   2.443  0.7466 -0.1822 -0.4453
 4887TIP3    H214668   1.694   0.396   2.461 -0.8414  0.4782  0.2941
 4888TIP3   OH214669   4.683   1.571   4.709 -0.1742  0.1161  0.4948
 4888TIP3    H114670   4.590   1.546   4.707  0.0951 -0.8976  0.0239
 4888TIP3    H214671   4.713   1.546   4.796 -0.5616  1.3311  0.9987
 4889TIP3   OH214672   5.079   4.585   3.226 -0.2995  0.2482  0.0868
 4889TIP3    H114673   5.151   4.533   3.261 -1.7236 -2.0255 -0.1537
 4889TIP3    H214674   5.096   4.591   3.132 -0.4712 -0.4031  0.0094
 4890TIP3   OH214675   1.101   5.662   0.895  0.8494 -0.0711  0.0067
 4890TIP3    H114676   1.040   5.728   0.927  1.1829 -0.3676  1.3304
 4890TIP3    H214677   1.169   5.713   0.850  0.7842  0.4384  0.4730
 4891TIP3   OH214678   1.417   4.224   5.067 -0.4908 -0.4450  0.2215
 4891TIP3    H114679   1.512   4.237   5.073 -0.5234 -0.0439 -0.1218
 4891TIP3    H214680   1.407   4.133   5.041 -0.1398  0.0434 -1.7821
 4892TIP3   OH214681   3.322   1.626   0.342 -0.4260  0.0908 -0.0715
 4892TIP3    H114682   3.343   1.533   0.350 -0.8058 -0.0047 -0.1490
 4892TIP3    H214683   3.404   1.672   0.363 -0.2653 -0.2570  0.0603
 4893TIP3   OH214684   4.500   0.927   4.357  0.1910 -0.5139  0.3028
 4893TIP3    H114685   4.579   0.882   4.325  0.3130  1.1844 -2.0583
 4893TIP3    H214686   4.531   0.980   4.430  1.0099 -0.6840  0.0971
 4894TIP3   OH214687   6.110   0.669   4.663 -0.8574 -0.3947  0.2376
 4894TIP3    H114688   6.121   0.652   4.756  1.3731  0.4439  0.2069
 4894TIP3    H214689   6.161   0.601   4.620 -0.1898  0.3879 -0.2523
 4895TIP3   OH214690   0.752   1.488   4.729 -0.3346 -0.7187 -0.3500
 4895TIP3    H114691   0.659   1.477   4.751 -1.2041 -0.6494 -3.5569
 4895TIP3    H214692   0.764   1.583   4.723  1.0994 -0.4016  3.8402
 4896TIP3   OH214693   3.968   4.521   1.449  0.2547 -0.5190  0.0401
 4896TIP3    H114694   4.059   4.507   1.477  0.1343 -2.7973 -0.5183
 4896TIP3    H214695   3.916   4.506   1.527  0.3230  0.5886  0.3125
 4897TIP3   OH214696   0.533   5.041   3.091  0.0469 -0.8923 -0.0228
 4897TIP3    H114697   0.513   5.022   2.999 -1.5526 -1.1082  0.3421
 4897TIP3    H214698   0.508   4.962   3.138 -1.2276 -0.0150  0.8336
 4898TIP3   OH214699   5.610   0.513   1.751  0.0160  0.5024 -0.2797
 4898TIP3    H114700   5.609   0.539   1.659  1.4609  1.9136  0.0541
 4898TIP3    H214701   5.659   0.583   1.795 -0.3701 -0.2986  1.5119
 4899TIP3   OH214702   0.877   2.562   1.815 -0.4841  0.8024  0.2099
 4899TIP3    H114703   0.828   2.592   1.891  0.2850  0.9470  0.6618
 4899TIP3    H214704   0.954   2.620   1.812  0.0591  0.0804 -0.0139
 4900TIP3   OH214705   2.128   5.483   4.414 -0.2419 -0.1960  0.0042
 4900TIP3    H114706   2.136   5.454   4.324 -0.4095  0.4540 -0.2249
 4900TIP3    H214707   2.218   5.485   4.447 -0.0273  1.0120 -0.6153
 4901TIP3   OH214708   2.973   0.497   4.979 -0.5223 -0.0367 -0.2019
 4901TIP3    H114709   3.010   0.580   5.012  0.8108 -0.0622 -1.5510
 4901TIP3    H214710   3.012   0.486   4.892  0.0813 -2.5639  0.3108
 4902TIP3   OH214711   2.121   2.301   4.822 -0.0290  0.1062 -0.3753
 4902TIP3    H114712   2.204   2.330   4.861 -0.7728  0.6229  0.9159
 4902TIP3    H214713   2.060   2.372   4.841 -1.1033 -0.8598 -0.0524
 4903TIP3   OH214714   5.369   2.605   1.553  0.5728  0.4032  0.3466
 4903TIP3    H114715   5.444   2.608   1.612  1.3620 -1.6205 -0.4478
 4903TIP3    H214716   5.293   2.603   1.611  1.2332  0.4644  1.2348
 4904TIP3   OH214717   2.394   2.318   4.626 -0.4798  0.1515 -0.1214
 4904TIP3    H114718   2.472   2.301   4.680 -1.1644  1.1628  1.2506
 4904TIP3    H214719   2.342   2.237   4.633 -0.8012  0.4486  1.2004
 4905TIP3   OH214720   1.893   3.502   4.472  0.1148  0.1016 -0.0654
 4905TIP3    H114721   1.928   3.510   4.383  0.9623  0.2109  0.2651
 4905TIP3    H214722   1.808   3.460   4.461 -0.2007  0.9377 -1.0110
 4906TIP3   OH214723   0.573   3.198   3.961 -0.2568 -0.6629 -0.3417
 4906TIP3    H114724   0.564   3.249   3.880 -0.4674 -1.1516 -0.6292
 4906TIP3    H214725   0.649   3.141   3.945 -0.3632 -0.8357 -0.2374
 4907TIP3   OH214726   5.291   2.582   1.945 -0.0156  0.0741 -0.7652
 4907TIP3    H114727   5.375   2.572   1.990  1.1214 -0.6571 -2.9073
 4907TIP3    H214728   5.227   2.586   2.016  1.9994  3.9304  1.1874
 4908TIP3   OH214729   5.981   1.538   0.167  0.1734  0.4828  0.2255
 4908TIP3    H114730   5.934   1.475   0.221 -0.2504  0.4195 -0.2101
 4908TIP3    H214731   5.988   1.616   0.221  1.3215 -0.1501  1.0463
 4909TIP3   OH214732   4.088   5.447   4.943  0.5171 -0.1230  0.4462
 4909TIP3    H114733   3.999   5.415   4.957  0.5757 -0.8421 -0.7759
 4909TIP3    H214734   4.077   5.541   4.927 -0.2229 -0.5112 -1.4940
 4910TIP3   OH214735   5.219   3.713   1.929  0.0217 -0.4406  0.0477
 4910TIP3    H114736   5.306   3.676   1.918 -0.4232 -1.3093 -0.7274
 4910TIP3    H214737   5.160   3.648   1.889 -1.1173 -0.5562  1.8248
 4911TIP3   OH214738   4.086   3.402   3.888  1.1972  0.0634 -0.0286
 4911TIP3    H114739   4.024   3.350   3.939  0.9057 -0.7084 -1.1046
 4911TIP3    H214740   4.154   3.339   3.862  1.7439  0.6073  0.0489
 4912TIP3   OH214741   2.137   1.258   1.228  0.0575 -0.8224 -0.5358
 4912TIP3    H114742   2.051   1.299   1.231 -0.3625 -1.6193 -1.4742
 4912TIP3    H214743   2.175   1.288   1.145  0.7073 -0.4583 -0.1210
 4913TIP3   OH214744   3.662   0.227   4.168  0.3729 -0.5696  0.0883
 4913TIP3    H114745   3.692   0.166   4.101 -0.7548 -0.2312 -0.7649
 4913TIP3    H214746   3.598   0.178   4.219  0.3844 -0.4777  0.1916
 4914TIP3   OH214747   3.186   1.440   1.183  0.0066  0.5725 -0.0699
 4914TIP3    H114748   3.155   1.463   1.270  0.5533  2.6752 -0.3603
 4914TIP3    H214749   3.232   1.357   1.194 -1.8047 -0.3379  1.1918
 4915TIP3   OH214750   3.721   0.239   3.110 -0.3832 -0.5305 -0.3036
 4915TIP3    H114751   3.808   0.280   3.114 -1.2134  1.2649  0.8997
 4915TIP3    H214752   3.710   0.215   3.018  1.6419 -1.4421 -0.3587
 4916TIP3   OH214753   0.457   4.843   3.242 -0.0083 -0.0494  0.1829
 4916TIP3    H114754   0.499   4.854   3.327 -1.3185 -1.5588  1.0739
 4916TIP3    H214755   0.366   4.868   3.257 -0.0374  0.6711 -1.0592
 4917TIP3   OH214756   2.483   5.944   0.846 -0.8197  0.1937  0.4026
 4917TIP3    H114757   2.528   5.868   0.883 -2.5014 -0.9437  0.2725
 4917TIP3    H214758   2.551   6.009   0.832  0.7708 -1.4733  0.0582
 4918TIP3   OH214759   3.985   2.516   0.745  0.8823  0.2035 -0.8079
 4918TIP3    H114760   3.936   2.533   0.826  2.0530 -2.4088  0.5966
 4918TIP3    H214761   4.045   2.590   0.737  1.8525 -0.2079  1.6863
 4919TIP3   OH214762   6.230   0.344   1.786 -0.4588  0.4677 -0.5993
 4919TIP3    H114763   6.304   0.337   1.724  0.1936  0.6288  0.1493
 4919TIP3    H214764   6.154   0.360   1.730  0.4560  2.9540 -1.2348
 4920TIP3   OH214765   5.246   5.619   5.140  0.5418 -0.1438 -0.2616
 4920TIP3    H114766   5.319   5.625   5.201 -0.6574  3.6319  1.0838
 4920TIP3    H214767   5.275   5.668   5.063  0.6956 -1.7665 -1.2807
 4921TIP3   OH214768   0.911   2.578   2.668  0.1998 -0.1803  0.0523
 4921TIP3    H114769   0.825   2.544   2.691 -0.3078 -0.1088 -1.6508
 4921TIP3    H214770   0.967   2.500   2.664  0.0026 -0.3322  0.2029
 4922TIP3   OH214771   2.417   1.696   1.228 -0.4647 -0.4855 -0.5339
 4922TIP3    H114772   2.424   1.624   1.291 -1.6178  0.8204  1.1644
 4922TIP3    H214773   2.347   1.669   1.169 -1.5991 -0.3844  0.7015
 4923TIP3   OH214774   5.679   5.933   4.152  0.1040 -0.1505  0.0132
 4923TIP3    H114775   5.661   5.986   4.230 -1.7862 -1.0690  0.2549
 4923TIP3    H214776   5.613   5.864   4.154  1.2656 -1.3678 -1.3572
 4924TIP3   OH214777   0.886   2.563   4.882  0.2399 -0.0038 -0.7165
 4924TIP3    H114778   0.931   2.552   4.798  2.2592 -0.8255  0.3943
 4924TIP3    H214779   0.922   2.493   4.937 -1.2355  0.3499  0.7686
 4925TIP3   OH214780   1.707   4.040   2.179  0.3210 -0.5865 -0.2494
 4925TIP3    H114781   1.656   3.974   2.132  0.1017 -0.8319  0.3233
 4925TIP3    H214782   1.712   4.115   2.119  1.8501 -1.6506 -1.5200
 4926TIP3   OH214783   4.104   2.808   0.518 -0.3438  0.9464 -0.2945
 4926TIP3    H114784   4.121   2.771   0.605 -1.2064 -0.2791 -0.6254
 4926TIP3    H214785   4.026   2.862   0.530 -0.0511  1.3353 -0.1549
 4927TIP3   OH214786   4.417   1.778   4.420  0.4487 -0.3199  0.0356
 4927TIP3    H114787   4.434   1.763   4.513  2.3225 -2.4089 -0.5629
 4927TIP3    H214788   4.397   1.692   4.385 -0.3598  0.4540 -1.5107
 4928TIP3   OH214789   0.336   1.645   2.409  0.0836 -0.3326 -0.0512
 4928TIP3    H114790   0.404   1.675   2.349 -0.5447 -0.6877 -0.9885
 4928TIP3    H214791   0.306   1.562   2.370 -0.1379 -0.7193  0.9251
 4929TIP3   OH214792   4.796   0.992   3.922 -0.1032 -0.2298 -0.2120
 4929TIP3    H114793   4.835   0.937   3.991  0.0435  1.6012  1.2366
 4929TIP3    H214794   4.703   0.994   3.944 -0.0138  0.5823  0.0998
 4930TIP3   OH214795   1.174   4.832   3.044 -0.8221 -0.3799  0.0695
 4930TIP3    H114796   1.251   4.807   3.095 -2.0718 -3.0838  0.8237
 4930TIP3    H214797   1.160   4.925   3.064  0.2646 -0.6943  2.6162
 4931TIP3   OH214798   4.884   0.481   5.114 -0.0486 -0.6473 -0.0707
 4931TIP3    H114799   4.948   0.526   5.058 -2.6332  2.3655 -0.8775
 4931TIP3    H214800   4.859   0.403   5.064  2.7856 -1.8780  0.2404
 4932TIP3   OH214801   2.421   0.353   2.956 -0.2581 -0.0996 -0.8411
 4932TIP3    H114802   2.412   0.298   2.878 -0.8397 -0.1283 -0.7588
 4932TIP3    H214803   2.490   0.310   3.008  0.0544 -0.1395 -1.2833
 4933TIP3   OH214804   0.136   3.651   4.155  0.2878  0.2806 -0.1454
 4933TIP3    H114805   0.079   3.593   4.105  0.8938 -1.0238  0.6222
 4933TIP3    H214806   0.077   3.712   4.199 -0.4206 -0.2388 -0.3611
 4934TIP3   OH214807   4.569   5.072   0.534  1.0332 -0.2700  0.0764
 4934TIP3    H114808   4.629   5.119   0.593  2.2580 -0.6971 -0.7968
 4934TIP3    H214809   4.522   5.141   0.488  2.2386  0.1231 -0.6084
 4935TIP3   OH214810   4.185   4.992   3.122  0.7031 -0.1290 -0.8418
 4935TIP3    H114811   4.264   5.045   3.127  0.1242  0.7101 -0.1772
 4935TIP3    H214812   4.178   4.966   3.030  0.3108  2.0787 -1.4978
 4936TIP3   OH214813   0.241   5.831   2.326 -0.5663 -0.2489 -0.3076
 4936TIP3    H114814   0.312   5.799   2.383 -0.8135 -1.3171 -0.5805
 4936TIP3    H214815   0.224   5.920   2.358  0.0870 -0.4044  0.5374
 4937TIP3   OH214816   2.780   1.087   1.440  0.3925 -0.3736  0.2430
 4937TIP3    H114817   2.723   1.025   1.485 -1.5170  0.6067 -0.7143
 4937TIP3    H214818   2.865   1.043   1.436 -0.6481 -2.5260  0.4146
 4938TIP3   OH214819   6.075   3.790   0.400  0.3913 -0.3462 -0.1964
 4938TIP3    H114820   6.151   3.768   0.453 -0.3169  2.2586  2.1008
 4938TIP3    H214821   6.108   3.853   0.336  0.4760 -0.5917 -0.4006
 4939TIP3   OH214822   0.890   2.154   4.306  0.4956  0.0206 -0.2254
 4939TIP3    H114823   0.848   2.202   4.235 -0.3457  1.2059  1.0308
 4939TIP3    H214824   0.984   2.162   4.288  0.3495  1.7076 -0.3195
 4940TIP3   OH214825   2.280   5.494   3.858  0.1356 -0.2350  0.7513
 4940TIP3    H114826   2.206   5.442   3.828 -0.4626  0.5730  0.7867
 4940TIP3    H214827   2.290   5.471   3.950  1.2708 -1.8913  0.2648
 4941TIP3   OH214828   3.997   4.043   4.684  0.4776  0.2480 -0.6007
 4941TIP3    H114829   4.023   4.010   4.598 -0.2118 -1.0296 -0.3579
 4941TIP3    H214830   3.915   3.996   4.704  1.4695 -0.7566  1.4632
 4942TIP3   OH214831   5.683   1.337   5.001 -0.5027 -0.3489 -0.1882
 4942TIP3    H114832   5.633   1.344   5.083 -0.2041  0.4206 -0.0591
 4942TIP3    H214833   5.733   1.418   4.997  0.9434 -1.2060 -0.1828
 4943TIP3   OH214834   0.228   1.421   2.280 -0.3273  0.1696 -0.2724
 4943TIP3    H114835   0.144   1.420   2.326 -0.3934  0.6529 -0.3837
 4943TIP3    H214836   0.207   1.387   2.193 -0.0540 -1.5329  0.2894
 4944TIP3   OH214837   0.039   0.871   2.893  0.4725  0.0380 -0.4778
 4944TIP3    H114838   0.096   0.848   2.820  0.3175  1.1314 -0.9643
 4944TIP3    H214839   0.093   0.926   2.950  0.2790  0.0563 -0.3107
 4945TIP3   OH214840   4.285   1.647   4.173 -0.0171 -0.0441 -0.2914
 4945TIP3    H114841   4.373   1.681   4.186  0.5035 -0.7552 -1.7741
 4945TIP3    H214842   4.296   1.573   4.113 -1.7424  0.5389 -1.4059
 4946TIP3   OH214843   2.757   2.356   4.451 -0.0521  0.2670 -0.0038
 4946TIP3    H114844   2.705   2.300   4.393  0.3994 -1.7568  1.4381
 4946TIP3    H214845   2.838   2.308   4.464 -0.4426  0.2293  2.8703
 4947TIP3   OH214846   4.834   3.559   2.452 -0.3132 -0.5977 -0.5190
 4947TIP3    H114847   4.899   3.628   2.462 -1.0848 -0.0359  0.8879
 4947TIP3    H214848   4.755   3.594   2.493 -1.6197 -1.1441 -2.4344
 4948TIP3   OH214849   3.273   3.046   2.353  0.6500 -0.1758 -0.6602
 4948TIP3    H114850   3.291   2.983   2.284 -0.1071 -0.9016 -0.2118
 4948TIP3    H214851   3.184   3.077   2.334  0.1250 -0.9736  0.4326
 4949TIP3   OH214852   3.053   1.077   3.490  0.3558 -0.4379  0.4063
 4949TIP3    H114853   3.011   1.144   3.544 -1.2532 -1.3944  0.4194
 4949TIP3    H214854   3.119   1.124   3.439 -0.9616  1.2341  0.1609
 4950TIP3   OH214855   0.928   3.817   0.535  0.1438  0.1820 -0.0599
 4950TIP3    H114856   1.005   3.864   0.567  1.0497 -1.9230  1.1214
 4950TIP3    H214857   0.958   3.775   0.454  0.0875 -0.2065  0.1183
 4951TIP3   OH214858   2.698   0.027   0.980 -0.3831 -0.1366 -0.1947
 4951TIP3    H114859   2.696  -0.069   0.989  0.6509 -0.5410 -3.0064
 4951TIP3    H214860   2.607   0.051   0.964 -0.8405 -0.4446  1.7390
 4952TIP3   OH214861   1.360   0.202   2.958 -0.4783  0.2208  0.2695
 4952TIP3    H114862   1.266   0.211   2.943 -0.4866 -2.6464 -2.5555
 4952TIP3    H214863   1.393   0.291   2.958 -2.9064  1.2295 -1.1720
 4953TIP3   OH214864   4.945   1.289   2.801 -0.1572 -0.1711  0.2851
 4953TIP3    H114865   4.911   1.273   2.889 -0.4863  0.5810  0.3106
 4953TIP3    H214866   4.908   1.375   2.777 -2.3921 -1.5417 -1.6853
 4954TIP3   OH214867   2.479   3.701   4.120  0.0232 -0.3850 -0.3654
 4954TIP3    H114868   2.487   3.649   4.201 -0.3660  1.7318  1.1105
 4954TIP3    H214869   2.528   3.781   4.138 -0.8071  0.5073 -1.8979
 4955TIP3   OH214870   6.021   4.410   0.001  0.3597  0.3917 -0.5565
 4955TIP3    H114871   6.036   4.403   0.095 -1.0189  0.9642 -0.2721
 4955TIP3    H214872   6.060   4.494  -0.023 -2.5746  2.1174  0.2693
 4956TIP3   OH214873   5.667   5.224   1.024 -0.6186 -0.4165 -0.1336
 4956TIP3    H114874   5.754   5.263   1.035 -0.0234 -0.9869 -2.3693
 4956TIP3    H214875   5.658   5.212   0.930 -2.9648 -0.7960  0.0943
 4957TIP3   OH214876   6.264   5.412   5.165  0.5895 -0.6252  0.0167
 4957TIP3    H114877   6.237   5.354   5.236  2.1283 -1.7439 -0.2566
 4957TIP3    H214878   6.234   5.368   5.086  1.2316 -0.7634 -0.1592
 4958TIP3   OH214879   2.828   3.756   1.424  0.2677 -0.4517  0.0585
 4958TIP3    H114880   2.892   3.762   1.496 -0.6118  1.1525  0.7633
 4958TIP3    H214881   2.785   3.671   1.437  0.1659 -0.2153  1.4227
 4959TIP3   OH214882   3.993   3.908   0.046  0.2688  0.0153  0.0048
 4959TIP3    H114883   4.087   3.891   0.034  0.4478  0.7161  0.3979
 4959TIP3    H214884   3.984   3.929   0.139 -0.0766  1.2314 -0.2929
 4960TIP3   OH214885   2.071   1.646   3.209 -0.2908  0.2849  0.6310
 4960TIP3    H114886   2.104   1.714   3.268  0.6225  1.4445 -1.1488
 4960TIP3    H214887   2.090   1.679   3.121  0.3991 -2.4033 -0.2998
 4961TIP3   OH214888   4.624   4.052   1.332  0.0731 -0.4426  0.4754
 4961TIP3    H114889   4.593   3.962   1.343 -0.3271 -0.1240  2.2255
 4961TIP3    H214890   4.718   4.043   1.316  0.0005 -1.1801  0.3904
 4962TIP3   OH214891   0.275   1.379   1.274 -0.2574  0.4727 -0.0752
 4962TIP3    H114892   0.183   1.403   1.264  0.3019  1.8936 -2.5135
 4962TIP3    H214893   0.315   1.454   1.316 -0.5509 -1.1379  3.4072
 4963TIP3   OH214894   5.137   2.495   4.571  0.7699 -0.2568 -1.1231
 4963TIP3    H114895   5.108   2.414   4.529 -1.7925  1.1649 -2.2602
 4963TIP3    H214896   5.178   2.545   4.501  1.4234 -0.0917 -0.6431
 4964TIP3   OH214897   2.111   3.008   5.018  0.0761 -0.2073 -0.2810
 4964TIP3    H114898   2.106   3.037   4.928 -1.5210  2.2357  0.4990
 4964TIP3    H214899   2.147   3.083   5.066 -3.1972  0.3172  1.6815
 4965TIP3   OH214900   3.671   0.752   3.765  0.0240  0.1960 -0.1885
 4965TIP3    H114901   3.644   0.810   3.836 -1.0341  2.8459 -2.5400
 4965TIP3    H214902   3.590   0.708   3.738  0.4141 -0.7693  0.1473
 4966TIP3   OH214903   2.437   4.804   0.308  0.3732  0.2413 -0.5321
 4966TIP3    H114904   2.396   4.874   0.257  0.5651  1.2466  0.6675
 4966TIP3    H214905   2.363   4.762   0.353  0.4592  0.9818  0.3222
 4967TIP3   OH214906   0.660   3.853   1.916  0.1582  0.1614  0.1133
 4967TIP3    H114907   0.637   3.939   1.883 -1.9198 -0.7343 -0.9671
 4967TIP3    H214908   0.618   3.847   2.002  2.5739  1.1608  1.4533
 4968TIP3   OH214909   5.688   5.288   4.952 -0.6635  0.3582  0.2610
 4968TIP3    H114910   5.697   5.217   4.889 -0.8164 -0.6751  1.3804
 4968TIP3    H214911   5.775   5.326   4.958 -0.4742 -0.0294  0.0041
 4969TIP3   OH214912   2.184   4.162   0.477  0.2324  0.1398  0.1312
 4969TIP3    H114913   2.256   4.098   0.475  0.4929  0.4360 -0.2178
 4969TIP3    H214914   2.108   4.112   0.506  0.3204 -0.4457 -0.6120
 4970TIP3   OH214915   4.429   3.285   2.048 -0.1677  0.9013 -0.1152
 4970TIP3    H114916   4.419   3.200   2.090 -2.5374  0.7129 -0.9393
 4970TIP3    H214917   4.522   3.306   2.059 -0.0225 -0.6397  2.2222
 4971TIP3   OH214918   0.481   2.163   0.370  0.0913  0.4481 -0.5892
 4971TIP3    H114919   0.423   2.238   0.380 -1.4754 -0.7122 -0.5977
 4971TIP3    H214920   0.505   2.138   0.459  1.5554  1.6090 -0.6167
 4972TIP3   OH214921   5.277   0.133   0.676  0.2316 -0.1626 -0.4356
 4972TIP3    H114922   5.311   0.078   0.747 -0.7230  1.1299  1.1006
 4972TIP3    H214923   5.182   0.129   0.686  0.1030  0.5474 -1.2400
 4973TIP3   OH214924   0.595   3.009   1.596 -0.8644 -0.3225 -0.1451
 4973TIP3    H114925   0.594   2.915   1.610  0.0430 -0.5034 -1.1048
 4973TIP3    H214926   0.597   3.047   1.683  1.5923 -1.2708  0.2929
 4974TIP3   OH214927   4.233   1.790   0.297 -0.6978  0.2276 -0.1399
 4974TIP3    H114928   4.292   1.831   0.234 -2.4610  2.0788 -0.7110
 4974TIP3    H214929   4.167   1.857   0.315 -1.3675 -0.9496  2.1968
 4975TIP3   OH214930   1.576   2.424   4.557  0.4309  0.5052 -0.4406
 4975TIP3    H114931   1.568   2.516   4.533 -0.2048  0.4572 -0.4318
 4975TIP3    H214932   1.594   2.425   4.651  0.3546  0.6199 -0.4275
 4976TIP3   OH214933   3.590   0.869   1.675  0.2256  0.0797 -0.0654
 4976TIP3    H114934   3.632   0.784   1.680  1.2031  0.5484 -0.1574
 4976TIP3    H214935   3.526   0.869   1.746  0.0278 -0.8207 -0.2310
 4977TIP3   OH214936   0.476   0.240   0.178  0.2415 -0.1837  0.5128
 4977TIP3    H114937   0.470   0.192   0.096 -0.2505  1.5269 -0.5110
 4977TIP3    H214938   0.531   0.316   0.157 -0.5556  0.7030  1.5280
 4978TIP3   OH214939   2.544   5.794   4.926 -0.6503 -0.2133  0.1152
 4978TIP3    H114940   2.594   5.873   4.946 -1.5566  0.0282  1.6081
 4978TIP3    H214941   2.590   5.754   4.852  1.4178  0.2651  1.0602
 4979TIP3   OH214942   0.239   2.223   3.475  0.9455  0.0370  0.5722
 4979TIP3    H114943   0.247   2.128   3.477  0.5426 -0.0349 -0.5680
 4979TIP3    H214944   0.223   2.248   3.566  0.2332 -1.0650  0.7627
 4980TIP3   OH214945   4.428   4.213   1.423 -0.1752  0.6800 -0.2529
 4980TIP3    H114946   4.519   4.237   1.407 -0.5098  1.2028 -1.5483
 4980TIP3    H214947   4.413   4.137   1.367 -0.3989  0.2996  0.3239
 4981TIP3   OH214948   4.319   5.980   0.132  0.2553  0.1523  0.1998
 4981TIP3    H114949   4.323   5.886   0.111 -0.3858  0.3171 -0.7057
 4981TIP3    H214950   4.374   5.989   0.211  1.4067 -0.7695 -0.4574
 4982TIP3   OH214951   2.837   1.184   1.821 -0.2430 -0.2256 -0.4392
 4982TIP3    H114952   2.767   1.249   1.827 -0.2358 -0.2460 -0.0537
 4982TIP3    H214953   2.861   1.168   1.913  0.7541  0.3196 -0.5919
 4983TIP3   OH214954   1.383   3.283   4.415  0.2750 -0.2185  0.2048
 4983TIP3    H114955   1.325   3.233   4.472  0.5170  0.5919  1.1935
 4983TIP3    H214956   1.357   3.258   4.326 -0.0880 -1.5284  0.6580
 4984TIP3   OH214957   4.439   5.037   0.909  0.2564  0.2817  0.4901
 4984TIP3    H114958   4.434   5.081   0.824 -0.4896 -0.1019  0.3168
 4984TIP3    H214959   4.395   5.097   0.970 -0.2681  0.0364  0.3626
 4985TIP3   OH214960   4.201   5.488   0.326  0.3438  0.1968  0.5662
 4985TIP3    H114961   4.115   5.475   0.287  1.6149 -1.3704 -1.9543
 4985TIP3    H214962   4.205   5.582   0.344 -1.3155  0.5590 -0.6878
 4986TIP3   OH214963   4.283   1.169   1.398  0.3738 -0.1505 -0.2170
 4986TIP3    H114964   4.312   1.258   1.378 -1.8808  0.3944 -1.4229
 4986TIP3    H214965   4.314   1.116   1.325  1.3843 -0.3089  0.3097
 4987TIP3   OH214966   2.908   3.030   0.274  0.3866 -0.3064  0.1058
 4987TIP3    H114967   2.898   3.089   0.200 -0.0717  0.4256  0.7296
 4987TIP3    H214968   2.984   2.976   0.252  0.1608 -0.2088 -0.9525
 4988TIP3   OH214969   5.408   1.052   0.267 -0.2571  0.6001  0.1476
 4988TIP3    H114970   5.500   1.030   0.253 -0.7968 -0.5718 -1.9640
 4988TIP3    H214971   5.403   1.146   0.248 -0.0216  0.0439 -3.2588
 4989TIP3   OH214972   5.643   4.076   0.025 -0.1702 -0.1253  0.1952
 4989TIP3    H114973   5.667   4.009   0.090 -0.4680 -0.2077  0.2223
 4989TIP3    H214974   5.632   4.156   0.076 -3.5017 -0.8168  0.7791
 4990TIP3   OH214975   2.463   1.467   2.067  0.1002 -0.0703 -0.1720
 4990TIP3    H114976   2.555   1.448   2.051  0.4838  1.9595 -0.5580
 4990TIP3    H214977   2.461   1.559   2.091 -1.9151  0.1241 -0.9229
 4991TIP3   OH214978   4.007   4.891   1.875 -0.2981  0.3082  0.2980
 4991TIP3    H114979   4.092   4.884   1.918  0.0220 -0.1353 -0.3788
 4991TIP3    H214980   3.989   4.802   1.844 -1.7477  0.0518  1.7750
 4992TIP3   OH214981   0.185   3.019   0.057  0.2234  0.1506 -0.2289
 4992TIP3    H114982   0.143   3.105   0.052 -1.1835 -0.4661  0.5661
 4992TIP3    H214983   0.228   3.019   0.143  0.0693 -0.0127 -0.1531
 4993TIP3   OH214984   0.975   3.386   2.767  0.2120  0.1254 -0.2059
 4993TIP3    H114985   0.948   3.294   2.761 -2.0032  0.7301 -0.5165
 4993TIP3    H214986   1.047   3.394   2.705  0.7294 -1.4798  0.1376
 4994TIP3   OH214987   4.815   3.896   2.172 -0.2434 -0.6554 -0.0030
 4994TIP3    H114988   4.739   3.952   2.153  1.0608  1.8603  1.6594
 4994TIP3    H214989   4.873   3.907   2.097  0.1266  0.4928  0.4386
 4995TIP3   OH214990   4.913   4.401   3.640  0.0819  0.1039  0.0796
 4995TIP3    H114991   4.858   4.444   3.706  0.4200 -0.2367  0.6004
 4995TIP3    H214992   5.002   4.413   3.672  0.1181 -2.7363  1.4075
 4996TIP3   OH214993   1.309   2.016   4.946  0.0936 -0.1963  0.2302
 4996TIP3    H114994   1.376   1.977   5.002 -0.3903 -0.2215  0.8159
 4996TIP3    H214995   1.258   1.942   4.913 -0.2899 -0.1251  0.6429
 4997TIP3   OH214996   5.402   0.685   0.605 -0.3946 -0.1163 -0.7010
 4997TIP3    H114997   5.351   0.765   0.602 -1.8902 -0.8908  1.4380
 4997TIP3    H214998   5.406   0.655   0.514 -1.2064  1.5208 -1.3064
 4998TIP3   OH214999   1.712   0.918   4.001 -0.1539  0.1518  0.5815
 4998TIP3    H115000   1.722   0.948   3.911  0.8578 -2.1244 -0.1386
 4998TIP3    H215001   1.764   0.838   4.005  0.6160  0.6817  3.4714
 4999TIP3   OH215002   1.033   0.636   4.537  0.0836 -0.6055  0.3277
 4999TIP3    H115003   1.036   0.647   4.632 -3.5083 -1.3091  0.6676
 4999TIP3    H215004   0.956   0.580   4.522  2.2963 -3.1763 -2.8389
 5000TIP3   OH215005   1.207   5.488   4.244  0.4840 -0.0140 -0.2749
 5000TIP3    H115006   1.142   5.418   4.238  0.3743  0.2029 -2.0366
 5000TIP3    H215007   1.246   5.477   4.331 -2.5496  0.4774  1.2456
 5001TIP3   OH215008   0.667   4.408   0.137  0.1173 -0.7903 -0.3770
 5001TIP3    H115009   0.660   4.323   0.179  0.7037  0.6839  3.0620
 5001TIP3    H215010   0.576   4.431   0.116 -0.1844 -1.7179 -0.1509
 5002TIP3   OH215011   0.901   2.554   0.133  0.4714 -0.2438  0.1836
 5002TIP3    H115012   0.958   2.621   0.170 -0.7491  0.8327  0.2147
 5002TIP3    H215013   0.886   2.493   0.206 -1.8327  1.7995  1.6188
 5003TIP3   OH215014   0.457   3.092   0.199  0.0115  0.2824 -0.0072
 5003TIP3    H115015   0.544   3.097   0.160 -0.2912 -0.8493 -0.8585
 5003TIP3    H215016   0.437   3.182   0.224  1.2631  0.6161 -0.1501
 5004TIP3   OH215017   1.516   2.584   2.545 -0.0643  0.0240  0.0674
 5004TIP3    H115018   1.458   2.660   2.551 -0.6899 -0.5425  1.7007
 5004TIP3    H215019   1.499   2.534   2.624  2.5863 -0.2387  0.5821
 5005TIP3   OH215020   4.838   1.916   1.344 -0.3176 -0.4279  0.3398
 5005TIP3    H115021   4.808   2.005   1.359  3.0013  0.8214  0.4715
 5005TIP3    H215022   4.918   1.908   1.396  0.2899 -2.9659 -0.8022
 5006TIP3   OH215023   2.542   1.061   3.801  0.4700  0.3587  0.5328
 5006TIP3    H115024   2.621   1.013   3.828  1.3770  1.3761 -0.2167
 5006TIP3    H215025   2.519   1.114   3.877  1.4910  1.2835  0.2161
 5007TIP3   OH215026   0.110   0.793   0.471  0.0770 -0.1031  0.1965
 5007TIP3    H115027   0.041   0.858   0.475 -0.5700 -0.6003 -1.9441
 5007TIP3    H215028   0.122   0.766   0.562 -1.2027  1.3444  0.8402
 5008TIP3   OH215029   6.312   4.131   3.762  0.4300 -0.0034 -0.0216
 5008TIP3    H115030   6.242   4.108   3.701  1.9526  1.6100 -2.5662
 5008TIP3    H215031   6.270   4.187   3.827 -0.5820  1.4607 -1.8608
 5009TIP3   OH215032  -0.015   5.878   0.856  0.0875 -0.1900 -0.0210
 5009TIP3    H115033   0.017   5.837   0.936  3.7495  3.1280  0.4835
 5009TIP3    H215034   0.039   5.839   0.786  0.9239  0.9765 -0.0439
 5010TIP3   OH215035   5.534   1.681   1.862  0.0735 -0.0050  0.1032
 5010TIP3    H115036   5.562   1.772   1.853 -0.8900  0.8084  3.6048
 5010TIP3    H215037   5.583   1.648   1.937  1.2238 -2.8631 -1.7222
 5011TIP3   OH215038   2.855   0.275   2.293  0.0226 -0.2949  0.3608
 5011TIP3    H115039   2.924   0.311   2.239 -1.2665 -0.4748 -1.4935
 5011TIP3    H215040   2.793   0.347   2.305  0.2200 -0.2966  1.4969
 5012TIP3   OH215041   3.605   5.376   3.565  0.1285  0.2808 -0.8194
 5012TIP3    H115042   3.615   5.282   3.585  2.3095  0.8198  1.1453
 5012TIP3    H215043   3.515   5.396   3.592 -0.3314 -1.1854 -1.1291
 5013TIP3   OH215044   0.211   0.416   3.419  0.2582 -0.0841 -0.5330
 5013TIP3    H115045   0.180   0.373   3.499  0.6996  0.1301 -0.2502
 5013TIP3    H215046   0.220   0.508   3.442 -4.1801  1.0231 -2.0510
 5014TIP3   OH215047   3.273   2.223   4.179  0.0434  0.4275  0.6051
 5014TIP3    H115048   3.183   2.221   4.148  0.8585 -0.4621 -1.9226
 5014TIP3    H215049   3.300   2.131   4.181  0.7604  0.6391  1.8309
 5015TIP3   OH215050   5.049   4.572   1.816 -0.3429 -0.3912 -0.0772
 5015TIP3    H115051   5.129   4.530   1.785 -0.3565 -0.7325  0.3408
 5015TIP3    H215052   5.054   4.662   1.782  0.1427 -0.4569 -0.1813
 5016TIP3   OH215053   2.996   4.685   4.629 -0.4959 -0.2412  0.2952
 5016TIP3    H115054   3.015   4.613   4.690 -0.1630 -0.0081  0.4667
 5016TIP3    H215055   2.956   4.753   4.683  0.8817  0.4446  0.4929
 5017TIP3   OH215056   2.915   5.379   1.594 -0.5342 -0.2063  0.3510
 5017TIP3    H115057   2.940   5.290   1.569  0.6161  0.5420 -1.3928
 5017TIP3    H215058   2.913   5.427   1.511  1.0086  1.8988  1.4368
 5018TIP3   OH215059   5.383   2.011   0.799 -0.2857 -0.1717 -0.4909
 5018TIP3    H115060   5.409   1.922   0.774  0.2193  0.1963 -1.2865
 5018TIP3    H215061   5.425   2.068   0.735  0.5387  0.7538  0.8282
 5019TIP3   OH215062   3.459   2.937   1.454 -0.1591 -0.6255 -0.0385
 5019TIP3    H115063   3.413   3.011   1.493  0.5561 -1.2773  2.2267
 5019TIP3    H215064   3.398   2.900   1.390 -1.8681 -0.1118  1.2353
 5020TIP3   OH215065   5.315   4.805   3.160  0.0723  0.3826  0.1190
 5020TIP3    H115066   5.334   4.836   3.248 -2.0153  0.1842  0.6948
 5020TIP3    H215067   5.351   4.716   3.158  0.6596  0.6040  0.5629
 5021TIP3   OH215068   5.546   5.318   4.144  0.5853  0.7596  0.5112
 5021TIP3    H115069   5.594   5.377   4.202  0.7732  0.9324  0.1814
 5021TIP3    H215070   5.454   5.341   4.157  0.6501  1.0353  0.4845
 5022TIP3   OH215071   3.683   5.780   2.157  0.2089 -0.2326  0.0136
 5022TIP3    H115072   3.655   5.784   2.065 -1.7950  1.9128  0.6533
 5022TIP3    H215073   3.757   5.841   2.162  1.2827 -1.4369 -0.4096
 5023TIP3   OH215074   2.436   0.668   3.046 -0.0021 -0.3294  0.1665
 5023TIP3    H115075   2.464   0.643   2.958  1.4801  1.6280  0.0186
 5023TIP3    H215076   2.501   0.627   3.104  0.8502  0.8873  0.1038
 5024TIP3   OH215077   0.666   3.717   0.053 -0.1713  0.3965  0.1535
 5024TIP3    H115078   0.650   3.628   0.019 -0.2475  0.7884 -0.8822
 5024TIP3    H215079   0.736   3.751  -0.002 -0.9465  1.4003 -0.2406
 5025TIP3   OH215080   2.395   5.145   3.885 -0.0157  0.3395  0.2911
 5025TIP3    H115081   2.338   5.132   3.810 -0.5203  0.2267  0.6847
 5025TIP3    H215082   2.335   5.169   3.956  0.2109 -1.5203  1.1714
 5026TIP3   OH215083   4.693   1.876   4.231  0.3518  0.0604  0.2770
 5026TIP3    H115084   4.654   1.840   4.311  0.1714  1.8220  1.0193
 5026TIP3    H215085   4.657   1.822   4.161  0.2171 -1.2873  1.3307
 5027TIP3   OH215086   4.179   2.878   3.001 -0.0253  0.4096 -0.3266
 5027TIP3    H115087   4.123   2.953   2.985 -0.9696 -0.2615 -0.2813
 5027TIP3    H215088   4.178   2.829   2.918 -1.8741 -1.1048  0.5048
 5028TIP3   OH215089   1.259   5.505   1.058 -0.1675  0.1348 -0.0032
 5028TIP3    H115090   1.308   5.567   1.113 -0.3684 -0.6183  1.0508
 5028TIP3    H215091   1.194   5.560   1.013  0.1637  0.8004  0.3110
 5029TIP3   OH215092   1.088   4.938   5.145  0.5525 -0.0995 -0.7210
 5029TIP3    H115093   1.074   4.845   5.163  1.3345 -0.2772 -0.9837
 5029TIP3    H215094   1.011   4.981   5.182  0.4497 -0.7963 -0.0925
 5030TIP3   OH215095   4.812   4.475   2.570  0.2703 -0.6711  0.3350
 5030TIP3    H115096   4.889   4.485   2.625  1.7504 -4.0624 -0.8595
 5030TIP3    H215097   4.846   4.477   2.480 -1.6805  1.7849 -0.4898
 5031TIP3   OH215098   2.780   5.529   0.727  0.2289  0.9444 -0.0974
 5031TIP3    H115099   2.685   5.531   0.736  0.3120  0.1987  1.5317
 5031TIP3    H215100   2.805   5.619   0.708 -0.8635  0.9550 -1.6538
 5032TIP3   OH215101   5.887   4.208   0.948 -0.0353 -0.1788  0.6343
 5032TIP3    H115102   5.870   4.126   0.901 -1.6990  0.4703  0.0351
 5032TIP3    H215103   5.837   4.199   1.030 -0.1726  0.2114  0.5947
 5033TIP3   OH215104   4.896   1.796   3.920 -0.0792 -0.1311  0.1131
 5033TIP3    H115105   4.861   1.808   4.008  0.9723 -0.3204  0.5784
 5033TIP3    H215106   4.989   1.815   3.929  0.3017 -1.4832 -0.6476
 5034TIP3   OH215107   4.903   3.341   0.861 -0.3214  0.0418 -0.4890
 5034TIP3    H115108   4.850   3.345   0.941 -0.8730  0.1171 -0.8542
 5034TIP3    H215109   4.994   3.334   0.892 -0.6039 -1.0136  0.1460
 5035TIP3   OH215110   2.887   5.853   2.079 -0.4568 -0.2941  0.3184
 5035TIP3    H115111   2.955   5.834   2.144  0.8900 -0.7645 -1.1691
 5035TIP3    H215112   2.890   5.948   2.068 -0.4374 -0.2520  0.6731
 5036TIP3   OH215113   2.137   4.870   3.163 -0.1695 -0.2944 -0.1312
 5036TIP3    H115114   2.197   4.840   3.231 -0.6317  0.0602  0.4410
 5036TIP3    H215115   2.079   4.795   3.148  0.7026 -0.8152 -1.0412
 5037TIP3   OH215116   1.937   2.895   3.938  0.0119 -0.8795  0.1569
 5037TIP3    H115117   1.901   2.830   3.878 -1.1220  1.0047 -1.3396
 5037TIP3    H215118   1.953   2.847   4.019  0.8545 -3.3553 -1.3768
 5038TIP3   OH215119   4.749   2.586   4.887 -0.3198  0.2019  0.3179
 5038TIP3    H115120   4.733   2.661   4.830  1.8441  0.1615 -0.4300
 5038TIP3    H215121   4.745   2.510   4.829 -0.5598 -0.0902  0.7086
 5039TIP3   OH215122   4.289   2.130   4.209 -0.1706  0.2060  0.0754
 5039TIP3    H115123   4.313   2.219   4.183  1.1147 -0.4364 -1.0773
 5039TIP3    H215124   4.279   2.083   4.126 -1.3854 -0.5960  0.6508
 5040TIP3   OH215125   4.959   3.700   0.012 -0.2180 -0.0751  0.4933
 5040TIP3    H115126   4.965   3.730   0.103 -0.7342  0.0268  0.4987
 5040TIP3    H215127   4.892   3.632   0.014 -0.0594 -0.2403  0.2290
 5041TIP3   OH215128   6.235   2.340   4.124 -0.1874 -0.0023 -0.1489
 5041TIP3    H115129   6.223   2.409   4.058 -0.1206 -0.8355 -1.0590
 5041TIP3    H215130   6.220   2.259   4.076 -0.5685 -0.6118  0.9818
 5042TIP3   OH215131   2.725   3.011   3.312  0.7852  0.1122 -0.3085
 5042TIP3    H115132   2.692   3.004   3.401  1.5789 -2.3324 -0.1313
 5042TIP3    H215133   2.648   3.024   3.258  0.0133 -0.7811  0.5391
 5043TIP3   OH215134   2.205   0.480   3.888  0.2418  0.9291 -0.3715
 5043TIP3    H115135   2.142   0.409   3.872  1.0478  0.1426 -0.1501
 5043TIP3    H215136   2.172   0.553   3.836 -0.2664  0.1901 -1.1214
 5044TIP3   OH215137   5.238   2.149   4.035  0.0525  0.1935  0.1835
 5044TIP3    H115138   5.223   2.226   3.981 -0.8572 -0.8928 -1.1714
 5044TIP3    H215139   5.185   2.164   4.114 -0.8943  0.5408 -0.5014
 5045TIP3   OH215140   4.638   5.669   4.254  0.4324  0.3945 -0.4935
 5045TIP3    H115141   4.638   5.575   4.237  1.0376  0.5960 -1.7148
 5045TIP3    H215142   4.572   5.705   4.195  0.3151  0.7677 -0.1492
 5046TIP3   OH215143   5.214   0.645   3.504 -0.1266 -0.1627 -0.1957
 5046TIP3    H115144   5.165   0.604   3.432 -0.2108 -0.2704 -0.0771
 5046TIP3    H215145   5.186   0.737   3.502 -1.5669 -0.5244  0.8682
 5047TIP3   OH215146   4.835   5.591   1.041 -0.0198  0.5642  0.1317
 5047TIP3    H115147   4.854   5.599   1.135  2.3093 -2.5845  0.1131
 5047TIP3    H215148   4.740   5.600   1.035 -0.4084 -0.4608  3.0245
 5048TIP3   OH215149   0.050   3.494   1.339 -0.3709 -0.8132 -0.1135
 5048TIP3    H115150   0.103   3.430   1.387  0.9365  1.1271  1.1869
 5048TIP3    H215151  -0.038   3.485   1.376 -0.0158 -1.2981  0.6406
 5049TIP3   OH215152   1.929   1.716   0.771 -0.2716 -0.2066 -0.2133
 5049TIP3    H115153   1.842   1.697   0.737 -0.3027  0.5259 -0.5620
 5049TIP3    H215154   1.924   1.807   0.800  0.5158 -0.0043 -0.6831
 5050TIP3   OH215155   6.240   4.342   0.649 -0.0068  0.2756 -0.1781
 5050TIP3    H115156   6.275   4.314   0.734 -0.4264 -0.3156 -0.1950
 5050TIP3    H215157   6.146   4.325   0.655  0.0443 -0.3325 -0.9736
 5051TIP3   OH215158   4.300   1.568   5.013  0.5411 -1.0187 -0.9093
 5051TIP3    H115159   4.232   1.619   4.968  1.2706  0.0354 -0.8526
 5051TIP3    H215160   4.381   1.591   4.967  1.1609 -0.6502  0.3418
 5052TIP3   OH215161   0.264   4.149   3.617  0.2445  0.0308 -0.5587
 5052TIP3    H115162   0.251   4.244   3.614 -0.0132 -0.0118 -0.8093
 5052TIP3    H215163   0.214   4.121   3.693  0.1900  0.0758 -0.5773
 5053TIP3   OH215164   0.820   3.617   5.139  0.8546 -0.5603  0.6831
 5053TIP3    H115165   0.881   3.690   5.138  0.5044 -0.2589 -0.4966
 5053TIP3    H215166   0.764   3.631   5.063  0.2467 -1.6108  0.9073
 5054TIP3   OH215167   2.078   4.901   1.286 -0.5478  0.2212  0.1222
 5054TIP3    H115168   2.025   4.846   1.343  0.0099  1.6136  2.0869
 5054TIP3    H215169   2.035   4.987   1.289  1.4634  1.2713  1.4150
 5055TIP3   OH215170   0.221   1.986   0.208 -0.2718 -0.0129 -0.1895
 5055TIP3    H115171   0.193   2.034   0.286 -0.7456 -0.7791  0.1360
 5055TIP3    H215172   0.141   1.942   0.178 -0.1041  0.3043 -1.1396
 5056TIP3   OH215173   3.387   2.098   2.072 -0.5064  0.2266  0.1992
 5056TIP3    H115174   3.418   2.010   2.050 -1.7408 -0.1112 -0.2561
 5056TIP3    H215175   3.413   2.152   1.997  1.0258  0.4744  0.8570
 5057TIP3   OH215176   3.468   4.357   1.075 -0.3547  0.2508 -0.2538
 5057TIP3    H115177   3.461   4.449   1.098 -2.9193  0.0094  0.2843
 5057TIP3    H215178   3.481   4.356   0.980 -0.9359  1.1836 -0.3515
 5058TIP3   OH215179   4.972   3.416   0.568  0.1088  0.1941  0.3360
 5058TIP3    H115180   4.912   3.415   0.643 -0.7768 -1.7481 -0.3564
 5058TIP3    H215181   4.942   3.490   0.515  0.8503  1.7041  1.9270
 5059TIP3   OH215182   1.803   1.557   3.170  0.5405 -0.0828 -0.5746
 5059TIP3    H115183   1.895   1.578   3.186  0.5178  0.4047 -1.0581
 5059TIP3    H215184   1.797   1.548   3.075  0.3925 -1.5854 -0.4540
 5060TIP3   OH215185   2.857   0.961   0.864  0.5113 -0.1221 -0.4091
 5060TIP3    H115186   2.827   1.029   0.925 -0.5405 -0.0343 -1.0062
 5060TIP3    H215187   2.878   1.008   0.783  0.2255 -0.4488 -0.6764
 5061TIP3   OH215188   3.833   4.507   2.882  0.1175 -0.0215 -0.4843
 5061TIP3    H115189   3.903   4.572   2.887  1.5766 -1.5450 -0.1362
 5061TIP3    H215190   3.875   4.429   2.845 -1.5692 -0.7940 -0.8785
 5062TIP3   OH215191   2.767   0.537   2.271 -0.7008 -0.4602 -0.5973
 5062TIP3    H115192   2.693   0.563   2.218 -0.2218 -1.7495 -1.9856
 5062TIP3    H215193   2.834   0.603   2.255 -1.4891  0.6769  0.6215
 5063TIP3   OH215194   1.440   1.266   2.241 -0.1279 -0.3814  0.1180
 5063TIP3    H115195   1.432   1.174   2.264  1.6303 -0.9514 -1.4016
 5063TIP3    H215196   1.426   1.312   2.324 -0.7819 -2.0003  0.9519
 5064TIP3   OH215197   3.065   2.017   3.999  0.1170  0.1563 -0.3991
 5064TIP3    H115198   3.049   2.051   3.911 -0.2707 -0.7960 -0.7072
 5064TIP3    H215199   3.125   1.943   3.986  0.6744  0.4785  0.2270
 5065TIP3   OH215200   3.421   4.402   2.393  0.2265  0.0583  0.0846
 5065TIP3    H115201   3.474   4.420   2.471  1.1641 -2.0314 -0.0000
 5065TIP3    H215202   3.412   4.487   2.350  0.5793  1.0734  1.8956
 5066TIP3   OH215203   0.406   4.998   4.114  0.1088  0.2071  0.1156
 5066TIP3    H115204   0.399   5.029   4.204 -1.4806  0.1560  0.0458
 5066TIP3    H215205   0.316   4.976   4.090  0.4146  0.7853 -1.6910
 5067TIP3   OH215206   5.733   4.547   2.157 -0.1181 -0.2297  0.0070
 5067TIP3    H115207   5.775   4.555   2.071  0.4367  0.1788  0.3122
 5067TIP3    H215208   5.758   4.627   2.203  0.2762 -0.8289  0.8498
 5068TIP3   OH215209   3.940   1.009   4.969 -0.2525 -0.4512 -0.5151
 5068TIP3    H115210   3.911   1.095   4.941  3.4155  0.4293 -2.1666
 5068TIP3    H215211   3.988   1.024   5.050  1.1624 -0.7157 -1.2653
 5069TIP3   OH215212   0.783   1.933   0.407 -0.2074  0.2356  0.1419
 5069TIP3    H115213   0.729   1.891   0.340  1.7844 -1.7562 -0.3329
 5069TIP3    H215214   0.731   1.927   0.487 -0.7088 -1.7133 -0.2769
 5070TIP3   OH215215   1.962   4.724   1.793  0.4589 -0.7815  0.2524
 5070TIP3    H115216   2.004   4.747   1.710  0.0254 -2.1033 -0.3651
 5070TIP3    H215217   1.971   4.629   1.799 -1.7712 -1.0278  0.4622
 5071TIP3   OH215218   2.908   0.140   0.731 -0.2472 -0.2120 -0.1280
 5071TIP3    H115219   2.944   0.221   0.767 -1.2276  0.4247 -0.5337
 5071TIP3    H215220   2.927   0.074   0.798 -1.8142  0.8980  1.4934
 5072TIP3   OH215221   4.059   1.416   0.266  0.7314  0.3080  0.0780
 5072TIP3    H115222   3.992   1.363   0.309  0.2784  0.7562 -0.0591
 5072TIP3    H215223   4.099   1.358   0.201 -0.0934  0.2731 -0.4055
 5073TIP3   OH215224   0.304   5.771   2.057 -0.9101 -0.3517 -0.2604
 5073TIP3    H115225   0.287   5.800   2.146 -0.2822 -0.3877 -0.1251
 5073TIP3    H215226   0.217   5.760   2.018 -1.1900  1.6357 -0.3019
 5074TIP3   OH215227   4.208   3.784   3.608 -0.0361  0.1265 -0.1320
 5074TIP3    H115228   4.265   3.848   3.565  0.6940  0.4179  1.2039
 5074TIP3    H215229   4.120   3.808   3.581  0.2479  1.5022  0.0806
 5075TIP3   OH215230   4.716   5.280   3.649 -0.6819  0.1707 -0.7386
 5075TIP3    H115231   4.795   5.300   3.600 -0.6196  1.1985 -0.2628
 5075TIP3    H215232   4.658   5.355   3.634 -1.6453 -0.6451 -1.2258
 5076TIP3   OH215233   4.824   0.135   0.006  0.4952  0.5561  0.5246
 5076TIP3    H115234   4.779   0.072   0.063  1.5638 -0.5566  0.1954
 5076TIP3    H215235   4.854   0.204   0.065 -0.8548  0.8793  0.8683
 5077TIP3   OH215236   5.685   1.654   2.082  0.0261  0.5519  0.0059
 5077TIP3    H115237   5.778   1.644   2.063 -0.0486 -0.3601  0.0386
 5077TIP3    H215238   5.681   1.667   2.177  0.1983  1.9799 -0.1664
 5078TIP3   OH215239   2.989   0.799   1.066  0.2401  0.4467 -0.1242
 5078TIP3    H115240   2.977   0.836   0.979 -0.2184  1.2593  0.2611
 5078TIP3    H215241   2.995   0.705   1.053 -0.5964  0.4989 -0.9571
 5079TIP3   OH215242   2.257   1.641   4.802  0.0917  0.3372 -0.5547
 5079TIP3    H115243   2.347   1.651   4.772  0.4689  0.3656  0.5524
 5079TIP3    H215244   2.208   1.706   4.750  0.4653 -0.5216 -2.0519
 5080TIP3   OH215245   2.589   3.032   4.319  0.4064  0.1744  0.5699
 5080TIP3    H115246   2.526   2.961   4.330  0.8844 -0.6565 -1.5133
 5080TIP3    H215247   2.537   3.104   4.283 -0.0492  0.8826  2.5399
 5081TIP3   OH215248   3.974   4.393   2.326  0.0020  0.4436 -0.3754
 5081TIP3    H115249   4.041   4.330   2.299  0.0446  0.4140 -0.2011
 5081TIP3    H215250   3.901   4.338   2.356  0.0334  0.4782 -0.2372
 5082TIP3   OH215251   3.255   5.179   1.875 -0.3509 -0.2811  0.6327
 5082TIP3    H115252   3.190   5.248   1.884 -1.7157 -1.2386 -1.2086
 5082TIP3    H215253   3.330   5.223   1.833 -0.5005  0.4337  1.0931
 5083TIP3   OH215254   1.616   5.886   1.968 -0.3151  0.1645 -0.9248
 5083TIP3    H115255   1.597   5.954   2.033 -2.2529 -1.2847  0.1299
 5083TIP3    H215256   1.542   5.891   1.907  0.0440 -0.3573 -1.4121
 5084TIP3   OH215257   2.254   3.597   4.507  0.6560  0.1085 -0.5193
 5084TIP3    H115258   2.291   3.557   4.429  0.6154  0.9014 -0.9531
 5084TIP3    H215259   2.287   3.687   4.507  0.4158  0.2085  0.2130
 5085TIP3   OH215260   5.972   2.234   2.377  0.4742 -0.2324 -0.2578
 5085TIP3    H115261   5.914   2.160   2.395  1.4083 -0.6836  1.0491
 5085TIP3    H215262   6.030   2.238   2.453 -0.8293  3.1202  0.7535
 5086TIP3   OH215263   6.032   1.469   3.697 -0.5069  0.0273  0.0380
 5086TIP3    H115264   5.984   1.552   3.693  0.8706  0.9886  1.8258
 5086TIP3    H215265   6.017   1.429   3.611  0.4232  3.1204 -1.7446
 5087TIP3   OH215266   3.916   1.662   0.228 -0.2302  0.3423 -0.0624
 5087TIP3    H115267   3.961   1.735   0.269 -0.2747 -0.1523  0.9009
 5087TIP3    H215268   3.984   1.595   0.218 -0.3618  0.2332 -0.2231
 5088TIP3   OH215269   3.725   2.345   2.003  0.3832 -0.6196  0.3965
 5088TIP3    H115270   3.790   2.398   1.958 -0.6480  0.4332  0.1071
 5088TIP3    H215271   3.737   2.257   1.967 -0.3755  0.1678 -1.9748
 5089TIP3   OH215272   2.612   1.730   2.135 -0.0379 -0.3609  0.1963
 5089TIP3    H115273   2.589   1.816   2.100 -1.6320 -1.2641 -1.1186
 5089TIP3    H215274   2.670   1.691   2.068  0.0503 -0.6122  0.4151
 5090TIP3   OH215275   4.718   5.219   2.884  0.2731 -0.1192  0.2002
 5090TIP3    H115276   4.625   5.197   2.896 -0.2960  1.5543 -0.7467
 5090TIP3    H215277   4.751   5.150   2.826  0.5970 -2.7329  3.2401
 5091TIP3   OH215278   0.515   5.597   2.560 -0.1277 -0.0557 -0.2234
 5091TIP3    H115279   0.549   5.640   2.482 -2.1880  0.5114 -0.8868
 5091TIP3    H215280   0.468   5.666   2.606 -1.5136 -1.0460 -0.0960
 5092TIP3   OH215281   3.090   3.323   3.089 -0.0698 -0.3726  0.6084
 5092TIP3    H115282   3.011   3.377   3.099 -0.7714 -1.4070  0.8679
 5092TIP3    H215283   3.076   3.276   3.007  1.2406  0.9373 -0.4206
 5093TIP3   OH215284   5.107   4.205   2.688 -0.1069 -0.2895 -0.4115
 5093TIP3    H115285   5.120   4.201   2.593  0.9449 -1.3088 -0.2579
 5093TIP3    H215286   5.100   4.298   2.708  0.6022 -0.0090 -1.3959
 5094TIP3   OH215287   4.543   0.909   0.580 -0.1499  0.3677  0.1042
 5094TIP3    H115288   4.478   0.949   0.523  0.3858 -1.0745 -1.6283
 5094TIP3    H215289   4.626   0.921   0.534  0.3890 -0.3531  0.8560
 5095TIP3   OH215290   5.960   3.526   2.189  0.0921  0.1289 -0.1756
 5095TIP3    H115291   6.029   3.461   2.182 -0.2618 -0.3800  0.8578
 5095TIP3    H215292   6.005   3.607   2.211  0.3257 -0.3258  1.0803
 5096TIP3   OH215293   4.259   0.806   4.653  0.5778 -0.0818  0.9709
 5096TIP3    H115294   4.324   0.739   4.676  1.4634  1.2895  2.6809
 5096TIP3    H215295   4.214   0.770   4.576  2.6176 -1.5609  0.3810
 5097TIP3   OH215296   0.957   3.962   0.165  0.2391  0.0616  0.4212
 5097TIP3    H115297   0.963   3.939   0.072 -2.7264 -0.0350  0.1696
 5097TIP3    H215298   1.017   4.036   0.176 -0.4158  1.0205 -1.9186
 5098TIP3   OH215299   3.450   3.685   1.257 -0.2538 -0.2752 -0.1772
 5098TIP3    H115300   3.447   3.638   1.340 -1.6585  1.5644  0.9079
 5098TIP3    H215301   3.363   3.674   1.220 -0.2473  0.4787 -0.4462
 5099TIP3   OH215302   1.259   1.236   1.924  0.1771  0.0692  0.0780
 5099TIP3    H115303   1.342   1.239   1.971 -1.1102  0.5054  2.5121
 5099TIP3    H215304   1.215   1.318   1.947 -1.7934 -1.0818  0.6751
 5100TIP3   OH215305   3.726   4.115   3.292  0.0707  0.1502 -0.1744
 5100TIP3    H115306   3.721   4.208   3.316 -1.5824 -0.6087  2.9572
 5100TIP3    H215307   3.736   4.069   3.375 -0.7759 -2.6020 -1.4698
 5101TIP3   OH215308   6.162   1.570   2.174 -0.0096 -0.0979  0.7614
 5101TIP3    H115309   6.167   1.584   2.268  1.0796 -2.2856  1.1053
 5101TIP3    H215310   6.148   1.475   2.165 -0.4430  0.1222 -1.2663
 5102TIP3   OH215311   2.220   4.599   2.159  0.6328  0.1657  0.1392
 5102TIP3    H115312   2.289   4.533   2.167  1.9037  1.3401 -0.8697
 5102TIP3    H215313   2.264   4.682   2.174 -0.3965  1.0071 -1.3332
 5103TIP3   OH215314   6.279   0.699   0.824 -0.0060 -0.5498  0.4795
 5103TIP3    H115315   6.306   0.640   0.754 -1.3504 -0.5272 -0.0744
 5103TIP3    H215316   6.310   0.657   0.904  2.3789 -0.1116 -0.1474
 5104TIP3   OH215317   3.638   5.755   4.190 -0.2050 -0.0933  0.3594
 5104TIP3    H115318   3.612   5.741   4.281 -2.1335 -0.0583 -0.1437
 5104TIP3    H215319   3.613   5.674   4.146 -0.7897  0.5083 -0.4323
 5105TIP3   OH215320   1.181   3.243   3.295 -0.0096 -0.4254  0.2652
 5105TIP3    H115321   1.188   3.338   3.294  0.8222 -0.4901 -0.2444
 5105TIP3    H215322   1.168   3.218   3.204  1.2081 -0.8909  0.1961
 5106TIP3   OH215323   0.257   1.385   3.352 -0.0102  0.8030 -0.4793
 5106TIP3    H115324   0.322   1.318   3.375 -1.1973 -0.7322 -1.3789
 5106TIP3    H215325   0.222   1.414   3.436 -1.8594 -2.2431 -0.0333
 5107TIP3   OH215326   1.625   0.100   4.368 -0.0211 -0.4886  0.5982
 5107TIP3    H115327   1.532   0.076   4.372  0.6387 -3.5833 -0.0130
 5107TIP3    H215328   1.668   0.038   4.427  1.9747 -1.4079 -1.6701
 5108TIP3   OH215329   3.090   4.367   1.544  0.0262  0.0855 -0.3095
 5108TIP3    H115330   3.100   4.273   1.559  0.0752  0.1314 -0.0389
 5108TIP3    H215331   3.131   4.382   1.459 -1.1744 -0.3561 -0.9840
 5109TIP3   OH215332   1.795   0.428   1.431  0.1980  0.1850  0.0139
 5109TIP3    H115333   1.853   0.362   1.469  1.2352  1.1146  0.1061
 5109TIP3    H215334   1.842   0.511   1.443  0.3119  0.6144 -2.6848
 5110TIP3   OH215335   5.508   2.771   4.388 -0.1081  0.4956  0.0057
 5110TIP3    H115336   5.495   2.865   4.397 -1.8246  0.2725  0.2020
 5110TIP3    H215337   5.524   2.758   4.294 -1.1425  0.8705 -0.2383
 5111TIP3   OH215338   5.434   1.038   4.657  0.6140 -0.4744 -0.1649
 5111TIP3    H115339   5.431   0.951   4.617 -0.7702 -0.1308 -0.8427
 5111TIP3    H215340   5.354   1.044   4.709  0.1263  0.8109 -1.0301
 5112TIP3   OH215341   0.227   3.278   2.847 -0.6601  0.5742  0.1767
 5112TIP3    H115342   0.156   3.251   2.905  0.8918 -3.2061  0.6131
 5112TIP3    H215343   0.200   3.248   2.761  0.3844 -0.9572  0.3604
 5113TIP3   OH215344   2.799   1.467   1.276 -0.3581 -0.5365 -0.5445
 5113TIP3    H115345   2.858   1.413   1.329  0.7274  0.8980 -0.2168
 5113TIP3    H215346   2.777   1.541   1.332 -0.7363  0.0444 -1.4416
 5114TIP3   OH215347   1.155   1.538   3.053  0.6064  0.0324 -0.0174
 5114TIP3    H115348   1.167   1.578   3.139  0.3798  1.6904 -0.7129
 5114TIP3    H215349   1.242   1.503   3.031  0.5561 -0.8001  1.0538
 5115TIP3   OH215350   3.361   1.269   2.552  0.3932  0.3526  0.0330
 5115TIP3    H115351   3.375   1.211   2.477 -0.3340  1.1583 -0.7534
 5115TIP3    H215352   3.441   1.262   2.603  0.0475 -1.9179  0.3803
 5116TIP3   OH215353   1.822   4.850   2.219 -0.3000 -0.2461  0.6670
 5116TIP3    H115354   1.823   4.893   2.305 -0.2652  0.3961  0.3522
 5116TIP3    H215355   1.869   4.768   2.233  4.1697  1.9226  0.2440
 5117TIP3   OH215356   1.189   1.671   1.437  0.2341  0.4105 -0.4949
 5117TIP3    H115357   1.232   1.706   1.359 -0.2370  2.3797  0.0650
 5117TIP3    H215358   1.153   1.587   1.410  1.7376  0.1512 -1.8295
 5118TIP3   OH215359   3.795   2.904   1.206  0.5864  0.5983 -0.5316
 5118TIP3    H115360   3.871   2.932   1.258  0.8573  2.6988 -1.9321
 5118TIP3    H215361   3.750   2.986   1.186 -1.1430 -0.4653 -1.1464
 5119TIP3   OH215362   5.305   5.783   4.921 -0.1252  0.6978  0.1074
 5119TIP3    H115363   5.378   5.754   4.865 -0.4832 -1.2441  0.5546
 5119TIP3    H215364   5.289   5.873   4.894  1.2745  0.5968 -1.2542
 5120TIP3   OH215365   1.097   2.641   1.615 -0.1125 -0.6158  0.1620
 5120TIP3    H115366   1.171   2.612   1.669  0.2664 -0.9200 -0.5049
 5120TIP3    H215367   1.128   2.631   1.525 -0.4309  0.6872 -0.1088
 5121TIP3   OH215368   2.279   5.746   4.292  0.0173 -0.2062  0.5542
 5121TIP3    H115369   2.190   5.712   4.298  0.0109 -0.1602  0.7116
 5121TIP3    H215370   2.333   5.669   4.277 -0.2427 -0.0730 -1.4346
 5122TIP3   OH215371   4.534   4.833   0.397 -0.3985 -0.9481  0.1099
 5122TIP3    H115372   4.560   4.917   0.433  0.9705 -1.8489  1.3612
 5122TIP3    H215373   4.535   4.845   0.302  0.4263  0.2500  0.2548
 5123TIP3   OH215374   5.953   5.065   3.595 -0.3346  0.1170  0.5995
 5123TIP3    H115375   5.991   5.144   3.632 -2.3797  0.6173  1.8234
 5123TIP3    H215376   5.959   4.999   3.665  1.2128 -0.8022 -0.3520
 5124TIP3   OH215377   0.319   1.696   3.357  0.2485  0.2873  0.1712
 5124TIP3    H115378   0.367   1.723   3.279 -1.5693 -0.0022 -1.1188
 5124TIP3    H215379   0.319   1.601   3.353 -2.5518  0.2145 -1.3742
 5125TIP3   OH215380   2.616   1.629   1.026  0.1575 -0.4572 -0.3413
 5125TIP3    H115381   2.708   1.649   1.042 -0.1279  1.1939 -0.5769
 5125TIP3    H215382   2.576   1.623   1.113  0.3084 -0.3037 -0.2630
 5126TIP3   OH215383   5.910   4.087   3.752 -0.2232 -0.1368  0.4542
 5126TIP3    H115384   5.965   4.163   3.770 -0.0655  0.1039 -0.9435
 5126TIP3    H215385   5.950   4.016   3.803  1.0790  0.1700 -0.0952
 5127TIP3   OH215386   0.358   3.603   0.136  0.2725 -0.2101  0.1281
 5127TIP3    H115387   0.387   3.658   0.063  0.3826 -0.2251  0.1606
 5127TIP3    H215388   0.323   3.665   0.200  1.4484 -0.0809  0.6577
 5128TIP3   OH215389   2.101   5.533   0.675 -0.1771  0.4177 -0.2023
 5128TIP3    H115390   2.086   5.538   0.580  1.7327  0.8641 -0.5108
 5128TIP3    H215391   2.109   5.624   0.703  0.6364  0.2542  0.1254
 5129TIP3   OH215392   5.637   1.510   0.601 -0.1211 -0.4188 -0.5002
 5129TIP3    H115393   5.574   1.568   0.645  0.6026  0.0119 -0.0232
 5129TIP3    H215394   5.621   1.524   0.508 -0.7278 -0.3083 -0.3839
 5130TIP3   OH215395   5.716   5.482   1.362 -0.1389 -0.0872  0.1075
 5130TIP3    H115396   5.668   5.514   1.438  0.3428  0.1724  0.3025
 5130TIP3    H215397   5.808   5.492   1.385  0.0482  1.9860 -1.3133
 5131TIP3   OH215398   4.086   4.413   3.677 -0.0809 -0.4896 -0.1872
 5131TIP3    H115399   4.016   4.367   3.631  1.5982 -1.8511 -1.5390
 5131TIP3    H215400   4.145   4.343   3.707  0.3181  0.5582  1.6259
 5132TIP3   OH215401   5.947   4.940   2.991 -0.0901 -0.5543 -0.1298
 5132TIP3    H115402   5.932   4.954   3.084  0.6422  0.5575 -0.1633
 5132TIP3    H215403   6.004   4.863   2.987  0.0374 -0.4866  0.3512
 5133TIP3   OH215404   6.001   2.491   2.700 -0.3075 -0.6060 -0.4502
 5133TIP3    H115405   6.035   2.572   2.739  0.4048 -1.5312  0.9370
 5133TIP3    H215406   6.058   2.474   2.626 -1.2934  0.8568 -1.5944
 5134TIP3   OH215407   2.226   2.659   1.947  0.3236 -0.8928  0.7986
 5134TIP3    H115408   2.162   2.590   1.926 -0.6334 -0.3016  1.6578
 5134TIP3    H215409   2.221   2.719   1.873  0.5397 -1.3017  0.4451
 5135TIP3   OH215410   6.293   5.839   3.436  0.5083 -0.1455  0.7452
 5135TIP3    H115411   6.360   5.880   3.380  0.3785  0.3475  0.9455
 5135TIP3    H215412   6.295   5.747   3.411  0.1353  0.1408 -0.3996
 5136TIP3   OH215413   3.737   2.389   3.107 -0.5383  0.4155 -0.7202
 5136TIP3    H115414   3.685   2.416   3.183 -0.0067 -0.9297  0.1555
 5136TIP3    H215415   3.732   2.294   3.106 -0.2117  0.3859 -2.1627
 5137TIP3   OH215416   3.267   0.546   4.945  0.2660 -0.0109  0.3959
 5137TIP3    H115417   3.239   0.457   4.965  1.5172 -0.7153 -0.8188
 5137TIP3    H215418   3.245   0.596   5.023 -0.8911 -1.2725  0.9256
 5138TIP3   OH215419  -0.008   1.926   2.064 -0.0992  0.1397  0.8962
 5138TIP3    H115420  -0.044   1.840   2.045 -1.2424  0.7949 -0.0285
 5138TIP3    H215421   0.086   1.918   2.046  0.2211 -1.4677  2.8844
 5139TIP3   OH215422   3.085   1.697   1.124 -0.0345  0.5380  0.0124
 5139TIP3    H115423   3.110   1.605   1.133 -1.7659  0.2538  3.9590
 5139TIP3    H215424   3.161   1.746   1.156 -0.1385  0.3253  0.5874
 5140TIP3   OH215425   2.025   5.899   1.551  0.2349  0.1133 -0.2275
 5140TIP3    H115426   2.002   5.873   1.640  1.8372 -2.2155 -0.4043
 5140TIP3    H215427   2.086   5.973   1.562  0.3510 -0.1055  0.6104
 5141TIP3   OH215428   5.584   1.241   0.416  0.0381  0.3670 -0.6348
 5141TIP3    H115429   5.569   1.280   0.330  1.5979 -0.1216 -1.1623
 5141TIP3    H215430   5.625   1.157   0.397 -1.0382 -0.4523  0.5618
 5142TIP3   OH215431   2.069   2.157   4.543  0.1421  0.0011 -0.0287
 5142TIP3    H115432   2.114   2.195   4.468  0.8737 -0.2079  0.2934
 5142TIP3    H215433   1.984   2.202   4.545 -0.9147 -1.6788 -2.4012
 5143TIP3   OH215434   5.616   3.588   5.019 -0.2276  0.5541 -0.3032
 5143TIP3    H115435   5.542   3.615   5.073 -1.6062  0.5695 -2.1313
 5143TIP3    H215436   5.589   3.506   4.979  1.3955 -0.2732  0.1959
 5144TIP3   OH215437   1.436   0.432   0.366 -0.4573 -0.3712 -0.2173
 5144TIP3    H115438   1.371   0.364   0.384 -0.1915 -0.5774 -0.0270
 5144TIP3    H215439   1.485   0.399   0.290  0.4436 -0.9532  0.5969
 5145TIP3   OH215440   0.627   5.742   1.042 -0.2235  0.2372  0.0262
 5145TIP3    H115441   0.653   5.678   0.976  1.8819 -1.9421  2.7275
 5145TIP3    H215442   0.552   5.703   1.085 -1.0396  1.2428 -0.4310
 5146TIP3   OH215443   1.860   4.323   2.551 -0.0440 -0.0255 -0.1669
 5146TIP3    H115444   1.788   4.339   2.612  0.7109  0.0506  0.7226
 5146TIP3    H215445   1.883   4.231   2.564  0.5149  0.1511  0.1008
 5147TIP3   OH215446   2.229   0.182   1.120  1.1732  0.1168  0.0809
 5147TIP3    H115447   2.171   0.229   1.059  0.0844 -1.4470 -0.1660
 5147TIP3    H215448   2.203   0.213   1.206 -0.5248 -0.9586  0.0218
 5148TIP3   OH215449   3.618   4.076   1.140  0.2175  0.3861 -0.6426
 5148TIP3    H115450   3.649   4.025   1.215  0.0217  0.5435 -0.4542
 5148TIP3    H215451   3.577   4.153   1.179 -1.7143 -0.4870 -0.8303
 5149TIP3   OH215452   4.773   3.999   0.665  0.5196 -0.5765  0.0952
 5149TIP3    H115453   4.828   3.969   0.738  0.0204 -2.3740 -0.2047
 5149TIP3    H215454   4.835   4.018   0.595  0.8910 -0.7653  0.3659
 5150TIP3   OH215455   4.097   4.036   3.327 -0.0638  0.3726  0.0026
 5150TIP3    H115456   4.120   4.128   3.314  0.5085  0.3671  0.9109
 5150TIP3    H215457   4.181   3.990   3.325 -0.2764 -0.0317  0.3256
 5151TIP3   OH215458   0.846   2.069   5.138 -0.1779 -0.2148 -0.1320
 5151TIP3    H115459   0.776   2.135   5.141 -0.4343 -0.3892 -1.5967
 5151TIP3    H215460   0.865   2.058   5.045  0.6950 -1.3433  0.1541
 5152TIP3   OH215461   2.938   0.988   5.132 -0.3040 -0.1192  0.6299
 5152TIP3    H115462   2.886   1.023   5.205 -1.2647 -1.7583  0.7849
 5152TIP3    H215463   2.954   0.897   5.155 -0.1155 -0.5170 -0.9354
 5153TIP3   OH215464   0.540   5.281   2.434  0.1576  0.7427  0.0504
 5153TIP3    H115465   0.515   5.332   2.357 -0.6977  0.4538  0.1238
 5153TIP3    H215466   0.618   5.233   2.407  0.2252  1.1161 -0.4293
 5154TIP3   OH215467   2.659   3.378   0.690  0.0621  0.3718  0.0121
 5154TIP3    H115468   2.577   3.369   0.641  0.1110  1.8295 -0.3811
 5154TIP3    H215469   2.715   3.432   0.634  0.9610  0.1425  0.6730
 5155TIP3   OH215470   1.469   3.539   5.162 -0.0711 -0.0592 -0.8122
 5155TIP3    H115471   1.517   3.574   5.087 -1.5984 -0.4875 -2.0454
 5155TIP3    H215472   1.377   3.543   5.136 -0.5056 -2.3401  0.1228
 5156TIP3   OH215473   5.186   2.205   0.782 -0.6528 -0.1474 -0.5365
 5156TIP3    H115474   5.118   2.152   0.823 -1.4369  0.6797 -0.7399
 5156TIP3    H215475   5.264   2.149   0.784 -0.5088  0.0027  2.4493
 5157TIP3   OH215476   5.251   4.913   2.496  0.1118  0.1979 -0.1719
 5157TIP3    H115477   5.235   4.960   2.577  1.6523  0.8887 -0.2291
 5157TIP3    H215478   5.179   4.939   2.438 -0.3046  0.6818  0.5589
 5158TIP3   OH215479   0.114   5.608   4.945 -0.2929  0.2717 -0.4029
 5158TIP3    H115480   0.092   5.592   4.854  0.7073 -0.3195 -0.5585
 5158TIP3    H215481   0.061   5.545   4.994 -0.9551  0.7008 -0.5451
 5159TIP3   OH215482   4.193   3.134   3.481  0.0054 -0.0611 -0.1858
 5159TIP3    H115483   4.180   3.228   3.489 -1.0591 -0.2651  0.9026
 5159TIP3    H215484   4.127   3.106   3.418 -0.6806 -0.2483  0.5880
 5160TIP3   OH215485   0.812   3.972   3.526  0.5301  0.2160 -0.1106
 5160TIP3    H115486   0.783   3.927   3.605  0.3850 -0.4564 -0.5415
 5160TIP3    H215487   0.907   3.971   3.532  0.5367  2.6393  1.4272
 5161TIP3   OH215488   1.350   4.797   3.616  0.1191  0.0326 -0.2155
 5161TIP3    H115489   1.421   4.740   3.588 -0.6908 -1.1404  0.0276
 5161TIP3    H215490   1.285   4.737   3.655 -1.1030  1.0291 -0.6454
 5162TIP3   OH215491   4.842   0.649   1.462 -0.2548  0.0703 -0.3296
 5162TIP3    H115492   4.860   0.555   1.471 -1.4691 -0.1078  0.3361
 5162TIP3    H215493   4.889   0.689   1.535  0.8842  0.0868 -1.0416
 5163TIP3   OH215494   1.633   0.877   1.268 -0.6295 -0.3101 -0.3023
 5163TIP3    H115495   1.636   0.971   1.285 -3.4288 -0.2899  0.4919
 5163TIP3    H215496   1.651   0.837   1.353  1.3641 -0.5792 -0.7978
 5164TIP3   OH215497   1.658   5.604   1.558  0.2808 -0.2232 -0.1959
 5164TIP3    H115498   1.570   5.637   1.540  0.4795  0.6532  0.4144
 5164TIP3    H215499   1.715   5.657   1.503  0.5288 -0.0704  0.2049
 5165TIP3   OH215500   2.796   3.013   0.947  0.5139  0.3753 -0.3076
 5165TIP3    H115501   2.870   3.070   0.925  1.1867 -0.9453 -1.6562
 5165TIP3    H215502   2.722   3.051   0.900  0.7286  0.7162 -0.3718
 5166TIP3   OH215503   2.836   4.444   4.447  0.6054  0.5178  0.3802
 5166TIP3    H115504   2.901   4.400   4.502 -0.1949 -1.3995 -0.1181
 5166TIP3    H215505   2.888   4.500   4.389  1.6290  0.7289  1.4663
 5167TIP3   OH215506   1.303   0.439   4.853  0.0570 -0.3086  0.1293
 5167TIP3    H115507   1.384   0.481   4.879  0.9176 -0.9754 -1.3321
 5167TIP3    H215508   1.306   0.438   4.757 -2.2131  0.6644 -0.0293
 5168TIP3   OH215509   4.226   2.702   4.370  0.4375  0.1990  0.1184
 5168TIP3    H115510   4.286   2.686   4.442  0.8139  0.9188 -0.0305
 5168TIP3    H215511   4.278   2.747   4.304  0.5981 -2.0957 -1.4270
 5169TIP3   OH215512   0.109   3.243   2.073 -0.0544 -0.0473  0.2311
 5169TIP3    H115513   0.144   3.175   2.130  1.8930  0.0618 -0.7505
 5169TIP3    H215514   0.149   3.324   2.105  2.1957 -0.1361 -1.9667
 5170TIP3   OH215515   6.209   0.717   4.922  0.2583  0.6478  0.0913
 5170TIP3    H115516   6.143   0.778   4.956 -0.4690  0.3792 -0.8156
 5170TIP3    H215517   6.204   0.641   4.980  0.7067  1.1674  0.8252
 5171TIP3   OH215518   3.850   4.157   4.159 -0.7540  0.3698 -0.6387
 5171TIP3    H115519   3.905   4.195   4.090 -1.6755  0.6732 -1.2245
 5171TIP3    H215520   3.779   4.113   4.112 -1.2770  0.3800  0.1192
 5172TIP3   OH215521   5.653   0.512   2.335 -0.3557  0.6235 -0.2056
 5172TIP3    H115522   5.728   0.564   2.364 -0.5256  0.3779  0.7161
 5172TIP3    H215523   5.634   0.455   2.409 -0.5459 -0.3387 -0.9810
 5173TIP3   OH215524   5.503   5.755   4.752 -0.3373  0.2565  0.6068
 5173TIP3    H115525   5.551   5.677   4.778 -0.4850  0.3191  1.0735
 5173TIP3    H215526   5.571   5.820   4.734 -0.2148  0.0272  0.2242
 5174TIP3   OH215527   0.550   0.243   5.018 -0.2406  0.3591  0.5157
 5174TIP3    H115528   0.587   0.178   5.077  1.5329  1.3404  0.5357
 5174TIP3    H215529   0.468   0.203   4.988  0.6136 -1.7411  0.7756
 5175TIP3   OH215530   3.599   3.877   0.383  0.2097 -0.0026 -0.4449
 5175TIP3    H115531   3.691   3.904   0.390  0.1859 -0.2954  1.7188
 5175TIP3    H215532   3.599   3.812   0.314  1.7989 -0.5304 -0.0017
 5176TIP3   OH215533   4.621   1.429   3.184  0.1848  0.0184  0.0425
 5176TIP3    H115534   4.587   1.341   3.195  1.1565 -0.1883  1.6556
 5176TIP3    H215535   4.544   1.483   3.171 -0.4144 -1.0687 -1.1428
 5177TIP3   OH215536   1.409   5.406   2.353  0.1952 -0.6679  0.0898
 5177TIP3    H115537   1.477   5.339   2.360  1.9289  0.7292 -1.9784
 5177TIP3    H215538   1.451   5.486   2.384 -1.5685 -0.3062  1.7409
 5178TIP3   OH215539   5.473   3.854   4.842  0.0945 -0.2027  0.3239
 5178TIP3    H115540   5.403   3.847   4.777 -0.0604  0.6598  0.3846
 5178TIP3    H215541   5.427   3.848   4.926  0.4357 -2.7911  0.4216
 5179TIP3   OH215542   6.007   5.116   0.617  0.2293 -0.0413 -0.6560
 5179TIP3    H115543   6.096   5.128   0.651 -0.0108  0.3438 -0.1615
 5179TIP3    H215544   5.957   5.085   0.691 -0.0939 -0.0821 -0.8915
 5180TIP3   OH215545   0.667   1.841   5.205  0.0383  0.1075 -0.0577
 5180TIP3    H115546   0.736   1.885   5.156 -0.9289  0.8288 -0.8295
 5180TIP3    H215547   0.586   1.881   5.173 -0.7311 -0.6113  0.9184
 5181TIP3   OH215548   5.880   5.183   1.747 -0.0119 -0.5129  0.5428
 5181TIP3    H115549   5.821   5.208   1.676 -0.1207 -1.6006  0.2283
 5181TIP3    H215550   5.829   5.195   1.827 -0.0243  0.3307  0.4110
 5182TIP3   OH215551   0.253   0.157   4.954  0.0799 -0.0389  0.2350
 5182TIP3    H115552   0.213   0.119   4.876 -0.7496 -0.5953  0.9097
 5182TIP3    H215553   0.218   0.246   4.958  1.0785  0.4062 -0.6869
 5183TIP3   OH215554   1.281   0.278   2.111  0.2850  0.0193 -0.0056
 5183TIP3    H115555   1.280   0.305   2.203 -0.8306 -1.9510  0.6145
 5183TIP3    H215556   1.360   0.224   2.103 -0.3608 -0.9822  0.1948
 5184TIP3   OH215557   0.165   2.985   4.604  0.0885 -0.5723 -0.2932
 5184TIP3    H115558   0.222   3.061   4.588  0.8960 -1.7185 -3.6724
 5184TIP3    H215559   0.176   2.967   4.697 -0.1081  3.3569  0.6724
 5185TIP3   OH215560   4.070   0.685   4.507 -0.3960  0.4711 -0.3864
 5185TIP3    H115561   4.030   0.722   4.586 -1.8223 -2.3432  0.3770
 5185TIP3    H215562   4.001   0.691   4.440 -0.9307 -1.2045 -0.0556
 5186TIP3   OH215563   0.249   3.333   3.596  0.0996 -0.2072 -0.2387
 5186TIP3    H115564   0.267   3.376   3.513 -1.1003 -0.4352 -0.6373
 5186TIP3    H215565   0.264   3.240   3.578  0.6915 -0.1693  0.0486
 5187TIP3   OH215566   5.373   4.868   1.170  0.6710 -0.7353 -0.1784
 5187TIP3    H115567   5.330   4.949   1.142  1.2998 -0.8396 -1.5542
 5187TIP3    H215568   5.443   4.897   1.228  0.9977 -0.2647 -0.7912
 5188TIP3   OH215569   3.651   4.321   1.269 -0.0947  0.2259 -0.2866
 5188TIP3    H115570   3.736   4.325   1.226  0.7597  2.0982  1.4214
 5188TIP3    H215571   3.588   4.344   1.201  1.0244  1.4331 -0.9512
 5189TIP3   OH215572   1.778   0.648   1.155 -0.2610 -0.9332  0.0889
 5189TIP3    H115573   1.812   0.712   1.217 -0.3809 -0.1913 -0.6021
 5189TIP3    H215574   1.684   0.666   1.150 -0.3505 -1.3775  0.1387
 5190TIP3   OH215575   2.121   1.554   1.795 -0.0326 -0.2393 -0.4196
 5190TIP3    H115576   2.136   1.632   1.848  0.7306 -1.3971  1.1476
 5190TIP3    H215577   2.026   1.551   1.785 -0.1163  0.5699  0.0076
 5191TIP3   OH215578   5.192   3.989   1.162 -0.3365 -0.6663  0.5325
 5191TIP3    H115579   5.138   4.041   1.102 -1.1966 -1.1412  0.8809
 5191TIP3    H215580   5.278   3.984   1.118 -0.6868 -0.2522 -0.2266
 5192TIP3   OH215581   4.774   3.325   0.232  0.3593 -0.3378  0.5373
 5192TIP3    H115582   4.861   3.328   0.270  0.9920 -0.6960 -0.8220
 5192TIP3    H215583   4.767   3.238   0.193  0.0902  0.2730 -0.8824
 5193TIP3   OH215584   5.256   0.346   2.191  0.4344 -0.1390 -0.0765
 5193TIP3    H115585   5.335   0.392   2.163  1.1745 -1.7224 -0.7038
 5193TIP3    H215586   5.271   0.324   2.283 -0.1437  1.2517  0.3842
 5194TIP3   OH215587   6.245   5.386   2.381 -0.0974 -0.3605  1.4725
 5194TIP3    H115588   6.313   5.451   2.369 -1.2499  0.8815  1.4367
 5194TIP3    H215589   6.243   5.369   2.475 -0.0574 -0.0619  1.5260
 5195TIP3   OH215590   2.244   1.933   0.852  0.5636  0.2490 -0.3911
 5195TIP3    H115591   2.165   1.959   0.804  1.2025  0.2640 -1.4803
 5195TIP3    H215592   2.230   1.840   0.873  1.0322 -0.2962 -2.2690
 5196TIP3   OH215593   0.903   4.911   1.975 -0.3614  0.1100  0.8959
 5196TIP3    H115594   0.918   4.926   2.068 -1.7311  0.8180  1.0333
 5196TIP3    H215595   0.990   4.910   1.936  0.2153  0.0637  2.1405
 5197TIP3   OH215596   1.367   2.405   0.918  0.4381 -0.5325  0.7867
 5197TIP3    H115597   1.375   2.311   0.901  0.0337 -0.3887 -0.2753
 5197TIP3    H215598   1.280   2.429   0.885  0.5225  0.2109  1.0716
 5198TIP3   OH215599   2.140   1.824   5.037 -0.3458  0.5495 -0.2649
 5198TIP3    H115600   2.146   1.806   4.944 -0.9013 -3.8579  0.3521
 5198TIP3    H215601   2.087   1.753   5.072  2.6420 -0.0267  3.8720
 5199TIP3   OH215602   2.778   3.082   2.734 -0.4039  0.5108  0.0645
 5199TIP3    H115603   2.720   3.158   2.735 -1.0789  0.0118  0.1436
 5199TIP3    H215604   2.718   3.007   2.737  0.2638 -0.0117  0.7301
 5200TIP3   OH215605   5.899   4.479   1.562 -0.1425 -0.5752  0.2229
 5200TIP3    H115606   5.857   4.500   1.479  0.4876 -1.6714 -0.3934
 5200TIP3    H215607   5.978   4.431   1.538  0.3251 -0.4460  1.4410
 5201TIP3   OH215608   5.047   4.173   2.087  0.2363  0.2786  0.0339
 5201TIP3    H115609   5.022   4.082   2.069 -3.2184  1.0324  0.2996
 5201TIP3    H215610   5.057   4.176   2.182 -0.3028  0.3146  0.0900
 5202TIP3   OH215611   4.242   3.142   4.280 -0.5537  0.5187 -0.1583
 5202TIP3    H115612   4.181   3.094   4.336 -0.3792  1.3371  0.7574
 5202TIP3    H215613   4.252   3.226   4.323  1.1315  0.4473 -0.3628
 5203TIP3   OH215614   4.593   2.386   2.488 -0.6633  0.1748  0.1032
 5203TIP3    H115615   4.502   2.366   2.466  0.3885 -2.2748 -2.7783
 5203TIP3    H215616   4.615   2.322   2.555 -1.3155  1.5832  1.7343
 5204TIP3   OH215617   6.265   2.743   0.403  0.3796  0.1107  0.3987
 5204TIP3    H115618   6.254   2.770   0.494  0.6523  0.2139  0.3987
 5204TIP3    H215619   6.242   2.820   0.351  0.5735  0.1600  0.3868
 5205TIP3   OH215620   6.101   4.015   5.032 -0.1327  0.5841 -0.7628
 5205TIP3    H115621   6.171   3.958   5.062  2.3534  3.3313 -0.9074
 5205TIP3    H215622   6.046   4.027   5.110  0.4294 -0.3754 -0.1960
 5206TIP3   OH215623   4.564   4.167   0.364  0.3343  0.6590 -0.1495
 5206TIP3    H115624   4.592   4.256   0.382  0.4434  0.2587  1.9654
 5206TIP3    H215625   4.494   4.151   0.428  0.6963 -0.9264 -0.1013
 5207TIP3   OH215626   6.006   5.500   2.542  0.1883 -0.8590  0.4825
 5207TIP3    H115627   6.052   5.584   2.534 -1.1359 -0.1646 -0.0665
 5207TIP3    H215628   5.959   5.491   2.459 -1.5945 -0.9850  1.4583
 5208TIP3   OH215629   1.271   0.486   4.018 -0.5952 -0.8615 -0.4535
 5208TIP3    H115630   1.358   0.465   4.052  0.3383  1.7617 -0.9844
 5208TIP3    H215631   1.220   0.510   4.095 -0.5061 -1.3141 -0.2523
 5209TIP3   OH215632   3.955   4.292   3.952 -0.1196 -0.7243 -0.1805
 5209TIP3    H115633   4.037   4.339   3.963 -1.1125  1.0893 -0.1539
 5209TIP3    H215634   3.975   4.225   3.886  0.7580  1.3712 -2.2021
 5210TIP3   OH215635   0.452   3.646   2.068 -0.7523  0.0296 -0.1028
 5210TIP3    H115636   0.404   3.715   2.023 -1.6392  0.0768  0.8613
 5210TIP3    H215637   0.493   3.690   2.143  0.6132 -0.0626 -0.7599
 5211TIP3   OH215638   3.204   4.609   2.565 -0.3555 -0.0321 -0.2814
 5211TIP3    H115639   3.279   4.556   2.590  0.3028  0.8696 -0.2848
 5211TIP3    H215640   3.138   4.546   2.538 -0.7205 -1.0422  2.5909
 5212TIP3   OH215641   0.434   4.185   2.876  0.0431  0.0671  0.5828
 5212TIP3    H115642   0.423   4.092   2.858  1.7571 -0.8373  3.4630
 5212TIP3    H215643   0.378   4.201   2.952 -0.8838  1.6593 -0.3729
 5213TIP3   OH215644   3.692   3.587   3.867  1.1986 -0.2386  0.2841
 5213TIP3    H115645   3.681   3.549   3.954  0.3380  0.3246  0.4368
 5213TIP3    H215646   3.610   3.567   3.822  1.6504 -0.5553 -0.4170
 5214TIP3   OH215647   2.508   3.494   4.861 -0.3156 -0.8346  1.0472
 5214TIP3    H115648   2.414   3.485   4.845 -0.4805  2.1780 -0.5014
 5214TIP3    H215649   2.544   3.516   4.775  1.4846  0.0201  1.9834
 5215TIP3   OH215650   5.019   5.336   3.493 -0.2704 -0.0217 -0.3579
 5215TIP3    H115651   5.026   5.251   3.450  0.0953  0.9149 -2.2494
 5215TIP3    H215652   5.041   5.400   3.425  1.0701  1.5262  1.4117
 5216TIP3   OH215653   5.337   2.635   5.156 -0.2525 -0.3169  0.3729
 5216TIP3    H115654   5.280   2.572   5.201 -1.6198  0.7862  0.2479
 5216TIP3    H215655   5.283   2.668   5.084  1.6976 -1.7006 -1.9007
 5217TIP3   OH215656   2.926   1.280   3.640  0.0251  0.3906 -0.2988
 5217TIP3    H115657   2.830   1.280   3.646 -0.0819  0.1956 -1.6351
 5217TIP3    H215658   2.947   1.366   3.604  0.5011  1.0583  1.4560
 5218TIP3   OH215659   2.835   2.551   2.568 -0.3507  0.2391 -0.2397
 5218TIP3    H115660   2.927   2.536   2.587 -0.8485 -1.7668  0.9259
 5218TIP3    H215661   2.831   2.557   2.473  0.9043 -0.3887 -0.3561
 5219TIP3   OH215662   4.327   1.097   3.694 -0.1393 -0.8235  0.4330
 5219TIP3    H115663   4.347   1.092   3.601  0.7027 -1.9492  0.6625
 5219TIP3    H215664   4.369   1.178   3.723 -0.2464 -0.5626 -0.1184
 5220TIP3   OH215665   2.186   0.583   4.149 -0.2095  0.6870 -0.3221
 5220TIP3    H115666   2.193   0.559   4.057  0.8241 -0.0063 -0.0767
 5220TIP3    H215667   2.187   0.500   4.197 -0.3218  1.0537  0.3375
 5221TIP3   OH215668   5.814   1.329   2.262  0.5455  0.5558  0.3289
 5221TIP3    H115669   5.741   1.390   2.254 -1.3183 -1.5851 -0.0874
 5221TIP3    H215670   5.825   1.315   2.356 -0.7154 -0.3141  0.3723
 5222TIP3   OH215671   3.884   1.884   2.340 -0.4439  0.1575 -0.1442
 5222TIP3    H115672   3.798   1.926   2.336  0.0171  1.0370 -2.5378
 5222TIP3    H215673   3.879   1.814   2.276  0.6658  0.3318 -0.4371
 5223TIP3   OH215674   4.354   4.228   1.680  0.8812 -0.3671 -0.1297
 5223TIP3    H115675   4.377   4.230   1.587 -1.3918  0.6312 -0.7221
 5223TIP3    H215676   4.294   4.154   1.689  1.0727 -0.4495  0.5606
 5224TIP3   OH215677   1.597   4.206   3.369 -0.3215 -0.7202 -0.2145
 5224TIP3    H115678   1.668   4.265   3.344  0.5821 -1.1298  1.2876
 5224TIP3    H215679   1.596   4.208   3.464 -1.1150 -2.1505 -0.1582
 5225TIP3   OH215680   2.844   4.039   1.075  0.2570 -0.1056  0.3055
 5225TIP3    H115681   2.768   3.981   1.076  0.4069 -0.3130  1.1460
 5225TIP3    H215682   2.901   4.003   1.144  0.2659  1.1530  0.9851
 5226TIP3   OH215683   4.397   0.175   1.186 -0.5647  0.2752 -0.3184
 5226TIP3    H115684   4.313   0.219   1.191 -1.5370 -1.5368  0.0001
 5226TIP3    H215685   4.389   0.101   1.246  0.0076 -1.9109 -2.7790
 5227TIP3   OH215686   0.950   0.357   5.156  0.2292  0.1513 -0.2896
 5227TIP3    H115687   0.913   0.432   5.111 -0.2963 -0.2152 -0.4704
 5227TIP3    H215688   0.987   0.394   5.237 -3.3390  0.1443  1.5165
 5228TIP3   OH215689   5.836   3.499   3.781  0.0333 -0.3277 -0.4942
 5228TIP3    H115690   5.771   3.539   3.838  1.5453  0.5350  0.7206
 5228TIP3    H215691   5.856   3.566   3.716  0.4669 -0.1848 -0.2175
 5229TIP3   OH215692   4.907   1.237   3.816 -0.3779 -0.1604 -0.1598
 5229TIP3    H115693   4.887   1.149   3.847 -1.0144  1.0383  3.2672
 5229TIP3    H215694   4.915   1.290   3.896  2.3453  2.4501 -1.9274
 5230TIP3   OH215695   5.505   5.369   1.218  0.3759  0.7480  0.0975
 5230TIP3    H115696   5.535   5.298   1.162 -0.4441  1.1950 -0.9499
 5230TIP3    H215697   5.581   5.392   1.271  1.0712  0.0646 -0.5852
 5231TIP3   OH215698   1.771   2.330   5.083 -0.4838  0.2557  0.2659
 5231TIP3    H115699   1.832   2.256   5.089  0.0774  0.6593 -0.3014
 5231TIP3    H215700   1.729   2.334   5.169  0.9403  0.5153  0.9778
 5232TIP3   OH215701   1.915   5.488   0.129 -0.3585  0.4275  0.7484
 5232TIP3    H115702   1.839   5.431   0.134  0.3189 -0.5401  0.3069
 5232TIP3    H215703   1.971   5.448   0.062  0.7994  0.7930  1.4593
 5233TIP3   OH215704   6.186   5.704   3.956  0.1780  0.1648 -0.8336
 5233TIP3    H115705   6.195   5.690   3.862 -2.5981  0.6050 -1.2304
 5233TIP3    H215706   6.106   5.658   3.981  1.4115 -0.8550  1.5676
 5234TIP3   OH215707   1.925   3.125   2.167 -0.2726 -0.6459 -0.6028
 5234TIP3    H115708   1.906   3.074   2.245  0.3194 -0.0979 -0.0837
 5234TIP3    H215709   1.857   3.192   2.165  0.8901  0.6478  0.6499
 5235TIP3   OH215710   1.190   3.646   5.128 -0.0857 -0.5346 -0.1401
 5235TIP3    H115711   1.172   3.737   5.104  0.1184 -0.8828 -1.7144
 5235TIP3    H215712   1.161   3.639   5.219 -1.2451  0.7757 -0.3818
 5236TIP3   OH215713   6.176   3.307   2.202  0.0795 -0.3192 -0.5608
 5236TIP3    H115714   6.188   3.268   2.288  1.2426  2.1572  0.5215
 5236TIP3    H215715   6.123   3.244   2.154 -0.6752 -1.7729  1.9707
 5237TIP3   OH215716   3.089   4.779   4.408  0.4920 -0.6164  0.2988
 5237TIP3    H115717   3.069   4.755   4.498 -1.3781 -0.9470 -0.1495
 5237TIP3    H215718   3.046   4.711   4.355 -1.8051  1.6025 -0.9174
 5238TIP3   OH215719   1.002   5.083   0.063 -0.0217 -0.9729 -0.7990
 5238TIP3    H115720   0.968   5.038   0.140  0.7309 -1.8048 -0.9313
 5238TIP3    H215721   0.959   5.169   0.064  0.5745 -0.6489  0.9807
 5239TIP3   OH215722   6.216   0.385   2.268  0.4785 -0.0666  0.2579
 5239TIP3    H115723   6.134   0.339   2.246  0.5924  0.3692 -1.1530
 5239TIP3    H215724   6.226   0.371   2.362 -2.2004  1.4421  0.8666
 5240TIP3   OH215725   0.644   3.648   1.725  0.2464  0.1319  0.1234
 5240TIP3    H115726   0.612   3.713   1.786 -1.5028 -1.2436  0.7457
 5240TIP3    H215727   0.590   3.659   1.647  0.5823  0.0377 -0.1261
 5241TIP3   OH215728   3.448   0.259   0.177  0.1459  0.3116  0.0634
 5241TIP3    H115729   3.434   0.257   0.272  0.6431 -0.9722  0.1359
 5241TIP3    H215730   3.542   0.270   0.166  0.6771 -3.1987 -0.1453
 5242TIP3   OH215731   2.441   0.057   3.110  0.0671 -0.6719 -0.0033
 5242TIP3    H115732   2.460   0.040   3.018  1.1249 -2.4499  0.4894
 5242TIP3    H215733   2.508   0.120   3.137 -1.2815  1.1948 -0.8181
 5243TIP3   OH215734   0.291   4.653   4.098 -0.2312  0.7121 -0.4067
 5243TIP3    H115735   0.253   4.611   4.175  3.2952  0.5858  1.4713
 5243TIP3    H215736   0.301   4.745   4.123  1.6078  0.5379 -0.3188
 5244TIP3   OH215737   1.261   4.894   1.401  0.4696 -0.0529 -0.0098
 5244TIP3    H115738   1.320   4.932   1.466  0.3641 -0.6698  0.4569
 5244TIP3    H215739   1.320   4.858   1.335  0.5746  0.6791 -0.3258
 5245TIP3   OH215740   1.557   5.991   1.353 -0.1332  0.4911  0.0899
 5245TIP3    H115741   1.487   5.948   1.304 -0.9271  0.6098  1.1000
 5245TIP3    H215742   1.526   5.993   1.443 -0.0230  2.9086  0.1499
 5246TIP3   OH215743   0.150   4.559   4.323  0.1885 -0.4357  0.1751
 5246TIP3    H115744   0.059   4.589   4.322 -0.6087 -2.6517  0.1983
 5246TIP3    H215745   0.174   4.558   4.416  0.7689  1.5095  0.0820
 5247TIP3   OH215746   1.647   1.790   2.835 -0.0098  0.8392 -0.0347
 5247TIP3    H115747   1.619   1.700   2.816 -0.5445  0.7492  1.0412
 5247TIP3    H215748   1.614   1.842   2.762 -0.4853  0.2838 -0.2226
 5248TIP3   OH215749   1.122   5.617   4.989 -0.0505 -0.2578  0.0032
 5248TIP3    H115750   1.100   5.649   5.076  1.1051  0.0694  0.1839
 5248TIP3    H215751   1.062   5.544   4.975 -1.4374  0.7800  0.3458
 5249TIP3   OH215752   4.587   5.414   5.170 -0.3308 -0.7895  0.0217
 5249TIP3    H115753   4.583   5.392   5.077  2.0496 -0.4259 -0.2210
 5249TIP3    H215754   4.540   5.498   5.177 -0.1034 -0.5728 -0.9354
 5250TIP3   OH215755   1.956   2.511   4.028 -0.4494  0.2238 -0.8845
 5250TIP3    H115756   1.879   2.566   4.046 -1.4679 -1.7949  1.4124
 5250TIP3    H215757   1.972   2.464   4.109  1.8686 -1.1365 -2.0182
 5251TIP3   OH215758   6.303   0.732   4.419  0.3179 -0.4678  0.1206
 5251TIP3    H115759   6.382   0.747   4.470 -0.2234  1.7843  0.4021
 5251TIP3    H215760   6.327   0.755   4.329 -0.0223  0.3584  0.2296
 5252TIP3   OH215761   3.024   5.821   4.494  0.9046  0.0539 -0.2680
 5252TIP3    H115762   2.963   5.856   4.430  1.2438 -1.8706 -1.7403
 5252TIP3    H215763   3.094   5.886   4.500 -0.9870  2.0989  1.1432
 5253TIP3   OH215764   6.308   1.795   4.780  0.1273  0.0661 -0.1754
 5253TIP3    H115765   6.373   1.816   4.713 -0.4936  1.5285 -0.3434
 5253TIP3    H215766   6.245   1.867   4.777 -0.0574  0.0565  1.8020
 5254TIP3   OH215767   5.368   3.762   2.583 -0.3589 -0.0143  0.1561
 5254TIP3    H115768   5.363   3.719   2.498  2.0259 -0.6906  0.2961
 5254TIP3    H215769   5.395   3.852   2.563  3.7299 -1.0395  0.2224
 5255TIP3   OH215770   6.248   5.187   1.811  0.2445 -0.3629  0.6177
 5255TIP3    H115771   6.310   5.115   1.805 -0.3679 -0.8614  0.1016
 5255TIP3    H215772   6.162   5.145   1.817  0.0359  0.2774  3.2180
 5256TIP3   OH215773   4.416   4.357   5.021  0.2968  0.6948 -0.2447
 5256TIP3    H115774   4.378   4.402   5.096 -0.3021 -3.0776  1.9176
 5256TIP3    H215775   4.391   4.412   4.946 -1.3679  3.2290  1.9708
 5257TIP3   OH215776   0.261   4.429   3.029  0.3900 -0.2327  0.5237
 5257TIP3    H115777   0.248   4.440   3.123  0.7211 -1.2561  0.7061
 5257TIP3    H215778   0.285   4.337   3.019 -1.5193 -0.6506 -0.7748
 5258TIP3   OH215779   0.973   1.175   1.966 -0.5299  0.4157  0.1151
 5258TIP3    H115780   1.061   1.140   1.958 -0.8453 -0.1174 -1.1970
 5258TIP3    H215781   0.972   1.253   1.910  0.2381  2.8598  3.1737
 5259TIP3   OH215782   5.722   4.518   2.840  0.2958 -0.2550 -0.4700
 5259TIP3    H115783   5.814   4.518   2.866  0.6650 -0.4442 -1.6793
 5259TIP3    H215784   5.725   4.501   2.746 -1.0343 -1.4881 -0.3153
 5260TIP3   OH215785   2.029   4.344   3.037 -0.3102 -0.1535  0.8254
 5260TIP3    H115786   1.974   4.267   3.023  0.3245 -0.5300  0.3204
 5260TIP3    H215787   2.051   4.374   2.948  1.2537 -0.7206  0.9873
 5261TIP3   OH215788   1.665   3.608   3.562  0.2579  0.1634 -0.4582
 5261TIP3    H115789   1.634   3.529   3.516  2.4112 -1.1446  0.2102
 5261TIP3    H215790   1.586   3.645   3.600 -1.1744 -0.3457 -2.6964
 5262TIP3   OH215791   4.454   3.814   1.352  0.4622  0.3091 -0.0382
 5262TIP3    H115792   4.359   3.828   1.358  0.4213  0.6360 -1.1355
 5262TIP3    H215793   4.471   3.808   1.258  1.5089  0.0592  0.1534
 5263TIP3   OH215794   4.595   2.526   4.324 -0.2454  0.1491 -0.3584
 5263TIP3    H115795   4.623   2.608   4.364 -1.1392  0.4077 -0.2322
 5263TIP3    H215796   4.614   2.537   4.231 -3.7681  2.1042 -1.0351
 5264TIP3   OH215797   2.562   0.792   1.881 -0.4396  0.5936 -0.4921
 5264TIP3    H115798   2.533   0.701   1.880  1.9807 -0.2599 -1.1968
 5264TIP3    H215799   2.482   0.843   1.871 -1.9287 -1.4171  0.3927
 5265TIP3   OH215800   1.135   0.157   1.774 -0.1685 -0.1306 -0.3848
 5265TIP3    H115801   1.068   0.101   1.815  1.7512 -2.5847 -0.3508
 5265TIP3    H215802   1.111   0.157   1.681 -1.7514  1.4033 -0.0408
 5266TIP3   OH215803   1.222   1.189   4.495  0.0956  0.1236 -0.0677
 5266TIP3    H115804   1.301   1.216   4.447  0.7589  0.7907  1.3593
 5266TIP3    H215805   1.247   1.193   4.587 -1.3409 -0.5610  0.3782
 5267TIP3   OH215806   3.257   4.184   4.613 -0.2042  0.6131 -0.1268
 5267TIP3    H115807   3.305   4.235   4.549  0.3384 -0.2539 -0.4235
 5267TIP3    H215808   3.304   4.101   4.619 -0.5320  0.4816  1.0206
 5268TIP3   OH215809   0.366   1.893   1.588 -0.0343 -0.2086  0.7445
 5268TIP3    H115810   0.330   1.908   1.500  0.3865  0.9362  0.7601
 5268TIP3    H215811   0.312   1.822   1.623 -1.4397  0.5928  0.2768
 5269TIP3   OH215812   3.428   5.416   0.314 -0.1574  0.4911  0.5724
 5269TIP3    H115813   3.457   5.401   0.404 -0.3682 -0.1186  0.5421
 5269TIP3    H215814   3.373   5.495   0.320  0.1682  0.6952  0.9022
 5270TIP3   OH215815   5.852   3.238   0.849 -0.4470 -0.0685  0.2394
 5270TIP3    H115816   5.929   3.271   0.895  0.2158 -2.2273  0.7998
 5270TIP3    H215817   5.788   3.308   0.855  1.0143  1.2503  0.9471
 5271TIP3   OH215818   0.651   2.824   1.075  0.0036  0.6325  0.5203
 5271TIP3    H115819   0.732   2.777   1.093  0.4477  1.4249  0.6117
 5271TIP3    H215820   0.640   2.883   1.149 -1.3128 -0.3215  1.1390
 5272TIP3   OH215821   5.272   4.126   4.824 -0.1126  0.1330  0.3623
 5272TIP3    H115822   5.250   4.054   4.764 -1.6229  0.8154  0.0616
 5272TIP3    H215823   5.187   4.163   4.849  0.4997  0.1633  2.5865
 5273TIP3   OH215824   0.565   4.588   3.969  0.0089 -0.1656  0.1453
 5273TIP3    H115825   0.477   4.552   3.979 -0.1849  0.4012  0.5118
 5273TIP3    H215826   0.581   4.636   4.049  0.8126 -0.5760  0.2413
 5274TIP3   OH215827   2.681   4.279   0.599 -0.1884  0.2668  0.0999
 5274TIP3    H115828   2.672   4.219   0.526  1.2277 -0.9704  0.8862
 5274TIP3    H215829   2.635   4.236   0.672  0.1943  0.4860  0.4768
 5275TIP3   OH215830   0.741   0.823   1.383 -0.1552 -0.0710  0.3499
 5275TIP3    H115831   0.736   0.783   1.296 -1.5653 -1.5728  1.0871
 5275TIP3    H215832   0.774   0.912   1.366  0.0696 -0.4907 -1.6537
 5276TIP3   OH215833   1.597   4.702   3.577  0.5760  0.0070  0.9403
 5276TIP3    H115834   1.688   4.679   3.598  1.2435 -0.1212 -1.7092
 5276TIP3    H215835   1.587   4.677   3.485 -2.4594 -0.8390  1.4091
 5277TIP3   OH215836   0.278   4.569   2.224  0.1569  0.5384  0.7821
 5277TIP3    H115837   0.329   4.631   2.277 -0.6515  0.4162  1.7430
 5277TIP3    H215838   0.194   4.613   2.209  0.3159  0.4987 -0.2699
 5278TIP3   OH215839   1.991   3.212   1.236 -0.0846 -0.1227 -0.4808
 5278TIP3    H115840   2.004   3.117   1.241 -0.8695 -0.2032  0.2320
 5278TIP3    H215841   1.900   3.226   1.263 -0.0116  0.8256 -0.6822
 5279TIP3   OH215842   0.323   3.851   4.760  0.0146  0.2522  0.4925
 5279TIP3    H115843   0.235   3.815   4.758  0.1013  0.0447  0.3510
 5279TIP3    H215844   0.324   3.916   4.689  0.0683  0.0292  0.2857
 5280TIP3   OH215845   1.266   3.542   3.493 -0.0060  0.5488  0.1937
 5280TIP3    H115846   1.176   3.511   3.485 -0.7901  2.6567  0.2213
 5280TIP3    H215847   1.304   3.528   3.406 -0.5790  0.2382 -0.0085
 5281TIP3   OH215848   2.021   5.173   0.723  0.0415  0.2310  0.1888
 5281TIP3    H115849   2.026   5.175   0.628  1.6036 -1.4983  0.1668
 5281TIP3    H215850   2.083   5.241   0.752  0.1977  0.1860 -0.0397
 5282TIP3   OH215851   3.936   5.046   0.595 -0.1409  0.1975 -0.2620
 5282TIP3    H115852   4.025   5.077   0.610 -0.3591  0.3539  0.7971
 5282TIP3    H215853   3.943   4.987   0.520  0.4017  2.1916 -1.8614
 5283TIP3   OH215854   3.539   5.499   4.262  0.7629 -0.0199 -0.0026
 5283TIP3    H115855   3.499   5.436   4.322 -1.9565 -0.6166 -2.2311
 5283TIP3    H215856   3.605   5.448   4.215  0.4774 -0.4790  0.0849
 5284TIP3   OH215857   1.000   4.297   3.247 -0.3095  0.0673  0.3920
 5284TIP3    H115858   1.029   4.273   3.159 -1.3333 -1.1493  0.3604
 5284TIP3    H215859   1.077   4.339   3.287  0.9006 -1.4206 -0.2836
 5285TIP3   OH215860   4.947   2.811   3.253  0.1068  0.2047  0.0172
 5285TIP3    H115861   4.891   2.817   3.331  0.9964  0.0018  0.6948
 5285TIP3    H215862   5.022   2.758   3.281 -0.2648 -1.1697 -1.4281
 5286TIP3   OH215863   5.080   4.764   1.442  0.3498  0.1548  0.0300
 5286TIP3    H115864   5.141   4.698   1.476  1.0402 -1.1431 -3.3135
 5286TIP3    H215865   5.116   4.848   1.471  1.5430 -0.7429  1.2996
 5287TIP3   OH215866   2.942   1.414   1.653  0.5037  0.2008 -0.1924
 5287TIP3    H115867   2.980   1.371   1.576 -0.9623 -0.1844 -0.7258
 5287TIP3    H215868   2.907   1.342   1.706 -1.1265  0.6409 -0.6332
 5288TIP3   OH215869   2.909   1.727   1.662  0.1556 -0.0838 -0.1437
 5288TIP3    H115870   2.876   1.816   1.672 -1.2610 -0.1856 -2.8030
 5288TIP3    H215871   2.899   1.709   1.568  1.9806 -2.4595  0.0201
 5289TIP3   OH215872   0.251   3.794   2.459  0.2096  0.4100  0.3132
 5289TIP3    H115873   0.245   3.886   2.486  0.7312  0.4688  0.2515
 5289TIP3    H215874   0.344   3.773   2.470 -0.1021 -0.4559  1.4445
 5290TIP3   OH215875   1.741   3.057   1.004  0.2246 -0.1975 -0.2760
 5290TIP3    H115876   1.684   3.078   0.931 -0.3078  0.8067  0.3994
 5290TIP3    H215877   1.819   3.017   0.964 -0.3012 -0.1902 -1.3243
 5291TIP3   OH215878   1.746   1.547   4.519  0.4310  0.2722 -0.6884
 5291TIP3    H115879   1.750   1.452   4.504 -2.0202 -0.1758  0.9747
 5291TIP3    H215880   1.772   1.585   4.435  1.9244 -1.8371 -1.2701
 5292TIP3   OH215881   0.372   1.722   0.208  0.6069  0.2933 -0.0345
 5292TIP3    H115882   0.352   1.808   0.244  0.8601 -0.1478  1.2105
 5292TIP3    H215883   0.287   1.686   0.183  0.4157  0.5684  0.2092
 5293TIP3   OH215884   3.927   2.471   2.952  0.0053  0.1062  0.0363
 5293TIP3    H115885   3.987   2.406   2.990  0.3752 -0.8559 -2.0508
 5293TIP3    H215886   3.846   2.461   3.002  0.9029 -0.0682  1.5089
 5294TIP3   OH215887   4.340   4.917   3.542 -0.0333 -0.2115 -0.1865
 5294TIP3    H115888   4.303   4.944   3.458  0.0115 -0.5320 -0.3145
 5294TIP3    H215889   4.414   4.861   3.517  0.6641  0.5819  0.0594
 5295TIP3   OH215890   5.655   1.408   2.688  0.1592 -0.0412 -0.3639
 5295TIP3    H115891   5.689   1.332   2.735  1.3091  0.0460 -1.0042
 5295TIP3    H215892   5.572   1.428   2.730  0.5310 -0.7734  0.7487
 5296TIP3   OH215893   3.579   2.877   0.525 -0.2195  0.1047  0.2328
 5296TIP3    H115894   3.498   2.917   0.555 -0.7325 -1.3935  0.9328
 5296TIP3    H215895   3.569   2.783   0.544  0.7880 -0.4486 -1.6361
 5297TIP3   OH215896   3.176   2.030   0.364  0.4374 -0.1099  0.5315
 5297TIP3    H115897   3.203   2.050   0.454  1.2426 -0.1835  0.3180
 5297TIP3    H215898   3.139   1.942   0.369  0.6699 -0.1965  0.7608
 5298TIP3   OH215899   1.849   3.761   0.522  0.7941 -0.2050 -0.0506
 5298TIP3    H115900   1.931   3.719   0.550  1.2922  0.2941 -0.7347
 5298TIP3    H215901   1.834   3.728   0.433  0.0456 -0.5709  0.1981
 5299TIP3   OH215902   3.996   5.143   2.183 -0.6067  0.7057 -0.0828
 5299TIP3    H115903   3.991   5.189   2.099  0.8287 -2.9817 -2.4367
 5299TIP3    H215904   3.904   5.130   2.208 -1.1925  0.0881 -2.2766
 5300TIP3   OH215905   2.143   1.653   2.737  0.8012 -0.4043  0.1128
 5300TIP3    H115906   2.158   1.699   2.819 -0.1984 -0.7097  0.4768
 5300TIP3    H215907   2.195   1.573   2.745  0.3209 -0.6663  0.6588
 5301TIP3   OH215908   3.929   3.529   3.500 -0.4030  0.8570 -0.1616
 5301TIP3    H115909   3.836   3.508   3.512 -0.1535 -0.5219 -0.4483
 5301TIP3    H215910   3.958   3.559   3.586 -0.5289 -1.2051  0.6662
 5302TIP3   OH215911   1.381   4.771   3.976  0.1579 -0.1823 -0.0592
 5302TIP3    H115912   1.418   4.842   3.923 -0.4715 -0.9012 -1.5166
 5302TIP3    H215913   1.301   4.807   4.012  1.6457  1.0436  2.2811
 5303TIP3   OH215914   4.374   4.612   4.315 -0.2140 -0.1446 -0.1766
 5303TIP3    H115915   4.459   4.631   4.276  0.3698 -2.4614 -0.1299
 5303TIP3    H215916   4.351   4.525   4.284 -0.3480 -1.5989  3.5012
 5304TIP3   OH215917   1.626   3.892   3.509  0.1146 -0.3560  0.0596
 5304TIP3    H115918   1.686   3.962   3.535 -0.3533 -0.4171  1.3775
 5304TIP3    H215919   1.683   3.821   3.481  0.5917  0.7229 -1.8280
 5305TIP3   OH215920   3.454   3.130   2.953  0.3115  0.3561  0.2919
 5305TIP3    H115921   3.491   3.054   2.998  0.6662  0.6308  0.4713
 5305TIP3    H215922   3.374   3.150   3.002 -0.4428 -0.6391 -0.4903
 5306TIP3   OH215923   2.732   1.603   4.171 -0.7954 -0.0626  0.2502
 5306TIP3    H115924   2.655   1.558   4.203 -1.0079 -0.2599 -0.5201
 5306TIP3    H215925   2.781   1.537   4.123 -1.0524  0.4788 -0.7932
 5307TIP3   OH215926   4.655   2.424   5.085  0.0986  0.1476 -0.1033
 5307TIP3    H115927   4.677   2.481   5.012  1.4609 -1.1059 -0.7316
 5307TIP3    H215928   4.720   2.353   5.081 -1.8881 -1.8220  0.2118
 5308TIP3   OH215929   5.528   3.933   0.474  0.7065 -0.6512  0.3304
 5308TIP3    H115930   5.527   3.841   0.500 -1.1404 -1.1108 -1.1604
 5308TIP3    H215931   5.446   3.946   0.426  0.6956  1.8937  0.8628
 5309TIP3   OH215932   6.195   2.483   1.110 -0.3282  0.2572  0.1982
 5309TIP3    H115933   6.136   2.419   1.149 -0.0108 -0.1142  0.0729
 5309TIP3    H215934   6.257   2.431   1.059  0.4660  0.6061  0.7982
 5310TIP3   OH215935   5.120   1.405   2.441 -0.0593  0.1299 -0.5393
 5310TIP3    H115936   5.072   1.375   2.364 -0.6018 -1.4190  0.3692
 5310TIP3    H215937   5.054   1.443   2.498 -0.4519 -2.6296  1.0216
 5311TIP3   OH215938   0.287   1.184   0.131  0.3436  0.0920 -0.0748
 5311TIP3    H115939   0.293   1.101   0.085 -0.7019  0.0608 -0.1853
 5311TIP3    H215940   0.337   1.171   0.212  0.8488 -0.3729 -0.4579
 5312TIP3   OH215941   5.282   3.565   0.187  0.0238 -0.4118  0.2705
 5312TIP3    H115942   5.371   3.560   0.151 -0.4796 -1.0118 -0.9026
 5312TIP3    H215943   5.291   3.626   0.261  0.9418  1.3443 -1.2158
 5313TIP3   OH215944   2.379   1.432   3.160 -0.3536 -0.4100  0.6363
 5313TIP3    H115945   2.342   1.363   3.105 -0.3650 -0.1219  0.2747
 5313TIP3    H215946   2.468   1.401   3.180 -0.3176 -0.4801  0.3809
 5314TIP3   OH215947   3.054   5.134   2.948 -0.1256 -0.2655  0.0799
 5314TIP3    H115948   3.023   5.158   2.861  0.1983 -1.1643 -0.2920
 5314TIP3    H215949   3.017   5.201   3.006 -0.3140  0.3598 -0.7443
 5315TIP3   OH215950   6.017  -0.011   2.186 -0.3304 -0.1795 -0.3238
 5315TIP3    H115951   5.978   0.076   2.181  2.4902  1.1634 -0.5979
 5315TIP3    H215952   6.051  -0.018   2.275  1.9957  0.2394 -1.1193
 5316TIP3   OH215953   4.141   5.830   5.002 -0.5637  0.0022 -0.2888
 5316TIP3    H115954   4.108   5.804   5.088 -0.6549  0.4374 -0.1922
 5316TIP3    H215955   4.235   5.843   5.016 -0.7837  1.3966  0.0756
 5317TIP3   OH215956   4.358   1.078   0.453 -0.2996 -0.0147  1.1922
 5317TIP3    H115957   4.276   1.126   0.456 -0.2920 -0.0291  2.0583
 5317TIP3    H215958   4.424   1.142   0.428 -0.8035 -0.3718 -1.2911
 5318TIP3   OH215959   0.434   1.501   0.529  0.3713  0.5541  0.3246
 5318TIP3    H115960   0.390   1.585   0.545 -2.1120 -0.1191 -2.2162
 5318TIP3    H215961   0.389   1.439   0.586 -2.3000 -0.1304 -2.2586
 5319TIP3   OH215962   5.623   5.445   2.093 -0.2732 -0.1149 -0.4490
 5319TIP3    H115963   5.615   5.539   2.113  1.7818  0.1734 -0.7172
 5319TIP3    H215964   5.644   5.405   2.177  1.4512  0.0917 -0.7367
 5320TIP3   OH215965   1.787   4.169   3.903 -0.1827 -0.2421  0.2440
 5320TIP3    H115966   1.750   4.257   3.913 -0.4679 -0.3439  0.1025
 5320TIP3    H215967   1.854   4.164   3.971  0.6011  0.4773 -0.4545
 5321TIP3   OH215968   2.345   5.327   3.005  0.1403  0.8575  0.1202
 5321TIP3    H115969   2.381   5.261   2.947  1.5788  0.9215  0.8927
 5321TIP3    H215970   2.419   5.385   3.025 -0.9076  2.2860  0.0327
 5322TIP3   OH215971   5.052   5.379   5.207  0.3936 -0.4093 -0.1623
 5322TIP3    H115972   4.996   5.393   5.130  0.7405  0.4692 -0.2749
 5322TIP3    H215973   5.132   5.426   5.186  0.2206  0.4699  1.0327
 5323TIP3   OH215974   0.504   3.310   4.189 -0.3077 -0.5943  0.0418
 5323TIP3    H115975   0.508   3.257   4.109  0.6924 -0.0440 -0.2936
 5323TIP3    H215976   0.594   3.340   4.202 -1.0383  2.1255 -0.5204
 5324TIP3   OH215977   5.551   2.999   4.742  0.0472  0.8143 -0.5650
 5324TIP3    H115978   5.636   3.034   4.770 -0.2900  0.9854  0.2677
 5324TIP3    H215979   5.548   3.018   4.648  1.4205 -0.2381 -0.8534
 5325TIP3   OH215980   3.387   0.436   0.811 -0.0024  0.0824 -0.1503
 5325TIP3    H115981   3.469   0.450   0.763 -0.4251  0.5277 -0.7643
 5325TIP3    H215982   3.343   0.521   0.807 -0.0055  0.1526  1.1232
 5326TIP3   OH215983   6.198   5.705   3.667  0.1643  0.9163 -0.2918
 5326TIP3    H115984   6.276   5.754   3.644  1.4172 -0.4463  0.8467
 5326TIP3    H215985   6.129   5.741   3.612  1.1312  3.5360  0.1017
 5327TIP3   OH215986   2.480   4.802   1.108  0.0432 -0.0727  0.2259
 5327TIP3    H115987   2.434   4.788   1.191  1.7805 -1.2605  1.0212
 5327TIP3    H215988   2.572   4.804   1.131  0.5502 -0.1172 -1.6525
 5328TIP3   OH215989   5.413   4.449   0.108  0.7049  0.3856 -0.0473
 5328TIP3    H115990   5.412   4.471   0.015 -1.7616 -0.4178 -0.2793
 5328TIP3    H215991   5.485   4.386   0.117 -0.5326 -1.4061 -1.9377
 5329TIP3   OH215992   4.413   2.641   1.251 -0.0166 -0.1436 -0.6517
 5329TIP3    H115993   4.436   2.554   1.217  1.5653  0.9443 -2.5858
 5329TIP3    H215994   4.358   2.623   1.327  1.3417 -2.8543 -0.1856
 5330TIP3   OH215995   4.136   1.924   1.812  0.2424  0.1859  0.0412
 5330TIP3    H115996   4.097   2.011   1.820 -0.8643  0.0979 -3.0007
 5330TIP3    H215997   4.206   1.936   1.748  1.0434 -0.9175  0.6890
 5331TIP3   OH215998   5.283   2.550   1.276  0.1228  0.1637  0.0386
 5331TIP3    H115999   5.329   2.580   1.354 -0.9131 -0.6333  0.9953
 5331TIP3    H216000   5.190   2.553   1.300 -0.3039  1.0520 -1.5901
 5332TIP3   OH216001   2.778   2.639   3.634 -0.0748 -0.3627 -0.1176
 5332TIP3    H116002   2.720   2.566   3.611 -0.1229 -0.0594 -0.9626
 5332TIP3    H216003   2.718   2.709   3.660 -0.0106 -1.0861  2.2187
 5333TIP3   OH216004   0.997   2.599   4.631 -0.2517  0.1349 -0.0989
 5333TIP3    H116005   0.946   2.680   4.624 -0.4656  0.1322  1.2511
 5333TIP3    H216006   0.989   2.559   4.544  0.0329  1.6518 -0.8682
 5334TIP3   OH216007   1.120   3.743   4.194  0.0548  0.0125 -0.0435
 5334TIP3    H116008   1.146   3.670   4.138 -1.5475 -0.5523 -0.1167
 5334TIP3    H216009   1.132   3.711   4.283 -2.7890 -1.2944 -0.0153
 5335TIP3   OH216010   1.514   3.763   0.158  0.6995 -0.6780 -0.1012
 5335TIP3    H116011   1.513   3.838   0.098  0.4755  1.9563  2.8966
 5335TIP3    H216012   1.421   3.744   0.173  0.7188 -0.3604  0.4524
 5336TIP3   OH216013   1.910   5.458   3.055  0.4247 -0.6030 -0.3641
 5336TIP3    H116014   1.916   5.451   3.150 -2.7360  0.7906  0.0615
 5336TIP3    H216015   1.869   5.376   3.027  1.1184 -0.9050 -0.5050
 5337TIP3   OH216016   5.261   1.333   4.078  0.0942 -0.4663  0.7366
 5337TIP3    H116017   5.225   1.248   4.055  0.2015 -0.1579 -0.6809
 5337TIP3    H216018   5.355   1.319   4.086 -0.0083 -0.6966  1.6252
 5338TIP3   OH216019   4.658   5.612   2.486  0.2824 -0.2740  0.0401
 5338TIP3    H116020   4.592   5.546   2.508 -0.4525  0.7095  0.9019
 5338TIP3    H216021   4.654   5.618   2.390 -0.3330 -0.7843  0.0247
 5339TIP3   OH216022   1.322   5.022   0.654 -0.2508  0.4615  0.3485
 5339TIP3    H116023   1.406   5.017   0.700 -0.1842 -0.3025  0.1428
 5339TIP3    H216024   1.294   5.113   0.668  1.4378  1.2624 -1.0422
 5340TIP3   OH216025   3.274   1.031   2.076  0.2977 -0.1893 -0.2741
 5340TIP3    H116026   3.214   1.079   2.020  0.1475  1.2603  1.0796
 5340TIP3    H216027   3.218   0.975   2.129  0.4060 -1.1714 -1.1515
 5341TIP3   OH216028   0.866   4.774   2.802  0.3062 -0.2234  0.0753
 5341TIP3    H116029   0.808   4.850   2.815 -0.4914 -1.0838  1.9611
 5341TIP3    H216030   0.954   4.810   2.816 -0.1100  0.2540  1.7513
 5342TIP3   OH216031   5.062   2.909   4.846 -0.0673  0.2217  0.2781
 5342TIP3    H116032   5.114   2.834   4.877  0.1844  0.2650 -0.0339
 5342TIP3    H216033   5.101   2.985   4.890  1.2498  0.4772 -1.2408
 5343TIP3   OH216034   1.818   3.019   2.400 -0.3189 -0.3998  0.5150
 5343TIP3    H116035   1.756   2.991   2.467 -0.3393  1.8090  1.5186
 5343TIP3    H216036   1.882   3.072   2.447  1.0057 -0.6708 -0.8809
 5344TIP3   OH216037   2.716   1.912   4.832 -0.6112  0.2949 -0.1015
 5344TIP3    H116038   2.811   1.928   4.832 -0.1920 -0.8665 -4.5727
 5344TIP3    H216039   2.698   1.875   4.919  3.3056 -0.7722  0.4560
 5345TIP3   OH216040   2.247   4.954   1.049  0.0729 -0.4234 -0.4954
 5345TIP3    H116041   2.324   4.904   1.075 -0.3407 -0.4136  0.8451
 5345TIP3    H216042   2.186   4.944   1.122 -0.5280  0.9567 -0.7624
 5346TIP3   OH216043   4.551   2.143   1.179  0.4503 -0.4811  0.5461
 5346TIP3    H116044   4.462   2.112   1.160  0.2202  1.6023 -2.4734
 5346TIP3    H216045   4.564   2.122   1.272 -2.1388 -3.2274  0.4525
 5347TIP3   OH216046   6.266   4.309   3.965 -0.0799  0.8382 -0.4801
 5347TIP3    H116047   6.278   4.356   3.883 -1.4076 -0.3541 -1.4045
 5347TIP3    H216048   6.238   4.377   4.027 -1.3364  1.4089 -1.6188
 5348TIP3   OH216049   2.737   3.397   3.697 -0.8324 -0.5817 -0.2399
 5348TIP3    H116050   2.684   3.464   3.741  0.7167 -0.6196  1.8000
 5348TIP3    H216051   2.780   3.445   3.625 -1.4251  0.0767 -0.1744
 5349TIP3   OH216052   0.526   3.334   0.670 -0.4584  0.0274 -0.1824
 5349TIP3    H116053   0.576   3.347   0.751 -1.0234  1.2310  0.0061
 5349TIP3    H216054   0.557   3.402   0.611  0.1060 -0.9803 -1.0899
 5350TIP3   OH216055   0.611   0.290   3.250  0.4879  0.0608  0.3592
 5350TIP3    H116056   0.685   0.350   3.251  0.7817 -0.2191 -1.2537
 5350TIP3    H216057   0.643   0.214   3.201 -0.8111 -0.1029 -0.2719
 5351TIP3   OH216058   0.284   4.346   0.642  0.4446  0.2105 -0.1646
 5351TIP3    H116059   0.299   4.436   0.668  1.2987  0.4245 -1.3000
 5351TIP3    H216060   0.320   4.293   0.713 -0.8321  0.7404  0.9105
 5352TIP3   OH216061   4.491   0.749   1.797 -0.4374 -0.1696  0.0421
 5352TIP3    H116062   4.550   0.714   1.864 -1.3569 -2.1807 -0.1318
 5352TIP3    H216063   4.527   0.716   1.714 -1.4069 -0.8475 -0.1215
 5353TIP3   OH216064   0.258   4.666   1.256 -0.2084 -0.2636  0.2756
 5353TIP3    H116065   0.258   4.666   1.161 -1.9755  1.5527  0.2062
 5353TIP3    H216066   0.208   4.744   1.280  0.4143 -0.5193  2.7011
 5354TIP3   OH216067   5.382   3.432   0.610 -0.3771  0.6206  0.0040
 5354TIP3    H116068   5.415   3.356   0.562  0.4653 -0.1707  1.7510
 5354TIP3    H216069   5.298   3.403   0.646  0.0756  0.3933  0.9064
 5355TIP3   OH216070   2.573   2.259   4.261  0.5526 -0.5210  0.5054
 5355TIP3    H116071   2.574   2.165   4.275  0.7206 -0.5392  0.3819
 5355TIP3    H216072   2.558   2.270   4.167  2.0258 -0.4636  0.2555
 5356TIP3   OH216073   5.760   0.002   3.024 -0.1432 -0.2744  0.6241
 5356TIP3    H116074   5.809  -0.022   3.102  0.0247 -1.2528  0.2339
 5356TIP3    H216075   5.722   0.088   3.045  2.3264  0.8997  0.6616
 5357TIP3   OH216076   2.143   3.700   3.906 -0.4652 -0.1856  0.2189
 5357TIP3    H116077   2.116   3.790   3.889  2.1780  0.6254 -0.0628
 5357TIP3    H216078   2.179   3.702   3.994  1.1895 -0.5340 -0.4188
 5358TIP3   OH216079   5.424   4.191   5.077  0.1114 -0.0088 -0.2954
 5358TIP3    H116080   5.514   4.225   5.077 -0.0283  0.3695 -0.1809
 5358TIP3    H216081   5.396   4.199   4.986  0.2353 -0.2463 -0.3563
 5359TIP3   OH216082   4.580   4.310   4.693  0.3385  0.2808  0.3093
 5359TIP3    H116083   4.536   4.279   4.615 -0.1808 -0.2739  0.8098
 5359TIP3    H216084   4.531   4.387   4.720  0.0498  0.0354  0.5028
 5360TIP3   OH216085   4.719   1.465   0.800 -0.0551  0.1874 -0.1989
 5360TIP3    H116086   4.767   1.455   0.718 -4.4102 -2.9002 -2.7702
 5360TIP3    H216087   4.658   1.537   0.784 -1.6622 -1.1207 -0.1304
 5361TIP3   OH216088   2.944   5.326   2.241 -0.2663  0.3192  0.0683
 5361TIP3    H116089   2.932   5.265   2.168 -0.4351  0.2040  0.1917
 5361TIP3    H216090   2.887   5.400   2.221  1.5590  1.4755 -1.2041
 5362TIP3   OH216091   0.821   0.720   3.939 -0.1349  0.0094 -0.4868
 5362TIP3    H116092   0.827   0.816   3.937  0.9212 -0.0163  0.1550
 5362TIP3    H216093   0.879   0.694   4.012 -1.2498 -1.0617  0.0550
 5363TIP3   OH216094   5.231   3.631   1.635  0.3171  0.5268  0.7608
 5363TIP3    H116095   5.216   3.720   1.666 -0.8229 -0.3822  3.0279
 5363TIP3    H216096   5.144   3.599   1.611  0.7767  0.1439 -0.5117
 5364TIP3   OH216097   4.111   5.873   2.693 -0.6648  0.0230  0.9702
 5364TIP3    H116098   4.041   5.907   2.750 -0.1526  0.5367  1.3034
 5364TIP3    H216099   4.188   5.924   2.717 -0.7037  1.1021 -1.0148
 5365TIP3   OH216100   1.744   5.805   1.122 -0.2230  0.1643 -0.8033
 5365TIP3    H116101   1.788   5.727   1.156  2.1740  0.8920 -1.9773
 5365TIP3    H216102   1.702   5.844   1.199  1.6534 -0.3329  0.5513
 5366TIP3   OH216103   5.162   4.326   0.198 -0.0882 -0.1562  0.0652
 5366TIP3    H116104   5.221   4.385   0.151 -1.3963  0.2556 -1.1673
 5366TIP3    H216105   5.197   4.239   0.183 -0.3473 -0.0148 -1.5746
 5367TIP3   OH216106   2.721   0.164   2.076 -0.4735  0.3910  0.3098
 5367TIP3    H116107   2.657   0.134   2.140 -1.7426  0.9040 -0.6577
 5367TIP3    H216108   2.744   0.253   2.104  2.3551 -0.8816  2.4813
 5368TIP3   OH216109   1.582   2.381   3.823 -0.4610  0.2741  0.2371
 5368TIP3    H116110   1.546   2.312   3.768 -1.1957  0.1417  0.8578
 5368TIP3    H216111   1.528   2.457   3.804  2.3606  1.7375 -2.9303
 5369TIP3   OH216112   3.736   5.004   4.583  0.4575  0.3805  0.2119
 5369TIP3    H116113   3.756   4.915   4.612 -0.6454  0.7418  2.2283
 5369TIP3    H216114   3.787   5.061   4.641 -0.8176  1.1085  0.6551
 5370TIP3   OH216115   5.435   3.248   5.119 -0.0576  0.0579  0.6251
 5370TIP3    H116116   5.490   3.261   5.197  0.3290 -1.4138  0.6319
 5370TIP3    H216117   5.410   3.155   5.123 -0.5733  0.1248 -0.6562
 5371TIP3   OH216118   1.036   0.044   4.803 -0.5582  0.2083 -0.0240
 5371TIP3    H116119   0.950   0.078   4.828 -0.3678  0.8172 -0.1836
 5371TIP3    H216120   1.097   0.112   4.830 -0.2321  0.2900 -0.9539
 5372TIP3   OH216121   6.146   3.515   3.059 -1.0273  0.4086  0.1570
 5372TIP3    H116122   6.058   3.530   3.093 -1.3918  0.5148 -0.8217
 5372TIP3    H216123   6.137   3.516   2.964 -0.2532 -1.1850  0.0196
 5373TIP3   OH216124   4.067   5.116   1.723 -0.4750  0.0490  0.1030
 5373TIP3    H116125   4.041   5.032   1.761 -0.4894  0.2002  0.4280
 5373TIP3    H216126   4.036   5.182   1.785  2.4297  0.1807  1.5934
 5374TIP3   OH216127   1.333   1.868   0.438 -0.0858  0.4622  0.3887
 5374TIP3    H116128   1.240   1.860   0.418  0.2173 -0.0359 -0.8897
 5374TIP3    H216129   1.353   1.961   0.424 -0.0466  0.2667 -0.9786
 5375TIP3   OH216130   4.881   4.137   3.544  0.5198 -0.2683  0.2545
 5375TIP3    H116131   4.890   4.230   3.564  0.1592 -0.5982  2.1654
 5375TIP3    H216132   4.889   4.093   3.629 -0.7879 -1.8619 -0.3858
 5376TIP3   OH216133   1.829   2.117   1.159  0.1220  0.0362 -0.2038
 5376TIP3    H116134   1.921   2.142   1.157  0.4851 -0.9791  1.4768
 5376TIP3    H216135   1.782   2.193   1.127  1.4798  0.9840 -0.0175
 5377TIP3   OH216136   1.534   1.643   3.182 -0.2464 -0.5631  0.2084
 5377TIP3    H116137   1.614   1.593   3.196  1.0675  1.2197 -0.5342
 5377TIP3    H216138   1.477   1.584   3.132  0.8662 -1.6256  0.1538
 5378TIP3   OH216139   2.613   3.360   0.365  0.2204 -0.1544  0.1263
 5378TIP3    H116140   2.697   3.358   0.318 -0.7802  0.5176 -1.8095
 5378TIP3    H216141   2.616   3.442   0.415  0.7254 -0.1411  0.0800
 5379TIP3   OH216142   4.946   5.839   1.450 -0.1410 -0.1637  0.1587
 5379TIP3    H116143   5.037   5.823   1.474 -0.2927 -1.7133 -0.1902
 5379TIP3    H216144   4.929   5.929   1.477  2.1891  0.9982 -1.8428
 5380TIP3   OH216145   0.249   2.970   4.857  0.9055 -0.3178 -0.2549
 5380TIP3    H116146   0.311   2.902   4.883  1.1378 -0.2098 -0.5184
 5380TIP3    H216147   0.205   2.994   4.938 -1.2749 -2.8086 -0.5484
 5381TIP3   OH216148   4.103   1.323   1.679 -0.3618 -0.1828 -0.0040
 5381TIP3    H116149   4.136   1.412   1.695 -2.2372  0.2796  1.8651
 5381TIP3    H216150   4.015   1.337   1.642 -0.0090 -1.3041 -1.3437
 5382TIP3   OH216151   1.705   2.931   4.898  0.3743 -0.3492  0.0390
 5382TIP3    H116152   1.780   2.926   4.957  0.6513 -0.4574 -0.3149
 5382TIP3    H216153   1.657   3.008   4.926 -0.2066 -1.1146  1.2235
 5383TIP3   OH216154   5.029   5.205   1.392  0.1409 -0.3458  0.3880
 5383TIP3    H116155   4.980   5.124   1.407  0.6230 -0.8400 -0.5841
 5383TIP3    H216156   5.108   5.177   1.346  1.1573  0.4892  1.5892
 5384TIP3   OH216157   4.750   3.306   4.048 -0.0263 -0.2489 -0.2173
 5384TIP3    H116158   4.818   3.316   3.982  0.1991  0.1542  0.0725
 5384TIP3    H216159   4.684   3.371   4.025  0.3814  0.3728  0.3578
 5385TIP3   OH216160   2.397   4.389   1.286  0.0171 -0.2292 -0.4467
 5385TIP3    H116161   2.373   4.354   1.200 -0.9693 -1.2295  0.2051
 5385TIP3    H216162   2.313   4.418   1.324  0.4693  0.4135  0.0884
 5386TIP3   OH216163   5.614   5.800   1.345 -0.0644 -0.0099 -0.2199
 5386TIP3    H116164   5.532   5.809   1.297 -0.6114  0.5186  0.7903
 5386TIP3    H216165   5.594   5.739   1.416  1.2213 -2.2821 -1.6676
 5387TIP3   OH216166   3.390   0.737   4.533 -0.6623 -0.7747  0.0220
 5387TIP3    H116167   3.379   0.832   4.529 -0.7175 -0.8118 -0.7070
 5387TIP3    H216168   3.485   0.723   4.526 -0.7521 -0.8350 -1.1676
 5388TIP3   OH216169   0.458   5.684   1.836 -0.0254 -0.1101 -0.1596
 5388TIP3    H116170   0.553   5.691   1.848  0.2829 -0.2014 -2.2249
 5388TIP3    H216171   0.421   5.713   1.920  1.7844  0.9819  0.3110
 5389TIP3   OH216172   5.311   5.254   0.889 -0.1740  0.8512  0.7126
 5389TIP3    H116173   5.280   5.191   0.954 -1.4040  2.0477  1.3461
 5389TIP3    H216174   5.406   5.245   0.891 -0.2082  0.4888  2.3253
 5390TIP3   OH216175   0.192   0.660   1.881  0.1943  0.5499  0.3837
 5390TIP3    H116176   0.210   0.636   1.972 -0.2024  2.7379  1.0788
 5390TIP3    H216177   0.099   0.642   1.869  0.4038 -0.4799  0.1187
 5391TIP3   OH216178   0.678   0.559   0.764 -0.1693 -0.5477  0.3178
 5391TIP3    H116179   0.604   0.564   0.704 -0.7356  2.0018  1.1003
 5391TIP3    H216180   0.754   0.545   0.708 -0.7973  0.7987 -0.9118
 5392TIP3   OH216181   4.023   1.662   2.445  0.2350 -0.0229 -0.2745
 5392TIP3    H116182   4.118   1.673   2.457  0.3817 -0.9241 -0.4728
 5392TIP3    H216183   3.991   1.749   2.421  0.8407  0.5240  0.8203
 5393TIP3   OH216184   3.505   2.616   4.984  0.4451  0.2603  0.1088
 5393TIP3    H116185   3.422   2.570   4.996  1.2452 -0.7794  2.2404
 5393TIP3    H216186   3.493   2.701   5.028  0.2114  0.5109 -0.4336
 5394TIP3   OH216187   5.229   2.296   4.999  0.3426 -0.3977  0.6045
 5394TIP3    H116188   5.271   2.354   4.934 -1.1089  0.1528  0.1228
 5394TIP3    H216189   5.139   2.328   5.005 -1.1649 -3.7389 -1.1379
 5395TIP3   OH216190   3.556   0.981  -0.011 -0.3094  0.2957  0.4588
 5395TIP3    H116191   3.604   0.900   0.009 -1.7703 -0.4111  1.2177
 5395TIP3    H216192   3.548   1.025   0.074  0.7477  1.4282  0.0056
 5396TIP3   OH216193   0.990   3.754   2.219 -0.6364 -0.3027  0.0709
 5396TIP3    H116194   1.042   3.728   2.295 -0.1307 -2.0484 -0.7980
 5396TIP3    H216195   0.947   3.835   2.245  2.5968  1.3565  0.8335
 5397TIP3   OH216196   4.518   5.545   3.938  0.0069  0.2850  0.5530
 5397TIP3    H116197   4.462   5.621   3.924  0.2911  0.5997  1.0728
 5397TIP3    H216198   4.460   5.476   3.969 -0.3379  0.1212 -0.4162
 5398TIP3   OH216199   4.088   4.913   0.372  0.3564 -0.4644  0.2906
 5398TIP3    H116200   4.016   4.903   0.310 -0.3068  0.5520  0.8774
 5398TIP3    H216201   4.115   5.004   0.363  0.0169 -0.1984  1.7151
 5399TIP3   OH216202   4.232   2.482   3.096  0.1645  0.3298  0.0304
 5399TIP3    H116203   4.150   2.505   3.052 -0.2040 -0.3818  0.3360
 5399TIP3    H216204   4.249   2.556   3.155 -0.5641  0.2058  0.3993
 5400TIP3   OH216205   3.080   0.020   5.104 -0.2778  0.1558  0.2128
 5400TIP3    H116206   3.016  -0.027   5.051 -0.4570  1.5118 -0.8316
 5400TIP3    H216207   3.037   0.033   5.189 -1.0139  0.1934 -0.1581
 5401TIP3   OH216208   3.431   2.546   2.005  0.3036 -0.4876 -0.3208
 5401TIP3    H116209   3.398   2.507   2.086  1.2167  0.2174  0.4181
 5401TIP3    H216210   3.451   2.471   1.949 -1.6305 -0.9601 -0.4621
 5402TIP3   OH216211   5.594   3.686   2.318  0.2281 -0.0482 -0.3931
 5402TIP3    H116212   5.606   3.759   2.379  0.3892  0.0881 -0.5861
 5402TIP3    H216213   5.655   3.619   2.348 -3.0169 -2.0042  2.6199
 5403TIP3   OH216214   4.884   1.024   4.779  0.0520  0.2456  0.1246
 5403TIP3    H116215   4.826   1.089   4.820  0.5721  0.3365  0.7258
 5403TIP3    H216216   4.956   1.075   4.743 -1.0057  0.3179 -2.0732
 5404TIP3   OH216217   2.818   1.699   3.747  0.3046  0.4196 -0.2125
 5404TIP3    H116218   2.752   1.630   3.749  0.7285  0.0209  1.6500
 5404TIP3    H216219   2.770   1.778   3.775 -0.2251  1.0063 -2.5136
 5405TIP3   OH216220   6.183   1.563   2.454 -0.2850  0.0842 -0.0458
 5405TIP3    H116221   6.125   1.576   2.530 -0.9949  0.3025 -0.6184
 5405TIP3    H216222   6.255   1.509   2.488 -0.0674  1.0246  1.0335
 5406TIP3   OH216223   0.696   3.256   0.134  0.1776 -0.2020  0.4215
 5406TIP3    H116224   0.729   3.279   0.221  0.9394  1.4046 -0.2332
 5406TIP3    H216225   0.657   3.338   0.102 -3.7101 -1.7258  0.7425
 5407TIP3   OH216226   0.045   4.590   0.418 -0.2955 -0.7477 -0.0339
 5407TIP3    H116227   0.039   4.498   0.445 -2.2131 -0.3174  1.3031
 5407TIP3    H216228   0.035   4.588   0.323  3.1610 -2.0979 -0.5140
 5408TIP3   OH216229   0.309   4.785   4.834 -0.1635  0.2060 -0.0207
 5408TIP3    H116230   0.268   4.872   4.838 -0.0702  0.2279  0.5057
 5408TIP3    H216231   0.242   4.725   4.865 -0.2666  0.0707 -0.4941
 5409TIP3   OH216232   2.556   3.234   1.119  0.1332 -0.3400 -0.1144
 5409TIP3    H116233   2.533   3.276   1.203  2.2538 -0.6661  0.7009
 5409TIP3    H216234   2.489   3.167   1.106  0.3093 -0.9593  1.8579
 5410TIP3   OH216235   4.042   0.098   4.614  0.1057  0.0402 -0.3120
 5410TIP3    H116236   3.962   0.141   4.585 -0.4225 -0.3277  0.5509
 5410TIP3    H216237   4.111   0.163   4.602 -0.0599 -0.1013 -2.4033
 5411TIP3   OH216238   4.383   2.307   3.621  0.4440  0.1953  0.2469
 5411TIP3    H116239   4.318   2.295   3.691  0.6751  1.2219  0.6605
 5411TIP3    H216240   4.377   2.400   3.599  0.4372 -0.0904 -1.0566
 5412TIP3   OH216241   2.571   2.431   4.921 -0.7545  0.1113 -0.1259
 5412TIP3    H116242   2.568   2.430   4.826 -2.0850 -3.1948 -0.1753
 5412TIP3    H216243   2.580   2.339   4.946  0.2708  0.9264  2.9610
 5413TIP3   OH216244   4.158   1.762   2.701 -0.2690  0.0202 -0.7206
 5413TIP3    H116245   4.179   1.850   2.732  2.0951 -0.0657 -1.8811
 5413TIP3    H216246   4.063   1.755   2.710 -0.7773  3.3409 -2.2187
 5414TIP3   OH216247   2.850   1.940   2.293 -0.0877 -0.1092  0.2457
 5414TIP3    H116248   2.805   1.861   2.324 -0.2289  1.5654  5.1771
 5414TIP3    H216249   2.935   1.909   2.263 -0.7574 -2.2562  0.3717
 5415TIP3   OH216250   1.253   2.700   0.969 -0.0790 -0.4353  0.0750
 5415TIP3    H116251   1.314   2.688   0.896  0.5768 -2.6483  0.9223
 5415TIP3    H216252   1.167   2.680   0.932  0.1227 -0.5511 -0.3367
 5416TIP3   OH216253   4.231   3.135   2.718  0.2642 -0.0446  0.1743
 5416TIP3    H116254   4.194   3.160   2.802  1.0751  1.4427  0.1420
 5416TIP3    H216255   4.157   3.108   2.665 -0.5677  1.2565  0.6330
 5417TIP3   OH216256   2.235   4.579   4.290  0.4527  0.1790 -0.6773
 5417TIP3    H116257   2.183   4.606   4.366  0.8668 -1.6452  0.2992
 5417TIP3    H216258   2.325   4.596   4.316  0.6512 -1.1569 -0.4207
 5418TIP3   OH216259   1.246   2.971   4.645  0.6532 -0.2249  0.1269
 5418TIP3    H116260   1.294   2.890   4.628  1.3034 -0.2307  1.8343
 5418TIP3    H216261   1.156   2.952   4.616  1.1527 -0.9884 -0.9866
 5419TIP3   OH216262   4.945   1.037   3.563 -0.3034 -0.3045  0.3073
 5419TIP3    H116263   4.860   1.023   3.606 -0.9923  1.1161 -0.5034
 5419TIP3    H216264   4.990   1.099   3.620 -0.8853  0.9397 -0.5306
 5420TIP3   OH216265   6.222   0.427   3.611  0.7375 -0.2860  0.0971
 5420TIP3    H116266   6.309   0.386   3.615  0.1966 -1.7159 -1.6525
 5420TIP3    H216267   6.179   0.384   3.538 -1.3785  0.6026  0.7644
 5421TIP3   OH216268   4.580   4.013   3.152 -0.2439 -0.2361  0.1430
 5421TIP3    H116269   4.579   3.962   3.071  1.7088 -1.2372  0.6958
 5421TIP3    H216270   4.587   4.104   3.123  1.0906 -0.6267 -0.8306
 5422TIP3   OH216271   5.412   5.997   0.167  0.1959 -0.5832 -0.2151
 5422TIP3    H116272   5.501   6.031   0.171 -0.1508  0.2923  0.4653
 5422TIP3    H216273   5.422   5.903   0.177  1.2758 -0.8876 -3.2249
 5423TIP3   OH216274   0.498   3.579   2.586  0.1851  1.0988 -0.2747
 5423TIP3    H116275   0.470   3.527   2.661 -1.6459  0.7591 -1.1560
 5423TIP3    H216276   0.498   3.518   2.512 -1.6801  2.2012 -1.2620
 5424TIP3   OH216277   2.401   0.085   0.460  0.3286  0.1753  0.2220
 5424TIP3    H116278   2.466   0.067   0.391  0.7222 -0.2347  0.6928
 5424TIP3    H216279   2.435   0.164   0.503 -1.2774  2.0433 -1.6960
 5425TIP3   OH216280   1.034   0.055   2.916 -0.1262 -0.3167  0.3101
 5425TIP3    H116281   1.042  -0.011   2.985 -1.0958 -0.0679  0.6849
 5425TIP3    H216282   1.095   0.027   2.848 -1.4796 -2.3708 -0.1402
 5426TIP3   OH216283   5.041   2.206   2.390  0.7333 -0.0891 -0.1943
 5426TIP3    H116284   4.986   2.250   2.455 -0.1804  0.7279 -1.4682
 5426TIP3    H216285   5.005   2.233   2.305 -0.8406 -4.2959 -1.1566
 5427TIP3   OH216286   3.577   1.168   2.355 -0.2255 -0.2916 -0.1553
 5427TIP3    H116287   3.550   1.134   2.269 -0.6375 -0.8838  0.2025
 5427TIP3    H216288   3.642   1.105   2.386 -2.8296 -2.3072  1.6533
 5428TIP3   OH216289   3.652   1.903   1.003  0.0538  0.5751  0.5397
 5428TIP3    H116290   3.727   1.931   0.951  1.1317 -2.1025  0.4966
 5428TIP3    H216291   3.586   1.879   0.938  0.8277 -1.2473  0.3469
 5429TIP3   OH216292   5.966   5.556   1.437 -0.2144  0.1808  0.4572
 5429TIP3    H116293   6.007   5.630   1.482 -1.3048  1.8457 -1.1708
 5429TIP3    H216294   6.036   5.518   1.385 -0.6019  3.2447 -2.6205
 5430TIP3   OH216295   5.824   2.693   3.373  0.2051  0.2753 -0.6259
 5430TIP3    H116296   5.737   2.725   3.351 -0.1500  1.2576  1.8939
 5430TIP3    H216297   5.829   2.700   3.468  2.1056 -2.2505 -0.4345
 5431TIP3   OH216298   3.539   4.335   0.068  0.2087  0.1261  0.4793
 5431TIP3    H116299   3.475   4.264   0.078 -1.4830  1.2312 -1.6789
 5431TIP3    H216300   3.623   4.293   0.087 -0.7778 -2.3328 -0.0966
 5432TIP3   OH216301   5.000   1.030   2.396  0.0057  0.4310 -0.3191
 5432TIP3    H116302   4.978   1.119   2.367  0.8197  0.6579 -0.2697
 5432TIP3    H216303   5.094   1.034   2.416 -0.1570 -0.1921  0.6258
 5433TIP3   OH216304   5.278   0.474   1.402 -0.1248 -0.5853 -0.0920
 5433TIP3    H116305   5.238   0.478   1.315  0.7201  0.7573 -0.4596
 5433TIP3    H216306   5.303   0.382   1.413  0.2771 -0.6766 -1.5259
 5434TIP3   OH216307   1.383   5.280   3.988 -0.2464 -0.0252 -0.6065
 5434TIP3    H116308   1.334   5.200   3.968 -0.6503  0.3853 -1.2901
 5434TIP3    H216309   1.428   5.260   4.070  0.5006 -1.3323 -1.2898
 5435TIP3   OH216310   2.826   2.651   0.272 -0.0391  0.5672 -0.3942
 5435TIP3    H116311   2.843   2.647   0.178  1.2587  0.5571 -0.1766
 5435TIP3    H216312   2.907   2.619   0.312 -0.6148  0.4728  0.7259
 5436TIP3   OH216313   5.552   1.503   4.475  0.3228  0.1416 -0.1769
 5436TIP3    H116314   5.552   1.419   4.522 -1.0335  1.1571  1.7691
 5436TIP3    H216315   5.474   1.500   4.420 -0.3943  0.5875  0.8037
 5437TIP3   OH216316   6.317   1.922   0.843  0.2867 -0.2476 -0.3004
 5437TIP3    H116317   6.248   1.918   0.776  1.7918  0.8498 -2.0061
 5437TIP3    H216318   6.279   1.877   0.918 -2.2619  0.2339 -1.1747
 5438TIP3   OH216319   2.341   0.974   1.820  0.1328 -0.4751 -0.0794
 5438TIP3    H116320   2.386   1.047   1.777 -0.6051  0.5892  0.9068
 5438TIP3    H216321   2.311   1.010   1.903 -0.2478 -1.9186  0.4283
 5439TIP3   OH216322   3.676   5.384   0.819  0.0847  0.6400  0.4564
 5439TIP3    H116323   3.609   5.338   0.871 -0.5566  1.6236  0.5266
 5439TIP3    H216324   3.736   5.315   0.791 -2.3340 -0.7271 -1.7778
 5440TIP3   OH216325   0.456   5.076   1.149  0.3693  0.1801  0.1040
 5440TIP3    H116326   0.530   5.063   1.091 -1.4971 -0.1622 -2.3718
 5440TIP3    H216327   0.421   5.162   1.126  0.5909  0.8408  2.0194
 5441TIP3   OH216328   3.656   1.771   3.565  0.0871 -0.0918 -0.6912
 5441TIP3    H116329   3.707   1.711   3.619 -0.8119  1.0658  1.5889
 5441TIP3    H216330   3.684   1.753   3.476  3.8040 -0.1426  0.3364
 5442TIP3   OH216331   4.721   4.187   1.714 -0.5307  0.2498  0.1026
 5442TIP3    H116332   4.719   4.223   1.626 -0.7116  1.0673  0.4332
 5442TIP3    H216333   4.772   4.250   1.765 -1.3225  0.3308  0.8140
 5443TIP3   OH216334   2.687   5.161   3.086 -0.2945  0.3605 -0.7882
 5443TIP3    H116335   2.739   5.083   3.067  0.4865  1.4508 -3.4957
 5443TIP3    H216336   2.630   5.172   3.011 -2.5116  0.8068  0.8686
 5444TIP3   OH216337   2.271   1.508   5.081 -0.2102 -1.1157 -0.7482
 5444TIP3    H116338   2.318   1.591   5.068 -0.8648 -0.6880 -0.4374
 5444TIP3    H216339   2.284   1.488   5.174 -0.2143 -1.2659 -0.7796
 5445TIP3   OH216340   3.331   4.418   3.882  0.0194 -0.1826 -0.2639
 5445TIP3    H116341   3.402   4.411   3.945  0.8450  0.5379 -1.0937
 5445TIP3    H216342   3.301   4.328   3.870 -1.0511 -0.2246  2.1231
 5446TIP3   OH216343   3.660   4.778   4.375 -0.1664  0.1704 -0.3485
 5446TIP3    H116344   3.646   4.860   4.421 -0.8308  0.3350 -0.8314
 5446TIP3    H216345   3.735   4.738   4.419  0.8720  1.5425 -0.7788
 5447TIP3   OH216346   3.970   0.383   3.169  0.4899  0.0930  0.1195
 5447TIP3    H116347   4.006   0.396   3.081 -0.4726  0.3603 -0.2459
 5447TIP3    H216348   4.033   0.326   3.213  1.3307  0.5203 -0.5162
 5448TIP3   OH216349   3.854   5.089   1.259  0.0703  0.7488 -0.6053
 5448TIP3    H116350   3.938   5.048   1.239 -0.1767 -0.8254  1.2902
 5448TIP3    H216351   3.856   5.105   1.353 -2.0584 -0.1285 -0.3452
 5449TIP3   OH216352   2.127   5.268   3.197 -0.0074 -0.2361  0.2109
 5449TIP3    H116353   2.213   5.285   3.158 -1.4126  0.4272 -2.8881
 5449TIP3    H216354   2.105   5.349   3.242  0.5164 -0.0125  0.0786
 5450TIP3   OH216355   2.799   5.078   5.080  0.2928  0.4070  0.0565
 5450TIP3    H116356   2.743   5.055   5.154  1.7899  0.1439  1.1634
 5450TIP3    H216357   2.820   4.995   5.038 -1.4451  0.6388 -1.4133
 5451TIP3   OH216358   5.809   1.326   0.861  0.0265 -0.9904  0.2836
 5451TIP3    H116359   5.719   1.359   0.862  0.4195  0.1308  1.3686
 5451TIP3    H216360   5.838   1.340   0.771  0.0464  1.4471  0.5805
 5452TIP3   OH216361   2.856   0.652   4.698  0.5905 -0.1466  0.2793
 5452TIP3    H116362   2.832   0.702   4.775  2.4051  1.1422  0.0806
 5452TIP3    H216363   2.834   0.709   4.624 -1.3606 -1.4622 -0.2365
 5453TIP3   OH216364   4.076   5.505   1.848  0.1631 -0.0082 -0.1808
 5453TIP3    H116365   4.164   5.521   1.883 -1.1209  2.4754  2.2743
 5453TIP3    H216366   4.053   5.586   1.802 -1.3451 -0.0541  0.4355
 5454TIP3   OH216367   2.522   0.307   2.619 -0.2678 -0.9160 -0.1634
 5454TIP3    H116368   2.585   0.250   2.574  0.4720 -0.9405  0.8740
 5454TIP3    H216369   2.473   0.249   2.676  1.5470 -0.3678  2.0875
 5455TIP3   OH216370   6.244   2.207   1.986  0.0062  0.4260 -0.5064
 5455TIP3    H116371   6.246   2.117   2.018  0.5010  0.8955  0.8683
 5455TIP3    H216372   6.160   2.242   2.017 -0.6753  0.1475 -1.9549
 5456TIP3   OH216373   3.836   0.128   4.373 -0.6810  0.1958 -0.0908
 5456TIP3    H116374   3.799   0.191   4.310 -0.9539 -0.2425 -0.3694
 5456TIP3    H216375   3.804   0.158   4.458  1.2559  1.9531  0.0978
 5457TIP3   OH216376   1.490   0.716   4.168  0.1827  0.7890 -0.0023
 5457TIP3    H116377   1.576   0.722   4.128 -0.4864  1.5158 -1.4092
 5457TIP3    H216378   1.488   0.787   4.233  0.6668  0.7024  0.1092
 5458TIP3   OH216379   4.944   2.393   1.583  0.0003  0.1003 -0.8844
 5458TIP3    H116380   4.945   2.298   1.573  0.3107 -0.0773  0.5754
 5458TIP3    H216381   5.023   2.412   1.634 -0.8507  0.9720  0.1387
 5459TIP3   OH216382   2.048   1.608   0.497  0.3119 -0.6414 -0.0251
 5459TIP3    H116383   2.054   1.690   0.547 -0.7920 -0.0246 -0.8510
 5459TIP3    H216384   2.017   1.543   0.560  0.8242 -0.3460  0.5467
 5460TIP3   OH216385   3.353   1.222   1.236  0.8136  0.2485  0.5976
 5460TIP3    H116386   3.372   1.246   1.145 -0.5716  0.2793  0.3019
 5460TIP3    H216387   3.379   1.130   1.242 -3.4980 -1.3343 -1.2815
 5461TIP3   OH216388   0.487   4.265   5.095 -0.3489 -0.3779 -0.6819
 5461TIP3    H116389   0.400   4.228   5.111 -0.0751 -0.2384  1.5076
 5461TIP3    H216390   0.470   4.349   5.055 -1.2467 -0.3527 -0.2811
 5462TIP3   OH216391   4.505   5.455   1.252 -0.4739 -0.1797  0.2939
 5462TIP3    H116392   4.524   5.540   1.292  3.4416  0.3050 -2.0513
 5462TIP3    H216393   4.551   5.392   1.307 -0.0401 -0.2364 -0.1225
 5463TIP3   OH216394   0.543   2.160   2.712  0.1244  0.1463 -0.1755
 5463TIP3    H116395   0.544   2.158   2.617 -0.2544  1.5148 -0.2247
 5463TIP3    H216396   0.558   2.069   2.738  2.7416  0.1186 -1.4763
 5464TIP3   OH216397   0.398   3.646   4.231  0.2108  0.5120  0.0438
 5464TIP3    H116398   0.432   3.590   4.161  0.4993  1.9441 -1.0237
 5464TIP3    H216399   0.307   3.662   4.206 -0.7552 -1.6704  1.8256
 5465TIP3   OH216400   5.821   0.331   0.696  0.2786  0.5749 -0.0991
 5465TIP3    H116401   5.898   0.346   0.640 -0.1124 -0.1340 -0.8426
 5465TIP3    H216402   5.762   0.403   0.675 -0.6062 -0.6023 -1.9372
 5466TIP3   OH216403   3.348   4.162   0.148  0.0756 -0.3416 -0.0395
 5466TIP3    H116404   3.255   4.143   0.162 -0.1204  0.5638 -0.0736
 5466TIP3    H216405   3.372   4.217   0.222  0.7524 -1.0672  0.3023
 5467TIP3   OH216406   5.252   2.574   3.248  0.9068  0.6207 -0.2181
 5467TIP3    H116407   5.158   2.559   3.242  1.0197 -1.7417  2.0288
 5467TIP3    H216408   5.278   2.602   3.160 -1.9052  1.6925 -0.7979
 5468TIP3   OH216409   0.367   1.850   3.128 -0.4657 -0.2050 -0.7068
 5468TIP3    H116410   0.420   1.863   3.050 -1.1438 -0.1478 -1.1722
 5468TIP3    H216411   0.276   1.853   3.096 -0.7397 -0.8639 -0.0227
 5469TIP3   OH216412  -0.013   4.514   2.889 -0.2757 -0.1349 -0.1639
 5469TIP3    H116413   0.073   4.491   2.853  0.7551  0.4477  1.7882
 5469TIP3    H216414  -0.035   4.442   2.948  0.3632  1.1316  1.7003
 5470TIP3   OH216415   4.217   2.650   1.490 -0.3469  0.2628 -0.5323
 5470TIP3    H116416   4.304   2.634   1.526 -0.2445  1.7571 -0.0628
 5470TIP3    H216417   4.187   2.563   1.463  0.3920 -0.6360  1.3153
 5471TIP3   OH216418   5.483   5.290   3.623 -0.3011 -0.4097 -0.2025
 5471TIP3    H116419   5.536   5.230   3.572 -0.1016 -0.0721 -0.3963
 5471TIP3    H216420   5.545   5.333   3.682 -0.7103 -1.7187  1.2483
 5472TIP3   OH216421   4.994   2.425   4.900 -0.4570 -0.0813  0.4259
 5472TIP3    H116422   4.973   2.498   4.843  0.4627 -1.1148 -1.3296
 5472TIP3    H216423   4.973   2.347   4.848 -0.8410 -1.0856  2.0055
 5473TIP3   OH216424   5.131   5.987   2.304 -0.4083  0.2244  0.1207
 5473TIP3    H116425   5.144   5.915   2.364 -0.2667 -1.5201 -1.8807
 5473TIP3    H216426   5.053   5.963   2.253 -1.3351  2.2738  0.4582
 5474TIP3   OH216427   1.142   3.234   4.578  0.1961 -0.0487  0.4702
 5474TIP3    H116428   1.073   3.171   4.599  0.7826 -1.5117 -1.7381
 5474TIP3    H216429   1.213   3.212   4.639 -0.5189  0.1878  1.4246
 5475TIP3   OH216430   1.105   0.734   2.722 -0.1612  0.3060  0.3819
 5475TIP3    H116431   1.100   0.744   2.627 -1.2843  1.0594  0.5023
 5475TIP3    H216432   1.105   0.823   2.756 -2.7232  0.0872  1.1779
 5476TIP3   OH216433   1.173   4.121   2.754  0.0647 -0.0587  0.1216
 5476TIP3    H116434   1.149   4.183   2.685 -2.3790  1.3691  2.0543
 5476TIP3    H216435   1.169   4.035   2.712  0.7216  0.8751 -1.9614
 5477TIP3   OH216436   6.012   2.254   2.106  0.1807  0.1004 -0.0685
 5477TIP3    H116437   6.010   2.262   2.201 -1.8683  2.5844 -0.2180
 5477TIP3    H216438   5.964   2.174   2.087 -1.9321  1.0252  0.9847
 5478TIP3   OH216439   2.782   2.319   0.286  0.5424  0.5337 -0.1480
 5478TIP3    H116440   2.870   2.290   0.309  0.7232 -0.3416 -1.8116
 5478TIP3    H216441   2.795   2.379   0.213 -0.1426  1.8483  0.7606
 5479TIP3   OH216442   0.055   2.132   0.378  0.2141  0.6221 -0.6362
 5479TIP3    H116443   0.076   2.225   0.385  0.0687  0.8059 -2.3320
 5479TIP3    H216444  -0.019   2.120   0.438  2.2835  0.8529  2.1436
 5480TIP3   OH216445   1.088   2.752   0.225 -0.0493 -0.0242  0.2957
 5480TIP3    H116446   1.167   2.774   0.175  0.6908 -0.0178  1.4302
 5480TIP3    H216447   1.023   2.816   0.196  0.1097 -0.5111 -1.2198
 5481TIP3   OH216448   1.767   4.781   1.493 -0.3092 -0.3096  0.5520
 5481TIP3    H116449   1.684   4.789   1.446  0.0203  1.2111  0.2011
 5481TIP3    H216450   1.825   4.738   1.431 -0.7666 -1.2462  0.7463
 5482TIP3   OH216451   0.552   4.937   3.502 -0.3280  0.1987 -0.1254
 5482TIP3    H116452   0.519   4.898   3.583  1.0189 -2.1778 -0.6209
 5482TIP3    H216453   0.634   4.979   3.527  0.7252 -1.5806 -0.3618
 5483TIP3   OH216454   5.489   1.853   0.535 -0.1631  0.3501 -0.3880
 5483TIP3    H116455   5.445   1.790   0.591 -2.1683  1.7639 -0.2755
 5483TIP3    H216456   5.569   1.876   0.582 -1.2539  0.6738  1.3567
 5484TIP3   OH216457   6.051   2.839   0.917  0.6685 -0.7088  0.3565
 5484TIP3    H116458   5.966   2.873   0.943  1.2035 -0.5382  2.0431
 5484TIP3    H216459   6.047   2.745   0.935  1.0017 -0.6107  0.9903
 5485TIP3   OH216460   0.091   1.482   2.521  0.4144 -0.2965  0.2403
 5485TIP3    H116461   0.120   1.431   2.597  0.1947  0.7767  1.0692
 5485TIP3    H216462   0.156   1.551   2.512  1.2876 -1.2872 -1.5237
 5486TIP3   OH216463   3.061   0.129   2.573 -0.7435 -0.6806 -0.0199
 5486TIP3    H116464   3.088   0.043   2.540  0.7733  0.3383 -1.5760
 5486TIP3    H216465   2.967   0.119   2.591 -0.4027 -2.9523  0.8947
 5487TIP3   OH216466   0.257   3.396   3.319 -0.0905  0.1584 -0.2219
 5487TIP3    H116467   0.285   3.316   3.273 -1.0038 -1.4658  1.9204
 5487TIP3    H216468   0.169   3.413   3.286 -0.2017 -0.1911 -0.1114
 5488TIP3   OH216469   4.470   3.589   2.769 -0.0209  0.4849 -0.6942
 5488TIP3    H116470   4.467   3.512   2.712  1.4339  0.1501 -0.3569
 5488TIP3    H216471   4.380   3.622   2.769 -0.3972 -0.4601 -1.8636
 5489TIP3   OH216472   2.864   3.004   4.408  0.4957  0.1758 -0.1288
 5489TIP3    H116473   2.834   3.094   4.415  1.1833  0.3972  0.0350
 5489TIP3    H216474   2.950   3.004   4.449  0.3068 -0.6542  0.2893
 5490TIP3   OH216475   4.591   2.436   1.127  0.5524  0.9599  0.4476
 5490TIP3    H116476   4.584   2.342   1.139 -0.4948  1.0475  0.5894
 5490TIP3    H216477   4.685   2.454   1.133  0.7646 -0.0747  0.3598
 5491TIP3   OH216478   4.042   1.100   3.647 -0.1130  0.3782  0.4936
 5491TIP3    H116479   4.075   1.041   3.714  0.7840  0.2638 -0.0296
 5491TIP3    H216480   4.117   1.154   3.624 -1.0785  2.1874  1.4228
 5492TIP3   OH216481   3.095   3.844   2.266 -0.1174  0.2965 -0.6420
 5492TIP3    H116482   3.050   3.869   2.347 -0.0504 -1.3931 -0.0487
 5492TIP3    H216483   3.187   3.862   2.284  0.2554 -2.4580  0.7041
 5493TIP3   OH216484   3.912   4.944   2.513  0.0361 -0.5869  0.0328
 5493TIP3    H116485   3.890   4.904   2.429 -1.2620 -1.0260  0.5691
 5493TIP3    H216486   3.848   5.013   2.524 -0.0703 -0.8154  0.8658
 5494TIP3   OH216487   5.924   2.228   0.945 -1.1166  0.6757  0.8098
 5494TIP3    H116488   5.886   2.140   0.951  1.1674 -0.3745  0.7474
 5494TIP3    H216489   5.898   2.271   1.026 -3.0023  0.3000  0.4558
 5495TIP3   OH216490   0.437   2.805   3.156  0.1218 -0.3829 -0.0994
 5495TIP3    H116491   0.368   2.739   3.162  0.7300 -1.0280  0.0491
 5495TIP3    H216492   0.402   2.881   3.201  0.4708 -1.5497  2.2958
 5496TIP3   OH216493   1.807   4.100   3.616  0.3787 -0.4899  0.0319
 5496TIP3    H116494   1.786   4.093   3.710  0.6214 -0.7600  0.0662
 5496TIP3    H216495   1.897   4.133   3.614  0.1275  0.2122 -0.1155
 5497TIP3   OH216496   1.943   5.075   4.440 -0.6847  0.1881 -0.4343
 5497TIP3    H116497   1.992   5.008   4.488 -1.1843  0.7877  0.9651
 5497TIP3    H216498   1.880   5.025   4.388 -2.3119 -0.4595  1.9814
 5498TIP3   OH216499   1.123   3.338   1.661 -0.0858  0.1885 -0.3411
 5498TIP3    H116500   1.061   3.409   1.677  0.0041  0.1931 -0.0068
 5498TIP3    H216501   1.081   3.284   1.595  0.1559  0.9384 -1.1194
 5499TIP3   OH216502   5.484   3.830   4.247 -0.4873  0.0178  0.0368
 5499TIP3    H116503   5.534   3.874   4.179  0.6593 -0.5214  0.5025
 5499TIP3    H216504   5.397   3.817   4.209 -0.0754  0.3557 -1.0493
 5500TIP3   OH216505   0.901   0.462   4.851  0.4920 -0.7260 -0.1820
 5500TIP3    H116506   0.861   0.532   4.901  0.2343 -0.4588 -0.7525
 5500TIP3    H216507   0.983   0.499   4.818  0.3992 -0.7187 -0.4090
 5501TIP3   OH216508   2.915   1.348   0.101  0.3101  0.2813 -0.3562
 5501TIP3    H116509   2.832   1.346   0.053 -0.7802  1.1864  1.3607
 5501TIP3    H216510   2.944   1.439   0.097 -0.6682  0.7805  1.9431
 5502TIP3   OH216511   3.450   2.031   0.797  0.1745  0.1288 -0.1220
 5502TIP3    H116512   3.410   2.080   0.869  1.4299  0.7655  0.1751
 5502TIP3    H216513   3.535   2.073   0.784  0.3771 -0.6048 -1.3310
 5503TIP3   OH216514   4.719   0.930   2.668  0.5251  0.7252  0.2400
 5503TIP3    H116515   4.813   0.925   2.684  0.2037 -1.6728  1.8411
 5503TIP3    H216516   4.695   0.844   2.635 -1.2789  0.8735  1.0305
 5504TIP3   OH216517   2.299   0.836   0.283 -0.2702 -0.3277 -0.2144
 5504TIP3    H116518   2.284   0.908   0.221  1.5969 -0.5788 -1.0137
 5504TIP3    H216519   2.231   0.848   0.349  1.8077  4.2339  1.5524
 5505TIP3   OH216520   0.993   3.865   5.008 -0.1551 -0.5449 -0.1171
 5505TIP3    H116521   0.936   3.854   4.931 -1.8832 -0.7591  1.1355
 5505TIP3    H216522   1.035   3.950   4.994 -0.9517 -0.2698 -0.9910
 5506TIP3   OH216523   0.642   5.771   3.231  0.0094  0.2535  0.0689
 5506TIP3    H116524   0.734   5.749   3.236 -0.1809 -0.2984  1.7536
 5506TIP3    H216525   0.596   5.691   3.257 -0.8267  1.2969  2.0250
 5507TIP3   OH216526   3.208   2.111   2.791  0.1875 -0.6717 -0.2048
 5507TIP3    H116527   3.243   2.045   2.850 -0.5472  0.5720  1.7264
 5507TIP3    H216528   3.127   2.074   2.757  0.2739 -1.1326  0.0939
 5508TIP3   OH216529   0.294   1.329   2.926 -0.1714 -0.2245 -0.4753
 5508TIP3    H116530   0.247   1.334   2.843  0.9136 -0.9952 -1.1680
 5508TIP3    H216531   0.342   1.246   2.921  1.6253  0.7320 -0.0415
 5509TIP3   OH216532   2.261   4.520   0.949 -0.4311  0.1505  0.0756
 5509TIP3    H116533   2.354   4.497   0.950 -0.7690 -1.4277 -1.1906
 5509TIP3    H216534   2.260   4.614   0.933  0.9697  0.7785  2.8907
 5510TIP3   OH216535   0.654   0.449   3.525 -0.4952 -0.1373  0.6142
 5510TIP3    H116536   0.619   0.361   3.524 -0.4355 -0.1658 -0.2356
 5510TIP3    H216537   0.614   0.491   3.601 -1.2345 -0.6131  0.4931
 5511TIP3   OH216538   1.494   0.914   0.255 -0.3756 -0.2215 -0.5722
 5511TIP3    H116539   1.430   0.982   0.275  2.6770  2.5330  0.8692
 5511TIP3    H216540   1.523   0.933   0.166 -2.4563 -2.3834 -1.7977
 5512TIP3   OH216541   4.456   1.305   0.718  0.8106 -0.1469  0.2081
 5512TIP3    H116542   4.440   1.396   0.742 -0.5749 -0.4297  0.4620
 5512TIP3    H216543   4.551   1.296   0.718  0.9501  0.6251  2.7045
 5513TIP3   OH216544   6.122   0.411   0.629 -0.5048  0.4895 -0.3284
 5513TIP3    H116545   6.142   0.394   0.721  1.3928 -1.7198 -1.0522
 5513TIP3    H216546   6.155   0.335   0.583 -0.3417  2.0464 -2.9903
 5514TIP3   OH216547   0.971   5.224   1.523 -0.0722 -0.2770  0.0894
 5514TIP3    H116548   0.932   5.226   1.435  0.0984 -0.4294  0.0090
 5514TIP3    H216549   0.968   5.315   1.553 -3.6271 -0.7184  1.4696
 5515TIP3   OH216550   0.858   3.373   4.638 -0.3974  0.4355 -0.3508
 5515TIP3    H116551   0.919   3.446   4.637 -1.9977  1.8595 -1.4667
 5515TIP3    H216552   0.831   3.366   4.729  1.3429 -0.2011  0.1521
 5516TIP3   OH216553   3.269   4.607   2.891  0.1049  0.0924  0.2970
 5516TIP3    H116554   3.275   4.558   2.973 -2.5588 -0.4099  0.2905
 5516TIP3    H216555   3.227   4.546   2.830 -0.6378  1.4199 -0.5630
 5517TIP3   OH216556   5.688   1.904   0.863  0.3521  0.6423 -0.0736
 5517TIP3    H116557   5.701   1.937   0.774  0.7575  0.6884  0.0014
 5517TIP3    H216558   5.614   1.844   0.855  1.8698 -1.1977 -0.9209
 5518TIP3   OH216559   4.793   3.647   1.075  0.6136 -0.4369  0.1158
 5518TIP3    H116560   4.841   3.705   1.134 -3.2847  0.8137  2.3575
 5518TIP3    H216561   4.784   3.565   1.124  1.1332 -0.9585 -0.6405
 5519TIP3   OH216562   5.273   3.961   3.052 -0.2467 -0.4358 -0.1481
 5519TIP3    H116563   5.296   4.003   2.970  0.4886 -0.4712  0.0374
 5519TIP3    H216564   5.177   3.958   3.051 -0.3855  2.0009  0.2008
 5520TIP3   OH216565   1.267   0.659   0.691 -0.0738  0.5259 -0.3895
 5520TIP3    H116566   1.223   0.576   0.675  2.0164 -0.7141 -0.0647
 5520TIP3    H216567   1.249   0.678   0.783  0.0129  0.0685 -0.2764
 5521TIP3   OH216568   1.847   3.439   3.674  0.1087 -0.0933 -0.2348
 5521TIP3    H116569   1.930   3.438   3.625  0.8006  3.0561  0.6556
 5521TIP3    H216570   1.782   3.469   3.610  0.3682  0.8048 -0.0910
 5522TIP3   OH216571   1.406   2.408   1.626  0.2635  0.1576 -0.4169
 5522TIP3    H116572   1.428   2.460   1.549 -1.5877  0.6048 -0.7054
 5522TIP3    H216573   1.332   2.354   1.597 -0.5361  0.4223  1.0699
 5523TIP3   OH216574   5.545   4.011   3.225 -0.2809  0.2982  0.3402
 5523TIP3    H116575   5.600   4.074   3.180  0.4884  0.3060  1.2648
 5523TIP3    H216576   5.464   4.008   3.173  0.7353 -0.0543 -1.3021
 5524TIP3   OH216577   0.170   1.073   4.008 -0.4679 -0.2719  0.3340
 5524TIP3    H116578   0.206   0.986   4.024  0.1655  0.0271  0.5583
 5524TIP3    H216579   0.098   1.082   4.070 -0.6842 -0.7249  0.1497
 5525TIP3   OH216580   5.486   1.316   2.954 -0.0444 -0.6355 -0.0212
 5525TIP3    H116581   5.455   1.330   3.044  1.7018 -0.8606  0.6424
 5525TIP3    H216582   5.563   1.260   2.963  0.4112 -0.3192 -1.6371
 5526TIP3   OH216583   4.541   3.475   3.005 -0.8512 -0.0628 -0.0867
 5526TIP3    H116584   4.545   3.525   2.923  1.2632 -0.2653 -0.1707
 5526TIP3    H216585   4.488   3.398   2.983 -1.9726  0.8623 -0.6857
 5527TIP3   OH216586   0.179   0.218  -0.013  0.4525  0.1302 -0.1398
 5527TIP3    H116587   0.273   0.227   0.003  0.6295 -0.2593 -0.9426
 5527TIP3    H216588   0.155   0.138   0.034  0.0739  1.3526  1.8785
 5528TIP3   OH216589   3.298   5.551   1.690  0.0587 -0.1979 -0.4882
 5528TIP3    H116590   3.372   5.611   1.696  0.0099 -0.2243  0.5243
 5528TIP3    H216591   3.338   5.464   1.692 -0.0291 -0.2240  0.8309
 5529TIP3   OH216592   1.772   4.151   1.902  0.4410 -0.0711 -0.4957
 5529TIP3    H116593   1.702   4.210   1.929  0.4182 -0.1502 -0.3851
 5529TIP3    H216594   1.750   4.129   1.811  1.1222  1.0899 -0.9638
 5530TIP3   OH216595   2.428   2.504   1.390 -0.7615  0.0869 -0.4222
 5530TIP3    H116596   2.412   2.410   1.396  0.2049 -0.0053  3.1056
 5530TIP3    H216597   2.426   2.523   1.296 -1.3205 -3.3550 -1.2428
 5531TIP3   OH216598   2.419   0.535   4.665  0.0750 -0.4261 -0.4294
 5531TIP3    H116599   2.381   0.498   4.745 -0.8620  0.2658 -0.5392
 5531TIP3    H216600   2.500   0.577   4.695  0.7298 -1.8090 -0.1737
 5532TIP3   OH216601   2.666   3.049   1.540  0.1542  0.8982  0.6710
 5532TIP3    H116602   2.712   2.992   1.602  0.8680  0.7812  0.0481
 5532TIP3    H216603   2.669   3.001   1.457 -1.6038  0.6274  0.7202
 5533TIP3   OH216604   4.806   0.531   2.417 -0.0772  0.0529 -0.7619
 5533TIP3    H116605   4.736   0.469   2.439  1.9091 -1.0044  3.7658
 5533TIP3    H216606   4.781   0.612   2.460  0.9418 -0.0429  0.0525
 5534TIP3   OH216607   1.834   4.221   0.157  0.2934 -0.0150 -0.4722
 5534TIP3    H116608   1.820   4.162   0.083  0.0360  0.8096 -1.0983
 5534TIP3    H216609   1.801   4.305   0.127 -1.6564 -0.0682  1.2750
 5535TIP3   OH216610   5.017   3.192   2.983 -0.4727  0.8139 -0.0029
 5535TIP3    H116611   4.992   3.176   2.892 -1.8500  2.6811 -0.0067
 5535TIP3    H216612   4.952   3.254   3.015  0.7463  1.1884  1.8791
 5536TIP3   OH216613   1.918   0.572   4.892 -0.5238 -0.1546  0.2050
 5536TIP3    H116614   1.994   0.625   4.916 -0.8137  0.4262 -0.1233
 5536TIP3    H216615   1.881   0.617   4.816 -0.7468 -0.8670 -0.1139
 5537TIP3   OH216616   0.283   0.673   3.585 -0.3760 -0.5137 -0.0309
 5537TIP3    H116617   0.378   0.664   3.594 -0.3549 -1.7475 -1.1817
 5537TIP3    H216618   0.247   0.615   3.652 -0.3488  0.5461  0.9302
 5538TIP3   OH216619   2.034   3.174   3.600 -0.2545 -0.0708  0.2127
 5538TIP3    H116620   2.057   3.262   3.573  0.7237 -0.0736  0.9779
 5538TIP3    H216621   2.069   3.166   3.689 -0.3213 -1.2272  0.1517
 5539TIP3   OH216622   1.741   5.575   3.848  0.2397  0.3452 -0.2322
 5539TIP3    H116623   1.786   5.495   3.873  0.1106  0.2303 -0.3589
 5539TIP3    H216624   1.798   5.646   3.878 -1.1391  0.3034  2.8353
 5540TIP3   OH216625   1.970   4.740   3.972  0.2359  0.1424 -0.0177
 5540TIP3    H116626   1.941   4.683   4.044  0.6242  0.4727  0.4122
 5540TIP3    H216627   1.983   4.681   3.898  1.6688 -0.5159  0.7213
 5541TIP3   OH216628   2.558   5.094   4.876  0.0449 -0.6867  0.0076
 5541TIP3    H116629   2.518   5.163   4.929  0.4560 -0.7630  0.4186
 5541TIP3    H216630   2.648   5.088   4.908  0.1664 -1.0363 -0.3988
 5542TIP3   OH216631   4.594   3.251   5.056 -0.1337  0.0162  0.2086
 5542TIP3    H116632   4.570   3.298   4.976  1.9500 -2.7787 -2.2684
 5542TIP3    H216633   4.683   3.280   5.075 -0.2091 -0.1744  0.8819
 5543TIP3   OH216634   0.118   1.533   4.375 -0.0439  0.2300 -0.1161
 5543TIP3    H116635   0.201   1.486   4.389  0.4689  1.4482  1.2094
 5543TIP3    H216636   0.145   1.617   4.338 -0.7603  0.3000 -0.4739
 5544TIP3   OH216637   3.809   5.953   4.239 -0.4215 -0.3488  0.1566
 5544TIP3    H116638   3.820   5.985   4.149 -1.6749  2.8256  0.9802
 5544TIP3    H216639   3.747   5.880   4.231 -3.6123  2.2529 -1.3525
 5545TIP3   OH216640   0.099   5.899   3.777 -0.3812  0.2424  0.0947
 5545TIP3    H116641   0.100   5.962   3.705 -0.3117  1.5489  1.2138
 5545TIP3    H216642   0.161   5.935   3.841 -1.1829 -0.3743  1.2456
 5546TIP3   OH216643   2.088   0.917   0.469  0.2868 -0.1986  0.2536
 5546TIP3    H116644   1.995   0.925   0.450  0.3395  1.0463  0.3926
 5546TIP3    H216645   2.098   0.830   0.507 -0.9552 -0.0419  0.9906
 5547TIP3   OH216646   4.808   5.000   1.374  0.2010  0.2483  0.4169
 5547TIP3    H116647   4.844   4.955   1.298 -2.4817 -3.8251  1.2352
 5547TIP3    H216648   4.750   5.068   1.337  1.9708  1.0747 -0.9676
 5548TIP3   OH216649   3.313   0.695   0.816 -0.1086 -0.6828 -0.0094
 5548TIP3    H116650   3.221   0.674   0.796 -0.5718  0.7294  0.4822
 5548TIP3    H216651   3.341   0.750   0.743  0.2628 -0.8582 -0.0017
 5549TIP3   OH216652   0.954  -0.011   3.963 -0.3957 -0.0691  0.3870
 5549TIP3    H116653   1.038   0.031   3.980  0.2112 -1.4183  0.8408
 5549TIP3    H216654   0.934   0.010   3.872 -0.1043  1.1428  0.5795
 5550TIP3   OH216655   0.484   0.226   2.869  0.3652  0.0921 -0.1792
 5550TIP3    H116656   0.485   0.270   2.784  2.6857  1.6631  0.5672
 5550TIP3    H216657   0.499   0.134   2.847  0.8409  0.4530 -1.5003
 5551TIP3   OH216658   0.767   0.393   2.824  0.0216 -0.4747  0.4922
 5551TIP3    H116659   0.836   0.391   2.890 -0.5913 -0.8042  1.1396
 5551TIP3    H216660   0.766   0.304   2.788  1.4152  0.1122 -1.1127
 5552TIP3   OH216661   5.214   1.334   1.266  0.4064  0.1937 -0.2989
 5552TIP3    H116662   5.277   1.277   1.308 -0.6674 -1.0256 -0.2966
 5552TIP3    H216663   5.153   1.275   1.222 -0.3959  1.3525 -0.7982
 5553TIP3   OH216664   4.313   3.632   3.353 -0.4086  0.1341 -0.3929
 5553TIP3    H116665   4.226   3.661   3.324 -0.6696  0.3956  0.5884
 5553TIP3    H216666   4.374   3.682   3.300 -0.8538  2.0256  0.7653
 5554TIP3   OH216667   2.946   5.199   0.682  0.3647 -0.3818 -0.0329
 5554TIP3    H116668   2.876   5.211   0.746  1.0292 -2.6787  1.2450
 5554TIP3    H216669   3.003   5.133   0.720  0.9508 -1.6971 -2.8725
 5555TIP3   OH216670   4.454   0.100   4.122  0.2564  0.4875 -0.2346
 5555TIP3    H116671   4.458   0.110   4.027  1.8627  0.1026 -0.2308
 5555TIP3    H216672   4.430   0.008   4.135  2.4575 -0.1654 -0.3211
 5556TIP3   OH216673   4.002   3.659   0.965 -0.1560 -0.1140  0.1565
 5556TIP3    H116674   4.097   3.670   0.964 -0.0549 -0.9091  0.6580
 5556TIP3    H216675   3.987   3.579   1.015 -1.1710  0.7461  1.2839
 5557TIP3   OH216676   5.614   4.640   4.871  0.4015  0.1262  0.0796
 5557TIP3    H116677   5.637   4.642   4.964 -2.0726 -2.6973  0.9275
 5557TIP3    H216678   5.519   4.655   4.870  0.0233 -1.8745 -1.7150
 5558TIP3   OH216679   4.849   2.976   0.959  0.0599 -0.0165 -0.5080
 5558TIP3    H116680   4.852   2.924   1.039  0.5017 -0.6217 -0.9112
 5558TIP3    H216681   4.871   3.065   0.987 -0.3992 -0.0981  0.1358
 5559TIP3   OH216682   2.840   5.105   1.284  0.1382  0.0134 -0.5986
 5559TIP3    H116683   2.816   5.159   1.360 -0.2245  0.2770 -0.8922
 5559TIP3    H216684   2.935   5.113   1.278  0.3365 -1.0733  0.6132
 5560TIP3   OH216685   3.499   3.847   2.864  0.6310  0.1680  0.4163
 5560TIP3    H116686   3.418   3.822   2.819  0.7142  0.6918 -0.0313
 5560TIP3    H216687   3.533   3.764   2.899 -0.3749  0.0209  1.0836
 5561TIP3   OH216688   1.026   5.395   2.628  0.2704 -0.1228  0.1536
 5561TIP3    H116689   0.942   5.417   2.588  0.9021 -0.6114 -1.5602
 5561TIP3    H216690   1.008   5.390   2.722 -1.7337 -0.7667 -0.2176
 5562TIP3   OH216691   3.795   1.027   3.773  0.4656  0.3683  0.1155
 5562TIP3    H116692   3.809   1.049   3.681  0.6683 -0.4278 -0.0528
 5562TIP3    H216693   3.815   0.933   3.778 -1.1420  0.0319  0.6417
 5563TIP3   OH216694   0.258   2.520   3.416  0.2376 -0.5083 -0.1675
 5563TIP3    H116695   0.276   2.436   3.458  0.5248 -0.1243  0.5014
 5563TIP3    H216696   0.344   2.554   3.393  0.1925  0.0207  0.4125
 5564TIP3   OH216697   2.780   3.264   3.150  0.3371  0.2237 -0.1486
 5564TIP3    H116698   2.830   3.186   3.175 -1.1972 -0.5125  0.8145
 5564TIP3    H216699   2.704   3.229   3.103 -1.5083  0.9099  2.1540
 5565TIP3   OH216700   3.612   5.895   1.889  0.0365  0.2364  0.0614
 5565TIP3    H116701   3.690   5.849   1.858  0.2850 -0.2823  1.3763
 5565TIP3    H216702   3.636   5.987   1.888  0.8862  0.0396  0.9827
 5566TIP3   OH216703   2.978   5.545   1.340 -0.3258 -0.3852 -0.1909
 5566TIP3    H116704   2.972   5.527   1.247 -2.9463  0.1531 -0.2069
 5566TIP3    H216705   2.995   5.639   1.345 -2.6319  0.0805 -0.1948
 5567TIP3   OH216706   0.994   5.901   4.374 -0.6251  0.5437 -0.2474
 5567TIP3    H116707   1.003   5.978   4.430 -2.8077  1.5983 -1.2143
 5567TIP3    H216708   0.927   5.848   4.417  0.4626 -0.5767  0.1152
 5568TIP3   OH216709   0.260   5.384   2.116  0.1344  0.2456  0.2038
 5568TIP3    H116710   0.344   5.423   2.139  0.5748 -0.1087 -0.7162
 5568TIP3    H216711   0.247   5.315   2.181  0.9054 -0.1520 -0.0490
 5569TIP3   OH216712   2.409   4.999   3.436 -0.3667  0.0144 -0.3326
 5569TIP3    H116713   2.348   5.011   3.509  0.0684 -0.4820  0.1247
 5569TIP3    H216714   2.383   4.916   3.395 -0.6141  0.2950 -0.7505
 5570TIP3   OH216715   3.272   2.502   2.223  0.4828 -0.4077  0.6375
 5570TIP3    H116716   3.187   2.458   2.223  1.1056 -1.6794  1.4167
 5570TIP3    H216717   3.273   2.552   2.305 -0.2412  1.1312 -0.2677
 5571TIP3   OH216718   1.258   3.421   0.750  0.1397  0.3401  0.2026
 5571TIP3    H116719   1.258   3.328   0.731 -0.1212  0.0556  1.5513
 5571TIP3    H216720   1.351   3.445   0.755  0.2145  0.3182 -0.8306
 5572TIP3   OH216721   2.485   5.155   2.847  0.2628 -0.6380 -0.0005
 5572TIP3    H116722   2.433   5.077   2.866  0.9284 -0.6540  1.9932
 5572TIP3    H216723   2.572   5.121   2.824  1.4126 -0.5954  3.5688
 5573TIP3   OH216724   1.373   2.741   3.450 -0.3887 -0.4342  0.4235
 5573TIP3    H116725   1.305   2.707   3.508 -0.7065 -0.6138 -0.0507
 5573TIP3    H216726   1.328   2.761   3.369  0.0947 -0.3989  0.1586
 5574TIP3   OH216727   4.679   2.855   4.186 -0.4289  0.2369 -0.4987
 5574TIP3    H116728   4.738   2.928   4.204  2.1175 -1.8452  0.1031
 5574TIP3    H216729   4.637   2.836   4.271  0.5303 -0.3089 -0.1297
 5575TIP3   OH216730   0.767   3.434   4.144 -0.1198  0.0565  0.3525
 5575TIP3    H116731   0.782   3.373   4.071  0.7021 -0.2161  0.7374
 5575TIP3    H216732   0.792   3.384   4.221  0.4688  0.8584  0.6847
 5576TIP3   OH216733   5.544   2.672   3.448  0.3793 -0.1568 -0.1423
 5576TIP3    H116734   5.514   2.744   3.393  3.0479  1.4785  0.3455
 5576TIP3    H216735   5.537   2.706   3.538 -0.1101 -1.2494  0.2515
 5577TIP3   OH216736   3.520   3.325   1.287  0.1619  0.4330 -0.0400
 5577TIP3    H116737   3.490   3.352   1.374  2.3580  2.6540  0.1367
 5577TIP3    H216738   3.472   3.381   1.226 -1.0664 -0.8358 -0.2952
 5578TIP3   OH216739   4.178   1.707   0.743  0.5647  0.1453 -0.8131
 5578TIP3    H116740   4.193   1.644   0.673 -1.3152 -1.7857  0.4505
 5578TIP3    H216741   4.098   1.753   0.718  0.3231  0.0051 -0.2934
 5579TIP3   OH216742   0.611   5.713   0.294  0.0920  0.0858  0.3056
 5579TIP3    H116743   0.675   5.724   0.223  1.9217 -1.0413  1.6819
 5579TIP3    H216744   0.658   5.738   0.373 -0.8301 -1.6828  1.4921
 5580TIP3   OH216745   3.656   2.704   3.488  0.3765  0.1413 -0.0421
 5580TIP3    H116746   3.600   2.762   3.539 -0.1993 -0.2042 -0.2650
 5580TIP3    H216747   3.734   2.691   3.542 -0.5280 -0.7946  1.0871
 5581TIP3   OH216748   6.231   2.729   4.209  0.2026 -0.0046 -0.0076
 5581TIP3    H116749   6.185   2.758   4.288 -0.4054 -0.7719 -0.0698
 5581TIP3    H216750   6.166   2.680   4.159  0.7938 -0.1987 -0.6162
 5582TIP3   OH216751   1.370   5.665   1.480 -0.1071 -0.0201 -0.6780
 5582TIP3    H116752   1.378   5.597   1.414  0.1033  0.9943 -1.7304
 5582TIP3    H216753   1.278   5.691   1.478 -0.3995 -0.8919  0.3863
 5583TIP3   OH216754   1.160   5.530   1.331  0.5783 -0.6539  0.2253
 5583TIP3    H116755   1.148   5.531   1.236  0.7436 -1.8822  0.1803
 5583TIP3    H216756   1.230   5.466   1.346  1.5116  0.5056  1.0808
 5584TIP3   OH216757   0.988   4.917   2.234  0.4919 -0.0687 -1.0111
 5584TIP3    H116758   1.043   4.927   2.311  1.3514 -0.7805 -1.5206
 5584TIP3    H216759   1.001   4.826   2.206 -0.5472 -0.1050 -1.4452
 5585TIP3   OH216760   3.502   3.485   0.072  0.1133 -0.1538  0.0684
 5585TIP3    H116761   3.555   3.439   0.137 -1.0423 -1.2159  0.2968
 5585TIP3    H216762   3.502   3.427  -0.004  0.2002  0.3658 -0.3314
 5586TIP3   OH216763   2.905   3.679   3.315  0.9160 -0.0581 -0.4812
 5586TIP3    H116764   2.884   3.623   3.240  1.3912 -1.3531  0.3232
 5586TIP3    H216765   2.997   3.704   3.301 -0.0300  2.9346 -2.3049
 5587TIP3   OH216766   6.184   5.490   0.730  0.2463 -0.1729 -0.2260
 5587TIP3    H116767   6.233   5.481   0.648 -0.1144  1.6095 -0.6774
 5587TIP3    H216768   6.106   5.539   0.705 -0.5056 -0.7088  0.9747
 5588TIP3   OH216769   4.563   3.568   4.257 -0.0056 -0.3009  0.0442
 5588TIP3    H116770   4.563   3.540   4.166 -0.5471  0.1540 -0.1003
 5588TIP3    H216771   4.633   3.517   4.298  0.7820  0.0870 -0.8028
 5589TIP3   OH216772   2.513   2.361   0.292 -0.1347  0.1961  0.5600
 5589TIP3    H116773   2.607   2.348   0.291  0.0340  1.1600  1.5460
 5589TIP3    H216774   2.491   2.392   0.204  0.4878  0.0474  0.3537
 5590TIP3   OH216775   6.111   5.032   4.634  0.3376  0.1594  0.0583
 5590TIP3    H116776   6.185   5.087   4.657  0.7028 -0.1989 -0.2374
 5590TIP3    H216777   6.037   5.092   4.626  1.2058  1.0245 -2.6754
 5591TIP3   OH216778   3.955   4.248   2.847  0.1917 -0.0796  0.2603
 5591TIP3    H116779   3.930   4.187   2.917 -0.4133 -0.4083 -0.2297
 5591TIP3    H216780   3.903   4.221   2.772 -1.6730  2.3068  0.5707
 5592TIP3   OH216781   6.229   1.017   4.605  0.3876  0.1895 -0.4058
 5592TIP3    H116782   6.255   1.109   4.610 -1.1936  0.6221  4.0281
 5592TIP3    H216783   6.303   0.969   4.641 -0.4581  0.2761  1.5538
 5593TIP3   OH216784   3.917   2.474   1.862 -0.4803  0.2439 -1.0075
 5593TIP3    H116785   3.928   2.417   1.786  0.8986  0.6118 -1.1147
 5593TIP3    H216786   3.934   2.562   1.829 -0.6572  0.4992 -0.4332
 5594TIP3   OH216787   3.494   5.703   3.220  0.2507  0.2749 -0.5348
 5594TIP3    H116788   3.418   5.649   3.197  0.9091 -0.6528 -0.5814
 5594TIP3    H216789   3.553   5.694   3.146  0.6814  0.4942 -0.2239
 5595TIP3   OH216790   4.594   5.682   0.499 -0.1025 -0.2289  0.3015
 5595TIP3    H116791   4.642   5.756   0.462 -1.4269  1.0641  1.0464
 5595TIP3    H216792   4.567   5.631   0.423  1.3582 -0.3192 -0.1915
 5596TIP3   OH216793   2.553   5.223   3.338 -0.0469  0.1890 -0.0728
 5596TIP3    H116794   2.489   5.153   3.352 -0.2298  0.3334 -0.1766
 5596TIP3    H216795   2.599   5.197   3.258  0.3505 -0.1553  0.2661
 5597TIP3   OH216796   4.723   2.318   4.449  0.4241 -0.6358 -0.1731
 5597TIP3    H116797   4.684   2.237   4.413  2.1351 -1.7899  0.4546
 5597TIP3    H216798   4.693   2.387   4.390 -1.7747 -1.5803 -0.2522
 5598TIP3   OH216799   3.785   1.829   1.494 -0.5467  0.3813  0.1331
 5598TIP3    H116800   3.707   1.776   1.486 -0.0520 -0.5932  1.4047
 5598TIP3    H216801   3.851   1.784   1.441 -0.8211  1.1977 -0.9339
 5599TIP3   OH216802   2.805   2.262   5.097  0.2280 -0.1783 -0.1102
 5599TIP3    H116803   2.713   2.235   5.094 -0.2570  1.3703 -0.0555
 5599TIP3    H216804   2.830   2.251   5.188  0.1456 -0.7485 -0.1525
 5600TIP3   OH216805   2.210   1.430   2.211 -0.2627 -0.2043  0.3732
 5600TIP3    H116806   2.295   1.426   2.255 -0.8257 -0.6387  1.4595
 5600TIP3    H216807   2.217   1.505   2.152  0.5319  0.4136  1.2164
 5601TIP3   OH216808   4.497   5.737   2.683  0.0436 -0.0170  0.0610
 5601TIP3    H116809   4.569   5.724   2.621  0.1317  0.9025 -0.0416
 5601TIP3    H216810   4.455   5.651   2.688 -1.2690  0.3275 -2.9276
 5602TIP3   OH216811   1.431   1.839   3.028  0.2869  0.0817 -0.4264
 5602TIP3    H116812   1.457   1.811   2.940  0.4989 -1.2385  0.0274
 5602TIP3    H216813   1.473   1.776   3.086 -1.1241 -0.0204  0.5327
 5603TIP3   OH216814   5.781   4.205   1.638 -0.2764  0.3692 -0.1201
 5603TIP3    H116815   5.836   4.127   1.648  0.1684  0.5278 -1.2197
 5603TIP3    H216816   5.844   4.277   1.631 -0.6299  0.5871 -1.1140
 5604TIP3   OH216817   3.121   2.402   3.981  0.1330 -0.3616 -0.3261
 5604TIP3    H116818   3.092   2.474   3.926  0.9166  0.8693  0.8167
 5604TIP3    H216819   3.040   2.362   4.013 -0.3157 -0.5488 -1.6278
 5605TIP3   OH216820   0.489   3.292   1.250  0.2991  0.0343 -0.2154
 5605TIP3    H116821   0.526   3.291   1.339 -0.1349  2.3173  0.0607
 5605TIP3    H216822   0.427   3.365   1.251  0.5575  0.3529 -2.4982
 5606TIP3   OH216823   0.012   3.469   3.959 -0.3608 -0.4047 -0.0698
 5606TIP3    H116824   0.050   3.524   3.890 -2.0097  0.3979 -0.3835
 5606TIP3    H216825  -0.001   3.384   3.917  0.7981 -0.6171 -0.0321
 5607TIP3   OH216826   6.000   3.165   1.994  0.2492 -0.2754 -0.1001
 5607TIP3    H116827   5.943   3.137   1.923  0.2954  2.4957 -1.3616
 5607TIP3    H216828   6.024   3.254   1.971  1.2857  0.2925  2.8111
 5608TIP3   OH216829   0.155   2.557   1.056  0.2462 -0.9519 -0.0987
 5608TIP3    H116830   0.085   2.621   1.073 -0.2278 -1.5504  0.2640
 5608TIP3    H216831   0.108   2.477   1.031  0.7365 -1.7757  1.4993
 5609TIP3   OH216832   0.686   5.766   4.374  0.1622 -0.8439  0.2251
 5609TIP3    H116833   0.760   5.709   4.394  2.3684  1.1378 -1.6957
 5609TIP3    H216834   0.664   5.746   4.283  1.4575  1.6681 -0.7554
 5610TIP3   OH216835   4.881   1.410   4.062 -0.2575 -0.0258 -0.2472
 5610TIP3    H116836   4.928   1.445   4.137  0.1276  0.8984 -0.9043
 5610TIP3    H216837   4.861   1.487   4.008  0.7150 -0.7957 -1.7868
 5611TIP3   OH216838   3.912   1.114   2.122 -0.2309 -0.0453 -0.1681
 5611TIP3    H116839   3.863   1.191   2.095 -1.5803 -1.3138 -1.4980
 5611TIP3    H216840   4.004   1.141   2.117 -0.5302  0.7123 -3.1835
 5612TIP3   OH216841   4.110   4.639   4.519 -0.0021 -0.6045 -0.8840
 5612TIP3    H116842   4.137   4.550   4.541  1.0651  0.0688  0.7904
 5612TIP3    H216843   4.165   4.663   4.444 -0.0274 -1.2297 -1.1024
 5613TIP3   OH216844   5.085   5.419   2.115 -0.5658 -0.1291 -0.0230
 5613TIP3    H116845   4.994   5.447   2.124 -1.5179 -2.4879 -1.3413
 5613TIP3    H216846   5.125   5.440   2.199 -1.6802  2.9192 -0.1194
 5614TIP3   OH216847   3.779   4.514   3.944 -0.5641  0.7061  0.1979
 5614TIP3    H116848   3.846   4.446   3.953  1.0039  2.0439 -0.7705
 5614TIP3    H216849   3.707   4.471   3.897  0.9864  0.0443 -1.7255
 5615TIP3   OH216850   5.825   3.742   2.882 -0.4622 -0.4816 -0.4815
 5615TIP3    H116851   5.731   3.736   2.862 -0.2916  0.3084 -1.6458
 5615TIP3    H216852   5.866   3.681   2.820 -0.0162  1.1103 -1.8335
 5616TIP3   OH216853   3.415   3.976   3.384 -0.5136 -0.0924  0.1185
 5616TIP3    H116854   3.333   3.931   3.401 -0.8071  0.9666  1.6934
 5616TIP3    H216855   3.458   3.924   3.316 -3.5123  0.5542 -2.4960
 5617TIP3   OH216856   4.000   1.812   3.881  0.0394 -0.1782 -0.3066
 5617TIP3    H116857   3.911   1.787   3.857  0.4165  0.5032 -2.6427
 5617TIP3    H216858   4.055   1.745   3.842  0.5958 -0.5188  1.0063
 5618TIP3   OH216859   6.040   3.627   0.994 -0.4016  0.1388 -0.3511
 5618TIP3    H116860   5.968   3.591   1.046 -0.3883 -0.1003 -0.4947
 5618TIP3    H216861   6.108   3.648   1.058 -0.5096  0.1467 -0.2389
 5619TIP3   OH216862   3.081   2.236   2.997  0.1166  0.1640  0.0979
 5619TIP3    H116863   2.990   2.246   3.024 -0.5328  0.9207 -2.1777
 5619TIP3    H216864   3.077   2.181   2.919  1.7099 -0.3368  0.3185
 5620TIP3   OH216865   1.124   3.125   3.013 -0.0537 -0.0625 -0.2403
 5620TIP3    H116866   1.138   3.061   2.944 -0.3677  0.0926 -0.4520
 5620TIP3    H216867   1.048   3.091   3.061 -0.6221  0.4692 -0.7428
 5621TIP3   OH216868   5.021   2.663   2.260 -0.8717 -0.2858 -0.1419
 5621TIP3    H116869   5.026   2.583   2.207 -0.5755 -0.1163 -0.3701
 5621TIP3    H216870   5.112   2.685   2.279 -0.9841 -0.9420  1.3420
 5622TIP3   OH216871   5.484   0.476   3.071 -0.1178 -0.2058 -0.4890
 5622TIP3    H116872   5.432   0.453   3.148 -1.2577 -1.1856 -1.5059
 5622TIP3    H216873   5.429   0.452   2.996  1.5005 -0.6146 -1.6219
 5623TIP3   OH216874   0.126   3.091   0.389  0.1108 -0.0240 -0.0993
 5623TIP3    H116875   0.071   3.068   0.465 -0.0294 -0.8556 -0.4390
 5623TIP3    H216876   0.180   3.013   0.374 -0.4878 -0.2231 -1.3898
 5624TIP3   OH216877   0.027   2.377   5.141  0.6139 -0.3566 -0.6109
 5624TIP3    H116878   0.087   2.304   5.152 -1.0793 -1.9129 -1.2467
 5624TIP3    H216879   0.083   2.455   5.145  1.9667 -1.2352  4.8070
 5625TIP3   OH216880   1.347   4.556   4.752 -0.0782 -0.0301 -0.2939
 5625TIP3    H116881   1.333   4.463   4.738  0.3666 -0.7991  3.3738
 5625TIP3    H216882   1.273   4.585   4.805  0.1083  1.5667 -0.8345
 5626TIP3   OH216883   2.792   0.832   0.535  0.3299  0.3989 -0.1710
 5626TIP3    H116884   2.768   0.820   0.627  0.5716 -0.0803 -0.1657
 5626TIP3    H216885   2.802   0.927   0.525  1.4554  0.3907  0.6054
 5627TIP3   OH216886   5.799   4.486   1.853 -0.1639  0.2213  0.1936
 5627TIP3    H116887   5.884   4.508   1.891  0.6690 -0.6543 -1.0743
 5627TIP3    H216888   5.813   4.495   1.758 -1.7346  0.8780 -0.0062
 5628TIP3   OH216889   3.084   0.639   3.361  0.6103 -0.1435  0.5171
 5628TIP3    H116890   3.049   0.708   3.418 -0.2277  0.0433 -0.1963
 5628TIP3    H216891   3.175   0.665   3.344 -0.1490  1.7017 -1.0567
 5629TIP3   OH216892   4.809   2.487   3.679  0.3599  0.5088  0.0599
 5629TIP3    H116893   4.774   2.539   3.752 -1.8516  2.8045 -2.4428
 5629TIP3    H216894   4.760   2.406   3.683  0.2647  0.5922  1.0727
 5630TIP3   OH216895   1.849   3.118   2.766 -0.0302  0.1748  0.3938
 5630TIP3    H116896   1.896   3.049   2.811 -0.5990 -0.1701  0.4715
 5630TIP3    H216897   1.760   3.084   2.757 -0.0053  0.3658 -0.7063
 5631TIP3   OH216898   0.031   3.144   1.368 -0.3656 -0.1848  0.8363
 5631TIP3    H116899   0.054   3.157   1.460  0.7931 -2.1879  0.8894
 5631TIP3    H216900   0.115   3.126   1.325 -0.9156  0.5387 -0.5927
 5632TIP3   OH216901   4.518   2.954   2.440 -0.3425  0.0219  0.0396
 5632TIP3    H116902   4.524   2.967   2.345  0.2425  1.8435  0.2840
 5632TIP3    H216903   4.536   2.861   2.453 -1.5723 -0.5167 -1.7046
 5633TIP3   OH216904   5.637   0.858   1.766 -0.4210 -0.4170 -0.7323
 5633TIP3    H116905   5.592   0.935   1.798 -0.5868 -0.3102 -1.2049
 5633TIP3    H216906   5.598   0.841   1.680 -1.0715 -1.6048 -0.2303
 5634TIP3   OH216907   2.096   3.822   3.463  0.0155  0.3804 -0.1021
 5634TIP3    H116908   2.035   3.815   3.537  1.6105 -0.3003  1.2097
 5634TIP3    H216909   2.039   3.821   3.386 -1.6583  0.1977  1.0647
 5635TIP3   OH216910   5.585   0.781   2.222 -0.2004  0.0675  0.3398
 5635TIP3    H116911   5.526   0.854   2.201 -0.1767 -0.5205 -2.1465
 5635TIP3    H216912   5.537   0.728   2.286 -1.8205  0.3272 -0.6099
 5636TIP3   OH216913   2.062   0.184   1.621 -0.3099 -0.3162  0.1615
 5636TIP3    H116914   2.151   0.219   1.618  0.1454 -1.4436 -0.0412
 5636TIP3    H216915   2.008   0.257   1.650  0.4811  0.7766 -1.0201
 5637TIP3   OH216916   5.703   5.447   0.489  0.3157 -0.3992  0.5202
 5637TIP3    H116917   5.736   5.358   0.481 -2.1827 -1.4040  0.4309
 5637TIP3    H216918   5.721   5.471   0.580  1.8021 -0.6067  0.3125
 5638TIP3   OH216919   0.860   1.629   0.705  0.2269 -0.1842  0.0131
 5638TIP3    H116920   0.800   1.673   0.645 -1.5360  1.0716  2.5255
 5638TIP3    H216921   0.825   1.540   0.713 -0.7771  0.2370  0.6480
 5639TIP3   OH216922   1.735   2.543   0.002  0.1747  0.3663 -0.7958
 5639TIP3    H116923   1.724   2.467  -0.055 -0.3061  0.5279 -0.9197
 5639TIP3    H216924   1.742   2.506   0.090 -2.6601  0.2862 -0.5258
 5640TIP3   OH216925   3.468   4.607   1.177 -0.3636  0.8396 -0.0702
 5640TIP3    H116926   3.550   4.657   1.170 -0.4120  1.1645  1.3110
 5640TIP3    H216927   3.409   4.650   1.116  0.1493  1.3600 -0.2150
 5641TIP3   OH216928   3.613   1.941   2.273  0.1814 -0.3286 -0.3036
 5641TIP3    H116929   3.565   1.861   2.253  0.6157 -0.1440 -2.2159
 5641TIP3    H216930   3.643   1.974   2.188  1.8747  0.6972  0.6304
 5642TIP3   OH216931   3.177   0.844   2.499 -0.3501 -0.4938  0.3287
 5642TIP3    H116932   3.163   0.894   2.580  0.2076 -0.3838  0.3566
 5642TIP3    H216933   3.138   0.758   2.517 -1.0809 -0.1668  0.3743
 5643TIP3   OH216934   0.170   0.496   2.660 -0.4127 -0.0402  0.0085
 5643TIP3    H116935   0.198   0.419   2.710 -0.2018 -0.1328 -0.2511
 5643TIP3    H216936   0.184   0.570   2.719  1.5966  0.0800 -0.5637
 5644TIP3   OH216937   1.234   0.826   5.016 -0.1543  0.1905 -0.1349
 5644TIP3    H116938   1.232   0.815   5.111 -0.4796  0.2526 -0.1334
 5644TIP3    H216939   1.153   0.872   4.995  0.0635  0.4536 -0.4094
 5645TIP3   OH216940   0.543   0.138   1.208 -0.1191 -0.2399  0.1377
 5645TIP3    H116941   0.488   0.060   1.193 -1.7024  0.7384  0.5820
 5645TIP3    H216942   0.500   0.184   1.280  0.2725  1.4757 -0.6715
 5646TIP3   OH216943   3.931   2.813   2.172 -0.1620 -0.4055  0.0428
 5646TIP3    H116944   3.889   2.746   2.226  1.2590 -1.1271  0.3036
 5646TIP3    H216945   3.957   2.882   2.233 -2.1706  0.7341 -0.3037
 5647TIP3   OH216946   4.735   1.831   2.033 -0.1004  0.0015 -0.2005
 5647TIP3    H116947   4.829   1.822   2.020  0.0566  0.2755  0.7073
 5647TIP3    H216948   4.720   1.808   2.125 -0.4742  2.9736  0.5905
 5648TIP3   OH216949   4.657   2.202   2.682 -0.4808  0.1528  0.1005
 5648TIP3    H116950   4.693   2.142   2.617  1.9227  2.3547 -0.7515
 5648TIP3    H216951   4.698   2.176   2.764 -1.2319 -0.7567  0.2082
 5649TIP3   OH216952   2.275   3.135   1.120  0.0789  0.4476 -0.3126
 5649TIP3    H116953   2.254   3.105   1.208 -0.4422 -1.5294 -1.0613
 5649TIP3    H216954   2.220   3.212   1.106 -0.7440  0.0440  0.6388
 5650TIP3   OH216955   3.571   1.958   1.643  0.0222 -0.0670  0.5738
 5650TIP3    H116956   3.639   1.913   1.593 -1.5336 -1.5892 -0.2911
 5650TIP3    H216957   3.582   2.050   1.621  0.4229 -0.5198 -1.3272
 5651TIP3   OH216958   1.904   5.825   3.828  0.7895 -0.0529 -0.2097
 5651TIP3    H116959   1.946   5.874   3.898 -0.1456  1.1572 -0.4594
 5651TIP3    H216960   1.887   5.890   3.760 -1.4676 -0.4348 -0.1092
 5652TIP3   OH216961   3.074   4.139   0.222  0.6881 -0.3819 -0.2282
 5652TIP3    H116962   3.007   4.078   0.253  0.2260 -0.0175 -0.5074
 5652TIP3    H216963   3.046   4.225   0.253  0.5687 -0.1071 -1.0778
 5653TIP3   OH216964  -0.020   3.340   4.346 -0.3584  0.4199 -0.1709
 5653TIP3    H116965   0.065   3.355   4.304 -0.1374  0.7746  0.3906
 5653TIP3    H216966  -0.020   3.247   4.368  0.4176  0.6783  0.9717
 5654TIP3   OH216967   2.823   5.268   1.953 -0.5474  0.0222 -0.1204
 5654TIP3    H116968   2.905   5.299   1.913 -0.3481 -2.2480 -1.6668
 5654TIP3    H216969   2.758   5.279   1.884 -1.5408  1.4449  0.9757
 5655TIP3   OH216970   3.645   0.581   0.088  0.3658  0.3725  0.1749
 5655TIP3    H116971   3.608   0.555   0.004 -0.0275 -2.5798  1.1328
 5655TIP3    H216972   3.722   0.633   0.065  0.7545 -1.0496 -2.0757
 5656TIP3   OH216973   2.416   4.745   4.477  0.1498 -0.0733 -0.5407
 5656TIP3    H116974   2.482   4.745   4.546  0.0625 -0.9043 -0.4506
 5656TIP3    H216975   2.349   4.804   4.509  0.9085  0.9022 -0.6980
 5657TIP3   OH216976   4.372   4.045   1.073 -0.1244 -0.5422 -0.1695
 5657TIP3    H116977   4.458   4.014   1.047 -0.1104 -1.5401  1.0156
 5657TIP3    H216978   4.354   4.118   1.013  1.9519  0.3467  0.2045
 5658TIP3   OH216979   3.624   1.492   1.959  0.1198  0.2113 -0.1306
 5658TIP3    H116980   3.602   1.418   1.903 -0.0163 -0.6085  0.9647
 5658TIP3    H216981   3.540   1.530   1.984  0.1141 -0.1934  0.4962
 5659TIP3   OH216982   5.589   5.978   3.852 -0.3772 -0.1698 -1.2411
 5659TIP3    H116983   5.547   5.895   3.832  0.3686 -0.5769 -1.1609
 5659TIP3    H216984   5.620   5.969   3.942 -2.0335  0.9440 -0.5128
 5660TIP3   OH216985   2.939   0.187   0.040  0.1603  0.4595 -0.5468
 5660TIP3    H116986   3.007   0.168   0.105  0.2346 -0.4696 -0.8847
 5660TIP3    H216987   2.857   0.182   0.088  0.2169 -0.2063 -0.5039
 5661TIP3   OH216988   0.110   4.900   0.366  0.7302 -0.5338 -0.0518
 5661TIP3    H116989   0.023   4.933   0.390  1.1720 -0.1826  1.1422
 5661TIP3    H216990   0.163   4.980   0.355  0.8799 -0.7405 -0.9054
 5662TIP3   OH216991   4.469   4.811   4.801 -0.0696 -0.5805  0.1684
 5662TIP3    H116992   4.464   4.893   4.851 -0.5204 -0.9344  0.7139
 5662TIP3    H216993   4.440   4.835   4.713  1.5293  0.2342 -0.1788
 5663TIP3   OH216994   1.067   1.563   2.488  0.4747 -0.1848 -0.2166
 5663TIP3    H116995   1.000   1.594   2.428  1.5083  0.4162 -1.1056
 5663TIP3    H216996   1.033   1.584   2.575  0.3140  1.8524 -0.7182
 5664TIP3   OH216997   4.681   5.741   1.874  0.3227  0.1188 -0.5308
 5664TIP3    H116998   4.607   5.713   1.821  0.2552 -1.0034  0.1404
 5664TIP3    H216999   4.750   5.762   1.811 -0.0050 -0.4668 -1.0836
 5665TIP3   OH217000   0.006   5.727   4.185 -0.1208  0.3462 -0.5693
 5665TIP3    H117001  -0.044   5.735   4.104  0.1470  0.0817 -0.7611
 5665TIP3    H217002   0.049   5.813   4.195 -0.5031  0.5300 -0.4701
 5666TIP3   OH217003   3.330   0.273   3.176  0.2414  0.0472  0.3050
 5666TIP3    H117004   3.292   0.188   3.201 -1.2549  0.9872  1.3720
 5666TIP3    H217005   3.379   0.254   3.096 -0.8095 -1.6521  0.0038
 5667TIP3   OH217006   0.495   0.816   2.804  0.7174 -0.2047  0.2281
 5667TIP3    H117007   0.554   0.759   2.754  0.5134 -1.3536  1.2526
 5667TIP3    H217008   0.533   0.819   2.891  1.3879  2.2403 -0.0682
 5668TIP3   OH217009   1.973   1.847   2.208 -0.0317  0.6500 -0.0963
 5668TIP3    H117010   1.988   1.940   2.224  1.9393  0.2872  0.4609
 5668TIP3    H217011   2.051   1.818   2.161 -0.1614 -0.9258  0.5857
 5669TIP3   OH217012   3.930   5.878   2.449 -0.7716 -0.1108  0.0958
 5669TIP3    H117013   3.997   5.883   2.518 -1.1225 -1.5012  0.5711
 5669TIP3    H217014   3.899   5.787   2.453 -1.3156 -0.0133 -1.4208
 5670TIP3   OH217015   1.811   4.523   5.062  0.3031  0.1330  0.3346
 5670TIP3    H117016   1.786   4.469   5.137 -2.2573 -0.4273 -0.8346
 5670TIP3    H217017   1.804   4.613   5.095 -1.8136 -0.0676  0.5585
 5671TIP3   OH217018   6.002   1.606   2.700 -0.0934  0.5242 -1.2195
 5671TIP3    H117019   6.028   1.526   2.746  0.4231  0.3663 -1.7663
 5671TIP3    H217020   6.064   1.672   2.729 -1.8617  1.3454  0.9633
 5672TIP3   OH217021   0.468   4.119   4.080  0.7854 -0.2689 -0.0499
 5672TIP3    H117022   0.491   4.096   3.990  0.6824  1.1373 -0.4486
 5672TIP3    H217023   0.381   4.158   4.073  0.7180 -0.2815  0.6855
 5673TIP3   OH217024   5.395   5.122   0.209  0.3942  0.1642  0.0514
 5673TIP3    H117025   5.353   5.046   0.248  0.2802  0.6615  0.9166
 5673TIP3    H217026   5.369   5.119   0.117 -0.0451 -0.5402  0.1930
 5674TIP3   OH217027   1.297   1.430   3.591  0.1761  0.2549 -0.4085
 5674TIP3    H117028   1.224   1.386   3.634  1.1832 -1.9998 -0.9019
 5674TIP3    H217029   1.292   1.402   3.499  0.9870  1.0158 -0.7031
 5675TIP3   OH217030   3.818   0.913   0.335  0.5744 -0.4980  0.0430
 5675TIP3    H117031   3.801   1.006   0.320  2.2966  0.2978  2.3680
 5675TIP3    H217032   3.752   0.886   0.399 -0.5844 -1.2138 -1.3986
 5676TIP3   OH217033   3.784   4.776   2.286 -0.1238  0.0801  0.4211
 5676TIP3    H117034   3.839   4.700   2.265 -0.6707 -0.2478  0.1403
 5676TIP3    H217035   3.753   4.807   2.201 -0.0511  0.5084  0.5513
 5677TIP3   OH217036   3.319   3.622   3.965  0.1145 -0.2986  0.1956
 5677TIP3    H117037   3.256   3.599   3.897  1.9338  0.8732 -2.0622
 5677TIP3    H217038   3.392   3.561   3.952  0.3400 -0.3159  1.3903
 5678TIP3   OH217039   1.026   0.665   1.608 -0.3809  0.1549 -0.0608
 5678TIP3    H117040   1.072   0.614   1.674  0.5265  0.7165 -0.2506
 5678TIP3    H217041   1.031   0.611   1.529  0.5321  0.4931 -0.2481
 5679TIP3   OH217042   2.950   5.465   0.960  0.4450 -0.1893 -0.3631
 5679TIP3    H117043   2.906   5.476   0.876  0.5743  0.9701 -0.2880
 5679TIP3    H217044   2.880   5.469   1.025  0.5227  0.5649 -0.3165
 5680TIP3   OH217045   1.925   5.180   4.005  0.1330 -0.0571 -0.2348
 5680TIP3    H117046   1.900   5.207   4.093  0.7241 -0.2595 -0.0017
 5680TIP3    H217047   1.884   5.094   3.994  0.4963 -0.2612  0.0352
 5681TIP3   OH217048   1.079   3.930   3.582  0.2651  0.5944  0.6744
 5681TIP3    H117049   1.067   3.878   3.661  0.9762  0.2588  0.5716
 5681TIP3    H217050   1.174   3.935   3.571  0.1736  0.6950 -0.1151
 5682TIP3   OH217051   4.615   0.375   0.899 -0.0662  0.2346  0.2267
 5682TIP3    H117052   4.701   0.411   0.876 -0.2587  0.3409 -0.3397
 5682TIP3    H217053   4.579   0.438   0.963  0.2628  0.2010  0.4481
 5683TIP3   OH217054   2.858   3.177   1.803  0.2999  0.4852 -0.3275
 5683TIP3    H117055   2.923   3.215   1.862  1.1790 -0.1202 -0.8891
 5683TIP3    H217056   2.775   3.187   1.849  0.9858 -0.1226  1.0849
 5684TIP3   OH217057   0.019   3.975   3.032  0.2987  0.0585 -1.2844
 5684TIP3    H117058   0.063   3.943   2.953  0.2144  1.4362 -1.9205
 5684TIP3    H217059   0.022   3.901   3.093  0.1257 -1.1195 -2.6618
 5685TIP3   OH217060   0.463   2.676   0.251  0.5282 -0.7276 -0.1569
 5685TIP3    H117061   0.376   2.672   0.211  0.2262  0.9538  0.2443
 5685TIP3    H217062   0.518   2.720   0.186  0.2900  1.0663  0.8070
 5686TIP3   OH217063   1.088   3.156   3.530  0.5702  0.4853 -0.1537
 5686TIP3    H117064   1.065   3.064   3.516 -2.2239  0.7634  1.6932
 5686TIP3    H217065   1.107   3.190   3.442  0.2712 -1.5030 -1.0408
 5687TIP3   OH217066   3.602   2.729   4.091  0.6462  0.0174  0.4368
 5687TIP3    H117067   3.670   2.790   4.063  0.1151 -0.0181 -0.9810
 5687TIP3    H217068   3.529   2.746   4.032  0.3153 -1.6473  0.3276
 5688TIP3   OH217069   5.705   1.607   0.348 -0.8978 -0.3021  0.4351
 5688TIP3    H117070   5.697   1.564   0.263 -2.8415  0.4878  0.1593
 5688TIP3    H217071   5.794   1.644   0.348 -0.8182 -0.4085 -1.1996
 5689TIP3   OH217072   0.388   5.757   3.564  0.6004  0.7865  0.5449
 5689TIP3    H117073   0.446   5.788   3.633 -1.8023  1.4284  2.4195
 5689TIP3    H217074   0.339   5.835   3.537 -0.0783  0.1007 -0.2548
 5690TIP3   OH217075   2.569   2.224   2.137  0.1818 -0.1183  0.6598
 5690TIP3    H117076   2.482   2.244   2.102  0.7961  0.4292 -0.5950
 5690TIP3    H217077   2.599   2.306   2.177  0.9226  0.2873 -0.6750
 5691TIP3   OH217078   2.704   1.287   4.150 -0.1106  0.3806  0.3878
 5691TIP3    H117079   2.624   1.322   4.188  0.5018 -1.4328  3.8890
 5691TIP3    H217080   2.679   1.201   4.117  0.0564  0.5307 -0.1318
 5692TIP3   OH217081   3.204   5.903   0.483  0.0629 -0.8154 -0.7174
 5692TIP3    H117082   3.194   5.954   0.564  1.2303 -0.9500 -0.4677
 5692TIP3    H217083   3.124   5.921   0.434 -0.7341 -0.8525  0.5280
 5693TIP3   OH217084   0.641   2.736   1.684  1.0513 -0.8172 -0.0168
 5693TIP3    H117085   0.736   2.733   1.674  1.5383 -0.3223  3.2355
 5693TIP3    H217086   0.617   2.648   1.714  0.5579 -0.7955 -0.3353
 5694TIP3   OH217087   0.224   2.560   1.811 -0.3340  0.2559  0.8069
 5694TIP3    H117088   0.298   2.504   1.833  0.2102  0.1734 -1.0807
 5694TIP3    H217089   0.264   2.636   1.767 -1.2998  0.6894  0.6543
 5695TIP3   OH217090   1.395   0.196   4.700 -0.0121  0.2129 -0.0703
 5695TIP3    H117091   1.446   0.268   4.663  0.6844 -0.0249  0.4116
 5695TIP3    H217092   1.383   0.219   4.792 -1.1584  0.4737 -0.2702
 5696TIP3   OH217093   4.340  -0.035   2.577  0.3156 -0.3899 -0.0839
 5696TIP3    H117094   4.252   0.003   2.578  0.0298 -1.0100 -0.7885
 5696TIP3    H217095   4.399   0.040   2.569 -0.2560 -0.0916 -2.0559
 5697TIP3   OH217096   0.755   1.845   2.345  0.5473 -0.4278  0.2910
 5697TIP3    H117097   0.796   1.764   2.314 -1.1426 -1.4184  0.5120
 5697TIP3    H217098   0.661   1.829   2.338  0.1113  0.6207  2.5986
 5698TIP3   OH217099   5.000   3.008   2.650  0.4863  0.0090 -0.2400
 5698TIP3    H117100   4.947   2.974   2.723 -0.2614 -0.0715 -0.8002
 5698TIP3    H217101   4.943   3.072   2.608  0.8906  0.0131 -0.7883
 5699TIP3   OH217102   4.353   3.393   4.351 -0.0002  0.6730  0.0052
 5699TIP3    H117103   4.321   3.468   4.403 -0.8480  1.4674 -1.5777
 5699TIP3    H217104   4.411   3.433   4.286  0.1112 -0.1517 -0.4030
 5700TIP3   OH217105   0.676   4.976   2.787  0.6103  0.2185  0.3913
 5700TIP3    H117106   0.689   5.051   2.845 -1.8716  0.7936  0.3227
 5700TIP3    H217107   0.626   5.012   2.713 -1.1547 -1.5936  0.6345
 5701TIP3   OH217108   0.097   1.794   2.351  0.0716 -0.1824 -0.2920
 5701TIP3    H117109   0.068   1.735   2.282 -0.1803 -2.2017  1.4179
 5701TIP3    H217110   0.159   1.742   2.402 -0.6364  0.7741  1.6491
 5702TIP3   OH217111   3.683   3.140   1.091 -0.4527 -0.1265 -0.0849
 5702TIP3    H117112   3.622   3.184   1.151  0.4703  0.6808  0.3046
 5702TIP3    H217113   3.671   3.184   1.007 -1.0139 -0.5559 -0.2320
 5703TIP3   OH217114   3.618   2.468   2.273  0.1296  0.6712 -0.4341
 5703TIP3    H117115   3.638   2.376   2.288 -4.8302 -0.5545  0.7367
 5703TIP3    H217116   3.631   2.481   2.179 -0.8475 -1.8998 -1.0104
 5704TIP3   OH217117   6.290   2.827   3.905 -0.5942  0.0216  0.0492
 5704TIP3    H117118   6.313   2.884   3.979 -1.4949  0.3697  0.0775
 5704TIP3    H217119   6.235   2.759   3.943 -1.3568  0.4007 -0.3425
 5705TIP3   OH217120   1.229   5.392   4.617 -0.5705 -0.1128  0.2261
 5705TIP3    H117121   1.254   5.474   4.659 -1.2778  0.5693 -0.6335
 5705TIP3    H217122   1.166   5.352   4.677  0.3806 -0.4414  1.0322
 5706TIP3   OH217123   0.259   5.590   4.196 -0.1454 -0.3870  0.2602
 5706TIP3    H117124   0.216   5.624   4.117 -0.3467  0.3594  0.6796
 5706TIP3    H217125   0.288   5.668   4.243  0.9551 -0.8567  0.3917
 5707TIP3   OH217126   3.113   4.068   0.987 -0.4527  0.1066  0.0760
 5707TIP3    H117127   3.116   4.033   0.898  0.8514  0.7794 -0.1609
 5707TIP3    H217128   3.019   4.074   1.006 -1.0001  2.9902 -2.5062
 5708TIP3   OH217129   5.805   2.437   2.266  0.1107  0.2253 -0.3246
 5708TIP3    H117130   5.877   2.491   2.234 -0.4380 -0.1365 -2.2495
 5708TIP3    H217131   5.849   2.360   2.303  0.7485 -0.7424 -2.8896
 5709TIP3   OH217132   2.295   3.256   2.274  0.0437  0.2368 -0.4262
 5709TIP3    H117133   2.386   3.245   2.244  1.1424  3.9945  0.8835
 5709TIP3    H217134   2.243   3.257   2.194  1.5805  0.7610 -1.4644
 5710TIP3   OH217135   2.586   5.862   3.447  0.1127 -0.2251  0.5198
 5710TIP3    H117136   2.653   5.796   3.427 -0.8612 -1.3125  0.7249
 5710TIP3    H217137   2.626   5.916   3.515  0.7230 -0.9546  0.7618
 5711TIP3   OH217138   4.434   2.489   2.188 -0.1977 -0.3591 -0.4765
 5711TIP3    H117139   4.401   2.505   2.100  0.8216  0.0767 -0.8038
 5711TIP3    H217140   4.486   2.567   2.208  0.4525 -0.9196  0.0751
 5712TIP3   OH217141   4.029   2.156   0.839  0.3926  0.5759 -0.3031
 5712TIP3    H117142   3.935   2.159   0.826 -0.1278  0.3395  2.7590
 5712TIP3    H217143   4.062   2.108   0.763 -2.1656 -1.1403 -0.4429
 5713TIP3   OH217144   3.962   2.741   4.333 -0.1206  0.2432  0.2247
 5713TIP3    H117145   3.946   2.692   4.252  1.3016  1.0334 -0.5748
 5713TIP3    H217146   4.052   2.720   4.357  0.4986  2.3325 -0.0896
 5714TIP3   OH217147   2.758   0.784   4.920 -0.0423  0.5908 -1.1099
 5714TIP3    H117148   2.756   0.749   5.009 -0.2041  0.5821 -1.1155
 5714TIP3    H217149   2.733   0.876   4.930 -0.2846  0.5342 -1.1691
 5715TIP3   OH217150   5.478   5.970   5.084 -0.1291  0.2047 -0.8679
 5715TIP3    H117151   5.399   5.930   5.048  0.1239 -0.0260 -1.1688
 5715TIP3    H217152   5.504   5.913   5.156 -1.5370  1.5024  0.7748
 5716TIP3   OH217153   1.401   0.212   1.742  0.2034 -0.2786  0.1215
 5716TIP3    H117154   1.308   0.191   1.749  0.2243 -0.3528  0.1758
 5716TIP3    H217155   1.417   0.215   1.647  0.2616 -0.7945  0.1103
 5717TIP3   OH217156   6.167   4.154   2.923  0.4017 -0.0302  0.3524
 5717TIP3    H117157   6.130   4.191   3.004  0.5493  1.1256 -0.0817
 5717TIP3    H217158   6.251   4.117   2.950  0.9179  1.2365  0.5816
 5718TIP3   OH217159   0.913   0.346   3.590 -0.5102  0.0866  0.0674
 5718TIP3    H117160   0.918   0.391   3.674 -0.2759 -0.2560  0.2424
 5718TIP3    H217161   0.859   0.402   3.535 -0.3502  0.5006  0.3290
 5719TIP3   OH217162   5.351   3.060   3.393 -0.1784 -0.0765  0.4602
 5719TIP3    H117163   5.323   3.120   3.324 -2.0480 -1.4010 -0.0123
 5719TIP3    H217164   5.442   3.038   3.371  0.0012  1.2902 -0.2661
 5720TIP3   OH217165   3.140   2.584   1.410  0.1071  0.6427  0.5935
 5720TIP3    H117166   3.168   2.585   1.502  1.8862 -0.5999  0.1247
 5720TIP3    H217167   3.048   2.611   1.412 -0.1319 -0.1637  2.8322
 5721TIP3   OH217168   0.157   2.172   1.879  0.2449 -0.7442  0.3332
 5721TIP3    H117169   0.190   2.082   1.884 -0.5353 -1.0896 -0.5294
 5721TIP3    H217170   0.082   2.173   1.939  0.1090 -0.7375  0.1643
 5722TIP3   OH217171   5.462   2.848   4.127  0.1905 -0.2744  0.6407
 5722TIP3    H117172   5.488   2.939   4.138 -0.0149 -0.0377 -0.6881
 5722TIP3    H217173   5.392   2.850   4.062  0.0347 -1.3582  0.7510
 5723TIP3   OH217174   0.913   1.590   2.252  0.3284 -0.1223  0.2369
 5723TIP3    H117175   1.003   1.621   2.258 -0.1363  1.2903  0.2814
 5723TIP3    H217176   0.889   1.601   2.160 -0.5232  1.7626  0.6291
 5724TIP3   OH217177   2.056   4.180   3.675  0.3468 -0.0424  0.0076
 5724TIP3    H117178   2.089   4.184   3.766 -0.9907  0.4611  0.4847
 5724TIP3    H217179   2.096   4.256   3.632 -0.1343  0.5313  0.5623
 5725TIP3   OH217180   4.100   2.956   4.803  0.4122 -0.6433 -0.6421
 5725TIP3    H117181   4.073   3.041   4.769 -0.0263  0.4026  2.0918
 5725TIP3    H217182   4.195   2.954   4.789  0.5980  0.8057  0.1956
 5726TIP3   OH217183   2.569   4.900   2.038 -0.1526 -0.0451 -0.1361
 5726TIP3    H117184   2.551   4.931   1.949  1.1544  1.8197  0.1775
 5726TIP3    H217185   2.661   4.925   2.053  0.1128 -1.6969  1.1938
 5727TIP3   OH217186   4.990   0.318   4.358 -0.6665 -0.2960 -0.0167
 5727TIP3    H117187   4.914   0.332   4.302  0.6518  1.1966 -1.5328
 5727TIP3    H217188   4.998   0.223   4.363 -1.3725 -0.4784 -1.6410
 5728TIP3   OH217189   3.745   5.891   0.052  0.5408  0.2676 -0.1356
 5728TIP3    H117190   3.770   5.813   0.103  1.3324 -0.6133 -1.7770
 5728TIP3    H217191   3.825   5.914   0.004 -0.3686  0.5826 -1.5488
 5729TIP3   OH217192   0.078   2.493   2.629  0.2223  0.4391  0.1302
 5729TIP3    H117193   0.146   2.430   2.603  1.9926  2.2774  0.0715
 5729TIP3    H217194   0.066   2.477   2.723  2.0037  1.1482  0.5271
 5730TIP3   OH217195   1.331   4.471   3.459  0.6394  0.3989  0.6617
 5730TIP3    H117196   1.322   4.376   3.455 -0.9265  0.4872  1.3730
 5730TIP3    H217197   1.335   4.499   3.367 -1.8939 -0.1341  0.3260
 5731TIP3   OH217198   2.037   0.862   1.832 -0.6297 -0.1946 -0.1867
 5731TIP3    H117199   1.984   0.938   1.856 -0.3318  1.1461 -3.3719
 5731TIP3    H217200   2.093   0.847   1.909 -0.1287  3.2962  0.2906
 5732TIP3   OH217201   1.504   1.316   1.799  0.2315 -0.6598 -0.3870
 5732TIP3    H117202   1.565   1.376   1.844 -0.7485 -0.3432  0.5584
 5732TIP3    H217203   1.452   1.373   1.742 -0.5844 -0.6180  0.3815
 5733TIP3   OH217204   1.233   1.724   1.131  0.4885  0.0422 -0.0752
 5733TIP3    H117205   1.141   1.748   1.146 -0.2775 -2.3625 -0.5160
 5733TIP3    H217206   1.269   1.798   1.083 -1.3604  0.8226 -0.3565
 5734TIP3   OH217207   5.839   2.055   2.061 -0.3701  0.0227 -0.5685
 5734TIP3    H117208   5.782   2.043   1.985 -0.0481  2.3186 -1.2453
 5734TIP3    H217209   5.780   2.057   2.136 -1.0832  1.2307 -1.1371
 5735TIP3   OH217210   5.565   2.517   5.189  0.1025 -0.2779  0.0752
 5735TIP3    H117211   5.487   2.570   5.173 -0.1811 -0.4819  0.7638
 5735TIP3    H217212   5.638   2.580   5.184 -0.0876 -0.1091 -0.6779
 5736TIP3   OH217213   1.887   2.119   2.161  0.2533  0.4019 -0.5855
 5736TIP3    H117214   1.877   2.068   2.081 -1.0056 -2.3072  1.1396
 5736TIP3    H217215   1.826   2.191   2.152  0.1161  0.1271 -2.0421
 5737TIP3   OH217216   5.154   1.624   1.247 -0.3054  0.1019 -0.2067
 5737TIP3    H117217   5.123   1.534   1.260  0.0260 -0.0163 -0.2339
 5737TIP3    H217218   5.240   1.614   1.207 -0.2619  0.4328 -0.1935
 5738TIP3   OH217219   4.731   0.135   2.232  0.0651  0.1219  0.1092
 5738TIP3    H117220   4.673   0.075   2.184 -2.3290  1.7202  0.8761
 5738TIP3    H217221   4.776   0.184   2.163 -1.3296  0.5159 -0.5624
 5739TIP3   OH217222   1.032   0.633   4.155  0.2613 -0.4480  0.5693
 5739TIP3    H117223   1.019   0.549   4.198  0.0726 -0.4906  0.4281
 5739TIP3    H217224   0.997   0.697   4.218 -0.3838 -0.5428  0.3040
 5740TIP3   OH217225   0.701   5.475   1.995 -0.1854 -0.5460 -0.2510
 5740TIP3    H117226   0.698   5.437   1.908  2.1460 -0.3583 -0.4704
 5740TIP3    H217227   0.783   5.443   2.033 -0.2112  0.8850  1.1498
 5741TIP3   OH217228   3.515   2.220   0.529 -0.6036  0.2694 -0.2679
 5741TIP3    H117229   3.534   2.298   0.477  0.2429 -0.2131 -0.7064
 5741TIP3    H217230   3.599   2.196   0.568 -0.8136 -0.5191 -0.2796
 5742TIP3   OH217231   0.976   0.347   2.997  0.1791 -1.2004  0.1137
 5742TIP3    H117232   1.002   0.265   2.955  0.1066 -1.6443  0.9191
 5742TIP3    H217233   0.930   0.319   3.076  0.7766 -0.3681  0.7663
 5743TIP3   OH217234   4.768   4.107   4.343 -0.4872  0.3533 -0.2410
 5743TIP3    H117235   4.810   4.183   4.303 -0.9574  0.2920 -0.8694
 5743TIP3    H217236   4.728   4.061   4.270  1.1609 -1.4031 -0.1136
 5744TIP3   OH217237   3.965   1.228   3.293  0.2907 -0.0019 -0.0801
 5744TIP3    H117238   3.975   1.147   3.343  0.2419  0.4223  0.6404
 5744TIP3    H217239   4.051   1.243   3.254  0.6331  0.1761  0.7081
 5745TIP3   OH217240   2.646   1.505   3.847 -0.3938 -0.3293  0.3085
 5745TIP3    H117241   2.570   1.556   3.874 -0.5698 -1.2276  1.6061
 5745TIP3    H217242   2.612   1.446   3.779 -0.3254  0.8000 -0.7462
 5746TIP3   OH217243   2.719   3.354   2.418  0.0457  0.0667  0.0114
 5746TIP3    H117244   2.693   3.429   2.472 -0.1750  0.6411 -0.8819
 5746TIP3    H217245   2.657   3.285   2.443 -2.1940  1.2994 -1.8067
 5747TIP3   OH217246   3.213   1.509   4.501  0.8261 -0.4428  0.1983
 5747TIP3    H117247   3.186   1.418   4.511 -0.5607 -0.0984 -0.1924
 5747TIP3    H217248   3.251   1.514   4.413  0.7371 -0.5978  0.1517
 5748TIP3   OH217249   1.569   1.531   2.724 -0.2439 -0.3590  0.0580
 5748TIP3    H117250   1.587   1.451   2.773 -0.1550 -0.5922 -0.3411
 5748TIP3    H217251   1.555   1.500   2.634 -0.4320  0.0530 -0.0545
 5749TIP3   OH217252   0.404   4.995   1.738 -0.7758 -0.8988  0.5243
 5749TIP3    H117253   0.442   4.934   1.801 -1.0758 -0.5010  1.1125
 5749TIP3    H217254   0.405   5.079   1.784  1.9008  0.0923 -1.1520
 5750TIP3   OH217255   0.367   4.503   2.778 -0.7049 -0.6669 -0.4190
 5750TIP3    H117256   0.352   4.465   2.865 -0.2289  0.8221  0.3468
 5750TIP3    H217257   0.445   4.557   2.789 -3.4979  3.7973 -0.2644
 5751TIP3   OH217258   3.803   2.871   3.925 -0.0232 -0.1307  0.3897
 5751TIP3    H117259   3.895   2.849   3.910  0.2073  0.1876  1.2954
 5751TIP3    H217260   3.777   2.919   3.846  1.3981  2.2344  1.2499
 5752TIP3   OH217261   0.692   1.380   2.822 -0.8187 -0.2478  0.0056
 5752TIP3    H117262   0.623   1.406   2.884 -0.5186  0.7527 -0.0645
 5752TIP3    H217263   0.773   1.384   2.874 -0.8880 -2.2635  0.3246
 5753TIP3   OH217264   5.214   1.226   1.875  0.0434  0.0628 -0.0955
 5753TIP3    H117265   5.274   1.266   1.938  1.1890 -1.0500 -0.4409
 5753TIP3    H217266   5.133   1.275   1.886  1.0107  1.6727  0.3415
 5754TIP3   OH217267   2.899   0.542   0.088 -0.4490 -0.7465  0.4708
 5754TIP3    H117268   2.814   0.548   0.045 -0.2007 -2.8531 -0.4544
 5754TIP3    H217269   2.962   0.574   0.023 -0.1239 -3.4999 -0.7267
 5755TIP3   OH217270   3.979   0.284   4.026  0.0152  0.6423  0.1017
 5755TIP3    H117271   3.941   0.196   4.022  1.4526 -0.2396  2.7105
 5755TIP3    H217272   3.929   0.336   3.964 -2.9876 -1.2699  0.7407
 5756TIP3   OH217273   4.157   2.707   2.684  0.1353  0.1015 -0.1804
 5756TIP3    H117274   4.159   2.784   2.628  0.1184 -0.4316 -0.9237
 5756TIP3    H217275   4.064   2.687   2.694  0.1663 -0.2583 -0.5980
 5757TIP3   OH217276   2.560   3.631   3.638 -0.2697  0.0289  0.5776
 5757TIP3    H117277   2.466   3.650   3.641 -0.0706  1.4465 -1.0220
 5757TIP3    H217278   2.585   3.649   3.548  2.2672  3.3785  1.7637
 5758TIP3   OH217279   3.571   5.838   0.793 -0.1826  0.6680 -0.2316
 5758TIP3    H117280   3.602   5.764   0.740 -0.6601 -0.1566  0.6109
 5758TIP3    H217281   3.626   5.836   0.871 -0.6214  0.8043  0.0842
 5759TIP3   OH217282   0.386   3.222   4.963 -0.2026 -0.9195  0.1989
 5759TIP3    H117283   0.334   3.177   4.896 -0.1328 -1.0959  0.2642
 5759TIP3    H217284   0.443   3.154   4.999 -0.4351 -0.8846  0.6330
 5760TIP3   OH217285   3.232   2.152   0.958 -0.2925 -0.1740 -0.2036
 5760TIP3    H117286   3.185   2.081   0.913  0.0427 -0.9132  0.5867
 5760TIP3    H217287   3.181   2.231   0.937 -2.5798 -1.0802  1.5329
 5761TIP3   OH217288   0.122   5.844   1.088 -0.1239 -0.0376 -0.1409
 5761TIP3    H117289   0.216   5.826   1.094  0.2289  1.7439  0.3210
 5761TIP3    H217290   0.113   5.934   1.119 -1.8616  0.1797 -1.1429
 5762TIP3   OH217291   4.035   4.085   2.491  0.6374 -0.3402 -0.3908
 5762TIP3    H117292   4.067   4.046   2.573 -0.1595 -1.4731 -0.5965
 5762TIP3    H217293   3.951   4.043   2.475 -0.1869  1.3493 -0.7518
 5763TIP3   OH217294   1.182   2.755   1.307  0.1882  0.2386 -0.1828
 5763TIP3    H117295   1.145   2.681   1.259 -1.0451  0.2632  0.6904
 5763TIP3    H217296   1.239   2.798   1.243  0.8858 -1.4063 -0.7286
 5764TIP3   OH217297   1.215   3.646   1.598 -0.0818  0.1719 -0.0567
 5764TIP3    H117298   1.176   3.733   1.608  2.3676  1.1998  1.2999
 5764TIP3    H217299   1.158   3.589   1.649 -0.5065  1.3845  0.8750
 5765TIP3   OH217300   1.889   5.486   0.889  0.2383 -0.2104 -0.4826
 5765TIP3    H117301   1.891   5.416   0.955  2.0343 -0.3074 -0.5812
 5765TIP3    H217302   1.961   5.544   0.915  0.7905 -0.0977 -2.1808
 5766TIP3   OH217303   6.217   4.964   0.473  0.0464  0.6097 -0.4725
 5766TIP3    H117304   6.160   5.039   0.458 -0.4911  0.2364 -0.3248
 5766TIP3    H217305   6.168   4.908   0.534  1.9992  1.9515  2.6065
 5767TIP3   OH217306   0.470   2.489   0.004  0.0598 -0.1804  0.2931
 5767TIP3    H117307   0.430   2.526   0.083 -1.3651  0.1375 -0.5417
 5767TIP3    H217308   0.455   2.394   0.012 -1.5165 -0.0137 -0.3159
 5768TIP3   OH217309   1.197   0.969   0.079 -0.3051 -0.3564  0.0110
 5768TIP3    H117310   1.243   0.893   0.114  0.4255 -0.1745 -0.5527
 5768TIP3    H217311   1.134   0.992   0.148  1.3711  0.2305  1.4039
 5769TIP3   OH217312   2.006   5.405   3.550 -0.0621  0.3844  0.7143
 5769TIP3    H117313   2.098   5.423   3.533  0.9738 -2.4595  2.5158
 5769TIP3    H217314   1.988   5.447   3.634 -0.4479  0.9490  0.3582
 5770TIP3   OH217315   1.712   4.379   0.811 -0.9141  0.2631  0.1421
 5770TIP3    H117316   1.672   4.457   0.774 -0.0339 -0.3408 -2.2720
 5770TIP3    H217317   1.744   4.406   0.898 -3.0020  1.7818  0.4915
 5771TIP3   OH217318   1.746   3.718   5.089  0.1021  0.4120  0.2024
 5771TIP3    H117319   1.761   3.638   5.140  1.1749  1.4542  1.6063
 5771TIP3    H217320   1.816   3.778   5.116 -0.1412  1.5231 -1.4837
 5772TIP3   OH217321   0.863   5.515   1.317  0.1342  0.1899  0.3866
 5772TIP3    H117322   0.947   5.482   1.349  0.5136 -0.3005 -1.0416
 5772TIP3    H217323   0.873   5.610   1.315 -0.1295  0.3063  2.2536
 5773TIP3   OH217324   5.996   0.860   4.085 -0.1412 -0.4868  0.0564
 5773TIP3    H117325   5.914   0.897   4.120  0.2454 -0.9895  1.5606
 5773TIP3    H217326   6.014   0.912   4.007 -0.9312  0.8458  0.7263
 5774TIP3   OH217327   6.047   3.152   4.443  0.4632 -0.2818 -0.4269
 5774TIP3    H117328   6.024   3.129   4.533  0.1461  0.2408 -0.3693
 5774TIP3    H217329   6.142   3.143   4.440  0.2699 -3.5650 -0.9715
 5775TIP3   OH217330   4.059   3.697   3.281  0.2866  0.4856 -0.1986
 5775TIP3    H117331   4.024   3.768   3.335  2.6101  1.6042 -0.0640
 5775TIP3    H217332   4.022   3.617   3.320  0.0081  1.4192  1.5662
 5776TIP3   OH217333   4.444   5.569   4.688 -0.4482 -0.0301  0.1532
 5776TIP3    H117334   4.510   5.519   4.737  0.9970 -0.2288 -1.8805
 5776TIP3    H217335   4.384   5.601   4.755  1.5449 -0.0903  2.0762
 5777TIP3   OH217336   5.433   5.325   2.592 -0.4362 -0.1954 -0.1128
 5777TIP3    H117337   5.472   5.254   2.642 -2.8783 -1.1432  0.6211
 5777TIP3    H217338   5.387   5.282   2.520  0.1691  0.8906 -1.1931
 5778TIP3   OH217339   4.571   0.025   1.594  1.0341 -0.0624 -0.6910
 5778TIP3    H117340   4.648   0.025   1.650 -0.2001  0.1904  1.0638
 5778TIP3    H217341   4.562   0.116   1.566 -0.7862  0.8103  2.2966
 5779TIP3   OH217342   5.105   4.810   1.726 -0.3682  0.2788  0.1063
 5779TIP3    H117343   5.200   4.814   1.715 -0.1827 -1.6164  0.6473
 5779TIP3    H217344   5.074   4.898   1.702  1.4376  0.7385 -0.7114
 5780TIP3   OH217345   6.140   3.112   4.107 -0.1561  0.3165 -0.1706
 5780TIP3    H117346   6.079   3.038   4.110  1.2428 -0.8363  2.3118
 5780TIP3    H217347   6.226   3.072   4.095  0.4129  1.7416 -1.1204
 5781TIP3   OH217348   6.261   3.843   3.492  0.0676  0.0996  0.0096
 5781TIP3    H117349   6.200   3.796   3.435 -2.3929  3.6727 -0.6978
 5781TIP3    H217350   6.228   3.827   3.581  1.6129 -2.4182  0.2187
 5782TIP3   OH217351   2.941   0.068   1.275  0.8638  0.0942  0.2267
 5782TIP3    H117352   2.874   0.088   1.341 -0.7847 -2.1168 -0.6507
 5782TIP3    H217353   2.929   0.134   1.208 -0.4688 -0.2581  0.0932
 5783TIP3   OH217354   2.110   2.723   2.638 -0.9239 -0.1258 -0.2175
 5783TIP3    H117355   2.108   2.630   2.662  0.4069 -0.4102 -1.1334
 5783TIP3    H217356   2.062   2.727   2.555 -1.7033  0.1626  0.2307
 5784TIP3   OH217357   5.156   4.674   0.669 -0.4385 -0.3058  0.3888
 5784TIP3    H117358   5.223   4.606   0.656  0.3367  0.2175  1.4772
 5784TIP3    H217359   5.154   4.721   0.586 -2.0355 -2.5068 -0.9391
 5785TIP3   OH217360   5.387   2.494   2.723  0.1239  0.3670  0.2029
 5785TIP3    H117361   5.360   2.579   2.688 -1.4502 -0.5239 -0.8701
 5785TIP3    H217362   5.433   2.452   2.651  1.2176  0.4262  0.8492
 5786TIP3   OH217363   5.740   0.893   4.175 -0.6523  0.1603 -0.2409
 5786TIP3    H117364   5.705   0.843   4.102  1.3950  0.8388 -1.7685
 5786TIP3    H217365   5.696   0.978   4.169 -0.9796 -0.0082 -0.2535
 5787TIP3   OH217366   0.264   3.293   0.566  0.1227 -0.2504 -0.4139
 5787TIP3    H117367   0.237   3.211   0.524  0.5041 -1.0677  0.9004
 5787TIP3    H217368   0.344   3.270   0.613 -0.9413  0.3200  1.7645
 5788TIP3   OH217369   5.191   5.078   1.074  0.2856  0.1102  0.0649
 5788TIP3    H117370   5.186   5.015   1.002  1.0502  0.4162 -0.2680
 5788TIP3    H217371   5.100   5.103   1.091 -0.0607 -1.2970  0.4038
 5789TIP3   OH217372   4.970   3.978   2.390 -0.2841 -0.4281 -0.4643
 5789TIP3    H117373   4.926   3.936   2.316  1.4311 -1.2549 -1.0795
 5789TIP3    H217374   5.009   3.905   2.438  0.0059  0.2324  0.3166
 5790TIP3   OH217375   5.296   2.141   1.559 -0.0292  0.3220  0.7322
 5790TIP3    H117376   5.323   2.201   1.628 -0.6126 -0.7887  1.9589
 5790TIP3    H217377   5.366   2.146   1.494  0.5305  1.3731  1.3948
 5791TIP3   OH217378   3.133   1.859   2.183  0.4335 -0.1507 -0.3492
 5791TIP3    H117379   3.153   1.782   2.236 -0.5113 -0.0576  0.1743
 5791TIP3    H217380   3.167   1.933   2.233  0.4869 -0.1507 -0.3857
 5792TIP3   OH217381   1.508   4.765   4.849 -0.1868 -0.1215 -0.3875
 5792TIP3    H117382   1.451   4.701   4.807 -0.4821  0.0237 -0.2138
 5792TIP3    H217383   1.465   4.785   4.932  1.1859 -1.5980  0.7405
 5793TIP3   OH217384   2.211   4.897   1.968 -0.3606  0.0770 -0.2163
 5793TIP3    H117385   2.170   4.956   1.905 -2.0968 -1.7508 -0.8950
 5793TIP3    H217386   2.225   4.816   1.919  1.1511 -0.3995  0.9215
 5794TIP3   OH217387   5.386   4.865   3.411  0.2417 -0.1336  0.4767
 5794TIP3    H117388   5.351   4.793   3.464  0.0589 -1.1483 -0.9689
 5794TIP3    H217389   5.481   4.857   3.419  0.2354  0.8582  2.0811
 5795TIP3   OH217390   5.792   2.372   3.810 -0.0072 -0.1209 -0.1191
 5795TIP3    H117391   5.838   2.289   3.819 -0.2773 -0.4115 -1.2606
 5795TIP3    H217392   5.729   2.358   3.740 -1.5614  0.4119  1.1096
 5796TIP3   OH217393   5.229   2.048   1.856  0.4681  0.6752 -0.1398
 5796TIP3    H117394   5.161   2.039   1.789 -1.0269  2.0799  1.0944
 5796TIP3    H217395   5.287   2.116   1.822 -1.2462  2.6489  0.6288
 5797TIP3   OH217396   1.104   4.089   4.916  0.2946 -0.5183  0.2454
 5797TIP3    H117397   1.184   4.037   4.925 -0.0885 -1.0585  0.5569
 5797TIP3    H217398   1.109   4.124   4.827  1.4936  0.4964  0.6815
 5798TIP3   OH217399   1.602   2.081   1.963 -0.6006  0.7102  0.3198
 5798TIP3    H117400   1.517   2.037   1.967 -0.3809  0.1345 -0.8464
 5798TIP3    H217401   1.662   2.020   2.006 -0.0894 -0.7457 -2.2462
 5799TIP3   OH217402   5.062   2.321   3.008  0.4748 -0.1582  0.8513
 5799TIP3    H117403   5.044   2.401   2.958 -1.0160 -0.3185  1.0734
 5799TIP3    H217404   5.050   2.347   3.099 -2.2782 -1.0670  0.8619
 5800TIP3   OH217405   4.141   2.324   0.553  0.7839 -0.2549  0.7106
 5800TIP3    H117406   4.115   2.237   0.582 -0.9726 -0.0338 -0.0353
 5800TIP3    H217407   4.124   2.380   0.628  1.6904 -0.5113  1.1138
 5801TIP3   OH217408   2.818   5.732   3.410  0.2783 -0.5124 -0.4741
 5801TIP3    H117409   2.913   5.738   3.402  0.2177 -1.0110 -1.7725
 5801TIP3    H217410   2.802   5.724   3.504  1.6370 -2.3350 -0.3565
 5802TIP3   OH217411   4.429   5.769   2.190  0.3197 -0.4999  0.3284
 5802TIP3    H117412   4.432   5.687   2.142  0.0403  0.4626 -1.4077
 5802TIP3    H217413   4.339   5.776   2.220 -0.4376  0.4621 -1.9729
 5803TIP3   OH217414   3.849   4.755   4.590 -0.7379  0.1906  0.2339
 5803TIP3    H117415   3.829   4.689   4.657  0.6916 -0.1598  0.3642
 5803TIP3    H217416   3.930   4.723   4.550 -0.8344  1.1191 -0.7199
 5804TIP3   OH217417   4.575   4.774   4.223 -0.3683  0.1986  0.3459
 5804TIP3    H117418   4.661   4.815   4.220 -0.1735 -0.2318 -2.0211
 5804TIP3    H217419   4.526   4.816   4.152 -1.1514 -1.4989 -0.1778
 5805TIP3   OH217420   2.189   4.729   5.059  0.1015  0.1667 -0.1459
 5805TIP3    H117421   2.251   4.801   5.059 -0.2535  0.5075  1.1403
 5805TIP3    H217422   2.157   4.724   4.969  1.7722  0.1508 -0.7628
 5806TIP3   OH217423   4.268   0.373   2.669  0.3058  0.7123  0.0244
 5806TIP3    H117424   4.235   0.305   2.727  0.3041 -0.1460 -0.9576
 5806TIP3    H217425   4.218   0.451   2.692 -1.5167 -0.2429 -0.5603
 5807TIP3   OH217426   3.376   1.845   2.679  0.4670  0.4246 -0.0829
 5807TIP3    H117427   3.369   1.818   2.588  0.7178  0.4506 -0.1101
 5807TIP3    H217428   3.299   1.806   2.721  0.1748  0.6837 -0.3704
 5808TIP3   OH217429   1.264   0.929   1.911 -0.2241 -0.1461 -0.1627
 5808TIP3    H117430   1.270   1.016   1.873 -0.4692  0.3195  0.8334
 5808TIP3    H217431   1.206   0.881   1.851 -0.6875  0.5941 -0.3233
 5809TIP3   OH217432   5.804   5.607   0.980  0.3020  0.2080  0.1364
 5809TIP3    H117433   5.820   5.671   1.049  0.8591  2.4307 -1.9200
 5809TIP3    H217434   5.823   5.523   1.021 -1.9549  1.1105  3.4236
 5810TIP3   OH217435   3.571   1.387   3.550 -0.4409  0.0950  0.2147
 5810TIP3    H117436   3.577   1.428   3.464 -0.8270 -1.1574 -0.4284
 5810TIP3    H217437   3.513   1.445   3.600  1.0787  1.7214  0.2073
 5811TIP3   OH217438   4.159   5.787   3.169  0.2890 -0.2519  0.4133
 5811TIP3    H117439   4.242   5.833   3.171 -0.3900  1.0623 -0.3931
 5811TIP3    H217440   4.150   5.749   3.257  1.2730  0.4029  0.8085
 5812TIP3   OH217441   6.078   0.544   1.283  0.0754  0.0364 -0.4490
 5812TIP3    H117442   6.056   0.637   1.282  0.2964  0.1009  0.3208
 5812TIP3    H217443   6.078   0.519   1.190  1.7896  1.2280 -0.8286
 5813TIP3   OH217444   3.094   1.707   0.749  0.2791 -0.4029  0.3176
 5813TIP3    H117445   3.144   1.650   0.808 -1.4692  0.0699  2.3986
 5813TIP3    H217446   3.039   1.647   0.699  0.1661 -0.7125  0.8014
 5814TIP3   OH217447   2.318   5.541   1.148 -0.3027  0.2092  0.3419
 5814TIP3    H117448   2.246   5.603   1.154 -0.9099 -0.5604  1.4411
 5814TIP3    H217449   2.305   5.497   1.063 -0.9697  0.2643  0.4136
 5815TIP3   OH217450   3.783   2.392   0.596  0.1255 -0.3037 -0.1006
 5815TIP3    H117451   3.852   2.447   0.633 -0.5078  1.7569 -1.8456
 5815TIP3    H217452   3.780   2.316   0.654  1.8183  0.9467  1.7460
 5816TIP3   OH217453   1.714   1.320   5.189  0.1803 -0.5382  0.0544
 5816TIP3    H117454   1.802   1.341   5.220  1.1425 -1.5499 -1.8541
 5816TIP3    H217455   1.714   1.345   5.097 -1.1281 -1.7032 -0.3020
 5817TIP3   OH217456   0.583   5.975   3.405  0.2101 -0.8255  0.1054
 5817TIP3    H117457   0.492   5.979   3.437 -0.1276  0.7992 -0.9671
 5817TIP3    H217458   0.586   5.895   3.352 -0.9732 -0.2643 -0.8627
 5818TIP3   OH217459   5.475   0.777   4.546  0.0314 -0.0973 -0.8634
 5818TIP3    H117460   5.545   0.715   4.565 -0.0231  0.3023  0.8227
 5818TIP3    H217461   5.459   0.767   4.452  0.3646 -2.2685 -0.7573
 5819TIP3   OH217462   1.764   1.670   2.293  0.9570  0.0756 -0.8416
 5819TIP3    H117463   1.846   1.717   2.307 -0.7416  3.6096 -1.6744
 5819TIP3    H217464   1.746   1.681   2.199 -0.8951  0.1258 -0.5104
 5820TIP3   OH217465   5.177   5.549   3.911 -0.3685 -0.0194 -0.2706
 5820TIP3    H117466   5.178   5.471   3.855  0.1698 -0.2187  0.0123
 5820TIP3    H217467   5.107   5.604   3.875 -0.1058 -0.1983 -1.0657
 5821TIP3   OH217468   1.059   0.862   2.459  0.5187 -0.4903 -0.1003
 5821TIP3    H117469   1.011   0.912   2.393  1.1255  1.7004  1.0243
 5821TIP3    H217470   1.022   0.890   2.543  2.9945  0.5449  0.7502
 5822TIP3   OH217471   2.969   0.707   4.075 -0.7352 -0.2068  0.3159
 5822TIP3    H117472   2.878   0.731   4.092 -1.7446 -2.1610 -1.7771
 5822TIP3    H217473   3.020   0.769   4.127 -3.2302  0.8658  1.6855
 5823TIP3   OH217474   4.897   4.792   0.642 -0.2189  0.2501  0.0092
 5823TIP3    H117475   4.822   4.834   0.683 -0.3784  1.2054 -1.2111
 5823TIP3    H217476   4.946   4.864   0.603 -0.3441 -0.6478 -1.9075
 5824TIP3   OH217477   2.199   3.880   2.412 -0.2197 -0.0199 -0.4691
 5824TIP3    H117478   2.270   3.916   2.359 -0.0524 -0.7034 -0.7249
 5824TIP3    H217479   2.167   3.806   2.360  0.9994 -1.7176  1.0781
 5825TIP3   OH217480   3.613   4.506   0.433 -0.2315 -0.2214  0.0555
 5825TIP3    H117481   3.695   4.540   0.398  1.2825 -1.8055  1.8868
 5825TIP3    H217482   3.639   4.437   0.494 -2.8316  0.4584  2.1130
 5826TIP3   OH217483   2.587   3.692   5.071 -0.3400  0.0872  0.0439
 5826TIP3    H117484   2.673   3.696   5.028  0.2923  0.4190  1.2993
 5826TIP3    H217485   2.537   3.630   5.018  0.8670 -0.5598 -0.3881
 5827TIP3   OH217486   1.370   3.371   3.690 -0.1025  0.7644  0.4764
 5827TIP3    H117487   1.341   3.445   3.636  0.0606 -0.6931 -1.7177
 5827TIP3    H217488   1.440   3.330   3.639 -1.3968 -1.9679  0.7398
 5828TIP3   OH217489   2.654   2.782   1.087 -0.0447  0.6219  0.4070
 5828TIP3    H117490   2.740   2.769   1.049 -0.6896  0.4760 -1.0727
 5828TIP3    H217491   2.599   2.812   1.015 -2.4010 -3.8240 -0.0548
 5829TIP3   OH217492   0.626   4.404   1.899  0.1812  0.5469  0.2242
 5829TIP3    H117493   0.653   4.475   1.958 -2.5694  0.4948  1.7255
 5829TIP3    H217494   0.572   4.448   1.834  0.8171  0.1898 -0.5508
 5830TIP3   OH217495   3.587   4.871  -0.028 -0.0934  0.8493  0.7415
 5830TIP3    H117496   3.628   4.866   0.058 -0.0050 -0.5612  0.6455
 5830TIP3    H217497   3.512   4.812  -0.023  1.0134 -0.7809 -0.6822
 5831TIP3   OH217498   5.977   3.988   2.783  0.0836  0.0549 -0.0286
 5831TIP3    H117499   6.046   4.020   2.842  0.3641 -0.5272 -0.0419
 5831TIP3    H217500   5.963   3.897   2.809  1.1737 -0.6479 -1.7494
 5832TIP3   OH217501   4.220   1.288   1.103 -0.2476 -0.3644  0.7203
 5832TIP3    H117502   4.149   1.227   1.080 -0.9250  0.8174 -0.4185
 5832TIP3    H217503   4.300   1.239   1.083 -0.7788 -0.5149 -1.3084
 5833TIP3   OH217504   4.904   4.386   0.951  0.7841 -0.3869 -0.0128
 5833TIP3    H117505   4.956   4.465   0.938 -1.3201  0.9981 -0.4655
 5833TIP3    H217506   4.873   4.363   0.863 -2.1724  0.9230  0.5480
 5834TIP3   OH217507   1.602   1.414   2.430  0.1234 -0.7117  0.0084
 5834TIP3    H117508   1.537   1.473   2.390 -0.3365 -1.3216 -0.1659
 5834TIP3    H217509   1.676   1.416   2.370  0.0645 -0.4077 -0.0595
 5835TIP3   OH217510   5.779   4.227   1.191  0.0745 -0.1318  0.2239
 5835TIP3    H117511   5.730   4.306   1.167 -1.7933 -1.7567 -1.6779
 5835TIP3    H217512   5.712   4.160   1.205  1.5704 -1.2971  2.4209
 5836TIP3   OH217513   0.404   2.775   4.959 -0.5416 -0.1399 -0.6500
 5836TIP3    H117514   0.358   2.693   4.944  0.0996 -0.8995  1.2196
 5836TIP3    H217515   0.497   2.753   4.951 -0.3618  0.3692 -0.0892
 5837TIP3   OH217516   2.693   4.216   4.310 -0.0072 -0.0601 -0.1718
 5837TIP3    H117517   2.610   4.254   4.339 -0.4646 -1.5296  0.5718
 5837TIP3    H217518   2.760   4.271   4.349 -0.5472  2.0975 -2.0336
 5838TIP3   OH217519   2.529   5.024   0.948 -1.0685  0.2013 -0.6856
 5838TIP3    H117520   2.507   4.934   0.974  0.2422 -0.1373 -0.6798
 5838TIP3    H217521   2.470   5.043   0.875 -2.4117 -0.0907  0.2623
 5839TIP3   OH217522   3.836   4.165   5.020  0.3550  0.9810  0.0183
 5839TIP3    H117523   3.889   4.209   5.087  1.9599  1.7532 -1.6909
 5839TIP3    H217524   3.888   4.091   4.992 -0.5798  0.2973  0.0231
 5840TIP3   OH217525   1.795   4.247   0.432  0.5147 -0.2297  0.5379
 5840TIP3    H117526   1.835   4.330   0.456 -0.6711  1.2696 -2.3013
 5840TIP3    H217527   1.845   4.217   0.356 -2.2685  0.6831 -1.8227
 5841TIP3   OH217528   2.561   4.032   0.110 -0.1654  0.4678  0.5393
 5841TIP3    H117529   2.604   4.099   0.056  1.5361 -0.0641  1.1881
 5841TIP3    H217530   2.471   4.031   0.078  0.1244  2.0482 -0.4652
 5842TIP3   OH217531   1.004   3.481   3.423 -0.4429  0.0695 -0.0463
 5842TIP3    H117532   0.976   3.558   3.374 -0.3453  0.1535  0.0292
 5842TIP3    H217533   0.941   3.413   3.400 -0.0669 -0.0553 -0.7331
 5843TIP3   OH217534   1.969   4.570   3.775 -0.3407 -0.6521 -0.2172
 5843TIP3    H117535   1.909   4.512   3.727 -0.6195 -0.3851 -0.1894
 5843TIP3    H217536   2.001   4.631   3.709 -0.4933 -0.4728 -0.1254
 5844TIP3   OH217537   5.352   0.411   3.717 -0.3072  0.0927  0.0939
 5844TIP3    H117538   5.417   0.463   3.670  0.4099 -0.6451  0.2667
 5844TIP3    H217539   5.275   0.413   3.661  0.4923 -0.6659 -1.0603
 5845TIP3   OH217540   6.165   4.278   4.968 -0.1420  0.0613 -0.2424
 5845TIP3    H117541   6.151   4.184   4.982  1.3662 -0.5262 -2.1180
 5845TIP3    H217542   6.163   4.288   4.873  2.1173  1.4769 -0.2232
 5846TIP3   OH217543   3.904   4.582   2.141  0.5333 -0.3533  0.4809
 5846TIP3    H117544   3.878   4.539   2.059  1.9210  0.6700 -0.5499
 5846TIP3    H217545   3.905   4.511   2.206 -1.7909 -0.9608 -0.0679
 5847TIP3   OH217546   2.050   3.282   1.560 -0.4456 -0.1708  0.8206
 5847TIP3    H117547   2.083   3.354   1.613 -0.4400 -0.0999  0.7221
 5847TIP3    H217548   1.957   3.278   1.580 -0.6192  0.4228  0.1863
 5848TIP3   OH217549   4.893   1.831   3.066  0.2851 -0.4158  0.5061
 5848TIP3    H117550   4.844   1.800   2.990 -0.4193  0.7658  0.4598
 5848TIP3    H217551   4.935   1.752   3.100  0.8416 -0.9336 -1.2537
 5849TIP3   OH217552   1.595   1.892   4.314  0.0109 -0.0021  0.1364
 5849TIP3    H117553   1.602   1.948   4.237  0.6772 -0.1120  0.1102
 5849TIP3    H217554   1.652   1.818   4.295  0.4733  0.1512  0.8789
 5850TIP3   OH217555   4.570   3.677   1.543 -0.0899  0.0564 -0.2551
 5850TIP3    H117556   4.659   3.698   1.515 -0.4117  0.3110 -1.0837
 5850TIP3    H217557   4.513   3.720   1.480 -0.8010 -0.5019 -0.0089
 5851TIP3   OH217558   3.883   0.397   1.419  0.2551 -0.1637  0.1750
 5851TIP3    H117559   3.861   0.485   1.388  1.0299  0.8432  2.2676
 5851TIP3    H217560   3.823   0.339   1.373 -2.6921  1.8150  1.2635
 5852TIP3   OH217561   2.541   5.318   3.592  0.6054 -0.5215 -0.2219
 5852TIP3    H117562   2.606   5.259   3.631  1.2467 -0.0425 -0.5464
 5852TIP3    H217563   2.538   5.292   3.500 -2.4496 -3.0939  0.4055
 5853TIP3   OH217564   0.526   4.286   2.243 -0.1870  0.2122  0.1835
 5853TIP3    H117565   0.480   4.359   2.286 -1.0608 -0.2648  0.0743
 5853TIP3    H217566   0.599   4.266   2.302 -0.8560  0.1486  1.0192
 5854TIP3   OH217567   3.971   1.943   0.300 -0.9613 -0.2401 -0.3256
 5854TIP3    H117568   3.932   2.018   0.345 -0.8514 -0.9786  1.0446
 5854TIP3    H217569   3.915   1.930   0.223  0.0150  2.2945 -1.5707
 5855TIP3   OH217570   5.854   3.679   3.567  0.1381  0.3234 -0.5186
 5855TIP3    H117571   5.917   3.680   3.495  0.5934 -0.7187 -0.1504
 5855TIP3    H217572   5.817   3.767   3.567  0.5951  0.5350 -1.6177
 5856TIP3   OH217573   5.903   1.924   3.631 -0.4243 -0.0503  0.6013
 5856TIP3    H117574   5.970   1.914   3.699  0.4434  0.5244 -0.1415
 5856TIP3    H217575   5.905   1.842   3.583 -1.4776 -0.7045  1.6253
 5857TIP3   OH217576   4.115   3.953   0.361  0.0921  0.2436 -0.2599
 5857TIP3    H117577   4.110   3.939   0.456 -2.6246  0.4637 -0.2954
 5857TIP3    H217578   4.148   3.870   0.326  1.3051  0.2263  0.8728
 5858TIP3   OH217579   0.945   5.219   1.034 -0.1447 -0.6094 -0.1002
 5858TIP3    H117580   0.907   5.230   1.121  1.4002  1.2212  0.4172
 5858TIP3    H217581   1.002   5.143   1.042  0.1109 -0.3557  0.5562
 5859TIP3   OH217582   0.986   4.526   2.640  0.4869 -1.3614 -0.6058
 5859TIP3    H117583   0.974   4.443   2.686  0.7156 -2.0737 -1.8072
 5859TIP3    H217584   0.904   4.573   2.654  0.5968 -1.4993  0.6282
 5860TIP3   OH217585   2.030   5.052   3.367  0.8251 -0.2207  0.1182
 5860TIP3    H117586   2.049   5.127   3.310 -0.8906  0.5906  0.5635
 5860TIP3    H217587   2.101   4.991   3.349  2.5071  1.6573  0.0331
 5861TIP3   OH217588   5.514   1.228   4.152 -0.3930 -0.1807 -0.7344
 5861TIP3    H117589   5.502   1.155   4.092  3.5045 -1.2987 -0.4338
 5861TIP3    H217590   5.510   1.189   4.239  0.7223  0.1275 -0.5344
 5862TIP3   OH217591   5.666   2.203   0.462 -0.4383 -0.0431  0.2100
 5862TIP3    H117592   5.760   2.218   0.468 -0.7072  1.7326  0.6362
 5862TIP3    H217593   5.651   2.123   0.513  0.7210  0.1455  0.8884
 5863TIP3   OH217594   4.586   2.577   0.527  0.4500  0.2650  0.0553
 5863TIP3    H117595   4.546   2.624   0.454  2.7140  0.8153 -0.9361
 5863TIP3    H217596   4.652   2.521   0.486  1.8066  0.5988  1.6453
 5864TIP3   OH217597   5.162   0.703   3.955  0.9307 -0.5448  0.1299
 5864TIP3    H117598   5.122   0.629   3.909 -0.6227 -0.3844  1.1682
 5864TIP3    H217599   5.199   0.757   3.885 -1.0781 -0.4669 -0.9425
 5865TIP3   OH217600   4.037   2.959   0.831  0.3654 -0.4915 -0.0637
 5865TIP3    H117601   3.984   2.922   0.761 -0.3722  0.8512 -0.2469
 5865TIP3    H217602   4.041   2.889   0.897 -2.9447 -0.1802  0.6486
 5866TIP3   OH217603   4.907   4.720   3.556  0.1083 -0.3820  0.0166
 5866TIP3    H117604   4.838   4.661   3.528  0.4877 -1.8185  1.8566
 5866TIP3    H217605   4.931   4.769   3.478 -3.0756  0.3169 -0.6410
 5867TIP3   OH217606   3.620   0.948   0.541 -0.1121 -0.0331  0.1430
 5867TIP3    H117607   3.535   0.905   0.532 -0.0747 -0.5925  2.0709
 5867TIP3    H217608   3.598   1.041   0.555 -0.3944 -0.1139  0.2415
 5868TIP3   OH217609   3.615   4.790   4.839  0.5355 -0.1174 -0.1051
 5868TIP3    H117610   3.670   4.720   4.802  1.0281 -0.4606  1.2102
 5868TIP3    H217611   3.611   4.770   4.932 -0.0827  1.1094  0.1479
 5869TIP3   OH217612   2.045   2.974   1.960 -0.1308 -0.1944 -0.3595
 5869TIP3    H117613   2.001   3.035   2.020  0.1973 -2.3986  2.3518
 5869TIP3    H217614   1.977   2.947   1.899 -0.6106  1.7974 -0.7756
 5870TIP3   OH217615   3.832   4.246   0.281 -0.5235  0.0949  0.0126
 5870TIP3    H117616   3.799   4.334   0.299 -0.7115 -0.1452  0.9180
 5870TIP3    H217617   3.831   4.238   0.186 -1.7015  0.6245 -0.0287
 5871TIP3   OH217618   2.051   3.896   1.227 -0.7319 -0.4135 -0.1489
 5871TIP3    H117619   2.052   3.805   1.256  1.0806 -0.1586  0.7106
 5871TIP3    H217620   2.029   3.946   1.306 -1.5874 -0.0732 -0.5864
 5872TIP3   OH217621   3.298   2.922   0.584 -0.1332  0.4843  0.0272
 5872TIP3    H117622   3.301   2.932   0.679 -1.0608  2.4652 -0.0964
 5872TIP3    H217623   3.211   2.889   0.565  0.0085  0.2057 -0.1430
 5873TIP3   OH217624   3.965   0.306   2.505  0.5301  0.6236  0.4589
 5873TIP3    H117625   3.947   0.360   2.582  0.5894  0.3941  0.6347
 5873TIP3    H217626   3.957   0.216   2.536  0.8397  0.5280  0.2672
 5874TIP3   OH217627   4.193   5.207   4.809 -0.1454  0.3131 -0.1052
 5874TIP3    H117628   4.264   5.191   4.871  0.0552 -1.4172 -0.7068
 5874TIP3    H217629   4.136   5.270   4.852 -0.0173 -0.8307  1.8551
 5875TIP3   OH217630   3.425   3.484   1.018 -0.2273  0.0916  0.3191
 5875TIP3    H117631   3.384   3.477   0.933  2.8494  1.0502 -1.4209
 5875TIP3    H217632   3.418   3.577   1.041 -2.1738 -0.3638  1.8342
 5876TIP3   OH217633   4.432   5.323   0.117  0.3925 -0.5692 -0.3556
 5876TIP3    H117634   4.447   5.374   0.037 -0.3813 -0.0743 -0.1910
 5876TIP3    H217635   4.338   5.302   0.114  0.1710  0.1889  0.8542
 5877TIP3   OH217636   4.545   1.681   2.813  0.5835 -0.4447 -0.2451
 5877TIP3    H117637   4.567   1.770   2.841 -1.0366 -0.1772  0.2551
 5877TIP3    H217638   4.537   1.686   2.718 -1.7541  0.5032 -0.0409
 5878TIP3   OH217639   3.724   5.170   2.293  0.5392  0.3786  0.0417
 5878TIP3    H117640   3.650   5.140   2.241  0.1623 -0.3622  0.9895
 5878TIP3    H217641   3.706   5.140   2.382  0.7751  2.3181  0.7913
 5879TIP3   OH217642   1.120   1.865   3.001 -0.3198  0.6725  0.1513
 5879TIP3    H117643   1.202   1.818   2.989 -0.9181 -0.1924 -0.7172
 5879TIP3    H217644   1.117   1.927   2.929  0.2641  1.7689  1.0481
 5880TIP3   OH217645   1.017   4.193   1.089  0.0207 -0.4185  0.6330
 5880TIP3    H117646   1.019   4.217   1.182  0.5705 -2.1948  1.1005
 5880TIP3    H217647   0.973   4.108   1.087  0.8455 -0.8380 -0.6304
 5881TIP3   OH217648   2.312   2.077   4.719 -0.4251  1.0700  0.4634
 5881TIP3    H117649   2.226   2.115   4.737 -1.4313 -1.3419  1.1525
 5881TIP3    H217650   2.344   2.047   4.804  0.1898  0.1673 -0.0682
 5882TIP3   OH217651   5.158   0.887   4.430  0.0798  0.4211  0.1458
 5882TIP3    H117652   5.097   0.832   4.380  0.4629 -0.5000  0.6560
 5882TIP3    H217653   5.162   0.969   4.381 -1.3111  0.3880 -0.0740
 5883TIP3   OH217654   5.028   5.067   4.932  0.3731 -0.3168  0.4772
 5883TIP3    H117655   5.082   5.097   4.858  0.1472  0.9905  0.8141
 5883TIP3    H217656   5.073   5.103   5.009 -0.5108  0.0777  0.8163
 5884TIP3   OH217657   2.196   4.119   2.575 -0.4147  0.7675  0.0317
 5884TIP3    H117658   2.219   4.026   2.578 -0.4315  0.7777  0.4886
 5884TIP3    H217659   2.220   4.146   2.486  1.7618  0.9016  0.6201
 5885TIP3   OH217660   0.542   5.516   4.855 -0.7232  0.0332  0.5760
 5885TIP3    H117661   0.549   5.421   4.842  0.2431  0.3143 -1.3024
 5885TIP3    H217662   0.534   5.551   4.766  0.4284  1.8222  1.1393
 5886TIP3   OH217663   1.140   3.673   0.811  0.2413 -0.0506 -0.3454
 5886TIP3    H117664   1.189   3.591   0.814  0.5818  0.1617  0.2912
 5886TIP3    H217665   1.048   3.647   0.815  0.3342 -0.4177 -0.6054
 5887TIP3   OH217666   2.866   1.995   1.811 -0.2303 -0.1107 -0.2582
 5887TIP3    H117667   2.791   1.937   1.799 -0.9310  0.2071  2.1392
 5887TIP3    H217668   2.846   2.072   1.757 -2.4337  0.6410  1.4937
 5888TIP3   OH217669   0.112   4.456   1.896  0.0677 -0.4530 -0.1424
 5888TIP3    H117670   0.064   4.383   1.857  0.5693 -0.1182 -1.4655
 5888TIP3    H217671   0.188   4.416   1.937  1.4350 -0.6004 -2.5794
 5889TIP3   OH217672   0.111   4.978   2.944 -0.7070 -0.1899 -0.0958
 5889TIP3    H117673   0.018   4.959   2.949 -0.6261 -0.5618  0.0154
 5889TIP3    H217674   0.149   4.934   3.020 -0.7917  2.1567  1.4009
 5890TIP3   OH217675   4.534   1.149   3.193  0.4395  0.1152 -0.7250
 5890TIP3    H117676   4.496   1.120   3.110  0.8443 -0.9718 -0.5473
 5890TIP3    H217677   4.620   1.108   3.197  0.2857 -0.1528  0.3919
 5891TIP3   OH217678   4.337   3.230   3.887  0.4113 -0.1888 -0.1180
 5891TIP3    H117679   4.411   3.178   3.920  1.8829  1.8331 -0.0896
 5891TIP3    H217680   4.333   3.210   3.794  0.7445 -0.5799 -0.0497
 5892TIP3   OH217681   2.770   2.563   2.060  0.2695  0.1644 -0.7185
 5892TIP3    H117682   2.806   2.475   2.063  0.5167  0.2496 -1.1302
 5892TIP3    H217683   2.816   2.610   2.129  0.0849 -0.0461 -0.4493
 5893TIP3   OH217684   6.169   5.127   3.054 -0.3867  0.3464 -0.0889
 5893TIP3    H117685   6.224   5.127   3.132  0.5852 -0.1448 -0.7576
 5893TIP3    H217686   6.135   5.038   3.048 -1.0000  0.5584  0.1316
 5894TIP3   OH217687   5.225   5.786   3.106  0.3909  0.3294 -0.8047
 5894TIP3    H117688   5.213   5.704   3.154  1.0167  0.2992 -0.6889
 5894TIP3    H217689   5.154   5.787   3.042  0.1320 -0.1025 -0.5330
 5895TIP3   OH217690   6.247   1.442   0.166 -0.5257 -0.0637  0.6183
 5895TIP3    H117691   6.258   1.469   0.258 -1.7550 -0.2056  0.8309
 5895TIP3    H217692   6.181   1.501   0.132 -1.1119 -0.9181  0.2402
 5896TIP3   OH217693   0.424   0.058   1.742 -0.1346  0.2668  0.1367
 5896TIP3    H117694   0.339   0.015   1.744  0.8331 -1.8240 -0.9967
 5896TIP3    H217695   0.412   0.136   1.796 -2.2782 -0.8367  1.3979
 5897TIP3   OH217696   3.011   1.381   3.165  0.1782  0.3757  0.1665
 5897TIP3    H117697   2.961   1.386   3.247 -1.8124  1.5382 -1.0517
 5897TIP3    H217698   3.029   1.472   3.143  0.0725  0.1123 -1.0456
 5898TIP3   OH217699   1.115   2.850   2.578 -0.3429 -0.0304 -0.1360
 5898TIP3    H117700   1.020   2.851   2.567 -0.2095 -0.5889 -1.5204
 5898TIP3    H217701   1.137   2.757   2.587  0.1913 -0.0081 -1.0851
 5899TIP3   OH217702   6.323   3.837   0.192  0.2873  0.2897  0.1911
 5899TIP3    H117703   6.286   3.909   0.140  0.2919 -0.0799 -0.3293
 5899TIP3    H217704   6.406   3.872   0.224  0.1771  0.6015  0.1479
 5900TIP3   OH217705   2.791   0.431   2.916 -0.5139 -0.1361 -0.0821
 5900TIP3    H117706   2.821   0.468   3.000  1.6029  0.8225 -1.1822
 5900TIP3    H217707   2.826   0.342   2.915 -0.4717 -0.1209  0.0243
 5901TIP3   OH217708   5.856   3.930   0.497 -0.6158  1.0224 -0.0370
 5901TIP3    H117709   5.919   3.869   0.458 -0.8178  1.0636 -0.4327
 5901TIP3    H217710   5.816   3.881   0.569 -1.2076  0.4818 -0.7294
 5902TIP3   OH217711   4.553   5.645   1.044  0.0996 -0.3305  0.2979
 5902TIP3    H117712   4.470   5.655   0.998  1.0065 -0.6951 -1.5099
 5902TIP3    H217713   4.550   5.555   1.079 -0.6222 -0.0269  1.0685
 5903TIP3   OH217714   1.124   5.022   1.647 -0.3230 -0.5343 -0.6407
 5903TIP3    H117715   1.211   5.035   1.609  0.7574  0.6070  1.9812
 5903TIP3    H217716   1.070   5.089   1.606  0.6101  0.2258 -0.6528
 5904TIP3   OH217717   4.432   2.064   2.086  0.5108  0.4830 -0.7033
 5904TIP3    H117718   4.508   2.085   2.141 -0.3768  2.0047  0.0198
 5904TIP3    H217719   4.367   2.031   2.148  0.7198 -1.3177 -1.3905
 5905TIP3   OH217720   4.992   1.070   5.037  0.3732  0.3685  0.6433
 5905TIP3    H117721   5.021   1.161   5.037  1.2479  0.1154 -0.5596
 5905TIP3    H217722   4.979   1.049   4.944 -2.9299  0.1983  1.0352
 5906TIP3   OH217723   4.825   5.242   4.758  0.0528  0.2289 -0.1511
 5906TIP3    H117724   4.893   5.268   4.696  0.9161  0.5932  0.9266
 5906TIP3    H217725   4.845   5.151   4.779  0.0081  0.2373 -0.0712
 5907TIP3   OH217726   1.952   0.615   0.212  0.0633  0.0499 -0.1547
 5907TIP3    H117727   1.979   0.682   0.149 -0.1747  1.1562  0.8856
 5907TIP3    H217728   1.857   0.624   0.217  0.0997  0.1461  0.5272
 5908TIP3   OH217729   0.422   4.370   3.326 -0.0338 -0.2188  0.2692
 5908TIP3    H117730   0.497   4.390   3.270 -0.5763 -1.6743 -1.0545
 5908TIP3    H217731   0.371   4.450   3.328 -0.0695 -0.1662 -1.4856
 5909TIP3   OH217732   5.601   5.577   3.182 -0.3120  0.5177 -0.0031
 5909TIP3    H117733   5.575   5.499   3.230 -0.9647  1.8766  1.9616
 5909TIP3    H217734   5.685   5.554   3.142  1.2956 -0.1261  3.3995
 5910TIP3   OH217735   3.503   5.734   3.627  0.4011 -0.1815 -0.1905
 5910TIP3    H117736   3.553   5.770   3.553  0.5534 -0.0698 -0.0338
 5910TIP3    H217737   3.567   5.682   3.676  0.5603  0.6054  0.4567
 5911TIP3   OH217738   3.599   2.928   1.712  0.1109 -0.0614  0.0448
 5911TIP3    H117739   3.547   2.948   1.634 -1.5402  2.2244  1.5789
 5911TIP3    H217740   3.595   2.833   1.719 -1.9474 -0.1451 -1.2421
 5912TIP3   OH217741   5.445   5.693   1.803 -0.0790 -0.2067 -0.0722
 5912TIP3    H117742   5.505   5.746   1.855 -0.1638 -0.7672  0.6248
 5912TIP3    H217743   5.362   5.697   1.852 -0.2301 -0.5350 -0.2979
 5913TIP3   OH217744   1.463   4.666   0.081  0.3368  0.0479 -0.5039
 5913TIP3    H117745   1.519   4.655   0.004  0.3930  1.3604 -0.6783
 5913TIP3    H217746   1.484   4.753   0.114  0.0962 -0.3768  0.8351
 5914TIP3   OH217747   0.269   5.472   4.654 -0.2639 -0.0401 -0.2244
 5914TIP3    H117748   0.343   5.462   4.594  0.2666  1.6197  0.1106
 5914TIP3    H217749   0.275   5.562   4.685  0.8150 -1.3169  4.0279
 5915TIP3   OH217750   0.589   5.723   1.425  0.3866  0.7733  0.1315
 5915TIP3    H117751   0.515   5.664   1.423  0.9615 -0.0087  1.0529
 5915TIP3    H217752   0.550   5.811   1.431 -0.4906  0.3110  2.1687
 5916TIP3   OH217753   5.241   0.855   0.845  0.3688  0.1549  0.1284
 5916TIP3    H117754   5.210   0.938   0.807 -0.0637  0.2741  0.7348
 5916TIP3    H217755   5.168   0.795   0.833 -0.1119  0.4219  1.5108
 5917TIP3   OH217756   6.119   3.429   2.790  0.2107  0.1209  0.1405
 5917TIP3    H117757   6.092   3.347   2.832 -0.3373  0.7380  1.0316
 5917TIP3    H217758   6.202   3.407   2.747  0.5603 -0.6727  1.1627
 5918TIP3   OH217759   4.236   0.855   3.804 -0.0697 -0.2165  0.0253
 5918TIP3    H117760   4.282   0.935   3.780 -0.5372 -0.1498 -0.6618
 5918TIP3    H217761   4.261   0.791   3.738 -1.6600  0.0770 -0.9049
 5919TIP3   OH217762   0.959   5.363   4.217  0.0831 -0.2091  0.1216
 5919TIP3    H117763   0.964   5.401   4.130 -0.7024  1.4605  0.7586
 5919TIP3    H217764   0.905   5.285   4.207 -0.0071 -0.0286 -0.8664
 5920TIP3   OH217765   0.502   0.514   1.364 -0.3069 -0.4190  0.1122
 5920TIP3    H117766   0.565   0.542   1.298  0.3860  1.8823  1.6290
 5920TIP3    H217767   0.489   0.592   1.419 -1.2014 -2.0831  2.4019
 5921TIP3   OH217768   5.500   2.798   3.687 -0.3830  0.0284 -0.4026
 5921TIP3    H117769   5.551   2.879   3.683 -1.9880  1.0609 -0.8759
 5921TIP3    H217770   5.533   2.753   3.765 -0.2904  1.7204  0.5912
 5922TIP3   OH217771   1.756   0.017   4.594  0.3019  0.5474 -0.1448
 5922TIP3    H117772   1.764   0.108   4.623  0.0650  0.2892  0.7952
 5922TIP3    H217773   1.806  -0.033   4.659  0.0017 -0.0373 -0.3554
 5923TIP3   OH217774   1.936   0.351   0.137  0.1407 -0.5522 -0.0829
 5923TIP3    H117775   1.942   0.444   0.160  1.8010  0.6198 -4.3485
 5923TIP3    H217776   2.010   0.310   0.183  0.0611  0.3998  0.9341
 5924TIP3   OH217777   4.914   5.124   1.105 -0.1788 -0.0662  0.3739
 5924TIP3    H117778   4.850   5.188   1.074 -1.5340 -1.1359  0.8873
 5924TIP3    H217779   4.889   5.042   1.064  1.1507 -0.4302  0.2326
 5925TIP3   OH217780   2.779   1.034   2.818  0.0116 -0.1583  0.5566
 5925TIP3    H117781   2.777   1.070   2.729  1.6581 -0.2349  0.4521
 5925TIP3    H217782   2.715   0.963   2.817 -0.6720  0.4497 -0.2798
 5926TIP3   OH217783   0.427   0.703   0.168  0.5297  0.1253  0.0475
 5926TIP3    H117784   0.409   0.783   0.218 -0.0594  0.0997 -0.1194
 5926TIP3    H217785   0.395   0.721   0.080 -0.2138 -0.5209  0.1691
 5927TIP3   OH217786   6.289   0.210   5.073  0.6777 -0.8607  0.2763
 5927TIP3    H117787   6.333   0.285   5.031 -2.1322  0.9097  0.2250
 5927TIP3    H217788   6.252   0.160   5.000 -0.2946 -0.3629  0.4088
 5928TIP3   OH217789   5.417   1.363   4.881  0.2071 -0.0988 -0.2453
 5928TIP3    H117790   5.364   1.363   4.961 -1.4378  0.3213 -1.2808
 5928TIP3    H217791   5.502   1.397   4.908 -0.0370 -0.7492  1.4771
 5929TIP3   OH217792   1.795   2.567   2.462 -0.4100  0.2253 -0.2838
 5929TIP3    H117793   1.807   2.623   2.385 -0.4097 -0.5286 -0.8338
 5929TIP3    H217794   1.724   2.508   2.439  1.5570 -2.0622 -0.9256
 5930TIP3   OH217795   3.983   3.846   1.225  0.0019  0.3197  0.4491
 5930TIP3    H117796   3.994   3.783   1.154 -0.1694  0.6193  0.1530
 5930TIP3    H217797   3.892   3.836   1.253  0.3628 -0.5597  1.3657
 5931TIP3   OH217798   4.283   0.312   1.515  0.8498  0.5257  0.2532
 5931TIP3    H117799   4.291   0.227   1.559 -0.4418  1.0564  1.5879
 5931TIP3    H217800   4.368   0.354   1.528  1.7273 -0.7628 -0.9526
 5932TIP3   OH217801   5.921   5.750   3.518 -0.6132  0.0108 -0.0763
 5932TIP3    H117802   5.935   5.690   3.445  0.8798 -2.0748  1.7806
 5932TIP3    H217803   5.831   5.782   3.507 -0.8462 -1.2102 -2.0870
 5933TIP3   OH217804   3.026   2.295   4.813  0.0413  0.0463  0.2143
 5933TIP3    H117805   2.934   2.300   4.787  0.2299 -1.5735 -0.9138
 5933TIP3    H217806   3.064   2.378   4.784 -1.1153  0.8966  1.0379
 5934TIP3   OH217807   3.033   2.731   2.251  0.1898  0.0857 -0.4991
 5934TIP3    H117808   3.033   2.753   2.344  2.1317  1.7807 -0.8400
 5934TIP3    H217809   3.036   2.636   2.249  0.0136  0.0156  1.1600
 5935TIP3   OH217810   3.548   4.486   5.087  0.1971 -0.3936 -0.1349
 5935TIP3    H117811   3.584   4.574   5.092 -1.6442  0.4957 -1.5004
 5935TIP3    H217812   3.530   4.472   4.994  1.3989 -2.6545 -0.1209
 5936TIP3   OH217813   4.258   4.914   1.963 -0.2308  0.6112  0.1515
 5936TIP3    H117814   4.226   4.983   2.021  0.6339  0.0308  1.3485
 5936TIP3    H217815   4.352   4.929   1.957 -0.0286 -0.4840  0.4493
 5937TIP3   OH217816   6.070   3.676   3.358 -0.4269 -0.0446  0.3018
 5937TIP3    H117817   6.021   3.653   3.279  0.2637  1.6507 -0.6856
 5937TIP3    H217818   6.148   3.620   3.354  0.5644  1.3197 -1.3365
 5938TIP3   OH217819   5.212   4.347   0.510 -0.0693 -0.3742 -0.5724
 5938TIP3    H117820   5.134   4.319   0.462  1.1277 -0.1759 -2.7210
 5938TIP3    H217821   5.252   4.414   0.455  1.2238  0.0941  0.8642
 5939TIP3   OH217822   0.516   5.283   2.807  0.2053 -0.3860  0.6989
 5939TIP3    H117823   0.471   5.340   2.745  1.6563  1.7255  1.4463
 5939TIP3    H217824   0.460   5.206   2.815 -0.4275 -0.3892 -2.5618
 5940TIP3   OH217825   3.618   5.939   0.510  0.4016  0.2398 -0.7025
 5940TIP3    H117826   3.641   5.930   0.603 -0.5058  0.6859 -0.4238
 5940TIP3    H217827   3.544   5.999   0.509 -0.1475 -0.4233 -1.6438
 5941TIP3   OH217828   4.769   5.064   3.834  0.6210 -0.1090  0.2181
 5941TIP3    H117829   4.769   5.109   3.749  0.0738 -1.3695 -0.4760
 5941TIP3    H217830   4.716   5.121   3.891 -1.7909 -0.7796 -1.1868
 5942TIP3   OH217831   1.970   3.620   2.414  0.2193 -0.0459 -0.0580
 5942TIP3    H117832   2.035   3.555   2.438 -2.2150 -3.0964 -1.0336
 5942TIP3    H217833   1.981   3.634   2.320  1.4834  1.9843  0.3357
 5943TIP3   OH217834   5.713   2.914   0.012 -0.8663 -0.3144  0.1184
 5943TIP3    H117835   5.710   2.957   0.097 -1.7995 -0.4258  0.1600
 5943TIP3    H217836   5.624   2.924  -0.023 -0.2085  0.6924 -1.3416
 5944TIP3   OH217837   3.053   1.739   4.493 -0.0599 -0.1917 -0.3660
 5944TIP3    H117838   2.971   1.708   4.456 -0.2361 -0.6223  0.3792
 5944TIP3    H217839   3.110   1.662   4.496  0.0405 -0.1077  0.0119
 5945TIP3   OH217840   0.098   5.823   0.111 -0.1592  0.2416 -0.5874
 5945TIP3    H117841   0.126   5.882   0.041  0.5225 -1.1227 -1.5135
 5945TIP3    H217842   0.079   5.880   0.185  0.3968  1.6156 -1.4714
 5946TIP3   OH217843   3.016   3.172   4.090 -0.3161  0.1921  0.1468
 5946TIP3    H117844   2.921   3.159   4.082  0.0871 -1.9975 -2.2805
 5946TIP3    H217845   3.049   3.169   4.000  2.2257 -0.8443  1.0179
 5947TIP3   OH217846   2.452   4.144   0.731  0.4360 -0.1484  0.4689
 5947TIP3    H117847   2.502   4.085   0.788 -0.1749  1.8868  3.3498
 5947TIP3    H217848   2.369   4.155   0.776  0.6967  3.2080  0.3355
 5948TIP3   OH217849   4.711   5.901   0.448  0.1136 -0.4965  0.3117
 5948TIP3    H117850   4.725   5.983   0.495  0.2507 -0.4970  0.2724
 5948TIP3    H217851   4.791   5.888   0.398  0.3535 -0.9767  0.8059
 5949TIP3   OH217852   3.103   5.382   1.969 -0.2252  0.3229  0.2016
 5949TIP3    H117853   3.052   5.463   1.971  0.2679  0.6269  1.3194
 5949TIP3    H217854   3.182   5.402   2.020  0.6403 -0.3920 -0.7991
 5950TIP3   OH217855   3.528   4.032   3.118  0.8097 -0.8162  0.9099
 5950TIP3    H117856   3.585   4.062   3.189  0.7937 -0.7327  0.8881
 5950TIP3    H217857   3.509   4.111   3.068  0.6217 -0.8336  0.9551
 5951TIP3   OH217858   0.416   4.530   1.745 -0.4024 -0.1709  0.5464
 5951TIP3    H117859   0.359   4.487   1.681 -0.3637  0.1841  0.2772
 5951TIP3    H217860   0.363   4.533   1.825  0.1202 -2.0851  1.0217
 5952TIP3   OH217861   2.715   0.663   3.720 -0.4702 -0.5506  0.1507
 5952TIP3    H117862   2.773   0.609   3.666 -0.5692 -0.2434 -0.2724
 5952TIP3    H217863   2.666   0.600   3.773  1.1072 -0.7614  1.4108
 5953TIP3   OH217864   2.587   4.162   0.362 -0.6092 -0.3337 -0.0653
 5953TIP3    H117865   2.588   4.127   0.273 -1.6439 -1.7447  0.4495
 5953TIP3    H217866   2.579   4.257   0.350  1.8005 -0.2306 -1.4857
 5954TIP3   OH217867   1.395   1.518   1.155  0.1567  0.2877 -0.6495
 5954TIP3    H117868   1.324   1.582   1.150  0.9351  1.2828  0.6389
 5954TIP3    H217869   1.473   1.569   1.174  1.3788 -0.7330 -2.5946
 5955TIP3   OH217870   5.642   4.382   4.248  0.3143 -0.5029 -0.1854
 5955TIP3    H117871   5.557   4.424   4.235  1.0571  0.5326 -2.0210
 5955TIP3    H217872   5.632   4.334   4.330 -1.4401  1.0685  0.6017
 5956TIP3   OH217873   1.079   2.904   1.799 -0.4470 -0.1123  0.5905
 5956TIP3    H117874   1.145   2.844   1.833 -1.5119 -2.1909 -0.7899
 5956TIP3    H217875   1.113   2.933   1.715 -1.1752 -1.1014 -0.0734
 5957TIP3   OH217876   1.261   2.354   3.978 -0.3863  0.0038  0.2804
 5957TIP3    H117877   1.313   2.423   3.936  0.0035  0.0012  0.7488
 5957TIP3    H217878   1.238   2.390   4.063 -2.3544  0.5606 -0.4399
 5958TIP3   OH217879   0.569   1.864   4.032  0.2609  0.6042  0.2145
 5958TIP3    H117880   0.576   1.796   4.099 -0.0494  0.0311 -0.3297
 5958TIP3    H217881   0.659   1.877   4.002  0.2457 -0.0760 -0.1641
 5959TIP3   OH217882   4.348   0.370   0.456 -0.1139  0.0072 -0.1567
 5959TIP3    H117883   4.279   0.435   0.470 -1.8869 -1.9967  0.9795
 5959TIP3    H217884   4.371   0.380   0.364 -0.7544  1.7898 -0.1764
 5960TIP3   OH217885   4.844   5.571   0.143 -0.3271  0.5489  0.5401
 5960TIP3    H117886   4.763   5.616   0.119  1.2320  2.7417 -1.0867
 5960TIP3    H217887   4.897   5.574   0.064  2.0204  0.7892  2.0155
 5961TIP3   OH217888   4.077   2.982   5.114  0.5182 -0.1385  0.2107
 5961TIP3    H117889   4.000   2.934   5.083  0.5257  0.7900 -1.3621
 5961TIP3    H217890   4.144   2.964   5.049  2.1675 -2.1233  2.3150
 5962TIP3   OH217891   5.296   4.428   5.060  0.0588  0.4250  0.1556
 5962TIP3    H117892   5.211   4.389   5.080  0.2181 -0.9783 -1.5902
 5962TIP3    H217893   5.360   4.364   5.090  0.5788  1.7608  2.0524
 5963TIP3   OH217894   0.108   3.429   4.965  0.5840 -0.1647  0.5201
 5963TIP3    H117895   0.039   3.400   4.906  1.2760 -0.8509  0.0115
 5963TIP3    H217896   0.188   3.426   4.911  0.8746  1.5066  0.8285
 5964TIP3   OH217897   0.865   5.253   4.487  0.2999 -0.2352 -0.2429
 5964TIP3    H117898   0.958   5.277   4.490  0.3087 -0.3647  0.9994
 5964TIP3    H217899   0.854   5.212   4.401  1.6298 -1.1194 -0.0220
 5965TIP3   OH217900   5.522   5.227   4.514  0.6279  0.0662  0.1750
 5965TIP3    H117901   5.558   5.168   4.448 -0.1404 -1.0569  0.7109
 5965TIP3    H217902   5.430   5.237   4.488  0.9816  1.9574 -0.5294
 5966TIP3   OH217903   4.696   4.103   2.491 -0.3894  0.2833  0.0998
 5966TIP3    H117904   4.786   4.072   2.500  0.1264  1.5450 -0.4200
 5966TIP3    H217905   4.676   4.090   2.398 -0.1779  1.3919 -0.1209
 5967TIP3   OH217906   5.515   5.039   2.644  0.1633  0.2306  0.1445
 5967TIP3    H117907   5.600   4.996   2.634  0.0444 -0.1249  0.6471
 5967TIP3    H217908   5.464   4.980   2.699 -0.9045 -0.2415 -1.3052
 5968TIP3   OH217909   0.065   5.808   2.999  0.6442 -0.5036  0.0376
 5968TIP3    H117910  -0.024   5.838   3.017  0.8561 -0.0894  0.4286
 5968TIP3    H217911   0.112   5.825   3.081  1.5243  0.9605 -0.7287
 5969TIP3   OH217912   0.964   5.846   2.389  0.7663  0.3422  0.1004
 5969TIP3    H117913   1.050   5.814   2.417  0.5213  0.2246  0.7415
 5969TIP3    H217914   0.932   5.779   2.329  0.6378 -0.2017  0.7536
 5970TIP3   OH217915   5.074   5.524   2.962 -0.8915  0.3324  0.1419
 5970TIP3    H117916   5.130   5.506   2.886  0.8278  0.4145  1.3227
 5970TIP3    H217917   5.083   5.619   2.976  0.6150  0.0065  1.7293
 5971TIP3   OH217918   0.762   5.241   2.899 -0.3109  0.1740 -0.0513
 5971TIP3    H117919   0.677   5.252   2.856 -0.6382  0.4015  0.6296
 5971TIP3    H217920   0.763   5.310   2.966 -1.0432 -1.8990  2.2267
 5972TIP3   OH217921   0.446   1.810   4.900 -0.3208 -0.4093  0.2510
 5972TIP3    H117922   0.539   1.832   4.900  0.0265 -1.7174  1.2631
 5972TIP3    H217923   0.435   1.751   4.826 -0.0369 -1.3151  0.9078
 5973TIP3   OH217924   0.825   3.677   3.955 -0.3089 -0.4431  0.6945
 5973TIP3    H117925   0.771   3.601   3.977 -0.7150 -0.2770  0.2825
 5973TIP3    H217926   0.837   3.722   4.038  0.2444 -1.1555  1.0082
 5974TIP3   OH217927   3.162   0.044   0.785 -0.1634 -0.6352 -0.3118
 5974TIP3    H117928   3.109  -0.016   0.836 -1.5690 -0.9829 -2.0643
 5974TIP3    H217929   3.169   0.123   0.839 -1.4630 -1.0376  0.4787
 5975TIP3   OH217930   1.333   1.481   2.514  0.0507  0.3450 -0.0275
 5975TIP3    H117931   1.240   1.500   2.508  0.1340  0.5876 -0.6721
 5975TIP3    H217932   1.376   1.565   2.494  0.4025  0.3396  0.6832
 5976TIP3   OH217933   5.877   3.509   4.230 -0.1080  0.7028  0.2402
 5976TIP3    H117934   5.820   3.435   4.213  0.2995  0.6755 -1.0951
 5976TIP3    H217935   5.964   3.471   4.238 -0.2532  0.6988  2.6109
 5977TIP3   OH217936   2.540   4.459   4.238  0.3842  0.3275 -0.7813
 5977TIP3    H117937   2.570   4.549   4.233  0.6022  0.2485 -0.8936
 5977TIP3    H217938   2.541   4.428   4.148  1.1954 -0.0761 -0.6476
 5978TIP3   OH217939   6.253   1.565   0.782  0.2642  0.3546 -0.2164
 5978TIP3    H117940   6.221   1.481   0.814 -0.4453  0.8985  0.5624
 5978TIP3    H217941   6.174   1.618   0.770  0.6343  0.6652 -1.4556
 5979TIP3   OH217942   1.952   4.132   4.991  0.4411 -0.2150 -0.9134
 5979TIP3    H117943   2.027   4.147   5.048  0.0893 -0.6953 -0.3061
 5979TIP3    H217944   1.923   4.043   5.012 -1.2181  0.4840  0.0091
 5980TIP3   OH217945   0.137   5.100   1.409 -0.3408  0.2046 -0.3292
 5980TIP3    H117946   0.165   5.146   1.488  0.9677 -0.7737 -0.1912
 5980TIP3    H217947   0.157   5.160   1.337 -0.1960  0.5145 -0.0313
 5981TIP3   OH217948   4.058   3.581   3.033  0.3436 -0.4580  0.7798
 5981TIP3    H117949   3.994   3.652   3.026 -0.2406 -0.9613  0.8709
 5981TIP3    H217950   4.067   3.565   3.126 -1.2212 -1.9673  0.7242
 5982TIP3   OH217951   4.803   5.936   2.813 -0.0764  0.3842  0.1644
 5982TIP3    H117952   4.757   5.857   2.843  0.1367  0.4174  0.5886
 5982TIP3    H217953   4.817   5.921   2.720 -1.3486  0.5797 -0.0760
 5983TIP3   OH217954   1.398   3.368   1.738 -0.1932 -0.0925  0.6840
 5983TIP3    H117955   1.302   3.358   1.741 -0.1474 -0.3422  1.9548
 5983TIP3    H217956   1.418   3.375   1.645 -1.6438  1.9506  0.4449
 5984TIP3   OH217957   0.056   4.499   1.470  0.1823  0.3270  0.2155
 5984TIP3    H117958   0.023   4.487   1.560 -0.5795 -0.7663 -0.1899
 5984TIP3    H217959   0.137   4.449   1.467  0.4512  0.7485  0.4275
 5985TIP3   OH217960   3.521   5.303   1.401 -0.0187  0.2318 -0.4340
 5985TIP3    H117961   3.514   5.266   1.489  1.4879 -0.0421 -0.4033
 5985TIP3    H217962   3.526   5.227   1.343 -0.6920  0.4117 -0.7423
 5986TIP3   OH217963   4.618   0.813   3.162  0.0668 -0.3047  0.4901
 5986TIP3    H117964   4.668   0.763   3.097  0.4132 -0.6402  1.0054
 5986TIP3    H217965   4.543   0.846   3.114  1.5663  1.5536 -0.7168
 5987TIP3   OH217966   3.984   4.673   0.684  0.0445 -0.2112 -0.1068
 5987TIP3    H117967   3.931   4.619   0.743  0.5429  0.5185  1.0269
 5987TIP3    H217968   4.023   4.740   0.740 -1.6510  2.2275 -1.6398
 5988TIP3   OH217969   2.628   2.635   3.094  0.4601 -0.0195  0.3616
 5988TIP3    H117970   2.588   2.693   3.158  1.0506  1.4237 -0.5338
 5988TIP3    H217971   2.562   2.568   3.078  0.2490 -0.3686  2.3617
 5989TIP3   OH217972   0.423   1.583   1.404 -0.3926  0.3384  0.1604
 5989TIP3    H117973   0.495   1.551   1.458 -1.5577  0.3192  1.7877
 5989TIP3    H217974   0.369   1.635   1.464 -0.7832  1.8737 -1.4405
 5990TIP3   OH217975   1.757   0.053   0.498 -0.2157  0.9819  0.1932
 5990TIP3    H117976   1.747  -0.006   0.573 -0.7660 -0.9142 -1.2914
 5990TIP3    H217977   1.849   0.078   0.499  0.0824 -0.0626  0.7635
 5991TIP3   OH217978   2.735   4.847   1.230  0.4636  0.3128 -0.1722
 5991TIP3    H117979   2.733   4.801   1.314 -0.8818  0.2985 -0.1822
 5991TIP3    H217980   2.777   4.931   1.250  0.7398  0.0470  0.3767
 5992TIP3   OH217981   0.621   3.205   1.025 -0.0528 -0.2318  0.2293
 5992TIP3    H117982   0.623   3.281   0.967 -0.5022 -0.4982 -0.1493
 5992TIP3    H217983   0.588   3.239   1.108 -1.5634 -0.2354 -0.3242
 5993TIP3   OH217984   0.730   2.218   0.194  0.1490  0.3346 -0.2582
 5993TIP3    H117985   0.661   2.152   0.197 -0.9255  1.4115 -0.8065
 5993TIP3    H217986   0.811   2.168   0.207 -0.8350 -0.6969  2.6525
 5994TIP3   OH217987   1.006   5.445   0.178 -0.9199 -0.4016 -0.3378
 5994TIP3    H117988   0.954   5.406   0.249  1.3894 -1.1908  1.0033
 5994TIP3    H217989   1.038   5.370   0.128  2.0998 -0.3047  1.2170
 5995TIP3   OH217990   4.524   2.882   1.931  0.6267 -0.1266  0.7256
 5995TIP3    H117991   4.601   2.868   1.876 -0.3475 -0.6167 -0.5774
 5995TIP3    H217992   4.458   2.914   1.870  0.1840  1.6433  2.0627
 5996TIP3   OH217993   0.715   4.639   0.248  0.3699 -0.3269 -0.7704
 5996TIP3    H117994   0.642   4.663   0.306  1.8339  0.5459  0.8106
 5996TIP3    H217995   0.689   4.555   0.210 -1.2539 -0.2649  0.0952
 5997TIP3   OH217996   3.849   3.858   1.605 -0.2970  0.0385  0.2622
 5997TIP3    H117997   3.780   3.802   1.570 -0.1583 -1.8613  2.7524
 5997TIP3    H217998   3.907   3.798   1.652  2.0722  1.8113 -0.2018
 5998TIP3   OH217999   2.271   0.762   3.477 -0.2021 -0.1137  0.3194
 5998TIP3    H118000   2.342   0.699   3.460 -0.6140 -0.2679 -0.9972
 5998TIP3    H218001   2.296   0.805   3.558 -0.0490 -2.1722  1.4211
 5999TIP3   OH218002   1.876   1.019   2.287  0.0820  0.0666  0.3339
 5999TIP3    H118003   1.810   1.048   2.224  0.9482 -0.1347 -0.7138
 5999TIP3    H218004   1.896   0.929   2.261  0.7000  0.0990  0.6750
 6000TIP3   OH218005   2.047   2.320   3.814 -0.7969  0.5105  0.1139
 6000TIP3    H118006   2.003   2.354   3.736 -0.9019  1.6814  0.6621
 6000TIP3    H218007   1.996   2.354   3.887 -0.3983 -0.1481  0.7153
 6001TIP3   OH218008   5.842   1.213   3.162 -0.1355  0.0440  1.0331
 6001TIP3    H118009   5.812   1.206   3.072 -1.4163  2.2833  1.2111
 6001TIP3    H218010   5.882   1.128   3.181 -0.1257 -0.5977 -1.5094
 6002TIP3   OH218011   5.426   2.082   1.305  0.2084  0.0711  0.4091
 6002TIP3    H118012   5.435   2.118   1.217 -1.5462 -0.3456  0.0215
 6002TIP3    H218013   5.412   1.988   1.292 -0.4357  0.0608  1.0923
 6003TIP3   OH218014   2.103   0.494   2.183 -0.1789  0.1336 -0.0188
 6003TIP3    H118015   2.120   0.509   2.276  1.9349  1.5045 -0.5427
 6003TIP3    H218016   2.010   0.472   2.178  0.0332 -1.6950  2.5688
 6004TIP3   OH218017   3.696   2.459   4.315  0.0021  0.3231 -0.0226
 6004TIP3    H118018   3.754   2.447   4.390  0.7494  3.0417 -0.0579
 6004TIP3    H218019   3.745   2.422   4.241 -0.2373 -1.2974  0.5809
 6005TIP3   OH218020   5.159   2.476   4.188 -0.2401 -0.1259 -0.0532
 6005TIP3    H118021   5.215   2.512   4.119 -1.0062  2.5020  0.5609
 6005TIP3    H218022   5.212   2.482   4.268 -0.1092 -1.1684 -0.0461
 6006TIP3   OH218023   1.834   2.448   3.704  0.1665 -0.7251 -0.5864
 6006TIP3    H118024   1.744   2.414   3.702 -0.8043  1.6716 -2.0212
 6006TIP3    H218025   1.826   2.534   3.745  1.6800 -0.1181 -1.5052
 6007TIP3   OH218026   0.780   3.435   3.007 -0.1007 -0.2056  0.3934
 6007TIP3    H118027   0.810   3.407   2.921 -0.1062  1.4768 -0.1972
 6007TIP3    H218028   0.797   3.529   3.009 -1.0668 -0.0236  1.8245
 6008TIP3   OH218029   0.071   3.089   3.020 -0.5058 -0.4765  0.2632
 6008TIP3    H118030   0.054   3.019   3.083  1.7831 -2.5929 -1.3063
 6008TIP3    H218031   0.056   3.049   2.934  1.6761  0.6476 -0.7241
 6009TIP3   OH218032   5.002   3.241   2.237 -0.1967 -0.0818  0.5353
 6009TIP3    H118033   4.985   3.147   2.243 -1.9602  0.0503 -1.4823
 6009TIP3    H218034   4.987   3.263   2.145  2.8633  1.7371  0.3306
 6010TIP3   OH218035   2.834   4.173   2.402 -0.0540  0.3372 -0.4170
 6010TIP3    H118036   2.817   4.267   2.391 -0.1639  0.4207  0.4188
 6010TIP3    H218037   2.841   4.140   2.313 -1.8484  0.7944 -0.7678
 6011TIP3   OH218038   4.500   1.354   4.703 -0.6590 -0.4069 -0.2186
 6011TIP3    H118039   4.583   1.349   4.749 -0.3533 -0.9672 -0.8151
 6011TIP3    H218040   4.440   1.298   4.753 -0.0217 -1.9525 -1.1162
 6012TIP3   OH218041   0.925   4.444   0.319 -0.1069 -0.0329 -0.2271
 6012TIP3    H118042   0.903   4.501   0.246  2.1760 -0.7068 -1.5272
 6012TIP3    H218043   1.008   4.477   0.352 -0.8133 -0.0817  1.7606
 6013TIP3   OH218044   5.481   3.974   1.527 -0.3998 -0.0352  0.0884
 6013TIP3    H118045   5.447   4.062   1.512 -0.3125  0.0489  0.3782
 6013TIP3    H218046   5.411   3.915   1.498 -0.1562  0.1207 -0.8420
 6014TIP3   OH218047   0.676   0.527   4.569 -0.1148 -0.6453 -0.4059
 6014TIP3    H118048   0.716   0.467   4.632 -0.7041 -0.7291 -0.1006
 6014TIP3    H218049   0.619   0.472   4.516  0.1295 -0.5199 -0.7980
 6015TIP3   OH218050   2.732   5.525   1.129 -0.0537  0.1523  0.4561
 6015TIP3    H118051   2.691   5.445   1.097 -1.0116  1.6247 -2.3055
 6015TIP3    H218052   2.710   5.528   1.222 -2.3652 -1.3990  0.0340
 6016TIP3   OH218053   0.485   0.324   2.609 -0.3229  0.1654 -0.2443
 6016TIP3    H118054   0.528   0.269   2.543 -0.8686  0.9724 -1.2920
 6016TIP3    H218055   0.454   0.400   2.560 -1.3978  0.4296  0.8224
 6017TIP3   OH218056   3.989   0.115   1.329  0.1698 -0.0275 -0.1612
 6017TIP3    H118057   4.042   0.193   1.317  1.0355 -0.6984 -0.9051
 6017TIP3    H218058   3.918   0.142   1.387  1.4568  0.8445  1.0635
 6018TIP3   OH218059   3.512   3.679   3.436 -0.1219  0.1059 -0.1021
 6018TIP3    H118060   3.513   3.716   3.348 -0.0210  2.0130  0.6401
 6018TIP3    H218061   3.420   3.654   3.451  0.1726 -1.9254 -1.3537
 6019TIP3   OH218062   0.774   1.191   4.349  0.0885 -0.7949 -0.1576
 6019TIP3    H118063   0.781   1.128   4.420 -1.3111  0.3831  1.0776
 6019TIP3    H218064   0.852   1.245   4.356 -0.6392  0.1091  1.3171
 6020TIP3   OH218065   3.412   0.046   0.664  0.0206  0.0448  0.2794
 6020TIP3    H118066   3.457   0.116   0.711  0.5706 -0.5929  0.7197
 6020TIP3    H218067   3.332   0.032   0.714  1.2461 -1.5720  1.8768
 6021TIP3   OH218068   2.145   1.566   1.185 -0.6294 -0.1968 -0.0382
 6021TIP3    H118069   2.106   1.608   1.261  0.7466  1.2907 -0.0916
 6021TIP3    H218070   2.206   1.502   1.222 -1.3835 -0.8535  0.0743
 6022TIP3   OH218071   0.950   1.924   2.528 -0.2824 -0.5845 -0.1759
 6022TIP3    H118072   0.869   1.888   2.490  0.6065 -2.2966 -0.5291
 6022TIP3    H218073   0.960   2.009   2.485 -1.4258 -0.7399 -0.8032
 6023TIP3   OH218074   5.097   5.755   4.742  0.0704  0.1375  0.9109
 6023TIP3    H118075   5.162   5.794   4.801  2.8564 -0.9244 -1.1910
 6023TIP3    H218076   5.061   5.830   4.694  1.3361  0.6372  0.6828
 6024TIP3   OH218077   2.966   5.280   5.119 -0.2029 -0.6080  0.3377
 6024TIP3    H118078   2.920   5.301   5.200 -0.1119 -2.0630  0.7846
 6024TIP3    H218079   2.923   5.201   5.086 -0.1599 -0.1147 -0.9778
 6025TIP3   OH218080   2.814   4.481   1.263 -0.3006 -0.3728 -0.0404
 6025TIP3    H118081   2.877   4.417   1.231 -0.8385 -1.3564  0.7951
 6025TIP3    H218082   2.867   4.552   1.300  0.3464 -1.6590  1.5993
 6026TIP3   OH218083   5.355   4.864   0.360  0.0928  0.3057  0.1713
 6026TIP3    H118084   5.278   4.875   0.416 -0.3790  0.5022 -0.4975
 6026TIP3    H218085   5.409   4.799   0.405 -1.9599 -2.2943 -0.8930
 6027TIP3   OH218086   0.941   0.986   2.254 -0.0795  0.1808 -0.1345
 6027TIP3    H118087   0.958   1.005   2.162 -0.2754  1.7466  0.1269
 6027TIP3    H218088   0.854   0.945   2.254  0.9579 -2.1808 -0.8526
 6028TIP3   OH218089   0.432   2.610   4.594 -0.2993  0.0715 -0.6624
 6028TIP3    H118090   0.412   2.545   4.662 -2.0809 -2.1885 -3.1096
 6028TIP3    H218091   0.423   2.694   4.638 -0.1398 -1.2494  2.1535
 6029TIP3   OH218092   5.306   3.101   1.208 -0.4072 -0.5652 -0.2099
 6029TIP3    H118093   5.274   3.069   1.123  0.2218  0.9339 -1.0362
 6029TIP3    H218094   5.259   3.183   1.222  1.6695  0.7394 -0.5681
 6030TIP3   OH218095   1.838   0.675   4.056 -0.5318  0.2638 -0.1730
 6030TIP3    H118096   1.790   0.593   4.053  0.7877 -0.5180 -1.5175
 6030TIP3    H218097   1.872   0.681   4.145  0.9437 -1.6675 -0.5328
 6031TIP3   OH218098   4.204   5.337   2.207  0.0890 -0.6202 -0.2541
 6031TIP3    H118099   4.149   5.411   2.181  0.0697 -1.0677 -1.5868
 6031TIP3    H218100   4.141   5.269   2.232  0.0212 -0.9786 -1.3437
 6032TIP3   OH218101   0.195   5.238   1.187 -0.8017  0.0947 -0.5398
 6032TIP3    H118102   0.179   5.152   1.148 -1.4312  0.5195 -1.2326
 6032TIP3    H218103   0.278   5.267   1.149 -0.9901  0.1383 -0.9221
 6033TIP3   OH218104   4.483   3.085   1.376  0.3526 -0.3130 -0.2840
 6033TIP3    H118105   4.440   3.156   1.330 -0.1945 -0.7588 -0.4750
 6033TIP3    H218106   4.512   3.026   1.306 -0.5077 -1.0067 -0.0744
 6034TIP3   OH218107   1.182   4.811   0.232  0.2716 -0.0090  0.7931
 6034TIP3    H118108   1.112   4.848   0.286  0.1511 -1.2978  1.5714
 6034TIP3    H218109   1.263   4.833   0.279  0.2769  0.1395  0.7153
 6035TIP3   OH218110   1.755   1.540   0.080  0.6648 -0.2498  0.6899
 6035TIP3    H118111   1.804   1.470   0.038  2.9270  0.5026  1.9231
 6035TIP3    H218112   1.813   1.574   0.148 -0.8770  1.9248  1.0575
 6036TIP3   OH218113   3.131   5.251   0.931  0.2953 -0.2545  0.5559
 6036TIP3    H118114   3.064   5.299   0.882  1.7774  0.4972 -0.8451
 6036TIP3    H218115   3.106   5.159   0.922 -0.8940  0.0379  0.6368
 6037TIP3   OH218116   5.697   4.407   2.415  0.3277  0.4462  0.2058
 6037TIP3    H118117   5.766   4.367   2.362 -1.0285 -0.5235 -0.9026
 6037TIP3    H218118   5.744   4.459   2.480  2.1748 -2.3235  1.2620
 6038TIP3   OH218119   1.157   2.005   0.224  0.2236 -0.0997 -0.7990
 6038TIP3    H118120   1.102   2.024   0.148 -0.0670 -0.8727 -0.7870
 6038TIP3    H218121   1.220   1.941   0.193 -0.3344 -0.9497 -0.2129
 6039TIP3   OH218122   4.421   5.254   0.727 -0.0136  0.0885  0.4657
 6039TIP3    H118123   4.432   5.324   0.662 -0.9344 -0.0419  0.1454
 6039TIP3    H218124   4.478   5.279   0.799  0.1618  0.8354  0.0819
 6040TIP3   OH218125   5.819   1.496   3.014 -0.4357 -0.6618 -0.1280
 6040TIP3    H118126   5.769   1.468   3.091 -0.0938 -1.0616 -0.0448
 6040TIP3    H218127   5.790   1.437   2.944 -0.7102 -0.3312 -0.2955
 6041TIP3   OH218128   3.214   0.539   3.804  0.0156 -0.5775 -0.3907
 6041TIP3    H118129   3.237   0.537   3.897  1.1014  1.1175 -0.5942
 6041TIP3    H218130   3.283   0.489   3.761 -0.0091 -0.6287 -0.3705
 6042TIP3   OH218131   5.016   2.441   3.270 -0.5004  0.2350 -0.1149
 6042TIP3    H118132   5.040   2.387   3.345  0.3207 -0.1531 -0.6426
 6042TIP3    H218133   4.932   2.480   3.294 -2.2030 -2.8948 -0.5383
 6043TIP3   OH218134   0.384   5.247   1.903 -0.3169 -0.2296 -0.0892
 6043TIP3    H118135   0.314   5.295   1.947 -0.9421  0.7703 -2.0738
 6043TIP3    H218136   0.427   5.313   1.847  0.4293 -1.4419 -0.9914
 6044TIP3   OH218137   4.480   5.051   1.932  0.2571  0.3594 -0.3105
 6044TIP3    H118138   4.510   5.117   1.994 -2.3245  0.6240  0.7893
 6044TIP3    H218139   4.477   5.097   1.848 -0.5327  1.3667  0.2541
 6045TIP3   OH218140   4.038   3.604   0.091 -0.0895 -0.2306  0.2228
 6045TIP3    H118141   4.043   3.603   0.187 -0.5158  2.6488  0.3572
 6045TIP3    H218142   4.127   3.585   0.062  0.4849  0.7297  1.2731
 6046TIP3   OH218143   6.282   0.442   4.151 -0.5356 -0.1441 -0.4968
 6046TIP3    H118144   6.204   0.481   4.191 -0.2062  0.0711 -0.0561
 6046TIP3    H218145   6.274   0.463   4.058  0.1886  1.9907 -0.1307
 6047TIP3   OH218146   6.062   5.793   2.485 -1.0105  0.0737  0.4721
 6047TIP3    H118147   6.052   5.830   2.572 -0.7261 -0.5754  0.7844
 6047TIP3    H218148   6.144   5.830   2.452 -1.2620  0.5402  0.3614
 6048TIP3   OH218149   2.979   1.892   0.116  0.1923  0.0536 -0.9049
 6048TIP3    H118150   2.892   1.928   0.129  0.2035 -0.4086  0.7419
 6048TIP3    H218151   3.036   1.968   0.107 -0.1131  0.4225  0.1247
 6049TIP3   OH218152   3.852   5.549   4.401  0.0140 -0.1331 -0.6864
 6049TIP3    H118153   3.779   5.584   4.453 -0.1176  1.1843 -1.6965
 6049TIP3    H218154   3.826   5.458   4.383 -0.2724 -0.4026  0.8904
 6050TIP3   OH218155   4.629   3.795   1.798  0.1832 -0.0208  0.3663
 6050TIP3    H118156   4.590   3.769   1.715 -0.4744  0.3126  0.5622
 6050TIP3    H218157   4.566   3.766   1.864 -0.2983  1.4990  0.6280
 6051TIP3   OH218158   0.093   0.264   3.610 -0.0208 -0.4520  0.7486
 6051TIP3    H118159   0.064   0.210   3.536  0.1314  0.3165  0.1155
 6051TIP3    H218160   0.120   0.201   3.676 -1.3424 -1.1631  0.6329
 6052TIP3   OH218161   4.496   0.949   3.912  0.2824  0.0880  0.6337
 6052TIP3    H118162   4.446   1.005   3.853  1.5798  0.9177  0.2864
 6052TIP3    H218163   4.453   0.960   3.997 -0.0825  0.8435  0.3636
 6053TIP3   OH218164   5.033   1.005   1.872  0.1333  0.4568  0.0049
 6053TIP3    H118165   5.080   1.057   1.808 -0.7702  0.5411 -0.6034
 6053TIP3    H218166   5.007   1.067   1.940  1.4912  0.2867  0.7060
 6054TIP3   OH218167   6.066   5.891   0.729 -0.0420 -0.2494  0.3912
 6054TIP3    H118168   6.038   5.890   0.821 -1.0408 -1.7092  0.1072
 6054TIP3    H218169   6.161   5.896   0.732 -0.1296  1.5615  1.4639
 6055TIP3   OH218170   4.024   1.045   1.785  0.1042 -1.1098  0.0408
 6055TIP3    H118171   3.955   1.104   1.814 -0.5752 -2.1510  0.6108
 6055TIP3    H218172   3.982   0.959   1.779  0.5591 -1.2322 -2.7666
 6056TIP3   OH218173   1.238   2.494   1.168  0.6643  0.1256 -0.1350
 6056TIP3    H118174   1.268   2.545   1.093  0.0518 -0.0316 -0.4991
 6056TIP3    H218175   1.298   2.419   1.173 -0.6671 -1.1367 -1.9321
 6057TIP3   OH218176   4.851   3.283   3.382  0.5246  0.1892 -0.0370
 6057TIP3    H118177   4.779   3.284   3.320 -0.9386 -0.2327  1.5609
 6057TIP3    H218178   4.902   3.206   3.358 -1.0659 -1.0460  0.3441
 6058TIP3   OH218179   0.311   0.505   3.140 -0.0595 -0.1611  0.5486
 6058TIP3    H118180   0.396   0.527   3.101 -0.0830  1.9779  1.5512
 6058TIP3    H218181   0.273   0.589   3.162 -0.9976 -1.1696  3.1498
 6059TIP3   OH218182   2.799   1.624   4.440  0.0053  0.6006  0.3830
 6059TIP3    H118183   2.763   1.707   4.471  0.0206  0.7185  0.0861
 6059TIP3    H218184   2.790   1.627   4.345  2.0599  1.2399  0.1518
 6060TIP3   OH218185   0.022   4.497   2.498  0.0574  0.3663 -0.2189
 6060TIP3    H118186   0.008   4.420   2.553 -0.8335  0.5265 -0.1987
 6060TIP3    H218187   0.101   4.538   2.533  0.8130 -0.7827 -0.5237
 6061TIP3   OH218188   6.235   0.052   3.683 -0.1056  0.1297  0.6743
 6061TIP3    H118189   6.279   0.044   3.599  0.0786  0.5892  0.7209
 6061TIP3    H218190   6.161  -0.009   3.678  0.3959 -0.4685  0.5102
 6062TIP3   OH218191   2.265   3.484   2.041  0.1114  0.0316 -0.1325
 6062TIP3    H118192   2.195   3.437   1.997 -0.6164  0.9346  0.0366
 6062TIP3    H218193   2.345   3.445   2.007 -0.4626 -0.6757 -0.7000
 6063TIP3   OH218194   1.529   5.701   0.160 -0.0564 -0.0370 -0.2002
 6063TIP3    H118195   1.610   5.668   0.121 -0.5655 -1.8018  0.1389
 6063TIP3    H218196   1.547   5.703   0.254  0.9373  3.5660 -0.3213
 6064TIP3   OH218197   1.345   0.829   3.372  0.1261  0.1184 -0.2208
 6064TIP3    H118198   1.408   0.813   3.302  0.5847  0.5675  0.0821
 6064TIP3    H218199   1.296   0.906   3.342  0.0504  0.0653 -0.2333
 6065TIP3   OH218200   0.485   5.510   0.844 -0.1806 -0.4661 -0.2847
 6065TIP3    H118201   0.568   5.550   0.820 -0.3693  0.1645  0.0871
 6065TIP3    H218202   0.457   5.463   0.765  0.2268 -0.1815 -0.6014
 6066TIP3   OH218203   4.251   4.500   4.812  0.0321  0.6042  0.2035
 6066TIP3    H118204   4.280   4.526   4.725 -1.5685  2.1966  0.0763
 6066TIP3    H218205   4.169   4.549   4.825 -2.7462 -3.6017  0.4048
 6067TIP3   OH218206   1.163   4.921   1.905  0.1885  0.5046 -0.0151
 6067TIP3    H118207   1.157   4.959   1.817  2.7821 -3.0570 -1.9683
 6067TIP3    H218208   1.231   4.971   1.948 -0.0041  1.2856 -0.5918
 6068TIP3   OH218209   4.576   0.960   0.222 -0.1965 -0.4046 -0.4732
 6068TIP3    H118210   4.672   0.954   0.229 -0.2889 -0.2146  3.2850
 6068TIP3    H218211   4.554   1.040   0.270 -2.3060 -1.0928 -0.1832
 6069TIP3   OH218212   3.649   4.363   3.720  0.0823  0.3580 -0.4693
 6069TIP3    H118213   3.703   4.283   3.724  0.9593  0.8542 -1.7410
 6069TIP3    H218214   3.572   4.337   3.670 -0.2116  0.0192  0.1384
 6070TIP3   OH218215   5.374   5.757   2.605 -0.0404  0.0657  0.7577
 6070TIP3    H118216   5.452   5.720   2.563 -0.3561  0.3350 -0.1008
 6070TIP3    H218217   5.407   5.826   2.662  0.4003 -0.2631  0.9047
 6071TIP3   OH218218   4.569   3.122   4.003 -0.4213  0.8244 -0.0964
 6071TIP3    H118219   4.554   3.078   4.086  1.3126  0.1923 -0.0655
 6071TIP3    H218220   4.633   3.190   4.023  0.0316  0.6544 -0.9023
 6072TIP3   OH218221   4.732   0.858   3.412 -0.2904 -0.3466  0.3357
 6072TIP3    H118222   4.782   0.779   3.429  0.3018 -0.3149 -1.0845
 6072TIP3    H218223   4.680   0.837   3.334 -1.7226 -0.0230  1.1549
 6073TIP3   OH218224   4.754   3.993   1.074 -0.3439  0.5056 -0.2505
 6073TIP3    H118225   4.723   4.078   1.042 -1.0006  1.4613  2.6269
 6073TIP3    H218226   4.827   4.014   1.131 -1.0923 -0.7388  1.2481
 6074TIP3   OH218227   2.428   5.457   0.237 -0.0762 -0.1971 -0.3535
 6074TIP3    H118228   2.479   5.387   0.196  0.8264 -0.0637  0.4794
 6074TIP3    H218229   2.484   5.535   0.230 -1.2416  0.5705 -1.6482
 6075TIP3   OH218230   0.907   5.774   0.706 -0.1451  0.5453  0.5646
 6075TIP3    H118231   0.994   5.810   0.727 -0.7640  1.6136  1.4390
 6075TIP3    H218232   0.884   5.814   0.622 -0.5620  1.7445  1.2315
 6076TIP3   OH218233   4.880   2.380   0.504  0.1416 -0.0686  0.0771
 6076TIP3    H118234   4.970   2.383   0.536  0.0112 -0.7523  0.5560
 6076TIP3    H218235   4.887   2.388   0.409  0.7562 -0.6333  0.0661
 6077TIP3   OH218236   6.349   2.901   3.227 -0.1230  0.0433  0.4449
 6077TIP3    H118237   6.283   2.915   3.295  1.4145 -0.9755  2.2567
 6077TIP3    H218238   6.325   2.817   3.187 -0.2808 -0.0115  0.6544
 6078TIP3   OH218239   1.225   5.080   3.903 -0.0362 -0.1407 -0.2437
 6078TIP3    H118240   1.142   5.114   3.869  0.2659 -0.4136 -1.2931
 6078TIP3    H218241   1.200   5.003   3.955 -0.6543  1.2053  1.5645
 6079TIP3   OH218242   1.322   1.499   1.623  0.2521  0.2268  0.0430
 6079TIP3    H118243   1.268   1.562   1.575 -1.0557 -0.9500 -0.0971
 6079TIP3    H218244   1.275   1.415   1.614  2.3638 -0.9585 -0.4994
 6080TIP3   OH218245   5.415   3.609   4.423  0.3477  0.2503  0.4509
 6080TIP3    H118246   5.406   3.683   4.362  1.0633  0.0135  0.0455
 6080TIP3    H218247   5.366   3.636   4.500 -2.1658 -0.1880 -0.8760
 6081TIP3   OH218248   5.166   5.713   0.526  0.0972 -0.2825 -0.1303
 6081TIP3    H118249   5.241   5.663   0.558  0.6386  1.2288  1.0416
 6081TIP3    H218250   5.196   5.753   0.444 -0.0849 -1.1882 -0.6596
 6082TIP3   OH218251   3.259   2.666   3.519  0.3434  0.1007  0.1973
 6082TIP3    H118252   3.257   2.635   3.428  1.7109 -1.5652  0.6732
 6082TIP3    H218253   3.210   2.601   3.568 -0.1221  0.8264  0.7023
 6083TIP3   OH218254   3.602   3.103   3.761  1.1167 -0.5720  0.0590
 6083TIP3    H118255   3.643   3.097   3.674 -0.0861  1.6777 -0.7427
 6083TIP3    H218256   3.542   3.029   3.764  0.5145 -0.2072 -1.4676
 6084TIP3   OH218257   2.770   5.864   3.139 -0.0863  0.4448  0.2161
 6084TIP3    H118258   2.677   5.869   3.115 -0.3275 -0.1093  1.0028
 6084TIP3    H218259   2.770   5.829   3.228  0.9776 -2.7672 -0.9188
 6085TIP3   OH218260   1.518   0.894   1.015 -0.1121  0.4247 -0.0744
 6085TIP3    H118261   1.564   0.893   1.098 -1.0865  1.1347  0.4900
 6085TIP3    H218262   1.509   0.987   0.993 -0.7002  0.2772 -0.4911
 6086TIP3   OH218263   1.419   0.881   2.177  0.2653  0.2653  0.2696
 6086TIP3    H118264   1.388   0.940   2.245 -0.7369  2.3784 -1.8896
 6086TIP3    H218265   1.414   0.932   2.096  2.2349 -1.8225 -1.3168
 6087TIP3   OH218266   4.200   5.782   2.352 -0.3442 -0.2029  0.1953
 6087TIP3    H118267   4.105   5.770   2.359 -0.5936  1.3111 -0.2996
 6087TIP3    H218268   4.237   5.709   2.402 -1.7815 -0.1016  1.4803
 6088TIP3   OH218269   3.805   1.685   2.159  0.1107 -0.2770 -0.1928
 6088TIP3    H118270   3.711   1.704   2.158  0.5370  2.2112  0.9693
 6088TIP3    H218271   3.835   1.709   2.071 -0.0353  0.6973  0.0184
 6089TIP3   OH218272   4.637   5.909   1.133  1.0246 -0.5517  0.2669
 6089TIP3    H118273   4.617   5.815   1.136  2.4463 -0.8527  1.3972
 6089TIP3    H218274   4.572   5.945   1.073  0.7933 -2.3553 -0.6497
 6090TIP3   OH218275   1.331   2.064   3.158 -0.4731 -0.0623 -0.9632
 6090TIP3    H118276   1.413   2.093   3.198 -0.3875 -1.1122 -0.3212
 6090TIP3    H218277   1.356   1.988   3.105 -0.7128  0.8692 -2.4693
 6091TIP3   OH218278   3.263   3.204   1.065  0.0861 -0.6084  1.5196
 6091TIP3    H118279   3.297   3.271   1.124 -0.0750  0.6083  0.2912
 6091TIP3    H218280   3.216   3.143   1.121  1.9411 -0.8206  2.9249
 6092TIP3   OH218281   3.226   1.269   3.409 -0.6203  0.0827  0.0602
 6092TIP3    H118282   3.227   1.332   3.337 -0.2658  0.1071  0.0847
 6092TIP3    H218283   3.315   1.236   3.414 -0.6973 -0.0931  0.3381
 6093TIP3   OH218284   6.289   3.522   3.424 -0.7007 -0.1407 -0.6470
 6093TIP3    H118285   6.310   3.587   3.491  0.1791  1.5384 -2.4589
 6093TIP3    H218286   6.273   3.441   3.473 -2.2354  1.4863  1.7224
 6094TIP3   OH218287   3.989   3.971   3.909  0.3036  0.3060 -0.6039
 6094TIP3    H118288   4.082   3.985   3.889  0.5348  0.0801  0.2852
 6094TIP3    H218289   3.979   3.876   3.914 -0.0976  0.3116 -1.2346
 6095TIP3   OH218290   2.445   5.995   3.267  0.6743  0.3470 -0.0690
 6095TIP3    H118291   2.478   5.935   3.335 -0.4576  1.1723  1.2546
 6095TIP3    H218292   2.379   5.944   3.221 -0.9624  0.7842  1.6544
 6096TIP3   OH218293   2.918   4.679   2.394  0.0775  0.1748 -0.1414
 6096TIP3    H118294   2.878   4.757   2.355 -0.8856 -0.7125 -1.0256
 6096TIP3    H218295   2.953   4.708   2.478 -2.2860  1.0868  0.6006
 6097TIP3   OH218296   6.328   0.772   3.879 -0.5355  1.0560 -0.0705
 6097TIP3    H118297   6.251   0.769   3.822 -0.6663  1.9813  0.0361
 6097TIP3    H218298   6.394   0.721   3.832 -0.5871  1.9493 -1.1615
 6098TIP3   OH218299   5.326   4.471   2.058  0.0606  0.1498  0.8385
 6098TIP3    H118300   5.410   4.436   2.087 -0.5038 -2.2369 -0.2128
 6098TIP3    H218301   5.335   4.478   1.963 -0.2220  2.0228  0.8990
 6099TIP3   OH218302   5.302   2.363   0.263 -0.6219 -0.1020  0.0371
 6099TIP3    H118303   5.376   2.416   0.293 -0.1603 -1.4034  1.3374
 6099TIP3    H218304   5.334   2.320   0.184  0.7911 -2.1271  1.5948
 6100TIP3   OH218305   1.788   0.698   0.587  0.0121 -0.2677 -0.1551
 6100TIP3    H118306   1.763   0.728   0.674  1.3438  0.8882 -0.1289
 6100TIP3    H218307   1.705   0.685   0.541 -0.6864  1.4527  0.5267
 6101TIP3   OH218308   5.376   3.663   5.159  0.2148  0.1063  0.2221
 6101TIP3    H118309   5.374   3.678   5.253  1.1028 -0.0815  0.2832
 6101TIP3    H218310   5.338   3.742   5.121 -1.1441 -0.2575  0.7672
 6102TIP3   OH218311   5.317   2.443   4.796  0.4934  0.2604  0.6928
 6102TIP3    H118312   5.249   2.465   4.732 -0.4945 -0.9965  1.2474
 6102TIP3    H218313   5.399   2.446   4.747 -0.0244  1.2877 -0.1303
 6103TIP3   OH218314   4.194   1.656   2.979 -0.1941 -0.2388 -0.7043
 6103TIP3    H118315   4.155   1.730   3.024 -1.1900 -1.8696  1.2522
 6103TIP3    H218316   4.199   1.684   2.887 -2.8925  1.3052 -0.4852
 6104TIP3   OH218317   1.620   2.677   1.787 -0.2297 -0.0580  0.2004
 6104TIP3    H118318   1.686   2.669   1.718  0.8768 -0.2783  1.2697
 6104TIP3    H218319   1.537   2.686   1.739  0.7299  2.0924 -1.2129
 6105TIP3   OH218320   0.536   0.295   4.199  0.0853 -0.1601 -0.2735
 6105TIP3    H118321   0.574   0.355   4.135 -0.1395 -0.1041 -0.3570
 6105TIP3    H218322   0.607   0.235   4.222  0.6544  0.8368  0.6817
 6106TIP3   OH218323   5.971   2.558   3.690  0.2354 -0.6260  0.8771
 6106TIP3    H118324   5.928   2.642   3.707  1.7792  0.0580  1.5977
 6106TIP3    H218325   5.904   2.492   3.708 -1.1418  0.4404 -0.1444
 6107TIP3   OH218326   2.374   2.479   5.086 -0.0523  0.2750  0.5390
 6107TIP3    H118327   2.366   2.572   5.068 -0.9905  0.1028 -0.0479
 6107TIP3    H218328   2.437   2.447   5.022 -1.8169  0.0404 -1.1798
 6108TIP3   OH218329   5.861   2.029   2.534  0.2927 -0.1020  0.4991
 6108TIP3    H118330   5.871   2.073   2.618 -1.5778 -1.3027  1.4019
 6108TIP3    H218331   5.928   1.960   2.534  0.1615 -0.2285  1.0849
 6109TIP3   OH218332   5.404   4.535   0.917 -0.3080 -0.0813  0.1182
 6109TIP3    H118333   5.348   4.458   0.922 -1.1129  0.3902 -1.2541
 6109TIP3    H218334   5.475   4.509   0.858 -0.6944  0.2821 -0.5166
 6110TIP3   OH218335   3.442   3.921   1.958 -0.5791  0.4755  0.1979
 6110TIP3    H118336   3.424   3.997   2.014 -2.1619  0.4906 -0.2975
 6110TIP3    H218337   3.365   3.866   1.966  0.4379 -0.9897  0.3278
 6111TIP3   OH218338   0.367   5.043   0.068  0.1665  0.0817  0.3726
 6111TIP3    H118339   0.288   5.001   0.102  0.4328 -1.1850 -0.5082
 6111TIP3    H218340   0.403   4.980   0.006  2.6003  0.0390  1.7077
 6112TIP3   OH218341   6.034   5.442   0.403 -0.2337 -0.1156 -0.0529
 6112TIP3    H118342   5.978   5.369   0.376  0.5998  0.0617 -2.5379
 6112TIP3    H218343   5.987   5.484   0.474 -2.2354 -1.2260 -0.6497
 6113TIP3   OH218344   4.128   2.899   1.952 -0.3391 -0.3961  0.2594
 6113TIP3    H118345   4.035   2.888   1.970 -0.1224 -1.7628  0.7150
 6113TIP3    H218346   4.165   2.930   2.035 -0.7895  3.3635 -0.7501
 6114TIP3   OH218347   3.480   3.255   0.553  0.0512 -0.1890  0.3641
 6114TIP3    H118348   3.391   3.279   0.580 -0.2793  0.0794 -0.8735
 6114TIP3    H218349   3.466   3.185   0.488  0.5632  1.4498 -1.6294
 6115TIP3   OH218350   3.042   1.578   2.704  0.3315 -0.2137 -0.4310
 6115TIP3    H118351   2.998   1.557   2.622  1.2304 -1.7726 -0.5456
 6115TIP3    H218352   3.104   1.506   2.718  1.3069  0.8096  0.8176
 6116TIP3   OH218353   5.588   0.513   3.604  0.3855 -0.3399 -0.2972
 6116TIP3    H118354   5.680   0.514   3.631  0.9400  0.8867 -2.0013
 6116TIP3    H218355   5.590   0.545   3.514 -1.8489  1.0810  0.0840
 6117TIP3   OH218356   5.291   5.547   3.333 -0.7004 -0.1141  0.5043
 6117TIP3    H118357   5.359   5.564   3.399 -0.7589 -1.0494  0.8303
 6117TIP3    H218358   5.336   5.495   3.266 -1.1136 -0.8325  0.7756
 6118TIP3   OH218359   1.396   2.136   0.426 -0.6667 -0.6485 -0.0149
 6118TIP3    H118360   1.406   2.202   0.494 -0.8758 -1.3028  0.6580
 6118TIP3    H218361   1.399   2.186   0.344  0.8349 -0.0028  0.4042
 6119TIP3   OH218362   1.615   2.478   0.521  0.9454 -0.1756 -0.0133
 6119TIP3    H118363   1.546   2.544   0.521  0.9848 -0.1338  0.5526
 6119TIP3    H218364   1.688   2.520   0.474  0.9884  0.2009  0.3907
 6120TIP3   OH218365   1.091   5.912   1.067  0.0013  0.0851 -0.2884
 6120TIP3    H118366   1.113   5.916   1.160 -0.7014  0.3766 -0.1227
 6120TIP3    H218367   1.175   5.909   1.022  0.4136 -3.2318  0.4585
 6121TIP3   OH218368   0.709   5.976   3.060 -0.5386 -0.4478 -0.3980
 6121TIP3    H118369   0.657   5.925   2.997  0.7231 -0.8431 -1.1555
 6121TIP3    H218370   0.720   5.918   3.135  0.1692 -1.0007 -0.9116
 6122TIP3   OH218371   1.167   5.977   4.775  0.6180  0.1857  0.0319
 6122TIP3    H118372   1.242   5.936   4.817 -1.2281 -1.3428  2.0091
 6122TIP3    H218373   1.136   5.912   4.712  0.6636  0.6405 -0.4746
 6123TIP3   OH218374   2.503   1.432   4.258 -0.5447  0.6722 -0.2975
 6123TIP3    H118375   2.424   1.485   4.249  0.5083  2.4134  0.3877
 6123TIP3    H218376   2.523   1.433   4.351 -0.0330 -0.2419 -0.3860
 6124TIP3   OH218377   2.302   0.979   4.392  0.1709 -0.1977 -0.1464
 6124TIP3    H118378   2.355   0.899   4.393  0.3543 -0.0983 -1.1593
 6124TIP3    H218379   2.261   0.979   4.306  0.0733  0.7454 -0.1032
 6125TIP3   OH218380   4.535   2.863   5.070 -0.3702  0.3325 -0.5506
 6125TIP3    H118381   4.630   2.857   5.055 -0.1696  0.9960  0.3920
 6125TIP3    H218382   4.525   2.936   5.130 -1.3868 -0.5242  0.3548
 6126TIP3   OH218383   4.724   2.956   2.776  0.1570  0.1483  0.2689
 6126TIP3    H118384   4.637   2.992   2.757  1.3262  2.3662 -1.2961
 6126TIP3    H218385   4.715   2.914   2.862 -2.3239  0.6814  0.3394
 6127TIP3   OH218386   3.394   3.557   1.519  0.3903 -0.3712  0.2007
 6127TIP3    H118387   3.361   3.646   1.514  1.0338 -0.1866 -1.7720
 6127TIP3    H218388   3.379   3.530   1.609  1.0652  2.0610  1.0948
 6128TIP3   OH218389   0.803   2.809   1.347  0.5375  0.1568  0.3039
 6128TIP3    H118390   0.871   2.823   1.281 -0.1722 -0.5092 -0.5872
 6128TIP3    H218391   0.783   2.716   1.343  0.8952 -0.0254  1.9023
 6129TIP3   OH218392   6.116   3.000   5.107  0.2653  0.3663 -0.6621
 6129TIP3    H118393   6.115   3.074   5.167 -0.4155  0.2508 -0.5220
 6129TIP3    H218394   6.141   3.038   5.022  0.6113  0.6294 -0.4455
 6130TIP3   OH218395   0.385   3.099   3.524  0.0653 -0.6808  0.1076
 6130TIP3    H118396   0.385   3.037   3.451  1.0250  1.0075 -1.4152
 6130TIP3    H218397   0.431   3.053   3.595  0.9274 -1.6467 -1.0363
 6131TIP3   OH218398   0.797   0.664   0.085 -0.0307  0.0135 -0.2205
 6131TIP3    H118399   0.802   0.744   0.032 -1.1546  0.4655  0.3167
 6131TIP3    H218400   0.834   0.688   0.170 -0.0303 -0.1425 -0.1759
 6132TIP3   OH218401   4.258   2.006   2.885 -0.2418  0.4722 -0.4444
 6132TIP3    H118402   4.221   2.022   2.972  1.2457 -0.4790  0.4141
 6132TIP3    H218403   4.348   1.978   2.902  0.6014  1.7464 -2.3651
 6133TIP3   OH218404   0.745   4.113   1.295  0.1598  0.3185  0.6253
 6133TIP3    H118405   0.772   4.056   1.223 -0.2426 -0.4740  1.0862
 6133TIP3    H218406   0.650   4.118   1.287  0.2944  2.6840 -0.6878
 6134TIP3   OH218407   5.563   1.041   4.906 -1.1543  0.2253 -0.1720
 6134TIP3    H118408   5.587   1.129   4.879  1.0033  0.1454  1.2614
 6134TIP3    H218409   5.529   0.999   4.827  0.1844  1.5330 -1.4790
 6135TIP3   OH218410   5.886   1.291   0.256 -0.0216 -0.2673  0.0644
 6135TIP3    H118411   5.909   1.252   0.341  0.1599  0.0255  0.1504
 6135TIP3    H218412   5.934   1.238   0.192  0.5628  0.0640  0.2113
 6136TIP3   OH218413   0.273   3.482   1.698 -0.7723  0.5058 -0.7780
 6136TIP3    H118414   0.237   3.570   1.710  1.6331  1.4507  0.0579
 6136TIP3    H218415   0.366   3.497   1.679 -0.2848 -1.8624 -0.4873
 6137TIP3   OH218416   6.214   4.631   4.343 -0.1926 -0.1356 -0.8935
 6137TIP3    H118417   6.170   4.569   4.401  1.0515 -0.1926  0.0244
 6137TIP3    H218418   6.248   4.700   4.402 -0.0088  0.4726 -1.6909
 6138TIP3   OH218419   1.525   1.743   1.699  0.7556  0.1091 -0.4490
 6138TIP3    H118420   1.490   1.654   1.702  0.7647  0.0396 -1.8856
 6138TIP3    H218421   1.500   1.782   1.783 -1.3401 -0.4697 -0.7734
 6139TIP3   OH218422   2.940   3.232   0.546 -0.0409 -0.3534  0.4063
 6139TIP3    H118423   3.012   3.182   0.507  0.0410 -1.5534  1.9739
 6139TIP3    H218424   2.862   3.180   0.530 -0.6290  0.9545 -1.3012
 6140TIP3   OH218425   3.854   2.419   4.540 -0.1284  0.0735 -0.0849
 6140TIP3    H118426   3.943   2.418   4.507  0.0055  1.8440  0.1394
 6140TIP3    H218427   3.863   2.438   4.633 -0.7765  2.2001 -0.4059
 6141TIP3   OH218428   5.769   1.861   4.320  0.5981 -0.6384  0.2360
 6141TIP3    H118429   5.741   1.952   4.327 -1.8958 -1.3223  0.0385
 6141TIP3    H218430   5.838   1.852   4.386 -0.1054  1.0273  1.2544
 6142TIP3   OH218431   1.228   5.709   4.500 -0.3090  0.0534  0.3344
 6142TIP3    H118432   1.184   5.693   4.416  0.2193 -0.7966  0.2039
 6142TIP3    H218433   1.157   5.723   4.562 -0.7397 -0.2035 -0.0909
 6143TIP3   OH218434   4.622   1.540   2.532  0.0314  0.2854  0.1814
 6143TIP3    H118435   4.602   1.471   2.469  1.6314  1.1633 -1.3691
 6143TIP3    H218436   4.537   1.563   2.570 -0.7480 -1.3683 -0.4503
 6144TIP3   OH218437   0.603   1.681   3.268 -0.1626  0.1968  0.1409
 6144TIP3    H118438   0.665   1.754   3.260  0.2217 -0.3553 -3.4957
 6144TIP3    H218439   0.590   1.651   3.178 -1.8737 -2.9610  1.3124
 6145TIP3   OH218440   5.311   3.116   2.653 -0.6923 -0.4262 -0.7475
 6145TIP3    H118441   5.357   3.198   2.669 -0.2420 -0.7142 -0.5337
 6145TIP3    H218442   5.273   3.126   2.566  0.8917 -0.6709 -1.5186
 6146TIP3   OH218443   5.324   0.582   2.746 -0.6321 -0.5061  0.9442
 6146TIP3    H118444   5.284   0.562   2.830 -0.5242 -0.3823  1.0255
 6146TIP3    H218445   5.371   0.502   2.722 -0.4968 -0.4735  1.0969
 6147TIP3   OH218446   6.031   4.128   0.550  0.1753 -0.1660 -0.6623
 6147TIP3    H118447   6.105   4.072   0.529  0.3231 -0.2276 -0.0176
 6147TIP3    H218448   5.954   4.072   0.538  0.2276 -0.1066 -1.3139
 6148TIP3   OH218449   5.610   0.788   3.089  0.0695 -0.0987 -0.0726
 6148TIP3    H118450   5.587   0.867   3.137  0.5047 -0.2483  0.3841
 6148TIP3    H218451   5.529   0.738   3.084 -0.5629  1.0100 -1.5921
 6149TIP3   OH218452   3.209   5.189   2.354 -0.2655  0.5649  0.4887
 6149TIP3    H118453   3.198   5.095   2.364  0.8461  0.3324 -0.3655
 6149TIP3    H218454   3.125   5.220   2.319 -0.4843 -0.1556  0.3712
 6150TIP3   OH218455   1.253   0.670   4.410  0.5559  0.5331 -0.9012
 6150TIP3    H118456   1.264   0.764   4.426  1.1996  0.7935 -2.6804
 6150TIP3    H218457   1.165   0.650   4.442 -0.3449  2.1622 -2.2448
 6151TIP3   OH218458   5.489   2.812   4.913 -0.4324  0.2729 -0.0874
 6151TIP3    H118459   5.465   2.869   4.986 -1.4124  1.1538 -1.0527
 6151TIP3    H218460   5.507   2.872   4.841  0.5716 -0.5789 -0.5642
 6152TIP3   OH218461   3.975   4.496   2.581 -0.1514 -0.2641 -0.0681
 6152TIP3    H118462   3.992   4.465   2.492 -0.1420 -1.3128  0.2918
 6152TIP3    H218463   4.057   4.482   2.628  0.0065  0.7599 -0.0129
 6153TIP3   OH218464   5.417   0.605   4.011  0.2597 -0.1745  0.3043
 6153TIP3    H118465   5.436   0.516   3.981 -0.4598 -0.2247 -0.0333
 6153TIP3    H218466   5.324   0.617   3.991  0.6910  1.1873 -1.0492
 6154TIP3   OH218467   1.105   4.145   0.487 -0.5415  0.1535 -0.2486
 6154TIP3    H118468   1.176   4.205   0.509 -0.2058  0.1192 -1.2094
 6154TIP3    H218469   1.133   4.060   0.520  0.4618 -0.1277 -1.7397
 6155TIP3   OH218470   2.633   3.923   1.525  0.3428 -0.1297  0.1056
 6155TIP3    H118471   2.564   3.930   1.459 -0.0827 -1.0832  0.4260
 6155TIP3    H218472   2.708   3.888   1.477 -0.1817 -1.4985  0.2460
 6156TIP3   OH218473   3.797   2.872   5.028  0.2675  0.1864  0.0013
 6156TIP3    H118474   3.751   2.849   4.947 -1.6097  0.0430  1.0513
 6156TIP3    H218475   3.735   2.925   5.077  1.2573  0.0637  1.4677
 6157TIP3   OH218476   6.283   4.060   0.028 -0.0371 -0.4174  0.1472
 6157TIP3    H118477   6.323   4.140  -0.005  1.1726 -0.1144  2.1791
 6157TIP3    H218478   6.200   4.088   0.067  0.2622 -0.1647  0.6173
 6158TIP3   OH218479   1.560   5.685   2.750  0.6760  0.0082 -0.6318
 6158TIP3    H118480   1.492   5.627   2.785  1.0020 -0.1704 -0.2782
 6158TIP3    H218481   1.517   5.769   2.738  0.4928  0.0142 -0.0065
 6159TIP3   OH218482   2.926   4.216   4.596 -0.1836 -0.2584  0.0401
 6159TIP3    H118483   2.984   4.211   4.672 -0.4750  0.2687  0.3034
 6159TIP3    H218484   2.844   4.177   4.626 -0.2267 -0.2609 -0.0811
 6160TIP3   OH218485   3.271   0.841   4.857  0.5076 -0.3440  0.1485
 6160TIP3    H118486   3.199   0.778   4.848  0.7267 -0.4523 -1.0187
 6160TIP3    H218487   3.310   0.820   4.941  0.4210 -1.6231 -0.1093
 6161TIP3   OH218488   0.546   4.061   3.394 -0.6277  0.3161 -0.1024
 6161TIP3    H118489   0.629   4.032   3.433 -0.4729  0.5451 -0.2552
 6161TIP3    H218490   0.558   4.047   3.300 -0.6138  0.7143 -0.1609
 6162TIP3   OH218491   5.015   1.951   1.698 -0.4513  0.2751  0.1457
 6162TIP3    H118492   5.008   1.875   1.639 -1.6304  0.7677 -0.3741
 6162TIP3    H218493   4.944   2.009   1.671  0.2089  1.4129  0.7820
 6163TIP3   OH218494   4.874   3.356   4.595  0.1380 -0.1659 -0.7360
 6163TIP3    H118495   4.941   3.327   4.533  1.9347  0.6890  0.7192
 6163TIP3    H218496   4.891   3.307   4.675  0.6957  1.8580  0.4690
 6164TIP3   OH218497   0.808   4.489   3.375 -0.1460 -0.2259 -0.2094
 6164TIP3    H118498   0.865   4.436   3.318 -1.5964 -1.0271 -0.9810
 6164TIP3    H218499   0.732   4.509   3.320 -1.0943 -0.0811  1.1052
 6165TIP3   OH218500   5.237   3.856   1.426  0.5159 -0.0262 -0.1146
 6165TIP3    H118501   5.206   3.892   1.343  1.0934 -0.0738 -0.3531
 6165TIP3    H218502   5.177   3.893   1.492  0.9797  1.2445 -0.3664
 6166TIP3   OH218503   0.919   3.993   1.869 -0.4888  0.0982 -0.5260
 6166TIP3    H118504   0.839   3.940   1.862  0.1640 -0.7245 -2.7158
 6166TIP3    H218505   0.983   3.935   1.911 -0.3699 -0.1146 -0.9954
 6167TIP3   OH218506   2.819   4.173   2.891 -0.0276  0.8394 -0.2199
 6167TIP3    H118507   2.732   4.168   2.930 -0.3048 -3.0494 -0.9127
 6167TIP3    H218508   2.808   4.135   2.804  2.0566  2.1155 -1.1343
 6168TIP3   OH218509   3.375   2.758   3.937 -0.3343 -0.2806 -0.3985
 6168TIP3    H118510   3.284   2.788   3.934 -1.1384 -2.4750  0.1345
 6168TIP3    H218511   3.408   2.771   3.848 -1.0709  0.8026 -0.5242
 6169TIP3   OH218512   3.676   4.277   2.185  0.5272 -0.2990  0.3108
 6169TIP3    H118513   3.681   4.368   2.156 -1.2008  0.1730  1.3366
 6169TIP3    H218514   3.696   4.281   2.279  1.9891 -1.2193  0.0601
 6170TIP3   OH218515   4.599   3.994   4.994  0.2577  0.0951 -0.0213
 6170TIP3    H118516   4.682   4.024   5.031 -0.2495  0.3281  0.9585
 6170TIP3    H218517   4.535   4.061   5.020 -0.2156 -0.0021 -0.8963
 6171TIP3   OH218518   0.142   2.655   4.186  0.1190 -0.2346 -0.4311
 6171TIP3    H118519   0.187   2.732   4.222  1.0543 -1.1556  0.3961
 6171TIP3    H218520   0.049   2.678   4.189  0.3340  0.5628  0.5268
 6172TIP3   OH218521   6.077   3.434   4.529  0.2220 -0.2708  0.4792
 6172TIP3    H118522   6.012   3.420   4.598  0.8265 -1.7269  0.7904
 6172TIP3    H218523   6.075   3.353   4.477  1.8961 -0.4362  0.6192
 6173TIP3   OH218524   1.492   3.091   4.699 -0.2186  0.2793 -0.1524
 6173TIP3    H118525   1.462   3.177   4.727 -3.1741 -1.0161  1.1809
 6173TIP3    H218526   1.413   3.047   4.668  1.4918 -1.3858 -2.5638
 6174TIP3   OH218527   5.155   2.090   4.306  1.0598  0.1602  0.3980
 6174TIP3    H118528   5.063   2.116   4.304  0.5748 -1.4705 -1.1784
 6174TIP3    H218529   5.177   2.084   4.399 -0.2202  1.1481  0.7975
 6175TIP3   OH218530   2.965   4.687   1.397 -0.1605 -0.0582 -0.0181
 6175TIP3    H118531   3.022   4.610   1.404 -0.4752 -0.2389  0.6973
 6175TIP3    H218532   3.017   4.751   1.349  1.3712  0.4183  2.1206
 6176TIP3   OH218533   5.326   0.707   4.796 -0.2943 -0.2874 -0.1893
 6176TIP3    H118534   5.409   0.745   4.769  0.3962 -0.7477  1.1615
 6176TIP3    H218535   5.342   0.613   4.798 -1.3394 -0.5165 -1.4392
 6177TIP3   OH218536   1.986   1.202   3.439 -0.1508  0.9613  0.0442
 6177TIP3    H118537   2.000   1.132   3.503  0.4114  1.1325  0.1102
 6177TIP3    H218538   2.016   1.165   3.356  1.0933  1.4691  0.2582
 6178TIP3   OH218539   0.913   2.799   3.862  0.2788  0.8210  0.2007
 6178TIP3    H118540   0.854   2.763   3.796 -0.5906  0.0935  1.3223
 6178TIP3    H218541   0.855   2.850   3.920  0.8820  0.8220  0.8211
 6179TIP3   OH218542   3.334   1.364   0.391  0.1225  0.6637 -0.1672
 6179TIP3    H118543   3.384   1.326   0.319 -0.2693  0.4872 -0.3435
 6179TIP3    H218544   3.383   1.339   0.469 -0.4213 -0.6828 -0.2288
 6180TIP3   OH218545   1.425   0.640  -0.007  0.0070 -0.0700 -0.2773
 6180TIP3    H118546   1.496   0.700   0.017  0.5733  0.5642 -3.1696
 6180TIP3    H218547   1.355   0.659   0.055  1.8108  0.2995  1.7715
 6181TIP3   OH218548   4.964   2.769   3.827 -0.3937  0.3883  0.2728
 6181TIP3    H118549   4.934   2.727   3.907 -0.6002  0.5148  0.2618
 6181TIP3    H218550   4.939   2.861   3.838 -0.5256  0.3837  0.0121
 6182TIP3   OH218551   0.165   2.318   1.286 -0.0585  0.6386 -0.4404
 6182TIP3    H118552   0.214   2.369   1.351 -0.7635 -1.8844  2.3026
 6182TIP3    H218553   0.080   2.361   1.282  0.6667  2.0590 -1.3741
 6183TIP3   OH218554   1.557   3.590   3.104 -0.6567 -0.2314 -0.0358
 6183TIP3    H118555   1.649   3.589   3.131  0.3802 -1.7803 -3.1872
 6183TIP3    H218556   1.559   3.609   3.010 -3.3914 -2.0542 -0.5983
 6184TIP3   OH218557   1.651   0.650   0.224 -0.3743  0.1087 -0.2662
 6184TIP3    H118558   1.621   0.740   0.214 -0.7363  0.0053 -0.1253
 6184TIP3    H218559   1.597   0.614   0.294 -1.1070 -0.5924 -1.1704
 6185TIP3   OH218560   0.379   2.608   2.446 -0.8603 -0.4112  0.7364
 6185TIP3    H118561   0.425   2.658   2.379 -0.7226 -0.6990  0.6108
 6185TIP3    H218562   0.307   2.566   2.400 -2.6920  1.8832  1.3696
 6186TIP3   OH218563   4.533   3.680   3.170 -0.5955 -0.4634  0.3631
 6186TIP3    H118564   4.618   3.725   3.175 -0.8157 -0.1307  1.7668
 6186TIP3    H218565   4.551   3.600   3.121 -0.1260  0.9625 -1.9688
 6187TIP3   OH218566   5.687   2.988   3.282  0.2345 -0.0653 -0.0061
 6187TIP3    H118567   5.714   3.080   3.286  0.0322  0.0913 -1.5340
 6187TIP3    H218568   5.748   2.949   3.219 -1.5846 -0.2288 -1.7704
 6188TIP3   OH218569   6.085   1.164   1.575  0.7615 -0.2043 -0.4070
 6188TIP3    H118570   6.107   1.200   1.661 -0.5761  0.0083 -0.1319
 6188TIP3    H218571   6.164   1.178   1.523  1.4266  0.1054  0.6441
 6189TIP3   OH218572   1.348   5.650   1.747  0.2063  0.0757 -0.3398
 6189TIP3    H118573   1.263   5.606   1.757 -0.0486  0.2850 -1.5139
 6189TIP3    H218574   1.368   5.644   1.654  2.3442 -1.5384  0.1265
 6190TIP3   OH218575   6.013   1.870   1.863 -0.1939  0.2929 -0.4189
 6190TIP3    H118576   6.084   1.931   1.840  0.1056  0.4220  0.8018
 6190TIP3    H218577   5.960   1.919   1.926  0.3389 -0.8742  0.9847
 6191TIP3   OH218578   0.587   3.316   3.542  0.0465  0.3657 -0.0269
 6191TIP3    H118579   0.647   3.251   3.503  0.8271  0.0300  1.6208
 6191TIP3    H218580   0.503   3.271   3.546  0.4138 -0.3067  0.4376
 6192TIP3   OH218581   2.749   4.995   2.856  0.0199  0.2291 -0.5840
 6192TIP3    H118582   2.831   4.991   2.806  2.3649 -2.4659  3.0276
 6192TIP3    H218583   2.711   4.908   2.846 -1.3718  0.8044 -0.5020
 6193TIP3   OH218584   5.275   0.105   2.036  0.4767 -0.2165 -0.3569
 6193TIP3    H118585   5.297   0.157   1.959 -0.9606  0.9220 -0.0505
 6193TIP3    H218586   5.284   0.166   2.109 -2.7930  0.2171 -0.1322
 6194TIP3   OH218587   3.997   2.738   1.019 -0.2782  0.1393 -0.0915
 6194TIP3    H118588   3.932   2.684   1.063 -0.4149  0.4166  0.0506
 6194TIP3    H218589   4.042   2.784   1.090 -1.6717  1.9257 -0.3062
 6195TIP3   OH218590   1.856   3.003   3.203  0.5827  0.6941 -0.2920
 6195TIP3    H118591   1.840   3.084   3.252 -0.6267  1.1806 -1.4519
 6195TIP3    H218592   1.775   2.953   3.211 -0.1142  1.2944 -2.7011
 6196TIP3   OH218593   0.686   5.338   1.724  0.1532 -0.3559  0.1152
 6196TIP3    H118594   0.733   5.398   1.667 -1.2640  0.4097 -0.2916
 6196TIP3    H218595   0.703   5.251   1.688 -0.4056  0.0866 -1.2506
 6197TIP3   OH218596   2.058   5.369   1.521  0.7555  0.0346  0.8998
 6197TIP3    H118597   2.001   5.436   1.482 -0.1758  0.4426  2.8251
 6197TIP3    H218598   2.120   5.419   1.575  1.4940 -0.5366  0.5898
 6198TIP3   OH218599   1.561   4.682   0.533 -0.3043  0.7132 -0.7556
 6198TIP3    H118600   1.497   4.633   0.584 -0.7281  2.4637  0.4685
 6198TIP3    H218601   1.630   4.705   0.595  0.6553  0.3729 -1.6627
 6199TIP3   OH218602   1.327   1.018   2.388  0.0264  0.3532  0.0050
 6199TIP3    H118603   1.240   1.002   2.424 -0.2771  1.2817 -0.3060
 6199TIP3    H218604   1.380   1.042   2.464 -0.0121 -0.0749  0.1727
 6200TIP3   OH218605   3.003   2.748   3.495 -0.5225 -0.4054 -0.0614
 6200TIP3    H118606   2.925   2.704   3.527  0.7592 -1.7827  1.3065
 6200TIP3    H218607   3.048   2.683   3.442 -0.7844  0.7050 -1.7168
 6201TIP3   OH218608   5.236   0.191   3.168 -0.2325 -0.0064  0.4329
 6201TIP3    H118609   5.159   0.146   3.134  0.5606 -1.2901  0.2359
 6201TIP3    H218610   5.303   0.122   3.174  1.4657  1.3902 -1.1562
 6202TIP3   OH218611   2.360   0.900   2.209  0.0938  0.5761 -0.2428
 6202TIP3    H118612   2.336   0.973   2.152 -0.0088  0.9224  0.2379
 6202TIP3    H218613   2.285   0.889   2.267 -0.2900 -0.5351 -0.9183
 6203TIP3   OH218614   1.224   5.944   1.310  0.1698 -0.0349  0.3312
 6203TIP3    H118615   1.208   6.034   1.339  1.1633  0.0097  0.8024
 6203TIP3    H218616   1.166   5.890   1.364 -2.2514  0.4703 -1.6292
 6204TIP3   OH218617   4.817   1.643   0.196  0.2340  0.1492 -0.2638
 6204TIP3    H118618   4.747   1.653   0.131  0.9584  0.8886 -0.9657
 6204TIP3    H218619   4.774   1.660   0.280 -0.7254 -0.8327 -0.5310
 6205TIP3   OH218620   3.978   5.709   2.979  0.0500  0.0958  0.0243
 6205TIP3    H118621   3.940   5.785   2.934 -0.1767 -0.1921 -0.2818
 6205TIP3    H218622   4.046   5.745   3.036  0.9812  0.3961 -1.2320
 6206TIP3   OH218623   0.806   2.276   1.880 -0.7511  0.0288  0.2845
 6206TIP3    H118624   0.808   2.371   1.869 -2.4657  0.1646  0.8242
 6206TIP3    H218625   0.886   2.255   1.927 -1.0869  1.4229  1.5614
 6207TIP3   OH218626   1.510   2.166   1.478  0.4496  0.0943 -0.1224
 6207TIP3    H118627   1.561   2.170   1.559  1.0952  1.1092 -0.5564
 6207TIP3    H218628   1.423   2.198   1.504  0.3231 -0.6321  0.3926
 6208TIP3   OH218629   0.596   1.494   0.319 -0.1073 -0.1048  0.4683
 6208TIP3    H118630   0.526   1.506   0.384  0.4866 -0.1491  1.1273
 6208TIP3    H218631   0.551   1.463   0.241 -1.5630  4.3497 -0.7663
 6209TIP3   OH218632   2.872   1.555   4.704  0.3679  0.7503  0.0721
 6209TIP3    H118633   2.797   1.500   4.680  1.5380 -0.8867 -0.0176
 6209TIP3    H218634   2.876   1.620   4.634  0.0202 -0.1838 -0.8594
 6210TIP3   OH218635   2.412   5.426   1.995  0.3088 -0.0239 -0.2967
 6210TIP3    H118636   2.435   5.333   1.995 -1.6585 -0.5402 -0.1486
 6210TIP3    H218637   2.426   5.454   1.904 -1.4377 -1.1126 -0.9414
 6211TIP3   OH218638   0.353   5.751   4.753 -0.0922 -0.4912  0.5365
 6211TIP3    H118639   0.318   5.774   4.839  0.4549 -2.8502  1.4824
 6211TIP3    H218640   0.438   5.795   4.749 -1.0524  1.4233  0.2189
 6212TIP3   OH218641   2.016   5.530   4.737  0.4507 -0.2415 -0.7117
 6212TIP3    H118642   1.951   5.592   4.770  0.1737 -1.5457  1.3622
 6212TIP3    H218643   1.970   5.480   4.671 -0.6433 -0.9781  0.5560
 6213TIP3   OH218644   0.311   0.963   0.346 -0.1403  0.5363 -0.5748
 6213TIP3    H118645   0.343   1.041   0.391  2.5008 -0.9689  0.3640
 6213TIP3    H218646   0.265   0.914   0.415  1.4561 -0.4451 -0.1726
 6214TIP3   OH218647   4.747   3.569   4.729 -0.2498  0.3379  0.5460
 6214TIP3    H118648   4.725   3.634   4.662 -0.2410  0.7271  0.9198
 6214TIP3    H218649   4.806   3.508   4.684  2.3167  2.3202  1.0119
 6215TIP3   OH218650   5.997   0.862   1.492 -0.1724 -0.3244  0.0909
 6215TIP3    H118651   5.981   0.908   1.410  1.4491  0.7306  0.3160
 6215TIP3    H218652   6.015   0.931   1.556  4.0328 -1.1036  0.0702
 6216TIP3   OH218653   4.662   4.029   1.938 -0.4128 -0.1038 -0.5645
 6216TIP3    H118654   4.687   4.101   1.879  1.0805  0.3975  0.6174
 6216TIP3    H218655   4.632   3.960   1.879 -0.6168  0.9932 -1.8101
 6217TIP3   OH218656   0.263   5.315   4.232 -1.0693  0.0624 -0.1388
 6217TIP3    H118657   0.264   5.298   4.138 -1.5667 -1.3335  0.0766
 6217TIP3    H218658   0.247   5.409   4.240  1.1597  0.6105 -1.4578
 6218TIP3   OH218659   2.034   4.197   4.456 -0.1665  0.2922  0.2701
 6218TIP3    H118660   1.990   4.282   4.458  0.2392  0.5284  2.9624
 6218TIP3    H218661   2.092   4.198   4.532  1.3338 -1.6567 -0.7606
 6219TIP3   OH218662   5.574   4.174   1.819  0.1980 -0.0822 -0.1761
 6219TIP3    H118663   5.639   4.205   1.756 -0.1874 -1.0912 -1.1173
 6219TIP3    H218664   5.502   4.141   1.764 -0.2604 -0.7522  0.8013
 6220TIP3   OH218665   1.422   3.019   0.520 -0.2444  0.5480 -0.0398
 6220TIP3    H118666   1.453   3.107   0.538 -1.4041  0.9897 -0.1264
 6220TIP3    H218667   1.476   2.988   0.447  2.7819 -0.2981  2.3439
 6221TIP3   OH218668   5.293   3.589   2.935 -0.9821 -0.2792  0.4726
 6221TIP3    H118669   5.295   3.608   3.029  2.7388 -0.7592  0.6320
 6221TIP3    H218670   5.274   3.495   2.930  0.7939 -0.7005  0.9427
 6222TIP3   OH218671   2.442   0.327   3.730  0.3160  0.6334  0.1621
 6222TIP3    H118672   2.476   0.255   3.783 -0.7056 -0.5904 -0.7680
 6222TIP3    H218673   2.471   0.307   3.641 -0.6974  0.8941 -0.2405
 6223TIP3   OH218674   0.710   4.507   2.767  0.1897  0.0818  0.2165
 6223TIP3    H118675   0.732   4.516   2.860 -1.8595 -0.3726  0.8165
 6223TIP3    H218676   0.662   4.587   2.746 -3.6847 -1.7543  1.0332
 6224TIP3   OH218677   1.036   1.371   3.764  1.0244 -0.4523  0.5167
 6224TIP3    H118678   0.945   1.386   3.738  1.2567  0.6723  0.2892
 6224TIP3    H218679   1.034   1.288   3.812 -0.3518  0.2333  1.7153
 6225TIP3   OH218680   2.129   5.144   4.261 -0.7444 -0.4313 -0.5256
 6225TIP3    H118681   2.157   5.053   4.264  2.2035  0.3423  3.3153
 6225TIP3    H218682   2.059   5.150   4.326 -0.8030  0.0169 -0.6250
 6226TIP3   OH218683   2.721   2.179   1.620  0.0379 -0.0561  0.1194
 6226TIP3    H118684   2.767   2.210   1.542 -0.6576 -0.9563 -0.6933
 6226TIP3    H218685   2.683   2.257   1.659 -3.5502  0.1118 -3.0774
 6227TIP3   OH218686   0.586   5.426   1.285 -0.1509  0.1023 -0.0547
 6227TIP3    H118687   0.670   5.465   1.309 -0.0398 -0.7651  1.0574
 6227TIP3    H218688   0.521   5.480   1.330 -0.0518 -0.4260  0.7451
 6228TIP3   OH218689   0.995   4.550   4.063 -0.5823  0.4421 -0.1556
 6228TIP3    H118690   0.995   4.458   4.091 -0.4499 -0.6434 -3.3821
 6228TIP3    H218691   0.922   4.556   4.002  1.5238  1.5058 -2.7154
 6229TIP3   OH218692   4.998   3.791   1.189 -0.1517 -0.4243  0.0014
 6229TIP3    H118693   5.075   3.733   1.188  0.6253  0.5727 -1.2681
 6229TIP3    H218694   5.034   3.878   1.173 -1.7640 -0.2536 -3.6337
 6230TIP3   OH218695   2.629   3.318   3.367  0.2783  0.1971 -0.4209
 6230TIP3    H118696   2.692   3.326   3.295 -0.4202  0.1114 -1.0494
 6230TIP3    H218697   2.680   3.281   3.439  0.5336 -1.6823 -1.5019
 6231TIP3   OH218698   0.756   0.633   4.314 -0.4061  0.3292  0.2113
 6231TIP3    H118699   0.754   0.599   4.403 -0.5573  1.1426  0.5262
 6231TIP3    H218700   0.748   0.556   4.258  2.0364 -0.4459  0.8440
 6232TIP3   OH218701   2.407   0.131   2.799 -0.5496 -0.1230  0.6556
 6232TIP3    H118702   2.445   0.050   2.763  0.8686 -0.3638  2.5387
 6232TIP3    H218703   2.315   0.109   2.816 -0.4762 -0.9437  0.0494
 6233TIP3   OH218704   3.392   2.410   4.345 -0.4326 -1.3659  0.3281
 6233TIP3    H118705   3.303   2.422   4.375 -0.0004 -0.5398  1.3396
 6233TIP3    H218706   3.384   2.361   4.263 -1.6926 -2.9982  1.3877
 6234TIP3   OH218707   4.850   4.802   1.563  0.0370 -0.0320 -0.0170
 6234TIP3    H118708   4.924   4.770   1.511 -0.3156  1.0382 -1.2178
 6234TIP3    H218709   4.825   4.885   1.522 -1.4768 -0.0853  0.7163
 6235TIP3   OH218710   6.230   0.613   1.843 -0.1256  0.5105  0.3584
 6235TIP3    H118711   6.229   0.639   1.751 -1.7651 -1.5202 -0.2714
 6235TIP3    H218712   6.227   0.517   1.841 -3.2659  0.4038  2.4489
 6236TIP3   OH218713   0.327   2.373   2.235 -0.2798  0.5321  0.2077
 6236TIP3    H118714   0.287   2.335   2.314 -0.1192 -1.3399 -0.5544
 6236TIP3    H218715   0.420   2.350   2.242 -0.6532 -2.0397 -1.7223
 6237TIP3   OH218716   6.061   3.152   2.695  0.2412 -0.1246  0.4792
 6237TIP3    H118717   6.083   3.076   2.641  0.5743 -0.1023  0.5784
 6237TIP3    H218718   6.099   3.226   2.650 -2.4872  0.4227 -1.1407
 6238TIP3   OH218719   1.725   3.313   2.188  0.2554 -0.0988 -0.0190
 6238TIP3    H118720   1.733   3.345   2.277  0.1770 -0.8319  0.2605
 6238TIP3    H218721   1.734   3.391   2.133  0.1571  0.3746  0.6302
 6239TIP3   OH218722   5.515   4.900   4.967 -0.1629 -0.6637 -0.0950
 6239TIP3    H118723   5.508   4.809   4.996  1.7732 -1.2368 -1.1968
 6239TIP3    H218724   5.486   4.899   4.876  0.6490 -0.3875 -0.3730
 6240TIP3   OH218725   1.567   3.265   3.183  0.5190  0.0369  0.4733
 6240TIP3    H118726   1.572   3.218   3.100 -1.5028 -1.7993  1.2870
 6240TIP3    H218727   1.521   3.346   3.162  1.1696  0.2071 -0.3834
 6241TIP3   OH218728   3.861   2.130   2.455 -0.2839  0.1885 -0.1195
 6241TIP3    H118729   3.896   2.186   2.524 -1.4302  0.1028  0.5440
 6241TIP3    H218730   3.907   2.046   2.467 -1.6125 -0.3342  1.5720
 6242TIP3   OH218731   0.726   2.384   2.774  0.7159 -0.1252  0.2557
 6242TIP3    H118732   0.662   2.318   2.800 -0.2640  0.7188  0.0468
 6242TIP3    H218733   0.807   2.358   2.818  0.4526 -1.6611 -0.1205
 6243TIP3   OH218734   3.537   3.138   0.071 -0.1660 -0.2860  0.0775
 6243TIP3    H118735   3.460   3.164   0.020  0.1361  1.6530  0.5296
 6243TIP3    H218736   3.607   3.129   0.006  0.0555  1.5297  0.0024
 6244TIP3   OH218737   6.187   4.964   1.206  0.3764  0.0346 -0.0766
 6244TIP3    H118738   6.189   5.060   1.215  0.6562  0.0521 -0.3095
 6244TIP3    H218739   6.170   4.949   1.114 -3.1513 -0.1574  0.4888
 6245TIP3   OH218740   3.805   3.859   2.409 -0.5164 -0.1141  0.4388
 6245TIP3    H118741   3.806   3.765   2.428  0.5731 -0.7272 -2.1522
 6245TIP3    H218742   3.726   3.872   2.356  1.3203 -0.5003 -2.6568
 6246TIP3   OH218743   1.026   0.525   1.381  0.2493 -0.4453  0.0153
 6246TIP3    H118744   0.941   0.514   1.339  0.0795 -1.5163  0.6082
 6246TIP3    H218745   1.070   0.441   1.369  1.9395  0.6286 -1.7916
 6247TIP3   OH218746   3.747   4.735   3.788  0.2622  0.0737 -0.4789
 6247TIP3    H118747   3.772   4.674   3.858 -0.2333  0.1232 -0.2570
 6247TIP3    H218748   3.666   4.700   3.753  1.1356 -0.6271 -1.8725
 6248TIP3   OH218749   3.068   0.645   0.745  0.0400 -0.0646 -0.2120
 6248TIP3    H118750   3.082   0.571   0.805  0.6755 -0.3349 -0.6778
 6248TIP3    H218751   2.975   0.664   0.751 -0.6724 -2.5411 -1.9259
 6249TIP3   OH218752   6.003   5.601   1.998  0.3347  0.1644  0.6061
 6249TIP3    H118753   5.964   5.662   1.936 -0.7308 -1.5882 -0.5207
 6249TIP3    H218754   6.053   5.541   1.944 -1.1712 -1.8149  1.3103
 6250TIP3   OH218755   4.614   5.198   4.029 -0.0716 -0.0467  0.1512
 6250TIP3    H118756   4.567   5.259   4.086 -0.7626  0.8161 -1.2830
 6250TIP3    H218757   4.686   5.166   4.083 -0.7810  0.6065  1.5533
 6251TIP3   OH218758   1.828   1.785   3.933  0.0305 -0.0345 -0.2209
 6251TIP3    H118759   1.840   1.807   3.840  0.5626  1.5182  0.1859
 6251TIP3    H218760   1.744   1.825   3.956 -0.1348 -0.4801 -0.0406
 6252TIP3   OH218761   1.706   1.680   5.199  0.3971 -0.2510 -0.0940
 6252TIP3    H118762   1.711   1.706   5.107  1.1995 -1.9443 -0.5591
 6252TIP3    H218763   1.613   1.690   5.221  0.5207  2.2179 -0.4101
 6253TIP3   OH218764   1.933   4.736   1.040 -0.5384 -0.3954  0.4141
 6253TIP3    H118765   1.840   4.740   1.016 -0.3716 -0.5504 -0.2985
 6253TIP3    H218766   1.971   4.815   1.002 -0.1923 -0.8441 -0.1975
 6254TIP3   OH218767   4.612   2.454   0.851 -0.3968  0.5977 -0.6556
 6254TIP3    H118768   4.532   2.477   0.804 -1.0850  0.9537  0.6284
 6254TIP3    H218769   4.583   2.438   0.941  0.7542 -0.8088 -0.4923
 6255TIP3   OH218770   1.439   3.997   0.437  0.2884  0.2675  0.4499
 6255TIP3    H118771   1.478   4.071   0.482  1.4026  0.7662 -1.2418
 6255TIP3    H218772   1.498   3.924   0.454  1.3609  0.7262 -1.0597
 6256TIP3   OH218773   5.217   3.533   4.206  0.5639  0.0665  0.4697
 6256TIP3    H118774   5.137   3.547   4.156  0.8256  1.1930  0.3263
 6256TIP3    H218775   5.273   3.481   4.149  0.2782  0.0570  0.1987
 6257TIP3   OH218776   5.373   2.454   3.464 -0.8285  0.0513  1.0429
 6257TIP3    H118777   5.445   2.512   3.442 -0.0426 -1.2945 -0.1377
 6257TIP3    H218778   5.304   2.475   3.401  0.3931 -1.9132 -1.1080
 6258TIP3   OH218779   4.426   1.037   3.439  0.5424 -0.1351  0.7593
 6258TIP3    H118780   4.470   1.068   3.360 -1.9638  1.0027 -0.2980
 6258TIP3    H218781   4.357   0.979   3.407 -0.1359 -0.1379  2.1667
 6259TIP3   OH218782   1.033   4.379   3.534  0.6641 -0.5742 -0.2791
 6259TIP3    H118783   0.968   4.349   3.470  0.0880 -0.4412  0.2277
 6259TIP3    H218784   0.991   4.363   3.619  1.0199  0.1426  0.0399
 6260TIP3   OH218785   5.307   3.689   2.315  0.5787 -0.2476  0.3486
 6260TIP3    H118786   5.390   3.711   2.272 -0.0976  0.4883 -0.6181
 6260TIP3    H218787   5.270   3.620   2.259 -0.4932  0.9897 -0.5342
 6261TIP3   OH218788   4.406   2.432   4.504 -0.1478 -0.4326  0.3593
 6261TIP3    H118789   4.486   2.471   4.468 -0.2717 -0.6958 -0.2230
 6261TIP3    H218790   4.416   2.440   4.599  0.5428 -0.4135  0.2932
 6262TIP3   OH218791   1.831   5.737   0.618 -0.3781  0.4216 -0.5145
 6262TIP3    H118792   1.830   5.756   0.712  0.0373 -0.2708 -0.3622
 6262TIP3    H218793   1.747   5.693   0.601  0.0500 -0.5477 -0.2158
 6263TIP3   OH218794   4.665   3.687   2.609 -0.3478  0.1839  0.0157
 6263TIP3    H118795   4.648   3.780   2.624  1.0267  0.2360  1.6277
 6263TIP3    H218796   4.595   3.642   2.656  0.3602  0.4288  1.3746
 6264TIP3   OH218797   2.545   3.536   2.005 -0.2133  0.2457 -0.0254
 6264TIP3    H118798   2.639   3.527   2.021 -0.3360 -1.0288  0.1284
 6264TIP3    H218799   2.527   3.629   2.017  1.0662  0.5466 -0.2814
 6265TIP3   OH218800   3.059   3.403   2.293 -0.2015 -0.4164 -0.4931
 6265TIP3    H118801   3.006   3.325   2.311 -0.9656  0.3056  0.4949
 6265TIP3    H218802   3.023   3.470   2.351  1.2156  0.3511 -0.4635
 6266TIP3   OH218803   2.726   5.113   0.480  0.5512 -0.3981 -0.1907
 6266TIP3    H118804   2.744   5.198   0.521  0.5791 -0.6151  0.2491
 6266TIP3    H218805   2.802   5.059   0.500  0.2061 -0.7602  0.1718
 6267TIP3   OH218806   3.255   1.048   2.922 -0.1529  0.2792  0.4223
 6267TIP3    H118807   3.282   0.974   2.976 -0.6526 -0.1450  0.0999
 6267TIP3    H218808   3.160   1.053   2.935 -0.0674  1.1711  0.8252
 6268TIP3   OH218809   2.976   1.168   2.990  0.3042  0.0164  0.0305
 6268TIP3    H118810   2.986   1.237   3.056  1.0820  0.3871 -0.4488
 6268TIP3    H218811   2.884   1.145   2.992  0.0549  0.9954  0.2942
 6269TIP3   OH218812   0.356   4.963   5.126  0.0073 -0.4113 -0.6536
 6269TIP3    H118813   0.310   4.951   5.043 -1.1538 -0.1546 -0.0567
 6269TIP3    H218814   0.351   5.057   5.143  3.0416  0.0837 -1.8583
 6270TIP3   OH218815   1.912   4.487   0.550 -0.2345 -0.0908  0.5923
 6270TIP3    H118816   2.005   4.465   0.547  0.1116  1.3526 -0.1059
 6270TIP3    H218817   1.906   4.555   0.617 -0.8965 -0.5472  1.0127
 6271TIP3   OH218818   0.524   4.070   4.405  0.4145  0.1945 -0.1796
 6271TIP3    H118819   0.549   4.106   4.320 -1.8278 -0.2771 -1.1060
 6271TIP3    H218820   0.539   4.142   4.467 -1.0771  1.7415 -1.5174
 6272TIP3   OH218821   6.218   0.540   0.394 -0.3763 -0.2038 -0.1232
 6272TIP3    H118822   6.161   0.544   0.471 -1.0298  0.4269 -0.6274
 6272TIP3    H218823   6.283   0.473   0.416 -0.9045 -0.4532  0.7369
 6273TIP3   OH218824   5.496   1.204   1.329 -0.0274  0.3052  0.4612
 6273TIP3    H118825   5.519   1.150   1.404 -2.4094 -0.5222  0.7014
 6273TIP3    H218826   5.538   1.288   1.346 -1.1180  0.4065  3.1618
 6274TIP3   OH218827   5.151   1.872   3.999 -0.3163  0.4309 -0.2116
 6274TIP3    H118828   5.157   1.813   4.074  1.4720  0.5979 -0.1894
 6274TIP3    H218829   5.190   1.954   4.029 -2.0349  1.3967 -0.4972
 6275TIP3   OH218830   4.174   0.676   2.260  0.0383 -0.7647  0.5228
 6275TIP3    H118831   4.215   0.691   2.174 -0.6962 -0.5715  0.1958
 6275TIP3    H218832   4.109   0.608   2.243 -0.9052  0.0887  0.6715
 6276TIP3   OH218833   1.683   4.222   5.089  0.1564 -0.1008 -0.0395
 6276TIP3    H118834   1.733   4.180   5.020  0.6845 -1.2839  1.0225
 6276TIP3    H218835   1.722   4.190   5.170 -0.2429  1.4731  0.8304
 6277TIP3   OH218836   2.493   2.011   0.941  0.2369 -0.0046  0.2463
 6277TIP3    H118837   2.401   2.009   0.915 -0.0491 -0.7580  1.2302
 6277TIP3    H218838   2.539   1.965   0.871 -0.2485 -0.3005  0.1123
 6278TIP3   OH218839   5.790   4.672   3.703 -0.0087 -0.5431 -0.5217
 6278TIP3    H118840   5.805   4.596   3.759  0.9208 -1.2683 -1.6970
 6278TIP3    H218841   5.741   4.733   3.758  1.9990 -0.6574  1.5397
 6279TIP3   OH218842   5.477   0.757   3.716  0.1281  0.1742 -0.2364
 6279TIP3    H118843   5.504   0.665   3.708  0.8364  0.2887  0.7580
 6279TIP3    H218844   5.550   0.807   3.681 -0.7768  0.3606 -2.0170
 6280TIP3   OH218845   4.608   1.049   2.930 -0.0142 -0.1079 -0.2827
 6280TIP3    H118846   4.666   1.111   2.973 -0.3298 -0.2723  0.4093
 6280TIP3    H218847   4.652   1.026   2.849  0.7444 -0.0053  0.0914
 6281TIP3   OH218848   2.503   5.834   3.000  0.0237  0.1716  0.3276
 6281TIP3    H118849   2.455   5.751   2.999  0.7396 -0.2564  0.5315
 6281TIP3    H218850   2.457   5.889   2.937 -0.2100 -0.5249 -0.1317
 6282TIP3   OH218851   2.044   1.238   2.132  0.3991 -0.0028 -0.1811
 6282TIP3    H118852   2.099   1.306   2.171  1.1974 -0.6746 -0.1297
 6282TIP3    H218853   1.965   1.237   2.186  0.7795  0.2407  0.3873
 6283TIP3   OH218854   6.156   5.814   0.202  0.3103 -0.2223 -0.1787
 6283TIP3    H118855   6.236   5.834   0.153  0.9525 -1.3641  0.3616
 6283TIP3    H218856   6.186   5.797   0.291 -0.2612 -2.4899 -0.3498
 6284TIP3   OH218857   0.572   0.344   1.654  0.6558  0.0301  0.6542
 6284TIP3    H118858   0.619   0.426   1.634 -0.9642  0.6181 -1.0446
 6284TIP3    H218859   0.517   0.365   1.729 -0.3141  0.7629 -0.2370
 6285TIP3   OH218860   0.737   3.947   0.666 -0.7172 -0.5775  0.3998
 6285TIP3    H118861   0.789   4.024   0.687  1.5606 -2.0776  0.6380
 6285TIP3    H218862   0.798   3.889   0.619 -2.5041 -1.9906 -0.2911
 6286TIP3   OH218863   0.922   2.028   0.060  1.0316  0.8407  0.4005
 6286TIP3    H118864   0.958   1.987  -0.020  1.1676  1.6128  0.0571
 6286TIP3    H218865   0.858   2.091   0.028  2.0156  2.0922  0.8199
 6287TIP3   OH218866   1.515   5.510   1.280  0.2133  0.4252  0.1630
 6287TIP3    H118867   1.609   5.492   1.283  0.4902  1.8550  1.2841
 6287TIP3    H218868   1.506   5.582   1.218 -0.2044  0.0257 -0.2504
 6288TIP3   OH218869   4.351   0.892   5.113 -0.0409  0.4073 -0.4830
 6288TIP3    H118870   4.292   0.950   5.162  1.6640  1.4761  0.4111
 6288TIP3    H218871   4.293   0.839   5.058 -2.0246 -0.2196  2.0038
 6289TIP3   OH218872   2.175   4.743   1.621  0.2948  0.1162 -0.1587
 6289TIP3    H118873   2.258   4.787   1.639 -0.0894  1.0572 -0.6065
 6289TIP3    H218874   2.184   4.656   1.661  2.0566 -0.3574 -1.4864
 6290TIP3   OH218875   0.331   2.339   0.542  0.2015 -0.4253 -0.2571
 6290TIP3    H118876   0.412   2.311   0.585 -0.1866 -2.3142 -0.6706
 6290TIP3    H218877   0.265   2.332   0.610  0.2931  0.6478 -0.0509
 6291TIP3   OH218878   1.671   3.250   1.214  0.0728 -0.1612 -0.0766
 6291TIP3    H118879   1.601   3.263   1.150  1.1784  1.5742 -1.0045
 6291TIP3    H218880   1.718   3.172   1.183 -0.3551 -0.2637 -0.4724
 6292TIP3   OH218881   1.496   1.234   3.183 -0.2080 -0.4979  0.0703
 6292TIP3    H118882   1.482   1.154   3.233  1.4448 -1.2009 -0.5512
 6292TIP3    H218883   1.544   1.292   3.243 -1.2347 -0.0048  0.4518
 6293TIP3   OH218884   2.742   5.688   2.246 -0.2907  0.0460  0.0601
 6293TIP3    H118885   2.710   5.612   2.199 -1.2259  0.3722  0.1495
 6293TIP3    H218886   2.796   5.735   2.182 -2.0615  0.8260 -0.9305
 6294TIP3   OH218887   3.853   5.771   1.803  0.3615 -0.0973  0.8599
 6294TIP3    H118888   3.920   5.771   1.871  3.5405 -2.3483 -1.9517
 6294TIP3    H218889   3.889   5.824   1.732 -2.1241  0.8708  0.1887
 6295TIP3   OH218890   1.669   0.456   4.803  0.2222 -0.4904 -0.7558
 6295TIP3    H118891   1.698   0.521   4.738  0.1408  0.1937 -0.1142
 6295TIP3    H218892   1.654   0.507   4.883 -0.7016 -1.1560 -0.4864
 6296TIP3   OH218893   3.329   5.160   3.957  0.4471 -0.1844  0.6502
 6296TIP3    H118894   3.243   5.160   4.000  0.3501  1.3216  0.5181
 6296TIP3    H218895   3.319   5.099   3.884 -0.9133  0.8688 -0.0936
 6297TIP3   OH218896   0.566   2.549   1.165  0.0174  0.4463  0.0428
 6297TIP3    H118897   0.519   2.568   1.246 -0.9751  0.7118 -0.5803
 6297TIP3    H218898   0.548   2.623   1.108 -1.8222 -1.0676 -1.4982
 6298TIP3   OH218899   3.987   1.778   3.401 -0.3737 -0.0326 -0.3730
 6298TIP3    H118900   3.973   1.719   3.475 -2.0250 -0.3607 -0.9103
 6298TIP3    H218901   3.937   1.739   3.329 -1.7854  2.1791 -0.6718
 6299TIP3   OH218902   5.011   4.827   3.329 -0.3650 -0.0430  0.3719
 6299TIP3    H118903   5.051   4.761   3.273 -0.0903  0.8330 -0.4871
 6299TIP3    H218904   4.942   4.866   3.276  0.3031  1.2238  0.4100
 6300TIP3   OH218905   1.677   1.979   2.317 -0.3342  0.1943  0.2433
 6300TIP3    H118906   1.677   1.942   2.405  0.1505 -0.0564  0.1394
 6300TIP3    H218907   1.769   1.991   2.296 -0.4700  1.9094  0.4607
 6301TIP3   OH218908   1.629   3.538   1.771  0.1546  0.1177  0.1114
 6301TIP3    H118909   1.566   3.608   1.753 -0.8606 -1.0834 -1.1148
 6301TIP3    H218910   1.577   3.458   1.770  1.7269 -0.9362 -1.1628
 6302TIP3   OH218911   4.460   3.382   1.188 -0.2676  0.3491  0.7900
 6302TIP3    H118912   4.384   3.401   1.133 -0.3561 -1.5949  0.1349
 6302TIP3    H218913   4.432   3.404   1.277 -1.9327 -1.0647  0.6690
 6303TIP3   OH218914   3.779   0.304   0.960  0.0105 -0.2845 -0.1562
 6303TIP3    H118915   3.802   0.393   0.934  0.1001  0.0000  0.8231
 6303TIP3    H218916   3.827   0.247   0.900  0.6190  0.3212 -0.2551
 6304TIP3   OH218917   4.804   4.329   2.853  1.4484  0.6430  0.6989
 6304TIP3    H118918   4.772   4.239   2.860  0.0769  1.1831  1.8371
 6304TIP3    H218919   4.893   4.326   2.889  1.4627 -0.2580  0.6086
 6305TIP3   OH218920   0.987   4.477   4.719 -0.5372 -0.3586 -0.2792
 6305TIP3    H118921   1.050   4.465   4.648 -0.8489 -2.1231 -0.2867
 6305TIP3    H218922   0.940   4.394   4.725 -1.6674  0.3163  0.9016
 6306TIP3   OH218923   1.361   1.170   3.874  0.2729 -0.1152 -0.3870
 6306TIP3    H118924   1.281   1.164   3.822  0.0771  1.8525 -0.3603
 6306TIP3    H218925   1.427   1.203   3.813  0.6452 -0.0954  0.0215
 6307TIP3   OH218926   1.525   0.173   1.456  0.0621  0.2416 -0.3878
 6307TIP3    H118927   1.554   0.236   1.390  3.3489  0.7930  1.4035
 6307TIP3    H218928   1.604   0.127   1.483 -1.2876 -0.6320  2.5110
 6308TIP3   OH218929   2.114   2.466   2.427 -0.2734  0.0890  0.0272
 6308TIP3    H118930   2.027   2.434   2.447  0.0432 -1.1405 -0.4637
 6308TIP3    H218931   2.100   2.554   2.392 -1.1469  0.6187  1.6179
 6309TIP3   OH218932   5.643   0.262   1.744  0.3069  0.2457 -0.2971
 6309TIP3    H118933   5.593   0.343   1.751 -0.5307 -0.1639 -1.2655
 6309TIP3    H218934   5.697   0.260   1.823 -0.5518  1.1410  0.3286
 6310TIP3   OH218935   2.541   0.628   4.263  0.4319  0.0553  0.3575
 6310TIP3    H118936   2.506   0.654   4.349  0.0700 -0.6867  0.4451
 6310TIP3    H218937   2.473   0.572   4.226  0.4525  0.6303 -0.5578
 6311TIP3   OH218938   1.629   1.914   0.385 -0.3424  0.3937 -0.1423
 6311TIP3    H118939   1.557   1.865   0.345 -0.3668  0.1348  0.2220
 6311TIP3    H218940   1.612   1.911   0.479  1.1809 -1.3535  0.1435
 6312TIP3   OH218941   1.383   5.088   1.587 -0.6122 -0.3006  0.0838
 6312TIP3    H118942   1.433   5.028   1.643  1.9328 -2.2080 -3.7535
 6312TIP3    H218943   1.440   5.165   1.577 -0.6112 -0.3643 -0.4779
 6313TIP3   OH218944   1.270   3.695   0.501  0.0210  0.0724  0.0512
 6313TIP3    H118945   1.251   3.778   0.545  0.6324  1.7115 -2.5580
 6313TIP3    H218946   1.215   3.696   0.422  0.0191 -2.0488 -0.0586
 6314TIP3   OH218947   2.423   1.147   0.205 -0.2773 -0.1840 -0.2731
 6314TIP3    H118948   2.428   1.242   0.195  1.4152 -0.2481 -0.4047
 6314TIP3    H218949   2.462   1.130   0.291  0.1985 -0.8025 -0.6004
 6315TIP3   OH218950   4.663   1.968   0.768  0.6420  0.2158  0.7042
 6315TIP3    H118951   4.671   2.062   0.754  0.2323  0.0598 -0.8398
 6315TIP3    H218952   4.684   1.955   0.860  0.0741  1.8848  1.0991
 6316TIP3   OH218953   4.242   2.066   3.953  0.3999  0.0571  0.1566
 6316TIP3    H118954   4.272   1.989   3.905 -3.3336 -1.4351 -0.1230
 6316TIP3    H218955   4.192   2.116   3.889  0.7001  1.4466  0.9665
 6317TIP3   OH218956   4.633   0.295   3.425  0.0539  0.3049  0.1036
 6317TIP3    H118957   4.591   0.377   3.450 -0.9141  0.5532 -2.0746
 6317TIP3    H218958   4.642   0.246   3.506 -1.1703  1.7417  1.1554
 6318TIP3   OH218959   0.071   4.210   1.774 -0.2502 -0.1093  0.1377
 6318TIP3    H118960   0.022   4.139   1.732 -0.3143  0.4764 -0.8029
 6318TIP3    H218961   0.141   4.165   1.823  0.1193 -0.7839 -0.9806
 6319TIP3   OH218962   2.752   3.257   4.446 -0.0804 -0.1065  0.1465
 6319TIP3    H118963   2.729   3.258   4.353 -0.1944 -3.8332 -0.0218
 6319TIP3    H218964   2.681   3.207   4.487  0.4760  0.6308  2.1113
 6320TIP3   OH218965   4.777   3.178   2.593 -0.5252  0.6582  0.2904
 6320TIP3    H118966   4.754   3.190   2.501  1.4744 -1.7872 -0.6843
 6320TIP3    H218967   4.712   3.116   2.627  0.0054 -0.1682 -0.1666
 6321TIP3   OH218968   2.525   4.520   0.618  0.9777  0.1521  0.5944
 6321TIP3    H118969   2.467   4.505   0.692  0.3310  0.1438  0.0932
 6321TIP3    H218970   2.592   4.452   0.626  0.6543 -0.1317  0.9166
 6322TIP3   OH218971   4.102   4.215   4.874  0.0423 -0.5181  0.3921
 6322TIP3    H118972   4.052   4.164   4.810 -1.8078 -0.2661  1.5833
 6322TIP3    H218973   4.155   4.275   4.820 -1.2671 -0.4827 -0.9311
 6323TIP3   OH218974   3.211   0.143   3.410  0.5006 -0.3613 -0.2569
 6323TIP3    H118975   3.205   0.238   3.398  0.8124 -0.1423  1.1198
 6323TIP3    H218976   3.136   0.108   3.362  0.5263  0.5554 -1.0004
 6324TIP3   OH218977   5.147   3.939   1.664  0.2770 -0.3069 -0.2741
 6324TIP3    H118978   5.181   4.022   1.699 -1.0289 -0.3200  1.1366
 6324TIP3    H218979   5.057   3.936   1.695 -0.2674 -1.4098 -1.8696
 6325TIP3   OH218980   3.490   0.306   1.378  0.4648 -0.3145  0.1936
 6325TIP3    H118981   3.571   0.285   1.332 -0.7127 -0.8910 -1.7149
 6325TIP3    H218982   3.484   0.241   1.448  0.5649 -1.7055 -1.0487
 6326TIP3   OH218983   5.814   1.768   2.938 -0.2862  0.4001 -0.4165
 6326TIP3    H118984   5.807   1.673   2.939 -0.4536  0.4165  0.3027
 6326TIP3    H218985   5.764   1.795   2.861  1.1648 -0.1903 -1.6274
 6327TIP3   OH218986   2.119   3.107   3.874 -0.2902 -0.1222  0.0115
 6327TIP3    H118987   2.165   3.099   3.958  0.3349 -1.3428 -0.4233
 6327TIP3    H218988   2.066   3.027   3.869  2.2923 -1.8866 -2.2525
 6328TIP3   OH218989   4.385   0.591   4.771 -0.4160  0.1117  0.1811
 6328TIP3    H118990   4.463   0.584   4.717  0.1283  0.9239  0.8410
 6328TIP3    H218991   4.411   0.554   4.856 -0.6474  0.6684  0.5016
 6329TIP3   OH218992   4.911   5.121   2.714 -0.0244 -0.4614  0.0184
 6329TIP3    H118993   4.891   5.028   2.704  0.2066 -0.4279 -0.9322
 6329TIP3    H218994   5.007   5.125   2.714  0.0136 -0.3988  2.1593
 6330TIP3   OH218995   0.281   1.039   0.678 -0.3373 -0.5886 -0.1100
 6330TIP3    H118996   0.230   1.111   0.642  1.9084  1.1379 -0.0827
 6330TIP3    H218997   0.264   1.041   0.772 -0.0730  0.1273 -0.0714
 6331TIP3   OH218998   0.628   5.254   0.728  0.1089  0.5604  0.2851
 6331TIP3    H118999   0.562   5.320   0.706  0.4520  0.8265  0.0497
 6331TIP3    H219000   0.705   5.279   0.676  0.6428  0.6899  1.1288
 6332TIP3   OH219001   5.008   1.228   0.922  0.2097 -0.3817 -0.4747
 6332TIP3    H119002   5.035   1.245   0.832 -1.0065  1.2397 -0.5713
 6332TIP3    H219003   4.962   1.307   0.949  0.0886 -1.0389  1.4114
 6333TIP3   OH219004   5.661   5.291   0.003  0.2055 -0.5067  0.2998
 6333TIP3    H119005   5.650   5.353   0.076 -0.6808  1.2699 -1.2315
 6333TIP3    H219006   5.755   5.279  -0.004  0.4942  1.4356  0.1184
 6334TIP3   OH219007   4.419   3.731   0.794 -0.2889 -0.6723  0.3640
 6334TIP3    H119008   4.427   3.826   0.804 -1.4292 -0.7102  1.9539
 6334TIP3    H219009   4.509   3.702   0.777  0.0736  0.6777 -0.1982
 6335TIP3   OH219010   0.693   4.716   1.153  0.0567 -0.6768 -0.5325
 6335TIP3    H119011   0.720   4.624   1.161 -0.2090 -0.7110  0.0861
 6335TIP3    H219012   0.753   4.753   1.089 -1.2817 -1.8302 -2.5507
 6336TIP3   OH219013   1.463   2.229   3.580  0.3934  0.1974  0.1119
 6336TIP3    H119014   1.480   2.306   3.527 -1.1527  0.9038  0.5874
 6336TIP3    H219015   1.465   2.156   3.518 -3.0820  1.1530 -1.3890
 6337TIP3   OH219016   4.507   1.592   0.554  0.3277 -0.4074 -0.2757
 6337TIP3    H119017   4.501   1.607   0.649 -2.3603  2.3653 -0.7400
 6337TIP3    H219018   4.426   1.546   0.532  0.8058 -0.7865 -1.2787
 6338TIP3   OH219019   6.270   3.693   0.544  0.1758 -0.4262  0.8168
 6338TIP3    H119020   6.322   3.613   0.530 -1.0519 -1.1135  0.0381
 6338TIP3    H219021   6.281   3.711   0.638 -0.0120 -1.8722  1.1485
 6339TIP3   OH219022   3.084   1.974   0.819 -0.1833 -0.0648 -0.0090
 6339TIP3    H119023   3.001   1.981   0.868 -0.1443  0.5029 -0.0099
 6339TIP3    H219024   3.083   1.886   0.783 -0.5030 -0.2793  0.5085
 6340TIP3   OH219025   4.086   5.395   2.537  0.5489  0.0985  0.0308
 6340TIP3    H119026   4.113   5.439   2.456  0.3056 -0.7139 -0.5042
 6340TIP3    H219027   4.011   5.446   2.568 -0.6200 -0.7004 -1.3317
 6341TIP3   OH219028   3.306   4.699   3.480  1.0901  0.0115 -0.2242
 6341TIP3    H119029   3.286   4.626   3.539  1.8661 -0.0931 -0.0764
 6341TIP3    H219030   3.232   4.759   3.490  1.1554 -0.0573  0.7756
 6342TIP3   OH219031   4.711   2.176   1.421 -0.1565 -0.3275 -0.4681
 6342TIP3    H119032   4.782   2.238   1.437 -1.1083  0.8044 -0.4853
 6342TIP3    H219033   4.647   2.195   1.490 -0.2552 -1.6553 -0.1605
 6343TIP3   OH219034   4.311   4.439   2.118 -0.0184  0.0944  0.9046
 6343TIP3    H119035   4.296   4.385   2.196 -1.3136 -0.1416  0.5033
 6343TIP3    H219036   4.295   4.528   2.148  0.8291  0.1577  1.2291
 6344TIP3   OH219037   3.271   4.381   3.063  0.6037  0.5908  0.5034
 6344TIP3    H119038   3.355   4.335   3.069  0.2413  0.0986  4.0196
 6344TIP3    H219039   3.220   4.330   3.000  1.7477 -1.2036  0.9587
 6345TIP3   OH219040   0.637   4.117   1.801  0.0352  0.1171 -0.5068
 6345TIP3    H119041   0.573   4.140   1.734  2.0619  1.9521 -1.9432
 6345TIP3    H219042   0.647   4.197   1.853 -0.4583 -0.8486  1.1718
 6346TIP3   OH219043   5.642   1.419   1.382 -0.8523  0.1679  0.0523
 6346TIP3    H119044   5.625   1.463   1.465  0.5301 -1.2835  1.1865
 6346TIP3    H219045   5.737   1.407   1.381 -1.1251 -2.6853 -0.1697
 6347TIP3   OH219046   1.075   1.503   0.441  0.7001  0.6519  0.0032
 6347TIP3    H119047   1.081   1.579   0.499  0.9157 -0.1593  1.0684
 6347TIP3    H219048   0.985   1.472   0.450  0.5270  0.9523 -0.6584
 6348TIP3   OH219049   5.069   3.743   2.477 -0.2321 -0.0630 -0.1619
 6348TIP3    H119050   5.151   3.743   2.427 -0.2018  0.2226 -0.1178
 6348TIP3    H219051   5.079   3.674   2.541 -0.1727 -0.2739 -0.3974
 6349TIP3   OH219052   5.170   5.203   3.053 -0.3002  0.3907 -0.2380
 6349TIP3    H119053   5.227   5.277   3.030 -1.0471  0.5249 -1.7763
 6349TIP3    H219054   5.089   5.219   3.003 -0.9856 -0.7665  0.4632
 6350TIP3   OH219055   2.598   5.003   4.363  0.0341  0.6764  0.0320
 6350TIP3    H119056   2.520   4.996   4.307  0.7051 -2.6974 -0.6867
 6350TIP3    H219057   2.567   5.049   4.441 -2.3667  0.5840 -0.7832
 6351TIP3   OH219058   5.662   4.846   0.988  0.0197  0.1540  0.2737
 6351TIP3    H119059   5.643   4.759   0.954  0.0169  0.3863 -0.3417
 6351TIP3    H219060   5.582   4.896   0.971 -1.2130 -0.4979  3.4331
 6352TIP3   OH219061   1.576   0.468   0.865  0.1068  0.3782 -0.4167
 6352TIP3    H119062   1.602   0.447   0.776  0.2905  0.8325 -0.4738
 6352TIP3    H219063   1.565   0.383   0.908 -1.0973  0.1114 -1.1863
 6353TIP3   OH219064   6.102   4.912   1.454  0.5343 -0.4874  0.0706
 6353TIP3    H119065   6.142   4.901   1.368 -2.7148 -0.8902 -1.5467
 6353TIP3    H219066   6.116   4.828   1.498  2.1654 -0.3019 -0.0258
 6354TIP3   OH219067   4.330   2.379   2.405 -0.0503 -0.6601  0.2429
 6354TIP3    H119068   4.354   2.423   2.324  0.7705  0.1838  0.9113
 6354TIP3    H219069   4.251   2.424   2.434  0.1769 -0.3333  0.3683
 6355TIP3   OH219070   0.853   0.666   2.369 -0.0719 -0.0700 -0.2236
 6355TIP3    H119071   0.819   0.751   2.340 -1.6239 -0.7191 -0.4434
 6355TIP3    H219072   0.903   0.685   2.448  0.3759  1.1497 -0.7784
 6356TIP3   OH219073   4.129   2.794   3.870 -0.4985 -0.4173 -0.1941
 6356TIP3    H119074   4.138   2.855   3.943 -0.6083 -0.3936 -0.2001
 6356TIP3    H219075   4.147   2.847   3.792  1.1308 -0.7731 -0.1008
 6357TIP3   OH219076   5.957   0.255   2.171 -0.0634 -0.1355  0.3437
 6357TIP3    H119077   5.949   0.340   2.128 -0.8732  0.1313  0.9978
 6357TIP3    H219078   5.952   0.275   2.265  1.0752 -0.7653  0.5589
 6358TIP3   OH219079   0.262   4.779   1.938  0.7696  0.0853  0.0755
 6358TIP3    H119080   0.216   4.730   2.006  0.1465  0.1348 -0.3094
 6358TIP3    H219081   0.341   4.812   1.982  1.5004 -1.7201  0.1921
 6359TIP3   OH219082   5.860   3.408   1.082 -0.0098  0.4481  0.5114
 6359TIP3    H119083   5.949   3.376   1.073 -0.8751 -1.9767 -0.2540
 6359TIP3    H219084   5.836   3.387   1.172 -0.4223 -0.7735  0.1429
 6360TIP3   OH219085   4.697   5.049   1.684 -0.5627 -0.0783  0.1121
 6360TIP3    H119086   4.691   4.967   1.732 -1.7719 -0.3864 -0.5175
 6360TIP3    H219087   4.624   5.046   1.622 -2.2059  2.5600  1.7272
 6361TIP3   OH219088   1.330   0.502   2.655 -0.1576  0.0815  0.0972
 6361TIP3    H119089   1.268   0.461   2.715  2.0292 -0.6985  1.9643
 6361TIP3    H219090   1.350   0.435   2.590 -0.0187 -0.2344  0.4675
 6362TIP3   OH219091   5.336   3.709   3.187 -0.2021  0.1932  0.0766
 6362TIP3    H119092   5.348   3.787   3.133 -0.8364  0.6727  0.6046
 6362TIP3    H219093   5.370   3.734   3.273  0.5927 -0.4876 -0.0219
 6363TIP3   OH219094   0.225   4.577   3.803  0.5705  0.0609 -0.4907
 6363TIP3    H119095   0.146   4.623   3.774 -0.1337 -1.4844 -1.1617
 6363TIP3    H219096   0.229   4.593   3.897  0.7550  2.0290 -0.7926
 6364TIP3   OH219097   1.479   5.940   4.530 -0.1553 -0.8066  0.2887
 6364TIP3    H119098   1.456   5.976   4.444  0.6573 -2.0445 -0.4697
 6364TIP3    H219099   1.420   5.865   4.540 -1.1034  0.0430  1.3920
 6365TIP3   OH219100   4.889   5.176   0.449  0.3448  0.5186  0.5400
 6365TIP3    H119101   4.822   5.226   0.401  0.4257  0.9600  0.8816
 6365TIP3    H219102   4.864   5.186   0.541  1.2873  1.2894  0.7246
 6366TIP3   OH219103   5.263   3.454   1.413 -0.0870 -0.7305  0.3527
 6366TIP3    H119104   5.216   3.507   1.476 -0.0018 -0.2576  0.0260
 6366TIP3    H219105   5.252   3.364   1.443 -0.0450 -0.5086  1.0334
 6367TIP3   OH219106   5.337   4.719   0.139 -0.3598 -0.0378  0.3978
 6367TIP3    H119107   5.411   4.743   0.082 -0.3106 -0.6405  0.2058
 6367TIP3    H219108   5.353   4.768   0.220 -0.3110  0.6546 -0.0222
 6368TIP3   OH219109   1.272   2.776   3.173 -0.6214  0.5979 -0.2330
 6368TIP3    H119110   1.283   2.851   3.231 -2.0651  0.9848 -0.4278
 6368TIP3    H219111   1.243   2.813   3.090 -0.8231 -0.1310 -0.4992
 6369TIP3   OH219112   4.806   4.931   4.133  0.3436  0.3110  0.0195
 6369TIP3    H119113   4.862   4.934   4.210  0.5171 -0.5722 -0.0574
 6369TIP3    H219114   4.856   4.975   4.064 -0.0663  1.6563  0.5489
 6370TIP3   OH219115   6.106   0.821   0.415 -0.1574 -0.4014  0.4168
 6370TIP3    H119116   6.161   0.743   0.420  0.8367  0.1788 -0.8827
 6370TIP3    H219117   6.167   0.894   0.428 -0.3879  0.2973 -1.8841
 6371TIP3   OH219118   1.973   0.012   1.121  0.3415 -0.2035  0.2456
 6371TIP3    H119119   1.889  -0.015   1.084  0.5289  0.4745 -0.7193
 6371TIP3    H219120   2.034   0.004   1.047  0.5460  2.1298  0.1076
 6372TIP3   OH219121   4.611   1.934   2.861  0.2777  0.0302  0.3644
 6372TIP3    H119122   4.634   2.010   2.915 -0.3403  1.6323 -1.5158
 6372TIP3    H219123   4.680   1.931   2.794  0.7161 -1.5797  0.8391
 6373TIP3   OH219124   3.858   2.691   3.307  0.5435 -0.2164  0.4716
 6373TIP3    H119125   3.776   2.691   3.356  0.8916  0.6593  1.1033
 6373TIP3    H219126   3.908   2.619   3.344  0.2197 -0.4968  0.3671
 6374TIP3   OH219127   4.152   3.187   0.420  0.1237  0.1120 -0.1902
 6374TIP3    H119128   4.246   3.170   0.409 -0.1793 -2.5577  0.7316
 6374TIP3    H219129   4.145   3.227   0.506  0.3505 -0.4996  0.1158
 6375TIP3   OH219130   2.878   0.228   1.069  0.0656  0.1142 -0.1708
 6375TIP3    H119131   2.825   0.159   1.027 -0.3326  0.5590 -0.4181
 6375TIP3    H219132   2.855   0.307   1.020  1.9932  0.1031 -1.2038
 6376TIP3   OH219133   1.436   1.592   3.766 -0.5491 -0.1149  0.0153
 6376TIP3    H119134   1.394   1.537   3.700 -0.2812  0.5860 -0.7517
 6376TIP3    H219135   1.527   1.599   3.738 -0.2230 -0.5071  0.9313
 6377TIP3   OH219136   4.696   2.332   0.219  0.3747  0.4975  0.7492
 6377TIP3    H119137   4.785   2.299   0.208 -0.0470 -0.5411  0.3470
 6377TIP3    H219138   4.652   2.265   0.273 -0.5465  0.2839 -0.2258
 6378TIP3   OH219139   2.624   5.002   3.599  0.0266 -0.1515  0.3899
 6378TIP3    H119140   2.649   4.918   3.637  0.9872  0.0017  0.1269
 6378TIP3    H219141   2.555   4.981   3.536 -0.2687 -0.6361  0.8682
 6379TIP3   OH219142   1.199   5.780   0.641 -0.0129  0.0259 -0.3845
 6379TIP3    H119143   1.238   5.701   0.603 -2.1145 -0.9923 -0.5381
 6379TIP3    H219144   1.267   5.847   0.632  0.3637 -0.6790 -4.0415
 6380TIP3   OH219145   6.239   1.132   1.230 -0.2693 -0.1175 -0.3804
 6380TIP3    H119146   6.227   1.211   1.178  1.0338 -0.9027 -2.0135
 6380TIP3    H219147   6.273   1.163   1.314  0.3935  1.0560 -1.0497
 6381TIP3   OH219148   4.777   0.167   0.846 -0.1601 -0.1668  0.1235
 6381TIP3    H119149   4.848   0.151   0.908 -0.1433 -0.8916 -0.0691
 6381TIP3    H219150   4.720   0.231   0.889  0.4471  0.1842  0.4052
 6382TIP3   OH219151   1.822   0.490   3.629 -0.1865 -0.2776  0.0327
 6382TIP3    H119152   1.737   0.455   3.657 -0.1923  0.3571  0.8097
 6382TIP3    H219153   1.801   0.547   3.555 -0.5040  0.2846  0.5496
 6383TIP3   OH219154   3.760   2.495   5.004  0.1272 -0.3834  0.1465
 6383TIP3    H119155   3.682   2.550   5.012  0.0073 -0.4738 -0.4018
 6383TIP3    H219156   3.771   2.457   5.092 -0.1308  0.0484  0.3691
 6384TIP3   OH219157   2.122   1.007   0.958  0.1643 -0.5946 -0.4281
 6384TIP3    H119158   2.168   0.973   1.034 -1.1094 -2.5416 -0.4392
 6384TIP3    H219159   2.123   0.934   0.895  0.1584  0.5515 -1.8107
 6385TIP3   OH219160   1.747   2.112   3.975  0.0206 -0.0881  0.1665
 6385TIP3    H119161   1.653   2.125   3.959  0.1059  1.5160  0.7805
 6385TIP3    H219162   1.785   2.100   3.888 -0.7499 -0.8643 -0.0823
 6386TIP3   OH219163   5.773   2.129   1.730 -0.3042  0.2372 -0.1117
 6386TIP3    H119164   5.710   2.151   1.662 -1.6783  0.1978  1.0719
 6386TIP3    H219165   5.780   2.208   1.783  1.1579  0.4427 -0.5716
 6387TIP3   OH219166   1.721   3.171   1.878  0.1829 -0.3710 -0.3445
 6387TIP3    H119167   1.740   3.078   1.866 -0.0392 -0.3607 -0.7906
 6387TIP3    H219168   1.627   3.178   1.866  0.4971  0.3011 -2.9944
 6388TIP3   OH219169   2.802   4.352   5.155 -0.1009  0.4899 -0.1923
 6388TIP3    H119170   2.728   4.352   5.215 -0.1282 -4.0472  0.1588
 6388TIP3    H219171   2.769   4.394   5.076 -1.3238  3.0184  1.5243
 6389TIP3   OH219172   4.368   1.379   3.742 -0.0194 -0.4145  0.2453
 6389TIP3    H119173   4.413   1.392   3.659 -0.0209  0.8974  0.4298
 6389TIP3    H219174   4.276   1.400   3.723 -0.4583 -2.2660  0.0708
 6390TIP3   OH219175   5.708   5.100   4.070  0.2448 -0.2119 -0.0021
 6390TIP3    H119176   5.737   5.102   3.978 -1.0959  0.5257 -0.4316
 6390TIP3    H219177   5.650   5.176   4.079  0.3319 -0.2895  1.4575
 6391TIP3   OH219178   5.688   2.396   3.024 -0.3999 -0.0424 -0.5891
 6391TIP3    H119179   5.689   2.391   2.929  0.2289  2.3639 -0.7776
 6391TIP3    H219180   5.618   2.458   3.044 -2.3037 -2.4220  0.7384
 6392TIP3   OH219181   3.980   4.818   1.517  0.0020 -0.3041 -0.3118
 6392TIP3    H119182   3.887   4.833   1.538  0.5780  0.4368  2.1062
 6392TIP3    H219183   3.981   4.734   1.473 -1.6533 -1.4567  1.6492
 6393TIP3   OH219184   5.021   1.550   4.288  0.4377 -0.1233  0.3091
 6393TIP3    H119185   4.935   1.539   4.328 -0.6370 -0.1543 -1.8190
 6393TIP3    H219186   5.041   1.643   4.297 -0.2928  0.0712 -0.0357
 6394TIP3   OH219187   1.814   3.145   0.677  0.1888  0.3039 -0.2166
 6394TIP3    H119188   1.898   3.101   0.690  0.1759  0.0110 -1.0738
 6394TIP3    H219189   1.813   3.215   0.742 -0.0648 -1.3317  1.6388
 6395TIP3   OH219190   2.383   1.590   3.996 -0.1977 -0.3764  0.1605
 6395TIP3    H119191   2.307   1.624   4.043 -0.2955 -0.5103  0.1024
 6395TIP3    H219192   2.374   1.495   4.002  0.8446 -0.4186  1.5651
 6396TIP3   OH219193   0.027   0.299   3.151 -0.0734 -0.0133 -0.5374
 6396TIP3    H119194  -0.031   0.361   3.195  0.3354 -0.2505  0.3497
 6396TIP3    H219195   0.114   0.338   3.158 -0.1560  0.6173 -2.3486
 6397TIP3   OH219196   4.638   5.030   1.074  0.0512  0.4524 -0.0560
 6397TIP3    H119197   4.569   5.039   1.008 -1.3770  1.5930  1.5227
 6397TIP3    H219198   4.598   4.978   1.144  1.1599  0.2315  0.4388
 6398TIP3   OH219199   0.512   5.484   2.177 -0.2396 -0.6353 -0.0140
 6398TIP3    H119200   0.587   5.477   2.117  0.3416 -0.4577  0.6729
 6398TIP3    H219201   0.508   5.577   2.199 -0.3490 -0.7242  0.3378
 6399TIP3   OH219202   1.048   0.990   1.230  0.0377 -0.4807  0.8065
 6399TIP3    H119203   0.959   1.018   1.249 -0.5689 -0.0408 -2.1388
 6399TIP3    H219204   1.042   0.894   1.222  0.4172 -0.7343  3.0361
 6400TIP3   OH219205   3.209   1.971   1.830 -0.1531 -0.2468 -0.4331
 6400TIP3    H119206   3.300   1.997   1.812 -0.1978 -1.1235 -2.1372
 6400TIP3    H219207   3.157   2.024   1.769 -0.5368 -1.6729 -1.3817
 6401TIP3   OH219208   1.469   0.734   2.516  0.2872 -0.2251 -0.4238
 6401TIP3    H119209   1.427   0.655   2.551  0.4728 -0.0906  0.1141
 6401TIP3    H219210   1.439   0.805   2.573 -0.6670  0.2733 -1.4847
 6402TIP3   OH219211   1.418   4.399   1.846  0.2854  0.2956  0.0507
 6402TIP3    H119212   1.442   4.480   1.891 -0.8680  1.2301 -0.9694
 6402TIP3    H219213   1.323   4.399   1.843  0.2441  1.0669 -3.6606
 6403TIP3   OH219214   1.180   2.465   0.165 -0.0488  0.1503 -0.4979
 6403TIP3    H119215   1.096   2.469   0.120 -0.5268  0.9628  0.4250
 6403TIP3    H219216   1.224   2.547   0.142  0.3679 -0.1359 -0.7337
 6404TIP3   OH219217   0.709   4.598   5.127 -0.8063  0.6705 -0.0539
 6404TIP3    H119218   0.691   4.568   5.216  0.9647 -1.3882 -0.3148
 6404TIP3    H219219   0.643   4.555   5.073 -1.6849  1.6743  0.1809
 6405TIP3   OH219220   2.316   3.807   2.886  0.0705  0.2534  0.6425
 6405TIP3    H119221   2.252   3.775   2.822  0.5119  1.3972 -0.4137
 6405TIP3    H219222   2.329   3.733   2.946 -1.1104 -0.5030  0.0039
 6406TIP3   OH219223   0.821   1.651   1.125  0.3957 -0.3805  0.2755
 6406TIP3    H119224   0.850   1.575   1.075  2.4214 -0.3731  1.3325
 6406TIP3    H219225   0.729   1.634   1.144 -0.2350 -0.7870 -2.6396
 6407TIP3   OH219226   4.168   0.657   2.727  0.0857 -0.2666  0.2126
 6407TIP3    H119227   4.149   0.716   2.654 -1.0154 -1.0877 -0.1833
 6407TIP3    H219228   4.099   0.675   2.791 -0.3714 -1.2519  0.0058
 6408TIP3   OH219229   3.294   1.725   0.101 -0.2515 -0.1098 -0.1398
 6408TIP3    H119230   3.287   1.694   0.191 -0.8704  0.4625  0.0209
 6408TIP3    H219231   3.299   1.821   0.109 -0.1225 -0.0660 -0.6990
 6409TIP3   OH219232   4.835   3.416   3.025  0.2337  0.2814  0.2782
 6409TIP3    H119233   4.740   3.429   3.026 -0.0552 -1.3837 -1.2231
 6409TIP3    H219234   4.860   3.432   2.934  1.9795  3.9251  1.1805
 6410TIP3   OH219235   3.893   4.784   2.825  0.4227  0.3172  0.2293
 6410TIP3    H119236   3.839   4.831   2.889  0.4681  0.9678 -0.2010
 6410TIP3    H219237   3.934   4.853   2.774 -3.0679 -0.0321 -3.5442
 6411TIP3   OH219238   3.378   4.757   3.856  0.1559  0.3407 -0.2595
 6411TIP3    H119239   3.440   4.696   3.817  1.7035  0.8138  1.3360
 6411TIP3    H219240   3.368   4.727   3.947 -2.6356 -0.2001 -0.6345
 6412TIP3   OH219241   0.930   3.037   3.155  0.3105 -0.1000 -0.5508
 6412TIP3    H119242   0.960   2.966   3.211 -1.9284  0.2635  1.2767
 6412TIP3    H219243   0.840   3.014   3.132 -0.1164  1.6148 -0.7782
 6413TIP3   OH219244   2.526   3.141   2.482  0.1303 -0.1580 -0.6924
 6413TIP3    H119245   2.502   3.053   2.456  2.1790 -1.4467  1.3889
 6413TIP3    H219246   2.444   3.184   2.503 -0.7886 -2.4437  0.7414
 6414TIP3   OH219247   4.878   5.735   1.695 -0.0637 -0.9710  0.1578
 6414TIP3    H119248   4.949   5.674   1.715  0.3878 -0.5084 -0.0360
 6414TIP3    H219249   4.899   5.770   1.609  0.3136  0.3567  0.7683
 6415TIP3   OH219250   3.914   0.205   0.748  0.4405  0.1017 -0.6555
 6415TIP3    H119251   4.001   0.217   0.710  0.6274  0.5061 -0.1214
 6415TIP3    H219252   3.854   0.215   0.675  0.8818 -1.2297 -1.2406
 6416TIP3   OH219253   5.247   5.258   4.445 -0.4920 -0.3520  0.1981
 6416TIP3    H119254   5.219   5.324   4.383  1.6761  0.7973  0.3538
 6416TIP3    H219255   5.230   5.175   4.401 -4.0355  0.1536  0.3253
 6417TIP3   OH219256   2.316   3.712   0.569  0.0289  0.3563  0.5778
 6417TIP3    H119257   2.350   3.788   0.522 -1.1071  0.4081 -0.1810
 6417TIP3    H219258   2.240   3.684   0.519  0.3358 -1.2023  0.9233
 6418TIP3   OH219259   0.806   2.155   4.869 -0.1738  0.1085 -0.3410
 6418TIP3    H119260   0.862   2.154   4.791 -0.8829 -1.4702 -0.8508
 6418TIP3    H219261   0.735   2.215   4.846  0.9464  1.6866  0.1003
 6419TIP3   OH219262   1.314   4.922   2.264 -0.2550 -0.3735 -0.4781
 6419TIP3    H119263   1.230   4.879   2.248 -0.7252  0.6223 -0.7620
 6419TIP3    H219264   1.378   4.863   2.225 -0.6288 -1.9595  1.1566
 6420TIP3   OH219265   5.126   3.375   2.756 -0.1726  0.3227  0.2414
 6420TIP3    H119266   5.140   3.355   2.663  1.2896  0.0280  0.4992
 6420TIP3    H219267   5.036   3.406   2.760  0.4441  2.6866 -1.6822
 6421TIP3   OH219268   5.548   5.702   1.033  0.0343 -0.1010 -0.2639
 6421TIP3    H119269   5.626   5.661   0.996  0.9762  1.4329 -0.0381
 6421TIP3    H219270   5.572   5.721   1.123 -0.9961 -0.5652  0.1242
 6422TIP3   OH219271   5.900   3.606   1.448  0.0119  0.3366 -0.1202
 6422TIP3    H119272   5.867   3.527   1.405 -2.3800  0.1102  1.8721
 6422TIP3    H219273   5.881   3.676   1.386 -2.1171 -0.1457 -0.1214
 6423TIP3   OH219274   3.551   1.451   2.997  0.1814  0.4654 -0.1519
 6423TIP3    H119275   3.508   1.535   2.981 -0.8374  0.0685  0.3929
 6423TIP3    H219276   3.490   1.386   2.963  1.5312 -0.0260 -1.7467
 6424TIP3   OH219277   2.271   5.284   1.220 -0.0565 -0.4367 -0.1228
 6424TIP3    H119278   2.176   5.280   1.218 -0.3051  0.6386  3.3986
 6424TIP3    H219279   2.292   5.375   1.198  0.1599 -0.5818 -0.5361
 6425TIP3   OH219280   1.759   2.349   2.129 -0.3633  0.4296 -0.4244
 6425TIP3    H119281   1.696   2.376   2.197 -2.2488 -0.2446 -1.8103
 6425TIP3    H219282   1.717   2.373   2.047  1.2511 -0.0311 -1.4200
 6426TIP3   OH219283   1.687   2.326   1.052  0.3600 -0.6239 -0.1366
 6426TIP3    H119284   1.695   2.337   0.958  1.0742  0.7987  0.0717
 6426TIP3    H219285   1.736   2.399   1.090 -0.6476 -0.6600  1.3316
 6427TIP3   OH219286   5.174   4.591   2.963  0.0015 -0.6239 -0.0379
 6427TIP3    H119287   5.189   4.617   2.872  0.1200 -0.2742  0.0794
 6427TIP3    H219288   5.185   4.496   2.963 -2.5963 -0.9960 -0.9003
 6428TIP3   OH219289   3.834   4.100   3.729 -0.4413  0.2526 -0.3771
 6428TIP3    H119290   3.883   4.112   3.648 -0.9300 -1.1206 -0.9052
 6428TIP3    H219291   3.891   4.046   3.784  0.4054  2.1572  0.7165
 6429TIP3   OH219292   2.378   4.466   3.941  0.0741  0.0953 -0.3895
 6429TIP3    H119293   2.286   4.441   3.934 -0.5286  2.2990 -1.0269
 6429TIP3    H219294   2.419   4.430   3.862 -0.0542 -1.4908  0.2390
 6430TIP3   OH219295   2.862   4.996   4.264 -0.4319 -0.1145  0.3356
 6430TIP3    H119296   2.775   4.977   4.301 -0.7104 -2.2818 -1.2030
 6430TIP3    H219297   2.845   5.015   4.172  0.7237 -1.1853 -0.1318
 6431TIP3   OH219298   5.026   5.529   1.847 -0.1797  0.2332  1.0849
 6431TIP3    H119299   5.082   5.562   1.776 -0.9930 -1.2581 -0.3081
 6431TIP3    H219300   5.076   5.546   1.926  1.2381  0.9987  0.0766
 6432TIP3   OH219301   1.502   4.908   1.760  0.0665 -0.4699  0.0361
 6432TIP3    H119302   1.436   4.840   1.773  0.5052 -0.9815 -0.3401
 6432TIP3    H219303   1.585   4.865   1.780  0.4665 -0.4117 -1.3416
 6433TIP3   OH219304   4.594   3.962   4.722  0.0779 -0.1115 -0.0890
 6433TIP3    H119305   4.623   3.963   4.814  1.3100  0.8335 -0.4612
 6433TIP3    H219306   4.500   3.947   4.728  0.1434 -0.1529  1.3374
 6434TIP3   OH219307   4.221   5.510   3.297  0.3978 -0.1766 -0.3328
 6434TIP3    H119308   4.286   5.534   3.231 -0.6539  1.5607 -0.8073
 6434TIP3    H219309   4.188   5.425   3.269  2.5078 -1.1706 -0.0020
 6435TIP3   OH219310   3.153   0.387   2.597  0.2098 -0.1348  0.3483
 6435TIP3    H119311   3.224   0.381   2.533 -1.7835  0.1762 -2.0634
 6435TIP3    H219312   3.121   0.297   2.605 -0.3813  0.0289 -0.1306
 6436TIP3   OH219313   1.567   0.404   3.705  0.5737 -0.2229  0.2680
 6436TIP3    H119314   1.550   0.441   3.791  0.0798  0.8104 -0.2595
 6436TIP3    H219315   1.567   0.309   3.719 -0.4142 -0.0991  1.2399
 6437TIP3   OH219316   5.434   2.198   4.321  0.3100  0.5823  0.1031
 6437TIP3    H119317   5.396   2.138   4.385 -0.3837 -0.8101 -1.5149
 6437TIP3    H219318   5.375   2.194   4.246 -0.3637  4.2016  0.2732
 6438TIP3   OH219319   3.376   1.646   1.899  0.1798 -0.3245 -0.2910
 6438TIP3    H119320   3.296   1.598   1.915  0.7550 -0.7787  1.4113
 6438TIP3    H219321   3.362   1.690   1.815 -0.8956 -2.3130 -1.2034
 6439TIP3   OH219322   1.961   2.180   3.122  0.0188 -0.4789  0.2140
 6439TIP3    H119323   1.907   2.234   3.180 -0.8541 -1.5994  0.4887
 6439TIP3    H219324   1.905   2.164   3.046 -0.3407 -2.2324  0.8069
 6440TIP3   OH219325   5.903   4.966   2.077  0.6777  0.1529 -0.4670
 6440TIP3    H119326   5.895   5.042   2.134 -1.6991  0.9543 -1.7162
 6440TIP3    H219327   5.882   4.892   2.132 -0.5948  0.8055 -0.0446
 6441TIP3   OH219328   3.749   1.287   2.582  0.3835  0.0249 -0.1851
 6441TIP3    H119329   3.727   1.285   2.489  0.6411 -0.8635 -0.2321
 6441TIP3    H219330   3.791   1.372   2.595  0.5724  0.0493 -0.9296
 6442TIP3   OH219331   1.349   3.536   2.828  0.1906 -0.0079 -0.3023
 6442TIP3    H119332   1.405   3.579   2.763 -0.0140  1.9383  0.7561
 6442TIP3    H219333   1.341   3.599   2.899 -0.8692 -1.4714  0.9369
 6443TIP3   OH219334   5.744   3.815   2.087 -0.4015 -0.5744 -0.3865
 6443TIP3    H119335   5.778   3.901   2.112  1.3128 -1.3687  0.1049
 6443TIP3    H219336   5.689   3.789   2.161  0.1631 -0.4829  0.0685
 6444TIP3   OH219337   4.769   4.348   5.127 -0.1804  0.8850  0.3245
 6444TIP3    H119338   4.681   4.345   5.090  0.0722 -1.8528 -0.2852
 6444TIP3    H219339   4.820   4.401   5.066 -0.9615  0.8447 -0.3649
 6445TIP3   OH219340   5.208   1.710   0.467 -0.3591 -0.1418 -0.3146
 6445TIP3    H119341   5.226   1.687   0.558  0.0524 -0.4689 -0.4760
 6445TIP3    H219342   5.177   1.800   0.470 -0.1739 -0.0929  0.1315
 6446TIP3   OH219343   4.614   1.520   3.827 -0.5906 -0.3206  0.1686
 6446TIP3    H119344   4.605   1.603   3.781 -0.4713 -0.5998 -0.3640
 6446TIP3    H219345   4.611   1.454   3.758  1.0693 -0.6765  0.3970
 6447TIP3   OH219346   5.502   1.153   2.376 -0.3433 -0.1740  0.3294
 6447TIP3    H119347   5.524   1.106   2.295 -0.8597 -0.9214  0.6116
 6447TIP3    H219348   5.571   1.129   2.437  0.4537  0.9655 -0.0855
 6448TIP3   OH219349   0.502   1.483   4.828 -0.0877 -0.1584  0.3407
 6448TIP3    H119350   0.417   1.473   4.872 -1.4502  0.8372 -1.8793
 6448TIP3    H219351   0.479   1.507   4.738  2.5695 -0.6639 -0.5474
 6449TIP3   OH219352   2.798   0.010   3.797  0.4140 -0.3737 -0.0003
 6449TIP3    H119353   2.869   0.038   3.738 -0.6689  3.6273  0.2600
 6449TIP3    H219354   2.843  -0.034   3.869  2.7313  1.9396  0.1359
 6450TIP3   OH219355   4.008   1.374   0.806 -0.2855  0.1382  0.3509
 6450TIP3    H119356   3.949   1.422   0.747  1.2869  0.9126 -0.6564
 6450TIP3    H219357   4.011   1.427   0.885  0.5290  1.1413 -0.3211
 6451TIP3   OH219358   6.176   2.007   2.259  0.0673  0.0571 -0.0119
 6451TIP3    H119359   6.184   2.098   2.230  1.0191 -0.1677 -0.4969
 6451TIP3    H219360   6.238   1.959   2.204 -0.0794 -0.8132  0.5687
 6452TIP3   OH219361   3.569   1.029   2.975  0.0810 -0.6037  0.4410
 6452TIP3    H119362   3.496   1.018   3.037 -0.4319 -0.0751 -0.0631
 6452TIP3    H219363   3.631   1.085   3.021 -0.3038 -0.2040  0.4767
 6453TIP3   OH219364   6.237   0.461   3.883  0.4488 -0.4158  0.1543
 6453TIP3    H119365   6.274   0.473   3.796  1.1883 -2.3202  0.1575
 6453TIP3    H219366   6.243   0.367   3.899 -1.3123 -0.3449  1.5551
 6454TIP3   OH219367   1.453   4.069   3.838 -0.1391  0.0145  0.2855
 6454TIP3    H119368   1.500   4.132   3.783  0.4146  0.2405  1.0025
 6454TIP3    H219369   1.490   4.081   3.925  1.4072 -2.6352  0.1127
 6455TIP3   OH219370   1.559   5.955   0.459  0.1250 -0.4177 -0.3733
 6455TIP3    H119371   1.542   6.036   0.506  0.5203 -1.2347  1.2712
 6455TIP3    H219372   1.654   5.955   0.445  0.6429 -1.9139  2.3774
 6456TIP3   OH219373   5.424   3.555   3.730  0.8811  0.4038 -0.2413
 6456TIP3    H119374   5.502   3.546   3.675  0.0428 -1.0352 -1.2752
 6456TIP3    H219375   5.351   3.552   3.668 -0.0607  0.1099  0.8427
 6457TIP3   OH219376   4.003   1.422   2.981 -0.0517  0.3626  0.1504
 6457TIP3    H119377   3.936   1.490   2.981  0.8046  1.2261  0.5417
 6457TIP3    H219378   4.085   1.470   2.973  0.5737 -0.6165  0.5945
 6458TIP3   OH219379   4.747   4.625   0.829  0.0893  0.0886 -0.2630
 6458TIP3    H119380   4.677   4.617   0.764  0.3660 -0.2028 -0.5264
 6458TIP3    H219381   4.826   4.642   0.778  0.3237 -0.2258 -0.0142
 6459TIP3   OH219382   0.813   3.973   1.069  0.0580 -0.2079 -0.1754
 6459TIP3    H119383   0.771   4.043   1.018 -1.0028  1.1228  2.3555
 6459TIP3    H219384   0.774   3.892   1.035 -0.3707  0.5768 -1.6366
 6460TIP3   OH219385   6.034   5.634   0.028 -0.3508 -0.5703 -0.0629
 6460TIP3    H119386   6.037   5.667  -0.061 -0.3213 -0.4302 -0.0097
 6460TIP3    H219387   6.086   5.696   0.079  1.2666 -1.6878 -0.2842
 6461TIP3   OH219388   0.199   2.825   1.381  0.8922 -0.2102 -0.4240
 6461TIP3    H119389   0.104   2.832   1.388  0.8054 -0.4206 -1.3286
 6461TIP3    H219390   0.231   2.853   1.467  0.0606  0.6367 -0.3708
 6462TIP3   OH219391   2.523   2.980   0.223  0.3099  0.1592  0.6021
 6462TIP3    H119392   2.578   3.008   0.150  1.0336  1.5297  1.6305
 6462TIP3    H219393   2.584   2.938   0.284 -0.3361 -1.2584  0.3284
 6463TIP3   OH219394   0.780   2.654   0.702 -0.1205  0.1598 -0.3188
 6463TIP3    H119395   0.858   2.676   0.651 -0.6256 -0.6300 -1.4564
 6463TIP3    H219396   0.717   2.621   0.638 -0.7071 -1.0390  0.8238
 6464TIP3   OH219397   5.622   3.714   0.890 -0.1613 -0.2274  0.2290
 6464TIP3    H119398   5.532   3.742   0.902 -0.7434 -1.6533 -0.5338
 6464TIP3    H219399   5.638   3.652   0.961  0.2146 -0.0015  0.3468
 6465TIP3   OH219400   0.285   3.689   3.262 -0.1116  0.1624  0.1861
 6465TIP3    H119401   0.344   3.687   3.187 -0.0427 -0.7200  0.2517
 6465TIP3    H219402   0.314   3.616   3.318  0.2244  1.1729  1.3779
 6466TIP3   OH219403   2.497   0.232   4.850  0.5264  0.2813 -1.0052
 6466TIP3    H119404   2.555   0.300   4.882  1.0872  0.6356 -2.6875
 6466TIP3    H219405   2.410   0.273   4.850  0.7266  0.7134 -1.1939
 6467TIP3   OH219406   1.915   3.723   2.143  0.0390  0.4227 -0.1801
 6467TIP3    H119407   1.841   3.765   2.186  1.6612  2.5834  0.7028
 6467TIP3    H219408   1.924   3.769   2.059  1.8280  1.9950  0.7911
 6468TIP3   OH219409   0.093   3.498   0.444  0.3691  0.2356 -0.2047
 6468TIP3    H119410   0.022   3.439   0.419 -0.5988  1.3976 -0.2498
 6468TIP3    H219411   0.158   3.440   0.485 -0.3445 -0.9257 -0.6461
 6469TIP3   OH219412   5.947   0.631   2.425 -0.4486 -0.9499  0.1613
 6469TIP3    H119413   6.032   0.674   2.428 -1.2094  0.5866  0.4029
 6469TIP3    H219414   5.956   0.557   2.486  0.0615  0.4872  1.9384
 6470TIP3   OH219415   1.342   5.925   3.804 -0.4425  0.4256 -0.2724
 6470TIP3    H119416   1.269   5.981   3.829 -0.2371  0.8969 -0.7013
 6470TIP3    H219417   1.301   5.850   3.760 -0.7266  0.1506  0.4508
 6471TIP3   OH219418   2.361   2.716   3.574 -0.3325  0.0677 -0.3651
 6471TIP3    H119419   2.288   2.764   3.534 -0.3790 -0.4242 -0.8779
 6471TIP3    H219420   2.330   2.625   3.578  0.1683 -0.1022 -0.3718
 6472TIP3   OH219421   2.366   1.976   4.984  0.1221  0.3834  0.1958
 6472TIP3    H119422   2.300   1.930   5.035  0.6952 -0.1361  0.4718
 6472TIP3    H219423   2.446   1.925   4.996  0.8927  1.7036  0.8992
 6473TIP3   OH219424   1.193   5.632   2.098  0.4315  0.3114 -0.7183
 6473TIP3    H119425   1.222   5.722   2.113  0.1075  0.2723  0.2145
 6473TIP3    H219426   1.212   5.587   2.180 -1.7227  0.1492 -0.2643
 6474TIP3   OH219427   4.831   1.597   4.475  0.3733  0.5641 -0.1407
 6474TIP3    H119428   4.865   1.686   4.485 -0.3734  0.7658  0.6472
 6474TIP3    H219429   4.782   1.581   4.555 -0.8871  0.0592 -0.9916
 6475TIP3   OH219430   5.833   3.047   4.906  0.0716 -0.3496 -0.5696
 6475TIP3    H119431   5.867   3.084   4.987  0.9223 -0.6595 -0.7758
 6475TIP3    H219432   5.875   2.962   4.898 -1.2914 -1.0535 -0.4879
 6476TIP3   OH219433   0.174   1.556   0.713  0.0771 -0.3839 -0.0818
 6476TIP3    H119434   0.095   1.543   0.766 -0.1186  0.2383 -0.2147
 6476TIP3    H219435   0.186   1.473   0.667  0.5747 -1.1352  1.3619
 6477TIP3   OH219436   5.666   5.505   0.762  0.1881  0.3200  0.4965
 6477TIP3    H119437   5.707   5.567   0.822 -1.6217  0.3786  1.7335
 6477TIP3    H219438   5.580   5.543   0.744 -0.3649 -1.0864  0.0563
 6478TIP3   OH219439   4.179   1.706   3.679  0.0134  0.7847  0.1072
 6478TIP3    H119440   4.154   1.616   3.660 -1.3913  0.9070  1.2000
 6478TIP3    H219441   4.156   1.755   3.601  0.7089  0.2325 -0.4614
 6479TIP3   OH219442   0.803   2.486   1.244 -0.2927  0.0210 -0.0365
 6479TIP3    H119443   0.801   2.508   1.337  2.2527 -1.1997  0.3919
 6479TIP3    H219444   0.712   2.496   1.215 -0.8488  2.1225  2.1391
 6480TIP3   OH219445   2.362   1.732   0.276 -0.3075  0.4993  0.2734
 6480TIP3    H119446   2.308   1.655   0.293 -0.3172  0.3394 -0.4557
 6480TIP3    H219447   2.392   1.722   0.186 -1.8616  2.2559 -0.5265
 6481TIP3   OH219448   0.304   4.111   2.219 -0.0643  0.7313  0.2713
 6481TIP3    H119449   0.384   4.162   2.204  0.0963  1.2468  2.5110
 6481TIP3    H219450   0.298   4.103   2.314 -0.7259 -2.4559  0.0982
 6482TIP3   OH219451   2.780   4.549   4.061 -0.2600 -0.0141 -0.0293
 6482TIP3    H119452   2.866   4.538   4.100 -0.3724  0.6161  0.4075
 6482TIP3    H219453   2.746   4.629   4.100 -1.6143 -0.9857  0.8698
 6483TIP3   OH219454   0.153   0.389   4.663  0.5205 -0.4417 -0.8200
 6483TIP3    H119455   0.141   0.302   4.624  0.0187  0.3060 -2.4170
 6483TIP3    H219456   0.079   0.440   4.631 -0.8627 -0.1500  2.4404
 6484TIP3   OH219457   0.208   1.902   0.993 -0.0171 -0.3760  0.4202
 6484TIP3    H119458   0.128   1.884   0.943 -0.0665 -2.0807  1.0323
 6484TIP3    H219459   0.180   1.962   1.062 -0.2935  0.7186 -0.6257
 6485TIP3   OH219460   6.041   2.695   3.939  0.3665 -0.0641  0.2530
 6485TIP3    H119461   6.030   2.783   3.977  0.4935 -0.3483  0.9723
 6485TIP3    H219462   5.956   2.653   3.952  0.3280 -0.0722 -0.0262
 6486TIP3   OH219463   1.703   3.424   5.133 -0.2140  0.2609  0.7029
 6486TIP3    H119464   1.619   3.449   5.171 -0.6892  0.1024 -0.2296
 6486TIP3    H219465   1.702   3.461   5.045  0.2131 -0.7079  0.2790
 6487TIP3   OH219466   2.970   1.459   2.450  0.3868  0.2502  0.1331
 6487TIP3    H119467   2.940   1.371   2.429 -0.4610  0.0342  2.0177
 6487TIP3    H219468   2.914   1.517   2.398 -0.5673 -0.2731  0.5479
 6488TIP3   OH219469   4.471   3.067   3.438 -0.6623 -0.3831  0.1941
 6488TIP3    H119470   4.381   3.091   3.417 -0.6930 -0.1812  0.5464
 6488TIP3    H219471   4.497   3.129   3.506  0.3412  0.7265 -1.1418
 6489TIP3   OH219472   4.032   1.795   1.254  1.0925  0.0623  0.5926
 6489TIP3    H119473   4.037   1.888   1.232  1.4044  0.7675  3.3155
 6489TIP3    H219474   4.119   1.761   1.235  1.4469  0.7006  1.0525
 6490TIP3   OH219475   1.786   5.305   4.205 -0.2773  0.4319  0.1766
 6490TIP3    H119476   1.739   5.389   4.207 -2.2485 -0.5505 -1.1584
 6490TIP3    H219477   1.750   5.256   4.279  1.1179  0.8363  1.1612
 6491TIP3   OH219478   1.236   1.215   1.302 -0.1015 -0.0706 -0.2381
 6491TIP3    H119479   1.292   1.166   1.361 -0.8337  0.2536  0.7440
 6491TIP3    H219480   1.177   1.150   1.264  0.5190 -0.3155 -0.8285
 6492TIP3   OH219481   4.920   2.737   4.103  0.0115  0.3030 -0.6908
 6492TIP3    H119482   4.834   2.764   4.134  0.0061 -0.5399  0.0824
 6492TIP3    H219483   4.933   2.650   4.142  1.3226  0.5344 -0.5828
 6493TIP3   OH219484   3.927   3.724   4.740 -0.4151 -0.6748  0.1144
 6493TIP3    H119485   3.917   3.676   4.657  1.6671 -0.4936 -0.2737
 6493TIP3    H219486   3.860   3.685   4.797 -0.0201 -2.7976 -0.7615
 6494TIP3   OH219487   0.507   4.416   4.322 -0.4496  0.1014 -0.5248
 6494TIP3    H119488   0.450   4.342   4.302 -0.5029  0.3029 -1.1691
 6494TIP3    H219489   0.449   4.492   4.318 -0.0802  0.3483 -1.5544
 6495TIP3   OH219490   0.255   4.839   2.297  0.0545 -0.4436 -0.0505
 6495TIP3    H119491   0.253   4.849   2.392 -3.0072  0.1437 -0.0825
 6495TIP3    H219492   0.167   4.861   2.268  0.5490 -1.7258 -2.9421
 6496TIP3   OH219493   6.065   1.496   4.709  0.0160 -0.1099 -0.1492
 6496TIP3    H119494   5.981   1.483   4.665  0.2684  0.3029 -0.7581
 6496TIP3    H219495   6.059   1.584   4.747  0.8454  0.6700 -1.7384
 6497TIP3   OH219496   1.927   4.350   2.042 -0.2684  0.5304 -0.1042
 6497TIP3    H119497   1.866   4.281   2.015 -2.9226  2.5177  0.3381
 6497TIP3    H219498   1.927   4.412   1.969  0.7450  0.8800  0.1755
 6498TIP3   OH219499   4.566   4.692   1.511  0.0997  0.2447 -0.1238
 6498TIP3    H119500   4.521   4.760   1.560  0.7633  1.8149 -1.5986
 6498TIP3    H219501   4.648   4.677   1.559 -0.2905  0.0665  0.4994
 6499TIP3   OH219502   2.687   1.887   3.893 -0.2675  0.1343 -0.4849
 6499TIP3    H119503   2.722   1.966   3.852  0.5965 -0.8041 -1.6476
 6499TIP3    H219504   2.730   1.881   3.978  1.6127 -0.3976 -1.4291
 6500TIP3   OH219505   1.345   2.756   4.030  0.5964  0.1662  0.0601
 6500TIP3    H119506   1.381   2.749   4.118  0.5073 -0.9510  0.0162
 6500TIP3    H219507   1.251   2.767   4.043  0.7345  1.4430  0.1268
 6501TIP3   OH219508   6.228   4.802   2.857  0.0992  0.4467  0.8971
 6501TIP3    H119509   6.244   4.710   2.833 -1.9449  0.3067 -0.1728
 6501TIP3    H219510   6.197   4.842   2.776 -1.3543  1.4784  1.9152
 6502TIP3   OH219511   2.455   3.503   2.397  0.2209 -0.2508 -0.3602
 6502TIP3    H119512   2.447   3.441   2.325 -0.6068  0.8708 -1.2550
 6502TIP3    H219513   2.371   3.498   2.443 -0.5226  1.3777 -1.4413
 6503TIP3   OH219514   1.577   4.211   0.577 -0.2147 -0.0926  0.1782
 6503TIP3    H119515   1.617   4.205   0.664 -0.6773 -0.0371  0.3950
 6503TIP3    H219516   1.650   4.230   0.519  0.5681 -2.7553  0.1725
 6504TIP3   OH219517   3.062   5.903   1.624  0.3974  0.6403  0.1002
 6504TIP3    H119518   2.979   5.942   1.654 -0.8862 -1.9323  0.1937
 6504TIP3    H219519   3.075   5.828   1.682  2.8116  0.9311  0.0335
 6505TIP3   OH219520   2.070   3.175   0.417 -0.2370  0.5762 -0.0540
 6505TIP3    H119521   2.166   3.166   0.415 -0.3277 -0.6609  0.1164
 6505TIP3    H219522   2.055   3.264   0.447  0.8729  0.5602  0.6158
 6506TIP3   OH219523   2.220   2.208   4.327 -0.3556 -0.5230 -0.3252
 6506TIP3    H119524   2.203   2.297   4.296 -1.1576 -0.7638 -0.6086
 6506TIP3    H219525   2.217   2.154   4.247 -1.5291 -1.0223  0.0291
 6507TIP3   OH219526   6.336   4.736   3.513 -0.3264 -0.1694  0.0014
 6507TIP3    H119527   6.320   4.769   3.602  0.9904 -0.1957  0.2706
 6507TIP3    H219528   6.250   4.739   3.471 -1.1750 -1.0511  1.5654
 6508TIP3   OH219529   1.783   0.331   3.182 -0.1878 -0.0748 -0.8238
 6508TIP3    H119530   1.737   0.321   3.266 -2.7172  0.1696 -2.0685
 6508TIP3    H219531   1.712   0.336   3.117  1.5614  2.4210 -2.7274
 6509TIP3   OH219532   0.288   3.124   4.254 -0.2118 -0.0386  0.2471
 6509TIP3    H119533   0.272   3.218   4.243  3.1681  0.3503 -3.1985
 6509TIP3    H219534   0.361   3.120   4.317 -0.4625 -0.3932  0.5175
 6510TIP3   OH219535   3.363   3.590   1.783  0.3153  0.5805 -0.4114
 6510TIP3    H119536   3.305   3.650   1.830  1.1085  0.6000  0.5761
 6510TIP3    H219537   3.355   3.507   1.831  0.2947  0.2878 -0.9153
 6511TIP3   OH219538   4.819   3.111   4.820  0.5880 -0.0590  0.5424
 6511TIP3    H119539   4.900   3.069   4.849  1.2346 -0.5429 -1.8269
 6511TIP3    H219540   4.806   3.182   4.884  2.1943 -0.7101  1.6813
 6512TIP3   OH219541   1.682   5.093   4.931 -0.1751 -0.2779  0.1747
 6512TIP3    H119542   1.696   5.028   5.001  0.0693 -1.0263 -0.5540
 6512TIP3    H219543   1.748   5.160   4.948 -0.3764 -0.2471  0.8920
 6513TIP3   OH219544   5.725   0.825   1.250 -0.1110  0.1327  0.0094
 6513TIP3    H119545   5.638   0.835   1.289 -0.2090  0.0936 -0.1976
 6513TIP3    H219546   5.726   0.888   1.178 -0.5850 -1.0447 -1.0632
 6514TIP3   OH219547   5.939   1.145   5.073  0.1477 -0.3150  0.3789
 6514TIP3    H119548   5.875   1.215   5.065  1.1691  0.5858 -0.1079
 6514TIP3    H219549   5.889   1.070   5.104 -0.7325  0.9794  2.2083
 6515TIP3   OH219550   5.463   3.252   0.164  0.4032 -0.0985  0.1721
 6515TIP3    H119551   5.395   3.191   0.195  0.7924  0.6782  2.8274
 6515TIP3    H219552   5.499   3.210   0.086 -1.1028 -1.9690  0.3952
 6516TIP3   OH219553   3.802   1.050   2.748 -1.0196 -0.1008  0.5389
 6516TIP3    H119554   3.800   1.116   2.678  0.0362 -0.7312 -0.1178
 6516TIP3    H219555   3.756   1.091   2.821 -1.0309  1.0747 -0.0997
 6517TIP3   OH219556   3.717   4.395   3.339 -0.3338 -0.1811 -0.3277
 6517TIP3    H119557   3.794   4.452   3.341  0.6407 -1.4098 -1.1783
 6517TIP3    H219558   3.643   4.455   3.328  0.2234  1.2292  2.4940
 6518TIP3   OH219559   5.966   0.535   2.905  0.0561 -0.1011 -0.1434
 6518TIP3    H119560   6.015   0.616   2.917  0.2966 -0.5533  2.5711
 6518TIP3    H219561   5.885   0.549   2.953 -0.5266 -0.9644 -0.8518
 6519TIP3   OH219562   0.263   3.981   4.517  0.1775 -0.2306  0.0596
 6519TIP3    H119563   0.345   4.008   4.477  2.4306 -4.2057  1.3611
 6519TIP3    H219564   0.220   3.928   4.450  0.8028 -1.5483  0.6490
 6520TIP3   OH219565   4.039   5.926   4.362 -0.4027 -0.1868 -0.3527
 6520TIP3    H119566   4.093   5.937   4.284  0.6554 -2.1744  0.0201
 6520TIP3    H219567   3.949   5.923   4.330 -0.2196  1.6792 -1.1534
 6521TIP3   OH219568   0.564   0.539   2.992  0.3211  0.0005 -0.1259
 6521TIP3    H119569   0.630   0.605   3.014  0.7655 -0.1454 -0.9654
 6521TIP3    H219570   0.603   0.489   2.920 -1.2358  0.8086 -1.6258
 6522TIP3   OH219571   3.091   1.268   4.588  0.2638 -0.7319  0.0295
 6522TIP3    H119572   3.049   1.243   4.670 -1.4638 -0.2912 -0.6716
 6522TIP3    H219573   3.184   1.252   4.603 -0.0930 -1.4329  1.7796
 6523TIP3   OH219574   1.454   0.452   4.243  0.5650 -0.3071 -0.0810
 6523TIP3    H119575   1.467   0.546   4.244  2.7987 -0.5284 -1.3311
 6523TIP3    H219576   1.463   0.424   4.334 -1.0334  0.7331  0.4358
 6524TIP3   OH219577   1.080   3.287   4.306  0.4230 -0.6641 -0.1477
 6524TIP3    H119578   1.097   3.291   4.401 -1.3899 -0.1117  0.1758
 6524TIP3    H219579   1.139   3.353   4.269 -0.2511  0.5176  0.8202
 6525TIP3   OH219580   5.948   4.733   2.286  0.7949  0.0650  0.2783
 6525TIP3    H119581   5.911   4.787   2.356 -2.0375  0.2433 -1.2363
 6525TIP3    H219582   6.038   4.715   2.315  1.0733  3.4732  2.0319
 6526TIP3   OH219583   4.743   2.447   2.821 -0.3965 -0.3117  0.4398
 6526TIP3    H119584   4.657   2.468   2.857 -1.3145  1.6165 -2.4520
 6526TIP3    H219585   4.725   2.379   2.756  0.3246 -0.2694  0.1913
 6527TIP3   OH219586   5.856   5.247   1.363  0.1645 -0.5920  0.3513
 6527TIP3    H119587   5.788   5.301   1.402  0.7278  2.0999 -2.0979
 6527TIP3    H219588   5.864   5.172   1.422 -3.1728  0.1872  2.0016
 6528TIP3   OH219589   5.944   3.177   4.708 -0.2101 -0.2180  0.6109
 6528TIP3    H119590   5.961   3.267   4.737  1.9208 -0.0888 -0.8396
 6528TIP3    H219591   5.898   3.137   4.782 -1.6007  2.1461  1.1267
 6529TIP3   OH219592   5.446   1.103   3.535 -0.1119 -0.1802  0.7304
 6529TIP3    H119593   5.445   1.169   3.467  0.7953  0.2521  1.1166
 6529TIP3    H219594   5.363   1.056   3.525  0.0075 -0.1322 -0.6612
 6530TIP3   OH219595   3.821   1.577   4.332 -0.2197 -0.1126  0.0544
 6530TIP3    H119596   3.897   1.634   4.335  0.2807 -0.7585 -0.1561
 6530TIP3    H219597   3.746   1.637   4.326  0.3471  0.5061 -1.1795
 6531TIP3   OH219598   2.320   1.952   4.458  0.0863  0.1673 -0.2889
 6531TIP3    H119599   2.268   2.019   4.415 -1.0366  0.2788  1.1835
 6531TIP3    H219600   2.335   1.986   4.546  1.7199 -0.3732 -0.3170
 6532TIP3   OH219601   0.724   1.345   0.734 -0.6376  0.0227 -0.0222
 6532TIP3    H119602   0.776   1.300   0.801  0.1740  0.5975 -0.2455
 6532TIP3    H219603   0.638   1.356   0.774 -0.7531 -1.3673  0.1800
 6533TIP3   OH219604   0.553   5.008   0.262 -0.4772 -0.2347  0.2133
 6533TIP3    H119605   0.618   4.954   0.217  0.6177  1.2279 -0.0277
 6533TIP3    H219606   0.478   5.008   0.203 -0.1607 -0.7374 -0.2032
 6534TIP3   OH219607   5.382   1.392   2.145 -0.5387 -0.4655 -0.5443
 6534TIP3    H119608   5.432   1.433   2.216  0.7215 -0.6722 -1.2818
 6534TIP3    H219609   5.434   1.408   2.067 -1.3392 -1.2264 -1.2568
 6535TIP3   OH219610   2.991   3.080   2.274 -0.5649 -0.1192  0.6491
 6535TIP3    H119611   2.942   3.014   2.224 -0.4016  1.5684 -1.9447
 6535TIP3    H219612   2.964   3.067   2.364 -3.5210 -1.1780 -0.2836
 6536TIP3   OH219613   2.721   4.089   4.728  0.1061  0.0819 -0.6598
 6536TIP3    H119614   2.653   4.127   4.784  1.4934  2.4353 -0.4379
 6536TIP3    H219615   2.672   4.039   4.662 -1.7942  0.9357  0.0311
 6537TIP3   OH219616   2.549   0.755   4.735 -0.1581  0.2985  0.2209
 6537TIP3    H119617   2.630   0.794   4.768 -0.3967  0.2585  0.8521
 6537TIP3    H219618   2.479   0.798   4.783 -0.4974  0.0755 -0.0662
 6538TIP3   OH219619   4.408   0.951   2.763 -0.7233 -0.2544  0.1241
 6538TIP3    H119620   4.469   0.991   2.701  0.4933  0.6209  1.7841
 6538TIP3    H219621   4.433   0.859   2.766 -2.6077 -0.9858 -2.6628
 6539TIP3   OH219622   2.648   0.217   3.145 -0.0050  0.0651  0.4304
 6539TIP3    H119623   2.713   0.156   3.112  0.5664  1.6274 -1.5424
 6539TIP3    H219624   2.693   0.264   3.215  2.1166  2.9185 -2.5550
 6540TIP3   OH219625   0.245   3.970   3.264 -0.0701 -0.0339 -0.0109
 6540TIP3    H119626   0.159   3.984   3.303  0.1866  0.4925  0.3963
 6540TIP3    H219627   0.263   3.877   3.277  0.6327  0.3777  2.5120
 6541TIP3   OH219628   5.931   5.526   3.692  0.1134  0.0486 -0.1955
 6541TIP3    H119629   5.959   5.546   3.603  1.6991 -0.1760  0.2330
 6541TIP3    H219630   5.922   5.611   3.734 -0.7796  0.1629 -0.5910
 6542TIP3   OH219631   0.268   1.638   1.635 -0.6860 -0.3797 -0.6670
 6542TIP3    H119632   0.245   1.645   1.727  0.6925 -0.8968 -0.2629
 6542TIP3    H219633   0.201   1.582   1.598 -0.4538 -1.3600  0.3447
 6543TIP3   OH219634   2.134   4.142   1.836  0.4366  0.3814 -1.4154
 6543TIP3    H119635   2.202   4.078   1.813  0.3545 -0.8600  1.3780
 6543TIP3    H219636   2.065   4.089   1.876  0.7033  2.1830  1.7537
 6544TIP3   OH219637   0.389   2.331   2.894  0.4736 -0.2510  0.4013
 6544TIP3    H119638   0.414   2.287   2.975  2.0948  1.3820  0.8718
 6544TIP3    H219639   0.426   2.276   2.824 -1.0444 -1.7334  0.7066
 6545TIP3   OH219640   2.589   3.282   1.908  0.1001 -0.4909  0.0158
 6545TIP3    H119641   2.540   3.253   1.831  0.3160  1.6305 -0.9924
 6545TIP3    H219642   2.558   3.371   1.924  2.4282  0.3458  0.3174
 6546TIP3   OH219643   3.152   1.584   4.747 -0.1440  0.6983  0.1924
 6546TIP3    H119644   3.165   1.536   4.666  0.8074  1.4447 -0.1163
 6546TIP3    H219645   3.058   1.582   4.761 -0.2403 -0.1348 -0.4941
 6547TIP3   OH219646   4.181   2.914   3.627 -0.0566  0.7419 -0.0121
 6547TIP3    H119647   4.183   2.993   3.574  0.6230 -0.1046 -1.2915
 6547TIP3    H219648   4.273   2.887   3.634 -0.3107 -0.1310  0.1064
 6548TIP3   OH219649   4.787   1.912   5.119 -0.5288 -0.1838 -0.1927
 6548TIP3    H119650   4.789   1.897   5.025 -1.7737 -0.4816 -0.1940
 6548TIP3    H219651   4.865   1.964   5.137  0.0220 -0.6022 -1.2970
 6549TIP3   OH219652   1.308   0.179   2.535  0.3216  0.9315 -0.0545
 6549TIP3    H119653   1.349   0.220   2.459 -0.2207  0.7516 -0.4455
 6549TIP3    H219654   1.227   0.140   2.502  0.3790  0.3252  0.4952
 6550TIP3   OH219655   0.834   1.392   3.320  0.2714 -0.3020 -0.2509
 6550TIP3    H119656   0.751   1.399   3.274  0.1133  1.6997  0.2377
 6550TIP3    H219657   0.810   1.379   3.412  0.5307 -1.0793 -0.2876
 6551TIP3   OH219658   5.835   2.232   2.726  0.0826  0.2786 -0.1669
 6551TIP3    H119659   5.743   2.228   2.750 -0.2811  2.9561 -0.7986
 6551TIP3    H219660   5.847   2.320   2.690  2.4668 -0.6333 -1.8995
 6552TIP3   OH219661   3.569   3.036   2.720  0.2229  0.3072  0.1195
 6552TIP3    H119662   3.533   3.028   2.631  0.6501  1.1049 -0.1384
 6552TIP3    H219663   3.492   3.034   2.776 -0.0249 -0.6388 -0.2269
 6553TIP3   OH219664   3.409   0.815   3.296 -0.4547  0.0733 -0.2710
 6553TIP3    H119665   3.394   0.723   3.278  0.4187  0.0647 -1.0799
 6553TIP3    H219666   3.503   0.820   3.318 -0.4437  0.7874 -0.4498
 6554TIP3   OH219667   4.061   2.231   0.166 -0.0930 -0.0064  0.2432
 6554TIP3    H119668   4.057   2.171   0.241  1.8874 -1.3701 -0.6587
 6554TIP3    H219669   3.988   2.205   0.111 -0.5435 -0.1353  0.8891
 6555TIP3   OH219670   2.489   2.797   1.699  0.1218 -0.0832 -0.0626
 6555TIP3    H119671   2.407   2.750   1.687  0.2904 -0.2525 -0.6016
 6555TIP3    H219672   2.465   2.876   1.748 -0.0971 -0.9065  1.1892
 6556TIP3   OH219673   5.123   0.390   0.882 -0.2079  0.5517  0.6976
 6556TIP3    H119674   5.165   0.402   0.967  2.4306  1.8389 -0.6496
 6556TIP3    H219675   5.136   0.473   0.836 -2.5571  0.2982 -0.6082
 6557TIP3   OH219676   1.596   3.825   0.547  0.0018  0.2774  0.0509
 6557TIP3    H119677   1.584   3.789   0.635  2.0496 -0.1191  0.2178
 6557TIP3    H219678   1.691   3.828   0.535 -0.2087  1.6601 -1.6129
 6558TIP3   OH219679   1.480   3.894   4.568  0.0364 -0.3389  0.0456
 6558TIP3    H119680   1.573   3.887   4.588  0.2762  0.3982 -0.7458
 6558TIP3    H219681   1.451   3.970   4.619  0.1979  0.3008 -0.7945
 6559TIP3   OH219682   5.976   1.767   3.382 -0.1621  0.5917 -0.1146
 6559TIP3    H119683   5.988   1.727   3.295 -0.4615  0.5837 -0.1526
 6559TIP3    H219684   5.905   1.830   3.370 -0.5806  0.1913  0.2571
 6560TIP3   OH219685   2.231   1.976   0.361 -0.5664  0.0301  0.4513
 6560TIP3    H119686   2.150   1.973   0.411 -1.7951  1.9445 -1.2653
 6560TIP3    H219687   2.254   1.884   0.347 -1.7042 -0.5390  2.0718
 6561TIP3   OH219688   5.997   4.211   4.225 -0.2514 -0.0772 -1.0139
 6561TIP3    H119689   5.958   4.277   4.168 -0.4769 -0.3367 -1.1598
 6561TIP3    H219690   5.924   4.175   4.274 -0.0472  0.1932 -0.5079
 6562TIP3   OH219691   0.878   4.429   2.344  0.4341 -0.0640 -0.1883
 6562TIP3    H119692   0.817   4.355   2.342  0.9753 -0.5035 -0.4883
 6562TIP3    H219693   0.956   4.398   2.298  0.1904  1.1180 -1.4699
 6563TIP3   OH219694   5.390   1.122   2.765  0.9325 -0.1814  0.4103
 6563TIP3    H119695   5.324   1.181   2.729  2.5293  0.6841 -1.2308
 6563TIP3    H219696   5.452   1.180   2.810  1.4313 -0.7971  0.5335
 6564TIP3   OH219697   0.312   3.843   0.306 -0.1812 -0.8138 -0.0430
 6564TIP3    H119698   0.248   3.883   0.365 -1.9727 -3.2475 -0.1201
 6564TIP3    H219699   0.315   3.901   0.230 -0.4309  0.6240  1.0164
 6565TIP3   OH219700   1.960   4.471   0.999 -0.3146  0.0905  0.1252
 6565TIP3    H119701   1.948   4.566   1.009  0.7119  0.2593 -0.1143
 6565TIP3    H219702   2.037   4.463   0.943 -0.1695 -0.8958  0.4575
 6566TIP3   OH219703   5.616   4.067   4.890  0.1267  0.8104  0.1658
 6566TIP3    H119704   5.658   4.030   4.968 -0.8810  0.3193  0.4933
 6566TIP3    H219705   5.547   4.005   4.869  0.1082  1.1680 -0.8709
 6567TIP3   OH219706   5.836   0.625   3.694 -0.2143  0.1086 -0.2525
 6567TIP3    H119707   5.891   0.682   3.640 -0.0722  0.1825 -0.0303
 6567TIP3    H219708   5.859   0.647   3.784  0.2731 -0.7181 -0.1677
 6568TIP3   OH219709   0.192   2.288   3.178 -0.4240 -0.2010  0.1679
 6568TIP3    H119710   0.237   2.304   3.261  2.0082 -1.5930 -0.7774
 6568TIP3    H219711   0.205   2.368   3.127 -2.6190  0.9812  1.3136
 6569TIP3   OH219712   1.226   3.989   0.913 -0.0105 -0.1637 -0.1107
 6569TIP3    H119713   1.304   3.957   0.959  0.9695  1.9837 -0.1251
 6569TIP3    H219714   1.152   3.961   0.967  0.9868  0.4395  1.6416
 6570TIP3   OH219715   4.171   0.891   4.122  0.1169 -0.1228  0.3164
 6570TIP3    H119716   4.260   0.924   4.127  0.0732 -0.2149  4.4133
 6570TIP3    H219717   4.180   0.797   4.112  0.4617 -0.1487  0.8947
 6571TIP3   OH219718   2.122   1.572   4.061 -0.2931  0.2639 -0.4805
 6571TIP3    H119719   2.125   1.641   3.995  0.5190 -0.4627 -1.2283
 6571TIP3    H219720   2.081   1.497   4.016 -0.8380  0.1335  0.2087
 6572TIP3   OH219721   1.220   0.697   0.182  0.5035  0.3711  0.0328
 6572TIP3    H119722   1.173   0.616   0.199  0.3450  0.1552 -1.3010
 6572TIP3    H219723   1.236   0.734   0.269 -1.8494  0.3240  0.5470
 6573TIP3   OH219724   2.673   4.296   4.016 -0.8522 -0.8684  0.0249
 6573TIP3    H119725   2.712   4.263   4.097  0.0715 -2.1886 -0.9201
 6573TIP3    H219726   2.696   4.389   4.014 -0.4668 -0.9338  1.0219
 6574TIP3   OH219727   5.641   3.430   4.640  0.3511 -0.2261 -0.1942
 6574TIP3    H119728   5.688   3.422   4.723  0.6121  1.6040 -0.1305
 6574TIP3    H219729   5.681   3.506   4.597 -3.1180  2.0632  0.2795
 6575TIP3   OH219730   0.557   5.241   4.791 -0.2815 -0.6073 -0.7020
 6575TIP3    H119731   0.609   5.244   4.711  0.9677  1.0539  0.1148
 6575TIP3    H219732   0.598   5.174   4.845  1.0666  0.6563 -0.0828
 6576TIP3   OH219733   3.464   0.591   4.791  0.3079  0.1232  0.0545
 6576TIP3    H119734   3.404   0.607   4.718 -0.3713 -0.6941  0.4200
 6576TIP3    H219735   3.407   0.572   4.865  0.9228  2.3511  1.2109
 6577TIP3   OH219736   3.144   2.870   1.456 -0.1503  0.3953  0.0065
 6577TIP3    H119737   3.164   2.778   1.441 -0.2979  0.2171  0.8541
 6577TIP3    H219738   3.056   2.882   1.420 -1.0098 -0.3243  1.7550
 6578TIP3   OH219739   4.406   4.097   3.571 -0.0140 -0.1812 -0.1478
 6578TIP3    H119740   4.430   4.189   3.562 -0.8636  0.1422  0.6752
 6578TIP3    H219741   4.488   4.050   3.562  0.5796  0.7213  0.3442
 6579TIP3   OH219742   1.911   3.232   0.153 -0.5838 -0.3524 -0.2281
 6579TIP3    H119743   1.972   3.167   0.188  0.2443  0.1393 -0.7413
 6579TIP3    H219744   1.918   3.223   0.058 -0.9968  0.0009 -0.2946
 6580TIP3   OH219745   1.306   4.477   0.187 -0.0728 -0.0358  0.2700
 6580TIP3    H119746   1.337   4.560   0.150 -0.8753 -1.0499 -2.9523
 6580TIP3    H219747   1.375   4.414   0.165  0.1388 -0.4536  1.9647
 6581TIP3   OH219748   2.828   2.214   2.229  0.1309  0.0613  0.1231
 6581TIP3    H119749   2.755   2.168   2.187  0.2852  0.9616 -1.1912
 6581TIP3    H219750   2.870   2.148   2.284 -1.0921 -0.7237  0.1503
 6582TIP3   OH219751   3.063   3.467   5.087 -0.3393  0.0282  0.3675
 6582TIP3    H119752   3.144   3.501   5.048 -2.0531  0.9024 -2.7644
 6582TIP3    H219753   3.048   3.523   5.163  1.7418  0.0707  0.8255
 6583TIP3   OH219754   3.251   1.012   1.559  0.0133 -0.1342 -0.3391
 6583TIP3    H119755   3.162   0.991   1.586 -0.9919  1.2051 -2.3581
 6583TIP3    H219756   3.279   0.936   1.507 -0.1668 -0.3260 -0.1527
 6584TIP3   OH219757   0.719   2.712   3.688 -0.4772 -0.1020 -0.4852
 6584TIP3    H119758   0.700   2.670   3.604  1.0632 -0.0504 -0.8900
 6584TIP3    H219759   0.655   2.675   3.748 -0.3846 -1.5915 -1.2569
 6585TIP3   OH219760   4.134   0.633   0.219  0.1413  0.2269 -0.0625
 6585TIP3    H119761   4.088   0.716   0.206 -0.2143 -0.0606 -0.6791
 6585TIP3    H219762   4.143   0.596   0.131 -0.9276 -1.0463  0.3342
 6586TIP3   OH219763   4.095   5.272   3.222 -0.2915  0.7314 -0.0275
 6586TIP3    H119764   4.014   5.300   3.180 -0.7122 -0.1849  0.1538
 6586TIP3    H219765   4.100   5.178   3.204 -0.5246  0.2921  2.0446
 6587TIP3   OH219766   3.632   4.827   2.054  0.1705  0.2639  0.3678
 6587TIP3    H119767   3.540   4.852   2.040  0.3574  0.4748 -0.5065
 6587TIP3    H219768   3.680   4.876   1.987  0.7806 -0.7980  0.0249
 6588TIP3   OH219769   1.186   1.559   0.876  0.5217  0.3565  0.7235
 6588TIP3    H119770   1.133   1.621   0.827 -0.0255 -0.7195 -0.1084
 6588TIP3    H219771   1.251   1.612   0.922  0.8129  1.4328 -0.8751
 6589TIP3   OH219772   3.036   2.353   1.223  0.6222 -0.2144  0.0782
 6589TIP3    H119773   3.083   2.427   1.261 -0.0648 -0.3097  1.1564
 6589TIP3    H219774   3.091   2.277   1.244  0.9647 -0.0972 -0.3916
 6590TIP3   OH219775   0.477   4.032   4.875 -0.0924  0.2641  0.0052
 6590TIP3    H119776   0.446   3.953   4.831 -0.8441  1.1523 -1.1404
 6590TIP3    H219777   0.503   4.003   4.962 -0.9669 -1.1272 -0.1665
 6591TIP3   OH219778   0.198   4.988   1.032  0.5041 -0.0157 -0.1834
 6591TIP3    H119779   0.278   4.994   1.084 -0.0708  0.0133  0.7178
 6591TIP3    H219780   0.178   4.895   1.029 -0.9061  0.1626  1.9371
 6592TIP3   OH219781   3.562   1.506   3.278 -0.1502  0.6183 -0.2273
 6592TIP3    H119782   3.569   1.478   3.186  0.3095 -0.3706  0.0925
 6592TIP3    H219783   3.468   1.514   3.294 -0.2440  0.4606 -0.6851
 6593TIP3   OH219784   3.882   2.180   0.417 -0.0547  0.2552 -0.5297
 6593TIP3    H119785   3.834   2.130   0.483 -0.6810  0.6092 -0.7044
 6593TIP3    H219786   3.897   2.265   0.457  0.4308  0.1516 -0.4807
 6594TIP3   OH219787   1.215   0.569   3.733 -0.2297  0.2351  0.0855
 6594TIP3    H119788   1.232   0.545   3.824 -1.2752 -2.2530 -0.2876
 6594TIP3    H219789   1.120   0.562   3.723 -0.2160  1.3057 -1.0012
 6595TIP3   OH219790   0.990   1.366   1.779 -0.3446 -0.6550  0.1648
 6595TIP3    H119791   0.988   1.370   1.683  1.4637 -2.5035 -0.0125
 6595TIP3    H219792   0.965   1.454   1.807  3.0826  1.2801 -2.1078
 6596TIP3   OH219793   1.860   2.218   0.310  0.1210 -0.3218 -0.2863
 6596TIP3    H119794   1.916   2.294   0.324  1.9408 -1.3753 -1.3493
 6596TIP3    H219795   1.771   2.253   0.306  0.7079  1.4958  0.9826
 6597TIP3   OH219796   3.247   5.571   0.777 -0.1312  0.0756 -0.4727
 6597TIP3    H119797   3.199   5.517   0.715 -0.0592 -0.3693 -0.1468
 6597TIP3    H219798   3.220   5.539   0.863  3.5857 -2.9482 -0.1392
 6598TIP3   OH219799   3.926   2.205   3.470  0.1423 -0.2383 -0.3601
 6598TIP3    H119800   3.943   2.185   3.562 -1.0184  0.6440  0.0758
 6598TIP3    H219801   3.851   2.150   3.448 -0.8977  1.0643 -0.1504
 6599TIP3   OH219802   3.714   3.133   1.397  0.0575  0.1714 -0.1068
 6599TIP3    H119803   3.669   3.202   1.348  0.4215  0.0185 -0.6591
 6599TIP3    H219804   3.650   3.062   1.403 -0.0553  0.2666 -0.1895
 6600TIP3   OH219805   0.205   0.507   2.252 -0.3567 -0.0123 -0.0874
 6600TIP3    H119806   0.123   0.512   2.202 -1.3210 -1.4898  1.2620
 6600TIP3    H219807   0.187   0.556   2.332  0.7170  1.1733 -0.5329
 6601TIP3   OH219808   4.250   0.023   0.494 -0.1994 -0.1413 -0.0195
 6601TIP3    H119809   4.260   0.117   0.503 -0.6540 -0.1755  1.0029
 6601TIP3    H219810   4.284  -0.013   0.576  0.9360 -0.9509 -0.8194
 6602TIP3   OH219811   1.542   3.647   2.660  0.1519  0.6725 -0.6170
 6602TIP3    H119812   1.552   3.711   2.589  2.2071  1.3340  0.2039
 6602TIP3    H219813   1.605   3.578   2.639  1.1110  1.0894  0.7393
 6603TIP3   OH219814   0.440   3.816   1.241 -0.0547 -0.0001 -0.3427
 6603TIP3    H119815   0.457   3.738   1.188  0.4170  0.6660 -1.2083
 6603TIP3    H219816   0.388   3.785   1.315 -1.5072 -0.8112 -1.6583
 6604TIP3   OH219817   5.091   5.797   2.862 -0.5983  0.6361 -0.3854
 6604TIP3    H119818   5.020   5.764   2.806 -0.1296  1.2393 -1.3727
 6604TIP3    H219819   5.096   5.890   2.841  0.4378  0.6159 -0.2850
 6605TIP3   OH219820   4.757   1.491   4.966  0.0583 -0.2892 -0.6164
 6605TIP3    H119821   4.692   1.546   5.010 -0.3526 -0.8586 -0.4931
 6605TIP3    H219822   4.840   1.513   5.008 -0.2280 -0.3562 -0.0001
 6606TIP3   OH219823   5.313   5.398   1.625  0.0108  0.0149 -0.6538
 6606TIP3    H119824   5.335   5.326   1.566  0.6770  0.4858 -0.9915
 6606TIP3    H219825   5.316   5.359   1.713 -1.4234 -0.7949 -0.9420
 6607TIP3   OH219826   0.766   5.465   2.525  0.3041 -0.1315  0.6409
 6607TIP3    H119827   0.719   5.541   2.562 -0.1659  0.9985 -2.0564
 6607TIP3    H219828   0.698   5.400   2.509 -0.2541  0.9512 -1.8943
 6608TIP3   OH219829   2.849   0.051   4.220  0.1730  0.3189 -0.0960
 6608TIP3    H119830   2.850  -0.006   4.143 -1.9659 -0.0528  0.0815
 6608TIP3    H219831   2.936   0.041   4.259  0.6756 -0.9000 -1.4415
 6609TIP3   OH219832   4.395   1.540   1.264 -0.1753  0.0324  0.4006
 6609TIP3    H119833   4.465   1.604   1.263 -0.5216  0.4158  0.1817
 6609TIP3    H219834   4.329   1.576   1.204 -1.0309  0.2114  1.4108
 6610TIP3   OH219835   2.998   1.049   1.226 -0.4294  0.4746 -0.5762
 6610TIP3    H119836   2.924   1.075   1.172  0.3606 -0.5782 -2.2212
 6610TIP3    H219837   3.030   0.968   1.188 -0.6905 -1.1532  2.3392
 6611TIP3   OH219838   4.839   3.780   3.906  0.0037  0.4375  0.7106
 6611TIP3    H119839   4.934   3.771   3.902  0.0947  1.4667 -0.1867
 6611TIP3    H219840   4.810   3.757   3.818 -0.2828  2.6947  0.1538
 6612TIP3   OH219841   5.417   5.968   2.252  0.2502  0.3693  0.1231
 6612TIP3    H119842   5.407   5.881   2.291 -0.0995  1.1265  1.8320
 6612TIP3    H219843   5.328   6.003   2.249  0.3522  0.5721 -0.8280
 6613TIP3   OH219844   2.129   3.013   1.582 -0.5587 -0.5189  0.1422
 6613TIP3    H119845   2.122   3.107   1.567  0.7958 -0.1083  1.7681
 6613TIP3    H219846   2.039   2.985   1.602 -0.9640  0.4250 -0.3128
 6614TIP3   OH219847   1.598   2.963   0.285 -0.1275 -0.0239 -0.1359
 6614TIP3    H119848   1.679   2.998   0.322 -0.6794  0.7690  0.3415
 6614TIP3    H219849   1.627   2.906   0.213  0.9262 -1.0491  1.0614
 6615TIP3   OH219850   1.518   3.837   1.517  0.2808  0.2784  0.1194
 6615TIP3    H119851   1.563   3.805   1.595 -2.6674  0.4844  2.0605
 6615TIP3    H219852   1.509   3.759   1.461  2.1822  0.0710  0.0449
 6616TIP3   OH219853   2.650   2.777   4.431  0.2835  0.4478  0.2528
 6616TIP3    H119854   2.595   2.814   4.500  0.1251  0.0771  0.3256
 6616TIP3    H219855   2.697   2.853   4.395 -2.0024  1.1652 -1.4321
 6617TIP3   OH219856   3.055   4.995   0.868 -0.0384 -0.0235 -0.4545
 6617TIP3    H119857   3.123   4.932   0.847  0.7244  0.5343  0.2915
 6617TIP3    H219858   2.983   4.942   0.904  0.6979 -0.4420  0.4300
 6618TIP3   OH219859   1.846   0.272   4.684  0.1298  0.0168  0.0609
 6618TIP3    H119860   1.867   0.344   4.624  2.2828 -0.9173 -0.4012
 6618TIP3    H219861   1.767   0.301   4.730 -0.5787  1.5155 -1.9721
 6619TIP3   OH219862   5.421   5.896   0.542  0.4176 -0.0847  0.0192
 6619TIP3    H119863   5.458   5.823   0.492 -1.6194 -0.6127 -0.8429
 6619TIP3    H219864   5.426   5.867   0.633  2.2142 -0.0337 -0.0227
 6620TIP3   OH219865   5.214   2.038   4.749 -0.3661 -0.2587  0.1295
 6620TIP3    H119866   5.225   2.020   4.842  0.0981 -0.1948  0.0885
 6620TIP3    H219867   5.120   2.054   4.739 -0.5309 -1.0121  0.4531
 6621TIP3   OH219868   3.296   5.561   2.085  0.4582  0.6387 -0.5186
 6621TIP3    H119869   3.284   5.646   2.041 -0.7816  0.3652 -0.7509
 6621TIP3    H219870   3.390   5.547   2.084  0.6505  1.8124 -0.8702
 6622TIP3   OH219871   4.244   5.991   1.395 -0.3103 -0.4833  0.5093
 6622TIP3    H119872   4.244   5.898   1.370 -0.2490 -0.4735  0.4714
 6622TIP3    H219873   4.273   5.990   1.487  2.6077 -0.3084 -0.2907
 6623TIP3   OH219874   6.242   5.690   5.187 -0.2785 -0.4503  0.7412
 6623TIP3    H119875   6.291   5.609   5.172  1.0633  0.4232  0.2634
 6623TIP3    H219876   6.167   5.684   5.127  1.1805 -0.2393 -1.2360
 6624TIP3   OH219877   1.947   3.516   3.942 -0.3197 -0.4610  0.0577
 6624TIP3    H119878   1.896   3.498   3.863  1.2826 -0.4524 -1.0306
 6624TIP3    H219879   2.003   3.590   3.918 -0.7882  0.4744  1.6847
 6625TIP3   OH219880   0.473   0.621   3.349 -0.2799  0.7050  0.3612
 6625TIP3    H119881   0.568   0.632   3.343 -0.0998  0.4982  2.4108
 6625TIP3    H219882   0.441   0.707   3.377 -0.5409  0.4000  1.0146
 6626TIP3   OH219883   3.151   0.188   0.211  0.0694  0.3391  0.1189
 6626TIP3    H119884   3.244   0.207   0.195  0.1318  0.0196  0.0873
 6626TIP3    H219885   3.151   0.099   0.246 -0.3279 -0.1713 -1.1287
 6627TIP3   OH219886   2.737   4.217   1.824 -0.6366  0.2719 -0.3743
 6627TIP3    H119887   2.816   4.164   1.837 -0.5853  0.3964 -0.1726
 6627TIP3    H219888   2.735   4.233   1.729 -0.1635  0.6523 -0.3294
 6628TIP3   OH219889   3.055   0.684   1.345 -0.3596  0.3295  0.0259
 6628TIP3    H119890   3.012   0.764   1.315  0.0654  0.7501  0.5223
 6628TIP3    H219891   2.990   0.615   1.330 -0.3694  0.6006 -1.3323
 6629TIP3   OH219892   4.334   0.351   4.256  0.3065  0.0121 -0.5034
 6629TIP3    H119893   4.402   0.286   4.241  1.1193  0.7045  0.0558
 6629TIP3    H219894   4.303   0.374   4.168 -1.1755 -2.2751 -0.6729
 6630TIP3   OH219895   1.398   2.592   1.381  0.1381  0.1407 -0.2083
 6630TIP3    H119896   1.428   2.507   1.351  1.2608  0.7903 -0.9902
 6630TIP3    H219897   1.325   2.614   1.324 -0.4408 -0.4836  0.2836
 6631TIP3   OH219898   1.209   0.241   0.416 -0.6518 -0.2507  0.1285
 6631TIP3    H119899   1.268   0.187   0.363 -0.9204  0.8373 -1.3220
 6631TIP3    H219900   1.134   0.184   0.434 -0.0614 -0.9949  0.3333
 6632TIP3   OH219901   2.968   3.688   4.194 -0.4543  0.1032 -0.0696
 6632TIP3    H119902   2.936   3.700   4.105 -0.8801 -0.0011  0.0629
 6632TIP3    H219903   3.024   3.611   4.189  0.0832  0.5129 -0.3828
 6633TIP3   OH219904   4.254   4.221   0.363  0.7781  0.0208 -0.4572
 6633TIP3    H119905   4.208   4.140   0.383 -2.2980  1.4762 -1.1510
 6633TIP3    H219906   4.276   4.258   0.449  0.2619 -0.4994 -0.0966
 6634TIP3   OH219907   2.549   3.620   0.150  0.4418 -0.2994 -0.4232
 6634TIP3    H119908   2.578   3.635   0.060 -0.3459  0.3216 -0.5830
 6634TIP3    H219909   2.507   3.534   0.147  0.4831 -0.3135 -0.6394
 6635TIP3   OH219910   4.999   2.835   1.485 -0.3762 -0.6403 -0.2922
 6635TIP3    H119911   4.953   2.824   1.568  1.1341  0.7568  0.7944
 6635TIP3    H219912   4.934   2.876   1.428 -1.7792 -2.5934 -0.2178
 6636TIP3   OH219913   2.544   6.002   3.906  0.1380 -0.5618 -0.5993
 6636TIP3    H119914   2.487   5.928   3.885 -0.3094 -0.4385  0.1403
 6636TIP3    H219915   2.622   5.962   3.944  0.4094 -0.7131 -1.3032
 6637TIP3   OH219916   5.912   0.425   0.326 -0.0956 -0.0911  0.3923
 6637TIP3    H119917   5.921   0.330   0.334 -2.2181 -0.5375 -1.4112
 6637TIP3    H219918   6.002   0.458   0.328  0.7331 -2.1858  0.4775
 6638TIP3   OH219919   2.448   4.828   1.626  0.1894  0.6716 -0.3098
 6638TIP3    H119920   2.475   4.786   1.708  0.0836 -0.0898 -0.6495
 6638TIP3    H219921   2.516   4.803   1.563 -0.1051  0.6492 -0.6230
 6639TIP3   OH219922   1.576   0.896   4.607  0.3877  0.1158  0.3167
 6639TIP3    H119923   1.511   0.919   4.673 -0.6507  0.2615 -0.7291
 6639TIP3    H219924   1.541   0.930   4.525  2.0845  0.7383 -0.1894
 6640TIP3   OH219925   0.827   0.242   1.098 -0.0564 -0.9169 -0.7962
 6640TIP3    H119926   0.824   0.150   1.122 -0.4402 -0.7117 -0.0091
 6640TIP3    H219927   0.893   0.247   1.029  0.0916 -1.7509 -0.7261
   6.34701   5.98401   5.18231   0.00000   0.00000  -2.11567   0.00000  -2.11567  -2.99202
