Title t=  48.00000 step= 24000
29212
    1ASP      N    1   2.094   3.099   4.902
    1ASP    HT1    2   2.098   3.032   4.981
    1ASP    HT2    3   2.044   3.172   4.956
    1ASP    HT3    4   2.191   3.134   4.883
    1ASP     CA    5   2.021   3.041   4.787
    1ASP     HA    6   1.966   2.952   4.818
    1ASP     CB    7   1.908   3.140   4.734
    1ASP    HB1    8   1.867   3.099   4.640
    1ASP    HB2    9   1.954   3.241   4.726
    1ASP     CG   10   1.800   3.142   4.836
    1ASP    OD1   11   1.760   3.023   4.862
    1ASP    OD2   12   1.773   3.243   4.900
    1ASP      C   13   2.122   2.989   4.679
    1ASP      O   14   2.211   2.902   4.696
    2GLY      N   15   2.107   3.044   4.553
    2GLY     HN   16   2.036   3.113   4.540
    2GLY     CA   17   2.208   3.021   4.445
    2GLY    HA1   18   2.180   3.061   4.348
    2GLY    HA2   19   2.215   2.913   4.438
    2GLY      C   20   2.348   3.078   4.467
    2GLY      O   21   2.359   3.176   4.545
    3ASP      N   22   2.455   3.019   4.405
    3ASP     HN   23   2.436   2.933   4.358
    3ASP     CA   24   2.592   3.075   4.404
    3ASP     HA   25   2.619   3.090   4.507
    3ASP     CB   26   2.695   2.981   4.344
    3ASP    HB1   27   2.795   3.029   4.343
    3ASP    HB2   28   2.654   2.960   4.243
    3ASP     CG   29   2.699   2.853   4.423
    3ASP    OD1   30   2.684   2.852   4.545
    3ASP    OD2   31   2.726   2.744   4.362
    3ASP      C   32   2.601   3.216   4.350
    3ASP      O   33   2.509   3.257   4.277
    4GLY      N   34   2.700   3.299   4.390
    4GLY     HN   35   2.766   3.260   4.454
    4GLY     CA   36   2.718   3.434   4.343
    4GLY    HA1   37   2.792   3.491   4.397
    4GLY    HA2   38   2.624   3.485   4.352
    4GLY      C   39   2.757   3.442   4.190
    4GLY      O   40   2.747   3.340   4.128
    5PRO      N   41   2.796   3.553   4.131
    5PRO     CD   42   2.759   3.691   4.177
    5PRO    HD1   43   2.827   3.712   4.263
    5PRO    HD2   44   2.654   3.700   4.211
    5PRO     CA   45   2.856   3.563   3.995
    5PRO     HA   46   2.772   3.538   3.931
    5PRO     CB   47   2.892   3.710   3.981
    5PRO    HB1   48   2.891   3.734   3.873
    5PRO    HB2   49   2.990   3.728   4.031
    5PRO     CG   50   2.785   3.780   4.062
    5PRO    HG1   51   2.811   3.880   4.101
    5PRO    HG2   52   2.689   3.800   4.009
    5PRO      C   53   2.965   3.461   3.967
    5PRO      O   54   3.062   3.457   4.043
    6GLY      N   55   2.944   3.379   3.861
    6GLY     HN   56   2.856   3.388   3.814
    6GLY     CA   57   3.053   3.290   3.804
    6GLY    HA1   58   3.021   3.209   3.740
    6GLY    HA2   59   3.107   3.257   3.891
    6GLY      C   60   3.148   3.353   3.712
    6GLY      O   61   3.177   3.473   3.718
    7ASP      N   62   3.198   3.279   3.611
    7ASP     HN   63   3.179   3.182   3.602
    7ASP     CA   64   3.292   3.333   3.514
    7ASP     HA   65   3.368   3.393   3.562
    7ASP     CB   66   3.355   3.212   3.452
    7ASP    HB1   67   3.427   3.248   3.375
    7ASP    HB2   68   3.283   3.148   3.397
    7ASP     CG   69   3.439   3.139   3.556
    7ASP    OD1   70   3.500   3.201   3.645
    7ASP    OD2   71   3.444   3.011   3.547
    7ASP      C   72   3.217   3.414   3.406
    7ASP      O   73   3.110   3.364   3.362
    8PRO      N   74   3.266   3.531   3.378
    8PRO     CD   75   3.348   3.621   3.463
    8PRO    HD1   76   3.453   3.585   3.458
    8PRO    HD2   77   3.315   3.618   3.569
    8PRO     CA   78   3.220   3.608   3.258
    8PRO     HA   79   3.119   3.635   3.286
    8PRO     CB   80   3.316   3.723   3.252
    8PRO    HB1   81   3.290   3.807   3.184
    8PRO    HB2   82   3.412   3.684   3.214
    8PRO     CG   83   3.329   3.755   3.398
    8PRO    HG1   84   3.417   3.819   3.418
    8PRO    HG2   85   3.240   3.801   3.445
    8PRO      C   86   3.198   3.531   3.126
    8PRO      O   87   3.287   3.451   3.094
    9GLY      N   88   3.084   3.553   3.058
    9GLY     HN   89   3.005   3.600   3.097
    9GLY     CA   90   3.057   3.511   2.925
    9GLY    HA1   91   2.962   3.556   2.899
    9GLY    HA2   92   3.066   3.403   2.930
    9GLY      C   93   3.149   3.555   2.818
    9GLY      O   94   3.222   3.652   2.827
   10ASP      N   95   3.152   3.478   2.701
   10ASP     HN   96   3.121   3.383   2.699
   10ASP     CA   97   3.193   3.528   2.570
   10ASP     HA   98   3.290   3.573   2.583
   10ASP     CB   99   3.210   3.414   2.466
   10ASP    HB1  100   3.180   3.456   2.367
   10ASP    HB2  101   3.137   3.338   2.500
   10ASP     CG  102   3.351   3.346   2.478
   10ASP    OD1  103   3.370   3.241   2.411
   10ASP    OD2  104   3.442   3.411   2.538
   10ASP      C  105   3.107   3.636   2.515
   10ASP      O  106   2.990   3.664   2.546
   11GLY      N  107   3.170   3.726   2.429
   11GLY     HN  108   3.267   3.716   2.412
   11GLY     CA  109   3.105   3.833   2.356
   11GLY    HA1  110   3.108   3.927   2.409
   11GLY    HA2  111   3.006   3.797   2.330
   11GLY      C  112   3.171   3.852   2.222
   11GLY    OT1  113   3.111   3.813   2.117
   11GLY    OT2  114   3.281   3.915   2.222
   12SOD    SOD  115   5.258   1.090   2.004
   13SOD    SOD  116   6.897   2.093   1.854
   14SOD    SOD  117   2.635   0.214   2.335
   15SOD    SOD  118   0.808   0.017   3.473
   16SOD    SOD  119   4.012   2.188   2.494
   17SOD    SOD  120   2.351   2.823   5.849
   18SOD    SOD  121   5.966   2.105   1.515
   19SOD    SOD  122   5.515   0.692   3.805
   20SOD    SOD  123   5.823   2.144   4.755
   21SOD    SOD  124   6.878   1.445   0.755
   22SOD    SOD  125   1.354   5.115   0.050
   23SOD    SOD  126   3.135   3.133   1.882
   24SOD    SOD  127   1.815   0.225   3.623
   25SOD    SOD  128   3.328   4.723   0.954
   26SOD    SOD  129   4.063   4.814   3.856
   27SOD    SOD  130   4.556   3.169   3.843
   28SOD    SOD  131   5.957   2.540   3.606
   29SOD    SOD  132   0.824   2.166   2.549
   30SOD    SOD  133   3.046   0.144   2.816
   31SOD    SOD  134   2.515   6.677   3.803
   32SOD    SOD  135   3.154   4.727   3.131
   33SOD    SOD  136   1.542   3.986   2.303
   34SOD    SOD  137   0.409   0.459   1.968
   35SOD    SOD  138   3.928   3.298   2.316
   36SOD    SOD  139   6.904   3.624   4.057
   37SOD    SOD  140   3.815   4.982   0.567
   38SOD    SOD  141   1.476   5.705   3.912
   39SOD    SOD  142   0.409   4.728   4.199
   40SOD    SOD  143   4.601   0.164   0.506
   41SOD    SOD  144   0.235   3.730   0.689
   42SOD    SOD  145   5.873   4.780   5.564
   43CLA    CLA  146   1.999   5.888   3.481
   44CLA    CLA  147   4.192   0.107   3.457
   45CLA    CLA  148   2.878   4.099   1.087
   46CLA    CLA  149   6.618   4.560   4.281
   47CLA    CLA  150   0.627   5.869   0.207
   48CLA    CLA  151   3.009   6.769   2.004
   49CLA    CLA  152   6.983   3.576   5.749
   50CLA    CLA  153   6.574   0.160   5.325
   51CLA    CLA  154   0.764   4.507   3.298
   52CLA    CLA  155   0.251   2.600   2.597
   53CLA    CLA  156   1.148   3.482   0.991
   54CLA    CLA  157   5.961   4.865   4.850
   55CLA    CLA  158   6.204   6.475   2.027
   56CLA    CLA  159   4.495   4.315   5.563
   57CLA    CLA  160   2.560   5.269   3.116
   58CLA    CLA  161   4.579   2.540   3.388
   59CLA    CLA  162   6.775   2.760   2.572
   60CLA    CLA  163   1.833   1.193   5.658
   61CLA    CLA  164   3.133   1.313   5.561
   62CLA    CLA  165   4.851   2.357   2.994
   63CLA    CLA  166   0.195   3.566   4.323
   64CLA    CLA  167   3.478   5.491   0.469
   65CLA    CLA  168   4.809   0.467   1.338
   66CLA    CLA  169   0.013   5.771   2.832
   67CLA    CLA  170   2.472   2.025   2.954
   68CLA    CLA  171   4.434   0.575   0.608
   69CLA    CLA  172   5.919   1.418   3.762
   70TIP3   OH2  173   3.544   2.141   0.811
   70TIP3    H1  174   3.491   2.124   0.889
   70TIP3    H2  175   3.574   2.231   0.821
   71TIP3   OH2  176   0.757   4.340   0.214
   71TIP3    H1  177   0.785   4.321   0.304
   71TIP3    H2  178   0.665   4.314   0.213
   72TIP3   OH2  179   4.462   3.661   4.982
   72TIP3    H1  180   4.516   3.582   4.991
   72TIP3    H2  181   4.448   3.691   5.071
   73TIP3   OH2  182   1.369   0.362   5.727
   73TIP3    H1  183   1.280   0.385   5.756
   73TIP3    H2  184   1.363   0.362   5.631
   74TIP3   OH2  185   1.866   5.932   3.042
   74TIP3    H1  186   1.882   5.850   3.087
   74TIP3    H2  187   1.951   5.956   3.004
   75TIP3   OH2  188   7.203   6.579   2.750
   75TIP3    H1  189   7.124   6.631   2.743
   75TIP3    H2  190   7.180   6.495   2.709
   76TIP3   OH2  191   2.282   2.642   5.214
   76TIP3    H1  192   2.194   2.612   5.235
   76TIP3    H2  193   2.318   2.573   5.158
   77TIP3   OH2  194   2.876   0.888   0.356
   77TIP3    H1  195   2.898   0.828   0.285
   77TIP3    H2  196   2.915   0.848   0.434
   78TIP3   OH2  197   3.388   1.339   0.394
   78TIP3    H1  198   3.400   1.434   0.395
   78TIP3    H2  199   3.338   1.320   0.473
   79TIP3   OH2  200   6.011   2.732   5.095
   79TIP3    H1  201   6.018   2.637   5.089
   79TIP3    H2  202   6.100   2.764   5.078
   80TIP3   OH2  203   1.077   3.089   2.775
   80TIP3    H1  204   1.147   3.031   2.746
   80TIP3    H2  205   1.057   3.058   2.864
   81TIP3   OH2  206   2.585   3.723   5.635
   81TIP3    H1  207   2.666   3.682   5.666
   81TIP3    H2  208   2.527   3.723   5.711
   82TIP3   OH2  209   0.887   3.555   3.882
   82TIP3    H1  210   0.971   3.589   3.913
   82TIP3    H2  211   0.869   3.479   3.938
   83TIP3   OH2  212   6.021   0.844   0.047
   83TIP3    H1  213   6.035   0.845  -0.048
   83TIP3    H2  214   5.980   0.929   0.066
   84TIP3   OH2  215   5.585   1.355   0.369
   84TIP3    H1  216   5.571   1.386   0.459
   84TIP3    H2  217   5.620   1.431   0.323
   85TIP3   OH2  218   2.642   4.978   2.431
   85TIP3    H1  219   2.665   4.959   2.522
   85TIP3    H2  220   2.725   5.005   2.390
   86TIP3   OH2  221   2.836   4.678   0.327
   86TIP3    H1  222   2.836   4.759   0.379
   86TIP3    H2  223   2.749   4.675   0.287
   87TIP3   OH2  224   2.989   2.716   1.835
   87TIP3    H1  225   3.013   2.644   1.893
   87TIP3    H2  226   2.899   2.737   1.858
   88TIP3   OH2  227   6.415   1.509   4.583
   88TIP3    H1  228   6.404   1.472   4.671
   88TIP3    H2  229   6.398   1.602   4.595
   89TIP3   OH2  230   3.764   5.310   5.710
   89TIP3    H1  231   3.806   5.260   5.640
   89TIP3    H2  232   3.812   5.286   5.789
   90TIP3   OH2  233   1.445   3.654   2.564
   90TIP3    H1  234   1.503   3.616   2.497
   90TIP3    H2  235   1.425   3.582   2.623
   91TIP3   OH2  236   0.304   1.067   1.349
   91TIP3    H1  237   0.246   1.036   1.418
   91TIP3    H2  238   0.361   0.992   1.331
   92TIP3   OH2  239   6.613   5.813   4.635
   92TIP3    H1  240   6.605   5.728   4.591
   92TIP3    H2  241   6.535   5.861   4.608
   93TIP3   OH2  242   1.032   0.869   0.844
   93TIP3    H1  243   1.057   0.838   0.931
   93TIP3    H2  244   1.097   0.937   0.823
   94TIP3   OH2  245   3.150   6.454   2.082
   94TIP3    H1  246   3.147   6.536   2.033
   94TIP3    H2  247   3.058   6.434   2.099
   95TIP3   OH2  248   6.670   4.907   2.840
   95TIP3    H1  249   6.681   4.872   2.751
   95TIP3    H2  250   6.618   4.841   2.886
   96TIP3   OH2  251   0.344   4.090   0.373
   96TIP3    H1  252   0.262   4.127   0.341
   96TIP3    H2  253   0.378   4.039   0.299
   97TIP3   OH2  254   0.552   1.925   1.592
   97TIP3    H1  255   0.563   1.884   1.678
   97TIP3    H2  256   0.640   1.952   1.567
   98TIP3   OH2  257   4.079   4.865   3.428
   98TIP3    H1  258   4.036   4.837   3.348
   98TIP3    H2  259   4.045   4.953   3.444
   99TIP3   OH2  260   5.103   1.156   1.347
   99TIP3    H1  261   5.149   1.219   1.292
   99TIP3    H2  262   5.013   1.188   1.351
  100TIP3   OH2  263   6.541   6.571   0.503
  100TIP3    H1  264   6.630   6.601   0.518
  100TIP3    H2  265   6.486   6.644   0.531
  101TIP3   OH2  266   0.964   2.204   0.266
  101TIP3    H1  267   1.050   2.237   0.291
  101TIP3    H2  268   0.925   2.173   0.348
  102TIP3   OH2  269   5.135   3.456   4.379
  102TIP3    H1  270   5.063   3.517   4.361
  102TIP3    H2  271   5.124   3.431   4.470
  103TIP3   OH2  272   5.486   4.202   5.208
  103TIP3    H1  273   5.574   4.217   5.172
  103TIP3    H2  274   5.440   4.284   5.192
  104TIP3   OH2  275   3.897   4.267   0.966
  104TIP3    H1  276   3.981   4.278   0.921
  104TIP3    H2  277   3.897   4.175   0.993
  105TIP3   OH2  278   2.399   5.877   2.705
  105TIP3    H1  279   2.357   5.958   2.677
  105TIP3    H2  280   2.386   5.817   2.631
  106TIP3   OH2  281   2.381   5.712   0.750
  106TIP3    H1  282   2.329   5.729   0.672
  106TIP3    H2  283   2.402   5.799   0.784
  107TIP3   OH2  284   0.599   5.520   3.178
  107TIP3    H1  285   0.637   5.595   3.224
  107TIP3    H2  286   0.600   5.450   3.243
  108TIP3   OH2  287   0.553   0.225   1.528
  108TIP3    H1  288   0.555   0.132   1.550
  108TIP3    H2  289   0.528   0.227   1.435
  109TIP3   OH2  290   6.439   1.656   1.493
  109TIP3    H1  291   6.513   1.652   1.432
  109TIP3    H2  292   6.403   1.744   1.481
  110TIP3   OH2  293   4.922   5.918   5.685
  110TIP3    H1  294   4.883   5.853   5.626
  110TIP3    H2  295   4.860   5.991   5.685
  111TIP3   OH2  296   2.793   1.516   1.846
  111TIP3    H1  297   2.788   1.518   1.942
  111TIP3    H2  298   2.870   1.568   1.825
  112TIP3   OH2  299   7.180   2.028   1.503
  112TIP3    H1  300   7.157   2.110   1.459
  112TIP3    H2  301   7.276   2.026   1.501
  113TIP3   OH2  302   3.129   0.265   5.364
  113TIP3    H1  303   3.075   0.286   5.288
  113TIP3    H2  304   3.216   0.247   5.328
  114TIP3   OH2  305   4.863   5.736   1.065
  114TIP3    H1  306   4.806   5.670   1.103
  114TIP3    H2  307   4.868   5.713   0.972
  115TIP3   OH2  308   6.300   4.124   4.057
  115TIP3    H1  309   6.228   4.172   4.097
  115TIP3    H2  310   6.379   4.167   4.089
  116TIP3   OH2  311   4.186   1.767   2.543
  116TIP3    H1  312   4.138   1.693   2.506
  116TIP3    H2  313   4.236   1.729   2.616
  117TIP3   OH2  314   6.979   4.010   3.992
  117TIP3    H1  315   6.979   4.103   3.971
  117TIP3    H2  316   7.062   3.977   3.957
  118TIP3   OH2  317   0.554   6.551   2.634
  118TIP3    H1  318   0.479   6.490   2.637
  118TIP3    H2  319   0.631   6.494   2.635
  119TIP3   OH2  320   1.072   6.440   0.813
  119TIP3    H1  321   1.005   6.436   0.744
  119TIP3    H2  322   1.039   6.382   0.881
  120TIP3   OH2  323   3.417   2.669   2.277
  120TIP3    H1  324   3.354   2.742   2.276
  120TIP3    H2  325   3.366   2.593   2.304
  121TIP3   OH2  326   6.219   3.737   0.764
  121TIP3    H1  327   6.186   3.821   0.797
  121TIP3    H2  328   6.287   3.712   0.826
  122TIP3   OH2  329   0.137   5.137   4.735
  122TIP3    H1  330   0.143   5.041   4.732
  122TIP3    H2  331   0.091   5.161   4.655
  123TIP3   OH2  332   5.075   6.364   0.316
  123TIP3    H1  333   5.020   6.286   0.324
  123TIP3    H2  334   5.151   6.347   0.371
  124TIP3   OH2  335   4.271   6.485   1.907
  124TIP3    H1  336   4.261   6.394   1.937
  124TIP3    H2  337   4.365   6.496   1.893
  125TIP3   OH2  338   6.704   2.885   4.129
  125TIP3    H1  339   6.660   2.818   4.182
  125TIP3    H2  340   6.794   2.886   4.161
  126TIP3   OH2  341   1.897   4.743   1.270
  126TIP3    H1  342   1.990   4.737   1.291
  126TIP3    H2  343   1.854   4.745   1.356
  127TIP3   OH2  344   2.050   2.869   3.131
  127TIP3    H1  345   2.119   2.803   3.123
  127TIP3    H2  346   2.097   2.948   3.160
  128TIP3   OH2  347   1.265   5.039   5.499
  128TIP3    H1  348   1.179   5.000   5.484
  128TIP3    H2  349   1.255   5.089   5.580
  129TIP3   OH2  350   3.322   0.970   0.785
  129TIP3    H1  351   3.366   1.022   0.853
  129TIP3    H2  352   3.352   1.009   0.703
  130TIP3   OH2  353   6.176   3.648   2.126
  130TIP3    H1  354   6.150   3.562   2.159
  130TIP3    H2  355   6.095   3.686   2.093
  131TIP3   OH2  356   6.296   3.846   2.705
  131TIP3    H1  357   6.283   3.764   2.753
  131TIP3    H2  358   6.339   3.903   2.768
  132TIP3   OH2  359   4.657   3.014   0.118
  132TIP3    H1  360   4.597   3.048   0.184
  132TIP3    H2  361   4.706   2.945   0.164
  133TIP3   OH2  362   2.561   2.427   2.915
  133TIP3    H1  363   2.646   2.470   2.921
  133TIP3    H2  364   2.561   2.385   2.829
  134TIP3   OH2  365   5.352   6.304   2.670
  134TIP3    H1  366   5.298   6.280   2.745
  134TIP3    H2  367   5.442   6.295   2.700
  135TIP3   OH2  368   0.282   1.547   0.166
  135TIP3    H1  369   0.293   1.551   0.261
  135TIP3    H2  370   0.360   1.588   0.130
  136TIP3   OH2  371   1.734   4.632   3.711
  136TIP3    H1  372   1.639   4.633   3.714
  136TIP3    H2  373   1.757   4.700   3.648
  137TIP3   OH2  374   0.121   2.553   3.012
  137TIP3    H1  375   0.040   2.539   3.061
  137TIP3    H2  376   0.138   2.647   3.020
  138TIP3   OH2  377   2.048   1.167   0.618
  138TIP3    H1  378   2.004   1.250   0.634
  138TIP3    H2  379   2.046   1.157   0.523
  139TIP3   OH2  380   2.583   0.061   3.997
  139TIP3    H1  381   2.547   0.074   4.085
  139TIP3    H2  382   2.521   0.106   3.939
  140TIP3   OH2  383   3.959   1.004   2.486
  140TIP3    H1  384   3.916   0.927   2.524
  140TIP3    H2  385   3.989   1.054   2.561
  141TIP3   OH2  386   2.161   2.927   2.354
  141TIP3    H1  387   2.133   3.013   2.385
  141TIP3    H2  388   2.194   2.943   2.266
  142TIP3   OH2  389   4.933   3.847   3.807
  142TIP3    H1  390   5.027   3.866   3.810
  142TIP3    H2  391   4.928   3.751   3.800
  143TIP3   OH2  392   1.444   5.225   4.415
  143TIP3    H1  393   1.512   5.183   4.362
  143TIP3    H2  394   1.490   5.294   4.463
  144TIP3   OH2  395   2.054   3.403   1.218
  144TIP3    H1  396   1.987   3.460   1.257
  144TIP3    H2  397   2.073   3.339   1.286
  145TIP3   OH2  398   2.279   0.476   5.843
  145TIP3    H1  399   2.205   0.480   5.903
  145TIP3    H2  400   2.255   0.534   5.771
  146TIP3   OH2  401   3.516   3.251   5.623
  146TIP3    H1  402   3.528   3.207   5.708
  146TIP3    H2  403   3.468   3.187   5.570
  147TIP3   OH2  404   2.871   5.002   2.303
  147TIP3    H1  405   2.927   4.930   2.274
  147TIP3    H2  406   2.829   5.033   2.223
  148TIP3   OH2  407   2.187   3.674   1.417
  148TIP3    H1  408   2.192   3.661   1.323
  148TIP3    H2  409   2.109   3.728   1.430
  149TIP3   OH2  410   6.498   1.335   2.520
  149TIP3    H1  411   6.408   1.339   2.488
  149TIP3    H2  412   6.501   1.398   2.592
  150TIP3   OH2  413   4.472   0.737   0.351
  150TIP3    H1  414   4.464   0.688   0.433
  150TIP3    H2  415   4.536   0.806   0.371
  151TIP3   OH2  416   3.019   0.605   0.882
  151TIP3    H1  417   2.966   0.676   0.847
  151TIP3    H2  418   2.998   0.604   0.976
  152TIP3   OH2  419   7.127   0.159   5.305
  152TIP3    H1  420   7.109   0.074   5.264
  152TIP3    H2  421   7.094   0.150   5.395
  153TIP3   OH2  422   6.774   3.849   3.777
  153TIP3    H1  423   6.719   3.813   3.846
  153TIP3    H2  424   6.731   3.930   3.750
  154TIP3   OH2  425   6.504   4.313   4.055
  154TIP3    H1  426   6.569   4.292   3.988
  154TIP3    H2  427   6.532   4.398   4.089
  155TIP3   OH2  428   1.996   1.071   0.857
  155TIP3    H1  429   2.039   1.114   0.783
  155TIP3    H2  430   2.024   1.122   0.933
  156TIP3   OH2  431   2.742   5.519   3.163
  156TIP3    H1  432   2.680   5.445   3.166
  156TIP3    H2  433   2.819   5.483   3.119
  157TIP3   OH2  434   5.149   1.713   4.127
  157TIP3    H1  435   5.151   1.693   4.221
  157TIP3    H2  436   5.146   1.628   4.085
  158TIP3   OH2  437   4.240   6.256   0.685
  158TIP3    H1  438   4.305   6.286   0.748
  158TIP3    H2  439   4.213   6.334   0.638
  159TIP3   OH2  440   3.852   2.217   4.550
  159TIP3    H1  441   3.818   2.269   4.623
  159TIP3    H2  442   3.819   2.262   4.472
  160TIP3   OH2  443   6.796   5.248   0.999
  160TIP3    H1  444   6.812   5.341   1.016
  160TIP3    H2  445   6.701   5.239   1.005
  161TIP3   OH2  446   2.453   0.629   2.421
  161TIP3    H1  447   2.390   0.625   2.349
  161TIP3    H2  448   2.455   0.722   2.445
  162TIP3   OH2  449   1.153   2.198   5.009
  162TIP3    H1  450   1.063   2.194   4.977
  162TIP3    H2  451   1.184   2.285   4.985
  163TIP3   OH2  452   6.391   1.031   5.713
  163TIP3    H1  453   6.457   0.974   5.672
  163TIP3    H2  454   6.338   0.971   5.766
  164TIP3   OH2  455   1.179   6.626   1.749
  164TIP3    H1  456   1.164   6.535   1.775
  164TIP3    H2  457   1.249   6.621   1.684
  165TIP3   OH2  458   1.830   5.609   1.801
  165TIP3    H1  459   1.807   5.538   1.741
  165TIP3    H2  460   1.781   5.685   1.769
  166TIP3   OH2  461   6.305   3.608   2.823
  166TIP3    H1  462   6.360   3.585   2.897
  166TIP3    H2  463   6.219   3.572   2.845
  167TIP3   OH2  464   0.597   2.031   2.514
  167TIP3    H1  465   0.593   1.958   2.452
  167TIP3    H2  466   0.594   2.109   2.459
  168TIP3   OH2  467   4.307   2.511   1.819
  168TIP3    H1  468   4.359   2.469   1.751
  168TIP3    H2  469   4.358   2.499   1.899
  169TIP3   OH2  470   4.842   4.437   1.943
  169TIP3    H1  471   4.802   4.439   1.856
  169TIP3    H2  472   4.934   4.417   1.927
  170TIP3   OH2  473   3.137   1.072   4.202
  170TIP3    H1  474   3.228   1.102   4.201
  170TIP3    H2  475   3.126   1.031   4.288
  171TIP3   OH2  476   0.693   1.660   3.117
  171TIP3    H1  477   0.668   1.752   3.120
  171TIP3    H2  478   0.611   1.613   3.106
  172TIP3   OH2  479   1.728   1.780   5.130
  172TIP3    H1  480   1.756   1.714   5.193
  172TIP3    H2  481   1.750   1.742   5.045
  173TIP3   OH2  482   3.358   2.566   5.514
  173TIP3    H1  483   3.300   2.525   5.449
  173TIP3    H2  484   3.440   2.579   5.468
  174TIP3   OH2  485   0.561   5.708   5.798
  174TIP3    H1  486   0.474   5.675   5.775
  174TIP3    H2  487   0.549   5.802   5.807
  175TIP3   OH2  488   5.788   0.329   0.886
  175TIP3    H1  489   5.805   0.284   0.968
  175TIP3    H2  490   5.801   0.422   0.907
  176TIP3   OH2  491   1.120   6.621   2.317
  176TIP3    H1  492   1.150   6.535   2.346
  176TIP3    H2  493   1.042   6.603   2.265
  177TIP3   OH2  494   7.068   0.719   4.182
  177TIP3    H1  495   6.997   0.662   4.215
  177TIP3    H2  496   7.129   0.725   4.256
  178TIP3   OH2  497   0.351   3.670   5.265
  178TIP3    H1  498   0.402   3.613   5.322
  178TIP3    H2  499   0.335   3.749   5.317
  179TIP3   OH2  500   6.565   1.799   3.524
  179TIP3    H1  501   6.643   1.847   3.494
  179TIP3    H2  502   6.557   1.821   3.617
  180TIP3   OH2  503   7.038   1.980   1.097
  180TIP3    H1  504   7.059   2.020   1.013
  180TIP3    H2  505   6.955   2.019   1.123
  181TIP3   OH2  506   6.043   2.679   1.193
  181TIP3    H1  507   5.981   2.672   1.266
  181TIP3    H2  508   6.109   2.612   1.211
  182TIP3   OH2  509   6.728   0.214   0.170
  182TIP3    H1  510   6.789   0.229   0.097
  182TIP3    H2  511   6.770   0.257   0.245
  183TIP3   OH2  512   1.986   6.719   2.939
  183TIP3    H1  513   2.008   6.675   3.022
  183TIP3    H2  514   1.946   6.650   2.886
  184TIP3   OH2  515   4.347   0.172   1.829
  184TIP3    H1  516   4.391   0.235   1.772
  184TIP3    H2  517   4.254   0.197   1.826
  185TIP3   OH2  518   1.981   3.435   2.635
  185TIP3    H1  519   1.951   3.422   2.545
  185TIP3    H2  520   2.005   3.348   2.666
  186TIP3   OH2  521   6.369   5.341   0.831
  186TIP3    H1  522   6.365   5.378   0.743
  186TIP3    H2  523   6.279   5.317   0.851
  187TIP3   OH2  524   6.180   3.086   2.409
  187TIP3    H1  525   6.217   3.130   2.485
  187TIP3    H2  526   6.254   3.038   2.370
  188TIP3   OH2  527   5.749   2.103   0.400
  188TIP3    H1  528   5.804   2.095   0.323
  188TIP3    H2  529   5.660   2.089   0.367
  189TIP3   OH2  530   4.379   3.652   1.692
  189TIP3    H1  531   4.458   3.686   1.649
  189TIP3    H2  532   4.398   3.657   1.785
  190TIP3   OH2  533   4.903   4.875   2.226
  190TIP3    H1  534   4.832   4.819   2.259
  190TIP3    H2  535   4.895   4.956   2.276
  191TIP3   OH2  536   0.904   5.109   1.097
  191TIP3    H1  537   0.931   5.189   1.143
  191TIP3    H2  538   0.969   5.044   1.123
  192TIP3   OH2  539   5.760   4.138   1.264
  192TIP3    H1  540   5.686   4.176   1.313
  192TIP3    H2  541   5.838   4.169   1.310
  193TIP3   OH2  542   0.635   2.691   4.625
  193TIP3    H1  543   0.600   2.779   4.637
  193TIP3    H2  544   0.644   2.656   4.713
  194TIP3   OH2  545   5.283   4.946   4.242
  194TIP3    H1  546   5.297   4.897   4.323
  194TIP3    H2  547   5.192   4.975   4.246
  195TIP3   OH2  548   4.983   3.781   5.896
  195TIP3    H1  549   4.900   3.802   5.853
  195TIP3    H2  550   5.049   3.791   5.828
  196TIP3   OH2  551   3.612   5.393   1.962
  196TIP3    H1  552   3.705   5.410   1.956
  196TIP3    H2  553   3.591   5.345   1.882
  197TIP3   OH2  554   1.250   6.761   0.046
  197TIP3    H1  555   1.258   6.746  -0.049
  197TIP3    H2  556   1.198   6.686   0.077
  198TIP3   OH2  557   0.630   5.941   1.549
  198TIP3    H1  558   0.540   5.933   1.581
  198TIP3    H2  559   0.667   5.853   1.556
  199TIP3   OH2  560   4.590   0.836   1.823
  199TIP3    H1  561   4.629   0.841   1.736
  199TIP3    H2  562   4.554   0.923   1.838
  200TIP3   OH2  563   6.510   5.588   3.075
  200TIP3    H1  564   6.603   5.569   3.067
  200TIP3    H2  565   6.506   5.684   3.077
  201TIP3   OH2  566   5.345   2.650   2.415
  201TIP3    H1  567   5.364   2.589   2.344
  201TIP3    H2  568   5.299   2.722   2.374
  202TIP3   OH2  569   3.970   0.806   0.533
  202TIP3    H1  570   3.937   0.718   0.513
  202TIP3    H2  571   4.056   0.790   0.572
  203TIP3   OH2  572   2.831   4.924   4.333
  203TIP3    H1  573   2.785   4.976   4.268
  203TIP3    H2  574   2.905   4.979   4.360
  204TIP3   OH2  575   1.887   3.111   4.310
  204TIP3    H1  576   1.920   3.191   4.351
  204TIP3    H2  577   1.952   3.090   4.243
  205TIP3   OH2  578   5.921   0.262   1.639
  205TIP3    H1  579   6.000   0.212   1.659
  205TIP3    H2  580   5.883   0.282   1.724
  206TIP3   OH2  581   3.602   0.658   0.134
  206TIP3    H1  582   3.551   0.719   0.186
  206TIP3    H2  583   3.690   0.663   0.172
  207TIP3   OH2  584   1.816   5.711   4.736
  207TIP3    H1  585   1.748   5.748   4.792
  207TIP3    H2  586   1.894   5.763   4.756
  208TIP3   OH2  587   2.298   0.114   2.664
  208TIP3    H1  588   2.341   0.095   2.748
  208TIP3    H2  589   2.365   0.159   2.613
  209TIP3   OH2  590   2.420   4.118   2.937
  209TIP3    H1  591   2.352   4.180   2.910
  209TIP3    H2  592   2.375   4.058   2.997
  210TIP3   OH2  593   6.713   6.692   4.188
  210TIP3    H1  594   6.634   6.638   4.188
  210TIP3    H2  595   6.755   6.673   4.103
  211TIP3   OH2  596   3.885   1.964   5.389
  211TIP3    H1  597   3.894   1.938   5.481
  211TIP3    H2  598   3.935   1.897   5.341
  212TIP3   OH2  599   1.899   4.905   5.286
  212TIP3    H1  600   1.974   4.953   5.251
  212TIP3    H2  601   1.939   4.836   5.340
  213TIP3   OH2  602   3.047   5.734   1.932
  213TIP3    H1  603   3.097   5.657   1.962
  213TIP3    H2  604   3.037   5.787   2.011
  214TIP3   OH2  605   3.322   2.470   1.372
  214TIP3    H1  606   3.365   2.524   1.438
  214TIP3    H2  607   3.326   2.381   1.408
  215TIP3   OH2  608   2.247   2.899   1.512
  215TIP3    H1  609   2.299   2.911   1.591
  215TIP3    H2  610   2.157   2.899   1.542
  216TIP3   OH2  611   5.293   2.550   5.810
  216TIP3    H1  612   5.320   2.485   5.875
  216TIP3    H2  613   5.326   2.633   5.844
  217TIP3   OH2  614   2.970   0.638   1.195
  217TIP3    H1  615   2.908   0.614   1.264
  217TIP3    H2  616   3.055   0.609   1.228
  218TIP3   OH2  617   3.593   6.700   1.450
  218TIP3    H1  618   3.635   6.761   1.511
  218TIP3    H2  619   3.661   6.637   1.428
  219TIP3   OH2  620   6.658   0.268   0.756
  219TIP3    H1  621   6.752   0.257   0.772
  219TIP3    H2  622   6.628   0.182   0.729
  220TIP3   OH2  623   0.369   4.764   0.582
  220TIP3    H1  624   0.437   4.711   0.541
  220TIP3    H2  625   0.385   4.755   0.676
  221TIP3   OH2  626   1.305   6.526   4.892
  221TIP3    H1  627   1.323   6.511   4.984
  221TIP3    H2  628   1.390   6.549   4.854
  222TIP3   OH2  629   4.238   1.446   2.823
  222TIP3    H1  630   4.332   1.462   2.837
  222TIP3    H2  631   4.215   1.383   2.891
  223TIP3   OH2  632   4.424   6.556   1.550
  223TIP3    H1  633   4.464   6.562   1.463
  223TIP3    H2  634   4.332   6.581   1.536
  224TIP3   OH2  635   5.811   1.399   2.303
  224TIP3    H1  636   5.907   1.399   2.306
  224TIP3    H2  637   5.790   1.405   2.210
  225TIP3   OH2  638   0.066   4.664   0.726
  225TIP3    H1  639   0.033   4.710   0.648
  225TIP3    H2  640   0.092   4.734   0.786
  226TIP3   OH2  641   3.507   2.739   3.683
  226TIP3    H1  642   3.458   2.807   3.638
  226TIP3    H2  643   3.484   2.658   3.637
  227TIP3   OH2  644   3.334   3.631   4.898
  227TIP3    H1  645   3.362   3.610   4.987
  227TIP3    H2  646   3.398   3.696   4.867
  228TIP3   OH2  647   3.108   5.541   3.117
  228TIP3    H1  648   3.095   5.616   3.175
  228TIP3    H2  649   3.063   5.565   3.036
  229TIP3   OH2  650   6.252   0.360   5.380
  229TIP3    H1  651   6.341   0.346   5.348
  229TIP3    H2  652   6.246   0.454   5.395
  230TIP3   OH2  653   5.390   1.048   4.943
  230TIP3    H1  654   5.456   0.981   4.922
  230TIP3    H2  655   5.406   1.070   5.035
  231TIP3   OH2  656   5.322   2.286   3.886
  231TIP3    H1  657   5.371   2.230   3.946
  231TIP3    H2  658   5.362   2.272   3.801
  232TIP3   OH2  659   1.888   3.693   2.580
  232TIP3    H1  660   1.848   3.668   2.497
  232TIP3    H2  661   1.916   3.610   2.620
  233TIP3   OH2  662   1.507   6.270   5.383
  233TIP3    H1  663   1.558   6.230   5.453
  233TIP3    H2  664   1.533   6.362   5.385
  234TIP3   OH2  665   6.140   5.313   1.934
  234TIP3    H1  666   6.140   5.353   2.021
  234TIP3    H2  667   6.048   5.311   1.908
  235TIP3   OH2  668   3.854   2.573   0.833
  235TIP3    H1  669   3.810   2.636   0.775
  235TIP3    H2  670   3.947   2.589   0.819
  236TIP3   OH2  671   6.251   1.687   5.722
  236TIP3    H1  672   6.184   1.634   5.679
  236TIP3    H2  673   6.267   1.760   5.663
  237TIP3   OH2  674   1.382   4.882   3.402
  237TIP3    H1  675   1.304   4.929   3.373
  237TIP3    H2  676   1.454   4.926   3.357
  238TIP3   OH2  677   6.068   6.677   3.346
  238TIP3    H1  678   5.983   6.713   3.323
  238TIP3    H2  679   6.097   6.631   3.267
  239TIP3   OH2  680   6.625   3.068   1.747
  239TIP3    H1  681   6.677   3.026   1.816
  239TIP3    H2  682   6.586   2.994   1.699
  240TIP3   OH2  683   2.737   3.306   5.843
  240TIP3    H1  684   2.695   3.284   5.926
  240TIP3    H2  685   2.821   3.344   5.867
  241TIP3   OH2  686   6.882   4.535   0.822
  241TIP3    H1  687   6.955   4.472   0.816
  241TIP3    H2  688   6.854   4.530   0.913
  242TIP3   OH2  689   5.656   6.461   3.454
  242TIP3    H1  690   5.748   6.474   3.478
  242TIP3    H2  691   5.656   6.461   3.358
  243TIP3   OH2  692   3.763   6.452   0.246
  243TIP3    H1  693   3.740   6.376   0.192
  243TIP3    H2  694   3.714   6.439   0.327
  244TIP3   OH2  695   6.583   5.668   5.605
  244TIP3    H1  696   6.517   5.713   5.658
  244TIP3    H2  697   6.537   5.647   5.523
  245TIP3   OH2  698   2.035   6.260   3.163
  245TIP3    H1  699   1.963   6.306   3.206
  245TIP3    H2  700   2.114   6.292   3.207
  246TIP3   OH2  701   4.043   4.044   0.263
  246TIP3    H1  702   4.095   4.112   0.306
  246TIP3    H2  703   4.106   3.993   0.212
  247TIP3   OH2  704   2.351   6.344   3.418
  247TIP3    H1  705   2.333   6.290   3.494
  247TIP3    H2  706   2.414   6.293   3.367
  248TIP3   OH2  707   4.063   0.367   1.576
  248TIP3    H1  708   4.029   0.455   1.591
  248TIP3    H2  709   4.101   0.371   1.489
  249TIP3   OH2  710   6.209   3.237   3.394
  249TIP3    H1  711   6.300   3.209   3.395
  249TIP3    H2  712   6.164   3.169   3.344
  250TIP3   OH2  713   6.804   0.047   5.495
  250TIP3    H1  714   6.741   0.087   5.435
  250TIP3    H2  715   6.749   0.006   5.562
  251TIP3   OH2  716   0.590   4.323   4.931
  251TIP3    H1  717   0.575   4.281   4.847
  251TIP3    H2  718   0.572   4.416   4.914
  252TIP3   OH2  719   6.428   4.499   0.799
  252TIP3    H1  720   6.472   4.584   0.808
  252TIP3    H2  721   6.381   4.505   0.716
  253TIP3   OH2  722   6.886   0.243   0.385
  253TIP3    H1  723   6.849   0.173   0.439
  253TIP3    H2  724   6.973   0.259   0.422
  254TIP3   OH2  725   0.641   5.001   2.678
  254TIP3    H1  726   0.716   5.046   2.717
  254TIP3    H2  727   0.635   5.036   2.589
  255TIP3   OH2  728   7.005   0.032   0.256
  255TIP3    H1  729   7.068   0.005   0.324
  255TIP3    H2  730   6.967   0.112   0.290
  256TIP3   OH2  731   1.633   2.591   3.331
  256TIP3    H1  732   1.589   2.654   3.389
  256TIP3    H2  733   1.680   2.533   3.391
  257TIP3   OH2  734   4.612   6.167   2.508
  257TIP3    H1  735   4.588   6.217   2.585
  257TIP3    H2  736   4.532   6.120   2.484
  258TIP3   OH2  737   6.119   3.514   3.817
  258TIP3    H1  738   6.148   3.571   3.747
  258TIP3    H2  739   6.165   3.546   3.895
  259TIP3   OH2  740   3.373   2.867   3.353
  259TIP3    H1  741   3.420   2.783   3.353
  259TIP3    H2  742   3.404   2.911   3.432
  260TIP3   OH2  743   2.063   4.800   0.844
  260TIP3    H1  744   2.033   4.880   0.800
  260TIP3    H2  745   2.123   4.831   0.911
  261TIP3   OH2  746   4.463   2.695   2.209
  261TIP3    H1  747   4.511   2.639   2.148
  261TIP3    H2  748   4.476   2.784   2.175
  262TIP3   OH2  749   0.609   4.369   1.278
  262TIP3    H1  750   0.608   4.441   1.216
  262TIP3    H2  751   0.643   4.294   1.228
  263TIP3   OH2  752   1.982   0.084   1.993
  263TIP3    H1  753   2.026   0.095   2.078
  263TIP3    H2  754   2.027   0.145   1.935
  264TIP3   OH2  755   6.475   4.478   5.260
  264TIP3    H1  756   6.488   4.383   5.252
  264TIP3    H2  757   6.397   4.496   5.207
  265TIP3   OH2  758   0.485   1.704   4.231
  265TIP3    H1  759   0.513   1.612   4.229
  265TIP3    H2  760   0.395   1.702   4.197
  266TIP3   OH2  761   7.094   4.060   4.559
  266TIP3    H1  762   7.047   4.063   4.476
  266TIP3    H2  763   7.183   4.088   4.538
  267TIP3   OH2  764   6.181   0.814   5.783
  267TIP3    H1  765   6.108   0.875   5.777
  267TIP3    H2  766   6.144   0.729   5.761
  268TIP3   OH2  767   1.689   1.477   4.396
  268TIP3    H1  768   1.606   1.509   4.361
  268TIP3    H2  769   1.752   1.546   4.376
  269TIP3   OH2  770   5.318   1.503   5.097
  269TIP3    H1  771   5.397   1.535   5.055
  269TIP3    H2  772   5.247   1.525   5.036
  270TIP3   OH2  773   3.499   3.076   2.585
  270TIP3    H1  774   3.480   3.108   2.673
  270TIP3    H2  775   3.459   3.142   2.527
  271TIP3   OH2  776   2.100   2.138   5.573
  271TIP3    H1  777   2.126   2.059   5.525
  271TIP3    H2  778   2.171   2.153   5.636
  272TIP3   OH2  779   0.347   6.034   0.274
  272TIP3    H1  780   0.408   5.988   0.215
  272TIP3    H2  781   0.391   6.032   0.359
  273TIP3   OH2  782   3.229   1.636   5.224
  273TIP3    H1  783   3.149   1.589   5.202
  273TIP3    H2  784   3.278   1.641   5.142
  274TIP3   OH2  785   4.306   5.353   4.566
  274TIP3    H1  786   4.390   5.370   4.523
  274TIP3    H2  787   4.250   5.426   4.540
  275TIP3   OH2  788   2.488   6.182   3.270
  275TIP3    H1  789   2.564   6.147   3.316
  275TIP3    H2  790   2.518   6.195   3.180
  276TIP3   OH2  791   1.400   4.355   0.855
  276TIP3    H1  792   1.323   4.315   0.813
  276TIP3    H2  793   1.390   4.449   0.840
  277TIP3   OH2  794   1.900   1.470   2.186
  277TIP3    H1  795   1.894   1.516   2.102
  277TIP3    H2  796   1.906   1.540   2.251
  278TIP3   OH2  797   5.182   4.501   4.110
  278TIP3    H1  798   5.273   4.533   4.112
  278TIP3    H2  799   5.129   4.579   4.098
  279TIP3   OH2  800   5.999   2.873   4.296
  279TIP3    H1  801   6.005   2.815   4.220
  279TIP3    H2  802   5.934   2.832   4.353
  280TIP3   OH2  803   1.334   2.952   0.519
  280TIP3    H1  804   1.379   3.012   0.579
  280TIP3    H2  805   1.403   2.913   0.466
  281TIP3   OH2  806   2.109   5.577   1.824
  281TIP3    H1  807   2.092   5.491   1.863
  281TIP3    H2  808   2.027   5.602   1.782
  282TIP3   OH2  809   2.043   0.360   3.992
  282TIP3    H1  810   1.993   0.357   4.074
  282TIP3    H2  811   2.064   0.269   3.973
  283TIP3   OH2  812   2.056   6.279   4.052
  283TIP3    H1  813   2.130   6.294   4.111
  283TIP3    H2  814   2.082   6.321   3.970
  284TIP3   OH2  815   4.612   0.366   3.024
  284TIP3    H1  816   4.652   0.286   3.058
  284TIP3    H2  817   4.553   0.337   2.954
  285TIP3   OH2  818   0.675   1.620   2.174
  285TIP3    H1  819   0.706   1.587   2.259
  285TIP3    H2  820   0.693   1.549   2.113
  286TIP3   OH2  821   6.874   4.530   3.655
  286TIP3    H1  822   6.832   4.482   3.584
  286TIP3    H2  823   6.809   4.532   3.725
  287TIP3   OH2  824   0.675   4.293   0.947
  287TIP3    H1  825   0.650   4.384   0.929
  287TIP3    H2  826   0.768   4.289   0.923
  288TIP3   OH2  827   4.791   0.267   0.409
  288TIP3    H1  828   4.786   0.274   0.313
  288TIP3    H2  829   4.819   0.354   0.438
  289TIP3   OH2  830   5.962   3.723   2.757
  289TIP3    H1  831   6.010   3.674   2.690
  289TIP3    H2  832   6.029   3.745   2.822
  290TIP3   OH2  833   4.781   2.187   0.004
  290TIP3    H1  834   4.830   2.166   0.083
  290TIP3    H2  835   4.720   2.256   0.031
  291TIP3   OH2  836   3.915   2.106   5.149
  291TIP3    H1  837   3.942   2.032   5.095
  291TIP3    H2  838   3.898   2.068   5.235
  292TIP3   OH2  839   0.962   5.907   1.204
  292TIP3    H1  840   0.875   5.946   1.195
  292TIP3    H2  841   0.968   5.847   1.130
  293TIP3   OH2  842   7.053   2.529   4.003
  293TIP3    H1  843   7.120   2.595   4.022
  293TIP3    H2  844   7.065   2.507   3.911
  294TIP3   OH2  845   6.384   5.037   0.737
  294TIP3    H1  846   6.377   5.057   0.644
  294TIP3    H2  847   6.295   5.014   0.764
  295TIP3   OH2  848   5.691   5.329   2.760
  295TIP3    H1  849   5.685   5.283   2.844
  295TIP3    H2  850   5.780   5.363   2.759
  296TIP3   OH2  851   3.821   2.512   4.655
  296TIP3    H1  852   3.740   2.495   4.703
  296TIP3    H2  853   3.849   2.599   4.683
  297TIP3   OH2  854   1.455   3.678   0.429
  297TIP3    H1  855   1.397   3.603   0.442
  297TIP3    H2  856   1.538   3.651   0.466
  298TIP3   OH2  857   3.411   2.494   3.534
  298TIP3    H1  858   3.360   2.415   3.555
  298TIP3    H2  859   3.462   2.470   3.457
  299TIP3   OH2  860   3.682   0.217   4.270
  299TIP3    H1  861   3.605   0.272   4.250
  299TIP3    H2  862   3.716   0.192   4.185
  300TIP3   OH2  863   6.526   1.848   0.686
  300TIP3    H1  864   6.577   1.880   0.611
  300TIP3    H2  865   6.435   1.865   0.662
  301TIP3   OH2  866   1.861   4.820   2.567
  301TIP3    H1  867   1.820   4.870   2.638
  301TIP3    H2  868   1.955   4.833   2.579
  302TIP3   OH2  869   3.331   3.260   5.218
  302TIP3    H1  870   3.302   3.334   5.269
  302TIP3    H2  871   3.292   3.273   5.131
  303TIP3   OH2  872   1.403   1.127   4.539
  303TIP3    H1  873   1.489   1.093   4.516
  303TIP3    H2  874   1.352   1.049   4.562
  304TIP3   OH2  875   2.009   2.060   3.962
  304TIP3    H1  876   1.918   2.034   3.951
  304TIP3    H2  877   2.006   2.155   3.974
  305TIP3   OH2  878   1.010   6.124   0.034
  305TIP3    H1  879   0.926   6.148   0.072
  305TIP3    H2  880   0.989   6.050  -0.023
  306TIP3   OH2  881   3.560   5.794   2.692
  306TIP3    H1  882   3.639   5.741   2.703
  306TIP3    H2  883   3.527   5.807   2.780
  307TIP3   OH2  884   1.727   3.728   4.446
  307TIP3    H1  885   1.786   3.799   4.419
  307TIP3    H2  886   1.755   3.652   4.395
  308TIP3   OH2  887   5.579   2.378   2.701
  308TIP3    H1  888   5.495   2.409   2.734
  308TIP3    H2  889   5.636   2.376   2.778
  309TIP3   OH2  890   1.339   3.593   0.004
  309TIP3    H1  891   1.278   3.614   0.075
  309TIP3    H2  892   1.352   3.498   0.012
  310TIP3   OH2  893   2.023   5.171   1.453
  310TIP3    H1  894   2.117   5.172   1.433
  310TIP3    H2  895   2.010   5.091   1.504
  311TIP3   OH2  896   4.477   3.604   2.941
  311TIP3    H1  897   4.409   3.536   2.945
  311TIP3    H2  898   4.476   3.644   3.028
  312TIP3   OH2  899   2.513   6.349   2.987
  312TIP3    H1  900   2.562   6.357   2.904
  312TIP3    H2  901   2.560   6.405   3.048
  313TIP3   OH2  902   1.243   2.098   3.826
  313TIP3    H1  903   1.320   2.054   3.862
  313TIP3    H2  904   1.263   2.191   3.832
  314TIP3   OH2  905   1.833   3.993   1.791
  314TIP3    H1  906   1.871   3.982   1.878
  314TIP3    H2  907   1.747   3.952   1.796
  315TIP3   OH2  908   6.081   3.454   1.205
  315TIP3    H1  909   6.114   3.543   1.198
  315TIP3    H2  910   5.991   3.459   1.171
  316TIP3   OH2  911   2.408   5.330   4.241
  316TIP3    H1  912   2.501   5.308   4.239
  316TIP3    H2  913   2.392   5.373   4.157
  317TIP3   OH2  914   2.265   1.855   1.731
  317TIP3    H1  915   2.227   1.901   1.806
  317TIP3    H2  916   2.248   1.913   1.656
  318TIP3   OH2  917   5.734   0.548   5.256
  318TIP3    H1  918   5.673   0.563   5.328
  318TIP3    H2  919   5.733   0.454   5.241
  319TIP3   OH2  920   2.347   4.616   2.958
  319TIP3    H1  921   2.355   4.634   3.052
  319TIP3    H2  922   2.413   4.549   2.941
  320TIP3   OH2  923   1.713   5.405   1.216
  320TIP3    H1  924   1.749   5.337   1.272
  320TIP3    H2  925   1.708   5.483   1.272
  321TIP3   OH2  926   2.494   0.447   4.377
  321TIP3    H1  927   2.486   0.404   4.292
  321TIP3    H2  928   2.530   0.380   4.435
  322TIP3   OH2  929   4.615   4.213   3.932
  322TIP3    H1  930   4.544   4.151   3.948
  322TIP3    H2  931   4.695   4.160   3.938
  323TIP3   OH2  932   3.826   0.821   1.362
  323TIP3    H1  933   3.824   0.791   1.271
  323TIP3    H2  934   3.738   0.803   1.395
  324TIP3   OH2  935   5.758   1.604   4.328
  324TIP3    H1  936   5.724   1.587   4.240
  324TIP3    H2  937   5.765   1.699   4.333
  325TIP3   OH2  938   4.184   2.989   1.302
  325TIP3    H1  939   4.089   2.985   1.289
  325TIP3    H2  940   4.216   3.043   1.230
  326TIP3   OH2  941   0.514   1.354   1.521
  326TIP3    H1  942   0.421   1.359   1.498
  326TIP3    H2  943   0.560   1.385   1.442
  327TIP3   OH2  944   1.664   3.846   5.660
  327TIP3    H1  945   1.645   3.784   5.589
  327TIP3    H2  946   1.751   3.822   5.691
  328TIP3   OH2  947   2.091   6.430   4.296
  328TIP3    H1  948   1.997   6.413   4.306
  328TIP3    H2  949   2.133   6.353   4.335
  329TIP3   OH2  950   3.145   2.620   1.609
  329TIP3    H1  951   3.075   2.602   1.547
  329TIP3    H2  952   3.102   2.621   1.695
  330TIP3   OH2  953   2.273   0.439   0.293
  330TIP3    H1  954   2.197   0.440   0.352
  330TIP3    H2  955   2.238   0.467   0.208
  331TIP3   OH2  956   6.157   2.055   1.656
  331TIP3    H1  957   6.139   1.984   1.717
  331TIP3    H2  958   6.192   2.126   1.710
  332TIP3   OH2  959   3.589   2.880   2.987
  332TIP3    H1  960   3.592   2.975   2.973
  332TIP3    H2  961   3.522   2.868   3.054
  333TIP3   OH2  962   4.343   5.635   4.360
  333TIP3    H1  963   4.308   5.664   4.444
  333TIP3    H2  964   4.396   5.559   4.382
  334TIP3   OH2  965   2.458   1.245   3.807
  334TIP3    H1  966   2.543   1.224   3.768
  334TIP3    H2  967   2.460   1.341   3.817
  335TIP3   OH2  968   0.073   6.211   3.687
  335TIP3    H1  969   0.118   6.153   3.626
  335TIP3    H2  970   0.006   6.156   3.728
  336TIP3   OH2  971   7.120   3.086   3.710
  336TIP3    H1  972   7.114   3.176   3.678
  336TIP3    H2  973   7.172   3.092   3.790
  337TIP3   OH2  974   5.475   5.519   1.268
  337TIP3    H1  975   5.414   5.585   1.300
  337TIP3    H2  976   5.537   5.506   1.341
  338TIP3   OH2  977   2.413   6.322   0.353
  338TIP3    H1  978   2.405   6.331   0.258
  338TIP3    H2  979   2.389   6.408   0.388
  339TIP3   OH2  980   0.462   0.418   4.495
  339TIP3    H1  981   0.476   0.501   4.540
  339TIP3    H2  982   0.536   0.363   4.520
  340TIP3   OH2  983   2.848   1.364   5.628
  340TIP3    H1  984   2.943   1.361   5.615
  340TIP3    H2  985   2.814   1.386   5.542
  341TIP3   OH2  986   2.652   5.728   3.355
  341TIP3    H1  987   2.693   5.645   3.330
  341TIP3    H2  988   2.580   5.739   3.292
  342TIP3   OH2  989   4.293   0.906   5.697
  342TIP3    H1  990   4.215   0.853   5.681
  342TIP3    H2  991   4.366   0.849   5.673
  343TIP3   OH2  992   0.200   1.799   4.761
  343TIP3    H1  993   0.152   1.873   4.798
  343TIP3    H2  994   0.272   1.839   4.712
  344TIP3   OH2  995   1.099   6.307   2.765
  344TIP3    H1  996   1.134   6.284   2.851
  344TIP3    H2  997   1.173   6.348   2.719
  345TIP3   OH2  998   2.318   5.997   5.840
  345TIP3    H1  999   2.398   6.035   5.803
  345TIP3    H2 1000   2.253   6.006   5.770
  346TIP3   OH2 1001   5.530   6.542   2.750
  346TIP3    H1 1002   5.560   6.515   2.663
  346TIP3    H2 1003   5.538   6.463   2.803
  347TIP3   OH2 1004   4.171   5.507   4.217
  347TIP3    H1 1005   4.118   5.452   4.274
  347TIP3    H2 1006   4.228   5.556   4.277
  348TIP3   OH2 1007   1.596   1.638   0.255
  348TIP3    H1 1008   1.566   1.551   0.284
  348TIP3    H2 1009   1.681   1.622   0.214
  349TIP3   OH2 1010   6.757   1.869   4.825
  349TIP3    H1 1011   6.710   1.925   4.887
  349TIP3    H2 1012   6.702   1.868   4.747
  350TIP3   OH2 1013   4.870   4.395   1.657
  350TIP3    H1 1014   4.841   4.485   1.647
  350TIP3    H2 1015   4.943   4.387   1.595
  351TIP3   OH2 1016   4.488   4.328   2.721
  351TIP3    H1 1017   4.455   4.259   2.662
  351TIP3    H2 1018   4.471   4.293   2.808
  352TIP3   OH2 1019   2.894   1.381   0.395
  352TIP3    H1 1020   2.926   1.443   0.329
  352TIP3    H2 1021   2.802   1.369   0.372
  353TIP3   OH2 1022   6.253   6.368   3.062
  353TIP3    H1 1023   6.327   6.332   3.012
  353TIP3    H2 1024   6.243   6.457   3.029
  354TIP3   OH2 1025   2.574   4.164   4.786
  354TIP3    H1 1026   2.576   4.150   4.881
  354TIP3    H2 1027   2.556   4.077   4.750
  355TIP3   OH2 1028   3.590   2.248   2.959
  355TIP3    H1 1029   3.559   2.235   3.049
  355TIP3    H2 1030   3.520   2.296   2.916
  356TIP3   OH2 1031   5.055   1.218   2.148
  356TIP3    H1 1032   5.048   1.312   2.166
  356TIP3    H2 1033   4.966   1.184   2.162
  357TIP3   OH2 1034   4.327   0.471   4.354
  357TIP3    H1 1035   4.357   0.533   4.420
  357TIP3    H2 1036   4.373   0.390   4.374
  358TIP3   OH2 1037   3.223   4.262   1.516
  358TIP3    H1 1038   3.316   4.285   1.514
  358TIP3    H2 1039   3.184   4.312   1.444
  359TIP3   OH2 1040   5.007   0.953   4.120
  359TIP3    H1 1041   5.029   1.037   4.079
  359TIP3    H2 1042   5.060   0.889   4.074
  360TIP3   OH2 1043   0.199   4.388   2.498
  360TIP3    H1 1044   0.278   4.420   2.455
  360TIP3    H2 1045   0.229   4.311   2.547
  361TIP3   OH2 1046   2.430   3.775   2.706
  361TIP3    H1 1047   2.347   3.766   2.753
  361TIP3    H2 1048   2.414   3.845   2.643
  362TIP3   OH2 1049   6.417   2.337   3.124
  362TIP3    H1 1050   6.471   2.379   3.191
  362TIP3    H2 1051   6.338   2.309   3.171
  363TIP3   OH2 1052   1.977   0.645   3.688
  363TIP3    H1 1053   2.027   0.690   3.620
  363TIP3    H2 1054   1.997   0.693   3.768
  364TIP3   OH2 1055   2.912   1.102   5.123
  364TIP3    H1 1056   2.968   1.039   5.079
  364TIP3    H2 1057   2.830   1.099   5.074
  365TIP3   OH2 1058   1.816   5.463   5.705
  365TIP3    H1 1059   1.868   5.468   5.625
  365TIP3    H2 1060   1.880   5.450   5.774
  366TIP3   OH2 1061   6.138   3.878   1.851
  366TIP3    H1 1062   6.083   3.809   1.888
  366TIP3    H2 1063   6.125   3.872   1.757
  367TIP3   OH2 1064   4.464   3.828   1.118
  367TIP3    H1 1065   4.499   3.894   1.178
  367TIP3    H2 1066   4.458   3.873   1.034
  368TIP3   OH2 1067   0.905   3.484   0.080
  368TIP3    H1 1068   0.818   3.487   0.041
  368TIP3    H2 1069   0.963   3.517   0.011
  369TIP3   OH2 1070   1.517   5.677   1.392
  369TIP3    H1 1071   1.463   5.718   1.460
  369TIP3    H2 1072   1.522   5.742   1.323
  370TIP3   OH2 1073   7.143   3.494   1.630
  370TIP3    H1 1074   7.115   3.474   1.719
  370TIP3    H2 1075   7.230   3.455   1.623
  371TIP3   OH2 1076   0.138   3.866   0.875
  371TIP3    H1 1077   0.116   3.810   0.950
  371TIP3    H2 1078   0.149   3.953   0.914
  372TIP3   OH2 1079   4.416   5.854   0.431
  372TIP3    H1 1080   4.422   5.924   0.496
  372TIP3    H2 1081   4.351   5.886   0.368
  373TIP3   OH2 1082   3.435   5.977   5.193
  373TIP3    H1 1083   3.402   6.012   5.110
  373TIP3    H2 1084   3.479   6.050   5.234
  374TIP3   OH2 1085   3.935   1.910   5.678
  374TIP3    H1 1086   4.009   1.942   5.729
  374TIP3    H2 1087   3.934   1.816   5.694
  375TIP3   OH2 1088   1.360   4.847   4.348
  375TIP3    H1 1089   1.305   4.917   4.383
  375TIP3    H2 1090   1.299   4.785   4.310
  376TIP3   OH2 1091   0.579   6.701   0.351
  376TIP3    H1 1092   0.553   6.615   0.385
  376TIP3    H2 1093   0.560   6.761   0.423
  377TIP3   OH2 1094   0.821   4.081   2.718
  377TIP3    H1 1095   0.868   4.026   2.780
  377TIP3    H2 1096   0.856   4.169   2.733
  378TIP3   OH2 1097   2.076   0.829   4.781
  378TIP3    H1 1098   2.029   0.904   4.744
  378TIP3    H2 1099   2.100   0.776   4.705
  379TIP3   OH2 1100   5.235   1.875   1.965
  379TIP3    H1 1101   5.157   1.821   1.953
  379TIP3    H2 1102   5.299   1.818   2.008
  380TIP3   OH2 1103   5.769   4.225   3.376
  380TIP3    H1 1104   5.816   4.142   3.381
  380TIP3    H2 1105   5.687   4.209   3.421
  381TIP3   OH2 1106   2.377   4.340   5.013
  381TIP3    H1 1107   2.444   4.272   5.015
  381TIP3    H2 1108   2.331   4.331   5.097
  382TIP3   OH2 1109   6.719   4.040   5.230
  382TIP3    H1 1110   6.784   4.025   5.161
  382TIP3    H2 1111   6.770   4.036   5.312
  383TIP3   OH2 1112   5.341   5.585   2.341
  383TIP3    H1 1113   5.354   5.668   2.385
  383TIP3    H2 1114   5.246   5.578   2.330
  384TIP3   OH2 1115   6.650   4.164   2.948
  384TIP3    H1 1116   6.616   4.247   2.916
  384TIP3    H2 1117   6.720   4.188   3.009
  385TIP3   OH2 1118   6.848   6.313   5.122
  385TIP3    H1 1119   6.840   6.329   5.028
  385TIP3    H2 1120   6.793   6.380   5.162
  386TIP3   OH2 1121   0.833   4.086   3.171
  386TIP3    H1 1122   0.877   4.052   3.249
  386TIP3    H2 1123   0.741   4.060   3.183
  387TIP3   OH2 1124   5.154   2.842   2.339
  387TIP3    H1 1125   5.170   2.797   2.256
  387TIP3    H2 1126   5.105   2.778   2.391
  388TIP3   OH2 1127   3.482   4.772   3.431
  388TIP3    H1 1128   3.470   4.699   3.491
  388TIP3    H2 1129   3.458   4.849   3.483
  389TIP3   OH2 1130   5.665   2.446   2.944
  389TIP3    H1 1131   5.616   2.436   3.025
  389TIP3    H2 1132   5.667   2.540   2.928
  390TIP3   OH2 1133   2.204   5.748   5.662
  390TIP3    H1 1134   2.160   5.728   5.744
  390TIP3    H2 1135   2.185   5.840   5.645
  391TIP3   OH2 1136   1.103   4.321   1.885
  391TIP3    H1 1137   1.018   4.358   1.908
  391TIP3    H2 1138   1.082   4.245   1.831
  392TIP3   OH2 1139   4.672   1.275   1.786
  392TIP3    H1 1140   4.685   1.369   1.776
  392TIP3    H2 1141   4.761   1.239   1.786
  393TIP3   OH2 1142   1.318   4.039   2.316
  393TIP3    H1 1143   1.263   4.075   2.385
  393TIP3    H2 1144   1.274   4.065   2.235
  394TIP3   OH2 1145   1.803   5.499   2.803
  394TIP3    H1 1146   1.721   5.474   2.845
  394TIP3    H2 1147   1.780   5.575   2.749
  395TIP3   OH2 1148   4.900   4.207   3.070
  395TIP3    H1 1149   4.984   4.182   3.110
  395TIP3    H2 1150   4.917   4.291   3.028
  396TIP3   OH2 1151   3.352   0.755   4.321
  396TIP3    H1 1152   3.335   0.687   4.386
  396TIP3    H2 1153   3.372   0.833   4.372
  397TIP3   OH2 1154   5.885   0.597   2.890
  397TIP3    H1 1155   5.933   0.515   2.890
  397TIP3    H2 1156   5.815   0.583   2.954
  398TIP3   OH2 1157   4.049   5.145   5.558
  398TIP3    H1 1158   3.958   5.122   5.540
  398TIP3    H2 1159   4.075   5.087   5.630
  399TIP3   OH2 1160   5.137   1.188   4.046
  399TIP3    H1 1161   5.044   1.202   4.029
  399TIP3    H2 1162   5.181   1.243   3.981
  400TIP3   OH2 1163   4.636   4.553   0.079
  400TIP3    H1 1164   4.727   4.561   0.108
  400TIP3    H2 1165   4.603   4.477   0.126
  401TIP3   OH2 1166   5.017   5.555   5.627
  401TIP3    H1 1167   4.972   5.562   5.711
  401TIP3    H2 1168   5.070   5.476   5.634
  402TIP3   OH2 1169   2.957   0.812   4.744
  402TIP3    H1 1170   2.905   0.836   4.667
  402TIP3    H2 1171   2.917   0.732   4.777
  403TIP3   OH2 1172   5.591   6.037   4.849
  403TIP3    H1 1173   5.536   5.969   4.810
  403TIP3    H2 1174   5.529   6.103   4.879
  404TIP3   OH2 1175   4.848   5.389   3.952
  404TIP3    H1 1176   4.898   5.348   4.023
  404TIP3    H2 1177   4.816   5.316   3.900
  405TIP3   OH2 1178   4.179   3.688   4.952
  405TIP3    H1 1179   4.170   3.714   4.860
  405TIP3    H2 1180   4.273   3.677   4.965
  406TIP3   OH2 1181   0.671   3.437   2.913
  406TIP3    H1 1182   0.715   3.522   2.910
  406TIP3    H2 1183   0.591   3.450   2.862
  407TIP3   OH2 1184   6.814   3.261   1.723
  407TIP3    H1 1185   6.906   3.243   1.746
  407TIP3    H2 1186   6.767   3.183   1.753
  408TIP3   OH2 1187   2.596   6.009   1.096
  408TIP3    H1 1188   2.507   6.044   1.102
  408TIP3    H2 1189   2.649   6.071   1.147
  409TIP3   OH2 1190   4.174   3.327   4.522
  409TIP3    H1 1191   4.121   3.406   4.527
  409TIP3    H2 1192   4.135   3.267   4.586
  410TIP3   OH2 1193   2.023   3.602   2.079
  410TIP3    H1 1194   2.011   3.507   2.075
  410TIP3    H2 1195   2.087   3.620   2.010
  411TIP3   OH2 1196   6.331   1.588   5.124
  411TIP3    H1 1197   6.380   1.628   5.195
  411TIP3    H2 1198   6.267   1.654   5.098
  412TIP3   OH2 1199   4.624   0.327   2.332
  412TIP3    H1 1200   4.664   0.266   2.394
  412TIP3    H2 1201   4.542   0.354   2.373
  413TIP3   OH2 1202   3.863   0.065   1.941
  413TIP3    H1 1203   3.949   0.080   1.902
  413TIP3    H2 1204   3.828  -0.011   1.894
  414TIP3   OH2 1205   0.879   3.588   3.189
  414TIP3    H1 1206   0.927   3.648   3.247
  414TIP3    H2 1207   0.851   3.643   3.116
  415TIP3   OH2 1208   0.188   3.093   2.609
  415TIP3    H1 1209   0.137   3.172   2.624
  415TIP3    H2 1210   0.272   3.110   2.651
  416TIP3   OH2 1211   2.402   0.613   4.878
  416TIP3    H1 1212   2.320   0.565   4.891
  416TIP3    H2 1213   2.462   0.575   4.943
  417TIP3   OH2 1214   4.972   2.491   3.251
  417TIP3    H1 1215   4.960   2.423   3.317
  417TIP3    H2 1216   4.940   2.451   3.170
  418TIP3   OH2 1217   5.073   1.330   4.431
  418TIP3    H1 1218   5.013   1.378   4.489
  418TIP3    H2 1219   5.054   1.238   4.449
  419TIP3   OH2 1220   5.860   6.681   4.206
  419TIP3    H1 1221   5.923   6.749   4.229
  419TIP3    H2 1222   5.911   6.619   4.154
  420TIP3   OH2 1223   3.101   6.035   3.992
  420TIP3    H1 1224   3.157   6.032   3.914
  420TIP3    H2 1225   3.157   6.000   4.062
  421TIP3   OH2 1226   5.495   4.527   4.601
  421TIP3    H1 1227   5.585   4.559   4.612
  421TIP3    H2 1228   5.500   4.469   4.525
  422TIP3   OH2 1229   4.194   4.410   4.701
  422TIP3    H1 1230   4.234   4.482   4.750
  422TIP3    H2 1231   4.111   4.394   4.745
  423TIP3   OH2 1232   4.645   3.602   1.582
  423TIP3    H1 1233   4.719   3.662   1.587
  423TIP3    H2 1234   4.599   3.629   1.502
  424TIP3   OH2 1235   4.253   1.794   1.112
  424TIP3    H1 1236   4.303   1.867   1.076
  424TIP3    H2 1237   4.315   1.749   1.170
  425TIP3   OH2 1238   6.751   5.766   4.868
  425TIP3    H1 1239   6.787   5.678   4.883
  425TIP3    H2 1240   6.735   5.770   4.774
  426TIP3   OH2 1241   3.195   5.397   0.091
  426TIP3    H1 1242   3.141   5.390   0.169
  426TIP3    H2 1243   3.246   5.477   0.103
  427TIP3   OH2 1244   4.573   5.545  -0.004
  427TIP3    H1 1245   4.643   5.528   0.060
  427TIP3    H2 1246   4.501   5.580   0.048
  428TIP3   OH2 1247   0.596   1.477   0.321
  428TIP3    H1 1248   0.668   1.440   0.373
  428TIP3    H2 1249   0.592   1.568   0.348
  429TIP3   OH2 1250   1.605   5.293   0.829
  429TIP3    H1 1251   1.683   5.270   0.880
  429TIP3    H2 1252   1.547   5.218   0.839
  430TIP3   OH2 1253   1.701   2.136   2.025
  430TIP3    H1 1254   1.738   2.048   2.014
  430TIP3    H2 1255   1.697   2.148   2.120
  431TIP3   OH2 1256   0.330   6.132   3.095
  431TIP3    H1 1257   0.376   6.068   3.149
  431TIP3    H2 1258   0.309   6.085   3.015
  432TIP3   OH2 1259   2.384   2.674   0.810
  432TIP3    H1 1260   2.302   2.669   0.760
  432TIP3    H2 1261   2.427   2.590   0.793
  433TIP3   OH2 1262   3.986   3.029   3.304
  433TIP3    H1 1263   3.905   2.987   3.275
  433TIP3    H2 1264   4.035   2.959   3.347
  434TIP3   OH2 1265   2.167   0.986   2.627
  434TIP3    H1 1266   2.108   0.920   2.664
  434TIP3    H2 1267   2.146   1.067   2.673
  435TIP3   OH2 1268   4.904   1.274   1.098
  435TIP3    H1 1269   4.828   1.245   1.148
  435TIP3    H2 1270   4.877   1.265   1.006
  436TIP3   OH2 1271   3.922   0.043   5.106
  436TIP3    H1 1272   3.905   0.133   5.135
  436TIP3    H2 1273   3.995   0.052   5.045
  437TIP3   OH2 1274   3.370   0.111   4.509
  437TIP3    H1 1275   3.346   0.114   4.417
  437TIP3    H2 1276   3.288   0.093   4.555
  438TIP3   OH2 1277   5.081   5.223   5.188
  438TIP3    H1 1278   5.097   5.195   5.278
  438TIP3    H2 1279   5.142   5.295   5.173
  439TIP3   OH2 1280   0.364   5.195   3.610
  439TIP3    H1 1281   0.429   5.205   3.679
  439TIP3    H2 1282   0.284   5.233   3.646
  440TIP3   OH2 1283   1.229   6.609   0.639
  440TIP3    H1 1284   1.175   6.679   0.603
  440TIP3    H2 1285   1.169   6.557   0.691
  441TIP3   OH2 1286   3.465   0.577   3.761
  441TIP3    H1 1287   3.442   0.488   3.788
  441TIP3    H2 1288   3.390   0.631   3.787
  442TIP3   OH2 1289   5.972   0.619   2.443
  442TIP3    H1 1290   6.035   0.593   2.509
  442TIP3    H2 1291   5.888   0.587   2.476
  443TIP3   OH2 1292   4.893   1.341   5.078
  443TIP3    H1 1293   4.811   1.348   5.030
  443TIP3    H2 1294   4.899   1.423   5.127
  444TIP3   OH2 1295   6.558   2.027   4.994
  444TIP3    H1 1296   6.477   2.030   5.045
  444TIP3    H2 1297   6.558   2.109   4.945
  445TIP3   OH2 1298   4.361   3.435   3.511
  445TIP3    H1 1299   4.351   3.431   3.416
  445TIP3    H2 1300   4.295   3.497   3.540
  446TIP3   OH2 1301   5.616   4.960   4.505
  446TIP3    H1 1302   5.630   4.890   4.569
  446TIP3    H2 1303   5.532   4.998   4.529
  447TIP3   OH2 1304   0.767   6.383   1.472
  447TIP3    H1 1305   0.756   6.433   1.553
  447TIP3    H2 1306   0.862   6.382   1.457
  448TIP3   OH2 1307   3.254   1.794   2.973
  448TIP3    H1 1308   3.310   1.872   2.965
  448TIP3    H2 1309   3.191   1.802   2.902
  449TIP3   OH2 1310   1.645   5.657   3.109
  449TIP3    H1 1311   1.610   5.707   3.183
  449TIP3    H2 1312   1.678   5.725   3.049
  450TIP3   OH2 1313   1.042   0.059   2.765
  450TIP3    H1 1314   1.119   0.091   2.718
  450TIP3    H2 1315   0.982   0.134   2.765
  451TIP3   OH2 1316   5.610   6.661   4.322
  451TIP3    H1 1317   5.575   6.603   4.253
  451TIP3    H2 1318   5.700   6.679   4.293
  452TIP3   OH2 1319   6.871   0.457   4.068
  452TIP3    H1 1320   6.834   0.531   4.020
  452TIP3    H2 1321   6.828   0.380   4.031
  453TIP3   OH2 1322   2.639   0.436   2.329
  453TIP3    H1 1323   2.618   0.475   2.244
  453TIP3    H2 1324   2.581   0.479   2.391
  454TIP3   OH2 1325   1.194   0.111   5.473
  454TIP3    H1 1326   1.155   0.102   5.560
  454TIP3    H2 1327   1.189   0.204   5.454
  455TIP3   OH2 1328   7.059   5.074   2.800
  455TIP3    H1 1329   7.039   5.101   2.710
  455TIP3    H2 1330   7.153   5.061   2.801
  456TIP3   OH2 1331   3.011   3.354   4.785
  456TIP3    H1 1332   2.968   3.437   4.764
  456TIP3    H2 1333   2.973   3.291   4.724
  457TIP3   OH2 1334   4.937   4.067   3.557
  457TIP3    H1 1335   4.907   3.977   3.541
  457TIP3    H2 1336   4.997   4.059   3.631
  458TIP3   OH2 1337   3.869   4.555   5.204
  458TIP3    H1 1338   3.881   4.561   5.109
  458TIP3    H2 1339   3.820   4.633   5.227
  459TIP3   OH2 1340   4.919   4.148   5.432
  459TIP3    H1 1341   5.001   4.185   5.399
  459TIP3    H2 1342   4.910   4.064   5.387
  460TIP3   OH2 1343   5.938   5.371   3.787
  460TIP3    H1 1344   5.984   5.352   3.869
  460TIP3    H2 1345   5.904   5.460   3.797
  461TIP3   OH2 1346   0.914   1.148   4.495
  461TIP3    H1 1347   0.924   1.114   4.584
  461TIP3    H2 1348   1.003   1.165   4.466
  462TIP3   OH2 1349   1.686   2.179   1.135
  462TIP3    H1 1350   1.679   2.085   1.152
  462TIP3    H2 1351   1.754   2.186   1.068
  463TIP3   OH2 1352   1.223   3.073   3.512
  463TIP3    H1 1353   1.181   3.006   3.565
  463TIP3    H2 1354   1.284   3.116   3.571
  464TIP3   OH2 1355   1.993   4.940   1.590
  464TIP3    H1 1356   1.957   4.852   1.603
  464TIP3    H2 1357   1.987   4.981   1.676
  465TIP3   OH2 1358   0.799   3.355   4.092
  465TIP3    H1 1359   0.751   3.275   4.068
  465TIP3    H2 1360   0.779   3.368   4.184
  466TIP3   OH2 1361   1.238   0.793   5.258
  466TIP3    H1 1362   1.268   0.863   5.316
  466TIP3    H2 1363   1.223   0.837   5.174
  467TIP3   OH2 1364   2.319   6.529   2.976
  467TIP3    H1 1365   2.322   6.543   2.881
  467TIP3    H2 1366   2.383   6.459   2.992
  468TIP3   OH2 1367   1.103   3.458   4.967
  468TIP3    H1 1368   1.041   3.462   5.041
  468TIP3    H2 1369   1.166   3.528   4.986
  469TIP3   OH2 1370   1.529   2.534   4.748
  469TIP3    H1 1371   1.568   2.508   4.832
  469TIP3    H2 1372   1.596   2.512   4.683
  470TIP3   OH2 1373   0.017   5.825   3.431
  470TIP3    H1 1374  -0.073   5.807   3.406
  470TIP3    H2 1375   0.070   5.785   3.362
  471TIP3   OH2 1376   2.766   6.476   4.503
  471TIP3    H1 1377   2.852   6.476   4.460
  471TIP3    H2 1378   2.742   6.384   4.508
  472TIP3   OH2 1379   4.218   3.959   3.902
  472TIP3    H1 1380   4.288   3.906   3.864
  472TIP3    H2 1381   4.218   4.040   3.852
  473TIP3   OH2 1382   3.355   0.900   4.864
  473TIP3    H1 1383   3.350   0.988   4.828
  473TIP3    H2 1384   3.374   0.913   4.957
  474TIP3   OH2 1385   6.919   1.915   3.003
  474TIP3    H1 1386   6.961   1.933   3.088
  474TIP3    H2 1387   6.906   1.820   3.003
  475TIP3   OH2 1388   3.214   6.602   2.532
  475TIP3    H1 1389   3.284   6.648   2.579
  475TIP3    H2 1390   3.142   6.665   2.531
  476TIP3   OH2 1391   3.630   5.697   3.646
  476TIP3    H1 1392   3.636   5.781   3.601
  476TIP3    H2 1393   3.713   5.687   3.691
  477TIP3   OH2 1394   2.068   0.951   4.294
  477TIP3    H1 1395   2.039   0.861   4.283
  477TIP3    H2 1396   1.991   1.004   4.270
  478TIP3   OH2 1397   3.726   5.247   5.147
  478TIP3    H1 1398   3.683   5.226   5.230
  478TIP3    H2 1399   3.671   5.205   5.081
  479TIP3   OH2 1400   5.487   2.998   2.916
  479TIP3    H1 1401   5.420   3.066   2.920
  479TIP3    H2 1402   5.441   2.920   2.886
  480TIP3   OH2 1403   6.493   2.852   5.185
  480TIP3    H1 1404   6.534   2.859   5.099
  480TIP3    H2 1405   6.549   2.791   5.233
  481TIP3   OH2 1406   4.074   0.323   4.299
  481TIP3    H1 1407   4.007   0.392   4.296
  481TIP3    H2 1408   4.157   0.371   4.304
  482TIP3   OH2 1409   2.264   1.456   4.203
  482TIP3    H1 1410   2.213   1.506   4.139
  482TIP3    H2 1411   2.254   1.365   4.176
  483TIP3   OH2 1412   6.577   0.117   0.981
  483TIP3    H1 1413   6.557   0.139   1.072
  483TIP3    H2 1414   6.575   0.201   0.935
  484TIP3   OH2 1415   3.176   5.112   0.712
  484TIP3    H1 1416   3.259   5.159   0.703
  484TIP3    H2 1417   3.110   5.174   0.681
  485TIP3   OH2 1418   4.500   5.695   3.061
  485TIP3    H1 1419   4.515   5.602   3.041
  485TIP3    H2 1420   4.509   5.700   3.156
  486TIP3   OH2 1421   0.088   1.730   3.660
  486TIP3    H1 1422   0.122   1.667   3.597
  486TIP3    H2 1423   0.039   1.793   3.607
  487TIP3   OH2 1424   0.099   0.363   5.351
  487TIP3    H1 1425   0.188   0.388   5.328
  487TIP3    H2 1426   0.085   0.280   5.307
  488TIP3   OH2 1427   5.836   4.436   3.556
  488TIP3    H1 1428   5.841   4.383   3.477
  488TIP3    H2 1429   5.928   4.459   3.574
  489TIP3   OH2 1430   1.588   4.255   5.870
  489TIP3    H1 1431   1.673   4.213   5.854
  489TIP3    H2 1432   1.524   4.196   5.831
  490TIP3   OH2 1433   0.828   6.567   1.035
  490TIP3    H1 1434   0.757   6.562   1.098
  490TIP3    H2 1435   0.905   6.535   1.082
  491TIP3   OH2 1436   4.922   0.423   2.372
  491TIP3    H1 1437   4.840   0.416   2.324
  491TIP3    H2 1438   4.912   0.500   2.427
  492TIP3   OH2 1439   0.695   2.443   1.561
  492TIP3    H1 1440   0.669   2.475   1.648
  492TIP3    H2 1441   0.668   2.513   1.501
  493TIP3   OH2 1442   2.327   3.731   4.376
  493TIP3    H1 1443   2.294   3.763   4.293
  493TIP3    H2 1444   2.346   3.638   4.361
  494TIP3   OH2 1445   2.769   2.283   3.546
  494TIP3    H1 1446   2.847   2.238   3.512
  494TIP3    H2 1447   2.699   2.255   3.488
  495TIP3   OH2 1448   2.829   1.960   5.161
  495TIP3    H1 1449   2.891   1.923   5.224
  495TIP3    H2 1450   2.774   1.886   5.135
  496TIP3   OH2 1451   1.071   0.453   0.213
  496TIP3    H1 1452   1.039   0.376   0.166
  496TIP3    H2 1453   1.156   0.472   0.173
  497TIP3   OH2 1454   0.925   1.934   3.253
  497TIP3    H1 1455   1.008   1.981   3.262
  497TIP3    H2 1456   0.942   1.848   3.291
  498TIP3   OH2 1457   2.413   5.318   2.584
  498TIP3    H1 1458   2.482   5.251   2.586
  498TIP3    H2 1459   2.428   5.365   2.502
  499TIP3   OH2 1460   1.566   2.598   4.449
  499TIP3    H1 1461   1.560   2.693   4.442
  499TIP3    H2 1462   1.478   2.571   4.476
  500TIP3   OH2 1463   3.466   2.659   5.251
  500TIP3    H1 1464   3.498   2.726   5.312
  500TIP3    H2 1465   3.381   2.691   5.222
  501TIP3   OH2 1466   4.283   2.290   5.434
  501TIP3    H1 1467   4.268   2.268   5.342
  501TIP3    H2 1468   4.217   2.356   5.454
  502TIP3   OH2 1469   2.013   2.295   0.691
  502TIP3    H1 1470   2.001   2.389   0.681
  502TIP3    H2 1471   2.101   2.278   0.658
  503TIP3   OH2 1472   1.353   5.179   5.265
  503TIP3    H1 1473   1.332   5.087   5.284
  503TIP3    H2 1474   1.276   5.213   5.221
  504TIP3   OH2 1475   2.569   3.427   1.574
  504TIP3    H1 1476   2.572   3.522   1.557
  504TIP3    H2 1477   2.626   3.415   1.650
  505TIP3   OH2 1478   2.576   5.103   5.267
  505TIP3    H1 1479   2.659   5.055   5.265
  505TIP3    H2 1480   2.602   5.193   5.289
  506TIP3   OH2 1481   1.983   1.655   1.949
  506TIP3    H1 1482   1.912   1.677   1.888
  506TIP3    H2 1483   2.039   1.732   1.950
  507TIP3   OH2 1484   2.780   2.854   0.556
  507TIP3    H1 1485   2.753   2.934   0.600
  507TIP3    H2 1486   2.782   2.788   0.625
  508TIP3   OH2 1487   3.875   1.957   0.635
  508TIP3    H1 1488   3.948   1.935   0.577
  508TIP3    H2 1489   3.901   1.921   0.720
  509TIP3   OH2 1490   5.369   3.805   2.785
  509TIP3    H1 1491   5.444   3.784   2.729
  509TIP3    H2 1492   5.310   3.731   2.774
  510TIP3   OH2 1493   0.617   4.017   5.765
  510TIP3    H1 1494   0.702   4.018   5.721
  510TIP3    H2 1495   0.610   3.929   5.803
  511TIP3   OH2 1496   5.137   0.223   1.751
  511TIP3    H1 1497   5.224   0.233   1.713
  511TIP3    H2 1498   5.144   0.146   1.808
  512TIP3   OH2 1499   3.489   0.643   5.144
  512TIP3    H1 1500   3.459   0.636   5.235
  512TIP3    H2 1501   3.409   0.641   5.092
  513TIP3   OH2 1502   3.478   3.342   0.216
  513TIP3    H1 1503   3.455   3.394   0.292
  513TIP3    H2 1504   3.468   3.401   0.142
  514TIP3   OH2 1505   6.060   5.823   0.359
  514TIP3    H1 1506   6.025   5.810   0.271
  514TIP3    H2 1507   5.988   5.796   0.417
  515TIP3   OH2 1508   3.029   2.884   3.599
  515TIP3    H1 1509   3.005   2.976   3.587
  515TIP3    H2 1510   3.085   2.883   3.677
  516TIP3   OH2 1511   2.003   4.158   4.475
  516TIP3    H1 1512   2.075   4.119   4.524
  516TIP3    H2 1513   1.947   4.197   4.543
  517TIP3   OH2 1514   2.091   3.664   5.838
  517TIP3    H1 1515   2.075   3.746   5.790
  517TIP3    H2 1516   2.021   3.605   5.809
  518TIP3   OH2 1517   3.798   0.575   4.516
  518TIP3    H1 1518   3.744   0.502   4.546
  518TIP3    H2 1519   3.743   0.653   4.527
  519TIP3   OH2 1520   2.206   4.069   0.101
  519TIP3    H1 1521   2.301   4.067   0.103
  519TIP3    H2 1522   2.184   4.135   0.036
  520TIP3   OH2 1523   5.135   4.593   1.877
  520TIP3    H1 1524   5.145   4.500   1.898
  520TIP3    H2 1525   5.123   4.636   1.962
  521TIP3   OH2 1526   3.252   4.666   5.595
  521TIP3    H1 1527   3.326   4.606   5.606
  521TIP3    H2 1528   3.187   4.636   5.658
  522TIP3   OH2 1529   3.896   1.968   3.720
  522TIP3    H1 1530   3.992   1.964   3.725
  522TIP3    H2 1531   3.869   2.009   3.802
  523TIP3   OH2 1532   1.782   2.436   2.143
  523TIP3    H1 1533   1.837   2.507   2.175
  523TIP3    H2 1534   1.708   2.434   2.204
  524TIP3   OH2 1535   6.082   3.805   1.557
  524TIP3    H1 1536   6.058   3.823   1.465
  524TIP3    H2 1537   6.148   3.871   1.577
  525TIP3   OH2 1538   3.402   2.818   2.637
  525TIP3    H1 1539   3.375   2.846   2.725
  525TIP3    H2 1540   3.447   2.894   2.600
  526TIP3   OH2 1541   2.611   6.377   5.027
  526TIP3    H1 1542   2.630   6.323   5.104
  526TIP3    H2 1543   2.605   6.314   4.955
  527TIP3   OH2 1544   2.773   1.028   5.608
  527TIP3    H1 1545   2.812   1.105   5.565
  527TIP3    H2 1546   2.775   0.960   5.540
  528TIP3   OH2 1547   2.406   2.739   1.127
  528TIP3    H1 1548   2.386   2.811   1.068
  528TIP3    H2 1549   2.482   2.697   1.088
  529TIP3   OH2 1550   6.168   1.674   0.350
  529TIP3    H1 1551   6.110   1.599   0.342
  529TIP3    H2 1552   6.253   1.636   0.373
  530TIP3   OH2 1553   5.549   0.444   1.224
  530TIP3    H1 1554   5.625   0.498   1.243
  530TIP3    H2 1555   5.530   0.460   1.132
  531TIP3   OH2 1556   7.014   1.040   1.598
  531TIP3    H1 1557   7.037   1.080   1.514
  531TIP3    H2 1558   7.056   1.096   1.664
  532TIP3   OH2 1559   0.794   2.427   4.810
  532TIP3    H1 1560   0.847   2.357   4.848
  532TIP3    H2 1561   0.747   2.384   4.739
  533TIP3   OH2 1562   0.516   3.434   3.153
  533TIP3    H1 1563   0.433   3.417   3.110
  533TIP3    H2 1564   0.578   3.449   3.082
  534TIP3   OH2 1565   6.398   2.820  -0.009
  534TIP3    H1 1566   6.326   2.779   0.038
  534TIP3    H2 1567   6.384   2.914   0.002
  535TIP3   OH2 1568   2.967   4.485   5.322
  535TIP3    H1 1569   2.927   4.566   5.354
  535TIP3    H2 1570   3.042   4.515   5.270
  536TIP3   OH2 1571   4.238   4.843   0.831
  536TIP3    H1 1572   4.225   4.814   0.741
  536TIP3    H2 1573   4.333   4.858   0.838
  537TIP3   OH2 1574   3.077   6.159   0.827
  537TIP3    H1 1575   3.123   6.239   0.855
  537TIP3    H2 1576   3.082   6.161   0.732
  538TIP3   OH2 1577   1.221   3.599   4.633
  538TIP3    H1 1578   1.193   3.672   4.578
  538TIP3    H2 1579   1.148   3.536   4.627
  539TIP3   OH2 1580   5.378   1.298   0.125
  539TIP3    H1 1581   5.362   1.392   0.134
  539TIP3    H2 1582   5.472   1.292   0.106
  540TIP3   OH2 1583   0.994   4.039   3.793
  540TIP3    H1 1584   1.006   4.096   3.869
  540TIP3    H2 1585   1.081   4.000   3.779
  541TIP3   OH2 1586   4.677   3.062   5.240
  541TIP3    H1 1587   4.718   3.061   5.327
  541TIP3    H2 1588   4.674   2.970   5.214
  542TIP3   OH2 1589   5.417   4.080   4.780
  542TIP3    H1 1590   5.493   4.101   4.834
  542TIP3    H2 1591   5.342   4.115   4.828
  543TIP3   OH2 1592   0.657   6.050   5.824
  543TIP3    H1 1593   0.750   6.058   5.844
  543TIP3    H2 1594   0.654   6.021   5.733
  544TIP3   OH2 1595   4.461   0.789   0.971
  544TIP3    H1 1596   4.494   0.721   0.912
  544TIP3    H2 1597   4.439   0.862   0.914
  545TIP3   OH2 1598   6.469   5.352   3.569
  545TIP3    H1 1599   6.524   5.274   3.564
  545TIP3    H2 1600   6.475   5.390   3.481
  546TIP3   OH2 1601   5.299   1.538   1.556
  546TIP3    H1 1602   5.306   1.443   1.561
  546TIP3    H2 1603   5.359   1.563   1.486
  547TIP3   OH2 1604   5.156   6.205   4.834
  547TIP3    H1 1605   5.178   6.192   4.926
  547TIP3    H2 1606   5.065   6.175   4.826
  548TIP3   OH2 1607   0.135   1.976   1.804
  548TIP3    H1 1608   0.213   2.011   1.848
  548TIP3    H2 1609   0.162   1.965   1.713
  549TIP3   OH2 1610   0.573   6.466   4.787
  549TIP3    H1 1611   0.582   6.373   4.810
  549TIP3    H2 1612   0.618   6.512   4.857
  550TIP3   OH2 1613   0.936   0.771   3.438
  550TIP3    H1 1614   0.997   0.748   3.367
  550TIP3    H2 1615   0.984   0.751   3.518
  551TIP3   OH2 1616   4.032   2.675   0.393
  551TIP3    H1 1617   3.958   2.645   0.446
  551TIP3    H2 1618   4.021   2.770   0.387
  552TIP3   OH2 1619   2.973   4.025   3.922
  552TIP3    H1 1620   3.016   4.066   3.996
  552TIP3    H2 1621   2.922   4.095   3.882
  553TIP3   OH2 1622   0.986   3.773   3.431
  553TIP3    H1 1623   0.893   3.777   3.455
  553TIP3    H2 1624   1.003   3.856   3.387
  554TIP3   OH2 1625   4.208   0.986   2.090
  554TIP3    H1 1626   4.252   0.925   2.031
  554TIP3    H2 1627   4.176   0.932   2.162
  555TIP3   OH2 1628   0.314   1.484   5.783
  555TIP3    H1 1629   0.261   1.553   5.821
  555TIP3    H2 1630   0.319   1.506   5.690
  556TIP3   OH2 1631   6.204   2.257   3.826
  556TIP3    H1 1632   6.228   2.170   3.793
  556TIP3    H2 1633   6.281   2.285   3.876
  557TIP3   OH2 1634   6.981   5.271   1.353
  557TIP3    H1 1635   6.903   5.223   1.326
  557TIP3    H2 1636   7.034   5.277   1.274
  558TIP3   OH2 1637   5.408   2.747   1.921
  558TIP3    H1 1638   5.390   2.695   1.843
  558TIP3    H2 1639   5.490   2.792   1.902
  559TIP3   OH2 1640   3.631   3.822   1.138
  559TIP3    H1 1641   3.576   3.813   1.060
  559TIP3    H2 1642   3.571   3.853   1.206
  560TIP3   OH2 1643   4.912   2.233   5.250
  560TIP3    H1 1644   4.927   2.202   5.160
  560TIP3    H2 1645   4.818   2.222   5.263
  561TIP3   OH2 1646   7.129   0.364   0.082
  561TIP3    H1 1647   7.040   0.331   0.071
  561TIP3    H2 1648   7.178   0.291   0.119
  562TIP3   OH2 1649   6.123   2.542   2.922
  562TIP3    H1 1650   6.126   2.564   3.015
  562TIP3    H2 1651   6.191   2.476   2.911
  563TIP3   OH2 1652   6.684   4.355   2.201
  563TIP3    H1 1653   6.694   4.389   2.290
  563TIP3    H2 1654   6.764   4.304   2.185
  564TIP3   OH2 1655   6.609   0.835   5.672
  564TIP3    H1 1656   6.701   0.809   5.662
  564TIP3    H2 1657   6.598   0.848   5.766
  565TIP3   OH2 1658   1.384   2.135   0.613
  565TIP3    H1 1659   1.426   2.051   0.631
  565TIP3    H2 1660   1.439   2.199   0.657
  566TIP3   OH2 1661   7.208   4.003   2.177
  566TIP3    H1 1662   7.215   4.097   2.197
  566TIP3    H2 1663   7.184   4.000   2.084
  567TIP3   OH2 1664   6.699   5.024   4.570
  567TIP3    H1 1665   6.745   5.020   4.486
  567TIP3    H2 1666   6.745   5.092   4.619
  568TIP3   OH2 1667   4.136   2.408   1.546
  568TIP3    H1 1668   4.149   2.413   1.640
  568TIP3    H2 1669   4.185   2.330   1.519
  569TIP3   OH2 1670   3.434   2.507   5.843
  569TIP3    H1 1671   3.343   2.525   5.822
  569TIP3    H2 1672   3.467   2.458   5.767
  570TIP3   OH2 1673   3.973   3.913   3.340
  570TIP3    H1 1674   3.880   3.936   3.334
  570TIP3    H2 1675   4.001   3.949   3.424
  571TIP3   OH2 1676   5.897   0.142   1.040
  571TIP3    H1 1677   5.981   0.156   1.083
  571TIP3    H2 1678   5.919   0.097   0.958
  572TIP3   OH2 1679   5.243   0.483   1.297
  572TIP3    H1 1680   5.310   0.433   1.251
  572TIP3    H2 1681   5.223   0.431   1.375
  573TIP3   OH2 1682   3.632   4.009   3.940
  573TIP3    H1 1683   3.645   4.101   3.914
  573TIP3    H2 1684   3.549   4.010   3.988
  574TIP3   OH2 1685   3.575   3.023   2.208
  574TIP3    H1 1686   3.596   3.116   2.213
  574TIP3    H2 1687   3.562   3.007   2.115
  575TIP3   OH2 1688   3.171   1.301   1.755
  575TIP3    H1 1689   3.159   1.375   1.815
  575TIP3    H2 1690   3.083   1.262   1.748
  576TIP3   OH2 1691   5.871   1.960   2.435
  576TIP3    H1 1692   5.843   1.938   2.524
  576TIP3    H2 1693   5.860   1.879   2.385
  577TIP3   OH2 1694   1.867   2.147   3.653
  577TIP3    H1 1695   1.827   2.148   3.741
  577TIP3    H2 1696   1.792   2.141   3.594
  578TIP3   OH2 1697   4.865   4.061   0.341
  578TIP3    H1 1698   4.862   4.034   0.249
  578TIP3    H2 1699   4.956   4.086   0.356
  579TIP3   OH2 1700   3.889   0.768   3.961
  579TIP3    H1 1701   3.818   0.733   3.907
  579TIP3    H2 1702   3.941   0.691   3.985
  580TIP3   OH2 1703   7.104   4.706   2.237
  580TIP3    H1 1704   7.181   4.651   2.221
  580TIP3    H2 1705   7.138   4.779   2.289
  581TIP3   OH2 1706   3.973   1.437   0.292
  581TIP3    H1 1707   3.981   1.524   0.254
  581TIP3    H2 1708   3.904   1.444   0.357
  582TIP3   OH2 1709   6.195   4.278   4.730
  582TIP3    H1 1710   6.236   4.200   4.693
  582TIP3    H2 1711   6.208   4.269   4.825
  583TIP3   OH2 1712   1.460   5.049   2.556
  583TIP3    H1 1713   1.416   5.012   2.632
  583TIP3    H2 1714   1.390   5.091   2.505
  584TIP3   OH2 1715   1.910   1.947   2.835
  584TIP3    H1 1716   1.999   1.934   2.867
  584TIP3    H2 1717   1.889   2.037   2.857
  585TIP3   OH2 1718   6.371   0.881   2.948
  585TIP3    H1 1719   6.395   0.789   2.939
  585TIP3    H2 1720   6.302   0.882   3.015
  586TIP3   OH2 1721   1.385   1.284   1.761
  586TIP3    H1 1722   1.352   1.227   1.692
  586TIP3    H2 1723   1.454   1.335   1.718
  587TIP3   OH2 1724   4.847   1.107   0.305
  587TIP3    H1 1725   4.918   1.164   0.333
  587TIP3    H2 1726   4.843   1.116   0.210
  588TIP3   OH2 1727   0.761   3.029   0.227
  588TIP3    H1 1728   0.807   2.999   0.148
  588TIP3    H2 1729   0.766   2.954   0.286
  589TIP3   OH2 1730   1.545   2.286   1.856
  589TIP3    H1 1731   1.578   2.231   1.927
  589TIP3    H2 1732   1.620   2.295   1.797
  590TIP3   OH2 1733   0.420   6.204   1.852
  590TIP3    H1 1734   0.492   6.217   1.914
  590TIP3    H2 1735   0.369   6.132   1.889
  591TIP3   OH2 1736   4.222   4.197   3.465
  591TIP3    H1 1737   4.255   4.279   3.502
  591TIP3    H2 1738   4.128   4.199   3.480
  592TIP3   OH2 1739   4.498   6.417   2.592
  592TIP3    H1 1740   4.428   6.414   2.528
  592TIP3    H2 1741   4.564   6.474   2.552
  593TIP3   OH2 1742   0.594   0.271   0.677
  593TIP3    H1 1743   0.640   0.219   0.743
  593TIP3    H2 1744   0.600   0.361   0.708
  594TIP3   OH2 1745   1.309   1.517   5.574
  594TIP3    H1 1746   1.301   1.611   5.564
  594TIP3    H2 1747   1.325   1.484   5.486
  595TIP3   OH2 1748   2.385   2.096   5.436
  595TIP3    H1 1749   2.464   2.055   5.471
  595TIP3    H2 1750   2.351   2.033   5.373
  596TIP3   OH2 1751   4.914   5.578   5.253
  596TIP3    H1 1752   4.828   5.588   5.213
  596TIP3    H2 1753   4.975   5.573   5.179
  597TIP3   OH2 1754   0.125   5.253   2.856
  597TIP3    H1 1755   0.054   5.316   2.864
  597TIP3    H2 1756   0.205   5.304   2.872
  598TIP3   OH2 1757   2.525   4.379   4.574
  598TIP3    H1 1758   2.438   4.360   4.541
  598TIP3    H2 1759   2.526   4.343   4.662
  599TIP3   OH2 1760   2.302   1.473   2.646
  599TIP3    H1 1761   2.316   1.459   2.552
  599TIP3    H2 1762   2.220   1.522   2.652
  600TIP3   OH2 1763   6.001   2.492   5.744
  600TIP3    H1 1764   6.072   2.550   5.771
  600TIP3    H2 1765   5.996   2.426   5.813
  601TIP3   OH2 1766   0.707   5.935   0.842
  601TIP3    H1 1767   0.765   5.904   0.911
  601TIP3    H2 1768   0.715   6.031   0.845
  602TIP3   OH2 1769   6.986   0.004   0.726
  602TIP3    H1 1770   6.937   0.061   0.786
  602TIP3    H2 1771   7.048  -0.041   0.783
  603TIP3   OH2 1772   2.365   1.745   2.902
  603TIP3    H1 1773   2.270   1.754   2.897
  603TIP3    H2 1774   2.396   1.833   2.922
  604TIP3   OH2 1775   6.379   2.094   3.986
  604TIP3    H1 1776   6.469   2.112   3.961
  604TIP3    H2 1777   6.366   2.143   4.067
  605TIP3   OH2 1778   6.340   1.933   1.489
  605TIP3    H1 1779   6.259   1.938   1.540
  605TIP3    H2 1780   6.324   1.989   1.414
  606TIP3   OH2 1781   3.113   1.536   2.964
  606TIP3    H1 1782   3.140   1.498   3.048
  606TIP3    H2 1783   3.154   1.622   2.962
  607TIP3   OH2 1784   5.918   0.251   0.319
  607TIP3    H1 1785   5.880   0.299   0.245
  607TIP3    H2 1786   5.860   0.270   0.392
  608TIP3   OH2 1787   1.265   2.920   2.210
  608TIP3    H1 1788   1.357   2.913   2.186
  608TIP3    H2 1789   1.218   2.873   2.141
  609TIP3   OH2 1790   6.437   3.972   2.903
  609TIP3    H1 1791   6.435   3.896   2.960
  609TIP3    H2 1792   6.516   4.020   2.928
  610TIP3   OH2 1793   5.971   4.847   1.954
  610TIP3    H1 1794   5.879   4.828   1.974
  610TIP3    H2 1795   6.000   4.772   1.902
  611TIP3   OH2 1796   5.222   3.213   4.228
  611TIP3    H1 1797   5.316   3.211   4.247
  611TIP3    H2 1798   5.189   3.287   4.278
  612TIP3   OH2 1799   2.649   1.134   1.710
  612TIP3    H1 1800   2.701   1.128   1.629
  612TIP3    H2 1801   2.624   1.226   1.716
  613TIP3   OH2 1802   3.686   0.612   2.363
  613TIP3    H1 1803   3.676   0.597   2.269
  613TIP3    H2 1804   3.660   0.703   2.377
  614TIP3   OH2 1805   6.597   2.999   5.440
  614TIP3    H1 1806   6.506   2.975   5.422
  614TIP3    H2 1807   6.638   2.917   5.468
  615TIP3   OH2 1808   1.099   6.060   3.187
  615TIP3    H1 1809   1.053   6.115   3.123
  615TIP3    H2 1810   1.103   6.115   3.266
  616TIP3   OH2 1811   0.268   5.960   2.899
  616TIP3    H1 1812   0.188   5.910   2.920
  616TIP3    H2 1813   0.322   5.897   2.851
  617TIP3   OH2 1814   1.719   0.192   1.985
  617TIP3    H1 1815   1.680   0.173   2.070
  617TIP3    H2 1816   1.780   0.120   1.970
  618TIP3   OH2 1817   2.414   3.205   2.917
  618TIP3    H1 1818   2.396   3.120   2.957
  618TIP3    H2 1819   2.404   3.267   2.990
  619TIP3   OH2 1820   5.251   3.700   1.405
  619TIP3    H1 1821   5.166   3.688   1.448
  619TIP3    H2 1822   5.257   3.627   1.343
  620TIP3   OH2 1823   1.215   1.482   3.547
  620TIP3    H1 1824   1.291   1.533   3.577
  620TIP3    H2 1825   1.215   1.491   3.452
  621TIP3   OH2 1826   5.390   4.757   2.950
  621TIP3    H1 1827   5.375   4.706   3.029
  621TIP3    H2 1828   5.369   4.847   2.975
  622TIP3   OH2 1829   1.193   1.639   2.406
  622TIP3    H1 1830   1.218   1.673   2.321
  622TIP3    H2 1831   1.107   1.599   2.392
  623TIP3   OH2 1832   3.920   4.818   0.712
  623TIP3    H1 1833   3.962   4.732   0.713
  623TIP3    H2 1834   3.991   4.880   0.732
  624TIP3   OH2 1835   0.432   5.076   2.932
  624TIP3    H1 1836   0.517   5.032   2.932
  624TIP3    H2 1837   0.437   5.137   2.859
  625TIP3   OH2 1838   2.031   3.163   1.865
  625TIP3    H1 1839   2.104   3.216   1.833
  625TIP3    H2 1840   1.955   3.198   1.819
  626TIP3   OH2 1841   3.560   0.902   3.663
  626TIP3    H1 1842   3.639   0.863   3.625
  626TIP3    H2 1843   3.489   0.844   3.636
  627TIP3   OH2 1844   0.450   3.178   2.711
  627TIP3    H1 1845   0.428   3.228   2.632
  627TIP3    H2 1846   0.444   3.242   2.782
  628TIP3   OH2 1847   3.717   2.978   3.499
  628TIP3    H1 1848   3.627   3.002   3.520
  628TIP3    H2 1849   3.727   2.998   3.406
  629TIP3   OH2 1850   1.227   1.089   3.445
  629TIP3    H1 1851   1.204   1.165   3.392
  629TIP3    H2 1852   1.228   1.123   3.535
  630TIP3   OH2 1853   4.967   2.307   1.528
  630TIP3    H1 1854   4.907   2.252   1.578
  630TIP3    H2 1855   4.973   2.264   1.443
  631TIP3   OH2 1856   1.472   1.983   4.358
  631TIP3    H1 1857   1.407   1.943   4.417
  631TIP3    H2 1858   1.488   2.069   4.395
  632TIP3   OH2 1859   5.508   2.876   2.162
  632TIP3    H1 1860   5.569   2.823   2.111
  632TIP3    H2 1861   5.429   2.823   2.168
  633TIP3   OH2 1862   3.209   4.119   2.783
  633TIP3    H1 1863   3.286   4.107   2.728
  633TIP3    H2 1864   3.240   4.100   2.872
  634TIP3   OH2 1865   6.472   3.528   1.151
  634TIP3    H1 1866   6.530   3.600   1.129
  634TIP3    H2 1867   6.388   3.571   1.172
  635TIP3   OH2 1868   2.576   2.020   0.208
  635TIP3    H1 1869   2.547   1.955   0.272
  635TIP3    H2 1870   2.663   1.991   0.182
  636TIP3   OH2 1871   5.525   0.543   4.370
  636TIP3    H1 1872   5.591   0.559   4.437
  636TIP3    H2 1873   5.520   0.625   4.321
  637TIP3   OH2 1874   3.191   3.916   2.989
  637TIP3    H1 1875   3.096   3.921   2.992
  637TIP3    H2 1876   3.210   3.837   2.939
  638TIP3   OH2 1877   4.308   3.302   5.818
  638TIP3    H1 1878   4.287   3.373   5.757
  638TIP3    H2 1879   4.223   3.268   5.845
  639TIP3   OH2 1880   2.822  -0.013   3.696
  639TIP3    H1 1881   2.909  -0.020   3.656
  639TIP3    H2 1882   2.827   0.064   3.753
  640TIP3   OH2 1883   4.056   5.344   1.145
  640TIP3    H1 1884   4.095   5.261   1.175
  640TIP3    H2 1885   4.103   5.364   1.064
  641TIP3   OH2 1886   6.290   3.763   4.231
  641TIP3    H1 1887   6.382   3.747   4.249
  641TIP3    H2 1888   6.273   3.849   4.271
  642TIP3   OH2 1889   3.708   5.413   0.264
  642TIP3    H1 1890   3.628   5.441   0.308
  642TIP3    H2 1891   3.729   5.485   0.204
  643TIP3   OH2 1892   1.106   3.171   4.339
  643TIP3    H1 1893   1.108   3.107   4.410
  643TIP3    H2 1894   1.058   3.245   4.375
  644TIP3   OH2 1895   2.001   0.566   5.099
  644TIP3    H1 1896   2.005   0.659   5.119
  644TIP3    H2 1897   1.971   0.562   5.008
  645TIP3   OH2 1898   0.571   3.175   3.993
  645TIP3    H1 1899   0.570   3.082   4.015
  645TIP3    H2 1900   0.610   3.179   3.906
  646TIP3   OH2 1901   2.669   6.713   5.755
  646TIP3    H1 1902   2.605   6.694   5.687
  646TIP3    H2 1903   2.620   6.703   5.837
  647TIP3   OH2 1904   4.307   2.168   5.701
  647TIP3    H1 1905   4.352   2.084   5.703
  647TIP3    H2 1906   4.328   2.205   5.615
  648TIP3   OH2 1907   4.048   3.775   5.759
  648TIP3    H1 1908   4.036   3.847   5.821
  648TIP3    H2 1909   3.969   3.777   5.704
  649TIP3   OH2 1910   5.668   4.464   1.743
  649TIP3    H1 1911   5.614   4.467   1.822
  649TIP3    H2 1912   5.660   4.552   1.706
  650TIP3   OH2 1913   6.699   2.140   1.957
  650TIP3    H1 1914   6.608   2.113   1.947
  650TIP3    H2 1915   6.702   2.186   2.040
  651TIP3   OH2 1916   1.397   3.661   5.831
  651TIP3    H1 1917   1.366   3.668   5.921
  651TIP3    H2 1918   1.492   3.658   5.837
  652TIP3   OH2 1919   0.350   2.513   0.326
  652TIP3    H1 1920   0.400   2.448   0.276
  652TIP3    H2 1921   0.416   2.562   0.376
  653TIP3   OH2 1922   3.887   2.205   0.761
  653TIP3    H1 1923   3.852   2.185   0.848
  653TIP3    H2 1924   3.903   2.119   0.722
  654TIP3   OH2 1925   3.862   2.444   2.299
  654TIP3    H1 1926   3.849   2.411   2.388
  654TIP3    H2 1927   3.895   2.533   2.311
  655TIP3   OH2 1928   6.888   1.623   5.846
  655TIP3    H1 1929   6.916   1.533   5.865
  655TIP3    H2 1930   6.873   1.662   5.932
  656TIP3   OH2 1931   3.845   4.865   3.748
  656TIP3    H1 1932   3.773   4.921   3.776
  656TIP3    H2 1933   3.851   4.880   3.653
  657TIP3   OH2 1934   4.573   0.549   0.873
  657TIP3    H1 1935   4.659   0.585   0.852
  657TIP3    H2 1936   4.519   0.568   0.796
  658TIP3   OH2 1937   5.348   0.326   4.798
  658TIP3    H1 1938   5.369   0.239   4.832
  658TIP3    H2 1939   5.286   0.310   4.726
  659TIP3   OH2 1940   0.133   4.272   5.278
  659TIP3    H1 1941   0.226   4.253   5.291
  659TIP3    H2 1942   0.131   4.343   5.214
  660TIP3   OH2 1943   0.398   5.333   5.852
  660TIP3    H1 1944   0.389   5.411   5.797
  660TIP3    H2 1945   0.471   5.353   5.910
  661TIP3   OH2 1946   2.887   5.108   5.506
  661TIP3    H1 1947   2.923   5.088   5.420
  661TIP3    H2 1948   2.857   5.199   5.499
  662TIP3   OH2 1949   1.394   4.613   3.427
  662TIP3    H1 1950   1.383   4.707   3.417
  662TIP3    H2 1951   1.305   4.579   3.432
  663TIP3   OH2 1952   0.318   3.067   2.310
  663TIP3    H1 1953   0.287   3.126   2.379
  663TIP3    H2 1954   0.411   3.088   2.300
  664TIP3   OH2 1955   2.890   4.736   1.010
  664TIP3    H1 1956   2.933   4.728   1.096
  664TIP3    H2 1957   2.879   4.830   0.997
  665TIP3   OH2 1958   2.802   0.163   4.388
  665TIP3    H1 1959   2.753   0.086   4.360
  665TIP3    H2 1960   2.752   0.198   4.461
  666TIP3   OH2 1961   2.905   6.563   5.350
  666TIP3    H1 1962   2.887   6.474   5.321
  666TIP3    H2 1963   2.996   6.578   5.326
  667TIP3   OH2 1964   2.500   3.319   4.006
  667TIP3    H1 1965   2.573   3.300   4.064
  667TIP3    H2 1966   2.442   3.375   4.058
  668TIP3   OH2 1967   3.845   1.147   0.520
  668TIP3    H1 1968   3.795   1.066   0.523
  668TIP3    H2 1969   3.790   1.208   0.471
  669TIP3   OH2 1970   6.069   1.829   2.730
  669TIP3    H1 1971   6.112   1.780   2.800
  669TIP3    H2 1972   5.976   1.831   2.756
  670TIP3   OH2 1973   2.530   2.321   2.359
  670TIP3    H1 1974   2.512   2.307   2.452
  670TIP3    H2 1975   2.463   2.383   2.330
  671TIP3   OH2 1976   0.978   0.481   1.381
  671TIP3    H1 1977   1.070   0.502   1.396
  671TIP3    H2 1978   0.938   0.483   1.468
  672TIP3   OH2 1979   2.350   2.011   3.269
  672TIP3    H1 1980   2.377   1.993   3.179
  672TIP3    H2 1981   2.321   2.102   3.267
  673TIP3   OH2 1982   5.152   0.664   1.906
  673TIP3    H1 1983   5.152   0.742   1.962
  673TIP3    H2 1984   5.104   0.599   1.956
  674TIP3   OH2 1985   4.461   5.766   5.192
  674TIP3    H1 1986   4.515   5.719   5.129
  674TIP3    H2 1987   4.412   5.698   5.238
  675TIP3   OH2 1988   2.476   6.185   5.685
  675TIP3    H1 1989   2.545   6.245   5.713
  675TIP3    H2 1990   2.411   6.241   5.643
  676TIP3   OH2 1991   0.368   0.107   5.869
  676TIP3    H1 1992   0.337   0.184   5.821
  676TIP3    H2 1993   0.297   0.088   5.931
  677TIP3   OH2 1994   3.937   1.191   0.159
  677TIP3    H1 1995   3.848   1.181   0.126
  677TIP3    H2 1996   3.932   1.267   0.218
  678TIP3   OH2 1997   4.298   4.636   2.571
  678TIP3    H1 1998   4.208   4.663   2.552
  678TIP3    H2 1999   4.297   4.541   2.559
  679TIP3   OH2 2000   4.770   6.301   0.435
  679TIP3    H1 2001   4.837   6.357   0.395
  679TIP3    H2 2002   4.696   6.360   0.450
  680TIP3   OH2 2003   0.501   4.112   3.532
  680TIP3    H1 2004   0.564   4.153   3.473
  680TIP3    H2 2005   0.553   4.049   3.583
  681TIP3   OH2 2006   5.399   2.972   5.007
  681TIP3    H1 2007   5.393   3.066   5.025
  681TIP3    H2 2008   5.317   2.951   4.963
  682TIP3   OH2 2009   0.799   5.921   4.289
  682TIP3    H1 2010   0.839   6.006   4.266
  682TIP3    H2 2011   0.715   5.922   4.245
  683TIP3   OH2 2012   1.710   4.055   3.053
  683TIP3    H1 2013   1.685   4.146   3.073
  683TIP3    H2 2014   1.635   4.003   3.083
  684TIP3   OH2 2015   0.850   2.353   3.144
  684TIP3    H1 2016   0.897   2.302   3.078
  684TIP3    H2 2017   0.853   2.300   3.223
  685TIP3   OH2 2018   0.746   1.521   1.627
  685TIP3    H1 2019   0.684   1.556   1.692
  685TIP3    H2 2020   0.719   1.561   1.545
  686TIP3   OH2 2021   3.003   4.428   2.166
  686TIP3    H1 2022   2.952   4.484   2.224
  686TIP3    H2 2023   3.048   4.367   2.225
  687TIP3   OH2 2024   1.218   5.695   3.540
  687TIP3    H1 2025   1.293   5.734   3.495
  687TIP3    H2 2026   1.210   5.608   3.502
  688TIP3   OH2 2027   6.475   5.722   1.474
  688TIP3    H1 2028   6.452   5.630   1.463
  688TIP3    H2 2029   6.561   5.730   1.432
  689TIP3   OH2 2030   0.120   0.502   1.624
  689TIP3    H1 2031   0.100   0.592   1.650
  689TIP3    H2 2032   0.044   0.475   1.572
  690TIP3   OH2 2033   0.227   0.373   1.842
  690TIP3    H1 2034   0.182   0.431   1.780
  690TIP3    H2 2035   0.190   0.286   1.824
  691TIP3   OH2 2036   6.922   5.888   1.892
  691TIP3    H1 2037   6.995   5.828   1.910
  691TIP3    H2 2038   6.844   5.835   1.902
  692TIP3   OH2 2039   1.915   0.365   1.953
  692TIP3    H1 2040   1.897   0.414   1.872
  692TIP3    H2 2041   1.832   0.320   1.972
  693TIP3   OH2 2042   0.991   3.544   1.996
  693TIP3    H1 2043   1.032   3.534   2.082
  693TIP3    H2 2044   0.984   3.455   1.962
  694TIP3   OH2 2045   6.993   4.932   1.406
  694TIP3    H1 2046   6.901   4.910   1.394
  694TIP3    H2 2047   7.006   4.928   1.501
  695TIP3   OH2 2048   4.315   1.753   0.166
  695TIP3    H1 2049   4.279   1.732   0.079
  695TIP3    H2 2050   4.401   1.790   0.147
  696TIP3   OH2 2051   6.933   0.044   1.366
  696TIP3    H1 2052   6.996   0.093   1.419
  696TIP3    H2 2053   6.957  -0.048   1.379
  697TIP3   OH2 2054   2.032   0.157   2.748
  697TIP3    H1 2055   2.058   0.146   2.839
  697TIP3    H2 2056   2.110   0.133   2.697
  698TIP3   OH2 2057   3.908   5.951   0.674
  698TIP3    H1 2058   3.895   5.949   0.579
  698TIP3    H2 2059   3.992   5.909   0.688
  699TIP3   OH2 2060   3.338   3.672   1.954
  699TIP3    H1 2061   3.260   3.718   1.924
  699TIP3    H2 2062   3.324   3.660   2.048
  700TIP3   OH2 2063   2.845   6.654   0.332
  700TIP3    H1 2064   2.788   6.582   0.359
  700TIP3    H2 2065   2.830   6.723   0.397
  701TIP3   OH2 2066   3.495   0.255   3.592
  701TIP3    H1 2067   3.461   0.172   3.556
  701TIP3    H2 2068   3.422   0.292   3.641
  702TIP3   OH2 2069   3.273   2.923   2.859
  702TIP3    H1 2070   3.289   3.014   2.885
  702TIP3    H2 2071   3.205   2.893   2.920
  703TIP3   OH2 2072   3.772   5.624   0.065
  703TIP3    H1 2073   3.727   5.707   0.082
  703TIP3    H2 2074   3.834   5.644  -0.005
  704TIP3   OH2 2075   4.551   2.404   1.688
  704TIP3    H1 2076   4.538   2.318   1.729
  704TIP3    H2 2077   4.614   2.448   1.745
  705TIP3   OH2 2078   5.694   1.136   3.904
  705TIP3    H1 2079   5.644   1.198   3.852
  705TIP3    H2 2080   5.702   1.178   3.990
  706TIP3   OH2 2081   4.333   2.108   2.771
  706TIP3    H1 2082   4.407   2.145   2.819
  706TIP3    H2 2083   4.259   2.164   2.794
  707TIP3   OH2 2084   3.919   4.304   4.218
  707TIP3    H1 2085   3.993   4.362   4.205
  707TIP3    H2 2086   3.933   4.266   4.305
  708TIP3   OH2 2087   3.354   6.345   5.296
  708TIP3    H1 2088   3.441   6.387   5.298
  708TIP3    H2 2089   3.302   6.400   5.238
  709TIP3   OH2 2090   6.458   0.862   2.497
  709TIP3    H1 2091   6.514   0.853   2.420
  709TIP3    H2 2092   6.497   0.802   2.561
  710TIP3   OH2 2093   2.479   5.958   3.859
  710TIP3    H1 2094   2.449   5.869   3.874
  710TIP3    H2 2095   2.573   5.951   3.847
  711TIP3   OH2 2096   0.286   2.381   0.054
  711TIP3    H1 2097   0.207   2.389   0.106
  711TIP3    H2 2098   0.256   2.390  -0.037
  712TIP3   OH2 2099   1.667   2.286   2.486
  712TIP3    H1 2100   1.713   2.369   2.470
  712TIP3    H2 2101   1.634   2.294   2.576
  713TIP3   OH2 2102   1.208   0.064   0.212
  713TIP3    H1 2103   1.211  -0.026   0.244
  713TIP3    H2 2104   1.186   0.117   0.289
  714TIP3   OH2 2105   4.016   6.190   0.398
  714TIP3    H1 2106   4.008   6.218   0.489
  714TIP3    H2 2107   4.018   6.094   0.403
  715TIP3   OH2 2108   3.433   1.341   3.735
  715TIP3    H1 2109   3.353   1.383   3.765
  715TIP3    H2 2110   3.480   1.319   3.816
  716TIP3   OH2 2111   1.778   6.702   1.810
  716TIP3    H1 2112   1.727   6.768   1.762
  716TIP3    H2 2113   1.869   6.720   1.788
  717TIP3   OH2 2114   2.437   6.046   2.920
  717TIP3    H1 2115   2.393   5.984   2.862
  717TIP3    H2 2116   2.429   6.130   2.876
  718TIP3   OH2 2117   4.006   5.644   2.178
  718TIP3    H1 2118   3.944   5.717   2.182
  718TIP3    H2 2119   4.063   5.657   2.254
  719TIP3   OH2 2120   2.182   3.448   5.262
  719TIP3    H1 2121   2.121   3.521   5.261
  719TIP3    H2 2122   2.134   3.376   5.220
  720TIP3   OH2 2123   5.351   4.346   3.318
  720TIP3    H1 2124   5.414   4.278   3.342
  720TIP3    H2 2125   5.271   4.323   3.366
  721TIP3   OH2 2126   6.733   3.878   4.807
  721TIP3    H1 2127   6.826   3.860   4.816
  721TIP3    H2 2128   6.698   3.866   4.896
  722TIP3   OH2 2129   0.965   1.605   0.799
  722TIP3    H1 2130   0.908   1.650   0.861
  722TIP3    H2 2131   0.923   1.617   0.714
  723TIP3   OH2 2132   2.280   4.639   1.069
  723TIP3    H1 2133   2.311   4.602   1.152
  723TIP3    H2 2134   2.234   4.719   1.094
  724TIP3   OH2 2135   3.984   0.379   4.635
  724TIP3    H1 2136   3.921   0.381   4.563
  724TIP3    H2 2137   3.942   0.328   4.703
  725TIP3   OH2 2138   0.234   3.162   3.614
  725TIP3    H1 2139   0.178   3.099   3.568
  725TIP3    H2 2140   0.205   3.157   3.705
  726TIP3   OH2 2141   6.390   3.834   1.627
  726TIP3    H1 2142   6.412   3.765   1.564
  726TIP3    H2 2143   6.474   3.873   1.650
  727TIP3   OH2 2144   5.799   6.689   3.220
  727TIP3    H1 2145   5.704   6.700   3.223
  727TIP3    H2 2146   5.823   6.723   3.133
  728TIP3   OH2 2147   4.845   5.964   2.336
  728TIP3    H1 2148   4.921   5.914   2.306
  728TIP3    H2 2149   4.833   6.032   2.270
  729TIP3   OH2 2150   4.148   3.494   5.656
  729TIP3    H1 2151   4.079   3.429   5.671
  729TIP3    H2 2152   4.114   3.575   5.695
  730TIP3   OH2 2153   3.648   5.817   5.271
  730TIP3    H1 2154   3.604   5.740   5.234
  730TIP3    H2 2155   3.580   5.883   5.276
  731TIP3   OH2 2156   5.462   3.778   3.972
  731TIP3    H1 2157   5.524   3.764   3.900
  731TIP3    H2 2158   5.504   3.844   4.027
  732TIP3   OH2 2159   3.114   2.276   2.705
  732TIP3    H1 2160   3.112   2.265   2.610
  732TIP3    H2 2161   3.206   2.261   2.728
  733TIP3   OH2 2162   2.380   2.484   1.502
  733TIP3    H1 2163   2.415   2.442   1.423
  733TIP3    H2 2164   2.417   2.572   1.500
  734TIP3   OH2 2165   0.775   3.620   1.242
  734TIP3    H1 2166   0.831   3.669   1.181
  734TIP3    H2 2167   0.700   3.676   1.257
  735TIP3   OH2 2168   5.423   5.820   5.735
  735TIP3    H1 2169   5.334   5.856   5.733
  735TIP3    H2 2170   5.463   5.852   5.654
  736TIP3   OH2 2171   5.949   4.777   3.006
  736TIP3    H1 2172   5.860   4.795   3.036
  736TIP3    H2 2173   5.939   4.715   2.934
  737TIP3   OH2 2174   4.415   4.275   5.256
  737TIP3    H1 2175   4.434   4.291   5.348
  737TIP3    H2 2176   4.359   4.198   5.256
  738TIP3   OH2 2177   3.039   3.661   3.571
  738TIP3    H1 2178   3.065   3.748   3.599
  738TIP3    H2 2179   3.095   3.602   3.622
  739TIP3   OH2 2180   5.043   0.440   3.049
  739TIP3    H1 2181   5.069   0.513   2.992
  739TIP3    H2 2182   5.043   0.478   3.137
  740TIP3   OH2 2183   6.234   2.908   3.682
  740TIP3    H1 2184   6.155   2.868   3.719
  740TIP3    H2 2185   6.211   3.000   3.670
  741TIP3   OH2 2186   1.226   2.291   3.249
  741TIP3    H1 2187   1.261   2.296   3.338
  741TIP3    H2 2188   1.177   2.209   3.247
  742TIP3   OH2 2189   1.364   5.004   3.116
  742TIP3    H1 2190   1.276   4.975   3.093
  742TIP3    H2 2191   1.403   5.031   3.033
  743TIP3   OH2 2192   4.164   0.632   4.185
  743TIP3    H1 2193   4.215   0.598   4.259
  743TIP3    H2 2194   4.083   0.665   4.225
  744TIP3   OH2 2195   0.200   4.973   0.563
  744TIP3    H1 2196   0.238   4.886   0.564
  744TIP3    H2 2197   0.111   4.960   0.529
  745TIP3   OH2 2198   3.264   6.392   3.913
  745TIP3    H1 2199   3.221   6.362   3.993
  745TIP3    H2 2200   3.357   6.396   3.935
  746TIP3   OH2 2201   6.679   2.789   1.267
  746TIP3    H1 2202   6.585   2.768   1.267
  746TIP3    H2 2203   6.720   2.711   1.228
  747TIP3   OH2 2204   1.080   6.797   1.038
  747TIP3    H1 2205   1.092   6.702   1.034
  747TIP3    H2 2206   1.035   6.819   0.956
  748TIP3   OH2 2207   6.209   4.166   4.987
  748TIP3    H1 2208   6.299   4.173   5.019
  748TIP3    H2 2209   6.155   4.175   5.066
  749TIP3   OH2 2210   5.338   1.985   3.493
  749TIP3    H1 2211   5.324   1.995   3.587
  749TIP3    H2 2212   5.272   1.922   3.465
  750TIP3   OH2 2213   2.541   1.412   2.204
  750TIP3    H1 2214   2.540   1.483   2.140
  750TIP3    H2 2215   2.626   1.421   2.249
  751TIP3   OH2 2216   1.374   4.380   5.148
  751TIP3    H1 2217   1.417   4.314   5.094
  751TIP3    H2 2218   1.328   4.436   5.085
  752TIP3   OH2 2219   3.332   3.334   0.820
  752TIP3    H1 2220   3.334   3.401   0.888
  752TIP3    H2 2221   3.240   3.323   0.800
  753TIP3   OH2 2222   1.602   4.982   5.742
  753TIP3    H1 2223   1.607   4.965   5.648
  753TIP3    H2 2224   1.686   5.021   5.764
  754TIP3   OH2 2225   7.169   3.600   0.366
  754TIP3    H1 2226   7.167   3.509   0.396
  754TIP3    H2 2227   7.253   3.609   0.320
  755TIP3   OH2 2228   1.284   1.691   2.154
  755TIP3    H1 2229   1.370   1.714   2.120
  755TIP3    H2 2230   1.232   1.671   2.076
  756TIP3   OH2 2231   1.713   5.150   4.802
  756TIP3    H1 2232   1.787   5.125   4.857
  756TIP3    H2 2233   1.753   5.172   4.717
  757TIP3   OH2 2234   2.229   3.912   1.977
  757TIP3    H1 2235   2.273   3.909   2.062
  757TIP3    H2 2236   2.277   3.979   1.929
  758TIP3   OH2 2237   3.933   0.243   4.035
  758TIP3    H1 2238   3.889   0.314   4.082
  758TIP3    H2 2239   4.016   0.281   4.007
  759TIP3   OH2 2240   0.515   2.599   3.450
  759TIP3    H1 2241   0.481   2.511   3.433
  759TIP3    H2 2242   0.586   2.609   3.388
  760TIP3   OH2 2243   2.096   0.148   3.024
  760TIP3    H1 2244   2.100   0.197   3.106
  760TIP3    H2 2245   2.014   0.098   3.030
  761TIP3   OH2 2246   5.462   2.431   0.304
  761TIP3    H1 2247   5.481   2.479   0.385
  761TIP3    H2 2248   5.399   2.487   0.258
  762TIP3   OH2 2249   0.748   4.781   0.437
  762TIP3    H1 2250   0.790   4.699   0.413
  762TIP3    H2 2251   0.716   4.767   0.526
  763TIP3   OH2 2252   0.384   3.887   0.614
  763TIP3    H1 2253   0.399   3.979   0.591
  763TIP3    H2 2254   0.450   3.839   0.564
  764TIP3   OH2 2255   6.162   3.181   1.193
  764TIP3    H1 2256   6.094   3.117   1.213
  764TIP3    H2 2257   6.122   3.266   1.216
  765TIP3   OH2 2258   7.197   6.755   5.677
  765TIP3    H1 2259   7.133   6.728   5.611
  765TIP3    H2 2260   7.258   6.811   5.629
  766TIP3   OH2 2261   3.192   1.416   3.814
  766TIP3    H1 2262   3.148   1.343   3.856
  766TIP3    H2 2263   3.168   1.492   3.867
  767TIP3   OH2 2264   4.355   3.141   3.450
  767TIP3    H1 2265   4.324   3.198   3.521
  767TIP3    H2 2266   4.449   3.158   3.445
  768TIP3   OH2 2267   6.317   4.666   3.749
  768TIP3    H1 2268   6.337   4.623   3.832
  768TIP3    H2 2269   6.346   4.756   3.760
  769TIP3   OH2 2270   3.046   6.772   5.547
  769TIP3    H1 2271   3.071   6.712   5.477
  769TIP3    H2 2272   3.125   6.823   5.564
  770TIP3   OH2 2273   0.388   4.482   5.572
  770TIP3    H1 2274   0.444   4.405   5.578
  770TIP3    H2 2275   0.299   4.447   5.570
  771TIP3   OH2 2276   1.727   0.670   1.755
  771TIP3    H1 2277   1.633   0.676   1.772
  771TIP3    H2 2278   1.736   0.592   1.699
  772TIP3   OH2 2279   6.376   3.218   2.152
  772TIP3    H1 2280   6.413   3.222   2.241
  772TIP3    H2 2281   6.399   3.302   2.113
  773TIP3   OH2 2282   5.309   2.482   5.355
  773TIP3    H1 2283   5.214   2.491   5.342
  773TIP3    H2 2284   5.331   2.399   5.312
  774TIP3   OH2 2285   6.201   2.966   1.519
  774TIP3    H1 2286   6.109   2.984   1.497
  774TIP3    H2 2287   6.197   2.892   1.580
  775TIP3   OH2 2288   6.530   4.028   3.879
  775TIP3    H1 2289   6.584   4.107   3.889
  775TIP3    H2 2290   6.536   4.006   3.786
  776TIP3   OH2 2291   2.872   2.508   2.117
  776TIP3    H1 2292   2.790   2.541   2.080
  776TIP3    H2 2293   2.854   2.417   2.138
  777TIP3   OH2 2294   2.451   4.111   2.186
  777TIP3    H1 2295   2.512   4.064   2.243
  777TIP3    H2 2296   2.505   4.139   2.112
  778TIP3   OH2 2297   1.882   1.688   2.360
  778TIP3    H1 2298   1.950   1.752   2.379
  778TIP3    H2 2299   1.801   1.739   2.358
  779TIP3   OH2 2300   2.761   6.113   0.702
  779TIP3    H1 2301   2.685   6.161   0.668
  779TIP3    H2 2302   2.831   6.178   0.705
  780TIP3   OH2 2303   0.317   1.528   3.339
  780TIP3    H1 2304   0.222   1.535   3.351
  780TIP3    H2 2305   0.332   1.557   3.249
  781TIP3   OH2 2306   1.271   1.577   4.828
  781TIP3    H1 2307   1.327   1.529   4.767
  781TIP3    H2 2308   1.302   1.667   4.823
  782TIP3   OH2 2309   3.253   2.975   3.743
  782TIP3    H1 2310   3.312   2.998   3.672
  782TIP3    H2 2311   3.310   2.969   3.820
  783TIP3   OH2 2312   0.177   6.205   0.171
  783TIP3    H1 2313   0.127   6.152   0.109
  783TIP3    H2 2314   0.207   6.143   0.237
  784TIP3   OH2 2315   0.365   1.990   1.966
  784TIP3    H1 2316   0.424   1.916   1.979
  784TIP3    H2 2317   0.324   2.003   2.051
  785TIP3   OH2 2318   1.468   2.439   3.144
  785TIP3    H1 2319   1.453   2.348   3.169
  785TIP3    H2 2320   1.541   2.467   3.198
  786TIP3   OH2 2321   2.225   5.917   2.142
  786TIP3    H1 2322   2.227   5.836   2.194
  786TIP3    H2 2323   2.147   5.908   2.086
  787TIP3   OH2 2324   0.640   4.919   2.949
  787TIP3    H1 2325   0.698   4.858   2.994
  787TIP3    H2 2326   0.641   4.890   2.857
  788TIP3   OH2 2327   4.263   0.888   3.119
  788TIP3    H1 2328   4.335   0.844   3.074
  788TIP3    H2 2329   4.195   0.897   3.052
  789TIP3   OH2 2330   4.861   1.545   2.397
  789TIP3    H1 2331   4.796   1.613   2.416
  789TIP3    H2 2332   4.819   1.489   2.332
  790TIP3   OH2 2333   3.325   0.946   4.528
  790TIP3    H1 2334   3.248   0.941   4.471
  790TIP3    H2 2335   3.288   0.960   4.616
  791TIP3   OH2 2336   4.660   0.886   0.160
  791TIP3    H1 2337   4.686   0.965   0.114
  791TIP3    H2 2338   4.697   0.815   0.107
  792TIP3   OH2 2339   1.130   2.257   1.885
  792TIP3    H1 2340   1.150   2.346   1.856
  792TIP3    H2 2341   1.169   2.201   1.818
  793TIP3   OH2 2342   2.978   1.145   1.859
  793TIP3    H1 2343   2.893   1.120   1.896
  793TIP3    H2 2344   3.021   1.062   1.839
  794TIP3   OH2 2345   3.705   5.723   5.524
  794TIP3    H1 2346   3.753   5.802   5.551
  794TIP3    H2 2347   3.674   5.743   5.436
  795TIP3   OH2 2348   2.074   6.203   4.761
  795TIP3    H1 2349   1.994   6.250   4.786
  795TIP3    H2 2350   2.046   6.143   4.693
  796TIP3   OH2 2351   0.609   1.938   4.765
  796TIP3    H1 2352   0.545   1.922   4.835
  796TIP3    H2 2353   0.580   2.020   4.725
  797TIP3   OH2 2354   6.327   5.458   2.595
  797TIP3    H1 2355   6.363   5.376   2.562
  797TIP3    H2 2356   6.374   5.526   2.546
  798TIP3   OH2 2357   4.723   4.841   4.739
  798TIP3    H1 2358   4.724   4.745   4.744
  798TIP3    H2 2359   4.641   4.866   4.781
  799TIP3   OH2 2360   3.003   2.976   3.887
  799TIP3    H1 2361   3.012   2.973   3.982
  799TIP3    H2 2362   3.093   2.979   3.855
  800TIP3   OH2 2363   6.595   0.166   1.608
  800TIP3    H1 2364   6.581   0.107   1.683
  800TIP3    H2 2365   6.568   0.252   1.640
  801TIP3   OH2 2366   3.023   1.818   0.093
  801TIP3    H1 2367   3.111   1.853   0.074
  801TIP3    H2 2368   3.040   1.739   0.144
  802TIP3   OH2 2369   5.286   3.938   4.567
  802TIP3    H1 2370   5.233   4.015   4.545
  802TIP3    H2 2371   5.330   3.962   4.648
  803TIP3   OH2 2372   3.007   4.395   4.412
  803TIP3    H1 2373   2.925   4.400   4.460
  803TIP3    H2 2374   3.064   4.458   4.456
  804TIP3   OH2 2375   7.068   3.275   2.062
  804TIP3    H1 2376   7.079   3.250   1.970
  804TIP3    H2 2377   6.991   3.332   2.062
  805TIP3   OH2 2378   4.175   5.043   2.438
  805TIP3    H1 2379   4.233   5.089   2.499
  805TIP3    H2 2380   4.145   5.111   2.378
  806TIP3   OH2 2381   2.818   0.568   3.341
  806TIP3    H1 2382   2.787   0.535   3.256
  806TIP3    H2 2383   2.845   0.490   3.388
  807TIP3   OH2 2384   6.579   2.316   3.657
  807TIP3    H1 2385   6.612   2.230   3.685
  807TIP3    H2 2386   6.536   2.352   3.735
  808TIP3   OH2 2387   0.417   5.874   4.768
  808TIP3    H1 2388   0.380   5.861   4.855
  808TIP3    H2 2389   0.397   5.966   4.747
  809TIP3   OH2 2390   2.247   3.255   3.608
  809TIP3    H1 2391   2.243   3.245   3.513
  809TIP3    H2 2392   2.332   3.218   3.632
  810TIP3   OH2 2393   4.902   6.345   3.092
  810TIP3    H1 2394   4.900   6.309   3.003
  810TIP3    H2 2395   4.954   6.425   3.085
  811TIP3   OH2 2396   0.764   3.781   0.030
  811TIP3    H1 2397   0.760   3.875   0.045
  811TIP3    H2 2398   0.795   3.773  -0.060
  812TIP3   OH2 2399   3.004   2.839  -0.003
  812TIP3    H1 2400   2.960   2.902   0.055
  812TIP3    H2 2401   3.040   2.773   0.056
  813TIP3   OH2 2402   1.764   0.996   0.725
  813TIP3    H1 2403   1.820   1.028   0.796
  813TIP3    H2 2404   1.778   0.902   0.724
  814TIP3   OH2 2405   6.297   3.023   0.919
  814TIP3    H1 2406   6.325   2.993   1.005
  814TIP3    H2 2407   6.287   3.118   0.929
  815TIP3   OH2 2408   3.241   2.133   0.597
  815TIP3    H1 2409   3.315   2.192   0.583
  815TIP3    H2 2410   3.167   2.192   0.617
  816TIP3   OH2 2411   0.367   1.575   5.111
  816TIP3    H1 2412   0.312   1.619   5.176
  816TIP3    H2 2413   0.456   1.586   5.143
  817TIP3   OH2 2414   1.389   6.558   5.558
  817TIP3    H1 2415   1.356   6.529   5.643
  817TIP3    H2 2416   1.333   6.514   5.494
  818TIP3   OH2 2417   6.746   5.968   5.092
  818TIP3    H1 2418   6.758   5.954   4.998
  818TIP3    H2 2419   6.655   5.944   5.108
  819TIP3   OH2 2420   3.984   4.469   3.560
  819TIP3    H1 2421   3.969   4.387   3.607
  819TIP3    H2 2422   3.900   4.489   3.519
  820TIP3   OH2 2423   4.313   6.041   2.779
  820TIP3    H1 2424   4.367   5.965   2.801
  820TIP3    H2 2425   4.327   6.054   2.686
  821TIP3   OH2 2426   0.394   1.631   1.189
  821TIP3    H1 2427   0.374   1.677   1.271
  821TIP3    H2 2428   0.397   1.700   1.123
  822TIP3   OH2 2429   2.989   6.072   1.692
  822TIP3    H1 2430   2.970   6.117   1.610
  822TIP3    H2 2431   2.905   6.034   1.720
  823TIP3   OH2 2432   1.228   4.714   5.843
  823TIP3    H1 2433   1.148   4.713   5.791
  823TIP3    H2 2434   1.298   4.730   5.780
  824TIP3   OH2 2435   1.478   0.234   1.394
  824TIP3    H1 2436   1.394   0.239   1.439
  824TIP3    H2 2437   1.519   0.318   1.410
  825TIP3   OH2 2438   0.007   4.229   4.093
  825TIP3    H1 2439   0.080   4.173   4.121
  825TIP3    H2 2440  -0.024   4.188   4.012
  826TIP3   OH2 2441   0.035   0.853   0.093
  826TIP3    H1 2442   0.074   0.908   0.161
  826TIP3    H2 2443   0.028   0.910   0.017
  827TIP3   OH2 2444   7.130   5.814   5.365
  827TIP3    H1 2445   7.185   5.802   5.287
  827TIP3    H2 2446   7.040   5.808   5.333
  828TIP3   OH2 2447   2.827   5.559   4.852
  828TIP3    H1 2448   2.860   5.644   4.880
  828TIP3    H2 2449   2.872   5.496   4.908
  829TIP3   OH2 2450   6.307   2.512   5.802
  829TIP3    H1 2451   6.301   2.450   5.729
  829TIP3    H2 2452   6.359   2.584   5.767
  830TIP3   OH2 2453   0.050   1.003   4.094
  830TIP3    H1 2454  -0.041   1.003   4.124
  830TIP3    H2 2455   0.063   1.091   4.058
  831TIP3   OH2 2456   0.701   0.469   2.708
  831TIP3    H1 2457   0.725   0.505   2.624
  831TIP3    H2 2458   0.620   0.420   2.691
  832TIP3   OH2 2459   4.827   2.191   0.750
  832TIP3    H1 2460   4.910   2.200   0.797
  832TIP3    H2 2461   4.764   2.242   0.802
  833TIP3   OH2 2462   2.877   6.035   5.779
  833TIP3    H1 2463   2.898   6.115   5.730
  833TIP3    H2 2464   2.805   5.995   5.731
  834TIP3   OH2 2465   4.081   1.860   5.148
  834TIP3    H1 2466   4.114   1.773   5.127
  834TIP3    H2 2467   4.108   1.914   5.075
  835TIP3   OH2 2468   1.439   2.014   5.073
  835TIP3    H1 2469   1.527   2.028   5.108
  835TIP3    H2 2470   1.381   2.032   5.147
  836TIP3   OH2 2471   0.829   1.336   5.202
  836TIP3    H1 2472   0.807   1.370   5.288
  836TIP3    H2 2473   0.754   1.359   5.147
  837TIP3   OH2 2474   5.397   2.829   5.791
  837TIP3    H1 2475   5.411   2.908   5.843
  837TIP3    H2 2476   5.482   2.814   5.749
  838TIP3   OH2 2477   0.443   1.054   0.351
  838TIP3    H1 2478   0.478   1.012   0.272
  838TIP3    H2 2479   0.410   1.138   0.321
  839TIP3   OH2 2480   6.552   1.098   2.965
  839TIP3    H1 2481   6.613   1.106   2.893
  839TIP3    H2 2482   6.501   1.020   2.945
  840TIP3   OH2 2483   6.499   0.496   0.064
  840TIP3    H1 2484   6.423   0.531   0.016
  840TIP3    H2 2485   6.484   0.402   0.067
  841TIP3   OH2 2486   7.012   2.002   2.753
  841TIP3    H1 2487   7.027   2.093   2.779
  841TIP3    H2 2488   6.986   1.958   2.834
  842TIP3   OH2 2489   6.204   2.081   4.485
  842TIP3    H1 2490   6.257   2.159   4.500
  842TIP3    H2 2491   6.257   2.027   4.427
  843TIP3   OH2 2492   4.046   0.388   3.495
  843TIP3    H1 2493   3.961   0.346   3.507
  843TIP3    H2 2494   4.104   0.318   3.465
  844TIP3   OH2 2495   6.131   2.164   1.924
  844TIP3    H1 2496   6.115   2.070   1.931
  844TIP3    H2 2497   6.167   2.190   2.009
  845TIP3   OH2 2498   5.604   2.260   1.576
  845TIP3    H1 2499   5.652   2.199   1.519
  845TIP3    H2 2500   5.525   2.212   1.602
  846TIP3   OH2 2501   2.174   4.595   4.176
  846TIP3    H1 2502   2.173   4.499   4.181
  846TIP3    H2 2503   2.242   4.615   4.112
  847TIP3   OH2 2504   7.027   6.130   5.745
  847TIP3    H1 2505   6.985   6.116   5.660
  847TIP3    H2 2506   7.097   6.193   5.727
  848TIP3   OH2 2507   6.901   2.521   3.292
  848TIP3    H1 2508   6.914   2.584   3.363
  848TIP3    H2 2509   6.989   2.501   3.261
  849TIP3   OH2 2510   3.886   1.208   2.294
  849TIP3    H1 2511   3.977   1.232   2.277
  849TIP3    H2 2512   3.891   1.147   2.368
  850TIP3   OH2 2513   0.149   0.616   2.343
  850TIP3    H1 2514   0.076   0.675   2.363
  850TIP3    H2 2515   0.143   0.547   2.409
  851TIP3   OH2 2516   5.822   4.356   2.934
  851TIP3    H1 2517   5.862   4.358   3.020
  851TIP3    H2 2518   5.735   4.395   2.946
  852TIP3   OH2 2519   1.326   5.852   5.859
  852TIP3    H1 2520   1.327   5.756   5.858
  852TIP3    H2 2521   1.234   5.875   5.869
  853TIP3   OH2 2522   4.897   5.419   0.096
  853TIP3    H1 2523   4.877   5.337   0.141
  853TIP3    H2 2524   4.865   5.406   0.007
  854TIP3   OH2 2525   5.661   2.270   5.209
  854TIP3    H1 2526   5.693   2.204   5.270
  854TIP3    H2 2527   5.708   2.350   5.232
  855TIP3   OH2 2528   1.768   2.398   3.977
  855TIP3    H1 2529   1.723   2.422   4.058
  855TIP3    H2 2530   1.852   2.362   4.005
  856TIP3   OH2 2531   3.736   5.678   0.435
  856TIP3    H1 2532   3.780   5.626   0.503
  856TIP3    H2 2533   3.651   5.636   0.425
  857TIP3   OH2 2534   3.162   6.140   0.158
  857TIP3    H1 2535   3.182   6.232   0.144
  857TIP3    H2 2536   3.238   6.105   0.204
  858TIP3   OH2 2537   4.826   0.039   2.887
  858TIP3    H1 2538   4.901   0.076   2.935
  858TIP3    H2 2539   4.795  -0.032   2.942
  859TIP3   OH2 2540   2.928   3.192   4.544
  859TIP3    H1 2541   2.941   3.097   4.543
  859TIP3    H2 2542   2.988   3.225   4.477
  860TIP3   OH2 2543   4.906   1.592   5.204
  860TIP3    H1 2544   4.923   1.574   5.296
  860TIP3    H2 2545   4.884   1.685   5.202
  861TIP3   OH2 2546   2.925   1.755   3.396
  861TIP3    H1 2547   2.982   1.786   3.466
  861TIP3    H2 2548   2.917   1.660   3.412
  862TIP3   OH2 2549   5.136   2.867   2.946
  862TIP3    H1 2550   5.055   2.824   2.921
  862TIP3    H2 2551   5.195   2.796   2.970
  863TIP3   OH2 2552   0.608   4.533   0.532
  863TIP3    H1 2553   0.583   4.581   0.453
  863TIP3    H2 2554   0.541   4.466   0.542
  864TIP3   OH2 2555   5.392   2.368   2.041
  864TIP3    H1 2556   5.398   2.273   2.036
  864TIP3    H2 2557   5.303   2.388   2.011
  865TIP3   OH2 2558   3.560   2.541   0.346
  865TIP3    H1 2559   3.553   2.558   0.252
  865TIP3    H2 2560   3.631   2.478   0.354
  866TIP3   OH2 2561   3.853   3.903   5.604
  866TIP3    H1 2562   3.870   3.980   5.549
  866TIP3    H2 2563   3.783   3.930   5.662
  867TIP3   OH2 2564   3.841   2.719   2.375
  867TIP3    H1 2565   3.867   2.717   2.467
  867TIP3    H2 2566   3.748   2.743   2.377
  868TIP3   OH2 2567   0.884   2.896   4.779
  868TIP3    H1 2568   0.904   2.803   4.785
  868TIP3    H2 2569   0.794   2.904   4.811
  869TIP3   OH2 2570   3.850   1.691   4.453
  869TIP3    H1 2571   3.777   1.632   4.437
  869TIP3    H2 2572   3.826   1.772   4.407
  870TIP3   OH2 2573   5.515   0.791   3.190
  870TIP3    H1 2574   5.429   0.832   3.186
  870TIP3    H2 2575   5.577   0.863   3.180
  871TIP3   OH2 2576   4.199   0.710   0.265
  871TIP3    H1 2577   4.165   0.797   0.248
  871TIP3    H2 2578   4.294   0.718   0.252
  872TIP3   OH2 2579   4.844   3.326   0.256
  872TIP3    H1 2580   4.888   3.390   0.200
  872TIP3    H2 2581   4.758   3.314   0.217
  873TIP3   OH2 2582   4.722   4.753   5.042
  873TIP3    H1 2583   4.702   4.847   5.032
  873TIP3    H2 2584   4.650   4.720   5.096
  874TIP3   OH2 2585   2.967   0.647   0.520
  874TIP3    H1 2586   2.930   0.679   0.603
  874TIP3    H2 2587   2.905   0.580   0.491
  875TIP3   OH2 2588   0.701   6.505   2.296
  875TIP3    H1 2589   0.737   6.585   2.336
  875TIP3    H2 2590   0.682   6.448   2.371
  876TIP3   OH2 2591   2.928   6.441   3.979
  876TIP3    H1 2592   2.899   6.417   3.891
  876TIP3    H2 2593   2.894   6.372   4.035
  877TIP3   OH2 2594   7.042   2.879   0.048
  877TIP3    H1 2595   7.055   2.788   0.021
  877TIP3    H2 2596   7.123   2.924   0.023
  878TIP3   OH2 2597   6.028   3.750   3.514
  878TIP3    H1 2598   5.939   3.716   3.505
  878TIP3    H2 2599   6.024   3.837   3.473
  879TIP3   OH2 2600   0.793   2.478   3.812
  879TIP3    H1 2601   0.824   2.419   3.881
  879TIP3    H2 2602   0.771   2.421   3.739
  880TIP3   OH2 2603   5.500   1.902   1.523
  880TIP3    H1 2604   5.576   1.843   1.531
  880TIP3    H2 2605   5.441   1.857   1.462
  881TIP3   OH2 2606   6.130   1.656   2.917
  881TIP3    H1 2607   6.186   1.578   2.914
  881TIP3    H2 2608   6.044   1.624   2.889
  882TIP3   OH2 2609   4.680   1.554   0.088
  882TIP3    H1 2610   4.643   1.527   0.003
  882TIP3    H2 2611   4.653   1.645   0.099
  883TIP3   OH2 2612   1.353   5.660   4.977
  883TIP3    H1 2613   1.308   5.737   5.012
  883TIP3    H2 2614   1.359   5.600   5.051
  884TIP3   OH2 2615   6.080   1.408   2.641
  884TIP3    H1 2616   6.122   1.349   2.579
  884TIP3    H2 2617   6.009   1.356   2.679
  885TIP3   OH2 2618   6.851   3.005   0.420
  885TIP3    H1 2619   6.849   2.927   0.365
  885TIP3    H2 2620   6.797   3.069   0.374
  886TIP3   OH2 2621   2.935   2.562   4.869
  886TIP3    H1 2622   2.882   2.598   4.798
  886TIP3    H2 2623   2.924   2.467   4.861
  887TIP3   OH2 2624   4.716   3.996   2.777
  887TIP3    H1 2625   4.721   3.985   2.872
  887TIP3    H2 2626   4.657   3.925   2.748
  888TIP3   OH2 2627   5.777   0.569   3.355
  888TIP3    H1 2628   5.735   0.517   3.423
  888TIP3    H2 2629   5.783   0.656   3.393
  889TIP3   OH2 2630   0.039   0.467   5.580
  889TIP3    H1 2631   0.074   0.393   5.631
  889TIP3    H2 2632   0.054   0.441   5.489
  890TIP3   OH2 2633   1.874   6.226   5.504
  890TIP3    H1 2634   1.947   6.243   5.444
  890TIP3    H2 2635   1.839   6.312   5.525
  891TIP3   OH2 2636   5.853   2.411   3.952
  891TIP3    H1 2637   5.799   2.359   4.011
  891TIP3    H2 2638   5.892   2.347   3.893
  892TIP3   OH2 2639   0.402   2.921   1.796
  892TIP3    H1 2640   0.316   2.900   1.832
  892TIP3    H2 2641   0.391   3.006   1.755
  893TIP3   OH2 2642   1.810   1.235   4.469
  893TIP3    H1 2643   1.888   1.231   4.413
  893TIP3    H2 2644   1.765   1.315   4.442
  894TIP3   OH2 2645   1.822   2.200   2.870
  894TIP3    H1 2646   1.731   2.207   2.842
  894TIP3    H2 2647   1.830   2.264   2.941
  895TIP3   OH2 2648   1.020   5.154   5.406
  895TIP3    H1 2649   0.935   5.165   5.363
  895TIP3    H2 2650   1.080   5.209   5.356
  896TIP3   OH2 2651   2.458   4.850   2.811
  896TIP3    H1 2652   2.434   4.938   2.838
  896TIP3    H2 2653   2.433   4.794   2.885
  897TIP3   OH2 2654   1.959   3.944   2.035
  897TIP3    H1 2655   1.980   4.028   2.076
  897TIP3    H2 2656   2.041   3.894   2.042
  898TIP3   OH2 2657   3.742   6.693   4.493
  898TIP3    H1 2658   3.767   6.702   4.584
  898TIP3    H2 2659   3.805   6.746   4.444
  899TIP3   OH2 2660   2.511   4.319   1.291
  899TIP3    H1 2661   2.542   4.236   1.255
  899TIP3    H2 2662   2.514   4.380   1.217
  900TIP3   OH2 2663   3.209   0.417   3.506
  900TIP3    H1 2664   3.157   0.490   3.540
  900TIP3    H2 2665   3.197   0.420   3.411
  901TIP3   OH2 2666   4.042   1.494   4.489
  901TIP3    H1 2667   3.983   1.565   4.463
  901TIP3    H2 2668   4.119   1.538   4.526
  902TIP3   OH2 2669   2.374   1.272   4.648
  902TIP3    H1 2670   2.352   1.344   4.589
  902TIP3    H2 2671   2.442   1.307   4.705
  903TIP3   OH2 2672   1.564   1.290   5.793
  903TIP3    H1 2673   1.553   1.253   5.880
  903TIP3    H2 2674   1.647   1.252   5.761
  904TIP3   OH2 2675   5.762   1.960   4.890
  904TIP3    H1 2676   5.826   1.914   4.945
  904TIP3    H2 2677   5.677   1.942   4.931
  905TIP3   OH2 2678   2.971   2.693   4.429
  905TIP3    H1 2679   2.884   2.716   4.398
  905TIP3    H2 2680   3.010   2.777   4.456
  906TIP3   OH2 2681   2.763   3.544   2.513
  906TIP3    H1 2682   2.853   3.575   2.518
  906TIP3    H2 2683   2.767   3.454   2.546
  907TIP3   OH2 2684   0.915   5.874   5.669
  907TIP3    H1 2685   0.864   5.933   5.614
  907TIP3    H2 2686   0.961   5.818   5.608
  908TIP3   OH2 2687   6.116   4.490   3.029
  908TIP3    H1 2688   6.053   4.438   3.079
  908TIP3    H2 2689   6.063   4.534   2.963
  909TIP3   OH2 2690   3.014   6.099   2.628
  909TIP3    H1 2691   2.993   6.192   2.636
  909TIP3    H2 2692   2.984   6.060   2.710
  910TIP3   OH2 2693   0.871   0.632   0.275
  910TIP3    H1 2694   0.921   0.690   0.332
  910TIP3    H2 2695   0.933   0.564   0.249
  911TIP3   OH2 2696   4.230   6.498   5.356
  911TIP3    H1 2697   4.219   6.525   5.447
  911TIP3    H2 2698   4.323   6.476   5.348
  912TIP3   OH2 2699   3.955   2.656   2.644
  912TIP3    H1 2700   4.033   2.622   2.689
  912TIP3    H2 2701   3.924   2.728   2.699
  913TIP3   OH2 2702   5.079   6.138   4.374
  913TIP3    H1 2703   5.033   6.075   4.431
  913TIP3    H2 2704   5.115   6.203   4.435
  914TIP3   OH2 2705   3.052   4.464   2.456
  914TIP3    H1 2706   3.015   4.379   2.477
  914TIP3    H2 2707   2.976   4.522   2.452
  915TIP3   OH2 2708   5.043   6.394   5.287
  915TIP3    H1 2709   5.045   6.477   5.238
  915TIP3    H2 2710   5.033   6.421   5.378
  916TIP3   OH2 2711   3.496   5.082   1.949
  916TIP3    H1 2712   3.591   5.069   1.949
  916TIP3    H2 2713   3.478   5.123   1.864
  917TIP3   OH2 2714   3.490   4.356   2.691
  917TIP3    H1 2715   3.483   4.370   2.786
  917TIP3    H2 2716   3.480   4.443   2.653
  918TIP3   OH2 2717   1.037   2.735   3.087
  918TIP3    H1 2718   1.014   2.703   3.000
  918TIP3    H2 2719   1.112   2.681   3.113
  919TIP3   OH2 2720   2.291   5.128   1.159
  919TIP3    H1 2721   2.357   5.096   1.222
  919TIP3    H2 2722   2.262   5.211   1.196
  920TIP3   OH2 2723   1.359   3.758   5.575
  920TIP3    H1 2724   1.395   3.709   5.649
  920TIP3    H2 2725   1.267   3.771   5.596
  921TIP3   OH2 2726   3.535   4.724   3.968
  921TIP3    H1 2727   3.456   4.758   4.009
  921TIP3    H2 2728   3.523   4.629   3.969
  922TIP3   OH2 2729   4.231   4.598   2.284
  922TIP3    H1 2730   4.286   4.676   2.279
  922TIP3    H2 2731   4.145   4.631   2.309
  923TIP3   OH2 2732   7.074   2.076   5.852
  923TIP3    H1 2733   7.075   2.005   5.788
  923TIP3    H2 2734   7.005   2.051   5.914
  924TIP3   OH2 2735   4.325   4.445   1.822
  924TIP3    H1 2736   4.242   4.417   1.860
  924TIP3    H2 2737   4.337   4.535   1.853
  925TIP3   OH2 2738   6.685   0.986   0.955
  925TIP3    H1 2739   6.747   0.958   0.887
  925TIP3    H2 2740   6.737   0.987   1.035
  926TIP3   OH2 2741   2.009   0.105   1.173
  926TIP3    H1 2742   2.071   0.047   1.216
  926TIP3    H2 2743   2.042   0.114   1.083
  927TIP3   OH2 2744   4.350   4.963   5.448
  927TIP3    H1 2745   4.405   5.024   5.496
  927TIP3    H2 2746   4.346   4.999   5.360
  928TIP3   OH2 2747   6.278   2.584   1.012
  928TIP3    H1 2748   6.223   2.654   0.975
  928TIP3    H2 2749   6.334   2.558   0.939
  929TIP3   OH2 2750   5.521   4.094   5.491
  929TIP3    H1 2751   5.462   4.169   5.486
  929TIP3    H2 2752   5.546   4.077   5.400
  930TIP3   OH2 2753   2.735   0.770   2.267
  930TIP3    H1 2754   2.679   0.708   2.221
  930TIP3    H2 2755   2.772   0.720   2.339
  931TIP3   OH2 2756   6.871   3.831   4.169
  931TIP3    H1 2757   6.861   3.879   4.252
  931TIP3    H2 2758   6.894   3.899   4.105
  932TIP3   OH2 2759   1.338   1.741   1.638
  932TIP3    H1 2760   1.268   1.705   1.584
  932TIP3    H2 2761   1.292   1.790   1.706
  933TIP3   OH2 2762   3.315   3.528   0.991
  933TIP3    H1 2763   3.222   3.530   0.967
  933TIP3    H2 2764   3.317   3.564   1.080
  934TIP3   OH2 2765   6.943   6.642   5.065
  934TIP3    H1 2766   6.925   6.688   5.148
  934TIP3    H2 2767   7.005   6.574   5.088
  935TIP3   OH2 2768   3.548   4.736   1.016
  935TIP3    H1 2769   3.635   4.697   1.002
  935TIP3    H2 2770   3.566   4.830   1.027
  936TIP3   OH2 2771   2.516   4.218   2.691
  936TIP3    H1 2772   2.432   4.214   2.646
  936TIP3    H2 2773   2.497   4.189   2.780
  937TIP3   OH2 2774   3.204   2.095   3.274
  937TIP3    H1 2775   3.109   2.103   3.278
  937TIP3    H2 2776   3.219   2.005   3.245
  938TIP3   OH2 2777   1.943   0.786   1.142
  938TIP3    H1 2778   1.871   0.849   1.138
  938TIP3    H2 2779   2.006   0.826   1.201
  939TIP3   OH2 2780   1.673   2.934   5.230
  939TIP3    H1 2781   1.641   3.023   5.213
  939TIP3    H2 2782   1.648   2.884   5.152
  940TIP3   OH2 2783   6.430   0.664   4.534
  940TIP3    H1 2784   6.511   0.615   4.547
  940TIP3    H2 2785   6.444   0.745   4.585
  941TIP3   OH2 2786   4.443   2.222   4.909
  941TIP3    H1 2787   4.482   2.143   4.870
  941TIP3    H2 2788   4.510   2.289   4.896
  942TIP3   OH2 2789   0.934   4.714   0.137
  942TIP3    H1 2790   0.922   4.809   0.143
  942TIP3    H2 2791   1.005   4.703   0.075
  943TIP3   OH2 2792   0.232   2.197   3.072
  943TIP3    H1 2793   0.291   2.272   3.075
  943TIP3    H2 2794   0.289   2.121   3.087
  944TIP3   OH2 2795   6.980   2.067   5.164
  944TIP3    H1 2796   6.964   1.985   5.117
  944TIP3    H2 2797   6.950   2.049   5.253
  945TIP3   OH2 2798   2.447   4.705   3.516
  945TIP3    H1 2799   2.427   4.798   3.509
  945TIP3    H2 2800   2.378   4.661   3.467
  946TIP3   OH2 2801   6.857   5.191   4.702
  946TIP3    H1 2802   6.879   5.184   4.795
  946TIP3    H2 2803   6.866   5.284   4.682
  947TIP3   OH2 2804   1.457   3.612   2.938
  947TIP3    H1 2805   1.392   3.657   2.885
  947TIP3    H2 2806   1.538   3.661   2.924
  948TIP3   OH2 2807   0.989   2.334   2.504
  948TIP3    H1 2808   1.052   2.354   2.573
  948TIP3    H2 2809   1.035   2.356   2.423
  949TIP3   OH2 2810   0.924   4.909   3.362
  949TIP3    H1 2811   0.829   4.911   3.373
  949TIP3    H2 2812   0.947   4.816   3.375
  950TIP3   OH2 2813   1.841   6.668   1.312
  950TIP3    H1 2814   1.789   6.725   1.369
  950TIP3    H2 2815   1.779   6.605   1.277
  951TIP3   OH2 2816   0.954   3.663   0.489
  951TIP3    H1 2817   0.978   3.754   0.504
  951TIP3    H2 2818   0.896   3.665   0.413
  952TIP3   OH2 2819   1.033   2.764   3.605
  952TIP3    H1 2820   0.961   2.787   3.664
  952TIP3    H2 2821   0.997   2.779   3.518
  953TIP3   OH2 2822   3.050   0.115   3.985
  953TIP3    H1 2823   3.049   0.172   3.909
  953TIP3    H2 2824   3.126   0.143   4.036
  954TIP3   OH2 2825   2.341   0.920   3.362
  954TIP3    H1 2826   2.343   0.867   3.282
  954TIP3    H2 2827   2.429   0.914   3.397
  955TIP3   OH2 2828   2.136   6.541   2.545
  955TIP3    H1 2829   2.055   6.518   2.589
  955TIP3    H2 2830   2.181   6.458   2.532
  956TIP3   OH2 2831   0.229   6.525   1.278
  956TIP3    H1 2832   0.311   6.475   1.278
  956TIP3    H2 2833   0.210   6.539   1.371
  957TIP3   OH2 2834   1.570   1.065   2.306
  957TIP3    H1 2835   1.627   1.036   2.378
  957TIP3    H2 2836   1.616   1.140   2.268
  958TIP3   OH2 2837   4.475   3.721   1.382
  958TIP3    H1 2838   4.485   3.813   1.355
  958TIP3    H2 2839   4.469   3.673   1.299
  959TIP3   OH2 2840   7.183   4.452   4.844
  959TIP3    H1 2841   7.228   4.534   4.823
  959TIP3    H2 2842   7.090   4.476   4.848
  960TIP3   OH2 2843   6.284   2.028   3.326
  960TIP3    H1 2844   6.335   2.017   3.246
  960TIP3    H2 2845   6.215   1.961   3.319
  961TIP3   OH2 2846   1.887   5.205   4.577
  961TIP3    H1 2847   1.921   5.291   4.552
  961TIP3    H2 2848   1.960   5.145   4.560
  962TIP3   OH2 2849   6.232   1.467   3.864
  962TIP3    H1 2850   6.139   1.482   3.847
  962TIP3    H2 2851   6.246   1.375   3.843
  963TIP3   OH2 2852   0.960   4.120   5.763
  963TIP3    H1 2853   1.043   4.166   5.776
  963TIP3    H2 2854   0.902   4.157   5.829
  964TIP3   OH2 2855   5.683   3.904   0.731
  964TIP3    H1 2856   5.741   3.975   0.757
  964TIP3    H2 2857   5.729   3.860   0.660
  965TIP3   OH2 2858   5.938   1.875   0.322
  965TIP3    H1 2859   6.009   1.814   0.342
  965TIP3    H2 2860   5.866   1.846   0.378
  966TIP3   OH2 2861   3.885   1.381   1.326
  966TIP3    H1 2862   3.832   1.301   1.325
  966TIP3    H2 2863   3.859   1.426   1.407
  967TIP3   OH2 2864   4.993   6.554   3.985
  967TIP3    H1 2865   4.989   6.472   3.935
  967TIP3    H2 2866   4.944   6.617   3.932
  968TIP3   OH2 2867   4.595   1.453   1.019
  968TIP3    H1 2868   4.594   1.545   1.047
  968TIP3    H2 2869   4.598   1.404   1.101
  969TIP3   OH2 2870   0.132   4.273   1.353
  969TIP3    H1 2871   0.180   4.199   1.318
  969TIP3    H2 2872   0.181   4.350   1.324
  970TIP3   OH2 2873   0.618   3.090   4.612
  970TIP3    H1 2874   0.609   3.043   4.695
  970TIP3    H2 2875   0.571   3.036   4.549
  971TIP3   OH2 2876   0.485   1.462   3.025
  971TIP3    H1 2877   0.427   1.495   2.957
  971TIP3    H2 2878   0.431   1.400   3.074
  972TIP3   OH2 2879   2.902   3.894   5.844
  972TIP3    H1 2880   2.977   3.916   5.899
  972TIP3    H2 2881   2.833   3.955   5.871
  973TIP3   OH2 2882   0.048   4.869   4.604
  973TIP3    H1 2883  -0.045   4.850   4.619
  973TIP3    H2 2884   0.092   4.838   4.683
  974TIP3   OH2 2885   0.588   2.595   4.889
  974TIP3    H1 2886   0.658   2.529   4.897
  974TIP3    H2 2887   0.551   2.601   4.977
  975TIP3   OH2 2888   2.404   3.523   0.309
  975TIP3    H1 2889   2.434   3.544   0.397
  975TIP3    H2 2890   2.309   3.519   0.316
  976TIP3   OH2 2891   5.595   3.152   0.129
  976TIP3    H1 2892   5.532   3.108   0.071
  976TIP3    H2 2893   5.578   3.116   0.216
  977TIP3   OH2 2894   4.206   5.712   2.651
  977TIP3    H1 2895   4.236   5.763   2.576
  977TIP3    H2 2896   4.211   5.772   2.725
  978TIP3   OH2 2897   0.166   0.461   2.569
  978TIP3    H1 2898   0.136   0.371   2.579
  978TIP3    H2 2899   0.168   0.496   2.659
  979TIP3   OH2 2900   3.930   3.071  -0.017
  979TIP3    H1 2901   3.851   3.029   0.018
  979TIP3    H2 2902   4.001   3.011   0.003
  980TIP3   OH2 2903   3.450   6.753   3.796
  980TIP3    H1 2904   3.427   6.755   3.703
  980TIP3    H2 2905   3.376   6.797   3.839
  981TIP3   OH2 2906   1.635   3.997   5.348
  981TIP3    H1 2907   1.599   4.035   5.268
  981TIP3    H2 2908   1.595   4.047   5.419
  982TIP3   OH2 2909   5.315   3.980   5.210
  982TIP3    H1 2910   5.386   3.918   5.225
  982TIP3    H2 2911   5.358   4.065   5.202
  983TIP3   OH2 2912   3.722   5.781   3.349
  983TIP3    H1 2913   3.724   5.693   3.311
  983TIP3    H2 2914   3.812   5.813   3.342
  984TIP3   OH2 2915   3.943   1.335   5.499
  984TIP3    H1 2916   4.032   1.370   5.491
  984TIP3    H2 2917   3.952   1.263   5.562
  985TIP3   OH2 2918   4.046   4.949   5.763
  985TIP3    H1 2919   4.025   4.887   5.693
  985TIP3    H2 2920   4.003   4.914   5.840
  986TIP3   OH2 2921   3.510   4.599   1.299
  986TIP3    H1 2922   3.506   4.517   1.251
  986TIP3    H2 2923   3.492   4.666   1.233
  987TIP3   OH2 2924   2.461   4.178   0.564
  987TIP3    H1 2925   2.527   4.246   0.546
  987TIP3    H2 2926   2.395   4.191   0.496
  988TIP3   OH2 2927   4.893   5.577   4.291
  988TIP3    H1 2928   4.943   5.496   4.299
  988TIP3    H2 2929   4.814   5.552   4.242
  989TIP3   OH2 2930   5.854   3.315   0.264
  989TIP3    H1 2931   5.856   3.230   0.308
  989TIP3    H2 2932   5.762   3.338   0.258
  990TIP3   OH2 2933   1.556   3.196   5.836
  990TIP3    H1 2934   1.499   3.273   5.831
  990TIP3    H2 2935   1.644   3.232   5.853
  991TIP3   OH2 2936   3.762   4.910   3.475
  991TIP3    H1 2937   3.732   4.998   3.455
  991TIP3    H2 2938   3.692   4.852   3.446
  992TIP3   OH2 2939   4.414   4.162   3.670
  992TIP3    H1 2940   4.343   4.190   3.613
  992TIP3    H2 2941   4.494   4.184   3.622
  993TIP3   OH2 2942   3.372   6.246   2.825
  993TIP3    H1 2943   3.332   6.256   2.738
  993TIP3    H2 2944   3.357   6.329   2.868
  994TIP3   OH2 2945   2.432   5.357   5.393
  994TIP3    H1 2946   2.504   5.420   5.403
  994TIP3    H2 2947   2.457   5.283   5.448
  995TIP3   OH2 2948   0.095   4.331   5.768
  995TIP3    H1 2949   0.044   4.251   5.755
  995TIP3    H2 2950   0.095   4.374   5.682
  996TIP3   OH2 2951   2.609   0.141   4.852
  996TIP3    H1 2952   2.570   0.077   4.911
  996TIP3    H2 2953   2.577   0.225   4.884
  997TIP3   OH2 2954   1.015   4.255   0.463
  997TIP3    H1 2955   0.926   4.235   0.494
  997TIP3    H2 2956   1.024   4.349   0.479
  998TIP3   OH2 2957   1.329   6.326   0.869
  998TIP3    H1 2958   1.239   6.348   0.893
  998TIP3    H2 2959   1.320   6.253   0.808
  999TIP3   OH2 2960   4.185   1.948   5.376
  999TIP3    H1 2961   4.210   1.861   5.408
  999TIP3    H2 2962   4.133   1.932   5.298
 1000TIP3   OH2 2963   5.304   6.391   0.488
 1000TIP3    H1 2964   5.322   6.402   0.582
 1000TIP3    H2 2965   5.312   6.480   0.452
 1001TIP3   OH2 2966   6.923   2.682   3.502
 1001TIP3    H1 2967   6.973   2.620   3.555
 1001TIP3    H2 2968   6.970   2.765   3.511
 1002TIP3   OH2 2969   3.331   5.772   0.377
 1002TIP3    H1 2970   3.367   5.684   0.391
 1002TIP3    H2 2971   3.266   5.782   0.447
 1003TIP3   OH2 2972   3.392   1.181   4.143
 1003TIP3    H1 2973   3.382   1.175   4.048
 1003TIP3    H2 2974   3.468   1.237   4.155
 1004TIP3   OH2 2975   4.627   4.317   1.379
 1004TIP3    H1 2976   4.666   4.381   1.438
 1004TIP3    H2 2977   4.533   4.332   1.386
 1005TIP3   OH2 2978   3.270   3.150   4.573
 1005TIP3    H1 2979   3.297   3.236   4.604
 1005TIP3    H2 2980   3.350   3.110   4.540
 1006TIP3   OH2 2981   1.144   4.446   1.102
 1006TIP3    H1 2982   1.183   4.361   1.082
 1006TIP3    H2 2983   1.217   4.507   1.103
 1007TIP3   OH2 2984   4.375   3.397   0.775
 1007TIP3    H1 2985   4.295   3.362   0.813
 1007TIP3    H2 2986   4.349   3.479   0.734
 1008TIP3   OH2 2987   4.971   3.902   5.308
 1008TIP3    H1 2988   4.986   3.808   5.311
 1008TIP3    H2 2989   4.964   3.922   5.215
 1009TIP3   OH2 2990   1.575   2.926   0.711
 1009TIP3    H1 2991   1.640   2.994   0.726
 1009TIP3    H2 2992   1.492   2.966   0.735
 1010TIP3   OH2 2993   6.280   0.315   2.772
 1010TIP3    H1 2994   6.301   0.235   2.821
 1010TIP3    H2 2995   6.364   0.342   2.733
 1011TIP3   OH2 2996   0.184   6.386   2.880
 1011TIP3    H1 2997   0.145   6.309   2.920
 1011TIP3    H2 2998   0.113   6.450   2.876
 1012TIP3   OH2 2999   4.464   5.611   4.882
 1012TIP3    H1 3000   4.393   5.553   4.911
 1012TIP3    H2 3001   4.544   5.567   4.912
 1013TIP3   OH2 3002   4.722   0.530   1.646
 1013TIP3    H1 3003   4.757   0.515   1.558
 1013TIP3    H2 3004   4.718   0.625   1.655
 1014TIP3   OH2 3005   5.382   0.006   1.232
 1014TIP3    H1 3006   5.409   0.086   1.278
 1014TIP3    H2 3007   5.462  -0.024   1.187
 1015TIP3   OH2 3008   1.611   5.869   4.839
 1015TIP3    H1 3009   1.555   5.894   4.913
 1015TIP3    H2 3010   1.636   5.952   4.799
 1016TIP3   OH2 3011   3.456   1.513   2.122
 1016TIP3    H1 3012   3.390   1.449   2.095
 1016TIP3    H2 3013   3.517   1.463   2.177
 1017TIP3   OH2 3014   4.512   0.640   4.912
 1017TIP3    H1 3015   4.436   0.672   4.864
 1017TIP3    H2 3016   4.492   0.655   5.004
 1018TIP3   OH2 3017   4.143   2.592   0.754
 1018TIP3    H1 3018   4.180   2.637   0.830
 1018TIP3    H2 3019   4.201   2.617   0.681
 1019TIP3   OH2 3020   7.109   5.378   1.125
 1019TIP3    H1 3021   7.037   5.436   1.101
 1019TIP3    H2 3022   7.153   5.359   1.043
 1020TIP3   OH2 3023   5.282   5.127   3.760
 1020TIP3    H1 3024   5.207   5.071   3.743
 1020TIP3    H2 3025   5.252   5.188   3.828
 1021TIP3   OH2 3026   2.955   3.704   1.093
 1021TIP3    H1 3027   2.863   3.708   1.067
 1021TIP3    H2 3028   2.953   3.709   1.189
 1022TIP3   OH2 3029   5.789   0.679   4.779
 1022TIP3    H1 3030   5.731   0.611   4.814
 1022TIP3    H2 3031   5.817   0.729   4.856
 1023TIP3   OH2 3032   3.774   3.679   2.459
 1023TIP3    H1 3033   3.748   3.702   2.548
 1023TIP3    H2 3034   3.696   3.640   2.420
 1024TIP3   OH2 3035   4.260   2.319   3.125
 1024TIP3    H1 3036   4.171   2.317   3.091
 1024TIP3    H2 3037   4.260   2.390   3.190
 1025TIP3   OH2 3038   2.557   3.593   2.911
 1025TIP3    H1 3039   2.484   3.610   2.971
 1025TIP3    H2 3040   2.572   3.677   2.867
 1026TIP3   OH2 3041   7.000   6.720   4.309
 1026TIP3    H1 3042   7.048   6.672   4.241
 1026TIP3    H2 3043   6.908   6.715   4.282
 1027TIP3   OH2 3044   5.084   0.930   2.047
 1027TIP3    H1 3045   5.076   0.907   2.140
 1027TIP3    H2 3046   4.997   0.914   2.011
 1028TIP3   OH2 3047   2.349   0.678   5.224
 1028TIP3    H1 3048   2.264   0.715   5.200
 1028TIP3    H2 3049   2.367   0.613   5.155
 1029TIP3   OH2 3050   4.056   1.540   4.838
 1029TIP3    H1 3051   4.090   1.513   4.753
 1029TIP3    H2 3052   3.993   1.473   4.861
 1030TIP3   OH2 3053   2.303   3.984   3.155
 1030TIP3    H1 3054   2.227   3.947   3.199
 1030TIP3    H2 3055   2.372   3.981   3.221
 1031TIP3   OH2 3056   5.833   5.430   2.271
 1031TIP3    H1 3057   5.782   5.505   2.302
 1031TIP3    H2 3058   5.793   5.405   2.188
 1032TIP3   OH2 3059   6.429   4.201   3.216
 1032TIP3    H1 3060   6.413   4.175   3.125
 1032TIP3    H2 3061   6.506   4.258   3.212
 1033TIP3   OH2 3062   2.848   0.008   5.782
 1033TIP3    H1 3063   2.763  -0.037   5.786
 1033TIP3    H2 3064   2.835   0.087   5.834
 1034TIP3   OH2 3065   1.290   1.617   2.667
 1034TIP3    H1 3066   1.350   1.542   2.671
 1034TIP3    H2 3067   1.247   1.608   2.582
 1035TIP3   OH2 3068   4.047   3.824   4.302
 1035TIP3    H1 3069   4.025   3.734   4.325
 1035TIP3    H2 3070   4.142   3.829   4.308
 1036TIP3   OH2 3071   7.079   5.271   0.739
 1036TIP3    H1 3072   7.143   5.332   0.704
 1036TIP3    H2 3073   7.071   5.203   0.672
 1037TIP3   OH2 3074   1.796   0.397   5.286
 1037TIP3    H1 3075   1.757   0.480   5.316
 1037TIP3    H2 3076   1.784   0.398   5.191
 1038TIP3   OH2 3077   2.051   2.027   4.241
 1038TIP3    H1 3078   2.098   1.969   4.301
 1038TIP3    H2 3079   2.087   2.006   4.155
 1039TIP3   OH2 3080   1.720   3.306   0.142
 1039TIP3    H1 3081   1.686   3.345   0.062
 1039TIP3    H2 3082   1.742   3.381   0.198
 1040TIP3   OH2 3083   3.690   4.928   2.864
 1040TIP3    H1 3084   3.604   4.890   2.884
 1040TIP3    H2 3085   3.670   5.014   2.827
 1041TIP3   OH2 3086   6.105   4.486   2.405
 1041TIP3    H1 3087   6.092   4.450   2.318
 1041TIP3    H2 3088   6.022   4.472   2.450
 1042TIP3   OH2 3089   2.523   3.273   4.732
 1042TIP3    H1 3090   2.514   3.358   4.689
 1042TIP3    H2 3091   2.464   3.215   4.683
 1043TIP3   OH2 3092   0.419   2.893   4.566
 1043TIP3    H1 3093   0.364   2.905   4.644
 1043TIP3    H2 3094   0.388   2.812   4.527
 1044TIP3   OH2 3095   6.028   0.241   2.571
 1044TIP3    H1 3096   6.007   0.298   2.645
 1044TIP3    H2 3097   6.110   0.198   2.596
 1045TIP3   OH2 3098   4.617   2.672   0.126
 1045TIP3    H1 3099   4.703   2.707   0.149
 1045TIP3    H2 3100   4.616   2.669   0.031
 1046TIP3   OH2 3101   3.093   4.103   3.533
 1046TIP3    H1 3102   3.066   4.074   3.446
 1046TIP3    H2 3103   3.021   4.159   3.563
 1047TIP3   OH2 3104   4.143   0.203   2.603
 1047TIP3    H1 3105   4.099   0.118   2.607
 1047TIP3    H2 3106   4.103   0.253   2.674
 1048TIP3   OH2 3107   4.708   5.082   3.145
 1048TIP3    H1 3108   4.643   5.118   3.084
 1048TIP3    H2 3109   4.781   5.145   3.142
 1049TIP3   OH2 3110   2.512   0.299   0.282
 1049TIP3    H1 3111   2.432   0.352   0.288
 1049TIP3    H2 3112   2.543   0.314   0.193
 1050TIP3   OH2 3113   1.736   4.703   4.910
 1050TIP3    H1 3114   1.662   4.763   4.918
 1050TIP3    H2 3115   1.746   4.665   4.998
 1051TIP3   OH2 3116   3.713   0.885   0.550
 1051TIP3    H1 3117   3.669   0.807   0.518
 1051TIP3    H2 3118   3.806   0.867   0.537
 1052TIP3   OH2 3119   3.712   4.380   3.113
 1052TIP3    H1 3120   3.675   4.292   3.111
 1052TIP3    H2 3121   3.777   4.376   3.183
 1053TIP3   OH2 3122   3.066   1.004   4.457
 1053TIP3    H1 3123   3.069   1.093   4.493
 1053TIP3    H2 3124   2.976   0.976   4.469
 1054TIP3   OH2 3125   3.492   0.803   2.107
 1054TIP3    H1 3126   3.410   0.851   2.119
 1054TIP3    H2 3127   3.465   0.716   2.079
 1055TIP3   OH2 3128   6.747   1.857   2.352
 1055TIP3    H1 3129   6.678   1.830   2.292
 1055TIP3    H2 3130   6.774   1.943   2.321
 1056TIP3   OH2 3131   3.133   5.583   4.660
 1056TIP3    H1 3132   3.129   5.541   4.746
 1056TIP3    H2 3133   3.078   5.661   4.670
 1057TIP3   OH2 3134   3.425   4.440   4.921
 1057TIP3    H1 3135   3.470   4.518   4.954
 1057TIP3    H2 3136   3.490   4.397   4.865
 1058TIP3   OH2 3137   4.920   2.674   2.927
 1058TIP3    H1 3138   4.951   2.584   2.920
 1058TIP3    H2 3139   4.831   2.672   2.891
 1059TIP3   OH2 3140   4.908   3.432   0.994
 1059TIP3    H1 3141   4.905   3.510   1.051
 1059TIP3    H2 3142   4.823   3.431   0.951
 1060TIP3   OH2 3143   5.441   5.650   3.646
 1060TIP3    H1 3144   5.483   5.635   3.562
 1060TIP3    H2 3145   5.350   5.626   3.632
 1061TIP3   OH2 3146   5.047   0.869   4.992
 1061TIP3    H1 3147   5.004   0.876   5.078
 1061TIP3    H2 3148   4.986   0.911   4.932
 1062TIP3   OH2 3149   6.057   6.754   1.263
 1062TIP3    H1 3150   6.002   6.696   1.211
 1062TIP3    H2 3151   6.069   6.707   1.346
 1063TIP3   OH2 3152   3.024   0.359   3.139
 1063TIP3    H1 3153   3.078   0.313   3.074
 1063TIP3    H2 3154   2.976   0.289   3.184
 1064TIP3   OH2 3155   3.048   4.690   5.162
 1064TIP3    H1 3156   2.972   4.661   5.112
 1064TIP3    H2 3157   3.120   4.635   5.130
 1065TIP3   OH2 3158   1.816   4.291   2.024
 1065TIP3    H1 3159   1.835   4.288   1.930
 1065TIP3    H2 3160   1.899   4.268   2.066
 1066TIP3   OH2 3161   0.902   3.282   1.891
 1066TIP3    H1 3162   0.812   3.288   1.859
 1066TIP3    H2 3163   0.893   3.268   1.985
 1067TIP3   OH2 3164   6.559   4.791   2.427
 1067TIP3    H1 3165   6.623   4.829   2.367
 1067TIP3    H2 3166   6.610   4.770   2.506
 1068TIP3   OH2 3167   0.716   2.320   5.765
 1068TIP3    H1 3168   0.658   2.379   5.717
 1068TIP3    H2 3169   0.695   2.334   5.857
 1069TIP3   OH2 3170   1.037   6.019   2.449
 1069TIP3    H1 3171   1.024   6.065   2.365
 1069TIP3    H2 3172   0.984   6.069   2.511
 1070TIP3   OH2 3173   1.889   2.949   0.481
 1070TIP3    H1 3174   1.814   2.958   0.539
 1070TIP3    H2 3175   1.952   2.897   0.531
 1071TIP3   OH2 3176   4.598   0.037   2.733
 1071TIP3    H1 3177   4.528   0.029   2.798
 1071TIP3    H2 3178   4.661   0.096   2.773
 1072TIP3   OH2 3179   4.630   4.999   4.501
 1072TIP3    H1 3180   4.666   5.025   4.585
 1072TIP3    H2 3181   4.535   4.999   4.515
 1073TIP3   OH2 3182   6.759  -0.011   4.383
 1073TIP3    H1 3183   6.718   0.002   4.468
 1073TIP3    H2 3184   6.789   0.076   4.357
 1074TIP3   OH2 3185   2.042   6.550   4.647
 1074TIP3    H1 3186   2.135   6.551   4.669
 1074TIP3    H2 3187   2.020   6.642   4.631
 1075TIP3   OH2 3188   4.865   3.666   1.181
 1075TIP3    H1 3189   4.916   3.667   1.262
 1075TIP3    H2 3190   4.784   3.621   1.205
 1076TIP3   OH2 3191   2.570   6.038   0.336
 1076TIP3    H1 3192   2.615   6.107   0.288
 1076TIP3    H2 3193   2.640   5.989   0.378
 1077TIP3   OH2 3194   7.049   6.447   2.488
 1077TIP3    H1 3195   7.007   6.452   2.402
 1077TIP3    H2 3196   7.141   6.429   2.468
 1078TIP3   OH2 3197   2.559   6.276   0.589
 1078TIP3    H1 3198   2.516   6.281   0.504
 1078TIP3    H2 3199   2.579   6.367   0.611
 1079TIP3   OH2 3200   1.674   6.584   2.036
 1079TIP3    H1 3201   1.713   6.593   1.950
 1079TIP3    H2 3202   1.733   6.630   2.095
 1080TIP3   OH2 3203   1.829   1.726   1.742
 1080TIP3    H1 3204   1.841   1.686   1.656
 1080TIP3    H2 3205   1.740   1.702   1.767
 1081TIP3   OH2 3206   1.116   4.442   4.237
 1081TIP3    H1 3207   1.165   4.367   4.270
 1081TIP3    H2 3208   1.096   4.419   4.146
 1082TIP3   OH2 3209   5.554   6.311   5.683
 1082TIP3    H1 3210   5.497   6.295   5.758
 1082TIP3    H2 3211   5.504   6.370   5.627
 1083TIP3   OH2 3212   5.513   3.006   2.419
 1083TIP3    H1 3213   5.421   3.031   2.422
 1083TIP3    H2 3214   5.522   2.956   2.338
 1084TIP3   OH2 3215   0.484   5.340   5.114
 1084TIP3    H1 3216   0.405   5.302   5.076
 1084TIP3    H2 3217   0.539   5.360   5.038
 1085TIP3   OH2 3218   1.343   6.102   5.755
 1085TIP3    H1 3219   1.346   6.016   5.796
 1085TIP3    H2 3220   1.410   6.099   5.687
 1086TIP3   OH2 3221   6.647   5.805   2.191
 1086TIP3    H1 3222   6.703   5.872   2.153
 1086TIP3    H2 3223   6.581   5.854   2.240
 1087TIP3   OH2 3224   6.738   6.111   0.489
 1087TIP3    H1 3225   6.714   6.019   0.478
 1087TIP3    H2 3226   6.833   6.110   0.500
 1088TIP3   OH2 3227   4.343   2.529   0.206
 1088TIP3    H1 3228   4.275   2.549   0.141
 1088TIP3    H2 3229   4.408   2.598   0.195
 1089TIP3   OH2 3230   3.023   3.361   0.278
 1089TIP3    H1 3231   3.074   3.350   0.358
 1089TIP3    H2 3232   2.978   3.278   0.266
 1090TIP3   OH2 3233   3.053   5.387   1.727
 1090TIP3    H1 3234   3.076   5.393   1.635
 1090TIP3    H2 3235   3.093   5.464   1.767
 1091TIP3   OH2 3236   6.883   5.786   5.240
 1091TIP3    H1 3237   6.834   5.704   5.248
 1091TIP3    H2 3238   6.826   5.844   5.191
 1092TIP3   OH2 3239   2.267   4.134   1.603
 1092TIP3    H1 3240   2.243   4.166   1.690
 1092TIP3    H2 3241   2.325   4.060   1.620
 1093TIP3   OH2 3242   2.488   0.458   5.111
 1093TIP3    H1 3243   2.466   0.398   5.183
 1093TIP3    H2 3244   2.579   0.437   5.091
 1094TIP3   OH2 3245   3.454   1.542   0.815
 1094TIP3    H1 3246   3.546   1.520   0.831
 1094TIP3    H2 3247   3.407   1.460   0.828
 1095TIP3   OH2 3248   5.895   5.136   0.581
 1095TIP3    H1 3249   5.913   5.230   0.577
 1095TIP3    H2 3250   5.826   5.128   0.647
 1096TIP3   OH2 3251   2.402   4.751   4.262
 1096TIP3    H1 3252   2.387   4.766   4.169
 1096TIP3    H2 3253   2.324   4.705   4.292
 1097TIP3   OH2 3254   3.584   3.649   1.414
 1097TIP3    H1 3255   3.510   3.673   1.471
 1097TIP3    H2 3256   3.646   3.721   1.425
 1098TIP3   OH2 3257   4.679   2.925   4.921
 1098TIP3    H1 3258   4.698   2.861   4.852
 1098TIP3    H2 3259   4.697   2.878   5.003
 1099TIP3   OH2 3260   5.422   5.715   0.101
 1099TIP3    H1 3261   5.459   5.646   0.157
 1099TIP3    H2 3262   5.396   5.784   0.161
 1100TIP3   OH2 3263   5.667   6.800   2.280
 1100TIP3    H1 3264   5.615   6.730   2.320
 1100TIP3    H2 3265   5.755   6.786   2.313
 1101TIP3   OH2 3266   6.987   4.241   4.720
 1101TIP3    H1 3267   7.024   4.159   4.687
 1101TIP3    H2 3268   7.063   4.289   4.754
 1102TIP3   OH2 3269   1.741   2.971   2.733
 1102TIP3    H1 3270   1.794   2.925   2.668
 1102TIP3    H2 3271   1.659   2.920   2.738
 1103TIP3   OH2 3272   4.556   6.481   5.764
 1103TIP3    H1 3273   4.528   6.394   5.791
 1103TIP3    H2 3274   4.493   6.540   5.805
 1104TIP3   OH2 3275   5.906   2.918   0.944
 1104TIP3    H1 3276   5.896   2.975   1.021
 1104TIP3    H2 3277   5.981   2.863   0.965
 1105TIP3   OH2 3278   5.130   0.484   3.843
 1105TIP3    H1 3279   5.097   0.509   3.757
 1105TIP3    H2 3280   5.218   0.521   3.847
 1106TIP3   OH2 3281   5.781   3.606   3.480
 1106TIP3    H1 3282   5.700   3.561   3.503
 1106TIP3    H2 3283   5.844   3.536   3.464
 1107TIP3   OH2 3284   2.133   2.786   3.647
 1107TIP3    H1 3285   2.071   2.766   3.576
 1107TIP3    H2 3286   2.116   2.719   3.712
 1108TIP3   OH2 3287   6.548   0.953   0.663
 1108TIP3    H1 3288   6.641   0.959   0.688
 1108TIP3    H2 3289   6.541   1.009   0.586
 1109TIP3   OH2 3290   0.732   4.233   3.438
 1109TIP3    H1 3291   0.725   4.303   3.374
 1109TIP3    H2 3292   0.826   4.220   3.449
 1110TIP3   OH2 3293   6.206   4.120   2.869
 1110TIP3    H1 3294   6.282   4.064   2.884
 1110TIP3    H2 3295   6.242   4.202   2.835
 1111TIP3   OH2 3296   3.637   5.451   0.878
 1111TIP3    H1 3297   3.676   5.430   0.962
 1111TIP3    H2 3298   3.544   5.430   0.888
 1112TIP3   OH2 3299   5.491   4.830   1.225
 1112TIP3    H1 3300   5.553   4.767   1.262
 1112TIP3    H2 3301   5.506   4.826   1.130
 1113TIP3   OH2 3302   3.432   2.472   1.624
 1113TIP3    H1 3303   3.451   2.540   1.689
 1113TIP3    H2 3304   3.391   2.401   1.673
 1114TIP3   OH2 3305   5.193   3.328   1.821
 1114TIP3    H1 3306   5.211   3.251   1.875
 1114TIP3    H2 3307   5.232   3.401   1.869
 1115TIP3   OH2 3308   5.796   4.329   3.987
 1115TIP3    H1 3309   5.725   4.392   3.990
 1115TIP3    H2 3310   5.810   4.311   3.894
 1116TIP3   OH2 3311   2.303   2.536   2.648
 1116TIP3    H1 3312   2.290   2.448   2.683
 1116TIP3    H2 3313   2.374   2.573   2.700
 1117TIP3   OH2 3314   2.428   1.563   3.328
 1117TIP3    H1 3315   2.510   1.517   3.310
 1117TIP3    H2 3316   2.447   1.617   3.405
 1118TIP3   OH2 3317   0.238   3.213   3.357
 1118TIP3    H1 3318   0.262   3.211   3.449
 1118TIP3    H2 3319   0.316   3.182   3.311
 1119TIP3   OH2 3320   0.155   1.763   4.338
 1119TIP3    H1 3321   0.127   1.692   4.397
 1119TIP3    H2 3322   0.175   1.719   4.256
 1120TIP3   OH2 3323   0.169   3.576   5.632
 1120TIP3    H1 3324   0.141   3.507   5.692
 1120TIP3    H2 3325   0.091   3.596   5.581
 1121TIP3   OH2 3326   3.194   0.563   2.917
 1121TIP3    H1 3327   3.236   0.639   2.955
 1121TIP3    H2 3328   3.223   0.489   2.971
 1122TIP3   OH2 3329   1.422   0.754   3.033
 1122TIP3    H1 3330   1.357   0.791   2.973
 1122TIP3    H2 3331   1.379   0.757   3.119
 1123TIP3   OH2 3332   5.346   0.729   1.356
 1123TIP3    H1 3333   5.309   0.733   1.445
 1123TIP3    H2 3334   5.318   0.643   1.323
 1124TIP3   OH2 3335   6.481   6.637   2.340
 1124TIP3    H1 3336   6.490   6.712   2.398
 1124TIP3    H2 3337   6.550   6.648   2.275
 1125TIP3   OH2 3338   1.307   0.151   3.525
 1125TIP3    H1 3339   1.272   0.187   3.607
 1125TIP3    H2 3340   1.244   0.178   3.458
 1126TIP3   OH2 3341   2.742   5.314   0.857
 1126TIP3    H1 3342   2.694   5.392   0.827
 1126TIP3    H2 3343   2.674   5.254   0.886
 1127TIP3   OH2 3344   6.224   1.308   0.141
 1127TIP3    H1 3345   6.150   1.315   0.081
 1127TIP3    H2 3346   6.274   1.389   0.127
 1128TIP3   OH2 3347   2.643   1.840   4.833
 1128TIP3    H1 3348   2.659   1.893   4.910
 1128TIP3    H2 3349   2.560   1.872   4.798
 1129TIP3   OH2 3350   2.587   2.157   2.682
 1129TIP3    H1 3351   2.537   2.142   2.763
 1129TIP3    H2 3352   2.607   2.069   2.649
 1130TIP3   OH2 3353   1.319   0.358   4.556
 1130TIP3    H1 3354   1.406   0.348   4.519
 1130TIP3    H2 3355   1.314   0.291   4.624
 1131TIP3   OH2 3356   4.267   3.013   0.369
 1131TIP3    H1 3357   4.183   2.968   0.368
 1131TIP3    H2 3358   4.331   2.943   0.357
 1132TIP3   OH2 3359   2.902   4.595   3.698
 1132TIP3    H1 3360   2.970   4.579   3.633
 1132TIP3    H2 3361   2.820   4.580   3.651
 1133TIP3   OH2 3362   1.065   5.648   1.159
 1133TIP3    H1 3363   1.079   5.633   1.252
 1133TIP3    H2 3364   1.004   5.580   1.133
 1134TIP3   OH2 3365   0.333   5.295   4.892
 1134TIP3    H1 3366   0.257   5.244   4.865
 1134TIP3    H2 3367   0.399   5.277   4.825
 1135TIP3   OH2 3368   2.396   5.127   2.822
 1135TIP3    H1 3369   2.363   5.152   2.736
 1135TIP3    H2 3370   2.383   5.205   2.876
 1136TIP3   OH2 3371   2.395   1.593   5.086
 1136TIP3    H1 3372   2.363   1.629   5.003
 1136TIP3    H2 3373   2.441   1.513   5.062
 1137TIP3   OH2 3374   5.235   1.200   0.919
 1137TIP3    H1 3375   5.187   1.163   0.993
 1137TIP3    H2 3376   5.172   1.257   0.875
 1138TIP3   OH2 3377   2.862   6.100   4.925
 1138TIP3    H1 3378   2.863   6.005   4.920
 1138TIP3    H2 3379   2.945   6.123   4.966
 1139TIP3   OH2 3380   1.454   1.795   4.899
 1139TIP3    H1 3381   1.438   1.878   4.943
 1139TIP3    H2 3382   1.525   1.813   4.837
 1140TIP3   OH2 3383   5.828   0.823   1.250
 1140TIP3    H1 3384   5.862   0.746   1.204
 1140TIP3    H2 3385   5.883   0.896   1.220
 1141TIP3   OH2 3386   2.620   4.070   4.017
 1141TIP3    H1 3387   2.686   4.058   4.086
 1141TIP3    H2 3388   2.648   4.149   3.971
 1142TIP3   OH2 3389   2.439   1.790   0.437
 1142TIP3    H1 3390   2.394   1.725   0.382
 1142TIP3    H2 3391   2.528   1.756   0.445
 1143TIP3   OH2 3392   1.045   0.185   4.881
 1143TIP3    H1 3393   1.039   0.090   4.870
 1143TIP3    H2 3394   0.959   0.211   4.915
 1144TIP3   OH2 3395   6.644   6.705   5.670
 1144TIP3    H1 3396   6.711   6.639   5.656
 1144TIP3    H2 3397   6.577   6.685   5.604
 1145TIP3   OH2 3398   6.070   4.707   5.452
 1145TIP3    H1 3399   6.155   4.662   5.450
 1145TIP3    H2 3400   6.052   4.730   5.361
 1146TIP3   OH2 3401   5.775   0.180   3.169
 1146TIP3    H1 3402   5.683   0.200   3.154
 1146TIP3    H2 3403   5.820   0.263   3.156
 1147TIP3   OH2 3404   1.830   5.540   5.282
 1147TIP3    H1 3405   1.892   5.554   5.354
 1147TIP3    H2 3406   1.879   5.564   5.203
 1148TIP3   OH2 3407   3.601   2.933   1.411
 1148TIP3    H1 3408   3.602   3.002   1.344
 1148TIP3    H2 3409   3.679   2.881   1.393
 1149TIP3   OH2 3410   1.758   3.681   3.474
 1149TIP3    H1 3411   1.835   3.635   3.441
 1149TIP3    H2 3412   1.692   3.671   3.404
 1150TIP3   OH2 3413   3.577   5.383   3.645
 1150TIP3    H1 3414   3.626   5.463   3.664
 1150TIP3    H2 3415   3.496   5.392   3.696
 1151TIP3   OH2 3416   2.381   2.859   0.086
 1151TIP3    H1 3417   2.324   2.935   0.092
 1151TIP3    H2 3418   2.420   2.865  -0.002
 1152TIP3   OH2 3419   3.296   5.218   3.683
 1152TIP3    H1 3420   3.242   5.140   3.672
 1152TIP3    H2 3421   3.296   5.260   3.596
 1153TIP3   OH2 3422   0.793   2.611   2.344
 1153TIP3    H1 3423   0.876   2.640   2.381
 1153TIP3    H2 3424   0.767   2.681   2.285
 1154TIP3   OH2 3425   6.806   0.685   0.479
 1154TIP3    H1 3426   6.826   0.620   0.547
 1154TIP3    H2 3427   6.745   0.640   0.421
 1155TIP3   OH2 3428   7.200   0.283   5.070
 1155TIP3    H1 3429   7.200   0.378   5.069
 1155TIP3    H2 3430   7.154   0.260   5.151
 1156TIP3   OH2 3431   0.249   2.758   1.019
 1156TIP3    H1 3432   0.234   2.734   0.927
 1156TIP3    H2 3433   0.225   2.680   1.068
 1157TIP3   OH2 3434   1.711   0.310   1.066
 1157TIP3    H1 3435   1.718   0.402   1.091
 1157TIP3    H2 3436   1.633   0.305   1.011
 1158TIP3   OH2 3437   0.631   0.325   3.595
 1158TIP3    H1 3438   0.669   0.412   3.582
 1158TIP3    H2 3439   0.577   0.310   3.517
 1159TIP3   OH2 3440   1.237   5.056   1.235
 1159TIP3    H1 3441   1.256   5.147   1.213
 1159TIP3    H2 3442   1.194   5.020   1.158
 1160TIP3   OH2 3443   0.374   5.502   2.846
 1160TIP3    H1 3444   0.401   5.433   2.906
 1160TIP3    H2 3445   0.350   5.575   2.903
 1161TIP3   OH2 3446   4.841   2.115   2.351
 1161TIP3    H1 3447   4.895   2.193   2.362
 1161TIP3    H2 3448   4.773   2.123   2.418
 1162TIP3   OH2 3449   0.177   2.049   4.942
 1162TIP3    H1 3450   0.130   2.110   4.999
 1162TIP3    H2 3451   0.205   2.102   4.867
 1163TIP3   OH2 3452   2.903   6.755   2.852
 1163TIP3    H1 3453   2.980   6.810   2.863
 1163TIP3    H2 3454   2.847   6.803   2.791
 1164TIP3   OH2 3455   4.244   5.288   5.429
 1164TIP3    H1 3456   4.166   5.249   5.469
 1164TIP3    H2 3457   4.305   5.299   5.502
 1165TIP3   OH2 3458   4.713   6.536   5.370
 1165TIP3    H1 3459   4.780   6.575   5.315
 1165TIP3    H2 3460   4.681   6.608   5.425
 1166TIP3   OH2 3461   0.947   5.809   0.942
 1166TIP3    H1 3462   0.950   5.717   0.919
 1166TIP3    H2 3463   1.015   5.850   0.890
 1167TIP3   OH2 3464   2.587   0.746   0.409
 1167TIP3    H1 3465   2.637   0.666   0.394
 1167TIP3    H2 3466   2.603   0.767   0.501
 1168TIP3   OH2 3467   0.045   3.740   4.772
 1168TIP3    H1 3468   0.002   3.681   4.835
 1168TIP3    H2 3469   0.119   3.690   4.739
 1169TIP3   OH2 3470   4.596   1.772   5.475
 1169TIP3    H1 3471   4.639   1.716   5.410
 1169TIP3    H2 3472   4.648   1.852   5.477
 1170TIP3   OH2 3473   0.505   6.424   0.997
 1170TIP3    H1 3474   0.412   6.430   0.973
 1170TIP3    H2 3475   0.506   6.434   1.092
 1171TIP3   OH2 3476   7.054   0.148   2.054
 1171TIP3    H1 3477   6.961   0.137   2.074
 1171TIP3    H2 3478   7.058   0.230   2.004
 1172TIP3   OH2 3479   5.008   0.828   2.927
 1172TIP3    H1 3480   4.936   0.858   2.983
 1172TIP3    H2 3481   5.014   0.894   2.858
 1173TIP3   OH2 3482   1.597   4.092   2.752
 1173TIP3    H1 3483   1.578   4.164   2.813
 1173TIP3    H2 3484   1.693   4.083   2.755
 1174TIP3   OH2 3485   0.983   4.067   0.249
 1174TIP3    H1 3486   1.013   3.980   0.277
 1174TIP3    H2 3487   1.029   4.128   0.307
 1175TIP3   OH2 3488   6.288   6.239   3.324
 1175TIP3    H1 3489   6.366   6.190   3.298
 1175TIP3    H2 3490   6.277   6.305   3.255
 1176TIP3   OH2 3491   4.251   2.852   5.201
 1176TIP3    H1 3492   4.310   2.898   5.261
 1176TIP3    H2 3493   4.236   2.916   5.131
 1177TIP3   OH2 3494   1.421   2.110   4.819
 1177TIP3    H1 3495   1.481   2.043   4.786
 1177TIP3    H2 3496   1.420   2.098   4.914
 1178TIP3   OH2 3497   5.247   2.770   3.303
 1178TIP3    H1 3498   5.177   2.796   3.363
 1178TIP3    H2 3499   5.267   2.850   3.254
 1179TIP3   OH2 3500   2.346   3.833   3.690
 1179TIP3    H1 3501   2.346   3.762   3.755
 1179TIP3    H2 3502   2.426   3.882   3.708
 1180TIP3   OH2 3503   4.231   1.361   5.748
 1180TIP3    H1 3504   4.236   1.266   5.750
 1180TIP3    H2 3505   4.215   1.383   5.657
 1181TIP3   OH2 3506   5.097   1.899   0.825
 1181TIP3    H1 3507   5.112   1.820   0.878
 1181TIP3    H2 3508   5.075   1.967   0.889
 1182TIP3   OH2 3509   1.210   4.739   0.377
 1182TIP3    H1 3510   1.124   4.778   0.397
 1182TIP3    H2 3511   1.270   4.813   0.379
 1183TIP3   OH2 3512   3.057   2.653   0.204
 1183TIP3    H1 3513   3.081   2.702   0.283
 1183TIP3    H2 3514   2.962   2.645   0.208
 1184TIP3   OH2 3515   1.052   0.431   2.035
 1184TIP3    H1 3516   1.051   0.338   2.015
 1184TIP3    H2 3517   1.133   0.445   2.084
 1185TIP3   OH2 3518   5.416   3.796   1.978
 1185TIP3    H1 3519   5.444   3.705   1.977
 1185TIP3    H2 3520   5.329   3.796   1.938
 1186TIP3   OH2 3521   6.501   5.798   0.834
 1186TIP3    H1 3522   6.445   5.788   0.757
 1186TIP3    H2 3523   6.564   5.866   0.810
 1187TIP3   OH2 3524   5.330   4.858   0.738
 1187TIP3    H1 3525   5.372   4.859   0.824
 1187TIP3    H2 3526   5.397   4.889   0.677
 1188TIP3   OH2 3527   5.261   4.883   2.465
 1188TIP3    H1 3528   5.184   4.827   2.468
 1188TIP3    H2 3529   5.331   4.830   2.503
 1189TIP3   OH2 3530   5.425   1.052   0.689
 1189TIP3    H1 3531   5.426   0.962   0.721
 1189TIP3    H2 3532   5.358   1.096   0.741
 1190TIP3   OH2 3533   1.873   0.117   1.415
 1190TIP3    H1 3534   1.783   0.085   1.426
 1190TIP3    H2 3535   1.898   0.089   1.327
 1191TIP3   OH2 3536   3.878   1.047   3.936
 1191TIP3    H1 3537   3.875   0.951   3.939
 1191TIP3    H2 3538   3.963   1.069   3.974
 1192TIP3   OH2 3539   5.665   5.957   1.942
 1192TIP3    H1 3540   5.663   5.919   1.854
 1192TIP3    H2 3541   5.729   5.904   1.990
 1193TIP3   OH2 3542   7.028   4.236   2.919
 1193TIP3    H1 3543   6.966   4.202   2.983
 1193TIP3    H2 3544   7.109   4.248   2.969
 1194TIP3   OH2 3545   3.234   2.847   2.220
 1194TIP3    H1 3546   3.141   2.829   2.235
 1194TIP3    H2 3547   3.243   2.941   2.238
 1195TIP3   OH2 3548   4.274   5.853   4.101
 1195TIP3    H1 3549   4.289   5.830   4.009
 1195TIP3    H2 3550   4.361   5.872   4.135
 1196TIP3   OH2 3551   5.600   5.538   3.848
 1196TIP3    H1 3552   5.528   5.576   3.797
 1196TIP3    H2 3553   5.610   5.450   3.813
 1197TIP3   OH2 3554   6.300   6.748   3.465
 1197TIP3    H1 3555   6.292   6.834   3.507
 1197TIP3    H2 3556   6.218   6.737   3.417
 1198TIP3   OH2 3557   4.640   6.699   2.257
 1198TIP3    H1 3558   4.693   6.722   2.181
 1198TIP3    H2 3559   4.561   6.659   2.220
 1199TIP3   OH2 3560   5.805   5.193   2.961
 1199TIP3    H1 3561   5.753   5.165   3.036
 1199TIP3    H2 3562   5.896   5.177   2.987
 1200TIP3   OH2 3563   1.857   1.294   2.760
 1200TIP3    H1 3564   1.852   1.200   2.775
 1200TIP3    H2 3565   1.949   1.310   2.738
 1201TIP3   OH2 3566   3.055   4.921   3.125
 1201TIP3    H1 3567   2.961   4.935   3.130
 1201TIP3    H2 3568   3.092   5.009   3.116
 1202TIP3   OH2 3569   6.969   2.537   0.807
 1202TIP3    H1 3570   6.964   2.633   0.809
 1202TIP3    H2 3571   6.899   2.511   0.747
 1203TIP3   OH2 3572   1.003   6.736   4.923
 1203TIP3    H1 3573   1.042   6.778   4.847
 1203TIP3    H2 3574   1.076   6.697   4.969
 1204TIP3   OH2 3575   5.411   4.439   2.368
 1204TIP3    H1 3576   5.412   4.361   2.424
 1204TIP3    H2 3577   5.431   4.405   2.280
 1205TIP3   OH2 3578   7.170   3.628   5.454
 1205TIP3    H1 3579   7.122   3.664   5.529
 1205TIP3    H2 3580   7.104   3.586   5.400
 1206TIP3   OH2 3581   4.160   0.971   4.577
 1206TIP3    H1 3582   4.218   0.924   4.517
 1206TIP3    H2 3583   4.081   0.918   4.581
 1207TIP3   OH2 3584   5.057   2.703   4.702
 1207TIP3    H1 3585   5.080   2.750   4.622
 1207TIP3    H2 3586   5.077   2.611   4.682
 1208TIP3   OH2 3587   4.917   2.524   2.679
 1208TIP3    H1 3588   4.905   2.469   2.756
 1208TIP3    H2 3589   5.011   2.534   2.672
 1209TIP3   OH2 3590   3.765   4.974   1.904
 1209TIP3    H1 3591   3.771   5.005   1.814
 1209TIP3    H2 3592   3.855   4.977   1.937
 1210TIP3   OH2 3593   2.678   6.369   1.823
 1210TIP3    H1 3594   2.583   6.365   1.810
 1210TIP3    H2 3595   2.696   6.463   1.831
 1211TIP3   OH2 3596   3.059   1.787   2.778
 1211TIP3    H1 3597   3.087   1.713   2.725
 1211TIP3    H2 3598   2.964   1.790   2.766
 1212TIP3   OH2 3599   1.553   6.431   0.093
 1212TIP3    H1 3600   1.607   6.499   0.052
 1212TIP3    H2 3601   1.510   6.476   0.166
 1213TIP3   OH2 3602   6.627   5.938   5.493
 1213TIP3    H1 3603   6.582   6.021   5.480
 1213TIP3    H2 3604   6.573   5.874   5.446
 1214TIP3   OH2 3605   4.971   0.441   1.785
 1214TIP3    H1 3606   4.877   0.431   1.779
 1214TIP3    H2 3607   5.007   0.364   1.741
 1215TIP3   OH2 3608   5.720   4.233   1.000
 1215TIP3    H1 3609   5.744   4.182   1.077
 1215TIP3    H2 3610   5.803   4.250   0.956
 1216TIP3   OH2 3611   1.760   0.564   1.193
 1216TIP3    H1 3612   1.830   0.624   1.220
 1216TIP3    H2 3613   1.702   0.617   1.138
 1217TIP3   OH2 3614   6.027   1.704   0.609
 1217TIP3    H1 3615   6.030   1.641   0.537
 1217TIP3    H2 3616   5.935   1.726   0.618
 1218TIP3   OH2 3617   4.670   6.574   3.157
 1218TIP3    H1 3618   4.689   6.530   3.240
 1218TIP3    H2 3619   4.728   6.531   3.094
 1219TIP3   OH2 3620   3.776   1.278   4.093
 1219TIP3    H1 3621   3.835   1.279   4.168
 1219TIP3    H2 3622   3.786   1.191   4.055
 1220TIP3   OH2 3623   5.164   0.922   1.534
 1220TIP3    H1 3624   5.091   0.922   1.471
 1220TIP3    H2 3625   5.154   0.840   1.583
 1221TIP3   OH2 3626   4.442   0.636   4.579
 1221TIP3    H1 3627   4.373   0.637   4.645
 1221TIP3    H2 3628   4.425   0.714   4.526
 1222TIP3   OH2 3629   4.584   4.796   3.535
 1222TIP3    H1 3630   4.662   4.773   3.485
 1222TIP3    H2 3631   4.511   4.785   3.474
 1223TIP3   OH2 3632   3.067   3.821   0.219
 1223TIP3    H1 3633   3.036   3.734   0.242
 1223TIP3    H2 3634   3.102   3.857   0.301
 1224TIP3   OH2 3635   5.580   1.388   4.471
 1224TIP3    H1 3636   5.662   1.343   4.452
 1224TIP3    H2 3637   5.570   1.451   4.400
 1225TIP3   OH2 3638   5.643   6.370   3.739
 1225TIP3    H1 3639   5.657   6.379   3.645
 1225TIP3    H2 3640   5.688   6.445   3.778
 1226TIP3   OH2 3641   4.762   6.350   4.258
 1226TIP3    H1 3642   4.760   6.306   4.343
 1226TIP3    H2 3643   4.723   6.436   4.274
 1227TIP3   OH2 3644   4.159   1.709   5.631
 1227TIP3    H1 3645   4.228   1.750   5.579
 1227TIP3    H2 3646   4.094   1.681   5.567
 1228TIP3   OH2 3647   7.014   6.408   4.426
 1228TIP3    H1 3648   6.942   6.381   4.369
 1228TIP3    H2 3649   7.092   6.400   4.371
 1229TIP3   OH2 3650   6.166   0.328   0.216
 1229TIP3    H1 3651   6.090   0.276   0.242
 1229TIP3    H2 3652   6.152   0.413   0.257
 1230TIP3   OH2 3653   4.117   1.892   4.446
 1230TIP3    H1 3654   4.024   1.908   4.430
 1230TIP3    H2 3655   4.153   1.871   4.359
 1231TIP3   OH2 3656   3.460   3.314   2.180
 1231TIP3    H1 3657   3.503   3.387   2.223
 1231TIP3    H2 3658   3.408   3.273   2.249
 1232TIP3   OH2 3659   5.097   0.540   5.212
 1232TIP3    H1 3660   5.006   0.527   5.185
 1232TIP3    H2 3661   5.147   0.543   5.131
 1233TIP3   OH2 3662   5.523   4.479   1.386
 1233TIP3    H1 3663   5.539   4.385   1.386
 1233TIP3    H2 3664   5.440   4.489   1.432
 1234TIP3   OH2 3665   4.198   6.535   3.777
 1234TIP3    H1 3666   4.210   6.468   3.844
 1234TIP3    H2 3667   4.283   6.578   3.771
 1235TIP3   OH2 3668   0.750   1.370   3.021
 1235TIP3    H1 3669   0.663   1.407   3.005
 1235TIP3    H2 3670   0.786   1.354   2.934
 1236TIP3   OH2 3671   1.289   1.271   2.050
 1236TIP3    H1 3672   1.316   1.314   1.969
 1236TIP3    H2 3673   1.245   1.191   2.021
 1237TIP3   OH2 3674   0.440   5.540   5.311
 1237TIP3    H1 3675   0.345   5.539   5.324
 1237TIP3    H2 3676   0.456   5.467   5.251
 1238TIP3   OH2 3677   2.298   2.016   1.206
 1238TIP3    H1 3678   2.299   1.921   1.195
 1238TIP3    H2 3679   2.222   2.045   1.156
 1239TIP3   OH2 3680   4.384   4.728   1.852
 1239TIP3    H1 3681   4.412   4.762   1.937
 1239TIP3    H2 3682   4.433   4.780   1.788
 1240TIP3   OH2 3683   3.011   2.593   5.541
 1240TIP3    H1 3684   2.926   2.610   5.501
 1240TIP3    H2 3685   3.055   2.535   5.480
 1241TIP3   OH2 3686   1.431   0.751   1.751
 1241TIP3    H1 3687   1.420   0.844   1.772
 1241TIP3    H2 3688   1.426   0.747   1.656
 1242TIP3   OH2 3689   3.907   5.134   2.721
 1242TIP3    H1 3690   3.812   5.145   2.710
 1242TIP3    H2 3691   3.937   5.217   2.757
 1243TIP3   OH2 3692   4.161   2.878   2.766
 1243TIP3    H1 3693   4.090   2.870   2.830
 1243TIP3    H2 3694   4.223   2.938   2.806
 1244TIP3   OH2 3695   1.502   0.096   3.836
 1244TIP3    H1 3696   1.504   0.192   3.836
 1244TIP3    H2 3697   1.415   0.074   3.870
 1245TIP3   OH2 3698   4.803   1.030   3.373
 1245TIP3    H1 3699   4.772   0.973   3.444
 1245TIP3    H2 3700   4.771   1.118   3.397
 1246TIP3   OH2 3701   1.488   3.300   3.870
 1246TIP3    H1 3702   1.484   3.223   3.926
 1246TIP3    H2 3703   1.566   3.348   3.900
 1247TIP3   OH2 3704   0.128   4.462   5.537
 1247TIP3    H1 3705   0.129   4.549   5.577
 1247TIP3    H2 3706   0.102   4.478   5.446
 1248TIP3   OH2 3707   0.861   1.443   4.637
 1248TIP3    H1 3708   0.770   1.459   4.662
 1248TIP3    H2 3709   0.907   1.432   4.721
 1249TIP3   OH2 3710   0.513   2.911   3.977
 1249TIP3    H1 3711   0.473   2.855   4.044
 1249TIP3    H2 3712   0.557   2.850   3.918
 1250TIP3   OH2 3713   3.646   3.946   0.648
 1250TIP3    H1 3714   3.710   3.976   0.582
 1250TIP3    H2 3715   3.662   4.002   0.724
 1251TIP3   OH2 3716   4.335   1.849   1.432
 1251TIP3    H1 3717   4.258   1.805   1.468
 1251TIP3    H2 3718   4.374   1.893   1.507
 1252TIP3   OH2 3719   0.797   0.172   3.265
 1252TIP3    H1 3720   0.718   0.148   3.217
 1252TIP3    H2 3721   0.847   0.227   3.205
 1253TIP3   OH2 3722   6.432   0.287   1.260
 1253TIP3    H1 3723   6.448   0.364   1.314
 1253TIP3    H2 3724   6.391   0.224   1.319
 1254TIP3   OH2 3725   3.159   5.180   5.695
 1254TIP3    H1 3726   3.140   5.105   5.638
 1254TIP3    H2 3727   3.163   5.142   5.783
 1255TIP3   OH2 3728   1.109   6.279   4.516
 1255TIP3    H1 3729   1.118   6.363   4.560
 1255TIP3    H2 3730   1.151   6.216   4.575
 1256TIP3   OH2 3731   5.669   2.596   5.658
 1256TIP3    H1 3732   5.637   2.519   5.705
 1256TIP3    H2 3733   5.593   2.630   5.612
 1257TIP3   OH2 3734   1.163   2.657   4.292
 1257TIP3    H1 3735   1.069   2.653   4.274
 1257TIP3    H2 3736   1.203   2.677   4.207
 1258TIP3   OH2 3737   7.158   6.516   4.830
 1258TIP3    H1 3738   7.194   6.587   4.776
 1258TIP3    H2 3739   7.183   6.538   4.919
 1259TIP3   OH2 3740   5.868   1.533   4.649
 1259TIP3    H1 3741   5.848   1.442   4.671
 1259TIP3    H2 3742   5.835   1.544   4.560
 1260TIP3   OH2 3743   5.214   2.183   3.349
 1260TIP3    H1 3744   5.269   2.110   3.378
 1260TIP3    H2 3745   5.182   2.157   3.263
 1261TIP3   OH2 3746   1.703   3.768   0.257
 1261TIP3    H1 3747   1.652   3.789   0.179
 1261TIP3    H2 3748   1.726   3.854   0.294
 1262TIP3   OH2 3749   1.586   0.648   3.911
 1262TIP3    H1 3750   1.591   0.737   3.876
 1262TIP3    H2 3751   1.493   0.636   3.933
 1263TIP3   OH2 3752   3.153   3.286   0.540
 1263TIP3    H1 3753   3.209   3.213   0.513
 1263TIP3    H2 3754   3.079   3.244   0.585
 1264TIP3   OH2 3755   6.158   5.946   5.804
 1264TIP3    H1 3756   6.182   5.988   5.887
 1264TIP3    H2 3757   6.240   5.909   5.771
 1265TIP3   OH2 3758   4.678   6.612   2.503
 1265TIP3    H1 3759   4.737   6.663   2.559
 1265TIP3    H2 3760   4.691   6.647   2.415
 1266TIP3   OH2 3761   2.876   4.354   2.789
 1266TIP3    H1 3762   2.801   4.355   2.729
 1266TIP3    H2 3763   2.875   4.441   2.829
 1267TIP3   OH2 3764   5.040   0.283   1.198
 1267TIP3    H1 3765   5.057   0.280   1.292
 1267TIP3    H2 3766   4.952   0.321   1.190
 1268TIP3   OH2 3767   0.295   0.306   4.737
 1268TIP3    H1 3768   0.204   0.286   4.756
 1268TIP3    H2 3769   0.310   0.269   4.649
 1269TIP3   OH2 3770   1.748   6.474   5.068
 1269TIP3    H1 3771   1.681   6.407   5.053
 1269TIP3    H2 3772   1.805   6.469   4.991
 1270TIP3   OH2 3773   1.355   3.715   3.859
 1270TIP3    H1 3774   1.352   3.625   3.890
 1270TIP3    H2 3775   1.425   3.716   3.794
 1271TIP3   OH2 3776   1.370   0.892   0.144
 1271TIP3    H1 3777   1.459   0.917   0.116
 1271TIP3    H2 3778   1.313   0.928   0.076
 1272TIP3   OH2 3779   0.118   6.573   5.402
 1272TIP3    H1 3780   0.058   6.631   5.356
 1272TIP3    H2 3781   0.062   6.506   5.442
 1273TIP3   OH2 3782   0.166   0.666   5.749
 1273TIP3    H1 3783   0.100   0.661   5.680
 1273TIP3    H2 3784   0.247   0.635   5.708
 1274TIP3   OH2 3785   2.796   5.558   1.986
 1274TIP3    H1 3786   2.760   5.623   1.925
 1274TIP3    H2 3787   2.890   5.562   1.973
 1275TIP3   OH2 3788   2.916   1.826   0.470
 1275TIP3    H1 3789   2.955   1.810   0.384
 1275TIP3    H2 3790   2.892   1.919   0.469
 1276TIP3   OH2 3791   3.118   4.495   4.078
 1276TIP3    H1 3792   3.047   4.557   4.096
 1276TIP3    H2 3793   3.191   4.526   4.131
 1277TIP3   OH2 3794   3.225   6.434   5.662
 1277TIP3    H1 3795   3.289   6.497   5.628
 1277TIP3    H2 3796   3.160   6.488   5.708
 1278TIP3   OH2 3797   5.450   5.730   4.015
 1278TIP3    H1 3798   5.538   5.694   4.002
 1278TIP3    H2 3799   5.462   5.825   4.010
 1279TIP3   OH2 3800   4.085   2.470   2.138
 1279TIP3    H1 3801   4.000   2.459   2.181
 1279TIP3    H2 3802   4.116   2.555   2.168
 1280TIP3   OH2 3803   0.696   0.623   4.432
 1280TIP3    H1 3804   0.690   0.548   4.373
 1280TIP3    H2 3805   0.665   0.697   4.380
 1281TIP3   OH2 3806   0.066   0.998   0.353
 1281TIP3    H1 3807  -0.029   0.987   0.348
 1281TIP3    H2 3808   0.079   1.092   0.361
 1282TIP3   OH2 3809   3.119   1.337   0.199
 1282TIP3    H1 3810   3.098   1.318   0.291
 1282TIP3    H2 3811   3.056   1.287   0.148
 1283TIP3   OH2 3812   3.758   2.818   4.737
 1283TIP3    H1 3813   3.721   2.896   4.779
 1283TIP3    H2 3814   3.801   2.771   4.809
 1284TIP3   OH2 3815   2.443   4.010   3.419
 1284TIP3    H1 3816   2.525   4.010   3.370
 1284TIP3    H2 3817   2.463   4.060   3.499
 1285TIP3   OH2 3818   1.831   1.354   4.093
 1285TIP3    H1 3819   1.739   1.375   4.109
 1285TIP3    H2 3820   1.845   1.378   4.001
 1286TIP3   OH2 3821   0.095   2.855   0.213
 1286TIP3    H1 3822   0.166   2.904   0.255
 1286TIP3    H2 3823   0.140   2.797   0.150
 1287TIP3   OH2 3824   4.988   6.733   2.220
 1287TIP3    H1 3825   5.074   6.695   2.201
 1287TIP3    H2 3826   4.943   6.732   2.135
 1288TIP3   OH2 3827   6.768   0.091   2.673
 1288TIP3    H1 3828   6.822   0.090   2.594
 1288TIP3    H2 3829   6.678   0.086   2.641
 1289TIP3   OH2 3830   4.517   6.311   2.046
 1289TIP3    H1 3831   4.542   6.261   2.124
 1289TIP3    H2 3832   4.568   6.391   2.051
 1290TIP3   OH2 3833   4.127   2.681   1.086
 1290TIP3    H1 3834   4.134   2.620   1.159
 1290TIP3    H2 3835   4.045   2.727   1.100
 1291TIP3   OH2 3836   1.388   4.440   3.159
 1291TIP3    H1 3837   1.299   4.417   3.133
 1291TIP3    H2 3838   1.395   4.533   3.137
 1292TIP3   OH2 3839   1.481   1.010   1.191
 1292TIP3    H1 3840   1.386   1.011   1.185
 1292TIP3    H2 3841   1.502   1.074   1.259
 1293TIP3   OH2 3842   3.928   4.549   2.990
 1293TIP3    H1 3843   3.893   4.589   2.910
 1293TIP3    H2 3844   3.856   4.495   3.024
 1294TIP3   OH2 3845   7.178   5.800   0.473
 1294TIP3    H1 3846   7.114   5.853   0.520
 1294TIP3    H2 3847   7.126   5.731   0.431
 1295TIP3   OH2 3848   3.454   5.521   1.704
 1295TIP3    H1 3849   3.421   5.602   1.744
 1295TIP3    H2 3850   3.503   5.551   1.627
 1296TIP3   OH2 3851   6.286   3.952   3.380
 1296TIP3    H1 3852   6.375   3.938   3.347
 1296TIP3    H2 3853   6.240   3.996   3.309
 1297TIP3   OH2 3854   4.363   3.474   4.180
 1297TIP3    H1 3855   4.366   3.458   4.085
 1297TIP3    H2 3856   4.449   3.513   4.199
 1298TIP3   OH2 3857   4.344   2.223   3.612
 1298TIP3    H1 3858   4.333   2.229   3.517
 1298TIP3    H2 3859   4.419   2.280   3.631
 1299TIP3   OH2 3860   7.155   1.211   5.165
 1299TIP3    H1 3861   7.078   1.185   5.216
 1299TIP3    H2 3862   7.125   1.287   5.114
 1300TIP3   OH2 3863   1.539   4.125   5.571
 1300TIP3    H1 3864   1.454   4.084   5.553
 1300TIP3    H2 3865   1.585   4.061   5.625
 1301TIP3   OH2 3866   6.961   0.531   5.392
 1301TIP3    H1 3867   7.008   0.488   5.320
 1301TIP3    H2 3868   6.885   0.475   5.408
 1302TIP3   OH2 3869   3.904   1.369   0.803
 1302TIP3    H1 3870   3.919   1.442   0.742
 1302TIP3    H2 3871   3.910   1.291   0.748
 1303TIP3   OH2 3872   5.460   2.076   5.632
 1303TIP3    H1 3873   5.382   2.056   5.580
 1303TIP3    H2 3874   5.456   2.016   5.706
 1304TIP3   OH2 3875   2.293   2.127   0.882
 1304TIP3    H1 3876   2.235   2.144   0.956
 1304TIP3    H2 3877   2.289   2.206   0.829
 1305TIP3   OH2 3878   0.743   3.860   2.256
 1305TIP3    H1 3879   0.756   3.765   2.260
 1305TIP3    H2 3880   0.784   3.894   2.336
 1306TIP3   OH2 3881   5.056   3.929   2.664
 1306TIP3    H1 3882   5.098   3.870   2.726
 1306TIP3    H2 3883   5.048   4.012   2.711
 1307TIP3   OH2 3884   0.378   6.237   0.541
 1307TIP3    H1 3885   0.314   6.270   0.605
 1307TIP3    H2 3886   0.394   6.147   0.568
 1308TIP3   OH2 3887   5.625   1.932   3.428
 1308TIP3    H1 3888   5.534   1.909   3.450
 1308TIP3    H2 3889   5.675   1.906   3.505
 1309TIP3   OH2 3890   4.351   0.050   4.717
 1309TIP3    H1 3891   4.273   0.048   4.661
 1309TIP3    H2 3892   4.401   0.126   4.686
 1310TIP3   OH2 3893   5.843   5.692   4.428
 1310TIP3    H1 3894   5.864   5.777   4.389
 1310TIP3    H2 3895   5.774   5.711   4.492
 1311TIP3   OH2 3896   0.767   1.305   4.310
 1311TIP3    H1 3897   0.760   1.257   4.227
 1311TIP3    H2 3898   0.818   1.247   4.366
 1312TIP3   OH2 3899   2.302   3.718   4.627
 1312TIP3    H1 3900   2.311   3.737   4.534
 1312TIP3    H2 3901   2.208   3.721   4.644
 1313TIP3   OH2 3902   7.105   1.880   0.694
 1313TIP3    H1 3903   7.179   1.827   0.722
 1313TIP3    H2 3904   7.111   1.960   0.747
 1314TIP3   OH2 3905   6.006   1.289   4.902
 1314TIP3    H1 3906   6.028   1.383   4.907
 1314TIP3    H2 3907   6.016   1.267   4.810
 1315TIP3   OH2 3908   6.524   5.511   4.878
 1315TIP3    H1 3909   6.549   5.424   4.910
 1315TIP3    H2 3910   6.485   5.554   4.954
 1316TIP3   OH2 3911   1.324   4.925   1.528
 1316TIP3    H1 3912   1.400   4.936   1.585
 1316TIP3    H2 3913   1.253   4.968   1.575
 1317TIP3   OH2 3914   5.511   2.679   1.514
 1317TIP3    H1 3915   5.574   2.610   1.490
 1317TIP3    H2 3916   5.540   2.756   1.465
 1318TIP3   OH2 3917   6.594   0.687   1.657
 1318TIP3    H1 3918   6.527   0.755   1.662
 1318TIP3    H2 3919   6.677   0.735   1.657
 1319TIP3   OH2 3920   0.472   6.689   2.271
 1319TIP3    H1 3921   0.402   6.754   2.281
 1319TIP3    H2 3922   0.440   6.613   2.320
 1320TIP3   OH2 3923   1.615   4.881   0.571
 1320TIP3    H1 3924   1.612   4.905   0.664
 1320TIP3    H2 3925   1.692   4.824   0.564
 1321TIP3   OH2 3926   4.185   4.447   0.275
 1321TIP3    H1 3927   4.255   4.493   0.320
 1321TIP3    H2 3928   4.156   4.381   0.339
 1322TIP3   OH2 3929   5.582   4.795   0.641
 1322TIP3    H1 3930   5.668   4.789   0.599
 1322TIP3    H2 3931   5.532   4.723   0.604
 1323TIP3   OH2 3932   4.231   1.656   4.560
 1323TIP3    H1 3933   4.221   1.747   4.531
 1323TIP3    H2 3934   4.235   1.663   4.656
 1324TIP3   OH2 3935   6.832   3.236   5.011
 1324TIP3    H1 3936   6.812   3.298   4.941
 1324TIP3    H2 3937   6.854   3.291   5.086
 1325TIP3   OH2 3938   1.528   1.261   3.571
 1325TIP3    H1 3939   1.550   1.177   3.611
 1325TIP3    H2 3940   1.530   1.244   3.477
 1326TIP3   OH2 3941   6.866   4.624   2.797
 1326TIP3    H1 3942   6.958   4.645   2.780
 1326TIP3    H2 3943   6.821   4.708   2.795
 1327TIP3   OH2 3944   4.428   6.341   0.436
 1327TIP3    H1 3945   4.470   6.268   0.482
 1327TIP3    H2 3946   4.478   6.418   0.464
 1328TIP3   OH2 3947   0.763   3.637   0.280
 1328TIP3    H1 3948   0.819   3.576   0.232
 1328TIP3    H2 3949   0.739   3.704   0.215
 1329TIP3   OH2 3950   5.937   0.415   3.197
 1329TIP3    H1 3951   6.029   0.434   3.216
 1329TIP3    H2 3952   5.888   0.471   3.257
 1330TIP3   OH2 3953   2.321   6.271   4.164
 1330TIP3    H1 3954   2.367   6.201   4.211
 1330TIP3    H2 3955   2.373   6.349   4.181
 1331TIP3   OH2 3956  -0.004   2.180   3.176
 1331TIP3    H1 3957   0.026   2.173   3.266
 1331TIP3    H2 3958   0.075   2.201   3.126
 1332TIP3   OH2 3959   0.732   2.482   1.070
 1332TIP3    H1 3960   0.724   2.577   1.063
 1332TIP3    H2 3961   0.664   2.457   1.134
 1333TIP3   OH2 3962   2.975   2.938   5.463
 1333TIP3    H1 3963   2.955   2.910   5.373
 1333TIP3    H2 3964   2.892   2.975   5.495
 1334TIP3   OH2 3965   2.931   1.618   3.756
 1334TIP3    H1 3966   2.851   1.662   3.784
 1334TIP3    H2 3967   2.993   1.633   3.828
 1335TIP3   OH2 3968   3.026   6.693   1.578
 1335TIP3    H1 3969   3.111   6.676   1.618
 1335TIP3    H2 3970   3.038   6.672   1.485
 1336TIP3   OH2 3971   5.233   1.565   0.442
 1336TIP3    H1 3972   5.324   1.554   0.469
 1336TIP3    H2 3973   5.205   1.646   0.486
 1337TIP3   OH2 3974   4.814   6.503   5.708
 1337TIP3    H1 3975   4.719   6.503   5.720
 1337TIP3    H2 3976   4.841   6.591   5.734
 1338TIP3   OH2 3977   6.890   0.875   5.667
 1338TIP3    H1 3978   6.922   0.943   5.609
 1338TIP3    H2 3979   6.933   0.795   5.637
 1339TIP3   OH2 3980   0.641   1.096   2.977
 1339TIP3    H1 3981   0.550   1.102   3.007
 1339TIP3    H2 3982   0.672   1.186   2.975
 1340TIP3   OH2 3983   2.112   4.893   2.614
 1340TIP3    H1 3984   2.192   4.888   2.563
 1340TIP3    H2 3985   2.110   4.982   2.649
 1341TIP3   OH2 3986   1.663   0.441   1.637
 1341TIP3    H1 3987   1.748   0.398   1.629
 1341TIP3    H2 3988   1.607   0.376   1.679
 1342TIP3   OH2 3989   3.158   3.088   2.336
 1342TIP3    H1 3990   3.236   3.134   2.368
 1342TIP3    H2 3991   3.147   3.015   2.398
 1343TIP3   OH2 3992   0.323   4.542   2.800
 1343TIP3    H1 3993   0.407   4.559   2.757
 1343TIP3    H2 3994   0.335   4.575   2.889
 1344TIP3   OH2 3995   5.533   0.264   0.795
 1344TIP3    H1 3996   5.506   0.318   0.721
 1344TIP3    H2 3997   5.618   0.299   0.820
 1345TIP3   OH2 3998   0.685   5.509   4.696
 1345TIP3    H1 3999   0.650   5.515   4.608
 1345TIP3    H2 4000   0.717   5.598   4.715
 1346TIP3   OH2 4001   6.670   1.540   0.850
 1346TIP3    H1 4002   6.594   1.503   0.805
 1346TIP3    H2 4003   6.636   1.617   0.896
 1347TIP3   OH2 4004   3.760   2.673   1.093
 1347TIP3    H1 4005   3.794   2.629   1.015
 1347TIP3    H2 4006   3.707   2.745   1.059
 1348TIP3   OH2 4007   1.845   0.830   2.391
 1348TIP3    H1 4008   1.811   0.898   2.449
 1348TIP3    H2 4009   1.879   0.763   2.450
 1349TIP3   OH2 4010   4.599   2.422   4.770
 1349TIP3    H1 4011   4.546   2.489   4.813
 1349TIP3    H2 4012   4.579   2.431   4.677
 1350TIP3   OH2 4013   4.354   4.844   3.356
 1350TIP3    H1 4014   4.260   4.839   3.374
 1350TIP3    H2 4015   4.366   4.930   3.316
 1351TIP3   OH2 4016   5.281   0.504   0.406
 1351TIP3    H1 4017   5.223   0.432   0.382
 1351TIP3    H2 4018   5.229   0.583   0.390
 1352TIP3   OH2 4019   3.645   0.329   3.831
 1352TIP3    H1 4020   3.663   0.419   3.805
 1352TIP3    H2 4021   3.601   0.290   3.756
 1353TIP3   OH2 4022   4.367   6.395   4.380
 1353TIP3    H1 4023   4.291   6.387   4.322
 1353TIP3    H2 4024   4.386   6.305   4.406
 1354TIP3   OH2 4025   1.353   1.293   2.748
 1354TIP3    H1 4026   1.421   1.234   2.781
 1354TIP3    H2 4027   1.375   1.306   2.656
 1355TIP3   OH2 4028   3.225   2.452   0.668
 1355TIP3    H1 4029   3.290   2.434   0.736
 1355TIP3    H2 4030   3.272   2.502   0.602
 1356TIP3   OH2 4031   1.625   1.180   1.388
 1356TIP3    H1 4032   1.656   1.174   1.478
 1356TIP3    H2 4033   1.688   1.237   1.344
 1357TIP3   OH2 4034   4.418   1.819   2.702
 1357TIP3    H1 4035   4.482   1.868   2.753
 1357TIP3    H2 4036   4.403   1.872   2.624
 1358TIP3   OH2 4037   4.224   1.958   2.257
 1358TIP3    H1 4038   4.315   1.981   2.239
 1358TIP3    H2 4039   4.205   1.997   2.342
 1359TIP3   OH2 4040   6.156   0.872   3.115
 1359TIP3    H1 4041   6.069   0.904   3.089
 1359TIP3    H2 4042   6.159   0.886   3.210
 1360TIP3   OH2 4043   1.249   2.468   0.252
 1360TIP3    H1 4044   1.306   2.537   0.285
 1360TIP3    H2 4045   1.184   2.514   0.199
 1361TIP3   OH2 4046   1.362   2.497   1.859
 1361TIP3    H1 4047   1.396   2.498   1.769
 1361TIP3    H2 4048   1.411   2.426   1.902
 1362TIP3   OH2 4049   6.769   0.497   1.297
 1362TIP3    H1 4050   6.691   0.484   1.242
 1362TIP3    H2 4051   6.784   0.592   1.294
 1363TIP3   OH2 4052   2.131   4.089   4.953
 1363TIP3    H1 4053   2.166   4.171   4.918
 1363TIP3    H2 4054   2.165   4.085   5.042
 1364TIP3   OH2 4055   3.595   5.261   1.191
 1364TIP3    H1 4056   3.674   5.294   1.148
 1364TIP3    H2 4057   3.624   5.240   1.280
 1365TIP3   OH2 4058   4.405   4.080   4.853
 1365TIP3    H1 4059   4.398   4.011   4.787
 1365TIP3    H2 4060   4.444   4.037   4.929
 1366TIP3   OH2 4061   3.059   0.328   1.175
 1366TIP3    H1 4062   3.073   0.246   1.127
 1366TIP3    H2 4063   3.129   0.386   1.144
 1367TIP3   OH2 4064   4.549   0.237   0.721
 1367TIP3    H1 4065   4.531   0.328   0.745
 1367TIP3    H2 4066   4.616   0.209   0.783
 1368TIP3   OH2 4067   6.840   3.546   1.703
 1368TIP3    H1 4068   6.796   3.466   1.675
 1368TIP3    H2 4069   6.910   3.515   1.761
 1369TIP3   OH2 4070   5.015   2.774   2.051
 1369TIP3    H1 4071   4.955   2.840   2.086
 1369TIP3    H2 4072   5.080   2.825   2.002
 1370TIP3   OH2 4073   7.042   0.746   0.657
 1370TIP3    H1 4074   6.984   0.689   0.606
 1370TIP3    H2 4075   7.126   0.743   0.611
 1371TIP3   OH2 4076   1.486   6.120   3.859
 1371TIP3    H1 4077   1.561   6.171   3.827
 1371TIP3    H2 4078   1.471   6.153   3.947
 1372TIP3   OH2 4079   0.986   2.024   2.655
 1372TIP3    H1 4080   0.972   1.986   2.741
 1372TIP3    H2 4081   1.043   1.962   2.610
 1373TIP3   OH2 4082   4.018   0.686   1.518
 1373TIP3    H1 4083   4.007   0.727   1.604
 1373TIP3    H2 4084   3.957   0.732   1.461
 1374TIP3   OH2 4085   6.829   5.019   5.664
 1374TIP3    H1 4086   6.753   5.050   5.713
 1374TIP3    H2 4087   6.855   5.093   5.610
 1375TIP3   OH2 4088   0.648   1.233   4.000
 1375TIP3    H1 4089   0.712   1.298   3.970
 1375TIP3    H2 4090   0.576   1.285   4.035
 1376TIP3   OH2 4091   1.185   4.377   2.977
 1376TIP3    H1 4092   1.099   4.379   3.019
 1376TIP3    H2 4093   1.167   4.356   2.886
 1377TIP3   OH2 4094   3.880   2.456   1.430
 1377TIP3    H1 4095   3.964   2.412   1.442
 1377TIP3    H2 4096   3.874   2.519   1.502
 1378TIP3   OH2 4097   3.421   5.210   0.632
 1378TIP3    H1 4098   3.455   5.152   0.564
 1378TIP3    H2 4099   3.431   5.298   0.595
 1379TIP3   OH2 4100   0.745   3.782   5.241
 1379TIP3    H1 4101   0.840   3.794   5.245
 1379TIP3    H2 4102   0.724   3.734   5.321
 1380TIP3   OH2 4103   2.134   2.678   3.371
 1380TIP3    H1 4104   2.173   2.688   3.283
 1380TIP3    H2 4105   2.153   2.587   3.394
 1381TIP3   OH2 4106   2.553   0.226   1.314
 1381TIP3    H1 4107   2.458   0.227   1.331
 1381TIP3    H2 4108   2.588   0.171   1.384
 1382TIP3   OH2 4109   5.325   0.836   2.383
 1382TIP3    H1 4110   5.243   0.788   2.381
 1382TIP3    H2 4111   5.393   0.769   2.389
 1383TIP3   OH2 4112   4.838   1.131   5.455
 1383TIP3    H1 4113   4.792   1.177   5.386
 1383TIP3    H2 4114   4.769   1.098   5.513
 1384TIP3   OH2 4115   2.490   0.380   1.978
 1384TIP3    H1 4116   2.427   0.444   1.943
 1384TIP3    H2 4117   2.502   0.317   1.906
 1385TIP3   OH2 4118   6.658   1.256   4.461
 1385TIP3    H1 4119   6.704   1.267   4.377
 1385TIP3    H2 4120   6.721   1.283   4.527
 1386TIP3   OH2 4121   4.107   2.390   2.446
 1386TIP3    H1 4122   4.192   2.417   2.412
 1386TIP3    H2 4123   4.060   2.472   2.462
 1387TIP3   OH2 4124   5.808   3.731   1.049
 1387TIP3    H1 4125   5.901   3.755   1.053
 1387TIP3    H2 4126   5.799   3.659   1.112
 1388TIP3   OH2 4127   1.601   0.084   5.606
 1388TIP3    H1 4128   1.593   0.029   5.684
 1388TIP3    H2 4129   1.532   0.149   5.615
 1389TIP3   OH2 4130   0.975   0.323   2.673
 1389TIP3    H1 4131   0.998   0.330   2.580
 1389TIP3    H2 4132   0.882   0.347   2.676
 1390TIP3   OH2 4133   6.594   5.101   5.794
 1390TIP3    H1 4134   6.575   5.007   5.791
 1390TIP3    H2 4135   6.544   5.137   5.720
 1391TIP3   OH2 4136   0.016   4.924   2.367
 1391TIP3    H1 4137   0.060   4.936   2.451
 1391TIP3    H2 4138   0.074   4.964   2.303
 1392TIP3   OH2 4139   4.186   2.365   0.416
 1392TIP3    H1 4140   4.227   2.400   0.337
 1392TIP3    H2 4141   4.176   2.271   0.399
 1393TIP3   OH2 4142   1.428   3.635   1.383
 1393TIP3    H1 4143   1.478   3.623   1.302
 1393TIP3    H2 4144   1.455   3.563   1.439
 1394TIP3   OH2 4145   5.484   0.738   4.768
 1394TIP3    H1 4146   5.563   0.790   4.759
 1394TIP3    H2 4147   5.515   0.648   4.775
 1395TIP3   OH2 4148   7.180   3.174   5.608
 1395TIP3    H1 4149   7.129   3.250   5.579
 1395TIP3    H2 4150   7.114   3.106   5.624
 1396TIP3   OH2 4151   1.830   2.483   3.498
 1396TIP3    H1 4152   1.780   2.443   3.570
 1396TIP3    H2 4153   1.843   2.411   3.436
 1397TIP3   OH2 4154   6.938   5.313   2.959
 1397TIP3    H1 4155   6.928   5.223   2.927
 1397TIP3    H2 4156   7.015   5.346   2.913
 1398TIP3   OH2 4157   5.604   0.103   1.005
 1398TIP3    H1 4158   5.577   0.163   0.935
 1398TIP3    H2 4159   5.667   0.153   1.056
 1399TIP3   OH2 4160   5.727   5.016   0.786
 1399TIP3    H1 4161   5.692   4.940   0.740
 1399TIP3    H2 4162   5.738   4.986   0.876
 1400TIP3   OH2 4163   5.927   4.996   2.323
 1400TIP3    H1 4164   5.869   5.063   2.357
 1400TIP3    H2 4165   5.902   4.916   2.368
 1401TIP3   OH2 4166   3.144   1.740   4.416
 1401TIP3    H1 4167   3.094   1.820   4.432
 1401TIP3    H2 4168   3.233   1.770   4.398
 1402TIP3   OH2 4169   4.696   3.858   4.359
 1402TIP3    H1 4170   4.648   3.940   4.369
 1402TIP3    H2 4171   4.637   3.802   4.308
 1403TIP3   OH2 4172   7.039   3.797   4.420
 1403TIP3    H1 4173   7.107   3.862   4.406
 1403TIP3    H2 4174   6.961   3.847   4.440
 1404TIP3   OH2 4175   1.313   3.380   2.658
 1404TIP3    H1 4176   1.326   3.288   2.637
 1404TIP3    H2 4177   1.243   3.381   2.723
 1405TIP3   OH2 4178   6.310   2.975   1.272
 1405TIP3    H1 4179   6.261   3.046   1.230
 1405TIP3    H2 4180   6.275   2.971   1.361
 1406TIP3   OH2 4181   5.161   5.949   4.003
 1406TIP3    H1 4182   5.140   5.861   3.974
 1406TIP3    H2 4183   5.112   5.960   4.084
 1407TIP3   OH2 4184   0.809   0.809   4.611
 1407TIP3    H1 4185   0.736   0.871   4.607
 1407TIP3    H2 4186   0.786   0.742   4.546
 1408TIP3   OH2 4187   4.836   3.308   4.739
 1408TIP3    H1 4188   4.764   3.290   4.800
 1408TIP3    H2 4189   4.849   3.403   4.745
 1409TIP3   OH2 4190   5.394   5.305   2.359
 1409TIP3    H1 4191   5.455   5.325   2.431
 1409TIP3    H2 4192   5.374   5.390   2.321
 1410TIP3   OH2 4193   0.651   4.018   3.992
 1410TIP3    H1 4194   0.743   4.016   4.017
 1410TIP3    H2 4195   0.618   3.931   4.017
 1411TIP3   OH2 4196   6.599   0.695   2.711
 1411TIP3    H1 4197   6.524   0.658   2.758
 1411TIP3    H2 4198   6.669   0.699   2.775
 1412TIP3   OH2 4199   4.136   5.517   0.136
 1412TIP3    H1 4200   4.092   5.526   0.051
 1412TIP3    H2 4201   4.069   5.541   0.200
 1413TIP3   OH2 4202   4.824   6.516   0.233
 1413TIP3    H1 4203   4.865   6.476   0.156
 1413TIP3    H2 4204   4.896   6.564   0.275
 1414TIP3   OH2 4205   0.582   0.849   2.228
 1414TIP3    H1 4206   0.518   0.846   2.157
 1414TIP3    H2 4207   0.667   0.854   2.184
 1415TIP3   OH2 4208   2.929   3.123   3.530
 1415TIP3    H1 4209   2.854   3.104   3.474
 1415TIP3    H2 4210   2.892   3.164   3.608
 1416TIP3   OH2 4211   4.994   0.503   2.038
 1416TIP3    H1 4212   4.910   0.481   2.078
 1416TIP3    H2 4213   4.990   0.462   1.951
 1417TIP3   OH2 4214   2.979   4.544   0.808
 1417TIP3    H1 4215   2.952   4.517   0.721
 1417TIP3    H2 4216   2.922   4.617   0.831
 1418TIP3   OH2 4217   0.367   1.248   0.042
 1418TIP3    H1 4218   0.348   1.293   0.125
 1418TIP3    H2 4219   0.452   1.282   0.015
 1419TIP3   OH2 4220   1.326   1.810   2.832
 1419TIP3    H1 4221   1.308   1.749   2.761
 1419TIP3    H2 4222   1.339   1.754   2.909
 1420TIP3   OH2 4223   2.126   0.150   1.504
 1420TIP3    H1 4224   2.034   0.142   1.480
 1420TIP3    H2 4225   2.127   0.146   1.599
 1421TIP3   OH2 4226   2.588   5.601   2.589
 1421TIP3    H1 4227   2.586   5.564   2.677
 1421TIP3    H2 4228   2.559   5.691   2.600
 1422TIP3   OH2 4229   3.392   5.101   4.985
 1422TIP3    H1 4230   3.461   5.120   4.921
 1422TIP3    H2 4231   3.389   5.006   4.989
 1423TIP3   OH2 4232   7.217   4.973   4.346
 1423TIP3    H1 4233   7.139   5.009   4.388
 1423TIP3    H2 4234   7.258   4.918   4.413
 1424TIP3   OH2 4235   4.438   2.659   1.212
 1424TIP3    H1 4236   4.496   2.635   1.285
 1424TIP3    H2 4237   4.410   2.748   1.232
 1425TIP3   OH2 4238   6.011   6.235   5.338
 1425TIP3    H1 4239   6.001   6.141   5.325
 1425TIP3    H2 4240   6.055   6.242   5.423
 1426TIP3   OH2 4241   0.043   1.402   4.329
 1426TIP3    H1 4242   0.124   1.372   4.371
 1426TIP3    H2 4243  -0.022   1.402   4.399
 1427TIP3   OH2 4244   7.073   4.427   3.237
 1427TIP3    H1 4245   7.066   4.407   3.331
 1427TIP3    H2 4246   7.144   4.370   3.206
 1428TIP3   OH2 4247   0.535   5.534   0.046
 1428TIP3    H1 4248   0.450   5.558   0.008
 1428TIP3    H2 4249   0.554   5.606   0.107
 1429TIP3   OH2 4250   4.133   0.356   5.157
 1429TIP3    H1 4251   4.162   0.345   5.066
 1429TIP3    H2 4252   4.155   0.274   5.200
 1430TIP3   OH2 4253   0.407   1.709   3.541
 1430TIP3    H1 4254   0.494   1.707   3.581
 1430TIP3    H2 4255   0.412   1.646   3.469
 1431TIP3   OH2 4256   4.605   0.215   4.652
 1431TIP3    H1 4257   4.669   0.143   4.648
 1431TIP3    H2 4258   4.632   0.267   4.728
 1432TIP3   OH2 4259   4.090   3.913   5.072
 1432TIP3    H1 4260   4.092   3.946   4.982
 1432TIP3    H2 4261   4.121   3.823   5.065
 1433TIP3   OH2 4262   0.481   0.788   0.769
 1433TIP3    H1 4263   0.573   0.778   0.744
 1433TIP3    H2 4264   0.434   0.730   0.709
 1434TIP3   OH2 4265   2.823   1.541   2.110
 1434TIP3    H1 4266   2.799   1.473   2.173
 1434TIP3    H2 4267   2.822   1.622   2.161
 1435TIP3   OH2 4268   4.760   2.026   0.259
 1435TIP3    H1 4269   4.735   2.092   0.324
 1435TIP3    H2 4270   4.855   2.032   0.254
 1436TIP3   OH2 4271   2.088   5.926   0.766
 1436TIP3    H1 4272   2.182   5.921   0.784
 1436TIP3    H2 4273   2.055   5.838   0.784
 1437TIP3   OH2 4274   5.126   6.469   2.551
 1437TIP3    H1 4275   5.065   6.395   2.551
 1437TIP3    H2 4276   5.211   6.430   2.570
 1438TIP3   OH2 4277   1.071   2.421   4.656
 1438TIP3    H1 4278   1.050   2.506   4.693
 1438TIP3    H2 4279   1.003   2.406   4.590
 1439TIP3   OH2 4280   2.857   3.157   5.604
 1439TIP3    H1 4281   2.848   3.198   5.690
 1439TIP3    H2 4282   2.915   3.216   5.555
 1440TIP3   OH2 4283   4.534   6.573   1.783
 1440TIP3    H1 4284   4.487   6.602   1.704
 1440TIP3    H2 4285   4.595   6.506   1.751
 1441TIP3   OH2 4286   3.200   5.558   3.931
 1441TIP3    H1 4287   3.187   5.569   4.025
 1441TIP3    H2 4288   3.181   5.465   3.915
 1442TIP3   OH2 4289   1.288   1.059   3.841
 1442TIP3    H1 4290   1.380   1.048   3.817
 1442TIP3    H2 4291   1.256   1.126   3.781
 1443TIP3   OH2 4292   0.540   3.945   5.164
 1443TIP3    H1 4293   0.479   3.890   5.213
 1443TIP3    H2 4294   0.616   3.889   5.149
 1444TIP3   OH2 4295   3.190   0.614   5.352
 1444TIP3    H1 4296   3.139   0.563   5.414
 1444TIP3    H2 4297   3.266   0.644   5.402
 1445TIP3   OH2 4298   4.992   1.125   3.705
 1445TIP3    H1 4299   5.085   1.109   3.723
 1445TIP3    H2 4300   4.953   1.136   3.792
 1446TIP3   OH2 4301   5.801   4.694   5.345
 1446TIP3    H1 4302   5.833   4.604   5.338
 1446TIP3    H2 4303   5.799   4.725   5.255
 1447TIP3   OH2 4304   5.183   5.344   5.697
 1447TIP3    H1 4305   5.132   5.286   5.753
 1447TIP3    H2 4306   5.229   5.402   5.758
 1448TIP3   OH2 4307   4.883   1.017   4.828
 1448TIP3    H1 4308   4.845   0.945   4.779
 1448TIP3    H2 4309   4.809   1.055   4.876
 1449TIP3   OH2 4310   1.244   2.085   5.259
 1449TIP3    H1 4311   1.176   2.020   5.274
 1449TIP3    H2 4312   1.211   2.137   5.185
 1450TIP3   OH2 4313   4.375   3.107   1.736
 1450TIP3    H1 4314   4.449   3.145   1.785
 1450TIP3    H2 4315   4.300   3.159   1.764
 1451TIP3   OH2 4316   4.682   3.100   4.270
 1451TIP3    H1 4317   4.708   3.158   4.341
 1451TIP3    H2 4318   4.638   3.027   4.313
 1452TIP3   OH2 4319   0.645   4.380   5.232
 1452TIP3    H1 4320   0.641   4.334   5.148
 1452TIP3    H2 4321   0.628   4.313   5.298
 1453TIP3   OH2 4322   1.910   6.608   3.577
 1453TIP3    H1 4323   1.925   6.641   3.666
 1453TIP3    H2 4324   1.925   6.685   3.521
 1454TIP3   OH2 4325   5.395   5.090   2.605
 1454TIP3    H1 4326   5.483   5.052   2.612
 1454TIP3    H2 4327   5.343   5.022   2.563
 1455TIP3   OH2 4328   0.683   4.021   0.279
 1455TIP3    H1 4329   0.643   3.992   0.362
 1455TIP3    H2 4330   0.770   4.051   0.304
 1456TIP3   OH2 4331   2.133   1.195   5.696
 1456TIP3    H1 4332   2.143   1.176   5.789
 1456TIP3    H2 4333   2.041   1.218   5.686
 1457TIP3   OH2 4334   6.794   4.952   5.285
 1457TIP3    H1 4335   6.835   4.873   5.320
 1457TIP3    H2 4336   6.765   4.927   5.197
 1458TIP3   OH2 4337   0.855   0.752   3.949
 1458TIP3    H1 4338   0.804   0.832   3.956
 1458TIP3    H2 4339   0.899   0.758   3.864
 1459TIP3   OH2 4340   1.914   2.400   3.047
 1459TIP3    H1 4341   1.835   2.453   3.048
 1459TIP3    H2 4342   1.985   2.463   3.036
 1460TIP3   OH2 4343   5.544   0.790   4.308
 1460TIP3    H1 4344   5.560   0.865   4.250
 1460TIP3    H2 4345   5.456   0.807   4.343
 1461TIP3   OH2 4346   4.759   6.443   3.386
 1461TIP3    H1 4347   4.734   6.357   3.420
 1461TIP3    H2 4348   4.853   6.437   3.373
 1462TIP3   OH2 4349   0.981   4.109   4.071
 1462TIP3    H1 4350   0.914   4.164   4.111
 1462TIP3    H2 4351   0.948   4.020   4.083
 1463TIP3   OH2 4352   2.452   3.055   5.832
 1463TIP3    H1 4353   2.423   3.144   5.851
 1463TIP3    H2 4354   2.481   3.058   5.741
 1464TIP3   OH2 4355   1.429   3.661   4.447
 1464TIP3    H1 4356   1.481   3.683   4.524
 1464TIP3    H2 4357   1.349   3.623   4.482
 1465TIP3   OH2 4358   6.737   3.136   5.782
 1465TIP3    H1 4359   6.648   3.146   5.816
 1465TIP3    H2 4360   6.761   3.223   5.751
 1466TIP3   OH2 4361   3.985   1.738   2.868
 1466TIP3    H1 4362   4.074   1.773   2.868
 1466TIP3    H2 4363   3.989   1.663   2.928
 1467TIP3   OH2 4364   2.431   0.464   2.643
 1467TIP3    H1 4365   2.438   0.516   2.563
 1467TIP3    H2 4366   2.370   0.512   2.699
 1468TIP3   OH2 4367   1.634   3.142   0.367
 1468TIP3    H1 4368   1.678   3.167   0.286
 1468TIP3    H2 4369   1.675   3.196   0.434
 1469TIP3   OH2 4370   6.340   2.335   1.304
 1469TIP3    H1 4371   6.426   2.328   1.262
 1469TIP3    H2 4372   6.357   2.380   1.386
 1470TIP3   OH2 4373   4.209   4.138   4.248
 1470TIP3    H1 4374   4.213   4.172   4.338
 1470TIP3    H2 4375   4.282   4.180   4.203
 1471TIP3   OH2 4376   4.687   5.545   1.152
 1471TIP3    H1 4377   4.704   5.513   1.241
 1471TIP3    H2 4378   4.591   5.553   1.148
 1472TIP3   OH2 4379   0.951   6.692   1.628
 1472TIP3    H1 4380   1.014   6.659   1.692
 1472TIP3    H2 4381   0.918   6.773   1.667
 1473TIP3   OH2 4382   4.611   1.104   2.138
 1473TIP3    H1 4383   4.547   1.100   2.209
 1473TIP3    H2 4384   4.573   1.165   2.074
 1474TIP3   OH2 4385   4.618   1.189   3.542
 1474TIP3    H1 4386   4.651   1.122   3.601
 1474TIP3    H2 4387   4.523   1.181   3.546
 1475TIP3   OH2 4388   3.629   1.062   2.256
 1475TIP3    H1 4389   3.633   1.001   2.182
 1475TIP3    H2 4390   3.704   1.119   2.245
 1476TIP3   OH2 4391   2.261   1.413   3.583
 1476TIP3    H1 4392   2.340   1.393   3.633
 1476TIP3    H2 4393   2.257   1.344   3.517
 1477TIP3   OH2 4394   5.167   3.354   1.540
 1477TIP3    H1 4395   5.181   3.356   1.634
 1477TIP3    H2 4396   5.230   3.416   1.504
 1478TIP3   OH2 4397   6.802   1.568   0.224
 1478TIP3    H1 4398   6.860   1.500   0.258
 1478TIP3    H2 4399   6.727   1.520   0.189
 1479TIP3   OH2 4400   6.115   2.076   2.632
 1479TIP3    H1 4401   6.057   2.082   2.556
 1479TIP3    H2 4402   6.122   1.983   2.650
 1480TIP3   OH2 4403   1.244   3.244   2.984
 1480TIP3    H1 4404   1.192   3.323   3.000
 1480TIP3    H2 4405   1.189   3.191   2.926
 1481TIP3   OH2 4406   2.723   5.528   4.579
 1481TIP3    H1 4407   2.744   5.540   4.671
 1481TIP3    H2 4408   2.660   5.598   4.560
 1482TIP3   OH2 4409   4.157   1.699   1.564
 1482TIP3    H1 4410   4.111   1.666   1.642
 1482TIP3    H2 4411   4.100   1.675   1.491
 1483TIP3   OH2 4412   6.229   0.205   0.828
 1483TIP3    H1 4413   6.223   0.140   0.757
 1483TIP3    H2 4414   6.274   0.279   0.788
 1484TIP3   OH2 4415   5.680   0.429   1.805
 1484TIP3    H1 4416   5.597   0.443   1.761
 1484TIP3    H2 4417   5.679   0.338   1.833
 1485TIP3   OH2 4418   2.512   1.960   0.901
 1485TIP3    H1 4419   2.538   2.006   0.980
 1485TIP3    H2 4420   2.429   2.001   0.876
 1486TIP3   OH2 4421   6.825   2.301   1.286
 1486TIP3    H1 4422   6.784   2.376   1.327
 1486TIP3    H2 4423   6.908   2.290   1.332
 1487TIP3   OH2 4424   0.780   0.981   1.398
 1487TIP3    H1 4425   0.772   1.062   1.449
 1487TIP3    H2 4426   0.729   0.998   1.318
 1488TIP3   OH2 4427   4.208   1.142   1.840
 1488TIP3    H1 4428   4.128   1.180   1.804
 1488TIP3    H2 4429   4.181   1.056   1.872
 1489TIP3   OH2 4430   1.362   1.352   3.043
 1489TIP3    H1 4431   1.423   1.326   2.974
 1489TIP3    H2 4432   1.373   1.446   3.051
 1490TIP3   OH2 4433   4.251   6.409   2.471
 1490TIP3    H1 4434   4.195   6.468   2.522
 1490TIP3    H2 4435   4.191   6.346   2.432
 1491TIP3   OH2 4436   6.772   3.670   2.677
 1491TIP3    H1 4437   6.720   3.731   2.624
 1491TIP3    H2 4438   6.779   3.591   2.623
 1492TIP3   OH2 4439   5.271   1.040   4.261
 1492TIP3    H1 4440   5.303   1.097   4.331
 1492TIP3    H2 4441   5.202   1.091   4.218
 1493TIP3   OH2 4442   1.137   3.901   0.448
 1493TIP3    H1 4443   1.121   3.957   0.524
 1493TIP3    H2 4444   1.224   3.926   0.418
 1494TIP3   OH2 4445   1.949   0.495   1.704
 1494TIP3    H1 4446   1.969   0.578   1.661
 1494TIP3    H2 4447   2.025   0.478   1.759
 1495TIP3   OH2 4448   2.253   5.915   5.342
 1495TIP3    H1 4449   2.247   6.005   5.312
 1495TIP3    H2 4450   2.253   5.863   5.262
 1496TIP3   OH2 4451   2.733   4.716   3.956
 1496TIP3    H1 4452   2.773   4.677   3.878
 1496TIP3    H2 4453   2.649   4.671   3.965
 1497TIP3   OH2 4454   3.415   1.786   4.460
 1497TIP3    H1 4455   3.455   1.740   4.534
 1497TIP3    H2 4456   3.365   1.857   4.500
 1498TIP3   OH2 4457   7.242   3.290   2.708
 1498TIP3    H1 4458   7.203   3.261   2.790
 1498TIP3    H2 4459   7.169   3.322   2.656
 1499TIP3   OH2 4460   5.348   2.934   1.614
 1499TIP3    H1 4461   5.278   2.869   1.603
 1499TIP3    H2 4462   5.426   2.882   1.630
 1500TIP3   OH2 4463   5.958   5.541   5.901
 1500TIP3    H1 4464   5.973   5.461   5.850
 1500TIP3    H2 4465   5.915   5.601   5.840
 1501TIP3   OH2 4466   6.116   4.361   1.729
 1501TIP3    H1 4467   6.099   4.434   1.788
 1501TIP3    H2 4468   6.135   4.287   1.786
 1502TIP3   OH2 4469   6.925   3.121   1.333
 1502TIP3    H1 4470   6.928   3.216   1.341
 1502TIP3    H2 4471   6.961   3.104   1.245
 1503TIP3   OH2 4472   5.065   6.586   4.492
 1503TIP3    H1 4473   5.097   6.651   4.428
 1503TIP3    H2 4474   5.075   6.502   4.447
 1504TIP3   OH2 4475   2.682   3.626   0.700
 1504TIP3    H1 4476   2.635   3.690   0.752
 1504TIP3    H2 4477   2.760   3.672   0.669
 1505TIP3   OH2 4478   3.337   4.761   2.267
 1505TIP3    H1 4479   3.369   4.729   2.183
 1505TIP3    H2 4480   3.339   4.856   2.259
 1506TIP3   OH2 4481   3.757   2.245   2.086
 1506TIP3    H1 4482   3.787   2.261   1.997
 1506TIP3    H2 4483   3.750   2.333   2.125
 1507TIP3   OH2 4484   2.497   6.491   4.170
 1507TIP3    H1 4485   2.552   6.520   4.097
 1507TIP3    H2 4486   2.560   6.467   4.239
 1508TIP3   OH2 4487   2.907   4.291   3.600
 1508TIP3    H1 4488   2.889   4.304   3.693
 1508TIP3    H2 4489   2.855   4.214   3.576
 1509TIP3   OH2 4490   4.903   3.927   5.021
 1509TIP3    H1 4491   4.886   3.835   5.000
 1509TIP3    H2 4492   4.853   3.976   4.956
 1510TIP3   OH2 4493   6.758   0.714   1.024
 1510TIP3    H1 4494   6.769   0.676   0.937
 1510TIP3    H2 4495   6.680   0.671   1.059
 1511TIP3   OH2 4496   2.186   4.535   0.411
 1511TIP3    H1 4497   2.257   4.542   0.347
 1511TIP3    H2 4498   2.177   4.624   0.446
 1512TIP3   OH2 4499   3.010   0.990   2.792
 1512TIP3    H1 4500   3.098   0.953   2.793
 1512TIP3    H2 4501   2.970   0.954   2.712
 1513TIP3   OH2 4502   6.635   6.541   5.045
 1513TIP3    H1 4503   6.600   6.628   5.062
 1513TIP3    H2 4504   6.710   6.555   4.988
 1514TIP3   OH2 4505   5.649   2.789   3.607
 1514TIP3    H1 4506   5.651   2.755   3.518
 1514TIP3    H2 4507   5.680   2.717   3.661
 1515TIP3   OH2 4508   6.864   0.302   5.236
 1515TIP3    H1 4509   6.782   0.275   5.276
 1515TIP3    H2 4510   6.922   0.227   5.249
 1516TIP3   OH2 4511   5.279   3.809   5.442
 1516TIP3    H1 4512   5.249   3.879   5.385
 1516TIP3    H2 4513   5.256   3.728   5.395
 1517TIP3   OH2 4514   0.902   4.938   4.153
 1517TIP3    H1 4515   0.880   5.029   4.132
 1517TIP3    H2 4516   0.864   4.887   4.082
 1518TIP3   OH2 4517   0.761   1.575   0.026
 1518TIP3    H1 4518   0.811   1.531   0.094
 1518TIP3    H2 4519   0.678   1.598   0.069
 1519TIP3   OH2 4520   6.663   0.009   1.367
 1519TIP3    H1 4521   6.621   0.071   1.427
 1519TIP3    H2 4522   6.757   0.028   1.376
 1520TIP3   OH2 4523   0.218   0.160   3.539
 1520TIP3    H1 4524   0.125   0.156   3.520
 1520TIP3    H2 4525   0.224   0.146   3.634
 1521TIP3   OH2 4526   0.004   0.718   2.750
 1521TIP3    H1 4527  -0.038   0.670   2.679
 1521TIP3    H2 4528   0.035   0.799   2.709
 1522TIP3   OH2 4529   6.021   6.136   0.033
 1522TIP3    H1 4530   5.962   6.199   0.074
 1522TIP3    H2 4531   5.971   6.054   0.030
 1523TIP3   OH2 4532   2.922   6.328   5.179
 1523TIP3    H1 4533   2.911   6.408   5.128
 1523TIP3    H2 4534   2.998   6.285   5.141
 1524TIP3   OH2 4535   4.826   5.738   3.822
 1524TIP3    H1 4536   4.818   5.809   3.886
 1524TIP3    H2 4537   4.745   5.741   3.771
 1525TIP3   OH2 4538   5.894   2.517   1.805
 1525TIP3    H1 4539   5.849   2.457   1.865
 1525TIP3    H2 4540   5.937   2.460   1.742
 1526TIP3   OH2 4541   3.467   5.473   3.906
 1526TIP3    H1 4542   3.532   5.544   3.911
 1526TIP3    H2 4543   3.385   5.515   3.929
 1527TIP3   OH2 4544   5.280   2.326   1.378
 1527TIP3    H1 4545   5.254   2.344   1.469
 1527TIP3    H2 4546   5.281   2.412   1.336
 1528TIP3   OH2 4547   0.135   4.333   3.333
 1528TIP3    H1 4548   0.208   4.273   3.319
 1528TIP3    H2 4549   0.081   4.290   3.399
 1529TIP3   OH2 4550   2.023   1.633   1.250
 1529TIP3    H1 4551   2.051   1.568   1.315
 1529TIP3    H2 4552   1.944   1.595   1.211
 1530TIP3   OH2 4553   0.929   2.298   5.284
 1530TIP3    H1 4554   0.894   2.230   5.226
 1530TIP3    H2 4555   0.871   2.297   5.360
 1531TIP3   OH2 4556   3.760   2.976   2.568
 1531TIP3    H1 4557   3.693   2.912   2.541
 1531TIP3    H2 4558   3.719   3.023   2.641
 1532TIP3   OH2 4559   0.416   5.601   1.752
 1532TIP3    H1 4560   0.402   5.512   1.784
 1532TIP3    H2 4561   0.420   5.593   1.657
 1533TIP3   OH2 4562   6.759   0.865   3.833
 1533TIP3    H1 4563   6.777   0.771   3.830
 1533TIP3    H2 4564   6.799   0.894   3.915
 1534TIP3   OH2 4565   3.260   5.677   5.510
 1534TIP3    H1 4566   3.277   5.768   5.485
 1534TIP3    H2 4567   3.174   5.679   5.551
 1535TIP3   OH2 4568   2.593   4.199   4.388
 1535TIP3    H1 4569   2.582   4.258   4.463
 1535TIP3    H2 4570   2.532   4.233   4.322
 1536TIP3   OH2 4571   6.624   4.028   1.644
 1536TIP3    H1 4572   6.623   4.057   1.552
 1536TIP3    H2 4573   6.675   3.947   1.643
 1537TIP3   OH2 4574   5.720   5.594   3.078
 1537TIP3    H1 4575   5.680   5.509   3.097
 1537TIP3    H2 4576   5.805   5.591   3.123
 1538TIP3   OH2 4577   3.078   5.673   2.858
 1538TIP3    H1 4578   2.994   5.698   2.896
 1538TIP3    H2 4579   3.057   5.605   2.794
 1539TIP3   OH2 4580   2.521   0.610   3.599
 1539TIP3    H1 4581   2.553   0.671   3.665
 1539TIP3    H2 4582   2.438   0.578   3.634
 1540TIP3   OH2 4583   4.161   0.390   3.996
 1540TIP3    H1 4584   4.144   0.468   4.050
 1540TIP3    H2 4585   4.120   0.410   3.912
 1541TIP3   OH2 4586   7.065   3.688   1.417
 1541TIP3    H1 4587   7.074   3.619   1.481
 1541TIP3    H2 4588   7.149   3.734   1.419
 1542TIP3   OH2 4589   5.290   2.218   0.995
 1542TIP3    H1 4590   5.247   2.176   1.070
 1542TIP3    H2 4591   5.280   2.312   1.011
 1543TIP3   OH2 4592   1.262   1.030   1.693
 1543TIP3    H1 4593   1.171   1.014   1.666
 1543TIP3    H2 4594   1.313   1.019   1.613
 1544TIP3   OH2 4595   4.365   0.744   3.345
 1544TIP3    H1 4596   4.402   0.663   3.310
 1544TIP3    H2 4597   4.420   0.814   3.308
 1545TIP3   OH2 4598   7.202   2.660   0.591
 1545TIP3    H1 4599   7.232   2.599   0.523
 1545TIP3    H2 4600   7.108   2.669   0.575
 1546TIP3   OH2 4601   3.218   2.013   0.084
 1546TIP3    H1 4602   3.205   2.074   0.156
 1546TIP3    H2 4603   3.279   1.947   0.119
 1547TIP3   OH2 4604   5.577   3.474   2.359
 1547TIP3    H1 4605   5.538   3.561   2.362
 1547TIP3    H2 4606   5.532   3.425   2.428
 1548TIP3   OH2 4607   3.241   2.954   4.754
 1548TIP3    H1 4608   3.217   2.871   4.714
 1548TIP3    H2 4609   3.239   3.017   4.681
 1549TIP3   OH2 4610   1.153   2.388   3.540
 1549TIP3    H1 4611   1.151   2.444   3.618
 1549TIP3    H2 4612   1.103   2.436   3.475
 1550TIP3   OH2 4613   3.125   5.241   5.029
 1550TIP3    H1 4614   3.200   5.192   4.997
 1550TIP3    H2 4615   3.160   5.295   5.100
 1551TIP3   OH2 4616   1.592   2.949   1.174
 1551TIP3    H1 4617   1.541   2.913   1.102
 1551TIP3    H2 4618   1.619   2.872   1.225
 1552TIP3   OH2 4619   6.468   1.092   3.652
 1552TIP3    H1 4620   6.499   1.128   3.569
 1552TIP3    H2 4621   6.501   1.152   3.718
 1553TIP3   OH2 4622   6.202   6.118   2.375
 1553TIP3    H1 4623   6.134   6.113   2.442
 1553TIP3    H2 4624   6.284   6.123   2.424
 1554TIP3   OH2 4625   2.492   1.330   5.066
 1554TIP3    H1 4626   2.411   1.280   5.069
 1554TIP3    H2 4627   2.541   1.302   5.143
 1555TIP3   OH2 4628   6.944   1.663   0.796
 1555TIP3    H1 4629   6.924   1.696   0.884
 1555TIP3    H2 4630   6.976   1.740   0.749
 1556TIP3   OH2 4631   5.122   3.987   3.215
 1556TIP3    H1 4632   5.146   3.983   3.307
 1556TIP3    H2 4633   5.161   4.069   3.184
 1557TIP3   OH2 4634   2.460   0.996   2.112
 1557TIP3    H1 4635   2.368   1.023   2.122
 1557TIP3    H2 4636   2.499   1.012   2.198
 1558TIP3   OH2 4637   6.193   6.762   0.808
 1558TIP3    H1 4638   6.199   6.802   0.895
 1558TIP3    H2 4639   6.173   6.670   0.825
 1559TIP3   OH2 4640   6.489   2.124   0.585
 1559TIP3    H1 4641   6.421   2.173   0.538
 1559TIP3    H2 4642   6.528   2.067   0.518
 1560TIP3   OH2 4643   1.599   1.127   4.024
 1560TIP3    H1 4644   1.529   1.143   3.961
 1560TIP3    H2 4645   1.679   1.128   3.971
 1561TIP3   OH2 4646   1.451   2.684   0.112
 1561TIP3    H1 4647   1.403   2.611   0.075
 1561TIP3    H2 4648   1.386   2.732   0.163
 1562TIP3   OH2 4649   1.723   6.117   5.224
 1562TIP3    H1 4650   1.757   6.143   5.309
 1562TIP3    H2 4651   1.661   6.046   5.242
 1563TIP3   OH2 4652   5.256   3.866   4.190
 1563TIP3    H1 4653   5.310   3.808   4.243
 1563TIP3    H2 4654   5.295   3.862   4.103
 1564TIP3   OH2 4655   6.140   6.119   2.863
 1564TIP3    H1 4656   6.234   6.129   2.878
 1564TIP3    H2 4657   6.107   6.082   2.945
 1565TIP3   OH2 4658   7.219   2.645   4.384
 1565TIP3    H1 4659   7.153   2.666   4.451
 1565TIP3    H2 4660   7.174   2.583   4.326
 1566TIP3   OH2 4661   0.091   6.256   5.704
 1566TIP3    H1 4662   0.114   6.348   5.716
 1566TIP3    H2 4663   0.147   6.226   5.632
 1567TIP3   OH2 4664   0.034   5.998   2.427
 1567TIP3    H1 4665   0.013   5.918   2.476
 1567TIP3    H2 4666  -0.047   6.049   2.429
 1568TIP3   OH2 4667   3.588   0.460   5.399
 1568TIP3    H1 4668   3.527   0.418   5.460
 1568TIP3    H2 4669   3.601   0.396   5.329
 1569TIP3   OH2 4670   3.397   0.143   1.274
 1569TIP3    H1 4671   3.411   0.230   1.236
 1569TIP3    H2 4672   3.405   0.084   1.199
 1570TIP3   OH2 4673   0.932   3.005   1.267
 1570TIP3    H1 4674   0.861   2.946   1.243
 1570TIP3    H2 4675   0.894   3.093   1.258
 1571TIP3   OH2 4676   0.206   3.257   4.214
 1571TIP3    H1 4677   0.217   3.177   4.265
 1571TIP3    H2 4678   0.248   3.325   4.267
 1572TIP3   OH2 4679   0.747   1.894   5.015
 1572TIP3    H1 4680   0.792   1.823   5.060
 1572TIP3    H2 4681   0.670   1.853   4.976
 1573TIP3   OH2 4682   2.976   1.164   4.815
 1573TIP3    H1 4683   2.935   1.203   4.737
 1573TIP3    H2 4684   2.905   1.115   4.857
 1574TIP3   OH2 4685   3.405   5.416   4.907
 1574TIP3    H1 4686   3.310   5.427   4.912
 1574TIP3    H2 4687   3.418   5.354   4.835
 1575TIP3   OH2 4688   3.523   6.401   4.893
 1575TIP3    H1 4689   3.502   6.386   4.801
 1575TIP3    H2 4690   3.616   6.422   4.894
 1576TIP3   OH2 4691   1.013   4.705   5.244
 1576TIP3    H1 4692   0.982   4.704   5.153
 1576TIP3    H2 4693   1.001   4.615   5.274
 1577TIP3   OH2 4694   2.364   6.462   4.610
 1577TIP3    H1 4695   2.362   6.376   4.568
 1577TIP3    H2 4696   2.418   6.515   4.551
 1578TIP3   OH2 4697   4.733   0.110   0.886
 1578TIP3    H1 4698   4.746   0.185   0.944
 1578TIP3    H2 4699   4.797   0.046   0.916
 1579TIP3   OH2 4700   3.747   4.362   3.721
 1579TIP3    H1 4701   3.751   4.456   3.738
 1579TIP3    H2 4702   3.771   4.322   3.805
 1580TIP3   OH2 4703   1.061   1.416   4.835
 1580TIP3    H1 4704   1.063   1.421   4.930
 1580TIP3    H2 4705   1.141   1.461   4.807
 1581TIP3   OH2 4706   1.291   0.883   4.641
 1581TIP3    H1 4707   1.286   0.808   4.581
 1581TIP3    H2 4708   1.212   0.876   4.695
 1582TIP3   OH2 4709   6.635   4.573   2.632
 1582TIP3    H1 4710   6.717   4.566   2.681
 1582TIP3    H2 4711   6.577   4.509   2.674
 1583TIP3   OH2 4712   6.003   5.317   3.282
 1583TIP3    H1 4713   6.012   5.225   3.256
 1583TIP3    H2 4714   6.037   5.320   3.372
 1584TIP3   OH2 4715   2.244   4.714   4.831
 1584TIP3    H1 4716   2.181   4.766   4.881
 1584TIP3    H2 4717   2.277   4.775   4.765
 1585TIP3   OH2 4718   1.368   1.778   5.555
 1585TIP3    H1 4719   1.453   1.763   5.513
 1585TIP3    H2 4720   1.377   1.864   5.596
 1586TIP3   OH2 4721   6.455   2.234   5.523
 1586TIP3    H1 4722   6.385   2.247   5.587
 1586TIP3    H2 4723   6.487   2.146   5.540
 1587TIP3   OH2 4724   0.420   2.697   3.684
 1587TIP3    H1 4725   0.429   2.671   3.592
 1587TIP3    H2 4726   0.507   2.681   3.722
 1588TIP3   OH2 4727   5.418   1.477   2.242
 1588TIP3    H1 4728   5.446   1.386   2.247
 1588TIP3    H2 4729   5.388   1.498   2.331
 1589TIP3   OH2 4730   5.111   4.119   4.425
 1589TIP3    H1 4731   5.082   4.104   4.335
 1589TIP3    H2 4732   5.055   4.188   4.458
 1590TIP3   OH2 4733   2.792   3.629   3.114
 1590TIP3    H1 4734   2.799   3.535   3.128
 1590TIP3    H2 4735   2.711   3.640   3.064
 1591TIP3   OH2 4736   7.127   5.990   1.167
 1591TIP3    H1 4737   7.196   5.948   1.116
 1591TIP3    H2 4738   7.174   6.043   1.231
 1592TIP3   OH2 4739   5.972   1.706   2.061
 1592TIP3    H1 4740   5.890   1.728   2.104
 1592TIP3    H2 4741   6.037   1.709   2.131
 1593TIP3   OH2 4742   3.731   1.015   5.535
 1593TIP3    H1 4743   3.808   1.046   5.488
 1593TIP3    H2 4744   3.719   0.925   5.506
 1594TIP3   OH2 4745   2.984   0.355   2.795
 1594TIP3    H1 4746   2.963   0.431   2.850
 1594TIP3    H2 4747   2.979   0.388   2.706
 1595TIP3   OH2 4748   5.109   6.726   0.542
 1595TIP3    H1 4749   5.024   6.758   0.572
 1595TIP3    H2 4750   5.125   6.648   0.595
 1596TIP3   OH2 4751   4.603   5.291   2.040
 1596TIP3    H1 4752   4.628   5.306   2.131
 1596TIP3    H2 4753   4.607   5.195   2.030
 1597TIP3   OH2 4754   4.216   0.200   0.264
 1597TIP3    H1 4755   4.297   0.248   0.279
 1597TIP3    H2 4756   4.151   0.268   0.245
 1598TIP3   OH2 4757   6.133   2.112   5.487
 1598TIP3    H1 4758   6.051   2.072   5.518
 1598TIP3    H2 4759   6.116   2.132   5.395
 1599TIP3   OH2 4760   6.192   3.391   4.692
 1599TIP3    H1 4761   6.167   3.335   4.619
 1599TIP3    H2 4762   6.123   3.380   4.756
 1600TIP3   OH2 4763   4.306   0.907   4.811
 1600TIP3    H1 4764   4.244   0.939   4.746
 1600TIP3    H2 4765   4.391   0.913   4.768
 1601TIP3   OH2 4766   1.945   3.848   5.059
 1601TIP3    H1 4767   1.989   3.908   4.998
 1601TIP3    H2 4768   1.926   3.771   5.005
 1602TIP3   OH2 4769   6.210   0.383   4.176
 1602TIP3    H1 4770   6.152   0.307   4.168
 1602TIP3    H2 4771   6.296   0.350   4.151
 1603TIP3   OH2 4772   6.519   5.847   3.373
 1603TIP3    H1 4773   6.603   5.806   3.351
 1603TIP3    H2 4774   6.528   5.870   3.466
 1604TIP3   OH2 4775   5.816   3.018   2.145
 1604TIP3    H1 4776   5.845   3.072   2.219
 1604TIP3    H2 4777   5.805   2.930   2.183
 1605TIP3   OH2 4778   4.010   6.687   5.358
 1605TIP3    H1 4779   4.081   6.624   5.366
 1605TIP3    H2 4780   4.054   6.772   5.352
 1606TIP3   OH2 4781   6.245   1.583   4.119
 1606TIP3    H1 4782   6.294   1.531   4.183
 1606TIP3    H2 4783   6.225   1.521   4.048
 1607TIP3   OH2 4784   3.900   5.669   4.336
 1607TIP3    H1 4785   3.812   5.702   4.353
 1607TIP3    H2 4786   3.946   5.744   4.297
 1608TIP3   OH2 4787   3.457   0.389   4.187
 1608TIP3    H1 4788   3.419   0.330   4.122
 1608TIP3    H2 4789   3.466   0.473   4.142
 1609TIP3   OH2 4790   4.659   4.200   3.541
 1609TIP3    H1 4791   4.683   4.280   3.493
 1609TIP3    H2 4792   4.742   4.161   3.567
 1610TIP3   OH2 4793   3.055   2.939   4.180
 1610TIP3    H1 4794   2.976   2.886   4.172
 1610TIP3    H2 4795   3.078   2.935   4.273
 1611TIP3   OH2 4796   3.696   2.845   0.723
 1611TIP3    H1 4797   3.656   2.839   0.809
 1611TIP3    H2 4798   3.623   2.846   0.661
 1612TIP3   OH2 4799   5.580   0.370   2.912
 1612TIP3    H1 4800   5.608   0.422   2.987
 1612TIP3    H2 4801   5.492   0.402   2.893
 1613TIP3   OH2 4802   7.108   2.758   2.455
 1613TIP3    H1 4803   7.022   2.737   2.490
 1613TIP3    H2 4804   7.169   2.707   2.507
 1614TIP3   OH2 4805   2.169   6.742   3.433
 1614TIP3    H1 4806   2.198   6.696   3.354
 1614TIP3    H2 4807   2.156   6.833   3.405
 1615TIP3   OH2 4808   6.100   5.383   2.370
 1615TIP3    H1 4809   6.119   5.322   2.441
 1615TIP3    H2 4810   6.005   5.394   2.374
 1616TIP3   OH2 4811   4.696   2.449   1.277
 1616TIP3    H1 4812   4.678   2.510   1.350
 1616TIP3    H2 4813   4.630   2.381   1.286
 1617TIP3   OH2 4814   0.264   0.454   0.894
 1617TIP3    H1 4815   0.210   0.528   0.866
 1617TIP3    H2 4816   0.272   0.465   0.989
 1618TIP3   OH2 4817   3.721   1.801   3.250
 1618TIP3    H1 4818   3.636   1.790   3.207
 1618TIP3    H2 4819   3.741   1.715   3.286
 1619TIP3   OH2 4820   0.531   1.158   4.793
 1619TIP3    H1 4821   0.623   1.136   4.809
 1619TIP3    H2 4822   0.514   1.127   4.704
 1620TIP3   OH2 4823   0.051   3.697   1.984
 1620TIP3    H1 4824  -0.001   3.764   1.940
 1620TIP3    H2 4825   0.142   3.726   1.974
 1621TIP3   OH2 4826   2.883   6.383   0.565
 1621TIP3    H1 4827   2.807   6.441   0.556
 1621TIP3    H2 4828   2.906   6.359   0.475
 1622TIP3   OH2 4829   5.272   2.990   3.160
 1622TIP3    H1 4830   5.229   2.977   3.075
 1622TIP3    H2 4831   5.242   3.077   3.189
 1623TIP3   OH2 4832   3.329   4.574   4.250
 1623TIP3    H1 4833   3.417   4.543   4.272
 1623TIP3    H2 4834   3.343   4.659   4.210
 1624TIP3   OH2 4835   1.296   0.416   5.475
 1624TIP3    H1 4836   1.350   0.486   5.438
 1624TIP3    H2 4837   1.214   0.459   5.499
 1625TIP3   OH2 4838   6.845   0.956   2.571
 1625TIP3    H1 4839   6.751   0.970   2.571
 1625TIP3    H2 4840   6.870   0.957   2.663
 1626TIP3   OH2 4841   0.565   0.426   1.172
 1626TIP3    H1 4842   0.531   0.378   1.097
 1626TIP3    H2 4843   0.658   0.441   1.151
 1627TIP3   OH2 4844   2.344   2.304   1.986
 1627TIP3    H1 4845   2.280   2.372   2.004
 1627TIP3    H2 4846   2.322   2.273   1.898
 1628TIP3   OH2 4847   1.925   0.694   2.149
 1628TIP3    H1 4848   1.885   0.764   2.201
 1628TIP3    H2 4849   1.934   0.731   2.061
 1629TIP3   OH2 4850   6.783   1.312   4.744
 1629TIP3    H1 4851   6.738   1.389   4.778
 1629TIP3    H2 4852   6.863   1.346   4.703
 1630TIP3   OH2 4853   1.253   0.691   3.622
 1630TIP3    H1 4854   1.246   0.664   3.531
 1630TIP3    H2 4855   1.339   0.732   3.629
 1631TIP3   OH2 4856   1.443   1.439   4.670
 1631TIP3    H1 4857   1.450   1.365   4.610
 1631TIP3    H2 4858   1.508   1.421   4.738
 1632TIP3   OH2 4859   6.949   1.840   4.154
 1632TIP3    H1 4860   6.868   1.878   4.187
 1632TIP3    H2 4861   6.987   1.909   4.099
 1633TIP3   OH2 4862   2.983   2.230   4.412
 1633TIP3    H1 4863   2.977   2.171   4.487
 1633TIP3    H2 4864   3.014   2.313   4.448
 1634TIP3   OH2 4865   6.115   3.703   5.787
 1634TIP3    H1 4866   6.186   3.697   5.724
 1634TIP3    H2 4867   6.061   3.626   5.770
 1635TIP3   OH2 4868   1.885   2.451   4.379
 1635TIP3    H1 4869   1.894   2.511   4.305
 1635TIP3    H2 4870   1.974   2.417   4.392
 1636TIP3   OH2 4871   5.495   1.259   5.476
 1636TIP3    H1 4872   5.572   1.219   5.516
 1636TIP3    H2 4873   5.511   1.353   5.482
 1637TIP3   OH2 4874   3.211   6.404   0.190
 1637TIP3    H1 4875   3.249   6.415   0.278
 1637TIP3    H2 4876   3.248   6.476   0.139
 1638TIP3   OH2 4877   4.719   3.656   2.128
 1638TIP3    H1 4878   4.768   3.736   2.148
 1638TIP3    H2 4879   4.754   3.591   2.189
 1639TIP3   OH2 4880   4.840   5.146   0.189
 1639TIP3    H1 4881   4.787   5.071   0.165
 1639TIP3    H2 4882   4.929   5.112   0.196
 1640TIP3   OH2 4883   2.272   3.702   5.532
 1640TIP3    H1 4884   2.283   3.782   5.584
 1640TIP3    H2 4885   2.218   3.729   5.458
 1641TIP3   OH2 4886   4.315   4.257   4.470
 1641TIP3    H1 4887   4.339   4.342   4.433
 1641TIP3    H2 4888   4.282   4.277   4.557
 1642TIP3   OH2 4889   3.005   2.078   0.890
 1642TIP3    H1 4890   3.058   2.148   0.852
 1642TIP3    H2 4891   2.915   2.100   0.867
 1643TIP3   OH2 4892   2.591   3.231   5.203
 1643TIP3    H1 4893   2.527   3.228   5.275
 1643TIP3    H2 4894   2.642   3.151   5.213
 1644TIP3   OH2 4895   1.318   1.073   2.443
 1644TIP3    H1 4896   1.251   1.132   2.408
 1644TIP3    H2 4897   1.399   1.101   2.401
 1645TIP3   OH2 4898   2.493   1.240   1.017
 1645TIP3    H1 4899   2.511   1.331   0.992
 1645TIP3    H2 4900   2.504   1.191   0.935
 1646TIP3   OH2 4901   1.929   3.352   2.381
 1646TIP3    H1 4902   1.898   3.278   2.434
 1646TIP3    H2 4903   1.961   3.312   2.300
 1647TIP3   OH2 4904   3.784   1.250   1.990
 1647TIP3    H1 4905   3.752   1.229   2.078
 1647TIP3    H2 4906   3.820   1.338   1.998
 1648TIP3   OH2 4907   3.012   3.891   1.605
 1648TIP3    H1 4908   3.040   3.803   1.630
 1648TIP3    H2 4909   3.065   3.949   1.661
 1649TIP3   OH2 4910   6.032   2.081   0.518
 1649TIP3    H1 4911   6.029   2.176   0.526
 1649TIP3    H2 4912   5.955   2.059   0.466
 1650TIP3   OH2 4913   6.531   0.475   4.018
 1650TIP3    H1 4914   6.451   0.466   3.965
 1650TIP3    H2 4915   6.527   0.400   4.078
 1651TIP3   OH2 4916   6.960   1.346   5.896
 1651TIP3    H1 4917   6.890   1.281   5.896
 1651TIP3    H2 4918   6.987   1.352   5.804
 1652TIP3   OH2 4919   2.050   1.382   4.413
 1652TIP3    H1 4920   2.106   1.426   4.350
 1652TIP3    H2 4921   2.102   1.307   4.444
 1653TIP3   OH2 4922   0.210   1.727   5.298
 1653TIP3    H1 4923   0.123   1.713   5.334
 1653TIP3    H2 4924   0.208   1.815   5.262
 1654TIP3   OH2 4925   0.720   6.283   0.888
 1654TIP3    H1 4926   0.676   6.363   0.916
 1654TIP3    H2 4927   0.696   6.274   0.796
 1655TIP3   OH2 4928   2.660   6.344   1.040
 1655TIP3    H1 4929   2.698   6.319   1.124
 1655TIP3    H2 4930   2.657   6.440   1.043
 1656TIP3   OH2 4931   4.735   4.061   0.603
 1656TIP3    H1 4932   4.795   4.063   0.529
 1656TIP3    H2 4933   4.710   3.969   0.610
 1657TIP3   OH2 4934   6.327   5.387   1.570
 1657TIP3    H1 4935   6.264   5.315   1.562
 1657TIP3    H2 4936   6.273   5.465   1.580
 1658TIP3   OH2 4937   4.626   5.760   3.539
 1658TIP3    H1 4938   4.589   5.801   3.618
 1658TIP3    H2 4939   4.696   5.820   3.512
 1659TIP3   OH2 4940   7.159   5.999   0.002
 1659TIP3    H1 4941   7.163   5.907  -0.026
 1659TIP3    H2 4942   7.187   5.998   0.093
 1660TIP3   OH2 4943   1.380   0.282   0.128
 1660TIP3    H1 4944   1.329   0.316   0.054
 1660TIP3    H2 4945   1.361   0.188   0.129
 1661TIP3   OH2 4946   4.762   5.091   2.356
 1661TIP3    H1 4947   4.692   5.156   2.352
 1661TIP3    H2 4948   4.721   5.013   2.393
 1662TIP3   OH2 4949   5.014   1.471   5.883
 1662TIP3    H1 4950   4.937   1.426   5.848
 1662TIP3    H2 4951   5.082   1.404   5.885
 1663TIP3   OH2 4952   6.541   0.583   1.185
 1663TIP3    H1 4953   6.514   0.569   1.276
 1663TIP3    H2 4954   6.460   0.575   1.134
 1664TIP3   OH2 4955   2.889   0.033   2.676
 1664TIP3    H1 4956   2.911  -0.059   2.662
 1664TIP3    H2 4957   2.794   0.036   2.676
 1665TIP3   OH2 4958   5.105   0.256   3.962
 1665TIP3    H1 4959   5.115   0.337   3.912
 1665TIP3    H2 4960   5.033   0.274   4.023
 1666TIP3   OH2 4961   2.186   3.468  -0.006
 1666TIP3    H1 4962   2.131   3.405   0.042
 1666TIP3    H2 4963   2.269   3.422  -0.019
 1667TIP3   OH2 4964   5.305   1.861   2.363
 1667TIP3    H1 4965   5.303   1.772   2.328
 1667TIP3    H2 4966   5.225   1.902   2.331
 1668TIP3   OH2 4967   2.727   6.659   2.115
 1668TIP3    H1 4968   2.818   6.675   2.090
 1668TIP3    H2 4969   2.688   6.747   2.117
 1669TIP3   OH2 4970   3.068   2.843   3.042
 1669TIP3    H1 4971   3.097   2.872   3.129
 1669TIP3    H2 4972   2.973   2.856   3.043
 1670TIP3   OH2 4973   3.797   5.651   2.715
 1670TIP3    H1 4974   3.889   5.623   2.711
 1670TIP3    H2 4975   3.760   5.601   2.788
 1671TIP3   OH2 4976   0.643   0.347   2.354
 1671TIP3    H1 4977   0.732   0.381   2.352
 1671TIP3    H2 4978   0.590   0.420   2.383
 1672TIP3   OH2 4979   6.667   6.640   1.205
 1672TIP3    H1 4980   6.694   6.722   1.164
 1672TIP3    H2 4981   6.571   6.641   1.202
 1673TIP3   OH2 4982   4.138   6.636   3.512
 1673TIP3    H1 4983   4.125   6.595   3.598
 1673TIP3    H2 4984   4.179   6.568   3.459
 1674TIP3   OH2 4985   5.418   1.542   1.803
 1674TIP3    H1 4986   5.368   1.557   1.722
 1674TIP3    H2 4987   5.502   1.585   1.787
 1675TIP3   OH2 4988   0.064   4.781   1.921
 1675TIP3    H1 4989   0.098   4.828   1.845
 1675TIP3    H2 4990  -0.004   4.724   1.885
 1676TIP3   OH2 4991   4.206   1.452   1.166
 1676TIP3    H1 4992   4.233   1.455   1.074
 1676TIP3    H2 4993   4.133   1.390   1.168
 1677TIP3   OH2 4994   1.784   4.267   1.757
 1677TIP3    H1 4995   1.774   4.266   1.662
 1677TIP3    H2 4996   1.794   4.175   1.781
 1678TIP3   OH2 4997   4.101   2.876   2.497
 1678TIP3    H1 4998   4.122   2.867   2.590
 1678TIP3    H2 4999   4.110   2.788   2.461
 1679TIP3   OH2 5000   2.409   6.488   5.260
 1679TIP3    H1 5001   2.499   6.519   5.249
 1679TIP3    H2 5002   2.359   6.567   5.282
 1680TIP3   OH2 5003   0.884   0.329   5.590
 1680TIP3    H1 5004   0.913   0.257   5.646
 1680TIP3    H2 5005   0.797   0.302   5.559
 1681TIP3   OH2 5006   5.843   5.323   1.262
 1681TIP3    H1 5007   5.779   5.344   1.193
 1681TIP3    H2 5008   5.865   5.407   1.301
 1682TIP3   OH2 5009   1.644   3.028   3.061
 1682TIP3    H1 5010   1.682   2.966   3.124
 1682TIP3    H2 5011   1.556   3.045   3.095
 1683TIP3   OH2 5012   6.881   6.410   1.619
 1683TIP3    H1 5013   6.866   6.489   1.567
 1683TIP3    H2 5014   6.937   6.355   1.564
 1684TIP3   OH2 5015   4.236   5.419   3.871
 1684TIP3    H1 5016   4.150   5.456   3.890
 1684TIP3    H2 5017   4.219   5.353   3.804
 1685TIP3   OH2 5018   1.624   4.685   4.362
 1685TIP3    H1 5019   1.711   4.692   4.322
 1685TIP3    H2 5020   1.598   4.776   4.379
 1686TIP3   OH2 5021   2.913   2.310   4.142
 1686TIP3    H1 5022   2.940   2.293   4.232
 1686TIP3    H2 5023   2.824   2.275   4.137
 1687TIP3   OH2 5024   5.178   4.843   0.519
 1687TIP3    H1 5025   5.147   4.933   0.510
 1687TIP3    H2 5026   5.199   4.833   0.612
 1688TIP3   OH2 5027   3.195   3.745   5.393
 1688TIP3    H1 5028   3.112   3.734   5.348
 1688TIP3    H2 5029   3.219   3.837   5.377
 1689TIP3   OH2 5030   2.593   2.681   0.377
 1689TIP3    H1 5031   2.642   2.736   0.439
 1689TIP3    H2 5032   2.506   2.720   0.373
 1690TIP3   OH2 5033   4.211   4.177   0.950
 1690TIP3    H1 5034   4.293   4.185   0.998
 1690TIP3    H2 5035   4.197   4.083   0.941
 1691TIP3   OH2 5036   1.734   1.935   0.107
 1691TIP3    H1 5037   1.690   1.987   0.041
 1691TIP3    H2 5038   1.701   1.968   0.191
 1692TIP3   OH2 5039   4.511   5.005   4.835
 1692TIP3    H1 5040   4.426   5.004   4.878
 1692TIP3    H2 5041   4.523   5.096   4.807
 1693TIP3   OH2 5042   6.312   2.349   5.307
 1693TIP3    H1 5043   6.361   2.287   5.360
 1693TIP3    H2 5044   6.338   2.435   5.341
 1694TIP3   OH2 5045   2.108   1.264   2.636
 1694TIP3    H1 5046   2.099   1.257   2.541
 1694TIP3    H2 5047   2.180   1.326   2.648
 1695TIP3   OH2 5048   3.943   1.886   0.914
 1695TIP3    H1 5049   4.000   1.950   0.956
 1695TIP3    H2 5050   3.959   1.804   0.961
 1696TIP3   OH2 5051   7.078   6.390   3.995
 1696TIP3    H1 5052   7.107   6.365   4.083
 1696TIP3    H2 5053   7.040   6.310   3.959
 1697TIP3   OH2 5054   5.470   2.093   2.460
 1697TIP3    H1 5055   5.451   2.007   2.422
 1697TIP3    H2 5056   5.528   2.135   2.397
 1698TIP3   OH2 5057   7.025   1.432   0.574
 1698TIP3    H1 5058   6.985   1.407   0.490
 1698TIP3    H2 5059   7.066   1.516   0.557
 1699TIP3   OH2 5060   0.970   6.732   0.082
 1699TIP3    H1 5061   1.010   6.671   0.020
 1699TIP3    H2 5062   1.004   6.818   0.057
 1700TIP3   OH2 5063   5.290   1.672   3.625
 1700TIP3    H1 5064   5.345   1.657   3.548
 1700TIP3    H2 5065   5.204   1.695   3.589
 1701TIP3   OH2 5066   2.439   5.206   2.260
 1701TIP3    H1 5067   2.523   5.187   2.303
 1701TIP3    H2 5068   2.422   5.298   2.280
 1702TIP3   OH2 5069   6.942   1.234   3.048
 1702TIP3    H1 5070   7.005   1.295   3.089
 1702TIP3    H2 5071   6.974   1.224   2.959
 1703TIP3   OH2 5072   6.979   5.529   2.088
 1703TIP3    H1 5073   6.911   5.473   2.050
 1703TIP3    H2 5074   7.027   5.563   2.012
 1704TIP3   OH2 5075   0.295   3.928   5.441
 1704TIP3    H1 5076   0.309   4.010   5.488
 1704TIP3    H2 5077   0.206   3.936   5.405
 1705TIP3   OH2 5078   4.019   2.320   2.994
 1705TIP3    H1 5079   3.952   2.254   3.007
 1705TIP3    H2 5080   3.971   2.403   2.993
 1706TIP3   OH2 5081   4.388   1.747   0.720
 1706TIP3    H1 5082   4.334   1.668   0.720
 1706TIP3    H2 5083   4.375   1.785   0.633
 1707TIP3   OH2 5084   0.979   3.303   5.534
 1707TIP3    H1 5085   0.884   3.292   5.545
 1707TIP3    H2 5086   1.012   3.214   5.521
 1708TIP3   OH2 5087   5.798   5.002   1.331
 1708TIP3    H1 5088   5.878   5.051   1.347
 1708TIP3    H2 5089   5.745   5.060   1.277
 1709TIP3   OH2 5090   4.524   0.980   5.403
 1709TIP3    H1 5091   4.544   0.887   5.419
 1709TIP3    H2 5092   4.577   1.027   5.467
 1710TIP3   OH2 5093   3.621   3.610   4.682
 1710TIP3    H1 5094   3.539   3.579   4.645
 1710TIP3    H2 5095   3.596   3.677   4.746
 1711TIP3   OH2 5096   0.189   3.530   2.756
 1711TIP3    H1 5097   0.132   3.607   2.748
 1711TIP3    H2 5098   0.137   3.458   2.721
 1712TIP3   OH2 5099   1.018   3.674   2.670
 1712TIP3    H1 5100   1.036   3.720   2.588
 1712TIP3    H2 5101   0.924   3.684   2.684
 1713TIP3   OH2 5102   5.365   3.337   2.524
 1713TIP3    H1 5103   5.336   3.306   2.438
 1713TIP3    H2 5104   5.304   3.297   2.586
 1714TIP3   OH2 5105   2.453   3.720   5.302
 1714TIP3    H1 5106   2.492   3.633   5.312
 1714TIP3    H2 5107   2.410   3.736   5.386
 1715TIP3   OH2 5108   0.746   0.401   1.579
 1715TIP3    H1 5109   0.794   0.374   1.658
 1715TIP3    H2 5110   0.690   0.326   1.558
 1716TIP3   OH2 5111   0.414   0.736   5.579
 1716TIP3    H1 5112   0.497   0.773   5.610
 1716TIP3    H2 5113   0.378   0.802   5.520
 1717TIP3   OH2 5114   4.627   2.000   5.217
 1717TIP3    H1 5115   4.569   1.983   5.291
 1717TIP3    H2 5116   4.631   2.096   5.213
 1718TIP3   OH2 5117   3.931   5.382   3.125
 1718TIP3    H1 5118   3.879   5.320   3.176
 1718TIP3    H2 5119   3.936   5.460   3.180
 1719TIP3   OH2 5120   2.652   1.141   2.811
 1719TIP3    H1 5121   2.584   1.207   2.795
 1719TIP3    H2 5122   2.724   1.190   2.850
 1720TIP3   OH2 5123   2.104   4.075   5.281
 1720TIP3    H1 5124   2.158   4.128   5.340
 1720TIP3    H2 5125   2.040   4.033   5.338
 1721TIP3   OH2 5126   1.491   5.041   3.701
 1721TIP3    H1 5127   1.490   5.137   3.704
 1721TIP3    H2 5128   1.399   5.017   3.714
 1722TIP3   OH2 5129   5.566   3.591   3.020
 1722TIP3    H1 5130   5.628   3.575   2.949
 1722TIP3    H2 5131   5.565   3.686   3.029
 1723TIP3   OH2 5132   1.736   3.679   2.884
 1723TIP3    H1 5133   1.809   3.671   2.946
 1723TIP3    H2 5134   1.776   3.666   2.798
 1724TIP3   OH2 5135   6.029   5.073   5.079
 1724TIP3    H1 5136   5.988   5.009   5.020
 1724TIP3    H2 5137   6.094   5.118   5.024
 1725TIP3   OH2 5138   4.978   1.577   5.457
 1725TIP3    H1 5139   4.978   1.633   5.535
 1725TIP3    H2 5140   4.991   1.489   5.491
 1726TIP3   OH2 5141   3.276   6.268   5.904
 1726TIP3    H1 5142   3.231   6.296   5.824
 1726TIP3    H2 5143   3.362   6.309   5.898
 1727TIP3   OH2 5144   4.529   3.657   3.253
 1727TIP3    H1 5145   4.575   3.703   3.324
 1727TIP3    H2 5146   4.438   3.685   3.262
 1728TIP3   OH2 5147   4.337   5.717   3.869
 1728TIP3    H1 5148   4.251   5.733   3.832
 1728TIP3    H2 5149   4.333   5.628   3.903
 1729TIP3   OH2 5150   3.150   1.695   1.004
 1729TIP3    H1 5151   3.102   1.764   1.049
 1729TIP3    H2 5152   3.242   1.720   1.014
 1730TIP3   OH2 5153   1.715   0.038   0.281
 1730TIP3    H1 5154   1.798  -0.008   0.280
 1730TIP3    H2 5155   1.704   0.065   0.372
 1731TIP3   OH2 5156   1.907   2.666   3.755
 1731TIP3    H1 5157   1.867   2.616   3.684
 1731TIP3    H2 5158   1.833   2.704   3.801
 1732TIP3   OH2 5159   2.851   0.694   5.569
 1732TIP3    H1 5160   2.933   0.653   5.595
 1732TIP3    H2 5161   2.868   0.729   5.482
 1733TIP3   OH2 5162   4.472   6.599   3.710
 1733TIP3    H1 5163   4.501   6.671   3.654
 1733TIP3    H2 5164   4.515   6.521   3.673
 1734TIP3   OH2 5165   4.048   5.495   4.515
 1734TIP3    H1 5166   4.003   5.564   4.466
 1734TIP3    H2 5167   3.986   5.472   4.585
 1735TIP3   OH2 5168   2.585   0.599   2.129
 1735TIP3    H1 5169   2.504   0.647   2.115
 1735TIP3    H2 5170   2.591   0.539   2.055
 1736TIP3   OH2 5171   2.580   0.697   0.148
 1736TIP3    H1 5172   2.533   0.614   0.143
 1736TIP3    H2 5173   2.560   0.731   0.236
 1737TIP3   OH2 5174   1.870   1.721   4.396
 1737TIP3    H1 5175   1.953   1.747   4.357
 1737TIP3    H2 5176   1.804   1.768   4.345
 1738TIP3   OH2 5177   6.295   4.326   3.400
 1738TIP3    H1 5178   6.324   4.274   3.326
 1738TIP3    H2 5179   6.353   4.300   3.472
 1739TIP3   OH2 5180   6.639   5.665   4.215
 1739TIP3    H1 5181   6.591   5.728   4.268
 1739TIP3    H2 5182   6.728   5.666   4.251
 1740TIP3   OH2 5183   3.376   3.289   4.264
 1740TIP3    H1 5184   3.406   3.235   4.191
 1740TIP3    H2 5185   3.362   3.375   4.226
 1741TIP3   OH2 5186   1.447   0.596   5.302
 1741TIP3    H1 5187   1.531   0.608   5.257
 1741TIP3    H2 5188   1.394   0.670   5.274
 1742TIP3   OH2 5189   4.636   2.111   2.569
 1742TIP3    H1 5190   4.669   2.176   2.632
 1742TIP3    H2 5191   4.575   2.160   2.514
 1743TIP3   OH2 5192   5.437   3.918   2.417
 1743TIP3    H1 5193   5.405   3.829   2.435
 1743TIP3    H2 5194   5.530   3.906   2.401
 1744TIP3   OH2 5195   4.478   4.703   2.114
 1744TIP3    H1 5196   4.411   4.635   2.116
 1744TIP3    H2 5197   4.442   4.774   2.167
 1745TIP3   OH2 5198   2.746   4.867   5.188
 1745TIP3    H1 5199   2.768   4.878   5.096
 1745TIP3    H2 5200   2.675   4.803   5.188
 1746TIP3   OH2 5201   2.460   2.804   3.709
 1746TIP3    H1 5202   2.404   2.739   3.752
 1746TIP3    H2 5203   2.469   2.772   3.620
 1747TIP3   OH2 5204   4.705   0.288   1.837
 1747TIP3    H1 5205   4.701   0.207   1.786
 1747TIP3    H2 5206   4.638   0.344   1.798
 1748TIP3   OH2 5207   2.619   0.672   5.701
 1748TIP3    H1 5208   2.702   0.682   5.653
 1748TIP3    H2 5209   2.612   0.753   5.752
 1749TIP3   OH2 5210   1.426   1.420   5.023
 1749TIP3    H1 5211   1.367   1.454   4.957
 1749TIP3    H2 5212   1.505   1.394   4.975
 1750TIP3   OH2 5213   4.573   0.124   5.265
 1750TIP3    H1 5214   4.535   0.042   5.231
 1750TIP3    H2 5215   4.498   0.175   5.294
 1751TIP3   OH2 5216   1.682   6.148   3.041
 1751TIP3    H1 5217   1.702   6.206   3.114
 1751TIP3    H2 5218   1.742   6.074   3.053
 1752TIP3   OH2 5219   6.318   3.624   4.786
 1752TIP3    H1 5220   6.257   3.677   4.735
 1752TIP3    H2 5221   6.286   3.534   4.777
 1753TIP3   OH2 5222   3.451   4.409   1.877
 1753TIP3    H1 5223   3.392   4.356   1.931
 1753TIP3    H2 5224   3.395   4.447   1.810
 1754TIP3   OH2 5225   0.558   2.716   0.949
 1754TIP3    H1 5226   0.542   2.809   0.965
 1754TIP3    H2 5227   0.479   2.673   0.983
 1755TIP3   OH2 5228   2.652   5.894   0.835
 1755TIP3    H1 5229   2.635   5.929   0.923
 1755TIP3    H2 5230   2.718   5.953   0.799
 1756TIP3   OH2 5231   5.923   1.113   0.101
 1756TIP3    H1 5232   5.845   1.089   0.050
 1756TIP3    H2 5233   5.968   1.178   0.047
 1757TIP3   OH2 5234   3.345   3.209   1.957
 1757TIP3    H1 5235   3.395   3.245   1.884
 1757TIP3    H2 5236   3.389   3.244   2.035
 1758TIP3   OH2 5237   2.235   4.553   4.583
 1758TIP3    H1 5238   2.232   4.533   4.677
 1758TIP3    H2 5239   2.235   4.467   4.541
 1759TIP3   OH2 5240   3.436   1.408   3.474
 1759TIP3    H1 5241   3.475   1.495   3.484
 1759TIP3    H2 5242   3.426   1.376   3.564
 1760TIP3   OH2 5243   2.286   6.608   3.223
 1760TIP3    H1 5244   2.374   6.574   3.235
 1760TIP3    H2 5245   2.263   6.586   3.133
 1761TIP3   OH2 5246   3.948   4.071   4.390
 1761TIP3    H1 5247   4.018   4.035   4.336
 1761TIP3    H2 5248   3.868   4.053   4.340
 1762TIP3   OH2 5249   1.429   2.611   0.422
 1762TIP3    H1 5250   1.387   2.596   0.507
 1762TIP3    H2 5251   1.468   2.698   0.430
 1763TIP3   OH2 5252   1.506   0.833   3.538
 1763TIP3    H1 5253   1.482   0.887   3.463
 1763TIP3    H2 5254   1.550   0.757   3.499
 1764TIP3   OH2 5255   6.062   0.369   4.782
 1764TIP3    H1 5256   6.150   0.405   4.779
 1764TIP3    H2 5257   6.005   0.446   4.786
 1765TIP3   OH2 5258   1.888   1.488   3.140
 1765TIP3    H1 5259   1.819   1.450   3.086
 1765TIP3    H2 5260   1.926   1.412   3.186
 1766TIP3   OH2 5261   2.636   6.511   3.173
 1766TIP3    H1 5262   2.702   6.580   3.169
 1766TIP3    H2 5263   2.601   6.515   3.262
 1767TIP3   OH2 5264   6.316   0.780   1.393
 1767TIP3    H1 5265   6.372   0.844   1.350
 1767TIP3    H2 5266   6.267   0.739   1.322
 1768TIP3   OH2 5267   2.971   3.963   0.823
 1768TIP3    H1 5268   3.057   3.924   0.808
 1768TIP3    H2 5269   2.963   3.969   0.918
 1769TIP3   OH2 5270   3.938   4.995   0.196
 1769TIP3    H1 5271   3.919   4.986   0.103
 1769TIP3    H2 5272   3.853   4.994   0.238
 1770TIP3   OH2 5273   5.630   0.387   3.574
 1770TIP3    H1 5274   5.711   0.412   3.619
 1770TIP3    H2 5275   5.629   0.291   3.579
 1771TIP3   OH2 5276   5.440   3.429   1.448
 1771TIP3    H1 5277   5.387   3.438   1.369
 1771TIP3    H2 5278   5.442   3.335   1.465
 1772TIP3   OH2 5279   2.521   4.557   0.449
 1772TIP3    H1 5280   2.579   4.496   0.494
 1772TIP3    H2 5281   2.530   4.534   0.356
 1773TIP3   OH2 5282   0.174   1.590   4.920
 1773TIP3    H1 5283   0.187   1.673   4.875
 1773TIP3    H2 5284   0.250   1.580   4.976
 1774TIP3   OH2 5285   2.435   1.767   4.063
 1774TIP3    H1 5286   2.343   1.744   4.049
 1774TIP3    H2 5287   2.431   1.851   4.109
 1775TIP3   OH2 5288   6.573   2.937   2.052
 1775TIP3    H1 5289   6.621   2.933   2.135
 1775TIP3    H2 5290   6.640   2.927   1.985
 1776TIP3   OH2 5291   0.906   2.537   5.839
 1776TIP3    H1 5292   0.835   2.538   5.775
 1776TIP3    H2 5293   0.862   2.535   5.924
 1777TIP3   OH2 5294   1.155   0.090   2.219
 1777TIP3    H1 5295   1.232   0.129   2.178
 1777TIP3    H2 5296   1.191   0.036   2.290
 1778TIP3   OH2 5297   7.018   2.119   4.714
 1778TIP3    H1 5298   6.943   2.062   4.696
 1778TIP3    H2 5299   7.091   2.059   4.727
 1779TIP3   OH2 5300   3.506   3.859   0.895
 1779TIP3    H1 5301   3.494   3.938   0.844
 1779TIP3    H2 5302   3.479   3.788   0.837
 1780TIP3   OH2 5303   2.442   4.962   4.978
 1780TIP3    H1 5304   2.450   4.875   4.938
 1780TIP3    H2 5305   2.366   5.001   4.934
 1781TIP3   OH2 5306   5.115   5.917   5.402
 1781TIP3    H1 5307   5.025   5.948   5.413
 1781TIP3    H2 5308   5.116   5.831   5.442
 1782TIP3   OH2 5309   4.468   1.935   5.678
 1782TIP3    H1 5310   4.557   1.967   5.691
 1782TIP3    H2 5311   4.460   1.922   5.584
 1783TIP3   OH2 5312   1.995   3.133   2.676
 1783TIP3    H1 5313   2.001   3.149   2.770
 1783TIP3    H2 5314   1.959   3.044   2.669
 1784TIP3   OH2 5315   1.085   3.739   3.679
 1784TIP3    H1 5316   0.996   3.730   3.714
 1784TIP3    H2 5317   1.072   3.772   3.590
 1785TIP3   OH2 5318   5.096   0.739   2.249
 1785TIP3    H1 5319   5.013   0.786   2.264
 1785TIP3    H2 5320   5.074   0.673   2.183
 1786TIP3   OH2 5321   1.704   6.289   3.270
 1786TIP3    H1 5322   1.615   6.297   3.237
 1786TIP3    H2 5323   1.694   6.285   3.365
 1787TIP3   OH2 5324   0.497   0.880   1.760
 1787TIP3    H1 5325   0.571   0.843   1.712
 1787TIP3    H2 5326   0.439   0.913   1.692
 1788TIP3   OH2 5327   0.521   4.500   2.627
 1788TIP3    H1 5328   0.453   4.465   2.570
 1788TIP3    H2 5329   0.552   4.578   2.582
 1789TIP3   OH2 5330   1.253   5.647   3.817
 1789TIP3    H1 5331   1.242   5.657   3.722
 1789TIP3    H2 5332   1.199   5.716   3.855
 1790TIP3   OH2 5333   0.845   4.372   1.973
 1790TIP3    H1 5334   0.850   4.452   2.026
 1790TIP3    H2 5335   0.767   4.384   1.919
 1791TIP3   OH2 5336   2.799   6.749   0.041
 1791TIP3    H1 5337   2.709   6.780   0.046
 1791TIP3    H2 5338   2.833   6.761   0.130
 1792TIP3   OH2 5339   6.943   6.200   3.862
 1792TIP3    H1 5340   6.967   6.158   3.779
 1792TIP3    H2 5341   6.848   6.200   3.862
 1793TIP3   OH2 5342   6.596   1.024   4.604
 1793TIP3    H1 5343   6.617   1.114   4.579
 1793TIP3    H2 5344   6.679   0.976   4.590
 1794TIP3   OH2 5345   1.029   0.538   4.394
 1794TIP3    H1 5346   0.998   0.610   4.339
 1794TIP3    H2 5347   0.994   0.460   4.352
 1795TIP3   OH2 5348   0.470   3.511   2.751
 1795TIP3    H1 5349   0.383   3.498   2.715
 1795TIP3    H2 5350   0.483   3.606   2.748
 1796TIP3   OH2 5351   5.195   5.134   2.337
 1796TIP3    H1 5352   5.275   5.187   2.347
 1796TIP3    H2 5353   5.222   5.046   2.361
 1797TIP3   OH2 5354   0.501   1.890   0.200
 1797TIP3    H1 5355   0.523   1.799   0.220
 1797TIP3    H2 5356   0.529   1.940   0.277
 1798TIP3   OH2 5357   3.646   6.057   2.633
 1798TIP3    H1 5358   3.571   6.116   2.622
 1798TIP3    H2 5359   3.608   5.969   2.633
 1799TIP3   OH2 5360   0.741   5.428   1.674
 1799TIP3    H1 5361   0.787   5.344   1.679
 1799TIP3    H2 5362   0.650   5.405   1.659
 1800TIP3   OH2 5363   1.063   1.887   5.008
 1800TIP3    H1 5364   1.082   1.800   4.971
 1800TIP3    H2 5365   1.049   1.943   4.931
 1801TIP3   OH2 5366   6.430   1.660   0.429
 1801TIP3    H1 5367   6.464   1.694   0.346
 1801TIP3    H2 5368   6.465   1.720   0.495
 1802TIP3   OH2 5369   7.060   4.483   0.416
 1802TIP3    H1 5370   7.097   4.399   0.442
 1802TIP3    H2 5371   6.980   4.491   0.468
 1803TIP3   OH2 5372   4.505   4.421   5.032
 1803TIP3    H1 5373   4.478   4.361   5.101
 1803TIP3    H2 5374   4.589   4.456   5.061
 1804TIP3   OH2 5375   6.036   4.217   4.107
 1804TIP3    H1 5376   5.987   4.240   4.029
 1804TIP3    H2 5377   5.969   4.206   4.175
 1805TIP3   OH2 5378   2.210   1.767   2.490
 1805TIP3    H1 5379   2.170   1.685   2.518
 1805TIP3    H2 5380   2.215   1.760   2.395
 1806TIP3   OH2 5381   0.090   0.698   0.835
 1806TIP3    H1 5382   0.075   0.724   0.744
 1806TIP3    H2 5383   0.143   0.769   0.872
 1807TIP3   OH2 5384   2.784   1.470   4.951
 1807TIP3    H1 5385   2.844   1.420   5.007
 1807TIP3    H2 5386   2.839   1.499   4.878
 1808TIP3   OH2 5387   0.522   5.931   4.200
 1808TIP3    H1 5388   0.462   5.888   4.262
 1808TIP3    H2 5389   0.468   5.952   4.125
 1809TIP3   OH2 5390   6.843   2.411   0.041
 1809TIP3    H1 5391   6.860   2.458   0.123
 1809TIP3    H2 5392   6.750   2.388   0.045
 1810TIP3   OH2 5393   5.321   5.415   0.053
 1810TIP3    H1 5394   5.248   5.475   0.065
 1810TIP3    H2 5395   5.341   5.420  -0.041
 1811TIP3   OH2 5396   5.142   3.714   0.985
 1811TIP3    H1 5397   5.080   3.660   0.935
 1811TIP3    H2 5398   5.224   3.664   0.983
 1812TIP3   OH2 5399   0.169   2.813   3.072
 1812TIP3    H1 5400   0.164   2.886   3.010
 1812TIP3    H2 5401   0.260   2.813   3.102
 1813TIP3   OH2 5402   5.265   5.159   0.619
 1813TIP3    H1 5403   5.299   5.191   0.703
 1813TIP3    H2 5404   5.343   5.134   0.569
 1814TIP3   OH2 5405   4.226   1.206   4.933
 1814TIP3    H1 5406   4.143   1.181   4.974
 1814TIP3    H2 5407   4.207   1.206   4.840
 1815TIP3   OH2 5408   4.623   4.292   3.131
 1815TIP3    H1 5409   4.555   4.276   3.066
 1815TIP3    H2 5410   4.703   4.259   3.090
 1816TIP3   OH2 5411   6.358   1.932   4.296
 1816TIP3    H1 5412   6.436   1.876   4.305
 1816TIP3    H2 5413   6.340   1.931   4.202
 1817TIP3   OH2 5414   5.841   4.093   2.853
 1817TIP3    H1 5415   5.849   4.188   2.861
 1817TIP3    H2 5416   5.927   4.063   2.825
 1818TIP3   OH2 5417   5.346   1.536   0.768
 1818TIP3    H1 5418   5.257   1.571   0.762
 1818TIP3    H2 5419   5.359   1.518   0.861
 1819TIP3   OH2 5420   0.616   3.751   3.968
 1819TIP3    H1 5421   0.562   3.682   3.929
 1819TIP3    H2 5422   0.670   3.706   4.032
 1820TIP3   OH2 5423   1.791   4.051   0.797
 1820TIP3    H1 5424   1.789   4.140   0.760
 1820TIP3    H2 5425   1.716   4.007   0.757
 1821TIP3   OH2 5426   6.761   3.669   1.329
 1821TIP3    H1 5427   6.817   3.672   1.252
 1821TIP3    H2 5428   6.732   3.578   1.335
 1822TIP3   OH2 5429   4.217   5.496   2.328
 1822TIP3    H1 5430   4.183   5.411   2.300
 1822TIP3    H2 5431   4.310   5.493   2.305
 1823TIP3   OH2 5432   4.378   3.437   3.888
 1823TIP3    H1 5433   4.349   3.351   3.857
 1823TIP3    H2 5434   4.463   3.450   3.848
 1824TIP3   OH2 5435   5.232   5.854   1.147
 1824TIP3    H1 5436   5.147   5.856   1.190
 1824TIP3    H2 5437   5.228   5.778   1.089
 1825TIP3   OH2 5438   7.006   6.073   2.172
 1825TIP3    H1 5439   7.073   6.014   2.139
 1825TIP3    H2 5440   7.002   6.055   2.266
 1826TIP3   OH2 5441   1.594   2.590   2.554
 1826TIP3    H1 5442   1.561   2.675   2.524
 1826TIP3    H2 5443   1.517   2.534   2.555
 1827TIP3   OH2 5444   6.898   5.896   1.407
 1827TIP3    H1 5445   6.976   5.950   1.396
 1827TIP3    H2 5446   6.836   5.952   1.453
 1828TIP3   OH2 5447   0.283   6.092   2.579
 1828TIP3    H1 5448   0.203   6.041   2.566
 1828TIP3    H2 5449   0.349   6.048   2.526
 1829TIP3   OH2 5450   6.569   5.334   3.913
 1829TIP3    H1 5451   6.509   5.266   3.881
 1829TIP3    H2 5452   6.644   5.329   3.853
 1830TIP3   OH2 5453   2.141   4.387   0.637
 1830TIP3    H1 5454   2.188   4.441   0.700
 1830TIP3    H2 5455   2.165   4.423   0.552
 1831TIP3   OH2 5456   0.449   5.342   1.572
 1831TIP3    H1 5457   0.421   5.420   1.523
 1831TIP3    H2 5458   0.481   5.281   1.506
 1832TIP3   OH2 5459   3.427   4.494   3.497
 1832TIP3    H1 5460   3.413   4.420   3.438
 1832TIP3    H2 5461   3.358   4.485   3.563
 1833TIP3   OH2 5462   4.671   0.596   1.920
 1833TIP3    H1 5463   4.694   0.555   1.837
 1833TIP3    H2 5464   4.621   0.674   1.895
 1834TIP3   OH2 5465   1.730   3.780   5.221
 1834TIP3    H1 5466   1.794   3.803   5.154
 1834TIP3    H2 5467   1.725   3.858   5.277
 1835TIP3   OH2 5468   2.109   2.492   3.881
 1835TIP3    H1 5469   2.077   2.419   3.935
 1835TIP3    H2 5470   2.030   2.540   3.856
 1836TIP3   OH2 5471   4.055   2.119   1.065
 1836TIP3    H1 5472   3.961   2.126   1.050
 1836TIP3    H2 5473   4.092   2.200   1.030
 1837TIP3   OH2 5474   1.308   1.508   1.366
 1837TIP3    H1 5475   1.256   1.576   1.409
 1837TIP3    H2 5476   1.251   1.473   1.298
 1838TIP3   OH2 5477   0.447   2.298   3.410
 1838TIP3    H1 5478   0.440   2.270   3.319
 1838TIP3    H2 5479   0.465   2.218   3.458
 1839TIP3   OH2 5480   2.594   4.450   0.211
 1839TIP3    H1 5481   2.504   4.430   0.187
 1839TIP3    H2 5482   2.647   4.390   0.159
 1840TIP3   OH2 5483   3.839   5.653   4.661
 1840TIP3    H1 5484   3.823   5.653   4.756
 1840TIP3    H2 5485   3.919   5.706   4.651
 1841TIP3   OH2 5486   2.145   6.666   0.739
 1841TIP3    H1 5487   2.175   6.575   0.744
 1841TIP3    H2 5488   2.225   6.718   0.747
 1842TIP3   OH2 5489   1.041   3.761   5.533
 1842TIP3    H1 5490   1.079   3.674   5.536
 1842TIP3    H2 5491   0.985   3.765   5.611
 1843TIP3   OH2 5492   2.852   4.400   4.165
 1843TIP3    H1 5493   2.762   4.412   4.193
 1843TIP3    H2 5494   2.904   4.415   4.245
 1844TIP3   OH2 5495   3.188   6.253   1.731
 1844TIP3    H1 5496   3.125   6.324   1.740
 1844TIP3    H2 5497   3.135   6.173   1.735
 1845TIP3   OH2 5498   2.344   6.183   3.895
 1845TIP3    H1 5499   2.407   6.111   3.890
 1845TIP3    H2 5500   2.313   6.182   3.986
 1846TIP3   OH2 5501   0.486   4.940   4.742
 1846TIP3    H1 5502   0.506   4.885   4.818
 1846TIP3    H2 5503   0.569   4.979   4.717
 1847TIP3   OH2 5504   0.421   3.268   1.439
 1847TIP3    H1 5505   0.430   3.234   1.350
 1847TIP3    H2 5506   0.476   3.345   1.441
 1848TIP3   OH2 5507   0.949   2.571   0.810
 1848TIP3    H1 5508   1.044   2.567   0.798
 1848TIP3    H2 5509   0.918   2.482   0.792
 1849TIP3   OH2 5510   1.280   3.199   1.254
 1849TIP3    H1 5511   1.317   3.286   1.269
 1849TIP3    H2 5512   1.192   3.204   1.292
 1850TIP3   OH2 5513   3.699   1.741   0.859
 1850TIP3    H1 5514   3.673   1.789   0.937
 1850TIP3    H2 5515   3.679   1.800   0.786
 1851TIP3   OH2 5516   6.899   1.380   3.352
 1851TIP3    H1 5517   6.852   1.309   3.308
 1851TIP3    H2 5518   6.948   1.337   3.422
 1852TIP3   OH2 5519   1.509   1.023   5.055
 1852TIP3    H1 5520   1.457   0.943   5.067
 1852TIP3    H2 5521   1.452   1.093   5.088
 1853TIP3   OH2 5522   1.778   4.011   0.356
 1853TIP3    H1 5523   1.850   4.017   0.420
 1853TIP3    H2 5524   1.719   4.082   0.380
 1854TIP3   OH2 5525   4.209   2.044   2.523
 1854TIP3    H1 5526   4.212   2.056   2.618
 1854TIP3    H2 5527   4.205   1.950   2.511
 1855TIP3   OH2 5528   3.105   0.456   4.859
 1855TIP3    H1 5529   3.168   0.384   4.858
 1855TIP3    H2 5530   3.119   0.501   4.942
 1856TIP3   OH2 5531   5.293   3.854   4.966
 1856TIP3    H1 5532   5.331   3.865   5.053
 1856TIP3    H2 5533   5.286   3.943   4.931
 1857TIP3   OH2 5534   3.578   5.731   3.995
 1857TIP3    H1 5535   3.647   5.795   4.011
 1857TIP3    H2 5536   3.528   5.728   4.077
 1858TIP3   OH2 5537   2.505   3.482   0.568
 1858TIP3    H1 5538   2.448   3.446   0.636
 1858TIP3    H2 5539   2.560   3.545   0.614
 1859TIP3   OH2 5540   6.338   2.130   3.561
 1859TIP3    H1 5541   6.393   2.208   3.560
 1859TIP3    H2 5542   6.308   2.121   3.470
 1860TIP3   OH2 5543   4.165   5.276   1.462
 1860TIP3    H1 5544   4.168   5.307   1.553
 1860TIP3    H2 5545   4.180   5.181   1.469
 1861TIP3   OH2 5546   2.247   2.893   2.071
 1861TIP3    H1 5547   2.326   2.840   2.066
 1861TIP3    H2 5548   2.175   2.831   2.058
 1862TIP3   OH2 5549   0.227   5.556   3.575
 1862TIP3    H1 5550   0.276   5.490   3.625
 1862TIP3    H2 5551   0.210   5.514   3.490
 1863TIP3   OH2 5552   0.234   6.207   0.858
 1863TIP3    H1 5553   0.241   6.298   0.886
 1863TIP3    H2 5554   0.141   6.195   0.839
 1864TIP3   OH2 5555   4.536   4.277   0.161
 1864TIP3    H1 5556   4.568   4.297   0.249
 1864TIP3    H2 5557   4.482   4.199   0.173
 1865TIP3   OH2 5558   2.418   0.702   4.502
 1865TIP3    H1 5559   2.337   0.682   4.550
 1865TIP3    H2 5560   2.435   0.624   4.450
 1866TIP3   OH2 5561   0.039   5.079   1.432
 1866TIP3    H1 5562  -0.046   5.045   1.404
 1866TIP3    H2 5563   0.081   5.108   1.351
 1867TIP3   OH2 5564   6.899   5.717   4.324
 1867TIP3    H1 5565   6.932   5.793   4.372
 1867TIP3    H2 5566   6.877   5.654   4.392
 1868TIP3   OH2 5567   0.669   4.322   1.535
 1868TIP3    H1 5568   0.760   4.293   1.538
 1868TIP3    H2 5569   0.655   4.347   1.443
 1869TIP3   OH2 5570   0.045   5.971   0.260
 1869TIP3    H1 5571   0.073   6.047   0.312
 1869TIP3    H2 5572   0.025   5.904   0.325
 1870TIP3   OH2 5573   6.720   3.508   5.198
 1870TIP3    H1 5574   6.710   3.589   5.148
 1870TIP3    H2 5575   6.632   3.491   5.234
 1871TIP3   OH2 5576   2.425   5.276   1.558
 1871TIP3    H1 5577   2.460   5.342   1.498
 1871TIP3    H2 5578   2.338   5.310   1.582
 1872TIP3   OH2 5579   2.505   4.753   2.556
 1872TIP3    H1 5580   2.467   4.753   2.644
 1872TIP3    H2 5581   2.460   4.825   2.511
 1873TIP3   OH2 5582   6.691   0.135   5.776
 1873TIP3    H1 5583   6.637   0.110   5.851
 1873TIP3    H2 5584   6.780   0.112   5.802
 1874TIP3   OH2 5585   0.499   2.169   0.358
 1874TIP3    H1 5586   0.410   2.168   0.392
 1874TIP3    H2 5587   0.493   2.217   0.276
 1875TIP3   OH2 5588   6.798   5.126   3.803
 1875TIP3    H1 5589   6.760   5.139   3.716
 1875TIP3    H2 5590   6.875   5.071   3.787
 1876TIP3   OH2 5591   4.074   0.227   1.843
 1876TIP3    H1 5592   4.062   0.282   1.765
 1876TIP3    H2 5593   4.054   0.286   1.916
 1877TIP3   OH2 5594   2.476   5.332   1.009
 1877TIP3    H1 5595   2.461   5.382   0.929
 1877TIP3    H2 5596   2.449   5.392   1.079
 1878TIP3   OH2 5597   3.079   0.169   3.568
 1878TIP3    H1 5598   3.147   0.112   3.604
 1878TIP3    H2 5599   3.126   0.247   3.540
 1879TIP3   OH2 5600   3.150   1.492   4.187
 1879TIP3    H1 5601   3.116   1.533   4.266
 1879TIP3    H2 5602   3.245   1.495   4.197
 1880TIP3   OH2 5603   3.065   2.909   0.967
 1880TIP3    H1 5604   3.026   2.995   0.956
 1880TIP3    H2 5605   3.072   2.898   1.062
 1881TIP3   OH2 5606   2.354   5.960   4.931
 1881TIP3    H1 5607   2.330   5.966   4.839
 1881TIP3    H2 5608   2.449   5.961   4.931
 1882TIP3   OH2 5609   2.562   0.789   3.828
 1882TIP3    H1 5610   2.630   0.850   3.857
 1882TIP3    H2 5611   2.480   0.837   3.841
 1883TIP3   OH2 5612   5.258   5.795   2.522
 1883TIP3    H1 5613   5.267   5.875   2.470
 1883TIP3    H2 5614   5.178   5.808   2.573
 1884TIP3   OH2 5615   6.451   2.471   0.296
 1884TIP3    H1 5616   6.382   2.516   0.247
 1884TIP3    H2 5617   6.516   2.540   0.313
 1885TIP3   OH2 5618   3.953   4.153   2.980
 1885TIP3    H1 5619   3.964   4.211   3.056
 1885TIP3    H2 5620   3.975   4.066   3.013
 1886TIP3   OH2 5621   0.460   6.244   5.391
 1886TIP3    H1 5622   0.412   6.209   5.466
 1886TIP3    H2 5623   0.521   6.307   5.428
 1887TIP3   OH2 5624   0.819   3.479   5.778
 1887TIP3    H1 5625   0.757   3.522   5.837
 1887TIP3    H2 5626   0.869   3.420   5.835
 1888TIP3   OH2 5627   5.459   0.107   5.848
 1888TIP3    H1 5628   5.477   0.081   5.758
 1888TIP3    H2 5629   5.450   0.202   5.844
 1889TIP3   OH2 5630   1.512   0.371   3.814
 1889TIP3    H1 5631   1.507   0.390   3.720
 1889TIP3    H2 5632   1.573   0.437   3.848
 1890TIP3   OH2 5633   1.556   2.590   1.024
 1890TIP3    H1 5634   1.495   2.516   1.029
 1890TIP3    H2 5635   1.500   2.667   1.025
 1891TIP3   OH2 5636   4.950   0.812   1.403
 1891TIP3    H1 5637   4.895   0.753   1.456
 1891TIP3    H2 5638   4.955   0.771   1.318
 1892TIP3   OH2 5639   3.277   2.056   1.068
 1892TIP3    H1 5640   3.219   1.995   1.023
 1892TIP3    H2 5641   3.297   2.012   1.151
 1893TIP3   OH2 5642   4.765   5.313   5.618
 1893TIP3    H1 5643   4.828   5.353   5.678
 1893TIP3    H2 5644   4.716   5.387   5.583
 1894TIP3   OH2 5645   0.638   4.688   1.467
 1894TIP3    H1 5646   0.659   4.658   1.555
 1894TIP3    H2 5647   0.544   4.675   1.458
 1895TIP3   OH2 5648   4.096   5.591   5.822
 1895TIP3    H1 5649   4.043   5.576   5.744
 1895TIP3    H2 5650   4.032   5.608   5.891
 1896TIP3   OH2 5651   7.074   5.567   0.662
 1896TIP3    H1 5652   7.026   5.640   0.702
 1896TIP3    H2 5653   7.017   5.491   0.676
 1897TIP3   OH2 5654   0.534   6.080   2.764
 1897TIP3    H1 5655   0.567   6.163   2.799
 1897TIP3    H2 5656   0.441   6.080   2.788
 1898TIP3   OH2 5657   3.784   3.343   1.662
 1898TIP3    H1 5658   3.810   3.317   1.574
 1898TIP3    H2 5659   3.816   3.272   1.718
 1899TIP3   OH2 5660   6.096   5.664   2.411
 1899TIP3    H1 5661   6.143   5.727   2.355
 1899TIP3    H2 5662   6.148   5.584   2.405
 1900TIP3   OH2 5663   1.575   2.367   5.052
 1900TIP3    H1 5664   1.596   2.290   4.998
 1900TIP3    H2 5665   1.480   2.377   5.042
 1901TIP3   OH2 5666   4.629   2.283   5.207
 1901TIP3    H1 5667   4.693   2.316   5.144
 1901TIP3    H2 5668   4.595   2.361   5.250
 1902TIP3   OH2 5669   7.013   6.541   5.763
 1902TIP3    H1 5670   6.984   6.628   5.792
 1902TIP3    H2 5671   7.047   6.499   5.842
 1903TIP3   OH2 5672   6.468   6.119   4.822
 1903TIP3    H1 5673   6.491   6.065   4.897
 1903TIP3    H2 5674   6.463   6.058   4.749
 1904TIP3   OH2 5675   4.227   6.017   5.480
 1904TIP3    H1 5676   4.292   6.014   5.550
 1904TIP3    H2 5677   4.266   6.075   5.414
 1905TIP3   OH2 5678   0.495   4.166   3.036
 1905TIP3    H1 5679   0.501   4.256   3.070
 1905TIP3    H2 5680   0.513   4.174   2.943
 1906TIP3   OH2 5681   6.711   2.048   1.267
 1906TIP3    H1 5682   6.620   2.076   1.261
 1906TIP3    H2 5683   6.761   2.129   1.276
 1907TIP3   OH2 5684   2.371   0.084   2.914
 1907TIP3    H1 5685   2.421   0.039   2.981
 1907TIP3    H2 5686   2.280   0.079   2.943
 1908TIP3   OH2 5687   3.907   3.814   1.794
 1908TIP3    H1 5688   3.935   3.797   1.883
 1908TIP3    H2 5689   3.983   3.790   1.740
 1909TIP3   OH2 5690   2.039   2.912   1.719
 1909TIP3    H1 5691   1.968   2.850   1.734
 1909TIP3    H2 5692   2.033   2.974   1.792
 1910TIP3   OH2 5693   4.139   4.618   1.347
 1910TIP3    H1 5694   4.164   4.662   1.266
 1910TIP3    H2 5695   4.101   4.535   1.317
 1911TIP3   OH2 5696   7.195   2.403   0.144
 1911TIP3    H1 5697   7.163   2.471   0.084
 1911TIP3    H2 5698   7.137   2.329   0.130
 1912TIP3   OH2 5699   1.825   4.218   5.535
 1912TIP3    H1 5700   1.744   4.267   5.546
 1912TIP3    H2 5701   1.839   4.175   5.620
 1913TIP3   OH2 5702   1.492   2.033   3.997
 1913TIP3    H1 5703   1.433   1.977   4.048
 1913TIP3    H2 5704   1.500   2.113   4.048
 1914TIP3   OH2 5705   1.069   5.472   4.732
 1914TIP3    H1 5706   1.145   5.480   4.674
 1914TIP3    H2 5707   1.006   5.420   4.682
 1915TIP3   OH2 5708   5.303   0.290   3.028
 1915TIP3    H1 5709   5.266   0.304   3.115
 1915TIP3    H2 5710   5.273   0.366   2.977
 1916TIP3   OH2 5711   2.839   0.638   1.449
 1916TIP3    H1 5712   2.819   0.727   1.477
 1916TIP3    H2 5713   2.912   0.611   1.506
 1917TIP3   OH2 5714   3.301   4.848   5.012
 1917TIP3    H1 5715   3.241   4.882   5.078
 1917TIP3    H2 5716   3.246   4.828   4.937
 1918TIP3   OH2 5717   2.603   3.401   0.180
 1918TIP3    H1 5718   2.656   3.344   0.236
 1918TIP3    H2 5719   2.531   3.430   0.237
 1919TIP3   OH2 5720   6.773   4.861   2.580
 1919TIP3    H1 5721   6.813   4.929   2.526
 1919TIP3    H2 5722   6.846   4.805   2.607
 1920TIP3   OH2 5723   3.769   5.030   5.502
 1920TIP3    H1 5724   3.690   5.082   5.487
 1920TIP3    H2 5725   3.749   4.981   5.582
 1921TIP3   OH2 5726   1.471   4.019   5.827
 1921TIP3    H1 5727   1.442   4.006   5.917
 1921TIP3    H2 5728   1.399   3.982   5.774
 1922TIP3   OH2 5729   3.283   1.685   2.450
 1922TIP3    H1 5730   3.311   1.776   2.439
 1922TIP3    H2 5731   3.355   1.644   2.498
 1923TIP3   OH2 5732   4.673   6.469   3.901
 1923TIP3    H1 5733   4.631   6.406   3.843
 1923TIP3    H2 5734   4.678   6.424   3.986
 1924TIP3   OH2 5735   0.909   5.172   4.367
 1924TIP3    H1 5736   1.004   5.181   4.372
 1924TIP3    H2 5737   0.895   5.093   4.315
 1925TIP3   OH2 5738   1.527   2.136   3.704
 1925TIP3    H1 5739   1.563   2.225   3.704
 1925TIP3    H2 5740   1.474   2.132   3.784
 1926TIP3   OH2 5741   2.101   4.616   2.815
 1926TIP3    H1 5742   2.188   4.617   2.856
 1926TIP3    H2 5743   2.113   4.661   2.732
 1927TIP3   OH2 5744   3.237   6.530   0.648
 1927TIP3    H1 5745   3.289   6.610   0.657
 1927TIP3    H2 5746   3.165   6.553   0.590
 1928TIP3   OH2 5747   1.219   2.124   3.547
 1928TIP3    H1 5748   1.217   2.218   3.532
 1928TIP3    H2 5749   1.218   2.114   3.642
 1929TIP3   OH2 5750   5.754   6.020   1.418
 1929TIP3    H1 5751   5.725   5.939   1.377
 1929TIP3    H2 5752   5.778   6.077   1.345
 1930TIP3   OH2 5753   2.964   3.518   2.055
 1930TIP3    H1 5754   3.006   3.603   2.072
 1930TIP3    H2 5755   3.005   3.487   1.975
 1931TIP3   OH2 5756   6.973   2.262   2.024
 1931TIP3    H1 5757   7.046   2.323   2.016
 1931TIP3    H2 5758   6.898   2.317   2.048
 1932TIP3   OH2 5759   5.081   3.334   4.961
 1932TIP3    H1 5760   5.161   3.387   4.967
 1932TIP3    H2 5761   5.090   3.287   4.878
 1933TIP3   OH2 5762   0.251   5.797   2.626
 1933TIP3    H1 5763   0.215   5.780   2.539
 1933TIP3    H2 5764   0.180   5.778   2.686
 1934TIP3   OH2 5765   3.992   0.202   3.214
 1934TIP3    H1 5766   3.907   0.164   3.236
 1934TIP3    H2 5767   4.056   0.151   3.263
 1935TIP3   OH2 5768   4.136   2.750   4.693
 1935TIP3    H1 5769   4.161   2.658   4.704
 1935TIP3    H2 5770   4.083   2.751   4.613
 1936TIP3   OH2 5771   6.796   4.427   3.408
 1936TIP3    H1 5772   6.702   4.437   3.425
 1936TIP3    H2 5773   6.807   4.334   3.388
 1937TIP3   OH2 5774   5.346   2.361   2.313
 1937TIP3    H1 5775   5.315   2.361   2.223
 1937TIP3    H2 5776   5.440   2.345   2.306
 1938TIP3   OH2 5777   2.935   2.935   1.518
 1938TIP3    H1 5778   2.939   2.859   1.576
 1938TIP3    H2 5779   2.846   2.935   1.484
 1939TIP3   OH2 5780   1.949   4.629   3.201
 1939TIP3    H1 5781   1.941   4.573   3.277
 1939TIP3    H2 5782   1.930   4.572   3.126
 1940TIP3   OH2 5783   3.723   4.960   5.066
 1940TIP3    H1 5784   3.647   4.968   5.124
 1940TIP3    H2 5785   3.791   4.922   5.121
 1941TIP3   OH2 5786   6.493   0.434   1.702
 1941TIP3    H1 5787   6.500   0.401   1.792
 1941TIP3    H2 5788   6.525   0.524   1.707
 1942TIP3   OH2 5789   0.510   2.922   5.729
 1942TIP3    H1 5790   0.451   2.986   5.690
 1942TIP3    H2 5791   0.555   2.882   5.654
 1943TIP3   OH2 5792   1.996   5.978   1.746
 1943TIP3    H1 5793   2.045   5.961   1.665
 1943TIP3    H2 5794   1.990   6.074   1.750
 1944TIP3   OH2 5795   6.087   4.510   3.373
 1944TIP3    H1 5796   6.090   4.588   3.428
 1944TIP3    H2 5797   6.161   4.457   3.403
 1945TIP3   OH2 5798   3.093   3.289   5.072
 1945TIP3    H1 5799   3.043   3.369   5.055
 1945TIP3    H2 5800   3.073   3.232   4.998
 1946TIP3   OH2 5801   1.994   3.619   3.777
 1946TIP3    H1 5802   1.924   3.589   3.836
 1946TIP3    H2 5803   2.058   3.548   3.779
 1947TIP3   OH2 5804   4.908   3.288   3.699
 1947TIP3    H1 5805   4.934   3.220   3.637
 1947TIP3    H2 5806   4.820   3.264   3.726
 1948TIP3   OH2 5807   5.572   0.113   4.544
 1948TIP3    H1 5808   5.567   0.131   4.450
 1948TIP3    H2 5809   5.542   0.023   4.553
 1949TIP3   OH2 5810   6.911   0.856   2.812
 1949TIP3    H1 5811   6.974   0.858   2.884
 1949TIP3    H2 5812   6.860   0.777   2.828
 1950TIP3   OH2 5813   0.184   0.102   1.736
 1950TIP3    H1 5814   0.234   0.055   1.670
 1950TIP3    H2 5815   0.105   0.131   1.691
 1951TIP3   OH2 5816   0.571   0.680   4.752
 1951TIP3    H1 5817   0.598   0.596   4.790
 1951TIP3    H2 5818   0.628   0.691   4.676
 1952TIP3   OH2 5819   3.276   0.183   0.387
 1952TIP3    H1 5820   3.199   0.194   0.444
 1952TIP3    H2 5821   3.251   0.225   0.305
 1953TIP3   OH2 5822   4.013   5.273   0.232
 1953TIP3    H1 5823   4.008   5.302   0.141
 1953TIP3    H2 5824   4.003   5.178   0.227
 1954TIP3   OH2 5825   7.129   3.039   1.495
 1954TIP3    H1 5826   7.156   3.000   1.412
 1954TIP3    H2 5827   7.060   3.100   1.472
 1955TIP3   OH2 5828   0.426   1.183   5.623
 1955TIP3    H1 5829   0.497   1.121   5.604
 1955TIP3    H2 5830   0.377   1.141   5.693
 1956TIP3   OH2 5831   6.982   3.015   2.422
 1956TIP3    H1 5832   6.905   2.966   2.452
 1956TIP3    H2 5833   7.054   2.953   2.431
 1957TIP3   OH2 5834   3.269   3.467   5.385
 1957TIP3    H1 5835   3.224   3.552   5.386
 1957TIP3    H2 5836   3.265   3.437   5.476
 1958TIP3   OH2 5837   5.967   5.645   3.458
 1958TIP3    H1 5838   5.918   5.589   3.518
 1958TIP3    H2 5839   6.051   5.601   3.448
 1959TIP3   OH2 5840   4.097   1.232   4.691
 1959TIP3    H1 5841   4.099   1.149   4.644
 1959TIP3    H2 5842   4.007   1.264   4.680
 1960TIP3   OH2 5843   6.911   5.232   0.339
 1960TIP3    H1 5844   6.906   5.240   0.243
 1960TIP3    H2 5845   6.922   5.322   0.370
 1961TIP3   OH2 5846   2.543   1.134   2.326
 1961TIP3    H1 5847   2.610   1.096   2.383
 1961TIP3    H2 5848   2.547   1.228   2.345
 1962TIP3   OH2 5849   6.476   2.618   4.639
 1962TIP3    H1 5850   6.561   2.592   4.676
 1962TIP3    H2 5851   6.414   2.553   4.674
 1963TIP3   OH2 5852   4.767   2.880   3.101
 1963TIP3    H1 5853   4.816   2.800   3.081
 1963TIP3    H2 5854   4.682   2.849   3.132
 1964TIP3   OH2 5855   1.520   2.875   4.488
 1964TIP3    H1 5856   1.525   2.954   4.543
 1964TIP3    H2 5857   1.426   2.865   4.469
 1965TIP3   OH2 5858   5.631   0.053   3.958
 1965TIP3    H1 5859   5.656   0.020   4.044
 1965TIP3    H2 5860   5.540   0.027   3.947
 1966TIP3   OH2 5861   3.141   5.494   2.009
 1966TIP3    H1 5862   3.227   5.478   2.048
 1966TIP3    H2 5863   3.096   5.410   2.015
 1967TIP3   OH2 5864   0.577   5.218   0.358
 1967TIP3    H1 5865   0.668   5.242   0.377
 1967TIP3    H2 5866   0.550   5.168   0.435
 1968TIP3   OH2 5867   1.478   6.778   1.632
 1968TIP3    H1 5868   1.437   6.709   1.579
 1968TIP3    H2 5869   1.432   6.858   1.608
 1969TIP3   OH2 5870   4.606   1.859   3.791
 1969TIP3    H1 5871   4.587   1.832   3.701
 1969TIP3    H2 5872   4.612   1.776   3.839
 1970TIP3   OH2 5873   5.814   3.022   4.126
 1970TIP3    H1 5874   5.768   3.029   4.210
 1970TIP3    H2 5875   5.903   2.995   4.150
 1971TIP3   OH2 5876   5.771   6.727   5.430
 1971TIP3    H1 5877   5.709   6.796   5.404
 1971TIP3    H2 5878   5.856   6.770   5.430
 1972TIP3   OH2 5879   3.747   2.971   0.150
 1972TIP3    H1 5880   3.656   2.998   0.148
 1972TIP3    H2 5881   3.787   3.025   0.218
 1973TIP3   OH2 5882   1.561   5.494   2.601
 1973TIP3    H1 5883   1.639   5.477   2.548
 1973TIP3    H2 5884   1.499   5.426   2.576
 1974TIP3   OH2 5885   2.862   2.119   0.483
 1974TIP3    H1 5886   2.785   2.154   0.437
 1974TIP3    H2 5887   2.850   2.148   0.574
 1975TIP3   OH2 5888   2.903   4.661   3.179
 1975TIP3    H1 5889   2.839   4.729   3.201
 1975TIP3    H2 5890   2.902   4.602   3.254
 1976TIP3   OH2 5891   3.284   2.237   2.297
 1976TIP3    H1 5892   3.204   2.239   2.245
 1976TIP3    H2 5893   3.354   2.221   2.233
 1977TIP3   OH2 5894   2.390   0.920   5.555
 1977TIP3    H1 5895   2.328   0.891   5.622
 1977TIP3    H2 5896   2.474   0.923   5.601
 1978TIP3   OH2 5897   0.659   4.621   0.090
 1978TIP3    H1 5898   0.737   4.675   0.107
 1978TIP3    H2 5899   0.591   4.660   0.144
 1979TIP3   OH2 5900   4.032   5.557   3.976
 1979TIP3    H1 5901   3.942   5.572   4.006
 1979TIP3    H2 5902   4.083   5.547   4.056
 1980TIP3   OH2 5903   6.087   0.413   1.207
 1980TIP3    H1 5904   6.073   0.407   1.302
 1980TIP3    H2 5905   6.143   0.490   1.196
 1981TIP3   OH2 5906   6.185   6.648   3.031
 1981TIP3    H1 5907   6.098   6.687   3.024
 1981TIP3    H2 5908   6.217   6.642   2.941
 1982TIP3   OH2 5909   3.407   3.094   0.923
 1982TIP3    H1 5910   3.331   3.060   0.971
 1982TIP3    H2 5911   3.372   3.168   0.873
 1983TIP3   OH2 5912   3.946   3.143   2.150
 1983TIP3    H1 5913   4.022   3.167   2.098
 1983TIP3    H2 5914   3.960   3.050   2.172
 1984TIP3   OH2 5915   1.943   3.478   0.814
 1984TIP3    H1 5916   1.878   3.447   0.878
 1984TIP3    H2 5917   2.013   3.514   0.868
 1985TIP3   OH2 5918   4.590   0.689   5.428
 1985TIP3    H1 5919   4.550   0.611   5.391
 1985TIP3    H2 5920   4.670   0.702   5.377
 1986TIP3   OH2 5921   4.562   1.463   0.675
 1986TIP3    H1 5922   4.553   1.548   0.632
 1986TIP3    H2 5923   4.636   1.422   0.632
 1987TIP3   OH2 5924   0.183   2.812   5.452
 1987TIP3    H1 5925   0.218   2.734   5.408
 1987TIP3    H2 5926   0.091   2.790   5.469
 1988TIP3   OH2 5927   7.181   6.086   4.272
 1988TIP3    H1 5928   7.222   6.051   4.193
 1988TIP3    H2 5929   7.207   6.025   4.341
 1989TIP3   OH2 5930   1.088   1.375   4.073
 1989TIP3    H1 5931   1.024   1.380   4.145
 1989TIP3    H2 5932   1.042   1.328   4.004
 1990TIP3   OH2 5933   2.264   5.057   4.255
 1990TIP3    H1 5934   2.259   5.107   4.174
 1990TIP3    H2 5935   2.216   4.976   4.236
 1991TIP3   OH2 5936   1.828   6.678   4.046
 1991TIP3    H1 5937   1.809   6.718   3.961
 1991TIP3    H2 5938   1.827   6.752   4.107
 1992TIP3   OH2 5939   6.184   4.738   3.207
 1992TIP3    H1 5940   6.135   4.753   3.287
 1992TIP3    H2 5941   6.117   4.736   3.138
 1993TIP3   OH2 5942   0.360   5.145   1.867
 1993TIP3    H1 5943   0.339   5.145   1.774
 1993TIP3    H2 5944   0.282   5.109   1.909
 1994TIP3   OH2 5945   5.316   6.183   1.689
 1994TIP3    H1 5946   5.229   6.193   1.650
 1994TIP3    H2 5947   5.332   6.267   1.732
 1995TIP3   OH2 5948   4.572   6.465   4.719
 1995TIP3    H1 5949   4.639   6.512   4.670
 1995TIP3    H2 5950   4.618   6.388   4.754
 1996TIP3   OH2 5951   2.732   6.151   1.293
 1996TIP3    H1 5952   2.808   6.153   1.235
 1996TIP3    H2 5953   2.738   6.232   1.343
 1997TIP3   OH2 5954   3.506   0.561   2.565
 1997TIP3    H1 5955   3.558   0.570   2.485
 1997TIP3    H2 5956   3.571   0.547   2.634
 1998TIP3   OH2 5957   0.534   4.882   4.085
 1998TIP3    H1 5958   0.611   4.825   4.082
 1998TIP3    H2 5959   0.505   4.886   3.994
 1999TIP3   OH2 5960   3.910   2.187   0.305
 1999TIP3    H1 5961   4.002   2.162   0.311
 1999TIP3    H2 5962   3.911   2.272   0.260
 2000TIP3   OH2 5963   5.173   6.341   0.042
 2000TIP3    H1 5964   5.110   6.364   0.111
 2000TIP3    H2 5965   5.236   6.413   0.042
 2001TIP3   OH2 5966   1.457   3.027   1.415
 2001TIP3    H1 5967   1.399   3.089   1.370
 2001TIP3    H2 5968   1.510   2.988   1.346
 2002TIP3   OH2 5969   2.396   6.401   1.828
 2002TIP3    H1 5970   2.363   6.468   1.888
 2002TIP3    H2 5971   2.349   6.321   1.854
 2003TIP3   OH2 5972   7.180   4.262   0.520
 2003TIP3    H1 5973   7.167   4.189   0.581
 2003TIP3    H2 5974   7.216   4.221   0.441
 2004TIP3   OH2 5975   6.123   1.758   3.427
 2004TIP3    H1 5976   6.049   1.729   3.481
 2004TIP3    H2 5977   6.094   1.745   3.337
 2005TIP3   OH2 5978   3.205   4.592   3.635
 2005TIP3    H1 5979   3.229   4.665   3.693
 2005TIP3    H2 5980   3.179   4.522   3.694
 2006TIP3   OH2 5981   4.126   1.125   4.281
 2006TIP3    H1 5982   4.100   1.034   4.273
 2006TIP3    H2 5983   4.044   1.174   4.291
 2007TIP3   OH2 5984   6.998   3.638   2.983
 2007TIP3    H1 5985   6.991   3.549   2.949
 2007TIP3    H2 5986   7.004   3.694   2.906
 2008TIP3   OH2 5987   2.742   4.538   4.509
 2008TIP3    H1 5988   2.653   4.507   4.526
 2008TIP3    H2 5989   2.732   4.632   4.493
 2009TIP3   OH2 5990   1.385   0.871   1.475
 2009TIP3    H1 5991   1.436   0.903   1.400
 2009TIP3    H2 5992   1.296   0.865   1.443
 2010TIP3   OH2 5993   0.623   4.420   1.806
 2010TIP3    H1 5994   0.629   4.380   1.719
 2010TIP3    H2 5995   0.534   4.403   1.834
 2011TIP3   OH2 5996   2.777   4.870   5.629
 2011TIP3    H1 5997   2.791   4.955   5.589
 2011TIP3    H2 5998   2.682   4.862   5.636
 2012TIP3   OH2 5999   1.647   1.036   4.507
 2012TIP3    H1 6000   1.650   1.003   4.596
 2012TIP3    H2 6001   1.710   1.107   4.505
 2013TIP3   OH2 6002   3.385   0.070   0.780
 2013TIP3    H1 6003   3.312   0.008   0.784
 2013TIP3    H2 6004   3.437   0.041   0.704
 2014TIP3   OH2 6005   2.037   1.062   3.949
 2014TIP3    H1 6006   1.985   1.069   4.029
 2014TIP3    H2 6007   2.111   1.120   3.964
 2015TIP3   OH2 6008   5.896   5.807   2.044
 2015TIP3    H1 6009   5.858   5.781   2.128
 2015TIP3    H2 6010   5.980   5.847   2.068
 2016TIP3   OH2 6011   6.946   5.531   4.998
 2016TIP3    H1 6012   6.882   5.533   5.070
 2016TIP3    H2 6013   6.980   5.620   4.994
 2017TIP3   OH2 6014   1.232   0.524   3.393
 2017TIP3    H1 6015   1.181   0.443   3.399
 2017TIP3    H2 6016   1.287   0.512   3.316
 2018TIP3   OH2 6017   0.448   4.368   3.541
 2018TIP3    H1 6018   0.425   4.275   3.542
 2018TIP3    H2 6019   0.530   4.373   3.590
 2019TIP3   OH2 6020   0.886   1.104   4.158
 2019TIP3    H1 6021   0.961   1.086   4.102
 2019TIP3    H2 6022   0.818   1.043   4.129
 2020TIP3   OH2 6023   2.669   3.030   3.425
 2020TIP3    H1 6024   2.712   2.945   3.437
 2020TIP3    H2 6025   2.626   3.046   3.509
 2021TIP3   OH2 6026   4.066   5.112   0.924
 2021TIP3    H1 6027   4.147   5.100   0.874
 2021TIP3    H2 6028   4.022   5.186   0.880
 2022TIP3   OH2 6029   4.770   4.315   0.364
 2022TIP3    H1 6030   4.787   4.316   0.458
 2022TIP3    H2 6031   4.821   4.241   0.331
 2023TIP3   OH2 6032   6.421   6.325   2.207
 2023TIP3    H1 6033   6.349   6.372   2.166
 2023TIP3    H2 6034   6.494   6.333   2.145
 2024TIP3   OH2 6035   6.214   0.153   3.856
 2024TIP3    H1 6036   6.270   0.231   3.864
 2024TIP3    H2 6037   6.191   0.149   3.763
 2025TIP3   OH2 6038   0.589   4.300   5.609
 2025TIP3    H1 6039   0.575   4.257   5.525
 2025TIP3    H2 6040   0.611   4.229   5.669
 2026TIP3   OH2 6041   4.015   6.593   1.216
 2026TIP3    H1 6042   3.954   6.643   1.162
 2026TIP3    H2 6043   4.095   6.589   1.164
 2027TIP3   OH2 6044   2.866   3.032   2.683
 2027TIP3    H1 6045   2.863   2.969   2.610
 2027TIP3    H2 6046   2.782   3.023   2.727
 2028TIP3   OH2 6047   3.950   3.327   3.923
 2028TIP3    H1 6048   3.957   3.232   3.913
 2028TIP3    H2 6049   3.856   3.345   3.915
 2029TIP3   OH2 6050   4.039   0.837   4.334
 2029TIP3    H1 6051   4.074   0.824   4.422
 2029TIP3    H2 6052   3.944   0.826   4.345
 2030TIP3   OH2 6053   5.872   0.723   1.667
 2030TIP3    H1 6054   5.789   0.763   1.643
 2030TIP3    H2 6055   5.933   0.748   1.597
 2031TIP3   OH2 6056   7.139   6.571   1.941
 2031TIP3    H1 6057   7.211   6.512   1.962
 2031TIP3    H2 6058   7.060   6.519   1.957
 2032TIP3   OH2 6059   3.812   5.057   4.125
 2032TIP3    H1 6060   3.898   5.039   4.162
 2032TIP3    H2 6061   3.751   5.048   4.198
 2033TIP3   OH2 6062   0.295   5.046   3.939
 2033TIP3    H1 6063   0.264   5.137   3.940
 2033TIP3    H2 6064   0.219   4.995   3.913
 2034TIP3   OH2 6065   4.634   1.727   1.134
 2034TIP3    H1 6066   4.559   1.704   1.189
 2034TIP3    H2 6067   4.598   1.787   1.068
 2035TIP3   OH2 6068   2.142   3.738   0.017
 2035TIP3    H1 6069   2.237   3.752   0.020
 2035TIP3    H2 6070   2.132   3.642   0.018
 2036TIP3   OH2 6071   0.714   2.034   4.171
 2036TIP3    H1 6072   0.710   2.129   4.157
 2036TIP3    H2 6073   0.806   2.016   4.190
 2037TIP3   OH2 6074   0.465   1.838   5.831
 2037TIP3    H1 6075   0.517   1.908   5.790
 2037TIP3    H2 6076   0.509   1.757   5.804
 2038TIP3   OH2 6077   4.894   6.203   5.443
 2038TIP3    H1 6078   4.871   6.296   5.452
 2038TIP3    H2 6079   4.968   6.203   5.383
 2039TIP3   OH2 6080   6.439   0.594   4.895
 2039TIP3    H1 6081   6.453   0.540   4.817
 2039TIP3    H2 6082   6.354   0.636   4.880
 2040TIP3   OH2 6083   0.643   2.890   3.327
 2040TIP3    H1 6084   0.665   2.982   3.340
 2040TIP3    H2 6085   0.605   2.886   3.239
 2041TIP3   OH2 6086   1.534   1.382   0.343
 2041TIP3    H1 6087   1.591   1.309   0.367
 2041TIP3    H2 6088   1.482   1.399   0.422
 2042TIP3   OH2 6089   3.627   4.591   2.186
 2042TIP3    H1 6090   3.640   4.683   2.208
 2042TIP3    H2 6091   3.704   4.567   2.134
 2043TIP3   OH2 6092   6.797   3.874   2.251
 2043TIP3    H1 6093   6.876   3.872   2.304
 2043TIP3    H2 6094   6.728   3.903   2.312
 2044TIP3   OH2 6095   1.247   3.061   1.012
 2044TIP3    H1 6096   1.295   3.120   1.071
 2044TIP3    H2 6097   1.158   3.096   1.010
 2045TIP3   OH2 6098   5.939   1.719   5.801
 2045TIP3    H1 6099   5.898   1.647   5.753
 2045TIP3    H2 6100   5.865   1.769   5.836
 2046TIP3   OH2 6101   6.090   0.222   1.945
 2046TIP3    H1 6102   6.111   0.300   1.895
 2046TIP3    H2 6103   6.174   0.180   1.960
 2047TIP3   OH2 6104   1.996   6.427   3.406
 2047TIP3    H1 6105   2.042   6.350   3.439
 2047TIP3    H2 6106   1.968   6.474   3.484
 2048TIP3   OH2 6107   1.278   5.075   0.649
 2048TIP3    H1 6108   1.183   5.085   0.647
 2048TIP3    H2 6109   1.301   5.045   0.561
 2049TIP3   OH2 6110   6.967   3.534   4.486
 2049TIP3    H1 6111   7.040   3.475   4.503
 2049TIP3    H2 6112   6.990   3.615   4.533
 2050TIP3   OH2 6113   5.313   1.341   1.980
 2050TIP3    H1 6114   5.277   1.399   2.048
 2050TIP3    H2 6115   5.353   1.401   1.917
 2051TIP3   OH2 6116   2.208   0.688   1.956
 2051TIP3    H1 6117   2.286   0.727   1.917
 2051TIP3    H2 6118   2.146   0.761   1.963
 2052TIP3   OH2 6119   0.188   1.179   4.632
 2052TIP3    H1 6120   0.216   1.113   4.695
 2052TIP3    H2 6121   0.168   1.256   4.684
 2053TIP3   OH2 6122   3.207   0.126   2.650
 2053TIP3    H1 6123   3.222   0.203   2.594
 2053TIP3    H2 6124   3.287   0.119   2.703
 2054TIP3   OH2 6125   3.731   3.452   1.253
 2054TIP3    H1 6126   3.699   3.536   1.287
 2054TIP3    H2 6127   3.816   3.472   1.214
 2055TIP3   OH2 6128   3.544   6.611   1.722
 2055TIP3    H1 6129   3.466   6.639   1.674
 2055TIP3    H2 6130   3.537   6.516   1.726
 2056TIP3   OH2 6131   7.141   1.419   0.093
 2056TIP3    H1 6132   7.228   1.380   0.088
 2056TIP3    H2 6133   7.110   1.419   0.003
 2057TIP3   OH2 6134   1.625   6.064   0.705
 2057TIP3    H1 6135   1.660   6.133   0.650
 2057TIP3    H2 6136   1.674   6.071   0.787
 2058TIP3   OH2 6137   2.741   2.358   1.437
 2058TIP3    H1 6138   2.741   2.300   1.514
 2058TIP3    H2 6139   2.655   2.345   1.398
 2059TIP3   OH2 6140   2.618   3.894   2.920
 2059TIP3    H1 6141   2.545   3.924   2.976
 2059TIP3    H2 6142   2.593   3.921   2.832
 2060TIP3   OH2 6143   2.316   6.782   4.328
 2060TIP3    H1 6144   2.366   6.861   4.306
 2060TIP3    H2 6145   2.379   6.726   4.374
 2061TIP3   OH2 6146   5.231   2.979   0.658
 2061TIP3    H1 6147   5.321   2.997   0.686
 2061TIP3    H2 6148   5.205   3.058   0.611
 2062TIP3   OH2 6149   1.920   0.345   4.893
 2062TIP3    H1 6150   1.833   0.347   4.933
 2062TIP3    H2 6151   1.922   0.265   4.841
 2063TIP3   OH2 6152   0.727   3.645   4.196
 2063TIP3    H1 6153   0.757   3.561   4.231
 2063TIP3    H2 6154   0.632   3.637   4.193
 2064TIP3   OH2 6155   6.927   3.066   2.166
 2064TIP3    H1 6156   7.006   3.112   2.138
 2064TIP3    H2 6157   6.936   3.060   2.261
 2065TIP3   OH2 6158   1.100   2.006   0.570
 2065TIP3    H1 6159   1.014   2.035   0.540
 2065TIP3    H2 6160   1.162   2.052   0.513
 2066TIP3   OH2 6161   5.494   4.334   0.880
 2066TIP3    H1 6162   5.577   4.289   0.898
 2066TIP3    H2 6163   5.456   4.285   0.808
 2067TIP3   OH2 6164   6.680   0.161   3.706
 2067TIP3    H1 6165   6.684   0.110   3.626
 2067TIP3    H2 6166   6.593   0.143   3.741
 2068TIP3   OH2 6167   6.992   5.601   1.585
 2068TIP3    H1 6168   6.908   5.565   1.558
 2068TIP3    H2 6169   6.992   5.690   1.549
 2069TIP3   OH2 6170   4.558   0.921   3.944
 2069TIP3    H1 6171   4.475   0.885   3.975
 2069TIP3    H2 6172   4.589   0.976   4.016
 2070TIP3   OH2 6173   7.180   6.236   5.323
 2070TIP3    H1 6174   7.100   6.192   5.351
 2070TIP3    H2 6175   7.208   6.286   5.400
 2071TIP3   OH2 6176   5.894   1.259   2.788
 2071TIP3    H1 6177   5.917   1.169   2.764
 2071TIP3    H2 6178   5.957   1.283   2.855
 2072TIP3   OH2 6179   2.669   0.959   5.298
 2072TIP3    H1 6180   2.620   0.890   5.344
 2072TIP3    H2 6181   2.616   1.038   5.310
 2073TIP3   OH2 6182   5.333   1.933   1.229
 2073TIP3    H1 6183   5.254   1.942   1.282
 2073TIP3    H2 6184   5.300   1.915   1.140
 2074TIP3   OH2 6185   2.263   0.481   3.350
 2074TIP3    H1 6186   2.278   0.494   3.444
 2074TIP3    H2 6187   2.346   0.504   3.309
 2075TIP3   OH2 6188   6.937   3.787   3.219
 2075TIP3    H1 6189   6.963   3.735   3.142
 2075TIP3    H2 6190   6.962   3.733   3.294
 2076TIP3   OH2 6191   0.192   2.574   3.368
 2076TIP3    H1 6192   0.254   2.511   3.332
 2076TIP3    H2 6193   0.244   2.651   3.388
 2077TIP3   OH2 6194   4.042   1.639   1.330
 2077TIP3    H1 6195   3.957   1.607   1.298
 2077TIP3    H2 6196   4.106   1.579   1.293
 2078TIP3   OH2 6197   2.509   3.999   5.242
 2078TIP3    H1 6198   2.457   3.922   5.267
 2078TIP3    H2 6199   2.563   4.017   5.319
 2079TIP3   OH2 6200   4.623   1.613   2.677
 2079TIP3    H1 6201   4.595   1.576   2.594
 2079TIP3    H2 6202   4.565   1.687   2.691
 2080TIP3   OH2 6203   4.726   6.594   5.102
 2080TIP3    H1 6204   4.657   6.660   5.099
 2080TIP3    H2 6205   4.682   6.512   5.080
 2081TIP3   OH2 6206   6.093   5.568   4.324
 2081TIP3    H1 6207   6.126   5.625   4.255
 2081TIP3    H2 6208   5.999   5.585   4.327
 2082TIP3   OH2 6209   5.549   1.420   0.634
 2082TIP3    H1 6210   5.583   1.362   0.702
 2082TIP3    H2 6211   5.479   1.469   0.677
 2083TIP3   OH2 6212   3.486   3.643   2.897
 2083TIP3    H1 6213   3.502   3.727   2.940
 2083TIP3    H2 6214   3.396   3.649   2.866
 2084TIP3   OH2 6215   5.017   4.577   3.275
 2084TIP3    H1 6216   4.968   4.513   3.223
 2084TIP3    H2 6217   5.005   4.659   3.227
 2085TIP3   OH2 6218   6.063   6.621   5.540
 2085TIP3    H1 6219   6.046   6.702   5.589
 2085TIP3    H2 6220   6.128   6.647   5.474
 2086TIP3   OH2 6221   0.303   2.686   0.116
 2086TIP3    H1 6222   0.352   2.655   0.040
 2086TIP3    H2 6223   0.310   2.615   0.180
 2087TIP3   OH2 6224   3.545   1.970   1.951
 2087TIP3    H1 6225   3.509   1.901   2.007
 2087TIP3    H2 6226   3.558   1.927   1.866
 2088TIP3   OH2 6227   1.912   2.969   5.412
 2088TIP3    H1 6228   1.960   3.042   5.372
 2088TIP3    H2 6229   1.851   2.940   5.344
 2089TIP3   OH2 6230   5.481   4.925   0.148
 2089TIP3    H1 6231   5.400   4.953   0.104
 2089TIP3    H2 6232   5.529   4.877   0.081
 2090TIP3   OH2 6233   6.896   4.113   0.642
 2090TIP3    H1 6234   6.971   4.071   0.683
 2090TIP3    H2 6235   6.907   4.096   0.548
 2091TIP3   OH2 6236   1.151   6.517   4.649
 2091TIP3    H1 6237   1.096   6.528   4.726
 2091TIP3    H2 6238   1.239   6.540   4.678
 2092TIP3   OH2 6239   2.511   6.480   2.269
 2092TIP3    H1 6240   2.603   6.502   2.288
 2092TIP3    H2 6241   2.461   6.551   2.310
 2093TIP3   OH2 6242   3.645   2.448   5.201
 2093TIP3    H1 6243   3.733   2.465   5.233
 2093TIP3    H2 6244   3.594   2.523   5.230
 2094TIP3   OH2 6245   4.198   6.447   0.986
 2094TIP3    H1 6246   4.174   6.528   0.939
 2094TIP3    H2 6247   4.238   6.478   1.067
 2095TIP3   OH2 6248   0.999   2.647   4.837
 2095TIP3    H1 6249   1.079   2.647   4.891
 2095TIP3    H2 6250   0.943   2.581   4.879
 2096TIP3   OH2 6251   0.010   1.047   5.724
 2096TIP3    H1 6252  -0.054   0.998   5.775
 2096TIP3    H2 6253   0.095   1.015   5.754
 2097TIP3   OH2 6254   4.124   6.288   2.725
 2097TIP3    H1 6255   4.051   6.234   2.697
 2097TIP3    H2 6256   4.197   6.227   2.734
 2098TIP3   OH2 6257   6.738   1.963   4.272
 2098TIP3    H1 6258   6.663   1.906   4.288
 2098TIP3    H2 6259   6.700   2.045   4.241
 2099TIP3   OH2 6260   5.341   0.647   3.658
 2099TIP3    H1 6261   5.261   0.697   3.640
 2099TIP3    H2 6262   5.376   0.626   3.571
 2100TIP3   OH2 6263   1.257   1.090   0.890
 2100TIP3    H1 6264   1.298   1.138   0.819
 2100TIP3    H2 6265   1.280   1.139   0.969
 2101TIP3   OH2 6266   5.438   3.487   0.711
 2101TIP3    H1 6267   5.501   3.486   0.639
 2101TIP3    H2 6268   5.353   3.472   0.669
 2102TIP3   OH2 6269   2.899   1.208   0.091
 2102TIP3    H1 6270   2.811   1.237   0.117
 2102TIP3    H2 6271   2.884   1.131   0.037
 2103TIP3   OH2 6272   5.414   5.736   5.407
 2103TIP3    H1 6273   5.322   5.711   5.402
 2103TIP3    H2 6274   5.415   5.814   5.462
 2104TIP3   OH2 6275   0.727   1.375   3.727
 2104TIP3    H1 6276   0.707   1.457   3.772
 2104TIP3    H2 6277   0.656   1.365   3.663
 2105TIP3   OH2 6278   4.846   1.738   4.086
 2105TIP3    H1 6279   4.881   1.712   4.001
 2105TIP3    H2 6280   4.923   1.756   4.140
 2106TIP3   OH2 6281   3.704   6.068   4.379
 2106TIP3    H1 6282   3.748   6.064   4.464
 2106TIP3    H2 6283   3.667   5.981   4.367
 2107TIP3   OH2 6284   4.073   2.669   1.494
 2107TIP3    H1 6285   4.146   2.720   1.530
 2107TIP3    H2 6286   4.101   2.578   1.503
 2108TIP3   OH2 6287   1.099   3.116   2.325
 2108TIP3    H1 6288   1.169   3.051   2.315
 2108TIP3    H2 6289   1.048   3.108   2.244
 2109TIP3   OH2 6290   4.041   4.725   2.485
 2109TIP3    H1 6291   3.967   4.666   2.470
 2109TIP3    H2 6292   4.003   4.813   2.477
 2110TIP3   OH2 6293   1.312   5.600   3.088
 2110TIP3    H1 6294   1.290   5.688   3.118
 2110TIP3    H2 6295   1.377   5.613   3.020
 2111TIP3   OH2 6296   6.489   5.580   3.998
 2111TIP3    H1 6297   6.509   5.494   3.960
 2111TIP3    H2 6298   6.561   5.596   4.059
 2112TIP3   OH2 6299   5.674   6.518   2.459
 2112TIP3    H1 6300   5.736   6.455   2.496
 2112TIP3    H2 6301   5.717   6.603   2.467
 2113TIP3   OH2 6302   1.955   2.288   2.664
 2113TIP3    H1 6303   1.908   2.372   2.659
 2113TIP3    H2 6304   1.915   2.243   2.739
 2114TIP3   OH2 6305   6.953   4.066   0.385
 2114TIP3    H1 6306   6.951   4.101   0.295
 2114TIP3    H2 6307   6.995   3.981   0.377
 2115TIP3   OH2 6308   6.209   5.841   2.679
 2115TIP3    H1 6309   6.236   5.812   2.767
 2115TIP3    H2 6310   6.179   5.762   2.636
 2116TIP3   OH2 6311   3.404   4.113   2.600
 2116TIP3    H1 6312   3.429   4.102   2.508
 2116TIP3    H2 6313   3.445   4.195   2.626
 2117TIP3   OH2 6314   1.685   5.692   0.077
 2117TIP3    H1 6315   1.625   5.618   0.084
 2117TIP3    H2 6316   1.765   5.653   0.041
 2118TIP3   OH2 6317   6.957   4.995   2.398
 2118TIP3    H1 6318   6.956   5.081   2.438
 2118TIP3    H2 6319   7.047   4.982   2.371
 2119TIP3   OH2 6320   6.681   3.423   2.270
 2119TIP3    H1 6321   6.605   3.418   2.327
 2119TIP3    H2 6322   6.653   3.382   2.188
 2120TIP3   OH2 6323   3.080   3.699   4.912
 2120TIP3    H1 6324   3.159   3.646   4.916
 2120TIP3    H2 6325   3.033   3.667   4.835
 2121TIP3   OH2 6326   6.909   2.795   0.925
 2121TIP3    H1 6327   6.978   2.833   0.980
 2121TIP3    H2 6328   6.836   2.857   0.933
 2122TIP3   OH2 6329   3.797   3.425   2.200
 2122TIP3    H1 6330   3.816   3.476   2.122
 2122TIP3    H2 6331   3.711   3.456   2.228
 2123TIP3   OH2 6332   1.028   5.410   4.340
 2123TIP3    H1 6333   0.997   5.481   4.284
 2123TIP3    H2 6334   0.950   5.356   4.356
 2124TIP3   OH2 6335   2.859   6.783   0.582
 2124TIP3    H1 6336   2.875   6.810   0.672
 2124TIP3    H2 6337   2.937   6.732   0.558
 2125TIP3   OH2 6338   6.567   2.450   3.410
 2125TIP3    H1 6339   6.659   2.441   3.384
 2125TIP3    H2 6340   6.558   2.393   3.486
 2126TIP3   OH2 6341   5.554   6.200   4.265
 2126TIP3    H1 6342   5.620   6.184   4.332
 2126TIP3    H2 6343   5.485   6.249   4.310
 2127TIP3   OH2 6344   0.230   0.015   5.438
 2127TIP3    H1 6345   0.210  -0.044   5.365
 2127TIP3    H2 6346   0.322   0.038   5.426
 2128TIP3   OH2 6347   5.603   2.100   2.706
 2128TIP3    H1 6348   5.562   2.082   2.621
 2128TIP3    H2 6349   5.615   2.195   2.708
 2129TIP3   OH2 6350   5.424   5.723   1.860
 2129TIP3    H1 6351   5.467   5.677   1.787
 2129TIP3    H2 6352   5.479   5.704   1.936
 2130TIP3   OH2 6353   0.699   4.312   3.699
 2130TIP3    H1 6354   0.758   4.387   3.702
 2130TIP3    H2 6355   0.713   4.274   3.612
 2131TIP3   OH2 6356   0.364   1.487   2.767
 2131TIP3    H1 6357   0.409   1.414   2.724
 2131TIP3    H2 6358   0.274   1.456   2.778
 2132TIP3   OH2 6359   2.214   0.815   0.086
 2132TIP3    H1 6360   2.207   0.736   0.033
 2132TIP3    H2 6361   2.178   0.884   0.031
 2133TIP3   OH2 6362   5.983   4.843   0.382
 2133TIP3    H1 6363   6.009   4.933   0.401
 2133TIP3    H2 6364   5.941   4.848   0.296
 2134TIP3   OH2 6365   1.487   3.830   0.059
 2134TIP3    H1 6366   1.566   3.811   0.009
 2134TIP3    H2 6367   1.428   3.758   0.039
 2135TIP3   OH2 6368   2.313   2.606   0.175
 2135TIP3    H1 6369   2.383   2.554   0.216
 2135TIP3    H2 6370   2.360   2.675   0.127
 2136TIP3   OH2 6371   1.663   6.319   2.021
 2136TIP3    H1 6372   1.729   6.280   2.077
 2136TIP3    H2 6373   1.663   6.412   2.045
 2137TIP3   OH2 6374   2.389   2.004   1.987
 2137TIP3    H1 6375   2.460   1.994   1.925
 2137TIP3    H2 6376   2.375   2.099   1.993
 2138TIP3   OH2 6377   4.763   1.867   2.601
 2138TIP3    H1 6378   4.721   1.851   2.685
 2138TIP3    H2 6379   4.729   1.952   2.574
 2139TIP3   OH2 6380   3.251   4.190   0.528
 2139TIP3    H1 6381   3.276   4.179   0.436
 2139TIP3    H2 6382   3.190   4.264   0.528
 2140TIP3   OH2 6383   5.087   4.316   1.987
 2140TIP3    H1 6384   5.148   4.253   1.948
 2140TIP3    H2 6385   5.085   4.292   2.080
 2141TIP3   OH2 6386   4.766   4.131   1.608
 2141TIP3    H1 6387   4.675   4.157   1.622
 2141TIP3    H2 6388   4.816   4.209   1.629
 2142TIP3   OH2 6389   2.655   5.146   2.718
 2142TIP3    H1 6390   2.710   5.120   2.792
 2142TIP3    H2 6391   2.567   5.150   2.754
 2143TIP3   OH2 6392   3.124   1.630   0.250
 2143TIP3    H1 6393   3.193   1.681   0.293
 2143TIP3    H2 6394   3.166   1.547   0.227
 2144TIP3   OH2 6395   6.884   4.256   3.130
 2144TIP3    H1 6396   6.913   4.174   3.169
 2144TIP3    H2 6397   6.931   4.324   3.179
 2145TIP3   OH2 6398   5.955   5.389   0.473
 2145TIP3    H1 6399   5.864   5.385   0.441
 2145TIP3    H2 6400   6.006   5.410   0.395
 2146TIP3   OH2 6401   3.272   1.214   1.244
 2146TIP3    H1 6402   3.294   1.273   1.172
 2146TIP3    H2 6403   3.308   1.257   1.322
 2147TIP3   OH2 6404   4.392   5.728   4.636
 2147TIP3    H1 6405   4.410   5.679   4.716
 2147TIP3    H2 6406   4.476   5.729   4.589
 2148TIP3   OH2 6407   2.952   0.664   3.029
 2148TIP3    H1 6408   2.930   0.579   3.069
 2148TIP3    H2 6409   3.026   0.645   2.971
 2149TIP3   OH2 6410   6.521   1.122   5.013
 2149TIP3    H1 6411   6.608   1.135   4.975
 2149TIP3    H2 6412   6.515   1.027   5.027
 2150TIP3   OH2 6413   3.033   4.514   0.138
 2150TIP3    H1 6414   2.979   4.557   0.205
 2150TIP3    H2 6415   3.051   4.582   0.074
 2151TIP3   OH2 6416   4.894   2.456   2.337
 2151TIP3    H1 6417   4.978   2.424   2.370
 2151TIP3    H2 6418   4.830   2.426   2.401
 2152TIP3   OH2 6419   4.717   1.051   0.989
 2152TIP3    H1 6420   4.798   1.029   0.943
 2152TIP3    H2 6421   4.709   0.986   1.058
 2153TIP3   OH2 6422   4.761   2.907   4.650
 2153TIP3    H1 6423   4.718   2.845   4.590
 2153TIP3    H2 6424   4.696   2.976   4.663
 2154TIP3   OH2 6425   5.097   3.119   3.441
 2154TIP3    H1 6426   5.172   3.139   3.497
 2154TIP3    H2 6427   5.078   3.027   3.457
 2155TIP3   OH2 6428   1.000   1.183   0.713
 2155TIP3    H1 6429   1.048   1.135   0.646
 2155TIP3    H2 6430   0.929   1.124   0.738
 2156TIP3   OH2 6431   0.352   6.367   5.190
 2156TIP3    H1 6432   0.390   6.331   5.270
 2156TIP3    H2 6433   0.287   6.301   5.164
 2157TIP3   OH2 6434   2.944   1.928   4.499
 2157TIP3    H1 6435   2.887   1.873   4.553
 2157TIP3    H2 6436   2.907   1.922   4.411
 2158TIP3   OH2 6437   3.036   1.259   2.367
 2158TIP3    H1 6438   3.034   1.165   2.387
 2158TIP3    H2 6439   3.015   1.264   2.273
 2159TIP3   OH2 6440   6.727   5.187   1.801
 2159TIP3    H1 6441   6.792   5.119   1.783
 2159TIP3    H2 6442   6.645   5.139   1.814
 2160TIP3   OH2 6443   6.823   3.520   4.262
 2160TIP3    H1 6444   6.737   3.531   4.302
 2160TIP3    H2 6445   6.885   3.522   4.335
 2161TIP3   OH2 6446   5.987   2.412   5.111
 2161TIP3    H1 6447   6.000   2.457   5.194
 2161TIP3    H2 6448   5.913   2.457   5.070
 2162TIP3   OH2 6449   2.371   1.924   4.681
 2162TIP3    H1 6450   2.451   1.972   4.661
 2162TIP3    H2 6451   2.320   1.927   4.600
 2163TIP3   OH2 6452   5.541   2.250   0.102
 2163TIP3    H1 6453   5.492   2.278   0.025
 2163TIP3    H2 6454   5.518   2.314   0.170
 2164TIP3   OH2 6455   1.128   4.835   3.162
 2164TIP3    H1 6456   1.099   4.905   3.222
 2164TIP3    H2 6457   1.102   4.754   3.206
 2165TIP3   OH2 6458   4.512   3.380   2.647
 2165TIP3    H1 6459   4.601   3.405   2.623
 2165TIP3    H2 6460   4.485   3.445   2.712
 2166TIP3   OH2 6461   2.389   5.851   3.535
 2166TIP3    H1 6462   2.339   5.770   3.532
 2166TIP3    H2 6463   2.373   5.892   3.450
 2167TIP3   OH2 6464   5.644   5.523   0.642
 2167TIP3    H1 6465   5.598   5.454   0.691
 2167TIP3    H2 6466   5.702   5.563   0.707
 2168TIP3   OH2 6467   5.366   1.059   2.211
 2168TIP3    H1 6468   5.418   1.120   2.264
 2168TIP3    H2 6469   5.380   0.974   2.252
 2169TIP3   OH2 6470   2.402   2.694   4.665
 2169TIP3    H1 6471   2.481   2.746   4.680
 2169TIP3    H2 6472   2.330   2.754   4.682
 2170TIP3   OH2 6473   4.522   6.261   4.154
 2170TIP3    H1 6474   4.605   6.270   4.200
 2170TIP3    H2 6475   4.460   6.313   4.205
 2171TIP3   OH2 6476   6.989   1.054   4.270
 2171TIP3    H1 6477   7.001   1.080   4.361
 2171TIP3    H2 6478   6.959   1.134   4.226
 2172TIP3   OH2 6479   1.493   1.449   2.532
 2172TIP3    H1 6480   1.581   1.417   2.514
 2172TIP3    H2 6481   1.470   1.500   2.454
 2173TIP3   OH2 6482   7.059   4.714   3.671
 2173TIP3    H1 6483   7.110   4.730   3.592
 2173TIP3    H2 6484   6.987   4.658   3.642
 2174TIP3   OH2 6485   6.264   0.870   0.679
 2174TIP3    H1 6486   6.344   0.922   0.682
 2174TIP3    H2 6487   6.238   0.872   0.587
 2175TIP3   OH2 6488   4.711   1.286   0.855
 2175TIP3    H1 6489   4.648   1.350   0.888
 2175TIP3    H2 6490   4.694   1.206   0.905
 2176TIP3   OH2 6491   4.541   6.785   2.916
 2176TIP3    H1 6492   4.473   6.822   2.860
 2176TIP3    H2 6493   4.497   6.713   2.962
 2177TIP3   OH2 6494   0.644   1.950   3.144
 2177TIP3    H1 6495   0.729   1.947   3.190
 2177TIP3    H2 6496   0.616   2.041   3.153
 2178TIP3   OH2 6497   2.850   0.212   2.406
 2178TIP3    H1 6498   2.854   0.197   2.501
 2178TIP3    H2 6499   2.938   0.242   2.383
 2179TIP3   OH2 6500   5.736   6.250   2.098
 2179TIP3    H1 6501   5.732   6.195   2.020
 2179TIP3    H2 6502   5.824   6.237   2.132
 2180TIP3   OH2 6503   1.426   6.746   2.705
 2180TIP3    H1 6504   1.439   6.814   2.638
 2180TIP3    H2 6505   1.389   6.672   2.656
 2181TIP3   OH2 6506   6.945   2.479   3.762
 2181TIP3    H1 6507   6.855   2.506   3.782
 2181TIP3    H2 6508   6.936   2.411   3.695
 2182TIP3   OH2 6509   3.973   2.400   4.072
 2182TIP3    H1 6510   4.036   2.472   4.066
 2182TIP3    H2 6511   3.888   2.443   4.084
 2183TIP3   OH2 6512   5.355   0.611   3.958
 2183TIP3    H1 6513   5.398   0.525   3.964
 2183TIP3    H2 6514   5.312   0.622   4.043
 2184TIP3   OH2 6515   6.682   2.955   1.037
 2184TIP3    H1 6516   6.678   2.906   1.120
 2184TIP3    H2 6517   6.703   3.044   1.063
 2185TIP3   OH2 6518   1.992   0.529   5.907
 2185TIP3    H1 6519   1.988   0.613   5.862
 2185TIP3    H2 6520   2.000   0.464   5.837
 2186TIP3   OH2 6521   5.235   6.400   3.000
 2186TIP3    H1 6522   5.329   6.412   2.994
 2186TIP3    H2 6523   5.218   6.318   2.953
 2187TIP3   OH2 6524   2.331   1.649   0.904
 2187TIP3    H1 6525   2.375   1.673   0.823
 2187TIP3    H2 6526   2.248   1.610   0.876
 2188TIP3   OH2 6527   3.492   0.919   5.393
 2188TIP3    H1 6528   3.462   0.849   5.452
 2188TIP3    H2 6529   3.418   0.981   5.391
 2189TIP3   OH2 6530   4.381   5.111   3.326
 2189TIP3    H1 6531   4.402   5.194   3.368
 2189TIP3    H2 6532   4.328   5.135   3.250
 2190TIP3   OH2 6533   6.201   5.980   5.070
 2190TIP3    H1 6534   6.237   5.891   5.073
 2190TIP3    H2 6535   6.125   5.972   5.011
 2191TIP3   OH2 6536   0.748   3.236   0.817
 2191TIP3    H1 6537   0.802   3.306   0.781
 2191TIP3    H2 6538   0.674   3.281   0.858
 2192TIP3   OH2 6539   1.318   2.131   1.693
 2192TIP3    H1 6540   1.324   2.140   1.598
 2192TIP3    H2 6541   1.397   2.173   1.727
 2193TIP3   OH2 6542   5.978   2.934   3.818
 2193TIP3    H1 6543   5.947   2.982   3.741
 2193TIP3    H2 6544   5.900   2.892   3.853
 2194TIP3   OH2 6545   1.942   3.611   5.446
 2194TIP3    H1 6546   1.966   3.520   5.465
 2194TIP3    H2 6547   2.020   3.648   5.405
 2195TIP3   OH2 6548   6.904   4.680   1.205
 2195TIP3    H1 6549   6.988   4.677   1.159
 2195TIP3    H2 6550   6.881   4.773   1.206
 2196TIP3   OH2 6551   4.591   4.596   4.742
 2196TIP3    H1 6552   4.560   4.506   4.751
 2196TIP3    H2 6553   4.519   4.649   4.776
 2197TIP3   OH2 6554   5.669   3.577   4.105
 2197TIP3    H1 6555   5.692   3.669   4.092
 2197TIP3    H2 6556   5.733   3.528   4.054
 2198TIP3   OH2 6557   4.337   5.540   1.544
 2198TIP3    H1 6558   4.370   5.476   1.481
 2198TIP3    H2 6559   4.242   5.542   1.529
 2199TIP3   OH2 6560   1.726   1.267   2.165
 2199TIP3    H1 6561   1.703   1.293   2.076
 2199TIP3    H2 6562   1.792   1.331   2.191
 2200TIP3   OH2 6563   5.593   0.289   5.193
 2200TIP3    H1 6564   5.522   0.226   5.206
 2200TIP3    H2 6565   5.620   0.276   5.102
 2201TIP3   OH2 6566   4.648   4.491   2.548
 2201TIP3    H1 6567   4.636   4.403   2.584
 2201TIP3    H2 6568   4.559   4.526   2.540
 2202TIP3   OH2 6569   6.953   1.441   4.566
 2202TIP3    H1 6570   6.962   1.478   4.478
 2202TIP3    H2 6571   6.989   1.508   4.623
 2203TIP3   OH2 6572   5.728   0.593   3.873
 2203TIP3    H1 6573   5.824   0.596   3.873
 2203TIP3    H2 6574   5.706   0.511   3.917
 2204TIP3   OH2 6575   2.375   1.695   3.774
 2204TIP3    H1 6576   2.415   1.772   3.815
 2204TIP3    H2 6577   2.287   1.692   3.811
 2205TIP3   OH2 6578   3.830   3.310   0.734
 2205TIP3    H1 6579   3.753   3.364   0.716
 2205TIP3    H2 6580   3.802   3.221   0.715
 2206TIP3   OH2 6581   4.735   3.077   2.917
 2206TIP3    H1 6582   4.757   3.014   2.986
 2206TIP3    H2 6583   4.665   3.131   2.955
 2207TIP3   OH2 6584   5.856   5.693   0.531
 2207TIP3    H1 6585   5.886   5.684   0.621
 2207TIP3    H2 6586   5.880   5.611   0.489
 2208TIP3   OH2 6587   5.805   3.948   3.092
 2208TIP3    H1 6588   5.722   3.916   3.057
 2208TIP3    H2 6589   5.830   4.019   3.032
 2209TIP3   OH2 6590   0.037   1.613   5.621
 2209TIP3    H1 6591   0.062   1.520   5.616
 2209TIP3    H2 6592   0.106   1.653   5.674
 2210TIP3   OH2 6593   3.506   2.260   0.562
 2210TIP3    H1 6594   3.538   2.193   0.623
 2210TIP3    H2 6595   3.583   2.312   0.541
 2211TIP3   OH2 6596   6.158   5.834   4.172
 2211TIP3    H1 6597   6.174   5.771   4.101
 2211TIP3    H2 6598   6.114   5.907   4.129
 2212TIP3   OH2 6599   0.320   4.465   5.893
 2212TIP3    H1 6600   0.351   4.497   5.808
 2212TIP3    H2 6601   0.245   4.410   5.871
 2213TIP3   OH2 6602   6.927   5.450   5.886
 2213TIP3    H1 6603   6.993   5.445   5.816
 2213TIP3    H2 6604   6.875   5.527   5.864
 2214TIP3   OH2 6605   3.203   1.834   1.572
 2214TIP3    H1 6606   3.273   1.815   1.635
 2214TIP3    H2 6607   3.191   1.928   1.576
 2215TIP3   OH2 6608   0.398   3.295   4.462
 2215TIP3    H1 6609   0.489   3.313   4.485
 2215TIP3    H2 6610   0.347   3.323   4.538
 2216TIP3   OH2 6611   5.052   0.072   5.074
 2216TIP3    H1 6612   5.060   0.024   4.991
 2216TIP3    H2 6613   5.061   0.164   5.049
 2217TIP3   OH2 6614   5.512   1.008   4.143
 2217TIP3    H1 6615   5.560   1.090   4.143
 2217TIP3    H2 6616   5.435   1.025   4.196
 2218TIP3   OH2 6617   4.111   1.111   2.716
 2218TIP3    H1 6618   4.166   1.034   2.702
 2218TIP3    H2 6619   4.149   1.178   2.659
 2219TIP3   OH2 6620   2.194   4.213   3.298
 2219TIP3    H1 6621   2.274   4.176   3.261
 2219TIP3    H2 6622   2.128   4.198   3.230
 2220TIP3   OH2 6623   6.059   3.886   3.990
 2220TIP3    H1 6624   6.105   3.968   4.003
 2220TIP3    H2 6625   6.126   3.818   4.003
 2221TIP3   OH2 6626   3.097   4.988   2.807
 2221TIP3    H1 6627   3.075   4.898   2.832
 2221TIP3    H2 6628   3.027   5.014   2.746
 2222TIP3   OH2 6629   0.932   1.948   5.716
 2222TIP3    H1 6630   0.998   1.897   5.764
 2222TIP3    H2 6631   0.857   1.951   5.775
 2223TIP3   OH2 6632   4.183   4.770   2.982
 2223TIP3    H1 6633   4.245   4.732   3.045
 2223TIP3    H2 6634   4.234   4.783   2.903
 2224TIP3   OH2 6635   3.823   5.904   2.394
 2224TIP3    H1 6636   3.763   5.838   2.359
 2224TIP3    H2 6637   3.835   5.878   2.485
 2225TIP3   OH2 6638   1.070   4.123   4.608
 2225TIP3    H1 6639   1.070   4.106   4.702
 2225TIP3    H2 6640   1.162   4.139   4.586
 2226TIP3   OH2 6641   1.028   2.799   5.887
 2226TIP3    H1 6642   0.944   2.753   5.886
 2226TIP3    H2 6643   1.071   2.772   5.806
 2227TIP3   OH2 6644   3.959   1.652   0.694
 2227TIP3    H1 6645   3.985   1.740   0.665
 2227TIP3    H2 6646   3.988   1.648   0.785
 2228TIP3   OH2 6647   4.717   4.507   2.836
 2228TIP3    H1 6648   4.791   4.531   2.782
 2228TIP3    H2 6649   4.649   4.480   2.774
 2229TIP3   OH2 6650   5.042   5.811   4.210
 2229TIP3    H1 6651   4.979   5.741   4.226
 2229TIP3    H2 6652   5.118   5.788   4.263
 2230TIP3   OH2 6653   2.820   5.546   2.265
 2230TIP3    H1 6654   2.740   5.586   2.298
 2230TIP3    H2 6655   2.812   5.549   2.170
 2231TIP3   OH2 6656   3.403   5.196   1.031
 2231TIP3    H1 6657   3.451   5.220   1.110
 2231TIP3    H2 6658   3.396   5.277   0.981
 2232TIP3   OH2 6659   2.610   6.170   3.643
 2232TIP3    H1 6660   2.517   6.165   3.622
 2232TIP3    H2 6661   2.655   6.148   3.562
 2233TIP3   OH2 6662   0.249   1.844   0.364
 2233TIP3    H1 6663   0.244   1.752   0.390
 2233TIP3    H2 6664   0.317   1.847   0.297
 2234TIP3   OH2 6665   7.019   5.084   4.466
 2234TIP3    H1 6666   7.011   5.039   4.551
 2234TIP3    H2 6667   6.944   5.053   4.416
 2235TIP3   OH2 6668   5.100   4.799   0.060
 2235TIP3    H1 6669   5.131   4.709   0.069
 2235TIP3    H2 6670   5.092   4.812  -0.035
 2236TIP3   OH2 6671   2.615   5.583   5.406
 2236TIP3    H1 6672   2.566   5.636   5.343
 2236TIP3    H2 6673   2.650   5.646   5.469
 2237TIP3   OH2 6674   1.087   3.221   3.269
 2237TIP3    H1 6675   1.064   3.312   3.250
 2237TIP3    H2 6676   1.140   3.226   3.349
 2238TIP3   OH2 6677   7.003   4.889   0.122
 2238TIP3    H1 6678   6.931   4.936   0.079
 2238TIP3    H2 6679   6.959   4.825   0.178
 2239TIP3   OH2 6680   1.161   2.473   5.886
 2239TIP3    H1 6681   1.192   2.460   5.797
 2239TIP3    H2 6682   1.067   2.488   5.877
 2240TIP3   OH2 6683   5.970   5.399   2.677
 2240TIP3    H1 6684   6.003   5.362   2.759
 2240TIP3    H2 6685   6.023   5.358   2.609
 2241TIP3   OH2 6686   5.659   2.252   4.895
 2241TIP3    H1 6687   5.564   2.251   4.894
 2241TIP3    H2 6688   5.683   2.215   4.980
 2242TIP3   OH2 6689   0.211   4.249   2.879
 2242TIP3    H1 6690   0.252   4.214   2.800
 2242TIP3    H2 6691   0.247   4.337   2.888
 2243TIP3   OH2 6692   6.132   4.088   3.116
 2243TIP3    H1 6693   6.126   4.096   3.021
 2243TIP3    H2 6694   6.158   4.174   3.146
 2244TIP3   OH2 6695   4.653   1.877   2.863
 2244TIP3    H1 6696   4.706   1.956   2.874
 2244TIP3    H2 6697   4.603   1.871   2.945
 2245TIP3   OH2 6698   5.177   5.197   2.076
 2245TIP3    H1 6699   5.192   5.201   2.171
 2245TIP3    H2 6700   5.089   5.159   2.068
 2246TIP3   OH2 6701   2.860   4.603   2.901
 2246TIP3    H1 6702   2.840   4.601   2.994
 2246TIP3    H2 6703   2.809   4.677   2.867
 2247TIP3   OH2 6704   3.972   3.584   4.373
 2247TIP3    H1 6705   3.877   3.595   4.365
 2247TIP3    H2 6706   3.994   3.517   4.308
 2248TIP3   OH2 6707   5.394   3.531   4.138
 2248TIP3    H1 6708   5.413   3.551   4.230
 2248TIP3    H2 6709   5.454   3.586   4.088
 2249TIP3   OH2 6710   3.903   1.323   4.973
 2249TIP3    H1 6711   3.981   1.339   5.026
 2249TIP3    H2 6712   3.850   1.264   5.026
 2250TIP3   OH2 6713   5.491   0.226   1.377
 2250TIP3    H1 6714   5.508   0.308   1.330
 2250TIP3    H2 6715   5.571   0.209   1.426
 2251TIP3   OH2 6716   1.334   6.812   2.224
 2251TIP3    H1 6717   1.369   6.759   2.152
 2251TIP3    H2 6718   1.282   6.751   2.276
 2252TIP3   OH2 6719   2.936   0.816   3.508
 2252TIP3    H1 6720   2.974   0.874   3.442
 2252TIP3    H2 6721   2.912   0.737   3.460
 2253TIP3   OH2 6722   3.930   1.853   3.457
 2253TIP3    H1 6723   3.863   1.876   3.392
 2253TIP3    H2 6724   3.911   1.909   3.532
 2254TIP3   OH2 6725   2.344   1.735   2.236
 2254TIP3    H1 6726   2.360   1.674   2.164
 2254TIP3    H2 6727   2.385   1.817   2.208
 2255TIP3   OH2 6728   0.603   1.856   2.323
 2255TIP3    H1 6729   0.572   1.874   2.234
 2255TIP3    H2 6730   0.693   1.826   2.312
 2256TIP3   OH2 6731   3.309   6.338   3.504
 2256TIP3    H1 6732   3.390   6.356   3.551
 2256TIP3    H2 6733   3.325   6.255   3.460
 2257TIP3   OH2 6734   1.157   3.643   0.237
 2257TIP3    H1 6735   1.121   3.714   0.291
 2257TIP3    H2 6736   1.135   3.563   0.285
 2258TIP3   OH2 6737   3.603   6.061   4.701
 2258TIP3    H1 6738   3.694   6.033   4.691
 2258TIP3    H2 6739   3.557   5.982   4.731
 2259TIP3   OH2 6740   2.231   4.260   2.334
 2259TIP3    H1 6741   2.324   4.241   2.323
 2259TIP3    H2 6742   2.194   4.179   2.369
 2260TIP3   OH2 6743   5.660   2.742   3.341
 2260TIP3    H1 6744   5.735   2.735   3.283
 2260TIP3    H2 6745   5.608   2.813   3.304
 2261TIP3   OH2 6746   1.456   3.888   1.514
 2261TIP3    H1 6747   1.492   3.961   1.463
 2261TIP3    H2 6748   1.426   3.825   1.449
 2262TIP3   OH2 6749   5.813   4.827   4.334
 2262TIP3    H1 6750   5.769   4.833   4.418
 2262TIP3    H2 6751   5.742   4.817   4.270
 2263TIP3   OH2 6752   2.996   3.097   0.136
 2263TIP3    H1 6753   2.904   3.120   0.124
 2263TIP3    H2 6754   3.001   3.066   0.226
 2264TIP3   OH2 6755   4.456   6.216   5.800
 2264TIP3    H1 6756   4.441   6.176   5.886
 2264TIP3    H2 6757   4.371   6.211   5.756
 2265TIP3   OH2 6758   0.197   3.412   0.282
 2265TIP3    H1 6759   0.290   3.424   0.298
 2265TIP3    H2 6760   0.175   3.330   0.326
 2266TIP3   OH2 6761   4.403   4.518   1.135
 2266TIP3    H1 6762   4.443   4.432   1.127
 2266TIP3    H2 6763   4.309   4.502   1.125
 2267TIP3   OH2 6764   5.633   3.572   5.008
 2267TIP3    H1 6765   5.560   3.574   5.070
 2267TIP3    H2 6766   5.613   3.500   4.948
 2268TIP3   OH2 6767   2.519   6.639   1.576
 2268TIP3    H1 6768   2.550   6.638   1.667
 2268TIP3    H2 6769   2.446   6.578   1.575
 2269TIP3   OH2 6770   1.358   0.998   5.374
 2269TIP3    H1 6771   1.452   0.991   5.393
 2269TIP3    H2 6772   1.350   1.075   5.318
 2270TIP3   OH2 6773   1.929   4.502   3.550
 2270TIP3    H1 6774   1.852   4.463   3.509
 2270TIP3    H2 6775   1.901   4.525   3.638
 2271TIP3   OH2 6776   2.482   2.073   1.670
 2271TIP3    H1 6777   2.497   2.110   1.583
 2271TIP3    H2 6778   2.432   1.993   1.654
 2272TIP3   OH2 6779   6.791   4.944   4.887
 2272TIP3    H1 6780   6.755   4.890   4.817
 2272TIP3    H2 6781   6.727   5.014   4.898
 2273TIP3   OH2 6782   0.887   1.083   3.425
 2273TIP3    H1 6783   0.823   1.054   3.361
 2273TIP3    H2 6784   0.970   1.051   3.393
 2274TIP3   OH2 6785   0.398   0.123   2.523
 2274TIP3    H1 6786   0.418   0.061   2.453
 2274TIP3    H2 6787   0.329   0.081   2.574
 2275TIP3   OH2 6788   1.278   2.173   0.363
 2275TIP3    H1 6789   1.314   2.186   0.451
 2275TIP3    H2 6790   1.329   2.232   0.307
 2276TIP3   OH2 6791   6.142   5.741   3.768
 2276TIP3    H1 6792   6.186   5.656   3.766
 2276TIP3    H2 6793   6.048   5.719   3.767
 2277TIP3   OH2 6794   1.863   2.881   2.511
 2277TIP3    H1 6795   1.929   2.815   2.489
 2277TIP3    H2 6796   1.845   2.926   2.428
 2278TIP3   OH2 6797   6.689   2.331   2.138
 2278TIP3    H1 6798   6.681   2.363   2.228
 2278TIP3    H2 6799   6.646   2.397   2.085
 2279TIP3   OH2 6800   0.771   6.139   2.462
 2279TIP3    H1 6801   0.749   6.057   2.505
 2279TIP3    H2 6802   0.714   6.204   2.503
 2280TIP3   OH2 6803   0.781   6.208   0.208
 2280TIP3    H1 6804   0.724   6.282   0.185
 2280TIP3    H2 6805   0.722   6.133   0.212
 2281TIP3   OH2 6806   0.862   1.803   1.033
 2281TIP3    H1 6807   0.842   1.876   1.092
 2281TIP3    H2 6808   0.853   1.725   1.088
 2282TIP3   OH2 6809   6.955   6.055   2.447
 2282TIP3    H1 6810   6.988   6.055   2.537
 2282TIP3    H2 6811   6.867   6.017   2.454
 2283TIP3   OH2 6812   4.327   1.372   1.651
 2283TIP3    H1 6813   4.378   1.291   1.639
 2283TIP3    H2 6814   4.258   1.366   1.585
 2284TIP3   OH2 6815   4.666   3.518   2.399
 2284TIP3    H1 6816   4.732   3.569   2.446
 2284TIP3    H2 6817   4.583   3.540   2.441
 2285TIP3   OH2 6818   5.128   1.212   0.222
 2285TIP3    H1 6819   5.222   1.216   0.237
 2285TIP3    H2 6820   5.118   1.159   0.143
 2286TIP3   OH2 6821   4.179   4.468   2.933
 2286TIP3    H1 6822   4.098   4.478   2.984
 2286TIP3    H2 6823   4.233   4.543   2.958
 2287TIP3   OH2 6824   0.076   1.324   3.661
 2287TIP3    H1 6825   0.023   1.385   3.712
 2287TIP3    H2 6826   0.165   1.356   3.671
 2288TIP3   OH2 6827   1.604   1.243   3.295
 2288TIP3    H1 6828   1.632   1.224   3.205
 2288TIP3    H2 6829   1.611   1.338   3.303
 2289TIP3   OH2 6830   5.300   2.351   4.370
 2289TIP3    H1 6831   5.228   2.339   4.309
 2289TIP3    H2 6832   5.377   2.363   4.314
 2290TIP3   OH2 6833   0.697   5.393   0.678
 2290TIP3    H1 6834   0.718   5.476   0.721
 2290TIP3    H2 6835   0.614   5.366   0.718
 2291TIP3   OH2 6836   3.646   4.131   1.143
 2291TIP3    H1 6837   3.656   4.123   1.238
 2291TIP3    H2 6838   3.708   4.066   1.108
 2292TIP3   OH2 6839   3.831   0.370   1.275
 2292TIP3    H1 6840   3.792   0.328   1.199
 2292TIP3    H2 6841   3.924   0.377   1.254
 2293TIP3   OH2 6842   0.010   5.426   1.452
 2293TIP3    H1 6843  -0.046   5.429   1.374
 2293TIP3    H2 6844   0.074   5.357   1.433
 2294TIP3   OH2 6845   5.423   1.995   0.118
 2294TIP3    H1 6846   5.428   1.969   0.210
 2294TIP3    H2 6847   5.465   2.081   0.115
 2295TIP3   OH2 6848   1.217   4.481   4.569
 2295TIP3    H1 6849   1.218   4.411   4.635
 2295TIP3    H2 6850   1.308   4.509   4.563
 2296TIP3   OH2 6851   5.917   2.633   1.422
 2296TIP3    H1 6852   5.899   2.712   1.473
 2296TIP3    H2 6853   5.839   2.579   1.434
 2297TIP3   OH2 6854   3.001   1.907   1.134
 2297TIP3    H1 6855   3.000   1.974   1.066
 2297TIP3    H2 6856   2.952   1.945   1.207
 2298TIP3   OH2 6857   2.176   6.144   2.323
 2298TIP3    H1 6858   2.203   6.065   2.276
 2298TIP3    H2 6859   2.085   6.158   2.298
 2299TIP3   OH2 6860   0.815   3.816   3.751
 2299TIP3    H1 6861   0.784   3.783   3.835
 2299TIP3    H2 6862   0.862   3.896   3.772
 2300TIP3   OH2 6863   2.308   1.933   5.789
 2300TIP3    H1 6864   2.266   1.900   5.709
 2300TIP3    H2 6865   2.240   1.985   5.832
 2301TIP3   OH2 6866   0.607   1.032   0.549
 2301TIP3    H1 6867   0.569   1.071   0.628
 2301TIP3    H2 6868   0.533   1.023   0.489
 2302TIP3   OH2 6869   0.421   5.965   0.564
 2302TIP3    H1 6870   0.414   5.884   0.515
 2302TIP3    H2 6871   0.454   5.938   0.650
 2303TIP3   OH2 6872   3.221   1.397   0.609
 2303TIP3    H1 6873   3.140   1.372   0.653
 2303TIP3    H2 6874   3.217   1.493   0.603
 2304TIP3   OH2 6875   1.620   5.293   0.413
 2304TIP3    H1 6876   1.695   5.332   0.369
 2304TIP3    H2 6877   1.564   5.368   0.434
 2305TIP3   OH2 6878   1.219   1.258   0.111
 2305TIP3    H1 6879   1.242   1.286   0.023
 2305TIP3    H2 6880   1.190   1.337   0.156
 2306TIP3   OH2 6881   0.660   2.215   1.313
 2306TIP3    H1 6882   0.662   2.239   1.406
 2306TIP3    H2 6883   0.593   2.272   1.275
 2307TIP3   OH2 6884   6.865   6.463   4.859
 2307TIP3    H1 6885   6.887   6.490   4.770
 2307TIP3    H2 6886   6.916   6.521   4.915
 2308TIP3   OH2 6887   3.037   6.661   4.555
 2308TIP3    H1 6888   3.033   6.634   4.646
 2308TIP3    H2 6889   2.952   6.702   4.538
 2309TIP3   OH2 6890   5.920   0.203   3.409
 2309TIP3    H1 6891   5.926   0.118   3.453
 2309TIP3    H2 6892   5.866   0.187   3.332
 2310TIP3   OH2 6893   0.621   6.184   4.818
 2310TIP3    H1 6894   0.575   6.134   4.885
 2310TIP3    H2 6895   0.589   6.149   4.735
 2311TIP3   OH2 6896   6.258   6.249   0.042
 2311TIP3    H1 6897   6.283   6.237   0.134
 2311TIP3    H2 6898   6.172   6.207   0.035
 2312TIP3   OH2 6899   0.306   4.477   0.674
 2312TIP3    H1 6900   0.220   4.520   0.676
 2312TIP3    H2 6901   0.353   4.515   0.748
 2313TIP3   OH2 6902   1.600   2.652   3.681
 2313TIP3    H1 6903   1.614   2.681   3.771
 2313TIP3    H2 6904   1.605   2.732   3.629
 2314TIP3   OH2 6905   0.898   0.568   5.155
 2314TIP3    H1 6906   0.858   0.560   5.068
 2314TIP3    H2 6907   0.884   0.482   5.195
 2315TIP3   OH2 6908   1.482   1.275   0.947
 2315TIP3    H1 6909   1.481   1.233   1.032
 2315TIP3    H2 6910   1.487   1.203   0.884
 2316TIP3   OH2 6911   0.178   3.647   0.019
 2316TIP3    H1 6912   0.266   3.637   0.056
 2316TIP3    H2 6913   0.194   3.668  -0.073
 2317TIP3   OH2 6914   5.076   4.075   4.144
 2317TIP3    H1 6915   5.115   3.991   4.168
 2317TIP3    H2 6916   5.120   4.100   4.062
 2318TIP3   OH2 6917   4.647   4.273   4.211
 2318TIP3    H1 6918   4.735   4.309   4.222
 2318TIP3    H2 6919   4.646   4.240   4.121
 2319TIP3   OH2 6920   6.479   3.858   4.543
 2319TIP3    H1 6921   6.518   3.862   4.631
 2319TIP3    H2 6922   6.420   3.783   4.546
 2320TIP3   OH2 6923   1.420   5.825   3.383
 2320TIP3    H1 6924   1.484   5.891   3.357
 2320TIP3    H2 6925   1.346   5.838   3.324
 2321TIP3   OH2 6926   3.440   4.572   0.807
 2321TIP3    H1 6927   3.514   4.608   0.759
 2321TIP3    H2 6928   3.456   4.478   0.812
 2322TIP3   OH2 6929   0.588   4.677   2.425
 2322TIP3    H1 6930   0.602   4.765   2.390
 2322TIP3    H2 6931   0.555   4.626   2.351
 2323TIP3   OH2 6932   2.019   4.014   3.980
 2323TIP3    H1 6933   1.994   4.061   4.060
 2323TIP3    H2 6934   1.958   3.940   3.975
 2324TIP3   OH2 6935   4.451   4.713   0.202
 2324TIP3    H1 6936   4.521   4.686   0.143
 2324TIP3    H2 6937   4.382   4.746   0.144
 2325TIP3   OH2 6938   2.770   2.596   2.955
 2325TIP3    H1 6939   2.810   2.512   2.931
 2325TIP3    H2 6940   2.797   2.610   3.045
 2326TIP3   OH2 6941   1.377   2.588   5.227
 2326TIP3    H1 6942   1.314   2.569   5.296
 2326TIP3    H2 6943   1.447   2.638   5.270
 2327TIP3   OH2 6944   6.164   0.629   0.763
 2327TIP3    H1 6945   6.232   0.576   0.805
 2327TIP3    H2 6946   6.208   0.709   0.737
 2328TIP3   OH2 6947   3.914   4.945   2.483
 2328TIP3    H1 6948   3.992   4.995   2.461
 2328TIP3    H2 6949   3.875   4.993   2.556
 2329TIP3   OH2 6950   1.096   1.461   5.833
 2329TIP3    H1 6951   1.123   1.487   5.745
 2329TIP3    H2 6952   1.001   1.471   5.834
 2330TIP3   OH2 6953   5.462   4.301   2.142
 2330TIP3    H1 6954   5.395   4.234   2.132
 2330TIP3    H2 6955   5.543   4.258   2.116
 2331TIP3   OH2 6956   0.113   1.603   4.580
 2331TIP3    H1 6957   0.064   1.543   4.636
 2331TIP3    H2 6958   0.143   1.672   4.639
 2332TIP3   OH2 6959   2.111   1.945   3.438
 2332TIP3    H1 6960   2.090   1.997   3.360
 2332TIP3    H2 6961   2.151   1.865   3.404
 2333TIP3   OH2 6962   3.437   6.315   1.391
 2333TIP3    H1 6963   3.374   6.245   1.406
 2333TIP3    H2 6964   3.383   6.394   1.387
 2334TIP3   OH2 6965   4.822   6.077   1.510
 2334TIP3    H1 6966   4.876   6.007   1.474
 2334TIP3    H2 6967   4.755   6.033   1.562
 2335TIP3   OH2 6968   2.103   6.236   5.321
 2335TIP3    H1 6969   2.097   6.175   5.248
 2335TIP3    H2 6970   2.104   6.323   5.280
 2336TIP3   OH2 6971   1.235   4.257   0.674
 2336TIP3    H1 6972   1.293   4.188   0.642
 2336TIP3    H2 6973   1.181   4.280   0.598
 2337TIP3   OH2 6974   0.816   6.029   2.218
 2337TIP3    H1 6975   0.801   6.077   2.300
 2337TIP3    H2 6976   0.909   6.045   2.198
 2338TIP3   OH2 6977   5.134   1.409   1.154
 2338TIP3    H1 6978   5.063   1.365   1.108
 2338TIP3    H2 6979   5.091   1.459   1.223
 2339TIP3   OH2 6980   6.834   1.878   0.273
 2339TIP3    H1 6981   6.915   1.827   0.263
 2339TIP3    H2 6982   6.859   1.952   0.327
 2340TIP3   OH2 6983   2.589   4.558   2.136
 2340TIP3    H1 6984   2.606   4.485   2.076
 2340TIP3    H2 6985   2.572   4.632   2.079
 2341TIP3   OH2 6986   6.857   6.329   4.202
 2341TIP3    H1 6987   6.921   6.361   4.138
 2341TIP3    H2 6988   6.785   6.295   4.149
 2342TIP3   OH2 6989   3.593   5.008   0.996
 2342TIP3    H1 6990   3.516   5.063   1.008
 2342TIP3    H2 6991   3.666   5.060   1.029
 2343TIP3   OH2 6992   0.509   2.512   2.282
 2343TIP3    H1 6993   0.581   2.485   2.225
 2343TIP3    H2 6994   0.552   2.548   2.359
 2344TIP3   OH2 6995   6.805   1.212   2.411
 2344TIP3    H1 6996   6.802   1.147   2.342
 2344TIP3    H2 6997   6.767   1.169   2.487
 2345TIP3   OH2 6998   6.369   6.752   5.119
 2345TIP3    H1 6999   6.303   6.684   5.114
 2345TIP3    H2 7000   6.321   6.834   5.104
 2346TIP3   OH2 7001   3.373   1.427   3.208
 2346TIP3    H1 7002   3.436   1.383   3.151
 2346TIP3    H2 7003   3.416   1.430   3.293
 2347TIP3   OH2 7004   2.137   2.176   3.600
 2347TIP3    H1 7005   2.045   2.178   3.626
 2347TIP3    H2 7006   2.154   2.084   3.580
 2348TIP3   OH2 7007   3.787   3.670   3.365
 2348TIP3    H1 7008   3.824   3.676   3.453
 2348TIP3    H2 7009   3.734   3.590   3.367
 2349TIP3   OH2 7010   1.077   2.572   0.509
 2349TIP3    H1 7011   1.000   2.578   0.452
 2349TIP3    H2 7012   1.146   2.537   0.453
 2350TIP3   OH2 7013   4.106   1.582   5.102
 2350TIP3    H1 7014   4.110   1.492   5.135
 2350TIP3    H2 7015   4.112   1.572   5.006
 2351TIP3   OH2 7016   3.079   0.383   3.918
 2351TIP3    H1 7017   2.993   0.418   3.895
 2351TIP3    H2 7018   3.107   0.435   3.992
 2352TIP3   OH2 7019   3.865   2.338   3.775
 2352TIP3    H1 7020   3.955   2.307   3.764
 2352TIP3    H2 7021   3.819   2.264   3.815
 2353TIP3   OH2 7022   0.309   3.235   1.960
 2353TIP3    H1 7023   0.373   3.228   2.030
 2353TIP3    H2 7024   0.260   3.315   1.980
 2354TIP3   OH2 7025   6.841   5.293   4.981
 2354TIP3    H1 7026   6.850   5.268   5.073
 2354TIP3    H2 7027   6.879   5.380   4.975
 2355TIP3   OH2 7028   2.581   3.329   3.736
 2355TIP3    H1 7029   2.549   3.309   3.825
 2355TIP3    H2 7030   2.582   3.244   3.692
 2356TIP3   OH2 7031   2.577   6.214   2.139
 2356TIP3    H1 7032   2.559   6.287   2.197
 2356TIP3    H2 7033   2.498   6.205   2.085
 2357TIP3   OH2 7034   4.765   2.873   2.175
 2357TIP3    H1 7035   4.717   2.823   2.241
 2357TIP3    H2 7036   4.699   2.931   2.136
 2358TIP3   OH2 7037   3.802   3.742   0.941
 2358TIP3    H1 7038   3.734   3.791   0.987
 2358TIP3    H2 7039   3.757   3.704   0.865
 2359TIP3   OH2 7040   0.193   6.521   1.558
 2359TIP3    H1 7041   0.127   6.584   1.588
 2359TIP3    H2 7042   0.229   6.486   1.639
 2360TIP3   OH2 7043   0.014   3.967   0.413
 2360TIP3    H1 7044   0.065   3.904   0.362
 2360TIP3    H2 7045   0.037   3.947   0.504
 2361TIP3   OH2 7046   6.612   1.382   3.107
 2361TIP3    H1 7047   6.624   1.429   3.189
 2361TIP3    H2 7048   6.689   1.404   3.055
 2362TIP3   OH2 7049   2.428   0.539   5.582
 2362TIP3    H1 7050   2.489   0.587   5.639
 2362TIP3    H2 7051   2.343   0.581   5.597
 2363TIP3   OH2 7052   5.613   2.917   1.801
 2363TIP3    H1 7053   5.649   3.005   1.815
 2363TIP3    H2 7054   5.688   2.858   1.809
 2364TIP3   OH2 7055   7.083   6.048   4.920
 2364TIP3    H1 7056   7.138   6.126   4.916
 2364TIP3    H2 7057   6.994   6.081   4.909
 2365TIP3   OH2 7058   0.366   0.588   3.515
 2365TIP3    H1 7059   0.371   0.514   3.455
 2365TIP3    H2 7060   0.455   0.624   3.517
 2366TIP3   OH2 7061   0.497   2.198   4.751
 2366TIP3    H1 7062   0.489   2.215   4.845
 2366TIP3    H2 7063   0.409   2.175   4.723
 2367TIP3   OH2 7064   3.597   4.203   0.489
 2367TIP3    H1 7065   3.528   4.228   0.428
 2367TIP3    H2 7066   3.598   4.107   0.486
 2368TIP3   OH2 7067   0.074   5.638   1.637
 2368TIP3    H1 7068   0.018   5.563   1.618
 2368TIP3    H2 7069   0.143   5.633   1.571
 2369TIP3   OH2 7070   5.582   4.801   4.171
 2369TIP3    H1 7071   5.537   4.836   4.248
 2369TIP3    H2 7072   5.531   4.833   4.097
 2370TIP3   OH2 7073   0.316   5.859   4.362
 2370TIP3    H1 7074   0.236   5.826   4.403
 2370TIP3    H2 7075   0.308   5.954   4.367
 2371TIP3   OH2 7076   3.323   4.269   0.963
 2371TIP3    H1 7077   3.283   4.193   1.006
 2371TIP3    H2 7078   3.350   4.236   0.878
 2372TIP3   OH2 7079   2.077   5.530   2.822
 2372TIP3    H1 7080   2.105   5.543   2.913
 2372TIP3    H2 7081   1.981   5.526   2.828
 2373TIP3   OH2 7082   1.582   0.253   3.533
 2373TIP3    H1 7083   1.490   0.224   3.530
 2373TIP3    H2 7084   1.601   0.279   3.443
 2374TIP3   OH2 7085   4.908   1.772   4.901
 2374TIP3    H1 7086   4.871   1.803   4.984
 2374TIP3    H2 7087   4.837   1.722   4.861
 2375TIP3   OH2 7088   0.752   6.362   1.898
 2375TIP3    H1 7089   0.749   6.273   1.863
 2375TIP3    H2 7090   0.754   6.418   1.820
 2376TIP3   OH2 7091   4.337   3.849   5.716
 2376TIP3    H1 7092   4.243   3.831   5.719
 2376TIP3    H2 7093   4.345   3.939   5.747
 2377TIP3   OH2 7094   3.559   6.753   1.971
 2377TIP3    H1 7095   3.549   6.715   1.884
 2377TIP3    H2 7096   3.577   6.846   1.955
 2378TIP3   OH2 7097   0.435   1.395   0.614
 2378TIP3    H1 7098   0.408   1.365   0.700
 2378TIP3    H2 7099   0.489   1.472   0.631
 2379TIP3   OH2 7100   2.207   5.350   1.276
 2379TIP3    H1 7101   2.261   5.429   1.273
 2379TIP3    H2 7102   2.122   5.380   1.309
 2380TIP3   OH2 7103   5.631   2.661   1.056
 2380TIP3    H1 7104   5.625   2.742   1.106
 2380TIP3    H2 7105   5.606   2.686   0.967
 2381TIP3   OH2 7106   2.342   2.946   1.776
 2381TIP3    H1 7107   2.397   3.015   1.812
 2381TIP3    H2 7108   2.253   2.977   1.790
 2382TIP3   OH2 7109   6.878   2.101   0.426
 2382TIP3    H1 7110   6.934   2.167   0.385
 2382TIP3    H2 7111   6.811   2.153   0.472
 2383TIP3   OH2 7112   6.164   1.237   2.449
 2383TIP3    H1 7113   6.200   1.149   2.433
 2383TIP3    H2 7114   6.139   1.269   2.362
 2384TIP3   OH2 7115   0.884   1.196   2.297
 2384TIP3    H1 7116   0.927   1.112   2.310
 2384TIP3    H2 7117   0.855   1.194   2.206
 2385TIP3   OH2 7118   3.165   1.666   0.665
 2385TIP3    H1 7119   3.186   1.749   0.623
 2385TIP3    H2 7120   3.143   1.690   0.755
 2386TIP3   OH2 7121   1.731   4.237   3.580
 2386TIP3    H1 7122   1.730   4.169   3.513
 2386TIP3    H2 7123   1.814   4.225   3.626
 2387TIP3   OH2 7124   1.159   6.382   3.989
 2387TIP3    H1 7125   1.240   6.342   4.020
 2387TIP3    H2 7126   1.100   6.376   4.064
 2388TIP3   OH2 7127   6.378   3.788   5.312
 2388TIP3    H1 7128   6.337   3.858   5.361
 2388TIP3    H2 7129   6.462   3.774   5.355
 2389TIP3   OH2 7130   2.034   3.323   4.422
 2389TIP3    H1 7131   2.096   3.363   4.360
 2389TIP3    H2 7132   2.033   3.382   4.497
 2390TIP3   OH2 7133   6.105   5.001   0.734
 2390TIP3    H1 7134   6.061   4.935   0.787
 2390TIP3    H2 7135   6.038   5.031   0.673
 2391TIP3   OH2 7136   5.289   2.042   2.887
 2391TIP3    H1 7137   5.311   2.119   2.834
 2391TIP3    H2 7138   5.267   2.077   2.973
 2392TIP3   OH2 7139   6.381   4.527   4.705
 2392TIP3    H1 7140   6.307   4.468   4.696
 2392TIP3    H2 7141   6.349   4.612   4.673
 2393TIP3   OH2 7142   3.783   4.033   4.195
 2393TIP3    H1 7143   3.704   4.031   4.142
 2393TIP3    H2 7144   3.851   3.997   4.138
 2394TIP3   OH2 7145   2.450   6.598   0.285
 2394TIP3    H1 7146   2.394   6.595   0.363
 2394TIP3    H2 7147   2.397   6.643   0.219
 2395TIP3   OH2 7148   6.444   3.810   0.929
 2395TIP3    H1 7149   6.462   3.885   0.872
 2395TIP3    H2 7150   6.494   3.828   1.009
 2396TIP3   OH2 7151   2.376   1.504   3.051
 2396TIP3    H1 7152   2.371   1.579   2.993
 2396TIP3    H2 7153   2.395   1.541   3.138
 2397TIP3   OH2 7154   1.410   2.523   4.015
 2397TIP3    H1 7155   1.496   2.543   4.054
 2397TIP3    H2 7156   1.368   2.609   4.005
 2398TIP3   OH2 7157   4.226   1.645   3.162
 2398TIP3    H1 7158   4.232   1.706   3.088
 2398TIP3    H2 7159   4.203   1.561   3.122
 2399TIP3   OH2 7160   4.740   6.221   1.863
 2399TIP3    H1 7161   4.712   6.282   1.795
 2399TIP3    H2 7162   4.700   6.253   1.944
 2400TIP3   OH2 7163   0.070   4.272   2.276
 2400TIP3    H1 7164   0.089   4.348   2.221
 2400TIP3    H2 7165   0.094   4.299   2.364
 2401TIP3   OH2 7166   2.076   5.126   3.396
 2401TIP3    H1 7167   2.110   5.204   3.352
 2401TIP3    H2 7168   1.981   5.131   3.385
 2402TIP3   OH2 7169   1.927   0.766   5.812
 2402TIP3    H1 7170   1.935   0.808   5.727
 2402TIP3    H2 7171   1.865   0.821   5.860
 2403TIP3   OH2 7172   0.825   4.840   4.658
 2403TIP3    H1 7173   0.793   4.759   4.697
 2403TIP3    H2 7174   0.913   4.819   4.627
 2404TIP3   OH2 7175   7.050   4.895   5.687
 2404TIP3    H1 7176   6.975   4.951   5.667
 2404TIP3    H2 7177   7.121   4.929   5.633
 2405TIP3   OH2 7178   7.195   5.883   5.763
 2405TIP3    H1 7179   7.133   5.949   5.730
 2405TIP3    H2 7180   7.167   5.867   5.853
 2406TIP3   OH2 7181   1.985   5.895   2.012
 2406TIP3    H1 7182   1.992   5.934   1.925
 2406TIP3    H2 7183   1.927   5.820   2.000
 2407TIP3   OH2 7184   3.225   0.604   2.636
 2407TIP3    H1 7185   3.314   0.627   2.609
 2407TIP3    H2 7186   3.236   0.561   2.721
 2408TIP3   OH2 7187   3.308   6.471   2.954
 2408TIP3    H1 7188   3.339   6.560   2.940
 2408TIP3    H2 7189   3.270   6.472   3.041
 2409TIP3   OH2 7190   1.265   4.880   0.039
 2409TIP3    H1 7191   1.344   4.826   0.043
 2409TIP3    H2 7192   1.234   4.869  -0.051
 2410TIP3   OH2 7193   6.132   4.302   5.655
 2410TIP3    H1 7194   6.182   4.340   5.728
 2410TIP3    H2 7195   6.138   4.208   5.669
 2411TIP3   OH2 7196   6.952   2.683   0.538
 2411TIP3    H1 7197   6.898   2.734   0.598
 2411TIP3    H2 7198   6.935   2.722   0.452
 2412TIP3   OH2 7199   1.430   4.507   4.209
 2412TIP3    H1 7200   1.479   4.576   4.253
 2412TIP3    H2 7201   1.339   4.536   4.212
 2413TIP3   OH2 7202   5.564   4.482   3.063
 2413TIP3    H1 7203   5.495   4.503   3.127
 2413TIP3    H2 7204   5.566   4.387   3.061
 2414TIP3   OH2 7205   1.646   1.879   4.738
 2414TIP3    H1 7206   1.733   1.915   4.720
 2414TIP3    H2 7207   1.641   1.801   4.683
 2415TIP3   OH2 7208   0.866   2.995   0.764
 2415TIP3    H1 7209   0.938   3.034   0.715
 2415TIP3    H2 7210   0.805   3.067   0.780
 2416TIP3   OH2 7211   1.264   2.306   2.965
 2416TIP3    H1 7212   1.318   2.228   2.960
 2416TIP3    H2 7213   1.262   2.328   3.058
 2417TIP3   OH2 7214   5.922   5.044   1.728
 2417TIP3    H1 7215   5.832   5.019   1.707
 2417TIP3    H2 7216   5.941   4.999   1.810
 2418TIP3   OH2 7217   1.830   3.816   1.295
 2418TIP3    H1 7218   1.893   3.799   1.226
 2418TIP3    H2 7219   1.800   3.906   1.279
 2419TIP3   OH2 7220   1.872   1.095   4.179
 2419TIP3    H1 7221   1.862   1.183   4.141
 2419TIP3    H2 7222   1.785   1.056   4.171
 2420TIP3   OH2 7223   6.422   4.901   0.445
 2420TIP3    H1 7224   6.444   4.840   0.375
 2420TIP3    H2 7225   6.495   4.894   0.507
 2421TIP3   OH2 7226   3.086   3.270   4.327
 2421TIP3    H1 7227   3.179   3.251   4.334
 2421TIP3    H2 7228   3.068   3.268   4.233
 2422TIP3   OH2 7229   2.423   6.177   5.285
 2422TIP3    H1 7230   2.382   6.258   5.255
 2422TIP3    H2 7231   2.517   6.197   5.286
 2423TIP3   OH2 7232   3.049   0.265   2.015
 2423TIP3    H1 7233   3.035   0.185   1.965
 2423TIP3    H2 7234   3.129   0.248   2.064
 2424TIP3   OH2 7235   0.652   2.438   5.198
 2424TIP3    H1 7236   0.736   2.478   5.176
 2424TIP3    H2 7237   0.656   2.351   5.159
 2425TIP3   OH2 7238   2.783   2.624   4.630
 2425TIP3    H1 7239   2.730   2.703   4.617
 2425TIP3    H2 7240   2.846   2.627   4.557
 2426TIP3   OH2 7241   3.192   4.011   5.038
 2426TIP3    H1 7242   3.238   3.972   5.113
 2426TIP3    H2 7243   3.254   4.002   4.965
 2427TIP3   OH2 7244   5.364   6.027   4.503
 2427TIP3    H1 7245   5.370   6.009   4.409
 2427TIP3    H2 7246   5.357   5.941   4.544
 2428TIP3   OH2 7247   6.125   3.268   0.197
 2428TIP3    H1 7248   6.203   3.309   0.158
 2428TIP3    H2 7249   6.067   3.342   0.217
 2429TIP3   OH2 7250   1.561   1.881   1.473
 2429TIP3    H1 7251   1.576   1.909   1.564
 2429TIP3    H2 7252   1.482   1.828   1.478
 2430TIP3   OH2 7253   0.581   1.238   2.203
 2430TIP3    H1 7254   0.601   1.267   2.292
 2430TIP3    H2 7255   0.506   1.180   2.213
 2431TIP3   OH2 7256   3.823   6.626   1.697
 2431TIP3    H1 7257   3.728   6.638   1.709
 2431TIP3    H2 7258   3.834   6.532   1.685
 2432TIP3   OH2 7259   0.067   3.851   5.067
 2432TIP3    H1 7260   0.039   3.821   4.980
 2432TIP3    H2 7261   0.083   3.945   5.056
 2433TIP3   OH2 7262   7.015   2.084   4.067
 2433TIP3    H1 7263   6.985   2.167   4.031
 2433TIP3    H2 7264   7.072   2.047   4.000
 2434TIP3   OH2 7265   4.259   2.860   3.366
 2434TIP3    H1 7266   4.337   2.822   3.325
 2434TIP3    H2 7267   4.294   2.923   3.429
 2435TIP3   OH2 7268   2.896   2.343   2.884
 2435TIP3    H1 7269   2.967   2.319   2.825
 2435TIP3    H2 7270   2.840   2.266   2.888
 2436TIP3   OH2 7271   2.216   2.889   5.371
 2436TIP3    H1 7272   2.243   2.838   5.294
 2436TIP3    H2 7273   2.122   2.900   5.361
 2437TIP3   OH2 7274   3.183   4.863   4.292
 2437TIP3    H1 7275   3.126   4.790   4.269
 2437TIP3    H2 7276   3.148   4.937   4.243
 2438TIP3   OH2 7277   6.701   0.287   2.415
 2438TIP3    H1 7278   6.756   0.208   2.411
 2438TIP3    H2 7279   6.624   0.264   2.363
 2439TIP3   OH2 7280   6.482   4.788   0.766
 2439TIP3    H1 7281   6.574   4.764   0.776
 2439TIP3    H2 7282   6.479   4.881   0.788
 2440TIP3   OH2 7283   2.849   5.701   2.546
 2440TIP3    H1 7284   2.825   5.794   2.544
 2440TIP3    H2 7285   2.766   5.655   2.556
 2441TIP3   OH2 7286   3.946   5.548   5.104
 2441TIP3    H1 7287   4.004   5.566   5.178
 2441TIP3    H2 7288   3.992   5.483   5.052
 2442TIP3   OH2 7289   0.813   2.312   3.587
 2442TIP3    H1 7290   0.875   2.242   3.607
 2442TIP3    H2 7291   0.818   2.322   3.492
 2443TIP3   OH2 7292   5.356   5.015   5.741
 2443TIP3    H1 7293   5.440   5.044   5.776
 2443TIP3    H2 7294   5.290   5.061   5.793
 2444TIP3   OH2 7295   7.125   0.397   1.481
 2444TIP3    H1 7296   7.031   0.410   1.495
 2444TIP3    H2 7297   7.144   0.446   1.401
 2445TIP3   OH2 7298   3.042   2.041   2.986
 2445TIP3    H1 7299   3.031   1.974   3.053
 2445TIP3    H2 7300   2.954   2.078   2.974
 2446TIP3   OH2 7301   4.209   5.017   1.576
 2446TIP3    H1 7302   4.238   4.957   1.507
 2446TIP3    H2 7303   4.273   5.005   1.646
 2447TIP3   OH2 7304   6.790   0.226   1.838
 2447TIP3    H1 7305   6.796   0.186   1.751
 2447TIP3    H2 7306   6.796   0.320   1.821
 2448TIP3   OH2 7307   3.780   4.220   2.796
 2448TIP3    H1 7308   3.846   4.183   2.855
 2448TIP3    H2 7309   3.742   4.293   2.845
 2449TIP3   OH2 7310   2.524   2.040   4.131
 2449TIP3    H1 7311   2.449   2.040   4.071
 2449TIP3    H2 7312   2.600   2.041   4.073
 2450TIP3   OH2 7313   7.121   4.138   5.704
 2450TIP3    H1 7314   7.120   4.165   5.612
 2450TIP3    H2 7315   7.030   4.148   5.733
 2451TIP3   OH2 7316   0.193   2.930   5.810
 2451TIP3    H1 7317   0.207   3.015   5.769
 2451TIP3    H2 7318   0.253   2.871   5.765
 2452TIP3   OH2 7319   3.113   0.074   1.093
 2452TIP3    H1 7320   3.087   0.003   1.034
 2452TIP3    H2 7321   3.148   0.030   1.171
 2453TIP3   OH2 7322   3.549   5.149   3.503
 2453TIP3    H1 7323   3.548   5.156   3.408
 2453TIP3    H2 7324   3.528   5.237   3.534
 2454TIP3   OH2 7325   6.378   1.516   0.113
 2454TIP3    H1 7326   6.454   1.565   0.145
 2454TIP3    H2 7327   6.358   1.555   0.028
 2455TIP3   OH2 7328   7.233   5.657   5.563
 2455TIP3    H1 7329   7.170   5.710   5.513
 2455TIP3    H2 7330   7.199   5.658   5.652
 2456TIP3   OH2 7331   2.521   0.069   5.904
 2456TIP3    H1 7332   2.474   0.026   5.833
 2456TIP3    H2 7333   2.514   0.163   5.884
 2457TIP3   OH2 7334   1.326   6.349   0.561
 2457TIP3    H1 7335   1.356   6.320   0.646
 2457TIP3    H2 7336   1.317   6.444   0.569
 2458TIP3   OH2 7337   1.612   6.094   1.334
 2458TIP3    H1 7338   1.559   6.128   1.262
 2458TIP3    H2 7339   1.614   6.000   1.321
 2459TIP3   OH2 7340   2.959   0.933   5.774
 2459TIP3    H1 7341   3.020   0.892   5.713
 2459TIP3    H2 7342   2.886   0.962   5.720
 2460TIP3   OH2 7343   4.857   4.193   2.677
 2460TIP3    H1 7344   4.802   4.132   2.726
 2460TIP3    H2 7345   4.809   4.210   2.597
 2461TIP3   OH2 7346   2.094   2.224   2.440
 2461TIP3    H1 7347   2.039   2.221   2.362
 2461TIP3    H2 7348   2.032   2.218   2.513
 2462TIP3   OH2 7349   6.393   6.214   4.393
 2462TIP3    H1 7350   6.435   6.222   4.307
 2462TIP3    H2 7351   6.438   6.279   4.447
 2463TIP3   OH2 7352   5.990   0.146   4.362
 2463TIP3    H1 7353   5.924   0.175   4.299
 2463TIP3    H2 7354   6.053   0.097   4.309
 2464TIP3   OH2 7355   4.766   0.727   0.768
 2464TIP3    H1 7356   4.816   0.703   0.690
 2464TIP3    H2 7357   4.785   0.820   0.781
 2465TIP3   OH2 7358   6.279   4.633   1.511
 2465TIP3    H1 7359   6.327   4.683   1.446
 2465TIP3    H2 7360   6.333   4.556   1.527
 2466TIP3   OH2 7361   5.980   2.892   5.736
 2466TIP3    H1 7362   5.938   2.844   5.807
 2466TIP3    H2 7363   5.919   2.884   5.662
 2467TIP3   OH2 7364   6.412   1.665   3.779
 2467TIP3    H1 7365   6.351   1.599   3.811
 2467TIP3    H2 7366   6.360   1.744   3.769
 2468TIP3   OH2 7367   4.183   5.151   4.685
 2468TIP3    H1 7368   4.215   5.231   4.643
 2468TIP3    H2 7369   4.092   5.144   4.656
 2469TIP3   OH2 7370   5.598   5.428   2.518
 2469TIP3    H1 7371   5.524   5.489   2.516
 2469TIP3    H2 7372   5.618   5.417   2.611
 2470TIP3   OH2 7373   2.405   5.699   3.821
 2470TIP3    H1 7374   2.470   5.740   3.762
 2470TIP3    H2 7375   2.323   5.704   3.773
 2471TIP3   OH2 7376   3.234   1.815   1.292
 2471TIP3    H1 7377   3.140   1.818   1.274
 2471TIP3    H2 7378   3.240   1.818   1.387
 2472TIP3   OH2 7379   3.332   0.813   2.404
 2472TIP3    H1 7380   3.252   0.853   2.371
 2472TIP3    H2 7381   3.317   0.719   2.399
 2473TIP3   OH2 7382   0.605   2.774   5.497
 2473TIP3    H1 7383   0.560   2.738   5.421
 2473TIP3    H2 7384   0.672   2.832   5.460
 2474TIP3   OH2 7385   3.220   5.943   2.304
 2474TIP3    H1 7386   3.260   5.964   2.388
 2474TIP3    H2 7387   3.293   5.914   2.249
 2475TIP3   OH2 7388   3.682   6.358   2.477
 2475TIP3    H1 7389   3.630   6.426   2.520
 2475TIP3    H2 7390   3.635   6.276   2.497
 2476TIP3   OH2 7391   4.187   6.580   5.601
 2476TIP3    H1 7392   4.267   6.586   5.652
 2476TIP3    H2 7393   4.124   6.635   5.647
 2477TIP3   OH2 7394   5.363   4.559   0.773
 2477TIP3    H1 7395   5.325   4.596   0.852
 2477TIP3    H2 7396   5.420   4.489   0.804
 2478TIP3   OH2 7397   1.914   6.110   1.291
 2478TIP3    H1 7398   1.943   6.021   1.272
 2478TIP3    H2 7399   1.826   6.100   1.326
 2479TIP3   OH2 7400   1.190   6.075   1.082
 2479TIP3    H1 7401   1.152   5.989   1.063
 2479TIP3    H2 7402   1.124   6.138   1.053
 2480TIP3   OH2 7403   5.771   4.217   5.152
 2480TIP3    H1 7404   5.823   4.159   5.208
 2480TIP3    H2 7405   5.815   4.214   5.067
 2481TIP3   OH2 7406   0.696   1.804   0.819
 2481TIP3    H1 7407   0.757   1.824   0.890
 2481TIP3    H2 7408   0.659   1.888   0.794
 2482TIP3   OH2 7409   3.671   3.816   5.771
 2482TIP3    H1 7410   3.580   3.802   5.747
 2482TIP3    H2 7411   3.720   3.765   5.706
 2483TIP3   OH2 7412   5.555   1.138   2.629
 2483TIP3    H1 7413   5.462   1.160   2.626
 2483TIP3    H2 7414   5.600   1.218   2.604
 2484TIP3   OH2 7415   3.770   1.576   1.558
 2484TIP3    H1 7416   3.850   1.525   1.570
 2484TIP3    H2 7417   3.781   1.652   1.616
 2485TIP3   OH2 7418   4.484   2.020   4.094
 2485TIP3    H1 7419   4.404   1.983   4.131
 2485TIP3    H2 7420   4.463   2.111   4.074
 2486TIP3   OH2 7421   6.433   0.205   4.049
 2486TIP3    H1 7422   6.409   0.183   3.960
 2486TIP3    H2 7423   6.436   0.121   4.095
 2487TIP3   OH2 7424   1.116   3.981   3.285
 2487TIP3    H1 7425   1.157   4.027   3.212
 2487TIP3    H2 7426   1.167   3.900   3.295
 2488TIP3   OH2 7427   3.474   5.395   5.810
 2488TIP3    H1 7428   3.438   5.418   5.724
 2488TIP3    H2 7429   3.464   5.300   5.815
 2489TIP3   OH2 7430   1.308   6.552   3.382
 2489TIP3    H1 7431   1.317   6.477   3.439
 2489TIP3    H2 7432   1.358   6.622   3.425
 2490TIP3   OH2 7433   4.979   0.088   0.230
 2490TIP3    H1 7434   4.932   0.008   0.252
 2490TIP3    H2 7435   4.915   0.141   0.182
 2491TIP3   OH2 7436   3.313   5.777   4.549
 2491TIP3    H1 7437   3.262   5.698   4.564
 2491TIP3    H2 7438   3.404   5.750   4.560
 2492TIP3   OH2 7439   2.746   2.830   1.976
 2492TIP3    H1 7440   2.785   2.901   2.027
 2492TIP3    H2 7441   2.706   2.773   2.041
 2493TIP3   OH2 7442   3.396   4.166   4.590
 2493TIP3    H1 7443   3.415   4.259   4.579
 2493TIP3    H2 7444   3.433   4.125   4.512
 2494TIP3   OH2 7445   3.114   0.880   1.816
 2494TIP3    H1 7446   3.070   0.827   1.883
 2494TIP3    H2 7447   3.152   0.815   1.756
 2495TIP3   OH2 7448   5.119   1.573   3.149
 2495TIP3    H1 7449   5.035   1.586   3.106
 2495TIP3    H2 7450   5.181   1.555   3.078
 2496TIP3   OH2 7451   2.097   5.677   4.162
 2496TIP3    H1 7452   2.154   5.632   4.224
 2496TIP3    H2 7453   2.095   5.620   4.085
 2497TIP3   OH2 7454   5.301   0.843   5.142
 2497TIP3    H1 7455   5.253   0.833   5.060
 2497TIP3    H2 7456   5.393   0.830   5.118
 2498TIP3   OH2 7457   5.430   4.920   1.737
 2498TIP3    H1 7458   5.516   4.945   1.704
 2498TIP3    H2 7459   5.447   4.884   1.824
 2499TIP3   OH2 7460   5.380   5.032   4.621
 2499TIP3    H1 7461   5.320   4.959   4.637
 2499TIP3    H2 7462   5.355   5.098   4.686
 2500TIP3   OH2 7463   6.909   1.622   5.497
 2500TIP3    H1 7464   6.886   1.696   5.440
 2500TIP3    H2 7465   6.850   1.631   5.572
 2501TIP3   OH2 7466   2.053   0.165   3.577
 2501TIP3    H1 7467   2.131   0.121   3.611
 2501TIP3    H2 7468   2.082   0.202   3.493
 2502TIP3   OH2 7469   4.358   5.939   2.213
 2502TIP3    H1 7470   4.380   5.929   2.120
 2502TIP3    H2 7471   4.330   6.030   2.222
 2503TIP3   OH2 7472   6.690   1.058   1.698
 2503TIP3    H1 7473   6.628   1.009   1.751
 2503TIP3    H2 7474   6.751   0.992   1.665
 2504TIP3   OH2 7475   1.368   4.503   0.516
 2504TIP3    H1 7476   1.300   4.522   0.580
 2504TIP3    H2 7477   1.428   4.444   0.561
 2505TIP3   OH2 7478   6.954   4.852   3.235
 2505TIP3    H1 7479   6.873   4.812   3.267
 2505TIP3    H2 7480   6.932   4.883   3.147
 2506TIP3   OH2 7481   1.024   3.433   2.811
 2506TIP3    H1 7482   1.027   3.508   2.752
 2506TIP3    H2 7483   0.953   3.379   2.776
 2507TIP3   OH2 7484   3.057   5.779   0.139
 2507TIP3    H1 7485   3.028   5.852   0.193
 2507TIP3    H2 7486   3.135   5.746   0.182
 2508TIP3   OH2 7487   5.674   2.158   4.597
 2508TIP3    H1 7488   5.683   2.152   4.502
 2508TIP3    H2 7489   5.620   2.236   4.610
 2509TIP3   OH2 7490   6.140   0.683   2.890
 2509TIP3    H1 7491   6.165   0.755   2.948
 2509TIP3    H2 7492   6.050   0.663   2.915
 2510TIP3   OH2 7493   0.736   5.026   1.415
 2510TIP3    H1 7494   0.819   5.030   1.367
 2510TIP3    H2 7495   0.753   4.963   1.485
 2511TIP3   OH2 7496   6.843   5.796   3.073
 2511TIP3    H1 7497   6.928   5.778   3.112
 2511TIP3    H2 7498   6.856   5.784   2.979
 2512TIP3   OH2 7499   6.132   6.350   4.342
 2512TIP3    H1 7500   6.222   6.342   4.374
 2512TIP3    H2 7501   6.135   6.316   4.253
 2513TIP3   OH2 7502   1.664   3.156   1.786
 2513TIP3    H1 7503   1.726   3.186   1.720
 2513TIP3    H2 7504   1.583   3.202   1.766
 2514TIP3   OH2 7505   0.366   4.874   5.176
 2514TIP3    H1 7506   0.380   4.807   5.242
 2514TIP3    H2 7507   0.384   4.956   5.221
 2515TIP3   OH2 7508   4.365   2.554   0.958
 2515TIP3    H1 7509   4.393   2.584   1.045
 2515TIP3    H2 7510   4.295   2.492   0.976
 2516TIP3   OH2 7511   5.212   3.316   5.383
 2516TIP3    H1 7512   5.228   3.260   5.307
 2516TIP3    H2 7513   5.122   3.297   5.408
 2517TIP3   OH2 7514   4.019   5.566   2.496
 2517TIP3    H1 7515   4.071   5.624   2.552
 2517TIP3    H2 7516   4.078   5.543   2.424
 2518TIP3   OH2 7517   4.223   5.489   5.254
 2518TIP3    H1 7518   4.191   5.562   5.307
 2518TIP3    H2 7519   4.241   5.419   5.318
 2519TIP3   OH2 7520   3.759   1.367   4.579
 2519TIP3    H1 7521   3.705   1.292   4.603
 2519TIP3    H2 7522   3.761   1.421   4.659
 2520TIP3   OH2 7523   2.527   2.121   3.461
 2520TIP3    H1 7524   2.450   2.092   3.412
 2520TIP3    H2 7525   2.598   2.065   3.429
 2521TIP3   OH2 7526   6.303   1.889   5.551
 2521TIP3    H1 7527   6.253   1.971   5.546
 2521TIP3    H2 7528   6.389   1.916   5.583
 2522TIP3   OH2 7529   0.506   6.181   3.907
 2522TIP3    H1 7530   0.449   6.256   3.897
 2522TIP3    H2 7531   0.578   6.212   3.962
 2523TIP3   OH2 7532   1.640   4.521   2.433
 2523TIP3    H1 7533   1.677   4.514   2.345
 2523TIP3    H2 7534   1.710   4.557   2.486
 2524TIP3   OH2 7535   4.829   2.820   0.235
 2524TIP3    H1 7536   4.824   2.802   0.329
 2524TIP3    H2 7537   4.916   2.856   0.222
 2525TIP3   OH2 7538   6.798   3.119   3.655
 2525TIP3    H1 7539   6.843   3.203   3.646
 2525TIP3    H2 7540   6.840   3.061   3.592
 2526TIP3   OH2 7541   3.143   5.181   2.346
 2526TIP3    H1 7542   3.141   5.085   2.350
 2526TIP3    H2 7543   3.110   5.203   2.259
 2527TIP3   OH2 7544   0.953   2.630   2.832
 2527TIP3    H1 7545   0.994   2.564   2.776
 2527TIP3    H2 7546   0.876   2.659   2.782
 2528TIP3   OH2 7547   5.439   5.337   0.296
 2528TIP3    H1 7548   5.420   5.377   0.212
 2528TIP3    H2 7549   5.362   5.356   0.350
 2529TIP3   OH2 7550   1.518   4.960   4.944
 2529TIP3    H1 7551   1.488   5.047   4.916
 2529TIP3    H2 7552   1.492   4.954   5.036
 2530TIP3   OH2 7553   3.577   2.649   2.824
 2530TIP3    H1 7554   3.560   2.705   2.899
 2530TIP3    H2 7555   3.535   2.693   2.750
 2531TIP3   OH2 7556   6.888   6.606   2.825
 2531TIP3    H1 7557   6.903   6.515   2.799
 2531TIP3    H2 7558   6.857   6.600   2.915
 2532TIP3   OH2 7559   4.779   1.839   2.328
 2532TIP3    H1 7560   4.842   1.911   2.322
 2532TIP3    H2 7561   4.775   1.818   2.421
 2533TIP3   OH2 7562   4.515   5.398   4.382
 2533TIP3    H1 7563   4.528   5.386   4.288
 2533TIP3    H2 7564   4.603   5.391   4.419
 2534TIP3   OH2 7565   6.517   1.511   2.730
 2534TIP3    H1 7566   6.606   1.511   2.765
 2534TIP3    H2 7567   6.508   1.597   2.688
 2535TIP3   OH2 7568   5.205   2.853   0.000
 2535TIP3    H1 7569   5.170   2.899   0.076
 2535TIP3    H2 7570   5.129   2.810  -0.040
 2536TIP3   OH2 7571   3.474   2.174   3.208
 2536TIP3    H1 7572   3.383   2.159   3.234
 2536TIP3    H2 7573   3.508   2.087   3.190
 2537TIP3   OH2 7574   7.020   6.410   3.599
 2537TIP3    H1 7575   7.004   6.494   3.555
 2537TIP3    H2 7576   7.112   6.392   3.583
 2538TIP3   OH2 7577   3.705   4.251   1.677
 2538TIP3    H1 7578   3.716   4.182   1.743
 2538TIP3    H2 7579   3.740   4.330   1.718
 2539TIP3   OH2 7580   6.978   1.362   0.316
 2539TIP3    H1 7581   6.923   1.293   0.280
 2539TIP3    H2 7582   7.052   1.367   0.256
 2540TIP3   OH2 7583   5.055   5.492   4.753
 2540TIP3    H1 7584   5.144   5.489   4.717
 2540TIP3    H2 7585   5.051   5.417   4.813
 2541TIP3   OH2 7586   3.770   0.355   3.502
 2541TIP3    H1 7587   3.704   0.424   3.510
 2541TIP3    H2 7588   3.726   0.276   3.533
 2542TIP3   OH2 7589   7.180   1.242   3.434
 2542TIP3    H1 7590   7.199   1.275   3.522
 2542TIP3    H2 7591   7.118   1.170   3.449
 2543TIP3   OH2 7592   7.138   2.220   5.584
 2543TIP3    H1 7593   7.096   2.299   5.551
 2543TIP3    H2 7594   7.091   2.200   5.665
 2544TIP3   OH2 7595   6.560   4.469   5.549
 2544TIP3    H1 7596   6.625   4.469   5.479
 2544TIP3    H2 7597   6.601   4.518   5.620
 2545TIP3   OH2 7598   3.124   4.145   2.271
 2545TIP3    H1 7599   3.178   4.067   2.262
 2545TIP3    H2 7600   3.075   4.132   2.351
 2546TIP3   OH2 7601   0.637   2.671   3.886
 2546TIP3    H1 7602   0.698   2.609   3.847
 2546TIP3    H2 7603   0.587   2.618   3.948
 2547TIP3   OH2 7604   0.994   6.258   3.408
 2547TIP3    H1 7605   0.954   6.176   3.435
 2547TIP3    H2 7606   1.069   6.269   3.466
 2548TIP3   OH2 7607   4.118   6.353   3.998
 2548TIP3    H1 7608   4.128   6.258   4.009
 2548TIP3    H2 7609   4.104   6.386   4.087
 2549TIP3   OH2 7610   5.465   3.868   5.636
 2549TIP3    H1 7611   5.501   3.943   5.588
 2549TIP3    H2 7612   5.399   3.832   5.577
 2550TIP3   OH2 7613   4.323   0.792   4.005
 2550TIP3    H1 7614   4.310   0.758   3.916
 2550TIP3    H2 7615   4.235   0.790   4.044
 2551TIP3   OH2 7616   5.719   1.116   0.326
 2551TIP3    H1 7617   5.679   1.203   0.331
 2551TIP3    H2 7618   5.756   1.111   0.238
 2552TIP3   OH2 7619   5.996   2.359   0.605
 2552TIP3    H1 7620   6.065   2.333   0.667
 2552TIP3    H2 7621   5.974   2.448   0.631
 2553TIP3   OH2 7622   4.666   5.003   1.970
 2553TIP3    H1 7623   4.672   4.913   2.002
 2553TIP3    H2 7624   4.755   5.026   1.945
 2554TIP3   OH2 7625   0.669   5.736   3.384
 2554TIP3    H1 7626   0.603   5.737   3.453
 2554TIP3    H2 7627   0.751   5.719   3.430
 2555TIP3   OH2 7628   6.126   2.407   2.371
 2555TIP3    H1 7629   6.056   2.344   2.387
 2555TIP3    H2 7630   6.128   2.461   2.450
 2556TIP3   OH2 7631   3.157   1.551   1.420
 2556TIP3    H1 7632   3.194   1.592   1.342
 2556TIP3    H2 7633   3.220   1.484   1.444
 2557TIP3   OH2 7634   3.250   0.874   2.748
 2557TIP3    H1 7635   3.246   0.797   2.692
 2557TIP3    H2 7636   3.343   0.891   2.760
 2558TIP3   OH2 7637   2.574   3.596   3.638
 2558TIP3    H1 7638   2.610   3.510   3.660
 2558TIP3    H2 7639   2.497   3.606   3.694
 2559TIP3   OH2 7640   2.032   3.043   3.536
 2559TIP3    H1 7641   2.091   3.044   3.461
 2559TIP3    H2 7642   2.082   2.998   3.605
 2560TIP3   OH2 7643   3.855   5.407   5.351
 2560TIP3    H1 7644   3.934   5.459   5.364
 2560TIP3    H2 7645   3.843   5.405   5.256
 2561TIP3   OH2 7646   5.129   2.381   4.726
 2561TIP3    H1 7647   5.046   2.402   4.768
 2561TIP3    H2 7648   5.188   2.358   4.798
 2562TIP3   OH2 7649   6.799   5.441   3.461
 2562TIP3    H1 7650   6.837   5.353   3.470
 2562TIP3    H2 7651   6.851   5.482   3.392
 2563TIP3   OH2 7652   3.652   4.745   1.802
 2563TIP3    H1 7653   3.693   4.814   1.854
 2563TIP3    H2 7654   3.564   4.736   1.839
 2564TIP3   OH2 7655   1.833   3.505   4.335
 2564TIP3    H1 7656   1.891   3.440   4.376
 2564TIP3    H2 7657   1.767   3.452   4.289
 2565TIP3   OH2 7658   2.291   2.012   3.958
 2565TIP3    H1 7659   2.195   2.003   3.959
 2565TIP3    H2 7660   2.307   2.081   3.893
 2566TIP3   OH2 7661   1.600   4.168   4.498
 2566TIP3    H1 7662   1.602   4.211   4.413
 2566TIP3    H2 7663   1.673   4.208   4.546
 2567TIP3   OH2 7664   0.596   5.609   2.171
 2567TIP3    H1 7665   0.521   5.662   2.144
 2567TIP3    H2 7666   0.648   5.598   2.091
 2568TIP3   OH2 7667   3.462   0.311   5.575
 2568TIP3    H1 7668   3.470   0.351   5.661
 2568TIP3    H2 7669   3.375   0.271   5.574
 2569TIP3   OH2 7670   6.751   4.777   1.677
 2569TIP3    H1 7671   6.695   4.722   1.732
 2569TIP3    H2 7672   6.723   4.758   1.587
 2570TIP3   OH2 7673   4.221   1.913   4.161
 2570TIP3    H1 7674   4.158   1.986   4.160
 2570TIP3    H2 7675   4.200   1.862   4.083
 2571TIP3   OH2 7676   3.859   0.379   2.377
 2571TIP3    H1 7677   3.801   0.445   2.340
 2571TIP3    H2 7678   3.889   0.328   2.302
 2572TIP3   OH2 7679   4.703   5.337   3.414
 2572TIP3    H1 7680   4.733   5.372   3.498
 2572TIP3    H2 7681   4.701   5.242   3.426
 2573TIP3   OH2 7682   3.009   4.002   3.302
 2573TIP3    H1 7683   2.951   4.022   3.229
 2573TIP3    H2 7684   2.972   3.923   3.342
 2574TIP3   OH2 7685   3.298   3.474   1.795
 2574TIP3    H1 7686   3.322   3.554   1.842
 2574TIP3    H2 7687   3.368   3.412   1.814
 2575TIP3   OH2 7688   3.325   4.617   5.272
 2575TIP3    H1 7689   3.284   4.587   5.190
 2575TIP3    H2 7690   3.263   4.681   5.307
 2576TIP3   OH2 7691   6.338   0.431   3.081
 2576TIP3    H1 7692   6.286   0.432   3.161
 2576TIP3    H2 7693   6.377   0.344   3.079
 2577TIP3   OH2 7694   5.404   0.953   5.878
 2577TIP3    H1 7695   5.439   1.032   5.919
 2577TIP3    H2 7696   5.454   0.944   5.797
 2578TIP3   OH2 7697   5.410   4.635   2.558
 2578TIP3    H1 7698   5.387   4.597   2.473
 2578TIP3    H2 7699   5.407   4.561   2.619
 2579TIP3   OH2 7700   7.031   5.214   2.570
 2579TIP3    H1 7701   7.113   5.250   2.537
 2579TIP3    H2 7702   6.970   5.288   2.572
 2580TIP3   OH2 7703   1.262   4.311   4.800
 2580TIP3    H1 7704   1.345   4.279   4.764
 2580TIP3    H2 7705   1.218   4.232   4.831
 2581TIP3   OH2 7706   6.665   2.155   5.798
 2581TIP3    H1 7707   6.708   2.098   5.734
 2581TIP3    H2 7708   6.683   2.244   5.767
 2582TIP3   OH2 7709   4.429   5.712   1.747
 2582TIP3    H1 7710   4.421   5.632   1.800
 2582TIP3    H2 7711   4.417   5.682   1.657
 2583TIP3   OH2 7712   1.670   6.176   0.065
 2583TIP3    H1 7713   1.692   6.247   0.125
 2583TIP3    H2 7714   1.599   6.212   0.011
 2584TIP3   OH2 7715   3.125   3.010   5.682
 2584TIP3    H1 7716   3.069   3.011   5.604
 2584TIP3    H2 7717   3.181   2.933   5.670
 2585TIP3   OH2 7718   2.614   6.009   5.009
 2585TIP3    H1 7719   2.691   6.047   4.966
 2585TIP3    H2 7720   2.595   6.070   5.081
 2586TIP3   OH2 7721   3.152   5.442   1.483
 2586TIP3    H1 7722   3.240   5.474   1.502
 2586TIP3    H2 7723   3.164   5.378   1.413
 2587TIP3   OH2 7724   1.193   2.269   4.253
 2587TIP3    H1 7725   1.283   2.257   4.223
 2587TIP3    H2 7726   1.155   2.333   4.193
 2588TIP3   OH2 7727   0.717   3.309   5.602
 2588TIP3    H1 7728   0.628   3.342   5.596
 2588TIP3    H2 7729   0.757   3.359   5.673
 2589TIP3   OH2 7730   2.307   1.379   5.330
 2589TIP3    H1 7731   2.332   1.458   5.282
 2589TIP3    H2 7732   2.255   1.411   5.403
 2590TIP3   OH2 7733   0.979   4.217   0.889
 2590TIP3    H1 7734   1.047   4.178   0.942
 2590TIP3    H2 7735   1.026   4.280   0.833
 2591TIP3   OH2 7736   1.645   4.512   0.694
 2591TIP3    H1 7737   1.589   4.490   0.769
 2591TIP3    H2 7738   1.707   4.576   0.728
 2592TIP3   OH2 7739   6.639   0.244   3.106
 2592TIP3    H1 7740   6.684   0.291   3.176
 2592TIP3    H2 7741   6.652   0.298   3.028
 2593TIP3   OH2 7742   2.153   4.766   4.418
 2593TIP3    H1 7743   2.144   4.706   4.344
 2593TIP3    H2 7744   2.147   4.709   4.496
 2594TIP3   OH2 7745   4.529   1.049   4.706
 2594TIP3    H1 7746   4.545   1.002   4.624
 2594TIP3    H2 7747   4.520   1.140   4.680
 2595TIP3   OH2 7748   4.401   3.023   4.343
 2595TIP3    H1 7749   4.365   3.020   4.432
 2595TIP3    H2 7750   4.417   3.116   4.326
 2596TIP3   OH2 7751   5.341   1.106   3.380
 2596TIP3    H1 7752   5.334   1.155   3.299
 2596TIP3    H2 7753   5.425   1.060   3.373
 2597TIP3   OH2 7754   0.915   6.266   3.104
 2597TIP3    H1 7755   0.994   6.306   3.068
 2597TIP3    H2 7756   0.889   6.325   3.175
 2598TIP3   OH2 7757   2.887   3.444   3.454
 2598TIP3    H1 7758   2.972   3.412   3.424
 2598TIP3    H2 7759   2.904   3.532   3.486
 2599TIP3   OH2 7760   6.707   3.730   0.859
 2599TIP3    H1 7761   6.631   3.687   0.898
 2599TIP3    H2 7762   6.778   3.714   0.922
 2600TIP3   OH2 7763   0.165   0.565   2.896
 2600TIP3    H1 7764   0.103   0.618   2.846
 2600TIP3    H2 7765   0.221   0.629   2.941
 2601TIP3   OH2 7766   3.883   4.228   0.606
 2601TIP3    H1 7767   3.930   4.153   0.641
 2601TIP3    H2 7768   3.804   4.234   0.659
 2602TIP3   OH2 7769   4.616   2.589   3.059
 2602TIP3    H1 7770   4.623   2.540   3.140
 2602TIP3    H2 7771   4.670   2.541   2.997
 2603TIP3   OH2 7772   6.397   5.047   4.149
 2603TIP3    H1 7773   6.361   5.031   4.236
 2603TIP3    H2 7774   6.376   5.138   4.130
 2604TIP3   OH2 7775   1.049   3.055   1.892
 2604TIP3    H1 7776   1.039   3.053   1.797
 2604TIP3    H2 7777   1.027   3.145   1.917
 2605TIP3   OH2 7778   3.342   4.839   0.391
 2605TIP3    H1 7779   3.274   4.816   0.454
 2605TIP3    H2 7780   3.406   4.768   0.397
 2606TIP3   OH2 7781   6.217   1.241   5.835
 2606TIP3    H1 7782   6.198   1.188   5.913
 2606TIP3    H2 7783   6.311   1.232   5.823
 2607TIP3   OH2 7784   3.980   2.215   5.477
 2607TIP3    H1 7785   3.896   2.173   5.458
 2607TIP3    H2 7786   4.043   2.143   5.472
 2608TIP3   OH2 7787   6.120   5.167   3.719
 2608TIP3    H1 7788   6.034   5.207   3.706
 2608TIP3    H2 7789   6.102   5.083   3.762
 2609TIP3   OH2 7790   2.935   3.494   0.652
 2609TIP3    H1 7791   3.018   3.447   0.644
 2609TIP3    H2 7792   2.961   3.586   0.657
 2610TIP3   OH2 7793   5.673   4.899   5.583
 2610TIP3    H1 7794   5.636   4.985   5.561
 2610TIP3    H2 7795   5.596   4.843   5.592
 2611TIP3   OH2 7796   7.035   6.112   0.609
 2611TIP3    H1 7797   7.081   6.149   0.683
 2611TIP3    H2 7798   7.081   6.145   0.532
 2612TIP3   OH2 7799   5.590   0.071   3.580
 2612TIP3    H1 7800   5.525   0.032   3.638
 2612TIP3    H2 7801   5.593   0.013   3.504
 2613TIP3   OH2 7802   4.352   4.204   2.036
 2613TIP3    H1 7803   4.314   4.275   1.984
 2613TIP3    H2 7804   4.280   4.177   2.094
 2614TIP3   OH2 7805   1.624   5.877   1.993
 2614TIP3    H1 7806   1.670   5.906   1.914
 2614TIP3    H2 7807   1.681   5.810   2.030
 2615TIP3   OH2 7808   6.787   5.590   2.343
 2615TIP3    H1 7809   6.804   5.517   2.284
 2615TIP3    H2 7810   6.757   5.661   2.286
 2616TIP3   OH2 7811   6.997   3.939   4.783
 2616TIP3    H1 7812   7.030   3.853   4.809
 2616TIP3    H2 7813   7.052   3.964   4.708
 2617TIP3   OH2 7814   2.223   2.028   2.576
 2617TIP3    H1 7815   2.186   2.087   2.511
 2617TIP3    H2 7816   2.219   1.941   2.536
 2618TIP3   OH2 7817   4.585   2.852   1.014
 2618TIP3    H1 7818   4.639   2.774   1.006
 2618TIP3    H2 7819   4.572   2.864   1.108
 2619TIP3   OH2 7820   3.824   2.209   3.250
 2619TIP3    H1 7821   3.830   2.184   3.342
 2619TIP3    H2 7822   3.864   2.296   3.246
 2620TIP3   OH2 7823   1.105   0.599   5.390
 2620TIP3    H1 7824   1.044   0.552   5.334
 2620TIP3    H2 7825   1.140   0.669   5.335
 2621TIP3   OH2 7826   5.504   4.389   0.216
 2621TIP3    H1 7827   5.538   4.478   0.204
 2621TIP3    H2 7828   5.576   4.342   0.260
 2622TIP3   OH2 7829   3.386   5.019   2.196
 2622TIP3    H1 7830   3.452   5.030   2.127
 2622TIP3    H2 7831   3.416   5.075   2.267
 2623TIP3   OH2 7832   6.812   3.132   3.999
 2623TIP3    H1 7833   6.815   3.111   3.906
 2623TIP3    H2 7834   6.756   3.065   4.038
 2624TIP3   OH2 7835   6.559   5.343   2.324
 2624TIP3    H1 7836   6.651   5.343   2.349
 2624TIP3    H2 7837   6.518   5.277   2.380
 2625TIP3   OH2 7838   5.497   5.231   2.088
 2625TIP3    H1 7839   5.455   5.234   2.174
 2625TIP3    H2 7840   5.429   5.199   2.029
 2626TIP3   OH2 7841   4.538   2.930   1.269
 2626TIP3    H1 7842   4.500   2.920   1.356
 2626TIP3    H2 7843   4.507   3.015   1.239
 2627TIP3   OH2 7844   2.274   0.633   2.791
 2627TIP3    H1 7845   2.290   0.698   2.860
 2627TIP3    H2 7846   2.215   0.569   2.831
 2628TIP3   OH2 7847   4.307   5.385   4.992
 2628TIP3    H1 7848   4.214   5.398   4.970
 2628TIP3    H2 7849   4.310   5.388   5.087
 2629TIP3   OH2 7850   6.044   3.534   4.425
 2629TIP3    H1 7851   5.992   3.470   4.473
 2629TIP3    H2 7852   6.114   3.559   4.485
 2630TIP3   OH2 7853   1.483   6.665   1.077
 2630TIP3    H1 7854   1.524   6.752   1.081
 2630TIP3    H2 7855   1.476   6.646   0.984
 2631TIP3   OH2 7856   5.135   3.849   1.855
 2631TIP3    H1 7857   5.125   3.883   1.766
 2631TIP3    H2 7858   5.056   3.878   1.901
 2632TIP3   OH2 7859   6.750   4.886   2.241
 2632TIP3    H1 7860   6.775   4.818   2.180
 2632TIP3    H2 7861   6.831   4.908   2.288
 2633TIP3   OH2 7862   2.145   6.199   4.446
 2633TIP3    H1 7863   2.124   6.107   4.461
 2633TIP3    H2 7864   2.240   6.203   4.445
 2634TIP3   OH2 7865   4.131   0.022   3.769
 2634TIP3    H1 7866   4.166   0.050   3.685
 2634TIP3    H2 7867   4.043  -0.011   3.749
 2635TIP3   OH2 7868   2.269   6.479   1.567
 2635TIP3    H1 7869   2.255   6.417   1.638
 2635TIP3    H2 7870   2.187   6.478   1.518
 2636TIP3   OH2 7871   5.914   4.145   4.933
 2636TIP3    H1 7872   5.981   4.184   4.876
 2636TIP3    H2 7873   5.955   4.064   4.966
 2637TIP3   OH2 7874   6.774   1.993   5.631
 2637TIP3    H1 7875   6.851   1.937   5.615
 2637TIP3    H2 7876   6.775   2.055   5.558
 2638TIP3   OH2 7877   0.351   2.627   1.955
 2638TIP3    H1 7878   0.278   2.670   1.910
 2638TIP3    H2 7879   0.372   2.686   2.027
 2639TIP3   OH2 7880   5.546   0.787   1.710
 2639TIP3    H1 7881   5.465   0.737   1.698
 2639TIP3    H2 7882   5.567   0.820   1.623
 2640TIP3   OH2 7883   6.327   3.127   5.677
 2640TIP3    H1 7884   6.326   3.068   5.753
 2640TIP3    H2 7885   6.349   3.070   5.603
 2641TIP3   OH2 7886   5.153   2.125   1.832
 2641TIP3    H1 7887   5.237   2.129   1.786
 2641TIP3    H2 7888   5.156   2.041   1.879
 2642TIP3   OH2 7889   1.678   3.278   4.528
 2642TIP3    H1 7890   1.683   3.187   4.496
 2642TIP3    H2 7891   1.591   3.308   4.502
 2643TIP3   OH2 7892   0.841   1.666   1.279
 2643TIP3    H1 7893   0.761   1.684   1.329
 2643TIP3    H2 7894   0.876   1.586   1.317
 2644TIP3   OH2 7895   2.788   2.871   5.672
 2644TIP3    H1 7896   2.882   2.889   5.676
 2644TIP3    H2 7897   2.755   2.892   5.759
 2645TIP3   OH2 7898   5.883   2.600   0.699
 2645TIP3    H1 7899   5.886   2.613   0.794
 2645TIP3    H2 7900   5.952   2.657   0.665
 2646TIP3   OH2 7901   0.066   1.031   1.139
 2646TIP3    H1 7902   0.144   1.018   1.086
 2646TIP3    H2 7903   0.092   1.093   1.207
 2647TIP3   OH2 7904   2.912   3.906   0.015
 2647TIP3    H1 7905   2.917   3.994   0.053
 2647TIP3    H2 7906   2.983   3.858   0.057
 2648TIP3   OH2 7907   6.548   3.396   0.495
 2648TIP3    H1 7908   6.550   3.390   0.590
 2648TIP3    H2 7909   6.464   3.438   0.475
 2649TIP3   OH2 7910   4.100   2.257   2.712
 2649TIP3    H1 7911   4.072   2.271   2.802
 2649TIP3    H2 7912   4.145   2.338   2.688
 2650TIP3   OH2 7913   6.166   4.884   5.760
 2650TIP3    H1 7914   6.193   4.795   5.784
 2650TIP3    H2 7915   6.078   4.893   5.797
 2651TIP3   OH2 7916   1.868   4.708   4.220
 2651TIP3    H1 7917   1.855   4.691   4.127
 2651TIP3    H2 7918   1.961   4.694   4.235
 2652TIP3   OH2 7919   4.164   3.926   2.277
 2652TIP3    H1 7920   4.129   3.923   2.366
 2652TIP3    H2 7921   4.246   3.878   2.281
 2653TIP3   OH2 7922   4.858   1.735   3.351
 2653TIP3    H1 7923   4.863   1.763   3.260
 2653TIP3    H2 7924   4.856   1.816   3.401
 2654TIP3   OH2 7925   6.151   1.199   2.120
 2654TIP3    H1 7926   6.174   1.213   2.028
 2654TIP3    H2 7927   6.109   1.113   2.121
 2655TIP3   OH2 7928   3.187   4.051   1.091
 2655TIP3    H1 7929   3.157   3.966   1.125
 2655TIP3    H2 7930   3.106   4.100   1.077
 2656TIP3   OH2 7931   4.191   2.588   5.264
 2656TIP3    H1 7932   4.247   2.532   5.210
 2656TIP3    H2 7933   4.215   2.678   5.239
 2657TIP3   OH2 7934   4.249   1.306   2.397
 2657TIP3    H1 7935   4.185   1.348   2.455
 2657TIP3    H2 7936   4.241   1.354   2.314
 2658TIP3   OH2 7937   0.166   5.672   3.234
 2658TIP3    H1 7938   0.229   5.662   3.162
 2658TIP3    H2 7939   0.171   5.590   3.282
 2659TIP3   OH2 7940   1.454   5.850   5.556
 2659TIP3    H1 7941   1.402   5.793   5.499
 2659TIP3    H2 7942   1.494   5.791   5.619
 2660TIP3   OH2 7943   3.364   5.281   5.219
 2660TIP3    H1 7944   3.445   5.270   5.268
 2660TIP3    H2 7945   3.375   5.227   5.141
 2661TIP3   OH2 7946   6.035   5.138   1.378
 2661TIP3    H1 7947   6.068   5.178   1.458
 2661TIP3    H2 7948   5.991   5.209   1.331
 2662TIP3   OH2 7949   4.059   3.147   3.706
 2662TIP3    H1 7950   4.023   3.070   3.661
 2662TIP3    H2 7951   4.011   3.221   3.667
 2663TIP3   OH2 7952   2.255   2.978   3.817
 2663TIP3    H1 7953   2.308   2.915   3.768
 2663TIP3    H2 7954   2.172   2.932   3.832
 2664TIP3   OH2 7955   0.550   1.422   1.237
 2664TIP3    H1 7956   0.491   1.482   1.191
 2664TIP3    H2 7957   0.558   1.347   1.178
 2665TIP3   OH2 7958   2.661   1.606   4.044
 2665TIP3    H1 7959   2.585   1.653   4.078
 2665TIP3    H2 7960   2.637   1.583   3.954
 2666TIP3   OH2 7961   5.644   5.501   1.495
 2666TIP3    H1 7962   5.618   5.486   1.586
 2666TIP3    H2 7963   5.739   5.490   1.495
 2667TIP3   OH2 7964   3.622   5.226   1.734
 2667TIP3    H1 7965   3.703   5.218   1.683
 2667TIP3    H2 7966   3.561   5.273   1.676
 2668TIP3   OH2 7967   2.147   1.812   3.683
 2668TIP3    H1 7968   2.107   1.851   3.606
 2668TIP3    H2 7969   2.242   1.823   3.669
 2669TIP3   OH2 7970   7.049   2.417   2.596
 2669TIP3    H1 7971   7.120   2.360   2.565
 2669TIP3    H2 7972   6.976   2.398   2.538
 2670TIP3   OH2 7973   2.900   1.926   1.579
 2670TIP3    H1 7974   2.876   1.833   1.587
 2670TIP3    H2 7975   2.990   1.925   1.547
 2671TIP3   OH2 7976   6.108   2.463   1.526
 2671TIP3    H1 7977   6.052   2.535   1.498
 2671TIP3    H2 7978   6.085   2.390   1.469
 2672TIP3   OH2 7979   5.677   4.962   1.592
 2672TIP3    H1 7980   5.665   4.867   1.597
 2672TIP3    H2 7981   5.705   4.978   1.502
 2673TIP3   OH2 7982   6.098   4.387   0.928
 2673TIP3    H1 7983   6.121   4.295   0.942
 2673TIP3    H2 7984   6.164   4.436   0.977
 2674TIP3   OH2 7985   4.305   2.288   2.075
 2674TIP3    H1 7986   4.213   2.311   2.079
 2674TIP3    H2 7987   4.351   2.369   2.098
 2675TIP3   OH2 7988   3.504   4.989   2.469
 2675TIP3    H1 7989   3.538   4.935   2.398
 2675TIP3    H2 7990   3.442   4.932   2.514
 2676TIP3   OH2 7991   3.606   3.851   3.039
 2676TIP3    H1 7992   3.629   3.875   3.128
 2676TIP3    H2 7993   3.679   3.797   3.008
 2677TIP3   OH2 7994   2.668   4.394   0.642
 2677TIP3    H1 7995   2.676   4.359   0.730
 2677TIP3    H2 7996   2.733   4.464   0.638
 2678TIP3   OH2 7997   5.019   6.462   5.539
 2678TIP3    H1 7998   4.935   6.489   5.576
 2678TIP3    H2 7999   5.084   6.500   5.598
 2679TIP3   OH2 8000   2.586   4.839   1.467
 2679TIP3    H1 8001   2.509   4.858   1.521
 2679TIP3    H2 8002   2.660   4.855   1.526
 2680TIP3   OH2 8003   0.162   4.960   2.138
 2680TIP3    H1 8004   0.145   5.053   2.150
 2680TIP3    H2 8005   0.109   4.934   2.063
 2681TIP3   OH2 8006   4.329   3.370   2.889
 2681TIP3    H1 8007   4.244   3.393   2.852
 2681TIP3    H2 8008   4.379   3.334   2.815
 2682TIP3   OH2 8009   0.604   0.561   2.035
 2682TIP3    H1 8010   0.629   0.635   2.091
 2682TIP3    H2 8011   0.669   0.561   1.965
 2683TIP3   OH2 8012   6.847   5.337   2.269
 2683TIP3    H1 8013   6.832   5.265   2.207
 2683TIP3    H2 8014   6.941   5.353   2.264
 2684TIP3   OH2 8015   0.099   4.034   1.198
 2684TIP3    H1 8016   0.162   4.073   1.138
 2684TIP3    H2 8017   0.118   3.941   1.196
 2685TIP3   OH2 8018   3.581   5.740   0.881
 2685TIP3    H1 8019   3.499   5.743   0.831
 2685TIP3    H2 8020   3.620   5.656   0.858
 2686TIP3   OH2 8021   5.674   3.236   3.523
 2686TIP3    H1 8022   5.637   3.230   3.611
 2686TIP3    H2 8023   5.600   3.216   3.465
 2687TIP3   OH2 8024   3.147   6.643   5.263
 2687TIP3    H1 8025   3.240   6.641   5.240
 2687TIP3    H2 8026   3.109   6.709   5.205
 2688TIP3   OH2 8027   1.292   0.878   0.625
 2688TIP3    H1 8028   1.336   0.837   0.550
 2688TIP3    H2 8029   1.351   0.860   0.699
 2689TIP3   OH2 8030   0.333   5.504   5.635
 2689TIP3    H1 8031   0.313   5.582   5.685
 2689TIP3    H2 8032   0.348   5.535   5.546
 2690TIP3   OH2 8033   1.766   6.721   3.204
 2690TIP3    H1 8034   1.853   6.684   3.216
 2690TIP3    H2 8035   1.754   6.779   3.279
 2691TIP3   OH2 8036   4.603   3.430   0.130
 2691TIP3    H1 8037   4.590   3.486   0.054
 2691TIP3    H2 8038   4.523   3.440   0.182
 2692TIP3   OH2 8039   2.528   5.743   2.017
 2692TIP3    H1 8040   2.450   5.725   1.965
 2692TIP3    H2 8041   2.597   5.761   1.953
 2693TIP3   OH2 8042   1.622   6.117   4.148
 2693TIP3    H1 8043   1.663   6.155   4.225
 2693TIP3    H2 8044   1.695   6.084   4.095
 2694TIP3   OH2 8045   3.540   3.105   5.071
 2694TIP3    H1 8046   3.460   3.126   5.119
 2694TIP3    H2 8047   3.600   3.071   5.137
 2695TIP3   OH2 8048   6.476   4.907   5.648
 2695TIP3    H1 8049   6.481   4.818   5.682
 2695TIP3    H2 8050   6.384   4.919   5.625
 2696TIP3   OH2 8051   4.514   0.808   1.257
 2696TIP3    H1 8052   4.511   0.807   1.161
 2696TIP3    H2 8053   4.426   0.781   1.283
 2697TIP3   OH2 8054   6.028   1.025   4.405
 2697TIP3    H1 8055   5.958   1.023   4.340
 2697TIP3    H2 8056   5.983   1.017   4.489
 2698TIP3   OH2 8057   4.231   3.690   1.146
 2698TIP3    H1 8058   4.280   3.609   1.132
 2698TIP3    H2 8059   4.299   3.759   1.143
 2699TIP3   OH2 8060   1.562   3.449   1.554
 2699TIP3    H1 8061   1.514   3.370   1.578
 2699TIP3    H2 8062   1.602   3.479   1.636
 2700TIP3   OH2 8063   3.207   2.293   4.052
 2700TIP3    H1 8064   3.128   2.347   4.057
 2700TIP3    H2 8065   3.254   2.313   4.133
 2701TIP3   OH2 8066   3.082   3.756   1.852
 2701TIP3    H1 8067   3.084   3.766   1.948
 2701TIP3    H2 8068   2.990   3.767   1.828
 2702TIP3   OH2 8069   7.141   4.136   5.414
 2702TIP3    H1 8070   7.180   4.048   5.411
 2702TIP3    H2 8071   7.198   4.189   5.359
 2703TIP3   OH2 8072   6.225   1.135   3.887
 2703TIP3    H1 8073   6.317   1.147   3.861
 2703TIP3    H2 8074   6.195   1.060   3.836
 2704TIP3   OH2 8075   2.930   3.164   0.650
 2704TIP3    H1 8076   2.903   3.143   0.740
 2704TIP3    H2 8077   2.858   3.216   0.615
 2705TIP3   OH2 8078   4.307   0.215   1.130
 2705TIP3    H1 8079   4.388   0.185   1.170
 2705TIP3    H2 8080   4.328   0.229   1.038
 2706TIP3   OH2 8081   5.252   3.619   0.075
 2706TIP3    H1 8082   5.195   3.692   0.051
 2706TIP3    H2 8083   5.329   3.629   0.019
 2707TIP3   OH2 8084   3.252   5.794   5.089
 2707TIP3    H1 8085   3.329   5.846   5.112
 2707TIP3    H2 8086   3.241   5.733   5.162
 2708TIP3   OH2 8087   3.483   6.131   4.153
 2708TIP3    H1 8088   3.533   6.116   4.073
 2708TIP3    H2 8089   3.550   6.147   4.220
 2709TIP3   OH2 8090   1.132   0.796   2.904
 2709TIP3    H1 8091   1.109   0.818   2.994
 2709TIP3    H2 8092   1.075   0.852   2.851
 2710TIP3   OH2 8093   5.235   0.139   2.222
 2710TIP3    H1 8094   5.287   0.085   2.162
 2710TIP3    H2 8095   5.294   0.211   2.246
 2711TIP3   OH2 8096   0.186   3.086   5.309
 2711TIP3    H1 8097   0.202   2.993   5.295
 2711TIP3    H2 8098   0.151   3.092   5.398
 2712TIP3   OH2 8099   1.453   6.290   2.938
 2712TIP3    H1 8100   1.467   6.277   2.844
 2712TIP3    H2 8101   1.517   6.232   2.980
 2713TIP3   OH2 8102   4.078   0.380   5.730
 2713TIP3    H1 8103   4.026   0.390   5.651
 2713TIP3    H2 8104   4.058   0.457   5.783
 2714TIP3   OH2 8105   6.448   0.036   3.756
 2714TIP3    H1 8106   6.454  -0.059   3.770
 2714TIP3    H2 8107   6.361   0.048   3.716
 2715TIP3   OH2 8108   6.119   1.294   4.627
 2715TIP3    H1 8109   6.206   1.258   4.616
 2715TIP3    H2 8110   6.064   1.243   4.568
 2716TIP3   OH2 8111   2.021   6.797   0.535
 2716TIP3    H1 8112   1.927   6.804   0.552
 2716TIP3    H2 8113   2.053   6.734   0.600
 2717TIP3   OH2 8114   1.264   4.804   5.211
 2717TIP3    H1 8115   1.213   4.728   5.239
 2717TIP3    H2 8116   1.231   4.826   5.124
 2718TIP3   OH2 8117   0.806   5.705   1.320
 2718TIP3    H1 8118   0.880   5.719   1.261
 2718TIP3    H2 8119   0.743   5.773   1.297
 2719TIP3   OH2 8120   4.795   6.297   0.705
 2719TIP3    H1 8121   4.760   6.208   0.710
 2719TIP3    H2 8122   4.807   6.313   0.611
 2720TIP3   OH2 8123   5.262   1.197   3.624
 2720TIP3    H1 8124   5.224   1.283   3.604
 2720TIP3    H2 8125   5.302   1.169   3.542
 2721TIP3   OH2 8126   4.277   6.622   4.144
 2721TIP3    H1 8127   4.292   6.657   4.232
 2721TIP3    H2 8128   4.350   6.655   4.092
 2722TIP3   OH2 8129   2.500   4.495   5.555
 2722TIP3    H1 8130   2.556   4.450   5.492
 2722TIP3    H2 8131   2.543   4.479   5.640
 2723TIP3   OH2 8132   2.229   1.536   5.777
 2723TIP3    H1 8133   2.300   1.526   5.839
 2723TIP3    H2 8134   2.150   1.540   5.831
 2724TIP3   OH2 8135   2.451   3.110   1.250
 2724TIP3    H1 8136   2.513   3.075   1.186
 2724TIP3    H2 8137   2.384   3.043   1.257
 2725TIP3   OH2 8138   4.981   5.986   5.113
 2725TIP3    H1 8139   4.908   5.987   5.174
 2725TIP3    H2 8140   5.048   5.934   5.157
 2726TIP3   OH2 8141   1.305   1.243   5.707
 2726TIP3    H1 8142   1.292   1.305   5.635
 2726TIP3    H2 8143   1.395   1.258   5.735
 2727TIP3   OH2 8144   0.106   5.451   2.028
 2727TIP3    H1 8145   0.163   5.437   1.952
 2727TIP3    H2 8146   0.055   5.371   2.035
 2728TIP3   OH2 8147   6.081   5.272   0.867
 2728TIP3    H1 8148   6.089   5.187   0.824
 2728TIP3    H2 8149   5.987   5.289   0.872
 2729TIP3   OH2 8150   0.682   6.440   3.101
 2729TIP3    H1 8151   0.711   6.444   3.192
 2729TIP3    H2 8152   0.761   6.456   3.049
 2730TIP3   OH2 8153   4.651   1.127   2.699
 2730TIP3    H1 8154   4.692   1.075   2.768
 2730TIP3    H2 8155   4.663   1.218   2.727
 2731TIP3   OH2 8156   6.024   5.969   2.524
 2731TIP3    H1 8157   5.968   5.895   2.500
 2731TIP3    H2 8158   6.069   5.941   2.604
 2732TIP3   OH2 8159   6.095   3.972   4.355
 2732TIP3    H1 8160   6.003   3.944   4.352
 2732TIP3    H2 8161   6.091   4.066   4.337
 2733TIP3   OH2 8162   5.076   2.149   3.105
 2733TIP3    H1 8163   5.027   2.067   3.113
 2733TIP3    H2 8164   5.012   2.212   3.073
 2734TIP3   OH2 8165   3.736   0.588   3.763
 2734TIP3    H1 8166   3.644   0.583   3.736
 2734TIP3    H2 8167   3.774   0.655   3.706
 2735TIP3   OH2 8168   2.138   0.090   3.949
 2735TIP3    H1 8169   2.152   0.121   4.038
 2735TIP3    H2 8170   2.170   0.000   3.949
 2736TIP3   OH2 8171   4.086   3.936   1.242
 2736TIP3    H1 8172   4.141   3.860   1.225
 2736TIP3    H2 8173   4.062   3.928   1.334
 2737TIP3   OH2 8174   0.975   0.647   1.640
 2737TIP3    H1 8175   0.924   0.709   1.588
 2737TIP3    H2 8176   1.030   0.702   1.696
 2738TIP3   OH2 8177   1.744   3.813   3.702
 2738TIP3    H1 8178   1.734   3.787   3.611
 2738TIP3    H2 8179   1.820   3.763   3.733
 2739TIP3   OH2 8180   4.114   1.911   0.492
 2739TIP3    H1 8181   4.190   1.853   0.493
 2739TIP3    H2 8182   4.137   1.981   0.430
 2740TIP3   OH2 8183   1.629   5.067   3.373
 2740TIP3    H1 8184   1.690   5.022   3.432
 2740TIP3    H2 8185   1.672   5.065   3.288
 2741TIP3   OH2 8186   3.486   2.271   2.114
 2741TIP3    H1 8187   3.453   2.331   2.047
 2741TIP3    H2 8188   3.559   2.226   2.071
 2742TIP3   OH2 8189   4.102   4.201   2.215
 2742TIP3    H1 8190   4.105   4.106   2.207
 2742TIP3    H2 8191   4.015   4.220   2.249
 2743TIP3   OH2 8192   6.680   3.965   0.155
 2743TIP3    H1 8193   6.630   3.886   0.178
 2743TIP3    H2 8194   6.685   4.015   0.236
 2744TIP3   OH2 8195   2.771   0.954   4.578
 2744TIP3    H1 8196   2.693   0.964   4.633
 2744TIP3    H2 8197   2.749   0.999   4.497
 2745TIP3   OH2 8198   7.001   6.728   1.225
 2745TIP3    H1 8199   7.068   6.718   1.158
 2745TIP3    H2 8200   6.944   6.653   1.214
 2746TIP3   OH2 8201   0.255   5.108   0.246
 2746TIP3    H1 8202   0.204   5.158   0.182
 2746TIP3    H2 8203   0.280   5.172   0.313
 2747TIP3   OH2 8204   2.633   4.389   5.322
 2747TIP3    H1 8205   2.645   4.338   5.402
 2747TIP3    H2 8206   2.699   4.355   5.262
 2748TIP3   OH2 8207   3.895   5.559   5.654
 2748TIP3    H1 8208   3.846   5.625   5.604
 2748TIP3    H2 8209   3.866   5.475   5.618
 2749TIP3   OH2 8210   5.108   2.437   3.906
 2749TIP3    H1 8211   5.121   2.436   4.001
 2749TIP3    H2 8212   5.188   2.397   3.871
 2750TIP3   OH2 8213   6.562   6.154   3.235
 2750TIP3    H1 8214   6.564   6.071   3.187
 2750TIP3    H2 8215   6.649   6.160   3.275
 2751TIP3   OH2 8216   1.960   6.703   0.937
 2751TIP3    H1 8217   1.902   6.776   0.917
 2751TIP3    H2 8218   2.034   6.714   0.878
 2752TIP3   OH2 8219   7.015   6.345   1.265
 2752TIP3    H1 8220   6.923   6.349   1.292
 2752TIP3    H2 8221   7.064   6.358   1.346
 2753TIP3   OH2 8222   4.233   3.485   2.552
 2753TIP3    H1 8223   4.202   3.472   2.641
 2753TIP3    H2 8224   4.160   3.528   2.507
 2754TIP3   OH2 8225   1.024   5.737   3.258
 2754TIP3    H1 8226   0.995   5.717   3.346
 2754TIP3    H2 8227   1.076   5.817   3.267
 2755TIP3   OH2 8228   6.513   0.035   0.295
 2755TIP3    H1 8229   6.597   0.063   0.258
 2755TIP3    H2 8230   6.521  -0.060   0.304
 2756TIP3   OH2 8231   5.146   6.615   0.237
 2756TIP3    H1 8232   5.120   6.535   0.282
 2756TIP3    H2 8233   5.208   6.657   0.297
 2757TIP3   OH2 8234   4.265   6.744   2.053
 2757TIP3    H1 8235   4.178   6.771   2.083
 2757TIP3    H2 8236   4.249   6.664   2.003
 2758TIP3   OH2 8237   7.174   2.454   3.473
 2758TIP3    H1 8238   7.226   2.456   3.393
 2758TIP3    H2 8239   7.203   2.531   3.522
 2759TIP3   OH2 8240   2.873   1.417   3.562
 2759TIP3    H1 8241   2.938   1.349   3.581
 2759TIP3    H2 8242   2.885   1.481   3.633
 2760TIP3   OH2 8243   1.618   2.738   1.339
 2760TIP3    H1 8244   1.665   2.661   1.370
 2760TIP3    H2 8245   1.526   2.719   1.357
 2761TIP3   OH2 8246   5.981   6.540   5.299
 2761TIP3    H1 8247   5.940   6.568   5.381
 2761TIP3    H2 8248   6.036   6.466   5.323
 2762TIP3   OH2 8249   5.595   4.288   0.616
 2762TIP3    H1 8250   5.687   4.299   0.591
 2762TIP3    H2 8251   5.547   4.333   0.547
 2763TIP3   OH2 8252   0.596   3.910   3.145
 2763TIP3    H1 8253   0.545   3.838   3.181
 2763TIP3    H2 8254   0.533   3.960   3.094
 2764TIP3   OH2 8255   5.539   5.123   5.241
 2764TIP3    H1 8256   5.538   5.196   5.179
 2764TIP3    H2 8257   5.631   5.113   5.263
 2765TIP3   OH2 8258   1.629   0.423   0.283
 2765TIP3    H1 8259   1.709   0.371   0.273
 2765TIP3    H2 8260   1.562   0.373   0.236
 2766TIP3   OH2 8261   2.119   5.884   3.912
 2766TIP3    H1 8262   2.038   5.869   3.961
 2766TIP3    H2 8263   2.179   5.921   3.976
 2767TIP3   OH2 8264   2.618   5.425   0.296
 2767TIP3    H1 8265   2.682   5.371   0.343
 2767TIP3    H2 8266   2.573   5.475   0.364
 2768TIP3   OH2 8267   2.810   4.577   2.327
 2768TIP3    H1 8268   2.780   4.486   2.334
 2768TIP3    H2 8269   2.747   4.618   2.267
 2769TIP3   OH2 8270   0.571   1.360   5.805
 2769TIP3    H1 8271   0.544   1.414   5.880
 2769TIP3    H2 8272   0.489   1.341   5.759
 2770TIP3   OH2 8273   5.074   2.449   5.670
 2770TIP3    H1 8274   5.154   2.483   5.710
 2770TIP3    H2 8275   5.051   2.515   5.604
 2771TIP3   OH2 8276   6.592   6.496   2.612
 2771TIP3    H1 8277   6.656   6.567   2.613
 2771TIP3    H2 8278   6.538   6.510   2.690
 2772TIP3   OH2 8279   7.075   3.813   1.746
 2772TIP3    H1 8280   7.008   3.787   1.810
 2772TIP3    H2 8281   7.052   3.765   1.666
 2773TIP3   OH2 8282   2.901   4.832   1.562
 2773TIP3    H1 8283   2.840   4.853   1.632
 2773TIP3    H2 8284   2.851   4.777   1.502
 2774TIP3   OH2 8285   4.755   2.139   3.671
 2774TIP3    H1 8286   4.711   2.130   3.755
 2774TIP3    H2 8287   4.841   2.175   3.693
 2775TIP3   OH2 8288   0.474   1.119   5.198
 2775TIP3    H1 8289   0.427   1.195   5.164
 2775TIP3    H2 8290   0.433   1.044   5.153
 2776TIP3   OH2 8291   6.420   2.885   4.663
 2776TIP3    H1 8292   6.336   2.893   4.617
 2776TIP3    H2 8293   6.448   2.795   4.645
 2777TIP3   OH2 8294   3.514   5.678   1.162
 2777TIP3    H1 8295   3.434   5.731   1.168
 2777TIP3    H2 8296   3.542   5.688   1.071
 2778TIP3   OH2 8297   6.962   2.995   5.627
 2778TIP3    H1 8298   6.911   2.974   5.548
 2778TIP3    H2 8299   6.904   3.052   5.678
 2779TIP3   OH2 8300   4.302   1.106   5.312
 2779TIP3    H1 8301   4.263   1.106   5.399
 2779TIP3    H2 8302   4.379   1.049   5.320
 2780TIP3   OH2 8303   6.135   6.025   4.445
 2780TIP3    H1 8304   6.106   6.103   4.397
 2780TIP3    H2 8305   6.070   5.958   4.421
 2781TIP3   OH2 8306   2.789   4.088   0.380
 2781TIP3    H1 8307   2.758   4.095   0.470
 2781TIP3    H2 8308   2.801   3.994   0.366
 2782TIP3   OH2 8309   0.965   2.704   4.053
 2782TIP3    H1 8310   0.934   2.759   3.981
 2782TIP3    H2 8311   0.892   2.702   4.115
 2783TIP3   OH2 8312   6.217   3.959   2.460
 2783TIP3    H1 8313   6.275   3.897   2.416
 2783TIP3    H2 8314   6.227   3.938   2.553
 2784TIP3   OH2 8315   5.715   6.073   3.475
 2784TIP3    H1 8316   5.662   6.026   3.410
 2784TIP3    H2 8317   5.769   6.132   3.422
 2785TIP3   OH2 8318   4.196   4.643   5.686
 2785TIP3    H1 8319   4.264   4.628   5.621
 2785TIP3    H2 8320   4.137   4.707   5.646
 2786TIP3   OH2 8321   2.344   2.366   5.285
 2786TIP3    H1 8322   2.363   2.280   5.324
 2786TIP3    H2 8323   2.319   2.421   5.360
 2787TIP3   OH2 8324   6.626   6.257   4.077
 2787TIP3    H1 8325   6.634   6.164   4.100
 2787TIP3    H2 8326   6.615   6.257   3.981
 2788TIP3   OH2 8327   2.442   6.233   0.877
 2788TIP3    H1 8328   2.505   6.240   0.805
 2788TIP3    H2 8329   2.487   6.271   0.952
 2789TIP3   OH2 8330   1.637   1.363   4.855
 2789TIP3    H1 8331   1.679   1.301   4.914
 2789TIP3    H2 8332   1.711   1.405   4.809
 2790TIP3   OH2 8333   6.453   0.381   3.548
 2790TIP3    H1 8334   6.429   0.439   3.476
 2790TIP3    H2 8335   6.431   0.293   3.516
 2791TIP3   OH2 8336   3.405   1.037   0.551
 2791TIP3    H1 8337   3.342   1.018   0.481
 2791TIP3    H2 8338   3.490   1.021   0.512
 2792TIP3   OH2 8339   1.613   4.626   5.558
 2792TIP3    H1 8340   1.575   4.618   5.645
 2792TIP3    H2 8341   1.600   4.540   5.519
 2793TIP3   OH2 8342   6.348   0.378   3.784
 2793TIP3    H1 8343   6.418   0.380   3.720
 2793TIP3    H2 8344   6.273   0.420   3.740
 2794TIP3   OH2 8345   3.450   4.099   2.341
 2794TIP3    H1 8346   3.476   4.185   2.308
 2794TIP3    H2 8347   3.395   4.062   2.272
 2795TIP3   OH2 8348   4.471   0.236   4.421
 2795TIP3    H1 8349   4.522   0.257   4.499
 2795TIP3    H2 8350   4.465   0.140   4.422
 2796TIP3   OH2 8351   3.759   4.065   1.854
 2796TIP3    H1 8352   3.821   3.995   1.833
 2796TIP3    H2 8353   3.792   4.102   1.936
 2797TIP3   OH2 8354   4.829   3.829   3.471
 2797TIP3    H1 8355   4.830   3.806   3.378
 2797TIP3    H2 8356   4.738   3.855   3.488
 2798TIP3   OH2 8357   0.040   4.566   5.314
 2798TIP3    H1 8358   0.080   4.521   5.240
 2798TIP3    H2 8359   0.033   4.657   5.286
 2799TIP3   OH2 8360   2.956   1.513   4.738
 2799TIP3    H1 8361   3.033   1.559   4.705
 2799TIP3    H2 8362   2.956   1.430   4.691
 2800TIP3   OH2 8363   5.953   2.322   3.701
 2800TIP3    H1 8364   5.895   2.246   3.705
 2800TIP3    H2 8365   6.041   2.286   3.714
 2801TIP3   OH2 8366   0.461   0.409   0.323
 2801TIP3    H1 8367   0.514   0.471   0.373
 2801TIP3    H2 8368   0.513   0.329   0.320
 2802TIP3   OH2 8369   6.471   2.223   2.360
 2802TIP3    H1 8370   6.443   2.256   2.275
 2802TIP3    H2 8371   6.564   2.248   2.366
 2803TIP3   OH2 8372   4.026   2.061   1.750
 2803TIP3    H1 8373   3.972   2.138   1.765
 2803TIP3    H2 8374   4.077   2.050   1.831
 2804TIP3   OH2 8375   6.750   0.112   4.656
 2804TIP3    H1 8376   6.842   0.116   4.632
 2804TIP3    H2 8377   6.748   0.141   4.748
 2805TIP3   OH2 8378   3.687   3.664   4.367
 2805TIP3    H1 8379   3.617   3.627   4.420
 2805TIP3    H2 8380   3.644   3.700   4.289
 2806TIP3   OH2 8381   2.900   5.632   3.570
 2806TIP3    H1 8382   2.980   5.682   3.586
 2806TIP3    H2 8383   2.830   5.697   3.570
 2807TIP3   OH2 8384   2.735   2.141   5.485
 2807TIP3    H1 8385   2.786   2.183   5.416
 2807TIP3    H2 8386   2.672   2.085   5.439
 2808TIP3   OH2 8387   5.151   6.237   5.110
 2808TIP3    H1 8388   5.097   6.295   5.163
 2808TIP3    H2 8389   5.115   6.150   5.124
 2809TIP3   OH2 8390   1.834   0.000   3.275
 2809TIP3    H1 8391   1.739  -0.013   3.279
 2809TIP3    H2 8392   1.857   0.033   3.362
 2810TIP3   OH2 8393   2.862   0.014   0.099
 2810TIP3    H1 8394   2.934   0.075   0.083
 2810TIP3    H2 8395   2.880  -0.024   0.185
 2811TIP3   OH2 8396   2.300   3.439   4.353
 2811TIP3    H1 8397   2.362   3.412   4.286
 2811TIP3    H2 8398   2.336   3.403   4.435
 2812TIP3   OH2 8399   5.113   3.540   4.078
 2812TIP3    H1 8400   5.207   3.537   4.099
 2812TIP3    H2 8401   5.109   3.590   3.997
 2813TIP3   OH2 8402   2.308   0.569   1.583
 2813TIP3    H1 8403   2.316   0.658   1.617
 2813TIP3    H2 8404   2.267   0.580   1.497
 2814TIP3   OH2 8405   1.680   2.091   2.298
 2814TIP3    H1 8406   1.677   2.166   2.357
 2814TIP3    H2 8407   1.597   2.046   2.312
 2815TIP3   OH2 8408   2.191   3.451   2.888
 2815TIP3    H1 8409   2.151   3.480   2.805
 2815TIP3    H2 8410   2.158   3.362   2.901
 2816TIP3   OH2 8411   2.729   5.958   2.643
 2816TIP3    H1 8412   2.672   6.030   2.616
 2816TIP3    H2 8413   2.792   5.998   2.702
 2817TIP3   OH2 8414   3.347   0.820   1.061
 2817TIP3    H1 8415   3.397   0.829   0.979
 2817TIP3    H2 8416   3.326   0.727   1.066
 2818TIP3   OH2 8417   0.956   5.718   2.992
 2818TIP3    H1 8418   0.996   5.731   3.078
 2818TIP3    H2 8419   0.879   5.664   3.009
 2819TIP3   OH2 8420   5.527   3.778   4.816
 2819TIP3    H1 8421   5.445   3.810   4.853
 2819TIP3    H2 8422   5.589   3.783   4.888
 2820TIP3   OH2 8423   1.248   2.170   0.896
 2820TIP3    H1 8424   1.198   2.098   0.933
 2820TIP3    H2 8425   1.274   2.139   0.809
 2821TIP3   OH2 8426   3.900   4.478   0.730
 2821TIP3    H1 8427   3.991   4.486   0.757
 2821TIP3    H2 8428   3.902   4.414   0.658
 2822TIP3   OH2 8429   4.424   3.233   5.151
 2822TIP3    H1 8430   4.487   3.162   5.168
 2822TIP3    H2 8431   4.355   3.219   5.216
 2823TIP3   OH2 8432   4.098   3.877   4.778
 2823TIP3    H1 8433   4.175   3.922   4.743
 2823TIP3    H2 8434   4.063   3.828   4.703
 2824TIP3   OH2 8435   6.947   4.015   5.075
 2824TIP3    H1 8436   6.943   4.007   4.979
 2824TIP3    H2 8437   7.001   4.092   5.091
 2825TIP3   OH2 8438   0.164   0.483   3.195
 2825TIP3    H1 8439   0.166   0.525   3.108
 2825TIP3    H2 8440   0.072   0.466   3.210
 2826TIP3   OH2 8441   4.663   2.012   4.844
 2826TIP3    H1 8442   4.606   2.008   4.767
 2826TIP3    H2 8443   4.639   1.934   4.895
 2827TIP3   OH2 8444   3.095   2.720   0.499
 2827TIP3    H1 8445   3.115   2.758   0.584
 2827TIP3    H2 8446   3.173   2.670   0.476
 2828TIP3   OH2 8447   1.706   2.474   1.492
 2828TIP3    H1 8448   1.621   2.498   1.529
 2828TIP3    H2 8449   1.755   2.436   1.566
 2829TIP3   OH2 8450   5.434   2.070   1.717
 2829TIP3    H1 8451   5.443   2.003   1.649
 2829TIP3    H2 8452   5.481   2.034   1.792
 2830TIP3   OH2 8453   4.208   0.093   5.229
 2830TIP3    H1 8454   4.155   0.014   5.220
 2830TIP3    H2 8455   4.221   0.102   5.324
 2831TIP3   OH2 8456   4.181   0.590   4.684
 2831TIP3    H1 8457   4.145   0.675   4.659
 2831TIP3    H2 8458   4.118   0.527   4.649
 2832TIP3   OH2 8459   0.171   4.521   3.552
 2832TIP3    H1 8460   0.149   4.504   3.460
 2832TIP3    H2 8461   0.265   4.506   3.557
 2833TIP3   OH2 8462   4.975   5.965   1.128
 2833TIP3    H1 8463   4.916   5.975   1.203
 2833TIP3    H2 8464   4.944   5.885   1.084
 2834TIP3   OH2 8465   0.544   2.863   2.036
 2834TIP3    H1 8466   0.481   2.860   2.108
 2834TIP3    H2 8467   0.491   2.889   1.960
 2835TIP3   OH2 8468   2.122   1.447   1.566
 2835TIP3    H1 8469   2.116   1.450   1.662
 2835TIP3    H2 8470   2.216   1.442   1.548
 2836TIP3   OH2 8471   0.130   3.361   5.814
 2836TIP3    H1 8472   0.188   3.287   5.797
 2836TIP3    H2 8473   0.058   3.324   5.865
 2837TIP3   OH2 8474   5.050   3.973   1.627
 2837TIP3    H1 8475   5.007   3.952   1.545
 2837TIP3    H2 8476   4.984   4.020   1.678
 2838TIP3   OH2 8477   2.275   4.091   5.503
 2838TIP3    H1 8478   2.309   4.011   5.543
 2838TIP3    H2 8479   2.343   4.119   5.443
 2839TIP3   OH2 8480   5.361   6.633   1.198
 2839TIP3    H1 8481   5.400   6.717   1.173
 2839TIP3    H2 8482   5.392   6.617   1.287
 2840TIP3   OH2 8483   2.092   0.674   3.225
 2840TIP3    H1 8484   2.141   0.609   3.276
 2840TIP3    H2 8485   2.142   0.682   3.143
 2841TIP3   OH2 8486   2.563   1.195   3.208
 2841TIP3    H1 8487   2.632   1.244   3.163
 2841TIP3    H2 8488   2.602   1.174   3.294
 2842TIP3   OH2 8489   4.313   3.788   3.531
 2842TIP3    H1 8490   4.248   3.719   3.542
 2842TIP3    H2 8491   4.297   3.823   3.443
 2843TIP3   OH2 8492   1.660   2.878   0.104
 2843TIP3    H1 8493   1.732   2.873   0.041
 2843TIP3    H2 8494   1.598   2.812   0.074
 2844TIP3   OH2 8495   1.490   5.511   4.320
 2844TIP3    H1 8496   1.516   5.494   4.410
 2844TIP3    H2 8497   1.571   5.501   4.270
 2845TIP3   OH2 8498   5.487   0.146   2.786
 2845TIP3    H1 8499   5.440   0.186   2.714
 2845TIP3    H2 8500   5.535   0.218   2.828
 2846TIP3   OH2 8501   2.199   1.380   0.380
 2846TIP3    H1 8502   2.147   1.304   0.352
 2846TIP3    H2 8503   2.227   1.358   0.469
 2847TIP3   OH2 8504   0.452   1.061   0.756
 2847TIP3    H1 8505   0.363   1.085   0.779
 2847TIP3    H2 8506   0.450   0.965   0.751
 2848TIP3   OH2 8507   6.622   4.584   0.520
 2848TIP3    H1 8508   6.662   4.671   0.524
 2848TIP3    H2 8509   6.693   4.525   0.547
 2849TIP3   OH2 8510   0.909   3.159   3.557
 2849TIP3    H1 8511   0.990   3.143   3.508
 2849TIP3    H2 8512   0.855   3.212   3.498
 2850TIP3   OH2 8513   1.478   3.573   4.205
 2850TIP3    H1 8514   1.480   3.595   4.298
 2850TIP3    H2 8515   1.566   3.594   4.173
 2851TIP3   OH2 8516   1.051   5.512   1.641
 2851TIP3    H1 8517   1.015   5.561   1.715
 2851TIP3    H2 8518   1.022   5.422   1.655
 2852TIP3   OH2 8519   0.703   0.578   5.601
 2852TIP3    H1 8520   0.747   0.517   5.660
 2852TIP3    H2 8521   0.622   0.533   5.576
 2853TIP3   OH2 8522   5.466   6.671   0.933
 2853TIP3    H1 8523   5.402   6.740   0.920
 2853TIP3    H2 8524   5.527   6.680   0.860
 2854TIP3   OH2 8525   5.393   1.124   5.201
 2854TIP3    H1 8526   5.302   1.095   5.201
 2854TIP3    H2 8527   5.399   1.185   5.275
 2855TIP3   OH2 8528   4.199   4.674   4.022
 2855TIP3    H1 8529   4.230   4.711   4.105
 2855TIP3    H2 8530   4.279   4.655   3.973
 2856TIP3   OH2 8531   5.026   4.685   1.655
 2856TIP3    H1 8532   5.090   4.754   1.635
 2856TIP3    H2 8533   5.058   4.645   1.735
 2857TIP3   OH2 8534   3.138   0.268   2.361
 2857TIP3    H1 8535   3.202   0.310   2.419
 2857TIP3    H2 8536   3.180   0.270   2.275
 2858TIP3   OH2 8537   1.768   2.836   3.252
 2858TIP3    H1 8538   1.732   2.766   3.306
 2858TIP3    H2 8539   1.863   2.829   3.264
 2859TIP3   OH2 8540   3.757   1.577   4.814
 2859TIP3    H1 8541   3.823   1.639   4.785
 2859TIP3    H2 8542   3.762   1.579   4.910
 2860TIP3   OH2 8543   4.767   0.023   0.603
 2860TIP3    H1 8544   4.856   0.046   0.576
 2860TIP3    H2 8545   4.757   0.063   0.689
 2861TIP3   OH2 8546   2.120   5.963   2.890
 2861TIP3    H1 8547   2.134   6.057   2.884
 2861TIP3    H2 8548   2.143   5.940   2.980
 2862TIP3   OH2 8549   2.860   1.791   3.975
 2862TIP3    H1 8550   2.808   1.796   4.055
 2862TIP3    H2 8551   2.948   1.769   4.005
 2863TIP3   OH2 8552   2.728   0.410   3.781
 2863TIP3    H1 8553   2.760   0.393   3.869
 2863TIP3    H2 8554   2.632   0.411   3.790
 2864TIP3   OH2 8555   6.900   2.665   5.087
 2864TIP3    H1 8556   6.810   2.698   5.075
 2864TIP3    H2 8557   6.946   2.736   5.131
 2865TIP3   OH2 8558   5.426   6.722   3.601
 2865TIP3    H1 8559   5.446   6.641   3.648
 2865TIP3    H2 8560   5.337   6.710   3.569
 2866TIP3   OH2 8561   4.598   3.124   4.626
 2866TIP3    H1 8562   4.550   3.194   4.582
 2866TIP3    H2 8563   4.602   3.151   4.718
 2867TIP3   OH2 8564   1.360   4.706   3.117
 2867TIP3    H1 8565   1.431   4.759   3.154
 2867TIP3    H2 8566   1.283   4.764   3.120
 2868TIP3   OH2 8567   1.240   1.320   3.287
 2868TIP3    H1 8568   1.155   1.334   3.245
 2868TIP3    H2 8569   1.304   1.330   3.216
 2869TIP3   OH2 8570   3.336   5.742   1.437
 2869TIP3    H1 8571   3.323   5.794   1.516
 2869TIP3    H2 8572   3.277   5.781   1.372
 2870TIP3   OH2 8573   4.100   5.704   5.390
 2870TIP3    H1 8574   4.173   5.706   5.453
 2870TIP3    H2 8575   4.051   5.784   5.408
 2871TIP3   OH2 8576   6.868   4.998   3.020
 2871TIP3    H1 8577   6.920   4.990   2.940
 2871TIP3    H2 8578   6.777   4.986   2.991
 2872TIP3   OH2 8579   5.726   4.353   5.879
 2872TIP3    H1 8580   5.759   4.276   5.832
 2872TIP3    H2 8581   5.754   4.427   5.825
 2873TIP3   OH2 8582   6.404   0.678   5.537
 2873TIP3    H1 8583   6.356   0.632   5.606
 2873TIP3    H2 8584   6.458   0.741   5.584
 2874TIP3   OH2 8585   2.145   3.747   2.631
 2874TIP3    H1 8586   2.194   3.709   2.559
 2874TIP3    H2 8587   2.053   3.741   2.604
 2875TIP3   OH2 8588   0.033   0.142   1.147
 2875TIP3    H1 8589   0.121   0.170   1.172
 2875TIP3    H2 8590   0.010   0.074   1.211
 2876TIP3   OH2 8591   0.396   3.155   3.108
 2876TIP3    H1 8592   0.337   3.208   3.055
 2876TIP3    H2 8593   0.484   3.186   3.085
 2877TIP3   OH2 8594   5.158   6.144   1.243
 2877TIP3    H1 8595   5.129   6.078   1.180
 2877TIP3    H2 8596   5.240   6.109   1.279
 2878TIP3   OH2 8597   1.574   3.105   2.388
 2878TIP3    H1 8598   1.635   3.167   2.428
 2878TIP3    H2 8599   1.575   3.127   2.295
 2879TIP3   OH2 8600   6.390   6.444   5.596
 2879TIP3    H1 8601   6.417   6.521   5.545
 2879TIP3    H2 8602   6.370   6.480   5.682
 2880TIP3   OH2 8603   4.982   6.116   0.001
 2880TIP3    H1 8604   5.076   6.134   0.006
 2880TIP3    H2 8605   4.974   6.022   0.017
 2881TIP3   OH2 8606   6.783   2.600   1.074
 2881TIP3    H1 8607   6.832   2.661   1.020
 2881TIP3    H2 8608   6.840   2.523   1.082
 2882TIP3   OH2 8609   7.128   6.594   3.791
 2882TIP3    H1 8610   7.129   6.517   3.847
 2882TIP3    H2 8611   7.150   6.561   3.704
 2883TIP3   OH2 8612   6.601   1.938   0.411
 2883TIP3    H1 8613   6.678   1.898   0.372
 2883TIP3    H2 8614   6.579   2.010   0.352
 2884TIP3   OH2 8615   2.172   4.036   1.105
 2884TIP3    H1 8616   2.190   4.128   1.085
 2884TIP3    H2 8617   2.170   4.032   1.200
 2885TIP3   OH2 8618   0.494   2.391   1.206
 2885TIP3    H1 8619   0.435   2.413   1.278
 2885TIP3    H2 8620   0.438   2.355   1.138
 2886TIP3   OH2 8621   0.801   0.974   2.584
 2886TIP3    H1 8622   0.813   0.959   2.490
 2886TIP3    H2 8623   0.711   1.007   2.591
 2887TIP3   OH2 8624   5.371   4.989   3.487
 2887TIP3    H1 8625   5.395   5.053   3.553
 2887TIP3    H2 8626   5.294   4.945   3.523
 2888TIP3   OH2 8627   5.666   2.649   0.153
 2888TIP3    H1 8628   5.739   2.695   0.110
 2888TIP3    H2 8629   5.704   2.565   0.180
 2889TIP3   OH2 8630   2.128   0.218   3.324
 2889TIP3    H1 8631   2.188   0.291   3.307
 2889TIP3    H2 8632   2.179   0.140   3.303
 2890TIP3   OH2 8633   7.127   4.572   1.383
 2890TIP3    H1 8634   7.140   4.649   1.328
 2890TIP3    H2 8635   7.128   4.498   1.323
 2891TIP3   OH2 8636   6.361   4.460   5.012
 2891TIP3    H1 8637   6.405   4.376   5.002
 2891TIP3    H2 8638   6.420   4.523   4.970
 2892TIP3   OH2 8639   2.475   0.789   1.918
 2892TIP3    H1 8640   2.447   0.847   1.847
 2892TIP3    H2 8641   2.491   0.848   1.992
 2893TIP3   OH2 8642   2.247   0.556   1.285
 2893TIP3    H1 8643   2.239   0.461   1.284
 2893TIP3    H2 8644   2.174   0.587   1.231
 2894TIP3   OH2 8645   5.260   1.846   5.437
 2894TIP3    H1 8646   5.186   1.855   5.377
 2894TIP3    H2 8647   5.224   1.795   5.510
 2895TIP3   OH2 8648   5.830   2.803   2.302
 2895TIP3    H1 8649   5.817   2.781   2.394
 2895TIP3    H2 8650   5.925   2.810   2.292
 2896TIP3   OH2 8651   7.135   4.515   5.906
 2896TIP3    H1 8652   7.204   4.476   5.853
 2896TIP3    H2 8653   7.065   4.535   5.843
 2897TIP3   OH2 8654   5.011   3.541   1.391
 2897TIP3    H1 8655   5.002   3.447   1.375
 2897TIP3    H2 8656   4.988   3.552   1.483
 2898TIP3   OH2 8657   5.305   1.521   2.500
 2898TIP3    H1 8658   5.267   1.441   2.535
 2898TIP3    H2 8659   5.233   1.566   2.456
 2899TIP3   OH2 8660   2.726   1.558   5.395
 2899TIP3    H1 8661   2.705   1.468   5.370
 2899TIP3    H2 8662   2.692   1.612   5.323
 2900TIP3   OH2 8663   3.351   4.972   4.488
 2900TIP3    H1 8664   3.288   4.923   4.435
 2900TIP3    H2 8665   3.419   4.909   4.509
 2901TIP3   OH2 8666   3.472   6.650   4.707
 2901TIP3    H1 8667   3.493   6.733   4.663
 2901TIP3    H2 8668   3.528   6.585   4.663
 2902TIP3   OH2 8669   1.205   1.740   3.859
 2902TIP3    H1 8670   1.256   1.805   3.907
 2902TIP3    H2 8671   1.115   1.753   3.889
 2903TIP3   OH2 8672   6.501   5.473   2.095
 2903TIP3    H1 8673   6.485   5.441   2.184
 2903TIP3    H2 8674   6.588   5.440   2.073
 2904TIP3   OH2 8675   2.331   2.962   3.021
 2904TIP3    H1 8676   2.405   2.916   3.060
 2904TIP3    H2 8677   2.295   2.901   2.958
 2905TIP3   OH2 8678   6.287   1.226   5.124
 2905TIP3    H1 8679   6.281   1.152   5.063
 2905TIP3    H2 8680   6.380   1.229   5.147
 2906TIP3   OH2 8681   3.781   0.295   0.540
 2906TIP3    H1 8682   3.774   0.202   0.560
 2906TIP3    H2 8683   3.756   0.339   0.621
 2907TIP3   OH2 8684   3.690   4.382   2.492
 2907TIP3    H1 8685   3.660   4.388   2.583
 2907TIP3    H2 8686   3.653   4.300   2.460
 2908TIP3   OH2 8687   3.601   5.945   3.049
 2908TIP3    H1 8688   3.533   5.924   3.113
 2908TIP3    H2 8689   3.644   5.861   3.031
 2909TIP3   OH2 8690  -0.031   3.822   3.622
 2909TIP3    H1 8691   0.035   3.858   3.564
 2909TIP3    H2 8692   0.015   3.805   3.704
 2910TIP3   OH2 8693   2.107   1.830   0.756
 2910TIP3    H1 8694   2.172   1.849   0.824
 2910TIP3    H2 8695   2.024   1.860   0.793
 2911TIP3   OH2 8696   1.640   2.447   0.344
 2911TIP3    H1 8697   1.563   2.502   0.360
 2911TIP3    H2 8698   1.606   2.373   0.293
 2912TIP3   OH2 8699   2.435   5.813   5.511
 2912TIP3    H1 8700   2.406   5.871   5.441
 2912TIP3    H2 8701   2.355   5.777   5.548
 2913TIP3   OH2 8702   3.594   4.518   4.293
 2913TIP3    H1 8703   3.689   4.525   4.292
 2913TIP3    H2 8704   3.577   4.428   4.322
 2914TIP3   OH2 8705   3.619   2.661   2.062
 2914TIP3    H1 8706   3.712   2.641   2.064
 2914TIP3    H2 8707   3.579   2.599   2.123
 2915TIP3   OH2 8708   0.251   0.931   5.453
 2915TIP3    H1 8709   0.164   0.908   5.485
 2915TIP3    H2 8710   0.244   1.024   5.431
 2916TIP3   OH2 8711   2.014   2.642   2.822
 2916TIP3    H1 8712   1.945   2.598   2.771
 2916TIP3    H2 8713   1.966   2.697   2.884
 2917TIP3   OH2 8714   5.128   5.660   5.410
 2917TIP3    H1 8715   5.090   5.646   5.497
 2917TIP3    H2 8716   5.062   5.626   5.350
 2918TIP3   OH2 8717   5.716   1.413   0.958
 2918TIP3    H1 8718   5.808   1.416   0.984
 2918TIP3    H2 8719   5.715   1.354   0.882
 2919TIP3   OH2 8720   1.624   5.152   1.568
 2919TIP3    H1 8721   1.661   5.167   1.656
 2919TIP3    H2 8722   1.532   5.177   1.576
 2920TIP3   OH2 8723   2.242   3.323   1.801
 2920TIP3    H1 8724   2.265   3.310   1.709
 2920TIP3    H2 8725   2.315   3.374   1.837
 2921TIP3   OH2 8726   1.190   2.366   5.636
 2921TIP3    H1 8727   1.102   2.330   5.653
 2921TIP3    H2 8728   1.188   2.387   5.542
 2922TIP3   OH2 8729   4.848   0.603   2.554
 2922TIP3    H1 8730   4.831   0.547   2.630
 2922TIP3    H2 8731   4.776   0.666   2.555
 2923TIP3   OH2 8732   3.348   4.083   0.758
 2923TIP3    H1 8733   3.317   4.096   0.669
 2923TIP3    H2 8734   3.282   4.028   0.799
 2924TIP3   OH2 8735   2.095   3.865   0.724
 2924TIP3    H1 8736   2.123   3.953   0.750
 2924TIP3    H2 8737   2.141   3.849   0.642
 2925TIP3   OH2 8738   4.721   2.376   2.528
 2925TIP3    H1 8739   4.636   2.372   2.571
 2925TIP3    H2 8740   4.774   2.432   2.585
 2926TIP3   OH2 8741   6.283   3.729   3.935
 2926TIP3    H1 8742   6.373   3.759   3.926
 2926TIP3    H2 8743   6.278   3.697   4.026
 2927TIP3   OH2 8744   5.084   5.417   1.196
 2927TIP3    H1 8745   5.013   5.353   1.187
 2927TIP3    H2 8746   5.163   5.369   1.171
 2928TIP3   OH2 8747   6.102   1.801   3.153
 2928TIP3    H1 8748   6.040   1.865   3.117
 2928TIP3    H2 8749   6.120   1.741   3.080
 2929TIP3   OH2 8750   3.211   2.342   3.120
 2929TIP3    H1 8751   3.213   2.433   3.091
 2929TIP3    H2 8752   3.120   2.314   3.105
 2930TIP3   OH2 8753   4.327   4.560   5.453
 2930TIP3    H1 8754   4.367   4.473   5.462
 2930TIP3    H2 8755   4.239   4.543   5.419
 2931TIP3   OH2 8756   1.137   0.516   2.784
 2931TIP3    H1 8757   1.062   0.460   2.768
 2931TIP3    H2 8758   1.117   0.561   2.867
 2932TIP3   OH2 8759   6.079   2.265   1.331
 2932TIP3    H1 8760   6.173   2.279   1.325
 2932TIP3    H2 8761   6.045   2.293   1.247
 2933TIP3   OH2 8762   5.850   2.249   2.917
 2933TIP3    H1 8763   5.793   2.326   2.922
 2933TIP3    H2 8764   5.804   2.182   2.968
 2934TIP3   OH2 8765   5.011   6.306   1.029
 2934TIP3    H1 8766   5.044   6.270   0.947
 2934TIP3    H2 8767   5.021   6.235   1.093
 2935TIP3   OH2 8768   2.304   1.159   1.198
 2935TIP3    H1 8769   2.377   1.195   1.148
 2935TIP3    H2 8770   2.342   1.084   1.243
 2936TIP3   OH2 8771   0.403   1.508   1.729
 2936TIP3    H1 8772   0.319   1.484   1.690
 2936TIP3    H2 8773   0.468   1.464   1.674
 2937TIP3   OH2 8774   6.164   4.102   2.225
 2937TIP3    H1 8775   6.207   4.073   2.305
 2937TIP3    H2 8776   6.212   4.059   2.155
 2938TIP3   OH2 8777   1.544   1.593   1.147
 2938TIP3    H1 8778   1.513   1.684   1.148
 2938TIP3    H2 8779   1.472   1.543   1.184
 2939TIP3   OH2 8780   4.543   4.313   4.781
 2939TIP3    H1 8781   4.525   4.334   4.872
 2939TIP3    H2 8782   4.508   4.224   4.769
 2940TIP3   OH2 8783   0.752   1.271   0.445
 2940TIP3    H1 8784   0.673   1.233   0.484
 2940TIP3    H2 8785   0.775   1.211   0.374
 2941TIP3   OH2 8786   1.331   3.170   5.286
 2941TIP3    H1 8787   1.372   3.198   5.369
 2941TIP3    H2 8788   1.334   3.248   5.231
 2942TIP3   OH2 8789   6.557   5.978   0.109
 2942TIP3    H1 8790   6.604   5.953   0.030
 2942TIP3    H2 8791   6.465   5.983   0.082
 2943TIP3   OH2 8792   3.669   6.710   0.206
 2943TIP3    H1 8793   3.632   6.634   0.251
 2943TIP3    H2 8794   3.714   6.759   0.276
 2944TIP3   OH2 8795   2.706   1.751   1.133
 2944TIP3    H1 8796   2.679   1.835   1.096
 2944TIP3    H2 8797   2.801   1.750   1.123
 2945TIP3   OH2 8798   2.251   0.866   5.779
 2945TIP3    H1 8799   2.320   0.917   5.822
 2945TIP3    H2 8800   2.177   0.869   5.840
 2946TIP3   OH2 8801   1.067   2.785   2.047
 2946TIP3    H1 8802   1.052   2.851   1.980
 2946TIP3    H2 8803   0.981   2.769   2.085
 2947TIP3   OH2 8804   5.078   0.235   4.642
 2947TIP3    H1 8805   5.024   0.303   4.603
 2947TIP3    H2 8806   5.022   0.195   4.709
 2948TIP3   OH2 8807   1.941   3.312   2.095
 2948TIP3    H1 8808   1.993   3.254   2.041
 2948TIP3    H2 8809   1.852   3.306   2.059
 2949TIP3   OH2 8810   5.642   0.816   3.651
 2949TIP3    H1 8811   5.643   0.878   3.578
 2949TIP3    H2 8812   5.712   0.846   3.709
 2950TIP3   OH2 8813   0.741   5.139   5.914
 2950TIP3    H1 8814   0.719   5.228   5.888
 2950TIP3    H2 8815   0.786   5.103   5.837
 2951TIP3   OH2 8816   2.594   6.685   2.515
 2951TIP3    H1 8817   2.621   6.740   2.589
 2951TIP3    H2 8818   2.577   6.747   2.444
 2952TIP3   OH2 8819   5.885   0.980   4.646
 2952TIP3    H1 8820   5.847   0.979   4.734
 2952TIP3    H2 8821   5.819   0.937   4.591
 2953TIP3   OH2 8822   1.581   1.753   5.375
 2953TIP3    H1 8823   1.612   1.835   5.335
 2953TIP3    H2 8824   1.548   1.701   5.302
 2954TIP3   OH2 8825   3.891   5.312   2.185
 2954TIP3    H1 8826   3.864   5.336   2.097
 2954TIP3    H2 8827   3.845   5.375   2.242
 2955TIP3   OH2 8828   2.212   0.459   1.822
 2955TIP3    H1 8829   2.247   0.498   1.742
 2955TIP3    H2 8830   2.219   0.529   1.888
 2956TIP3   OH2 8831   4.952   0.306   3.322
 2956TIP3    H1 8832   4.981   0.396   3.308
 2956TIP3    H2 8833   4.857   0.311   3.327
 2957TIP3   OH2 8834   0.784   3.009   2.817
 2957TIP3    H1 8835   0.714   2.956   2.780
 2957TIP3    H2 8836   0.743   3.055   2.890
 2958TIP3   OH2 8837   4.684   0.119   3.145
 2958TIP3    H1 8838   4.764   0.070   3.164
 2958TIP3    H2 8839   4.618   0.051   3.127
 2959TIP3   OH2 8840   6.363   4.488   0.476
 2959TIP3    H1 8841   6.289   4.539   0.444
 2959TIP3    H2 8842   6.433   4.552   0.488
 2960TIP3   OH2 8843   2.428   1.532   1.269
 2960TIP3    H1 8844   2.352   1.575   1.230
 2960TIP3    H2 8845   2.488   1.516   1.196
 2961TIP3   OH2 8846   1.860   4.722   0.493
 2961TIP3    H1 8847   1.819   4.637   0.475
 2961TIP3    H2 8848   1.954   4.703   0.496
 2962TIP3   OH2 8849   2.142   5.169   2.951
 2962TIP3    H1 8850   2.170   5.126   2.870
 2962TIP3    H2 8851   2.166   5.261   2.939
 2963TIP3   OH2 8852   4.496   2.248   2.950
 2963TIP3    H1 8853   4.581   2.216   2.980
 2963TIP3    H2 8854   4.454   2.282   3.029
 2964TIP3   OH2 8855   5.865   3.676   0.489
 2964TIP3    H1 8856   5.886   3.768   0.478
 2964TIP3    H2 8857   5.776   3.667   0.455
 2965TIP3   OH2 8858   7.134   6.699   0.539
 2965TIP3    H1 8859   7.135   6.794   0.552
 2965TIP3    H2 8860   7.097   6.688   0.451
 2966TIP3   OH2 8861   7.121   6.398   3.137
 2966TIP3    H1 8862   7.031   6.417   3.163
 2966TIP3    H2 8863   7.117   6.311   3.098
 2967TIP3   OH2 8864   0.679   5.217   2.516
 2967TIP3    H1 8865   0.755   5.259   2.557
 2967TIP3    H2 8866   0.606   5.276   2.535
 2968TIP3   OH2 8867   3.796   6.639   5.153
 2968TIP3    H1 8868   3.856   6.638   5.227
 2968TIP3    H2 8869   3.842   6.690   5.086
 2969TIP3   OH2 8870   1.386   3.469   5.417
 2969TIP3    H1 8871   1.303   3.478   5.463
 2969TIP3    H2 8872   1.421   3.385   5.447
 2970TIP3   OH2 8873   5.374   3.599   1.652
 2970TIP3    H1 8874   5.430   3.560   1.719
 2970TIP3    H2 8875   5.412   3.569   1.569
 2971TIP3   OH2 8876   0.238   4.115   1.828
 2971TIP3    H1 8877   0.152   4.072   1.825
 2971TIP3    H2 8878   0.218   4.207   1.845
 2972TIP3   OH2 8879   6.762   2.447   0.317
 2972TIP3    H1 8880   6.744   2.410   0.403
 2972TIP3    H2 8881   6.681   2.433   0.268
 2973TIP3   OH2 8882   5.510   6.562   1.472
 2973TIP3    H1 8883   5.508   6.468   1.452
 2973TIP3    H2 8884   5.453   6.572   1.547
 2974TIP3   OH2 8885   6.185   3.119   5.301
 2974TIP3    H1 8886   6.098   3.091   5.332
 2974TIP3    H2 8887   6.184   3.100   5.208
 2975TIP3   OH2 8888   1.167   0.557   0.474
 2975TIP3    H1 8889   1.148   0.525   0.386
 2975TIP3    H2 8890   1.117   0.638   0.482
 2976TIP3   OH2 8891   1.897   6.307   4.502
 2976TIP3    H1 8892   1.947   6.386   4.522
 2976TIP3    H2 8893   1.961   6.245   4.467
 2977TIP3   OH2 8894   1.114   3.516   5.618
 2977TIP3    H1 8895   1.145   3.513   5.708
 2977TIP3    H2 8896   1.073   3.430   5.604
 2978TIP3   OH2 8897   3.452   3.592   5.144
 2978TIP3    H1 8898   3.528   3.548   5.108
 2978TIP3    H2 8899   3.411   3.527   5.201
 2979TIP3   OH2 8900   5.683   6.279   2.669
 2979TIP3    H1 8901   5.735   6.257   2.591
 2979TIP3    H2 8902   5.737   6.252   2.743
 2980TIP3   OH2 8903   6.900   2.073   3.756
 2980TIP3    H1 8904   6.904   2.125   3.676
 2980TIP3    H2 8905   6.990   2.070   3.788
 2981TIP3   OH2 8906   3.412   4.049   2.039
 2981TIP3    H1 8907   3.355   4.126   2.030
 2981TIP3    H2 8908   3.356   3.983   2.080
 2982TIP3   OH2 8909   1.693   5.216   2.484
 2982TIP3    H1 8910   1.622   5.153   2.495
 2982TIP3    H2 8911   1.702   5.227   2.390
 2983TIP3   OH2 8912   6.402   0.901   5.341
 2983TIP3    H1 8913   6.404   0.884   5.247
 2983TIP3    H2 8914   6.403   0.814   5.381
 2984TIP3   OH2 8915   4.168   4.378   0.785
 2984TIP3    H1 8916   4.248   4.415   0.748
 2984TIP3    H2 8917   4.197   4.304   0.837
 2985TIP3   OH2 8918   3.225   0.653   1.705
 2985TIP3    H1 8919   3.289   0.613   1.646
 2985TIP3    H2 8920   3.187   0.579   1.753
 2986TIP3   OH2 8921   6.240   3.165   4.543
 2986TIP3    H1 8922   6.329   3.198   4.545
 2986TIP3    H2 8923   6.247   3.076   4.508
 2987TIP3   OH2 8924   3.126   5.320   1.220
 2987TIP3    H1 8925   3.102   5.244   1.166
 2987TIP3    H2 8926   3.164   5.382   1.158
 2988TIP3   OH2 8927   1.931   6.016   4.603
 2988TIP3    H1 8928   1.883   5.943   4.566
 2988TIP3    H2 8929   1.872   6.054   4.668
 2989TIP3   OH2 8930   2.425   6.052   0.042
 2989TIP3    H1 8931   2.430   6.007   0.126
 2989TIP3    H2 8932   2.404   6.143   0.064
 2990TIP3   OH2 8933   7.001   3.832   0.813
 2990TIP3    H1 8934   6.916   3.871   0.792
 2990TIP3    H2 8935   6.984   3.779   0.891
 2991TIP3   OH2 8936   0.636   3.471   5.243
 2991TIP3    H1 8937   0.548   3.440   5.265
 2991TIP3    H2 8938   0.651   3.440   5.154
 2992TIP3   OH2 8939   2.933   4.231   1.640
 2992TIP3    H1 8940   2.921   4.205   1.548
 2992TIP3    H2 8941   3.028   4.224   1.654
 2993TIP3   OH2 8942   3.532   4.770   4.352
 2993TIP3    H1 8943   3.554   4.692   4.301
 2993TIP3    H2 8944   3.550   4.746   4.442
 2994TIP3   OH2 8945   2.749   3.514   5.637
 2994TIP3    H1 8946   2.824   3.483   5.586
 2994TIP3    H2 8947   2.733   3.444   5.700
 2995TIP3   OH2 8948   5.788   3.449   4.689
 2995TIP3    H1 8949   5.759   3.392   4.618
 2995TIP3    H2 8950   5.767   3.400   4.769
 2996TIP3   OH2 8951   1.123   0.723   1.856
 2996TIP3    H1 8952   1.158   0.773   1.930
 2996TIP3    H2 8953   1.195   0.667   1.829
 2997TIP3   OH2 8954   0.772   2.178   1.565
 2997TIP3    H1 8955   0.766   2.274   1.568
 2997TIP3    H2 8956   0.731   2.149   1.647
 2998TIP3   OH2 8957   2.022   5.247   2.398
 2998TIP3    H1 8958   2.075   5.326   2.405
 2998TIP3    H2 8959   2.024   5.208   2.485
 2999TIP3   OH2 8960   3.759   5.914   4.080
 2999TIP3    H1 8961   3.827   5.925   4.146
 2999TIP3    H2 8962   3.763   5.994   4.027
 3000TIP3   OH2 8963   7.029   3.366   5.517
 3000TIP3    H1 8964   7.002   3.431   5.582
 3000TIP3    H2 8965   7.011   3.408   5.433
 3001TIP3   OH2 8966   2.618   3.466   3.382
 3001TIP3    H1 8967   2.545   3.497   3.436
 3001TIP3    H2 8968   2.696   3.478   3.437
 3002TIP3   OH2 8969   0.077   1.236   1.332
 3002TIP3    H1 8970   0.110   1.323   1.309
 3002TIP3    H2 8971   0.155   1.181   1.340
 3003TIP3   OH2 8972   6.325   5.350   3.005
 3003TIP3    H1 8973   6.383   5.275   2.991
 3003TIP3    H2 8974   6.384   5.419   3.036
 3004TIP3   OH2 8975   6.596   1.553   2.325
 3004TIP3    H1 8976   6.600   1.472   2.377
 3004TIP3    H2 8977   6.651   1.536   2.249
 3005TIP3   OH2 8978   0.902   1.391   3.480
 3005TIP3    H1 8979   0.876   1.411   3.570
 3005TIP3    H2 8980   0.942   1.304   3.485
 3006TIP3   OH2 8981   6.157   1.523   0.803
 3006TIP3    H1 8982   6.103   1.444   0.791
 3006TIP3    H2 8983   6.113   1.590   0.751
 3007TIP3   OH2 8984   5.397   6.403   4.369
 3007TIP3    H1 8985   5.335   6.358   4.426
 3007TIP3    H2 8986   5.372   6.495   4.373
 3008TIP3   OH2 8987   0.930   0.274   4.319
 3008TIP3    H1 8988   0.836   0.257   4.323
 3008TIP3    H2 8989   0.970   0.201   4.366
 3009TIP3   OH2 8990   4.694   5.058   3.417
 3009TIP3    H1 8991   4.691   5.060   3.322
 3009TIP3    H2 8992   4.609   5.021   3.443
 3010TIP3   OH2 8993   3.234   6.662   1.812
 3010TIP3    H1 8994   3.152   6.665   1.862
 3010TIP3    H2 8995   3.246   6.570   1.791
 3011TIP3   OH2 8996   5.891   6.705   4.831
 3011TIP3    H1 8997   5.882   6.701   4.736
 3011TIP3    H2 8998   5.841   6.630   4.863
 3012TIP3   OH2 8999   5.360   6.426   0.772
 3012TIP3    H1 9000   5.265   6.413   0.769
 3012TIP3    H2 9001   5.374   6.481   0.849
 3013TIP3   OH2 9002   2.740   0.995   3.885
 3013TIP3    H1 9003   2.808   0.980   3.819
 3013TIP3    H2 9004   2.723   1.089   3.883
 3014TIP3   OH2 9005   2.579   3.154   3.192
 3014TIP3    H1 9006   2.625   3.135   3.274
 3014TIP3    H2 9007   2.563   3.067   3.154
 3015TIP3   OH2 9008   0.934   5.946   1.685
 3015TIP3    H1 9009   0.864   5.899   1.639
 3015TIP3    H2 9010   0.997   5.879   1.711
 3016TIP3   OH2 9011   6.416   3.125   2.588
 3016TIP3    H1 9012   6.442   3.038   2.619
 3016TIP3    H2 9013   6.406   3.177   2.667
 3017TIP3   OH2 9014   0.191   6.413   3.866
 3017TIP3    H1 9015   0.114   6.361   3.840
 3017TIP3    H2 9016   0.205   6.472   3.792
 3018TIP3   OH2 9017   3.048   4.875   0.169
 3018TIP3    H1 9018   3.126   4.903   0.217
 3018TIP3    H2 9019   3.058   4.780   0.160
 3019TIP3   OH2 9020   6.987   2.482   4.588
 3019TIP3    H1 9021   6.984   2.496   4.683
 3019TIP3    H2 9022   7.012   2.568   4.553
 3020TIP3   OH2 9023   2.147   4.807   1.395
 3020TIP3    H1 9024   2.104   4.856   1.465
 3020TIP3    H2 9025   2.204   4.744   1.440
 3021TIP3   OH2 9026   5.778   5.677   5.733
 3021TIP3    H1 9027   5.718   5.633   5.673
 3021TIP3    H2 9028   5.745   5.766   5.740
 3022TIP3   OH2 9029   1.656   0.896   0.070
 3022TIP3    H1 9030   1.716   0.954   0.115
 3022TIP3    H2 9031   1.684   0.898  -0.022
 3023TIP3   OH2 9032   4.011   4.219   3.687
 3023TIP3    H1 9033   4.025   4.211   3.781
 3023TIP3    H2 9034   4.004   4.128   3.656
 3024TIP3   OH2 9035   6.844   5.629   0.079
 3024TIP3    H1 9036   6.753   5.636   0.051
 3024TIP3    H2 9037   6.890   5.593   0.003
 3025TIP3   OH2 9038   4.990   0.175   3.055
 3025TIP3    H1 9039   4.956   0.167   3.144
 3025TIP3    H2 9040   4.987   0.269   3.037
 3026TIP3   OH2 9041   6.046   4.162   0.323
 3026TIP3    H1 9042   6.007   4.143   0.238
 3026TIP3    H2 9043   6.137   4.134   0.315
 3027TIP3   OH2 9044   3.417   6.745   0.043
 3027TIP3    H1 9045   3.482   6.743   0.113
 3027TIP3    H2 9046   3.394   6.653   0.029
 3028TIP3   OH2 9047   5.304   0.815   0.334
 3028TIP3    H1 9048   5.329   0.883   0.272
 3028TIP3    H2 9049   5.233   0.855   0.385
 3029TIP3   OH2 9050   1.134   0.083   4.410
 3029TIP3    H1 9051   1.142  -0.002   4.453
 3029TIP3    H2 9052   1.075   0.133   4.467
 3030TIP3   OH2 9053   5.445   0.139   0.107
 3030TIP3    H1 9054   5.452   0.072   0.175
 3030TIP3    H2 9055   5.490   0.215   0.144
 3031TIP3   OH2 9056   2.785   1.771   5.556
 3031TIP3    H1 9057   2.753   1.749   5.643
 3031TIP3    H2 9058   2.770   1.692   5.504
 3032TIP3   OH2 9059   6.445   6.064   3.688
 3032TIP3    H1 9060   6.460   5.991   3.749
 3032TIP3    H2 9061   6.353   6.056   3.664
 3033TIP3   OH2 9062   0.120   4.263   0.199
 3033TIP3    H1 9063   0.182   4.298   0.135
 3033TIP3    H2 9064   0.035   4.269   0.155
 3034TIP3   OH2 9065   6.240   2.725   1.631
 3034TIP3    H1 9066   6.300   2.654   1.606
 3034TIP3    H2 9067   6.153   2.685   1.630
 3035TIP3   OH2 9068   0.840   5.571   3.887
 3035TIP3    H1 9069   0.748   5.576   3.915
 3035TIP3    H2 9070   0.845   5.489   3.838
 3036TIP3   OH2 9071   1.637   2.423   4.246
 3036TIP3    H1 9072   1.724   2.405   4.279
 3036TIP3    H2 9073   1.607   2.499   4.296
 3037TIP3   OH2 9074   3.798   1.944   4.898
 3037TIP3    H1 9075   3.854   1.888   4.844
 3037TIP3    H2 9076   3.818   2.033   4.871
 3038TIP3   OH2 9077   0.339   6.338   2.655
 3038TIP3    H1 9078   0.323   6.245   2.638
 3038TIP3    H2 9079   0.314   6.351   2.747
 3039TIP3   OH2 9080   4.505   1.770   1.991
 3039TIP3    H1 9081   4.469   1.682   2.004
 3039TIP3    H2 9082   4.432   1.820   1.953
 3040TIP3   OH2 9083   6.784   5.805   3.357
 3040TIP3    H1 9084   6.809   5.825   3.267
 3040TIP3    H2 9085   6.854   5.747   3.389
 3041TIP3   OH2 9086   5.639   6.167   2.352
 3041TIP3    H1 9087   5.573   6.235   2.367
 3041TIP3    H2 9088   5.696   6.204   2.285
 3042TIP3   OH2 9089   5.858   0.828   3.437
 3042TIP3    H1 9090   5.942   0.873   3.428
 3042TIP3    H2 9091   5.794   0.891   3.404
 3043TIP3   OH2 9092   4.257   3.388   4.856
 3043TIP3    H1 9093   4.259   3.404   4.950
 3043TIP3    H2 9094   4.182   3.439   4.825
 3044TIP3   OH2 9095   3.207   4.578   4.500
 3044TIP3    H1 9096   3.148   4.653   4.494
 3044TIP3    H2 9097   3.265   4.587   4.424
 3045TIP3   OH2 9098   2.759   3.782   0.377
 3045TIP3    H1 9099   2.792   3.707   0.328
 3045TIP3    H2 9100   2.809   3.782   0.458
 3046TIP3   OH2 9101   1.351   3.100   0.757
 3046TIP3    H1 9102   1.353   3.196   0.746
 3046TIP3    H2 9103   1.318   3.087   0.845
 3047TIP3   OH2 9104   6.667   6.229   5.674
 3047TIP3    H1 9105   6.713   6.148   5.651
 3047TIP3    H2 9106   6.629   6.260   5.592
 3048TIP3   OH2 9107   0.089   6.677   0.771
 3048TIP3    H1 9108   0.175   6.689   0.731
 3048TIP3    H2 9109   0.028   6.677   0.697
 3049TIP3   OH2 9110   5.121   3.304   2.655
 3049TIP3    H1 9111   5.042   3.257   2.628
 3049TIP3    H2 9112   5.143   3.267   2.741
 3050TIP3   OH2 9113   6.828   0.788   5.153
 3050TIP3    H1 9114   6.739   0.790   5.118
 3050TIP3    H2 9115   6.851   0.880   5.164
 3051TIP3   OH2 9116   3.648   5.742   2.245
 3051TIP3    H1 9117   3.577   5.754   2.308
 3051TIP3    H2 9118   3.686   5.657   2.268
 3052TIP3   OH2 9119   1.405   5.403   1.408
 3052TIP3    H1 9120   1.436   5.384   1.496
 3052TIP3    H2 9121   1.456   5.479   1.380
 3053TIP3   OH2 9122   0.856   1.999   1.238
 3053TIP3    H1 9123   0.909   1.980   1.316
 3053TIP3    H2 9124   0.792   2.063   1.267
 3054TIP3   OH2 9125   2.775   2.914   0.283
 3054TIP3    H1 9126   2.724   2.994   0.272
 3054TIP3    H2 9127   2.779   2.900   0.377
 3055TIP3   OH2 9128   5.281   1.953   5.008
 3055TIP3    H1 9129   5.266   1.929   4.916
 3055TIP3    H2 9130   5.368   1.919   5.028
 3056TIP3   OH2 9131   5.807   2.795   3.963
 3056TIP3    H1 9132   5.779   2.871   4.014
 3056TIP3    H2 9133   5.819   2.726   4.027
 3057TIP3   OH2 9134   4.596   5.658   2.106
 3057TIP3    H1 9135   4.670   5.654   2.046
 3057TIP3    H2 9136   4.539   5.726   2.070
 3058TIP3   OH2 9137   2.070   0.467   2.591
 3058TIP3    H1 9138   2.112   0.453   2.507
 3058TIP3    H2 9139   2.115   0.408   2.651
 3059TIP3   OH2 9140   3.964   4.504   3.915
 3059TIP3    H1 9141   3.972   4.556   3.994
 3059TIP3    H2 9142   3.909   4.556   3.857
 3060TIP3   OH2 9143   7.091   3.047   1.126
 3060TIP3    H1 9144   7.091   3.098   1.045
 3060TIP3    H2 9145   7.174   3.069   1.168
 3061TIP3   OH2 9146   2.313   2.648   2.012
 3061TIP3    H1 9147   2.339   2.666   1.922
 3061TIP3    H2 9148   2.390   2.606   2.051
 3062TIP3   OH2 9149   7.131   1.906   4.865
 3062TIP3    H1 9150   7.203   1.959   4.900
 3062TIP3    H2 9151   7.079   1.883   4.941
 3063TIP3   OH2 9152   2.422   0.886   2.581
 3063TIP3    H1 9153   2.421   0.827   2.657
 3063TIP3    H2 9154   2.340   0.934   2.588
 3064TIP3   OH2 9155   6.098   0.573   2.059
 3064TIP3    H1 9156   6.015   0.600   2.019
 3064TIP3    H2 9157   6.123   0.494   2.011
 3065TIP3   OH2 9158   5.092   1.853   2.918
 3065TIP3    H1 9159   5.129   1.792   2.854
 3065TIP3    H2 9160   5.145   1.932   2.910
 3066TIP3   OH2 9161   4.829   3.109   3.283
 3066TIP3    H1 9162   4.906   3.085   3.334
 3066TIP3    H2 9163   4.848   3.077   3.195
 3067TIP3   OH2 9164   2.884   2.581   1.529
 3067TIP3    H1 9165   2.880   2.626   1.444
 3067TIP3    H2 9166   2.841   2.497   1.513
 3068TIP3   OH2 9167   1.967   3.582   3.317
 3068TIP3    H1 9168   1.949   3.552   3.227
 3068TIP3    H2 9169   1.999   3.504   3.362
 3069TIP3   OH2 9170   6.513   5.841   1.134
 3069TIP3    H1 9171   6.568   5.795   1.197
 3069TIP3    H2 9172   6.549   5.817   1.049
 3070TIP3   OH2 9173   6.807   0.617   2.880
 3070TIP3    H1 9174   6.812   0.611   2.976
 3070TIP3    H2 9175   6.791   0.527   2.852
 3071TIP3   OH2 9176   2.425   2.419   4.631
 3071TIP3    H1 9177   2.408   2.507   4.664
 3071TIP3    H2 9178   2.383   2.361   4.695
 3072TIP3   OH2 9179   2.329   5.762   1.820
 3072TIP3    H1 9180   2.279   5.843   1.823
 3072TIP3    H2 9181   2.264   5.693   1.806
 3073TIP3   OH2 9182   4.704   2.802   1.557
 3073TIP3    H1 9183   4.633   2.742   1.535
 3073TIP3    H2 9184   4.784   2.753   1.536
 3074TIP3   OH2 9185   1.622   4.309   4.253
 3074TIP3    H1 9186   1.660   4.298   4.165
 3074TIP3    H2 9187   1.552   4.373   4.241
 3075TIP3   OH2 9188   4.837   1.376   2.631
 3075TIP3    H1 9189   4.852   1.443   2.564
 3075TIP3    H2 9190   4.846   1.423   2.714
 3076TIP3   OH2 9191   5.082   1.999   2.309
 3076TIP3    H1 9192   5.018   2.033   2.372
 3076TIP3    H2 9193   5.061   2.044   2.227
 3077TIP3   OH2 9194   2.408   5.659   4.835
 3077TIP3    H1 9195   2.472   5.594   4.861
 3077TIP3    H2 9196   2.358   5.617   4.765
 3078TIP3   OH2 9197   2.770   5.574   3.825
 3078TIP3    H1 9198   2.712   5.595   3.751
 3078TIP3    H2 9199   2.838   5.641   3.822
 3079TIP3   OH2 9200   4.502   3.288   1.360
 3079TIP3    H1 9201   4.443   3.329   1.424
 3079TIP3    H2 9202   4.516   3.199   1.394
 3080TIP3   OH2 9203   2.870   0.097   2.978
 3080TIP3    H1 9204   2.852   0.031   3.045
 3080TIP3    H2 9205   2.793   0.094   2.920
 3081TIP3   OH2 9206   0.088   5.016   5.633
 3081TIP3    H1 9207   0.093   5.050   5.722
 3081TIP3    H2 9208   0.113   5.090   5.577
 3082TIP3   OH2 9209   5.249   1.154   4.727
 3082TIP3    H1 9210   5.183   1.212   4.765
 3082TIP3    H2 9211   5.294   1.116   4.803
 3083TIP3   OH2 9212   0.402   4.177   5.115
 3083TIP3    H1 9213   0.460   4.102   5.120
 3083TIP3    H2 9214   0.441   4.234   5.048
 3084TIP3   OH2 9215   5.482   6.412   1.714
 3084TIP3    H1 9216   5.458   6.383   1.802
 3084TIP3    H2 9217   5.568   6.452   1.724
 3085TIP3   OH2 9218   1.969   3.970   3.015
 3085TIP3    H1 9219   1.879   3.999   3.032
 3085TIP3    H2 9220   2.004   3.950   3.102
 3086TIP3   OH2 9221   4.940   4.678   0.529
 3086TIP3    H1 9222   5.016   4.703   0.476
 3086TIP3    H2 9223   4.974   4.613   0.591
 3087TIP3   OH2 9224   3.637   0.035   5.219
 3087TIP3    H1 9225   3.594  -0.051   5.219
 3087TIP3    H2 9226   3.710   0.024   5.158
 3088TIP3   OH2 9227   0.872   3.865   4.083
 3088TIP3    H1 9228   0.868   3.824   4.170
 3088TIP3    H2 9229   0.926   3.806   4.031
 3089TIP3   OH2 9230   6.574   1.711   0.200
 3089TIP3    H1 9231   6.668   1.706   0.218
 3089TIP3    H2 9232   6.567   1.778   0.132
 3090TIP3   OH2 9233   2.529   6.561   3.425
 3090TIP3    H1 9234   2.468   6.488   3.436
 3090TIP3    H2 9235   2.566   6.575   3.512
 3091TIP3   OH2 9236   6.775   1.041   2.205
 3091TIP3    H1 9237   6.798   0.948   2.212
 3091TIP3    H2 9238   6.690   1.043   2.163
 3092TIP3   OH2 9239   5.948   6.465   3.497
 3092TIP3    H1 9240   5.959   6.432   3.408
 3092TIP3    H2 9241   6.011   6.537   3.503
 3093TIP3   OH2 9242   7.137   4.972   1.683
 3093TIP3    H1 9243   7.096   5.055   1.659
 3093TIP3    H2 9244   7.230   4.994   1.692
 3094TIP3   OH2 9245   3.283   5.941   5.469
 3094TIP3    H1 9246   3.333   5.953   5.388
 3094TIP3    H2 9247   3.270   6.030   5.502
 3095TIP3   OH2 9248   0.990   1.957   1.498
 3095TIP3    H1 9249   0.941   1.921   1.572
 3095TIP3    H2 9250   0.986   2.051   1.511
 3096TIP3   OH2 9251   6.379   2.325   5.023
 3096TIP3    H1 9252   6.353   2.233   5.026
 3096TIP3    H2 9253   6.362   2.357   5.111
 3097TIP3   OH2 9254   3.826   0.186   5.791
 3097TIP3    H1 9255   3.842   0.116   5.727
 3097TIP3    H2 9256   3.914   0.217   5.814
 3098TIP3   OH2 9257   4.133   3.074   4.054
 3098TIP3    H1 9258   4.073   3.021   4.108
 3098TIP3    H2 9259   4.164   3.142   4.113
 3099TIP3   OH2 9260   5.036   2.058   0.264
 3099TIP3    H1 9261   5.092   2.030   0.336
 3099TIP3    H2 9262   5.074   2.141   0.235
 3100TIP3   OH2 9263   0.544   3.859   3.671
 3100TIP3    H1 9264   0.618   3.860   3.731
 3100TIP3    H2 9265   0.485   3.792   3.705
 3101TIP3   OH2 9266   2.450   3.867   1.314
 3101TIP3    H1 9267   2.355   3.878   1.307
 3101TIP3    H2 9268   2.486   3.943   1.268
 3102TIP3   OH2 9269   4.152   3.541   0.451
 3102TIP3    H1 9270   4.097   3.619   0.443
 3102TIP3    H2 9271   4.089   3.470   0.465
 3103TIP3   OH2 9272   2.626   0.921   5.809
 3103TIP3    H1 9273   2.579   1.002   5.829
 3103TIP3    H2 9274   2.690   0.946   5.742
 3104TIP3   OH2 9275   1.071   3.395   4.503
 3104TIP3    H1 9276   1.040   3.444   4.427
 3104TIP3    H2 9277   0.991   3.363   4.546
 3105TIP3   OH2 9278   4.168   2.266   4.292
 3105TIP3    H1 9279   4.138   2.243   4.380
 3105TIP3    H2 9280   4.179   2.361   4.294
 3106TIP3   OH2 9281   6.615   1.504   3.348
 3106TIP3    H1 9282   6.524   1.483   3.369
 3106TIP3    H2 9283   6.625   1.596   3.371
 3107TIP3   OH2 9284   4.904   1.869   1.770
 3107TIP3    H1 9285   4.819   1.826   1.778
 3107TIP3    H2 9286   4.968   1.798   1.772
 3108TIP3   OH2 9287   4.058   3.471   3.365
 3108TIP3    H1 9288   4.032   3.551   3.319
 3108TIP3    H2 9289   4.145   3.451   3.329
 3109TIP3   OH2 9290   3.229   3.122   0.019
 3109TIP3    H1 9291   3.198   3.130  -0.071
 3109TIP3    H2 9292   3.151   3.099   0.069
 3110TIP3   OH2 9293   3.012   0.255   1.700
 3110TIP3    H1 9294   3.048   0.301   1.624
 3110TIP3    H2 9295   2.917   0.263   1.691
 3111TIP3   OH2 9296   3.589   3.995   3.540
 3111TIP3    H1 9297   3.565   3.925   3.601
 3111TIP3    H2 9298   3.519   4.060   3.550
 3112TIP3   OH2 9299   3.868   3.824   2.701
 3112TIP3    H1 9300   3.803   3.880   2.658
 3112TIP3    H2 9301   3.853   3.837   2.795
 3113TIP3   OH2 9302   5.033   6.267   2.257
 3113TIP3    H1 9303   5.081   6.194   2.218
 3113TIP3    H2 9304   5.080   6.345   2.226
 3114TIP3   OH2 9305   2.314   0.781   0.513
 3114TIP3    H1 9306   2.343   0.786   0.604
 3114TIP3    H2 9307   2.387   0.740   0.467
 3115TIP3   OH2 9308   4.857   0.342   4.100
 3115TIP3    H1 9309   4.859   0.300   4.186
 3115TIP3    H2 9310   4.803   0.284   4.046
 3116TIP3   OH2 9311   1.991   6.681   0.207
 3116TIP3    H1 9312   1.933   6.699   0.281
 3116TIP3    H2 9313   1.935   6.689   0.130
 3117TIP3   OH2 9314   7.097   4.432   1.920
 3117TIP3    H1 9315   7.070   4.412   2.010
 3117TIP3    H2 9316   7.021   4.410   1.866
 3118TIP3   OH2 9317   3.917   4.834   1.222
 3118TIP3    H1 9318   3.869   4.758   1.192
 3118TIP3    H2 9319   3.898   4.840   1.316
 3119TIP3   OH2 9320   3.893   1.987   2.572
 3119TIP3    H1 9321   3.837   2.014   2.645
 3119TIP3    H2 9322   3.899   1.892   2.580
 3120TIP3   OH2 9323   3.622   5.257   5.397
 3120TIP3    H1 9324   3.567   5.312   5.453
 3120TIP3    H2 9325   3.708   5.299   5.399
 3121TIP3   OH2 9326   1.032   1.146   4.766
 3121TIP3    H1 9327   1.071   1.119   4.850
 3121TIP3    H2 9328   1.052   1.240   4.760
 3122TIP3   OH2 9329   3.933   2.792   4.025
 3122TIP3    H1 9330   3.887   2.873   4.004
 3122TIP3    H2 9331   3.888   2.725   3.974
 3123TIP3   OH2 9332   5.492   3.053   0.718
 3123TIP3    H1 9333   5.500   3.082   0.809
 3123TIP3    H2 9334   5.558   3.103   0.671
 3124TIP3   OH2 9335   4.263   0.581   2.971
 3124TIP3    H1 9336   4.281   0.666   2.931
 3124TIP3    H2 9337   4.178   0.592   3.014
 3125TIP3   OH2 9338   0.103   6.211   1.748
 3125TIP3    H1 9339   0.147   6.153   1.811
 3125TIP3    H2 9340   0.144   6.190   1.664
 3126TIP3   OH2 9341   4.372   5.585   5.786
 3126TIP3    H1 9342   4.415   5.579   5.871
 3126TIP3    H2 9343   4.279   5.588   5.806
 3127TIP3   OH2 9344   7.179   5.936   1.601
 3127TIP3    H1 9345   7.178   5.843   1.624
 3127TIP3    H2 9346   7.226   5.940   1.518
 3128TIP3   OH2 9347   2.140   2.649   0.677
 3128TIP3    H1 9348   2.115   2.612   0.761
 3128TIP3    H2 9349   2.126   2.743   0.686
 3129TIP3   OH2 9350   7.201   1.293   3.981
 3129TIP3    H1 9351   7.212   1.358   3.911
 3129TIP3    H2 9352   7.145   1.226   3.942
 3130TIP3   OH2 9353   3.463   2.643   4.614
 3130TIP3    H1 9354   3.410   2.663   4.690
 3130TIP3    H2 9355   3.485   2.550   4.622
 3131TIP3   OH2 9356   0.634   4.983   4.456
 3131TIP3    H1 9357   0.696   4.910   4.448
 3131TIP3    H2 9358   0.683   5.051   4.501
 3132TIP3   OH2 9359   5.665   1.771   2.116
 3132TIP3    H1 9360   5.656   1.818   2.199
 3132TIP3    H2 9361   5.575   1.745   2.094
 3133TIP3   OH2 9362   2.055   1.912   2.258
 3133TIP3    H1 9363   2.019   1.974   2.321
 3133TIP3    H2 9364   1.990   1.908   2.188
 3134TIP3   OH2 9365   6.597   0.392   4.404
 3134TIP3    H1 9366   6.520   0.380   4.348
 3134TIP3    H2 9367   6.663   0.334   4.367
 3135TIP3   OH2 9368   6.336   2.607   3.393
 3135TIP3    H1 9369   6.413   2.551   3.385
 3135TIP3    H2 9370   6.370   2.692   3.420
 3136TIP3   OH2 9371   0.581   6.458   5.518
 3136TIP3    H1 9372   0.620   6.520   5.578
 3136TIP3    H2 9373   0.489   6.454   5.544
 3137TIP3   OH2 9374   1.482   1.916   3.539
 3137TIP3    H1 9375   1.490   2.011   3.529
 3137TIP3    H2 9376   1.565   1.890   3.580
 3138TIP3   OH2 9377   5.662   3.918   4.629
 3138TIP3    H1 9378   5.716   3.854   4.583
 3138TIP3    H2 9379   5.602   3.865   4.681
 3139TIP3   OH2 9380   5.386   5.449   4.848
 3139TIP3    H1 9381   5.378   5.521   4.911
 3139TIP3    H2 9382   5.427   5.489   4.771
 3140TIP3   OH2 9383   6.329   6.438   2.450
 3140TIP3    H1 9384   6.390   6.511   2.455
 3140TIP3    H2 9385   6.338   6.405   2.361
 3141TIP3   OH2 9386   3.901   5.814   1.376
 3141TIP3    H1 9387   3.812   5.835   1.404
 3141TIP3    H2 9388   3.933   5.894   1.335
 3142TIP3   OH2 9389   3.717   5.234   1.444
 3142TIP3    H1 9390   3.756   5.310   1.401
 3142TIP3    H2 9391   3.785   5.202   1.503
 3143TIP3   OH2 9392   6.860   4.699   5.822
 3143TIP3    H1 9393   6.804   4.766   5.861
 3143TIP3    H2 9394   6.936   4.747   5.790
 3144TIP3   OH2 9395   4.609   3.503   0.947
 3144TIP3    H1 9396   4.577   3.463   0.866
 3144TIP3    H2 9397   4.595   3.596   0.935
 3145TIP3   OH2 9398   3.589   0.971   1.201
 3145TIP3    H1 9399   3.571   1.026   1.124
 3145TIP3    H2 9400   3.544   0.889   1.182
 3146TIP3   OH2 9401   4.306   2.654   0.527
 3146TIP3    H1 9402   4.223   2.624   0.490
 3146TIP3    H2 9403   4.348   2.701   0.455
 3147TIP3   OH2 9404   7.179   5.735   0.055
 3147TIP3    H1 9405   7.117   5.674   0.093
 3147TIP3    H2 9406   7.248   5.744   0.121
 3148TIP3   OH2 9407   3.751   1.115   3.705
 3148TIP3    H1 9408   3.675   1.056   3.699
 3148TIP3    H2 9409   3.795   1.090   3.786
 3149TIP3   OH2 9410   6.032   4.363   2.160
 3149TIP3    H1 9411   6.068   4.294   2.215
 3149TIP3    H2 9412   6.002   4.319   2.081
 3150TIP3   OH2 9413   7.165   4.054   0.734
 3150TIP3    H1 9414   7.134   4.105   0.809
 3150TIP3    H2 9415   7.143   3.964   0.755
 3151TIP3   OH2 9416   6.260   2.885   3.207
 3151TIP3    H1 9417   6.230   2.795   3.217
 3151TIP3    H2 9418   6.338   2.891   3.263
 3152TIP3   OH2 9419   0.358   5.577   1.474
 3152TIP3    H1 9420   0.337   5.670   1.487
 3152TIP3    H2 9421   0.332   5.559   1.384
 3153TIP3   OH2 9422   0.458   0.512   2.480
 3153TIP3    H1 9423   0.438   0.428   2.522
 3153TIP3    H2 9424   0.376   0.561   2.482
 3154TIP3   OH2 9425   2.064   6.471   5.084
 3154TIP3    H1 9426   1.995   6.458   5.019
 3154TIP3    H2 9427   2.146   6.464   5.036
 3155TIP3   OH2 9428   1.656   6.504   3.556
 3155TIP3    H1 9429   1.739   6.546   3.574
 3155TIP3    H2 9430   1.604   6.570   3.510
 3156TIP3   OH2 9431   4.044   3.793   2.031
 3156TIP3    H1 9432   4.073   3.721   2.086
 3156TIP3    H2 9433   4.043   3.869   2.089
 3157TIP3   OH2 9434   4.699   0.105   2.481
 3157TIP3    H1 9435   4.793   0.100   2.494
 3157TIP3    H2 9436   4.662   0.094   2.569
 3158TIP3   OH2 9437   5.544   2.983   3.284
 3158TIP3    H1 9438   5.463   2.970   3.234
 3158TIP3    H2 9439   5.601   3.032   3.225
 3159TIP3   OH2 9440   5.045   3.288   1.168
 3159TIP3    H1 9441   4.989   3.211   1.180
 3159TIP3    H2 9442   5.005   3.336   1.096
 3160TIP3   OH2 9443   1.115   0.038   5.149
 3160TIP3    H1 9444   1.155  -0.043   5.182
 3160TIP3    H2 9445   1.025   0.014   5.129
 3161TIP3   OH2 9446   3.495   2.800   4.220
 3161TIP3    H1 9447   3.565   2.735   4.225
 3161TIP3    H2 9448   3.465   2.796   4.130
 3162TIP3   OH2 9449   2.215   2.027   1.522
 3162TIP3    H1 9450   2.121   2.020   1.511
 3162TIP3    H2 9451   2.250   2.026   1.433
 3163TIP3   OH2 9452   4.610   5.110   0.579
 3163TIP3    H1 9453   4.687   5.054   0.578
 3163TIP3    H2 9454   4.536   5.050   0.574
 3164TIP3   OH2 9455   4.904   3.382   0.523
 3164TIP3    H1 9456   4.901   3.347   0.434
 3164TIP3    H2 9457   4.855   3.465   0.519
 3165TIP3   OH2 9458   5.836   4.467   2.546
 3165TIP3    H1 9459   5.773   4.423   2.487
 3165TIP3    H2 9460   5.887   4.395   2.583
 3166TIP3   OH2 9461   6.069   2.166   5.236
 3166TIP3    H1 9462   6.063   2.257   5.265
 3166TIP3    H2 9463   5.980   2.133   5.244
 3167TIP3   OH2 9464   5.257   2.399   3.123
 3167TIP3    H1 9465   5.299   2.313   3.127
 3167TIP3    H2 9466   5.182   2.391   3.183
 3168TIP3   OH2 9467   4.540   0.457   5.280
 3168TIP3    H1 9468   4.479   0.414   5.219
 3168TIP3    H2 9469   4.612   0.486   5.224
 3169TIP3   OH2 9470   1.296   2.967   1.897
 3169TIP3    H1 9471   1.284   2.886   1.849
 3169TIP3    H2 9472   1.207   3.001   1.911
 3170TIP3   OH2 9473   3.107   5.121   1.029
 3170TIP3    H1 9474   3.142   5.128   0.940
 3170TIP3    H2 9475   3.029   5.066   1.019
 3171TIP3   OH2 9476   4.812   5.061   5.115
 3171TIP3    H1 9477   4.838   5.021   5.198
 3171TIP3    H2 9478   4.779   5.148   5.139
 3172TIP3   OH2 9479   0.354   2.817   0.498
 3172TIP3    H1 9480   0.308   2.887   0.451
 3172TIP3    H2 9481   0.427   2.793   0.441
 3173TIP3   OH2 9482   2.716   4.487   2.591
 3173TIP3    H1 9483   2.754   4.552   2.532
 3173TIP3    H2 9484   2.670   4.426   2.534
 3174TIP3   OH2 9485   5.668   0.137   5.623
 3174TIP3    H1 9486   5.712   0.193   5.558
 3174TIP3    H2 9487   5.728   0.137   5.698
 3175TIP3   OH2 9488   4.939   2.379   3.691
 3175TIP3    H1 9489   4.982   2.406   3.773
 3175TIP3    H2 9490   5.011   2.355   3.633
 3176TIP3   OH2 9491   0.911   5.560   0.766
 3176TIP3    H1 9492   0.874   5.636   0.720
 3176TIP3    H2 9493   0.960   5.513   0.698
 3177TIP3   OH2 9494   6.981   4.090   4.314
 3177TIP3    H1 9495   7.046   4.107   4.245
 3177TIP3    H2 9496   6.919   4.162   4.306
 3178TIP3   OH2 9497   7.214   3.728   2.677
 3178TIP3    H1 9498   7.181   3.729   2.587
 3178TIP3    H2 9499   7.137   3.747   2.731
 3179TIP3   OH2 9500   6.980   3.017   4.501
 3179TIP3    H1 9501   6.978   3.061   4.586
 3179TIP3    H2 9502   7.017   3.081   4.441
 3180TIP3   OH2 9503   6.471   4.764   0.198
 3180TIP3    H1 9504   6.529   4.816   0.142
 3180TIP3    H2 9505   6.387   4.809   0.194
 3181TIP3   OH2 9506   5.132   5.207   5.456
 3181TIP3    H1 9507   5.037   5.204   5.456
 3181TIP3    H2 9508   5.155   5.240   5.543
 3182TIP3   OH2 9509   1.015   4.377   2.308
 3182TIP3    H1 9510   0.971   4.331   2.238
 3182TIP3    H2 9511   0.945   4.409   2.364
 3183TIP3   OH2 9512   2.553   4.604   1.236
 3183TIP3    H1 9513   2.591   4.689   1.214
 3183TIP3    H2 9514   2.569   4.593   1.330
 3184TIP3   OH2 9515   2.720   3.387   2.786
 3184TIP3    H1 9516   2.631   3.409   2.813
 3184TIP3    H2 9517   2.771   3.385   2.867
 3185TIP3   OH2 9518   5.449   4.449   2.812
 3185TIP3    H1 9519   5.446   4.527   2.868
 3185TIP3    H2 9520   5.515   4.392   2.853
 3186TIP3   OH2 9521   3.758   6.101   4.998
 3186TIP3    H1 9522   3.795   6.024   5.043
 3186TIP3    H2 9523   3.699   6.139   5.062
 3187TIP3   OH2 9524   4.232   6.203   5.267
 3187TIP3    H1 9525   4.298   6.220   5.199
 3187TIP3    H2 9526   4.181   6.284   5.271
 3188TIP3   OH2 9527   0.372   1.337   0.328
 3188TIP3    H1 9528   0.356   1.360   0.420
 3188TIP3    H2 9529   0.457   1.377   0.309
 3189TIP3   OH2 9530   0.671   3.387   0.522
 3189TIP3    H1 9531   0.727   3.330   0.469
 3189TIP3    H2 9532   0.732   3.444   0.569
 3190TIP3   OH2 9533   2.794   2.530   0.247
 3190TIP3    H1 9534   2.757   2.441   0.246
 3190TIP3    H2 9535   2.725   2.583   0.287
 3191TIP3   OH2 9536   0.441   2.240   5.029
 3191TIP3    H1 9537   0.377   2.306   5.003
 3191TIP3    H2 9538   0.426   2.228   5.123
 3192TIP3   OH2 9539   1.071   1.403   5.097
 3192TIP3    H1 9540   0.994   1.399   5.153
 3192TIP3    H2 9541   1.143   1.375   5.154
 3193TIP3   OH2 9542   0.746   2.356   0.489
 3193TIP3    H1 9543   0.800   2.424   0.448
 3193TIP3    H2 9544   0.664   2.357   0.439
 3194TIP3   OH2 9545   2.945   3.609   4.692
 3194TIP3    H1 9546   2.979   3.584   4.606
 3194TIP3    H2 9547   2.869   3.664   4.672
 3195TIP3   OH2 9548   2.793   3.076   4.876
 3195TIP3    H1 9549   2.707   3.034   4.871
 3195TIP3    H2 9550   2.774   3.166   4.902
 3196TIP3   OH2 9551   2.460   5.732   3.165
 3196TIP3    H1 9552   2.442   5.725   3.071
 3196TIP3    H2 9553   2.402   5.801   3.196
 3197TIP3   OH2 9554   6.351   2.405   2.873
 3197TIP3    H1 9555   6.358   2.342   2.802
 3197TIP3    H2 9556   6.370   2.355   2.952
 3198TIP3   OH2 9557   4.816   5.453   3.655
 3198TIP3    H1 9558   4.901   5.454   3.612
 3198TIP3    H2 9559   4.831   5.498   3.738
 3199TIP3   OH2 9560   2.006   0.726   0.244
 3199TIP3    H1 9561   2.071   0.718   0.174
 3199TIP3    H2 9562   1.937   0.781   0.207
 3200TIP3   OH2 9563   4.608   5.343   2.686
 3200TIP3    H1 9564   4.600   5.267   2.628
 3200TIP3    H2 9565   4.539   5.403   2.657
 3201TIP3   OH2 9566   6.488   0.073   2.660
 3201TIP3    H1 9567   6.489   0.003   2.726
 3201TIP3    H2 9568   6.400   0.070   2.622
 3202TIP3   OH2 9569   2.989   6.067   0.438
 3202TIP3    H1 9570   3.072   6.043   0.479
 3202TIP3    H2 9571   3.008   6.149   0.393
 3203TIP3   OH2 9572   3.579   6.427   4.562
 3203TIP3    H1 9573   3.670   6.400   4.570
 3203TIP3    H2 9574   3.573   6.465   4.474
 3204TIP3   OH2 9575   4.805   4.759   4.019
 3204TIP3    H1 9576   4.751   4.830   3.985
 3204TIP3    H2 9577   4.763   4.734   4.102
 3205TIP3   OH2 9578   1.526   3.660   0.859
 3205TIP3    H1 9579   1.612   3.629   0.888
 3205TIP3    H2 9580   1.479   3.580   0.833
 3206TIP3   OH2 9581   1.639   0.045   2.541
 3206TIP3    H1 9582   1.617   0.137   2.557
 3206TIP3    H2 9583   1.688   0.019   2.619
 3207TIP3   OH2 9584   3.592   6.468   1.044
 3207TIP3    H1 9585   3.609   6.539   1.106
 3207TIP3    H2 9586   3.673   6.416   1.045
 3208TIP3   OH2 9587   4.642   4.911   2.539
 3208TIP3    H1 9588   4.685   4.962   2.608
 3208TIP3    H2 9589   4.561   4.880   2.579
 3209TIP3   OH2 9590   5.543   4.492   1.979
 3209TIP3    H1 9591   5.489   4.429   2.026
 3209TIP3    H2 9592   5.618   4.508   2.036
 3210TIP3   OH2 9593   4.161   3.195   5.284
 3210TIP3    H1 9594   4.210   3.125   5.327
 3210TIP3    H2 9595   4.070   3.166   5.286
 3211TIP3   OH2 9596   5.385   3.777   3.226
 3211TIP3    H1 9597   5.337   3.856   3.249
 3211TIP3    H2 9598   5.344   3.707   3.277
 3212TIP3   OH2 9599   2.266   0.694   2.240
 3212TIP3    H1 9600   2.210   0.763   2.277
 3212TIP3    H2 9601   2.219   0.665   2.161
 3213TIP3   OH2 9602   5.321   4.050   2.925
 3213TIP3    H1 9603   5.305   3.968   2.879
 3213TIP3    H2 9604   5.261   4.113   2.884
 3214TIP3   OH2 9605   3.488   4.361   1.169
 3214TIP3    H1 9606   3.412   4.354   1.111
 3214TIP3    H2 9607   3.540   4.284   1.149
 3215TIP3   OH2 9608   2.941   1.499   5.179
 3215TIP3    H1 9609   2.878   1.510   5.251
 3215TIP3    H2 9610   2.923   1.572   5.120
 3216TIP3   OH2 9611   2.550   0.871   0.653
 3216TIP3    H1 9612   2.547   0.898   0.744
 3216TIP3    H2 9613   2.580   0.949   0.606
 3217TIP3   OH2 9614   6.823   3.438   2.543
 3217TIP3    H1 9615   6.821   3.442   2.447
 3217TIP3    H2 9616   6.882   3.365   2.562
 3218TIP3   OH2 9617   2.872   2.285   5.316
 3218TIP3    H1 9618   2.960   2.278   5.354
 3218TIP3    H2 9619   2.883   2.340   5.239
 3219TIP3   OH2 9620   2.864   3.286   2.573
 3219TIP3    H1 9621   2.846   3.192   2.568
 3219TIP3    H2 9622   2.826   3.314   2.656
 3220TIP3   OH2 9623   1.185   6.742   4.397
 3220TIP3    H1 9624   1.223   6.719   4.481
 3220TIP3    H2 9625   1.204   6.835   4.385
 3221TIP3   OH2 9626   1.120   2.064   4.425
 3221TIP3    H1 9627   1.160   2.102   4.503
 3221TIP3    H2 9628   1.151   2.119   4.353
 3222TIP3   OH2 9629   4.001   6.550   2.365
 3222TIP3    H1 9630   3.957   6.571   2.448
 3222TIP3    H2 9631   3.994   6.455   2.358
 3223TIP3   OH2 9632   4.633   4.657   0.541
 3223TIP3    H1 9633   4.675   4.742   0.527
 3223TIP3    H2 9634   4.701   4.593   0.520
 3224TIP3   OH2 9635   5.996   4.954   3.966
 3224TIP3    H1 9636   5.996   4.909   4.051
 3224TIP3    H2 9637   5.937   5.028   3.979
 3225TIP3   OH2 9638   6.720   5.525   0.675
 3225TIP3    H1 9639   6.676   5.442   0.659
 3225TIP3    H2 9640   6.704   5.543   0.768
 3226TIP3   OH2 9641   2.666   2.243   4.349
 3226TIP3    H1 9642   2.747   2.259   4.399
 3226TIP3    H2 9643   2.658   2.148   4.347
 3227TIP3   OH2 9644   0.040   2.685   2.191
 3227TIP3    H1 9645   0.013   2.718   2.278
 3227TIP3    H2 9646   0.135   2.691   2.193
 3228TIP3   OH2 9647   6.836   2.137   2.551
 3228TIP3    H1 9648   6.766   2.181   2.600
 3228TIP3    H2 9649   6.871   2.073   2.613
 3229TIP3   OH2 9650   0.594   1.936   0.560
 3229TIP3    H1 9651   0.518   1.982   0.524
 3229TIP3    H2 9652   0.630   1.996   0.626
 3230TIP3   OH2 9653   4.963   3.246   5.430
 3230TIP3    H1 9654   4.937   3.326   5.474
 3230TIP3    H2 9655   4.943   3.176   5.493
 3231TIP3   OH2 9656   6.596   2.204   4.760
 3231TIP3    H1 9657   6.521   2.213   4.701
 3231TIP3    H2 9658   6.663   2.160   4.708
 3232TIP3   OH2 9659   3.911   0.128   0.915
 3232TIP3    H1 9660   3.983   0.190   0.903
 3232TIP3    H2 9661   3.841   0.179   0.954
 3233TIP3   OH2 9662   7.115   1.465   3.072
 3233TIP3    H1 9663   7.171   1.391   3.093
 3233TIP3    H2 9664   7.172   1.541   3.078
 3234TIP3   OH2 9665   5.838   1.593   4.021
 3234TIP3    H1 9666   5.887   1.519   4.056
 3234TIP3    H2 9667   5.821   1.570   3.930
 3235TIP3   OH2 9668   1.729   1.193   0.516
 3235TIP3    H1 9669   1.688   1.122   0.467
 3235TIP3    H2 9670   1.769   1.150   0.592
 3236TIP3   OH2 9671   4.518   1.268   3.167
 3236TIP3    H1 9672   4.509   1.210   3.242
 3236TIP3    H2 9673   4.486   1.353   3.198
 3237TIP3   OH2 9674   3.039   3.545   4.425
 3237TIP3    H1 9675   3.053   3.456   4.392
 3237TIP3    H2 9676   3.094   3.600   4.370
 3238TIP3   OH2 9677   5.914   4.057   2.293
 3238TIP3    H1 9678   6.009   4.061   2.282
 3238TIP3    H2 9679   5.880   4.032   2.207
 3239TIP3   OH2 9680   0.801   3.786   2.999
 3239TIP3    H1 9681   0.864   3.856   2.979
 3239TIP3    H2 9682   0.734   3.829   3.051
 3240TIP3   OH2 9683   2.051   1.585   4.598
 3240TIP3    H1 9684   1.998   1.648   4.550
 3240TIP3    H2 9685   2.027   1.500   4.560
 3241TIP3   OH2 9686   6.512   1.195   3.908
 3241TIP3    H1 9687   6.493   1.109   3.945
 3241TIP3    H2 9688   6.521   1.253   3.984
 3242TIP3   OH2 9689   3.473   4.026   1.717
 3242TIP3    H1 9690   3.532   4.053   1.787
 3242TIP3    H2 9691   3.504   4.074   1.640
 3243TIP3   OH2 9692   4.433   2.083   0.298
 3243TIP3    H1 9693   4.444   2.178   0.297
 3243TIP3    H2 9694   4.503   2.050   0.242
 3244TIP3   OH2 9695   0.415   6.669   3.111
 3244TIP3    H1 9696   0.379   6.590   3.069
 3244TIP3    H2 9697   0.427   6.643   3.203
 3245TIP3   OH2 9698   1.369   3.922   0.891
 3245TIP3    H1 9699   1.349   3.934   0.799
 3245TIP3    H2 9700   1.412   3.836   0.896
 3246TIP3   OH2 9701   4.995   6.716   2.579
 3246TIP3    H1 9702   5.023   6.723   2.670
 3246TIP3    H2 9703   5.037   6.636   2.547
 3247TIP3   OH2 9704   3.941   1.271   2.857
 3247TIP3    H1 9705   3.873   1.277   2.790
 3247TIP3    H2 9706   3.997   1.199   2.828
 3248TIP3   OH2 9707   5.298   3.231   3.753
 3248TIP3    H1 9708   5.312   3.139   3.729
 3248TIP3    H2 9709   5.237   3.227   3.827
 3249TIP3   OH2 9710   3.503   1.425   5.016
 3249TIP3    H1 9711   3.414   1.459   5.007
 3249TIP3    H2 9712   3.559   1.501   5.007
 3250TIP3   OH2 9713   7.172   4.816   1.223
 3250TIP3    H1 9714   7.225   4.890   1.195
 3250TIP3    H2 9715   7.097   4.856   1.268
 3251TIP3   OH2 9716   5.880   1.919   3.060
 3251TIP3    H1 9717   5.877   1.828   3.029
 3251TIP3    H2 9718   5.801   1.959   3.023
 3252TIP3   OH2 9719   1.627   4.553   0.414
 3252TIP3    H1 9720   1.576   4.609   0.356
 3252TIP3    H2 9721   1.589   4.566   0.501
 3253TIP3   OH2 9722   1.217   0.824   3.244
 3253TIP3    H1 9723   1.279   0.872   3.300
 3253TIP3    H2 9724   1.140   0.881   3.240
 3254TIP3   OH2 9725   0.316   4.036   3.744
 3254TIP3    H1 9726   0.347   4.127   3.749
 3254TIP3    H2 9727   0.384   3.990   3.695
 3255TIP3   OH2 9728   6.353   1.437   2.936
 3255TIP3    H1 9729   6.404   1.472   2.863
 3255TIP3    H2 9730   6.415   1.431   3.009
 3256TIP3   OH2 9731   4.167   2.122   1.487
 3256TIP3    H1 9732   4.130   2.059   1.425
 3256TIP3    H2 9733   4.128   2.098   1.571
 3257TIP3   OH2 9734   2.493   6.593   5.565
 3257TIP3    H1 9735   2.550   6.563   5.495
 3257TIP3    H2 9736   2.409   6.610   5.523
 3258TIP3   OH2 9737   2.629   0.549   0.994
 3258TIP3    H1 9738   2.665   0.474   0.946
 3258TIP3    H2 9739   2.644   0.528   1.086
 3259TIP3   OH2 9740   1.917   4.464   2.977
 3259TIP3    H1 9741   1.955   4.480   2.891
 3259TIP3    H2 9742   1.837   4.413   2.959
 3260TIP3   OH2 9743   2.343   6.546   0.518
 3260TIP3    H1 9744   2.341   6.628   0.568
 3260TIP3    H2 9745   2.361   6.478   0.583
 3261TIP3   OH2 9746   4.122   3.949   3.081
 3261TIP3    H1 9747   4.082   3.925   3.164
 3261TIP3    H2 9748   4.186   4.017   3.104
 3262TIP3   OH2 9749   2.902   5.709   0.739
 3262TIP3    H1 9750   2.918   5.799   0.766
 3262TIP3    H2 9751   2.920   5.656   0.816
 3263TIP3   OH2 9752   2.326   0.892   3.890
 3263TIP3    H1 9753   2.245   0.851   3.918
 3263TIP3    H2 9754   2.302   0.944   3.813
 3264TIP3   OH2 9755   4.720   3.777   0.950
 3264TIP3    H1 9756   4.634   3.780   0.991
 3264TIP3    H2 9757   4.778   3.741   1.018
 3265TIP3   OH2 9758   1.405   4.640   1.655
 3265TIP3    H1 9759   1.362   4.646   1.570
 3265TIP3    H2 9760   1.476   4.578   1.642
 3266TIP3   OH2 9761   6.474   3.510   3.015
 3266TIP3    H1 9762   6.475   3.434   3.074
 3266TIP3    H2 9763   6.566   3.529   2.999
 3267TIP3   OH2 9764   4.471   2.357   0.345
 3267TIP3    H1 9765   4.419   2.416   0.290
 3267TIP3    H2 9766   4.553   2.404   0.361
 3268TIP3   OH2 9767   1.214   0.953   1.219
 3268TIP3    H1 9768   1.183   0.876   1.171
 3268TIP3    H2 9769   1.140   1.014   1.218
 3269TIP3   OH2 9770   2.693   0.143   0.500
 3269TIP3    H1 9771   2.744   0.202   0.445
 3269TIP3    H2 9772   2.647   0.201   0.561
 3270TIP3   OH2 9773   0.714   0.319   0.226
 3270TIP3    H1 9774   0.718   0.412   0.203
 3270TIP3    H2 9775   0.799   0.285   0.201
 3271TIP3   OH2 9776   0.375   1.688   2.428
 3271TIP3    H1 9777   0.447   1.689   2.492
 3271TIP3    H2 9778   0.403   1.748   2.359
 3272TIP3   OH2 9779   4.103   4.826   5.489
 3272TIP3    H1 9780   4.097   4.815   5.394
 3272TIP3    H2 9781   4.173   4.890   5.502
 3273TIP3   OH2 9782   4.351   6.281   1.648
 3273TIP3    H1 9783   4.385   6.366   1.620
 3273TIP3    H2 9784   4.256   6.291   1.644
 3274TIP3   OH2 9785   5.046   5.663   3.670
 3274TIP3    H1 9786   5.015   5.728   3.606
 3274TIP3    H2 9787   4.987   5.674   3.745
 3275TIP3   OH2 9788   3.491   0.676   4.098
 3275TIP3    H1 9789   3.454   0.729   4.027
 3275TIP3    H2 9790   3.446   0.707   4.177
 3276TIP3   OH2 9791   5.378   1.009   0.132
 3276TIP3    H1 9792   5.370   1.104   0.130
 3276TIP3    H2 9793   5.299   0.977   0.090
 3277TIP3   OH2 9794   3.850   0.561   0.891
 3277TIP3    H1 9795   3.923   0.504   0.864
 3277TIP3    H2 9796   3.885   0.650   0.881
 3278TIP3   OH2 9797   3.539   3.797   0.306
 3278TIP3    H1 9798   3.535   3.878   0.256
 3278TIP3    H2 9799   3.625   3.760   0.283
 3279TIP3   OH2 9800   4.444   0.462   1.413
 3279TIP3    H1 9801   4.518   0.510   1.447
 3279TIP3    H2 9802   4.469   0.439   1.323
 3280TIP3   OH2 9803   2.575   1.535   1.048
 3280TIP3    H1 9804   2.620   1.616   1.073
 3280TIP3    H2 9805   2.535   1.555   0.963
 3281TIP3   OH2 9806   5.087   2.973   4.266
 3281TIP3    H1 9807   5.007   2.958   4.217
 3281TIP3    H2 9808   5.138   3.034   4.213
 3282TIP3   OH2 9809   2.169   5.711   0.564
 3282TIP3    H1 9810   2.128   5.709   0.477
 3282TIP3    H2 9811   2.102   5.677   0.623
 3283TIP3   OH2 9812   5.465   4.133   3.822
 3283TIP3    H1 9813   5.530   4.198   3.793
 3283TIP3    H2 9814   5.415   4.179   3.890
 3284TIP3   OH2 9815   3.591   5.417   4.476
 3284TIP3    H1 9816   3.539   5.453   4.404
 3284TIP3    H2 9817   3.655   5.485   4.496
 3285TIP3   OH2 9818   1.641   6.382   5.618
 3285TIP3    H1 9819   1.639   6.287   5.623
 3285TIP3    H2 9820   1.575   6.411   5.680
 3286TIP3   OH2 9821   4.434   3.015   5.361
 3286TIP3    H1 9822   4.429   3.032   5.455
 3286TIP3    H2 9823   4.528   3.008   5.343
 3287TIP3   OH2 9824   3.779   6.654   2.075
 3287TIP3    H1 9825   3.787   6.559   2.076
 3287TIP3    H2 9826   3.692   6.670   2.037
 3288TIP3   OH2 9827   1.384   3.270   4.551
 3288TIP3    H1 9828   1.329   3.308   4.482
 3288TIP3    H2 9829   1.337   3.290   4.632
 3289TIP3   OH2 9830   5.109   0.325   5.363
 3289TIP3    H1 9831   5.109   0.396   5.298
 3289TIP3    H2 9832   5.044   0.263   5.329
 3290TIP3   OH2 9833   4.183   6.221   1.979
 3290TIP3    H1 9834   4.220   6.146   1.932
 3290TIP3    H2 9835   4.090   6.219   1.958
 3291TIP3   OH2 9836   1.914   3.708   4.141
 3291TIP3    H1 9837   1.848   3.670   4.084
 3291TIP3    H2 9838   1.941   3.636   4.198
 3292TIP3   OH2 9839   1.796   3.430   1.023
 3292TIP3    H1 9840   1.814   3.468   1.109
 3292TIP3    H2 9841   1.753   3.347   1.042
 3293TIP3   OH2 9842   6.057   4.238   3.512
 3293TIP3    H1 9843   6.129   4.260   3.454
 3293TIP3    H2 9844   6.095   4.243   3.600
 3294TIP3   OH2 9845   6.802   1.705   1.865
 3294TIP3    H1 9846   6.764   1.706   1.953
 3294TIP3    H2 9847   6.732   1.672   1.809
 3295TIP3   OH2 9848   5.570   1.474   3.196
 3295TIP3    H1 9849   5.660   1.459   3.167
 3295TIP3    H2 9850   5.535   1.539   3.134
 3296TIP3   OH2 9851   3.693   2.417   1.200
 3296TIP3    H1 9852   3.722   2.502   1.167
 3296TIP3    H2 9853   3.741   2.405   1.283
 3297TIP3   OH2 9854   4.588   4.024   1.274
 3297TIP3    H1 9855   4.584   4.103   1.329
 3297TIP3    H2 9856   4.681   4.004   1.268
 3298TIP3   OH2 9857   0.351   4.287   2.171
 3298TIP3    H1 9858   0.307   4.219   2.222
 3298TIP3    H2 9859   0.420   4.241   2.123
 3299TIP3   OH2 9860   0.982   3.936   0.722
 3299TIP3    H1 9861   1.001   3.845   0.747
 3299TIP3    H2 9862   1.033   3.989   0.782
 3300TIP3   OH2 9863   4.712   0.899   2.508
 3300TIP3    H1 9864   4.713   0.981   2.558
 3300TIP3    H2 9865   4.622   0.892   2.476
 3301TIP3   OH2 9866   2.821   2.808   3.438
 3301TIP3    H1 9867   2.802   2.724   3.479
 3301TIP3    H2 9868   2.902   2.838   3.480
 3302TIP3   OH2 9869   4.448   5.494   1.911
 3302TIP3    H1 9870   4.491   5.434   1.973
 3302TIP3    H2 9871   4.360   5.507   1.947
 3303TIP3   OH2 9872   6.953   1.932   2.055
 3303TIP3    H1 9873   7.045   1.913   2.070
 3303TIP3    H2 9874   6.920   1.959   2.141
 3304TIP3   OH2 9875   1.675   2.386   3.695
 3304TIP3    H1 9876   1.718   2.377   3.780
 3304TIP3    H2 9877   1.635   2.473   3.697
 3305TIP3   OH2 9878   0.320   5.869   1.553
 3305TIP3    H1 9879   0.306   5.952   1.599
 3305TIP3    H2 9880   0.278   5.882   1.468
 3306TIP3   OH2 9881   6.391   4.659   5.786
 3306TIP3    H1 9882   6.381   4.651   5.881
 3306TIP3    H2 9883   6.373   4.571   5.753
 3307TIP3   OH2 9884   5.553   2.317   5.751
 3307TIP3    H1 9885   5.478   2.376   5.740
 3307TIP3    H2 9886   5.526   2.236   5.707
 3308TIP3   OH2 9887   2.910   4.150   1.378
 3308TIP3    H1 9888   2.929   4.242   1.358
 3308TIP3    H2 9889   2.904   4.107   1.292
 3309TIP3   OH2 9890   1.853   1.677   4.911
 3309TIP3    H1 9891   1.788   1.659   4.844
 3309TIP3    H2 9892   1.918   1.608   4.901
 3310TIP3   OH2 9893   2.555   0.695   5.388
 3310TIP3    H1 9894   2.522   0.635   5.454
 3310TIP3    H2 9895   2.486   0.698   5.321
 3311TIP3   OH2 9896   6.498   4.120   1.383
 3311TIP3    H1 9897   6.583   4.156   1.357
 3311TIP3    H2 9898   6.445   4.122   1.303
 3312TIP3   OH2 9899   1.975   3.298   5.064
 3312TIP3    H1 9900   1.898   3.285   5.007
 3312TIP3    H2 9901   1.946   3.363   5.128
 3313TIP3   OH2 9902   4.463   0.295   0.127
 3313TIP3    H1 9903   4.485   0.387   0.117
 3313TIP3    H2 9904   4.487   0.255   0.043
 3314TIP3   OH2 9905   7.222   3.749   0.598
 3314TIP3    H1 9906   7.132   3.761   0.628
 3314TIP3    H2 9907   7.214   3.708   0.511
 3315TIP3   OH2 9908   5.146   5.649   2.875
 3315TIP3    H1 9909   5.171   5.596   2.799
 3315TIP3    H2 9910   5.227   5.690   2.904
 3316TIP3   OH2 9911   1.202   4.681   4.186
 3316TIP3    H1 9912   1.166   4.595   4.209
 3316TIP3    H2 9913   1.126   4.735   4.166
 3317TIP3   OH2 9914   2.238   5.013   5.663
 3317TIP3    H1 9915   2.228   5.104   5.690
 3317TIP3    H2 9916   2.327   5.007   5.630
 3318TIP3   OH2 9917   4.683   6.172   3.109
 3318TIP3    H1 9918   4.725   6.125   3.037
 3318TIP3    H2 9919   4.749   6.234   3.140
 3319TIP3   OH2 9920   3.186   5.786   2.599
 3319TIP3    H1 9921   3.144   5.790   2.685
 3319TIP3    H2 9922   3.131   5.726   2.549
 3320TIP3   OH2 9923   6.542   3.367   4.280
 3320TIP3    H1 9924   6.545   3.318   4.198
 3320TIP3    H2 9925   6.461   3.418   4.274
 3321TIP3   OH2 9926   0.143   2.060   5.473
 3321TIP3    H1 9927   0.078   2.126   5.496
 3321TIP3    H2 9928   0.203   2.058   5.547
 3322TIP3   OH2 9929   3.545   1.320   1.862
 3322TIP3    H1 9930   3.628   1.289   1.898
 3322TIP3    H2 9931   3.479   1.263   1.902
 3323TIP3   OH2 9932   6.849   3.637   0.000
 3323TIP3    H1 9933   6.930   3.687  -0.007
 3323TIP3    H2 9934   6.795   3.687   0.060
 3324TIP3   OH2 9935   1.772   4.316   4.027
 3324TIP3    H1 9936   1.724   4.295   3.947
 3324TIP3    H2 9937   1.820   4.396   4.006
 3325TIP3   OH2 9938   6.172   4.002   0.843
 3325TIP3    H1 9939   6.127   4.026   0.923
 3325TIP3    H2 9940   6.255   4.051   0.846
 3326TIP3   OH2 9941   0.869   0.087   3.859
 3326TIP3    H1 9942   0.916   0.152   3.911
 3326TIP3    H2 9943   0.778   0.097   3.886
 3327TIP3   OH2 9944   2.768   3.118   3.890
 3327TIP3    H1 9945   2.793   3.178   3.960
 3327TIP3    H2 9946   2.844   3.060   3.880
 3328TIP3   OH2 9947   6.256   0.880   0.408
 3328TIP3    H1 9948   6.331   0.853   0.356
 3328TIP3    H2 9949   6.240   0.971   0.381
 3329TIP3   OH2 9950   3.272   6.430   5.015
 3329TIP3    H1 9951   3.212   6.466   4.949
 3329TIP3    H2 9952   3.359   6.453   4.983
 3330TIP3   OH2 9953   6.608   1.576   1.238
 3330TIP3    H1 9954   6.654   1.648   1.194
 3330TIP3    H2 9955   6.531   1.560   1.183
 3331TIP3   OH2 9956   5.111   2.171   5.449
 3331TIP3    H1 9957   5.161   2.115   5.391
 3331TIP3    H2 9958   5.060   2.227   5.391
 3332TIP3   OH2 9959   1.364   2.675   3.009
 3332TIP3    H1 9960   1.422   2.707   3.078
 3332TIP3    H2 9961   1.335   2.589   3.040
 3333TIP3   OH2 9962   4.289   5.918   3.677
 3333TIP3    H1 9963   4.373   5.872   3.689
 3333TIP3    H2 9964   4.271   5.910   3.584
 3334TIP3   OH2 9965   2.457   0.843   2.902
 3334TIP3    H1 9966   2.551   0.842   2.920
 3334TIP3    H2 9967   2.432   0.935   2.912
 3335TIP3   OH2 9968   0.157   6.169   5.139
 3335TIP3    H1 9969   0.092   6.157   5.208
 3335TIP3    H2 9970   0.106   6.193   5.062
 3336TIP3   OH2 9971   2.896   5.061   2.619
 3336TIP3    H1 9972   2.908   5.086   2.527
 3336TIP3    H2 9973   2.801   5.062   2.631
 3337TIP3   OH2 9974   0.120   4.572   3.246
 3337TIP3    H1 9975   0.118   4.481   3.273
 3337TIP3    H2 9976   0.068   4.574   3.165
 3338TIP3   OH2 9977   2.574   5.926   2.211
 3338TIP3    H1 9978   2.593   6.010   2.169
 3338TIP3    H2 9979   2.530   5.875   2.144
 3339TIP3   OH2 9980   6.093   5.515   2.124
 3339TIP3    H1 9981   6.105   5.450   2.193
 3339TIP3    H2 9982   6.040   5.584   2.166
 3340TIP3   OH2 9983   0.450   5.277   3.349
 3340TIP3    H1 9984   0.493   5.198   3.316
 3340TIP3    H2 9985   0.433   5.258   3.441
 3341TIP3   OH2 9986   3.359   6.252   1.983
 3341TIP3    H1 9987   3.304   6.241   1.906
 3341TIP3    H2 9988   3.312   6.317   2.036
 3342TIP3   OH2 9989   2.056   4.404   3.883
 3342TIP3    H1 9990   1.988   4.371   3.823
 3342TIP3    H2 9991   2.119   4.333   3.889
 3343TIP3   OH2 9992   0.043   4.809   3.495
 3343TIP3    H1 9993   0.068   4.724   3.460
 3343TIP3    H2 9994   0.114   4.868   3.468
 3344TIP3   OH2 9995   1.167   4.955   4.040
 3344TIP3    H1 9996   1.098   4.992   4.093
 3344TIP3    H2 9997   1.246   5.004   4.064
 3345TIP3   OH2 9998   1.882   0.341   2.937
 3345TIP3    H1 9999   1.866   0.248   2.947
 3345TIP3    H210000   1.826   0.367   2.863
 3346TIP3   OH210001   1.985   5.068   5.569
 3346TIP3    H110002   2.057   5.013   5.602
 3346TIP3    H210003   2.026   5.123   5.502
 3347TIP3   OH210004   0.316   5.690   4.100
 3347TIP3    H110005   0.314   5.762   4.163
 3347TIP3    H210006   0.225   5.664   4.091
 3348TIP3   OH210007   2.131   4.856   2.059
 3348TIP3    H110008   2.065   4.832   2.125
 3348TIP3    H210009   2.196   4.906   2.107
 3349TIP3   OH210010   3.443   1.202   2.410
 3349TIP3    H110011   3.372   1.205   2.346
 3349TIP3    H210012   3.492   1.123   2.386
 3350TIP3   OH210013   0.887   3.007   2.171
 3350TIP3    H110014   0.856   2.975   2.255
 3350TIP3    H210015   0.866   2.936   2.109
 3351TIP3   OH210016   4.687   6.265   4.842
 3351TIP3    H110017   4.697   6.272   4.937
 3351TIP3    H210018   4.753   6.200   4.816
 3352TIP3   OH210019   0.505   3.129   0.283
 3352TIP3    H110020   0.593   3.093   0.294
 3352TIP3    H210021   0.508   3.174   0.198
 3353TIP3   OH210022   1.625   4.104   2.118
 3353TIP3    H110023   1.654   4.187   2.080
 3353TIP3    H210024   1.702   4.072   2.165
 3354TIP3   OH210025   5.383   2.262   4.850
 3354TIP3    H110026   5.378   2.193   4.785
 3354TIP3    H210027   5.309   2.246   4.908
 3355TIP3   OH210028   6.142   2.814   1.880
 3355TIP3    H110029   6.172   2.902   1.902
 3355TIP3    H210030   6.204   2.782   1.815
 3356TIP3   OH210031   0.669   0.510   3.937
 3356TIP3    H110032   0.649   0.573   3.868
 3356TIP3    H210033   0.751   0.540   3.975
 3357TIP3   OH210034   3.947   0.995   1.536
 3357TIP3    H110035   4.031   0.986   1.492
 3357TIP3    H210036   3.886   0.943   1.484
 3358TIP3   OH210037   3.804   2.623   0.522
 3358TIP3    H110038   3.717   2.658   0.543
 3358TIP3    H210039   3.789   2.530   0.506
 3359TIP3   OH210040   6.466   5.181   4.602
 3359TIP3    H110041   6.511   5.096   4.610
 3359TIP3    H210042   6.492   5.214   4.516
 3360TIP3   OH210043   4.108   4.244   2.756
 3360TIP3    H110044   4.076   4.194   2.831
 3360TIP3    H210045   4.130   4.330   2.793
 3361TIP3   OH210046   4.295   1.889   1.826
 3361TIP3    H110047   4.254   1.949   1.888
 3361TIP3    H210048   4.332   1.945   1.758
 3362TIP3   OH210049   1.765   3.468   4.743
 3362TIP3    H110050   1.780   3.394   4.802
 3362TIP3    H210051   1.731   3.429   4.663
 3363TIP3   OH210052   5.077   2.280   2.430
 3363TIP3    H110053   5.170   2.262   2.418
 3363TIP3    H210054   5.055   2.238   2.513
 3364TIP3   OH210055   0.507   4.645   1.133
 3364TIP3    H110056   0.594   4.641   1.172
 3364TIP3    H210057   0.495   4.737   1.109
 3365TIP3   OH210058   5.921   2.216   2.425
 3365TIP3    H110059   5.844   2.267   2.448
 3365TIP3    H210060   5.889   2.125   2.421
 3366TIP3   OH210061   3.834   3.863   4.858
 3366TIP3    H110062   3.929   3.862   4.863
 3366TIP3    H210063   3.814   3.862   4.764
 3367TIP3   OH210064   5.888   3.607   5.054
 3367TIP3    H110065   5.793   3.599   5.044
 3367TIP3    H210066   5.909   3.557   5.133
 3368TIP3   OH210067   5.185   2.366   1.666
 3368TIP3    H110068   5.175   2.304   1.739
 3368TIP3    H210069   5.112   2.346   1.607
 3369TIP3   OH210070   3.758   1.516   3.299
 3369TIP3    H110071   3.733   1.458   3.227
 3369TIP3    H210072   3.852   1.501   3.312
 3370TIP3   OH210073   1.115   5.606   5.720
 3370TIP3    H110074   1.081   5.681   5.672
 3370TIP3    H210075   1.055   5.534   5.698
 3371TIP3   OH210076   5.613   1.237   1.550
 3371TIP3    H110077   5.662   1.282   1.481
 3371TIP3    H210078   5.647   1.147   1.549
 3372TIP3   OH210079   3.584   2.664   3.237
 3372TIP3    H110080   3.674   2.667   3.204
 3372TIP3    H210081   3.572   2.572   3.263
 3373TIP3   OH210082   5.905   3.278   5.153
 3373TIP3    H110083   5.958   3.293   5.075
 3373TIP3    H210084   5.935   3.344   5.215
 3374TIP3   OH210085   5.765   6.323   4.694
 3374TIP3    H110086   5.829   6.370   4.746
 3374TIP3    H210087   5.685   6.376   4.700
 3375TIP3   OH210088   3.229   6.506   4.412
 3375TIP3    H110089   3.174   6.527   4.488
 3375TIP3    H210090   3.180   6.538   4.337
 3376TIP3   OH210091   4.397   5.760   1.302
 3376TIP3    H110092   4.340   5.747   1.226
 3376TIP3    H210093   4.354   5.712   1.373
 3377TIP3   OH210094   2.461   5.063   0.821
 3377TIP3    H110095   2.409   5.139   0.798
 3377TIP3    H210096   2.498   5.085   0.907
 3378TIP3   OH210097   0.276   2.030   2.222
 3378TIP3    H110098   0.354   2.003   2.270
 3378TIP3    H210099   0.203   2.005   2.280
 3379TIP3   OH210100   1.387   0.734   5.010
 3379TIP3    H110101   1.463   0.677   5.003
 3379TIP3    H210102   1.313   0.675   5.025
 3380TIP3   OH210103   5.473   4.955   3.935
 3380TIP3    H110104   5.467   4.868   3.895
 3380TIP3    H210105   5.399   5.003   3.898
 3381TIP3   OH210106   1.037   2.304   1.328
 3381TIP3    H110107   1.020   2.332   1.238
 3381TIP3    H210108   0.973   2.352   1.381
 3382TIP3   OH210109   5.086   3.624   1.679
 3382TIP3    H110110   5.085   3.667   1.764
 3382TIP3    H210111   5.178   3.624   1.654
 3383TIP3   OH210112   3.436   6.089   0.826
 3383TIP3    H110113   3.507   6.037   0.790
 3383TIP3    H210114   3.475   6.175   0.842
 3384TIP3   OH210115   7.146   3.175   0.840
 3384TIP3    H110116   7.062   3.146   0.804
 3384TIP3    H210117   7.210   3.112   0.805
 3385TIP3   OH210118   4.744   6.370   1.645
 3385TIP3    H110119   4.752   6.398   1.554
 3385TIP3    H210120   4.777   6.281   1.645
 3386TIP3   OH210121   0.745   1.960   3.603
 3386TIP3    H110122   0.748   1.876   3.558
 3386TIP3    H210123   0.828   1.965   3.650
 3387TIP3   OH210124  -0.019   1.914   3.435
 3387TIP3    H110125  -0.025   2.006   3.459
 3387TIP3    H210126   0.063   1.907   3.386
 3388TIP3   OH210127   0.822   4.279   4.224
 3388TIP3    H110128   0.733   4.252   4.246
 3388TIP3    H210129   0.853   4.327   4.302
 3389TIP3   OH210130   1.070   0.405   4.721
 3389TIP3    H110131   1.111   0.383   4.637
 3389TIP3    H210132   1.026   0.325   4.748
 3390TIP3   OH210133   4.225   5.699   3.025
 3390TIP3    H110134   4.197   5.783   2.989
 3390TIP3    H210135   4.315   5.714   3.054
 3391TIP3   OH210136   4.299   3.189   3.819
 3391TIP3    H110137   4.235   3.189   3.748
 3391TIP3    H210138   4.256   3.141   3.891
 3392TIP3   OH210139   2.361   6.700   1.944
 3392TIP3    H110140   2.386   6.743   2.026
 3392TIP3    H210141   2.360   6.771   1.880
 3393TIP3   OH210142   1.828   5.021   5.025
 3393TIP3    H110143   1.834   4.987   5.114
 3393TIP3    H210144   1.738   5.050   5.016
 3394TIP3   OH210145   4.936   5.007   1.986
 3394TIP3    H110146   4.925   4.957   2.066
 3394TIP3    H210147   5.012   4.968   1.943
 3395TIP3   OH210148   0.155   6.511   0.511
 3395TIP3    H110149   0.083   6.573   0.493
 3395TIP3    H210150   0.217   6.561   0.563
 3396TIP3   OH210151   0.176   3.338   1.540
 3396TIP3    H110152   0.240   3.282   1.495
 3396TIP3    H210153   0.230   3.394   1.597
 3397TIP3   OH210154   6.864   4.519   1.531
 3397TIP3    H110155   6.942   4.540   1.479
 3397TIP3    H210156   6.792   4.564   1.486
 3398TIP3   OH210157   3.524   3.154   0.433
 3398TIP3    H110158   3.496   3.217   0.368
 3398TIP3    H210159   3.465   3.080   0.422
 3399TIP3   OH210160   5.311   5.359   2.654
 3399TIP3    H110161   5.306   5.274   2.610
 3399TIP3    H210162   5.231   5.404   2.627
 3400TIP3   OH210163   5.759   2.539   5.294
 3400TIP3    H110164   5.843   2.533   5.338
 3400TIP3    H210165   5.750   2.632   5.273
 3401TIP3   OH210166   5.499   2.001   0.397
 3401TIP3    H110167   5.503   1.945   0.475
 3401TIP3    H210168   5.453   2.080   0.427
 3402TIP3   OH210169   4.004   2.951   0.428
 3402TIP3    H110170   3.966   2.986   0.509
 3402TIP3    H210171   3.963   3.001   0.358
 3403TIP3   OH210172   2.820   5.746   5.539
 3403TIP3    H110173   2.913   5.722   5.533
 3403TIP3    H210174   2.818   5.840   5.520
 3404TIP3   OH210175   1.505   3.372   3.063
 3404TIP3    H110176   1.475   3.457   3.031
 3404TIP3    H210177   1.431   3.313   3.048
 3405TIP3   OH210178   3.225   4.929   5.521
 3405TIP3    H110179   3.174   4.946   5.442
 3405TIP3    H210180   3.202   4.840   5.546
 3406TIP3   OH210181   3.961   2.127   2.269
 3406TIP3    H110182   3.911   2.172   2.201
 3406TIP3    H210183   3.943   2.034   2.253
 3407TIP3   OH210184   5.389   3.098   3.520
 3407TIP3    H110185   5.445   3.061   3.450
 3407TIP3    H210186   5.413   3.047   3.598
 3408TIP3   OH210187   5.295   6.453   3.619
 3408TIP3    H110188   5.329   6.439   3.530
 3408TIP3    H210189   5.249   6.372   3.640
 3409TIP3   OH210190   4.849   0.700   3.329
 3409TIP3    H110191   4.810   0.683   3.243
 3409TIP3    H210192   4.783   0.668   3.391
 3410TIP3   OH210193   1.381   3.275   1.679
 3410TIP3    H110194   1.304   3.322   1.711
 3410TIP3    H210195   1.346   3.192   1.645
 3411TIP3   OH210196   4.807   5.174   4.329
 3411TIP3    H110197   4.879   5.112   4.318
 3411TIP3    H210198   4.753   5.136   4.398
 3412TIP3   OH210199   5.506   1.577   2.694
 3412TIP3    H110200   5.561   1.653   2.675
 3412TIP3    H210201   5.435   1.582   2.630
 3413TIP3   OH210202   5.187   5.847   1.934
 3413TIP3    H110203   5.280   5.845   1.910
 3413TIP3    H210204   5.140   5.840   1.851
 3414TIP3   OH210205   3.689   1.231   0.323
 3414TIP3    H110206   3.671   1.323   0.305
 3414TIP3    H210207   3.606   1.186   0.304
 3415TIP3   OH210208   7.090   6.026   3.134
 3415TIP3    H110209   7.114   6.055   3.222
 3415TIP3    H210210   7.110   5.932   3.133
 3416TIP3   OH210211   2.200   5.138   0.212
 3416TIP3    H110212   2.290   5.106   0.217
 3416TIP3    H210213   2.150   5.079   0.269
 3417TIP3   OH210214   3.030   0.154   1.392
 3417TIP3    H110215   3.070   0.069   1.375
 3417TIP3    H210216   3.050   0.206   1.315
 3418TIP3   OH210217   4.983   5.697   4.502
 3418TIP3    H110218   4.992   5.624   4.563
 3418TIP3    H210219   4.959   5.657   4.419
 3419TIP3   OH210220   3.057   0.337   0.813
 3419TIP3    H110221   3.146   0.326   0.846
 3419TIP3    H210222   3.037   0.429   0.829
 3420TIP3   OH210223   0.470   4.680   5.374
 3420TIP3    H110224   0.411   4.747   5.409
 3420TIP3    H210225   0.439   4.599   5.414
 3421TIP3   OH210226   6.525   4.656   1.111
 3421TIP3    H110227   6.549   4.732   1.058
 3421TIP3    H210228   6.454   4.687   1.166
 3422TIP3   OH210229   2.095   4.402   1.758
 3422TIP3    H110230   2.190   4.403   1.771
 3422TIP3    H210231   2.063   4.480   1.804
 3423TIP3   OH210232   3.122   6.278   1.175
 3423TIP3    H110233   3.104   6.351   1.234
 3423TIP3    H210234   3.204   6.301   1.132
 3424TIP3   OH210235   0.886   6.160   4.177
 3424TIP3    H110236   0.828   6.211   4.121
 3424TIP3    H210237   0.946   6.224   4.215
 3425TIP3   OH210238   2.951   1.030   3.698
 3425TIP3    H110239   2.992   1.098   3.646
 3425TIP3    H210240   2.944   0.955   3.638
 3426TIP3   OH210241   1.418   0.146   2.321
 3426TIP3    H110242   1.447   0.061   2.286
 3426TIP3    H210243   1.497   0.200   2.319
 3427TIP3   OH210244   2.478   2.362   1.293
 3427TIP3    H110245   2.508   2.351   1.203
 3427TIP3    H210246   2.480   2.274   1.330
 3428TIP3   OH210247   0.801   3.571   5.450
 3428TIP3    H110248   0.827   3.513   5.521
 3428TIP3    H210249   0.735   3.522   5.401
 3429TIP3   OH210250   0.407   2.762   2.876
 3429TIP3    H110251   0.394   2.678   2.832
 3429TIP3    H210252   0.333   2.816   2.849
 3430TIP3   OH210253   4.393   1.540   3.861
 3430TIP3    H110254   4.470   1.571   3.909
 3430TIP3    H210255   4.427   1.515   3.775
 3431TIP3   OH210256   3.335   5.289   5.537
 3431TIP3    H110257   3.285   5.254   5.611
 3431TIP3    H210258   3.272   5.292   5.465
 3432TIP3   OH210259   5.851   4.010   1.777
 3432TIP3    H110260   5.761   3.978   1.781
 3432TIP3    H210261   5.894   3.951   1.714
 3433TIP3   OH210262   7.054   2.920   3.486
 3433TIP3    H110263   7.070   2.963   3.402
 3433TIP3    H210264   7.099   2.976   3.550
 3434TIP3   OH210265   3.836   4.487   4.462
 3434TIP3    H110266   3.916   4.461   4.507
 3434TIP3    H210267   3.827   4.580   4.480
 3435TIP3   OH210268   5.964   3.982   2.591
 3435TIP3    H110269   5.956   3.906   2.648
 3435TIP3    H210270   6.022   3.953   2.520
 3436TIP3   OH210271   4.939   4.482   2.603
 3436TIP3    H110272   4.983   4.398   2.610
 3436TIP3    H210273   4.853   4.460   2.565
 3437TIP3   OH210274   0.581   4.632   2.146
 3437TIP3    H110275   0.492   4.650   2.116
 3437TIP3    H210276   0.622   4.585   2.074
 3438TIP3   OH210277   6.802   6.463   5.627
 3438TIP3    H110278   6.764   6.379   5.654
 3438TIP3    H210279   6.879   6.473   5.682
 3439TIP3   OH210280   7.111   1.664   1.998
 3439TIP3    H110281   7.022   1.693   1.980
 3439TIP3    H210282   7.131   1.701   2.084
 3440TIP3   OH210283   5.313   5.610   3.186
 3440TIP3    H110284   5.356   5.525   3.176
 3440TIP3    H210285   5.346   5.662   3.113
 3441TIP3   OH210286   4.483   3.108   3.024
 3441TIP3    H110287   4.526   3.056   3.092
 3441TIP3    H210288   4.393   3.119   3.055
 3442TIP3   OH210289   5.940   1.685   5.092
 3442TIP3    H110290   5.893   1.667   5.011
 3442TIP3    H210291   5.985   1.603   5.113
 3443TIP3   OH210292   1.829   5.791   1.008
 3443TIP3    H110293   1.848   5.817   0.917
 3443TIP3    H210294   1.814   5.697   1.003
 3444TIP3   OH210295   0.662   5.449   1.011
 3444TIP3    H110296   0.597   5.517   1.026
 3444TIP3    H210297   0.610   5.369   0.997
 3445TIP3   OH210298   7.022   1.133   4.551
 3445TIP3    H110299   7.110   1.102   4.574
 3445TIP3    H210300   7.018   1.222   4.585
 3446TIP3   OH210301   2.870   1.809   0.752
 3446TIP3    H110302   2.897   1.820   0.661
 3446TIP3    H210303   2.908   1.883   0.798
 3447TIP3   OH210304   0.078   5.188   3.240
 3447TIP3    H110305  -0.008   5.179   3.198
 3447TIP3    H210306   0.139   5.149   3.178
 3448TIP3   OH210307   1.324   2.364   3.809
 3448TIP3    H110308   1.368   2.410   3.880
 3448TIP3    H210309   1.246   2.417   3.791
 3449TIP3   OH210310   3.402   5.492   2.086
 3449TIP3    H110311   3.464   5.419   2.086
 3449TIP3    H210312   3.428   5.546   2.011
 3450TIP3   OH210313   5.489   1.594   4.911
 3450TIP3    H110314   5.471   1.541   4.834
 3450TIP3    H210315   5.584   1.608   4.910
 3451TIP3   OH210316   6.358   2.835   2.363
 3451TIP3    H110317   6.359   2.740   2.354
 3451TIP3    H210318   6.338   2.850   2.455
 3452TIP3   OH210319   0.234   1.831   3.320
 3452TIP3    H110320   0.291   1.798   3.389
 3452TIP3    H210321   0.291   1.879   3.261
 3453TIP3   OH210322   7.160   5.549   4.426
 3453TIP3    H110323   7.085   5.573   4.480
 3453TIP3    H210324   7.189   5.632   4.387
 3454TIP3   OH210325   4.538   2.487   2.056
 3454TIP3    H110326   4.601   2.489   1.985
 3454TIP3    H210327   4.561   2.409   2.107
 3455TIP3   OH210328   6.331   0.517   0.512
 3455TIP3    H110329   6.364   0.537   0.425
 3455TIP3    H210330   6.236   0.530   0.505
 3456TIP3   OH210331   5.949   5.929   3.504
 3456TIP3    H110332   5.932   5.836   3.488
 3456TIP3    H210333   5.862   5.969   3.507
 3457TIP3   OH210334   5.895   3.052   0.693
 3457TIP3    H110335   5.962   3.120   0.698
 3457TIP3    H210336   5.911   2.996   0.770
 3458TIP3   OH210337   0.852   1.762   4.275
 3458TIP3    H110338   0.881   1.671   4.268
 3458TIP3    H210339   0.807   1.766   4.359
 3459TIP3   OH210340   1.963   5.906   4.253
 3459TIP3    H110341   1.911   5.886   4.331
 3459TIP3    H210342   1.999   5.822   4.226
 3460TIP3   OH210343   3.500   4.636   2.630
 3460TIP3    H110344   3.546   4.696   2.571
 3460TIP3    H210345   3.415   4.622   2.587
 3461TIP3   OH210346   4.553   2.695   3.691
 3461TIP3    H110347   4.571   2.675   3.599
 3461TIP3    H210348   4.458   2.691   3.699
 3462TIP3   OH210349   7.069   4.675   1.756
 3462TIP3    H110350   7.039   4.596   1.799
 3462TIP3    H210351   7.005   4.691   1.686
 3463TIP3   OH210352   5.294   0.346   1.968
 3463TIP3    H110353   5.277   0.345   2.063
 3463TIP3    H210354   5.243   0.273   1.934
 3464TIP3   OH210355   3.666   3.392   3.629
 3464TIP3    H110356   3.651   3.408   3.536
 3464TIP3    H210357   3.615   3.313   3.648
 3465TIP3   OH210358   0.243   0.214   2.224
 3465TIP3    H110359   0.329   0.222   2.182
 3465TIP3    H210360   0.219   0.122   2.211
 3466TIP3   OH210361   6.859   0.404   4.754
 3466TIP3    H110362   6.850   0.394   4.849
 3466TIP3    H210363   6.947   0.441   4.742
 3467TIP3   OH210364   3.873   4.146   5.491
 3467TIP3    H110365   3.823   4.194   5.424
 3467TIP3    H210366   3.846   4.186   5.574
 3468TIP3   OH210367   3.983   3.897   4.045
 3468TIP3    H110368   4.066   3.937   4.021
 3468TIP3    H210369   3.995   3.867   4.134
 3469TIP3   OH210370  -0.003   3.333   4.083
 3469TIP3    H110371   0.074   3.304   4.132
 3469TIP3    H210372   0.015   3.424   4.062
 3470TIP3   OH210373   1.939   2.813   1.976
 3470TIP3    H110374   1.847   2.838   1.968
 3470TIP3    H210375   1.944   2.726   1.937
 3471TIP3   OH210376   5.269   3.084   1.210
 3471TIP3    H110377   5.265   3.071   1.115
 3471TIP3    H210378   5.185   3.124   1.232
 3472TIP3   OH210379   4.879   4.834   4.486
 3472TIP3    H110380   4.961   4.843   4.534
 3472TIP3    H210381   4.815   4.881   4.540
 3473TIP3   OH210382   5.671   0.163   1.579
 3473TIP3    H110383   5.619   0.154   1.658
 3473TIP3    H210384   5.736   0.230   1.600
 3474TIP3   OH210385   1.875   1.831   0.900
 3474TIP3    H110386   1.881   1.845   0.994
 3474TIP3    H210387   1.815   1.757   0.890
 3475TIP3   OH210388   1.465   1.769   0.052
 3475TIP3    H110389   1.384   1.796   0.094
 3475TIP3    H210390   1.513   1.721   0.120
 3476TIP3   OH210391   4.473   5.513   4.017
 3476TIP3    H110392   4.401   5.534   4.077
 3476TIP3    H210393   4.432   5.461   3.948
 3477TIP3   OH210394   7.080   0.224   3.640
 3477TIP3    H110395   7.094   0.223   3.735
 3477TIP3    H210396   7.084   0.317   3.617
 3478TIP3   OH210397   0.109   6.773   3.130
 3478TIP3    H110398   0.115   6.699   3.191
 3478TIP3    H210399   0.199   6.806   3.125
 3479TIP3   OH210400   4.107   6.532   1.529
 3479TIP3    H110401   4.025   6.573   1.557
 3479TIP3    H210402   4.132   6.579   1.449
 3480TIP3   OH210403   0.933   2.180   4.014
 3480TIP3    H110404   0.967   2.102   4.058
 3480TIP3    H210405   0.875   2.221   4.079
 3481TIP3   OH210406   6.415   4.136   0.845
 3481TIP3    H110407   6.441   4.227   0.827
 3481TIP3    H210408   6.492   4.084   0.822
 3482TIP3   OH210409   3.298   4.867   2.598
 3482TIP3    H110410   3.228   4.805   2.576
 3482TIP3    H210411   3.255   4.936   2.647
 3483TIP3   OH210412   1.465   4.891   1.772
 3483TIP3    H110413   1.404   4.874   1.844
 3483TIP3    H210414   1.457   4.814   1.716
 3484TIP3   OH210415   3.429   4.882   2.864
 3484TIP3    H110416   3.412   4.830   2.785
 3484TIP3    H210417   3.343   4.894   2.904
 3485TIP3   OH210418   3.941   0.799   1.746
 3485TIP3    H110419   3.853   0.764   1.762
 3485TIP3    H210420   3.926   0.886   1.709
 3486TIP3   OH210421   4.354   4.390   1.383
 3486TIP3    H110422   4.308   4.430   1.310
 3486TIP3    H210423   4.300   4.314   1.406
 3487TIP3   OH210424   5.835   2.115   2.077
 3487TIP3    H110425   5.916   2.101   2.126
 3487TIP3    H210426   5.815   2.208   2.089
 3488TIP3   OH210427   3.552   0.451   3.205
 3488TIP3    H110428   3.503   0.422   3.282
 3488TIP3    H210429   3.613   0.516   3.238
 3489TIP3   OH210430   6.347   2.255   4.200
 3489TIP3    H110431   6.349   2.337   4.250
 3489TIP3    H210432   6.332   2.188   4.266
 3490TIP3   OH210433   1.506   4.951   1.221
 3490TIP3    H110434   1.496   5.022   1.157
 3490TIP3    H210435   1.417   4.932   1.249
 3491TIP3   OH210436   0.611   4.125   4.420
 3491TIP3    H110437   0.567   4.208   4.400
 3491TIP3    H210438   0.544   4.059   4.405
 3492TIP3   OH210439   0.765   6.132   5.441
 3492TIP3    H110440   0.674   6.117   5.468
 3492TIP3    H210441   0.759   6.153   5.348
 3493TIP3   OH210442   4.951   1.492   1.437
 3493TIP3    H110443   4.871   1.543   1.428
 3493TIP3    H210444   4.922   1.401   1.439
 3494TIP3   OH210445   1.289   2.486   4.474
 3494TIP3    H110446   1.232   2.497   4.550
 3494TIP3    H210447   1.241   2.527   4.402
 3495TIP3   OH210448   2.398   2.190   5.045
 3495TIP3    H110449   2.374   2.253   5.113
 3495TIP3    H210450   2.351   2.110   5.069
 3496TIP3   OH210451   1.082   3.693   0.787
 3496TIP3    H110452   1.142   3.677   0.714
 3496TIP3    H210453   1.114   3.638   0.858
 3497TIP3   OH210454   6.805   1.443   1.447
 3497TIP3    H110455   6.736   1.475   1.389
 3497TIP3    H210456   6.758   1.397   1.517
 3498TIP3   OH210457   0.712   6.314   5.187
 3498TIP3    H110458   0.657   6.393   5.196
 3498TIP3    H210459   0.658   6.253   5.137
 3499TIP3   OH210460   0.310   3.887   2.958
 3499TIP3    H110461   0.232   3.925   2.918
 3499TIP3    H210462   0.276   3.824   3.022
 3500TIP3   OH210463   2.388   3.322   5.362
 3500TIP3    H110464   2.312   3.376   5.340
 3500TIP3    H210465   2.371   3.292   5.451
 3501TIP3   OH210466   0.857   0.197   3.612
 3501TIP3    H110467   0.884   0.171   3.700
 3501TIP3    H210468   0.772   0.239   3.624
 3502TIP3   OH210469   5.179   1.708   1.014
 3502TIP3    H110470   5.096   1.663   1.027
 3502TIP3    H210471   5.233   1.679   1.088
 3503TIP3   OH210472   6.906   4.306   5.494
 3503TIP3    H110473   6.938   4.330   5.407
 3503TIP3    H210474   6.902   4.211   5.493
 3504TIP3   OH210475   6.884   6.007   5.534
 3504TIP3    H110476   6.791   5.984   5.528
 3504TIP3    H210477   6.907   6.037   5.446
 3505TIP3   OH210478   3.441   6.165   3.072
 3505TIP3    H110479   3.507   6.095   3.070
 3505TIP3    H210480   3.421   6.182   2.980
 3506TIP3   OH210481   7.093   4.750   2.709
 3506TIP3    H110482   7.161   4.689   2.683
 3506TIP3    H210483   7.140   4.828   2.737
 3507TIP3   OH210484   7.111   6.458   5.519
 3507TIP3    H110485   7.070   6.476   5.604
 3507TIP3    H210486   7.068   6.518   5.458
 3508TIP3   OH210487   4.148   6.022   1.768
 3508TIP3    H110488   4.062   6.035   1.808
 3508TIP3    H210489   4.129   5.996   1.678
 3509TIP3   OH210490   6.991   1.692   3.933
 3509TIP3    H110491   6.982   1.698   4.028
 3509TIP3    H210492   6.910   1.730   3.899
 3510TIP3   OH210493   0.860   2.857   3.843
 3510TIP3    H110494   0.844   2.951   3.850
 3510TIP3    H210495   0.772   2.818   3.844
 3511TIP3   OH210496   6.556   5.393   5.439
 3511TIP3    H110497   6.510   5.356   5.514
 3511TIP3    H210498   6.615   5.324   5.410
 3512TIP3   OH210499   7.064   2.762   4.563
 3512TIP3    H110500   7.011   2.767   4.643
 3512TIP3    H210501   7.047   2.844   4.518
 3513TIP3   OH210502   1.901   6.524   5.346
 3513TIP3    H110503   1.827   6.579   5.372
 3513TIP3    H210504   1.878   6.494   5.258
 3514TIP3   OH210505   1.537   1.705   4.561
 3514TIP3    H110506   1.494   1.626   4.595
 3514TIP3    H210507   1.488   1.777   4.600
 3515TIP3   OH210508   2.121   1.861   5.577
 3515TIP3    H110509   2.109   1.795   5.509
 3515TIP3    H210510   2.043   1.855   5.631
 3516TIP3   OH210511   5.604   5.354   3.462
 3516TIP3    H110512   5.690   5.329   3.497
 3516TIP3    H210513   5.543   5.336   3.533
 3517TIP3   OH210514   0.523   6.122   5.054
 3517TIP3    H110515   0.442   6.094   5.098
 3517TIP3    H210516   0.591   6.064   5.089
 3518TIP3   OH210517   2.883   3.585   0.239
 3518TIP3    H110518   2.816   3.578   0.170
 3518TIP3    H210519   2.918   3.496   0.248
 3519TIP3   OH210520   1.166   4.446   1.525
 3519TIP3    H110521   1.177   4.511   1.455
 3519TIP3    H210522   1.246   4.394   1.522
 3520TIP3   OH210523   1.456   0.897   2.602
 3520TIP3    H110524   1.381   0.948   2.571
 3520TIP3    H210525   1.418   0.823   2.649
 3521TIP3   OH210526   6.275   0.963   2.683
 3521TIP3    H110527   6.307   0.948   2.773
 3521TIP3    H210528   6.349   0.939   2.627
 3522TIP3   OH210529   0.595   6.121   2.065
 3522TIP3    H110530   0.543   6.042   2.076
 3522TIP3    H210531   0.684   6.094   2.088
 3523TIP3   OH210532   0.729   3.750   2.727
 3523TIP3    H110533   0.750   3.776   2.817
 3523TIP3    H210534   0.634   3.737   2.728
 3524TIP3   OH210535   3.681   0.641   3.334
 3524TIP3    H110536   3.649   0.730   3.327
 3524TIP3    H210537   3.618   0.597   3.391
 3525TIP3   OH210538   2.051   1.847   5.031
 3525TIP3    H110539   1.981   1.910   5.013
 3525TIP3    H210540   2.006   1.763   5.035
 3526TIP3   OH210541   5.158   4.054   3.756
 3526TIP3    H110542   5.134   4.145   3.772
 3526TIP3    H210543   5.250   4.057   3.730
 3527TIP3   OH210544   5.511   3.355   3.202
 3527TIP3    H110545   5.546   3.287   3.144
 3527TIP3    H210546   5.517   3.436   3.151
 3528TIP3   OH210547   2.401   0.145   1.595
 3528TIP3    H110548   2.433   0.055   1.596
 3528TIP3    H210549   2.314   0.138   1.557
 3529TIP3   OH210550   5.319   6.346   1.959
 3529TIP3    H110551   5.289   6.378   2.044
 3529TIP3    H210552   5.377   6.273   1.981
 3530TIP3   OH210553   3.385   6.110   3.679
 3530TIP3    H110554   3.361   6.203   3.681
 3530TIP3    H210555   3.449   6.103   3.608
 3531TIP3   OH210556   0.345   2.286   4.466
 3531TIP3    H110557   0.413   2.343   4.501
 3531TIP3    H210558   0.384   2.199   4.466
 3532TIP3   OH210559   3.877   4.542   2.382
 3532TIP3    H110560   3.812   4.487   2.425
 3532TIP3    H210561   3.916   4.487   2.315
 3533TIP3   OH210562   4.528   5.225   1.370
 3533TIP3    H110563   4.609   5.276   1.371
 3533TIP3    H210564   4.557   5.134   1.379
 3534TIP3   OH210565   2.039   0.320   5.737
 3534TIP3    H110566   2.122   0.324   5.690
 3534TIP3    H210567   1.989   0.252   5.691
 3535TIP3   OH210568   2.923   3.936   5.107
 3535TIP3    H110569   3.011   3.966   5.085
 3535TIP3    H210570   2.885   3.911   5.023
 3536TIP3   OH210571   3.788   5.332   4.815
 3536TIP3    H110572   3.776   5.425   4.833
 3536TIP3    H210573   3.700   5.295   4.823
 3537TIP3   OH210574   2.890   1.161   5.397
 3537TIP3    H110575   2.972   1.195   5.431
 3537TIP3    H210576   2.911   1.131   5.309
 3538TIP3   OH210577   1.046   6.760   2.797
 3538TIP3    H110578   1.091   6.690   2.844
 3538TIP3    H210579   1.006   6.717   2.722
 3539TIP3   OH210580   1.534   5.390   2.967
 3539TIP3    H110581   1.494   5.453   3.027
 3539TIP3    H210582   1.460   5.347   2.925
 3540TIP3   OH210583   6.915   2.082   2.280
 3540TIP3    H110584   6.874   2.128   2.354
 3540TIP3    H210585   6.935   2.151   2.217
 3541TIP3   OH210586   2.345   6.676   3.993
 3541TIP3    H110587   2.369   6.640   4.079
 3541TIP3    H210588   2.249   6.673   3.992
 3542TIP3   OH210589   5.400   6.615   0.380
 3542TIP3    H110590   5.463   6.673   0.424
 3542TIP3    H210591   5.424   6.619   0.288
 3543TIP3   OH210592   0.714   5.958   4.548
 3543TIP3    H110593   0.674   5.872   4.563
 3543TIP3    H210594   0.743   5.955   4.457
 3544TIP3   OH210595   4.397   5.001   2.046
 3544TIP3    H110596   4.362   5.069   1.989
 3544TIP3    H210597   4.491   4.999   2.027
 3545TIP3   OH210598   4.304   1.483   0.897
 3545TIP3    H110599   4.399   1.484   0.895
 3545TIP3    H210600   4.279   1.474   0.805
 3546TIP3   OH210601   3.425   6.211   4.556
 3546TIP3    H110602   3.485   6.285   4.551
 3546TIP3    H210603   3.470   6.147   4.610
 3547TIP3   OH210604   4.995   3.511   3.111
 3547TIP3    H110605   4.914   3.511   3.060
 3547TIP3    H210606   5.063   3.537   3.048
 3548TIP3   OH210607   3.790   3.106   5.612
 3548TIP3    H110608   3.725   3.115   5.683
 3548TIP3    H210609   3.858   3.051   5.650
 3549TIP3   OH210610   4.077   3.503   2.780
 3549TIP3    H110611   3.995   3.467   2.749
 3549TIP3    H210612   4.061   3.597   2.787
 3550TIP3   OH210613   6.122   6.003   3.310
 3550TIP3    H110614   6.043   5.986   3.361
 3550TIP3    H210615   6.141   6.096   3.326
 3551TIP3   OH210616   3.215   3.837   0.770
 3551TIP3    H110617   3.247   3.789   0.846
 3551TIP3    H210618   3.285   3.828   0.705
 3552TIP3   OH210619   6.542   6.209   1.125
 3552TIP3    H110620   6.560   6.232   1.217
 3552TIP3    H210621   6.604   6.262   1.075
 3553TIP3   OH210622   6.106   2.787   2.686
 3553TIP3    H110623   6.117   2.692   2.680
 3553TIP3    H210624   6.107   2.806   2.780
 3554TIP3   OH210625   7.141   6.756   4.671
 3554TIP3    H110626   7.094   6.827   4.627
 3554TIP3    H210627   7.086   6.679   4.659
 3555TIP3   OH210628   0.309   0.618   0.167
 3555TIP3    H110629   0.335   0.695   0.218
 3555TIP3    H210630   0.327   0.544   0.224
 3556TIP3   OH210631   4.846   6.280   4.528
 3556TIP3    H110632   4.818   6.220   4.596
 3556TIP3    H210633   4.842   6.366   4.569
 3557TIP3   OH210634   6.243   3.935   1.285
 3557TIP3    H110635   6.261   4.029   1.281
 3557TIP3    H210636   6.149   3.928   1.269
 3558TIP3   OH210637   6.590   5.776   3.648
 3558TIP3    H110638   6.545   5.794   3.731
 3558TIP3    H210639   6.630   5.690   3.662
 3559TIP3   OH210640   6.915   1.810   1.457
 3559TIP3    H110641   6.915   1.883   1.519
 3559TIP3    H210642   6.833   1.820   1.409
 3560TIP3   OH210643   3.829   6.803   2.596
 3560TIP3    H110644   3.775   6.777   2.521
 3560TIP3    H210645   3.851   6.721   2.639
 3561TIP3   OH210646   1.765   3.795   0.959
 3561TIP3    H110647   1.848   3.794   1.007
 3561TIP3    H210648   1.771   3.873   0.903
 3562TIP3   OH210649   0.832   5.038   5.691
 3562TIP3    H110650   0.786   4.955   5.676
 3562TIP3    H210651   0.868   5.061   5.606
 3563TIP3   OH210652   3.432   2.050   1.297
 3563TIP3    H110653   3.417   1.972   1.351
 3563TIP3    H210654   3.453   2.119   1.360
 3564TIP3   OH210655   2.489   2.609   4.387
 3564TIP3    H110656   2.570   2.660   4.383
 3564TIP3    H210657   2.470   2.601   4.480
 3565TIP3   OH210658   4.120   4.247   0.445
 3565TIP3    H110659   4.039   4.281   0.482
 3565TIP3    H210660   4.183   4.251   0.517
 3566TIP3   OH210661   4.923   0.351   0.717
 3566TIP3    H110662   4.849   0.379   0.663
 3566TIP3    H210663   4.963   0.279   0.667
 3567TIP3   OH210664   1.843   1.573   1.510
 3567TIP3    H110665   1.827   1.548   1.419
 3567TIP3    H210666   1.926   1.530   1.532
 3568TIP3   OH210667   4.588   4.886   4.230
 3568TIP3    H110668   4.621   4.960   4.281
 3568TIP3    H210669   4.638   4.811   4.262
 3569TIP3   OH210670   6.063   4.035   5.204
 3569TIP3    H110671   6.059   3.956   5.257
 3569TIP3    H210672   6.056   4.107   5.267
 3570TIP3   OH210673   3.506   2.932   1.672
 3570TIP3    H110674   3.467   3.014   1.643
 3570TIP3    H210675   3.563   2.906   1.600
 3571TIP3   OH210676   0.551   0.367   4.817
 3571TIP3    H110677   0.567   0.310   4.742
 3571TIP3    H210678   0.457   0.385   4.815
 3572TIP3   OH210679   3.749   4.808   1.465
 3572TIP3    H110680   3.672   4.860   1.486
 3572TIP3    H210681   3.717   4.718   1.461
 3573TIP3   OH210682   1.918   4.901   3.264
 3573TIP3    H110683   2.000   4.923   3.308
 3573TIP3    H210684   1.943   4.839   3.196
 3574TIP3   OH210685   5.246   3.493   3.032
 3574TIP3    H110686   5.209   3.516   3.117
 3574TIP3    H210687   5.340   3.506   3.043
 3575TIP3   OH210688   2.704   4.949   1.701
 3575TIP3    H110689   2.637   4.930   1.767
 3575TIP3    H210690   2.756   5.020   1.739
 3576TIP3   OH210691   4.198   1.823   4.828
 3576TIP3    H110692   4.200   1.919   4.820
 3576TIP3    H210693   4.279   1.801   4.873
 3577TIP3   OH210694   2.325   4.861   4.606
 3577TIP3    H110695   2.292   4.804   4.536
 3577TIP3    H210696   2.371   4.931   4.559
 3578TIP3   OH210697   1.048   4.884   5.446
 3578TIP3    H110698   1.057   4.825   5.371
 3578TIP3    H210699   1.016   4.966   5.409
 3579TIP3   OH210700   2.108   4.153   5.749
 3579TIP3    H110701   2.136   4.136   5.659
 3579TIP3    H210702   2.160   4.092   5.803
 3580TIP3   OH210703   2.800   4.331   3.130
 3580TIP3    H110704   2.879   4.377   3.105
 3580TIP3    H210705   2.809   4.244   3.090
 3581TIP3   OH210706   4.095   6.646   4.959
 3581TIP3    H110707   4.092   6.664   4.865
 3581TIP3    H210708   4.050   6.720   4.999
 3582TIP3   OH210709   6.728   1.822   1.102
 3582TIP3    H110710   6.647   1.812   1.052
 3582TIP3    H210711   6.715   1.903   1.152
 3583TIP3   OH210712   4.834   4.051   3.953
 3583TIP3    H110713   4.864   3.993   3.883
 3583TIP3    H210714   4.912   4.067   4.005
 3584TIP3   OH210715   2.553   6.090   4.664
 3584TIP3    H110716   2.565   6.051   4.750
 3584TIP3    H210717   2.632   6.141   4.649
 3585TIP3   OH210718   1.426   3.761   5.300
 3585TIP3    H110719   1.487   3.826   5.264
 3585TIP3    H210720   1.441   3.765   5.395
 3586TIP3   OH210721   6.027   3.292   4.140
 3586TIP3    H110722   6.057   3.220   4.085
 3586TIP3    H210723   5.966   3.341   4.085
 3587TIP3   OH210724   6.593   1.100   2.575
 3587TIP3    H110725   6.535   1.028   2.550
 3587TIP3    H210726   6.547   1.179   2.545
 3588TIP3   OH210727   3.908   0.534   0.463
 3588TIP3    H110728   3.994   0.530   0.504
 3588TIP3    H210729   3.873   0.445   0.471
 3589TIP3   OH210730   0.988   0.766   1.127
 3589TIP3    H110731   0.901   0.728   1.142
 3589TIP3    H210732   1.047   0.691   1.130
 3590TIP3   OH210733   0.780   0.807   0.829
 3590TIP3    H110734   0.758   0.802   0.922
 3590TIP3    H210735   0.875   0.818   0.827
 3591TIP3   OH210736   6.410   2.273   4.559
 3591TIP3    H110737   6.361   2.329   4.619
 3591TIP3    H210738   6.423   2.328   4.482
 3592TIP3   OH210739   0.788   3.861   4.988
 3592TIP3    H110740   0.883   3.867   4.984
 3592TIP3    H210741   0.770   3.805   5.064
 3593TIP3   OH210742   4.107   4.713   3.648
 3593TIP3    H110743   4.065   4.627   3.642
 3593TIP3    H210744   4.094   4.751   3.562
 3594TIP3   OH210745   6.052   6.458   4.600
 3594TIP3    H110746   6.112   6.406   4.654
 3594TIP3    H210747   6.055   6.416   4.514
 3595TIP3   OH210748   6.609   5.333   1.569
 3595TIP3    H110749   6.517   5.341   1.593
 3595TIP3    H210750   6.647   5.277   1.636
 3596TIP3   OH210751   0.794   2.872   0.462
 3596TIP3    H110752   0.864   2.937   0.465
 3596TIP3    H210753   0.770   2.857   0.553
 3597TIP3   OH210754   3.596   2.180   4.085
 3597TIP3    H110755   3.608   2.086   4.099
 3597TIP3    H210756   3.502   2.194   4.094
 3598TIP3   OH210757   6.125   4.615   0.435
 3598TIP3    H110758   6.082   4.698   0.414
 3598TIP3    H210759   6.136   4.616   0.530
 3599TIP3   OH210760   0.938   1.509   4.383
 3599TIP3    H110761   0.922   1.497   4.476
 3599TIP3    H210762   0.864   1.465   4.340
 3600TIP3   OH210763   3.374   0.681   5.520
 3600TIP3    H110764   3.347   0.668   5.611
 3600TIP3    H210765   3.456   0.633   5.512
 3601TIP3   OH210766   1.774   4.978   2.801
 3601TIP3    H110767   1.784   4.985   2.896
 3601TIP3    H210768   1.805   5.062   2.768
 3602TIP3   OH210769   6.080   6.526   0.927
 3602TIP3    H110770   5.990   6.547   0.954
 3602TIP3    H210771   6.119   6.485   1.004
 3603TIP3   OH210772   5.654   6.542   4.831
 3603TIP3    H110773   5.579   6.514   4.779
 3603TIP3    H210774   5.661   6.478   4.901
 3604TIP3   OH210775   3.370   1.963   2.360
 3604TIP3    H110776   3.451   2.011   2.381
 3604TIP3    H210777   3.304   2.031   2.347
 3605TIP3   OH210778   2.140   0.085   4.547
 3605TIP3    H110779   2.051   0.069   4.578
 3605TIP3    H210780   2.158   0.012   4.488
 3606TIP3   OH210781   1.611   2.397   5.816
 3606TIP3    H110782   1.535   2.442   5.855
 3606TIP3    H210783   1.685   2.454   5.836
 3607TIP3   OH210784   3.233   5.623   4.179
 3607TIP3    H110785   3.258   5.712   4.206
 3607TIP3    H210786   3.265   5.566   4.248
 3608TIP3   OH210787   6.299   5.952   0.277
 3608TIP3    H110788   6.212   5.921   0.301
 3608TIP3    H210789   6.304   5.940   0.182
 3609TIP3   OH210790   4.425   1.567   1.508
 3609TIP3    H110791   4.411   1.524   1.592
 3609TIP3    H210792   4.347   1.621   1.495
 3610TIP3   OH210793   6.481   2.831   2.622
 3610TIP3    H110794   6.573   2.817   2.603
 3610TIP3    H210795   6.467   2.790   2.707
 3611TIP3   OH210796   0.649   4.357   2.841
 3611TIP3    H110797   0.618   4.381   2.928
 3611TIP3    H210798   0.595   4.407   2.780
 3612TIP3   OH210799   5.515   2.379   3.490
 3612TIP3    H110800   5.494   2.311   3.554
 3612TIP3    H210801   5.437   2.434   3.488
 3613TIP3   OH210802   6.394   5.969   4.563
 3613TIP3    H110803   6.364   6.057   4.540
 3613TIP3    H210804   6.318   5.913   4.551
 3614TIP3   OH210805   2.087   2.555   4.570
 3614TIP3    H110806   2.168   2.600   4.546
 3614TIP3    H210807   2.057   2.600   4.648
 3615TIP3   OH210808   0.407   4.511   1.489
 3615TIP3    H110809   0.472   4.441   1.491
 3615TIP3    H210810   0.370   4.508   1.401
 3616TIP3   OH210811   1.204   2.913   2.518
 3616TIP3    H110812   1.255   2.867   2.452
 3616TIP3    H210813   1.262   2.983   2.549
 3617TIP3   OH210814   5.369   3.378   3.458
 3617TIP3    H110815   5.366   3.291   3.499
 3617TIP3    H210816   5.402   3.361   3.370
 3618TIP3   OH210817   3.076   3.190   2.105
 3618TIP3    H110818   3.102   3.143   2.184
 3618TIP3    H210819   3.013   3.255   2.134
 3619TIP3   OH210820   6.089   5.964   2.099
 3619TIP3    H110821   6.115   5.974   2.191
 3619TIP3    H210822   6.131   6.038   2.055
 3620TIP3   OH210823   1.806   5.281   3.492
 3620TIP3    H110824   1.743   5.224   3.448
 3620TIP3    H210825   1.790   5.368   3.455
 3621TIP3   OH210826   5.204   1.063   1.782
 3621TIP3    H110827   5.191   0.998   1.713
 3621TIP3    H210828   5.195   1.147   1.738
 3622TIP3   OH210829   0.591   0.097   3.098
 3622TIP3    H110830   0.612   0.067   3.010
 3622TIP3    H210831   0.505   0.059   3.117
 3623TIP3   OH210832   3.694   4.019   2.630
 3623TIP3    H110833   3.599   4.030   2.638
 3623TIP3    H210834   3.730   4.101   2.665
 3624TIP3   OH210835   3.784   0.147   2.479
 3624TIP3    H110836   3.843   0.222   2.481
 3624TIP3    H210837   3.798   0.107   2.393
 3625TIP3   OH210838   7.083   0.913   4.878
 3625TIP3    H110839   7.001   0.923   4.927
 3625TIP3    H210840   7.151   0.929   4.943
 3626TIP3   OH210841   4.157   4.354   0.012
 3626TIP3    H110842   4.182   4.381   0.100
 3626TIP3    H210843   4.182   4.428  -0.043
 3627TIP3   OH210844   3.494   1.960   5.214
 3627TIP3    H110845   3.549   1.908   5.273
 3627TIP3    H210846   3.549   2.032   5.185
 3628TIP3   OH210847   6.723   6.670   0.870
 3628TIP3    H110848   6.723   6.722   0.789
 3628TIP3    H210849   6.642   6.695   0.914
 3629TIP3   OH210850   3.856   0.763   3.604
 3629TIP3    H110851   3.847   0.808   3.520
 3629TIP3    H210852   3.950   0.750   3.616
 3630TIP3   OH210853   6.695   6.748   2.683
 3630TIP3    H110854   6.720   6.839   2.701
 3630TIP3    H210855   6.756   6.696   2.735
 3631TIP3   OH210856   5.922   3.383   3.431
 3631TIP3    H110857   6.013   3.392   3.403
 3631TIP3    H210858   5.912   3.291   3.456
 3632TIP3   OH210859   5.637   6.123   4.520
 3632TIP3    H110860   5.545   6.119   4.547
 3632TIP3    H210861   5.679   6.177   4.587
 3633TIP3   OH210862   1.274   0.336   0.572
 3633TIP3    H110863   1.247   0.427   0.557
 3633TIP3    H210864   1.369   0.340   0.583
 3634TIP3   OH210865   2.022   4.849   2.322
 3634TIP3    H110866   1.966   4.927   2.326
 3634TIP3    H210867   2.107   4.879   2.355
 3635TIP3   OH210868   3.028   0.525   4.564
 3635TIP3    H110869   2.940   0.556   4.588
 3635TIP3    H210870   3.082   0.542   4.641
 3636TIP3   OH210871   4.831   2.271   1.056
 3636TIP3    H110872   4.744   2.293   1.024
 3636TIP3    H210873   4.879   2.354   1.053
 3637TIP3   OH210874   6.732   4.166   4.858
 3637TIP3    H110875   6.806   4.225   4.844
 3637TIP3    H210876   6.747   4.093   4.799
 3638TIP3   OH210877   4.663   2.087   5.790
 3638TIP3    H110878   4.734   2.094   5.726
 3638TIP3    H210879   4.707   2.091   5.875
 3639TIP3   OH210880   3.551   4.128   5.766
 3639TIP3    H110881   3.459   4.151   5.773
 3639TIP3    H210882   3.551   4.035   5.742
 3640TIP3   OH210883   1.858   2.482   2.441
 3640TIP3    H110884   1.787   2.546   2.439
 3640TIP3    H210885   1.938   2.535   2.447
 3641TIP3   OH210886   1.137   3.750   1.683
 3641TIP3    H110887   1.204   3.683   1.700
 3641TIP3    H210888   1.115   3.738   1.591
 3642TIP3   OH210889   7.203   3.370   0.638
 3642TIP3    H110890   7.129   3.428   0.654
 3642TIP3    H210891   7.233   3.344   0.725
 3643TIP3   OH210892   3.559   2.680   1.772
 3643TIP3    H110893   3.551   2.680   1.868
 3643TIP3    H210894   3.543   2.771   1.747
 3644TIP3   OH210895   1.575   4.364   5.457
 3644TIP3    H110896   1.500   4.362   5.397
 3644TIP3    H210897   1.562   4.288   5.514
 3645TIP3   OH210898   5.587   0.470   4.826
 3645TIP3    H110899   5.512   0.412   4.836
 3645TIP3    H210900   5.654   0.415   4.784
 3646TIP3   OH210901   6.974   4.043   3.287
 3646TIP3    H110902   6.971   4.052   3.383
 3646TIP3    H210903   6.977   3.949   3.272
 3647TIP3   OH210904   5.341   1.279   0.497
 3647TIP3    H110905   5.403   1.272   0.424
 3647TIP3    H210906   5.383   1.338   0.559
 3648TIP3   OH210907   1.538   4.812   2.143
 3648TIP3    H110908   1.574   4.840   2.227
 3648TIP3    H210909   1.603   4.751   2.108
 3649TIP3   OH210910   3.323   6.784   4.211
 3649TIP3    H110911   3.368   6.865   4.187
 3649TIP3    H210912   3.392   6.717   4.207
 3650TIP3   OH210913   4.459   1.277   4.027
 3650TIP3    H110914   4.471   1.335   3.952
 3650TIP3    H210915   4.468   1.335   4.103
 3651TIP3   OH210916   2.636   1.778  -0.029
 3651TIP3    H110917   2.666   1.772   0.062
 3651TIP3    H210918   2.547   1.744  -0.027
 3652TIP3   OH210919   5.449   6.357   2.431
 3652TIP3    H110920   5.520   6.421   2.437
 3652TIP3    H210921   5.414   6.353   2.520
 3653TIP3   OH210922   2.763   2.677   5.464
 3653TIP3    H110923   2.672   2.659   5.441
 3653TIP3    H210924   2.757   2.741   5.535
 3654TIP3   OH210925   1.190   5.027   0.954
 3654TIP3    H110926   1.161   5.105   0.906
 3654TIP3    H210927   1.266   4.996   0.905
 3655TIP3   OH210928   2.760   5.841   1.878
 3655TIP3    H110929   2.834   5.836   1.938
 3655TIP3    H210930   2.732   5.932   1.881
 3656TIP3   OH210931   3.049   1.257   3.974
 3656TIP3    H110932   3.091   1.215   4.050
 3656TIP3    H210933   2.960   1.275   4.004
 3657TIP3   OH210934   1.381   4.541   0.220
 3657TIP3    H110935   1.314   4.604   0.244
 3657TIP3    H210936   1.417   4.511   0.303
 3658TIP3   OH210937   6.427   1.448   0.729
 3658TIP3    H110938   6.344   1.496   0.739
 3658TIP3    H210939   6.434   1.432   0.635
 3659TIP3   OH210940   4.658   5.811   1.460
 3659TIP3    H110941   4.589   5.756   1.423
 3659TIP3    H210942   4.613   5.887   1.495
 3660TIP3   OH210943   4.430   5.933   5.684
 3660TIP3    H110944   4.520   5.904   5.704
 3660TIP3    H210945   4.397   5.967   5.767
 3661TIP3   OH210946   1.133   4.486   3.773
 3661TIP3    H110947   1.109   4.572   3.807
 3661TIP3    H210948   1.114   4.425   3.845
 3662TIP3   OH210949   1.518   5.559   0.480
 3662TIP3    H110950   1.518   5.540   0.574
 3662TIP3    H210951   1.528   5.654   0.475
 3663TIP3   OH210952   1.422   6.450   5.828
 3663TIP3    H110953   1.447   6.529   5.876
 3663TIP3    H210954   1.360   6.405   5.885
 3664TIP3   OH210955   4.425   3.284   4.428
 3664TIP3    H110956   4.473   3.367   4.420
 3664TIP3    H210957   4.341   3.309   4.466
 3665TIP3   OH210958   6.939   3.668   4.912
 3665TIP3    H110959   6.867   3.654   4.851
 3665TIP3    H210960   7.001   3.597   4.894
 3666TIP3   OH210961   2.636   6.639   5.267
 3666TIP3    H110962   2.726   6.620   5.292
 3666TIP3    H210963   2.643   6.709   5.203
 3667TIP3   OH210964   6.908   0.909   4.054
 3667TIP3    H110965   6.967   0.841   4.085
 3667TIP3    H210966   6.905   0.973   4.126
 3668TIP3   OH210967   1.668   2.943   5.751
 3668TIP3    H110968   1.710   2.951   5.837
 3668TIP3    H210969   1.614   3.022   5.744
 3669TIP3   OH210970   2.627   5.145   4.491
 3669TIP3    H110971   2.603   5.128   4.400
 3669TIP3    H210972   2.677   5.068   4.517
 3670TIP3   OH210973   0.233   2.384   4.896
 3670TIP3    H110974   0.179   2.357   4.822
 3670TIP3    H210975   0.236   2.480   4.890
 3671TIP3   OH210976   1.286   6.012   0.459
 3671TIP3    H110977   1.277   5.948   0.388
 3671TIP3    H210978   1.376   6.043   0.452
 3672TIP3   OH210979   7.113   2.094   4.372
 3672TIP3    H110980   7.073   2.112   4.287
 3672TIP3    H210981   7.110   2.178   4.418
 3673TIP3   OH210982   0.652   3.301   3.733
 3673TIP3    H110983   0.674   3.388   3.700
 3673TIP3    H210984   0.727   3.276   3.787
 3674TIP3   OH210985   6.871   0.794   2.252
 3674TIP3    H110986   6.797   0.735   2.241
 3674TIP3    H210987   6.913   0.765   2.333
 3675TIP3   OH210988   4.476   6.253   0.933
 3675TIP3    H110989   4.567   6.227   0.950
 3675TIP3    H210990   4.439   6.268   1.020
 3676TIP3   OH210991   2.199   5.431   1.621
 3676TIP3    H110992   2.163   5.463   1.538
 3676TIP3    H210993   2.193   5.507   1.680
 3677TIP3   OH210994   2.914   5.890   2.125
 3677TIP3    H110995   2.926   5.900   2.220
 3677TIP3    H210996   2.887   5.976   2.095
 3678TIP3   OH210997   5.490   0.151   3.152
 3678TIP3    H110998   5.453   0.144   3.240
 3678TIP3    H210999   5.416   0.181   3.098
 3679TIP3   OH211000   6.325   2.319   1.609
 3679TIP3    H111001   6.333   2.332   1.703
 3679TIP3    H211002   6.263   2.386   1.581
 3680TIP3   OH211003   1.800   2.496   0.918
 3680TIP3    H111004   1.731   2.541   0.965
 3680TIP3    H211005   1.808   2.544   0.835
 3681TIP3   OH211006   4.714   3.171   0.629
 3681TIP3    H111007   4.632   3.217   0.611
 3681TIP3    H211008   4.782   3.229   0.597
 3682TIP3   OH211009   5.112   6.656   5.198
 3682TIP3    H111010   5.100   6.749   5.178
 3682TIP3    H211011   5.204   6.639   5.179
 3683TIP3   OH211012   6.398   2.555   2.364
 3683TIP3    H111013   6.352   2.478   2.397
 3683TIP3    H211014   6.489   2.542   2.390
 3684TIP3   OH211015   5.548   0.842   5.347
 3684TIP3    H111016   5.639   0.870   5.338
 3684TIP3    H211017   5.522   0.815   5.258
 3685TIP3   OH211018   7.083   2.802   2.026
 3685TIP3    H111019   7.146   2.764   2.088
 3685TIP3    H211020   7.017   2.842   2.082
 3686TIP3   OH211021   6.951   3.972   3.570
 3686TIP3    H111022   7.017   3.909   3.603
 3686TIP3    H211023   6.867   3.932   3.593
 3687TIP3   OH211024   6.103   0.934   3.386
 3687TIP3    H111025   6.126   1.027   3.397
 3687TIP3    H211026   6.122   0.895   3.471
 3688TIP3   OH211027   3.282   3.007   0.651
 3688TIP3    H111028   3.309   2.976   0.564
 3688TIP3    H211029   3.259   2.927   0.699
 3689TIP3   OH211030   0.697   0.796   1.586
 3689TIP3    H111031   0.701   0.713   1.537
 3689TIP3    H211032   0.686   0.863   1.518
 3690TIP3   OH211033   6.172   3.324   1.665
 3690TIP3    H111034   6.171   3.414   1.699
 3690TIP3    H211035   6.104   3.323   1.597
 3691TIP3   OH211036   5.707   3.055   4.814
 3691TIP3    H111037   5.728   2.966   4.842
 3691TIP3    H211038   5.771   3.075   4.746
 3692TIP3   OH211039   1.966   2.963   5.112
 3692TIP3    H111040   1.872   2.983   5.112
 3692TIP3    H211041   1.971   2.868   5.124
 3693TIP3   OH211042   6.386   4.373   4.382
 3693TIP3    H111043   6.459   4.416   4.337
 3693TIP3    H211044   6.414   4.281   4.389
 3694TIP3   OH211045   5.725   2.308   0.584
 3694TIP3    H111046   5.817   2.327   0.606
 3694TIP3    H211047   5.727   2.221   0.546
 3695TIP3   OH211048   3.982   0.766   4.600
 3695TIP3    H111049   3.960   0.783   4.691
 3695TIP3    H211050   3.942   0.682   4.580
 3696TIP3   OH211051   3.878   1.771   3.959
 3696TIP3    H111052   3.889   1.688   4.006
 3696TIP3    H211053   3.965   1.811   3.962
 3697TIP3   OH211054   2.230   5.674   2.415
 3697TIP3    H111055   2.281   5.754   2.417
 3697TIP3    H211056   2.142   5.702   2.389
 3698TIP3   OH211057   0.496   4.534   4.659
 3698TIP3    H111058   0.459   4.447   4.648
 3698TIP3    H211059   0.561   4.543   4.589
 3699TIP3   OH211060   6.025   5.291   4.700
 3699TIP3    H111061   6.006   5.213   4.648
 3699TIP3    H211062   6.105   5.326   4.661
 3700TIP3   OH211063   7.021   3.763   0.223
 3700TIP3    H111064   7.049   3.742   0.134
 3700TIP3    H211065   7.066   3.700   0.279
 3701TIP3   OH211066   0.357   6.415   2.407
 3701TIP3    H111067   0.430   6.354   2.400
 3701TIP3    H211068   0.325   6.405   2.497
 3702TIP3   OH211069   6.770   4.926   1.209
 3702TIP3    H111070   6.778   5.021   1.218
 3702TIP3    H211071   6.694   4.914   1.151
 3703TIP3   OH211072   6.684   2.331   0.537
 3703TIP3    H111073   6.704   2.374   0.620
 3703TIP3    H211074   6.615   2.269   0.558
 3704TIP3   OH211075   2.147   1.629   3.346
 3704TIP3    H111076   2.213   1.582   3.295
 3704TIP3    H211077   2.147   1.585   3.431
 3705TIP3   OH211078   2.728   5.207   3.700
 3705TIP3    H111079   2.736   5.112   3.710
 3705TIP3    H211080   2.819   5.239   3.700
 3706TIP3   OH211081   2.704   2.644   0.701
 3706TIP3    H111082   2.749   2.603   0.627
 3706TIP3    H211083   2.614   2.612   0.695
 3707TIP3   OH211084   3.199   1.424   0.962
 3707TIP3    H111085   3.162   1.511   0.972
 3707TIP3    H211086   3.127   1.364   0.983
 3708TIP3   OH211087   0.251   1.275   5.422
 3708TIP3    H111088   0.328   1.262   5.479
 3708TIP3    H211089   0.287   1.282   5.334
 3709TIP3   OH211090   0.817   4.017   5.529
 3709TIP3    H111091   0.844   3.925   5.518
 3709TIP3    H211092   0.874   4.050   5.598
 3710TIP3   OH211093   2.251   1.738   1.166
 3710TIP3    H111094   2.297   1.716   1.085
 3710TIP3    H211095   2.160   1.712   1.150
 3711TIP3   OH211096   5.910   6.432   4.897
 3711TIP3    H111097   5.966   6.509   4.884
 3711TIP3    H211098   5.970   6.363   4.926
 3712TIP3   OH211099   4.887   4.907   5.328
 3712TIP3    H111100   4.871   4.813   5.318
 3712TIP3    H211101   4.981   4.917   5.317
 3713TIP3   OH211102   6.142   4.692   2.656
 3713TIP3    H111103   6.115   4.683   2.565
 3713TIP3    H211104   6.060   4.696   2.706
 3714TIP3   OH211105   4.374   2.490   2.378
 3714TIP3    H111106   4.400   2.541   2.301
 3714TIP3    H211107   4.369   2.554   2.449
 3715TIP3   OH211108   4.903   3.204   2.227
 3715TIP3    H111109   4.912   3.140   2.156
 3715TIP3    H211110   4.873   3.284   2.183
 3716TIP3   OH211111   3.724   3.906   2.144
 3716TIP3    H111112   3.689   3.844   2.207
 3716TIP3    H211113   3.652   3.967   2.127
 3717TIP3   OH211114   1.972   2.133   4.983
 3717TIP3    H111115   2.029   2.210   4.985
 3717TIP3    H211116   1.895   2.160   4.933
 3718TIP3   OH211117   1.477   3.110   4.084
 3718TIP3    H111118   1.412   3.164   4.129
 3718TIP3    H211119   1.536   3.081   4.154
 3719TIP3   OH211120   5.250   3.922   3.454
 3719TIP3    H111121   5.183   3.869   3.497
 3719TIP3    H211122   5.315   3.940   3.522
 3720TIP3   OH211123   2.186   2.766   4.959
 3720TIP3    H111124   2.173   2.683   5.005
 3720TIP3    H211125   2.280   2.783   4.967
 3721TIP3   OH211126   7.117   1.005   3.679
 3721TIP3    H111127   7.201   1.001   3.726
 3721TIP3    H211128   7.077   0.920   3.694
 3722TIP3   OH211129   5.615   0.820   1.429
 3722TIP3    H111130   5.534   0.811   1.379
 3722TIP3    H211131   5.685   0.808   1.364
 3723TIP3   OH211132   1.110   1.512   1.672
 3723TIP3    H111133   1.167   1.442   1.640
 3723TIP3    H211134   1.105   1.574   1.598
 3724TIP3   OH211135   0.659   0.425   4.217
 3724TIP3    H111136   0.623   0.338   4.201
 3724TIP3    H211137   0.660   0.467   4.131
 3725TIP3   OH211138   5.186   0.945   5.541
 3725TIP3    H111139   5.259   0.997   5.575
 3725TIP3    H211140   5.214   0.854   5.553
 3726TIP3   OH211141   1.483   2.566   1.605
 3726TIP3    H111142   1.486   2.654   1.641
 3726TIP3    H211143   1.404   2.565   1.551
 3727TIP3   OH211144   1.351   3.316  -0.008
 3727TIP3    H111145   1.310   3.248  -0.061
 3727TIP3    H211146   1.364   3.276   0.078
 3728TIP3   OH211147   4.856   4.384   4.883
 3728TIP3    H111148   4.842   4.395   4.977
 3728TIP3    H211149   4.791   4.441   4.843
 3729TIP3   OH211150   4.589   3.364   3.721
 3729TIP3    H111151   4.643   3.439   3.697
 3729TIP3    H211152   4.524   3.358   3.651
 3730TIP3   OH211153   5.985   3.642   1.918
 3730TIP3    H111154   5.982   3.546   1.920
 3730TIP3    H211155   5.925   3.666   1.847
 3731TIP3   OH211156   6.002   4.704   0.912
 3731TIP3    H111157   6.039   4.640   0.972
 3731TIP3    H211158   5.982   4.655   0.833
 3732TIP3   OH211159   3.262   5.189   4.637
 3732TIP3    H111160   3.286   5.113   4.585
 3732TIP3    H211161   3.172   5.171   4.666
 3733TIP3   OH211162   5.087   3.810   4.655
 3733TIP3    H111163   5.174   3.835   4.626
 3733TIP3    H211164   5.076   3.720   4.624
 3734TIP3   OH211165   4.169   5.178   5.179
 3734TIP3    H111166   4.224   5.218   5.246
 3734TIP3    H211167   4.085   5.165   5.222
 3735TIP3   OH211168   3.404   1.540   1.269
 3735TIP3    H111169   3.382   1.619   1.220
 3735TIP3    H211170   3.457   1.571   1.342
 3736TIP3   OH211171   1.248   5.201   4.675
 3736TIP3    H111172   1.237   5.294   4.655
 3736TIP3    H211173   1.315   5.199   4.744
 3737TIP3   OH211174   4.225   1.833   2.911
 3737TIP3    H111175   4.299   1.820   2.851
 3737TIP3    H211176   4.237   1.922   2.944
 3738TIP3   OH211177   2.709   2.364   4.644
 3738TIP3    H111178   2.615   2.370   4.628
 3738TIP3    H211179   2.739   2.455   4.643
 3739TIP3   OH211180   5.738   4.705   5.075
 3739TIP3    H111181   5.668   4.709   5.010
 3739TIP3    H211182   5.817   4.731   5.027
 3740TIP3   OH211183   5.649   3.397   0.897
 3740TIP3    H111184   5.728   3.433   0.856
 3740TIP3    H211185   5.578   3.449   0.859
 3741TIP3   OH211186   5.088   0.331   4.946
 3741TIP3    H111187   5.169   0.350   4.898
 3741TIP3    H211188   5.029   0.402   4.922
 3742TIP3   OH211189   4.403   6.184   3.127
 3742TIP3    H111190   4.369   6.268   3.095
 3742TIP3    H211191   4.498   6.193   3.120
 3743TIP3   OH211192   3.724   3.010   3.215
 3743TIP3    H111193   3.631   3.008   3.192
 3743TIP3    H211194   3.764   3.064   3.147
 3744TIP3   OH211195   3.453   6.203   2.472
 3744TIP3    H111196   3.406   6.278   2.436
 3744TIP3    H211197   3.384   6.149   2.512
 3745TIP3   OH211198   2.818   4.027   3.078
 3745TIP3    H111199   2.884   4.041   3.010
 3745TIP3    H211200   2.748   3.980   3.034
 3746TIP3   OH211201   1.856   5.745   4.459
 3746TIP3    H111202   1.820   5.722   4.544
 3746TIP3    H211203   1.817   5.682   4.398
 3747TIP3   OH211204   3.955   3.242   5.096
 3747TIP3    H111205   3.886   3.241   5.163
 3747TIP3    H211206   3.997   3.328   5.107
 3748TIP3   OH211207   6.198   5.042   4.356
 3748TIP3    H111208   6.150   4.983   4.297
 3748TIP3    H211209   6.172   5.130   4.327
 3749TIP3   OH211210   6.730   5.455   4.697
 3749TIP3    H111211   6.663   5.451   4.628
 3749TIP3    H211212   6.684   5.490   4.773
 3750TIP3   OH211213   5.719   3.283   1.670
 3750TIP3    H111214   5.624   3.267   1.666
 3750TIP3    H211215   5.745   3.246   1.754
 3751TIP3   OH211216   5.546   1.721   0.671
 3751TIP3    H111217   5.490   1.644   0.672
 3751TIP3    H211218   5.487   1.795   0.657
 3752TIP3   OH211219   6.390   0.596   2.868
 3752TIP3    H111220   6.382   0.525   2.932
 3752TIP3    H211221   6.300   0.617   2.845
 3753TIP3   OH211222   6.158   5.992   3.704
 3753TIP3    H111223   6.101   6.002   3.627
 3753TIP3    H211224   6.156   5.899   3.722
 3754TIP3   OH211225   2.764   2.125   0.760
 3754TIP3    H111226   2.727   2.212   0.744
 3754TIP3    H211227   2.692   2.075   0.798
 3755TIP3   OH211228   4.904   3.141   5.671
 3755TIP3    H111229   4.875   3.220   5.716
 3755TIP3    H211230   4.973   3.106   5.727
 3756TIP3   OH211231   5.154   4.480   0.184
 3756TIP3    H111232   5.188   4.504   0.098
 3756TIP3    H211233   5.219   4.513   0.246
 3757TIP3   OH211234   6.038   5.685   4.789
 3757TIP3    H111235   6.037   5.709   4.697
 3757TIP3    H211236   6.028   5.768   4.836
 3758TIP3   OH211237   7.099   2.150   0.024
 3758TIP3    H111238   7.150   2.171  -0.054
 3758TIP3    H211239   7.125   2.061   0.047
 3759TIP3   OH211240   6.230   4.739   0.670
 3759TIP3    H111241   6.215   4.828   0.640
 3759TIP3    H211242   6.324   4.736   0.688
 3760TIP3   OH211243   2.556   2.432   4.165
 3760TIP3    H111244   2.600   2.349   4.184
 3760TIP3    H211245   2.584   2.490   4.235
 3761TIP3   OH211246   0.643   3.920   1.816
 3761TIP3    H111247   0.719   3.971   1.845
 3761TIP3    H211248   0.673   3.829   1.815
 3762TIP3   OH211249   0.374   3.327   2.490
 3762TIP3    H111250   0.444   3.385   2.460
 3762TIP3    H211251   0.297   3.384   2.496
 3763TIP3   OH211252   3.870   2.798   2.854
 3763TIP3    H111253   3.833   2.802   2.942
 3763TIP3    H211254   3.807   2.844   2.799
 3764TIP3   OH211255   0.761   4.634   1.252
 3764TIP3    H111256   0.728   4.659   1.338
 3764TIP3    H211257   0.834   4.575   1.270
 3765TIP3   OH211258   7.137   2.781   5.558
 3765TIP3    H111259   7.076   2.838   5.604
 3765TIP3    H211260   7.153   2.708   5.618
 3766TIP3   OH211261   4.331   2.804   1.443
 3766TIP3    H111262   4.357   2.834   1.530
 3766TIP3    H211263   4.276   2.875   1.408
 3767TIP3   OH211264   5.965   0.325   3.885
 3767TIP3    H111265   5.941   0.372   3.806
 3767TIP3    H211266   6.047   0.281   3.863
 3768TIP3   OH211267   2.133   4.367   0.061
 3768TIP3    H111268   2.070   4.334   0.125
 3768TIP3    H211269   2.104   4.332  -0.023
 3769TIP3   OH211270   1.704   1.913   4.241
 3769TIP3    H111271   1.625   1.930   4.292
 3769TIP3    H211272   1.680   1.840   4.184
 3770TIP3   OH211273   1.620   5.336   5.340
 3770TIP3    H111274   1.676   5.259   5.340
 3770TIP3    H211275   1.680   5.409   5.325
 3771TIP3   OH211276   2.329   0.382   0.727
 3771TIP3    H111277   2.279   0.358   0.805
 3771TIP3    H211278   2.270   0.439   0.677
 3772TIP3   OH211279   3.957   2.937   0.813
 3772TIP3    H111280   3.869   2.902   0.801
 3772TIP3    H211281   3.948   2.999   0.885
 3773TIP3   OH211282   4.834   6.763   5.814
 3773TIP3    H111283   4.853   6.847   5.773
 3773TIP3    H211284   4.893   6.759   5.890
 3774TIP3   OH211285   4.663   4.685   1.345
 3774TIP3    H111286   4.653   4.595   1.375
 3774TIP3    H211287   4.615   4.689   1.262
 3775TIP3   OH211288   1.254   5.430   4.511
 3775TIP3    H111289   1.172   5.427   4.462
 3775TIP3    H211290   1.322   5.431   4.444
 3776TIP3   OH211291   5.108   0.618   4.935
 3776TIP3    H111292   5.178   0.634   4.871
 3776TIP3    H211293   5.084   0.706   4.966
 3777TIP3   OH211294   3.877   3.767   1.252
 3777TIP3    H111295   3.923   3.851   1.259
 3777TIP3    H211296   3.805   3.784   1.191
 3778TIP3   OH211297   5.980   4.548   4.784
 3778TIP3    H111298   5.976   4.573   4.692
 3778TIP3    H211299   5.990   4.631   4.831
 3779TIP3   OH211300   5.253   4.824   1.524
 3779TIP3    H111301   5.283   4.910   1.554
 3779TIP3    H211302   5.304   4.762   1.577
 3780TIP3   OH211303   4.771   0.758   4.815
 3780TIP3    H111304   4.751   0.669   4.784
 3780TIP3    H211305   4.685   0.795   4.836
 3781TIP3   OH211306   0.844   2.287   2.789
 3781TIP3    H111307   0.830   2.369   2.838
 3781TIP3    H211308   0.876   2.225   2.854
 3782TIP3   OH211309   0.630   6.434   4.334
 3782TIP3    H111310   0.554   6.403   4.384
 3782TIP3    H211311   0.705   6.409   4.388
 3783TIP3   OH211312   3.992   5.995   5.339
 3783TIP3    H111313   3.981   6.081   5.297
 3783TIP3    H211314   4.079   5.998   5.377
 3784TIP3   OH211315   2.922   5.310   2.423
 3784TIP3    H111316   3.003   5.269   2.395
 3784TIP3    H211317   2.898   5.368   2.351
 3785TIP3   OH211318   0.099   6.535   3.272
 3785TIP3    H111319   0.041   6.503   3.203
 3785TIP3    H211320   0.165   6.466   3.282
 3786TIP3   OH211321   3.748   5.485   1.136
 3786TIP3    H111322   3.822   5.461   1.191
 3786TIP3    H211323   3.702   5.553   1.186
 3787TIP3   OH211324   1.496   0.071   4.257
 3787TIP3    H111325   1.542   0.113   4.329
 3787TIP3    H211326   1.549   0.091   4.180
 3788TIP3   OH211327   4.763   5.060   5.824
 3788TIP3    H111328   4.683   5.112   5.817
 3788TIP3    H211329   4.733   4.969   5.815
 3789TIP3   OH211330   1.236   2.882   5.387
 3789TIP3    H111331   1.222   2.821   5.315
 3789TIP3    H211332   1.289   2.952   5.348
 3790TIP3   OH211333   1.571   6.259   5.022
 3790TIP3    H111334   1.618   6.202   5.083
 3790TIP3    H211335   1.501   6.203   4.987
 3791TIP3   OH211336   2.576   5.658   2.257
 3791TIP3    H111337   2.571   5.655   2.161
 3791TIP3    H211338   2.593   5.750   2.278
 3792TIP3   OH211339   4.616   0.276   3.666
 3792TIP3    H111340   4.591   0.320   3.585
 3792TIP3    H211341   4.711   0.268   3.661
 3793TIP3   OH211342   4.429   4.926   5.754
 3793TIP3    H111343   4.395   4.913   5.666
 3793TIP3    H211344   4.493   4.856   5.766
 3794TIP3   OH211345   5.255   0.602   0.826
 3794TIP3    H111346   5.167   0.637   0.834
 3794TIP3    H211347   5.243   0.507   0.829
 3795TIP3   OH211348   4.589  -0.009   5.868
 3795TIP3    H111349   4.642   0.012   5.791
 3795TIP3    H211350   4.541   0.072   5.887
 3796TIP3   OH211351   4.384   0.407   1.729
 3796TIP3    H111352   4.410   0.431   1.640
 3796TIP3    H211353   4.304   0.457   1.745
 3797TIP3   OH211354   1.001   3.081   5.877
 3797TIP3    H111355   0.998   2.985   5.875
 3797TIP3    H211356   1.089   3.103   5.846
 3798TIP3   OH211357   0.490   2.082   5.292
 3798TIP3    H111358   0.515   2.035   5.371
 3798TIP3    H211359   0.420   2.029   5.254
 3799TIP3   OH211360   2.979   2.755   2.246
 3799TIP3    H111361   2.933   2.673   2.229
 3799TIP3    H211362   2.927   2.821   2.201
 3800TIP3   OH211363   2.563   0.236   2.567
 3800TIP3    H111364   2.584   0.211   2.657
 3800TIP3    H211365   2.511   0.315   2.575
 3801TIP3   OH211366   5.180   6.157   2.850
 3801TIP3    H111367   5.162   6.079   2.902
 3801TIP3    H211368   5.095   6.181   2.813
 3802TIP3   OH211369   5.042   5.206   3.416
 3802TIP3    H111370   5.038   5.282   3.473
 3802TIP3    H211371   4.983   5.227   3.343
 3803TIP3   OH211372   2.145   4.760   0.582
 3803TIP3    H111373   2.240   4.774   0.591
 3803TIP3    H211374   2.109   4.784   0.668
 3804TIP3   OH211375   5.221   2.010   4.210
 3804TIP3    H111376   5.192   2.042   4.296
 3804TIP3    H211377   5.141   2.005   4.158
 3805TIP3   OH211378   6.366   1.363   2.152
 3805TIP3    H111379   6.344   1.389   2.242
 3805TIP3    H211380   6.296   1.303   2.127
 3806TIP3   OH211381   0.152   2.792   1.877
 3806TIP3    H111382   0.120   2.871   1.921
 3806TIP3    H211383   0.099   2.786   1.797
 3807TIP3   OH211384   6.527   0.349   5.822
 3807TIP3    H111385   6.599   0.411   5.836
 3807TIP3    H211386   6.568   0.272   5.783
 3808TIP3   OH211387   5.683   1.171   1.985
 3808TIP3    H111388   5.666   1.087   1.942
 3808TIP3    H211389   5.731   1.222   1.920
 3809TIP3   OH211390   3.385   2.868   4.964
 3809TIP3    H111391   3.455   2.926   4.993
 3809TIP3    H211392   3.331   2.923   4.906
 3810TIP3   OH211393   2.356   4.782   3.975
 3810TIP3    H111394   2.386   4.872   3.985
 3810TIP3    H211395   2.315   4.780   3.888
 3811TIP3   OH211396   2.959   5.360   3.739
 3811TIP3    H111397   2.880   5.406   3.768
 3811TIP3    H211398   2.963   5.376   3.645
 3812TIP3   OH211399   2.914   0.872   2.552
 3812TIP3    H111400   2.978   0.870   2.481
 3812TIP3    H211401   2.843   0.926   2.518
 3813TIP3   OH211402   1.301   2.774   3.576
 3813TIP3    H111403   1.328   2.716   3.647
 3813TIP3    H211404   1.208   2.756   3.565
 3814TIP3   OH211405   5.346   1.569   0.132
 3814TIP3    H111406   5.324   1.603   0.219
 3814TIP3    H211407   5.420   1.623   0.103
 3815TIP3   OH211408   4.249   5.976   3.210
 3815TIP3    H111409   4.309   6.050   3.208
 3815TIP3    H211410   4.181   5.998   3.146
 3816TIP3   OH211411   6.886   3.102   0.116
 3816TIP3    H111412   6.921   3.185   0.086
 3816TIP3    H211413   6.953   3.038   0.094
 3817TIP3   OH211414   6.179   5.464   3.445
 3817TIP3    H111415   6.264   5.466   3.401
 3817TIP3    H211416   6.198   5.435   3.534
 3818TIP3   OH211417   2.814   6.475   0.098
 3818TIP3    H111418   2.813   6.570   0.103
 3818TIP3    H211419   2.843   6.456   0.009
 3819TIP3   OH211420   2.371   6.167   1.191
 3819TIP3    H111421   2.283   6.193   1.165
 3819TIP3    H211422   2.403   6.240   1.243
 3820TIP3   OH211423   3.967   0.085   0.283
 3820TIP3    H111424   3.921   0.169   0.281
 3820TIP3    H211425   4.058   0.108   0.305
 3821TIP3   OH211426   3.358   0.325   2.544
 3821TIP3    H111427   3.396   0.412   2.533
 3821TIP3    H211428   3.423   0.277   2.595
 3822TIP3   OH211429   3.223   5.320   3.430
 3822TIP3    H111430   3.131   5.347   3.430
 3822TIP3    H211431   3.244   5.307   3.337
 3823TIP3   OH211432   2.727   3.073   2.383
 3823TIP3    H111433   2.708   3.157   2.425
 3823TIP3    H211434   2.693   3.007   2.443
 3824TIP3   OH211435   2.346   5.498   3.214
 3824TIP3    H111436   2.412   5.560   3.186
 3824TIP3    H211437   2.378   5.413   3.183
 3825TIP3   OH211438   4.668   2.694   2.426
 3825TIP3    H111439   4.637   2.651   2.506
 3825TIP3    H211440   4.591   2.695   2.369
 3826TIP3   OH211441   3.859   1.437   5.858
 3826TIP3    H111442   3.944   1.479   5.872
 3826TIP3    H211443   3.822   1.482   5.781
 3827TIP3   OH211444   6.176   6.051   1.158
 3827TIP3    H111445   6.261   6.016   1.184
 3827TIP3    H211446   6.176   6.046   1.062
 3828TIP3   OH211447   6.238   1.879   1.117
 3828TIP3    H111448   6.213   1.787   1.109
 3828TIP3    H211449   6.240   1.911   1.027
 3829TIP3   OH211450   0.031   2.226   0.554
 3829TIP3    H111451  -0.044   2.194   0.503
 3829TIP3    H211452   0.037   2.319   0.534
 3830TIP3   OH211453   2.340   6.303   0.021
 3830TIP3    H111454   2.289   6.384   0.020
 3830TIP3    H211455   2.420   6.325  -0.025
 3831TIP3   OH211456   5.222   4.552   5.465
 3831TIP3    H111457   5.203   4.645   5.453
 3831TIP3    H211458   5.179   4.529   5.548
 3832TIP3   OH211459   0.539   3.929   4.868
 3832TIP3    H111460   0.482   3.937   4.944
 3832TIP3    H211461   0.626   3.911   4.904
 3833TIP3   OH211462   3.241   3.410   0.056
 3833TIP3    H111463   3.251   3.315   0.046
 3833TIP3    H211464   3.176   3.420   0.126
 3834TIP3   OH211465   6.788   4.733   0.246
 3834TIP3    H111466   6.764   4.822   0.274
 3834TIP3    H211467   6.705   4.687   0.238
 3835TIP3   OH211468   0.658   1.732   0.383
 3835TIP3    H111469   0.750   1.749   0.367
 3835TIP3    H211470   0.632   1.796   0.449
 3836TIP3   OH211471   5.568   5.139   5.523
 3836TIP3    H111472   5.537   5.137   5.433
 3836TIP3    H211473   5.520   5.212   5.563
 3837TIP3   OH211474   7.165   5.330   5.728
 3837TIP3    H111475   7.199   5.272   5.796
 3837TIP3    H211476   7.183   5.419   5.761
 3838TIP3   OH211477   4.304   3.801   3.255
 3838TIP3    H111478   4.330   3.866   3.190
 3838TIP3    H211479   4.218   3.771   3.226
 3839TIP3   OH211480   0.215   5.015   3.469
 3839TIP3    H111481   0.287   5.064   3.508
 3839TIP3    H211482   0.162   5.081   3.424
 3840TIP3   OH211483   7.059   0.859   1.196
 3840TIP3    H111484   7.061   0.806   1.116
 3840TIP3    H211485   7.117   0.932   1.179
 3841TIP3   OH211486   2.534   1.425   5.618
 3841TIP3    H111487   2.469   1.360   5.590
 3841TIP3    H211488   2.603   1.373   5.660
 3842TIP3   OH211489   6.812   4.032   5.486
 3842TIP3    H111490   6.839   3.956   5.537
 3842TIP3    H211491   6.767   4.088   5.549
 3843TIP3   OH211492   3.635   2.981   1.904
 3843TIP3    H111493   3.571   2.977   1.832
 3843TIP3    H211494   3.648   3.075   1.918
 3844TIP3   OH211495   0.762   5.156   4.048
 3844TIP3    H111496   0.671   5.183   4.034
 3844TIP3    H211497   0.813   5.217   3.995
 3845TIP3   OH211498   5.845   2.663   4.431
 3845TIP3    H111499   5.780   2.683   4.498
 3845TIP3    H211500   5.809   2.588   4.384
 3846TIP3   OH211501   0.325   1.592   5.520
 3846TIP3    H111502   0.296   1.633   5.439
 3846TIP3    H211503   0.410   1.553   5.499
 3847TIP3   OH211504   2.672   5.834   5.240
 3847TIP3    H111505   2.652   5.883   5.160
 3847TIP3    H211506   2.670   5.900   5.309
 3848TIP3   OH211507   4.960   3.620   2.808
 3848TIP3    H111508   4.991   3.697   2.856
 3848TIP3    H211509   5.036   3.593   2.756
 3849TIP3   OH211510   0.725   0.549   3.362
 3849TIP3    H111511   0.726   0.480   3.297
 3849TIP3    H211512   0.695   0.627   3.315
 3850TIP3   OH211513   3.646   6.281   1.960
 3850TIP3    H111514   3.648   6.336   2.038
 3850TIP3    H211515   3.555   6.253   1.952
 3851TIP3   OH211516   6.205   6.616   3.795
 3851TIP3    H111517   6.268   6.544   3.801
 3851TIP3    H211518   6.255   6.688   3.756
 3852TIP3   OH211519   4.388   1.518   1.911
 3852TIP3    H111520   4.375   1.480   1.824
 3852TIP3    H211521   4.403   1.442   1.968
 3853TIP3   OH211522   1.299   4.619   0.861
 3853TIP3    H111523   1.331   4.622   0.951
 3853TIP3    H211524   1.319   4.705   0.825
 3854TIP3   OH211525   6.828   3.221   0.820
 3854TIP3    H111526   6.736   3.216   0.794
 3854TIP3    H211527   6.869   3.146   0.776
 3855TIP3   OH211528   6.648   6.454   0.247
 3855TIP3    H111529   6.564   6.452   0.294
 3855TIP3    H211530   6.649   6.373   0.196
 3856TIP3   OH211531   3.843   0.676   0.243
 3856TIP3    H111532   3.853   0.632   0.327
 3856TIP3    H211533   3.864   0.768   0.262
 3857TIP3   OH211534   0.999   0.293   3.971
 3857TIP3    H111535   1.038   0.377   3.949
 3857TIP3    H211536   0.970   0.304   4.062
 3858TIP3   OH211537   1.054   1.902   2.890
 3858TIP3    H111538   1.140   1.887   2.852
 3858TIP3    H211539   1.034   1.822   2.938
 3859TIP3   OH211540   4.793   3.348   5.821
 3859TIP3    H111541   4.870   3.363   5.875
 3859TIP3    H211542   4.768   3.435   5.790
 3860TIP3   OH211543   3.738   4.507   3.429
 3860TIP3    H111544   3.670   4.538   3.371
 3860TIP3    H211545   3.692   4.483   3.510
 3861TIP3   OH211546   0.703   1.835   4.536
 3861TIP3    H111547   0.668   1.854   4.623
 3861TIP3    H211548   0.640   1.875   4.476
 3862TIP3   OH211549   0.133   4.150   4.466
 3862TIP3    H111550   0.143   4.239   4.433
 3862TIP3    H211551   0.159   4.094   4.393
 3863TIP3   OH211552   3.488   3.078   0.106
 3863TIP3    H111553   3.518   3.168   0.111
 3863TIP3    H211554   3.393   3.085   0.098
 3864TIP3   OH211555   6.766   4.243   4.573
 3864TIP3    H111556   6.848   4.254   4.621
 3864TIP3    H211557   6.699   4.275   4.634
 3865TIP3   OH211558   7.089   2.450   3.107
 3865TIP3    H111559   7.043   2.442   3.023
 3865TIP3    H211560   7.136   2.367   3.116
 3866TIP3   OH211561   5.671   3.099   3.073
 3866TIP3    H111562   5.631   3.042   3.008
 3866TIP3    H211563   5.725   3.159   3.022
 3867TIP3   OH211564   5.911   6.191   0.414
 3867TIP3    H111565   5.844   6.158   0.473
 3867TIP3    H211566   5.990   6.144   0.439
 3868TIP3   OH211567   5.131   4.369   5.061
 3868TIP3    H111568   5.057   4.430   5.071
 3868TIP3    H211569   5.203   4.410   5.109
 3869TIP3   OH211570   1.059   3.018   5.562
 3869TIP3    H111571   1.124   2.960   5.523
 3869TIP3    H211572   1.088   3.029   5.653
 3870TIP3   OH211573   1.714   2.959   1.976
 3870TIP3    H111574   1.676   3.023   2.037
 3870TIP3    H211575   1.728   3.009   1.895
 3871TIP3   OH211576   5.088   2.255   0.802
 3871TIP3    H111577   5.146   2.295   0.738
 3871TIP3    H211578   5.145   2.234   0.876
 3872TIP3   OH211579   5.850   0.847   0.783
 3872TIP3    H111580   5.897   0.919   0.826
 3872TIP3    H211581   5.764   0.846   0.824
 3873TIP3   OH211582   5.344   1.869   4.015
 3873TIP3    H111583   5.327   1.935   4.081
 3873TIP3    H211584   5.280   1.800   4.033
 3874TIP3   OH211585   0.590   2.253   3.098
 3874TIP3    H111586   0.566   2.340   3.130
 3874TIP3    H211587   0.672   2.266   3.051
 3875TIP3   OH211588   1.414   4.749   3.991
 3875TIP3    H111589   1.388   4.841   3.988
 3875TIP3    H211590   1.352   4.708   4.051
 3876TIP3   OH211591   0.486   5.444   2.596
 3876TIP3    H111592   0.427   5.415   2.526
 3876TIP3    H211593   0.428   5.476   2.665
 3877TIP3   OH211594   2.189   6.214   2.893
 3877TIP3    H111595   2.272   6.258   2.908
 3877TIP3    H211596   2.126   6.262   2.947
 3878TIP3   OH211597   2.739   0.835   2.945
 3878TIP3    H111598   2.761   0.922   2.910
 3878TIP3    H211599   2.819   0.784   2.936
 3879TIP3   OH211600   5.909   0.666   0.227
 3879TIP3    H111601   5.934   0.731   0.161
 3879TIP3    H211602   5.872   0.717   0.299
 3880TIP3   OH211603   6.038   4.260   0.599
 3880TIP3    H111604   6.108   4.208   0.640
 3880TIP3    H211605   6.050   4.246   0.505
 3881TIP3   OH211606   1.415   1.022   4.246
 3881TIP3    H111607   1.369   1.098   4.283
 3881TIP3    H211608   1.460   1.057   4.169
 3882TIP3   OH211609   4.191   2.080   4.975
 3882TIP3    H111610   4.279   2.091   4.939
 3882TIP3    H211611   4.132   2.114   4.907
 3883TIP3   OH211612   6.308   6.430   0.606
 3883TIP3    H111613   6.385   6.486   0.595
 3883TIP3    H211614   6.343   6.346   0.635
 3884TIP3   OH211615   5.115   1.256   2.885
 3884TIP3    H111616   5.138   1.335   2.934
 3884TIP3    H211617   5.081   1.196   2.951
 3885TIP3   OH211618   1.069   5.934   3.535
 3885TIP3    H111619   1.046   5.963   3.623
 3885TIP3    H211620   1.155   5.894   3.544
 3886TIP3   OH211621   5.507   0.418   0.567
 3886TIP3    H111622   5.422   0.435   0.525
 3886TIP3    H211623   5.548   0.504   0.572
 3887TIP3   OH211624   3.434   4.438   4.530
 3887TIP3    H111625   3.479   4.520   4.552
 3887TIP3    H211626   3.341   4.461   4.533
 3888TIP3   OH211627   3.061   4.821   2.241
 3888TIP3    H111628   3.153   4.797   2.242
 3888TIP3    H211629   3.032   4.802   2.152
 3889TIP3   OH211630   1.580   1.023   3.726
 3889TIP3    H111631   1.675   1.027   3.722
 3889TIP3    H211632   1.555   0.961   3.658
 3890TIP3   OH211633   1.252   0.835   5.875
 3890TIP3    H111634   1.242   0.875   5.788
 3890TIP3    H211635   1.344   0.848   5.896
 3891TIP3   OH211636   2.746   5.951   3.831
 3891TIP3    H111637   2.711   5.922   3.747
 3891TIP3    H211638   2.831   5.907   3.838
 3892TIP3   OH211639   2.373   0.547   0.973
 3892TIP3    H111640   2.456   0.592   0.985
 3892TIP3    H211641   2.363   0.540   0.878
 3893TIP3   OH211642   3.141  -0.003   2.316
 3893TIP3    H111643   3.052  -0.036   2.312
 3893TIP3    H211644   3.132   0.089   2.342
 3894TIP3   OH211645   2.631   4.804   3.290
 3894TIP3    H111646   2.611   4.869   3.223
 3894TIP3    H211647   2.582   4.726   3.263
 3895TIP3   OH211648   5.543   0.414   4.023
 3895TIP3    H111649   5.516   0.325   4.001
 3895TIP3    H211650   5.610   0.404   4.089
 3896TIP3   OH211651   4.229   0.228   5.463
 3896TIP3    H111652   4.158   0.284   5.496
 3896TIP3    H211653   4.269   0.192   5.542
 3897TIP3   OH211654   0.158   5.531   4.940
 3897TIP3    H111655   0.115   5.557   4.859
 3897TIP3    H211656   0.233   5.479   4.913
 3898TIP3   OH211657   5.445   5.438   4.055
 3898TIP3    H111658   5.506   5.503   4.020
 3898TIP3    H211659   5.491   5.355   4.048
 3899TIP3   OH211660   6.203   0.617   0.241
 3899TIP3    H111661   6.116   0.613   0.282
 3899TIP3    H211662   6.219   0.710   0.229
 3900TIP3   OH211663   5.849   2.416   5.548
 3900TIP3    H111664   5.894   2.470   5.612
 3900TIP3    H211665   5.757   2.441   5.555
 3901TIP3   OH211666   0.636   2.114   2.176
 3901TIP3    H111667   0.567   2.181   2.174
 3901TIP3    H211668   0.700   2.148   2.238
 3902TIP3   OH211669   4.356   5.697   5.520
 3902TIP3    H111670   4.391   5.782   5.545
 3902TIP3    H211671   4.349   5.648   5.602
 3903TIP3   OH211672   1.237   4.084   3.060
 3903TIP3    H111673   1.319   4.045   3.030
 3903TIP3    H211674   1.236   4.171   3.021
 3904TIP3   OH211675   0.490   2.672   4.163
 3904TIP3    H111676   0.448   2.694   4.246
 3904TIP3    H211677   0.447   2.590   4.136
 3905TIP3   OH211678   3.269   2.239   3.652
 3905TIP3    H111679   3.241   2.322   3.691
 3905TIP3    H211680   3.229   2.239   3.565
 3906TIP3   OH211681   2.621   1.313   0.158
 3906TIP3    H111682   2.525   1.315   0.153
 3906TIP3    H211683   2.639   1.246   0.225
 3907TIP3   OH211684   0.024   0.203   2.521
 3907TIP3    H111685   0.042   0.114   2.491
 3907TIP3    H211686  -0.019   0.245   2.447
 3908TIP3   OH211687   2.879   4.607   4.909
 3908TIP3    H111688   2.802   4.552   4.923
 3908TIP3    H211689   2.928   4.563   4.840
 3909TIP3   OH211690   1.674   4.982   0.849
 3909TIP3    H111691   1.703   5.061   0.895
 3909TIP3    H211692   1.685   4.911   0.913
 3910TIP3   OH211693   3.156   1.886   2.139
 3910TIP3    H111694   3.186   1.795   2.141
 3910TIP3    H211695   3.077   1.886   2.193
 3911TIP3   OH211696   0.022   4.359   3.743
 3911TIP3    H111697  -0.033   4.401   3.809
 3911TIP3    H211698   0.069   4.431   3.701
 3912TIP3   OH211699   6.266   6.609   2.768
 3912TIP3    H111700   6.320   6.531   2.779
 3912TIP3    H211701   6.224   6.598   2.683
 3913TIP3   OH211702   1.518   6.135   0.401
 3913TIP3    H111703   1.606   6.098   0.397
 3913TIP3    H211704   1.489   6.137   0.310
 3914TIP3   OH211705   3.628   0.371   0.838
 3914TIP3    H111706   3.569   0.434   0.796
 3914TIP3    H211707   3.706   0.422   0.859
 3915TIP3   OH211708   0.846   1.824   1.689
 3915TIP3    H111709   0.824   1.860   1.775
 3915TIP3    H211710   0.784   1.752   1.677
 3916TIP3   OH211711   3.774   1.513   0.473
 3916TIP3    H111712   3.682   1.529   0.495
 3916TIP3    H211713   3.823   1.577   0.525
 3917TIP3   OH211714   2.069   0.803   3.942
 3917TIP3    H111715   2.040   0.894   3.949
 3917TIP3    H211716   2.019   0.757   4.009
 3918TIP3   OH211717   0.051   6.741   4.997
 3918TIP3    H111718   0.007   6.778   5.074
 3918TIP3    H211719   0.128   6.698   5.033
 3919TIP3   OH211720   3.762   2.100   2.778
 3919TIP3    H111721   3.820   2.085   2.853
 3919TIP3    H211722   3.709   2.175   2.803
 3920TIP3   OH211723   0.504   0.214   5.060
 3920TIP3    H111724   0.451   0.139   5.032
 3920TIP3    H211725   0.525   0.260   4.979
 3921TIP3   OH211726   3.446   2.531   1.126
 3921TIP3    H111727   3.513   2.463   1.122
 3921TIP3    H211728   3.422   2.537   1.218
 3922TIP3   OH211729   1.817   2.648   0.319
 3922TIP3    H111730   1.769   2.731   0.315
 3922TIP3    H211731   1.756   2.586   0.359
 3923TIP3   OH211732   3.126   0.312   0.199
 3923TIP3    H111733   3.123   0.401   0.164
 3923TIP3    H211734   3.140   0.256   0.123
 3924TIP3   OH211735   6.600   6.240   0.724
 3924TIP3    H111736   6.641   6.300   0.786
 3924TIP3    H211737   6.659   6.240   0.648
 3925TIP3   OH211738   6.066   6.084   1.733
 3925TIP3    H111739   6.161   6.083   1.735
 3925TIP3    H211740   6.043   6.054   1.645
 3926TIP3   OH211741   3.503   4.015   5.421
 3926TIP3    H111742   3.454   4.000   5.340
 3926TIP3    H211743   3.533   3.928   5.448
 3927TIP3   OH211744   4.306   3.779   0.373
 3927TIP3    H111745   4.391   3.823   0.375
 3927TIP3    H211746   4.255   3.822   0.442
 3928TIP3   OH211747   4.960   4.463   3.012
 3928TIP3    H111748   4.881   4.513   2.992
 3928TIP3    H211749   5.030   4.507   2.963
 3929TIP3   OH211750   3.367   4.816   3.180
 3929TIP3    H111751   3.391   4.796   3.270
 3929TIP3    H211752   3.448   4.800   3.130
 3930TIP3   OH211753   4.131   0.860   2.314
 3930TIP3    H111754   4.151   0.770   2.341
 3930TIP3    H211755   4.049   0.880   2.359
 3931TIP3   OH211756   1.484   5.309   0.105
 3931TIP3    H111757   1.452   5.391   0.141
 3931TIP3    H211758   1.557   5.334   0.048
 3932TIP3   OH211759   6.173   1.299   4.120
 3932TIP3    H111760   6.251   1.278   4.171
 3932TIP3    H211761   6.171   1.233   4.051
 3933TIP3   OH211762   5.490   5.921   3.385
 3933TIP3    H111763   5.535   5.861   3.325
 3933TIP3    H211764   5.421   5.868   3.425
 3934TIP3   OH211765   3.810   4.229   5.720
 3934TIP3    H111766   3.730   4.185   5.749
 3934TIP3    H211767   3.865   4.232   5.798
 3935TIP3   OH211768   5.684   0.422   2.113
 3935TIP3    H111769   5.637   0.367   2.051
 3935TIP3    H211770   5.644   0.509   2.103
 3936TIP3   OH211771   5.161   4.205   5.288
 3936TIP3    H111772   5.180   4.261   5.213
 3936TIP3    H211773   5.180   4.116   5.257
 3937TIP3   OH211774   5.788   3.461   1.144
 3937TIP3    H111775   5.736   3.412   1.207
 3937TIP3    H211776   5.752   3.437   1.059
 3938TIP3   OH211777   2.485   1.497   4.360
 3938TIP3    H111778   2.436   1.520   4.439
 3938TIP3    H211779   2.418   1.484   4.293
 3939TIP3   OH211780   0.446   6.574   3.363
 3939TIP3    H111781   0.513   6.621   3.412
 3939TIP3    H211782   0.439   6.490   3.408
 3940TIP3   OH211783   3.344   4.392   5.913
 3940TIP3    H111784   3.332   4.312   5.861
 3940TIP3    H211785   3.383   4.455   5.853
 3941TIP3   OH211786   3.039   0.200   0.571
 3941TIP3    H111787   3.013   0.111   0.594
 3941TIP3    H211788   3.039   0.247   0.655
 3942TIP3   OH211789   0.470   1.948   2.752
 3942TIP3    H111790   0.520   2.001   2.689
 3942TIP3    H211791   0.379   1.958   2.724
 3943TIP3   OH211792   4.866   2.275   4.265
 3943TIP3    H111793   4.819   2.231   4.336
 3943TIP3    H211794   4.799   2.324   4.218
 3944TIP3   OH211795   4.853   5.508   5.829
 3944TIP3    H111796   4.772   5.529   5.876
 3944TIP3    H211797   4.916   5.488   5.899
 3945TIP3   OH211798   4.589   0.991   4.416
 3945TIP3    H111799   4.678   0.959   4.434
 3945TIP3    H211800   4.595   1.027   4.327
 3946TIP3   OH211801   6.054   0.638   4.682
 3946TIP3    H111802   6.077   0.692   4.606
 3946TIP3    H211803   5.974   0.677   4.716
 3947TIP3   OH211804   4.757   2.782   5.229
 3947TIP3    H111805   4.689   2.731   5.184
 3947TIP3    H211806   4.753   2.752   5.320
 3948TIP3   OH211807   2.168   3.366   3.946
 3948TIP3    H111808   2.086   3.331   3.981
 3948TIP3    H211809   2.232   3.295   3.957
 3949TIP3   OH211810   3.223   0.673   1.346
 3949TIP3    H111811   3.239   0.767   1.345
 3949TIP3    H211812   3.271   0.640   1.421
 3950TIP3   OH211813   6.937   6.358   2.719
 3950TIP3    H111814   6.975   6.270   2.723
 3950TIP3    H211815   6.968   6.394   2.635
 3951TIP3   OH211816   4.590   2.339   0.957
 3951TIP3    H111817   4.532   2.393   1.010
 3951TIP3    H211818   4.531   2.279   0.911
 3952TIP3   OH211819   2.365   5.468   3.994
 3952TIP3    H111820   2.385   5.404   3.926
 3952TIP3    H211821   2.392   5.552   3.958
 3953TIP3   OH211822   5.416   0.406   1.693
 3953TIP3    H111823   5.424   0.311   1.687
 3953TIP3    H211824   5.350   0.420   1.761
 3954TIP3   OH211825   6.092   5.168   2.920
 3954TIP3    H111826   6.144   5.101   2.964
 3954TIP3    H211827   6.154   5.237   2.900
 3955TIP3   OH211828   0.830   5.654   4.195
 3955TIP3    H111829   0.741   5.647   4.159
 3955TIP3    H211830   0.828   5.734   4.248
 3956TIP3   OH211831   1.896   4.054   1.528
 3956TIP3    H111832   1.812   4.013   1.547
 3956TIP3    H211833   1.953   4.026   1.599
 3957TIP3   OH211834   6.611   1.813   3.058
 3957TIP3    H111835   6.681   1.769   3.105
 3957TIP3    H211836   6.565   1.743   3.012
 3958TIP3   OH211837   1.594   0.772   2.224
 3958TIP3    H111838   1.622   0.853   2.266
 3958TIP3    H211839   1.529   0.799   2.159
 3959TIP3   OH211840   7.221   0.057   2.826
 3959TIP3    H111841   7.129   0.032   2.824
 3959TIP3    H211842   7.235   0.106   2.745
 3960TIP3   OH211843   3.427   0.949   5.121
 3960TIP3    H111844   3.385   1.013   5.179
 3960TIP3    H211845   3.510   0.928   5.164
 3961TIP3   OH211846   7.155   3.629   2.252
 3961TIP3    H111847   7.195   3.658   2.170
 3961TIP3    H211848   7.145   3.709   2.303
 3962TIP3   OH211849   4.868   4.995   0.900
 3962TIP3    H111850   4.908   4.910   0.881
 3962TIP3    H211851   4.900   5.052   0.830
 3963TIP3   OH211852   2.973   3.968   5.389
 3963TIP3    H111853   2.919   3.899   5.428
 3963TIP3    H211854   2.938   3.980   5.301
 3964TIP3   OH211855   3.577   1.114   4.488
 3964TIP3    H111856   3.510   1.046   4.496
 3964TIP3    H211857   3.636   1.081   4.421
 3965TIP3   OH211858   5.851   0.990   3.756
 3965TIP3    H111859   5.915   1.054   3.725
 3965TIP3    H211860   5.798   1.038   3.820
 3966TIP3   OH211861   6.716   3.784   5.717
 3966TIP3    H111862   6.801   3.741   5.720
 3966TIP3    H211863   6.664   3.739   5.784
 3967TIP3   OH211864   5.112   1.153   0.567
 3967TIP3    H111865   5.088   1.214   0.637
 3967TIP3    H211866   5.191   1.192   0.529
 3968TIP3   OH211867   0.882   6.447   0.580
 3968TIP3    H111868   0.856   6.479   0.494
 3968TIP3    H211869   0.888   6.352   0.570
 3969TIP3   OH211870   2.367   0.857   1.007
 3969TIP3    H111871   2.294   0.799   0.985
 3969TIP3    H211872   2.401   0.822   1.089
 3970TIP3   OH211873   1.078   2.518   3.757
 3970TIP3    H111874   1.065   2.604   3.716
 3970TIP3    H211875   0.990   2.482   3.766
 3971TIP3   OH211876   4.458   5.883   1.975
 3971TIP3    H111877   4.463   5.973   1.944
 3971TIP3    H211878   4.467   5.830   1.896
 3972TIP3   OH211879   0.734   0.822   2.006
 3972TIP3    H111880   0.719   0.887   1.938
 3972TIP3    H211881   0.787   0.754   1.964
 3973TIP3   OH211882   0.386   0.962   2.005
 3973TIP3    H111883   0.306   0.972   1.953
 3973TIP3    H211884   0.456   0.960   1.940
 3974TIP3   OH211885   3.984   6.413   3.281
 3974TIP3    H111886   4.061   6.439   3.333
 3974TIP3    H211887   4.019   6.352   3.216
 3975TIP3   OH211888   4.554   6.217   3.372
 3975TIP3    H111889   4.514   6.238   3.288
 3975TIP3    H211890   4.577   6.124   3.366
 3976TIP3   OH211891   3.921   2.973   1.258
 3976TIP3    H111892   3.877   2.898   1.296
 3976TIP3    H211893   3.866   2.997   1.183
 3977TIP3   OH211894   3.370   3.868   5.222
 3977TIP3    H111895   3.347   3.776   5.210
 3977TIP3    H211896   3.463   3.872   5.201
 3978TIP3   OH211897   7.211   1.522   3.827
 3978TIP3    H111898   7.142   1.542   3.891
 3978TIP3    H211899   7.219   1.602   3.775
 3979TIP3   OH211900   4.918   1.913   3.141
 3979TIP3    H111901   4.960   1.882   3.061
 3979TIP3    H211902   4.836   1.953   3.111
 3980TIP3   OH211903   2.689   1.664   2.370
 3980TIP3    H111904   2.610   1.610   2.377
 3980TIP3    H211905   2.661   1.741   2.321
 3981TIP3   OH211906   4.180   4.176   5.453
 3981TIP3    H111907   4.243   4.217   5.513
 3981TIP3    H211908   4.096   4.214   5.476
 3982TIP3   OH211909   0.038   4.508   4.153
 3982TIP3    H111910  -0.016   4.523   4.075
 3982TIP3    H211911   0.029   4.414   4.171
 3983TIP3   OH211912   2.903   5.815   1.127
 3983TIP3    H111913   2.940   5.824   1.039
 3983TIP3    H211914   2.864   5.900   1.146
 3984TIP3   OH211915   0.388   1.940   3.109
 3984TIP3    H111916   0.366   1.860   3.061
 3984TIP3    H211917   0.483   1.946   3.102
 3985TIP3   OH211918   5.739   1.391   1.801
 3985TIP3    H111919   5.728   1.383   1.707
 3985TIP3    H211920   5.685   1.466   1.825
 3986TIP3   OH211921   7.037   2.854   2.774
 3986TIP3    H111922   6.960   2.841   2.718
 3986TIP3    H211923   7.091   2.776   2.758
 3987TIP3   OH211924   4.001   1.648   5.401
 3987TIP3    H111925   3.944   1.575   5.423
 3987TIP3    H211926   4.002   1.649   5.305
 3988TIP3   OH211927   5.227   0.705   5.389
 3988TIP3    H111928   5.167   0.652   5.337
 3988TIP3    H211929   5.264   0.767   5.327
 3989TIP3   OH211930   4.753   1.193   0.579
 3989TIP3    H111931   4.765   1.267   0.519
 3989TIP3    H211932   4.746   1.233   0.666
 3990TIP3   OH211933   5.585   4.053   2.738
 3990TIP3    H111934   5.668   4.070   2.784
 3990TIP3    H211935   5.584   3.958   2.726
 3991TIP3   OH211936   1.428   5.998   2.976
 3991TIP3    H111937   1.353   6.034   2.928
 3991TIP3    H211938   1.482   6.074   2.998
 3992TIP3   OH211939   2.932   0.231   4.908
 3992TIP3    H111940   2.931   0.164   4.840
 3992TIP3    H211941   2.991   0.298   4.874
 3993TIP3   OH211942   6.549   4.523   2.387
 3993TIP3    H111943   6.554   4.566   2.472
 3993TIP3    H211944   6.572   4.591   2.324
 3994TIP3   OH211945   6.564   3.780   4.249
 3994TIP3    H111946   6.601   3.863   4.216
 3994TIP3    H211947   6.600   3.772   4.337
 3995TIP3   OH211948   2.024   6.210   2.612
 3995TIP3    H111949   1.947   6.158   2.633
 3995TIP3    H211950   2.076   6.154   2.555
 3996TIP3   OH211951   0.736   4.896   1.651
 3996TIP3    H111952   0.642   4.892   1.635
 3996TIP3    H211953   0.754   4.824   1.711
 3997TIP3   OH211954   6.941   0.892   0.892
 3997TIP3    H111955   6.989   0.829   0.838
 3997TIP3    H211956   6.880   0.839   0.943
 3998TIP3   OH211957   5.948   1.940   5.579
 3998TIP3    H111958   5.853   1.945   5.571
 3998TIP3    H211959   5.962   1.863   5.635
 3999TIP3   OH211960   4.043   2.689   3.531
 3999TIP3    H111961   3.953   2.660   3.519
 3999TIP3    H211962   4.035   2.780   3.559
 4000TIP3   OH211963   4.010   4.008   0.719
 4000TIP3    H111964   4.044   3.947   0.784
 4000TIP3    H211965   4.087   4.055   0.688
 4001TIP3   OH211966   0.216   4.013   4.726
 4001TIP3    H111967   0.218   3.919   4.741
 4001TIP3    H211968   0.202   4.022   4.632
 4002TIP3   OH211969   5.358   3.282   5.733
 4002TIP3    H111970   5.376   3.359   5.680
 4002TIP3    H211971   5.334   3.317   5.819
 4003TIP3   OH211972   3.692   5.031   4.521
 4003TIP3    H111973   3.654   5.040   4.433
 4003TIP3    H211974   3.617   5.027   4.579
 4004TIP3   OH211975   1.525   5.047   2.904
 4004TIP3    H111976   1.522   5.134   2.863
 4004TIP3    H211977   1.600   5.004   2.865
 4005TIP3   OH211978   3.532   1.693   1.469
 4005TIP3    H111979   3.613   1.657   1.504
 4005TIP3    H211980   3.533   1.786   1.494
 4006TIP3   OH211981   3.870   3.088   4.892
 4006TIP3    H111982   3.861   3.139   4.973
 4006TIP3    H211983   3.883   3.154   4.824
 4007TIP3   OH211984   6.333   2.850   4.257
 4007TIP3    H111985   6.308   2.817   4.171
 4007TIP3    H211986   6.317   2.944   4.253
 4008TIP3   OH211987   1.071   0.739   4.732
 4008TIP3    H111988   1.114   0.667   4.685
 4008TIP3    H211989   0.996   0.762   4.677
 4009TIP3   OH211990   0.228   0.095   5.078
 4009TIP3    H111991   0.152   0.152   5.086
 4009TIP3    H211992   0.209   0.039   5.003
 4010TIP3   OH211993   0.014   4.087   3.850
 4010TIP3    H111994   0.021   4.152   3.781
 4010TIP3    H211995   0.044   4.005   3.809
 4011TIP3   OH211996   1.460   3.448   1.111
 4011TIP3    H111997   1.502   3.533   1.126
 4011TIP3    H211998   1.366   3.467   1.115
 4012TIP3   OH211999   5.573   0.876   3.921
 4012TIP3    H112000   5.613   0.950   3.875
 4012TIP3    H212001   5.539   0.914   4.002
 4013TIP3   OH212002   5.082   4.735   3.995
 4013TIP3    H112003   4.993   4.762   4.019
 4013TIP3    H212004   5.112   4.802   3.934
 4014TIP3   OH212005   5.901   0.252   2.137
 4014TIP3    H112006   5.970   0.248   2.071
 4014TIP3    H212007   5.855   0.335   2.120
 4015TIP3   OH212008   5.821   0.914   5.293
 4015TIP3    H112009   5.883   0.859   5.246
 4015TIP3    H212010   5.851   0.912   5.384
 4016TIP3   OH212011   5.554   1.520   5.496
 4016TIP3    H112012   5.609   1.470   5.436
 4016TIP3    H212013   5.513   1.587   5.442
 4017TIP3   OH212014   4.706   1.405   5.529
 4017TIP3    H112015   4.706   1.384   5.622
 4017TIP3    H212016   4.785   1.458   5.517
 4018TIP3   OH212017   5.934   5.692   3.191
 4018TIP3    H112018   6.010   5.692   3.133
 4018TIP3    H212019   5.965   5.650   3.271
 4019TIP3   OH212020   5.334   4.493   5.214
 4019TIP3    H112021   5.376   4.574   5.185
 4019TIP3    H212022   5.302   4.512   5.302
 4020TIP3   OH212023   1.652   1.406   1.627
 4020TIP3    H112024   1.676   1.320   1.593
 4020TIP3    H212025   1.706   1.467   1.577
 4021TIP3   OH212026   5.594   2.463   0.857
 4021TIP3    H112027   5.636   2.417   0.784
 4021TIP3    H212028   5.666   2.495   0.910
 4022TIP3   OH212029   1.687   0.208   0.552
 4022TIP3    H112030   1.757   0.235   0.610
 4022TIP3    H212031   1.631   0.286   0.543
 4023TIP3   OH212032   4.352   0.799   2.868
 4023TIP3    H112033   4.442   0.781   2.839
 4023TIP3    H212034   4.322   0.869   2.811
 4024TIP3   OH212035   6.730   4.713   5.513
 4024TIP3    H112036   6.793   4.667   5.457
 4024TIP3    H212037   6.768   4.710   5.600
 4025TIP3   OH212038   4.333   0.064   5.662
 4025TIP3    H112039   4.355  -0.029   5.667
 4025TIP3    H212040   4.391   0.106   5.726
 4026TIP3   OH212041   6.331   0.421   4.678
 4026TIP3    H112042   6.411   0.466   4.652
 4026TIP3    H212043   6.265   0.451   4.615
 4027TIP3   OH212044   1.877   3.293   1.650
 4027TIP3    H112045   1.912   3.364   1.703
 4027TIP3    H212046   1.872   3.330   1.561
 4028TIP3   OH212047   3.143   2.905   2.521
 4028TIP3    H112048   3.090   2.827   2.538
 4028TIP3    H212049   3.215   2.899   2.584
 4029TIP3   OH212050   6.722   3.412   5.734
 4029TIP3    H112051   6.801   3.457   5.704
 4029TIP3    H212052   6.673   3.478   5.783
 4030TIP3   OH212053   2.152   0.176   4.203
 4030TIP3    H112054   2.174   0.095   4.250
 4030TIP3    H212055   2.139   0.240   4.272
 4031TIP3   OH212056   6.572   1.742   4.267
 4031TIP3    H112057   6.590   1.719   4.176
 4031TIP3    H212058   6.589   1.661   4.316
 4032TIP3   OH212059   2.673   2.203   5.124
 4032TIP3    H112060   2.585   2.170   5.105
 4032TIP3    H212061   2.724   2.124   5.145
 4033TIP3   OH212062   2.072   0.973   1.303
 4033TIP3    H112063   2.017   1.034   1.352
 4033TIP3    H212064   2.142   1.027   1.267
 4034TIP3   OH212065   0.979   6.748   4.194
 4034TIP3    H112066   0.897   6.730   4.239
 4034TIP3    H212067   1.046   6.711   4.251
 4035TIP3   OH212068   5.979   3.935   1.242
 4035TIP3    H112069   5.930   3.854   1.255
 4035TIP3    H212070   5.934   3.999   1.297
 4036TIP3   OH212071   5.419   4.467   0.489
 4036TIP3    H112072   5.348   4.497   0.545
 4036TIP3    H212073   5.406   4.513   0.406
 4037TIP3   OH212074   1.677   6.230   1.759
 4037TIP3    H112075   1.773   6.226   1.765
 4037TIP3    H212076   1.650   6.278   1.837
 4038TIP3   OH212077   3.682   1.697   1.990
 4038TIP3    H112078   3.589   1.703   2.014
 4038TIP3    H212079   3.722   1.651   2.063
 4039TIP3   OH212080   0.834   0.539   1.113
 4039TIP3    H112081   0.868   0.460   1.072
 4039TIP3    H212082   0.887   0.551   1.192
 4040TIP3   OH212083   3.523   0.048   1.905
 4040TIP3    H112084   3.545  -0.039   1.871
 4040TIP3    H212085   3.530   0.106   1.830
 4041TIP3   OH212086   6.978   2.383   2.872
 4041TIP3    H112087   6.900   2.330   2.885
 4041TIP3    H212088   6.970   2.417   2.783
 4042TIP3   OH212089   1.410   1.615   3.049
 4042TIP3    H112090   1.336   1.636   3.106
 4042TIP3    H212091   1.483   1.665   3.085
 4043TIP3   OH212092   5.366   4.129   0.586
 4043TIP3    H112093   5.350   4.150   0.494
 4043TIP3    H212094   5.450   4.171   0.605
 4044TIP3   OH212095   5.064   3.076   1.704
 4044TIP3    H112096   5.072   3.171   1.703
 4044TIP3    H212097   5.095   3.048   1.618
 4045TIP3   OH212098   5.570   5.138   3.129
 4045TIP3    H112099   5.509   5.127   3.057
 4045TIP3    H212100   5.560   5.059   3.182
 4046TIP3   OH212101   2.476   3.441   1.908
 4046TIP3    H112102   2.540   3.498   1.866
 4046TIP3    H212103   2.507   3.432   1.998
 4047TIP3   OH212104   6.734   1.195   2.778
 4047TIP3    H112105   6.692   1.190   2.693
 4047TIP3    H212106   6.826   1.174   2.761
 4048TIP3   OH212107   3.967   1.150   5.687
 4048TIP3    H112108   3.876   1.125   5.699
 4048TIP3    H212109   4.002   1.158   5.775
 4049TIP3   OH212110   1.570   1.430   4.083
 4049TIP3    H112111   1.512   1.378   4.138
 4049TIP3    H212112   1.526   1.434   3.998
 4050TIP3   OH212113   6.355   1.153   4.582
 4050TIP3    H112114   6.441   1.118   4.607
 4050TIP3    H212115   6.364   1.175   4.489
 4051TIP3   OH212116   0.856   0.261   1.200
 4051TIP3    H112117   0.909   0.280   1.278
 4051TIP3    H212118   0.921   0.240   1.133
 4052TIP3   OH212119   5.840   4.717   2.450
 4052TIP3    H112120   5.838   4.639   2.506
 4052TIP3    H212121   5.888   4.690   2.372
 4053TIP3   OH212122   0.287   2.683   4.469
 4053TIP3    H112123   0.199   2.656   4.445
 4053TIP3    H212124   0.311   2.625   4.541
 4054TIP3   OH212125   7.017   0.620   5.053
 4054TIP3    H112126   7.098   0.662   5.081
 4054TIP3    H212127   6.948   0.669   5.097
 4055TIP3   OH212128   2.934   1.669   2.524
 4055TIP3    H112129   2.847   1.639   2.497
 4055TIP3    H212130   2.977   1.695   2.443
 4056TIP3   OH212131   4.117   4.771   1.816
 4056TIP3    H112132   4.098   4.716   1.740
 4056TIP3    H212133   4.212   4.773   1.822
 4057TIP3   OH212134   0.542   1.223   3.349
 4057TIP3    H112135   0.620   1.240   3.296
 4057TIP3    H212136   0.518   1.133   3.329
 4058TIP3   OH212137   1.084   5.052   2.193
 4058TIP3    H112138   1.018   5.089   2.252
 4058TIP3    H212139   1.117   4.975   2.240
 4059TIP3   OH212140   3.811   3.679   2.977
 4059TIP3    H112141   3.829   3.599   2.927
 4059TIP3    H212142   3.810   3.650   3.068
 4060TIP3   OH212143   6.983   4.558   2.442
 4060TIP3    H112144   7.063   4.554   2.495
 4060TIP3    H212145   6.996   4.634   2.385
 4061TIP3   OH212146   7.142   6.174   3.383
 4061TIP3    H112147   7.205   6.231   3.341
 4061TIP3    H212148   7.162   6.178   3.476
 4062TIP3   OH212149   0.313   6.711   0.626
 4062TIP3    H112150   0.408   6.698   0.630
 4062TIP3    H212151   0.303   6.801   0.593
 4063TIP3   OH212152   2.378   4.003   2.540
 4063TIP3    H112153   2.290   3.997   2.501
 4063TIP3    H212154   2.436   3.969   2.473
 4064TIP3   OH212155   0.307   6.220   1.567
 4064TIP3    H112156   0.377   6.246   1.507
 4064TIP3    H212157   0.348   6.220   1.653
 4065TIP3   OH212158   2.223   1.633   0.260
 4065TIP3    H112159   2.210   1.547   0.299
 4065TIP3    H212160   2.234   1.615   0.166
 4066TIP3   OH212161   0.992   0.938   3.198
 4066TIP3    H112162   0.900   0.944   3.225
 4066TIP3    H212163   1.002   1.005   3.131
 4067TIP3   OH212164   5.926   1.631   1.688
 4067TIP3    H112165   6.004   1.598   1.643
 4067TIP3    H212166   5.950   1.630   1.781
 4068TIP3   OH212167   0.620   3.746   5.799
 4068TIP3    H112168   0.527   3.745   5.776
 4068TIP3    H212169   0.634   3.661   5.842
 4069TIP3   OH212170   0.210   2.710   1.440
 4069TIP3    H112171   0.298   2.717   1.477
 4069TIP3    H212172   0.198   2.616   1.423
 4070TIP3   OH212173   6.526   6.484   3.209
 4070TIP3    H112174   6.562   6.497   3.297
 4070TIP3    H212175   6.525   6.389   3.197
 4071TIP3   OH212176   0.864   4.165   1.316
 4071TIP3    H112177   0.861   4.131   1.227
 4071TIP3    H212178   0.873   4.087   1.371
 4072TIP3   OH212179   2.573   2.489   2.033
 4072TIP3    H112180   2.619   2.461   1.954
 4072TIP3    H212181   2.490   2.440   2.031
 4073TIP3   OH212182   2.612   3.712   1.469
 4073TIP3    H112183   2.657   3.788   1.506
 4073TIP3    H212184   2.566   3.746   1.393
 4074TIP3   OH212185   4.197   3.944   1.879
 4074TIP3    H112186   4.162   3.863   1.914
 4074TIP3    H212187   4.288   3.947   1.909
 4075TIP3   OH212188   5.369   0.601   3.029
 4075TIP3    H112189   5.288   0.626   2.984
 4075TIP3    H212190   5.361   0.639   3.116
 4076TIP3   OH212191   0.824   2.089   4.514
 4076TIP3    H112192   0.790   2.000   4.502
 4076TIP3    H212193   0.895   2.079   4.576
 4077TIP3   OH212194   0.661   1.311   0.851
 4077TIP3    H112195   0.750   1.285   0.828
 4077TIP3    H212196   0.646   1.392   0.802
 4078TIP3   OH212197   4.410   2.241   2.458
 4078TIP3    H112198   4.340   2.183   2.487
 4078TIP3    H212199   4.369   2.327   2.453
 4079TIP3   OH212200   0.130   5.403   4.167
 4079TIP3    H112201   0.222   5.376   4.175
 4079TIP3    H212202   0.082   5.321   4.159
 4080TIP3   OH212203   2.539   4.021   3.735
 4080TIP3    H112204   2.553   4.026   3.830
 4080TIP3    H212205   2.546   4.111   3.705
 4081TIP3   OH212206   1.126   5.615   4.115
 4081TIP3    H112207   1.039   5.650   4.132
 4081TIP3    H212208   1.113   5.549   4.047
 4082TIP3   OH212209   3.738   0.614   5.563
 4082TIP3    H112210   3.789   0.562   5.624
 4082TIP3    H212211   3.699   0.550   5.503
 4083TIP3   OH212212   1.944   3.503   3.073
 4083TIP3    H112213   1.893   3.427   3.097
 4083TIP3    H212214   2.017   3.468   3.022
 4084TIP3   OH212215   5.590   5.255   0.728
 4084TIP3    H112216   5.499   5.247   0.756
 4084TIP3    H212217   5.624   5.165   0.732
 4085TIP3   OH212218   4.103   3.617   1.391
 4085TIP3    H112219   4.166   3.638   1.322
 4085TIP3    H212220   4.020   3.606   1.344
 4086TIP3   OH212221   5.770   1.019   1.549
 4086TIP3    H112222   5.855   0.980   1.528
 4086TIP3    H212223   5.706   0.955   1.517
 4087TIP3   OH212224   4.534   6.042   1.598
 4087TIP3    H112225   4.462   6.081   1.548
 4087TIP3    H212226   4.519   6.070   1.688
 4088TIP3   OH212227   1.829   2.811   2.944
 4088TIP3    H112228   1.885   2.857   3.007
 4088TIP3    H212229   1.781   2.881   2.900
 4089TIP3   OH212230   6.511   5.843   2.540
 4089TIP3    H112231   6.532   5.896   2.463
 4089TIP3    H212232   6.474   5.763   2.505
 4090TIP3   OH212233   5.947   4.507   0.706
 4090TIP3    H112234   6.005   4.462   0.766
 4090TIP3    H212235   5.949   4.456   0.626
 4091TIP3   OH212236   6.983   1.331   0.936
 4091TIP3    H112237   7.024   1.245   0.932
 4091TIP3    H212238   6.998   1.361   1.026
 4092TIP3   OH212239   4.143   1.661   1.842
 4092TIP3    H112240   4.208   1.602   1.879
 4092TIP3    H212241   4.190   1.742   1.826
 4093TIP3   OH212242   4.026   4.016   2.569
 4093TIP3    H112243   4.019   4.109   2.593
 4093TIP3    H212244   3.965   3.972   2.628
 4094TIP3   OH212245   3.566   4.665   3.076
 4094TIP3    H112246   3.572   4.658   2.981
 4094TIP3    H212247   3.650   4.632   3.108
 4095TIP3   OH212248   1.903   1.982   4.691
 4095TIP3    H112249   1.953   1.910   4.655
 4095TIP3    H212250   1.963   2.057   4.690
 4096TIP3   OH212251   3.140   4.998   3.578
 4096TIP3    H112252   3.106   5.020   3.491
 4096TIP3    H212253   3.230   4.968   3.562
 4097TIP3   OH212254   0.435   6.759   4.071
 4097TIP3    H112255   0.355   6.810   4.060
 4097TIP3    H212256   0.501   6.805   4.019
 4098TIP3   OH212257   4.240   6.106   1.435
 4098TIP3    H112258   4.216   6.058   1.356
 4098TIP3    H212259   4.166   6.166   1.449
 4099TIP3   OH212260   2.614   3.485   5.372
 4099TIP3    H112261   2.540   3.424   5.375
 4099TIP3    H212262   2.633   3.503   5.464
 4100TIP3   OH212263   3.692   1.194   1.353
 4100TIP3    H112264   3.683   1.099   1.363
 4100TIP3    H212265   3.648   1.214   1.270
 4101TIP3   OH212266   5.224   2.600   2.690
 4101TIP3    H112267   5.270   2.601   2.606
 4101TIP3    H212268   5.210   2.693   2.711
 4102TIP3   OH212269   4.970   4.973   4.242
 4102TIP3    H112270   4.961   4.907   4.310
 4102TIP3    H212271   4.934   4.932   4.164
 4103TIP3   OH212272   5.736   4.233   0.340
 4103TIP3    H112273   5.790   4.197   0.270
 4103TIP3    H212274   5.780   4.313   0.367
 4104TIP3   OH212275   1.264   6.307   3.544
 4104TIP3    H112276   1.347   6.284   3.586
 4104TIP3    H212277   1.211   6.343   3.615
 4105TIP3   OH212278   2.054   4.870   4.966
 4105TIP3    H112279   1.964   4.901   4.954
 4105TIP3    H212280   2.092   4.931   5.029
 4106TIP3   OH212281   2.074   3.850   3.246
 4106TIP3    H112282   2.066   3.859   3.341
 4106TIP3    H212283   2.049   3.759   3.229
 4107TIP3   OH212284   2.616   4.852   2.015
 4107TIP3    H112285   2.653   4.900   2.090
 4107TIP3    H212286   2.692   4.813   1.972
 4108TIP3   OH212287   0.769   4.507   5.581
 4108TIP3    H112288   0.732   4.595   5.581
 4108TIP3    H212289   0.694   4.449   5.566
 4109TIP3   OH212290   5.828   5.150   4.417
 4109TIP3    H112291   5.767   5.080   4.442
 4109TIP3    H212292   5.910   5.127   4.460
 4110TIP3   OH212293   0.384   0.616   0.592
 4110TIP3    H112294   0.312   0.661   0.548
 4110TIP3    H212295   0.447   0.596   0.521
 4111TIP3   OH212296   4.147   6.655   2.885
 4111TIP3    H112297   4.227   6.630   2.839
 4111TIP3    H212298   4.176   6.682   2.972
 4112TIP3   OH212299   3.895   5.899   5.589
 4112TIP3    H112300   3.970   5.899   5.649
 4112TIP3    H212301   3.933   5.918   5.503
 4113TIP3   OH212302   5.881   3.403   1.907
 4113TIP3    H112303   5.927   3.324   1.881
 4113TIP3    H212304   5.826   3.375   1.981
 4114TIP3   OH212305   6.211   3.356   5.584
 4114TIP3    H112306   6.251   3.271   5.601
 4114TIP3    H212307   6.203   3.361   5.489
 4115TIP3   OH212308   1.419   0.061   1.076
 4115TIP3    H112309   1.354   0.012   1.126
 4115TIP3    H212310   1.424   0.146   1.120
 4116TIP3   OH212311   0.589   6.187   1.427
 4116TIP3    H112312   0.602   6.130   1.503
 4116TIP3    H212313   0.661   6.249   1.431
 4117TIP3   OH212314   5.800   5.091   4.142
 4117TIP3    H112315   5.708   5.065   4.144
 4117TIP3    H212316   5.821   5.111   4.233
 4118TIP3   OH212317   0.730   0.979   3.232
 4118TIP3    H112318   0.677   0.900   3.245
 4118TIP3    H212319   0.692   1.020   3.153
 4119TIP3   OH212320   6.960   3.442   2.802
 4119TIP3    H112321   6.937   3.479   2.717
 4119TIP3    H212322   6.970   3.348   2.785
 4120TIP3   OH212323   2.983   6.744   3.945
 4120TIP3    H112324   2.946   6.658   3.962
 4120TIP3    H212325   2.927   6.782   3.877
 4121TIP3   OH212326   6.791   0.236   4.307
 4121TIP3    H112327   6.754   0.224   4.219
 4121TIP3    H212328   6.864   0.296   4.294
 4122TIP3   OH212329   6.160   2.903   0.176
 4122TIP3    H112330   6.228   2.890   0.242
 4122TIP3    H212331   6.106   2.825   0.181
 4123TIP3   OH212332   5.811   5.074   5.281
 4123TIP3    H112333   5.827   4.993   5.330
 4123TIP3    H212334   5.896   5.097   5.243
 4124TIP3   OH212335   6.399   5.802   4.316
 4124TIP3    H112336   6.390   5.821   4.410
 4124TIP3    H212337   6.312   5.823   4.280
 4125TIP3   OH212338   4.516   5.977   1.083
 4125TIP3    H112339   4.454   6.046   1.059
 4125TIP3    H212340   4.468   5.921   1.144
 4126TIP3   OH212341   0.225   5.300   3.894
 4126TIP3    H112342   0.246   5.375   3.949
 4126TIP3    H212343   0.134   5.314   3.868
 4127TIP3   OH212344   3.329   2.720   0.992
 4127TIP3    H112345   3.370   2.647   1.038
 4127TIP3    H212346   3.258   2.748   1.049
 4128TIP3   OH212347   2.903   0.191   3.311
 4128TIP3    H112348   2.826   0.137   3.291
 4128TIP3    H212349   2.884   0.229   3.397
 4129TIP3   OH212350   5.532   3.123   5.271
 4129TIP3    H112351   5.607   3.099   5.215
 4129TIP3    H212352   5.501   3.040   5.306
 4130TIP3   OH212353   3.844   3.173   4.397
 4130TIP3    H112354   3.866   3.259   4.362
 4130TIP3    H212355   3.824   3.189   4.489
 4131TIP3   OH212356   4.179   3.229   2.047
 4131TIP3    H112357   4.270   3.206   2.068
 4131TIP3    H212358   4.170   3.204   1.955
 4132TIP3   OH212359   5.607   4.425   5.498
 4132TIP3    H112360   5.525   4.465   5.528
 4132TIP3    H212361   5.615   4.453   5.407
 4133TIP3   OH212362   3.257   6.210   5.498
 4133TIP3    H112363   3.250   6.288   5.552
 4133TIP3    H212364   3.281   6.242   5.411
 4134TIP3   OH212365   5.589   1.078   1.208
 4134TIP3    H112366   5.516   1.057   1.266
 4134TIP3    H212367   5.557   1.147   1.151
 4135TIP3   OH212368   3.583   2.244   1.815
 4135TIP3    H112369   3.502   2.288   1.843
 4135TIP3    H212370   3.572   2.153   1.843
 4136TIP3   OH212371   0.905   1.775   3.897
 4136TIP3    H112372   0.918   1.861   3.857
 4136TIP3    H212373   0.883   1.717   3.824
 4137TIP3   OH212374   5.910   6.371   2.478
 4137TIP3    H112375   5.986   6.338   2.526
 4137TIP3    H212376   5.925   6.347   2.387
 4138TIP3   OH212377   5.383   4.624   1.675
 4138TIP3    H112378   5.375   4.658   1.763
 4138TIP3    H212379   5.363   4.531   1.683
 4139TIP3   OH212380   0.401   3.379   5.628
 4139TIP3    H112381   0.403   3.375   5.723
 4139TIP3    H212382   0.324   3.433   5.608
 4140TIP3   OH212383   0.663   4.757   5.610
 4140TIP3    H112384   0.613   4.728   5.534
 4140TIP3    H212385   0.599   4.802   5.665
 4141TIP3   OH212386   0.219   0.801   4.011
 4141TIP3    H112387   0.176   0.886   4.022
 4141TIP3    H212388   0.147   0.739   3.997
 4142TIP3   OH212389   7.064   0.384   3.207
 4142TIP3    H112390   7.059   0.300   3.161
 4142TIP3    H212391   6.972   0.405   3.227
 4143TIP3   OH212392   4.325   0.160   0.844
 4143TIP3    H112393   4.418   0.163   0.822
 4143TIP3    H212394   4.283   0.216   0.779
 4144TIP3   OH212395   3.504   4.624   0.372
 4144TIP3    H112396   3.536   4.575   0.448
 4144TIP3    H212397   3.574   4.616   0.307
 4145TIP3   OH212398   4.964   0.620   5.711
 4145TIP3    H112399   5.050   0.655   5.692
 4145TIP3    H212400   4.971   0.526   5.692
 4146TIP3   OH212401   0.443   3.945   2.204
 4146TIP3    H112402   0.536   3.923   2.209
 4146TIP3    H212403   0.432   3.987   2.118
 4147TIP3   OH212404   3.400   5.856   3.226
 4147TIP3    H112405   3.310   5.874   3.196
 4147TIP3    H212406   3.389   5.801   3.303
 4148TIP3   OH212407   7.098   5.764   4.718
 4148TIP3    H112408   7.086   5.757   4.813
 4148TIP3    H212409   7.191   5.750   4.704
 4149TIP3   OH212410   6.022   4.095   1.041
 4149TIP3    H112411   5.989   4.032   1.105
 4149TIP3    H212412   6.020   4.179   1.086
 4150TIP3   OH212413   1.192   5.736   0.750
 4150TIP3    H112414   1.166   5.728   0.658
 4150TIP3    H212415   1.284   5.764   0.746
 4151TIP3   OH212416   0.494   4.622   0.826
 4151TIP3    H112417   0.565   4.673   0.786
 4151TIP3    H212418   0.491   4.652   0.917
 4152TIP3   OH212419   3.631   2.674   5.615
 4152TIP3    H112420   3.644   2.713   5.702
 4152TIP3    H212421   3.624   2.580   5.632
 4153TIP3   OH212422   3.300   4.004   3.945
 4153TIP3    H112423   3.252   3.952   3.881
 4153TIP3    H212424   3.232   4.050   3.994
 4154TIP3   OH212425   6.530   3.694   3.768
 4154TIP3    H112426   6.458   3.653   3.720
 4154TIP3    H212427   6.571   3.752   3.704
 4155TIP3   OH212428   3.427   0.311   2.978
 4155TIP3    H112429   3.442   0.352   3.063
 4155TIP3    H212430   3.486   0.357   2.918
 4156TIP3   OH212431   6.208   1.592   1.839
 4156TIP3    H112432   6.137   1.533   1.864
 4156TIP3    H212433   6.250   1.549   1.764
 4157TIP3   OH212434   6.169   2.741   4.809
 4157TIP3    H112435   6.218   2.784   4.739
 4157TIP3    H212436   6.174   2.802   4.882
 4158TIP3   OH212437   4.919   6.729   4.862
 4158TIP3    H112438   4.850   6.780   4.819
 4158TIP3    H212439   4.871   6.673   4.923
 4159TIP3   OH212440   2.403   2.290   4.362
 4159TIP3    H112441   2.444   2.357   4.417
 4159TIP3    H212442   2.470   2.267   4.298
 4160TIP3   OH212443   4.543   5.408   0.308
 4160TIP3    H112444   4.482   5.398   0.234
 4160TIP3    H212445   4.549   5.503   0.320
 4161TIP3   OH212446   0.967   2.342   1.053
 4161TIP3    H112447   0.881   2.376   1.077
 4161TIP3    H212448   0.991   2.392   0.975
 4162TIP3   OH212449   6.233   2.601   0.178
 4162TIP3    H112450   6.168   2.570   0.240
 4162TIP3    H212451   6.216   2.551   0.098
 4163TIP3   OH212452   5.965   4.990   5.517
 4163TIP3    H112453   6.037   5.020   5.461
 4163TIP3    H212454   5.959   5.057   5.585
 4164TIP3   OH212455   0.545   3.689   1.574
 4164TIP3    H112456   0.484   3.749   1.617
 4164TIP3    H212457   0.561   3.729   1.488
 4165TIP3   OH212458   4.087   0.930   3.329
 4165TIP3    H112459   4.114   0.862   3.390
 4165TIP3    H212460   4.127   0.905   3.246
 4166TIP3   OH212461   1.206   5.764   2.690
 4166TIP3    H112462   1.242   5.743   2.604
 4166TIP3    H212463   1.139   5.697   2.704
 4167TIP3   OH212464   1.528   5.561   3.467
 4167TIP3    H112465   1.608   5.518   3.434
 4167TIP3    H212466   1.547   5.654   3.462
 4168TIP3   OH212467   4.288   5.449   2.919
 4168TIP3    H112468   4.287   5.469   2.826
 4168TIP3    H212469   4.251   5.526   2.961
 4169TIP3   OH212470   6.754   2.898   3.383
 4169TIP3    H112471   6.834   2.847   3.394
 4169TIP3    H212472   6.722   2.874   3.296
 4170TIP3   OH212473   4.309   2.531   4.846
 4170TIP3    H112474   4.338   2.622   4.846
 4170TIP3    H212475   4.317   2.503   4.938
 4171TIP3   OH212476   2.904   1.216   5.850
 4171TIP3    H112477   2.897   1.273   5.774
 4171TIP3    H212478   2.948   1.137   5.816
 4172TIP3   OH212479   3.185   1.251   2.610
 4172TIP3    H112480   3.182   1.246   2.514
 4172TIP3    H212481   3.125   1.322   2.631
 4173TIP3   OH212482   0.108   2.917   1.294
 4173TIP3    H112483   0.121   2.898   1.201
 4173TIP3    H212484   0.143   2.840   1.339
 4174TIP3   OH212485   4.441   0.946   0.747
 4174TIP3    H112486   4.520   0.935   0.695
 4174TIP3    H212487   4.409   1.034   0.723
 4175TIP3   OH212488   4.582   6.336   3.632
 4175TIP3    H112489   4.669   6.297   3.634
 4175TIP3    H212490   4.550   6.318   3.544
 4176TIP3   OH212491   1.606   4.175   2.439
 4176TIP3    H112492   1.668   4.216   2.500
 4176TIP3    H212493   1.534   4.145   2.495
 4177TIP3   OH212494   4.739   2.062   3.929
 4177TIP3    H112495   4.710   2.065   4.020
 4177TIP3    H212496   4.683   1.997   3.887
 4178TIP3   OH212497   5.945   6.010   0.929
 4178TIP3    H112498   5.889   5.936   0.951
 4178TIP3    H212499   5.896   6.087   0.959
 4179TIP3   OH212500   0.002   3.372   4.472
 4179TIP3    H112501   0.061   3.438   4.436
 4179TIP3    H212502   0.056   3.321   4.532
 4180TIP3   OH212503   1.960   1.098   4.675
 4180TIP3    H112504   2.045   1.106   4.632
 4180TIP3    H212505   1.904   1.162   4.632
 4181TIP3   OH212506   1.316   4.871   2.026
 4181TIP3    H112507   1.244   4.826   2.069
 4181TIP3    H212508   1.395   4.836   2.067
 4182TIP3   OH212509   5.844   4.925   0.142
 4182TIP3    H112510   5.798   4.973   0.211
 4182TIP3    H212511   5.774   4.877   0.096
 4183TIP3   OH212512   4.464   0.854   2.430
 4183TIP3    H112513   4.420   0.774   2.401
 4183TIP3    H212514   4.433   0.921   2.369
 4184TIP3   OH212515   4.220   3.140   3.198
 4184TIP3    H112516   4.146   3.092   3.235
 4184TIP3    H212517   4.277   3.158   3.274
 4185TIP3   OH212518   6.018   1.274   0.776
 4185TIP3    H112519   6.080   1.249   0.707
 4185TIP3    H212520   5.943   1.217   0.763
 4186TIP3   OH212521   3.148   0.523   1.927
 4186TIP3    H112522   3.112   0.582   1.993
 4186TIP3    H212523   3.103   0.440   1.942
 4187TIP3   OH212524   0.654   0.113   5.502
 4187TIP3    H112525   0.662   0.027   5.542
 4187TIP3    H212526   0.629   0.171   5.575
 4188TIP3   OH212527   2.900   0.008   5.094
 4188TIP3    H112528   2.966  -0.056   5.119
 4188TIP3    H212529   2.941   0.060   5.025
 4189TIP3   OH212530   4.181   1.431   4.004
 4189TIP3    H112531   4.244   1.448   3.933
 4189TIP3    H212532   4.235   1.422   4.082
 4190TIP3   OH212533   4.807   0.647   0.054
 4190TIP3    H112534   4.892   0.607   0.071
 4190TIP3    H212535   4.799   0.648  -0.042
 4191TIP3   OH212536   1.673   3.495   1.799
 4191TIP3    H112537   1.757   3.535   1.774
 4191TIP3    H212538   1.673   3.497   1.895
 4192TIP3   OH212539   0.743   3.005   1.716
 4192TIP3    H112540   0.769   3.067   1.649
 4192TIP3    H212541   0.728   3.059   1.794
 4193TIP3   OH212542   2.398   4.510   3.996
 4193TIP3    H112543   2.396   4.605   3.987
 4193TIP3    H212544   2.379   4.476   3.908
 4194TIP3   OH212545   4.531   2.429   2.710
 4194TIP3    H112546   4.512   2.379   2.789
 4194TIP3    H212547   4.504   2.519   2.731
 4195TIP3   OH212548   3.150   4.694   2.913
 4195TIP3    H112549   3.059   4.708   2.886
 4195TIP3    H212550   3.173   4.609   2.876
 4196TIP3   OH212551   3.605   0.421   1.827
 4196TIP3    H112552   3.632   0.393   1.915
 4196TIP3    H212553   3.602   0.341   1.776
 4197TIP3   OH212554   6.803   1.445   2.853
 4197TIP3    H112555   6.769   1.361   2.820
 4197TIP3    H212556   6.824   1.495   2.774
 4198TIP3   OH212557   4.592   3.688   0.283
 4198TIP3    H112558   4.671   3.658   0.238
 4198TIP3    H212559   4.544   3.607   0.303
 4199TIP3   OH212560   0.090   0.165   0.156
 4199TIP3    H112561   0.172   0.191   0.115
 4199TIP3    H212562   0.098   0.194   0.247
 4200TIP3   OH212563   5.191   5.552   1.836
 4200TIP3    H112564   5.172   5.561   1.743
 4200TIP3    H212565   5.226   5.637   1.862
 4201TIP3   OH212566   2.657   6.008   3.403
 4201TIP3    H112567   2.748   6.027   3.381
 4201TIP3    H212568   2.648   5.914   3.388
 4202TIP3   OH212569   6.884   5.889   4.538
 4202TIP3    H112570   6.958   5.905   4.596
 4202TIP3    H212571   6.812   5.938   4.578
 4203TIP3   OH212572   6.310   2.456   1.879
 4203TIP3    H112573   6.368   2.531   1.869
 4203TIP3    H212574   6.231   2.493   1.921
 4204TIP3   OH212575   1.159   0.500   4.961
 4204TIP3    H112576   1.113   0.467   4.884
 4204TIP3    H212577   1.149   0.431   5.026
 4205TIP3   OH212578   4.443   6.081   4.843
 4205TIP3    H112579   4.431   6.062   4.936
 4205TIP3    H212580   4.462   6.175   4.841
 4206TIP3   OH212581   4.420   1.572   4.734
 4206TIP3    H112582   4.392   1.483   4.755
 4206TIP3    H212583   4.431   1.572   4.639
 4207TIP3   OH212584   6.552   5.015   5.153
 4207TIP3    H112585   6.456   5.005   5.152
 4207TIP3    H212586   6.574   5.029   5.245
 4208TIP3   OH212587   3.760   3.602   2.024
 4208TIP3    H112588   3.711   3.602   1.942
 4208TIP3    H212589   3.785   3.694   2.037
 4209TIP3   OH212590   7.073   0.652   1.020
 4209TIP3    H112591   7.000   0.599   0.987
 4209TIP3    H212592   7.133   0.657   0.945
 4210TIP3   OH212593   6.742   4.047   5.797
 4210TIP3    H112594   6.807   4.052   5.866
 4210TIP3    H212595   6.720   3.954   5.791
 4211TIP3   OH212596   2.169   2.020   2.848
 4211TIP3    H112597   2.190   2.002   2.756
 4211TIP3    H212598   2.254   2.031   2.891
 4212TIP3   OH212599   0.410   5.063   2.303
 4212TIP3    H112600   0.453   5.128   2.247
 4212TIP3    H212601   0.327   5.044   2.258
 4213TIP3   OH212602   3.360   2.721   1.989
 4213TIP3    H112603   3.320   2.756   2.069
 4213TIP3    H212604   3.450   2.754   1.992
 4214TIP3   OH212605   5.983   0.664   5.684
 4214TIP3    H112606   5.956   0.576   5.656
 4214TIP3    H212607   5.926   0.684   5.758
 4215TIP3   OH212608   0.993   0.673   4.167
 4215TIP3    H112609   0.933   0.699   4.097
 4215TIP3    H212610   1.028   0.756   4.201
 4216TIP3   OH212611   5.496   6.670   3.311
 4216TIP3    H112612   5.416   6.696   3.266
 4216TIP3    H212613   5.479   6.582   3.344
 4217TIP3   OH212614   1.571   3.080   3.612
 4217TIP3    H112615   1.527   3.164   3.598
 4217TIP3    H212616   1.646   3.083   3.553
 4218TIP3   OH212617   0.947   4.752   2.315
 4218TIP3    H112618   1.039   4.738   2.335
 4218TIP3    H212619   0.909   4.785   2.396
 4219TIP3   OH212620   5.578   6.003   4.045
 4219TIP3    H112621   5.556   6.084   4.089
 4219TIP3    H212622   5.617   6.031   3.962
 4220TIP3   OH212623   5.091   4.212   0.192
 4220TIP3    H112624   5.050   4.186   0.109
 4220TIP3    H212625   5.092   4.307   0.190
 4221TIP3   OH212626   0.881   1.509   0.548
 4221TIP3    H112627   0.934   1.551   0.480
 4221TIP3    H212628   0.838   1.436   0.503
 4222TIP3   OH212629   4.784   6.736   3.386
 4222TIP3    H112630   4.767   6.709   3.295
 4222TIP3    H212631   4.811   6.655   3.430
 4223TIP3   OH212632   6.896   4.969   1.814
 4223TIP3    H112633   6.984   4.966   1.777
 4223TIP3    H212634   6.855   4.887   1.785
 4224TIP3   OH212635   5.809   4.886   1.044
 4224TIP3    H112636   5.880   4.843   0.997
 4224TIP3    H212637   5.782   4.823   1.111
 4225TIP3   OH212638   0.268   4.839   5.466
 4225TIP3    H112639   0.207   4.795   5.525
 4225TIP3    H212640   0.213   4.871   5.394
 4226TIP3   OH212641   0.877   4.022   4.465
 4226TIP3    H112642   0.787   4.054   4.462
 4226TIP3    H212643   0.922   4.082   4.526
 4227TIP3   OH212644   4.071   0.729  -0.009
 4227TIP3    H112645   4.158   0.703   0.021
 4227TIP3    H212646   4.012   0.703   0.062
 4228TIP3   OH212647   4.747   2.899   3.498
 4228TIP3    H112648   4.773   2.964   3.433
 4228TIP3    H212649   4.798   2.821   3.476
 4229TIP3   OH212650   2.498   3.543   2.583
 4229TIP3    H112651   2.477   3.620   2.636
 4229TIP3    H212652   2.587   3.558   2.553
 4230TIP3   OH212653   1.735   1.429   0.725
 4230TIP3    H112654   1.731   1.334   0.715
 4230TIP3    H212655   1.647   1.459   0.701
 4231TIP3   OH212656   4.542   2.000   1.260
 4231TIP3    H112657   4.472   1.975   1.321
 4231TIP3    H212658   4.503   1.989   1.173
 4232TIP3   OH212659   3.280   2.524   0.401
 4232TIP3    H112660   3.375   2.532   0.406
 4232TIP3    H212661   3.265   2.462   0.330
 4233TIP3   OH212662   1.370   5.806   1.566
 4233TIP3    H112663   1.318   5.841   1.494
 4233TIP3    H212664   1.422   5.880   1.597
 4234TIP3   OH212665   3.894   0.947   0.292
 4234TIP3    H112666   3.936   0.930   0.376
 4234TIP3    H212667   3.933   1.029   0.261
 4235TIP3   OH212668   6.598   4.421   3.608
 4235TIP3    H112669   6.523   4.362   3.616
 4235TIP3    H212670   6.621   4.442   3.699
 4236TIP3   OH212671   4.006   6.722   5.742
 4236TIP3    H112672   3.928   6.700   5.793
 4236TIP3    H212673   3.982   6.801   5.694
 4237TIP3   OH212674   3.591   1.897   0.661
 4237TIP3    H112675   3.600   1.977   0.714
 4237TIP3    H212676   3.673   1.892   0.612
 4238TIP3   OH212677   0.307   1.907   4.515
 4238TIP3    H112678   0.256   1.859   4.450
 4238TIP3    H212679   0.386   1.933   4.469
 4239TIP3   OH212680   1.855   4.149   4.938
 4239TIP3    H112681   1.806   4.068   4.952
 4239TIP3    H212682   1.947   4.122   4.938
 4240TIP3   OH212683   5.385   2.859   2.662
 4240TIP3    H112684   5.392   2.944   2.619
 4240TIP3    H212685   5.412   2.796   2.595
 4241TIP3   OH212686   1.921   1.224   3.287
 4241TIP3    H112687   1.828   1.230   3.263
 4241TIP3    H212688   1.942   1.131   3.277
 4242TIP3   OH212689   4.714   4.244   2.413
 4242TIP3    H112690   4.745   4.312   2.353
 4242TIP3    H212691   4.625   4.224   2.384
 4243TIP3   OH212692   3.837   0.297   5.133
 4243TIP3    H112693   3.744   0.318   5.129
 4243TIP3    H212694   3.875   0.367   5.186
 4244TIP3   OH212695   2.716   4.251   0.875
 4244TIP3    H112696   2.787   4.229   0.935
 4244TIP3    H212697   2.653   4.300   0.928
 4245TIP3   OH212698   6.988   0.715   0.151
 4245TIP3    H112699   7.076   0.747   0.131
 4245TIP3    H212700   6.942   0.791   0.186
 4246TIP3   OH212701   0.925   2.927   4.424
 4246TIP3    H112702   0.974   2.928   4.506
 4246TIP3    H212703   0.898   2.836   4.413
 4247TIP3   OH212704   5.369   3.255   4.996
 4247TIP3    H112705   5.398   3.267   5.086
 4247TIP3    H212706   5.421   3.317   4.945
 4248TIP3   OH212707   2.975   6.447   1.752
 4248TIP3    H112708   2.942   6.514   1.691
 4248TIP3    H212709   2.906   6.381   1.753
 4249TIP3   OH212710   1.339   5.428   5.411
 4249TIP3    H112711   1.418   5.389   5.374
 4249TIP3    H212712   1.267   5.392   5.360
 4250TIP3   OH212713   1.866   1.885   5.699
 4250TIP3    H112714   1.789   1.835   5.727
 4250TIP3    H212715   1.830   1.967   5.666
 4251TIP3   OH212716   1.280   1.888   4.068
 4251TIP3    H112717   1.297   1.832   4.144
 4251TIP3    H212718   1.189   1.916   4.079
 4252TIP3   OH212719   1.758   3.586   2.364
 4252TIP3    H112720   1.827   3.523   2.345
 4252TIP3    H212721   1.696   3.576   2.291
 4253TIP3   OH212722   6.765   1.312   3.821
 4253TIP3    H112723   6.843   1.258   3.830
 4253TIP3    H212724   6.694   1.259   3.858
 4254TIP3   OH212725   4.416   3.184   2.185
 4254TIP3    H112726   4.488   3.248   2.183
 4254TIP3    H212727   4.374   3.198   2.270
 4255TIP3   OH212728   6.267  -0.013   4.724
 4255TIP3    H112729   6.221   0.029   4.797
 4255TIP3    H212730   6.358   0.017   4.733
 4256TIP3   OH212731   3.651   5.135   2.660
 4256TIP3    H112732   3.613   5.075   2.597
 4256TIP3    H212733   3.620   5.222   2.633
 4257TIP3   OH212734   1.852   6.058   0.860
 4257TIP3    H112735   1.881   6.137   0.906
 4257TIP3    H212736   1.933   6.021   0.824
 4258TIP3   OH212737   2.120   3.559   0.411
 4258TIP3    H112738   2.094   3.577   0.501
 4258TIP3    H212739   2.146   3.644   0.376
 4259TIP3   OH212740   2.219   2.970   1.240
 4259TIP3    H112741   2.217   2.920   1.321
 4259TIP3    H212742   2.131   3.008   1.233
 4260TIP3   OH212743   7.038   1.828   5.673
 4260TIP3    H112744   7.095   1.758   5.641
 4260TIP3    H212745   6.990   1.788   5.745
 4261TIP3   OH212746   5.879   5.338   1.866
 4261TIP3    H112747   5.830   5.414   1.897
 4261TIP3    H212748   5.849   5.266   1.922
 4262TIP3   OH212749   2.394   5.734   0.160
 4262TIP3    H112750   2.477   5.748   0.206
 4262TIP3    H212751   2.411   5.660   0.101
 4263TIP3   OH212752   6.763   6.168   1.768
 4263TIP3    H112753   6.805   6.238   1.718
 4263TIP3    H212754   6.826   6.097   1.767
 4264TIP3   OH212755   3.226   2.334   4.812
 4264TIP3    H112756   3.134   2.309   4.821
 4264TIP3    H212757   3.244   2.387   4.890
 4265TIP3   OH212758   6.146   2.433   3.495
 4265TIP3    H112759   6.226   2.485   3.495
 4265TIP3    H212760   6.142   2.396   3.407
 4266TIP3   OH212761   5.098   5.884   0.091
 4266TIP3    H112762   5.118   5.799   0.051
 4266TIP3    H212763   5.164   5.894   0.160
 4267TIP3   OH212764   1.010   2.234   2.180
 4267TIP3    H112765   1.036   2.318   2.216
 4267TIP3    H212766   1.038   2.237   2.088
 4268TIP3   OH212767   1.687   1.937   1.234
 4268TIP3    H112768   1.605   1.918   1.189
 4268TIP3    H212769   1.667   1.929   1.327
 4269TIP3   OH212770   0.417   2.268   2.153
 4269TIP3    H112771   0.435   2.355   2.189
 4269TIP3    H212772   0.362   2.226   2.220
 4270TIP3   OH212773   5.164   0.635   2.870
 4270TIP3    H112774   5.138   0.630   2.778
 4270TIP3    H212775   5.114   0.709   2.905
 4271TIP3   OH212776   3.493   2.221   1.082
 4271TIP3    H112777   3.541   2.234   1.164
 4271TIP3    H212778   3.409   2.185   1.110
 4272TIP3   OH212779   1.107   3.002   3.042
 4272TIP3    H112780   1.116   3.058   3.120
 4272TIP3    H212781   1.086   2.916   3.077
 4273TIP3   OH212782   0.501   2.218   1.868
 4273TIP3    H112783   0.440   2.155   1.906
 4273TIP3    H212784   0.501   2.292   1.928
 4274TIP3   OH212785   1.248   2.827   4.485
 4274TIP3    H112786   1.220   2.775   4.409
 4274TIP3    H212787   1.247   2.764   4.557
 4275TIP3   OH212788   4.312   4.916   1.317
 4275TIP3    H112789   4.302   4.857   1.242
 4275TIP3    H212790   4.272   4.998   1.289
 4276TIP3   OH212791   6.005   3.918   4.717
 4276TIP3    H112792   6.025   3.900   4.808
 4276TIP3    H212793   5.941   3.851   4.692
 4277TIP3   OH212794   4.162   0.533   0.468
 4277TIP3    H112795   4.243   0.553   0.516
 4277TIP3    H212796   4.155   0.603   0.404
 4278TIP3   OH212797   4.590   2.679   5.423
 4278TIP3    H112798   4.626   2.714   5.504
 4278TIP3    H212799   4.498   2.705   5.424
 4279TIP3   OH212800   1.493   2.523   2.209
 4279TIP3    H112801   1.406   2.535   2.169
 4279TIP3    H212802   1.474   2.489   2.296
 4280TIP3   OH212803   1.588   4.236   3.826
 4280TIP3    H112804   1.604   4.258   3.735
 4280TIP3    H212805   1.515   4.293   3.852
 4281TIP3   OH212806   4.994   3.664   0.257
 4281TIP3    H112807   4.980   3.679   0.164
 4281TIP3    H212808   5.087   3.680   0.271
 4282TIP3   OH212809   3.599   1.462   2.353
 4282TIP3    H112810   3.590   1.518   2.430
 4282TIP3    H212811   3.541   1.388   2.370
 4283TIP3   OH212812   5.246   0.256   3.294
 4283TIP3    H112813   5.154   0.230   3.296
 4283TIP3    H212814   5.263   0.288   3.383
 4284TIP3   OH212815   1.646   3.350   4.192
 4284TIP3    H112816   1.628   3.262   4.225
 4284TIP3    H212817   1.559   3.388   4.177
 4285TIP3   OH212818   2.670   2.099   3.875
 4285TIP3    H112819   2.732   2.170   3.888
 4285TIP3    H212820   2.610   2.130   3.808
 4286TIP3   OH212821   3.982   4.213   1.341
 4286TIP3    H112822   4.019   4.155   1.407
 4286TIP3    H212823   3.888   4.195   1.342
 4287TIP3   OH212824   3.195   4.086   1.730
 4287TIP3    H112825   3.281   4.062   1.765
 4287TIP3    H212826   3.215   4.154   1.665
 4288TIP3   OH212827   1.454   2.277   0.179
 4288TIP3    H112828   1.385   2.226   0.138
 4288TIP3    H212829   1.441   2.366   0.146
 4289TIP3   OH212830   5.258   5.107   3.252
 4289TIP3    H112831   5.177   5.139   3.292
 4289TIP3    H212832   5.302   5.060   3.323
 4290TIP3   OH212833   1.819   2.280   5.290
 4290TIP3    H112834   1.758   2.340   5.248
 4290TIP3    H212835   1.799   2.194   5.251
 4291TIP3   OH212836   4.137   5.368   3.511
 4291TIP3    H112837   4.210   5.355   3.451
 4291TIP3    H212838   4.083   5.290   3.498
 4292TIP3   OH212839   4.643   1.073   5.632
 4292TIP3    H112840   4.692   1.005   5.679
 4292TIP3    H212841   4.588   1.113   5.700
 4293TIP3   OH212842   1.174   4.623   2.114
 4293TIP3    H112843   1.222   4.569   2.051
 4293TIP3    H212844   1.112   4.563   2.155
 4294TIP3   OH212845   3.540   3.323   1.790
 4294TIP3    H112846   3.582   3.286   1.868
 4294TIP3    H212847   3.611   3.365   1.741
 4295TIP3   OH212848   5.045   6.820   3.781
 4295TIP3    H112849   4.959   6.781   3.770
 4295TIP3    H212850   5.095   6.755   3.832
 4296TIP3   OH212851   2.204   2.143   0.059
 4296TIP3    H112852   2.153   2.063   0.058
 4296TIP3    H212853   2.196   2.176   0.149
 4297TIP3   OH212854   5.414   2.710   4.732
 4297TIP3    H112855   5.373   2.646   4.673
 4297TIP3    H212856   5.341   2.767   4.759
 4298TIP3   OH212857   4.135   4.406   1.153
 4298TIP3    H112858   4.157   4.358   1.073
 4298TIP3    H212859   4.057   4.361   1.187
 4299TIP3   OH212860   0.127   5.615   4.674
 4299TIP3    H112861   0.104   5.548   4.610
 4299TIP3    H212862   0.222   5.607   4.684
 4300TIP3   OH212863   2.799   5.671   0.192
 4300TIP3    H112864   2.893   5.684   0.184
 4300TIP3    H212865   2.789   5.577   0.206
 4301TIP3   OH212866   1.838   1.889   2.090
 4301TIP3    H112867   1.868   1.811   2.043
 4301TIP3    H212868   1.748   1.868   2.116
 4302TIP3   OH212869   0.292   6.589   2.026
 4302TIP3    H112870   0.229   6.518   2.041
 4302TIP3    H212871   0.358   6.577   2.095
 4303TIP3   OH212872   2.758   2.280   1.011
 4303TIP3    H112873   2.787   2.370   0.999
 4303TIP3    H212874   2.662   2.285   1.009
 4304TIP3   OH212875   2.736   6.363   3.780
 4304TIP3    H112876   2.664   6.303   3.763
 4304TIP3    H212877   2.815   6.311   3.763
 4305TIP3   OH212878   0.149   6.359   2.056
 4305TIP3    H112879   0.066   6.318   2.033
 4305TIP3    H212880   0.213   6.287   2.053
 4306TIP3   OH212881   1.969   6.474   1.829
 4306TIP3    H112882   2.015   6.481   1.913
 4306TIP3    H212883   1.993   6.554   1.782
 4307TIP3   OH212884   3.261   6.038   0.577
 4307TIP3    H112885   3.293   6.027   0.487
 4307TIP3    H212886   3.340   6.054   0.629
 4308TIP3   OH212887   2.842   6.139   4.039
 4308TIP3    H112888   2.927   6.105   4.065
 4308TIP3    H212889   2.811   6.078   3.972
 4309TIP3   OH212890   6.254   0.617   5.250
 4309TIP3    H112891   6.245   0.694   5.194
 4309TIP3    H212892   6.347   0.596   5.249
 4310TIP3   OH212893   6.207   4.077   3.794
 4310TIP3    H112894   6.235   4.084   3.885
 4310TIP3    H212895   6.238   3.991   3.766
 4311TIP3   OH212896   6.556   1.307   1.929
 4311TIP3    H112897   6.536   1.321   2.022
 4311TIP3    H212898   6.480   1.258   1.896
 4312TIP3   OH212899   4.008   4.639   1.576
 4312TIP3    H112900   4.040   4.631   1.486
 4312TIP3    H212901   3.917   4.668   1.566
 4313TIP3   OH212902   2.400   5.478   0.539
 4313TIP3    H112903   2.315   5.471   0.496
 4313TIP3    H212904   2.421   5.572   0.537
 4314TIP3   OH212905   6.471   0.201   0.046
 4314TIP3    H112906   6.548   0.189  -0.009
 4314TIP3    H212907   6.493   0.157   0.128
 4315TIP3   OH212908   5.734   3.033   2.571
 4315TIP3    H112909   5.663   3.033   2.506
 4315TIP3    H212910   5.746   2.941   2.593
 4316TIP3   OH212911   1.608   5.324   4.001
 4316TIP3    H112912   1.529   5.366   3.967
 4316TIP3    H212913   1.679   5.365   3.952
 4317TIP3   OH212914   4.231   0.370   4.870
 4317TIP3    H112915   4.203   0.312   4.799
 4317TIP3    H212916   4.193   0.455   4.848
 4318TIP3   OH212917   0.161   3.828   3.834
 4318TIP3    H112918   0.215   3.906   3.820
 4318TIP3    H212919   0.224   3.758   3.851
 4319TIP3   OH212920   2.085   6.611   4.099
 4319TIP3    H112921   2.092   6.553   4.175
 4319TIP3    H212922   1.991   6.626   4.088
 4320TIP3   OH212923   3.566   5.386   2.630
 4320TIP3    H112924   3.549   5.395   2.724
 4320TIP3    H212925   3.479   5.373   2.592
 4321TIP3   OH212926   2.536   3.258   2.430
 4321TIP3    H112927   2.460   3.288   2.380
 4321TIP3    H212928   2.516   3.281   2.521
 4322TIP3   OH212929   1.925   3.672   0.616
 4322TIP3    H112930   1.934   3.594   0.671
 4322TIP3    H212931   1.970   3.741   0.665
 4323TIP3   OH212932   1.823   0.284   0.180
 4323TIP3    H112933   1.759   0.213   0.173
 4323TIP3    H212934   1.867   0.285   0.095
 4324TIP3   OH212935   7.182   1.715   1.371
 4324TIP3    H112936   7.233   1.713   1.452
 4324TIP3    H212937   7.091   1.723   1.401
 4325TIP3   OH212938   5.270   4.223   4.019
 4325TIP3    H112939   5.206   4.289   4.044
 4325TIP3    H212940   5.330   4.217   4.093
 4326TIP3   OH212941   1.089   1.218   2.755
 4326TIP3    H112942   1.098   1.181   2.843
 4326TIP3    H212943   1.176   1.254   2.736
 4327TIP3   OH212944   2.484   2.098   1.373
 4327TIP3    H112945   2.548   2.027   1.366
 4327TIP3    H212946   2.421   2.081   1.304
 4328TIP3   OH212947   4.881   4.502   3.979
 4328TIP3    H112948   4.925   4.467   4.056
 4328TIP3    H212949   4.873   4.596   3.997
 4329TIP3   OH212950   4.474   5.527   2.304
 4329TIP3    H112951   4.522   5.450   2.333
 4329TIP3    H212952   4.525   5.561   2.231
 4330TIP3   OH212953   6.856   6.097   2.981
 4330TIP3    H112954   6.930   6.075   3.038
 4330TIP3    H212955   6.781   6.057   3.024
 4331TIP3   OH212956   3.107   6.637   4.186
 4331TIP3    H112957   3.099   6.682   4.102
 4331TIP3    H212958   3.187   6.673   4.225
 4332TIP3   OH212959   5.014   2.043   4.054
 4332TIP3    H112960   4.998   2.137   4.065
 4332TIP3    H212961   4.926   2.004   4.053
 4333TIP3   OH212962   5.494   4.722   5.258
 4333TIP3    H112963   5.519   4.722   5.350
 4333TIP3    H212964   5.554   4.786   5.217
 4334TIP3   OH212965   1.473   5.321   3.656
 4334TIP3    H112966   1.510   5.399   3.696
 4334TIP3    H212967   1.429   5.352   3.577
 4335TIP3   OH212968   1.813   6.065   2.661
 4335TIP3    H112969   1.770   6.033   2.741
 4335TIP3    H212970   1.775   6.012   2.591
 4336TIP3   OH212971   6.466   5.207   0.493
 4336TIP3    H112972   6.503   5.203   0.405
 4336TIP3    H212973   6.420   5.291   0.495
 4337TIP3   OH212974   3.890   2.788   5.403
 4337TIP3    H112975   3.917   2.700   5.431
 4337TIP3    H212976   3.969   2.841   5.409
 4338TIP3   OH212977   1.422   6.606   0.288
 4338TIP3    H112978   1.443   6.696   0.262
 4338TIP3    H212979   1.327   6.606   0.301
 4339TIP3   OH212980   5.294   3.512   3.715
 4339TIP3    H112981   5.364   3.530   3.652
 4339TIP3    H212982   5.268   3.422   3.697
 4340TIP3   OH212983   0.135   4.703   5.673
 4340TIP3    H112984   0.215   4.715   5.724
 4340TIP3    H212985   0.071   4.760   5.715
 4341TIP3   OH212986   1.403   1.652   3.627
 4341TIP3    H112987   1.419   1.736   3.583
 4341TIP3    H212988   1.336   1.672   3.693
 4342TIP3   OH212989   6.409   4.420   1.587
 4342TIP3    H112990   6.487   4.448   1.635
 4342TIP3    H212991   6.399   4.328   1.609
 4343TIP3   OH212992   4.081   4.460   5.360
 4343TIP3    H112993   4.031   4.535   5.328
 4343TIP3    H212994   4.068   4.392   5.293
 4344TIP3   OH212995   1.720   6.633   0.341
 4344TIP3    H112996   1.625   6.642   0.338
 4344TIP3    H212997   1.735   6.541   0.362
 4345TIP3   OH212998   6.841   1.629   3.050
 4345TIP3    H112999   6.919   1.644   3.104
 4345TIP3    H213000   6.864   1.555   2.995
 4346TIP3   OH213001   3.160   1.681   3.630
 4346TIP3    H113002   3.161   1.632   3.548
 4346TIP3    H213003   3.087   1.645   3.679
 4347TIP3   OH213004   6.093   3.226   0.641
 4347TIP3    H113005   6.112   3.320   0.648
 4347TIP3    H213006   6.144   3.196   0.566
 4348TIP3   OH213007   2.557   1.396   1.744
 4348TIP3    H113008   2.497   1.462   1.779
 4348TIP3    H213009   2.644   1.432   1.761
 4349TIP3   OH213010   6.076   1.287   1.239
 4349TIP3    H113011   6.129   1.351   1.286
 4349TIP3    H213012   6.119   1.277   1.155
 4350TIP3   OH213013   2.736   0.504   0.426
 4350TIP3    H113014   2.671   0.474   0.490
 4350TIP3    H213015   2.761   0.425   0.378
 4351TIP3   OH213016   2.317   1.168   1.515
 4351TIP3    H113017   2.320   1.263   1.518
 4351TIP3    H213018   2.397   1.143   1.468
 4352TIP3   OH213019   1.751   1.557   4.683
 4352TIP3    H113020   1.843   1.564   4.659
 4352TIP3    H213021   1.704   1.559   4.599
 4353TIP3   OH213022   2.433   5.189   3.424
 4353TIP3    H113023   2.356   5.243   3.440
 4353TIP3    H213024   2.435   5.177   3.329
 4354TIP3   OH213025   3.344   5.281   1.703
 4354TIP3    H113026   3.380   5.370   1.706
 4354TIP3    H213027   3.261   5.287   1.749
 4355TIP3   OH213028   6.525   3.759   0.243
 4355TIP3    H113029   6.452   3.710   0.281
 4355TIP3    H213030   6.600   3.736   0.298
 4356TIP3   OH213031   7.139   3.346   3.235
 4356TIP3    H113032   7.112   3.299   3.313
 4356TIP3    H213033   7.185   3.423   3.268
 4357TIP3   OH213034   3.561   1.711   5.005
 4357TIP3    H113035   3.657   1.708   5.010
 4357TIP3    H213036   3.538   1.793   5.049
 4358TIP3   OH213037   6.973   2.896   3.817
 4358TIP3    H113038   6.985   2.970   3.758
 4358TIP3    H213039   7.060   2.880   3.854
 4359TIP3   OH213040   0.978   3.545   4.301
 4359TIP3    H113041   0.964   3.554   4.207
 4359TIP3    H213042   0.941   3.624   4.339
 4360TIP3   OH213043   0.733   5.729   0.647
 4360TIP3    H113044   0.746   5.769   0.561
 4360TIP3    H213045   0.722   5.802   0.707
 4361TIP3   OH213046   3.617   1.937   1.110
 4361TIP3    H113047   3.521   1.935   1.112
 4361TIP3    H213048   3.643   1.896   1.193
 4362TIP3   OH213049   4.346   6.075   2.482
 4362TIP3    H113050   4.330   6.016   2.409
 4362TIP3    H213051   4.353   6.161   2.442
 4363TIP3   OH213052   4.769   3.837   5.729
 4363TIP3    H113053   4.786   3.778   5.655
 4363TIP3    H213054   4.740   3.919   5.689
 4364TIP3   OH213055   4.354   4.136   5.817
 4364TIP3    H113056   4.393   4.167   5.735
 4364TIP3    H213057   4.286   4.199   5.837
 4365TIP3   OH213058   0.341   5.960   3.990
 4365TIP3    H113059   0.410   6.026   3.982
 4365TIP3    H213060   0.324   5.932   3.899
 4366TIP3   OH213061   4.533   5.136   0.091
 4366TIP3    H113062   4.623   5.167   0.097
 4366TIP3    H213063   4.481   5.215   0.080
 4367TIP3   OH213064   6.336   3.294   2.779
 4367TIP3    H113065   6.405   3.358   2.762
 4367TIP3    H213066   6.305   3.315   2.867
 4368TIP3   OH213067   6.198   3.161   5.007
 4368TIP3    H113068   6.278   3.197   5.044
 4368TIP3    H213069   6.163   3.232   4.952
 4369TIP3   OH213070   2.091   3.195   0.708
 4369TIP3    H113071   2.019   3.248   0.673
 4369TIP3    H213072   2.083   3.205   0.803
 4370TIP3   OH213073   3.196   6.060   4.858
 4370TIP3    H113074   3.206   5.987   4.797
 4370TIP3    H213075   3.286   6.090   4.875
 4371TIP3   OH213076   3.295   0.789   3.056
 4371TIP3    H113077   3.233   0.862   3.058
 4371TIP3    H213078   3.378   0.829   3.031
 4372TIP3   OH213079   5.895   1.300   4.077
 4372TIP3    H113080   5.919   1.316   3.986
 4372TIP3    H213081   5.977   1.309   4.126
 4373TIP3   OH213082   0.039   1.568   4.106
 4373TIP3    H113083   0.086   1.542   4.027
 4373TIP3    H213084   0.043   1.490   4.162
 4374TIP3   OH213085   6.518   1.784   2.225
 4374TIP3    H113086   6.470   1.751   2.149
 4374TIP3    H213087   6.547   1.705   2.270
 4375TIP3   OH213088   1.172   4.249   5.662
 4375TIP3    H113089   1.134   4.212   5.583
 4375TIP3    H213090   1.222   4.325   5.632
 4376TIP3   OH213091   5.423  -0.028   2.490
 4376TIP3    H113092   5.442   0.009   2.404
 4376TIP3    H213093   5.352   0.027   2.524
 4377TIP3   OH213094   0.534   5.737   4.544
 4377TIP3    H113095   0.509   5.668   4.483
 4377TIP3    H213096   0.454   5.756   4.593
 4378TIP3   OH213097   3.819   2.517   3.547
 4378TIP3    H113098   3.857   2.450   3.604
 4378TIP3    H213099   3.727   2.491   3.538
 4379TIP3   OH213100   0.549   6.680   0.953
 4379TIP3    H113101   0.554   6.587   0.931
 4379TIP3    H213102   0.481   6.685   1.021
 4380TIP3   OH213103   6.992   1.702   2.250
 4380TIP3    H113104   6.906   1.728   2.282
 4380TIP3    H213105   6.997   1.608   2.265
 4381TIP3   OH213106   4.133   2.999   5.002
 4381TIP3    H113107   4.135   3.045   4.918
 4381TIP3    H213108   4.093   3.062   5.062
 4382TIP3   OH213109   3.550   0.058   4.712
 4382TIP3    H113110   3.627   0.040   4.657
 4382TIP3    H213111   3.476   0.055   4.652
 4383TIP3   OH213112   5.432   4.186   2.531
 4383TIP3    H113113   5.487   4.160   2.605
 4383TIP3    H213114   5.418   4.105   2.482
 4384TIP3   OH213115   4.589   1.659   3.998
 4384TIP3    H113116   4.677   1.689   4.023
 4384TIP3    H213117   4.535   1.677   4.075
 4385TIP3   OH213118   5.792   5.999   0.571
 4385TIP3    H113119   5.737   5.962   0.502
 4385TIP3    H213120   5.842   5.925   0.604
 4386TIP3   OH213121   6.111   5.434   0.248
 4386TIP3    H113122   6.177   5.365   0.238
 4386TIP3    H213123   6.056   5.426   0.171
 4387TIP3   OH213124   6.748   3.069   2.643
 4387TIP3    H113125   6.721   3.110   2.561
 4387TIP3    H213126   6.766   2.978   2.620
 4388TIP3   OH213127   4.794   5.064   3.949
 4388TIP3    H113128   4.710   5.092   3.984
 4388TIP3    H213129   4.772   5.001   3.880
 4389TIP3   OH213130   0.423   3.558   1.066
 4389TIP3    H113131   0.355   3.565   1.133
 4389TIP3    H213132   0.447   3.649   1.047
 4390TIP3   OH213133   4.569   2.850   0.691
 4390TIP3    H113134   4.523   2.862   0.774
 4390TIP3    H213135   4.541   2.924   0.637
 4391TIP3   OH213136   4.910   6.082   4.816
 4391TIP3    H113137   4.921   6.033   4.735
 4391TIP3    H213138   4.900   6.015   4.884
 4392TIP3   OH213139   5.120   2.910   4.890
 4392TIP3    H113140   5.104   2.844   4.822
 4392TIP3    H213141   5.082   2.991   4.855
 4393TIP3   OH213142   4.411   6.295   1.299
 4393TIP3    H113143   4.501   6.267   1.313
 4393TIP3    H213144   4.358   6.226   1.341
 4394TIP3   OH213145   4.398   3.118   4.862
 4394TIP3    H113146   4.369   3.206   4.836
 4394TIP3    H213147   4.479   3.133   4.910
 4395TIP3   OH213148   5.871   5.678   2.607
 4395TIP3    H113149   5.944   5.655   2.550
 4395TIP3    H213150   5.806   5.609   2.593
 4396TIP3   OH213151   7.179   5.872   2.078
 4396TIP3    H113152   7.273   5.854   2.079
 4396TIP3    H213153   7.141   5.797   2.033
 4397TIP3   OH213154   1.961   5.748   1.465
 4397TIP3    H113155   2.046   5.754   1.508
 4397TIP3    H213156   1.978   5.775   1.375
 4398TIP3   OH213157   1.497   4.927   5.403
 4398TIP3    H113158   1.557   5.000   5.384
 4398TIP3    H213159   1.410   4.965   5.393
 4399TIP3   OH213160   6.014   1.148   3.602
 4399TIP3    H113161   6.037   1.179   3.514
 4399TIP3    H213162   6.026   1.225   3.658
 4400TIP3   OH213163   1.049   3.299   3.961
 4400TIP3    H113164   1.099   3.249   4.027
 4400TIP3    H213165   0.967   3.321   4.005
 4401TIP3   OH213166   6.386   4.844   2.660
 4401TIP3    H113167   6.441   4.838   2.582
 4401TIP3    H213168   6.305   4.799   2.636
 4402TIP3   OH213169   1.271   5.863   3.138
 4402TIP3    H113170   1.322   5.915   3.077
 4402TIP3    H213171   1.206   5.924   3.173
 4403TIP3   OH213172   3.047   5.434   5.543
 4403TIP3    H113173   3.082   5.364   5.598
 4403TIP3    H213174   3.055   5.513   5.596
 4404TIP3   OH213175   4.861   0.164   5.292
 4404TIP3    H113176   4.917   0.097   5.254
 4404TIP3    H213177   4.773   0.139   5.265
 4405TIP3   OH213178   3.499   2.039   0.306
 4405TIP3    H113179   3.507   2.115   0.364
 4405TIP3    H213180   3.506   2.076   0.218
 4406TIP3   OH213181   1.178   0.175   0.788
 4406TIP3    H113182   1.209   0.230   0.715
 4406TIP3    H213183   1.238   0.100   0.788
 4407TIP3   OH213184   1.659   0.427   3.295
 4407TIP3    H113185   1.571   0.429   3.259
 4407TIP3    H213186   1.715   0.465   3.227
 4408TIP3   OH213187   4.600   5.504   5.436
 4408TIP3    H113188   4.655   5.566   5.484
 4408TIP3    H213189   4.512   5.521   5.469
 4409TIP3   OH213190   0.168   5.258   5.550
 4409TIP3    H113191   0.099   5.294   5.605
 4409TIP3    H213192   0.249   5.291   5.589
 4410TIP3   OH213193   0.781   1.021   4.821
 4410TIP3    H113194   0.860   1.070   4.797
 4410TIP3    H213195   0.787   0.941   4.769
 4411TIP3   OH213196   2.659   1.423   2.573
 4411TIP3    H113197   2.691   1.489   2.635
 4411TIP3    H213198   2.588   1.379   2.619
 4412TIP3   OH213199   1.507   4.516   5.780
 4412TIP3    H113200   1.473   4.556   5.861
 4412TIP3    H213201   1.533   4.428   5.807
 4413TIP3   OH213202   3.571   5.559   4.253
 4413TIP3    H113203   3.512   5.506   4.199
 4413TIP3    H213204   3.642   5.499   4.277
 4414TIP3   OH213205   7.040   5.206   1.620
 4414TIP3    H113206   7.000   5.232   1.538
 4414TIP3    H213207   7.113   5.267   1.632
 4415TIP3   OH213208   5.451   2.878   5.349
 4415TIP3    H113209   5.397   2.823   5.294
 4415TIP3    H213210   5.438   2.845   5.438
 4416TIP3   OH213211   3.958   6.213   0.702
 4416TIP3    H113212   3.941   6.119   0.698
 4416TIP3    H213213   4.053   6.220   0.708
 4417TIP3   OH213214   6.567   3.771   3.481
 4417TIP3    H113215   6.615   3.802   3.404
 4417TIP3    H213216   6.538   3.683   3.457
 4418TIP3   OH213217   1.346   5.978   2.501
 4418TIP3    H113218   1.252   5.969   2.516
 4418TIP3    H213219   1.377   5.888   2.487
 4419TIP3   OH213220   0.578   5.658   3.999
 4419TIP3    H113221   0.572   5.581   3.943
 4419TIP3    H213222   0.487   5.677   4.023
 4420TIP3   OH213223   3.939   6.132   1.917
 4420TIP3    H113224   3.909   6.119   2.007
 4420TIP3    H213225   3.896   6.213   1.890
 4421TIP3   OH213226   6.757   2.148   2.857
 4421TIP3    H113227   6.741   2.148   2.951
 4421TIP3    H213228   6.791   2.060   2.838
 4422TIP3   OH213229   2.401   2.691   1.753
 4422TIP3    H113230   2.340   2.656   1.689
 4422TIP3    H213231   2.394   2.786   1.745
 4423TIP3   OH213232   6.276   5.729   2.940
 4423TIP3    H113233   6.282   5.678   3.021
 4423TIP3    H213234   6.182   5.734   2.922
 4424TIP3   OH213235   5.666   0.593   0.982
 4424TIP3    H113236   5.660   0.679   1.025
 4424TIP3    H213237   5.651   0.611   0.889
 4425TIP3   OH213238   2.717   1.062   3.433
 4425TIP3    H113239   2.810   1.044   3.422
 4425TIP3    H213240   2.674   0.977   3.424
 4426TIP3   OH213241   6.135   2.573   3.790
 4426TIP3    H113242   6.171   2.485   3.804
 4426TIP3    H213243   6.203   2.618   3.740
 4427TIP3   OH213244   2.178   3.182   2.486
 4427TIP3    H113245   2.109   3.156   2.547
 4427TIP3    H213246   2.246   3.221   2.542
 4428TIP3   OH213247   3.607   5.871   1.453
 4428TIP3    H113248   3.558   5.796   1.420
 4428TIP3    H213249   3.586   5.942   1.393
 4429TIP3   OH213250   3.112   1.634   3.961
 4429TIP3    H113251   3.096   1.571   4.031
 4429TIP3    H213252   3.163   1.704   4.001
 4430TIP3   OH213253   0.677   0.820   5.706
 4430TIP3    H113254   0.698   0.887   5.641
 4430TIP3    H213255   0.705   0.738   5.665
 4431TIP3   OH213256   6.168   0.363   5.115
 4431TIP3    H113257   6.137   0.332   5.200
 4431TIP3    H213258   6.248   0.413   5.136
 4432TIP3   OH213259   1.170   1.648   3.203
 4432TIP3    H113260   1.104   1.632   3.134
 4432TIP3    H213261   1.118   1.671   3.280
 4433TIP3   OH213262   0.072   0.671   0.501
 4433TIP3    H113263   0.026   0.627   0.430
 4433TIP3    H213264   0.157   0.697   0.464
 4434TIP3   OH213265   0.419   1.881   5.474
 4434TIP3    H113266   0.391   1.940   5.545
 4434TIP3    H213267   0.346   1.820   5.463
 4435TIP3   OH213268   0.454   5.777   2.821
 4435TIP3    H113269   0.389   5.750   2.755
 4435TIP3    H213270   0.538   5.766   2.777
 4436TIP3   OH213271   3.557   1.324   1.573
 4436TIP3    H113272   3.555   1.291   1.663
 4436TIP3    H213273   3.629   1.277   1.532
 4437TIP3   OH213274   3.102   2.366   5.721
 4437TIP3    H113275   3.091   2.352   5.815
 4437TIP3    H213276   3.115   2.460   5.711
 4438TIP3   OH213277   6.133   0.547   2.647
 4438TIP3    H113278   6.179   0.466   2.669
 4438TIP3    H213279   6.110   0.585   2.732
 4439TIP3   OH213280   0.197   3.764   0.257
 4439TIP3    H113281   0.259   3.834   0.235
 4439TIP3    H213282   0.171   3.727   0.173
 4440TIP3   OH213283   4.764   4.360   5.412
 4440TIP3    H113284   4.684   4.320   5.448
 4440TIP3    H213285   4.829   4.290   5.415
 4441TIP3   OH213286   5.271   4.679   1.036
 4441TIP3    H113287   5.251   4.747   1.100
 4441TIP3    H213288   5.350   4.637   1.070
 4442TIP3   OH213289   6.464   0.847   4.752
 4442TIP3    H113290   6.512   0.787   4.809
 4442TIP3    H213291   6.531   0.908   4.721
 4443TIP3   OH213292   0.341   0.497   1.456
 4443TIP3    H113293   0.256   0.496   1.500
 4443TIP3    H213294   0.404   0.472   1.524
 4444TIP3   OH213295   5.717   3.846   3.378
 4444TIP3    H113296   5.788   3.849   3.313
 4444TIP3    H213297   5.702   3.752   3.392
 4445TIP3   OH213298   1.236   6.360   2.347
 4445TIP3    H113299   1.154   6.312   2.351
 4445TIP3    H213300   1.279   6.328   2.268
 4446TIP3   OH213301   4.351   5.759   2.419
 4446TIP3    H113302   4.344   5.823   2.348
 4446TIP3    H213303   4.415   5.695   2.388
 4447TIP3   OH213304   7.193   2.207   2.848
 4447TIP3    H113305   7.225   2.185   2.935
 4447TIP3    H213306   7.129   2.277   2.863
 4448TIP3   OH213307   2.118   3.791   3.524
 4448TIP3    H113308   2.206   3.805   3.559
 4448TIP3    H213309   2.101   3.698   3.540
 4449TIP3   OH213310   5.130   1.639   4.407
 4449TIP3    H113311   5.147   1.616   4.498
 4449TIP3    H213312   5.138   1.556   4.359
 4450TIP3   OH213313   1.312   6.286   1.639
 4450TIP3    H113314   1.346   6.265   1.726
 4450TIP3    H213315   1.283   6.202   1.604
 4451TIP3   OH213316   4.735   0.965   3.681
 4451TIP3    H113317   4.695   0.901   3.740
 4451TIP3    H213318   4.818   0.988   3.723
 4452TIP3   OH213319   0.032   2.463   0.900
 4452TIP3    H113320  -0.033   2.509   0.847
 4452TIP3    H213321   0.014   2.493   0.990
 4453TIP3   OH213322   4.762   3.875   1.574
 4453TIP3    H113323   4.754   3.962   1.614
 4453TIP3    H213324   4.765   3.892   1.480
 4454TIP3   OH213325   5.230   1.410   4.218
 4454TIP3    H113326   5.206   1.357   4.142
 4454TIP3    H213327   5.181   1.371   4.291
 4455TIP3   OH213328   0.239   6.055   1.957
 4455TIP3    H113329   0.229   6.060   2.052
 4455TIP3    H213330   0.253   5.962   1.939
 4456TIP3   OH213331   4.163   2.064   1.996
 4456TIP3    H113332   4.143   2.027   2.083
 4456TIP3    H213333   4.206   2.148   2.015
 4457TIP3   OH213334   5.256   6.438   2.211
 4457TIP3    H113335   5.238   6.532   2.209
 4457TIP3    H213336   5.329   6.430   2.273
 4458TIP3   OH213337   6.436   1.848   1.866
 4458TIP3    H113338   6.470   1.772   1.914
 4458TIP3    H213339   6.399   1.905   1.934
 4459TIP3   OH213340   3.837   6.507   0.581
 4459TIP3    H113341   3.752   6.547   0.563
 4459TIP3    H213342   3.815   6.426   0.628
 4460TIP3   OH213343   5.595   2.556   0.536
 4460TIP3    H113344   5.681   2.593   0.555
 4460TIP3    H213345   5.605   2.462   0.549
 4461TIP3   OH213346   1.929   0.788   1.888
 4461TIP3    H113347   1.951   0.851   1.819
 4461TIP3    H213348   1.860   0.734   1.850
 4462TIP3   OH213349   1.154   0.879   2.138
 4462TIP3    H113350   1.071   0.861   2.181
 4462TIP3    H213351   1.132   0.941   2.067
 4463TIP3   OH213352   4.137   2.858   3.840
 4463TIP3    H113353   4.167   2.938   3.883
 4463TIP3    H213354   4.043   2.857   3.852
 4464TIP3   OH213355   4.242   2.626   3.746
 4464TIP3    H113356   4.217   2.718   3.745
 4464TIP3    H213357   4.169   2.581   3.703
 4465TIP3   OH213358   1.208   4.942   3.660
 4465TIP3    H113359   1.197   4.930   3.566
 4465TIP3    H213360   1.150   5.015   3.681
 4466TIP3   OH213361   2.249   5.956   4.653
 4466TIP3    H113362   2.237   5.869   4.616
 4466TIP3    H213363   2.160   5.988   4.668
 4467TIP3   OH213364   2.015   0.835   2.818
 4467TIP3    H113365   1.953   0.778   2.864
 4467TIP3    H213366   2.055   0.888   2.888
 4468TIP3   OH213367   1.745   5.477   4.219
 4468TIP3    H113368   1.715   5.402   4.168
 4468TIP3    H213369   1.792   5.438   4.293
 4469TIP3   OH213370   3.714   0.509   4.073
 4469TIP3    H113371   3.726   0.453   3.995
 4469TIP3    H213372   3.654   0.578   4.044
 4470TIP3   OH213373   4.847   6.746   1.352
 4470TIP3    H113374   4.933   6.706   1.357
 4470TIP3    H213375   4.842   6.804   1.428
 4471TIP3   OH213376   0.698   1.731   3.416
 4471TIP3    H113377   0.789   1.705   3.432
 4471TIP3    H213378   0.678   1.695   3.330
 4472TIP3   OH213379   7.112   2.083   1.771
 4472TIP3    H113380   7.179   2.019   1.795
 4472TIP3    H213381   7.107   2.078   1.675
 4473TIP3   OH213382   4.192   0.984   0.224
 4473TIP3    H113383   4.274   0.992   0.175
 4473TIP3    H213384   4.213   1.020   0.311
 4474TIP3   OH213385   1.774   5.169   1.339
 4474TIP3    H113386   1.719   5.172   1.417
 4474TIP3    H213387   1.862   5.148   1.372
 4475TIP3   OH213388   1.349   5.265   2.803
 4475TIP3    H113389   1.367   5.281   2.710
 4475TIP3    H213390   1.281   5.329   2.825
 4476TIP3   OH213391   3.323   6.678   1.504
 4476TIP3    H113392   3.409   6.674   1.463
 4476TIP3    H213393   3.320   6.764   1.546
 4477TIP3   OH213394   3.761   5.580   4.905
 4477TIP3    H113395   3.839   5.576   4.960
 4477TIP3    H213396   3.692   5.612   4.963
 4478TIP3   OH213397   5.908   6.133   4.187
 4478TIP3    H113398   5.859   6.207   4.151
 4478TIP3    H213399   5.936   6.083   4.110
 4479TIP3   OH213400   4.606   3.848   4.839
 4479TIP3    H113401   4.576   3.765   4.876
 4479TIP3    H213402   4.577   3.914   4.902
 4480TIP3   OH213403   0.638   5.067   0.105
 4480TIP3    H113404   0.602   5.069   0.194
 4480TIP3    H213405   0.569   5.028   0.052
 4481TIP3   OH213406   0.912   5.843   0.058
 4481TIP3    H113407   0.858   5.879   0.128
 4481TIP3    H213408   0.851   5.796   0.002
 4482TIP3   OH213409   5.649   2.224   1.877
 4482TIP3    H113410   5.620   2.240   1.788
 4482TIP3    H213411   5.627   2.304   1.925
 4483TIP3   OH213412   6.648   2.180   3.895
 4483TIP3    H113413   6.667   2.209   3.984
 4483TIP3    H213414   6.733   2.156   3.859
 4484TIP3   OH213415   4.761   3.099   0.888
 4484TIP3    H113416   4.734   3.132   0.803
 4484TIP3    H213417   4.749   3.004   0.883
 4485TIP3   OH213418   3.941   3.594   5.120
 4485TIP3    H113419   3.946   3.628   5.209
 4485TIP3    H213420   4.031   3.566   5.100
 4486TIP3   OH213421   3.581   0.177   1.687
 4486TIP3    H113422   3.500   0.158   1.639
 4486TIP3    H213423   3.648   0.183   1.620
 4487TIP3   OH213424   0.809   6.428   2.584
 4487TIP3    H113425   0.829   6.357   2.646
 4487TIP3    H213426   0.856   6.504   2.619
 4488TIP3   OH213427   4.459   6.571   0.143
 4488TIP3    H113428   4.392   6.574   0.211
 4488TIP3    H213429   4.530   6.626   0.177
 4489TIP3   OH213430   2.650   2.650   1.036
 4489TIP3    H113431   2.724   2.591   1.022
 4489TIP3    H213432   2.640   2.695   0.952
 4490TIP3   OH213433   6.316   1.524   2.376
 4490TIP3    H113434   6.294   1.582   2.448
 4490TIP3    H213435   6.400   1.557   2.343
 4491TIP3   OH213436   3.107   5.816   3.206
 4491TIP3    H113437   3.113   5.819   3.111
 4491TIP3    H213438   3.038   5.879   3.228
 4492TIP3   OH213439   1.321   6.096   2.241
 4492TIP3    H113440   1.412   6.095   2.211
 4492TIP3    H213441   1.327   6.086   2.336
 4493TIP3   OH213442   3.369   2.453   1.914
 4493TIP3    H113443   3.379   2.548   1.919
 4493TIP3    H213444   3.274   2.440   1.902
 4494TIP3   OH213445   5.615   6.107   0.157
 4494TIP3    H113446   5.626   6.087   0.064
 4494TIP3    H213447   5.530   6.151   0.162
 4495TIP3   OH213448   1.304   0.629   4.518
 4495TIP3    H113449   1.322   0.545   4.561
 4495TIP3    H213450   1.234   0.609   4.456
 4496TIP3   OH213451   2.667   6.580   3.645
 4496TIP3    H113452   2.753   6.619   3.629
 4496TIP3    H213453   2.686   6.502   3.698
 4497TIP3   OH213454   1.392   1.464   0.571
 4497TIP3    H113455   1.321   1.403   0.590
 4497TIP3    H213456   1.419   1.497   0.656
 4498TIP3   OH213457   2.877   5.163   4.952
 4498TIP3    H113458   2.961   5.206   4.965
 4498TIP3    H213459   2.899   5.077   4.915
 4499TIP3   OH213460   3.193   1.556   1.904
 4499TIP3    H113461   3.144   1.575   1.984
 4499TIP3    H213462   3.284   1.574   1.927
 4500TIP3   OH213463   2.089   4.689   3.883
 4500TIP3    H113464   2.100   4.698   3.788
 4500TIP3    H213465   2.088   4.595   3.898
 4501TIP3   OH213466   6.796   3.921   4.526
 4501TIP3    H113467   6.773   4.008   4.494
 4501TIP3    H213468   6.758   3.917   4.614
 4502TIP3   OH213469   1.912   4.560   2.464
 4502TIP3    H113470   1.969   4.554   2.387
 4502TIP3    H213471   1.929   4.646   2.501
 4503TIP3   OH213472   0.334   1.731   1.434
 4503TIP3    H113473   0.324   1.818   1.471
 4503TIP3    H213474   0.289   1.673   1.496
 4504TIP3   OH213475   0.264   5.413   2.384
 4504TIP3    H113476   0.251   5.495   2.337
 4504TIP3    H213477   0.226   5.429   2.471
 4505TIP3   OH213478   2.602   1.945   4.397
 4505TIP3    H113479   2.624   1.971   4.308
 4505TIP3    H213480   2.652   1.864   4.412
 4506TIP3   OH213481   5.062   3.123   1.414
 4506TIP3    H113482   5.097   3.212   1.409
 4506TIP3    H213483   4.969   3.132   1.398
 4507TIP3   OH213484   6.241   0.075   3.341
 4507TIP3    H113485   6.207   0.011   3.278
 4507TIP3    H213486   6.336   0.065   3.336
 4508TIP3   OH213487   6.625   2.934   3.092
 4508TIP3    H113488   6.542   2.885   3.095
 4508TIP3    H213489   6.615   2.990   3.015
 4509TIP3   OH213490   6.501   3.092   4.471
 4509TIP3    H113491   6.514   3.011   4.521
 4509TIP3    H213492   6.589   3.129   4.462
 4510TIP3   OH213493   1.712   1.135   1.652
 4510TIP3    H113494   1.779   1.068   1.662
 4510TIP3    H213495   1.644   1.111   1.715
 4511TIP3   OH213496   4.599   3.776   2.739
 4511TIP3    H113497   4.578   3.735   2.655
 4511TIP3    H213498   4.552   3.723   2.804
 4512TIP3   OH213499   2.578   2.674   2.712
 4512TIP3    H113500   2.600   2.581   2.717
 4512TIP3    H213501   2.655   2.718   2.748
 4513TIP3   OH213502   4.118   5.682   1.780
 4513TIP3    H113503   4.188   5.743   1.755
 4513TIP3    H213504   4.040   5.736   1.782
 4514TIP3   OH213505   0.137   5.545   0.814
 4514TIP3    H113506   0.056   5.584   0.845
 4514TIP3    H213507   0.172   5.609   0.752
 4515TIP3   OH213508   2.972   5.147   4.362
 4515TIP3    H113509   2.969   5.174   4.270
 4515TIP3    H213510   2.982   5.228   4.411
 4516TIP3   OH213511   0.855   2.083   0.484
 4516TIP3    H113512   0.784   2.147   0.492
 4516TIP3    H213513   0.825   2.022   0.416
 4517TIP3   OH213514   2.744   5.228   3.394
 4517TIP3    H113515   2.690   5.227   3.472
 4517TIP3    H213516   2.682   5.219   3.321
 4518TIP3   OH213517   1.549   1.718   2.058
 4518TIP3    H113518   1.569   1.626   2.076
 4518TIP3    H213519   1.578   1.732   1.968
 4519TIP3   OH213520   4.752   4.443   5.136
 4519TIP3    H113521   4.746   4.425   5.230
 4519TIP3    H213522   4.795   4.529   5.131
 4520TIP3   OH213523   1.980   3.051   5.677
 4520TIP3    H113524   1.945   3.003   5.602
 4520TIP3    H213525   2.075   3.049   5.665
 4521TIP3   OH213526   1.389   3.408   0.546
 4521TIP3    H113527   1.385   3.453   0.631
 4521TIP3    H213528   1.481   3.384   0.536
 4522TIP3   OH213529   5.219   0.133   5.629
 4522TIP3    H113530   5.175   0.066   5.682
 4522TIP3    H213531   5.280   0.084   5.574
 4523TIP3   OH213532   1.101   2.994   4.082
 4523TIP3    H113533   1.007   2.975   4.072
 4523TIP3    H213534   1.110   3.024   4.173
 4524TIP3   OH213535   6.716   4.600   5.104
 4524TIP3    H113536   6.664   4.667   5.060
 4524TIP3    H213537   6.653   4.550   5.156
 4525TIP3   OH213538   2.022   6.343   3.731
 4525TIP3    H113539   2.018   6.281   3.659
 4525TIP3    H213540   2.087   6.408   3.703
 4526TIP3   OH213541   1.215   2.462   0.887
 4526TIP3    H113542   1.233   2.369   0.870
 4526TIP3    H213543   1.250   2.477   0.975
 4527TIP3   OH213544   4.092   0.029   4.593
 4527TIP3    H113545   4.151  -0.027   4.543
 4527TIP3    H213546   4.021   0.050   4.532
 4528TIP3   OH213547   2.742   6.118   1.845
 4528TIP3    H113548   2.708   6.207   1.835
 4528TIP3    H213549   2.789   6.120   1.929
 4529TIP3   OH213550   2.701   4.604   3.535
 4529TIP3    H113551   2.610   4.632   3.537
 4529TIP3    H213552   2.751   4.685   3.524
 4530TIP3   OH213553   6.933   6.579   4.602
 4530TIP3    H113554   6.967   6.506   4.550
 4530TIP3    H213555   6.844   6.593   4.568
 4531TIP3   OH213556   3.659   5.215   0.079
 4531TIP3    H113557   3.684   5.281   0.144
 4531TIP3    H213558   3.564   5.209   0.087
 4532TIP3   OH213559   2.936   1.335   0.663
 4532TIP3    H113560   2.904   1.368   0.579
 4532TIP3    H213561   2.930   1.410   0.722
 4533TIP3   OH213562   6.141   5.793   1.308
 4533TIP3    H113563   6.220   5.827   1.349
 4533TIP3    H213564   6.075   5.797   1.377
 4534TIP3   OH213565   2.346   3.566   3.798
 4534TIP3    H113566   2.330   3.502   3.867
 4534TIP3    H213567   2.292   3.536   3.725
 4535TIP3   OH213568   5.539   3.535   3.619
 4535TIP3    H113569   5.517   3.485   3.540
 4535TIP3    H213570   5.536   3.471   3.690
 4536TIP3   OH213571   2.327   1.079   0.792
 4536TIP3    H113572   2.272   1.045   0.721
 4536TIP3    H213573   2.335   1.006   0.853
 4537TIP3   OH213574   1.256   5.205   0.243
 4537TIP3    H113575   1.309   5.248   0.310
 4537TIP3    H213576   1.165   5.220   0.271
 4538TIP3   OH213577   6.323   3.582   3.580
 4538TIP3    H113578   6.332   3.504   3.634
 4538TIP3    H213579   6.336   3.552   3.491
 4539TIP3   OH213580   6.395   6.767   4.738
 4539TIP3    H113581   6.381   6.676   4.713
 4539TIP3    H213582   6.379   6.768   4.833
 4540TIP3   OH213583   3.551   0.973   4.206
 4540TIP3    H113584   3.542   0.931   4.120
 4540TIP3    H213585   3.482   1.039   4.208
 4541TIP3   OH213586   3.170   0.801   0.145
 4541TIP3    H113587   3.212   0.855   0.079
 4541TIP3    H213588   3.136   0.725   0.097
 4542TIP3   OH213589   5.557   4.753   0.946
 4542TIP3    H113590   5.542   4.675   0.999
 4542TIP3    H213591   5.602   4.720   0.868
 4543TIP3   OH213592   1.262   1.856   0.734
 4543TIP3    H113593   1.197   1.835   0.801
 4543TIP3    H213594   1.217   1.917   0.675
 4544TIP3   OH213595   2.671   1.004   2.573
 4544TIP3    H113596   2.676   1.066   2.646
 4544TIP3    H213597   2.582   0.968   2.579
 4545TIP3   OH213598   3.895   3.583   4.800
 4545TIP3    H113599   3.908   3.594   4.894
 4545TIP3    H213600   3.808   3.618   4.783
 4546TIP3   OH213601   5.063   5.667   0.730
 4546TIP3    H113602   5.142   5.656   0.678
 4546TIP3    H213603   5.009   5.591   0.710
 4547TIP3   OH213604   5.754   3.925   5.785
 4547TIP3    H113605   5.689   3.995   5.794
 4547TIP3    H213606   5.781   3.906   5.874
 4548TIP3   OH213607   2.980   2.342   2.436
 4548TIP3    H113608   2.938   2.266   2.476
 4548TIP3    H213609   2.934   2.355   2.353
 4549TIP3   OH213610   2.068   5.376   0.138
 4549TIP3    H113611   2.120   5.300   0.164
 4549TIP3    H213612   1.998   5.381   0.203
 4550TIP3   OH213613   5.409   6.054   1.349
 4550TIP3    H113614   5.409   6.003   1.430
 4550TIP3    H213615   5.444   6.139   1.376
 4551TIP3   OH213616   4.968   6.239   2.558
 4551TIP3    H113617   4.884   6.196   2.577
 4551TIP3    H213618   4.973   6.241   2.463
 4552TIP3   OH213619   0.120   0.986   3.433
 4552TIP3    H113620   0.078   0.962   3.516
 4552TIP3    H213621   0.090   1.075   3.416
 4553TIP3   OH213622   0.217   2.174   1.265
 4553TIP3    H113623   0.308   2.155   1.239
 4553TIP3    H213624   0.165   2.109   1.219
 4554TIP3   OH213625   0.891   3.794   5.763
 4554TIP3    H113626   0.810   3.742   5.759
 4554TIP3    H213627   0.908   3.803   5.857
 4555TIP3   OH213628   6.307   1.984   0.871
 4555TIP3    H113629   6.369   2.057   0.875
 4555TIP3    H213630   6.275   1.984   0.781
 4556TIP3   OH213631   2.148   1.720   3.946
 4556TIP3    H113632   2.063   1.723   3.990
 4556TIP3    H213633   2.130   1.751   3.857
 4557TIP3   OH213634   2.243   6.414   4.839
 4557TIP3    H113635   2.203   6.335   4.803
 4557TIP3    H213636   2.298   6.448   4.769
 4558TIP3   OH213637   0.438   5.178   1.097
 4558TIP3    H113638   0.525   5.205   1.068
 4558TIP3    H213639   0.390   5.260   1.107
 4559TIP3   OH213640   0.954   1.580   2.030
 4559TIP3    H113641   0.905   1.525   1.969
 4559TIP3    H213642   1.020   1.623   1.976
 4560TIP3   OH213643   2.570   0.831   3.461
 4560TIP3    H113644   2.546   0.748   3.501
 4560TIP3    H213645   2.598   0.808   3.372
 4561TIP3   OH213646   5.147   4.829   1.272
 4561TIP3    H113647   5.071   4.774   1.288
 4561TIP3    H213648   5.194   4.830   1.356
 4562TIP3   OH213649   3.617   2.055   2.432
 4562TIP3    H113650   3.681   2.058   2.503
 4562TIP3    H213651   3.639   2.130   2.376
 4563TIP3   OH213652   0.021   5.059   0.065
 4563TIP3    H113653  -0.050   4.995   0.059
 4563TIP3    H213654   0.101   5.008   0.048
 4564TIP3   OH213655   4.441   3.034   5.632
 4564TIP3    H113656   4.483   3.013   5.715
 4564TIP3    H213657   4.481   3.117   5.605
 4565TIP3   OH213658   3.026   6.149   4.293
 4565TIP3    H113659   3.075   6.201   4.230
 4565TIP3    H213660   3.093   6.108   4.348
 4566TIP3   OH213661   1.555   2.876   0.376
 4566TIP3    H113662   1.579   2.841   0.290
 4566TIP3    H213663   1.606   2.957   0.384
 4567TIP3   OH213664   3.579   5.840   4.887
 4567TIP3    H113665   3.609   5.921   4.929
 4567TIP3    H213666   3.545   5.787   4.960
 4568TIP3   OH213667   3.098   6.644   0.444
 4568TIP3    H113668   3.121   6.733   0.417
 4568TIP3    H213669   3.026   6.620   0.386
 4569TIP3   OH213670   0.706   3.125   5.356
 4569TIP3    H113671   0.760   3.053   5.390
 4569TIP3    H213672   0.687   3.178   5.433
 4570TIP3   OH213673   3.902   2.483   5.315
 4570TIP3    H113674   3.900   2.439   5.399
 4570TIP3    H213675   3.992   2.513   5.304
 4571TIP3   OH213676   0.228   0.311   2.819
 4571TIP3    H113677   0.229   0.276   2.908
 4571TIP3    H213678   0.209   0.404   2.830
 4572TIP3   OH213679   3.902   0.012   5.531
 4572TIP3    H113680   3.840   0.084   5.518
 4572TIP3    H213681   3.848  -0.067   5.525
 4573TIP3   OH213682   6.895   1.659   3.432
 4573TIP3    H113683   6.867   1.652   3.523
 4573TIP3    H213684   6.880   1.572   3.396
 4574TIP3   OH213685   4.108   3.566   4.644
 4574TIP3    H113686   4.066   3.565   4.558
 4574TIP3    H213687   4.039   3.588   4.705
 4575TIP3   OH213688   3.220   4.347   5.524
 4575TIP3    H113689   3.183   4.418   5.471
 4575TIP3    H213690   3.308   4.335   5.489
 4576TIP3   OH213691   0.527   2.327   2.803
 4576TIP3    H113692   0.435   2.341   2.827
 4576TIP3    H213693   0.557   2.257   2.861
 4577TIP3   OH213694   4.483   3.632   5.625
 4577TIP3    H113695   4.438   3.716   5.636
 4577TIP3    H213696   4.417   3.566   5.646
 4578TIP3   OH213697   4.978   5.780   0.480
 4578TIP3    H113698   4.943   5.746   0.562
 4578TIP3    H213699   5.003   5.702   0.430
 4579TIP3   OH213700   0.683   2.754   1.796
 4579TIP3    H113701   0.597   2.789   1.774
 4579TIP3    H213702   0.742   2.829   1.786
 4580TIP3   OH213703   5.727   2.322   1.204
 4580TIP3    H113704   5.653   2.276   1.164
 4580TIP3    H213705   5.787   2.338   1.131
 4581TIP3   OH213706   2.268   0.203   1.013
 4581TIP3    H113707   2.361   0.225   1.023
 4581TIP3    H213708   2.269   0.115   0.975
 4582TIP3   OH213709   4.977   5.931   0.809
 4582TIP3    H113710   5.013   5.844   0.794
 4582TIP3    H213711   5.036   5.971   0.873
 4583TIP3   OH213712   4.250   4.075   0.633
 4583TIP3    H113713   4.312   4.146   0.615
 4583TIP3    H213714   4.302   3.995   0.623
 4584TIP3   OH213715   3.721   4.379   1.954
 4584TIP3    H113716   3.766   4.444   1.901
 4584TIP3    H213717   3.629   4.406   1.953
 4585TIP3   OH213718   6.630   0.381   0.492
 4585TIP3    H113719   6.714   0.335   0.485
 4585TIP3    H213720   6.599   0.360   0.580
 4586TIP3   OH213721   0.939   1.725   4.627
 4586TIP3    H113722   0.978   1.643   4.599
 4586TIP3    H213723   0.849   1.722   4.595
 4587TIP3   OH213724   5.594   4.656   0.235
 4587TIP3    H113725   5.667   4.653   0.174
 4587TIP3    H213726   5.536   4.724   0.199
 4588TIP3   OH213727   0.305   0.059   1.212
 4588TIP3    H113728   0.335  -0.024   1.174
 4588TIP3    H213729   0.352   0.126   1.162
 4589TIP3   OH213730   2.169   1.848   1.991
 4589TIP3    H113731   2.148   1.858   2.083
 4589TIP3    H213732   2.261   1.875   1.984
 4590TIP3   OH213733   3.553   1.297   5.249
 4590TIP3    H113734   3.545   1.330   5.159
 4590TIP3    H213735   3.481   1.337   5.296
 4591TIP3   OH213736   4.269   1.093   1.155
 4591TIP3    H113737   4.199   1.113   1.093
 4591TIP3    H213738   4.349   1.099   1.103
 4592TIP3   OH213739   2.884   0.016   4.768
 4592TIP3    H113740   2.865  -0.057   4.709
 4592TIP3    H213741   2.799   0.044   4.800
 4593TIP3   OH213742   0.480   3.530   4.228
 4593TIP3    H113743   0.395   3.542   4.270
 4593TIP3    H213744   0.460   3.485   4.146
 4594TIP3   OH213745   3.521   1.577   4.626
 4594TIP3    H113746   3.477   1.604   4.707
 4594TIP3    H213747   3.598   1.528   4.655
 4595TIP3   OH213748   0.800   2.171   3.332
 4595TIP3    H113749   0.724   2.150   3.385
 4595TIP3    H213750   0.836   2.086   3.308
 4596TIP3   OH213751   6.659   6.538   3.465
 4596TIP3    H113752   6.738   6.487   3.482
 4596TIP3    H213753   6.588   6.486   3.503
 4597TIP3   OH213754   3.642   3.869   5.151
 4597TIP3    H113755   3.697   3.869   5.229
 4597TIP3    H213756   3.693   3.823   5.085
 4598TIP3   OH213757   6.489   1.252   0.200
 4598TIP3    H113758   6.404   1.253   0.158
 4598TIP3    H213759   6.546   1.303   0.143
 4599TIP3   OH213760   4.275   3.622   0.679
 4599TIP3    H113761   4.262   3.609   0.585
 4599TIP3    H213762   4.187   3.620   0.716
 4600TIP3   OH213763   2.992   3.124   5.881
 4600TIP3    H113764   3.025   3.082   5.801
 4600TIP3    H213765   3.068   3.166   5.919
 4601TIP3   OH213766   3.008   4.717   5.764
 4601TIP3    H113767   2.942   4.753   5.705
 4601TIP3    H213768   3.070   4.788   5.778
 4602TIP3   OH213769   1.746   0.939   1.240
 4602TIP3    H113770   1.651   0.939   1.229
 4602TIP3    H213771   1.761   0.884   1.316
 4603TIP3   OH213772   6.944   3.961   1.453
 4603TIP3    H113773   7.016   4.008   1.495
 4603TIP3    H213774   6.966   3.868   1.466
 4604TIP3   OH213775   6.074   4.751   5.169
 4604TIP3    H113776   6.072   4.660   5.140
 4604TIP3    H213777   6.073   4.802   5.089
 4605TIP3   OH213778   4.179   6.259   0.139
 4605TIP3    H113779   4.247   6.192   0.146
 4605TIP3    H213780   4.147   6.270   0.229
 4606TIP3   OH213781   6.285   3.038   1.978
 4606TIP3    H113782   6.292   3.109   2.043
 4606TIP3    H213783   6.372   3.033   1.939
 4607TIP3   OH213784   6.701   0.338   2.819
 4607TIP3    H113785   6.738   0.249   2.820
 4607TIP3    H213786   6.670   0.349   2.729
 4608TIP3   OH213787   6.251   3.460   4.237
 4608TIP3    H113788   6.176   3.402   4.228
 4608TIP3    H213789   6.214   3.547   4.251
 4609TIP3   OH213790   0.239   2.962   4.032
 4609TIP3    H113791   0.230   2.916   4.115
 4609TIP3    H213792   0.333   2.956   4.012
 4610TIP3   OH213793   2.943   3.681   5.264
 4610TIP3    H113794   2.902   3.602   5.227
 4610TIP3    H213795   2.931   3.748   5.196
 4611TIP3   OH213796   4.847   1.990   3.456
 4611TIP3    H113797   4.815   2.053   3.392
 4611TIP3    H213798   4.808   2.019   3.539
 4612TIP3   OH213799   6.759   1.836   3.821
 4612TIP3    H113800   6.768   1.772   3.750
 4612TIP3    H213801   6.819   1.907   3.798
 4613TIP3   OH213802   1.616   4.596   1.456
 4613TIP3    H113803   1.624   4.690   1.469
 4613TIP3    H213804   1.630   4.583   1.362
 4614TIP3   OH213805   6.050   5.700   5.365
 4614TIP3    H113806   6.113   5.628   5.370
 4614TIP3    H213807   6.027   5.719   5.456
 4615TIP3   OH213808   5.785   0.590   4.505
 4615TIP3    H113809   5.787   0.617   4.597
 4615TIP3    H213810   5.781   0.495   4.508
 4616TIP3   OH213811   2.707   4.316   2.331
 4616TIP3    H113812   2.761   4.281   2.260
 4616TIP3    H213813   2.690   4.240   2.387
 4617TIP3   OH213814   1.685   5.723   4.069
 4617TIP3    H113815   1.721   5.649   4.117
 4617TIP3    H213816   1.649   5.781   4.137
 4618TIP3   OH213817   4.440   5.005   5.184
 4618TIP3    H113818   4.525   5.047   5.198
 4618TIP3    H213819   4.410   5.038   5.099
 4619TIP3   OH213820   5.022   4.002   2.402
 4619TIP3    H113821   5.053   3.976   2.489
 4619TIP3    H213822   4.942   4.051   2.419
 4620TIP3   OH213823   0.748   2.693   4.225
 4620TIP3    H113824   0.654   2.686   4.238
 4620TIP3    H213825   0.785   2.624   4.280
 4621TIP3   OH213826   0.490   6.307   0.283
 4621TIP3    H113827   0.408   6.261   0.264
 4621TIP3    H213828   0.479   6.340   0.371
 4622TIP3   OH213829   3.221   6.297   4.164
 4622TIP3    H113830   3.295   6.245   4.132
 4622TIP3    H213831   3.242   6.317   4.255
 4623TIP3   OH213832   0.254   4.931   4.194
 4623TIP3    H113833   0.267   4.987   4.117
 4623TIP3    H213834   0.166   4.954   4.224
 4624TIP3   OH213835   0.059   3.966   0.077
 4624TIP3    H113836   0.077   4.037   0.138
 4624TIP3    H213837   0.094   3.997  -0.007
 4625TIP3   OH213838   0.049   4.678   0.443
 4625TIP3    H113839  -0.024   4.617   0.433
 4625TIP3    H213840   0.119   4.641   0.390
 4626TIP3   OH213841   0.458   5.898   2.164
 4626TIP3    H113842   0.486   5.880   2.254
 4626TIP3    H213843   0.365   5.920   2.172
 4627TIP3   OH213844   7.070   4.729   4.232
 4627TIP3    H113845   7.105   4.815   4.256
 4627TIP3    H213846   7.146   4.671   4.231
 4628TIP3   OH213847   2.633   5.043   0.598
 4628TIP3    H113848   2.578   5.007   0.528
 4628TIP3    H213849   2.573   5.054   0.671
 4629TIP3   OH213850   6.255   6.157   1.967
 4629TIP3    H113851   6.255   6.251   1.986
 4629TIP3    H213852   6.328   6.145   1.907
 4630TIP3   OH213853   7.122   4.342   1.209
 4630TIP3    H113854   7.059   4.285   1.252
 4630TIP3    H213855   7.208   4.309   1.236
 4631TIP3   OH213856   3.236   6.660   1.208
 4631TIP3    H113857   3.227   6.639   1.114
 4631TIP3    H213858   3.288   6.740   1.209
 4632TIP3   OH213859   3.709   2.317   4.309
 4632TIP3    H113860   3.740   2.406   4.290
 4632TIP3    H213861   3.685   2.282   4.223
 4633TIP3   OH213862   1.572   1.462   3.754
 4633TIP3    H113863   1.521   1.394   3.710
 4633TIP3    H213864   1.552   1.542   3.706
 4634TIP3   OH213865   1.759   2.261   1.698
 4634TIP3    H113866   1.844   2.294   1.729
 4634TIP3    H213867   1.770   2.166   1.695
 4635TIP3   OH213868   5.444   1.928   4.374
 4635TIP3    H113869   5.408   1.860   4.430
 4635TIP3    H213870   5.370   1.960   4.323
 4636TIP3   OH213871   4.488   5.288   0.933
 4636TIP3    H113872   4.478   5.372   0.978
 4636TIP3    H213873   4.509   5.225   1.002
 4637TIP3   OH213874   0.702   3.721   3.474
 4637TIP3    H113875   0.638   3.730   3.404
 4637TIP3    H213876   0.667   3.776   3.545
 4638TIP3   OH213877   0.716   2.123   5.137
 4638TIP3    H113878   0.739   2.042   5.092
 4638TIP3    H213879   0.629   2.108   5.173
 4639TIP3   OH213880   0.037   1.126   0.038
 4639TIP3    H113881  -0.042   1.168   0.003
 4639TIP3    H213882   0.032   1.141   0.132
 4640TIP3   OH213883   0.354   5.809   1.895
 4640TIP3    H113884   0.443   5.824   1.924
 4640TIP3    H213885   0.362   5.751   1.820
 4641TIP3   OH213886   1.740   1.251   3.053
 4641TIP3    H113887   1.706   1.313   2.989
 4641TIP3    H213888   1.816   1.211   3.011
 4642TIP3   OH213889   4.678   0.605   3.534
 4642TIP3    H113890   4.595   0.558   3.542
 4642TIP3    H213891   4.678   0.667   3.608
 4643TIP3   OH213892   1.775   6.201   3.829
 4643TIP3    H113893   1.825   6.137   3.879
 4643TIP3    H213894   1.833   6.278   3.824
 4644TIP3   OH213895   0.414   2.173   0.621
 4644TIP3    H113896   0.476   2.236   0.586
 4644TIP3    H213897   0.348   2.226   0.666
 4645TIP3   OH213898   1.670   6.231   4.403
 4645TIP3    H113899   1.752   6.259   4.442
 4645TIP3    H213900   1.620   6.311   4.390
 4646TIP3   OH213901   3.673   5.548   5.875
 4646TIP3    H113902   3.600   5.490   5.896
 4646TIP3    H213903   3.726   5.498   5.813
 4647TIP3   OH213904   2.623   0.982   0.901
 4647TIP3    H113905   2.693   0.920   0.921
 4647TIP3    H213906   2.581   0.999   0.985
 4648TIP3   OH213907   2.314   3.675   3.015
 4648TIP3    H113908   2.289   3.751   2.964
 4648TIP3    H213909   2.264   3.603   2.977
 4649TIP3   OH213910   0.465   1.462   3.990
 4649TIP3    H113911   0.388   1.423   4.031
 4649TIP3    H213912   0.430   1.526   3.928
 4650TIP3   OH213913   1.731   0.063   4.537
 4650TIP3    H113914   1.681   0.050   4.617
 4650TIP3    H213915   1.715   0.155   4.514
 4651TIP3   OH213916   4.839   4.408   2.228
 4651TIP3    H113917   4.841   4.440   2.137
 4651TIP3    H213918   4.927   4.375   2.244
 4652TIP3   OH213919   2.842   2.404   1.805
 4652TIP3    H113920   2.809   2.320   1.771
 4652TIP3    H213921   2.769   2.464   1.795
 4653TIP3   OH213922   1.949   5.182   4.181
 4653TIP3    H113923   1.969   5.159   4.090
 4653TIP3    H213924   1.963   5.101   4.230
 4654TIP3   OH213925   3.451   0.547   5.787
 4654TIP3    H113926   3.492   0.470   5.826
 4654TIP3    H213927   3.500   0.621   5.823
 4655TIP3   OH213928   1.665   3.398   2.772
 4655TIP3    H113929   1.640   3.461   2.839
 4655TIP3    H213930   1.596   3.332   2.774
 4656TIP3   OH213931   6.620   1.652   5.670
 4656TIP3    H113932   6.604   1.559   5.650
 4656TIP3    H213933   6.674   1.650   5.749
 4657TIP3   OH213934   2.101   5.974   3.146
 4657TIP3    H113935   2.108   6.070   3.145
 4657TIP3    H213936   2.038   5.956   3.216
 4658TIP3   OH213937   4.921   2.165   1.294
 4658TIP3    H113938   4.846   2.178   1.237
 4658TIP3    H213939   4.920   2.071   1.314
 4659TIP3   OH213940   4.404   1.454   4.208
 4659TIP3    H113941   4.356   1.427   4.287
 4659TIP3    H213942   4.410   1.549   4.216
 4660TIP3   OH213943   6.984   2.386   5.839
 4660TIP3    H113944   7.002   2.293   5.850
 4660TIP3    H213945   6.963   2.418   5.926
 4661TIP3   OH213946   6.996  -0.004   3.571
 4661TIP3    H113947   7.077  -0.016   3.520
 4661TIP3    H213948   7.001   0.087   3.601
 4662TIP3   OH213949   5.954   0.713   3.666
 4662TIP3    H113950   5.924   0.796   3.701
 4662TIP3    H213951   5.883   0.684   3.608
 4663TIP3   OH213952   1.413   2.859   4.889
 4663TIP3    H113953   1.391   2.948   4.917
 4663TIP3    H213954   1.402   2.860   4.794
 4664TIP3   OH213955   1.413   3.594   4.841
 4664TIP3    H113956   1.466   3.612   4.763
 4664TIP3    H213957   1.328   3.567   4.806
 4665TIP3   OH213958   4.337   5.212   3.002
 4665TIP3    H113959   4.318   5.304   2.990
 4665TIP3    H213960   4.251   5.170   3.010
 4666TIP3   OH213961   3.684   0.707   1.806
 4666TIP3    H113962   3.669   0.612   1.814
 4666TIP3    H213963   3.596   0.744   1.795
 4667TIP3   OH213964   2.254   6.401   0.753
 4667TIP3    H113965   2.175   6.374   0.705
 4667TIP3    H213966   2.285   6.320   0.794
 4668TIP3   OH213967   3.987   6.210   4.895
 4668TIP3    H113968   3.898   6.202   4.930
 4668TIP3    H213969   4.015   6.119   4.883
 4669TIP3   OH213970   1.602   5.657   5.686
 4669TIP3    H113971   1.646   5.742   5.690
 4669TIP3    H213972   1.669   5.594   5.712
 4670TIP3   OH213973   4.746   1.584   3.546
 4670TIP3    H113974   4.685   1.656   3.565
 4670TIP3    H213975   4.803   1.620   3.478
 4671TIP3   OH213976   4.007   5.863   4.186
 4671TIP3    H113977   4.056   5.931   4.233
 4671TIP3    H213978   4.068   5.831   4.120
 4672TIP3   OH213979   0.932   4.308   1.568
 4672TIP3    H113980   0.980   4.250   1.628
 4672TIP3    H213981   0.999   4.368   1.536
 4673TIP3   OH213982   1.070   4.103   4.877
 4673TIP3    H113983   0.990   4.145   4.907
 4673TIP3    H213984   1.067   4.016   4.916
 4674TIP3   OH213985   4.183   1.782   3.924
 4674TIP3    H113986   4.241   1.854   3.898
 4674TIP3    H213987   4.219   1.705   3.879
 4675TIP3   OH213988   2.723   5.553   1.250
 4675TIP3    H113989   2.782   5.597   1.188
 4675TIP3    H213990   2.747   5.461   1.244
 4676TIP3   OH213991   1.669   1.689   4.085
 4676TIP3    H113992   1.625   1.604   4.083
 4676TIP3    H213993   1.658   1.724   3.997
 4677TIP3   OH213994   3.990   1.535   3.743
 4677TIP3    H113995   3.906   1.490   3.729
 4677TIP3    H213996   4.001   1.535   3.838
 4678TIP3   OH213997   4.712   0.471   2.762
 4678TIP3    H113998   4.680   0.446   2.849
 4678TIP3    H213999   4.639   0.455   2.703
 4679TIP3   OH214000   6.976   4.883   4.651
 4679TIP3    H114001   6.941   4.889   4.739
 4679TIP3    H214002   6.923   4.815   4.609
 4680TIP3   OH214003   5.828   2.746   2.918
 4680TIP3    H114004   5.740   2.741   2.882
 4680TIP3    H214005   5.863   2.829   2.886
 4681TIP3   OH214006   6.820   0.950   0.623
 4681TIP3    H114007   6.887   0.931   0.689
 4681TIP3    H214008   6.810   0.867   0.576
 4682TIP3   OH214009   0.208   3.436   3.744
 4682TIP3    H114010   0.235   3.348   3.720
 4682TIP3    H214011   0.243   3.449   3.832
 4683TIP3   OH214012   0.934   4.886   5.904
 4683TIP3    H114013   0.930   4.967   5.853
 4683TIP3    H214014   0.947   4.818   5.838
 4684TIP3   OH214015   6.413   1.433   4.292
 4684TIP3    H114016   6.438   1.461   4.380
 4684TIP3    H214017   6.410   1.337   4.297
 4685TIP3   OH214018   2.554   2.763   1.365
 4685TIP3    H114019   2.484   2.740   1.304
 4685TIP3    H214020   2.631   2.772   1.309
 4686TIP3   OH214021   3.992   4.756   4.274
 4686TIP3    H114022   3.913   4.766   4.326
 4686TIP3    H214023   4.058   4.725   4.336
 4687TIP3   OH214024   4.838   4.701   3.490
 4687TIP3    H114025   4.831   4.754   3.411
 4687TIP3    H214026   4.931   4.702   3.512
 4688TIP3   OH214027   6.054   1.198   0.323
 4688TIP3    H114028   6.111   1.238   0.257
 4688TIP3    H214029   5.995   1.142   0.272
 4689TIP3   OH214030   1.375   3.446   2.140
 4689TIP3    H114031   1.368   3.363   2.092
 4689TIP3    H214032   1.336   3.428   2.225
 4690TIP3   OH214033   0.882   2.199   4.907
 4690TIP3    H114034   0.918   2.119   4.868
 4690TIP3    H214035   0.819   2.167   4.972
 4691TIP3   OH214036   5.734   5.111   0.352
 4691TIP3    H114037   5.655   5.092   0.403
 4691TIP3    H214038   5.805   5.107   0.417
 4692TIP3   OH214039   6.502   3.161   0.377
 4692TIP3    H114040   6.561   3.186   0.306
 4692TIP3    H214041   6.484   3.243   0.424
 4693TIP3   OH214042   2.377   1.778   5.291
 4693TIP3    H114043   2.377   1.717   5.217
 4693TIP3    H214044   2.340   1.727   5.364
 4694TIP3   OH214045   4.516   3.126   2.562
 4694TIP3    H114046   4.606   3.130   2.529
 4694TIP3    H214047   4.491   3.218   2.573
 4695TIP3   OH214048   1.682   5.434   2.202
 4695TIP3    H114049   1.653   5.343   2.201
 4695TIP3    H214050   1.727   5.443   2.286
 4696TIP3   OH214051   3.454   4.489   5.695
 4696TIP3    H114052   3.466   4.438   5.615
 4696TIP3    H214053   3.540   4.527   5.713
 4697TIP3   OH214054   0.574   6.071   3.655
 4697TIP3    H114055   0.535   6.097   3.739
 4697TIP3    H214056   0.593   5.978   3.665
 4698TIP3   OH214057   6.291   5.398   4.691
 4698TIP3    H114058   6.340   5.327   4.650
 4698TIP3    H214059   6.358   5.454   4.731
 4699TIP3   OH214060   1.982   0.880   5.159
 4699TIP3    H114061   1.949   0.897   5.070
 4699TIP3    H214062   1.907   0.897   5.216
 4700TIP3   OH214063   0.125   0.537   5.018
 4700TIP3    H114064   0.114   0.603   5.086
 4700TIP3    H214065   0.220   0.532   5.006
 4701TIP3   OH214066   0.242   2.134   3.668
 4701TIP3    H114067   0.203   2.215   3.701
 4701TIP3    H214068   0.330   2.133   3.704
 4702TIP3   OH214069   3.198   4.543   0.982
 4702TIP3    H114070   3.244   4.464   0.954
 4702TIP3    H214071   3.122   4.547   0.924
 4703TIP3   OH214072   2.026   2.104   3.204
 4703TIP3    H114073   2.005   2.068   3.118
 4703TIP3    H214074   2.099   2.164   3.188
 4704TIP3   OH214075   4.349   5.388   0.508
 4704TIP3    H114076   4.406   5.376   0.583
 4704TIP3    H214077   4.408   5.383   0.432
 4705TIP3   OH214078   7.191   5.171   4.141
 4705TIP3    H114079   7.167   5.113   4.213
 4705TIP3    H214080   7.112   5.176   4.087
 4706TIP3   OH214081   6.176   1.062   4.940
 4706TIP3    H114082   6.207   1.010   4.865
 4706TIP3    H214083   6.085   1.083   4.919
 4707TIP3   OH214084   4.467   2.241   0.596
 4707TIP3    H114085   4.432   2.247   0.507
 4707TIP3    H214086   4.499   2.330   0.615
 4708TIP3   OH214087   2.350   2.846   4.092
 4708TIP3    H114088   2.324   2.936   4.110
 4708TIP3    H214089   2.269   2.795   4.103
 4709TIP3   OH214090   4.661   6.624   4.342
 4709TIP3    H114091   4.566   6.635   4.343
 4709TIP3    H214092   4.695   6.713   4.355
 4710TIP3   OH214093   2.734   3.332   0.559
 4710TIP3    H114094   2.794   3.399   0.590
 4710TIP3    H214095   2.657   3.380   0.529
 4711TIP3   OH214096   7.033   2.736   1.765
 4711TIP3    H114097   7.096   2.785   1.712
 4711TIP3    H214098   7.048   2.767   1.854
 4712TIP3   OH214099   3.624   0.120   4.013
 4712TIP3    H114100   3.664   0.172   3.943
 4712TIP3    H214101   3.683   0.045   4.024
 4713TIP3   OH214102   1.709   4.044   1.174
 4713TIP3    H114103   1.780   4.090   1.129
 4713TIP3    H214104   1.629   4.077   1.132
 4714TIP3   OH214105   1.181   2.151   4.680
 4714TIP3    H114106   1.163   2.242   4.657
 4714TIP3    H214107   1.251   2.156   4.746
 4715TIP3   OH214108   6.191   0.706   2.300
 4715TIP3    H114109   6.176   0.662   2.217
 4715TIP3    H214110   6.122   0.674   2.358
 4716TIP3   OH214111   6.129   0.142   4.923
 4716TIP3    H114112   6.112   0.200   4.849
 4716TIP3    H214113   6.134   0.200   4.999
 4717TIP3   OH214114   5.108   4.879   3.712
 4717TIP3    H114115   5.108   4.788   3.681
 4717TIP3    H214116   5.032   4.919   3.670
 4718TIP3   OH214117   4.423   0.170   3.282
 4718TIP3    H114118   4.389   0.254   3.254
 4718TIP3    H214119   4.353   0.132   3.335
 4719TIP3   OH214120   0.779   3.597   2.247
 4719TIP3    H114121   0.872   3.590   2.265
 4719TIP3    H214122   0.771   3.574   2.154
 4720TIP3   OH214123   3.002   1.458   2.679
 4720TIP3    H114124   3.022   1.486   2.768
 4720TIP3    H214125   2.970   1.536   2.635
 4721TIP3   OH214126   2.343   5.936   3.278
 4721TIP3    H114127   2.248   5.931   3.273
 4721TIP3    H214128   2.363   6.028   3.262
 4722TIP3   OH214129   4.753   0.618   1.087
 4722TIP3    H114130   4.658   0.624   1.086
 4722TIP3    H214131   4.775   0.603   1.179
 4723TIP3   OH214132   2.048   2.123   1.060
 4723TIP3    H114133   2.007   2.171   0.988
 4723TIP3    H214134   1.998   2.041   1.064
 4724TIP3   OH214135   3.343   4.230   3.800
 4724TIP3    H114136   3.335   4.149   3.850
 4724TIP3    H214137   3.381   4.202   3.716
 4725TIP3   OH214138   4.621   5.682   2.657
 4725TIP3    H114139   4.699   5.654   2.704
 4725TIP3    H214140   4.646   5.678   2.564
 4726TIP3   OH214141   2.472   6.643   0.803
 4726TIP3    H114142   2.438   6.580   0.867
 4726TIP3    H214143   2.561   6.614   0.785
 4727TIP3   OH214144   4.088   0.101   2.962
 4727TIP3    H114145   4.061   0.158   3.033
 4727TIP3    H214146   4.139   0.032   3.004
 4728TIP3   OH214147   4.683   5.733   4.580
 4728TIP3    H114148   4.673   5.638   4.577
 4728TIP3    H214149   4.777   5.748   4.569
 4729TIP3   OH214150   1.417   5.479   2.285
 4729TIP3    H114151   1.376   5.467   2.200
 4729TIP3    H214152   1.505   5.509   2.266
 4730TIP3   OH214153   4.861   6.003   2.932
 4730TIP3    H114154   4.888   5.911   2.934
 4730TIP3    H214155   4.846   6.022   2.839
 4731TIP3   OH214156   1.679   5.901   5.766
 4731TIP3    H114157   1.713   5.850   5.840
 4731TIP3    H214158   1.757   5.939   5.725
 4732TIP3   OH214159   4.312   0.935   3.569
 4732TIP3    H114160   4.348   0.848   3.587
 4732TIP3    H214161   4.222   0.931   3.602
 4733TIP3   OH214162   6.143   5.497   4.966
 4733TIP3    H114163   6.145   5.438   4.890
 4733TIP3    H214164   6.098   5.575   4.935
 4734TIP3   OH214165   4.944   5.039   1.329
 4734TIP3    H114166   4.962   5.087   1.410
 4734TIP3    H214167   4.990   4.956   1.340
 4735TIP3   OH214168   6.697   2.804   0.609
 4735TIP3    H114169   6.632   2.820   0.676
 4735TIP3    H214170   6.710   2.889   0.567
 4736TIP3   OH214171   6.727   6.387   1.294
 4736TIP3    H114172   6.708   6.475   1.263
 4736TIP3    H214173   6.650   6.363   1.346
 4737TIP3   OH214174   2.438   2.488   5.577
 4737TIP3    H114175   2.493   2.448   5.511
 4737TIP3    H214176   2.458   2.440   5.658
 4738TIP3   OH214177   6.987   0.933   0.354
 4738TIP3    H114178   6.972   0.866   0.420
 4738TIP3    H214179   6.910   0.989   0.357
 4739TIP3   OH214180   5.197   5.333   3.931
 4739TIP3    H114181   5.126   5.397   3.930
 4739TIP3    H214182   5.274   5.384   3.956
 4740TIP3   OH214183   2.210   4.291   2.820
 4740TIP3    H114184   2.218   4.364   2.759
 4740TIP3    H214185   2.206   4.333   2.906
 4741TIP3   OH214186   6.228   1.244   1.009
 4741TIP3    H114187   6.292   1.175   0.988
 4741TIP3    H214188   6.180   1.258   0.928
 4742TIP3   OH214189   3.240   0.715   0.454
 4742TIP3    H114190   3.149   0.690   0.473
 4742TIP3    H214191   3.244   0.721   0.359
 4743TIP3   OH214192   0.496   2.043   3.515
 4743TIP3    H114193   0.574   2.017   3.563
 4743TIP3    H214194   0.436   1.969   3.523
 4744TIP3   OH214195   6.900   1.337   4.229
 4744TIP3    H114196   6.963   1.409   4.227
 4744TIP3    H214197   6.817   1.377   4.202
 4745TIP3   OH214198   4.304   6.202   3.711
 4745TIP3    H114199   4.396   6.190   3.735
 4745TIP3    H214200   4.271   6.113   3.699
 4746TIP3   OH214201   5.870   2.779   1.881
 4746TIP3    H114202   5.866   2.690   1.846
 4746TIP3    H214203   5.963   2.800   1.882
 4747TIP3   OH214204   2.050   5.884   0.189
 4747TIP3    H114205   2.079   5.970   0.158
 4747TIP3    H214206   1.955   5.886   0.181
 4748TIP3   OH214207   1.457   5.697   2.800
 4748TIP3    H114208   1.484   5.614   2.760
 4748TIP3    H214209   1.375   5.719   2.756
 4749TIP3   OH214210   4.581   4.214   0.834
 4749TIP3    H114211   4.635   4.187   0.760
 4749TIP3    H214212   4.624   4.294   0.866
 4750TIP3   OH214213   5.403   1.477   1.035
 4750TIP3    H114214   5.313   1.449   1.051
 4750TIP3    H214215   5.457   1.405   1.066
 4751TIP3   OH214216   3.521   1.179   5.554
 4751TIP3    H114217   3.583   1.107   5.550
 4751TIP3    H214218   3.520   1.216   5.466
 4752TIP3   OH214219   2.907   3.285   1.602
 4752TIP3    H114220   2.954   3.203   1.589
 4752TIP3    H214221   2.842   3.287   1.532
 4753TIP3   OH214222   6.034   5.767   5.639
 4753TIP3    H114223   6.062   5.844   5.690
 4753TIP3    H214224   5.945   5.750   5.668
 4754TIP3   OH214225   2.117   0.951   2.357
 4754TIP3    H114226   2.022   0.940   2.363
 4754TIP3    H214227   2.145   0.965   2.448
 4755TIP3   OH214228   2.894   4.513   0.534
 4755TIP3    H114229   2.960   4.448   0.509
 4755TIP3    H214230   2.861   4.546   0.450
 4756TIP3   OH214231   2.051   6.714   1.738
 4756TIP3    H114232   2.061   6.748   1.649
 4756TIP3    H214233   2.049   6.792   1.794
 4757TIP3   OH214234   0.444   4.933   0.352
 4757TIP3    H114235   0.396   4.984   0.286
 4757TIP3    H214236   0.400   4.953   0.435
 4758TIP3   OH214237   2.526   3.145   1.882
 4758TIP3    H114238   2.545   3.138   1.975
 4758TIP3    H214239   2.520   3.240   1.866
 4759TIP3   OH214240   3.634   3.237   0.969
 4759TIP3    H114241   3.550   3.195   0.953
 4759TIP3    H214242   3.613   3.314   1.021
 4760TIP3   OH214243   3.227   5.304   0.413
 4760TIP3    H114244   3.272   5.226   0.444
 4760TIP3    H214245   3.286   5.376   0.438
 4761TIP3   OH214246   0.386   3.945   0.110
 4761TIP3    H114247   0.380   3.892   0.030
 4761TIP3    H214248   0.451   4.012   0.089
 4762TIP3   OH214249   6.066   3.182   1.872
 4762TIP3    H114250   6.089   3.220   1.788
 4762TIP3    H214251   6.148   3.147   1.906
 4763TIP3   OH214252   0.562   6.180   4.540
 4763TIP3    H114253   0.634   6.117   4.534
 4763TIP3    H214254   0.494   6.145   4.482
 4764TIP3   OH214255   5.360   5.812   2.945
 4764TIP3    H114256   5.357   5.863   2.864
 4764TIP3    H214257   5.331   5.874   3.013
 4765TIP3   OH214258   2.869   6.556   5.042
 4765TIP3    H114259   2.949   6.592   5.005
 4765TIP3    H214260   2.817   6.530   4.966
 4766TIP3   OH214261   4.141   5.218   2.237
 4766TIP3    H114262   4.135   5.175   2.152
 4766TIP3    H214263   4.060   5.270   2.243
 4767TIP3   OH214264   2.774   3.204   0.291
 4767TIP3    H114265   2.798   3.232   0.379
 4767TIP3    H214266   2.698   3.148   0.303
 4768TIP3   OH214267   4.213   6.727   2.348
 4768TIP3    H114268   4.275   6.667   2.306
 4768TIP3    H214269   4.131   6.678   2.353
 4769TIP3   OH214270   1.328   0.063   4.952
 4769TIP3    H114271   1.310  -0.028   4.978
 4769TIP3    H214272   1.242   0.103   4.942
 4770TIP3   OH214273   4.432   1.570   1.232
 4770TIP3    H114274   4.448   1.560   1.326
 4770TIP3    H214275   4.350   1.523   1.217
 4771TIP3   OH214276   6.705   3.302   4.481
 4771TIP3    H114277   6.765   3.369   4.513
 4771TIP3    H214278   6.650   3.348   4.418
 4772TIP3   OH214279   2.622   4.773   4.423
 4772TIP3    H114280   2.543   4.791   4.371
 4772TIP3    H214281   2.685   4.838   4.395
 4773TIP3   OH214282   5.673   4.644   5.834
 4773TIP3    H114283   5.618   4.566   5.826
 4773TIP3    H214284   5.640   4.689   5.912
 4774TIP3   OH214285   0.640   0.286   5.718
 4774TIP3    H114286   0.710   0.333   5.763
 4774TIP3    H214287   0.560   0.326   5.752
 4775TIP3   OH214288   2.968   4.414   5.753
 4775TIP3    H114289   2.970   4.507   5.732
 4775TIP3    H214290   2.988   4.370   5.670
 4776TIP3   OH214291   5.912   2.210   1.725
 4776TIP3    H114292   5.977   2.200   1.794
 4776TIP3    H214293   5.828   2.215   1.770
 4777TIP3   OH214294   1.409   3.109   3.217
 4777TIP3    H114295   1.408   3.165   3.295
 4777TIP3    H214296   1.346   3.150   3.157
 4778TIP3   OH214297   1.110   4.881   4.998
 4778TIP3    H114298   1.057   4.802   4.997
 4778TIP3    H214299   1.048   4.952   4.979
 4779TIP3   OH214300   2.643   0.211   1.051
 4779TIP3    H114301   2.682   0.125   1.070
 4779TIP3    H214302   2.619   0.246   1.136
 4780TIP3   OH214303   3.144   0.965   3.882
 4780TIP3    H114304   3.074   0.999   3.826
 4780TIP3    H214305   3.122   0.998   3.969
 4781TIP3   OH214306   6.977   1.723   1.101
 4781TIP3    H114307   7.033   1.784   1.149
 4781TIP3    H214308   6.893   1.768   1.095
 4782TIP3   OH214309   0.627   0.985   5.385
 4782TIP3    H114310   0.681   0.947   5.315
 4782TIP3    H214311   0.576   1.053   5.342
 4783TIP3   OH214312   4.674   0.406   5.803
 4783TIP3    H114313   4.674   0.405   5.707
 4783TIP3    H214314   4.756   0.452   5.826
 4784TIP3   OH214315   4.666   1.131   5.205
 4784TIP3    H114316   4.642   1.051   5.251
 4784TIP3    H214317   4.656   1.110   5.112
 4785TIP3   OH214318   3.799   6.361   1.721
 4785TIP3    H114319   3.752   6.332   1.799
 4785TIP3    H214320   3.740   6.341   1.649
 4786TIP3   OH214321   1.851   6.479   0.816
 4786TIP3    H114322   1.765   6.518   0.826
 4786TIP3    H214323   1.908   6.530   0.874
 4787TIP3   OH214324   3.593   6.540   5.702
 4787TIP3    H114325   3.526   6.571   5.641
 4787TIP3    H214326   3.652   6.487   5.648
 4788TIP3   OH214327   6.590   5.550   0.939
 4788TIP3    H114328   6.561   5.634   0.905
 4788TIP3    H214329   6.510   5.500   0.954
 4789TIP3   OH214330   2.733   4.969   4.668
 4789TIP3    H114331   2.782   4.921   4.735
 4789TIP3    H214332   2.648   4.926   4.665
 4790TIP3   OH214333   6.459   5.673   0.167
 4790TIP3    H114334   6.470   5.590   0.121
 4790TIP3    H214335   6.443   5.737   0.098
 4791TIP3   OH214336   6.932   5.526   0.350
 4791TIP3    H114337   6.881   5.547   0.272
 4791TIP3    H214338   6.895   5.583   0.418
 4792TIP3   OH214339   6.753   2.420   4.302
 4792TIP3    H114340   6.717   2.461   4.380
 4792TIP3    H214341   6.834   2.469   4.285
 4793TIP3   OH214342   5.680   1.089   2.858
 4793TIP3    H114343   5.660   1.100   2.765
 4793TIP3    H214344   5.738   1.163   2.879
 4794TIP3   OH214345   1.169   5.478   2.859
 4794TIP3    H114346   1.173   5.507   2.951
 4794TIP3    H214347   1.076   5.476   2.839
 4795TIP3   OH214348   4.890   3.766   4.129
 4795TIP3    H114349   4.846   3.832   4.182
 4795TIP3    H214350   4.890   3.802   4.040
 4796TIP3   OH214351   3.817   6.111   2.856
 4796TIP3    H114352   3.751   6.042   2.857
 4796TIP3    H214353   3.801   6.159   2.775
 4797TIP3   OH214354   3.991   1.592   2.441
 4797TIP3    H114355   4.019   1.526   2.504
 4797TIP3    H214356   3.909   1.627   2.477
 4798TIP3   OH214357   2.100   1.504   0.968
 4798TIP3    H114358   2.093   1.513   0.873
 4798TIP3    H214359   2.011   1.516   1.000
 4799TIP3   OH214360   0.341   2.452   3.156
 4799TIP3    H114361   0.289   2.489   3.085
 4799TIP3    H214362   0.419   2.507   3.160
 4800TIP3   OH214363   3.361   6.342   0.977
 4800TIP3    H114364   3.346   6.424   0.931
 4800TIP3    H214365   3.431   6.362   1.040
 4801TIP3   OH214366   4.156   5.637   3.610
 4801TIP3    H114367   4.211   5.691   3.553
 4801TIP3    H214368   4.163   5.549   3.574
 4802TIP3   OH214369   4.837   0.955   3.119
 4802TIP3    H114370   4.752   0.968   3.078
 4802TIP3    H214371   4.826   0.989   3.208
 4803TIP3   OH214372   5.515   3.157   2.151
 4803TIP3    H114373   5.540   3.066   2.168
 4803TIP3    H214374   5.594   3.207   2.171
 4804TIP3   OH214375   5.001   6.543   3.565
 4804TIP3    H114376   5.093   6.567   3.558
 4804TIP3    H214377   4.961   6.614   3.615
 4805TIP3   OH214378   5.008   1.354   5.577
 4805TIP3    H114379   5.058   1.326   5.654
 4805TIP3    H214380   4.962   1.275   5.548
 4806TIP3   OH214381   7.021   6.121   1.767
 4806TIP3    H114382   7.076   6.086   1.697
 4806TIP3    H214383   7.016   6.050   1.831
 4807TIP3   OH214384   3.857   2.797   1.957
 4807TIP3    H114385   3.776   2.848   1.949
 4807TIP3    H214386   3.886   2.782   1.867
 4808TIP3   OH214387   6.421   3.594   2.578
 4808TIP3    H114388   6.357   3.620   2.645
 4808TIP3    H214389   6.450   3.677   2.541
 4809TIP3   OH214390   4.370   2.943   2.422
 4809TIP3    H114391   4.294   2.987   2.384
 4809TIP3    H214392   4.417   3.012   2.469
 4810TIP3   OH214393   5.202   0.016   4.555
 4810TIP3    H114394   5.191   0.073   4.480
 4810TIP3    H214395   5.176   0.069   4.630
 4811TIP3   OH214396   4.470   1.134   1.005
 4811TIP3    H114397   4.543   1.074   0.998
 4811TIP3    H214398   4.454   1.163   0.915
 4812TIP3   OH214399   4.990   1.869   4.427
 4812TIP3    H114400   5.034   1.787   4.406
 4812TIP3    H214401   5.062   1.930   4.446
 4813TIP3   OH214402   3.381   1.832   5.642
 4813TIP3    H114403   3.452   1.884   5.603
 4813TIP3    H214404   3.398   1.743   5.614
 4814TIP3   OH214405   0.016   5.411   0.150
 4814TIP3    H114406   0.052   5.457   0.225
 4814TIP3    H214407   0.092   5.390   0.095
 4815TIP3   OH214408   2.998   2.318   0.662
 4815TIP3    H114409   3.078   2.370   0.655
 4815TIP3    H214410   2.929   2.382   0.680
 4816TIP3   OH214411   0.294   6.114   4.707
 4816TIP3    H114412   0.330   6.196   4.673
 4816TIP3    H214413   0.207   6.108   4.668
 4817TIP3   OH214414   6.978   0.053   5.098
 4817TIP3    H114415   6.884   0.065   5.087
 4817TIP3    H214416   7.009   0.026   5.012
 4818TIP3   OH214417   0.032   5.062   1.144
 4818TIP3    H114418   0.098   5.131   1.137
 4818TIP3    H214419  -0.046   5.099   1.102
 4819TIP3   OH214420   2.561   0.248   4.559
 4819TIP3    H114421   2.590   0.192   4.631
 4819TIP3    H214422   2.496   0.306   4.599
 4820TIP3   OH214423   3.847   3.800   3.849
 4820TIP3    H114424   3.910   3.839   3.910
 4820TIP3    H214425   3.767   3.851   3.860
 4821TIP3   OH214426   2.076   1.541   0.706
 4821TIP3    H114427   2.081   1.629   0.668
 4821TIP3    H214428   1.987   1.512   0.686
 4822TIP3   OH214429   2.412   5.675   2.916
 4822TIP3    H114430   2.480   5.621   2.877
 4822TIP3    H214431   2.394   5.742   2.849
 4823TIP3   OH214432   4.771   0.854   5.749
 4823TIP3    H114433   4.815   0.782   5.705
 4823TIP3    H214434   4.716   0.812   5.815
 4824TIP3   OH214435   2.217   2.609   5.862
 4824TIP3    H114436   2.229   2.514   5.863
 4824TIP3    H214437   2.132   2.622   5.819
 4825TIP3   OH214438   3.752   0.290   2.038
 4825TIP3    H114439   3.771   0.216   1.980
 4825TIP3    H214440   3.697   0.253   2.107
 4826TIP3   OH214441   3.091   2.254   1.339
 4826TIP3    H114442   3.087   2.330   1.397
 4826TIP3    H214443   3.072   2.290   1.252
 4827TIP3   OH214444   5.324   1.264   1.573
 4827TIP3    H114445   5.415   1.236   1.583
 4827TIP3    H214446   5.280   1.189   1.533
 4828TIP3   OH214447   5.701   5.884   0.939
 4828TIP3    H114448   5.638   5.876   1.011
 4828TIP3    H214449   5.660   5.945   0.878
 4829TIP3   OH214450   5.095   2.375   4.172
 4829TIP3    H114451   5.024   2.323   4.209
 4829TIP3    H214452   5.098   2.454   4.226
 4830TIP3   OH214453   0.189   3.557   5.076
 4830TIP3    H114454   0.158   3.497   5.144
 4830TIP3    H214455   0.233   3.627   5.123
 4831TIP3   OH214456   6.776   5.144   3.510
 4831TIP3    H114457   6.728   5.112   3.434
 4831TIP3    H214458   6.853   5.087   3.515
 4832TIP3   OH214459   3.373   3.275   1.229
 4832TIP3    H114460   3.315   3.263   1.154
 4832TIP3    H214461   3.365   3.193   1.278
 4833TIP3   OH214462   2.527   1.032   4.709
 4833TIP3    H114463   2.448   0.989   4.743
 4833TIP3    H214464   2.494   1.111   4.666
 4834TIP3   OH214465   5.151   2.208   4.972
 4834TIP3    H114466   5.056   2.205   4.963
 4834TIP3    H214467   5.176   2.118   4.997
 4835TIP3   OH214468   3.301   4.787   4.054
 4835TIP3    H114469   3.277   4.850   4.122
 4835TIP3    H214470   3.223   4.782   3.998
 4836TIP3   OH214471   1.419   4.798   4.759
 4836TIP3    H114472   1.342   4.838   4.718
 4836TIP3    H214473   1.438   4.854   4.834
 4837TIP3   OH214474   1.144   4.771   3.861
 4837TIP3    H114475   1.171   4.827   3.788
 4837TIP3    H214476   1.157   4.824   3.939
 4838TIP3   OH214477   0.421   5.467   1.228
 4838TIP3    H114478   0.409   5.534   1.161
 4838TIP3    H214479   0.504   5.489   1.270
 4839TIP3   OH214480   6.281   4.466   5.471
 4839TIP3    H114481   6.373   4.446   5.490
 4839TIP3    H214482   6.232   4.399   5.518
 4840TIP3   OH214483   3.365   6.025   0.301
 4840TIP3    H114484   3.444   6.056   0.256
 4840TIP3    H214485   3.379   5.931   0.311
 4841TIP3   OH214486   1.205   3.941   5.783
 4841TIP3    H114487   1.133   3.991   5.821
 4841TIP3    H214488   1.191   3.945   5.689
 4842TIP3   OH214489   6.520   5.847   3.907
 4842TIP3    H114490   6.510   5.757   3.939
 4842TIP3    H214491   6.499   5.901   3.983
 4843TIP3   OH214492   4.758   5.700   2.417
 4843TIP3    H114493   4.752   5.627   2.354
 4843TIP3    H214494   4.776   5.776   2.363
 4844TIP3   OH214495   0.427   2.998   5.156
 4844TIP3    H114496   0.349   3.051   5.176
 4844TIP3    H214497   0.474   3.049   5.090
 4845TIP3   OH214498   4.701   1.438   4.427
 4845TIP3    H114499   4.674   1.529   4.431
 4845TIP3    H214500   4.787   1.437   4.468
 4846TIP3   OH214501   2.787   3.383   0.907
 4846TIP3    H114502   2.751   3.415   0.824
 4846TIP3    H214503   2.714   3.390   0.969
 4847TIP3   OH214504   5.277   0.675   1.637
 4847TIP3    H114505   5.298   0.585   1.615
 4847TIP3    H214506   5.246   0.671   1.727
 4848TIP3   OH214507   2.087   5.289   1.844
 4848TIP3    H114508   2.120   5.326   1.762
 4848TIP3    H214509   2.150   5.317   1.910
 4849TIP3   OH214510   2.701   1.111   4.382
 4849TIP3    H114511   2.607   1.092   4.377
 4849TIP3    H214512   2.734   1.093   4.295
 4850TIP3   OH214513   5.876   6.715   2.443
 4850TIP3    H114514   5.944   6.665   2.397
 4850TIP3    H214515   5.923   6.757   2.516
 4851TIP3   OH214516   6.653   6.654   2.143
 4851TIP3    H114517   6.699   6.734   2.120
 4851TIP3    H214518   6.712   6.584   2.115
 4852TIP3   OH214519   2.891   3.139   0.947
 4852TIP3    H114520   2.872   3.231   0.933
 4852TIP3    H214521   2.887   3.128   1.042
 4853TIP3   OH214522   0.573   0.060   0.100
 4853TIP3    H114523   0.659   0.052   0.059
 4853TIP3    H214524   0.591   0.091   0.189
 4854TIP3   OH214525   5.990   3.535   3.139
 4854TIP3    H114526   6.023   3.612   3.094
 4854TIP3    H214527   5.918   3.567   3.194
 4855TIP3   OH214528   1.471   6.734   0.712
 4855TIP3    H114529   1.380   6.713   0.691
 4855TIP3    H214530   1.464   6.808   0.772
 4856TIP3   OH214531   5.738   5.151   2.457
 4856TIP3    H114532   5.735   5.132   2.551
 4856TIP3    H214533   5.713   5.243   2.451
 4857TIP3   OH214534   1.018   3.091   5.175
 4857TIP3    H114535   0.948   3.102   5.240
 4857TIP3    H214536   1.099   3.104   5.225
 4858TIP3   OH214537   1.842   1.935   0.594
 4858TIP3    H114538   1.896   1.928   0.515
 4858TIP3    H214539   1.814   1.845   0.611
 4859TIP3   OH214540   0.116   4.626   1.576
 4859TIP3    H114541   0.091   4.645   1.666
 4859TIP3    H214542   0.033   4.612   1.531
 4860TIP3   OH214543   2.277   6.136   1.713
 4860TIP3    H114544   2.230   6.151   1.631
 4860TIP3    H214545   2.369   6.151   1.691
 4861TIP3   OH214546   6.662   4.155   0.387
 4861TIP3    H114547   6.609   4.193   0.457
 4861TIP3    H214548   6.735   4.113   0.432
 4862TIP3   OH214549   4.363   6.772   3.421
 4862TIP3    H114550   4.444   6.778   3.473
 4862TIP3    H214551   4.311   6.706   3.466
 4863TIP3   OH214552   4.272   5.215   4.270
 4863TIP3    H114553   4.191   5.255   4.300
 4863TIP3    H214554   4.290   5.257   4.185
 4864TIP3   OH214555   5.628   4.225   4.890
 4864TIP3    H114556   5.644   4.313   4.856
 4864TIP3    H214557   5.714   4.193   4.914
 4865TIP3   OH214558   7.200   4.815   5.178
 4865TIP3    H114559   7.270   4.875   5.155
 4865TIP3    H214560   7.130   4.835   5.115
 4866TIP3   OH214561   5.517   4.089   3.377
 4866TIP3    H114562   5.573   4.022   3.337
 4866TIP3    H214563   5.485   4.048   3.458
 4867TIP3   OH214564   3.582   6.121   3.901
 4867TIP3    H114565   3.517   6.140   3.833
 4867TIP3    H214566   3.657   6.177   3.879
 4868TIP3   OH214567   2.546   3.071   0.335
 4868TIP3    H114568   2.457   3.066   0.302
 4868TIP3    H214569   2.538   3.051   0.429
 4869TIP3   OH214570   0.315   2.068   5.678
 4869TIP3    H114571   0.278   2.133   5.737
 4869TIP3    H214572   0.378   2.020   5.733
 4870TIP3   OH214573   2.956   6.305   0.307
 4870TIP3    H114574   3.050   6.321   0.299
 4870TIP3    H214575   2.917   6.359   0.237
 4871TIP3   OH214576   0.051   5.758   3.779
 4871TIP3    H114577   0.062   5.696   3.851
 4871TIP3    H214578   0.003   5.710   3.712
 4872TIP3   OH214579   1.609   1.753   3.196
 4872TIP3    H114580   1.583   1.697   3.270
 4872TIP3    H214581   1.701   1.773   3.213
 4873TIP3   OH214582   3.058   2.566   1.283
 4873TIP3    H114583   3.152   2.549   1.292
 4873TIP3    H214584   3.024   2.490   1.236
 4874TIP3   OH214585   5.906   0.816   0.503
 4874TIP3    H114586   5.830   0.874   0.510
 4874TIP3    H214587   5.964   0.843   0.574
 4875TIP3   OH214588   3.255   2.841   5.476
 4875TIP3    H114589   3.292   2.753   5.468
 4875TIP3    H214590   3.175   2.837   5.425
 4876TIP3   OH214591   3.764   2.349   0.497
 4876TIP3    H114592   3.782   2.341   0.591
 4876TIP3    H214593   3.819   2.282   0.457
 4877TIP3   OH214594   3.728   5.442   3.395
 4877TIP3    H114595   3.749   5.461   3.486
 4877TIP3    H214596   3.760   5.352   3.381
 4878TIP3   OH214597   4.968   4.155   4.798
 4878TIP3    H114598   4.921   4.088   4.749
 4878TIP3    H214599   4.905   4.225   4.810
 4879TIP3   OH214600   7.136   4.630   3.031
 4879TIP3    H114601   7.086   4.553   3.057
 4879TIP3    H214602   7.084   4.704   3.063
 4880TIP3   OH214603   5.314   6.500   4.938
 4880TIP3    H114604   5.222   6.496   4.912
 4880TIP3    H214605   5.362   6.479   4.857
 4881TIP3   OH214606   5.746   0.330   4.603
 4881TIP3    H114607   5.677   0.269   4.576
 4881TIP3    H214608   5.823   0.276   4.616
 4882TIP3   OH214609   3.326   2.811   4.428
 4882TIP3    H114610   3.385   2.776   4.495
 4882TIP3    H214611   3.378   2.811   4.348
 4883TIP3   OH214612   1.278   0.133   2.632
 4883TIP3    H114613   1.323   0.068   2.577
 4883TIP3    H214614   1.304   0.217   2.596
 4884TIP3   OH214615   4.529   6.348   0.024
 4884TIP3    H114616   4.461   6.367  -0.040
 4884TIP3    H214617   4.518   6.415   0.092
 4885TIP3   OH214618   5.030   4.780   0.919
 4885TIP3    H114619   5.097   4.712   0.928
 4885TIP3    H214620   5.076   4.862   0.937
 4886TIP3   OH214621   1.606   2.768   4.164
 4886TIP3    H114622   1.534   2.830   4.174
 4886TIP3    H214623   1.652   2.772   4.248
 4887TIP3   OH214624   2.369   3.320   3.260
 4887TIP3    H114625   2.453   3.281   3.237
 4887TIP3    H214626   2.389   3.411   3.280
 4888TIP3   OH214627   6.786   3.664   0.606
 4888TIP3    H114628   6.839   3.585   0.611
 4888TIP3    H214629   6.759   3.681   0.697
 4889TIP3   OH214630   2.710   1.486   4.541
 4889TIP3    H114631   2.637   1.488   4.479
 4889TIP3    H214632   2.668   1.475   4.626
 4890TIP3   OH214633   2.410   6.473   3.814
 4890TIP3    H114634   2.393   6.416   3.889
 4890TIP3    H214635   2.355   6.438   3.744
 4891TIP3   OH214636   5.150   2.801   5.660
 4891TIP3    H114637   5.237   2.788   5.696
 4891TIP3    H214638   5.139   2.896   5.658
 4892TIP3   OH214639   0.079   2.474   0.389
 4892TIP3    H114640   0.044   2.438   0.307
 4892TIP3    H214641   0.166   2.506   0.366
 4893TIP3   OH214642   0.471   2.565   0.576
 4893TIP3    H114643   0.419   2.644   0.590
 4893TIP3    H214644   0.553   2.582   0.623
 4894TIP3   OH214645   5.743   1.449   5.287
 4894TIP3    H114646   5.820   1.483   5.331
 4894TIP3    H214647   5.769   1.363   5.254
 4895TIP3   OH214648   6.786   0.492   2.167
 4895TIP3    H114649   6.771   0.406   2.208
 4895TIP3    H214650   6.878   0.511   2.183
 4896TIP3   OH214651   2.042   2.800   3.954
 4896TIP3    H114652   2.009   2.746   4.026
 4896TIP3    H214653   2.007   2.759   3.875
 4897TIP3   OH214654   5.445   1.674   1.349
 4897TIP3    H114655   5.434   1.721   1.267
 4897TIP3    H214656   5.519   1.615   1.334
 4898TIP3   OH214657   6.462   0.518   1.431
 4898TIP3    H114658   6.469   0.466   1.511
 4898TIP3    H214659   6.447   0.607   1.461
 4899TIP3   OH214660   5.795   5.666   0.819
 4899TIP3    H114661   5.883   5.660   0.857
 4899TIP3    H214662   5.744   5.714   0.885
 4900TIP3   OH214663   6.678   2.410   5.722
 4900TIP3    H114664   6.603   2.468   5.724
 4900TIP3    H214665   6.751   2.463   5.753
 4901TIP3   OH214666   4.274   0.919   2.636
 4901TIP3    H114667   4.333   0.910   2.562
 4901TIP3    H214668   4.249   0.829   2.657
 4902TIP3   OH214669   5.362   6.080   3.588
 4902TIP3    H114670   5.392   6.030   3.512
 4902TIP3    H214671   5.442   6.099   3.637
 4903TIP3   OH214672   6.415   6.610   0.091
 4903TIP3    H114673   6.417   6.536   0.152
 4903TIP3    H214674   6.413   6.687   0.148
 4904TIP3   OH214675   6.420   3.346   2.421
 4904TIP3    H114676   6.424   3.416   2.486
 4904TIP3    H214677   6.437   3.266   2.471
 4905TIP3   OH214678   3.778   0.703   2.989
 4905TIP3    H114679   3.723   0.778   3.010
 4905TIP3    H214680   3.724   0.650   2.930
 4906TIP3   OH214681   6.478   2.690   3.066
 4906TIP3    H114682   6.527   2.614   3.096
 4906TIP3    H214683   6.479   2.682   2.970
 4907TIP3   OH214684   5.870   3.925   2.041
 4907TIP3    H114685   5.857   3.977   1.962
 4907TIP3    H214686   5.900   3.840   2.010
 4908TIP3   OH214687   4.146   4.494   4.230
 4908TIP3    H114688   4.127   4.569   4.174
 4908TIP3    H214689   4.239   4.478   4.217
 4909TIP3   OH214690   3.160   5.063   1.372
 4909TIP3    H114691   3.240   5.011   1.367
 4909TIP3    H214692   3.182   5.145   1.328
 4910TIP3   OH214693   1.178   1.432   1.145
 4910TIP3    H114694   1.125   1.384   1.081
 4910TIP3    H214695   1.207   1.510   1.099
 4911TIP3   OH214696   5.299   4.823   2.195
 4911TIP3    H114697   5.226   4.762   2.181
 4911TIP3    H214698   5.282   4.859   2.282
 4912TIP3   OH214699   0.203   4.062   4.207
 4912TIP3    H114700   0.267   4.107   4.152
 4912TIP3    H214701   0.184   3.981   4.159
 4913TIP3   OH214702   0.122   4.984   2.768
 4913TIP3    H114703   0.169   4.956   2.689
 4913TIP3    H214704   0.147   5.076   2.780
 4914TIP3   OH214705   2.771   4.889   2.872
 4914TIP3    H114706   2.795   4.972   2.911
 4914TIP3    H214707   2.676   4.896   2.857
 4915TIP3   OH214708   5.387   1.161   4.487
 4915TIP3    H114709   5.329   1.170   4.562
 4915TIP3    H214710   5.430   1.246   4.480
 4916TIP3   OH214711   1.592   0.013   3.123
 4916TIP3    H114712   1.518   0.074   3.116
 4916TIP3    H214713   1.552  -0.074   3.118
 4917TIP3   OH214714   1.699   5.940   2.432
 4917TIP3    H114715   1.647   5.863   2.406
 4917TIP3    H214716   1.670   6.009   2.373
 4918TIP3   OH214717   5.538   2.393   4.535
 4918TIP3    H114718   5.543   2.458   4.605
 4918TIP3    H214719   5.445   2.371   4.529
 4919TIP3   OH214720   1.438   1.527   0.840
 4919TIP3    H114721   1.375   1.577   0.891
 4919TIP3    H214722   1.459   1.451   0.895
 4920TIP3   OH214723   7.103   4.038   1.913
 4920TIP3    H114724   7.012   4.066   1.903
 4920TIP3    H214725   7.121   3.986   1.834
 4921TIP3   OH214726   1.867   6.593   5.716
 4921TIP3    H114727   1.806   6.570   5.786
 4921TIP3    H214728   1.818   6.579   5.635
 4922TIP3   OH214729   1.838   4.338   2.615
 4922TIP3    H114730   1.875   4.390   2.544
 4922TIP3    H214731   1.910   4.285   2.647
 4923TIP3   OH214732   4.227   1.460   2.139
 4923TIP3    H114733   4.268   1.541   2.168
 4923TIP3    H214734   4.142   1.488   2.103
 4924TIP3   OH214735   4.112   4.591   4.500
 4924TIP3    H114736   4.152   4.559   4.580
 4924TIP3    H214737   4.147   4.536   4.431
 4925TIP3   OH214738   3.947   1.212   1.745
 4925TIP3    H114739   3.886   1.208   1.818
 4925TIP3    H214740   3.933   1.130   1.697
 4926TIP3   OH214741   0.922   2.533   5.147
 4926TIP3    H114742   0.963   2.604   5.197
 4926TIP3    H214743   0.944   2.453   5.194
 4927TIP3   OH214744   6.278   4.302   2.623
 4927TIP3    H114745   6.266   4.362   2.550
 4927TIP3    H214746   6.311   4.222   2.582
 4928TIP3   OH214747   0.542   1.456   5.428
 4928TIP3    H114748   0.595   1.514   5.373
 4928TIP3    H214749   0.597   1.379   5.440
 4929TIP3   OH214750   6.400   0.053   2.076
 4929TIP3    H114751   6.413   0.007   1.993
 4929TIP3    H214752   6.338  -0.003   2.124
 4930TIP3   OH214753   6.848   6.402   3.263
 4930TIP3    H114754   6.869   6.472   3.324
 4930TIP3    H214755   6.833   6.325   3.319
 4931TIP3   OH214756   0.932   5.297   2.602
 4931TIP3    H114757   0.991   5.275   2.530
 4931TIP3    H214758   0.946   5.390   2.617
 4932TIP3   OH214759   4.013   0.566   3.042
 4932TIP3    H114760   4.010   0.577   3.137
 4932TIP3    H214761   3.923   0.584   3.013
 4933TIP3   OH214762   3.746   5.941   0.426
 4933TIP3    H114763   3.736   5.846   0.425
 4933TIP3    H214764   3.711   5.970   0.341
 4934TIP3   OH214765   0.098   6.182   1.286
 4934TIP3    H114766   0.114   6.205   1.378
 4934TIP3    H214767   0.183   6.190   1.244
 4935TIP3   OH214768   4.886   2.794   1.280
 4935TIP3    H114769   4.834   2.870   1.254
 4935TIP3    H214770   4.915   2.755   1.197
 4936TIP3   OH214771   1.192   1.254   4.450
 4936TIP3    H114772   1.158   1.300   4.527
 4936TIP3    H214773   1.275   1.216   4.480
 4937TIP3   OH214774   3.719   1.705   2.935
 4937TIP3    H114775   3.808   1.731   2.911
 4937TIP3    H214776   3.731   1.636   3.001
 4938TIP3   OH214777   5.181   0.619   4.197
 4938TIP3    H114778   5.174   0.700   4.248
 4938TIP3    H214779   5.100   0.615   4.147
 4939TIP3   OH214780   4.227   0.242   0.605
 4939TIP3    H114781   4.175   0.165   0.583
 4939TIP3    H214782   4.206   0.306   0.537
 4940TIP3   OH214783   4.802   6.564   4.568
 4940TIP3    H114784   4.889   6.604   4.571
 4940TIP3    H214785   4.769   6.585   4.480
 4941TIP3   OH214786   6.354   6.752   0.595
 4941TIP3    H114787   6.291   6.736   0.666
 4941TIP3    H214788   6.390   6.838   0.614
 4942TIP3   OH214789   5.179   1.795   0.584
 4942TIP3    H114790   5.162   1.823   0.674
 4942TIP3    H214791   5.167   1.874   0.532
 4943TIP3   OH214792   2.007   5.227   3.769
 4943TIP3    H114793   1.945   5.174   3.719
 4943TIP3    H214794   2.018   5.307   3.718
 4944TIP3   OH214795   4.293   1.796   5.893
 4944TIP3    H114796   4.387   1.780   5.888
 4944TIP3    H214797   4.260   1.775   5.806
 4945TIP3   OH214798   1.950   4.896   3.724
 4945TIP3    H114799   1.928   4.914   3.815
 4945TIP3    H214800   1.921   4.974   3.676
 4946TIP3   OH214801   2.921   5.162   1.817
 4946TIP3    H114802   2.926   5.244   1.769
 4946TIP3    H214803   3.011   5.129   1.817
 4947TIP3   OH214804   5.533   5.440   3.196
 4947TIP3    H114805   5.558   5.422   3.287
 4947TIP3    H214806   5.537   5.355   3.153
 4948TIP3   OH214807   3.975   2.746   4.928
 4948TIP3    H114808   4.043   2.729   4.863
 4948TIP3    H214809   3.991   2.837   4.956
 4949TIP3   OH214810   4.864   1.617   3.064
 4949TIP3    H114811   4.797   1.684   3.074
 4949TIP3    H214812   4.829   1.542   3.113
 4950TIP3   OH214813   5.566   3.126   1.000
 4950TIP3    H114814   5.578   3.212   0.959
 4950TIP3    H214815   5.474   3.105   0.983
 4951TIP3   OH214816   2.913   6.111   1.065
 4951TIP3    H114817   2.975   6.176   1.098
 4951TIP3    H214818   2.913   6.126   0.970
 4952TIP3   OH214819   0.664   6.648   5.717
 4952TIP3    H114820   0.653   6.560   5.754
 4952TIP3    H214821   0.580   6.691   5.732
 4953TIP3   OH214822   4.944   4.452   4.252
 4953TIP3    H114823   5.032   4.460   4.216
 4953TIP3    H214824   4.954   4.396   4.329
 4954TIP3   OH214825   6.661   2.089   0.798
 4954TIP3    H114826   6.666   1.993   0.803
 4954TIP3    H214827   6.622   2.107   0.713
 4955TIP3   OH214828   2.550   5.486   1.450
 4955TIP3    H114829   2.544   5.574   1.489
 4955TIP3    H214830   2.608   5.498   1.374
 4956TIP3   OH214831   1.573   1.651   1.760
 4956TIP3    H114832   1.486   1.689   1.746
 4956TIP3    H214833   1.579   1.580   1.696
 4957TIP3   OH214834   5.947   6.654   1.941
 4957TIP3    H114835   5.993   6.571   1.952
 4957TIP3    H214836   5.906   6.670   2.026
 4958TIP3   OH214837   3.026   5.955   5.181
 4958TIP3    H114838   3.113   5.918   5.169
 4958TIP3    H214839   3.041   6.045   5.208
 4959TIP3   OH214840   4.338   6.565   1.183
 4959TIP3    H114841   4.394   6.511   1.238
 4959TIP3    H214842   4.281   6.612   1.245
 4960TIP3   OH214843   2.578   0.987   0.072
 4960TIP3    H114844   2.574   0.891   0.073
 4960TIP3    H214845   2.629   1.010   0.150
 4961TIP3   OH214846   0.087   3.300   5.146
 4961TIP3    H114847  -0.005   3.327   5.141
 4961TIP3    H214848   0.090   3.241   5.222
 4962TIP3   OH214849   5.041   5.610   5.003
 4962TIP3    H114850   5.075   5.699   5.006
 4962TIP3    H214851   5.052   5.584   4.911
 4963TIP3   OH214852   5.958   4.471   5.258
 4963TIP3    H114853   6.011   4.453   5.180
 4963TIP3    H214854   5.962   4.391   5.310
 4964TIP3   OH214855   6.567   3.948   0.699
 4964TIP3    H114856   6.511   3.967   0.623
 4964TIP3    H214857   6.623   3.876   0.670
 4965TIP3   OH214858   5.868   1.074   1.211
 4965TIP3    H114859   5.773   1.063   1.201
 4965TIP3    H214860   5.877   1.134   1.285
 4966TIP3   OH214861   0.961   1.103   5.559
 4966TIP3    H114862   1.042   1.065   5.594
 4966TIP3    H214863   0.916   1.138   5.636
 4967TIP3   OH214864   5.641   1.253   4.154
 4967TIP3    H114865   5.593   1.336   4.160
 4967TIP3    H214866   5.733   1.278   4.149
 4968TIP3   OH214867   7.039   6.212   1.040
 4968TIP3    H114868   7.076   6.135   1.084
 4968TIP3    H214869   7.041   6.280   1.107
 4969TIP3   OH214870   2.315   1.085   5.062
 4969TIP3    H114871   2.304   1.031   5.140
 4969TIP3    H214872   2.327   1.022   4.991
 4970TIP3   OH214873   1.941   4.169   4.181
 4970TIP3    H114874   1.928   4.168   4.276
 4970TIP3    H214875   1.867   4.218   4.147
 4971TIP3   OH214876   6.531   5.113   2.483
 4971TIP3    H114877   6.496   5.103   2.572
 4971TIP3    H214878   6.480   5.052   2.430
 4972TIP3   OH214879   4.136   4.156   4.936
 4972TIP3    H114880   4.090   4.227   4.892
 4972TIP3    H214881   4.222   4.153   4.893
 4973TIP3   OH214882   3.087   1.605   5.462
 4973TIP3    H114883   3.170   1.605   5.415
 4973TIP3    H214884   3.072   1.513   5.485
 4974TIP3   OH214885   6.814   0.694   4.365
 4974TIP3    H114886   6.746   0.650   4.416
 4974TIP3    H214887   6.769   0.726   4.287
 4975TIP3   OH214888   4.564   3.881   1.777
 4975TIP3    H114889   4.546   3.815   1.844
 4975TIP3    H214890   4.637   3.844   1.726
 4976TIP3   OH214891   7.096   3.620   4.199
 4976TIP3    H114892   7.065   3.654   4.283
 4976TIP3    H214893   7.185   3.589   4.218
 4977TIP3   OH214894   5.689   2.487   1.436
 4977TIP3    H114895   5.683   2.447   1.349
 4977TIP3    H214896   5.656   2.419   1.495
 4978TIP3   OH214897   4.752   3.558   2.985
 4978TIP3    H114898   4.796   3.595   2.909
 4978TIP3    H214899   4.665   3.597   2.984
 4979TIP3   OH214900   1.521   3.180   2.806
 4979TIP3    H114901   1.461   3.162   2.879
 4979TIP3    H214902   1.595   3.122   2.822
 4980TIP3   OH214903   2.090   0.222   5.228
 4980TIP3    H114904   2.094   0.267   5.143
 4980TIP3    H214905   2.038   0.281   5.283
 4981TIP3   OH214906   4.302   0.422   3.228
 4981TIP3    H114907   4.216   0.428   3.186
 4981TIP3    H214908   4.364   0.452   3.162
 4982TIP3   OH214909   2.778   6.668   4.221
 4982TIP3    H114910   2.817   6.750   4.251
 4982TIP3    H214911   2.794   6.606   4.293
 4983TIP3   OH214912   5.603   6.296   0.715
 4983TIP3    H114913   5.636   6.345   0.639
 4983TIP3    H214914   5.520   6.339   0.736
 4984TIP3   OH214915   5.351   4.764   4.429
 4984TIP3    H114916   5.349   4.741   4.522
 4984TIP3    H214917   5.366   4.681   4.384
 4985TIP3   OH214918   5.618   6.811   4.818
 4985TIP3    H114919   5.636   6.718   4.806
 4985TIP3    H214920   5.607   6.821   4.913
 4986TIP3   OH214921   6.753   3.451   4.822
 4986TIP3    H114922   6.677   3.500   4.854
 4986TIP3    H214923   6.716   3.377   4.774
 4987TIP3   OH214924   0.880   4.560   0.358
 4987TIP3    H114925   0.900   4.607   0.277
 4987TIP3    H214926   0.824   4.487   0.329
 4988TIP3   OH214927   3.243   1.282   5.116
 4988TIP3    H114928   3.257   1.330   5.035
 4988TIP3    H214929   3.149   1.284   5.130
 4989TIP3   OH214930   7.176   6.231   0.802
 4989TIP3    H114931   7.162   6.325   0.791
 4989TIP3    H214932   7.126   6.209   0.881
 4990TIP3   OH214933   3.887   5.230   4.585
 4990TIP3    H114934   3.858   5.249   4.674
 4990TIP3    H214935   3.812   5.187   4.544
 4991TIP3   OH214936   5.604   3.639   5.659
 4991TIP3    H114937   5.528   3.597   5.620
 4991TIP3    H214938   5.604   3.728   5.622
 4992TIP3   OH214939   6.935   5.607   4.573
 4992TIP3    H114940   6.887   5.542   4.625
 4992TIP3    H214941   6.971   5.667   4.638
 4993TIP3   OH214942   2.033   3.278   0.126
 4993TIP3    H114943   2.010   3.196   0.169
 4993TIP3    H214944   1.963   3.338   0.150
 4994TIP3   OH214945   1.574   6.110   5.595
 4994TIP3    H114946   1.548   6.020   5.575
 4994TIP3    H214947   1.628   6.102   5.673
 4995TIP3   OH214948   2.034   5.355   1.014
 4995TIP3    H114949   2.093   5.400   0.954
 4995TIP3    H214950   2.081   5.354   1.097
 4996TIP3   OH214951   0.085   0.153   5.636
 4996TIP3    H114952   0.138   0.117   5.564
 4996TIP3    H214953   0.014   0.200   5.593
 4997TIP3   OH214954   5.287   4.682   0.333
 4997TIP3    H114955   5.261   4.740   0.405
 4997TIP3    H214956   5.330   4.740   0.270
 4998TIP3   OH214957   6.059   1.769   4.241
 4998TIP3    H114958   6.076   1.675   4.231
 4998TIP3    H214959   6.103   1.810   4.167
 4999TIP3   OH214960   2.639   2.690   2.196
 4999TIP3    H114961   2.583   2.712   2.271
 4999TIP3    H214962   2.614   2.601   2.172
 5000TIP3   OH214963   0.498   3.582   3.758
 5000TIP3    H114964   0.439   3.571   3.684
 5000TIP3    H214965   0.513   3.493   3.790
 5001TIP3   OH214966   6.674   5.149   0.663
 5001TIP3    H114967   6.588   5.135   0.625
 5001TIP3    H214968   6.661   5.134   0.757
 5002TIP3   OH214969   0.332   4.794   5.828
 5002TIP3    H114970   0.267   4.825   5.891
 5002TIP3    H214971   0.395   4.744   5.881
 5003TIP3   OH214972   5.222   3.584   3.332
 5003TIP3    H114973   5.158   3.620   3.393
 5003TIP3    H214974   5.277   3.527   3.385
 5004TIP3   OH214975   0.927   5.670   3.525
 5004TIP3    H114976   1.002   5.723   3.551
 5004TIP3    H214977   0.947   5.582   3.558
 5005TIP3   OH214978   0.748   3.911   0.871
 5005TIP3    H114979   0.768   3.952   0.955
 5005TIP3    H214980   0.797   3.962   0.807
 5006TIP3   OH214981   6.200   0.742   4.888
 5006TIP3    H114982   6.129   0.679   4.871
 5006TIP3    H214983   6.201   0.797   4.810
 5007TIP3   OH214984   0.940   6.598   5.720
 5007TIP3    H114985   0.912   6.510   5.695
 5007TIP3    H214986   0.859   6.647   5.732
 5008TIP3   OH214987   4.496   5.228   2.381
 5008TIP3    H114988   4.440   5.223   2.304
 5008TIP3    H214989   4.442   5.195   2.453
 5009TIP3   OH214990   0.268   1.768   4.080
 5009TIP3    H114991   0.310   1.851   4.058
 5009TIP3    H214992   0.177   1.778   4.050
 5010TIP3   OH214993   3.171   0.547   4.130
 5010TIP3    H114994   3.081   0.537   4.160
 5010TIP3    H214995   3.215   0.596   4.200
 5011TIP3   OH214996   1.385   5.295   1.673
 5011TIP3    H114997   1.291   5.279   1.664
 5011TIP3    H214998   1.409   5.250   1.753
 5012TIP3   OH214999   2.557   4.440   1.032
 5012TIP3    H115000   2.561   4.515   1.091
 5012TIP3    H215001   2.488   4.462   0.970
 5013TIP3   OH215002   1.466   4.296   3.393
 5013TIP3    H115003   1.443   4.367   3.333
 5013TIP3    H215004   1.548   4.325   3.434
 5014TIP3   OH215005   6.224   1.077   1.446
 5014TIP3    H115006   6.162   1.126   1.392
 5014TIP3    H215007   6.306   1.081   1.397
 5015TIP3   OH215008   2.409   2.058   2.321
 5015TIP3    H115009   2.458   2.127   2.365
 5015TIP3    H215010   2.317   2.081   2.335
 5016TIP3   OH215011   2.088   6.789   4.951
 5016TIP3    H115012   2.091   6.694   4.960
 5016TIP3    H215013   2.061   6.804   4.861
 5017TIP3   OH215014   0.145   2.116   2.637
 5017TIP3    H115015   0.145   2.034   2.687
 5017TIP3    H215016   0.112   2.182   2.698
 5018TIP3   OH215017   1.841   0.412   3.763
 5018TIP3    H115018   1.869   0.499   3.736
 5018TIP3    H215019   1.904   0.385   3.830
 5019TIP3   OH215020   2.684   1.689   0.424
 5019TIP3    H115021   2.767   1.714   0.464
 5019TIP3    H215022   2.709   1.641   0.345
 5020TIP3   OH215023   0.276   3.054   4.409
 5020TIP3    H115024   0.305   3.141   4.437
 5020TIP3    H215025   0.330   2.993   4.459
 5021TIP3   OH215026   2.896   2.942   4.667
 5021TIP3    H115027   2.859   3.016   4.716
 5021TIP3    H215028   2.822   2.906   4.618
 5022TIP3   OH215029   1.042   6.700   5.477
 5022TIP3    H115030   1.089   6.620   5.453
 5022TIP3    H215031   1.031   6.694   5.572
 5023TIP3   OH215032   1.318   5.664   2.066
 5023TIP3    H115033   1.313   5.598   1.997
 5023TIP3    H215034   1.322   5.747   2.019
 5024TIP3   OH215035   5.416   2.170   3.133
 5024TIP3    H115036   5.433   2.076   3.146
 5024TIP3    H215037   5.472   2.214   3.197
 5025TIP3   OH215038   0.255   5.923   5.060
 5025TIP3    H115039   0.304   5.907   5.140
 5025TIP3    H215040   0.235   6.017   5.062
 5026TIP3   OH215041   7.123   0.736   1.445
 5026TIP3    H115042   7.188   0.681   1.402
 5026TIP3    H215043   7.092   0.795   1.376
 5027TIP3   OH215044   0.864   2.007   5.463
 5027TIP3    H115045   0.907   1.968   5.539
 5027TIP3    H215046   0.931   2.006   5.394
 5028TIP3   OH215047   5.091   0.645   4.520
 5028TIP3    H115048   5.142   0.683   4.592
 5028TIP3    H215049   5.157   0.615   4.457
 5029TIP3   OH215050   3.380   2.015   2.707
 5029TIP3    H115051   3.346   2.043   2.792
 5029TIP3    H215052   3.400   2.097   2.661
 5030TIP3   OH215053   2.757   6.380   1.455
 5030TIP3    H115054   2.780   6.423   1.373
 5030TIP3    H215055   2.666   6.405   1.471
 5031TIP3   OH215056   3.551   4.664   5.016
 5031TIP3    H115057   3.473   4.717   5.000
 5031TIP3    H215058   3.605   4.717   5.074
 5032TIP3   OH215059   3.714   4.626   3.764
 5032TIP3    H115060   3.747   4.712   3.736
 5032TIP3    H215061   3.640   4.646   3.820
 5033TIP3   OH215062   2.860   4.725   5.400
 5033TIP3    H115063   2.834   4.775   5.323
 5033TIP3    H215064   2.796   4.747   5.467
 5034TIP3   OH215065   3.726   0.703   1.134
 5034TIP3    H115066   3.791   0.636   1.155
 5034TIP3    H215067   3.728   0.709   1.039
 5035TIP3   OH215068   6.231   0.924   1.089
 5035TIP3    H115069   6.177   0.997   1.119
 5035TIP3    H215070   6.315   0.964   1.066
 5036TIP3   OH215071   1.731   2.057   5.135
 5036TIP3    H115072   1.806   2.092   5.087
 5036TIP3    H215073   1.727   1.965   5.112
 5037TIP3   OH215074   7.027   4.914   4.992
 5037TIP3    H115075   6.935   4.921   4.965
 5037TIP3    H215076   7.056   5.005   4.998
 5038TIP3   OH215077   6.804   4.243   0.120
 5038TIP3    H115078   6.847   4.165   0.086
 5038TIP3    H215079   6.728   4.256   0.062
 5039TIP3   OH215080   5.850   4.547   1.476
 5039TIP3    H115081   5.791   4.476   1.452
 5039TIP3    H215082   5.938   4.511   1.463
 5040TIP3   OH215083   2.581   4.736   0.162
 5040TIP3    H115084   2.553   4.645   0.151
 5040TIP3    H215085   2.585   4.771   0.073
 5041TIP3   OH215086   4.443   3.156   0.215
 5041TIP3    H115087   4.410   3.215   0.147
 5041TIP3    H215088   4.365   3.119   0.256
 5042TIP3   OH215089   2.409   2.183   3.739
 5042TIP3    H115090   2.330   2.234   3.720
 5042TIP3    H215091   2.435   2.147   3.654
 5043TIP3   OH215092   5.194   5.683   3.932
 5043TIP3    H115093   5.183   5.701   3.839
 5043TIP3    H215094   5.286   5.705   3.950
 5044TIP3   OH215095   6.741   6.136   4.593
 5044TIP3    H115096   6.656   6.180   4.592
 5044TIP3    H215097   6.800   6.201   4.632
 5045TIP3   OH215098   1.542   0.121   2.806
 5045TIP3    H115099   1.499   0.045   2.768
 5045TIP3    H215100   1.609   0.084   2.864
 5046TIP3   OH215101   0.558   0.982   2.729
 5046TIP3    H115102   0.569   1.019   2.817
 5046TIP3    H215103   0.548   0.888   2.744
 5047TIP3   OH215104   4.064   1.640   0.965
 5047TIP3    H115105   4.115   1.565   0.933
 5047TIP3    H215106   4.128   1.694   1.012
 5048TIP3   OH215107   4.215   1.130   5.597
 5048TIP3    H115108   4.123   1.113   5.612
 5048TIP3    H215109   4.261   1.053   5.632
 5049TIP3   OH215110   1.743   3.710   1.982
 5049TIP3    H115111   1.705   3.770   1.918
 5049TIP3    H215112   1.828   3.748   2.003
 5050TIP3   OH215113   3.543   1.316   2.882
 5050TIP3    H115114   3.540   1.222   2.861
 5050TIP3    H215115   3.455   1.348   2.862
 5051TIP3   OH215116   4.137   0.611   1.846
 5051TIP3    H115117   4.088   0.682   1.804
 5051TIP3    H215118   4.072   0.563   1.897
 5052TIP3   OH215119   2.341   3.589   3.313
 5052TIP3    H115120   2.346   3.634   3.229
 5052TIP3    H215121   2.279   3.640   3.365
 5053TIP3   OH215122   3.457   0.424   0.136
 5053TIP3    H115123   3.527   0.488   0.129
 5053TIP3    H215124   3.441   0.415   0.230
 5054TIP3   OH215125   2.105   4.480   2.224
 5054TIP3    H115126   2.172   4.546   2.205
 5054TIP3    H215127   2.154   4.403   2.253
 5055TIP3   OH215128   5.825   1.572   5.596
 5055TIP3    H115129   5.872   1.570   5.512
 5055TIP3    H215130   5.741   1.613   5.574
 5056TIP3   OH215131   5.078   6.786   1.493
 5056TIP3    H115132   5.084   6.818   1.403
 5056TIP3    H215133   5.111   6.696   1.489
 5057TIP3   OH215134   3.585   3.599   2.635
 5057TIP3    H115135   3.527   3.528   2.609
 5057TIP3    H215136   3.567   3.611   2.729
 5058TIP3   OH215137   0.823   6.733   1.366
 5058TIP3    H115138   0.853   6.642   1.368
 5058TIP3    H215139   0.900   6.784   1.392
 5059TIP3   OH215140   2.777   2.536   3.243
 5059TIP3    H115141   2.766   2.443   3.261
 5059TIP3    H215142   2.868   2.556   3.266
 5060TIP3   OH215143   6.266   6.250   3.853
 5060TIP3    H115144   6.200   6.259   3.784
 5060TIP3    H215145   6.341   6.210   3.810
 5061TIP3   OH215146   5.526   6.279   1.480
 5061TIP3    H115147   5.479   6.313   1.556
 5061TIP3    H215148   5.610   6.249   1.516
 5062TIP3   OH215149   6.933   4.189   1.300
 5062TIP3    H115150   6.847   4.230   1.311
 5062TIP3    H215151   6.928   4.110   1.355
 5063TIP3   OH215152   3.036   4.308   0.389
 5063TIP3    H115153   3.009   4.342   0.303
 5063TIP3    H215154   2.982   4.231   0.402
 5064TIP3   OH215155   3.764   0.387   3.023
 5064TIP3    H115156   3.838   0.385   3.083
 5064TIP3    H215157   3.687   0.393   3.080
 5065TIP3   OH215158   3.439   3.121   4.065
 5065TIP3    H115159   3.515   3.092   4.116
 5065TIP3    H215160   3.388   3.041   4.050
 5066TIP3   OH215161   3.562   6.129   2.220
 5066TIP3    H115162   3.544   6.211   2.175
 5066TIP3    H215163   3.521   6.139   2.306
 5067TIP3   OH215164   6.612   3.325   4.013
 5067TIP3    H115165   6.640   3.417   4.009
 5067TIP3    H215166   6.691   3.276   4.033
 5068TIP3   OH215167   2.697   1.807   2.001
 5068TIP3    H115168   2.651   1.778   1.922
 5068TIP3    H215169   2.775   1.850   1.968
 5069TIP3   OH215170   4.780   0.812   4.170
 5069TIP3    H115171   4.850   0.876   4.177
 5069TIP3    H215172   4.825   0.729   4.155
 5070TIP3   OH215173   6.993   1.263   2.758
 5070TIP3    H115174   7.042   1.310   2.691
 5070TIP3    H215175   6.962   1.332   2.817
 5071TIP3   OH215176   7.076   3.231   4.296
 5071TIP3    H115177   7.104   3.287   4.223
 5071TIP3    H215178   7.129   3.259   4.370
 5072TIP3   OH215179   5.641   1.047   3.404
 5072TIP3    H115180   5.646   1.054   3.308
 5072TIP3    H215181   5.655   1.136   3.435
 5073TIP3   OH215182   1.839   3.553   5.730
 5073TIP3    H115183   1.807   3.539   5.640
 5073TIP3    H215184   1.842   3.465   5.767
 5074TIP3   OH215185   2.819   4.162   2.143
 5074TIP3    H115186   2.901   4.174   2.095
 5074TIP3    H215187   2.816   4.068   2.163
 5075TIP3   OH215188   0.328   0.777   2.946
 5075TIP3    H115189   0.383   0.748   2.874
 5075TIP3    H215190   0.307   0.868   2.925
 5076TIP3   OH215191   1.198   0.156   1.824
 5076TIP3    H115192   1.291   0.173   1.815
 5076TIP3    H215193   1.182   0.079   1.769
 5077TIP3   OH215194   3.728   6.320   3.333
 5077TIP3    H115195   3.741   6.236   3.289
 5077TIP3    H215196   3.804   6.372   3.308
 5078TIP3   OH215197   2.279   2.294   3.229
 5078TIP3    H115198   2.275   2.358   3.158
 5078TIP3    H215199   2.271   2.346   3.309
 5079TIP3   OH215200   4.681   5.653   4.099
 5079TIP3    H115201   4.617   5.583   4.083
 5079TIP3    H215202   4.741   5.649   4.025
 5080TIP3   OH215203   5.732   5.014   3.811
 5080TIP3    H115204   5.645   4.985   3.840
 5080TIP3    H215205   5.781   4.933   3.800
 5081TIP3   OH215206   6.865   0.425   1.551
 5081TIP3    H115207   6.816   0.450   1.473
 5081TIP3    H215208   6.802   0.429   1.622
 5082TIP3   OH215209   4.364   0.836   4.422
 5082TIP3    H115210   4.375   0.783   4.343
 5082TIP3    H215211   4.437   0.898   4.419
 5083TIP3   OH215212   5.108   3.256   0.094
 5083TIP3    H115213   5.090   3.348   0.111
 5083TIP3    H215214   5.188   3.238   0.143
 5084TIP3   OH215215   0.235   0.458   1.168
 5084TIP3    H115216   0.269   0.425   1.251
 5084TIP3    H215217   0.148   0.492   1.190
 5085TIP3   OH215218   4.419   4.435   4.256
 5085TIP3    H115219   4.448   4.504   4.315
 5085TIP3    H215220   4.500   4.400   4.218
 5086TIP3   OH215221   5.116   4.386   4.767
 5086TIP3    H115222   5.101   4.382   4.862
 5086TIP3    H215223   5.090   4.299   4.735
 5087TIP3   OH215224   1.468   6.168   1.132
 5087TIP3    H115225   1.374   6.150   1.125
 5087TIP3    H215226   1.480   6.251   1.087
 5088TIP3   OH215227   4.293   0.555   5.763
 5088TIP3    H115228   4.243   0.481   5.730
 5088TIP3    H215229   4.266   0.562   5.855
 5089TIP3   OH215230   1.427   6.024   4.989
 5089TIP3    H115231   1.336   6.052   4.997
 5089TIP3    H215232   1.453   6.000   5.078
 5090TIP3   OH215233   7.205   5.270   4.492
 5090TIP3    H115234   7.175   5.348   4.446
 5090TIP3    H215235   7.137   5.205   4.476
 5091TIP3   OH215236   5.351   5.269   0.875
 5091TIP3    H115237   5.334   5.316   0.957
 5091TIP3    H215238   5.379   5.182   0.903
 5092TIP3   OH215239   6.734   1.180   5.858
 5092TIP3    H115240   6.660   1.230   5.893
 5092TIP3    H215241   6.700   1.092   5.847
 5093TIP3   OH215242   5.840   3.221   2.851
 5093TIP3    H115243   5.763   3.218   2.793
 5093TIP3    H215244   5.869   3.130   2.857
 5094TIP3   OH215245   2.507   0.318   5.810
 5094TIP3    H115246   2.421   0.361   5.811
 5094TIP3    H215247   2.546   0.344   5.726
 5095TIP3   OH215248   5.362   6.215   0.243
 5095TIP3    H115249   5.290   6.261   0.200
 5095TIP3    H215250   5.371   6.257   0.329
 5096TIP3   OH215251   2.934   2.903   5.190
 5096TIP3    H115252   2.843   2.876   5.173
 5096TIP3    H215253   2.961   2.946   5.109
 5097TIP3   OH215254   2.496   5.151   5.570
 5097TIP3    H115255   2.494   5.062   5.534
 5097TIP3    H215256   2.500   5.138   5.665
 5098TIP3   OH215257   0.830   3.133   3.831
 5098TIP3    H115258   0.845   3.115   3.738
 5098TIP3    H215259   0.917   3.152   3.866
 5099TIP3   OH215260   3.260   6.138   1.461
 5099TIP3    H115261   3.175   6.178   1.444
 5099TIP3    H215262   3.272   6.147   1.555
 5100TIP3   OH215263   4.492   5.317   4.783
 5100TIP3    H115264   4.433   5.335   4.856
 5100TIP3    H215265   4.436   5.323   4.705
 5101TIP3   OH215266   2.702   5.812   4.234
 5101TIP3    H115267   2.763   5.738   4.223
 5101TIP3    H215268   2.759   5.887   4.248
 5102TIP3   OH215269   4.691   2.396   4.031
 5102TIP3    H115270   4.609   2.392   3.982
 5102TIP3    H215271   4.757   2.367   3.968
 5103TIP3   OH215272   7.162   5.938   0.881
 5103TIP3    H115273   7.101   5.915   0.812
 5103TIP3    H215274   7.190   6.027   0.859
 5104TIP3   OH215275   4.005   3.304   0.507
 5104TIP3    H115276   3.964   3.259   0.433
 5104TIP3    H215277   3.945   3.289   0.580
 5105TIP3   OH215278   2.779   0.767   0.962
 5105TIP3    H115279   2.807   0.785   1.051
 5105TIP3    H215280   2.730   0.684   0.968
 5106TIP3   OH215281   2.175   4.120   0.796
 5106TIP3    H115282   2.180   4.182   0.723
 5106TIP3    H215283   2.133   4.170   0.866
 5107TIP3   OH215284   3.764   1.494   5.365
 5107TIP3    H115285   3.808   1.439   5.430
 5107TIP3    H215286   3.731   1.432   5.300
 5108TIP3   OH215287   4.268   5.083   0.501
 5108TIP3    H115288   4.317   5.164   0.484
 5108TIP3    H215289   4.278   5.032   0.420
 5109TIP3   OH215290   4.051   6.039   1.265
 5109TIP3    H115291   4.096   6.081   1.191
 5109TIP3    H215292   3.964   6.078   1.264
 5110TIP3   OH215293   2.861   0.356   3.544
 5110TIP3    H115294   2.803   0.372   3.619
 5110TIP3    H215295   2.935   0.308   3.581
 5111TIP3   OH215296   2.214   3.437   5.652
 5111TIP3    H115297   2.295   3.401   5.690
 5111TIP3    H215298   2.236   3.527   5.630
 5112TIP3   OH215299   5.671   3.208   1.254
 5112TIP3    H115300   5.647   3.191   1.163
 5112TIP3    H215301   5.590   3.194   1.303
 5113TIP3   OH215302   3.152   2.495   5.329
 5113TIP3    H115303   3.147   2.550   5.251
 5113TIP3    H215304   3.156   2.405   5.296
 5114TIP3   OH215305   0.976   2.020   3.808
 5114TIP3    H115306   0.937   2.078   3.873
 5114TIP3    H215307   1.070   2.032   3.818
 5115TIP3   OH215308   6.809   5.493   1.083
 5115TIP3    H115309   6.732   5.516   1.031
 5115TIP3    H215310   6.858   5.575   1.090
 5116TIP3   OH215311   1.289   5.343   0.535
 5116TIP3    H115312   1.345   5.384   0.601
 5116TIP3    H215313   1.280   5.252   0.565
 5117TIP3   OH215314   6.206   1.821   4.002
 5117TIP3    H115315   6.217   1.728   4.022
 5117TIP3    H215316   6.234   1.830   3.911
 5118TIP3   OH215317   1.132   1.389   0.595
 5118TIP3    H115318   1.086   1.305   0.601
 5118TIP3    H215319   1.063   1.455   0.606
 5119TIP3   OH215320   6.326   4.403   2.131
 5119TIP3    H115321   6.230   4.400   2.130
 5119TIP3    H215322   6.348   4.490   2.097
 5120TIP3   OH215323   6.621   6.654   3.813
 5120TIP3    H115324   6.562   6.639   3.739
 5120TIP3    H215325   6.580   6.607   3.886
 5121TIP3   OH215326   0.764   0.504   4.915
 5121TIP3    H115327   0.691   0.445   4.894
 5121TIP3    H215328   0.812   0.512   4.832
 5122TIP3   OH215329   6.888   3.336   3.122
 5122TIP3    H115330   6.978   3.336   3.154
 5122TIP3    H215331   6.861   3.245   3.126
 5123TIP3   OH215332   2.568   5.506   0.757
 5123TIP3    H115333   2.587   5.598   0.775
 5123TIP3    H215334   2.517   5.507   0.676
 5124TIP3   OH215335   0.064   5.229   3.655
 5124TIP3    H115336   0.016   5.235   3.572
 5124TIP3    H215337   0.034   5.304   3.706
 5125TIP3   OH215338   1.703   0.474   4.693
 5125TIP3    H115339   1.683   0.518   4.610
 5125TIP3    H215340   1.623   0.483   4.744
 5126TIP3   OH215341   0.447   2.103   1.151
 5126TIP3    H115342   0.436   2.072   1.062
 5126TIP3    H215343   0.539   2.083   1.172
 5127TIP3   OH215344   6.386   4.254   3.657
 5127TIP3    H115345   6.392   4.164   3.690
 5127TIP3    H215346   6.332   4.300   3.722
 5128TIP3   OH215347   1.432   6.484   5.152
 5128TIP3    H115348   1.497   6.419   5.127
 5128TIP3    H215349   1.479   6.567   5.154
 5129TIP3   OH215350   2.535   2.760   2.451
 5129TIP3    H115351   2.528   2.718   2.536
 5129TIP3    H215352   2.483   2.840   2.459
 5130TIP3   OH215353   5.629   3.716   0.335
 5130TIP3    H115354   5.581   3.797   0.345
 5130TIP3    H215355   5.606   3.685   0.247
 5131TIP3   OH215356   3.869   6.109   2.197
 5131TIP3    H115357   3.868   6.029   2.250
 5131TIP3    H215358   3.777   6.135   2.192
 5132TIP3   OH215359   5.137   4.806   5.312
 5132TIP3    H115360   5.180   4.798   5.227
 5132TIP3    H215361   5.200   4.852   5.367
 5133TIP3   OH215362   0.462   6.141   1.040
 5133TIP3    H115363   0.538   6.191   1.012
 5133TIP3    H215364   0.392   6.167   0.980
 5134TIP3   OH215365   5.286   2.185   2.627
 5134TIP3    H115366   5.332   2.156   2.548
 5134TIP3    H215367   5.310   2.277   2.636
 5135TIP3   OH215368   2.944   5.609   4.204
 5135TIP3    H115369   2.911   5.532   4.156
 5135TIP3    H215370   3.038   5.608   4.190
 5136TIP3   OH215371   6.510   4.201   0.104
 5136TIP3    H115372   6.446   4.237   0.166
 5136TIP3    H215373   6.577   4.162   0.160
 5137TIP3   OH215374   3.111   2.950   4.462
 5137TIP3    H115375   3.131   3.035   4.503
 5137TIP3    H215376   3.194   2.903   4.461
 5138TIP3   OH215377   2.003   1.033   1.751
 5138TIP3    H115378   2.028   1.097   1.684
 5138TIP3    H215379   2.017   1.078   1.834
 5139TIP3   OH215380   5.466   5.112   0.428
 5139TIP3    H115381   5.443   5.037   0.374
 5139TIP3    H215382   5.489   5.180   0.364
 5140TIP3   OH215383   5.136   3.305   2.336
 5140TIP3    H115384   5.056   3.261   2.307
 5140TIP3    H215385   5.105   3.383   2.383
 5141TIP3   OH215386   0.656   5.848   3.806
 5141TIP3    H115387   0.613   5.767   3.776
 5141TIP3    H215388   0.638   5.851   3.900
 5142TIP3   OH215389   0.420   5.007   3.226
 5142TIP3    H115390   0.372   4.926   3.208
 5142TIP3    H215391   0.409   5.060   3.146
 5143TIP3   OH215392   4.145   2.254   3.810
 5143TIP3    H115393   4.194   2.302   3.876
 5143TIP3    H215394   4.203   2.251   3.734
 5144TIP3   OH215395   6.653   1.385   5.703
 5144TIP3    H115396   6.738   1.400   5.661
 5144TIP3    H215397   6.646   1.289   5.708
 5145TIP3   OH215398   4.024   6.231   3.060
 5145TIP3    H115399   3.976   6.280   2.993
 5145TIP3    H215400   4.110   6.216   3.021
 5146TIP3   OH215401   3.209   2.099   3.877
 5146TIP3    H115402   3.217   2.183   3.923
 5146TIP3    H215403   3.231   2.120   3.786
 5147TIP3   OH215404   3.727   4.099   5.034
 5147TIP3    H115405   3.787   4.055   4.975
 5147TIP3    H215406   3.683   4.029   5.082
 5148TIP3   OH215407   1.120   5.211   1.675
 5148TIP3    H115408   1.104   5.213   1.769
 5148TIP3    H215409   1.044   5.165   1.638
 5149TIP3   OH215410   2.769   6.011   5.437
 5149TIP3    H115411   2.846   6.068   5.435
 5149TIP3    H215412   2.722   6.036   5.516
 5150TIP3   OH215413   6.470   3.597   1.519
 5150TIP3    H115414   6.539   3.610   1.454
 5150TIP3    H215415   6.507   3.534   1.580
 5151TIP3   OH215416   1.158   3.432   0.417
 5151TIP3    H115417   1.249   3.414   0.441
 5151TIP3    H215418   1.112   3.438   0.501
 5152TIP3   OH215419   4.804   4.854   0.138
 5152TIP3    H115420   4.891   4.831   0.104
 5152TIP3    H215421   4.800   4.810   0.223
 5153TIP3   OH215422   1.735   0.789   5.376
 5153TIP3    H115423   1.687   0.721   5.424
 5153TIP3    H215424   1.685   0.869   5.392
 5154TIP3   OH215425   3.763   5.951   3.715
 5154TIP3    H115426   3.833   5.900   3.756
 5154TIP3    H215427   3.714   5.989   3.789
 5155TIP3   OH215428   5.487   4.524   1.084
 5155TIP3    H115429   5.512   4.451   1.028
 5155TIP3    H215430   5.512   4.497   1.172
 5156TIP3   OH215431   0.801   5.733   1.594
 5156TIP3    H115432   0.818   5.720   1.501
 5156TIP3    H215433   0.795   5.645   1.631
 5157TIP3   OH215434   0.510   2.436   3.966
 5157TIP3    H115435   0.570   2.375   3.922
 5157TIP3    H215436   0.466   2.383   4.032
 5158TIP3   OH215437   6.842   1.078   5.178
 5158TIP3    H115438   6.833   1.169   5.207
 5158TIP3    H215439   6.833   1.082   5.083
 5159TIP3   OH215440   3.360   4.145   3.558
 5159TIP3    H115441   3.378   4.187   3.474
 5159TIP3    H215442   3.265   4.132   3.559
 5160TIP3   OH215443   3.509   5.427   2.902
 5160TIP3    H115444   3.516   5.513   2.944
 5160TIP3    H215445   3.416   5.417   2.884
 5161TIP3   OH215446   0.194   1.381   1.568
 5161TIP3    H115447   0.099   1.370   1.555
 5161TIP3    H215448   0.224   1.296   1.600
 5162TIP3   OH215449   3.528   5.549   3.216
 5162TIP3    H115450   3.500   5.630   3.258
 5162TIP3    H215451   3.588   5.509   3.280
 5163TIP3   OH215452   6.070   4.573   3.694
 5163TIP3    H115453   6.158   4.594   3.725
 5163TIP3    H215454   6.064   4.478   3.702
 5164TIP3   OH215455   2.599   1.876   2.242
 5164TIP3    H115456   2.613   1.873   2.148
 5164TIP3    H215457   2.534   1.944   2.255
 5165TIP3   OH215458   2.632   2.401   5.391
 5165TIP3    H115459   2.653   2.338   5.459
 5165TIP3    H215460   2.710   2.405   5.336
 5166TIP3   OH215461   0.480   3.399   0.327
 5166TIP3    H115462   0.562   3.420   0.372
 5166TIP3    H215463   0.483   3.304   0.315
 5167TIP3   OH215464   4.549   3.424   2.160
 5167TIP3    H115465   4.615   3.411   2.092
 5167TIP3    H215466   4.599   3.443   2.239
 5168TIP3   OH215467   5.194   6.171   3.403
 5168TIP3    H115468   5.235   6.235   3.345
 5168TIP3    H215469   5.266   6.137   3.455
 5169TIP3   OH215470   3.537   6.048   1.249
 5169TIP3    H115471   3.537   6.139   1.277
 5169TIP3    H215472   3.455   6.038   1.200
 5170TIP3   OH215473   5.437   3.587   5.204
 5170TIP3    H115474   5.458   3.567   5.295
 5170TIP3    H215475   5.472   3.675   5.190
 5171TIP3   OH215476   4.017   1.071   5.046
 5171TIP3    H115477   4.002   1.000   4.983
 5171TIP3    H215478   3.933   1.081   5.090
 5172TIP3   OH215479   5.343   4.077   0.037
 5172TIP3    H115480   5.348   4.172   0.032
 5172TIP3    H215481   5.427   4.047   0.002
 5173TIP3   OH215482   6.541   3.290   0.798
 5173TIP3    H115483   6.481   3.299   0.872
 5173TIP3    H215484   6.498   3.226   0.741
 5174TIP3   OH215485   4.110   1.545   5.893
 5174TIP3    H115486   4.165   1.491   5.836
 5174TIP3    H215487   4.159   1.626   5.906
 5175TIP3   OH215488   6.545   3.974   2.356
 5175TIP3    H115489   6.510   4.060   2.379
 5175TIP3    H215490   6.481   3.938   2.294
 5176TIP3   OH215491   3.070   5.621   2.321
 5176TIP3    H115492   3.039   5.711   2.325
 5176TIP3    H215493   2.992   5.569   2.303
 5177TIP3   OH215494   2.715   1.592   1.558
 5177TIP3    H115495   2.715   1.545   1.475
 5177TIP3    H215496   2.791   1.558   1.605
 5178TIP3   OH215497   0.101   2.588   1.169
 5178TIP3    H115498   0.075   2.628   1.252
 5178TIP3    H215499   0.153   2.511   1.194
 5179TIP3   OH215500   0.017   2.661   3.632
 5179TIP3    H115501  -0.001   2.713   3.711
 5179TIP3    H215502   0.048   2.725   3.568
 5180TIP3   OH215503   6.033   6.599   2.253
 5180TIP3    H115504   5.964   6.537   2.228
 5180TIP3    H215505   6.105   6.580   2.193
 5181TIP3   OH215506   5.897   4.242   4.347
 5181TIP3    H115507   5.879   4.207   4.434
 5181TIP3    H215508   5.964   4.309   4.362
 5182TIP3   OH215509   1.663   0.270   2.267
 5182TIP3    H115510   1.751   0.256   2.301
 5182TIP3    H215511   1.673   0.338   2.201
 5183TIP3   OH215512   6.803   3.110   4.290
 5183TIP3    H115513   6.773   3.158   4.367
 5183TIP3    H215514   6.863   3.170   4.246
 5184TIP3   OH215515   4.773   2.777   0.509
 5184TIP3    H115516   4.846   2.804   0.564
 5184TIP3    H215517   4.695   2.803   0.558
 5185TIP3   OH215518   1.803   2.013   1.658
 5185TIP3    H115519   1.819   1.924   1.692
 5185TIP3    H215520   1.846   2.014   1.573
 5186TIP3   OH215521   2.930   3.161   3.263
 5186TIP3    H115522   2.979   3.135   3.341
 5186TIP3    H215523   2.899   3.250   3.283
 5187TIP3   OH215524   1.203   4.943   4.727
 5187TIP3    H115525   1.177   4.949   4.819
 5187TIP3    H215526   1.195   5.033   4.694
 5188TIP3   OH215527   2.839   6.410   5.736
 5188TIP3    H115528   2.909   6.473   5.756
 5188TIP3    H215529   2.770   6.432   5.798
 5189TIP3   OH215530   0.248   1.585   0.445
 5189TIP3    H115531   0.174   1.559   0.500
 5189TIP3    H215532   0.324   1.546   0.488
 5190TIP3   OH215533   1.039   6.364   1.459
 5190TIP3    H115534   1.061   6.273   1.479
 5190TIP3    H215535   1.108   6.415   1.501
 5191TIP3   OH215536   0.083   6.389   1.100
 5191TIP3    H115537   0.137   6.436   1.163
 5191TIP3    H215538   0.028   6.332   1.153
 5192TIP3   OH215539   6.747   0.494   5.823
 5192TIP3    H115540   6.791   0.578   5.840
 5192TIP3    H215541   6.816   0.429   5.834
 5193TIP3   OH215542   2.784   4.770   2.611
 5193TIP3    H115543   2.771   4.811   2.696
 5193TIP3    H215544   2.696   4.756   2.577
 5194TIP3   OH215545   0.294   3.786   1.934
 5194TIP3    H115546   0.376   3.736   1.938
 5194TIP3    H215547   0.322   3.877   1.935
 5195TIP3   OH215548   2.108   6.297   1.173
 5195TIP3    H115549   2.058   6.279   1.252
 5195TIP3    H215550   2.053   6.358   1.124
 5196TIP3   OH215551   7.051   6.391  -0.009
 5196TIP3    H115552   7.140   6.428  -0.007
 5196TIP3    H215553   7.019   6.403   0.081
 5197TIP3   OH215554   7.003   2.331   0.392
 5197TIP3    H115555   6.940   2.364   0.328
 5197TIP3    H215556   7.057   2.407   0.413
 5198TIP3   OH215557   6.244   1.183   3.406
 5198TIP3    H115558   6.284   1.244   3.468
 5198TIP3    H215559   6.304   1.180   3.332
 5199TIP3   OH215560   0.034   2.350   2.436
 5199TIP3    H115561   0.011   2.276   2.379
 5199TIP3    H215562   0.112   2.387   2.396
 5200TIP3   OH215563   6.944   2.857   4.261
 5200TIP3    H115564   7.005   2.899   4.201
 5200TIP3    H215565   6.909   2.928   4.314
 5201TIP3   OH215566   6.009   5.972   3.058
 5201TIP3    H115567   6.038   5.962   3.149
 5201TIP3    H215568   6.019   5.885   3.020
 5202TIP3   OH215569   2.461   1.136   5.331
 5202TIP3    H115570   2.396   1.067   5.320
 5202TIP3    H215571   2.415   1.217   5.311
 5203TIP3   OH215572   5.435   1.398   4.717
 5203TIP3    H115573   5.487   1.342   4.774
 5203TIP3    H215574   5.479   1.394   4.632
 5204TIP3   OH215575   3.555   3.483   3.106
 5204TIP3    H115576   3.463   3.457   3.099
 5204TIP3    H215577   3.570   3.539   3.030
 5205TIP3   OH215578   1.507   1.813   0.839
 5205TIP3    H115579   1.421   1.835   0.803
 5205TIP3    H215580   1.524   1.723   0.810
 5206TIP3   OH215581   0.313   4.137   0.975
 5206TIP3    H115582   0.264   4.197   0.919
 5206TIP3    H215583   0.395   4.123   0.928
 5207TIP3   OH215584   5.600   6.590   5.613
 5207TIP3    H115585   5.528   6.551   5.564
 5207TIP3    H215586   5.670   6.601   5.549
 5208TIP3   OH215587   2.602   2.993   2.803
 5208TIP3    H115588   2.568   3.065   2.857
 5208TIP3    H215589   2.532   2.976   2.740
 5209TIP3   OH215590   2.761   6.793   1.503
 5209TIP3    H115591   2.836   6.741   1.533
 5209TIP3    H215592   2.688   6.759   1.554
 5210TIP3   OH215593   5.787   5.958   5.684
 5210TIP3    H115594   5.815   6.037   5.639
 5210TIP3    H215595   5.700   5.979   5.719
 5211TIP3   OH215596   4.110   2.888   0.097
 5211TIP3    H115597   4.199   2.864   0.070
 5211TIP3    H215598   4.078   2.812   0.146
 5212TIP3   OH215599   4.819   0.902   1.980
 5212TIP3    H115600   4.750   0.868   1.924
 5212TIP3    H215601   4.773   0.934   2.058
 5213TIP3   OH215602   1.529   0.564   0.956
 5213TIP3    H115603   1.477   0.642   0.937
 5213TIP3    H215604   1.600   0.566   0.892
 5214TIP3   OH215605   0.321   1.631   3.826
 5214TIP3    H115606   0.269   1.686   3.768
 5214TIP3    H215607   0.295   1.657   3.914
 5215TIP3   OH215608   0.457   5.533   4.359
 5215TIP3    H115609   0.368   5.505   4.378
 5215TIP3    H215610   0.454   5.564   4.269
 5216TIP3   OH215611   5.444   5.907   4.245
 5216TIP3    H115612   5.399   5.825   4.222
 5216TIP3    H215613   5.507   5.921   4.174
 5217TIP3   OH215614   0.784   3.348   1.224
 5217TIP3    H115615   0.771   3.443   1.231
 5217TIP3    H215616   0.722   3.320   1.156
 5218TIP3   OH215617   1.376   6.223   4.158
 5218TIP3    H115618   1.464   6.193   4.181
 5218TIP3    H215619   1.318   6.172   4.215
 5219TIP3   OH215620   5.984   1.007   2.725
 5219TIP3    H115621   6.071   0.969   2.711
 5219TIP3    H215622   5.937   0.990   2.643
 5220TIP3   OH215623   1.151   5.914   0.181
 5220TIP3    H115624   1.084   5.855   0.145
 5220TIP3    H215625   1.106   5.999   0.187
 5221TIP3   OH215626   0.697   0.676   0.061
 5221TIP3    H115627   0.758   0.653   0.132
 5221TIP3    H215628   0.748   0.735   0.005
 5222TIP3   OH215629   6.962   1.441   2.387
 5222TIP3    H115630   7.035   1.391   2.350
 5222TIP3    H215631   6.887   1.382   2.380
 5223TIP3   OH215632   1.173   4.069   1.031
 5223TIP3    H115633   1.187   4.069   1.126
 5223TIP3    H215634   1.245   4.016   0.997
 5224TIP3   OH215635   6.506   0.821   3.725
 5224TIP3    H115636   6.586   0.826   3.776
 5224TIP3    H215637   6.490   0.911   3.696
 5225TIP3   OH215638   3.842   3.263   3.151
 5225TIP3    H115639   3.899   3.217   3.213
 5225TIP3    H215640   3.898   3.331   3.113
 5226TIP3   OH215641   6.272   4.990   3.041
 5226TIP3    H115642   6.287   5.020   3.131
 5226TIP3    H215643   6.359   4.971   3.007
 5227TIP3   OH215644   6.192   6.238   5.542
 5227TIP3    H115645   6.146   6.280   5.614
 5227TIP3    H215646   6.280   6.276   5.544
 5228TIP3   OH215647   3.315   3.120   5.456
 5228TIP3    H115648   3.326   3.025   5.464
 5228TIP3    H215649   3.310   3.136   5.361
 5229TIP3   OH215650   4.287   3.321   0.062
 5229TIP3    H115651   4.273   3.320  -0.033
 5229TIP3    H215652   4.285   3.414   0.085
 5230TIP3   OH215653   4.700   2.242   3.396
 5230TIP3    H115654   4.708   2.215   3.488
 5230TIP3    H215655   4.700   2.337   3.399
 5231TIP3   OH215656   0.147   4.817   0.938
 5231TIP3    H115657   0.083   4.884   0.959
 5231TIP3    H215658   0.214   4.825   1.006
 5232TIP3   OH215659   3.625   4.277   4.848
 5232TIP3    H115660   3.674   4.224   4.910
 5232TIP3    H215661   3.673   4.269   4.766
 5233TIP3   OH215662   6.017   5.682   2.876
 5233TIP3    H115663   6.044   5.601   2.920
 5233TIP3    H215664   5.945   5.655   2.819
 5234TIP3   OH215665   2.699   1.045   1.957
 5234TIP3    H115666   2.680   1.054   1.864
 5234TIP3    H215667   2.614   1.058   2.000
 5235TIP3   OH215668   1.874   1.758   3.289
 5235TIP3    H115669   1.962   1.785   3.264
 5235TIP3    H215670   1.870   1.665   3.267
 5236TIP3   OH215671   5.811   3.903   4.332
 5236TIP3    H115672   5.839   3.828   4.279
 5236TIP3    H215673   5.719   3.916   4.309
 5237TIP3   OH215674   3.063   6.597   5.803
 5237TIP3    H115675   2.989   6.628   5.750
 5237TIP3    H215676   3.100   6.676   5.842
 5238TIP3   OH215677   1.862   0.314   4.184
 5238TIP3    H115678   1.819   0.237   4.147
 5238TIP3    H215679   1.800   0.385   4.171
 5239TIP3   OH215680   2.323   6.538   1.171
 5239TIP3    H115681   2.282   6.602   1.229
 5239TIP3    H215682   2.251   6.481   1.145
 5240TIP3   OH215683   5.974   0.697   5.241
 5240TIP3    H115684   5.912   0.628   5.266
 5240TIP3    H215685   6.057   0.651   5.231
 5241TIP3   OH215686   6.309   3.308   4.005
 5241TIP3    H115687   6.301   3.369   4.078
 5241TIP3    H215688   6.234   3.249   4.015
 5242TIP3   OH215689   6.322   3.129   4.274
 5242TIP3    H115690   6.397   3.166   4.321
 5242TIP3    H215691   6.247   3.179   4.305
 5243TIP3   OH215692   6.262   4.107   0.552
 5243TIP3    H115693   6.338   4.140   0.599
 5243TIP3    H215694   6.283   4.014   0.536
 5244TIP3   OH215695   2.550   3.843   0.767
 5244TIP3    H115696   2.480   3.877   0.823
 5244TIP3    H215697   2.516   3.853   0.678
 5245TIP3   OH215698   3.246   6.742   3.321
 5245TIP3    H115699   3.266   6.807   3.254
 5245TIP3    H215700   3.252   6.658   3.275
 5246TIP3   OH215701   1.662   6.329   2.535
 5246TIP3    H115702   1.720   6.256   2.556
 5246TIP3    H215703   1.671   6.389   2.609
 5247TIP3   OH215704   4.834   0.254   4.360
 5247TIP3    H115705   4.764   0.305   4.402
 5247TIP3    H215706   4.912   0.274   4.412
 5248TIP3   OH215707   0.322   0.908   3.256
 5248TIP3    H115708   0.276   0.939   3.334
 5248TIP3    H215709   0.252   0.890   3.193
 5249TIP3   OH215710   6.784   5.542   5.208
 5249TIP3    H115711   6.813   5.479   5.274
 5249TIP3    H215712   6.689   5.547   5.220
 5250TIP3   OH215713   0.455   1.251   2.662
 5250TIP3    H115714   0.417   1.282   2.579
 5250TIP3    H215715   0.532   1.201   2.635
 5251TIP3   OH215716   0.236   2.134   4.678
 5251TIP3    H115717   0.234   2.069   4.608
 5251TIP3    H215718   0.157   2.186   4.665
 5252TIP3   OH215719   0.231   4.854   4.850
 5252TIP3    H115720   0.220   4.936   4.899
 5252TIP3    H215721   0.310   4.868   4.798
 5253TIP3   OH215722   0.764   4.463   4.051
 5253TIP3    H115723   0.687   4.437   4.000
 5253TIP3    H215724   0.791   4.382   4.096
 5254TIP3   OH215725   0.264   3.023   0.355
 5254TIP3    H115726   0.353   3.060   0.352
 5254TIP3    H215727   0.211   3.093   0.393
 5255TIP3   OH215728   3.379   0.669   4.712
 5255TIP3    H115729   3.315   0.602   4.735
 5255TIP3    H215730   3.340   0.751   4.740
 5256TIP3   OH215731   6.409   4.835   3.322
 5256TIP3    H115732   6.424   4.782   3.400
 5256TIP3    H215733   6.335   4.792   3.278
 5257TIP3   OH215734   2.571   5.740   4.482
 5257TIP3    H115735   2.620   5.770   4.405
 5257TIP3    H215736   2.479   5.756   4.459
 5258TIP3   OH215737   4.668   2.005   0.606
 5258TIP3    H115738   4.743   2.061   0.628
 5258TIP3    H215739   4.609   2.062   0.557
 5259TIP3   OH215740   6.376   5.891   5.649
 5259TIP3    H115741   6.324   5.820   5.611
 5259TIP3    H215742   6.333   5.971   5.618
 5260TIP3   OH215743   4.842   0.859   4.488
 5260TIP3    H115744   4.831   0.833   4.396
 5260TIP3    H215745   4.869   0.779   4.533
 5261TIP3   OH215746   6.928   3.364   3.709
 5261TIP3    H115747   6.988   3.436   3.694
 5261TIP3    H215748   6.902   3.374   3.801
 5262TIP3   OH215749   1.994   3.367   5.525
 5262TIP3    H115750   2.060   3.383   5.591
 5262TIP3    H215751   2.038   3.313   5.460
 5263TIP3   OH215752   6.050   4.846   4.218
 5263TIP3    H115753   6.077   4.754   4.219
 5263TIP3    H215754   5.965   4.846   4.261
 5264TIP3   OH215755   1.379   4.276   1.510
 5264TIP3    H115756   1.399   4.258   1.602
 5264TIP3    H215757   1.457   4.248   1.462
 5265TIP3   OH215758   5.091   1.166   5.208
 5265TIP3    H115759   5.051   1.079   5.194
 5265TIP3    H215760   5.016   1.226   5.210
 5266TIP3   OH215761   2.475   2.307   5.784
 5266TIP3    H115762   2.535   2.263   5.844
 5266TIP3    H215763   2.426   2.237   5.742
 5267TIP3   OH215764   5.523   4.183   4.526
 5267TIP3    H115765   5.583   4.112   4.504
 5267TIP3    H215766   5.473   4.150   4.601
 5268TIP3   OH215767   4.433   1.918   3.300
 5268TIP3    H115768   4.347   1.943   3.265
 5268TIP3    H215769   4.470   2.000   3.333
 5269TIP3   OH215770   1.467   5.872   3.733
 5269TIP3    H115771   1.413   5.903   3.660
 5269TIP3    H215772   1.508   5.951   3.768
 5270TIP3   OH215773   4.326   4.868   2.261
 5270TIP3    H115774   4.266   4.909   2.323
 5270TIP3    H215775   4.358   4.940   2.207
 5271TIP3   OH215776   3.996   2.764   4.450
 5271TIP3    H115777   3.903   2.756   4.471
 5271TIP3    H215778   4.002   2.845   4.400
 5272TIP3   OH215779   4.570   2.268   4.311
 5272TIP3    H115780   4.562   2.347   4.364
 5272TIP3    H215781   4.497   2.274   4.249
 5273TIP3   OH215782   4.287   0.335   2.072
 5273TIP3    H115783   4.338   0.314   1.994
 5273TIP3    H215784   4.283   0.253   2.121
 5274TIP3   OH215785   6.915   3.696   1.025
 5274TIP3    H115786   6.945   3.612   1.061
 5274TIP3    H215787   6.956   3.762   1.082
 5275TIP3   OH215788   4.272   0.713   1.445
 5275TIP3    H115789   4.179   0.712   1.468
 5275TIP3    H215790   4.296   0.620   1.443
 5276TIP3   OH215791   0.128   2.878   3.487
 5276TIP3    H115792   0.204   2.856   3.433
 5276TIP3    H215793   0.076   2.937   3.432
 5277TIP3   OH215794   3.734   5.888   5.847
 5277TIP3    H115795   3.759   5.843   5.766
 5277TIP3    H215796   3.663   5.836   5.883
 5278TIP3   OH215797   3.072   6.253   2.366
 5278TIP3    H115798   2.978   6.240   2.351
 5278TIP3    H215799   3.092   6.337   2.324
 5279TIP3   OH215800   3.429   0.577   1.965
 5279TIP3    H115801   3.336   0.566   1.942
 5279TIP3    H215802   3.476   0.537   1.892
 5280TIP3   OH215803   3.816   6.191   4.001
 5280TIP3    H115804   3.881   6.173   4.070
 5280TIP3    H215805   3.762   6.261   4.037
 5281TIP3   OH215806   6.223   4.248   5.320
 5281TIP3    H115807   6.307   4.204   5.334
 5281TIP3    H215808   6.242   4.340   5.334
 5282TIP3   OH215809   5.878   4.272   1.893
 5282TIP3    H115810   5.865   4.331   1.820
 5282TIP3    H215811   5.910   4.191   1.853
 5283TIP3   OH215812   2.906   4.434   1.142
 5283TIP3    H115813   2.881   4.344   1.123
 5283TIP3    H215814   2.879   4.483   1.063
 5284TIP3   OH215815   5.791   5.127   4.952
 5284TIP3    H115816   5.795   5.042   4.907
 5284TIP3    H215817   5.773   5.105   5.043
 5285TIP3   OH215818   4.903   0.196   1.545
 5285TIP3    H115819   4.998   0.188   1.539
 5285TIP3    H215820   4.879   0.255   1.473
 5286TIP3   OH215821   1.662   0.112   4.052
 5286TIP3    H115822   1.618   0.121   3.967
 5286TIP3    H215823   1.716   0.034   4.042
 5287TIP3   OH215824   1.479   6.187   4.649
 5287TIP3    H115825   1.482   6.208   4.556
 5287TIP3    H215826   1.397   6.139   4.660
 5288TIP3   OH215827   6.191   5.145   5.417
 5288TIP3    H115828   6.229   5.082   5.356
 5288TIP3    H215829   6.225   5.230   5.389
 5289TIP3   OH215830   2.788   3.869   2.582
 5289TIP3    H115831   2.861   3.815   2.553
 5289TIP3    H215832   2.760   3.829   2.665
 5290TIP3   OH215833   3.322   2.614   3.983
 5290TIP3    H115834   3.281   2.545   3.930
 5290TIP3    H215835   3.303   2.588   4.073
 5291TIP3   OH215836   3.918   0.142   4.414
 5291TIP3    H115837   3.832   0.160   4.375
 5291TIP3    H215838   3.977   0.205   4.372
 5292TIP3   OH215839   3.957   3.279   4.700
 5292TIP3    H115840   3.975   3.347   4.765
 5292TIP3    H215841   3.864   3.288   4.680
 5293TIP3   OH215842   2.743   3.664   2.266
 5293TIP3    H115843   2.658   3.633   2.237
 5293TIP3    H215844   2.754   3.624   2.353
 5294TIP3   OH215845   1.010   2.655   1.272
 5294TIP3    H115846   1.064   2.727   1.242
 5294TIP3    H215847   0.923   2.674   1.237
 5295TIP3   OH215848   4.429   6.128   0.193
 5295TIP3    H115849   4.477   6.195   0.143
 5295TIP3    H215850   4.423   6.165   0.281
 5296TIP3   OH215851   5.021   1.686   1.953
 5296TIP3    H115852   5.024   1.634   1.873
 5296TIP3    H215853   4.928   1.700   1.970
 5297TIP3   OH215854   1.702   0.545   4.134
 5297TIP3    H115855   1.622   0.578   4.175
 5297TIP3    H215856   1.699   0.579   4.045
 5298TIP3   OH215857   1.397   1.884   1.163
 5298TIP3    H115858   1.331   1.949   1.190
 5298TIP3    H215859   1.385   1.876   1.069
 5299TIP3   OH215860   6.064   2.503   4.426
 5299TIP3    H115861   5.988   2.554   4.455
 5299TIP3    H215862   6.042   2.475   4.337
 5300TIP3   OH215863   3.842   2.614   3.807
 5300TIP3    H115864   3.845   2.522   3.782
 5300TIP3    H215865   3.873   2.661   3.729
 5301TIP3   OH215866   6.580   5.263   5.011
 5301TIP3    H115867   6.670   5.278   4.981
 5301TIP3    H215868   6.586   5.183   5.064
 5302TIP3   OH215869   1.950   3.199   3.729
 5302TIP3    H115870   1.971   3.158   3.645
 5302TIP3    H215871   2.019   3.264   3.742
 5303TIP3   OH215872   5.366   1.009   1.355
 5303TIP3    H115873   5.275   1.029   1.376
 5303TIP3    H215874   5.377   0.917   1.380
 5304TIP3   OH215875   0.477   5.758   3.575
 5304TIP3    H115876   0.404   5.704   3.546
 5304TIP3    H215877   0.436   5.830   3.623
 5305TIP3   OH215878   1.491   4.576   4.587
 5305TIP3    H115879   1.544   4.605   4.512
 5305TIP3    H215880   1.474   4.656   4.636
 5306TIP3   OH215881   0.078   0.690   4.340
 5306TIP3    H115882   0.145   0.693   4.408
 5306TIP3    H215883   0.120   0.642   4.268
 5307TIP3   OH215884   6.427   3.994   4.817
 5307TIP3    H115885   6.459   3.945   4.893
 5307TIP3    H215886   6.359   4.052   4.852
 5308TIP3   OH215887   1.536   4.292   0.119
 5308TIP3    H115888   1.490   4.213   0.091
 5308TIP3    H215889   1.476   4.363   0.100
 5309TIP3   OH215890   1.069   4.691   2.941
 5309TIP3    H115891   1.046   4.749   3.013
 5309TIP3    H215892   1.158   4.662   2.960
 5310TIP3   OH215893   3.570   6.343   3.592
 5310TIP3    H115894   3.629   6.311   3.661
 5310TIP3    H215895   3.610   6.314   3.510
 5311TIP3   OH215896   0.980   3.994   2.951
 5311TIP3    H115897   1.069   4.029   2.947
 5311TIP3    H215898   0.943   4.031   3.031
 5312TIP3   OH215899   0.791   4.112   1.951
 5312TIP3    H115900   0.863   4.078   2.003
 5312TIP3    H215901   0.804   4.207   1.949
 5313TIP3   OH215902   0.643   1.559   0.725
 5313TIP3    H115903   0.727   1.544   0.681
 5313TIP3    H215904   0.647   1.650   0.756
 5314TIP3   OH215905   5.152   6.787   3.176
 5314TIP3    H115906   5.088   6.723   3.206
 5314TIP3    H215907   5.105   6.839   3.111
 5315TIP3   OH215908   5.998   5.795   1.790
 5315TIP3    H115909   5.989   5.885   1.822
 5315TIP3    H215910   5.984   5.741   1.868
 5316TIP3   OH215911   5.196   4.169   1.189
 5316TIP3    H115912   5.198   4.232   1.117
 5316TIP3    H215913   5.238   4.091   1.154
 5317TIP3   OH215914   0.107   2.290   1.762
 5317TIP3    H115915   0.124   2.313   1.854
 5317TIP3    H215916   0.045   2.217   1.767
 5318TIP3   OH215917   4.157   2.420   5.765
 5318TIP3    H115918   4.225   2.360   5.733
 5318TIP3    H215919   4.134   2.473   5.688
 5319TIP3   OH215920   1.452   3.370   5.047
 5319TIP3    H115921   1.509   3.424   5.102
 5319TIP3    H215922   1.426   3.427   4.975
 5320TIP3   OH215923   7.143   6.441   5.109
 5320TIP3    H115924   7.088   6.365   5.093
 5320TIP3    H215925   7.202   6.414   5.179
 5321TIP3   OH215926   5.270   5.955   3.166
 5321TIP3    H115927   5.278   5.902   3.245
 5321TIP3    H215928   5.187   6.002   3.177
 5322TIP3   OH215929   2.265   2.770   2.822
 5322TIP3    H115930   2.197   2.709   2.797
 5322TIP3    H215931   2.335   2.755   2.759
 5323TIP3   OH215932   6.627   5.953   3.052
 5323TIP3    H115933   6.695   5.897   3.089
 5323TIP3    H215934   6.613   5.920   2.964
 5324TIP3   OH215935   5.171   2.841   1.321
 5324TIP3    H115936   5.079   2.845   1.296
 5324TIP3    H215937   5.210   2.919   1.280
 5325TIP3   OH215938   3.260   5.313   2.835
 5325TIP3    H115939   3.169   5.296   2.810
 5325TIP3    H215940   3.310   5.301   2.754
 5326TIP3   OH215941   1.348   2.083   1.429
 5326TIP3    H115942   1.432   2.127   1.413
 5326TIP3    H215943   1.371   1.990   1.433
 5327TIP3   OH215944   3.007   6.260   3.737
 5327TIP3    H115945   3.030   6.261   3.830
 5327TIP3    H215946   3.017   6.168   3.711
 5328TIP3   OH215947   6.704   4.234   3.860
 5328TIP3    H115948   6.779   4.269   3.908
 5328TIP3    H215949   6.729   4.242   3.767
 5329TIP3   OH215950   3.504   4.449   3.942
 5329TIP3    H115951   3.485   4.388   3.870
 5329TIP3    H215952   3.595   4.431   3.965
 5330TIP3   OH215953   1.250   0.181   4.185
 5330TIP3    H115954   1.329   0.143   4.222
 5330TIP3    H215955   1.203   0.218   4.260
 5331TIP3   OH215956   3.201   2.638   5.767
 5331TIP3    H115957   3.269   2.635   5.700
 5331TIP3    H215958   3.122   2.664   5.720
 5332TIP3   OH215959   2.000   1.442   3.641
 5332TIP3    H115960   1.983   1.470   3.731
 5332TIP3    H215961   2.095   1.451   3.631
 5333TIP3   OH215962   4.918   0.263   3.616
 5333TIP3    H115963   4.974   0.339   3.631
 5333TIP3    H215964   4.915   0.254   3.521
 5334TIP3   OH215965   2.105   2.449   2.140
 5334TIP3    H115966   2.148   2.532   2.120
 5334TIP3    H215967   2.145   2.421   2.222
 5335TIP3   OH215968   2.296   1.073   1.788
 5335TIP3    H115969   2.334   1.110   1.868
 5335TIP3    H215970   2.336   1.124   1.717
 5336TIP3   OH215971   5.365   1.287   3.163
 5336TIP3    H115972   5.445   1.340   3.165
 5336TIP3    H215973   5.306   1.335   3.105
 5337TIP3   OH215974   6.799   5.802   2.527
 5337TIP3    H115975   6.806   5.725   2.470
 5337TIP3    H215976   6.706   5.807   2.549
 5338TIP3   OH215977   0.081   1.276   0.338
 5338TIP3    H115978   0.162   1.319   0.310
 5338TIP3    H215979   0.070   1.301   0.429
 5339TIP3   OH215980   7.040   5.000   3.458
 5339TIP3    H115981   7.114   4.940   3.462
 5339TIP3    H215982   6.994   4.977   3.377
 5340TIP3   OH215983   0.211   2.117   0.355
 5340TIP3    H115984   0.177   2.152   0.438
 5340TIP3    H215985   0.209   2.022   0.367
 5341TIP3   OH215986   5.590   3.751   2.654
 5341TIP3    H115987   5.655   3.695   2.697
 5341TIP3    H215988   5.640   3.796   2.585
 5342TIP3   OH215989   4.773   6.741   4.079
 5342TIP3    H115990   4.799   6.651   4.099
 5342TIP3    H215991   4.730   6.772   4.158
 5343TIP3   OH215992   6.930   6.620   3.462
 5343TIP3    H115993   6.999   6.674   3.424
 5343TIP3    H215994   6.852   6.676   3.464
 5344TIP3   OH215995   3.528   1.355   3.990
 5344TIP3    H115996   3.612   1.329   4.028
 5344TIP3    H215997   3.511   1.441   4.027
 5345TIP3   OH215998   2.471   0.480   3.865
 5345TIP3    H115999   2.522   0.554   3.829
 5345TIP3    H216000   2.386   0.518   3.887
 5346TIP3   OH216001   3.036   6.365   3.449
 5346TIP3    H116002   2.982   6.352   3.526
 5346TIP3    H216003   3.126   6.359   3.481
 5347TIP3   OH216004   1.300   0.419   2.527
 5347TIP3    H116005   1.208   0.445   2.537
 5347TIP3    H216006   1.345   0.499   2.503
 5348TIP3   OH216007   3.166   3.927   5.647
 5348TIP3    H116008   3.121   3.930   5.563
 5348TIP3    H216009   3.098   3.908   5.711
 5349TIP3   OH216010   1.663   4.853   3.123
 5349TIP3    H116011   1.671   4.774   3.177
 5349TIP3    H216012   1.730   4.912   3.158
 5350TIP3   OH216013   6.781   1.579   4.815
 5350TIP3    H116014   6.869   1.613   4.802
 5350TIP3    H216015   6.729   1.656   4.840
 5351TIP3   OH216016   3.876   2.279   1.837
 5351TIP3    H116017   3.798   2.320   1.800
 5351TIP3    H216018   3.937   2.351   1.851
 5352TIP3   OH216019   2.205   1.306   3.108
 5352TIP3    H116020   2.255   1.380   3.073
 5352TIP3    H216021   2.212   1.316   3.203
 5353TIP3   OH216022   0.077   6.549   3.549
 5353TIP3    H116023   0.164   6.518   3.576
 5353TIP3    H216024   0.082   6.552   3.453
 5354TIP3   OH216025   5.865   1.075   5.008
 5354TIP3    H116026   5.827   1.096   5.092
 5354TIP3    H216027   5.910   1.154   4.981
 5355TIP3   OH216028   6.542   2.853   0.833
 5355TIP3    H116029   6.592   2.872   0.912
 5355TIP3    H216030   6.453   2.883   0.853
 5356TIP3   OH216031   6.556   3.414   2.713
 5356TIP3    H116032   6.519   3.471   2.646
 5356TIP3    H216033   6.607   3.473   2.769
 5357TIP3   OH216034   4.781   0.337   5.489
 5357TIP3    H116035   4.819   0.276   5.426
 5357TIP3    H216036   4.690   0.347   5.462
 5358TIP3   OH216037   5.904   0.904   5.555
 5358TIP3    H116038   5.962   0.959   5.609
 5358TIP3    H216039   5.920   0.815   5.585
 5359TIP3   OH216040   5.528   2.180   0.839
 5359TIP3    H116041   5.541   2.270   0.869
 5359TIP3    H216042   5.454   2.147   0.891
 5360TIP3   OH216043   6.843   3.387   1.028
 5360TIP3    H116044   6.765   3.353   1.071
 5360TIP3    H216045   6.844   3.345   0.942
 5361TIP3   OH216046   5.181   5.995   5.752
 5361TIP3    H116047   5.186   6.069   5.812
 5361TIP3    H216048   5.088   5.985   5.732
 5362TIP3   OH216049   2.976   5.277   2.765
 5362TIP3    H116050   2.962   5.364   2.727
 5362TIP3    H216051   2.944   5.216   2.698
 5363TIP3   OH216052   3.338   1.297   4.528
 5363TIP3    H116053   3.406   1.233   4.506
 5363TIP3    H216054   3.345   1.363   4.459
 5364TIP3   OH216055   3.800   5.437   4.234
 5364TIP3    H116056   3.871   5.379   4.262
 5364TIP3    H216057   3.822   5.522   4.273
 5365TIP3   OH216058   5.355   5.308   1.150
 5365TIP3    H116059   5.404   5.380   1.189
 5365TIP3    H216060   5.380   5.231   1.201
 5366TIP3   OH216061   3.611   0.776   0.817
 5366TIP3    H116062   3.648   0.820   0.741
 5366TIP3    H216063   3.541   0.721   0.781
 5367TIP3   OH216064   6.823   2.826   0.220
 5367TIP3    H116065   6.910   2.853   0.190
 5367TIP3    H216066   6.768   2.831   0.141
 5368TIP3   OH216067   6.919   6.020   4.066
 5368TIP3    H116068   6.933   6.060   4.151
 5368TIP3    H216069   6.949   6.085   4.002
 5369TIP3   OH216070   0.893   5.186   0.045
 5369TIP3    H116071   0.944   5.124   0.098
 5369TIP3    H216072   0.804   5.178   0.077
 5370TIP3   OH216073   1.326   0.490   1.836
 5370TIP3    H116074   1.374   0.551   1.893
 5370TIP3    H216075   1.366   0.405   1.852
 5371TIP3   OH216076   3.686   4.691   5.742
 5371TIP3    H116077   3.734   4.633   5.683
 5371TIP3    H216078   3.746   4.763   5.758
 5372TIP3   OH216079   3.797   4.179   3.479
 5372TIP3    H116080   3.743   4.100   3.484
 5372TIP3    H216081   3.767   4.234   3.551
 5373TIP3   OH216082   4.712   2.134   3.148
 5373TIP3    H116083   4.751   2.205   3.098
 5373TIP3    H216084   4.690   2.174   3.233
 5374TIP3   OH216085   3.802   4.633   0.954
 5374TIP3    H116086   3.832   4.704   0.898
 5374TIP3    H216087   3.822   4.553   0.904
 5375TIP3   OH216088   1.053   5.405   3.583
 5375TIP3    H116089   1.143   5.381   3.561
 5375TIP3    H216090   1.027   5.340   3.649
 5376TIP3   OH216091   0.184   5.662   0.245
 5376TIP3    H116092   0.261   5.699   0.289
 5376TIP3    H216093   0.126   5.636   0.317
 5377TIP3   OH216094   3.916   6.242   4.638
 5377TIP3    H116095   3.970   6.254   4.716
 5377TIP3    H216096   3.944   6.312   4.579
 5378TIP3   OH216097   0.313   4.782   3.624
 5378TIP3    H116098   0.293   4.867   3.585
 5378TIP3    H216099   0.246   4.723   3.588
 5379TIP3   OH216100   1.710   6.777   0.584
 5379TIP3    H116101   1.634   6.737   0.625
 5379TIP3    H216102   1.715   6.737   0.498
 5380TIP3   OH216103   0.034   1.706   2.849
 5380TIP3    H116104   0.074   1.623   2.877
 5380TIP3    H216105  -0.035   1.680   2.788
 5381TIP3   OH216106   1.281   5.697   5.415
 5381TIP3    H116107   1.187   5.704   5.432
 5381TIP3    H216108   1.299   5.603   5.413
 5382TIP3   OH216109   6.797   5.442   1.907
 5382TIP3    H116110   6.783   5.502   1.834
 5382TIP3    H216111   6.746   5.364   1.884
 5383TIP3   OH216112   0.165   1.761   0.719
 5383TIP3    H116113   0.209   1.804   0.793
 5383TIP3    H216114   0.205   1.800   0.642
 5384TIP3   OH216115   7.011   2.336   1.478
 5384TIP3    H116116   6.963   2.299   1.552
 5384TIP3    H216117   7.077   2.393   1.517
 5385TIP3   OH216118   0.715   1.274   2.509
 5385TIP3    H116119   0.682   1.362   2.490
 5385TIP3    H216120   0.774   1.254   2.437
 5386TIP3   OH216121   4.988   3.571   2.463
 5386TIP3    H116122   4.917   3.524   2.508
 5386TIP3    H216123   5.003   3.649   2.516
 5387TIP3   OH216124   6.425   2.378   3.935
 5387TIP3    H116125   6.420   2.468   3.968
 5387TIP3    H216126   6.518   2.356   3.942
 5388TIP3   OH216127   1.286   3.483   3.293
 5388TIP3    H116128   1.235   3.494   3.213
 5388TIP3    H216129   1.220   3.469   3.361
 5389TIP3   OH216130   0.848   6.455   3.332
 5389TIP3    H116131   0.911   6.384   3.343
 5389TIP3    H216132   0.866   6.515   3.404
 5390TIP3   OH216133   2.819   1.745   4.649
 5390TIP3    H116134   2.753   1.767   4.714
 5390TIP3    H216135   2.850   1.658   4.675
 5391TIP3   OH216136   0.469   6.588   1.509
 5391TIP3    H116137   0.518   6.636   1.575
 5391TIP3    H216138   0.392   6.555   1.556
 5392TIP3   OH216139   4.759   1.725   2.077
 5392TIP3    H116140   4.775   1.769   2.161
 5392TIP3    H216141   4.668   1.746   2.056
 5393TIP3   OH216142   3.131   5.557   4.935
 5393TIP3    H116143   3.116   5.542   5.028
 5393TIP3    H216144   3.178   5.640   4.931
 5394TIP3   OH216145   6.506   4.198   5.331
 5394TIP3    H116146   6.588   4.166   5.293
 5394TIP3    H216147   6.521   4.192   5.426
 5395TIP3   OH216148   4.055   5.422   0.451
 5395TIP3    H116149   4.148   5.406   0.460
 5395TIP3    H216150   4.032   5.382   0.367
 5396TIP3   OH216151   2.229   4.193   3.918
 5396TIP3    H116152   2.163   4.124   3.923
 5396TIP3    H216153   2.260   4.190   3.827
 5397TIP3   OH216154   4.112   1.269   3.739
 5397TIP3    H116155   4.085   1.358   3.716
 5397TIP3    H216156   4.100   1.264   3.834
 5398TIP3   OH216157   5.051   6.552   3.287
 5398TIP3    H116158   5.128   6.507   3.254
 5398TIP3    H216159   5.055   6.540   3.382
 5399TIP3   OH216160   5.332   4.203   0.308
 5399TIP3    H116161   5.381   4.273   0.265
 5399TIP3    H216162   5.245   4.206   0.268
 5400TIP3   OH216163   6.682   6.318   2.903
 5400TIP3    H116164   6.749   6.264   2.944
 5400TIP3    H216165   6.707   6.321   2.811
 5401TIP3   OH216166   1.071   3.314   0.699
 5401TIP3    H116167   1.115   3.340   0.780
 5401TIP3    H216168   0.998   3.374   0.690
 5402TIP3   OH216169   5.047   1.052   4.513
 5402TIP3    H116170   5.065   1.063   4.606
 5402TIP3    H216171   4.984   0.981   4.509
 5403TIP3   OH216172   3.604   1.744   5.375
 5403TIP3    H116173   3.561   1.681   5.432
 5403TIP3    H216174   3.678   1.696   5.338
 5404TIP3   OH216175   7.135   5.483   2.854
 5404TIP3    H116176   7.163   5.574   2.868
 5404TIP3    H216177   7.070   5.489   2.784
 5405TIP3   OH216178   6.674   1.301   1.163
 5405TIP3    H116179   6.687   1.379   1.218
 5405TIP3    H216180   6.712   1.325   1.079
 5406TIP3   OH216181   3.174   2.458   3.773
 5406TIP3    H116182   3.105   2.501   3.823
 5406TIP3    H216183   3.217   2.530   3.726
 5407TIP3   OH216184   0.537   6.421   2.106
 5407TIP3    H116185   0.587   6.368   2.043
 5407TIP3    H216186   0.600   6.439   2.176
 5408TIP3   OH216187   5.726   5.348   4.595
 5408TIP3    H116188   5.777   5.357   4.675
 5408TIP3    H216189   5.761   5.269   4.553
 5409TIP3   OH216190   2.310   4.905   2.402
 5409TIP3    H116191   2.325   4.986   2.353
 5409TIP3    H216192   2.333   4.835   2.340
 5410TIP3   OH216193   1.124   6.094   1.532
 5410TIP3    H116194   1.041   6.067   1.572
 5410TIP3    H216195   1.137   6.032   1.460
 5411TIP3   OH216196   5.122   1.985   1.412
 5411TIP3    H116197   5.114   2.007   1.505
 5411TIP3    H216198   5.093   1.893   1.407
 5412TIP3   OH216199   6.574   6.774   3.533
 5412TIP3    H116200   6.481   6.764   3.511
 5412TIP3    H216201   6.615   6.693   3.501
 5413TIP3   OH216202   3.484   1.138   0.993
 5413TIP3    H116203   3.457   1.181   0.911
 5413TIP3    H216204   3.508   1.210   1.051
 5414TIP3   OH216205   5.602   0.914   2.494
 5414TIP3    H116206   5.588   1.007   2.510
 5414TIP3    H216207   5.556   0.870   2.565
 5415TIP3   OH216208   1.765   5.072   0.469
 5415TIP3    H116209   1.695   5.009   0.486
 5415TIP3    H216210   1.720   5.153   0.445
 5416TIP3   OH216211   5.702   5.425   0.381
 5416TIP3    H116212   5.629   5.366   0.361
 5416TIP3    H216213   5.682   5.459   0.468
 5417TIP3   OH216214   3.897   4.022   1.077
 5417TIP3    H116215   3.939   3.958   1.020
 5417TIP3    H216216   3.952   4.026   1.155
 5418TIP3   OH216217   6.312   2.619   4.069
 5418TIP3    H116218   6.334   2.689   4.008
 5418TIP3    H216219   6.223   2.594   4.047
 5419TIP3   OH216220   6.269   4.706   2.362
 5419TIP3    H116221   6.363   4.687   2.365
 5419TIP3    H216222   6.227   4.620   2.373
 5420TIP3   OH216223   5.222   5.233   4.488
 5420TIP3    H116224   5.239   5.140   4.473
 5420TIP3    H216225   5.213   5.241   4.583
 5421TIP3   OH216226   0.713   4.649   4.828
 5421TIP3    H116227   0.686   4.588   4.760
 5421TIP3    H216228   0.632   4.692   4.856
 5422TIP3   OH216229   6.333   4.612   2.839
 5422TIP3    H116230   6.284   4.611   2.921
 5422TIP3    H216231   6.270   4.641   2.773
 5423TIP3   OH216232   6.380   5.879   1.903
 5423TIP3    H116233   6.335   5.797   1.921
 5423TIP3    H216234   6.363   5.898   1.811
 5424TIP3   OH216235   4.916   1.156   2.460
 5424TIP3    H116236   4.904   1.216   2.386
 5424TIP3    H216237   4.881   1.203   2.535
 5425TIP3   OH216238   3.465   4.168   4.133
 5425TIP3    H116239   3.408   4.164   4.210
 5425TIP3    H216240   3.421   4.231   4.075
 5426TIP3   OH216241   5.833   2.034   5.288
 5426TIP3    H116242   5.791   1.949   5.271
 5426TIP3    H216243   5.799   2.061   5.373
 5427TIP3   OH216244   6.474   3.389   5.274
 5427TIP3    H116245   6.489   3.305   5.229
 5427TIP3    H216246   6.509   3.375   5.362
 5428TIP3   OH216247   3.881   5.377   1.911
 5428TIP3    H116248   3.884   5.330   1.828
 5428TIP3    H216249   3.903   5.467   1.889
 5429TIP3   OH216250   1.441   2.337   1.084
 5429TIP3    H116251   1.518   2.296   1.123
 5429TIP3    H216252   1.421   2.284   1.008
 5430TIP3   OH216253   5.945   3.858   3.754
 5430TIP3    H116254   6.016   3.826   3.698
 5430TIP3    H216255   5.984   3.866   3.840
 5431TIP3   OH216256   5.028   4.321   3.738
 5431TIP3    H116257   4.983   4.339   3.655
 5431TIP3    H216258   4.972   4.364   3.804
 5432TIP3   OH216259   0.222   4.556   0.260
 5432TIP3    H116260   0.225   4.460   0.266
 5432TIP3    H216261   0.168   4.574   0.183
 5433TIP3   OH216262   5.420   0.899   1.978
 5433TIP3    H116263   5.497   0.904   1.922
 5433TIP3    H216264   5.443   0.836   2.046
 5434TIP3   OH216265   3.615   6.418   2.216
 5434TIP3    H116266   3.535   6.442   2.263
 5434TIP3    H216267   3.677   6.396   2.285
 5435TIP3   OH216268   2.168   2.485   5.506
 5435TIP3    H116269   2.102   2.524   5.563
 5435TIP3    H216270   2.249   2.488   5.557
 5436TIP3   OH216271   4.965   5.272   2.385
 5436TIP3    H116272   5.041   5.214   2.382
 5436TIP3    H216273   4.892   5.214   2.407
 5437TIP3   OH216274   4.698   6.261   1.336
 5437TIP3    H116275   4.718   6.183   1.387
 5437TIP3    H216276   4.740   6.246   1.252
 5438TIP3   OH216277   6.246   0.863   5.116
 5438TIP3    H116278   6.219   0.951   5.089
 5438TIP3    H216279   6.244   0.812   5.035
 5439TIP3   OH216280   3.934   6.573   3.867
 5439TIP3    H116281   3.998   6.505   3.845
 5439TIP3    H216282   3.860   6.556   3.810
 5440TIP3   OH216283   5.641   5.442   1.990
 5440TIP3    H116284   5.600   5.523   2.023
 5440TIP3    H216285   5.590   5.372   2.030
 5441TIP3   OH216286   1.891   0.204   2.469
 5441TIP3    H116287   1.924   0.226   2.556
 5441TIP3    H216288   1.907   0.110   2.460
 5442TIP3   OH216289   5.879   4.847   5.786
 5442TIP3    H116290   5.843   4.935   5.803
 5442TIP3    H216291   5.838   4.792   5.853
 5443TIP3   OH216292   1.579   2.236   2.765
 5443TIP3    H116293   1.539   2.164   2.813
 5443TIP3    H216294   1.538   2.315   2.801
 5444TIP3   OH216295   4.747   5.438   4.522
 5444TIP3    H116296   4.839   5.445   4.496
 5444TIP3    H216297   4.739   5.351   4.561
 5445TIP3   OH216298   3.403   4.953   3.628
 5445TIP3    H116299   3.456   5.029   3.603
 5445TIP3    H216300   3.436   4.928   3.714
 5446TIP3   OH216301   4.688   2.779   5.674
 5446TIP3    H116302   4.759   2.720   5.701
 5446TIP3    H216303   4.658   2.819   5.755
 5447TIP3   OH216304   1.995   0.644   5.426
 5447TIP3    H116305   1.966   0.662   5.337
 5447TIP3    H216306   1.943   0.703   5.481
 5448TIP3   OH216307   5.931   4.360   3.188
 5448TIP3    H116308   5.882   4.308   3.250
 5448TIP3    H216309   5.986   4.417   3.242
 5449TIP3   OH216310   1.121   5.015   2.504
 5449TIP3    H116311   1.042   5.048   2.462
 5449TIP3    H216312   1.148   4.942   2.449
 5450TIP3   OH216313   5.302   2.571   0.125
 5450TIP3    H116314   5.358   2.603   0.054
 5450TIP3    H216315   5.260   2.650   0.159
 5451TIP3   OH216316   0.234   2.505   2.295
 5451TIP3    H116317   0.227   2.530   2.387
 5451TIP3    H216318   0.328   2.494   2.280
 5452TIP3   OH216319   0.920   2.845   5.149
 5452TIP3    H116320   0.949   2.932   5.121
 5452TIP3    H216321   0.965   2.785   5.089
 5453TIP3   OH216322   2.125   0.578   0.732
 5453TIP3    H116323   2.084   0.621   0.807
 5453TIP3    H216324   2.086   0.622   0.656
 5454TIP3   OH216325   5.512   2.138   1.314
 5454TIP3    H116326   5.449   2.210   1.317
 5454TIP3    H216327   5.459   2.059   1.320
 5455TIP3   OH216328   0.477   0.318   2.705
 5455TIP3    H116329   0.399   0.330   2.758
 5455TIP3    H216330   0.448   0.265   2.630
 5456TIP3   OH216331   6.610   6.352   4.767
 5456TIP3    H116332   6.558   6.284   4.811
 5456TIP3    H216333   6.682   6.370   4.827
 5457TIP3   OH216334   5.753   6.650   1.399
 5457TIP3    H116335   5.679   6.606   1.441
 5457TIP3    H216336   5.830   6.606   1.434
 5458TIP3   OH216337   0.882   3.241   2.701
 5458TIP3    H116338   0.826   3.172   2.736
 5458TIP3    H216339   0.968   3.202   2.693
 5459TIP3   OH216340   0.494   2.736   5.116
 5459TIP3    H116341   0.486   2.830   5.134
 5459TIP3    H216342   0.503   2.696   5.203
 5460TIP3   OH216343   1.900   3.660   4.863
 5460TIP3    H116344   1.944   3.660   4.778
 5460TIP3    H216345   1.813   3.626   4.844
 5461TIP3   OH216346   6.866   4.626   2.172
 5461TIP3    H116347   6.885   4.536   2.146
 5461TIP3    H216348   6.952   4.665   2.188
 5462TIP3   OH216349   5.133   3.625   2.236
 5462TIP3    H116350   5.085   3.592   2.311
 5462TIP3    H216351   5.077   3.693   2.199
 5463TIP3   OH216352   6.854   3.018   1.905
 5463TIP3    H116353   6.875   3.027   1.998
 5463TIP3    H216354   6.933   3.047   1.859
 5464TIP3   OH216355   0.142   4.459   0.994
 5464TIP3    H116356   0.125   4.428   0.905
 5464TIP3    H216357   0.057   4.491   1.025
 5465TIP3   OH216358   0.331   6.374   4.418
 5465TIP3    H116359   0.267   6.415   4.360
 5465TIP3    H216360   0.298   6.393   4.506
 5466TIP3   OH216361   6.025   6.576   3.992
 5466TIP3    H116362   6.091   6.569   3.923
 5466TIP3    H216363   6.038   6.498   4.046
 5467TIP3   OH216364   0.364   0.396   5.244
 5467TIP3    H116365   0.381   0.466   5.181
 5467TIP3    H216366   0.414   0.322   5.211
 5468TIP3   OH216367   6.959   0.441   0.641
 5468TIP3    H116368   6.944   0.418   0.732
 5468TIP3    H216369   7.040   0.395   0.617
 5469TIP3   OH216370   5.100   3.734   3.537
 5469TIP3    H116371   5.008   3.759   3.523
 5469TIP3    H216372   5.114   3.746   3.631
 5470TIP3   OH216373   2.498   0.067   1.929
 5470TIP3    H116374   2.568   0.010   1.896
 5470TIP3    H216375   2.473   0.029   2.013
 5471TIP3   OH216376   6.251   0.096   0.363
 5471TIP3    H116377   6.344   0.074   0.349
 5471TIP3    H216378   6.239   0.179   0.318
 5472TIP3   OH216379   7.151   5.182   4.938
 5472TIP3    H116380   7.222   5.196   4.875
 5472TIP3    H216381   7.123   5.271   4.961
 5473TIP3   OH216382   2.234   4.876   3.437
 5473TIP3    H116383   2.204   4.966   3.429
 5473TIP3    H216384   2.207   4.834   3.356
 5474TIP3   OH216385   2.289   1.322   0.625
 5474TIP3    H116386   2.336   1.377   0.687
 5474TIP3    H216387   2.270   1.242   0.674
 5475TIP3   OH216388   6.814   6.048   4.314
 5475TIP3    H116389   6.858   5.995   4.380
 5475TIP3    H216390   6.782   6.125   4.362
 5476TIP3   OH216391   4.431   1.522   3.288
 5476TIP3    H116392   4.416   1.524   3.383
 5476TIP3    H216393   4.354   1.565   3.251
 5477TIP3   OH216394   6.886   3.042   3.120
 5477TIP3    H116395   6.798   3.004   3.115
 5477TIP3    H216396   6.942   2.967   3.140
 5478TIP3   OH216397   1.075   5.377   2.349
 5478TIP3    H116398   1.126   5.340   2.278
 5478TIP3    H216399   1.002   5.421   2.306
 5479TIP3   OH216400   0.825   6.031   3.446
 5479TIP3    H116401   0.787   5.995   3.366
 5479TIP3    H216402   0.906   5.981   3.459
 5480TIP3   OH216403   6.774   2.650   2.891
 5480TIP3    H116404   6.751   2.697   2.811
 5480TIP3    H216405   6.770   2.717   2.959
 5481TIP3   OH216406   0.726   2.811   1.199
 5481TIP3    H116407   0.765   2.800   1.112
 5481TIP3    H216408   0.637   2.842   1.182
 5482TIP3   OH216409   3.137   4.868   4.797
 5482TIP3    H116410   3.177   4.789   4.761
 5482TIP3    H216411   3.114   4.920   4.720
 5483TIP3   OH216412   4.056   0.977   3.622
 5483TIP3    H116413   4.075   1.070   3.627
 5483TIP3    H216414   3.962   0.970   3.639
 5484TIP3   OH216415   5.729   0.924   4.435
 5484TIP3    H116416   5.676   0.844   4.425
 5484TIP3    H216417   5.756   0.946   4.346
 5485TIP3   OH216418   5.626   4.468   5.233
 5485TIP3    H116419   5.685   4.404   5.192
 5485TIP3    H216420   5.644   4.550   5.187
 5486TIP3   OH216421   2.071   4.970   0.398
 5486TIP3    H116422   2.035   5.031   0.462
 5486TIP3    H216423   2.076   4.887   0.445
 5487TIP3   OH216424   5.047   1.580   0.740
 5487TIP3    H116425   4.968   1.608   0.786
 5487TIP3    H216426   5.038   1.618   0.652
 5488TIP3   OH216427   0.255   4.985   2.514
 5488TIP3    H116428   0.305   4.904   2.525
 5488TIP3    H216429   0.315   5.044   2.469
 5489TIP3   OH216430   0.770   5.110   5.250
 5489TIP3    H116431   0.782   5.052   5.175
 5489TIP3    H216432   0.695   5.073   5.297
 5490TIP3   OH216433   6.631   4.455   0.256
 5490TIP3    H116434   6.612   4.484   0.345
 5490TIP3    H216435   6.708   4.400   0.265
 5491TIP3   OH216436   3.582   3.503   5.799
 5491TIP3    H116437   3.579   3.465   5.887
 5491TIP3    H216438   3.520   3.450   5.748
 5492TIP3   OH216439   0.172   2.039   0.085
 5492TIP3    H116440   0.158   2.068   0.175
 5492TIP3    H216441   0.171   2.120   0.033
 5493TIP3   OH216442   2.307   4.559   0.142
 5493TIP3    H116443   2.259   4.480   0.117
 5493TIP3    H216444   2.264   4.629   0.093
 5494TIP3   OH216445   3.130   1.902   5.054
 5494TIP3    H116446   3.116   1.996   5.039
 5494TIP3    H216447   3.112   1.890   5.148
 5495TIP3   OH216448   5.361   4.013   2.156
 5495TIP3    H116449   5.379   3.935   2.104
 5495TIP3    H216450   5.379   3.986   2.246
 5496TIP3   OH216451   0.181   3.832   2.234
 5496TIP3    H116452   0.110   3.893   2.215
 5496TIP3    H216453   0.259   3.874   2.198
 5497TIP3   OH216454   5.835   6.037   4.754
 5497TIP3    H116455   5.746   6.010   4.780
 5497TIP3    H216456   5.831   6.132   4.749
 5498TIP3   OH216457   1.042   2.778   1.510
 5498TIP3    H116458   1.086   2.854   1.473
 5498TIP3    H216459   1.034   2.717   1.437
 5499TIP3   OH216460   6.224   5.689   1.066
 5499TIP3    H116461   6.313   5.725   1.073
 5499TIP3    H216462   6.177   5.728   1.140
 5500TIP3   OH216463   4.699   2.634   0.862
 5500TIP3    H116464   4.650   2.553   0.850
 5500TIP3    H216465   4.641   2.702   0.826
 5501TIP3   OH216466   5.875   3.137   1.435
 5501TIP3    H116467   5.872   3.209   1.498
 5501TIP3    H216468   5.801   3.154   1.376
 5502TIP3   OH216469   3.926   1.767   4.730
 5502TIP3    H116470   4.017   1.749   4.754
 5502TIP3    H216471   3.919   1.739   4.639
 5503TIP3   OH216472   4.789   4.629   5.400
 5503TIP3    H116473   4.796   4.534   5.393
 5503TIP3    H216474   4.841   4.651   5.477
 5504TIP3   OH216475   0.315   6.482   5.591
 5504TIP3    H116476   0.263   6.507   5.515
 5504TIP3    H216477   0.264   6.513   5.666
 5505TIP3   OH216478   3.369   2.926   0.402
 5505TIP3    H116479   3.417   2.853   0.440
 5505TIP3    H216480   3.325   2.889   0.326
 5506TIP3   OH216481   6.634   6.706   1.657
 5506TIP3    H116482   6.582   6.633   1.690
 5506TIP3    H216483   6.571   6.778   1.648
 5507TIP3   OH216484   6.085   6.335   2.682
 5507TIP3    H116485   6.090   6.254   2.733
 5507TIP3    H216486   6.171   6.376   2.692
 5508TIP3   OH216487   0.215   3.734   3.227
 5508TIP3    H116488   0.141   3.793   3.210
 5508TIP3    H216489   0.177   3.663   3.279
 5509TIP3   OH216490   5.316   2.393   2.841
 5509TIP3    H116491   5.284   2.466   2.788
 5509TIP3    H216492   5.267   2.401   2.923
 5510TIP3   OH216493   7.039   3.858   5.583
 5510TIP3    H116494   7.040   3.800   5.659
 5510TIP3    H216495   7.112   3.918   5.598
 5511TIP3   OH216496   4.291   2.564   3.264
 5511TIP3    H116497   4.381   2.549   3.293
 5511TIP3    H216498   4.249   2.607   3.339
 5512TIP3   OH216499   4.731   2.124   2.057
 5512TIP3    H116500   4.826   2.122   2.059
 5512TIP3    H216501   4.706   2.163   2.141
 5513TIP3   OH216502   3.981   5.139   3.476
 5513TIP3    H116503   3.920   5.142   3.550
 5513TIP3    H216504   3.924   5.142   3.399
 5514TIP3   OH216505   0.026   1.315   5.592
 5514TIP3    H116506   0.035   1.232   5.639
 5514TIP3    H216507   0.090   1.309   5.521
 5515TIP3   OH216508   0.188   3.315   4.656
 5515TIP3    H116509   0.202   3.406   4.680
 5515TIP3    H216510   0.169   3.270   4.738
 5516TIP3   OH216511   1.484   1.169   0.681
 5516TIP3    H116512   1.541   1.095   0.661
 5516TIP3    H216513   1.436   1.184   0.600
 5517TIP3   OH216514   3.124   4.932   5.251
 5517TIP3    H116515   3.089   4.847   5.226
 5517TIP3    H216516   3.059   4.996   5.222
 5518TIP3   OH216517   4.822   3.603   4.720
 5518TIP3    H116518   4.812   3.653   4.639
 5518TIP3    H216519   4.740   3.618   4.768
 5519TIP3   OH216520   5.375   6.477   5.485
 5519TIP3    H116521   5.300   6.482   5.543
 5519TIP3    H216522   5.359   6.401   5.430
 5520TIP3   OH216523   6.288   6.589   4.250
 5520TIP3    H116524   6.298   6.676   4.288
 5520TIP3    H216525   6.193   6.573   4.252
 5521TIP3   OH216526   2.190   0.642   5.630
 5521TIP3    H116527   2.169   0.731   5.659
 5521TIP3    H216528   2.133   0.628   5.555
 5522TIP3   OH216529   7.064   5.257   3.469
 5522TIP3    H116530   7.062   5.261   3.373
 5522TIP3    H216531   7.042   5.166   3.490
 5523TIP3   OH216532   1.774   2.564   4.990
 5523TIP3    H116533   1.728   2.643   4.962
 5523TIP3    H216534   1.708   2.516   5.041
 5524TIP3   OH216535   6.649   0.709   4.131
 5524TIP3    H116536   6.620   0.629   4.087
 5524TIP3    H216537   6.570   0.745   4.170
 5525TIP3   OH216538   0.375   1.190   3.083
 5525TIP3    H116539   0.329   1.137   3.148
 5525TIP3    H216540   0.351   1.151   2.999
 5526TIP3   OH216541   7.117   1.874   0.002
 5526TIP3    H116542   7.086   1.790   0.037
 5526TIP3    H216543   7.210   1.858  -0.019
 5527TIP3   OH216544   4.477   2.780   0.354
 5527TIP3    H116545   4.532   2.855   0.375
 5527TIP3    H216546   4.500   2.757   0.264
 5528TIP3   OH216547   6.602   5.891   0.368
 5528TIP3    H116548   6.512   5.879   0.398
 5528TIP3    H216549   6.594   5.916   0.276
 5529TIP3   OH216550   6.317   4.198   1.201
 5529TIP3    H116551   6.225   4.224   1.198
 5529TIP3    H216552   6.364   4.272   1.160
 5530TIP3   OH216553   3.350   4.804   1.759
 5530TIP3    H116554   3.259   4.832   1.744
 5530TIP3    H216555   3.354   4.715   1.724
 5531TIP3   OH216556   2.912   5.092   5.219
 5531TIP3    H116557   2.861   5.016   5.191
 5531TIP3    H216558   2.902   5.155   5.148
 5532TIP3   OH216559   5.198   6.762   3.460
 5532TIP3    H116560   5.165   6.779   3.372
 5532TIP3    H216561   5.156   6.828   3.515
 5533TIP3   OH216562   3.897   6.520   2.655
 5533TIP3    H116563   3.980   6.489   2.691
 5533TIP3    H216564   3.830   6.471   2.703
 5534TIP3   OH216565   3.907   6.748   1.022
 5534TIP3    H116566   3.948   6.726   0.938
 5534TIP3    H216567   3.874   6.836   1.010
 5535TIP3   OH216568   5.164   2.504   1.943
 5535TIP3    H116569   5.077   2.543   1.950
 5535TIP3    H216570   5.210   2.558   1.879
 5536TIP3   OH216571   0.144   3.473   3.354
 5536TIP3    H116572   0.173   3.383   3.345
 5536TIP3    H216573   0.186   3.504   3.434
 5537TIP3   OH216574   1.915   0.163   5.570
 5537TIP3    H116575   1.879   0.084   5.611
 5537TIP3    H216576   1.868   0.171   5.487
 5538TIP3   OH216577   5.099   5.052   0.173
 5538TIP3    H116578   5.184   5.082   0.141
 5538TIP3    H216579   5.094   4.961   0.143
 5539TIP3   OH216580   4.685   4.964   1.480
 5539TIP3    H116581   4.756   5.011   1.437
 5539TIP3    H216582   4.699   4.872   1.457
 5540TIP3   OH216583   4.109   0.712   5.529
 5540TIP3    H116584   4.083   0.760   5.450
 5540TIP3    H216585   4.175   0.649   5.499
 5541TIP3   OH216586   2.819   5.117   4.092
 5541TIP3    H116587   2.789   5.113   4.002
 5541TIP3    H216588   2.761   5.180   4.135
 5542TIP3   OH216589   0.951   5.118   4.818
 5542TIP3    H116590   0.935   5.190   4.756
 5542TIP3    H216591   0.881   5.055   4.800
 5543TIP3   OH216592   6.065   4.302   3.781
 5543TIP3    H116593   6.120   4.325   3.855
 5543TIP3    H216594   6.077   4.208   3.769
 5544TIP3   OH216595   0.299   4.095   3.267
 5544TIP3    H116596   0.344   4.145   3.199
 5544TIP3    H216597   0.236   4.042   3.220
 5545TIP3   OH216598   5.975   5.962   5.301
 5545TIP3    H116599   6.003   5.957   5.209
 5545TIP3    H216600   5.979   5.872   5.332
 5546TIP3   OH216601   2.766   4.080   0.661
 5546TIP3    H116602   2.838   4.039   0.709
 5546TIP3    H216603   2.718   4.130   0.727
 5547TIP3   OH216604   7.162   4.438   0.777
 5547TIP3    H116605   7.173   4.386   0.698
 5547TIP3    H216606   7.199   4.523   0.756
 5548TIP3   OH216607   4.207   2.530   2.749
 5548TIP3    H116608   4.270   2.584   2.701
 5548TIP3    H216609   4.220   2.552   2.841
 5549TIP3   OH216610   2.818   5.711   1.548
 5549TIP3    H116611   2.912   5.721   1.567
 5549TIP3    H216612   2.814   5.635   1.489
 5550TIP3   OH216613   5.663   6.100   5.359
 5550TIP3    H116614   5.730   6.154   5.400
 5550TIP3    H216615   5.694   6.086   5.270
 5551TIP3   OH216616   0.843   2.902   5.434
 5551TIP3    H116617   0.907   2.909   5.505
 5551TIP3    H216618   0.896   2.893   5.355
 5552TIP3   OH216619   1.176   6.344   3.032
 5552TIP3    H116620   1.181   6.424   3.085
 5552TIP3    H216621   1.259   6.342   2.984
 5553TIP3   OH216622   2.644   1.687   5.140
 5553TIP3    H116623   2.618   1.612   5.087
 5553TIP3    H216624   2.561   1.725   5.170
 5554TIP3   OH216625   5.550   0.266   4.290
 5554TIP3    H116626   5.556   0.355   4.325
 5554TIP3    H216627   5.465   0.262   4.248
 5555TIP3   OH216628   0.239   6.513   4.195
 5555TIP3    H116629   0.263   6.461   4.119
 5555TIP3    H216630   0.248   6.604   4.167
 5556TIP3   OH216631   4.913   0.964   0.718
 5556TIP3    H116632   5.007   0.984   0.710
 5556TIP3    H216633   4.872   1.012   0.646
 5557TIP3   OH216634   2.630   3.400   2.124
 5557TIP3    H116635   2.721   3.430   2.119
 5557TIP3    H216636   2.635   3.318   2.175
 5558TIP3   OH216637   2.911   1.753   5.899
 5558TIP3    H116638   2.960   1.750   5.817
 5558TIP3    H216639   2.918   1.844   5.928
 5559TIP3   OH216640   4.496   4.742   1.014
 5559TIP3    H116641   4.558   4.682   0.971
 5559TIP3    H216642   4.444   4.685   1.071
 5560TIP3   OH216643   1.742   5.084   5.417
 5560TIP3    H116644   1.795   5.022   5.367
 5560TIP3    H216645   1.802   5.117   5.484
 5561TIP3   OH216646   4.976   5.518   0.355
 5561TIP3    H116647   4.898   5.484   0.399
 5561TIP3    H216648   4.972   5.481   0.267
 5562TIP3   OH216649   6.365   1.622   3.434
 5562TIP3    H116650   6.430   1.690   3.450
 5562TIP3    H216651   6.281   1.667   3.441
 5563TIP3   OH216652   4.037   5.050   0.629
 5563TIP3    H116653   4.110   5.036   0.569
 5563TIP3    H216654   4.021   5.145   0.626
 5564TIP3   OH216655   2.017   5.872   1.187
 5564TIP3    H116656   2.104   5.842   1.162
 5564TIP3    H216657   1.961   5.851   1.112
 5565TIP3   OH216658   4.697   5.985   5.137
 5565TIP3    H116659   4.605   6.012   5.137
 5565TIP3    H216660   4.700   5.910   5.078
 5566TIP3   OH216661   3.804   6.467   4.929
 5566TIP3    H116662   3.801   6.516   5.011
 5566TIP3    H216663   3.887   6.420   4.932
 5567TIP3   OH216664   0.535   4.396   3.895
 5567TIP3    H116665   0.448   4.371   3.864
 5567TIP3    H216666   0.595   4.345   3.841
 5568TIP3   OH216667   4.953   4.677   1.383
 5568TIP3    H116668   4.858   4.678   1.368
 5568TIP3    H216669   4.962   4.668   1.477
 5569TIP3   OH216670   4.522   1.932   2.246
 5569TIP3    H116671   4.596   1.947   2.305
 5569TIP3    H216672   4.562   1.913   2.161
 5570TIP3   OH216673   0.986   1.471   2.264
 5570TIP3    H116674   0.925   1.397   2.264
 5570TIP3    H216675   0.977   1.510   2.176
 5571TIP3   OH216676   1.039   4.093   1.756
 5571TIP3    H116677   0.988   4.016   1.782
 5571TIP3    H216678   1.129   4.061   1.748
 5572TIP3   OH216679   2.138   4.985   5.199
 5572TIP3    H116680   2.162   5.077   5.184
 5572TIP3    H216681   2.219   4.944   5.228
 5573TIP3   OH216682   4.982   5.837   1.722
 5573TIP3    H116683   4.927   5.758   1.725
 5573TIP3    H216684   4.930   5.903   1.768
 5574TIP3   OH216685   2.717   1.931   3.362
 5574TIP3    H116686   2.667   1.903   3.286
 5574TIP3    H216687   2.788   1.867   3.369
 5575TIP3   OH216688   1.838   5.147   5.786
 5575TIP3    H116689   1.834   5.241   5.772
 5575TIP3    H216690   1.889   5.114   5.712
 5576TIP3   OH216691   3.030   3.675   5.681
 5576TIP3    H116692   2.971   3.739   5.719
 5576TIP3    H216693   2.995   3.659   5.593
 5577TIP3   OH216694   0.291   4.778   3.271
 5577TIP3    H116695   0.359   4.726   3.314
 5577TIP3    H216696   0.217   4.718   3.261
 5578TIP3   OH216697   5.589   0.421   5.648
 5578TIP3    H116698   5.510   0.371   5.628
 5578TIP3    H216699   5.603   0.476   5.570
 5579TIP3   OH216700   2.889   3.332   2.241
 5579TIP3    H116701   2.847   3.358   2.323
 5579TIP3    H216702   2.908   3.415   2.197
 5580TIP3   OH216703   2.659   0.779   3.207
 5580TIP3    H116704   2.692   0.692   3.231
 5580TIP3    H216705   2.706   0.801   3.127
 5581TIP3   OH216706   3.686   0.245   1.076
 5581TIP3    H116707   3.627   0.171   1.061
 5581TIP3    H216708   3.669   0.304   1.002
 5582TIP3   OH216709   3.672   0.742   5.796
 5582TIP3    H116710   3.719   0.821   5.821
 5582TIP3    H216711   3.703   0.722   5.707
 5583TIP3   OH216712   3.298   1.315   1.500
 5583TIP3    H116713   3.256   1.307   1.585
 5583TIP3    H216714   3.392   1.317   1.519
 5584TIP3   OH216715   4.427   2.478   3.891
 5584TIP3    H116716   4.351   2.521   3.853
 5584TIP3    H216717   4.473   2.440   3.816
 5585TIP3   OH216718   0.597   5.772   5.354
 5585TIP3    H116719   0.523   5.714   5.337
 5585TIP3    H216720   0.654   5.721   5.412
 5586TIP3   OH216721   6.916   6.110   5.286
 5586TIP3    H116722   6.880   6.056   5.215
 5586TIP3    H216723   6.896   6.200   5.260
 5587TIP3   OH216724   1.785   1.239   3.762
 5587TIP3    H116725   1.855   1.260   3.700
 5587TIP3    H216726   1.719   1.306   3.747
 5588TIP3   OH216727   3.495   4.294   1.500
 5588TIP3    H116728   3.524   4.303   1.409
 5588TIP3    H216729   3.576   4.288   1.551
 5589TIP3   OH216730   0.937   5.585   2.632
 5589TIP3    H116731   0.888   5.611   2.710
 5589TIP3    H216732   0.918   5.653   2.567
 5590TIP3   OH216733   0.162   1.681   1.877
 5590TIP3    H116734   0.070   1.691   1.901
 5590TIP3    H216735   0.196   1.770   1.875
 5591TIP3   OH216736   1.401   4.083   4.054
 5591TIP3    H116737   1.377   4.035   3.975
 5591TIP3    H216738   1.474   4.139   4.027
 5592TIP3   OH216739   2.578   5.475   2.862
 5592TIP3    H116740   2.539   5.394   2.831
 5592TIP3    H216741   2.619   5.451   2.946
 5593TIP3   OH216742   1.531   0.450   0.582
 5593TIP3    H116743   1.548   0.517   0.649
 5593TIP3    H216744   1.529   0.500   0.500
 5594TIP3   OH216745   6.769   0.477   5.022
 5594TIP3    H116746   6.842   0.531   5.051
 5594TIP3    H216747   6.777   0.396   5.073
 5595TIP3   OH216748   2.844   6.164   2.105
 5595TIP3    H116749   2.892   6.246   2.117
 5595TIP3    H216750   2.766   6.174   2.159
 5596TIP3   OH216751   5.034   1.987   5.662
 5596TIP3    H116752   5.035   2.066   5.608
 5596TIP3    H216753   5.066   2.015   5.747
 5597TIP3   OH216754   1.109   5.322   4.960
 5597TIP3    H116755   1.061   5.242   4.940
 5597TIP3    H216756   1.110   5.372   4.878
 5598TIP3   OH216757   5.166   3.769   2.954
 5598TIP3    H116758   5.208   3.826   3.018
 5598TIP3    H216759   5.205   3.683   2.968
 5599TIP3   OH216760   6.545   0.074   0.612
 5599TIP3    H116761   6.627   0.035   0.582
 5599TIP3    H216762   6.484   0.062   0.540
 5600TIP3   OH216763   3.449   0.895   1.733
 5600TIP3    H116764   3.366   0.848   1.729
 5600TIP3    H216765   3.468   0.917   1.642
 5601TIP3   OH216766   2.768   6.761   3.100
 5601TIP3    H116767   2.817   6.748   3.019
 5601TIP3    H216768   2.709   6.834   3.082
 5602TIP3   OH216769   1.718   4.800   1.082
 5602TIP3    H116770   1.665   4.867   1.124
 5602TIP3    H216771   1.793   4.789   1.140
 5603TIP3   OH216772   1.849   2.440   0.142
 5603TIP3    H116773   1.865   2.518   0.196
 5603TIP3    H216774   1.931   2.427   0.094
 5604TIP3   OH216775   0.593   4.183   2.602
 5604TIP3    H116776   0.642   4.113   2.646
 5604TIP3    H216777   0.609   4.261   2.655
 5605TIP3   OH216778   0.454   5.165   5.653
 5605TIP3    H116779   0.439   5.231   5.720
 5605TIP3    H216780   0.445   5.081   5.699
 5606TIP3   OH216781   7.163   6.692   4.074
 5606TIP3    H116782   7.195   6.760   4.015
 5606TIP3    H216783   7.166   6.612   4.021
 5607TIP3   OH216784   6.087   4.587   1.922
 5607TIP3    H116785   6.174   4.610   1.955
 5607TIP3    H216786   6.040   4.555   1.999
 5608TIP3   OH216787   4.735   5.492   5.070
 5608TIP3    H116788   4.698   5.419   5.119
 5608TIP3    H216789   4.805   5.453   5.018
 5609TIP3   OH216790   2.676   1.064   4.947
 5609TIP3    H116791   2.602   1.052   5.007
 5609TIP3    H216792   2.636   1.075   4.861
 5610TIP3   OH216793   0.909   6.673   2.585
 5610TIP3    H116794   0.936   6.690   2.495
 5610TIP3    H216795   0.849   6.744   2.606
 5611TIP3   OH216796   3.602   0.919   0.224
 5611TIP3    H116797   3.572   1.009   0.218
 5611TIP3    H216798   3.691   0.925   0.260
 5612TIP3   OH216799   2.053   1.671   5.357
 5612TIP3    H116800   2.104   1.600   5.397
 5612TIP3    H216801   1.979   1.627   5.315
 5613TIP3   OH216802   5.381   4.326   5.869
 5613TIP3    H116803   5.427   4.290   5.945
 5613TIP3    H216804   5.362   4.250   5.814
 5614TIP3   OH216805   5.900   6.742   1.682
 5614TIP3    H116806   5.805   6.756   1.680
 5614TIP3    H216807   5.916   6.705   1.769
 5615TIP3   OH216808   3.045   4.157   0.085
 5615TIP3    H116809   3.129   4.121   0.113
 5615TIP3    H216810   3.062   4.196  -0.001
 5616TIP3   OH216811   4.344   5.335   0.118
 5616TIP3    H116812   4.274   5.399   0.130
 5616TIP3    H216813   4.353   5.327   0.023
 5617TIP3   OH216814   3.988   5.380   2.861
 5617TIP3    H116815   4.083   5.375   2.865
 5617TIP3    H216816   3.960   5.382   2.953
 5618TIP3   OH216817   5.349   2.222   0.522
 5618TIP3    H116818   5.347   2.274   0.603
 5618TIP3    H216819   5.371   2.286   0.454
 5619TIP3   OH216820   4.371   4.669   3.146
 5619TIP3    H116821   4.388   4.718   3.226
 5619TIP3    H216822   4.455   4.626   3.126
 5620TIP3   OH216823   4.785   2.469   5.042
 5620TIP3    H116824   4.707   2.525   5.045
 5620TIP3    H216825   4.858   2.531   5.049
 5621TIP3   OH216826   3.644   6.196   5.279
 5621TIP3    H116827   3.646   6.123   5.340
 5621TIP3    H216828   3.735   6.221   5.267
 5622TIP3   OH216829   6.421   4.177   1.745
 5622TIP3    H116830   6.485   4.113   1.713
 5622TIP3    H216831   6.448   4.195   1.835
 5623TIP3   OH216832   5.513   4.202   1.337
 5623TIP3    H116833   5.504   4.112   1.368
 5623TIP3    H216834   5.486   4.199   1.245
 5624TIP3   OH216835   4.969   2.657   5.522
 5624TIP3    H116836   4.997   2.659   5.430
 5624TIP3    H216837   5.023   2.725   5.564
 5625TIP3   OH216838   4.886   1.600   2.785
 5625TIP3    H116839   4.805   1.636   2.749
 5625TIP3    H216840   4.873   1.602   2.880
 5626TIP3   OH216841   3.999   6.489   4.544
 5626TIP3    H116842   3.952   6.561   4.584
 5626TIP3    H216843   4.088   6.495   4.580
 5627TIP3   OH216844   5.373   6.343   3.302
 5627TIP3    H116845   5.459   6.302   3.311
 5627TIP3    H216846   5.347   6.326   3.212
 5628TIP3   OH216847   4.870   5.456   0.943
 5628TIP3    H116848   4.871   5.370   0.986
 5628TIP3    H216849   4.779   5.486   0.954
 5629TIP3   OH216850   4.845   3.046   2.464
 5629TIP3    H116851   4.864   3.075   2.374
 5629TIP3    H216852   4.842   2.951   2.458
 5630TIP3   OH216853   4.516   4.165   0.429
 5630TIP3    H116854   4.508   4.082   0.384
 5630TIP3    H216855   4.597   4.157   0.480
 5631TIP3   OH216856   0.487   2.016   3.822
 5631TIP3    H116857   0.401   2.003   3.860
 5631TIP3    H216858   0.541   1.947   3.860
 5632TIP3   OH216859   4.359   5.065   4.494
 5632TIP3    H116860   4.303   5.107   4.559
 5632TIP3    H216861   4.342   5.114   4.413
 5633TIP3   OH216862   4.058   3.697   2.454
 5633TIP3    H116863   4.063   3.763   2.523
 5633TIP3    H216864   3.969   3.706   2.418
 5634TIP3   OH216865   1.197   5.067   3.378
 5634TIP3    H116866   1.125   5.118   3.340
 5634TIP3    H216867   1.273   5.125   3.374
 5635TIP3   OH216868   6.466   0.100   3.496
 5635TIP3    H116869   6.492   0.009   3.507
 5635TIP3    H216870   6.478   0.139   3.583
 5636TIP3   OH216871   4.401   3.855   0.632
 5636TIP3    H116872   4.495   3.836   0.626
 5636TIP3    H216873   4.360   3.770   0.649
 5637TIP3   OH216874   0.842   5.167   1.700
 5637TIP3    H116875   0.813   5.149   1.790
 5637TIP3    H216876   0.817   5.089   1.651
 5638TIP3   OH216877   0.750   6.613   4.963
 5638TIP3    H116878   0.824   6.659   4.922
 5638TIP3    H216879   0.776   6.602   5.054
 5639TIP3   OH216880   1.938   2.189   2.205
 5639TIP3    H116881   1.857   2.155   2.242
 5639TIP3    H216882   1.911   2.268   2.158
 5640TIP3   OH216883   3.043   0.908   4.984
 5640TIP3    H116884   3.018   0.867   4.901
 5640TIP3    H216885   3.114   0.967   4.961
 5641TIP3   OH216886   6.806   6.661   3.112
 5641TIP3    H116887   6.756   6.720   3.168
 5641TIP3    H216888   6.758   6.578   3.115
 5642TIP3   OH216889   1.872   0.308   3.424
 5642TIP3    H116890   1.797   0.335   3.371
 5642TIP3    H216891   1.942   0.293   3.360
 5643TIP3   OH216892   2.295   1.986   0.560
 5643TIP3    H116893   2.365   1.929   0.527
 5643TIP3    H216894   2.227   1.926   0.589
 5644TIP3   OH216895   0.787   1.148   0.201
 5644TIP3    H116896   0.848   1.089   0.156
 5644TIP3    H216897   0.713   1.156   0.141
 5645TIP3   OH216898   1.383   6.264   1.923
 5645TIP3    H116899   1.467   6.299   1.953
 5645TIP3    H216900   1.317   6.313   1.974
 5646TIP3   OH216901   6.963   4.192   1.650
 5646TIP3    H116902   6.932   4.226   1.566
 5646TIP3    H216903   7.049   4.231   1.661
 5647TIP3   OH216904   2.849   4.301   5.159
 5647TIP3    H116905   2.925   4.280   5.106
 5647TIP3    H216906   2.878   4.374   5.215
 5648TIP3   OH216907   6.782   1.844   5.340
 5648TIP3    H116908   6.835   1.918   5.369
 5648TIP3    H216909   6.779   1.853   5.245
 5649TIP3   OH216910   0.318   2.910   4.829
 5649TIP3    H116911   0.299   2.826   4.868
 5649TIP3    H216912   0.235   2.958   4.831
 5650TIP3   OH216913   4.276   1.336   4.417
 5650TIP3    H116914   4.198   1.353   4.471
 5650TIP3    H216915   4.259   1.250   4.378
 5651TIP3   OH216916   4.738   5.974   1.252
 5651TIP3    H116917   4.656   5.962   1.203
 5651TIP3    H216918   4.721   5.931   1.336
 5652TIP3   OH216919   4.814   1.018   1.580
 5652TIP3    H116920   4.871   0.952   1.539
 5652TIP3    H216921   4.836   1.014   1.673
 5653TIP3   OH216922   5.758   6.224   1.628
 5653TIP3    H116923   5.803   6.155   1.580
 5653TIP3    H216924   5.825   6.261   1.686
 5654TIP3   OH216925   1.736   3.269   5.430
 5654TIP3    H116926   1.821   3.297   5.464
 5654TIP3    H216927   1.755   3.241   5.340
 5655TIP3   OH216928   0.468   0.673   4.072
 5655TIP3    H116929   0.489   0.598   4.015
 5655TIP3    H216930   0.377   0.695   4.049
 5656TIP3   OH216931   3.008   2.052   4.720
 5656TIP3    H116932   3.081   1.998   4.748
 5656TIP3    H216933   2.979   2.014   4.637
 5657TIP3   OH216934   4.794   1.959   5.499
 5657TIP3    H116935   4.879   1.963   5.543
 5657TIP3    H216936   4.779   2.049   5.469
 5658TIP3   OH216937   1.993   0.804   1.598
 5658TIP3    H116938   2.062   0.801   1.532
 5658TIP3    H216939   2.014   0.881   1.652
 5659TIP3   OH216940   0.611   4.136   5.390
 5659TIP3    H116941   0.669   4.090   5.451
 5659TIP3    H216942   0.587   4.069   5.325
 5660TIP3   OH216943   3.267   2.362   0.956
 5660TIP3    H116944   3.323   2.420   1.008
 5660TIP3    H216945   3.312   2.277   0.958
 5661TIP3   OH216946   0.240   1.337   4.095
 5661TIP3    H116947   0.225   1.325   4.189
 5661TIP3    H216948   0.156   1.316   4.055
 5662TIP3   OH216949   5.091   3.842   1.242
 5662TIP3    H116950   5.090   3.771   1.178
 5662TIP3    H216951   5.143   3.809   1.315
 5663TIP3   OH216952   6.955   6.102   0.150
 5663TIP3    H116953   7.022   6.083   0.085
 5663TIP3    H216954   6.952   6.024   0.205
 5664TIP3   OH216955   0.454   2.871   3.127
 5664TIP3    H116956   0.438   2.964   3.110
 5664TIP3    H216957   0.472   2.833   3.041
 5665TIP3   OH216958   6.152   3.096   0.406
 5665TIP3    H116959   6.224   3.041   0.377
 5665TIP3    H216960   6.128   3.148   0.329
 5666TIP3   OH216961   1.263   3.306   4.801
 5666TIP3    H116962   1.240   3.219   4.834
 5666TIP3    H216963   1.203   3.365   4.845
 5667TIP3   OH216964   5.801   1.286   4.695
 5667TIP3    H116965   5.723   1.234   4.676
 5667TIP3    H216966   5.798   1.298   4.790
 5668TIP3   OH216967   2.527   0.368   4.108
 5668TIP3    H116968   2.506   0.352   4.016
 5668TIP3    H216969   2.522   0.463   4.117
 5669TIP3   OH216970   1.376   1.250   1.474
 5669TIP3    H116971   1.459   1.228   1.431
 5669TIP3    H216972   1.346   1.329   1.430
 5670TIP3   OH216973   6.638   2.548   3.836
 5670TIP3    H116974   6.629   2.537   3.931
 5670TIP3    H216975   6.635   2.642   3.822
 5671TIP3   OH216976   1.326   0.708   2.728
 5671TIP3    H116977   1.320   0.773   2.798
 5671TIP3    H216978   1.278   0.632   2.762
 5672TIP3   OH216979   2.007   4.318   0.316
 5672TIP3    H116980   2.049   4.385   0.370
 5672TIP3    H216981   1.971   4.256   0.379
 5673TIP3   OH216982   4.908   2.528   2.086
 5673TIP3    H116983   4.939   2.619   2.088
 5673TIP3    H216984   4.892   2.506   2.178
 5674TIP3   OH216985   1.587   0.564   4.462
 5674TIP3    H116986   1.503   0.587   4.423
 5674TIP3    H216987   1.648   0.631   4.431
 5675TIP3   OH216988   6.610   4.209   2.596
 5675TIP3    H116989   6.682   4.243   2.543
 5675TIP3    H216990   6.606   4.267   2.672
 5676TIP3   OH216991   4.038   1.423   3.285
 5676TIP3    H116992   4.076   1.482   3.351
 5676TIP3    H216993   4.068   1.336   3.311
 5677TIP3   OH216994   5.849   2.907   0.221
 5677TIP3    H116995   5.851   2.965   0.145
 5677TIP3    H216996   5.825   2.964   0.294
 5678TIP3   OH216997   5.596   6.421   1.005
 5678TIP3    H116998   5.549   6.352   1.051
 5678TIP3    H216999   5.538   6.497   1.009
 5679TIP3   OH217000   3.386   1.650   3.804
 5679TIP3    H117001   3.297   1.626   3.781
 5679TIP3    H217002   3.437   1.636   3.724
 5680TIP3   OH217003   4.131   4.816   0.262
 5680TIP3    H117004   4.208   4.857   0.223
 5680TIP3    H217005   4.062   4.881   0.255
 5681TIP3   OH217006   2.326   3.900   5.709
 5681TIP3    H117007   2.386   3.966   5.743
 5681TIP3    H217008   2.301   3.848   5.785
 5682TIP3   OH217009   1.521   1.046   0.413
 5682TIP3    H117010   1.544   0.961   0.374
 5682TIP3    H217011   1.438   1.069   0.371
 5683TIP3   OH217012   2.828   2.130   2.007
 5683TIP3    H117013   2.839   2.047   1.960
 5683TIP3    H217014   2.818   2.196   1.939
 5684TIP3   OH217015   4.858   1.292   3.187
 5684TIP3    H117016   4.785   1.343   3.222
 5684TIP3    H217017   4.910   1.268   3.263
 5685TIP3   OH217018   6.380   3.299   1.037
 5685TIP3    H117019   6.291   3.292   1.074
 5685TIP3    H217020   6.421   3.369   1.088
 5686TIP3   OH217021   0.053   6.009   4.029
 5686TIP3    H117022   0.000   5.947   3.978
 5686TIP3    H217023   0.140   6.003   3.990
 5687TIP3   OH217024   2.017   6.583   3.194
 5687TIP3    H117025   2.003   6.521   3.266
 5687TIP3    H217026   2.110   6.603   3.196
 5688TIP3   OH217027   0.320   1.364   2.461
 5688TIP3    H117028   0.291   1.343   2.372
 5688TIP3    H217029   0.331   1.459   2.462
 5689TIP3   OH217030   5.184   1.325   2.628
 5689TIP3    H117031   5.145   1.306   2.714
 5689TIP3    H217032   5.212   1.239   2.596
 5690TIP3   OH217033   1.596   3.531   5.224
 5690TIP3    H117034   1.514   3.545   5.272
 5690TIP3    H217035   1.631   3.619   5.211
 5691TIP3   OH217036   6.876   4.566   4.107
 5691TIP3    H117037   6.796   4.574   4.159
 5691TIP3    H217038   6.938   4.625   4.149
 5692TIP3   OH217039   1.147   0.522   3.877
 5692TIP3    H117040   1.165   0.616   3.879
 5692TIP3    H217041   1.208   0.484   3.941
 5693TIP3   OH217042   4.326   4.813   4.222
 5693TIP3    H117043   4.363   4.766   4.297
 5693TIP3    H217044   4.398   4.865   4.188
 5694TIP3   OH217045   2.597   5.192   4.951
 5694TIP3    H117046   2.676   5.139   4.945
 5694TIP3    H217047   2.527   5.129   4.969
 5695TIP3   OH217048   5.844   3.254   5.571
 5695TIP3    H117049   5.757   3.216   5.586
 5695TIP3    H217050   5.883   3.199   5.503
 5696TIP3   OH217051   1.552   5.433   4.568
 5696TIP3    H117052   1.510   5.477   4.641
 5696TIP3    H217053   1.645   5.429   4.592
 5697TIP3   OH217054   6.749   4.707   3.307
 5697TIP3    H117055   6.678   4.730   3.368
 5697TIP3    H217056   6.784   4.625   3.341
 5698TIP3   OH217057   2.696   6.193   5.215
 5698TIP3    H117058   2.712   6.124   5.279
 5698TIP3    H217059   2.781   6.235   5.202
 5699TIP3   OH217060   6.196   0.974   2.378
 5699TIP3    H117061   6.183   0.885   2.346
 5699TIP3    H217062   6.217   0.964   2.470
 5700TIP3   OH217063   2.934   5.271   0.667
 5700TIP3    H117064   2.899   5.291   0.580
 5700TIP3    H217065   2.859   5.280   0.725
 5701TIP3   OH217066   2.470   4.106   0.105
 5701TIP3    H117067   2.548   4.081   0.153
 5701TIP3    H217068   2.495   4.098   0.013
 5702TIP3   OH217069   1.886   1.969   2.496
 5702TIP3    H117070   1.906   2.007   2.582
 5702TIP3    H217071   1.791   1.973   2.490
 5703TIP3   OH217072   3.313   5.356   2.524
 5703TIP3    H117073   3.325   5.435   2.473
 5703TIP3    H217074   3.274   5.293   2.463
 5704TIP3   OH217075   0.009   2.954   0.656
 5704TIP3    H117076   0.011   2.874   0.603
 5704TIP3    H217077   0.100   2.972   0.677
 5705TIP3   OH217078   6.586   5.039   2.103
 5705TIP3    H117079   6.512   5.073   2.153
 5705TIP3    H217080   6.634   4.984   2.164
 5706TIP3   OH217081   6.590   2.558   4.105
 5706TIP3    H117082   6.505   2.589   4.137
 5706TIP3    H217083   6.637   2.530   4.184
 5707TIP3   OH217084   1.467   4.236   1.761
 5707TIP3    H117085   1.531   4.167   1.780
 5707TIP3    H217086   1.514   4.317   1.781
 5708TIP3   OH217087   1.103   6.603   3.162
 5708TIP3    H117088   1.179   6.594   3.220
 5708TIP3    H217089   1.109   6.694   3.131
 5709TIP3   OH217090   6.744   3.508   2.966
 5709TIP3    H117091   6.799   3.518   2.888
 5709TIP3    H217092   6.802   3.469   3.031
 5710TIP3   OH217093   3.938   3.380   4.196
 5710TIP3    H117094   4.005   3.319   4.228
 5710TIP3    H217095   3.962   3.398   4.105
 5711TIP3   OH217096   3.213   6.757   2.960
 5711TIP3    H117097   3.158   6.784   2.887
 5711TIP3    H217098   3.194   6.820   3.029
 5712TIP3   OH217099   5.802   4.742   1.273
 5712TIP3    H117100   5.804   4.690   1.354
 5712TIP3    H217101   5.812   4.832   1.302
 5713TIP3   OH217102   4.774   5.665   1.675
 5713TIP3    H117103   4.711   5.598   1.701
 5713TIP3    H217104   4.731   5.711   1.603
 5714TIP3   OH217105   1.403   5.140   1.953
 5714TIP3    H117106   1.333   5.088   1.991
 5714TIP3    H217107   1.469   5.076   1.925
 5715TIP3   OH217108   4.155   5.933   0.889
 5715TIP3    H117109   4.113   5.878   0.955
 5715TIP3    H217110   4.236   5.887   0.868
 5716TIP3   OH217111   5.784   0.026   2.622
 5716TIP3    H117112   5.779   0.080   2.543
 5716TIP3    H217113   5.788   0.088   2.694
 5717TIP3   OH217114   1.667   0.008   0.976
 5717TIP3    H117115   1.574  -0.002   0.998
 5717TIP3    H217116   1.698   0.078   1.034
 5718TIP3   OH217117   0.861   4.748   4.357
 5718TIP3    H117118   0.936   4.707   4.401
 5718TIP3    H217119   0.901   4.809   4.294
 5719TIP3   OH217120   3.085   0.490   5.594
 5719TIP3    H117121   3.040   0.407   5.610
 5719TIP3    H217122   3.127   0.510   5.678
 5720TIP3   OH217123   4.068   3.332   0.211
 5720TIP3    H117124   4.115   3.415   0.219
 5720TIP3    H217125   4.132   3.272   0.171
 5721TIP3   OH217126   1.189   1.637   1.909
 5721TIP3    H117127   1.179   1.730   1.885
 5721TIP3    H217128   1.186   1.591   1.826
 5722TIP3   OH217129   3.824   1.729   2.620
 5722TIP3    H117130   3.851   1.726   2.712
 5722TIP3    H217131   3.728   1.727   2.623
 5723TIP3   OH217132   5.381   5.191   2.877
 5723TIP3    H117133   5.400   5.143   2.797
 5723TIP3    H217134   5.404   5.282   2.857
 5724TIP3   OH217135   7.165   1.540   5.109
 5724TIP3    H117136   7.165   1.583   5.194
 5724TIP3    H217137   7.220   1.596   5.054
 5725TIP3   OH217138   4.886   0.947   2.275
 5725TIP3    H117139   4.838   0.886   2.331
 5725TIP3    H217140   4.913   1.017   2.334
 5726TIP3   OH217141   2.343   4.586   3.237
 5726TIP3    H117142   2.429   4.545   3.246
 5726TIP3    H217143   2.287   4.540   3.299
 5727TIP3   OH217144   1.730   6.340   0.404
 5727TIP3    H117145   1.637   6.321   0.416
 5727TIP3    H217146   1.769   6.255   0.384
 5728TIP3   OH217147   5.924   3.180   2.350
 5728TIP3    H117148   5.874   3.161   2.429
 5728TIP3    H217149   6.013   3.148   2.369
 5729TIP3   OH217150   2.780   1.853   2.781
 5729TIP3    H117151   2.749   1.854   2.690
 5729TIP3    H217152   2.755   1.767   2.814
 5730TIP3   OH217153   5.074   5.499   2.609
 5730TIP3    H117154   5.060   5.593   2.613
 5730TIP3    H217155   5.044   5.474   2.521
 5731TIP3   OH217156   0.341   0.339   3.367
 5731TIP3    H117157   0.284   0.281   3.419
 5731TIP3    H217158   0.280   0.387   3.311
 5732TIP3   OH217159   6.963   1.055   3.391
 5732TIP3    H117160   6.874   1.079   3.363
 5732TIP3    H217161   6.949   0.991   3.461
 5733TIP3   OH217162   4.659   1.214   1.224
 5733TIP3    H117163   4.575   1.204   1.180
 5733TIP3    H217164   4.696   1.126   1.225
 5734TIP3   OH217165   3.444   4.910   5.832
 5734TIP3    H117166   3.394   4.868   5.901
 5734TIP3    H217167   3.379   4.932   5.765
 5735TIP3   OH217168   0.492   6.200   2.334
 5735TIP3    H117169   0.534   6.179   2.251
 5735TIP3    H217170   0.492   6.118   2.383
 5736TIP3   OH217171   1.995   4.700   5.457
 5736TIP3    H117172   2.086   4.688   5.481
 5736TIP3    H217173   1.963   4.611   5.438
 5737TIP3   OH217174   1.818   4.404   0.990
 5737TIP3    H117175   1.898   4.448   0.962
 5737TIP3    H217176   1.841   4.311   0.994
 5738TIP3   OH217177   4.982   3.828   0.652
 5738TIP3    H117178   5.019   3.902   0.604
 5738TIP3    H217179   4.915   3.867   0.709
 5739TIP3   OH217180   2.387   5.968   0.860
 5739TIP3    H117181   2.383   6.063   0.859
 5739TIP3    H217182   2.472   5.947   0.822
 5740TIP3   OH217183   2.301   6.129   2.639
 5740TIP3    H117184   2.245   6.144   2.715
 5740TIP3    H217185   2.300   6.212   2.592
 5741TIP3   OH217186   5.171   2.928   1.908
 5741TIP3    H117187   5.164   2.953   1.816
 5741TIP3    H217188   5.227   2.850   1.907
 5742TIP3   OH217189   6.150   6.289   3.564
 5742TIP3    H117190   6.183   6.275   3.475
 5742TIP3    H217191   6.073   6.345   3.552
 5743TIP3   OH217192   2.160   0.412   2.879
 5743TIP3    H117193   2.066   0.408   2.863
 5743TIP3    H217194   2.181   0.328   2.922
 5744TIP3   OH217195   5.773   2.466   2.534
 5744TIP3    H117196   5.818   2.497   2.612
 5744TIP3    H217197   5.694   2.422   2.566
 5745TIP3   OH217198   2.254   5.495   4.405
 5745TIP3    H117199   2.311   5.455   4.339
 5745TIP3    H217200   2.250   5.430   4.476
 5746TIP3   OH217201   4.747   0.061   1.717
 5746TIP3    H117202   4.802   0.111   1.657
 5746TIP3    H217203   4.710  -0.009   1.664
 5747TIP3   OH217204   3.979   5.770   3.768
 5747TIP3    H117205   4.046   5.731   3.711
 5747TIP3    H217206   3.964   5.704   3.836
 5748TIP3   OH217207   4.373   1.856   0.432
 5748TIP3    H117208   4.397   1.938   0.387
 5748TIP3    H217209   4.361   1.793   0.361
 5749TIP3   OH217210   6.087   1.964   1.357
 5749TIP3    H117211   6.084   1.868   1.363
 5749TIP3    H217212   6.072   1.982   1.264
 5750TIP3   OH217213   6.175   6.665   1.533
 5750TIP3    H117214   6.221   6.695   1.611
 5750TIP3    H217215   6.082   6.668   1.557
 5751TIP3   OH217216   0.227   1.295   5.127
 5751TIP3    H117217   0.229   1.384   5.093
 5751TIP3    H217218   0.134   1.277   5.141
 5752TIP3   OH217219   2.047   3.184   5.296
 5752TIP3    H117220   1.996   3.174   5.215
 5752TIP3    H217221   2.136   3.158   5.271
 5753TIP3   OH217222   5.564   3.790   1.247
 5753TIP3    H117223   5.573   3.854   1.176
 5753TIP3    H217224   5.474   3.759   1.240
 5754TIP3   OH217225   4.839   3.941   4.681
 5754TIP3    H117226   4.765   3.893   4.717
 5754TIP3    H217227   4.907   3.875   4.668
 5755TIP3   OH217228   0.125   5.212   2.223
 5755TIP3    H117229   0.183   5.267   2.275
 5755TIP3    H217230   0.040   5.257   2.226
 5756TIP3   OH217231   5.692   1.815   3.700
 5756TIP3    H117232   5.740   1.825   3.783
 5756TIP3    H217233   5.601   1.833   3.723
 5757TIP3   OH217234   0.084   4.595   2.640
 5757TIP3    H117235   0.151   4.606   2.707
 5757TIP3    H217236   0.111   4.517   2.592
 5758TIP3   OH217237   3.798   0.787   2.598
 5758TIP3    H117238   3.730   0.826   2.543
 5758TIP3    H217239   3.808   0.698   2.565
 5759TIP3   OH217240   5.199   5.825   4.912
 5759TIP3    H117241   5.223   5.911   4.948
 5759TIP3    H217242   5.270   5.767   4.938
 5760TIP3   OH217243   5.138   5.336   3.004
 5760TIP3    H117244   5.215   5.282   2.991
 5760TIP3    H217245   5.154   5.414   2.951
 5761TIP3   OH217246   0.069   4.974   3.764
 5761TIP3    H117247   0.059   4.920   3.686
 5761TIP3    H217248   0.072   5.064   3.731
 5762TIP3   OH217249   5.761   6.529   2.122
 5762TIP3    H117250   5.745   6.435   2.113
 5762TIP3    H217251   5.675   6.567   2.137
 5763TIP3   OH217252   5.900   4.084   0.760
 5763TIP3    H117253   5.987   4.058   0.791
 5763TIP3    H217254   5.913   4.171   0.722
 5764TIP3   OH217255   3.105   5.029   4.074
 5764TIP3    H117256   3.128   5.111   4.030
 5764TIP3    H217257   3.010   5.022   4.064
 5765TIP3   OH217258   4.851   2.665   3.419
 5765TIP3    H117259   4.882   2.627   3.337
 5765TIP3    H217260   4.771   2.618   3.440
 5766TIP3   OH217261   1.791   2.763   5.562
 5766TIP3    H117262   1.749   2.804   5.637
 5766TIP3    H217263   1.825   2.836   5.510
 5767TIP3   OH217264   5.188   3.216   4.726
 5767TIP3    H117265   5.121   3.153   4.698
 5767TIP3    H217266   5.271   3.172   4.711
 5768TIP3   OH217267   5.226   2.759   0.311
 5768TIP3    H117268   5.210   2.852   0.293
 5768TIP3    H217269   5.319   2.756   0.335
 5769TIP3   OH217270   3.143   4.196   4.103
 5769TIP3    H117271   3.098   4.280   4.098
 5769TIP3    H217272   3.182   4.195   4.191
 5770TIP3   OH217273   0.689   6.619   3.551
 5770TIP3    H117274   0.781   6.639   3.565
 5770TIP3    H217275   0.676   6.533   3.590
 5771TIP3   OH217276   2.396   0.334   5.359
 5771TIP3    H117277   2.432   0.392   5.426
 5771TIP3    H217278   2.301   0.347   5.366
 5772TIP3   OH217279   0.888   2.757   3.360
 5772TIP3    H117280   0.803   2.797   3.339
 5772TIP3    H217281   0.935   2.757   3.276
 5773TIP3   OH217282   2.005   3.505   4.614
 5773TIP3    H117283   1.923   3.497   4.663
 5773TIP3    H217284   2.022   3.600   4.612
 5774TIP3   OH217285   2.696   1.579   2.838
 5774TIP3    H117286   2.761   1.564   2.907
 5774TIP3    H217287   2.652   1.495   2.828
 5775TIP3   OH217288   0.846   6.596   0.324
 5775TIP3    H117289   0.900   6.642   0.260
 5775TIP3    H217290   0.766   6.648   0.330
 5776TIP3   OH217291   2.912   1.998   5.656
 5776TIP3    H117292   2.875   2.054   5.588
 5776TIP3    H217293   2.883   1.910   5.633
 5777TIP3   OH217294   6.579   4.697   3.510
 5777TIP3    H117295   6.556   4.764   3.575
 5777TIP3    H217296   6.564   4.614   3.556
 5778TIP3   OH217297   2.494   5.339   3.784
 5778TIP3    H117298   2.579   5.299   3.765
 5778TIP3    H217299   2.468   5.381   3.702
 5779TIP3   OH217300   3.479   5.198   3.931
 5779TIP3    H117301   3.414   5.183   3.862
 5779TIP3    H217302   3.477   5.292   3.945
 5780TIP3   OH217303   4.240   3.132   1.076
 5780TIP3    H117304   4.332   3.158   1.074
 5780TIP3    H217305   4.238   3.045   1.037
 5781TIP3   OH217306   6.403   3.607   1.916
 5781TIP3    H117307   6.358   3.617   1.832
 5781TIP3    H217308   6.336   3.628   1.982
 5782TIP3   OH217309   2.653   4.385   3.378
 5782TIP3    H117310   2.669   4.461   3.433
 5782TIP3    H217311   2.725   4.385   3.315
 5783TIP3   OH217312   3.452   4.059   4.847
 5783TIP3    H117313   3.477   4.146   4.880
 5783TIP3    H217314   3.446   4.069   4.752
 5784TIP3   OH217315   5.898   0.590   0.740
 5784TIP3    H117316   5.994   0.597   0.741
 5784TIP3    H217317   5.867   0.680   0.741
 5785TIP3   OH217318   1.981   1.394   0.128
 5785TIP3    H117319   1.981   1.487   0.105
 5785TIP3    H217320   2.051   1.356   0.076
 5786TIP3   OH217321   3.797   3.025   3.962
 5786TIP3    H117322   3.761   3.044   4.049
 5786TIP3    H217323   3.725   3.043   3.902
 5787TIP3   OH217324   4.932   2.073   4.695
 5787TIP3    H117325   4.900   2.162   4.709
 5787TIP3    H217326   4.867   2.032   4.639
 5788TIP3   OH217327   7.215   1.531   3.337
 5788TIP3    H117328   7.202   1.437   3.348
 5788TIP3    H217329   7.126   1.566   3.331
 5789TIP3   OH217330   0.112   1.408   2.827
 5789TIP3    H117331   0.104   1.353   2.749
 5789TIP3    H217332   0.113   1.347   2.900
 5790TIP3   OH217333   4.053   6.402   5.104
 5790TIP3    H117334   4.105   6.342   5.051
 5790TIP3    H217335   4.092   6.488   5.089
 5791TIP3   OH217336   6.243   3.592   1.681
 5791TIP3    H117337   6.314   3.595   1.617
 5791TIP3    H217338   6.185   3.664   1.656
 5792TIP3   OH217339   2.546   4.449   3.104
 5792TIP3    H117340   2.552   4.438   3.009
 5792TIP3    H217341   2.630   4.416   3.137
 5793TIP3   OH217342   2.343   0.397   4.657
 5793TIP3    H117343   2.310   0.483   4.685
 5793TIP3    H217344   2.312   0.337   4.725
 5794TIP3   OH217345   7.062   1.677   0.191
 5794TIP3    H117346   7.102   1.598   0.154
 5794TIP3    H217347   6.971   1.652   0.207
 5795TIP3   OH217348   3.546   6.502   3.827
 5795TIP3    H117349   3.558   6.466   3.739
 5795TIP3    H217350   3.520   6.593   3.812
 5796TIP3   OH217351   5.400   1.898   5.839
 5796TIP3    H117352   5.423   1.808   5.865
 5796TIP3    H217353   5.402   1.948   5.920
 5797TIP3   OH217354   2.124   3.732   5.278
 5797TIP3    H117355   2.205   3.750   5.231
 5797TIP3    H217356   2.059   3.790   5.238
 5798TIP3   OH217357   2.910   6.345   2.662
 5798TIP3    H117358   2.821   6.359   2.693
 5798TIP3    H217359   2.964   6.399   2.720
 5799TIP3   OH217360   5.273   1.394   5.337
 5799TIP3    H117361   5.201   1.332   5.338
 5799TIP3    H217362   5.293   1.406   5.244
 5800TIP3   OH217363   4.650   3.498   1.249
 5800TIP3    H117364   4.663   3.469   1.159
 5800TIP3    H217365   4.601   3.427   1.290
 5801TIP3   OH217366   4.046   5.944   4.894
 5801TIP3    H117367   4.130   5.920   4.934
 5801TIP3    H217368   3.980   5.916   4.957
 5802TIP3   OH217369   4.412   4.430   3.834
 5802TIP3    H117370   4.471   4.361   3.863
 5802TIP3    H217371   4.353   4.387   3.771
 5803TIP3   OH217372   5.712   0.159   1.892
 5803TIP3    H117373   5.664   0.083   1.860
 5803TIP3    H217374   5.763   0.126   1.966
 5804TIP3   OH217375   7.157   6.793   2.170
 5804TIP3    H117376   7.078   6.841   2.191
 5804TIP3    H217377   7.127   6.717   2.120
 5805TIP3   OH217378   2.456   5.075   3.962
 5805TIP3    H117379   2.363   5.094   3.977
 5805TIP3    H217380   2.471   5.101   3.871
 5806TIP3   OH217381   2.353   1.602   1.794
 5806TIP3    H117382   2.318   1.679   1.749
 5806TIP3    H217383   2.279   1.542   1.802
 5807TIP3   OH217384   0.589   5.443   3.834
 5807TIP3    H117385   0.572   5.350   3.849
 5807TIP3    H217386   0.604   5.450   3.740
 5808TIP3   OH217387   2.281   3.349   2.304
 5808TIP3    H117388   2.292   3.308   2.219
 5808TIP3    H217389   2.237   3.283   2.358
 5809TIP3   OH217390   5.272   1.547   5.559
 5809TIP3    H117391   5.366   1.545   5.543
 5809TIP3    H217392   5.235   1.488   5.494
 5810TIP3   OH217393   4.594   1.759   3.149
 5810TIP3    H117394   4.561   1.820   3.214
 5810TIP3    H217395   4.571   1.672   3.184
 5811TIP3   OH217396   2.974   4.730   4.528
 5811TIP3    H117397   2.887   4.701   4.502
 5811TIP3    H217398   2.966   4.824   4.542
 5812TIP3   OH217399   4.819   5.664   1.941
 5812TIP3    H117400   4.824   5.669   1.846
 5812TIP3    H217401   4.848   5.750   1.971
 5813TIP3   OH217402   2.394   2.996   2.539
 5813TIP3    H117403   2.396   3.084   2.578
 5813TIP3    H217404   2.305   2.988   2.504
 5814TIP3   OH217405   7.054   0.546   2.186
 5814TIP3    H117406   7.088   0.475   2.241
 5814TIP3    H217407   7.113   0.550   2.112
 5815TIP3   OH217408   0.454   5.662   0.731
 5815TIP3    H117409   0.486   5.650   0.642
 5815TIP3    H217410   0.368   5.703   0.721
 5816TIP3   OH217411   1.184   2.392   5.367
 5816TIP3    H117412   1.111   2.350   5.321
 5816TIP3    H217413   1.262   2.362   5.320
 5817TIP3   OH217414   0.393   5.660   3.071
 5817TIP3    H117415   0.463   5.610   3.114
 5817TIP3    H217416   0.434   5.745   3.052
 5818TIP3   OH217417   6.608   5.072   5.434
 5818TIP3    H117418   6.559   5.016   5.495
 5818TIP3    H217419   6.681   5.018   5.405
 5819TIP3   OH217420   1.867   1.326   5.058
 5819TIP3    H117421   1.870   1.416   5.026
 5819TIP3    H217422   1.950   1.314   5.105
 5820TIP3   OH217423   4.101   6.445   4.286
 5820TIP3    H117424   4.113   6.528   4.333
 5820TIP3    H217425   4.014   6.416   4.312
 5821TIP3   OH217426   3.027   1.659   4.992
 5821TIP3    H117427   3.003   1.672   4.900
 5821TIP3    H217428   3.060   1.745   5.021
 5822TIP3   OH217429   1.794   5.626   0.417
 5822TIP3    H117430   1.856   5.698   0.415
 5822TIP3    H217431   1.716   5.662   0.460
 5823TIP3   OH217432   6.536   0.333   4.957
 5823TIP3    H117433   6.608   0.391   4.931
 5823TIP3    H217434   6.491   0.380   5.027
 5824TIP3   OH217435   0.426   4.808   4.416
 5824TIP3    H117436   0.442   4.763   4.499
 5824TIP3    H217437   0.496   4.874   4.412
 5825TIP3   OH217438   3.710   4.500   0.178
 5825TIP3    H117439   3.800   4.529   0.196
 5825TIP3    H217440   3.719   4.408   0.155
 5826TIP3   OH217441   6.408   2.651   3.693
 5826TIP3    H117442   6.476   2.696   3.642
 5826TIP3    H217443   6.444   2.564   3.710
 5827TIP3   OH217444   6.667   6.035   1.488
 5827TIP3    H117445   6.659   6.038   1.583
 5827TIP3    H217446   6.617   6.111   1.457
 5828TIP3   OH217447   0.889   0.997   3.677
 5828TIP3    H117448   0.890   1.032   3.588
 5828TIP3    H217449   0.927   0.910   3.668
 5829TIP3   OH217450   6.462   4.690   1.772
 5829TIP3    H117451   6.419   4.753   1.830
 5829TIP3    H217452   6.390   4.642   1.730
 5830TIP3   OH217453   2.086   5.627   0.286
 5830TIP3    H117454   2.065   5.707   0.239
 5830TIP3    H217455   2.112   5.565   0.217
 5831TIP3   OH217456   3.761   1.594   5.648
 5831TIP3    H117457   3.712   1.610   5.567
 5831TIP3    H217458   3.701   1.623   5.718
 5832TIP3   OH217459   4.479   3.961   0.887
 5832TIP3    H117460   4.461   3.933   0.797
 5832TIP3    H217461   4.535   4.038   0.878
 5833TIP3   OH217462   4.311   2.982   4.621
 5833TIP3    H117463   4.352   3.038   4.687
 5833TIP3    H217464   4.248   2.930   4.669
 5834TIP3   OH217465   1.785   4.522   2.177
 5834TIP3    H117466   1.791   4.443   2.123
 5834TIP3    H217467   1.876   4.543   2.200
 5835TIP3   OH217468   3.573   4.636   5.351
 5835TIP3    H117469   3.542   4.720   5.385
 5835TIP3    H217470   3.501   4.604   5.296
 5836TIP3   OH217471   7.093   3.470   1.138
 5836TIP3    H117472   7.064   3.458   1.229
 5836TIP3    H217473   7.021   3.438   1.085
 5837TIP3   OH217474   4.381   5.194   1.803
 5837TIP3    H117475   4.411   5.277   1.839
 5837TIP3    H217476   4.447   5.170   1.738
 5838TIP3   OH217477   6.214   0.049   4.234
 5838TIP3    H117478   6.257  -0.022   4.188
 5838TIP3    H217479   6.284   0.110   4.257
 5839TIP3   OH217480   0.902   1.427   0.210
 5839TIP3    H117481   0.856   1.359   0.259
 5839TIP3    H217482   0.991   1.426   0.245
 5840TIP3   OH217483   5.714   1.101   5.579
 5840TIP3    H117484   5.773   1.026   5.588
 5840TIP3    H217485   5.734   1.156   5.654
 5841TIP3   OH217486   2.851   1.024   4.169
 5841TIP3    H117487   2.827   0.989   4.083
 5841TIP3    H217488   2.947   1.024   4.169
 5842TIP3   OH217489   5.066   1.520   3.425
 5842TIP3    H117490   5.006   1.594   3.431
 5842TIP3    H217491   5.104   1.528   3.337
 5843TIP3   OH217492   5.641   2.180   3.308
 5843TIP3    H117493   5.654   2.107   3.368
 5843TIP3    H217494   5.628   2.256   3.366
 5844TIP3   OH217495   4.839   0.713   0.409
 5844TIP3    H117496   4.911   0.774   0.425
 5844TIP3    H217497   4.784   0.758   0.345
 5845TIP3   OH217498   5.809   6.717   3.534
 5845TIP3    H117499   5.845   6.629   3.522
 5845TIP3    H217500   5.865   6.756   3.601
 5846TIP3   OH217501   3.537   3.769   3.694
 5846TIP3    H117502   3.610   3.787   3.754
 5846TIP3    H217503   3.469   3.732   3.750
 5847TIP3   OH217504   1.998   4.136   2.733
 5847TIP3    H117505   1.991   4.104   2.823
 5847TIP3    H217506   2.080   4.186   2.733
 5848TIP3   OH217507   2.583   5.572  -0.010
 5848TIP3    H117508   2.629   5.520   0.056
 5848TIP3    H217509   2.499   5.528  -0.020
 5849TIP3   OH217510   1.655   3.188   2.161
 5849TIP3    H117511   1.572   3.196   2.115
 5849TIP3    H217512   1.671   3.275   2.197
 5850TIP3   OH217513   2.388   4.904   5.262
 5850TIP3    H117514   2.403   4.846   5.187
 5850TIP3    H217515   2.442   4.981   5.245
 5851TIP3   OH217516   2.376   3.276   2.667
 5851TIP3    H117517   2.407   3.252   2.754
 5851TIP3    H217518   2.380   3.372   2.664
 5852TIP3   OH217519   1.521   3.984   3.265
 5852TIP3    H117520   1.478   4.049   3.320
 5852TIP3    H217521   1.473   3.903   3.281
 5853TIP3   OH217522   5.488   5.905   1.115
 5853TIP3    H117523   5.396   5.883   1.130
 5853TIP3    H217524   5.512   5.958   1.191
 5854TIP3   OH217525   4.141   2.584   5.545
 5854TIP3    H117526   4.162   2.598   5.452
 5854TIP3    H217527   4.206   2.637   5.592
 5855TIP3   OH217528   1.675   0.672   5.095
 5855TIP3    H117529   1.729   0.707   5.166
 5855TIP3    H217530   1.732   0.671   5.019
 5856TIP3   OH217531   1.360   1.306   4.202
 5856TIP3    H117532   1.307   1.322   4.280
 5856TIP3    H217533   1.296   1.290   4.133
 5857TIP3   OH217534   1.199   1.646   0.979
 5857TIP3    H117535   1.116   1.619   0.939
 5857TIP3    H217536   1.179   1.730   1.019
 5858TIP3   OH217537   2.013   2.741   1.394
 5858TIP3    H117538   2.013   2.682   1.469
 5858TIP3    H217539   2.078   2.703   1.334
 5859TIP3   OH217540   6.506   0.653   0.663
 5859TIP3    H117541   6.452   0.623   0.590
 5859TIP3    H217542   6.529   0.743   0.640
 5860TIP3   OH217543   3.764   2.555   4.157
 5860TIP3    H117544   3.707   2.586   4.086
 5860TIP3    H217545   3.796   2.634   4.200
 5861TIP3   OH217546   4.208   1.268   1.426
 5861TIP3    H117547   4.197   1.320   1.346
 5861TIP3    H217548   4.209   1.177   1.395
 5862TIP3   OH217549   2.267   2.432   4.092
 5862TIP3    H117550   2.269   2.466   4.003
 5862TIP3    H217551   2.353   2.452   4.128
 5863TIP3   OH217552   4.032   6.273   3.724
 5863TIP3    H117553   4.125   6.250   3.718
 5863TIP3    H217554   4.020   6.301   3.815
 5864TIP3   OH217555   5.071   1.431   3.674
 5864TIP3    H117556   4.980   1.403   3.679
 5864TIP3    H217557   5.079   1.475   3.590
 5865TIP3   OH217558   6.307   2.446   4.766
 5865TIP3    H117559   6.330   2.423   4.856
 5865TIP3    H217560   6.219   2.485   4.774
 5866TIP3   OH217561   6.485   3.162   5.117
 5866TIP3    H117562   6.468   3.145   5.025
 5866TIP3    H217563   6.520   3.080   5.151
 5867TIP3   OH217564   4.704   1.960   4.216
 5867TIP3    H117565   4.625   1.982   4.166
 5867TIP3    H217566   4.729   1.873   4.184
 5868TIP3   OH217567   1.723   6.400   2.819
 5868TIP3    H117568   1.694   6.478   2.867
 5868TIP3    H217569   1.720   6.329   2.884
 5869TIP3   OH217570   3.542   2.830   5.433
 5869TIP3    H117571   3.497   2.886   5.497
 5869TIP3    H217572   3.589   2.766   5.487
 5870TIP3   OH217573   6.396   6.153   5.191
 5870TIP3    H117574   6.448   6.089   5.239
 5870TIP3    H217575   6.317   6.105   5.165
 5871TIP3   OH217576   0.082   6.406   2.354
 5871TIP3    H117577   0.175   6.423   2.366
 5871TIP3    H217578   0.070   6.399   2.259
 5872TIP3   OH217579   6.760   3.424   0.314
 5872TIP3    H117580   6.778   3.518   0.322
 5872TIP3    H217581   6.686   3.409   0.372
 5873TIP3   OH217582   1.371   4.589   1.159
 5873TIP3    H117583   1.456   4.549   1.173
 5873TIP3    H217584   1.348   4.628   1.244
 5874TIP3   OH217585   5.081   6.560   0.778
 5874TIP3    H117586   5.003   6.598   0.817
 5874TIP3    H217587   5.072   6.466   0.794
 5875TIP3   OH217588   2.070   1.518   4.946
 5875TIP3    H117589   2.138   1.566   4.898
 5875TIP3    H217590   2.118   1.468   5.012
 5876TIP3   OH217591   4.403   5.401   3.413
 5876TIP3    H117592   4.447   5.410   3.498
 5876TIP3    H217593   4.452   5.459   3.354
 5877TIP3   OH217594   0.827   4.624   0.958
 5877TIP3    H117595   0.826   4.644   1.052
 5877TIP3    H217596   0.904   4.568   0.947
 5878TIP3   OH217597   5.899   1.668   1.092
 5878TIP3    H117598   5.888   1.676   0.997
 5878TIP3    H217599   5.867   1.751   1.127
 5879TIP3   OH217600   5.575   0.042   2.250
 5879TIP3    H117601   5.669   0.044   2.231
 5879TIP3    H217602   5.535   0.018   2.166
 5880TIP3   OH217603   5.459   1.670   3.055
 5880TIP3    H117604   5.459   1.728   3.131
 5880TIP3    H217605   5.460   1.729   2.979
 5881TIP3   OH217606   1.930   3.583   1.698
 5881TIP3    H117607   2.019   3.600   1.728
 5881TIP3    H217608   1.940   3.558   1.606
 5882TIP3   OH217609   4.954   1.721   5.689
 5882TIP3    H117610   5.008   1.800   5.699
 5882TIP3    H217611   4.906   1.715   5.771
 5883TIP3   OH217612   3.486   2.598   0.047
 5883TIP3    H117613   3.403   2.564   0.014
 5883TIP3    H217614   3.535   2.621  -0.032
 5884TIP3   OH217615   5.706   4.803   2.064
 5884TIP3    H117616   5.689   4.854   2.143
 5884TIP3    H217617   5.622   4.803   2.017
 5885TIP3   OH217618   3.298   6.042   1.062
 5885TIP3    H117619   3.219   6.094   1.057
 5885TIP3    H217620   3.350   6.068   0.987
 5886TIP3   OH217621   2.042   1.089   2.986
 5886TIP3    H117622   2.092   1.170   3.000
 5886TIP3    H217623   2.025   1.056   3.074
 5887TIP3   OH217624   1.024   6.270   3.759
 5887TIP3    H117625   0.991   6.309   3.840
 5887TIP3    H217626   0.985   6.183   3.757
 5888TIP3   OH217627   2.965   5.929   2.386
 5888TIP3    H117628   3.043   5.954   2.337
 5888TIP3    H217629   2.997   5.909   2.474
 5889TIP3   OH217630   6.606   1.265   3.499
 5889TIP3    H117631   6.602   1.351   3.456
 5889TIP3    H217632   6.698   1.252   3.519
 5890TIP3   OH217633   3.906   4.257   0.082
 5890TIP3    H117634   3.975   4.313   0.048
 5890TIP3    H217635   3.950   4.176   0.107
 5891TIP3   OH217636   5.860   2.769   2.571
 5891TIP3    H117637   5.944   2.781   2.617
 5891TIP3    H217638   5.834   2.679   2.594
 5892TIP3   OH217639   1.383   2.412   2.447
 5892TIP3    H117640   1.315   2.401   2.513
 5892TIP3    H217641   1.412   2.322   2.428
 5893TIP3   OH217642   0.044   2.996   2.261
 5893TIP3    H117643  -0.007   2.995   2.342
 5893TIP3    H217644   0.135   3.003   2.290
 5894TIP3   OH217645   4.376   5.740   0.872
 5894TIP3    H117646   4.372   5.665   0.931
 5894TIP3    H217647   4.380   5.702   0.785
 5895TIP3   OH217648   5.151   4.957   1.796
 5895TIP3    H117649   5.141   5.017   1.722
 5895TIP3    H217650   5.246   4.949   1.808
 5896TIP3   OH217651   1.265   0.503   1.413
 5896TIP3    H117652   1.352   0.532   1.438
 5896TIP3    H217653   1.256   0.416   1.453
 5897TIP3   OH217654   6.662   5.292   4.176
 5897TIP3    H117655   6.730   5.359   4.173
 5897TIP3    H217656   6.635   5.280   4.085
 5898TIP3   OH217657   7.138   6.640   1.636
 5898TIP3    H117658   7.050   6.631   1.599
 5898TIP3    H217659   7.127   6.620   1.729
 5899TIP3   OH217660   4.325   0.315   2.437
 5899TIP3    H117661   4.267   0.357   2.373
 5899TIP3    H217662   4.265   0.270   2.497
 5900TIP3   OH217663   2.798   0.345   4.048
 5900TIP3    H117664   2.851   0.363   4.125
 5900TIP3    H217665   2.722   0.297   4.082
 5901TIP3   OH217666   2.264   1.984   5.116
 5901TIP3    H117667   2.289   1.927   5.188
 5901TIP3    H217668   2.173   1.961   5.097
 5902TIP3   OH217669   3.877   3.162   5.351
 5902TIP3    H117670   3.868   3.209   5.434
 5902TIP3    H217671   3.827   3.082   5.363
 5903TIP3   OH217672   1.435   2.842   0.983
 5903TIP3    H117673   1.366   2.909   0.986
 5903TIP3    H217674   1.449   2.826   0.889
 5904TIP3   OH217675   0.650   1.643   4.766
 5904TIP3    H117676   0.654   1.737   4.783
 5904TIP3    H217677   0.560   1.627   4.738
 5905TIP3   OH217678   3.674   5.531   1.507
 5905TIP3    H117679   3.596   5.525   1.452
 5905TIP3    H217680   3.747   5.510   1.448
 5906TIP3   OH217681   5.240   4.490   3.801
 5906TIP3    H117682   5.177   4.422   3.778
 5906TIP3    H217683   5.198   4.537   3.873
 5907TIP3   OH217684   4.257   3.409   3.208
 5907TIP3    H117685   4.244   3.315   3.192
 5907TIP3    H217686   4.317   3.436   3.138
 5908TIP3   OH217687   1.385   3.172   2.091
 5908TIP3    H117688   1.363   3.129   2.008
 5908TIP3    H217689   1.367   3.106   2.158
 5909TIP3   OH217690   2.804   3.782   5.474
 5909TIP3    H117691   2.807   3.722   5.399
 5909TIP3    H217692   2.718   3.765   5.514
 5910TIP3   OH217693   1.544   6.634   4.812
 5910TIP3    H117694   1.606   6.564   4.794
 5910TIP3    H217695   1.598   6.710   4.835
 5911TIP3   OH217696   5.314   5.931   0.244
 5911TIP3    H117697   5.285   5.926   0.335
 5911TIP3    H217698   5.342   6.022   0.233
 5912TIP3   OH217699   3.561   1.669   5.829
 5912TIP3    H117700   3.555   1.585   5.874
 5912TIP3    H217701   3.505   1.728   5.880
 5913TIP3   OH217702   4.785   3.786   2.523
 5913TIP3    H117703   4.745   3.783   2.609
 5913TIP3    H217704   4.840   3.865   2.524
 5914TIP3   OH217705   6.858   2.219   0.965
 5914TIP3    H117706   6.839   2.311   0.984
 5914TIP3    H217707   6.784   2.190   0.912
 5915TIP3   OH217708   0.738   2.902   2.371
 5915TIP3    H117709   0.804   2.909   2.440
 5915TIP3    H217710   0.672   2.843   2.407
 5916TIP3   OH217711   0.298   1.520   2.043
 5916TIP3    H117712   0.247   1.570   1.979
 5916TIP3    H217713   0.349   1.458   1.991
 5917TIP3   OH217714   6.735   2.473   3.083
 5917TIP3    H117715   6.755   2.519   3.001
 5917TIP3    H217716   6.798   2.508   3.146
 5918TIP3   OH217717   4.145   3.592   3.624
 5918TIP3    H117718   4.053   3.564   3.619
 5918TIP3    H217719   4.160   3.607   3.717
 5919TIP3   OH217720   2.891   6.099   0.105
 5919TIP3    H117721   2.982   6.114   0.130
 5919TIP3    H217722   2.843   6.169   0.149
 5920TIP3   OH217723   6.117   2.742   5.479
 5920TIP3    H117724   6.113   2.652   5.447
 5920TIP3    H217725   6.026   2.772   5.480
 5921TIP3   OH217726   4.756   0.286   0.129
 5921TIP3    H117727   4.683   0.259   0.073
 5921TIP3    H217728   4.818   0.329   0.070
 5922TIP3   OH217729   4.368   2.820   0.064
 5922TIP3    H117730   4.445   2.862   0.102
 5922TIP3    H217731   4.392   2.806  -0.028
 5923TIP3   OH217732   1.577   6.531   1.406
 5923TIP3    H117733   1.647   6.501   1.463
 5923TIP3    H217734   1.588   6.480   1.325
 5924TIP3   OH217735   3.931   3.936   5.317
 5924TIP3    H117736   3.975   3.941   5.232
 5924TIP3    H217737   3.959   4.014   5.364
 5925TIP3   OH217738   5.547   3.761   0.958
 5925TIP3    H117739   5.540   3.844   0.911
 5925TIP3    H217740   5.638   3.758   0.987
 5926TIP3   OH217741   0.158   5.766   2.358
 5926TIP3    H117742   0.178   5.737   2.269
 5926TIP3    H217743   0.064   5.778   2.358
 5927TIP3   OH217744   0.139   1.676   1.605
 5927TIP3    H117745   0.193   1.658   1.682
 5927TIP3    H217746   0.050   1.680   1.639
 5928TIP3   OH217747   6.114   5.216   1.635
 5928TIP3    H117748   6.103   5.270   1.714
 5928TIP3    H217749   6.043   5.152   1.640
 5929TIP3   OH217750   3.948   2.449   3.302
 5929TIP3    H117751   3.946   2.491   3.389
 5929TIP3    H217752   3.970   2.520   3.242
 5930TIP3   OH217753   0.903   2.491   1.956
 5930TIP3    H117754   0.886   2.449   1.872
 5930TIP3    H217755   0.993   2.522   1.950
 5931TIP3   OH217756   3.666   5.067   0.721
 5931TIP3    H117757   3.592   5.125   0.739
 5931TIP3    H217758   3.677   5.017   0.802
 5932TIP3   OH217759   0.145   0.352   4.039
 5932TIP3    H117760   0.179   0.413   3.974
 5932TIP3    H217761   0.208   0.357   4.111
 5933TIP3   OH217762   2.457   0.971   4.411
 5933TIP3    H117763   2.430   0.949   4.322
 5933TIP3    H217764   2.431   0.896   4.463
 5934TIP3   OH217765   6.486   1.165   1.311
 5934TIP3    H117766   6.517   1.075   1.298
 5934TIP3    H217767   6.545   1.218   1.257
 5935TIP3   OH217768   0.120   3.431   2.010
 5935TIP3    H117769   0.094   3.523   1.998
 5935TIP3    H217770   0.037   3.383   2.015
 5936TIP3   OH217771   2.627   3.696   4.499
 5936TIP3    H117772   2.602   3.780   4.461
 5936TIP3    H217773   2.634   3.713   4.593
 5937TIP3   OH217774   6.913   0.252   0.873
 5937TIP3    H117775   7.003   0.279   0.889
 5937TIP3    H217776   6.877   0.232   0.959
 5938TIP3   OH217777   1.173   5.954   5.564
 5938TIP3    H117778   1.243   6.018   5.578
 5938TIP3    H217779   1.212   5.870   5.589
 5939TIP3   OH217780   6.682   5.214   1.314
 5939TIP3    H117781   6.670   5.282   1.379
 5939TIP3    H217782   6.593   5.196   1.282
 5940TIP3   OH217783   3.018   1.277   2.091
 5940TIP3    H117784   2.976   1.363   2.082
 5940TIP3    H217785   3.006   1.236   2.005
 5941TIP3   OH217786   7.059   3.089   2.918
 5941TIP3    H117787   6.992   3.065   2.982
 5941TIP3    H217788   7.058   3.017   2.854
 5942TIP3   OH217789   3.011   1.624   1.656
 5942TIP3    H117790   3.048   1.577   1.581
 5942TIP3    H217791   3.084   1.637   1.715
 5943TIP3   OH217792   1.755   5.934   0.176
 5943TIP3    H117793   1.724   6.000   0.115
 5943TIP3    H217794   1.714   5.852   0.147
 5944TIP3   OH217795   0.342   0.259   0.047
 5944TIP3    H117796   0.419   0.202   0.040
 5944TIP3    H217797   0.377   0.348   0.039
 5945TIP3   OH217798   4.819   3.655   4.449
 5945TIP3    H117799   4.909   3.670   4.419
 5945TIP3    H217800   4.773   3.737   4.430
 5946TIP3   OH217801   0.117   3.180   4.909
 5946TIP3    H117802   0.031   3.142   4.894
 5946TIP3    H217803   0.116   3.210   4.999
 5947TIP3   OH217804   6.420   2.724   1.260
 5947TIP3    H117805   6.368   2.803   1.272
 5947TIP3    H217806   6.387   2.685   1.179
 5948TIP3   OH217807   6.358   6.729   5.842
 5948TIP3    H117808   6.417   6.738   5.916
 5948TIP3    H217809   6.336   6.636   5.840
 5949TIP3   OH217810   2.565   4.475   2.830
 5949TIP3    H117811   2.635   4.512   2.776
 5949TIP3    H217812   2.541   4.394   2.785
 5950TIP3   OH217813   0.530   4.405   4.359
 5950TIP3    H117814   0.561   4.494   4.342
 5950TIP3    H217815   0.436   4.409   4.342
 5951TIP3   OH217816   2.402   3.283   0.755
 5951TIP3    H117817   2.426   3.280   0.847
 5951TIP3    H217818   2.307   3.270   0.755
 5952TIP3   OH217819   5.079   3.490   4.650
 5952TIP3    H117820   5.128   3.447   4.720
 5952TIP3    H217821   5.001   3.527   4.693
 5953TIP3   OH217822   3.437   0.895   3.940
 5953TIP3    H117823   3.351   0.888   3.898
 5953TIP3    H217824   3.481   0.966   3.894
 5954TIP3   OH217825   4.337   3.091   2.784
 5954TIP3    H117826   4.400   3.114   2.716
 5954TIP3    H217827   4.381   3.112   2.866
 5955TIP3   OH217828   5.457   0.683   2.130
 5955TIP3    H117829   5.448   0.653   2.220
 5955TIP3    H217830   5.377   0.652   2.087
 5956TIP3   OH217831   1.589   5.668   5.199
 5956TIP3    H117832   1.564   5.602   5.134
 5956TIP3    H217833   1.674   5.639   5.231
 5957TIP3   OH217834   2.320   6.323   2.458
 5957TIP3    H117835   2.251   6.274   2.413
 5957TIP3    H217836   2.380   6.349   2.388
 5958TIP3   OH217837   2.795   0.594   4.669
 5958TIP3    H117838   2.806   0.568   4.760
 5958TIP3    H217839   2.714   0.645   4.668
 5959TIP3   OH217840   6.814   1.323   1.791
 5959TIP3    H117841   6.784   1.239   1.756
 5959TIP3    H217842   6.736   1.379   1.789
 5960TIP3   OH217843   2.061   2.789   0.993
 5960TIP3    H117844   1.971   2.788   1.025
 5960TIP3    H217845   2.077   2.700   0.963
 5961TIP3   OH217846   4.532   3.954   5.071
 5961TIP3    H117847   4.596   3.952   5.142
 5961TIP3    H217848   4.448   3.946   5.116
 5962TIP3   OH217849   2.216   5.653   3.427
 5962TIP3    H117850   2.229   5.644   3.333
 5962TIP3    H217851   2.147   5.719   3.436
 5963TIP3   OH217852   6.185   0.771   4.480
 5963TIP3    H117853   6.241   0.837   4.520
 5963TIP3    H217854   6.247   0.705   4.446
 5964TIP3   OH217855   6.637   3.243   0.143
 5964TIP3    H117856   6.696   3.201   0.081
 5964TIP3    H217857   6.692   3.306   0.189
 5965TIP3   OH217858   2.297   4.182   1.950
 5965TIP3    H117859   2.346   4.264   1.947
 5965TIP3    H217860   2.316   4.145   2.036
 5966TIP3   OH217861   0.619   5.675   2.611
 5966TIP3    H117862   0.563   5.598   2.620
 5966TIP3    H217863   0.617   5.696   2.518
 5967TIP3   OH217864   1.534   4.418   1.991
 5967TIP3    H117865   1.452   4.462   1.969
 5967TIP3    H217866   1.535   4.414   2.086
 5968TIP3   OH217867   5.894   3.121   4.592
 5968TIP3    H117868   5.989   3.113   4.581
 5968TIP3    H217869   5.866   3.178   4.520
 5969TIP3   OH217870   2.813   0.866   1.587
 5969TIP3    H117871   2.851   0.952   1.599
 5969TIP3    H217872   2.811   0.828   1.675
 5970TIP3   OH217873   6.923   4.590  -0.017
 5970TIP3    H117874   6.836   4.612   0.014
 5970TIP3    H217875   6.950   4.517   0.039
 5971TIP3   OH217876   1.423   2.394   1.357
 5971TIP3    H117877   1.493   2.336   1.387
 5971TIP3    H217878   1.416   2.377   1.263
 5972TIP3   OH217879   7.173   2.609   2.741
 5972TIP3    H117880   7.265   2.615   2.715
 5972TIP3    H217881   7.141   2.530   2.699
 5973TIP3   OH217882   6.980   3.226   2.635
 5973TIP3    H117883   7.025   3.197   2.556
 5973TIP3    H217884   6.918   3.156   2.654
 5974TIP3   OH217885   5.295   3.125   0.925
 5974TIP3    H117886   5.261   3.209   0.895
 5974TIP3    H217887   5.218   3.068   0.927
 5975TIP3   OH217888   7.157   2.496   1.654
 5975TIP3    H117889   7.232   2.452   1.693
 5975TIP3    H217890   7.154   2.582   1.697
 5976TIP3   OH217891   2.267   3.149   5.134
 5976TIP3    H117892   2.318   3.229   5.150
 5976TIP3    H217893   2.312   3.106   5.062
 5977TIP3   OH217894   1.511   6.452   4.051
 5977TIP3    H117895   1.499   6.358   4.068
 5977TIP3    H217896   1.566   6.482   4.124
 5978TIP3   OH217897   6.769   3.707   0.331
 5978TIP3    H117898   6.856   3.725   0.295
 5978TIP3    H217899   6.781   3.710   0.426
 5979TIP3   OH217900   3.615   5.965   0.692
 5979TIP3    H117901   3.699   5.970   0.645
 5979TIP3    H217902   3.591   5.872   0.689
 5980TIP3   OH217903   6.331   2.755   0.566
 5980TIP3    H117904   6.289   2.821   0.511
 5980TIP3    H217905   6.308   2.672   0.525
 5981TIP3   OH217906   5.422   6.733   0.650
 5981TIP3    H117907   5.513   6.763   0.657
 5981TIP3    H217908   5.388   6.779   0.573
 5982TIP3   OH217909   2.362   5.128   1.836
 5982TIP3    H117910   2.322   5.181   1.905
 5982TIP3    H217911   2.381   5.190   1.765
 5983TIP3   OH217912   0.979   1.657   3.437
 5983TIP3    H117913   0.956   1.567   3.460
 5983TIP3    H217914   1.040   1.684   3.506
 5984TIP3   OH217915   3.305   3.689   3.805
 5984TIP3    H117916   3.239   3.749   3.769
 5984TIP3    H217917   3.265   3.603   3.797
 5985TIP3   OH217918  -0.008   0.701   3.388
 5985TIP3    H117919   0.015   0.793   3.402
 5985TIP3    H217920   0.074   0.654   3.400
 5986TIP3   OH217921   2.540   6.655   4.456
 5986TIP3    H117922   2.532   6.744   4.492
 5986TIP3    H217923   2.631   6.631   4.472
 5987TIP3   OH217924   1.401   5.894   0.993
 5987TIP3    H117925   1.370   5.970   1.043
 5987TIP3    H217926   1.386   5.918   0.901
 5988TIP3   OH217927   0.421   0.789   5.245
 5988TIP3    H117928   0.500   0.807   5.296
 5988TIP3    H217929   0.354   0.847   5.283
 5989TIP3   OH217930   2.414   4.427   0.791
 5989TIP3    H117931   2.400   4.335   0.768
 5989TIP3    H217932   2.496   4.451   0.749
 5990TIP3   OH217933   3.823   4.236   4.603
 5990TIP3    H117934   3.860   4.156   4.566
 5990TIP3    H217935   3.795   4.287   4.527
 5991TIP3   OH217936   2.438   6.208   4.462
 5991TIP3    H117937   2.459   6.156   4.384
 5991TIP3    H217938   2.464   6.153   4.535
 5992TIP3   OH217939   7.172   0.803   2.127
 5992TIP3    H117940   7.093   0.751   2.138
 5992TIP3    H217941   7.193   0.834   2.215
 5993TIP3   OH217942   6.714   3.167   2.403
 5993TIP3    H117943   6.710   3.238   2.338
 5993TIP3    H217944   6.682   3.090   2.357
 5994TIP3   OH217945   4.436   2.050   5.416
 5994TIP3    H117946   4.348   2.015   5.401
 5994TIP3    H217947   4.422   2.141   5.442
 5995TIP3   OH217948   4.030   1.899   3.178
 5995TIP3    H117949   4.075   1.826   3.221
 5995TIP3    H217950   3.937   1.883   3.195
 5996TIP3   OH217951   0.816   3.512   3.612
 5996TIP3    H117952   0.838   3.564   3.689
 5996TIP3    H217953   0.752   3.566   3.564
 5997TIP3   OH217954   1.815   1.658   0.085
 5997TIP3    H117955   1.791   1.746   0.056
 5997TIP3    H217956   1.790   1.601   0.012
 5998TIP3   OH217957   6.315   5.796   0.654
 5998TIP3    H117958   6.232   5.845   0.645
 5998TIP3    H217959   6.317   5.738   0.579
 5999TIP3   OH217960   1.833   1.617   5.593
 5999TIP3    H117961   1.754   1.570   5.567
 5999TIP3    H217962   1.834   1.695   5.538
 6000TIP3   OH217963   1.319   4.498   5.573
 6000TIP3    H117964   1.391   4.518   5.632
 6000TIP3    H217965   1.287   4.583   5.544
 6001TIP3   OH217966   1.196   0.305   2.983
 6001TIP3    H117967   1.278   0.329   3.024
 6001TIP3    H217968   1.203   0.337   2.893
 6002TIP3   OH217969   3.649   5.937   1.874
 6002TIP3    H117970   3.571   5.979   1.912
 6002TIP3    H217971   3.642   5.846   1.901
 6003TIP3   OH217972   2.135   2.345   4.309
 6003TIP3    H117973   2.198   2.362   4.240
 6003TIP3    H217974   2.187   2.311   4.382
 6004TIP3   OH217975   6.487   0.332   2.589
 6004TIP3    H117976   6.467   0.239   2.600
 6004TIP3    H217977   6.498   0.344   2.495
 6005TIP3   OH217978   7.031   0.625   5.616
 6005TIP3    H117979   6.992   0.600   5.532
 6005TIP3    H217980   7.113   0.576   5.620
 6006TIP3   OH217981   4.751   3.380   1.995
 6006TIP3    H117982   4.829   3.334   1.962
 6006TIP3    H217983   4.763   3.470   1.966
 6007TIP3   OH217984   1.127   6.260   5.749
 6007TIP3    H117985   1.210   6.214   5.739
 6007TIP3    H217986   1.151   6.344   5.787
 6008TIP3   OH217987   3.334   6.406   0.421
 6008TIP3    H117988   3.387   6.326   0.431
 6008TIP3    H217989   3.286   6.413   0.504
 6009TIP3   OH217990   0.868   2.070   2.351
 6009TIP3    H117991   0.923   2.122   2.293
 6009TIP3    H217992   0.868   1.982   2.313
 6010TIP3   OH217993   6.185   0.077   1.602
 6010TIP3    H117994   6.204  -0.006   1.645
 6010TIP3    H217995   6.240   0.077   1.523
 6011TIP3   OH217996   3.394   5.658   3.495
 6011TIP3    H117997   3.370   5.566   3.485
 6011TIP3    H217998   3.471   5.656   3.552
 6012TIP3   OH217999   4.124   3.731   1.647
 6012TIP3    H118000   4.129   3.693   1.559
 6012TIP3    H218001   4.213   3.721   1.682
 6013TIP3   OH218002   6.741   6.705   0.336
 6013TIP3    H118003   6.724   6.612   0.321
 6013TIP3    H218004   6.816   6.725   0.280
 6014TIP3   OH218005   7.006   2.417   5.167
 6014TIP3    H118006   6.997   2.363   5.088
 6014TIP3    H218007   6.969   2.501   5.143
 6015TIP3   OH218008   6.394   5.121   3.816
 6015TIP3    H118009   6.378   5.065   3.892
 6015TIP3    H218010   6.313   5.116   3.765
 6016TIP3   OH218011   3.315   0.301   0.897
 6016TIP3    H118012   3.372   0.292   0.973
 6016TIP3    H218013   3.345   0.233   0.836
 6017TIP3   OH218014   4.760   5.431   2.259
 6017TIP3    H118015   4.818   5.466   2.191
 6017TIP3    H218016   4.817   5.380   2.316
 6018TIP3   OH218017   0.014   4.051   1.490
 6018TIP3    H118018   0.021   4.100   1.408
 6018TIP3    H218019   0.046   4.111   1.557
 6019TIP3   OH218020   5.200   2.322   3.583
 6019TIP3    H118021   5.217   2.253   3.519
 6019TIP3    H218022   5.222   2.403   3.537
 6020TIP3   OH218023   5.030   4.798   3.117
 6020TIP3    H118024   5.000   4.768   3.032
 6020TIP3    H218025   5.102   4.858   3.097
 6021TIP3   OH218026   5.218   6.557   5.728
 6021TIP3    H118027   5.295   6.614   5.730
 6021TIP3    H218028   5.152   6.605   5.779
 6022TIP3   OH218029   4.988   5.794   3.420
 6022TIP3    H118030   4.965   5.887   3.422
 6022TIP3    H218031   4.923   5.755   3.361
 6023TIP3   OH218032   3.053   6.487   2.842
 6023TIP3    H118033   3.013   6.566   2.878
 6023TIP3    H218034   3.146   6.495   2.865
 6024TIP3   OH218035   0.456   1.952   4.991
 6024TIP3    H118036   0.385   1.931   5.052
 6024TIP3    H218037   0.454   2.047   4.983
 6025TIP3   OH218038   3.764   0.699   4.997
 6025TIP3    H118039   3.703   0.664   4.932
 6025TIP3    H218040   3.711   0.714   5.075
 6026TIP3   OH218041   1.302   2.729   0.746
 6026TIP3    H118042   1.281   2.636   0.751
 6026TIP3    H218043   1.235   2.765   0.688
 6027TIP3   OH218044   2.352   6.600   2.709
 6027TIP3    H118045   2.360   6.694   2.727
 6027TIP3    H218046   2.272   6.592   2.657
 6028TIP3   OH218047   5.096   2.560   0.668
 6028TIP3    H118048   5.011   2.604   0.664
 6028TIP3    H218049   5.099   2.524   0.757
 6029TIP3   OH218050   6.517   5.831   2.805
 6029TIP3    H118051   6.521   5.827   2.709
 6029TIP3    H218052   6.430   5.799   2.827
 6030TIP3   OH218053   6.599   2.118   3.337
 6030TIP3    H118054   6.519   2.069   3.355
 6030TIP3    H218055   6.670   2.058   3.358
 6031TIP3   OH218056   6.358   3.380   3.722
 6031TIP3    H118057   6.348   3.381   3.818
 6031TIP3    H218058   6.426   3.314   3.706
 6032TIP3   OH218059   3.103   1.732   5.700
 6032TIP3    H118060   3.071   1.688   5.621
 6032TIP3    H218061   3.195   1.750   5.682
 6033TIP3   OH218062   4.415   2.292   4.092
 6033TIP3    H118063   4.403   2.368   4.036
 6033TIP3    H218064   4.332   2.284   4.139
 6034TIP3   OH218065   0.609   1.817   4.002
 6034TIP3    H118066   0.666   1.865   4.062
 6034TIP3    H218067   0.555   1.762   4.059
 6035TIP3   OH218068   6.311   0.673   4.195
 6035TIP3    H118069   6.291   0.580   4.188
 6035TIP3    H218070   6.330   0.700   4.105
 6036TIP3   OH218071   6.251   2.504   0.491
 6036TIP3    H118072   6.309   2.478   0.419
 6036TIP3    H218073   6.170   2.458   0.473
 6037TIP3   OH218074   6.195   3.944   0.068
 6037TIP3    H118075   6.289   3.940   0.049
 6037TIP3    H218076   6.165   4.021   0.020
 6038TIP3   OH218077   3.311   0.483   4.405
 6038TIP3    H118078   3.231   0.431   4.404
 6038TIP3    H218079   3.367   0.442   4.339
 6039TIP3   OH218080   1.242   2.679   2.737
 6039TIP3    H118081   1.236   2.752   2.675
 6039TIP3    H218082   1.262   2.721   2.821
 6040TIP3   OH218083   3.401   2.588   4.884
 6040TIP3    H118084   3.403   2.511   4.942
 6040TIP3    H218085   3.426   2.661   4.941
 6041TIP3   OH218086   6.411   0.566   2.352
 6041TIP3    H118087   6.383   0.489   2.303
 6041TIP3    H218088   6.332   0.619   2.361
 6042TIP3   OH218089   0.252   4.320   4.737
 6042TIP3    H118090   0.181   4.340   4.798
 6042TIP3    H218091   0.241   4.226   4.719
 6043TIP3   OH218092   3.103   1.225   3.588
 6043TIP3    H118093   3.162   1.298   3.602
 6043TIP3    H218094   3.158   1.156   3.549
 6044TIP3   OH218095   6.680   4.873   0.525
 6044TIP3    H118096   6.720   4.938   0.468
 6044TIP3    H218097   6.726   4.882   0.608
 6045TIP3   OH218098   1.377   6.763   4.599
 6045TIP3    H118099   1.441   6.719   4.655
 6045TIP3    H218100   1.419   6.846   4.576
 6046TIP3   OH218101   4.466   2.503   0.669
 6046TIP3    H118102   4.433   2.520   0.758
 6046TIP3    H218103   4.395   2.531   0.612
 6047TIP3   OH218104   6.341   5.127   2.720
 6047TIP3    H118105   6.344   5.032   2.719
 6047TIP3    H218106   6.250   5.148   2.696
 6048TIP3   OH218107   6.183   3.765   4.575
 6048TIP3    H118108   6.156   3.850   4.612
 6048TIP3    H218109   6.167   3.774   4.481
 6049TIP3   OH218110   4.211   2.529   4.300
 6049TIP3    H118111   4.194   2.566   4.213
 6049TIP3    H218112   4.287   2.579   4.332
 6050TIP3   OH218113   1.899   0.353   0.884
 6050TIP3    H118114   1.831   0.311   0.936
 6050TIP3    H218115   1.964   0.381   0.948
 6051TIP3   OH218116   3.521   1.540   2.608
 6051TIP3    H118117   3.486   1.497   2.686
 6051TIP3    H218118   3.523   1.633   2.631
 6052TIP3   OH218119   2.688   1.211   3.659
 6052TIP3    H118120   2.721   1.301   3.659
 6052TIP3    H218121   2.717   1.174   3.576
 6053TIP3   OH218122   3.853   4.732   2.760
 6053TIP3    H118123   3.899   4.766   2.684
 6053TIP3    H218124   3.819   4.810   2.804
 6054TIP3   OH218125   5.015   2.197   2.062
 6054TIP3    H118126   5.028   2.286   2.095
 6054TIP3    H218127   5.060   2.195   1.978
 6055TIP3   OH218128   1.540   1.795   0.492
 6055TIP3    H118129   1.598   1.738   0.543
 6055TIP3    H218130   1.561   1.775   0.401
 6056TIP3   OH218131   3.235   2.755   5.159
 6056TIP3    H118132   3.176   2.829   5.170
 6056TIP3    H218133   3.297   2.783   5.093
 6057TIP3   OH218134   0.303   0.941   1.004
 6057TIP3    H118135   0.364   0.996   0.956
 6057TIP3    H218136   0.347   0.857   1.012
 6058TIP3   OH218137   3.492   4.384   2.286
 6058TIP3    H118138   3.450   4.414   2.366
 6058TIP3    H218139   3.537   4.461   2.252
 6059TIP3   OH218140   6.407   3.194   1.546
 6059TIP3    H118141   6.428   3.126   1.610
 6059TIP3    H218142   6.312   3.203   1.551
 6060TIP3   OH218143   4.007   0.815   5.291
 6060TIP3    H118144   3.912   0.805   5.301
 6060TIP3    H218145   4.018   0.880   5.222
 6061TIP3   OH218146   5.118   4.199   2.232
 6061TIP3    H118147   5.097   4.158   2.316
 6061TIP3    H218148   5.176   4.136   2.188
 6062TIP3   OH218149   2.907   0.811   5.309
 6062TIP3    H118150   2.945   0.811   5.221
 6062TIP3    H218151   2.820   0.849   5.297
 6063TIP3   OH218152   5.389   6.634   5.175
 6063TIP3    H118153   5.376   6.608   5.084
 6063TIP3    H218154   5.403   6.551   5.221
 6064TIP3   OH218155   3.196   4.680   1.457
 6064TIP3    H118156   3.165   4.611   1.398
 6064TIP3    H218157   3.118   4.704   1.508
 6065TIP3   OH218158   6.017   6.035   3.954
 6065TIP3    H118159   5.939   6.012   3.903
 6065TIP3    H218160   6.086   6.045   3.889
 6066TIP3   OH218161   5.250   5.758   3.417
 6066TIP3    H118162   5.165   5.753   3.459
 6066TIP3    H218163   5.236   5.719   3.330
 6067TIP3   OH218164   4.472   6.060   3.964
 6067TIP3    H118165   4.486   6.145   4.006
 6067TIP3    H218166   4.482   5.997   4.035
 6068TIP3   OH218167   2.889   2.113   2.544
 6068TIP3    H118168   2.923   2.075   2.624
 6068TIP3    H218169   2.802   2.076   2.534
 6069TIP3   OH218170   3.248   1.125   4.751
 6069TIP3    H118171   3.271   1.215   4.728
 6069TIP3    H218172   3.156   1.129   4.775
 6070TIP3   OH218173   6.636   2.906   2.330
 6070TIP3    H118174   6.552   2.864   2.314
 6070TIP3    H218175   6.674   2.856   2.403
 6071TIP3   OH218176   5.916   4.806   3.734
 6071TIP3    H118177   5.952   4.842   3.815
 6071TIP3    H218178   5.966   4.725   3.720
 6072TIP3   OH218179   2.474   5.191   0.216
 6072TIP3    H118180   2.507   5.274   0.250
 6072TIP3    H218181   2.510   5.125   0.274
 6073TIP3   OH218182   2.998   5.330   4.128
 6073TIP3    H118183   2.915   5.364   4.096
 6073TIP3    H218184   3.047   5.308   4.048
 6074TIP3   OH218185   6.356   3.846   0.531
 6074TIP3    H118186   6.385   3.815   0.445
 6074TIP3    H218187   6.315   3.770   0.572
 6075TIP3   OH218188   4.397   2.700   2.598
 6075TIP3    H118189   4.376   2.781   2.552
 6075TIP3    H218190   4.394   2.723   2.691
 6076TIP3   OH218191   2.012   1.317   2.385
 6076TIP3    H118192   1.925   1.310   2.423
 6076TIP3    H218193   1.997   1.346   2.296
 6077TIP3   OH218194   4.727   4.923   3.721
 6077TIP3    H118195   4.672   4.873   3.660
 6077TIP3    H218196   4.790   4.969   3.665
 6078TIP3   OH218197   5.329   2.659   3.063
 6078TIP3    H118198   5.276   2.579   3.068
 6078TIP3    H218199   5.301   2.711   3.138
 6079TIP3   OH218200   1.189   0.561   1.107
 6079TIP3    H118201   1.219   0.527   1.192
 6079TIP3    H218202   1.158   0.484   1.060
 6080TIP3   OH218203   6.153   6.338   4.071
 6080TIP3    H118204   6.092   6.264   4.080
 6080TIP3    H218205   6.223   6.305   4.014
 6081TIP3   OH218206   0.035   2.153   5.147
 6081TIP3    H118207   0.067   2.197   5.225
 6081TIP3    H218208  -0.051   2.118   5.172
 6082TIP3   OH218209   3.815   6.771   0.666
 6082TIP3    H118210   3.871   6.695   0.647
 6082TIP3    H218211   3.793   6.807   0.580
 6083TIP3   OH218212   6.630   3.293   5.498
 6083TIP3    H118213   6.653   3.340   5.579
 6083TIP3    H218214   6.606   3.205   5.528
 6084TIP3   OH218215   2.067   5.796   4.823
 6084TIP3    H118216   2.128   5.772   4.753
 6084TIP3    H218217   2.117   5.855   4.879
 6085TIP3   OH218218   5.831   6.576   0.772
 6085TIP3    H118219   5.800   6.489   0.796
 6085TIP3    H218220   5.907   6.561   0.715
 6086TIP3   OH218221   0.490   6.611   4.568
 6086TIP3    H118222   0.531   6.549   4.629
 6086TIP3    H218223   0.457   6.557   4.497
 6087TIP3   OH218224   3.359   5.691   0.719
 6087TIP3    H118225   3.267   5.665   0.720
 6087TIP3    H218226   3.398   5.643   0.646
 6088TIP3   OH218227   4.935   2.694   1.016
 6088TIP3    H118228   4.993   2.624   0.989
 6088TIP3    H218229   4.857   2.683   0.961
 6089TIP3   OH218230   5.899   5.469   1.608
 6089TIP3    H118231   5.988   5.503   1.619
 6089TIP3    H218232   5.893   5.397   1.671
 6090TIP3   OH218233   3.463   5.811   2.437
 6090TIP3    H118234   3.486   5.810   2.530
 6090TIP3    H218235   3.407   5.734   2.426
 6091TIP3   OH218236   4.446   0.316   5.020
 6091TIP3    H118237   4.389   0.344   4.948
 6091TIP3    H218238   4.402   0.238   5.056
 6092TIP3   OH218239   1.818   1.526   5.283
 6092TIP3    H118240   1.760   1.497   5.353
 6092TIP3    H218241   1.840   1.446   5.235
 6093TIP3   OH218242   5.025   6.118   0.448
 6093TIP3    H118243   4.944   6.109   0.499
 6093TIP3    H218244   5.030   6.037   0.396
 6094TIP3   OH218245   6.665   3.628   4.468
 6094TIP3    H118246   6.743   3.683   4.477
 6094TIP3    H218247   6.613   3.648   4.546
 6095TIP3   OH218248   6.151   0.291   2.329
 6095TIP3    H118249   6.117   0.281   2.417
 6095TIP3    H218250   6.073   0.291   2.273
 6096TIP3   OH218251   2.516   0.494   3.212
 6096TIP3    H118252   2.564   0.456   3.285
 6096TIP3    H218253   2.564   0.467   3.134
 6097TIP3   OH218254   0.490   6.351   3.518
 6097TIP3    H118255   0.518   6.290   3.450
 6097TIP3    H218256   0.545   6.330   3.593
 6098TIP3   OH218257   4.035   0.761   2.794
 6098TIP3    H118258   3.998   0.736   2.878
 6098TIP3    H218259   3.963   0.748   2.732
 6099TIP3   OH218260   1.815   5.406   0.598
 6099TIP3    H118261   1.728   5.365   0.594
 6099TIP3    H218262   1.801   5.496   0.570
 6100TIP3   OH218263   1.295   4.531   1.887
 6100TIP3    H118264   1.238   4.455   1.874
 6100TIP3    H218265   1.329   4.550   1.799
 6101TIP3   OH218266   2.778   2.153   1.655
 6101TIP3    H118267   2.688   2.124   1.664
 6101TIP3    H218268   2.826   2.074   1.628
 6102TIP3   OH218269   2.779   5.137   2.960
 6102TIP3    H118270   2.845   5.206   2.957
 6102TIP3    H218271   2.701   5.179   2.995
 6103TIP3   OH218272   1.199   2.416   2.681
 6103TIP3    H118273   1.210   2.512   2.682
 6103TIP3    H218274   1.248   2.386   2.758
 6104TIP3   OH218275   5.107   0.062   2.709
 6104TIP3    H118276   5.102   0.156   2.696
 6104TIP3    H218277   5.049   0.044   2.783
 6105TIP3   OH218278   2.840   6.227   3.318
 6105TIP3    H118279   2.889   6.302   3.354
 6105TIP3    H218280   2.908   6.165   3.293
 6106TIP3   OH218281   0.923   2.996   2.530
 6106TIP3    H118282   0.968   3.011   2.613
 6106TIP3    H218283   0.989   3.016   2.463
 6107TIP3   OH218284   3.785   5.196   3.273
 6107TIP3    H118285   3.815   5.124   3.217
 6107TIP3    H218286   3.689   5.194   3.264
 6108TIP3   OH218287   3.995   5.278   4.326
 6108TIP3    H118288   3.966   5.291   4.417
 6108TIP3    H218289   4.019   5.186   4.321
 6109TIP3   OH218290   1.608   4.742   2.895
 6109TIP3    H118291   1.671   4.796   2.847
 6109TIP3    H218292   1.605   4.781   2.983
 6110TIP3   OH218293   2.925   5.376   3.020
 6110TIP3    H118294   3.003   5.411   3.063
 6110TIP3    H218295   2.957   5.333   2.941
 6111TIP3   OH218296   2.917   6.715   3.641
 6111TIP3    H118297   2.917   6.692   3.548
 6111TIP3    H218298   2.989   6.664   3.678
 6112TIP3   OH218299   4.507   3.943   0.279
 6112TIP3    H118300   4.451   3.942   0.202
 6112TIP3    H218301   4.564   3.868   0.269
 6113TIP3   OH218302   4.023   0.370   0.209
 6113TIP3    H118303   4.035   0.424   0.287
 6113TIP3    H218304   3.933   0.388   0.181
 6114TIP3   OH218305   6.362   5.212   1.828
 6114TIP3    H118306   6.283   5.247   1.869
 6114TIP3    H218307   6.352   5.234   1.736
 6115TIP3   OH218308   5.422   4.990   5.024
 6115TIP3    H118309   5.476   5.034   5.089
 6115TIP3    H218310   5.472   4.913   4.998
 6116TIP3   OH218311   0.090   2.853   3.810
 6116TIP3    H118312   0.135   2.875   3.892
 6116TIP3    H218313   0.154   2.876   3.742
 6117TIP3   OH218314   5.418   3.446   5.558
 6117TIP3    H118315   5.349   3.418   5.498
 6117TIP3    H218316   5.500   3.424   5.513
 6118TIP3   OH218317   1.956   2.634   4.199
 6118TIP3    H118318   2.047   2.630   4.230
 6118TIP3    H218319   1.910   2.687   4.264
 6119TIP3   OH218320   1.215   3.370   2.396
 6119TIP3    H118321   1.218   3.359   2.491
 6119TIP3    H218322   1.166   3.295   2.364
 6120TIP3   OH218323   6.303   4.396   3.913
 6120TIP3    H118324   6.371   4.355   3.968
 6120TIP3    H218325   6.295   4.485   3.947
 6121TIP3   OH218326   5.697   1.358   2.550
 6121TIP3    H118327   5.733   1.362   2.462
 6121TIP3    H218328   5.704   1.448   2.583
 6122TIP3   OH218329   4.844   3.467   4.121
 6122TIP3    H118330   4.872   3.551   4.084
 6122TIP3    H218331   4.921   3.433   4.165
 6123TIP3   OH218332   0.651   6.489   1.241
 6123TIP3    H118333   0.685   6.453   1.323
 6123TIP3    H218334   0.612   6.573   1.267
 6124TIP3   OH218335   2.051   4.210   2.086
 6124TIP3    H118336   2.124   4.232   2.028
 6124TIP3    H218337   2.082   4.232   2.174
 6125TIP3   OH218338   2.284   1.327   2.042
 6125TIP3    H118339   2.376   1.352   2.044
 6125TIP3    H218340   2.280   1.246   2.093
 6126TIP3   OH218341   3.496   3.545   0.476
 6126TIP3    H118342   3.580   3.553   0.430
 6126TIP3    H218343   3.516   3.489   0.551
 6127TIP3   OH218344   3.757   0.646   2.106
 6127TIP3    H118345   3.784   0.736   2.127
 6127TIP3    H218346   3.704   0.655   2.027
 6128TIP3   OH218347   4.618   1.033   2.981
 6128TIP3    H118348   4.666   1.114   2.965
 6128TIP3    H218349   4.558   1.053   3.053
 6129TIP3   OH218350   5.841   5.961   4.376
 6129TIP3    H118351   5.804   5.984   4.461
 6129TIP3    H218352   5.854   6.045   4.332
 6130TIP3   OH218353   1.839   5.152   0.115
 6130TIP3    H118354   1.901   5.206   0.065
 6130TIP3    H218355   1.821   5.203   0.194
 6131TIP3   OH218356   4.518   6.376   5.407
 6131TIP3    H118357   4.509   6.357   5.500
 6131TIP3    H218358   4.592   6.436   5.401
 6132TIP3   OH218359   4.810   5.940   5.400
 6132TIP3    H118360   4.786   6.031   5.419
 6132TIP3    H218361   4.731   5.902   5.361
 6133TIP3   OH218362   5.441   2.972   3.753
 6133TIP3    H118363   5.474   3.022   3.828
 6133TIP3    H218364   5.519   2.928   3.719
 6134TIP3   OH218365   0.843   0.571   1.903
 6134TIP3    H118366   0.921   0.526   1.936
 6134TIP3    H218367   0.870   0.605   1.817
 6135TIP3   OH218368   6.058   1.478   2.230
 6135TIP3    H118369   6.084   1.437   2.148
 6135TIP3    H218370   6.135   1.527   2.258
 6136TIP3   OH218371   5.509   5.113   4.214
 6136TIP3    H118372   5.467   5.100   4.299
 6136TIP3    H218373   5.468   5.048   4.157
 6137TIP3   OH218374   5.256   2.228   0.191
 6137TIP3    H118375   5.316   2.246   0.118
 6137TIP3    H218376   5.213   2.312   0.208
 6138TIP3   OH218377   0.413   3.177   1.694
 6138TIP3    H118378   0.360   3.250   1.727
 6138TIP3    H218379   0.436   3.203   1.605
 6139TIP3   OH218380   3.368   5.571   5.273
 6139TIP3    H118381   3.346   5.478   5.274
 6139TIP3    H218382   3.331   5.605   5.355
 6140TIP3   OH218383   3.869   2.073   3.014
 6140TIP3    H118384   3.817   2.101   3.090
 6140TIP3    H218385   3.921   2.000   3.046
 6141TIP3   OH218386   1.918   4.980   0.672
 6141TIP3    H118387   1.902   5.003   0.581
 6141TIP3    H218388   1.832   4.982   0.713
 6142TIP3   OH218389   1.962   2.244   0.302
 6142TIP3    H118390   1.920   2.317   0.257
 6142TIP3    H218391   1.892   2.205   0.356
 6143TIP3   OH218392   4.508   2.946   2.089
 6143TIP3    H118393   4.531   2.979   2.002
 6143TIP3    H218394   4.489   3.025   2.140
 6144TIP3   OH218395   6.564   0.792   5.073
 6144TIP3    H118396   6.525   0.763   5.155
 6144TIP3    H218397   6.539   0.726   5.009
 6145TIP3   OH218398   3.725   0.118   3.335
 6145TIP3    H118399   3.630   0.130   3.326
 6145TIP3    H218400   3.753   0.192   3.388
 6146TIP3   OH218401   5.263   3.676   0.468
 6146TIP3    H118402   5.299   3.739   0.406
 6146TIP3    H218403   5.258   3.724   0.550
 6147TIP3   OH218404   3.517   0.528   3.504
 6147TIP3    H118405   3.501   0.570   3.589
 6147TIP3    H218406   3.455   0.455   3.502
 6148TIP3   OH218407   0.332   3.923   1.600
 6148TIP3    H118408   0.334   3.983   1.674
 6148TIP3    H218409   0.390   3.963   1.535
 6149TIP3   OH218410   4.675   4.044   1.974
 6149TIP3    H118411   4.641   3.995   1.899
 6149TIP3    H218412   4.628   4.128   1.970
 6150TIP3   OH218413   5.092   2.619   4.277
 6150TIP3    H118414   5.086   2.679   4.352
 6150TIP3    H218415   5.014   2.638   4.225
 6151TIP3   OH218416   0.315   4.136   5.629
 6151TIP3    H118417   0.375   4.117   5.701
 6151TIP3    H218418   0.253   4.200   5.666
 6152TIP3   OH218419   5.718   6.665   0.022
 6152TIP3    H118420   5.716   6.634   0.113
 6152TIP3    H218421   5.790   6.616  -0.018
 6153TIP3   OH218422   0.732   6.550   1.705
 6153TIP3    H118423   0.808   6.605   1.688
 6153TIP3    H218424   0.659   6.612   1.710
 6154TIP3   OH218425   1.121   1.163   3.036
 6154TIP3    H118426   1.073   1.221   3.095
 6154TIP3    H218427   1.213   1.189   3.047
 6155TIP3   OH218428   6.573   1.429   5.096
 6155TIP3    H118429   6.507   1.496   5.113
 6155TIP3    H218430   6.571   1.372   5.173
 6156TIP3   OH218431   5.784   2.807   4.933
 6156TIP3    H118432   5.694   2.779   4.946
 6156TIP3    H218433   5.836   2.743   4.981
 6157TIP3   OH218434   6.046   4.749   3.448
 6157TIP3    H118435   5.982   4.820   3.450
 6157TIP3    H218436   6.065   4.733   3.541
 6158TIP3   OH218437   0.676   5.941   1.247
 6158TIP3    H118438   0.654   5.976   1.333
 6158TIP3    H218439   0.610   5.975   1.188
 6159TIP3   OH218440   2.218   3.513   3.557
 6159TIP3    H118441   2.271   3.515   3.477
 6159TIP3    H218442   2.219   3.420   3.583
 6160TIP3   OH218443   4.890   4.014   0.065
 6160TIP3    H118444   4.964   3.986   0.010
 6160TIP3    H218445   4.814   3.972   0.026
 6161TIP3   OH218446   3.502   5.651   5.070
 6161TIP3    H118447   3.448   5.623   5.144
 6161TIP3    H218448   3.502   5.577   5.010
 6162TIP3   OH218449   6.624   3.148   1.369
 6162TIP3    H118450   6.549   3.174   1.421
 6162TIP3    H218451   6.666   3.079   1.420
 6163TIP3   OH218452   4.020   6.265   1.550
 6163TIP3    H118453   4.041   6.357   1.535
 6163TIP3    H218454   3.947   6.268   1.613
 6164TIP3   OH218455   5.581   1.277   4.909
 6164TIP3    H118456   5.597   1.318   4.994
 6164TIP3    H218457   5.548   1.190   4.931
 6165TIP3   OH218458   2.339   3.464   4.996
 6165TIP3    H118459   2.275   3.432   4.932
 6165TIP3    H218460   2.296   3.455   5.080
 6166TIP3   OH218461   7.174   5.692   0.976
 6166TIP3    H118462   7.081   5.683   0.994
 6166TIP3    H218463   7.186   5.784   0.952
 6167TIP3   OH218464   5.372   2.733   0.710
 6167TIP3    H118465   5.430   2.698   0.643
 6167TIP3    H218466   5.301   2.774   0.661
 6168TIP3   OH218467   3.103   4.346   3.140
 6168TIP3    H118468   3.134   4.260   3.114
 6168TIP3    H218469   3.179   4.403   3.130
 6169TIP3   OH218470   5.797   5.236   0.093
 6169TIP3    H118471   5.742   5.192   0.158
 6169TIP3    H218472   5.738   5.298   0.050
 6170TIP3   OH218473   4.861   3.314   5.117
 6170TIP3    H118474   4.893   3.267   5.194
 6170TIP3    H218475   4.933   3.310   5.054
 6171TIP3   OH218476   5.423   6.391   3.909
 6171TIP3    H118477   5.485   6.387   3.836
 6171TIP3    H218478   5.345   6.346   3.876
 6172TIP3   OH218479   6.716   0.578   0.808
 6172TIP3    H118480   6.735   0.487   0.783
 6172TIP3    H218481   6.633   0.598   0.766
 6173TIP3   OH218482   7.033   3.355   5.162
 6173TIP3    H118483   6.981   3.308   5.228
 6173TIP3    H218484   6.989   3.440   5.154
 6174TIP3   OH218485   3.619   6.761   4.013
 6174TIP3    H118486   3.574   6.729   3.936
 6174TIP3    H218487   3.691   6.814   3.979
 6175TIP3   OH218488   2.352   5.464   2.267
 6175TIP3    H118489   2.444   5.489   2.280
 6175TIP3    H218490   2.302   5.537   2.304
 6176TIP3   OH218491   4.249   1.256   3.055
 6176TIP3    H118492   4.343   1.238   3.065
 6176TIP3    H218493   4.207   1.172   3.069
 6177TIP3   OH218494   0.138   2.866   4.260
 6177TIP3    H118495   0.184   2.920   4.324
 6177TIP3    H218496   0.091   2.802   4.312
 6178TIP3   OH218497   3.996   2.981   4.281
 6178TIP3    H118498   3.932   2.912   4.268
 6178TIP3    H218499   3.945   3.057   4.309
 6179TIP3   OH218500   1.357   1.387   5.339
 6179TIP3    H118501   1.301   1.312   5.317
 6179TIP3    H218502   1.402   1.408   5.258
 6180TIP3   OH218503   3.669   0.940   4.818
 6180TIP3    H118504   3.624   1.018   4.787
 6180TIP3    H218505   3.619   0.911   4.895
 6181TIP3   OH218506   6.013   6.390   5.661
 6181TIP3    H118507   5.982   6.431   5.742
 6181TIP3    H218508   6.057   6.461   5.614
 6182TIP3   OH218509   4.830   2.231   5.571
 6182TIP3    H118510   4.781   2.313   5.568
 6182TIP3    H218511   4.920   2.255   5.551
 6183TIP3   OH218512   3.922   3.090   1.652
 6183TIP3    H118513   3.909   3.090   1.558
 6183TIP3    H218514   3.900   3.001   1.679
 6184TIP3   OH218515   2.212   3.864   2.864
 6184TIP3    H118516   2.178   3.830   2.781
 6184TIP3    H218517   2.136   3.905   2.905
 6185TIP3   OH218518   1.333   6.152   0.134
 6185TIP3    H118519   1.391   6.192   0.069
 6185TIP3    H218520   1.288   6.082   0.086
 6186TIP3   OH218521   6.625   2.391   4.940
 6186TIP3    H118522   6.531   2.394   4.958
 6186TIP3    H218523   6.636   2.315   4.883
 6187TIP3   OH218524   2.095   5.468   2.555
 6187TIP3    H118525   2.102   5.490   2.648
 6187TIP3    H218526   2.147   5.535   2.511
 6188TIP3   OH218527   6.496   6.224   1.407
 6188TIP3    H118528   6.456   6.140   1.384
 6188TIP3    H218529   6.422   6.282   1.424
 6189TIP3   OH218530   4.926   3.804   3.215
 6189TIP3    H118531   5.007   3.855   3.210
 6189TIP3    H218532   4.951   3.716   3.189
 6190TIP3   OH218533   4.660   5.864   0.869
 6190TIP3    H118534   4.615   5.867   0.953
 6190TIP3    H218535   4.611   5.799   0.818
 6191TIP3   OH218536   1.781   0.140   5.346
 6191TIP3    H118537   1.705   0.121   5.401
 6191TIP3    H218538   1.769   0.231   5.320
 6192TIP3   OH218539   6.548   6.377   4.513
 6192TIP3    H118540   6.607   6.446   4.481
 6192TIP3    H218541   6.563   6.374   4.607
 6193TIP3   OH218542   5.303   5.287   1.790
 6193TIP3    H118543   5.255   5.366   1.813
 6193TIP3    H218544   5.281   5.224   1.859
 6194TIP3   OH218545   5.926   6.497  -0.034
 6194TIP3    H118546   6.005   6.526   0.011
 6194TIP3    H218547   5.884   6.438   0.028
 6195TIP3   OH218548   5.309   0.194   3.573
 6195TIP3    H118549   5.283   0.102   3.580
 6195TIP3    H218550   5.404   0.193   3.585
 6196TIP3   OH218551   3.650   6.701   1.190
 6196TIP3    H118552   3.644   6.772   1.126
 6196TIP3    H218553   3.608   6.737   1.269
 6197TIP3   OH218554   3.711   4.310   4.010
 6197TIP3    H118555   3.801   4.309   4.043
 6197TIP3    H218556   3.657   4.297   4.088
 6198TIP3   OH218557   4.802   3.390   1.539
 6198TIP3    H118558   4.720   3.437   1.553
 6198TIP3    H218559   4.833   3.371   1.628
 6199TIP3   OH218560   5.468   3.832   4.375
 6199TIP3    H118561   5.438   3.881   4.452
 6199TIP3    H218562   5.465   3.740   4.402
 6200TIP3   OH218563   5.119   3.220   0.559
 6200TIP3    H118564   5.151   3.198   0.472
 6200TIP3    H218565   5.040   3.273   0.543
 6201TIP3   OH218566   5.300   2.711   3.731
 6201TIP3    H118567   5.315   2.663   3.813
 6201TIP3    H218568   5.350   2.792   3.741
 6202TIP3   OH218569   1.905   4.689   1.600
 6202TIP3    H118570   1.919   4.607   1.554
 6202TIP3    H218571   1.813   4.685   1.629
 6203TIP3   OH218572   0.699   5.371   5.286
 6203TIP3    H118573   0.617   5.394   5.243
 6203TIP3    H218574   0.717   5.281   5.257
 6204TIP3   OH218575   5.236   6.208   3.826
 6204TIP3    H118576   5.235   6.160   3.743
 6204TIP3    H218577   5.253   6.140   3.892
 6205TIP3   OH218578   2.497   2.595   3.152
 6205TIP3    H118579   2.523   2.536   3.082
 6205TIP3    H218580   2.567   2.586   3.217
 6206TIP3   OH218581   0.879   0.232   1.749
 6206TIP3    H118582   0.894   0.215   1.842
 6206TIP3    H218583   0.827   0.157   1.719
 6207TIP3   OH218584   5.509   5.703   0.487
 6207TIP3    H118585   5.588   5.662   0.523
 6207TIP3    H218586   5.541   5.765   0.422
 6208TIP3   OH218587   5.687   4.257   3.707
 6208TIP3    H118588   5.742   4.317   3.656
 6208TIP3    H218589   5.708   4.170   3.672
 6209TIP3   OH218590   0.084   5.720   5.133
 6209TIP3    H118591   0.143   5.783   5.091
 6209TIP3    H218592   0.113   5.635   5.102
 6210TIP3   OH218593   1.391   3.592   1.786
 6210TIP3    H118594   1.421   3.502   1.772
 6210TIP3    H218595   1.470   3.645   1.776
 6211TIP3   OH218596   5.881   0.805   4.996
 6211TIP3    H118597   5.913   0.770   5.079
 6211TIP3    H218598   5.898   0.899   5.001
 6212TIP3   OH218599   5.004   0.528   3.598
 6212TIP3    H118600   5.063   0.602   3.583
 6212TIP3    H218601   4.916   0.566   3.590
 6213TIP3   OH218602   3.994   2.982   5.720
 6213TIP3    H118603   3.945   2.918   5.772
 6213TIP3    H218604   4.067   3.008   5.776
 6214TIP3   OH218605   1.797   2.735   1.682
 6214TIP3    H118606   1.723   2.766   1.630
 6214TIP3    H218607   1.757   2.688   1.755
 6215TIP3   OH218608   2.082   1.212   1.070
 6215TIP3    H118609   2.149   1.167   1.121
 6215TIP3    H218610   2.107   1.304   1.073
 6216TIP3   OH218611   1.513   3.398   2.423
 6216TIP3    H118612   1.421   3.424   2.435
 6216TIP3    H218613   1.534   3.349   2.502
 6217TIP3   OH218614   6.423   6.790   1.393
 6217TIP3    H118615   6.391   6.722   1.451
 6217TIP3    H218616   6.352   6.854   1.389
 6218TIP3   OH218617   4.939   4.961   5.613
 6218TIP3    H118618   4.902   5.041   5.649
 6218TIP3    H218619   4.906   4.957   5.523
 6219TIP3   OH218620   3.575   0.309   5.855
 6219TIP3    H118621   3.643   0.246   5.834
 6219TIP3    H218622   3.552   0.290   5.946
 6220TIP3   OH218623   3.668   6.423   4.074
 6220TIP3    H118624   3.656   6.454   3.984
 6220TIP3    H218625   3.624   6.488   4.128
 6221TIP3   OH218626   6.623   5.018   3.317
 6221TIP3    H118627   6.694   4.956   3.296
 6221TIP3    H218628   6.549   4.962   3.338
 6222TIP3   OH218629   1.422   6.229   3.259
 6222TIP3    H118630   1.333   6.254   3.234
 6222TIP3    H218631   1.421   6.227   3.354
 6223TIP3   OH218632   1.855   2.201   0.900
 6223TIP3    H118633   1.779   2.165   0.854
 6223TIP3    H218634   1.919   2.215   0.830
 6224TIP3   OH218635   5.969   1.010   1.867
 6224TIP3    H118636   5.880   0.978   1.854
 6224TIP3    H218637   5.995   0.976   1.953
 6225TIP3   OH218638   5.005   5.884   1.436
 6225TIP3    H118639   5.013   5.854   1.527
 6225TIP3    H218640   5.044   5.814   1.384
 6226TIP3   OH218641   2.308   6.069   0.404
 6226TIP3    H118642   2.396   6.043   0.376
 6226TIP3    H218643   2.313   6.164   0.411
 6227TIP3   OH218644   0.646   6.717   4.231
 6227TIP3    H118645   0.640   6.630   4.270
 6227TIP3    H218646   0.564   6.728   4.183
 6228TIP3   OH218647   3.709   1.436   3.059
 6228TIP3    H118648   3.643   1.404   2.998
 6228TIP3    H218649   3.793   1.413   3.018
 6229TIP3   OH218650   3.646   6.726   2.365
 6229TIP3    H118651   3.591   6.804   2.353
 6229TIP3    H218652   3.652   6.687   2.277
 6230TIP3   OH218653   4.728   3.023   5.488
 6230TIP3    H118654   4.777   3.063   5.559
 6230TIP3    H218655   4.721   2.931   5.513
 6231TIP3   OH218656   3.085   4.235   4.991
 6231TIP3    H118657   3.110   4.153   5.033
 6231TIP3    H218658   3.114   4.226   4.900
 6232TIP3   OH218659   5.106   4.549   0.709
 6232TIP3    H118660   5.186   4.600   0.721
 6232TIP3    H218661   5.136   4.469   0.666
 6233TIP3   OH218662   0.802   1.234   5.765
 6233TIP3    H118663   0.859   1.254   5.840
 6233TIP3    H218664   0.737   1.303   5.766
 6234TIP3   OH218665   0.749   5.596   0.297
 6234TIP3    H118666   0.709   5.682   0.286
 6234TIP3    H218667   0.675   5.536   0.306
 6235TIP3   OH218668   0.419   0.577   5.061
 6235TIP3    H118669   0.438   0.650   5.121
 6235TIP3    H218670   0.462   0.602   4.979
 6236TIP3   OH218671   2.176   3.116   3.190
 6236TIP3    H118672   2.226   3.193   3.216
 6236TIP3    H218673   2.242   3.055   3.157
 6237TIP3   OH218674   1.831   4.308   0.710
 6237TIP3    H118675   1.911   4.359   0.725
 6237TIP3    H218676   1.765   4.374   0.687
 6238TIP3   OH218677   5.542   1.861   5.030
 6238TIP3    H118678   5.573   1.860   5.121
 6238TIP3    H218679   5.526   1.770   5.009
 6239TIP3   OH218680   2.384   4.056   4.532
 6239TIP3    H118681   2.437   4.097   4.464
 6239TIP3    H218682   2.382   3.964   4.508
 6240TIP3   OH218683   0.822   6.639   0.769
 6240TIP3    H118684   0.839   6.566   0.709
 6240TIP3    H218685   0.850   6.607   0.854
 6241TIP3   OH218686   5.892   3.809   5.597
 6241TIP3    H118687   5.839   3.855   5.663
 6241TIP3    H218688   5.910   3.724   5.636
 6242TIP3   OH218689   6.501   6.405   5.239
 6242TIP3    H118690   6.455   6.329   5.204
 6242TIP3    H218691   6.542   6.445   5.163
 6243TIP3   OH218692   5.733   3.912   2.473
 6243TIP3    H118693   5.783   3.953   2.544
 6243TIP3    H218694   5.791   3.919   2.397
 6244TIP3   OH218695   3.688   1.772   3.766
 6244TIP3    H118696   3.741   1.849   3.747
 6244TIP3    H218697   3.740   1.722   3.829
 6245TIP3   OH218698   7.139   1.652   0.475
 6245TIP3    H118699   7.137   1.740   0.513
 6245TIP3    H218700   7.137   1.666   0.381
 6246TIP3   OH218701   2.632   3.034   3.688
 6246TIP3    H118702   2.581   2.956   3.714
 6246TIP3    H218703   2.671   3.065   3.769
 6247TIP3   OH218704   2.565   4.060   1.118
 6247TIP3    H118705   2.519   4.050   1.035
 6247TIP3    H218706   2.658   4.059   1.094
 6248TIP3   OH218707   1.944   0.049   4.777
 6248TIP3    H118708   1.904   0.037   4.863
 6248TIP3    H218709   1.869   0.052   4.717
 6249TIP3   OH218710   5.067   2.508   5.243
 6249TIP3    H118711   4.981   2.472   5.264
 6249TIP3    H218712   5.081   2.487   5.151
 6250TIP3   OH218713   1.996   2.656   4.792
 6250TIP3    H118714   1.923   2.718   4.795
 6250TIP3    H218715   2.062   2.693   4.850
 6251TIP3   OH218716   0.282   3.543   0.830
 6251TIP3    H118717   0.355   3.542   0.892
 6251TIP3    H218718   0.220   3.479   0.865
 6252TIP3   OH218719   6.257   5.339   5.200
 6252TIP3    H118720   6.212   5.396   5.138
 6252TIP3    H218721   6.288   5.265   5.148
 6253TIP3   OH218722   2.962   4.756   4.142
 6253TIP3    H118723   2.898   4.744   4.071
 6253TIP3    H218724   2.915   4.808   4.207
 6254TIP3   OH218725   4.684   3.944   5.304
 6254TIP3    H118726   4.727   4.000   5.369
 6254TIP3    H218727   4.756   3.911   5.250
 6255TIP3   OH218728   5.594   4.841   2.576
 6255TIP3    H118729   5.527   4.773   2.586
 6255TIP3    H218730   5.667   4.796   2.532
 6256TIP3   OH218731   3.137   5.257   3.911
 6256TIP3    H118732   3.215   5.257   3.855
 6256TIP3    H218733   3.064   5.262   3.849
 6257TIP3   OH218734   7.186   0.523   1.230
 6257TIP3    H118735   7.132   0.593   1.195
 6257TIP3    H218736   7.154   0.443   1.188
 6258TIP3   OH218737   0.291   0.279   0.649
 6258TIP3    H118738   0.262   0.369   0.666
 6258TIP3    H218739   0.374   0.271   0.696
 6259TIP3   OH218740   3.277   6.423   4.696
 6259TIP3    H118741   3.308   6.513   4.681
 6259TIP3    H218742   3.315   6.373   4.624
 6260TIP3   OH218743   6.582   1.270   5.330
 6260TIP3    H118744   6.513   1.293   5.392
 6260TIP3    H218745   6.615   1.185   5.361
 6261TIP3   OH218746   3.378   1.281   0.809
 6261TIP3    H118747   3.308   1.333   0.847
 6261TIP3    H218748   3.392   1.320   0.722
 6262TIP3   OH218749   6.457   5.344   4.378
 6262TIP3    H118750   6.388   5.347   4.312
 6262TIP3    H218751   6.539   5.346   4.328
 6263TIP3   OH218752   6.810   0.798   1.308
 6263TIP3    H118753   6.903   0.795   1.285
 6263TIP3    H218754   6.780   0.884   1.277
 6264TIP3   OH218755   0.675   2.017   1.942
 6264TIP3    H118756   0.619   2.077   1.893
 6264TIP3    H218757   0.657   2.036   2.034
 6265TIP3   OH218758   5.650   2.925   5.753
 6265TIP3    H118759   5.632   2.958   5.841
 6265TIP3    H218760   5.649   3.003   5.698
 6266TIP3   OH218761   0.316   2.379   0.989
 6266TIP3    H118762   0.364   2.312   0.940
 6266TIP3    H218763   0.262   2.423   0.923
 6267TIP3   OH218764   3.926   6.256   5.296
 6267TIP3    H118765   3.948   6.301   5.378
 6267TIP3    H218766   3.957   6.316   5.228
 6268TIP3   OH218767   5.470   0.930   5.607
 6268TIP3    H118768   5.495   1.019   5.584
 6268TIP3    H218769   5.502   0.876   5.535
 6269TIP3   OH218770   6.257   6.328   1.459
 6269TIP3    H118771   6.278   6.404   1.403
 6269TIP3    H218772   6.264   6.362   1.548
 6270TIP3   OH218773   5.860   0.232   4.957
 6270TIP3    H118774   5.887   0.151   5.002
 6270TIP3    H218775   5.941   0.283   4.950
 6271TIP3   OH218776   0.119   4.110   4.978
 6271TIP3    H118777   0.201   4.107   5.028
 6271TIP3    H218778   0.142   4.077   4.892
 6272TIP3   OH218779   4.832   0.029   4.750
 6272TIP3    H118780   4.888  -0.048   4.741
 6272TIP3    H218781   4.798   0.023   4.840
 6273TIP3   OH218782   4.899   6.267   3.636
 6273TIP3    H118783   4.903   6.260   3.731
 6273TIP3    H218784   4.934   6.355   3.617
 6274TIP3   OH218785   1.644   3.489   2.089
 6274TIP3    H118786   1.662   3.581   2.072
 6274TIP3    H218787   1.551   3.487   2.112
 6275TIP3   OH218788   6.200   3.469   5.046
 6275TIP3    H118789   6.260   3.520   4.992
 6275TIP3    H218790   6.234   3.479   5.135
 6276TIP3   OH218791   6.246   0.065   1.342
 6276TIP3    H118792   6.222  -0.025   1.320
 6276TIP3    H218793   6.211   0.118   1.270
 6277TIP3   OH218794   1.638   1.039   5.450
 6277TIP3    H118795   1.675   1.089   5.378
 6277TIP3    H218796   1.690   1.063   5.526
 6278TIP3   OH218797   6.479   3.144   3.396
 6278TIP3    H118798   6.484   3.049   3.392
 6278TIP3    H218799   6.499   3.166   3.487
 6279TIP3   OH218800   1.174   5.029   2.772
 6279TIP3    H118801   1.240   5.096   2.790
 6279TIP3    H218802   1.163   5.032   2.677
 6280TIP3   OH218803   4.697   5.360   4.182
 6280TIP3    H118804   4.753   5.369   4.104
 6280TIP3    H218805   4.724   5.278   4.222
 6281TIP3   OH218806   6.189   0.074   3.592
 6281TIP3    H118807   6.238   0.075   3.509
 6281TIP3    H218808   6.109   0.026   3.572
 6282TIP3   OH218809   6.395   6.039   0.941
 6282TIP3    H118810   6.464   6.068   1.000
 6282TIP3    H218811   6.406   5.944   0.936
 6283TIP3   OH218812   4.512   4.745   5.200
 6283TIP3    H118813   4.474   4.830   5.224
 6283TIP3    H218814   4.508   4.693   5.281
 6284TIP3   OH218815   0.288   5.344   0.038
 6284TIP3    H118816   0.347   5.270   0.026
 6284TIP3    H218817   0.346   5.419   0.052
 6285TIP3   OH218818   4.624   1.709   4.891
 6285TIP3    H118819   4.533   1.711   4.860
 6285TIP3    H218820   4.643   1.615   4.903
 6286TIP3   OH218821   5.241   4.097   1.859
 6286TIP3    H118822   5.246   4.002   1.871
 6286TIP3    H218823   5.314   4.118   1.801
 6287TIP3   OH218824   6.954   0.746   1.845
 6287TIP3    H118825   6.931   0.787   1.762
 6287TIP3    H218826   6.881   0.766   1.903
 6288TIP3   OH218827   1.774   0.603   3.504
 6288TIP3    H118828   1.846   0.579   3.562
 6288TIP3    H218829   1.768   0.531   3.442
 6289TIP3   OH218830   3.283   1.110   5.333
 6289TIP3    H118831   3.268   1.187   5.280
 6289TIP3    H218832   3.223   1.119   5.407
 6290TIP3   OH218833   2.980   2.527   3.974
 6290TIP3    H118834   2.933   2.459   4.023
 6290TIP3    H218835   2.931   2.607   3.990
 6291TIP3   OH218836   5.752   4.748   4.673
 6291TIP3    H118837   5.813   4.709   4.610
 6291TIP3    H218838   5.808   4.778   4.745
 6292TIP3   OH218839   7.076   6.020   3.675
 6292TIP3    H118840   6.998   5.975   3.642
 6292TIP3    H218841   7.148   5.961   3.654
 6293TIP3   OH218842   7.058   6.481   0.684
 6293TIP3    H118843   7.040   6.426   0.608
 6293TIP3    H218844   7.080   6.567   0.646
 6294TIP3   OH218845   1.772   3.052   3.423
 6294TIP3    H118846   1.770   2.991   3.349
 6294TIP3    H218847   1.862   3.048   3.455
 6295TIP3   OH218848   6.764   0.852   4.788
 6295TIP3    H118849   6.764   0.778   4.850
 6295TIP3    H218850   6.803   0.816   4.708
 6296TIP3   OH218851   0.807   5.221   1.972
 6296TIP3    H118852   0.745   5.148   1.968
 6296TIP3    H218853   0.767   5.284   2.032
 6297TIP3   OH218854   3.517   5.160   3.218
 6297TIP3    H118855   3.451   5.220   3.183
 6297TIP3    H218856   3.524   5.092   3.151
 6298TIP3   OH218857   5.657   4.590   3.702
 6298TIP3    H118858   5.641   4.653   3.632
 6298TIP3    H218859   5.713   4.524   3.662
 6299TIP3   OH218860   0.282   1.368   1.056
 6299TIP3    H118861   0.243   1.412   0.980
 6299TIP3    H218862   0.228   1.394   1.130
 6300TIP3   OH218863   3.196   1.956   1.877
 6300TIP3    H118864   3.276   1.931   1.831
 6300TIP3    H218865   3.211   1.931   1.968
 6301TIP3   OH218866   5.684   4.841   3.563
 6301TIP3    H118867   5.763   4.803   3.603
 6301TIP3    H218868   5.714   4.924   3.525
 6302TIP3   OH218869   6.487   3.909   5.090
 6302TIP3    H118870   6.555   3.942   5.149
 6302TIP3    H218871   6.431   3.855   5.145
 6303TIP3   OH218872   3.576   0.640   0.504
 6303TIP3    H118873   3.549   0.554   0.472
 6303TIP3    H218874   3.502   0.671   0.556
 6304TIP3   OH218875   1.211   0.965   5.598
 6304TIP3    H118876   1.270   0.970   5.523
 6304TIP3    H218877   1.234   1.040   5.652
 6305TIP3   OH218878   6.144   6.595   5.085
 6305TIP3    H118879   6.092   6.576   5.163
 6305TIP3    H218880   6.161   6.509   5.046
 6306TIP3   OH218881   3.449   5.084   0.382
 6306TIP3    H118882   3.444   5.101   0.288
 6306TIP3    H218883   3.424   4.992   0.391
 6307TIP3   OH218884   7.075   3.876   2.399
 6307TIP3    H118885   7.026   3.938   2.453
 6307TIP3    H218886   7.111   3.930   2.328
 6308TIP3   OH218887   2.837   1.475   1.331
 6308TIP3    H118888   2.910   1.414   1.322
 6308TIP3    H218889   2.776   1.450   1.262
 6309TIP3   OH218890   3.660   2.176   5.134
 6309TIP3    H118891   3.674   2.268   5.159
 6309TIP3    H218892   3.746   2.147   5.102
 6310TIP3   OH218893   6.534   5.586   4.516
 6310TIP3    H118894   6.521   5.495   4.488
 6310TIP3    H218895   6.455   5.632   4.487
 6311TIP3   OH218896   5.176   4.831   5.621
 6311TIP3    H118897   5.236   4.896   5.658
 6311TIP3    H218898   5.092   4.877   5.614
 6312TIP3   OH218899   5.672   5.900   3.126
 6312TIP3    H118900   5.751   5.920   3.075
 6312TIP3    H218901   5.682   5.808   3.150
 6313TIP3   OH218902   3.557   2.086   3.611
 6313TIP3    H118903   3.547   2.016   3.676
 6313TIP3    H218904   3.467   2.118   3.597
 6314TIP3   OH218905   6.739   1.620   5.126
 6314TIP3    H118906   6.695   1.558   5.069
 6314TIP3    H218907   6.679   1.635   5.198
 6315TIP3   OH218908   5.320   0.406   5.546
 6315TIP3    H118909   5.236   0.416   5.591
 6315TIP3    H218910   5.304   0.343   5.477
 6316TIP3   OH218911   3.720   3.152   2.917
 6316TIP3    H118912   3.650   3.189   2.864
 6316TIP3    H218913   3.732   3.214   2.989
 6317TIP3   OH218914   2.018   0.466   0.374
 6317TIP3    H118915   1.939   0.424   0.340
 6317TIP3    H218916   2.019   0.552   0.333
 6318TIP3   OH218917   1.604   4.440   1.177
 6318TIP3    H118918   1.677   4.440   1.115
 6318TIP3    H218919   1.576   4.348   1.180
 6319TIP3   OH218920   6.661   6.173   3.822
 6319TIP3    H118921   6.693   6.228   3.750
 6319TIP3    H218922   6.591   6.121   3.782
 6320TIP3   OH218923   5.256   6.711   2.186
 6320TIP3    H118924   5.243   6.764   2.107
 6320TIP3    H218925   5.314   6.764   2.241
 6321TIP3   OH218926   6.968   3.106   4.769
 6321TIP3    H118927   6.913   3.148   4.835
 6321TIP3    H218928   7.023   3.045   4.818
 6322TIP3   OH218929   4.465   3.029   4.009
 6322TIP3    H118930   4.485   2.939   4.035
 6322TIP3    H218931   4.423   3.068   4.086
 6323TIP3   OH218932   6.136   6.327   5.077
 6323TIP3    H118933   6.112   6.304   5.167
 6323TIP3    H218934   6.202   6.262   5.052
 6324TIP3   OH218935   3.231   0.696   3.879
 6324TIP3    H118936   3.197   0.785   3.891
 6324TIP3    H218937   3.201   0.649   3.956
 6325TIP3   OH218938   6.613   1.278   1.572
 6325TIP3    H118939   6.636   1.209   1.634
 6325TIP3    H218940   6.550   1.238   1.513
 6326TIP3   OH218941   2.666   3.026   1.446
 6326TIP3    H118942   2.647   3.023   1.540
 6326TIP3    H218943   2.620   2.950   1.411
 6327TIP3   OH218944   4.201   1.556   0.618
 6327TIP3    H118945   4.204   1.478   0.562
 6327TIP3    H218946   4.110   1.585   0.614
 6328TIP3   OH218947   0.708   5.294   5.576
 6328TIP3    H118948   0.623   5.253   5.586
 6328TIP3    H218949   0.706   5.331   5.487
 6329TIP3   OH218950   6.547   6.545   2.932
 6329TIP3    H118951   6.532   6.548   3.026
 6329TIP3    H218952   6.593   6.462   2.917
 6330TIP3   OH218953   6.013   6.365   3.254
 6330TIP3    H118954   6.084   6.365   3.190
 6330TIP3    H218955   5.942   6.316   3.213
 6331TIP3   OH218956   3.907   4.767   4.025
 6331TIP3    H118957   3.814   4.787   4.036
 6331TIP3    H218958   3.944   4.773   4.113
 6332TIP3   OH218959   3.770   6.287   3.763
 6332TIP3    H118960   3.852   6.298   3.715
 6332TIP3    H218961   3.796   6.263   3.852
 6333TIP3   OH218962   0.306   6.611   5.003
 6333TIP3    H118963   0.316   6.526   5.045
 6333TIP3    H218964   0.380   6.663   5.034
 6334TIP3   OH218965   6.089   2.079   4.042
 6334TIP3    H118966   6.131   2.151   3.995
 6334TIP3    H218967   6.141   2.002   4.019
 6335TIP3   OH218968   2.643   3.690   5.024
 6335TIP3    H118969   2.657   3.766   5.080
 6335TIP3    H218970   2.665   3.615   5.079
 6336TIP3   OH218971   0.834   0.671   2.558
 6336TIP3    H118972   0.921   0.638   2.536
 6336TIP3    H218973   0.848   0.762   2.583
 6337TIP3   OH218974   3.403   3.834   0.589
 6337TIP3    H118975   3.476   3.890   0.613
 6337TIP3    H218976   3.437   3.782   0.516
 6338TIP3   OH218977   5.326   0.184   4.092
 6338TIP3    H118978   5.332   0.093   4.063
 6338TIP3    H218979   5.241   0.214   4.059
 6339TIP3   OH218980   3.817   4.776   4.479
 6339TIP3    H118981   3.754   4.847   4.493
 6339TIP3    H218982   3.871   4.777   4.559
 6340TIP3   OH218983   3.734   4.118   1.409
 6340TIP3    H118984   3.726   4.025   1.428
 6340TIP3    H218985   3.734   4.160   1.494
 6341TIP3   OH218986   0.931   5.758   2.372
 6341TIP3    H118987   0.933   5.811   2.452
 6341TIP3    H218988   1.023   5.741   2.352
 6342TIP3   OH218989   5.655   2.986   4.368
 6342TIP3    H118990   5.641   3.063   4.424
 6342TIP3    H218991   5.691   2.920   4.427
 6343TIP3   OH218992   6.525   4.180   5.612
 6343TIP3    H118993   6.559   4.268   5.624
 6343TIP3    H218994   6.529   4.141   5.700
 6344TIP3   OH218995   5.216   4.264   3.091
 6344TIP3    H118996   5.261   4.303   3.166
 6344TIP3    H218997   5.281   4.206   3.052
 6345TIP3   OH218998   3.266   2.285   4.545
 6345TIP3    H118999   3.287   2.293   4.638
 6345TIP3    H219000   3.183   2.333   4.535
 6346TIP3   OH219001   1.876   3.962   2.564
 6346TIP3    H119002   1.897   3.877   2.603
 6346TIP3    H219003   1.902   4.026   2.630
 6347TIP3   OH219004   0.571   1.645   2.624
 6347TIP3    H119005   0.628   1.675   2.695
 6347TIP3    H219006   0.505   1.591   2.667
 6348TIP3   OH219007   3.061   3.517   0.937
 6348TIP3    H119008   2.990   3.483   0.882
 6348TIP3    H219009   3.017   3.574   1.000
 6349TIP3   OH219010   3.582   6.032   5.500
 6349TIP3    H119011   3.611   6.082   5.576
 6349TIP3    H219012   3.517   5.971   5.535
 6350TIP3   OH219013   6.001   0.884   1.503
 6350TIP3    H119014   6.084   0.932   1.503
 6350TIP3    H219015   6.003   0.831   1.423
 6351TIP3   OH219016   0.383   4.912   1.064
 6351TIP3    H119017   0.373   5.007   1.054
 6351TIP3    H219018   0.472   4.902   1.098
 6352TIP3   OH219019   4.491   0.343   0.407
 6352TIP3    H119020   4.485   0.359   0.312
 6352TIP3    H219021   4.445   0.418   0.446
 6353TIP3   OH219022   1.755   3.301   3.028
 6353TIP3    H119023   1.736   3.209   3.010
 6353TIP3    H219024   1.672   3.337   3.057
 6354TIP3   OH219025   5.803   1.714   0.838
 6354TIP3    H119026   5.779   1.807   0.841
 6354TIP3    H219027   5.725   1.670   0.805
 6355TIP3   OH219028   5.221   0.770   4.736
 6355TIP3    H119029   5.192   0.854   4.771
 6355TIP3    H219030   5.316   0.776   4.734
 6356TIP3   OH219031   4.621   0.713   3.771
 6356TIP3    H119032   4.601   0.632   3.817
 6356TIP3    H219033   4.570   0.780   3.816
 6357TIP3   OH219034   4.199   2.072   4.690
 6357TIP3    H119035   4.259   2.143   4.667
 6357TIP3    H219036   4.117   2.094   4.646
 6358TIP3   OH219037   4.293   4.936   3.809
 6358TIP3    H119038   4.328   4.974   3.728
 6358TIP3    H219039   4.347   4.859   3.824
 6359TIP3   OH219040   5.850   0.600   1.943
 6359TIP3    H119041   5.799   0.530   1.903
 6359TIP3    H219042   5.877   0.655   1.869
 6360TIP3   OH219043   6.738   0.951   3.541
 6360TIP3    H119044   6.771   0.866   3.513
 6360TIP3    H219045   6.709   0.937   3.631
 6361TIP3   OH219046   3.436   3.323   3.861
 6361TIP3    H119047   3.449   3.257   3.930
 6361TIP3    H219048   3.460   3.278   3.780
 6362TIP3   OH219049   4.053   5.330   4.915
 6362TIP3    H119050   4.076   5.237   4.905
 6362TIP3    H219051   3.972   5.340   4.865
 6363TIP3   OH219052   3.072   1.946   3.566
 6363TIP3    H119053   3.096   2.005   3.637
 6363TIP3    H219054   3.115   1.863   3.586
 6364TIP3   OH219055   2.053   3.082   4.081
 6364TIP3    H119056   2.148   3.095   4.086
 6364TIP3    H219057   2.043   3.006   4.022
 6365TIP3   OH219058   0.135   3.558   4.007
 6365TIP3    H119059   0.130   3.654   4.017
 6365TIP3    H219060   0.198   3.531   4.073
 6366TIP3   OH219061   0.540   5.134   4.215
 6366TIP3    H119062   0.572   5.098   4.298
 6366TIP3    H219063   0.532   5.058   4.158
 6367TIP3   OH219064   5.153   6.332   4.577
 6367TIP3    H119065   5.130   6.419   4.610
 6367TIP3    H219066   5.167   6.280   4.656
 6368TIP3   OH219067   4.153   6.095   4.365
 6368TIP3    H119068   4.136   6.046   4.445
 6368TIP3    H219069   4.249   6.093   4.356
 6369TIP3   OH219070   6.761   1.174   3.243
 6369TIP3    H119071   6.819   1.197   3.170
 6369TIP3    H219072   6.674   1.202   3.213
 6370TIP3   OH219073   0.195   6.789   2.357
 6370TIP3    H119074   0.200   6.758   2.447
 6370TIP3    H219075   0.109   6.760   2.326
 6371TIP3   OH219076   6.775   4.285   4.292
 6371TIP3    H119077   6.742   4.374   4.300
 6371TIP3    H219078   6.754   4.244   4.376
 6372TIP3   OH219079   6.935   3.386   4.008
 6372TIP3    H119080   6.881   3.308   4.023
 6372TIP3    H219081   7.025   3.354   4.018
 6373TIP3   OH219082   3.800   4.416   1.189
 6373TIP3    H119083   3.775   4.329   1.157
 6373TIP3    H219084   3.813   4.468   1.110
 6374TIP3   OH219085   2.892   0.542   2.317
 6374TIP3    H119086   2.810   0.497   2.340
 6374TIP3    H219087   2.944   0.539   2.397
 6375TIP3   OH219088   2.012   5.476   1.399
 6375TIP3    H119089   1.999   5.567   1.425
 6375TIP3    H219090   1.935   5.430   1.434
 6376TIP3   OH219091   2.294   5.390   2.857
 6376TIP3    H119092   2.216   5.432   2.820
 6376TIP3    H219093   2.337   5.459   2.906
 6377TIP3   OH219094   1.202   5.765   4.758
 6377TIP3    H119095   1.202   5.701   4.829
 6377TIP3    H219096   1.277   5.741   4.704
 6378TIP3   OH219097   4.896   0.848   3.873
 6378TIP3    H119098   4.912   0.879   3.962
 6378TIP3    H219099   4.860   0.760   3.884
 6379TIP3   OH219100   4.457   0.516   2.627
 6379TIP3    H119101   4.390   0.453   2.600
 6379TIP3    H219102   4.434   0.597   2.581
 6380TIP3   OH219103   6.502   4.261   0.599
 6380TIP3    H119104   6.561   4.288   0.670
 6380TIP3    H219105   6.461   4.342   0.571
 6381TIP3   OH219106   4.142   5.198   3.761
 6381TIP3    H119107   4.213   5.154   3.807
 6381TIP3    H219108   4.178   5.222   3.676
 6382TIP3   OH219109   6.202   5.612   4.027
 6382TIP3    H119110   6.155   5.535   3.995
 6382TIP3    H219111   6.293   5.597   4.001
 6383TIP3   OH219112   6.081   6.076   1.463
 6383TIP3    H119113   6.053   6.050   1.375
 6383TIP3    H219114   6.156   6.133   1.449
 6384TIP3   OH219115   2.684   2.470   5.044
 6384TIP3    H119116   2.689   2.383   5.084
 6384TIP3    H219117   2.774   2.504   5.051
 6385TIP3   OH219118   3.105   6.697   4.923
 6385TIP3    H119119   3.046   6.760   4.880
 6385TIP3    H219120   3.191   6.738   4.918
 6386TIP3   OH219121   0.526   1.238   1.807
 6386TIP3    H119122   0.434   1.261   1.819
 6386TIP3    H219123   0.533   1.216   1.714
 6387TIP3   OH219124   6.946   3.828   5.292
 6387TIP3    H119125   7.012   3.843   5.359
 6387TIP3    H219126   6.974   3.880   5.217
 6388TIP3   OH219127   5.991   0.056   5.232
 6388TIP3    H119128   6.079   0.020   5.222
 6388TIP3    H219129   5.933  -0.014   5.202
 6389TIP3   OH219130   3.371   6.131   3.344
 6389TIP3    H119131   3.427   6.060   3.375
 6389TIP3    H219132   3.393   6.139   3.251
 6390TIP3   OH219133   6.032   3.797   3.048
 6390TIP3    H119134   5.957   3.849   3.076
 6390TIP3    H219135   6.106   3.858   3.053
 6391TIP3   OH219136   0.354   0.855   4.700
 6391TIP3    H119137   0.293   0.798   4.653
 6391TIP3    H219138   0.426   0.797   4.726
 6392TIP3   OH219139   1.317   4.780   2.758
 6392TIP3    H119140   1.234   4.827   2.769
 6392TIP3    H219141   1.368   4.804   2.836
 6393TIP3   OH219142   5.301   6.070   0.748
 6393TIP3    H119143   5.394   6.053   0.763
 6393TIP3    H219144   5.277   6.008   0.679
 6394TIP3   OH219145   4.743   4.217   4.611
 6394TIP3    H119146   4.736   4.123   4.629
 6394TIP3    H219147   4.670   4.256   4.659
 6395TIP3   OH219148   1.711   5.465   3.307
 6395TIP3    H119149   1.668   5.398   3.255
 6395TIP3    H219150   1.726   5.537   3.246
 6396TIP3   OH219151   1.502   2.476   2.855
 6396TIP3    H119152   1.441   2.549   2.856
 6396TIP3    H219153   1.529   2.466   2.947
 6397TIP3   OH219154   2.684   3.303   4.950
 6397TIP3    H119155   2.634   3.313   5.031
 6397TIP3    H219156   2.618   3.299   4.881
 6398TIP3   OH219157   0.594   1.694   1.774
 6398TIP3    H119158   0.577   1.735   1.859
 6398TIP3    H219159   0.517   1.641   1.756
 6399TIP3   OH219160   6.529   0.904   1.217
 6399TIP3    H119161   6.567   0.816   1.224
 6399TIP3    H219162   6.528   0.921   1.123
 6400TIP3   OH219163   4.225   0.807   0.643
 6400TIP3    H119164   4.288   0.861   0.691
 6400TIP3    H219165   4.275   0.729   0.617
 6401TIP3   OH219166   5.677   4.761   2.838
 6401TIP3    H119167   5.604   4.784   2.896
 6401TIP3    H219168   5.650   4.794   2.752
 6402TIP3   OH219169   4.388   4.826   2.775
 6402TIP3    H119170   4.323   4.896   2.774
 6402TIP3    H219171   4.354   4.760   2.714
 6403TIP3   OH219172   1.644   4.295   4.960
 6403TIP3    H119173   1.643   4.354   4.885
 6403TIP3    H219174   1.732   4.258   4.960
 6404TIP3   OH219175   4.320   3.872   4.597
 6404TIP3    H119176   4.413   3.880   4.575
 6404TIP3    H219177   4.280   3.839   4.517
 6405TIP3   OH219178   4.653   1.718   0.551
 6405TIP3    H119179   4.639   1.728   0.457
 6405TIP3    H219180   4.671   1.806   0.582
 6406TIP3   OH219181   0.009   1.862   2.206
 6406TIP3    H119182  -0.059   1.805   2.241
 6406TIP3    H219183   0.060   1.890   2.283
 6407TIP3   OH219184   4.357   5.485   2.612
 6407TIP3    H119185   4.332   5.478   2.520
 6407TIP3    H219186   4.330   5.574   2.637
 6408TIP3   OH219187   0.401   6.076   3.398
 6408TIP3    H119188   0.455   6.022   3.340
 6408TIP3    H219189   0.444   6.071   3.483
 6409TIP3   OH219190   6.905   4.325   5.782
 6409TIP3    H119191   6.930   4.368   5.700
 6409TIP3    H219192   6.810   4.338   5.788
 6410TIP3   OH219193   3.558   1.196   4.876
 6410TIP3    H119194   3.507   1.178   4.955
 6410TIP3    H219195   3.593   1.284   4.889
 6411TIP3   OH219196   6.092   4.675   0.090
 6411TIP3    H119197   6.126   4.656   0.178
 6411TIP3    H219198   6.154   4.738   0.054
 6412TIP3   OH219199   4.545   1.568   2.409
 6412TIP3    H119200   4.514   1.590   2.322
 6412TIP3    H219201   4.511   1.479   2.425
 6413TIP3   OH219202   0.778   6.783   2.027
 6413TIP3    H119203   0.858   6.797   1.976
 6413TIP3    H219204   0.808   6.775   2.117
 6414TIP3   OH219205   3.958   2.868   2.200
 6414TIP3    H119206   3.910   2.823   2.270
 6414TIP3    H219207   3.916   2.836   2.120
 6415TIP3   OH219208   6.862   4.427   1.788
 6415TIP3    H119209   6.871   4.452   1.696
 6415TIP3    H219210   6.769   4.441   1.807
 6416TIP3   OH219211   6.141   4.923   2.148
 6416TIP3    H119212   6.106   4.900   2.062
 6416TIP3    H219213   6.068   4.963   2.194
 6417TIP3   OH219214   3.232   0.222   4.847
 6417TIP3    H119215   3.278   0.185   4.922
 6417TIP3    H219216   3.212   0.146   4.791
 6418TIP3   OH219217   2.918   1.910   1.893
 6418TIP3    H119218   3.011   1.927   1.908
 6418TIP3    H219219   2.906   1.925   1.799
 6419TIP3   OH219220   6.900   1.301   2.076
 6419TIP3    H119221   6.898   1.217   2.120
 6419TIP3    H219222   6.883   1.280   1.984
 6420TIP3   OH219223   1.020   1.751   0.421
 6420TIP3    H119224   0.969   1.808   0.479
 6420TIP3    H219225   1.110   1.760   0.452
 6421TIP3   OH219226   4.857   3.951   1.352
 6421TIP3    H119227   4.880   4.032   1.397
 6421TIP3    H219228   4.941   3.916   1.321
 6422TIP3   OH219229   7.216   1.583   1.034
 6422TIP3    H119230   7.146   1.634   0.993
 6422TIP3    H219231   7.179   1.555   1.118
 6423TIP3   OH219232   5.276   3.430   0.274
 6423TIP3    H119233   5.289   3.488   0.200
 6423TIP3    H219234   5.250   3.488   0.346
 6424TIP3   OH219235   1.120   1.707   1.464
 6424TIP3    H119236   1.039   1.663   1.439
 6424TIP3    H219237   1.094   1.798   1.482
 6425TIP3   OH219238   0.236   6.059   2.236
 6425TIP3    H119239   0.272   6.139   2.273
 6425TIP3    H219240   0.178   6.025   2.305
 6426TIP3   OH219241   4.605   3.026   0.418
 6426TIP3    H119242   4.669   3.073   0.471
 6426TIP3    H219243   4.548   3.094   0.382
 6427TIP3   OH219244   5.880   5.470   5.272
 6427TIP3    H119245   5.920   5.400   5.323
 6427TIP3    H219246   5.920   5.550   5.306
 6428TIP3   OH219247   0.899   5.537   5.009
 6428TIP3    H119248   0.887   5.630   4.989
 6428TIP3    H219249   0.945   5.502   4.933
 6429TIP3   OH219250   5.327   5.717   1.376
 6429TIP3    H119251   5.308   5.753   1.290
 6429TIP3    H219252   5.297   5.785   1.437
 6430TIP3   OH219253   6.046   5.280   4.284
 6430TIP3    H119254   5.955   5.267   4.310
 6430TIP3    H219255   6.068   5.368   4.316
 6431TIP3   OH219256   5.793   5.840   4.144
 6431TIP3    H119257   5.748   5.912   4.100
 6431TIP3    H219258   5.818   5.876   4.229
 6432TIP3   OH219259   4.825   2.258   0.426
 6432TIP3    H119260   4.780   2.342   0.440
 6432TIP3    H219261   4.847   2.228   0.514
 6433TIP3   OH219262   2.984   6.415   0.879
 6433TIP3    H119263   3.018   6.496   0.918
 6433TIP3    H219264   2.971   6.436   0.787
 6434TIP3   OH219265   0.325   3.215   1.164
 6434TIP3    H119266   0.246   3.236   1.215
 6434TIP3    H219267   0.291   3.182   1.081
 6435TIP3   OH219268   3.106   0.856   5.536
 6435TIP3    H119269   3.198   0.856   5.509
 6435TIP3    H219270   3.060   0.897   5.463
 6436TIP3   OH219271   4.083   4.344   1.961
 6436TIP3    H119272   4.075   4.290   2.040
 6436TIP3    H219273   4.005   4.400   1.964
 6437TIP3   OH219274   4.834   2.909   4.133
 6437TIP3    H119275   4.786   2.903   4.050
 6437TIP3    H219276   4.804   2.991   4.173
 6438TIP3   OH219277   1.971   0.496   4.669
 6438TIP3    H119278   1.882   0.467   4.649
 6438TIP3    H219279   1.989   0.458   4.755
 6439TIP3   OH219280   3.763   0.188   1.480
 6439TIP3    H119281   3.795   0.277   1.464
 6439TIP3    H219282   3.754   0.149   1.393
 6440TIP3   OH219283   6.727   2.212   3.128
 6440TIP3    H119284   6.675   2.196   3.206
 6440TIP3    H219285   6.730   2.308   3.119
 6441TIP3   OH219286   3.476   1.600   2.857
 6441TIP3    H119287   3.569   1.618   2.871
 6441TIP3    H219288   3.431   1.677   2.891
 6442TIP3   OH219289   3.344   5.694   2.899
 6442TIP3    H119290   3.366   5.714   2.809
 6442TIP3    H219291   3.251   5.671   2.897
 6443TIP3   OH219292   2.686   0.028   3.343
 6443TIP3    H119293   2.597   0.047   3.375
 6443TIP3    H219294   2.707  -0.057   3.381
 6444TIP3   OH219295   6.814   6.545   1.876
 6444TIP3    H119296   6.762   6.616   1.837
 6444TIP3    H219297   6.870   6.515   1.804
 6445TIP3   OH219298   0.146   4.367   1.895
 6445TIP3    H119299   0.167   4.338   1.983
 6445TIP3    H219300   0.052   4.389   1.899
 6446TIP3   OH219301   5.397   5.930   1.580
 6446TIP3    H119302   5.391   6.011   1.630
 6446TIP3    H219303   5.466   5.880   1.624
 6447TIP3   OH219304   6.375   6.063   2.655
 6447TIP3    H119305   6.311   5.992   2.658
 6447TIP3    H219306   6.460   6.018   2.651
 6448TIP3   OH219307   6.730   2.508   4.710
 6448TIP3    H119308   6.713   2.461   4.791
 6448TIP3    H219309   6.772   2.444   4.653
 6449TIP3   OH219310   0.839   5.909   0.452
 6449TIP3    H119311   0.883   5.993   0.457
 6449TIP3    H219312   0.768   5.922   0.389
 6450TIP3   OH219313   2.387   4.573   2.303
 6450TIP3    H119314   2.437   4.597   2.381
 6450TIP3    H219315   2.453   4.547   2.239
 6451TIP3   OH219316   2.434   4.768   0.848
 6451TIP3    H119317   2.403   4.718   0.924
 6451TIP3    H219318   2.433   4.859   0.877
 6452TIP3   OH219319   3.619   0.537   1.319
 6452TIP3    H119320   3.702   0.489   1.326
 6452TIP3    H219321   3.642   0.616   1.270
 6453TIP3   OH219322   6.690   5.988   0.813
 6453TIP3    H119323   6.641   6.070   0.802
 6453TIP3    H219324   6.731   5.997   0.899
 6454TIP3   OH219325   1.012   5.608   0.256
 6454TIP3    H119326   0.920   5.612   0.280
 6454TIP3    H219327   1.022   5.673   0.187
 6455TIP3   OH219328   3.559   3.353   0.637
 6455TIP3    H119329   3.553   3.278   0.577
 6455TIP3    H219330   3.486   3.341   0.698
 6456TIP3   OH219331   0.026   4.236   3.087
 6456TIP3    H119332   0.029   4.159   3.143
 6456TIP3    H219333   0.109   4.236   3.041
 6457TIP3   OH219334   2.366   3.239   1.543
 6457TIP3    H119335   2.431   3.297   1.582
 6457TIP3    H219336   2.399   3.221   1.455
 6458TIP3   OH219337   6.987   5.273   0.083
 6458TIP3    H119338   7.072   5.305   0.112
 6458TIP3    H219339   6.965   5.328   0.007
 6459TIP3   OH219340   5.113   3.211   3.163
 6459TIP3    H119341   5.083   3.297   3.135
 6459TIP3    H219342   5.099   3.209   3.257
 6460TIP3   OH219343   4.410   1.883   4.435
 6460TIP3    H119344   4.322   1.886   4.472
 6460TIP3    H219345   4.437   1.974   4.428
 6461TIP3   OH219346   6.752   0.212   4.020
 6461TIP3    H119347   6.700   0.230   3.941
 6461TIP3    H219348   6.806   0.136   3.996
 6462TIP3   OH219349   0.028   5.267   0.504
 6462TIP3    H119350   0.001   5.175   0.494
 6462TIP3    H219351   0.122   5.262   0.521
 6463TIP3   OH219352   0.173   1.502   0.823
 6463TIP3    H119353   0.199   1.585   0.784
 6463TIP3    H219354   0.101   1.524   0.882
 6464TIP3   OH219355   3.819   1.919   0.300
 6464TIP3    H119356   3.733   1.922   0.343
 6464TIP3    H219357   3.854   2.007   0.311
 6465TIP3   OH219358   0.870   5.935   2.861
 6465TIP3    H119359   0.902   5.850   2.891
 6465TIP3    H219360   0.808   5.962   2.929
 6466TIP3   OH219361   3.703   6.278   1.464
 6466TIP3    H119362   3.706   6.203   1.523
 6466TIP3    H219363   3.609   6.292   1.448
 6467TIP3   OH219364   2.926   5.711   4.491
 6467TIP3    H119365   2.952   5.695   4.401
 6467TIP3    H219366   2.858   5.646   4.508
 6468TIP3   OH219367   1.847   1.461   0.416
 6468TIP3    H119368   1.880   1.440   0.328
 6468TIP3    H219369   1.795   1.385   0.441
 6469TIP3   OH219370   1.062   3.763   1.173
 6469TIP3    H119371   1.106   3.695   1.122
 6469TIP3    H219372   1.133   3.820   1.203
 6470TIP3   OH219373   1.182   1.232   3.662
 6470TIP3    H119374   1.099   1.238   3.708
 6470TIP3    H219375   1.195   1.320   3.625
 6471TIP3   OH219376   4.746   0.514   0.563
 6471TIP3    H119377   4.766   0.581   0.497
 6471TIP3    H219378   4.657   0.535   0.592
 6472TIP3   OH219379   5.251   6.221   4.159
 6472TIP3    H119380   5.288   6.136   4.135
 6472TIP3    H219381   5.183   6.199   4.224
 6473TIP3   OH219382   6.373   4.510   3.141
 6473TIP3    H119383   6.308   4.467   3.086
 6473TIP3    H219384   6.322   4.569   3.197
 6474TIP3   OH219385   3.315   2.840   0.157
 6474TIP3    H119386   3.383   2.900   0.124
 6474TIP3    H219387   3.346   2.753   0.132
 6475TIP3   OH219388   1.805   5.683   3.626
 6475TIP3    H119389   1.785   5.732   3.706
 6475TIP3    H219390   1.876   5.731   3.585
 6476TIP3   OH219391   4.585   5.004   1.058
 6476TIP3    H119392   4.650   4.995   0.988
 6476TIP3    H219393   4.531   4.926   1.050
 6477TIP3   OH219394   6.106   3.334   2.606
 6477TIP3    H119395   6.179   3.303   2.661
 6477TIP3    H219396   6.037   3.270   2.621
 6478TIP3   OH219397   6.322   2.870   3.944
 6478TIP3    H119398   6.403   2.920   3.953
 6478TIP3    H219399   6.323   2.839   3.854
 6479TIP3   OH219400   1.946   2.697   5.160
 6479TIP3    H119401   1.891   2.670   5.086
 6479TIP3    H219402   1.945   2.622   5.219
 6480TIP3   OH219403   0.843   4.184   4.990
 6480TIP3    H119404   0.773   4.225   4.940
 6480TIP3    H219405   0.799   4.117   5.043
 6481TIP3   OH219406   4.151   0.411   1.294
 6481TIP3    H119407   4.210   0.484   1.277
 6481TIP3    H219408   4.176   0.344   1.230
 6482TIP3   OH219409   5.257   2.559   4.545
 6482TIP3    H119410   5.269   2.535   4.453
 6482TIP3    H219411   5.219   2.481   4.585
 6483TIP3   OH219412   0.574   0.137   4.144
 6483TIP3    H119413   0.589   0.149   4.050
 6483TIP3    H219414   0.483   0.106   4.149
 6484TIP3   OH219415   5.289   0.816   4.393
 6484TIP3    H119416   5.276   0.901   4.351
 6484TIP3    H219417   5.241   0.823   4.476
 6485TIP3   OH219418   3.368   4.555   1.634
 6485TIP3    H119419   3.441   4.530   1.578
 6485TIP3    H219420   3.307   4.601   1.576
 6486TIP3   OH219421   6.358   2.462   4.376
 6486TIP3    H119422   6.266   2.487   4.383
 6486TIP3    H219423   6.406   2.545   4.383
 6487TIP3   OH219424   2.289   2.201   4.770
 6487TIP3    H119425   2.258   2.110   4.766
 6487TIP3    H219426   2.300   2.218   4.863
 6488TIP3   OH219427   2.156   4.025   4.675
 6488TIP3    H119428   2.167   4.033   4.770
 6488TIP3    H219429   2.240   4.053   4.639
 6489TIP3   OH219430   1.092   1.261   1.548
 6489TIP3    H119431   1.178   1.221   1.535
 6489TIP3    H219432   1.042   1.195   1.596
 6490TIP3   OH219433   4.383   4.007   1.617
 6490TIP3    H119434   4.430   4.087   1.641
 6490TIP3    H219435   4.425   3.938   1.669
 6491TIP3   OH219436   4.951   3.816   2.209
 6491TIP3    H119437   4.974   3.864   2.289
 6491TIP3    H219438   4.943   3.883   2.142
 6492TIP3   OH219439   4.567   3.874   3.491
 6492TIP3    H119440   4.549   3.947   3.431
 6492TIP3    H219441   4.480   3.839   3.512
 6493TIP3   OH219442   5.839   0.484   4.145
 6493TIP3    H119443   5.898   0.544   4.191
 6493TIP3    H219444   5.758   0.535   4.134
 6494TIP3   OH219445   2.920   0.544   4.272
 6494TIP3    H119446   2.964   0.487   4.335
 6494TIP3    H219447   2.846   0.581   4.320
 6495TIP3   OH219448   0.925   0.714   5.867
 6495TIP3    H119449   0.990   0.700   5.798
 6495TIP3    H219450   0.916   0.809   5.871
 6496TIP3   OH219451   4.424   0.325   4.095
 6496TIP3    H119452   4.436   0.343   4.188
 6496TIP3    H219453   4.339   0.364   4.074
 6497TIP3   OH219454   3.683   3.408   3.350
 6497TIP3    H119455   3.732   3.328   3.332
 6497TIP3    H219456   3.624   3.417   3.275
 6498TIP3   OH219457   7.034   1.678   4.681
 6498TIP3    H119458   7.079   1.736   4.743
 6498TIP3    H219459   7.058   1.712   4.595
 6499TIP3   OH219460   1.423   0.292   5.194
 6499TIP3    H119461   1.416   0.381   5.230
 6499TIP3    H219462   1.348   0.286   5.134
 6500TIP3   OH219463   5.412   5.523   5.804
 6500TIP3    H119464   5.436   5.612   5.780
 6500TIP3    H219465   5.479   5.497   5.867
 6501TIP3   OH219466   3.058   4.781   2.538
 6501TIP3    H119467   2.981   4.808   2.590
 6501TIP3    H219468   3.027   4.781   2.448
 6502TIP3   OH219469   5.910   3.233   3.759
 6502TIP3    H119470   6.005   3.233   3.775
 6502TIP3    H219471   5.900   3.192   3.673
 6503TIP3   OH219472   5.527   2.152   3.739
 6503TIP3    H119473   5.620   2.176   3.748
 6503TIP3    H219474   5.523   2.063   3.776
 6504TIP3   OH219475   6.502   4.227   5.022
 6504TIP3    H119476   6.571   4.217   4.956
 6504TIP3    H219477   6.523   4.161   5.089
 6505TIP3   OH219478   1.647   3.563   5.534
 6505TIP3    H119479   1.559   3.535   5.511
 6505TIP3    H219480   1.704   3.517   5.472
 6506TIP3   OH219481   0.565   0.705   2.778
 6506TIP3    H119482   0.592   0.619   2.748
 6506TIP3    H219483   0.602   0.713   2.866
 6507TIP3   OH219484   5.435   1.903   3.230
 6507TIP3    H119485   5.352   1.860   3.252
 6507TIP3    H219486   5.484   1.903   3.312
 6508TIP3   OH219487   3.824   2.716   0.142
 6508TIP3    H119488   3.853   2.694   0.231
 6508TIP3    H219489   3.789   2.804   0.149
 6509TIP3   OH219490   6.604   0.666   3.169
 6509TIP3    H119491   6.524   0.652   3.119
 6509TIP3    H219492   6.588   0.746   3.218
 6510TIP3   OH219493   3.846   4.320   2.172
 6510TIP3    H119494   3.817   4.323   2.081
 6510TIP3    H219495   3.770   4.347   2.223
 6511TIP3   OH219496   5.012   5.226   4.099
 6511TIP3    H119497   4.988   5.133   4.098
 6511TIP3    H219498   5.085   5.232   4.038
 6512TIP3   OH219499   4.123   2.330   0.810
 6512TIP3    H119500   4.127   2.418   0.772
 6512TIP3    H219501   4.043   2.292   0.774
 6513TIP3   OH219502   7.165   2.537   5.693
 6513TIP3    H119503   7.102   2.471   5.722
 6513TIP3    H219504   7.215   2.558   5.772
 6514TIP3   OH219505   3.211   0.175   5.589
 6514TIP3    H119506   3.164   0.211   5.513
 6514TIP3    H219507   3.263   0.103   5.554
 6515TIP3   OH219508   7.061   6.790   3.279
 6515TIP3    H119509   7.076   6.731   3.205
 6515TIP3    H219510   7.148   6.824   3.301
 6516TIP3   OH219511   3.025   3.058   0.405
 6516TIP3    H119512   3.011   2.964   0.404
 6516TIP3    H219513   2.996   3.086   0.492
 6517TIP3   OH219514   7.028   0.071   1.773
 6517TIP3    H119515   6.995   0.120   1.849
 6517TIP3    H219516   6.994  -0.018   1.786
 6518TIP3   OH219517   1.265   2.934   0.257
 6518TIP3    H119518   1.184   2.937   0.207
 6518TIP3    H219519   1.238   2.913   0.346
 6519TIP3   OH219520   4.164   0.459   2.276
 6519TIP3    H119521   4.196   0.452   2.186
 6519TIP3    H219522   4.068   0.461   2.267
 6520TIP3   OH219523   4.923   6.158   4.142
 6520TIP3    H119524   4.962   6.120   4.220
 6520TIP3    H219525   4.875   6.235   4.174
 6521TIP3   OH219526   5.349   2.595   3.973
 6521TIP3    H119527   5.355   2.613   4.067
 6521TIP3    H219528   5.334   2.501   3.967
 6522TIP3   OH219529   4.337   1.058   0.460
 6522TIP3    H119530   4.312   0.973   0.495
 6522TIP3    H219531   4.427   1.046   0.430
 6523TIP3   OH219532   0.478   3.420   3.439
 6523TIP3    H119533   0.517   3.449   3.356
 6523TIP3    H219534   0.510   3.331   3.451
 6524TIP3   OH219535   6.384   0.708   3.486
 6524TIP3    H119536   6.431   0.743   3.411
 6524TIP3    H219537   6.405   0.767   3.558
 6525TIP3   OH219538   5.657   1.536   1.195
 6525TIP3    H119539   5.649   1.478   1.119
 6525TIP3    H219540   5.747   1.568   1.190
 6526TIP3   OH219541   3.153   5.857   1.700
 6526TIP3    H119542   3.098   5.809   1.763
 6526TIP3    H219543   3.111   5.943   1.693
 6527TIP3   OH219544   4.895   5.059   4.830
 6527TIP3    H119545   4.936   5.023   4.908
 6527TIP3    H219546   4.868   4.983   4.779
 6528TIP3   OH219547   1.895   3.922   4.410
 6528TIP3    H119548   1.919   3.901   4.320
 6528TIP3    H219549   1.936   4.007   4.427
 6529TIP3   OH219550   6.665   4.138   3.372
 6529TIP3    H119551   6.573   4.151   3.351
 6529TIP3    H219552   6.690   4.060   3.323
 6530TIP3   OH219553   3.278   4.636   4.765
 6530TIP3    H119554   3.286   4.591   4.681
 6530TIP3    H219555   3.266   4.565   4.829
 6531TIP3   OH219556   4.972   6.294   3.900
 6531TIP3    H119557   5.062   6.270   3.877
 6531TIP3    H219558   4.962   6.264   3.991
 6532TIP3   OH219559   6.847   5.132   2.060
 6532TIP3    H119560   6.774   5.099   2.113
 6532TIP3    H219561   6.840   5.085   1.977
 6533TIP3   OH219562   3.581   0.890   3.283
 6533TIP3    H119563   3.519   0.963   3.278
 6533TIP3    H219564   3.660   0.929   3.321
 6534TIP3   OH219565   3.519   6.714   3.474
 6534TIP3    H119566   3.548   6.655   3.404
 6534TIP3    H219567   3.425   6.696   3.483
 6535TIP3   OH219568   0.809   5.113   3.071
 6535TIP3    H119569   0.740   5.047   3.074
 6535TIP3    H219570   0.844   5.106   2.982
 6536TIP3   OH219571   5.255   0.204   2.513
 6536TIP3    H119572   5.230   0.296   2.523
 6536TIP3    H219573   5.176   0.161   2.482
 6537TIP3   OH219574   3.675   3.927   3.297
 6537TIP3    H119575   3.693   3.835   3.315
 6537TIP3    H219576   3.637   3.960   3.379
 6538TIP3   OH219577   4.269   5.949   0.054
 6538TIP3    H119578   4.327   6.004   0.107
 6538TIP3    H219579   4.192   5.934   0.109
 6539TIP3   OH219580   7.061   4.867   0.861
 6539TIP3    H119581   7.046   4.957   0.888
 6539TIP3    H219582   7.095   4.875   0.771
 6540TIP3   OH219583   5.257   3.068   2.416
 6540TIP3    H119584   5.230   2.979   2.396
 6540TIP3    H219585   5.206   3.123   2.357
 6541TIP3   OH219586   0.830   3.166   3.183
 6541TIP3    H119587   0.920   3.168   3.218
 6541TIP3    H219588   0.785   3.237   3.228
 6542TIP3   OH219589   1.648   0.868   2.929
 6542TIP3    H119590   1.566   0.842   2.970
 6542TIP3    H219591   1.705   0.791   2.937
 6543TIP3   OH219592   4.797   4.908   0.620
 6543TIP3    H119593   4.854   4.983   0.635
 6543TIP3    H219594   4.856   4.837   0.596
 6544TIP3   OH219595   2.594   2.842   3.969
 6544TIP3    H119596   2.521   2.874   4.020
 6544TIP3    H219597   2.557   2.822   3.883
 6545TIP3   OH219598   6.161   1.630   1.063
 6545TIP3    H119599   6.065   1.637   1.061
 6545TIP3    H219600   6.184   1.599   0.975
 6546TIP3   OH219601   7.152   3.541   3.669
 6546TIP3    H119602   7.229   3.506   3.714
 6546TIP3    H219603   7.184   3.617   3.622
 6547TIP3   OH219604   0.720   5.940   5.177
 6547TIP3    H119605   0.683   5.892   5.251
 6547TIP3    H219606   0.796   5.889   5.150
 6548TIP3   OH219607   4.919   0.428   4.585
 6548TIP3    H119608   4.831   0.457   4.563
 6548TIP3    H219609   4.974   0.505   4.568
 6549TIP3   OH219610   4.138   4.703   0.567
 6549TIP3    H119611   4.108   4.736   0.483
 6549TIP3    H219612   4.227   4.673   0.551
 6550TIP3   OH219613   4.421   1.346   5.054
 6550TIP3    H119614   4.412   1.313   5.143
 6550TIP3    H219615   4.367   1.288   5.001
 6551TIP3   OH219616   6.336   1.764   4.545
 6551TIP3    H119617   6.337   1.781   4.451
 6551TIP3    H219618   6.246   1.735   4.563
 6552TIP3   OH219619   6.967   0.706   3.231
 6552TIP3    H119620   6.987   0.791   3.193
 6552TIP3    H219621   7.052   0.664   3.242
 6553TIP3   OH219622   1.232   3.747   2.850
 6553TIP3    H119623   1.163   3.713   2.793
 6553TIP3    H219624   1.248   3.836   2.818
 6554TIP3   OH219625   3.020   1.151   1.014
 6554TIP3    H119626   3.044   1.100   0.937
 6554TIP3    H219627   3.010   1.086   1.084
 6555TIP3   OH219628   3.996   0.219   2.173
 6555TIP3    H119629   3.946   0.173   2.106
 6555TIP3    H219630   4.084   0.182   2.168
 6556TIP3   OH219631   3.083   2.961   1.243
 6556TIP3    H119632   3.170   2.980   1.275
 6556TIP3    H219633   3.026   2.973   1.319
 6557TIP3   OH219634   2.461   3.645   2.181
 6557TIP3    H119635   2.464   3.642   2.085
 6557TIP3    H219636   2.445   3.554   2.207
 6558TIP3   OH219637   1.594   2.039   0.311
 6558TIP3    H119638   1.556   2.127   0.313
 6558TIP3    H219639   1.519   1.980   0.323
 6559TIP3   OH219640   4.459   3.863   3.026
 6559TIP3    H119641   4.480   3.846   2.934
 6559TIP3    H219642   4.526   3.925   3.054
 6560TIP3   OH219643   0.484   2.949   1.115
 6560TIP3    H119644   0.391   2.936   1.093
 6560TIP3    H219645   0.489   3.037   1.150
 6561TIP3   OH219646   5.235   1.611   5.837
 6561TIP3    H119647   5.172   1.546   5.867
 6561TIP3    H219648   5.235   1.602   5.742
 6562TIP3   OH219649   6.318   1.396   3.561
 6562TIP3    H119650   6.322   1.490   3.544
 6562TIP3    H219651   6.340   1.388   3.654
 6563TIP3   OH219652   1.597   3.916   4.655
 6563TIP3    H119653   1.663   3.872   4.602
 6563TIP3    H219654   1.578   3.997   4.608
 6564TIP3   OH219655   1.450   4.369   2.317
 6564TIP3    H119656   1.507   4.292   2.312
 6564TIP3    H219657   1.499   4.432   2.369
 6565TIP3   OH219658   4.961   0.699   1.693
 6565TIP3    H119659   5.041   0.689   1.745
 6565TIP3    H219660   4.918   0.614   1.698
 6566TIP3   OH219661   2.124   0.400   5.489
 6566TIP3    H119662   2.055   0.338   5.514
 6566TIP3    H219663   2.077   0.477   5.459
 6567TIP3   OH219664   6.559   3.381   1.663
 6567TIP3    H119665   6.623   3.312   1.682
 6567TIP3    H219666   6.490   3.337   1.613
 6568TIP3   OH219667   0.059   5.599   4.007
 6568TIP3    H119668   0.017   5.653   4.075
 6568TIP3    H219669   0.088   5.521   4.054
 6569TIP3   OH219670   6.054   4.640   1.214
 6569TIP3    H119671   6.100   4.716   1.253
 6569TIP3    H219672   5.961   4.660   1.226
 6570TIP3   OH219673   2.648   3.758   4.768
 6570TIP3    H119674   2.651   3.726   4.858
 6570TIP3    H219675   2.567   3.809   4.763
 6571TIP3   OH219676   4.352   2.417   5.104
 6571TIP3    H119677   4.408   2.340   5.095
 6571TIP3    H219678   4.263   2.382   5.104
 6572TIP3   OH219679   3.717   2.087   5.755
 6572TIP3    H119680   3.802   2.044   5.763
 6572TIP3    H219681   3.672   2.038   5.686
 6573TIP3   OH219682   3.229   3.665   4.274
 6573TIP3    H119683   3.294   3.631   4.212
 6573TIP3    H219684   3.239   3.760   4.268
 6574TIP3   OH219685   5.632   5.531   5.526
 6574TIP3    H119686   5.572   5.564   5.458
 6574TIP3    H219687   5.584   5.461   5.569
 6575TIP3   OH219688   4.494   1.280   4.577
 6575TIP3    H119689   4.415   1.313   4.534
 6575TIP3    H219690   4.566   1.331   4.539
 6576TIP3   OH219691   5.745   6.301   1.284
 6576TIP3    H119692   5.785   6.345   1.359
 6576TIP3    H219693   5.651   6.317   1.293
 6577TIP3   OH219694   3.285   0.796   3.613
 6577TIP3    H119695   3.253   0.802   3.703
 6577TIP3    H219696   3.236   0.723   3.575
 6578TIP3   OH219697   4.266   3.875   2.665
 6578TIP3    H119698   4.343   3.900   2.613
 6578TIP3    H219699   4.202   3.944   2.648
 6579TIP3   OH219700   2.055   3.775   2.290
 6579TIP3    H119701   2.014   3.721   2.222
 6579TIP3    H219702   2.122   3.718   2.329
 6580TIP3   OH219703   5.278   3.553   4.968
 6580TIP3    H119704   5.269   3.644   4.938
 6580TIP3    H219705   5.287   3.561   5.063
 6581TIP3   OH219706   3.606   6.383   2.993
 6581TIP3    H119707   3.670   6.320   3.025
 6581TIP3    H219708   3.522   6.348   3.023
 6582TIP3   OH219709   4.942   3.561   5.206
 6582TIP3    H119710   4.904   3.481   5.171
 6582TIP3    H219711   4.867   3.618   5.224
 6583TIP3   OH219712   1.570   0.922   4.781
 6583TIP3    H119713   1.534   0.967   4.857
 6583TIP3    H219714   1.494   0.881   4.739
 6584TIP3   OH219715   2.774   2.261   2.252
 6584TIP3    H119716   2.688   2.259   2.294
 6584TIP3    H219717   2.766   2.201   2.178
 6585TIP3   OH219718   5.142   3.224   3.979
 6585TIP3    H119719   5.085   3.301   3.977
 6585TIP3    H219720   5.162   3.212   4.071
 6586TIP3   OH219721   6.680   4.258   0.814
 6586TIP3    H119722   6.699   4.165   0.807
 6586TIP3    H219723   6.722   4.285   0.895
 6587TIP3   OH219724   0.935   4.375   4.454
 6587TIP3    H119725   1.009   4.413   4.406
 6587TIP3    H219726   0.975   4.320   4.520
 6588TIP3   OH219727   1.463   3.122   4.960
 6588TIP3    H119728   1.556   3.120   4.981
 6588TIP3    H219729   1.440   3.215   4.965
 6589TIP3   OH219730   0.187   5.319   0.967
 6589TIP3    H119731   0.216   5.257   0.900
 6589TIP3    H219732   0.149   5.392   0.918
 6590TIP3   OH219733   1.394   4.867   0.806
 6590TIP3    H119734   1.347   4.921   0.742
 6590TIP3    H219735   1.478   4.912   0.818
 6591TIP3   OH219736   1.691   5.184   4.312
 6591TIP3    H119737   1.721   5.138   4.391
 6591TIP3    H219738   1.765   5.179   4.252
 6592TIP3   OH219739   1.594   5.877   4.324
 6592TIP3    H119740   1.520   5.887   4.383
 6592TIP3    H219741   1.617   5.966   4.299
 6593TIP3   OH219742   1.228   3.968   1.304
 6593TIP3    H119743   1.218   3.957   1.399
 6593TIP3    H219744   1.226   4.062   1.290
 6594TIP3   OH219745   1.868   3.030   1.156
 6594TIP3    H119746   1.883   3.033   1.250
 6594TIP3    H219747   1.804   2.959   1.144
 6595TIP3   OH219748   6.157   0.551   3.622
 6595TIP3    H119749   6.228   0.584   3.567
 6595TIP3    H219750   6.104   0.628   3.642
 6596TIP3   OH219751   5.662   5.914   0.351
 6596TIP3    H119752   5.626   5.977   0.289
 6596TIP3    H219753   5.679   5.836   0.299
 6597TIP3   OH219754   4.307   2.877   0.992
 6597TIP3    H119755   4.396   2.850   1.015
 6597TIP3    H219756   4.252   2.803   1.016
 6598TIP3   OH219757   2.795   3.497   5.141
 6598TIP3    H119758   2.738   3.471   5.213
 6598TIP3    H219759   2.793   3.422   5.081
 6599TIP3   OH219760   2.106   0.112   2.248
 6599TIP3    H119761   2.094   0.197   2.289
 6599TIP3    H219762   2.060   0.051   2.306
 6600TIP3   OH219763   4.116   5.943   2.944
 6600TIP3    H119764   4.027   5.969   2.921
 6600TIP3    H219765   4.170   5.976   2.873
 6601TIP3   OH219766   2.609   5.103   1.061
 6601TIP3    H119767   2.546   5.167   1.093
 6601TIP3    H219768   2.595   5.026   1.117
 6602TIP3   OH219769   2.284   4.404   1.439
 6602TIP3    H119770   2.250   4.316   1.458
 6602TIP3    H219771   2.360   4.388   1.382
 6603TIP3   OH219772   0.538   0.403   1.766
 6603TIP3    H119773   0.503   0.322   1.729
 6603TIP3    H219774   0.612   0.425   1.709
 6604TIP3   OH219775   7.214   3.963   2.906
 6604TIP3    H119776   7.208   4.024   2.832
 6604TIP3    H219777   7.129   3.920   2.908
 6605TIP3   OH219778   6.185   1.093   5.367
 6605TIP3    H119779   6.230   1.120   5.287
 6605TIP3    H219780   6.223   1.008   5.389
 6606TIP3   OH219781   5.038   5.365   4.377
 6606TIP3    H119782   4.982   5.306   4.326
 6606TIP3    H219783   5.104   5.307   4.417
 6607TIP3   OH219784   3.876   2.219   4.858
 6607TIP3    H119785   3.921   2.256   4.783
 6607TIP3    H219786   3.856   2.295   4.913
 6608TIP3   OH219787   6.145   2.552   3.193
 6608TIP3    H119788   6.161   2.460   3.172
 6608TIP3    H219789   6.210   2.573   3.261
 6609TIP3   OH219790   3.678   1.682   0.126
 6609TIP3    H119791   3.721   1.757   0.085
 6609TIP3    H219792   3.745   1.642   0.180
 6610TIP3   OH219793   1.393   3.431   0.816
 6610TIP3    H119794   1.459   3.411   0.882
 6610TIP3    H219795   1.312   3.443   0.866
 6611TIP3   OH219796   2.283   5.875   1.090
 6611TIP3    H119797   2.311   5.950   1.038
 6611TIP3    H219798   2.363   5.844   1.133
 6612TIP3   OH219799   4.471   2.668   2.857
 6612TIP3    H119800   4.533   2.736   2.831
 6612TIP3    H219801   4.503   2.639   2.943
 6613TIP3   OH219802   7.012   1.574   4.324
 6613TIP3    H119803   7.092   1.586   4.273
 6613TIP3    H219804   6.951   1.639   4.289
 6614TIP3   OH219805   1.796   6.604   4.398
 6614TIP3    H119806   1.737   6.645   4.334
 6614TIP3    H219807   1.822   6.521   4.357
 6615TIP3   OH219808   4.749   4.396   1.089
 6615TIP3    H119809   4.840   4.418   1.107
 6615TIP3    H219810   4.720   4.349   1.167
 6616TIP3   OH219811   6.315   1.856   0.180
 6616TIP3    H119812   6.258   1.800   0.234
 6616TIP3    H219813   6.282   1.846   0.091
 6617TIP3   OH219814   3.090   4.879   0.535
 6617TIP3    H119815   3.078   4.973   0.543
 6617TIP3    H219816   3.001   4.843   0.542
 6618TIP3   OH219817   6.251   1.866   3.686
 6618TIP3    H119818   6.285   1.951   3.656
 6618TIP3    H219819   6.216   1.825   3.608
 6619TIP3   OH219820   1.878   0.123   3.824
 6619TIP3    H119821   1.970   0.113   3.851
 6619TIP3    H219822   1.849   0.033   3.808
 6620TIP3   OH219823   1.418   3.150   0.190
 6620TIP3    H119824   1.494   3.130   0.245
 6620TIP3    H219825   1.358   3.077   0.205
 6621TIP3   OH219826   0.949   5.282   3.819
 6621TIP3    H119827   0.963   5.190   3.796
 6621TIP3    H219828   1.017   5.302   3.883
 6622TIP3   OH219829   4.153   2.247   5.186
 6622TIP3    H119830   4.186   2.191   5.116
 6622TIP3    H219831   4.061   2.222   5.196
 6623TIP3   OH219832   2.919   3.780   0.609
 6623TIP3    H119833   2.945   3.819   0.692
 6623TIP3    H219834   2.984   3.812   0.546
 6624TIP3   OH219835   6.701   3.785   2.931
 6624TIP3    H119836   6.715   3.698   2.968
 6624TIP3    H219837   6.700   3.770   2.836
 6625TIP3   OH219838   0.725   0.538   0.733
 6625TIP3    H119839   0.789   0.466   0.725
 6625TIP3    H219840   0.763   0.597   0.798
 6626TIP3   OH219841   3.109   2.224   5.457
 6626TIP3    H119842   3.140   2.280   5.528
 6626TIP3    H219843   3.061   2.154   5.501
 6627TIP3   OH219844   6.351   4.983   2.333
 6627TIP3    H119845   6.339   4.898   2.376
 6627TIP3    H219846   6.273   4.993   2.277
 6628TIP3   OH219847   1.486   6.450   4.384
 6628TIP3    H119848   1.410   6.422   4.334
 6628TIP3    H219849   1.500   6.541   4.358
 6629TIP3   OH219850   6.544   1.096   0.421
 6629TIP3    H119851   6.510   1.149   0.349
 6629TIP3    H219852   6.577   1.017   0.379
 6630TIP3   OH219853   1.924   6.009   5.664
 6630TIP3    H119854   1.888   6.083   5.613
 6630TIP3    H219855   2.012   5.997   5.629
 6631TIP3   OH219856   4.878   2.476   4.486
 6631TIP3    H119857   4.913   2.454   4.399
 6631TIP3    H219858   4.839   2.563   4.475
 6632TIP3   OH219859   2.526   4.885   5.487
 6632TIP3    H119860   2.540   4.791   5.493
 6632TIP3    H219861   2.474   4.896   5.407
 6633TIP3   OH219862   1.662   0.559   5.486
 6633TIP3    H119863   1.566   0.556   5.482
 6633TIP3    H219864   1.683   0.532   5.575
 6634TIP3   OH219865   4.282   4.125   1.347
 6634TIP3    H119866   4.200   4.089   1.313
 6634TIP3    H219867   4.303   4.070   1.422
 6635TIP3   OH219868   5.984   0.987   0.956
 6635TIP3    H119869   5.956   1.012   1.044
 6635TIP3    H219870   6.077   0.964   0.966
 6636TIP3   OH219871   6.217   5.633   1.684
 6636TIP3    H119872   6.174   5.718   1.679
 6636TIP3    H219873   6.257   5.631   1.771
 6637TIP3   OH219874   0.865   6.295   5.708
 6637TIP3    H119875   0.847   6.248   5.627
 6637TIP3    H219876   0.949   6.260   5.738
 6638TIP3   OH219877   1.075   3.713   3.985
 6638TIP3    H119878   1.105   3.740   4.071
 6638TIP3    H219879   1.154   3.708   3.931
 6639TIP3   OH219880   6.823   5.914   3.619
 6639TIP3    H119881   6.743   5.908   3.672
 6639TIP3    H219882   6.802   5.870   3.537
 6640TIP3   OH219883   2.828   2.020   0.128
 6640TIP3    H119884   2.901   1.962   0.149
 6640TIP3    H219885   2.865   2.082   0.065
 6641TIP3   OH219886   6.321   4.396   5.847
 6641TIP3    H119887   6.358   4.308   5.855
 6641TIP3    H219888   6.345   4.439   5.929
 6642TIP3   OH219889   1.577   6.047   2.190
 6642TIP3    H119890   1.594   5.994   2.112
 6642TIP3    H219891   1.641   6.119   2.184
 6643TIP3   OH219892   6.009   3.403   1.469
 6643TIP3    H119893   6.057   3.414   1.387
 6643TIP3    H219894   5.942   3.472   1.468
 6644TIP3   OH219895   6.523   5.874   4.939
 6644TIP3    H119896   6.440   5.832   4.962
 6644TIP3    H219897   6.572   5.807   4.890
 6645TIP3   OH219898   3.045   6.307   4.762
 6645TIP3    H119899   3.118   6.358   4.726
 6645TIP3    H219900   3.080   6.218   4.772
 6646TIP3   OH219901   2.842   2.927   3.159
 6646TIP3    H119902   2.871   3.011   3.194
 6646TIP3    H219903   2.809   2.880   3.236
 6647TIP3   OH219904   4.968   2.340   0.212
 6647TIP3    H119905   4.920   2.303   0.286
 6647TIP3    H219906   4.997   2.426   0.243
 6648TIP3   OH219907   1.155   0.302   5.150
 6648TIP3    H119908   1.144   0.208   5.139
 6648TIP3    H219909   1.111   0.322   5.233
 6649TIP3   OH219910   6.409   2.072   1.218
 6649TIP3    H119911   6.353   2.149   1.229
 6649TIP3    H219912   6.349   2.003   1.189
 6650TIP3   OH219913   0.101   0.950   3.102
 6650TIP3    H119914   0.011   0.934   3.131
 6650TIP3    H219915   0.102   0.923   3.010
 6651TIP3   OH219916   2.288   6.709   5.418
 6651TIP3    H119917   2.212   6.656   5.444
 6651TIP3    H219918   2.251   6.782   5.368
 6652TIP3   OH219919   5.909   2.558   2.745
 6652TIP3    H119920   5.976   2.496   2.773
 6652TIP3    H219921   5.898   2.617   2.819
 6653TIP3   OH219922   5.405   2.491   1.097
 6653TIP3    H119923   5.489   2.524   1.063
 6653TIP3    H219924   5.398   2.532   1.183
 6654TIP3   OH219925   3.573   2.405   2.408
 6654TIP3    H119926   3.536   2.493   2.411
 6654TIP3    H219927   3.539   2.367   2.327
 6655TIP3   OH219928   2.096   1.122   0.296
 6655TIP3    H119929   2.035   1.080   0.235
 6655TIP3    H219930   2.161   1.054   0.314
 6656TIP3   OH219931   2.546   2.973   5.584
 6656TIP3    H119932   2.505   2.891   5.558
 6656TIP3    H219933   2.637   2.949   5.602
 6657TIP3   OH219934   0.690   2.302   2.419
 6657TIP3    H119935   0.753   2.371   2.399
 6657TIP3    H219936   0.615   2.348   2.457
 6658TIP3   OH219937   2.036   1.581   2.639
 6658TIP3    H119938   1.989   1.660   2.666
 6658TIP3    H219939   1.980   1.509   2.670
 6659TIP3   OH219940   4.335   1.981   3.775
 6659TIP3    H119941   4.425   1.952   3.788
 6659TIP3    H219942   4.340   2.047   3.707
 6660TIP3   OH219943   0.307   5.044   0.822
 6660TIP3    H119944   0.253   5.020   0.747
 6660TIP3    H219945   0.344   4.961   0.853
 6661TIP3   OH219946   3.634   5.797   4.374
 6661TIP3    H119947   3.580   5.800   4.453
 6661TIP3    H219948   3.614   5.713   4.334
 6662TIP3   OH219949   1.721   2.583   3.046
 6662TIP3    H119950   1.696   2.621   3.130
 6662TIP3    H219951   1.778   2.649   3.006
 6663TIP3   OH219952   5.968   2.014   4.610
 6663TIP3    H119953   6.045   2.055   4.568
 6663TIP3    H219954   6.001   1.931   4.643
 6664TIP3   OH219955   1.212   2.421   1.503
 6664TIP3    H119956   1.167   2.360   1.444
 6664TIP3    H219957   1.300   2.429   1.466
 6665TIP3   OH219958   0.413   3.309   0.657
 6665TIP3    H119959   0.504   3.323   0.631
 6665TIP3    H219960   0.362   3.360   0.596
 6666TIP3   OH219961   6.249   2.790   5.742
 6666TIP3    H119962   6.247   2.747   5.656
 6666TIP3    H219963   6.170   2.844   5.743
 6667TIP3   OH219964   1.001   6.580   3.551
 6667TIP3    H119965   1.078   6.597   3.496
 6667TIP3    H219966   1.038   6.551   3.635
 6668TIP3   OH219967   0.986   1.450   1.375
 6668TIP3    H119968   0.990   1.389   1.449
 6668TIP3    H219969   1.026   1.401   1.302
 6669TIP3   OH219970   6.784   5.721   0.493
 6669TIP3    H119971   6.700   5.749   0.456
 6669TIP3    H219972   6.760   5.657   0.560
 6670TIP3   OH219973   0.105   3.343   0.964
 6670TIP3    H119974   0.084   3.250   0.962
 6670TIP3    H219975   0.025   3.384   0.997
 6671TIP3   OH219976   6.011   0.958   2.131
 6671TIP3    H119977   5.915   0.958   2.134
 6671TIP3    H219978   6.037   0.974   2.222
 6672TIP3   OH219979   5.469   5.887   2.247
 6672TIP3    H119980   5.487   5.948   2.175
 6672TIP3    H219981   5.432   5.941   2.316
 6673TIP3   OH219982   1.683   5.230   3.157
 6673TIP3    H119983   1.761   5.188   3.122
 6673TIP3    H219984   1.649   5.282   3.084
 6674TIP3   OH219985   1.839   1.193   1.206
 6674TIP3    H119986   1.794   1.113   1.233
 6674TIP3    H219987   1.914   1.162   1.155
 6675TIP3   OH219988   1.173   3.738   2.452
 6675TIP3    H119989   1.247   3.697   2.497
 6675TIP3    H219990   1.192   3.832   2.455
 6676TIP3   OH219991   3.910   2.897   3.677
 6676TIP3    H119992   3.867   2.886   3.592
 6676TIP3    H219993   3.851   2.952   3.727
 6677TIP3   OH219994   0.020   0.738   5.177
 6677TIP3    H119995   0.026   0.831   5.158
 6677TIP3    H219996   0.012   0.733   5.272
 6678TIP3   OH219997   2.978   4.211   2.554
 6678TIP3    H119998   2.988   4.201   2.648
 6678TIP3    H219999   2.885   4.197   2.537
 6679TIP3   OH220000   0.503   4.078   1.445
 6679TIP3    H120001   0.557   4.143   1.491
 6679TIP3    H220002   0.455   4.129   1.380
 6680TIP3   OH220003   1.724   1.820   3.822
 6680TIP3    H120004   1.747   1.911   3.839
 6680TIP3    H220005   1.720   1.813   3.727
 6681TIP3   OH220006   0.345   0.385   4.248
 6681TIP3    H120007   0.392   0.407   4.328
 6681TIP3    H220008   0.397   0.424   4.178
 6682TIP3   OH220009   6.457   0.191   4.742
 6682TIP3    H120010   6.508   0.218   4.819
 6682TIP3    H220011   6.401   0.267   4.723
 6683TIP3   OH220012   2.051   1.201   3.545
 6683TIP3    H120013   2.057   1.203   3.450
 6683TIP3    H220014   2.034   1.292   3.570
 6684TIP3   OH220015   2.736   5.401   4.022
 6684TIP3    H120016   2.662   5.415   4.082
 6684TIP3    H220017   2.715   5.454   3.945
 6685TIP3   OH220018   6.798   1.099   4.909
 6685TIP3    H120019   6.798   1.179   4.856
 6685TIP3    H220020   6.771   1.030   4.847
 6686TIP3   OH220021   2.254   0.960   5.294
 6686TIP3    H120022   2.282   0.910   5.371
 6686TIP3    H220023   2.158   0.962   5.300
 6687TIP3   OH220024   2.689   6.027   3.044
 6687TIP3    H120025   2.646   6.026   3.129
 6687TIP3    H220026   2.617   6.034   2.981
 6688TIP3   OH220027   5.341   1.216   3.881
 6688TIP3    H120028   5.405   1.285   3.863
 6688TIP3    H220029   5.320   1.179   3.794
 6689TIP3   OH220030   2.694   2.770   0.057
 6689TIP3    H120031   2.650   2.836   0.003
 6689TIP3    H220032   2.671   2.793   0.147
 6690TIP3   OH220033   3.813   6.541   1.412
 6690TIP3    H120034   3.782   6.451   1.422
 6690TIP3    H220035   3.879   6.536   1.343
 6691TIP3   OH220036   4.452   6.462   0.732
 6691TIP3    H120037   4.489   6.416   0.806
 6691TIP3    H220038   4.441   6.552   0.763
 6692TIP3   OH220039   3.087   2.437   1.920
 6692TIP3    H120040   2.999   2.444   1.883
 6692TIP3    H220041   3.072   2.416   2.013
 6693TIP3   OH220042   3.410   1.817   1.746
 6693TIP3    H120043   3.466   1.844   1.673
 6693TIP3    H220044   3.435   1.727   1.764
 6694TIP3   OH220045   3.105   0.428   1.448
 6694TIP3    H120046   3.088   0.374   1.371
 6694TIP3    H220047   3.130   0.513   1.413
 6695TIP3   OH220048   5.645   5.882   1.668
 6695TIP3    H120049   5.697   5.808   1.638
 6695TIP3    H220050   5.639   5.941   1.593
 6696TIP3   OH220051   6.871   0.056   2.416
 6696TIP3    H120052   6.934  -0.003   2.375
 6696TIP3    H220053   6.786   0.024   2.385
 6697TIP3   OH220054   4.523   6.729   4.832
 6697TIP3    H120055   4.552   6.638   4.826
 6697TIP3    H220056   4.511   6.758   4.742
 6698TIP3   OH220057   3.525   1.918   3.389
 6698TIP3    H120058   3.610   1.906   3.348
 6698TIP3    H220059   3.538   1.991   3.450
 6699TIP3   OH220060   2.877   1.154   1.531
 6699TIP3    H120061   2.960   1.197   1.507
 6699TIP3    H220062   2.834   1.138   1.447
 6700TIP3   OH220063   1.783   2.836   4.664
 6700TIP3    H120064   1.704   2.783   4.668
 6700TIP3    H220065   1.767   2.907   4.727
 6701TIP3   OH220066   3.604   2.896   1.030
 6701TIP3    H120067   3.671   2.964   1.021
 6701TIP3    H220068   3.522   2.944   1.030
 6702TIP3   OH220069   2.153   6.463   0.116
 6702TIP3    H120070   2.077   6.519   0.132
 6702TIP3    H220071   2.169   6.421   0.201
 6703TIP3   OH220072   3.643   1.828   4.319
 6703TIP3    H120073   3.553   1.822   4.350
 6703TIP3    H220074   3.635   1.851   4.226
 6704TIP3   OH220075   1.694   6.463   1.171
 6704TIP3    H120076   1.638   6.525   1.123
 6704TIP3    H220077   1.699   6.386   1.114
 6705TIP3   OH220078   2.439   0.131   3.394
 6705TIP3    H120079   2.391   0.104   3.472
 6705TIP3    H220080   2.475   0.217   3.417
 6706TIP3   OH220081   5.950   2.315   4.664
 6706TIP3    H120082   5.987   2.347   4.582
 6706TIP3    H220083   5.996   2.363   4.732
 6707TIP3   OH220084   2.219   0.422   4.929
 6707TIP3    H120085   2.228   0.328   4.946
 6707TIP3    H220086   2.133   0.444   4.965
 6708TIP3   OH220087   0.969   6.236   0.991
 6708TIP3    H120088   0.970   6.279   1.076
 6708TIP3    H220089   0.877   6.240   0.963
 6709TIP3   OH220090   5.981   4.133   1.449
 6709TIP3    H120091   5.958   4.210   1.502
 6709TIP3    H220092   6.061   4.099   1.490
 6710TIP3   OH220093   2.946   3.126   2.933
 6710TIP3    H120094   2.937   3.054   2.995
 6710TIP3    H220095   2.920   3.088   2.849
 6711TIP3   OH220096   7.028   4.363   2.156
 6711TIP3    H120097   6.979   4.281   2.164
 6711TIP3    H220098   7.044   4.390   2.247
 6712TIP3   OH220099   5.628   3.422   4.313
 6712TIP3    H120100   5.570   3.485   4.356
 6712TIP3    H220101   5.640   3.457   4.225
 6713TIP3   OH220102   0.645   5.566   1.900
 6713TIP3    H120103   0.565   5.585   1.850
 6713TIP3    H220104   0.700   5.516   1.839
 6714TIP3   OH220105   4.051   3.682   3.168
 6714TIP3    H120106   3.994   3.746   3.211
 6714TIP3    H220107   4.007   3.662   3.085
 6715TIP3   OH220108   5.251   3.510   1.997
 6715TIP3    H120109   5.340   3.486   2.024
 6715TIP3    H220110   5.213   3.551   2.074
 6716TIP3   OH220111   5.324   0.101   5.212
 6716TIP3    H120112   5.257   0.163   5.186
 6716TIP3    H220113   5.284   0.051   5.284
 6717TIP3   OH220114   4.062   5.949   5.806
 6717TIP3    H120115   3.982   5.961   5.857
 6717TIP3    H220116   4.125   5.912   5.868
 6718TIP3   OH220117   0.742   0.136   2.073
 6718TIP3    H120118   0.825   0.164   2.034
 6718TIP3    H220119   0.767   0.081   2.147
 6719TIP3   OH220120   2.217   0.571   3.895
 6719TIP3    H120121   2.153   0.505   3.922
 6719TIP3    H220122   2.179   0.654   3.924
 6720TIP3   OH220123   4.707   6.176   0.194
 6720TIP3    H120124   4.655   6.096   0.189
 6720TIP3    H220125   4.707   6.198   0.288
 6721TIP3   OH220126   1.150   0.831   2.461
 6721TIP3    H120127   1.207   0.795   2.530
 6721TIP3    H220128   1.186   0.918   2.443
 6722TIP3   OH220129   3.006   2.150   5.062
 6722TIP3    H120130   2.944   2.096   5.112
 6722TIP3    H220131   2.956   2.182   4.988
 6723TIP3   OH220132   1.139   5.966   4.073
 6723TIP3    H120133   1.046   5.979   4.094
 6723TIP3    H220134   1.139   5.896   4.007
 6724TIP3   OH220135   4.845   2.076   2.853
 6724TIP3    H120136   4.861   2.168   2.876
 6724TIP3    H220137   4.908   2.059   2.783
 6725TIP3   OH220138   3.576   1.936   1.568
 6725TIP3    H120139   3.566   2.028   1.593
 6725TIP3    H220140   3.668   1.927   1.545
 6726TIP3   OH220141   3.259   1.904   4.816
 6726TIP3    H120142   3.234   1.889   4.907
 6726TIP3    H220143   3.354   1.907   4.817
 6727TIP3   OH220144   3.464   0.001   0.513
 6727TIP3    H120145   3.534   0.017   0.449
 6727TIP3    H220146   3.393   0.059   0.485
 6728TIP3   OH220147   2.950   6.428   4.306
 6728TIP3    H120148   3.004   6.465   4.237
 6728TIP3    H220149   2.961   6.333   4.297
 6729TIP3   OH220150   5.874   0.913   4.197
 6729TIP3    H120151   5.908   0.939   4.112
 6729TIP3    H220152   5.928   0.839   4.223
 6730TIP3   OH220153   5.884   3.088   0.420
 6730TIP3    H120154   5.866   3.083   0.514
 6730TIP3    H220155   5.979   3.100   0.415
 6731TIP3   OH220156   5.585   6.030   0.739
 6731TIP3    H120157   5.578   6.125   0.734
 6731TIP3    H220158   5.634   6.005   0.660
 6732TIP3   OH220159   2.072   2.740   0.211
 6732TIP3    H120160   2.161   2.706   0.224
 6732TIP3    H220161   2.019   2.692   0.274
 6733TIP3   OH220162   2.075   2.519   0.934
 6733TIP3    H120163   1.985   2.490   0.952
 6733TIP3    H220164   2.127   2.481   1.004
 6734TIP3   OH220165   0.182   1.937   2.825
 6734TIP3    H120166   0.173   1.993   2.902
 6734TIP3    H220167   0.127   1.861   2.844
 6735TIP3   OH220168   0.053   0.570   1.974
 6735TIP3    H120169   0.131   0.519   1.994
 6735TIP3    H220170   0.074   0.658   2.005
 6736TIP3   OH220171   0.006   6.343   4.234
 6736TIP3    H120172  -0.004   6.253   4.263
 6736TIP3    H220173   0.096   6.349   4.203
 6737TIP3   OH220174   2.302   0.041   3.619
 6737TIP3    H120175   2.342   0.085   3.694
 6737TIP3    H220176   2.291  -0.050   3.648
 6738TIP3   OH220177   1.899   4.961   4.371
 6738TIP3    H120178   1.865   4.960   4.460
 6738TIP3    H220179   1.914   4.869   4.350
 6739TIP3   OH220180   6.456   3.520   3.340
 6739TIP3    H120181   6.368   3.551   3.320
 6739TIP3    H220182   6.457   3.430   3.307
 6740TIP3   OH220183   3.822   2.331   2.547
 6740TIP3    H120184   3.733   2.355   2.523
 6740TIP3    H220185   3.826   2.345   2.642
 6741TIP3   OH220186   5.607   3.261   4.588
 6741TIP3    H120187   5.554   3.195   4.632
 6741TIP3    H220188   5.559   3.342   4.599
 6742TIP3   OH220189   3.217   2.584   3.008
 6742TIP3    H120190   3.216   2.579   2.912
 6742TIP3    H220191   3.199   2.676   3.027
 6743TIP3   OH220192   6.234   5.506   5.445
 6743TIP3    H120193   6.251   5.444   5.374
 6743TIP3    H220194   6.265   5.462   5.524
 6744TIP3   OH220195   2.549   1.742   3.515
 6744TIP3    H120196   2.555   1.752   3.610
 6744TIP3    H220197   2.633   1.776   3.482
 6745TIP3   OH220198   5.521   0.130   0.403
 6745TIP3    H120199   5.543   0.205   0.349
 6745TIP3    H220200   5.476   0.167   0.479
 6746TIP3   OH220201   4.539   3.495   4.749
 6746TIP3    H120202   4.446   3.513   4.765
 6746TIP3    H220203   4.548   3.495   4.654
 6747TIP3   OH220204   6.588   1.695   3.988
 6747TIP3    H120205   6.631   1.775   3.957
 6747TIP3    H220206   6.520   1.678   3.922
 6748TIP3   OH220207   0.559   0.930   4.515
 6748TIP3    H120208   0.566   0.899   4.424
 6748TIP3    H220209   0.465   0.926   4.534
 6749TIP3   OH220210   2.077   2.442   5.253
 6749TIP3    H120211   2.010   2.373   5.260
 6749TIP3    H220212   2.110   2.452   5.342
 6750TIP3   OH220213   2.548   5.429   1.762
 6750TIP3    H120214   2.544   5.354   1.703
 6750TIP3    H220215   2.567   5.503   1.704
 6751TIP3   OH220216   5.549   5.665   3.332
 6751TIP3    H120217   5.454   5.670   3.335
 6751TIP3    H220218   5.568   5.606   3.259
 6752TIP3   OH220219   7.071   5.778   4.980
 6752TIP3    H120220   7.066   5.873   4.985
 6752TIP3    H220221   7.143   5.755   5.039
 6753TIP3   OH220222   6.577   4.584   2.084
 6753TIP3    H120223   6.664   4.625   2.086
 6753TIP3    H220224   6.590   4.500   2.129
 6754TIP3   OH220225   5.108   6.810   4.190
 6754TIP3    H120226   5.014   6.808   4.175
 6754TIP3    H220227   5.137   6.720   4.172
 6755TIP3   OH220228   6.303   6.759   2.133
 6755TIP3    H120229   6.362   6.708   2.189
 6755TIP3    H220230   6.258   6.693   2.080
 6756TIP3   OH220231   5.588   3.143   5.595
 6756TIP3    H120232   5.512   3.177   5.643
 6756TIP3    H220233   5.557   3.131   5.506
 6757TIP3   OH220234   3.568   2.372   3.353
 6757TIP3    H120235   3.652   2.331   3.371
 6757TIP3    H220236   3.517   2.304   3.310
 6758TIP3   OH220237   1.937   3.309   3.387
 6758TIP3    H120238   1.985   3.226   3.386
 6758TIP3    H220239   1.852   3.287   3.425
 6759TIP3   OH220240   5.391   6.341   5.241
 6759TIP3    H120241   5.438   6.267   5.280
 6759TIP3    H220242   5.303   6.306   5.223
 6760TIP3   OH220243   3.229   0.874   5.848
 6760TIP3    H120244   3.143   0.902   5.881
 6760TIP3    H220245   3.260   0.948   5.796
 6761TIP3   OH220246   2.282   1.089   3.654
 6761TIP3    H120247   2.360   1.136   3.683
 6761TIP3    H220248   2.234   1.152   3.601
 6762TIP3   OH220249   1.308   0.051   5.743
 6762TIP3    H120250   1.276   0.108   5.813
 6762TIP3    H220251   1.392   0.018   5.775
 6763TIP3   OH220252   2.470   1.364   2.835
 6763TIP3    H120253   2.448   1.385   2.926
 6763TIP3    H220254   2.403   1.409   2.784
 6764TIP3   OH220255   6.872   2.644   5.784
 6764TIP3    H120256   6.918   2.698   5.848
 6764TIP3    H220257   6.935   2.577   5.759
 6765TIP3   OH220258   5.505   3.036   0.356
 6765TIP3    H120259   5.578   3.034   0.419
 6765TIP3    H220260   5.488   2.944   0.336
 6766TIP3   OH220261   0.347   6.759   1.147
 6766TIP3    H120262   0.265   6.709   1.155
 6766TIP3    H220263   0.362   6.794   1.234
 6767TIP3   OH220264   1.528   3.066   4.675
 6767TIP3    H120265   1.472   3.135   4.639
 6767TIP3    H220266   1.545   3.093   4.765
 6768TIP3   OH220267   4.755   2.700   4.407
 6768TIP3    H120268   4.664   2.677   4.391
 6768TIP3    H220269   4.794   2.705   4.320
 6769TIP3   OH220270   6.124   1.310   2.966
 6769TIP3    H120271   6.143   1.253   3.040
 6769TIP3    H220272   6.207   1.353   2.946
 6770TIP3   OH220273   4.469   3.677   1.963
 6770TIP3    H120274   4.396   3.677   2.024
 6770TIP3    H220275   4.538   3.627   2.008
 6771TIP3   OH220276   3.217   2.225   1.741
 6771TIP3    H120277   3.190   2.160   1.805
 6771TIP3    H220278   3.165   2.303   1.762
 6772TIP3   OH220279   2.358   6.143   1.996
 6772TIP3    H120280   2.322   6.129   1.908
 6772TIP3    H220281   2.298   6.095   2.054
 6773TIP3   OH220282   2.004   2.309   4.071
 6773TIP3    H120283   1.961   2.248   4.130
 6773TIP3    H220284   2.058   2.364   4.128
 6774TIP3   OH220285   6.156   1.794   5.339
 6774TIP3    H120286   6.238   1.789   5.388
 6774TIP3    H220287   6.118   1.878   5.365
 6775TIP3   OH220288   5.727   0.931   2.181
 6775TIP3    H120289   5.696   0.891   2.262
 6775TIP3    H220290   5.653   0.983   2.150
 6776TIP3   OH220291   6.403   5.115   1.281
 6776TIP3    H120292   6.410   5.087   1.372
 6776TIP3    H220293   6.310   5.137   1.270
 6777TIP3   OH220294   2.023   3.802   1.070
 6777TIP3    H120295   2.094   3.864   1.086
 6777TIP3    H220296   2.058   3.740   1.007
 6778TIP3   OH220297   1.504   1.392   0.040
 6778TIP3    H120298   1.568   1.324   0.060
 6778TIP3    H220299   1.470   1.419   0.125
 6779TIP3   OH220300   3.575   2.406   5.630
 6779TIP3    H120301   3.670   2.402   5.635
 6779TIP3    H220302   3.551   2.337   5.568
 6780TIP3   OH220303   6.714   2.251   5.414
 6780TIP3    H120304   6.664   2.201   5.350
 6780TIP3    H220305   6.649   2.285   5.475
 6781TIP3   OH220306   5.201   3.735   3.845
 6781TIP3    H120307   5.223   3.663   3.786
 6781TIP3    H220308   5.284   3.757   3.887
 6782TIP3   OH220309   5.357   3.547   0.971
 6782TIP3    H120310   5.363   3.482   0.900
 6782TIP3    H220311   5.426   3.610   0.952
 6783TIP3   OH220312   1.315   5.961   1.947
 6783TIP3    H120313   1.229   5.980   1.984
 6783TIP3    H220314   1.360   6.045   1.946
 6784TIP3   OH220315   7.112   4.091   2.651
 6784TIP3    H120316   7.095   4.159   2.716
 6784TIP3    H220317   7.047   4.107   2.582
 6785TIP3   OH220318   1.093   1.169   5.881
 6785TIP3    H120319   1.136   1.216   5.809
 6785TIP3    H220320   1.165   1.134   5.933
 6786TIP3   OH220321   2.984   3.368   1.248
 6786TIP3    H120322   3.027   3.369   1.334
 6786TIP3    H220323   2.911   3.429   1.258
 6787TIP3   OH220324   4.866   1.246   3.965
 6787TIP3    H120325   4.831   1.304   3.897
 6787TIP3    H220326   4.805   1.256   4.038
 6788TIP3   OH220327   0.409   4.698   3.017
 6788TIP3    H120328   0.442   4.773   2.968
 6788TIP3    H220329   0.384   4.735   3.102
 6789TIP3   OH220330   2.827   2.734   1.277
 6789TIP3    H120331   2.918   2.703   1.268
 6789TIP3    H220332   2.794   2.737   1.187
 6790TIP3   OH220333   2.514   6.766   3.217
 6790TIP3    H120334   2.606   6.755   3.192
 6790TIP3    H220335   2.504   6.711   3.295
 6791TIP3   OH220336   5.715   1.175   5.237
 6791TIP3    H120337   5.739   1.086   5.264
 6791TIP3    H220338   5.635   1.194   5.286
 6792TIP3   OH220339   5.919   4.589   2.809
 6792TIP3    H120340   5.903   4.497   2.830
 6792TIP3    H220341   5.832   4.625   2.790
 6793TIP3   OH220342   7.121   1.097   0.922
 6793TIP3    H120343   7.066   1.024   0.892
 6793TIP3    H220344   7.162   1.065   1.002
 6794TIP3   OH220345   3.760   0.796   5.361
 6794TIP3    H120346   3.760   0.704   5.389
 6794TIP3    H220347   3.667   0.821   5.361
 6795TIP3   OH220348   0.852   6.042   3.758
 6795TIP3    H120349   0.768   6.024   3.801
 6795TIP3    H220350   0.830   6.048   3.665
 6796TIP3   OH220351   5.942   1.485   0.381
 6796TIP3    H120352   5.856   1.524   0.366
 6796TIP3    H220353   5.942   1.406   0.328
 6797TIP3   OH220354   0.082   5.964   5.522
 6797TIP3    H120355   0.021   5.928   5.458
 6797TIP3    H220356   0.047   5.937   5.607
 6798TIP3   OH220357   5.195   3.566   2.688
 6798TIP3    H120358   5.277   3.525   2.714
 6798TIP3    H220359   5.158   3.506   2.623
 6799TIP3   OH220360   1.662   3.858   4.941
 6799TIP3    H120361   1.717   3.780   4.934
 6799TIP3    H220362   1.625   3.870   4.854
 6800TIP3   OH220363   6.299   5.777   3.224
 6800TIP3    H120364   6.246   5.851   3.253
 6800TIP3    H220365   6.383   5.789   3.270
 6801TIP3   OH220366   0.592   6.737   0.681
 6801TIP3    H120367   0.678   6.696   0.675
 6801TIP3    H220368   0.574   6.744   0.774
 6802TIP3   OH220369   1.143   5.912   4.522
 6802TIP3    H120370   1.205   5.861   4.470
 6802TIP3    H220371   1.129   5.860   4.601
 6803TIP3   OH220372   1.000   1.984   4.759
 6803TIP3    H120373   0.985   1.897   4.722
 6803TIP3    H220374   1.080   2.015   4.716
 6804TIP3   OH220375   1.829   2.754   1.162
 6804TIP3    H120376   1.757   2.696   1.187
 6804TIP3    H220377   1.869   2.779   1.245
 6805TIP3   OH220378   2.580   0.102   5.558
 6805TIP3    H120379   2.611   0.070   5.474
 6805TIP3    H220380   2.621   0.188   5.568
 6806TIP3   OH220381   1.201   4.262   2.469
 6806TIP3    H120382   1.132   4.298   2.413
 6806TIP3    H220383   1.278   4.316   2.450
 6807TIP3   OH220384   4.077   3.447   1.622
 6807TIP3    H120385   4.042   3.536   1.613
 6807TIP3    H220386   4.021   3.394   1.566
 6808TIP3   OH220387   4.671   5.086   5.469
 6808TIP3    H120388   4.701   5.160   5.523
 6808TIP3    H220389   4.732   5.015   5.489
 6809TIP3   OH220390   4.961   1.542   0.112
 6809TIP3    H120391   4.972   1.507   0.200
 6809TIP3    H220392   4.870   1.522   0.089
 6810TIP3   OH220393   6.297   2.324   2.151
 6810TIP3    H120394   6.321   2.398   2.095
 6810TIP3    H220395   6.240   2.362   2.218
 6811TIP3   OH220396   5.749   5.728   2.309
 6811TIP3    H120397   5.718   5.790   2.375
 6811TIP3    H220398   5.673   5.710   2.255
 6812TIP3   OH220399   6.506   3.010   4.886
 6812TIP3    H120400   6.458   2.955   4.824
 6812TIP3    H220401   6.551   3.074   4.831
 6813TIP3   OH220402   2.887   2.538   0.521
 6813TIP3    H120403   2.893   2.535   0.425
 6813TIP3    H220404   2.974   2.566   0.550
 6814TIP3   OH220405   5.873   3.610   0.203
 6814TIP3    H120406   5.878   3.520   0.237
 6814TIP3    H220407   5.844   3.661   0.278
 6815TIP3   OH220408   1.984   3.818   5.639
 6815TIP3    H120409   1.953   3.736   5.602
 6815TIP3    H220410   1.953   3.885   5.578
 6816TIP3   OH220411   3.424   2.428   2.794
 6816TIP3    H120412   3.475   2.506   2.817
 6816TIP3    H220413   3.333   2.459   2.794
 6817TIP3   OH220414   1.102   2.464   2.301
 6817TIP3    H120415   1.093   2.527   2.372
 6817TIP3    H220416   1.164   2.504   2.241
 6818TIP3   OH220417   2.153   0.523   0.062
 6818TIP3    H120418   2.068   0.545   0.023
 6818TIP3    H220419   2.202   0.483  -0.010
 6819TIP3   OH220420   0.327   2.327   1.598
 6819TIP3    H120421   0.241   2.312   1.637
 6819TIP3    H220422   0.388   2.329   1.672
 6820TIP3   OH220423   0.773   5.644   5.553
 6820TIP3    H120424   0.773   5.680   5.641
 6820TIP3    H220425   0.796   5.551   5.565
 6821TIP3   OH220426   6.276   5.394   3.778
 6821TIP3    H120427   6.333   5.370   3.704
 6821TIP3    H220428   6.217   5.320   3.787
 6822TIP3   OH220429   3.496   2.233   5.379
 6822TIP3    H120430   3.513   2.266   5.290
 6822TIP3    H220431   3.403   2.252   5.393
 6823TIP3   OH220432   3.921   5.104   5.267
 6823TIP3    H120433   3.856   5.080   5.334
 6823TIP3    H220434   3.870   5.154   5.203
 6824TIP3   OH220435   1.155   6.570   0.293
 6824TIP3    H120436   1.084   6.598   0.349
 6824TIP3    H220437   1.144   6.476   0.285
 6825TIP3   OH220438   1.697   1.316   1.899
 6825TIP3    H120439   1.666   1.227   1.880
 6825TIP3    H220440   1.721   1.352   1.814
 6826TIP3   OH220441   4.289   4.182   2.572
 6826TIP3    H120442   4.226   4.201   2.642
 6826TIP3    H220443   4.291   4.262   2.520
 6827TIP3   OH220444   2.501   1.002   1.330
 6827TIP3    H120445   2.590   1.031   1.345
 6827TIP3    H220446   2.509   0.907   1.317
 6828TIP3   OH220447   6.026   0.455   1.463
 6828TIP3    H120448   5.973   0.390   1.509
 6828TIP3    H220449   6.061   0.511   1.531
 6829TIP3   OH220450   2.048   2.203   4.637
 6829TIP3    H120451   2.016   2.282   4.679
 6829TIP3    H220452   2.143   2.205   4.650
 6830TIP3   OH220453   5.324   4.571   4.813
 6830TIP3    H120454   5.245   4.519   4.797
 6830TIP3    H220455   5.379   4.556   4.736
 6831TIP3   OH220456   6.507   1.755   0.932
 6831TIP3    H120457   6.521   1.798   0.848
 6831TIP3    H220458   6.412   1.755   0.943
 6832TIP3   OH220459   6.288   4.870   1.073
 6832TIP3    H120460   6.215   4.924   1.104
 6832TIP3    H220461   6.250   4.817   1.003
 6833TIP3   OH220462   6.338   0.812   2.008
 6833TIP3    H120463   6.342   0.722   2.042
 6833TIP3    H220464   6.247   0.838   2.022
 6834TIP3   OH220465   2.883   4.059   4.630
 6834TIP3    H120466   2.861   4.149   4.655
 6834TIP3    H220467   2.908   4.017   4.711
 6835TIP3   OH220468   7.107   6.300   4.652
 6835TIP3    H120469   7.073   6.312   4.563
 6835TIP3    H220470   7.099   6.387   4.693
 6836TIP3   OH220471   2.544   2.460   3.880
 6836TIP3    H120472   2.552   2.482   3.973
 6836TIP3    H220473   2.622   2.408   3.861
 6837TIP3   OH220474   2.743   1.331   1.112
 6837TIP3    H120475   2.711   1.411   1.070
 6837TIP3    H220476   2.790   1.285   1.042
 6838TIP3   OH220477   2.920   1.261   2.862
 6838TIP3    H120478   2.966   1.184   2.828
 6838TIP3    H220479   2.903   1.315   2.785
 6839TIP3   OH220480   1.882   4.458   5.371
 6839TIP3    H120481   1.880   4.406   5.451
 6839TIP3    H220482   1.792   4.457   5.338
 6840TIP3   OH220483   3.777   5.176   3.685
 6840TIP3    H120484   3.682   5.161   3.686
 6840TIP3    H220485   3.786   5.269   3.666
 6841TIP3   OH220486   6.447   0.988   2.214
 6841TIP3    H120487   6.377   0.984   2.280
 6841TIP3    H220488   6.424   0.920   2.151
 6842TIP3   OH220489   0.359   2.810   3.372
 6842TIP3    H120490   0.432   2.791   3.431
 6842TIP3    H220491   0.398   2.860   3.301
 6843TIP3   OH220492   1.660   0.307   4.379
 6843TIP3    H120493   1.625   0.394   4.399
 6843TIP3    H220494   1.740   0.325   4.329
 6844TIP3   OH220495   5.961   6.315   1.815
 6844TIP3    H120496   5.993   6.227   1.794
 6844TIP3    H220497   6.020   6.346   1.884
 6845TIP3   OH220498   6.224   6.253   4.744
 6845TIP3    H120499   6.302   6.276   4.794
 6845TIP3    H220500   6.201   6.165   4.775
 6846TIP3   OH220501   6.786   0.165   2.132
 6846TIP3    H120502   6.732   0.087   2.115
 6846TIP3    H220503   6.765   0.224   2.060
 6847TIP3   OH220504   4.451   1.324   5.463
 6847TIP3    H120505   4.457   1.237   5.423
 6847TIP3    H220506   4.538   1.339   5.501
 6848TIP3   OH220507   5.566   2.899   1.176
 6848TIP3    H120508   5.480   2.888   1.135
 6848TIP3    H220509   5.570   2.992   1.198
 6849TIP3   OH220510   0.571   0.738   3.244
 6849TIP3    H120511   0.478   0.757   3.260
 6849TIP3    H220512   0.585   0.768   3.154
 6850TIP3   OH220513   1.458   0.237   1.896
 6850TIP3    H120514   1.411   0.234   1.980
 6850TIP3    H220515   1.550   0.228   1.920
 6851TIP3   OH220516   0.560   4.153   4.707
 6851TIP3    H120517   0.533   4.069   4.744
 6851TIP3    H220518   0.590   4.133   4.618
 6852TIP3   OH220519   6.507   5.197   0.211
 6852TIP3    H120520   6.555   5.210   0.130
 6852TIP3    H220521   6.415   5.196   0.185
 6853TIP3   OH220522   5.545   2.698   2.887
 6853TIP3    H120523   5.479   2.674   2.951
 6853TIP3    H220524   5.495   2.721   2.809
 6854TIP3   OH220525   5.268   0.453   4.411
 6854TIP3    H120526   5.356   0.482   4.388
 6854TIP3    H220527   5.212   0.491   4.343
 6855TIP3   OH220528   5.104   0.251   0.946
 6855TIP3    H120529   5.064   0.323   0.897
 6855TIP3    H220530   5.075   0.263   1.036
 6856TIP3   OH220531   1.127   5.361   5.235
 6856TIP3    H120532   1.056   5.422   5.255
 6856TIP3    H220533   1.125   5.351   5.140
 6857TIP3   OH220534   4.491   6.681   3.984
 6857TIP3    H120535   4.567   6.626   4.003
 6857TIP3    H220536   4.472   6.664   3.891
 6858TIP3   OH220537   2.813   1.048   2.234
 6858TIP3    H120538   2.778   1.108   2.168
 6858TIP3    H220539   2.771   0.964   2.215
 6859TIP3   OH220540   2.532   1.131   0.533
 6859TIP3    H120541   2.552   1.223   0.517
 6859TIP3    H220542   2.469   1.132   0.605
 6860TIP3   OH220543   6.890   4.653   5.312
 6860TIP3    H120544   6.841   4.661   5.231
 6860TIP3    H220545   6.932   4.567   5.307
 6861TIP3   OH220546   4.931   4.985   3.530
 6861TIP3    H120547   4.843   4.988   3.495
 6861TIP3    H220548   4.978   5.055   3.485
 6862TIP3   OH220549   2.340   6.131   3.619
 6862TIP3    H120550   2.332   6.159   3.710
 6862TIP3    H220551   2.348   6.036   3.624
 6863TIP3   OH220552   1.979   6.441   2.761
 6863TIP3    H120553   1.889   6.418   2.785
 6863TIP3    H220554   2.020   6.357   2.737
 6864TIP3   OH220555   4.017   1.278   1.036
 6864TIP3    H120556   3.986   1.326   0.959
 6864TIP3    H220557   3.946   1.289   1.101
 6865TIP3   OH220558   6.342   0.114   5.553
 6865TIP3    H120559   6.429   0.137   5.520
 6865TIP3    H220560   6.289   0.192   5.539
 6866TIP3   OH220561   1.680   2.038   0.794
 6866TIP3    H120562   1.729   2.015   0.715
 6866TIP3    H220563   1.625   1.962   0.811
 6867TIP3   OH220564   0.734   2.682   2.627
 6867TIP3    H120565   0.662   2.741   2.603
 6867TIP3    H220566   0.710   2.598   2.589
 6868TIP3   OH220567   7.045   5.264   1.923
 6868TIP3    H120568   6.985   5.212   1.977
 6868TIP3    H220569   6.988   5.313   1.865
 6869TIP3   OH220570   6.766   4.781   0.785
 6869TIP3    H120571   6.805   4.693   0.786
 6869TIP3    H220572   6.836   4.838   0.815
 6870TIP3   OH220573   0.178   1.738   5.817
 6870TIP3    H120574   0.269   1.763   5.804
 6870TIP3    H220575   0.153   1.778   5.901
 6871TIP3   OH220576   2.299   4.737   5.724
 6871TIP3    H120577   2.266   4.777   5.644
 6871TIP3    H220578   2.392   4.759   5.725
 6872TIP3   OH220579   5.511   3.547   2.083
 6872TIP3    H120580   5.531   3.512   2.170
 6872TIP3    H220581   5.581   3.513   2.027
 6873TIP3   OH220582   6.699   6.371   0.957
 6873TIP3    H120583   6.690   6.460   0.990
 6873TIP3    H220584   6.791   6.364   0.933
 6874TIP3   OH220585   3.855   1.919   1.586
 6874TIP3    H120586   3.869   1.833   1.625
 6874TIP3    H220587   3.937   1.966   1.602
 6875TIP3   OH220588   4.862   3.057   1.143
 6875TIP3    H120589   4.830   3.097   1.062
 6875TIP3    H220590   4.808   3.096   1.212
 6876TIP3   OH220591   6.980   3.591   3.432
 6876TIP3    H120592   6.907   3.529   3.434
 6876TIP3    H220593   7.043   3.556   3.495
 6877TIP3   OH220594   3.165   3.154   1.653
 6877TIP3    H120595   3.254   3.162   1.618
 6877TIP3    H220596   3.126   3.081   1.604
 6878TIP3   OH220597   2.126   4.020   2.408
 6878TIP3    H120598   2.056   4.018   2.473
 6878TIP3    H220599   2.100   3.954   2.343
 6879TIP3   OH220600   1.106   0.471   5.737
 6879TIP3    H120601   1.123   0.559   5.704
 6879TIP3    H220602   1.039   0.436   5.678
 6880TIP3   OH220603   3.507   4.714   4.608
 6880TIP3    H120604   3.561   4.771   4.662
 6880TIP3    H220605   3.421   4.716   4.650
 6881TIP3   OH220606   2.329   3.758   5.063
 6881TIP3    H120607   2.367   3.685   5.012
 6881TIP3    H220608   2.378   3.757   5.145
 6882TIP3   OH220609   2.987   5.097   3.355
 6882TIP3    H120610   2.952   5.169   3.407
 6882TIP3    H220611   3.004   5.135   3.269
 6883TIP3   OH220612   1.852   2.301   3.308
 6883TIP3    H120613   1.929   2.246   3.319
 6883TIP3    H220614   1.867   2.348   3.226
 6884TIP3   OH220615   5.497   4.109   1.082
 6884TIP3    H120616   5.435   4.073   1.019
 6884TIP3    H220617   5.566   4.148   1.029
 6885TIP3   OH220618   1.586   3.699   1.148
 6885TIP3    H120619   1.583   3.767   1.081
 6885TIP3    H220620   1.655   3.728   1.208
 6886TIP3   OH220621   7.048   0.136   3.125
 6886TIP3    H120622   7.001   0.094   3.053
 6886TIP3    H220623   7.039   0.076   3.198
 6887TIP3   OH220624   4.400   1.473   3.581
 6887TIP3    H120625   4.410   1.378   3.585
 6887TIP3    H220626   4.313   1.486   3.545
 6888TIP3   OH220627   3.606   0.926   3.005
 6888TIP3    H120628   3.617   0.932   3.100
 6888TIP3    H220629   3.526   0.977   2.987
 6889TIP3   OH220630   5.082   5.515   2.288
 6889TIP3    H120631   5.061   5.428   2.320
 6889TIP3    H220632   5.072   5.510   2.193
 6890TIP3   OH220633   5.463   1.564   3.912
 6890TIP3    H120634   5.490   1.654   3.897
 6890TIP3    H220635   5.525   1.512   3.861
 6891TIP3   OH220636   0.473   4.579   3.369
 6891TIP3    H120637   0.561   4.562   3.335
 6891TIP3    H220638   0.454   4.505   3.427
 6892TIP3   OH220639   5.416   2.626   5.553
 6892TIP3    H120640   5.340   2.614   5.611
 6892TIP3    H220641   5.400   2.568   5.479
 6893TIP3   OH220642   1.099   1.864   3.581
 6893TIP3    H120643   1.195   1.864   3.583
 6893TIP3    H220644   1.073   1.940   3.632
 6894TIP3   OH220645   0.034   3.873   5.359
 6894TIP3    H120646   0.054   3.847   5.269
 6894TIP3    H220647   0.026   3.790   5.406
 6895TIP3   OH220648   6.935   5.766   1.090
 6895TIP3    H120649   6.999   5.801   1.151
 6895TIP3    H220650   6.889   5.843   1.056
 6896TIP3   OH220651   2.597   4.515   4.960
 6896TIP3    H120652   2.594   4.580   5.031
 6896TIP3    H220653   2.535   4.447   4.987
 6897TIP3   OH220654   6.314   5.424   0.552
 6897TIP3    H120655   6.362   5.500   0.521
 6897TIP3    H220656   6.222   5.445   0.538
 6898TIP3   OH220657   6.643   6.329   2.408
 6898TIP3    H120658   6.560   6.323   2.359
 6898TIP3    H220659   6.619   6.368   2.491
 6899TIP3   OH220660   2.961   5.343   4.528
 6899TIP3    H120661   3.010   5.419   4.559
 6899TIP3    H220662   2.878   5.347   4.575
 6900TIP3   OH220663   4.606   3.266   5.605
 6900TIP3    H120664   4.634   3.338   5.549
 6900TIP3    H220665   4.590   3.307   5.690
 6901TIP3   OH220666   1.479   1.444   2.239
 6901TIP3    H120667   1.402   1.389   2.244
 6901TIP3    H220668   1.551   1.383   2.221
 6902TIP3   OH220669   7.202   4.711   4.849
 6902TIP3    H120670   7.276   4.770   4.866
 6902TIP3    H220671   7.133   4.743   4.907
 6903TIP3   OH220672   3.735   3.853   1.522
 6903TIP3    H120673   3.739   3.843   1.618
 6903TIP3    H220674   3.815   3.811   1.490
 6904TIP3   OH220675   5.486   5.611   0.916
 6904TIP3    H120676   5.452   5.587   0.830
 6904TIP3    H220677   5.409   5.618   0.972
 6905TIP3   OH220678   5.762   1.835   1.411
 6905TIP3    H120679   5.802   1.852   1.325
 6905TIP3    H220680   5.821   1.876   1.474
 6906TIP3   OH220681   0.418   5.554   0.974
 6906TIP3    H120682   0.440   5.611   0.901
 6906TIP3    H220683   0.334   5.514   0.949
 6907TIP3   OH220684   5.351   1.072   2.983
 6907TIP3    H120685   5.421   1.119   3.029
 6907TIP3    H220686   5.271   1.103   3.024
 6908TIP3   OH220687   6.682   4.749   4.755
 6908TIP3    H120688   6.604   4.792   4.719
 6908TIP3    H220689   6.699   4.677   4.695
 6909TIP3   OH220690   2.075   4.668   1.808
 6909TIP3    H120691   1.996   4.679   1.755
 6909TIP3    H220692   2.072   4.742   1.870
 6910TIP3   OH220693   0.663   5.770   4.825
 6910TIP3    H120694   0.622   5.761   4.911
 6910TIP3    H220695   0.594   5.809   4.771
 6911TIP3   OH220696   7.011   2.453   2.316
 6911TIP3    H120697   7.065   2.478   2.241
 6911TIP3    H220698   7.074   2.419   2.380
 6912TIP3   OH220699   2.419   3.864   1.692
 6912TIP3    H120700   2.405   3.770   1.688
 6912TIP3    H220701   2.471   3.885   1.615
 6913TIP3   OH220702   5.741   4.266   2.353
 6913TIP3    H120703   5.663   4.216   2.377
 6913TIP3    H220704   5.808   4.200   2.339
 6914TIP3   OH220705   6.698   5.712   1.329
 6914TIP3    H120706   6.746   5.631   1.349
 6914TIP3    H220707   6.758   5.782   1.354
 6915TIP3   OH220708   2.267   4.314   4.463
 6915TIP3    H120709   2.242   4.222   4.474
 6915TIP3    H220710   2.243   4.334   4.372
 6916TIP3   OH220711   2.803   4.002   3.563
 6916TIP3    H120712   2.821   3.923   3.513
 6916TIP3    H220713   2.708   4.011   3.561
 6917TIP3   OH220714   4.270   0.538   5.367
 6917TIP3    H120715   4.201   0.481   5.332
 6917TIP3    H220716   4.346   0.480   5.378
 6918TIP3   OH220717   5.876   0.200   5.793
 6918TIP3    H120718   5.939   0.160   5.733
 6918TIP3    H220719   5.928   0.264   5.842
 6919TIP3   OH220720   5.593   3.420   0.144
 6919TIP3    H120721   5.603   3.329   0.116
 6919TIP3    H220722   5.548   3.462   0.070
 6920TIP3   OH220723   2.828   1.615   3.094
 6920TIP3    H120724   2.914   1.644   3.124
 6920TIP3    H220725   2.768   1.684   3.122
 6921TIP3   OH220726   6.573   2.059   5.286
 6921TIP3    H120727   6.587   1.972   5.323
 6921TIP3    H220728   6.569   2.044   5.191
 6922TIP3   OH220729   3.175   1.581   3.363
 6922TIP3    H120730   3.200   1.656   3.309
 6922TIP3    H220731   3.227   1.508   3.330
 6923TIP3   OH220732   5.659   1.200   0.754
 6923TIP3    H120733   5.576   1.163   0.722
 6923TIP3    H220734   5.726   1.160   0.700
 6924TIP3   OH220735   5.016   0.119   2.038
 6924TIP3    H120736   5.051   0.181   2.101
 6924TIP3    H220737   4.925   0.145   2.026
 6925TIP3   OH220738   5.019   0.149   2.376
 6925TIP3    H120739   4.964   0.216   2.335
 6925TIP3    H220740   5.085   0.128   2.310
 6926TIP3   OH220741   6.095   3.822   5.424
 6926TIP3    H120742   6.175   3.794   5.469
 6926TIP3    H220743   6.026   3.810   5.489
 6927TIP3   OH220744   3.029   4.040   4.391
 6927TIP3    H120745   2.960   4.074   4.334
 6927TIP3    H220746   2.988   4.031   4.477
 6928TIP3   OH220747   0.528   5.148   0.622
 6928TIP3    H120748   0.493   5.104   0.700
 6928TIP3    H220749   0.622   5.128   0.625
 6929TIP3   OH220750   1.316   2.777   4.010
 6929TIP3    H120751   1.380   2.830   3.963
 6929TIP3    H220752   1.244   2.837   4.029
 6930TIP3   OH220753   1.788   4.689   0.828
 6930TIP3    H120754   1.754   4.685   0.917
 6930TIP3    H220755   1.862   4.750   0.833
 6931TIP3   OH220756   4.952   1.679   3.837
 6931TIP3    H120757   4.967   1.680   3.742
 6931TIP3    H220758   5.019   1.620   3.871
 6932TIP3   OH220759   5.931   5.027   3.182
 6932TIP3    H120760   5.872   4.951   3.181
 6932TIP3    H220761   6.004   5.001   3.125
 6933TIP3   OH220762   3.339   0.181   4.020
 6933TIP3    H120763   3.432   0.167   3.999
 6933TIP3    H220764   3.324   0.127   4.097
 6934TIP3   OH220765   4.410   6.135   4.435
 6934TIP3    H120766   4.387   6.097   4.520
 6934TIP3    H220767   4.494   6.095   4.413
 6935TIP3   OH220768   6.337   6.173   0.694
 6935TIP3    H120769   6.424   6.180   0.732
 6935TIP3    H220770   6.282   6.141   0.766
 6936TIP3   OH220771   7.175   6.263   0.436
 6936TIP3    H120772   7.110   6.327   0.407
 6936TIP3    H220773   7.259   6.306   0.421
 6937TIP3   OH220774   0.163   5.548   5.339
 6937TIP3    H120775   0.117   5.610   5.282
 6937TIP3    H220776   0.122   5.560   5.425
 6938TIP3   OH220777   5.671   1.866   5.632
 6938TIP3    H120778   5.592   1.900   5.590
 6938TIP3    H220779   5.657   1.882   5.725
 6939TIP3   OH220780   0.624   3.428   2.084
 6939TIP3    H120781   0.593   3.434   2.174
 6939TIP3    H220782   0.651   3.337   2.074
 6940TIP3   OH220783   6.083   3.538   0.616
 6940TIP3    H120784   6.140   3.604   0.657
 6940TIP3    H220785   6.007   3.587   0.586
 6941TIP3   OH220786   1.730   0.506   2.118
 6941TIP3    H120787   1.814   0.551   2.130
 6941TIP3    H220788   1.664   0.571   2.141
 6942TIP3   OH220789   6.445   6.163   2.948
 6942TIP3    H120790   6.449   6.076   2.907
 6942TIP3    H220791   6.513   6.161   3.015
 6943TIP3   OH220792   6.624   1.842   4.566
 6943TIP3    H120793   6.530   1.829   4.575
 6943TIP3    H220794   6.654   1.766   4.516
 6944TIP3   OH220795   6.639   1.024   5.436
 6944TIP3    H120796   6.557   0.993   5.397
 6944TIP3    H220797   6.661   0.959   5.502
 6945TIP3   OH220798   4.006   2.060   4.125
 6945TIP3    H120799   4.017   2.155   4.120
 6945TIP3    H220800   3.952   2.046   4.203
 6946TIP3   OH220801   1.147   1.460   0.311
 6946TIP3    H120802   1.139   1.438   0.404
 6946TIP3    H220803   1.190   1.545   0.311
 6947TIP3   OH220804   2.864   2.979   2.164
 6947TIP3    H120805   2.927   3.050   2.153
 6947TIP3    H220806   2.797   3.016   2.221
 6948TIP3   OH220807   5.289   5.402   5.198
 6948TIP3    H120808   5.311   5.494   5.215
 6948TIP3    H220809   5.372   5.361   5.175
 6949TIP3   OH220810   3.175   2.898   1.880
 6949TIP3    H120811   3.091   2.853   1.889
 6949TIP3    H220812   3.239   2.838   1.917
 6950TIP3   OH220813   4.282   2.326   4.681
 6950TIP3    H120814   4.308   2.377   4.758
 6950TIP3    H220815   4.209   2.375   4.644
 6951TIP3   OH220816   3.325   1.812   0.313
 6951TIP3    H120817   3.400   1.863   0.283
 6951TIP3    H220818   3.302   1.851   0.398
 6952TIP3   OH220819   4.432   3.238   0.555
 6952TIP3    H120820   4.366   3.180   0.517
 6952TIP3    H220821   4.392   3.273   0.634
 6953TIP3   OH220822   0.739   4.707   0.715
 6953TIP3    H120823   0.783   4.680   0.795
 6953TIP3    H220824   0.712   4.625   0.674
 6954TIP3   OH220825   2.971   5.393   3.418
 6954TIP3    H120826   2.895   5.367   3.366
 6954TIP3    H220827   2.953   5.483   3.445
 6955TIP3   OH220828   0.921   1.643   5.388
 6955TIP3    H120829   1.004   1.622   5.345
 6955TIP3    H220830   0.939   1.724   5.436
 6956TIP3   OH220831   5.881   5.022   2.718
 6956TIP3    H120832   5.861   5.077   2.794
 6956TIP3    H220833   5.895   4.935   2.756
 6957TIP3   OH220834   5.289   0.452   2.240
 6957TIP3    H120835   5.354   0.405   2.292
 6957TIP3    H220836   5.216   0.467   2.300
 6958TIP3   OH220837   2.572   1.424   0.413
 6958TIP3    H120838   2.482   1.455   0.403
 6958TIP3    H220839   2.611   1.483   0.477
 6959TIP3   OH220840   5.114   0.890   5.897
 6959TIP3    H120841   5.113   0.845   5.813
 6959TIP3    H220842   5.206   0.908   5.914
 6960TIP3   OH220843   2.010   3.774   4.626
 6960TIP3    H120844   1.945   3.787   4.557
 6960TIP3    H220845   2.040   3.862   4.649
 6961TIP3   OH220846   4.132   3.550   3.886
 6961TIP3    H120847   4.221   3.515   3.884
 6961TIP3    H220848   4.076   3.474   3.904
 6962TIP3   OH220849   3.278   4.282   2.066
 6962TIP3    H120850   3.315   4.330   2.141
 6962TIP3    H220851   3.187   4.265   2.090
 6963TIP3   OH220852   4.664   5.300   5.255
 6963TIP3    H120853   4.654   5.383   5.300
 6963TIP3    H220854   4.636   5.234   5.319
 6964TIP3   OH220855   4.654   3.267   4.046
 6964TIP3    H120856   4.710   3.341   4.069
 6964TIP3    H220857   4.660   3.209   4.122
 6965TIP3   OH220858   6.261   1.477   1.365
 6965TIP3    H120859   6.319   1.443   1.297
 6965TIP3    H220860   6.312   1.546   1.407
 6966TIP3   OH220861   2.010   2.139   1.930
 6966TIP3    H120862   1.957   2.159   2.007
 6966TIP3    H220863   2.050   2.054   1.949
 6967TIP3   OH220864   1.705   2.745   3.909
 6967TIP3    H120865   1.679   2.748   4.001
 6967TIP3    H220866   1.723   2.837   3.887
 6968TIP3   OH220867   0.549   2.478   2.575
 6968TIP3    H120868   0.459   2.506   2.558
 6968TIP3    H220869   0.545   2.432   2.659
 6969TIP3   OH220870   5.115   0.020   1.156
 6969TIP3    H120871   5.210   0.021   1.165
 6969TIP3    H220872   5.090   0.112   1.147
 6970TIP3   OH220873   6.446   5.615   2.402
 6970TIP3    H120874   6.395   5.667   2.339
 6970TIP3    H220875   6.497   5.555   2.348
 6971TIP3   OH220876   4.377   6.791   0.523
 6971TIP3    H120877   4.371   6.715   0.465
 6971TIP3    H220878   4.429   6.760   0.597
 6972TIP3   OH220879   3.231   6.060   4.444
 6972TIP3    H120880   3.250   5.972   4.476
 6972TIP3    H220881   3.306   6.112   4.474
 6973TIP3   OH220882   1.423   6.570   2.131
 6973TIP3    H120883   1.443   6.542   2.220
 6973TIP3    H220884   1.506   6.602   2.095
 6974TIP3   OH220885   3.874   4.610   1.945
 6974TIP3    H120886   3.959   4.654   1.941
 6974TIP3    H220887   3.840   4.614   1.856
 6975TIP3   OH220888   1.212   2.577   3.233
 6975TIP3    H120889   1.280   2.643   3.247
 6975TIP3    H220890   1.255   2.493   3.249
 6976TIP3   OH220891   3.302   2.103   2.958
 6976TIP3    H120892   3.212   2.071   2.958
 6976TIP3    H220893   3.299   2.180   3.015
 6977TIP3   OH220894   0.342   0.664   1.879
 6977TIP3    H120895   0.408   0.727   1.850
 6977TIP3    H220896   0.267   0.718   1.903
 6978TIP3   OH220897   6.367   1.220   5.523
 6978TIP3    H120898   6.291   1.174   5.489
 6978TIP3    H220899   6.400   1.163   5.592
 6979TIP3   OH220900   2.242   3.808   0.473
 6979TIP3    H120901   2.213   3.849   0.392
 6979TIP3    H220902   2.336   3.823   0.475
 6980TIP3   OH220903   2.500   5.741   0.460
 6980TIP3    H120904   2.592   5.760   0.478
 6980TIP3    H220905   2.463   5.826   0.435
 6981TIP3   OH220906   5.447   3.115   4.765
 6981TIP3    H120907   5.421   3.155   4.848
 6981TIP3    H220908   5.527   3.066   4.786
 6982TIP3   OH220909   4.813   1.264   1.455
 6982TIP3    H120910   4.804   1.193   1.518
 6982TIP3    H220911   4.739   1.254   1.396
 6983TIP3   OH220912   0.837   6.244   2.767
 6983TIP3    H120913   0.932   6.258   2.772
 6983TIP3    H220914   0.819   6.178   2.834
 6984TIP3   OH220915   6.632   0.619   5.339
 6984TIP3    H120916   6.711   0.673   5.334
 6984TIP3    H220917   6.656   0.547   5.398
 6985TIP3   OH220918   1.075   3.881   5.029
 6985TIP3    H120919   1.159   3.835   5.033
 6985TIP3    H220920   1.037   3.870   5.116
 6986TIP3   OH220921   1.728   5.154   1.852
 6986TIP3    H120922   1.737   5.060   1.862
 6986TIP3    H220923   1.818   5.188   1.857
 6987TIP3   OH220924   1.966   0.979   3.691
 6987TIP3    H120925   2.004   1.056   3.649
 6987TIP3    H220926   1.967   0.999   3.784
 6988TIP3   OH220927   1.178   2.072   1.218
 6988TIP3    H120928   1.122   2.150   1.220
 6988TIP3    H220929   1.233   2.081   1.296
 6989TIP3   OH220930   4.846   1.862   1.274
 6989TIP3    H120931   4.770   1.823   1.229
 6989TIP3    H220932   4.863   1.803   1.347
 6990TIP3   OH220933   2.596   1.918   5.412
 6990TIP3    H120934   2.548   1.838   5.390
 6990TIP3    H220935   2.652   1.892   5.485
 6991TIP3   OH220936   5.303   6.649   1.735
 6991TIP3    H120937   5.312   6.556   1.754
 6991TIP3    H220938   5.268   6.652   1.646
 6992TIP3   OH220939   3.362   5.439   0.928
 6992TIP3    H120940   3.321   5.509   0.979
 6992TIP3    H220941   3.298   5.419   0.859
 6993TIP3   OH220942   2.058   5.236   0.737
 6993TIP3    H120943   2.022   5.258   0.823
 6993TIP3    H220944   1.989   5.185   0.694
 6994TIP3   OH220945   2.454   6.351   1.364
 6994TIP3    H120946   2.432   6.434   1.321
 6994TIP3    H220947   2.424   6.363   1.454
 6995TIP3   OH220948   2.706   4.932   3.762
 6995TIP3    H120949   2.614   4.945   3.740
 6995TIP3    H220950   2.704   4.881   3.843
 6996TIP3   OH220951   5.419   0.131   1.729
 6996TIP3    H120952   5.422   0.057   1.669
 6996TIP3    H220953   5.444   0.095   1.814
 6997TIP3   OH220954   3.484   1.557   1.743
 6997TIP3    H120955   3.468   1.509   1.663
 6997TIP3    H220956   3.524   1.493   1.803
 6998TIP3   OH220957   2.292   3.079   0.993
 6998TIP3    H120958   2.268   3.032   1.073
 6998TIP3    H220959   2.220   3.140   0.978
 6999TIP3   OH220960   3.182   6.574   3.715
 6999TIP3    H120961   3.164   6.532   3.799
 6999TIP3    H220962   3.250   6.519   3.675
 7000TIP3   OH220963   1.537   3.968   3.790
 7000TIP3    H120964   1.570   4.057   3.783
 7000TIP3    H220965   1.614   3.913   3.774
 7001TIP3   OH220966   7.123   5.687   1.857
 7001TIP3    H120967   7.068   5.646   1.790
 7001TIP3    H220968   7.211   5.685   1.820
 7002TIP3   OH220969   4.735   6.200   1.027
 7002TIP3    H120970   4.824   6.229   1.008
 7002TIP3    H220971   4.743   6.106   1.040
 7003TIP3   OH220972   0.841   3.752   4.467
 7003TIP3    H120973   0.864   3.843   4.448
 7003TIP3    H220974   0.746   3.747   4.453
 7004TIP3   OH220975   5.303   4.275   5.507
 7004TIP3    H120976   5.254   4.243   5.431
 7004TIP3    H220977   5.305   4.370   5.496
 7005TIP3   OH220978   2.620   6.596   1.068
 7005TIP3    H120979   2.527   6.594   1.091
 7005TIP3    H220980   2.655   6.673   1.113
 7006TIP3   OH220981   6.985   5.655   3.463
 7006TIP3    H120982   7.018   5.588   3.402
 7006TIP3    H220983   6.957   5.607   3.540
 7007TIP3   OH220984   0.061   3.761   1.126
 7007TIP3    H120985   0.085   3.676   1.163
 7007TIP3    H220986  -0.033   3.769   1.146
 7008TIP3   OH220987   5.759   1.693   4.856
 7008TIP3    H120988   5.800   1.640   4.788
 7008TIP3    H220989   5.750   1.780   4.816
 7009TIP3   OH220990   2.202   0.339   4.441
 7009TIP3    H120991   2.264   0.383   4.499
 7009TIP3    H220992   2.183   0.256   4.485
 7010TIP3   OH220993   5.830   4.579   0.097
 7010TIP3    H120994   5.919   4.615   0.092
 7010TIP3    H220995   5.817   4.539   0.011
 7011TIP3   OH220996   6.667   2.452   0.789
 7011TIP3    H120997   6.575   2.480   0.786
 7011TIP3    H220998   6.706   2.504   0.860
 7012TIP3   OH220999   0.361   1.735   2.920
 7012TIP3    H121000   0.349   1.659   2.864
 7012TIP3    H221001   0.362   1.810   2.861
 7013TIP3   OH221002   3.696   3.224   2.433
 7013TIP3    H121003   3.601   3.240   2.431
 7013TIP3    H221004   3.704   3.134   2.464
 7014TIP3   OH221005   5.864   2.974   3.547
 7014TIP3    H121006   5.858   3.002   3.456
 7014TIP3    H221007   5.786   2.920   3.561
 7015TIP3   OH221008   2.195   6.514   2.049
 7015TIP3    H121009   2.219   6.571   1.976
 7015TIP3    H221010   2.244   6.549   2.124
 7016TIP3   OH221011   6.842   2.753   4.737
 7016TIP3    H121012   6.794   2.672   4.719
 7016TIP3    H221013   6.811   2.781   4.823
 7017TIP3   OH221014   0.961   0.209   0.150
 7017TIP3    H121015   1.012   0.128   0.160
 7017TIP3    H221016   0.940   0.212   0.057
 7018TIP3   OH221017   5.347   0.939   2.719
 7018TIP3    H121018   5.281   0.875   2.747
 7018TIP3    H221019   5.361   0.994   2.796
 7019TIP3   OH221020   4.731   1.375   4.169
 7019TIP3    H121021   4.717   1.391   4.262
 7019TIP3    H221022   4.742   1.462   4.131
 7020TIP3   OH221023   6.440   6.225   1.781
 7020TIP3    H121024   6.412   6.315   1.763
 7020TIP3    H221025   6.536   6.231   1.787
 7021TIP3   OH221026   0.359   3.766   5.674
 7021TIP3    H121027   0.354   3.822   5.597
 7021TIP3    H221028   0.302   3.691   5.654
 7022TIP3   OH221029   5.039   4.148   1.403
 7022TIP3    H121030   4.989   4.228   1.387
 7022TIP3    H221031   5.108   4.148   1.337
 7023TIP3   OH221032   1.741   2.103   3.894
 7023TIP3    H121033   1.752   2.144   3.979
 7023TIP3    H221034   1.652   2.068   3.895
 7024TIP3   OH221035   6.581   1.918   1.633
 7024TIP3    H121036   6.536   1.947   1.553
 7024TIP3    H221037   6.512   1.907   1.697
 7025TIP3   OH221038   0.554   6.758   1.698
 7025TIP3    H121039   0.519   6.766   1.787
 7025TIP3    H221040   0.598   6.841   1.682
 7026TIP3   OH221041   1.377   0.804   0.920
 7026TIP3    H121042   1.361   0.897   0.938
 7026TIP3    H221043   1.311   0.758   0.972
 7027TIP3   OH221044   1.214   6.059   3.756
 7027TIP3    H121045   1.172   6.144   3.772
 7027TIP3    H221046   1.277   6.050   3.828
 7028TIP3   OH221047   6.246   2.864   5.055
 7028TIP3    H121048   6.240   2.957   5.036
 7028TIP3    H221049   6.305   2.858   5.130
 7029TIP3   OH221050   6.825   0.487   1.882
 7029TIP3    H121051   6.802   0.495   1.974
 7029TIP3    H221052   6.864   0.572   1.859
 7030TIP3   OH221053   0.715   0.052   1.319
 7030TIP3    H121054   0.751   0.128   1.272
 7030TIP3    H221055   0.789  -0.007   1.329
 7031TIP3   OH221056   3.053   0.594   3.646
 7031TIP3    H121057   3.020   0.681   3.621
 7031TIP3    H221058   3.033   0.586   3.739
 7032TIP3   OH221059   6.937   3.416   0.645
 7032TIP3    H121060   6.921   3.348   0.711
 7032TIP3    H221061   6.957   3.366   0.565
 7033TIP3   OH221062   1.759   6.208   2.291
 7033TIP3    H121063   1.725   6.269   2.356
 7033TIP3    H221064   1.853   6.223   2.289
 7034TIP3   OH221065   2.009   4.517   4.931
 7034TIP3    H121066   1.926   4.474   4.950
 7034TIP3    H221067   1.991   4.610   4.938
 7035TIP3   OH221068   2.008   5.516   5.516
 7035TIP3    H121069   2.016   5.541   5.608
 7035TIP3    H221070   2.092   5.541   5.477
 7036TIP3   OH221071   5.865   6.714   0.489
 7036TIP3    H121072   5.939   6.654   0.478
 7036TIP3    H221073   5.901   6.800   0.468
 7037TIP3   OH221074   0.983   0.879   4.368
 7037TIP3    H121075   0.954   0.968   4.347
 7037TIP3    H221076   0.947   0.862   4.456
 7038TIP3   OH221077   4.479   1.080   1.822
 7038TIP3    H121078   4.534   1.159   1.823
 7038TIP3    H221079   4.389   1.113   1.832
 7039TIP3   OH221080   0.910   0.345   5.320
 7039TIP3    H121081   0.826   0.302   5.309
 7039TIP3    H221082   0.913   0.367   5.414
 7040TIP3   OH221083   5.642   0.662   0.566
 7040TIP3    H121084   5.737   0.665   0.558
 7040TIP3    H221085   5.615   0.754   0.566
 7041TIP3   OH221086   1.535   6.028   1.579
 7041TIP3    H121087   1.597   6.091   1.615
 7041TIP3    H221088   1.506   6.067   1.496
 7042TIP3   OH221089   1.627   4.890   1.463
 7042TIP3    H121090   1.592   4.895   1.374
 7042TIP3    H221091   1.603   4.974   1.502
 7043TIP3   OH221092   6.168   0.956   4.678
 7043TIP3    H121093   6.233   1.025   4.665
 7043TIP3    H221094   6.093   0.984   4.625
 7044TIP3   OH221095   6.223   4.337   0.039
 7044TIP3    H121096   6.233   4.321   0.133
 7044TIP3    H221097   6.300   4.388   0.015
 7045TIP3   OH221098   6.080   5.157   2.594
 7045TIP3    H121099   6.011   5.125   2.652
 7045TIP3    H221100   6.058   5.118   2.509
 7046TIP3   OH221101   6.354   6.755   1.705
 7046TIP3    H121102   6.393   6.709   1.779
 7046TIP3    H221103   6.309   6.830   1.744
 7047TIP3   OH221104   2.671   2.412   2.670
 7047TIP3    H121105   2.757   2.420   2.629
 7047TIP3    H221106   2.646   2.321   2.656
 7048TIP3   OH221107   3.889   1.323   4.350
 7048TIP3    H121108   3.937   1.396   4.389
 7048TIP3    H221109   3.822   1.301   4.415
 7049TIP3   OH221110   5.629   3.290   2.663
 7049TIP3    H121111   5.668   3.231   2.599
 7049TIP3    H221112   5.540   3.306   2.630
 7050TIP3   OH221113   5.052   0.948   0.413
 7050TIP3    H121114   5.090   1.019   0.464
 7050TIP3    H221115   5.005   0.992   0.343
 7051TIP3   OH221116   1.195   2.781   5.662
 7051TIP3    H121117   1.262   2.715   5.682
 7051TIP3    H221118   1.173   2.765   5.571
 7052TIP3   OH221119   0.541   2.929   2.702
 7052TIP3    H121120   0.467   2.882   2.740
 7052TIP3    H221121   0.513   3.021   2.701
 7053TIP3   OH221122   1.330   3.307   4.224
 7053TIP3    H121123   1.256   3.255   4.254
 7053TIP3    H221124   1.290   3.385   4.185
 7054TIP3   OH221125   6.815   6.703   2.403
 7054TIP3    H121126   6.827   6.615   2.368
 7054TIP3    H221127   6.806   6.690   2.497
 7055TIP3   OH221128   6.051   1.756   4.663
 7055TIP3    H121129   5.990   1.708   4.607
 7055TIP3    H221130   6.098   1.687   4.711
 7056TIP3   OH221131   4.689   0.326   1.071
 7056TIP3    H121132   4.718   0.369   1.151
 7056TIP3    H221133   4.690   0.395   1.005
 7057TIP3   OH221134   2.658   1.806   3.113
 7057TIP3    H121135   2.696   1.882   3.069
 7057TIP3    H221136   2.572   1.795   3.071
 7058TIP3   OH221137   0.882   0.019   0.718
 7058TIP3    H121138   0.933  -0.059   0.740
 7058TIP3    H221139   0.908   0.040   0.628
 7059TIP3   OH221140   5.067   3.734   4.362
 7059TIP3    H121141   5.116   3.814   4.380
 7059TIP3    H221142   5.067   3.726   4.267
 7060TIP3   OH221143   4.769   5.052   2.774
 7060TIP3    H121144   4.782   4.976   2.831
 7060TIP3    H221145   4.702   5.104   2.819
 7061TIP3   OH221146   0.482   6.769   1.968
 7061TIP3    H121147   0.559   6.733   2.012
 7061TIP3    H221148   0.410   6.711   1.995
 7062TIP3   OH221149   5.484   1.744   1.004
 7062TIP3    H121150   5.479   1.650   1.021
 7062TIP3    H221151   5.432   1.756   0.925
 7063TIP3   OH221152   2.791   3.338   3.056
 7063TIP3    H121153   2.858   3.271   3.049
 7063TIP3    H221154   2.719   3.295   3.103
 7064TIP3   OH221155   3.309   1.876   0.595
 7064TIP3    H121156   3.386   1.904   0.646
 7064TIP3    H221157   3.263   1.957   0.575
 7065TIP3   OH221158   3.749   1.292   2.640
 7065TIP3    H121159   3.715   1.270   2.553
 7065TIP3    H221160   3.677   1.338   2.683
 7066TIP3   OH221161   0.068   2.355   4.119
 7066TIP3    H121162   0.011   2.432   4.110
 7066TIP3    H221163   0.053   2.304   4.040
 7067TIP3   OH221164   4.425   0.477   3.480
 7067TIP3    H121165   4.363   0.487   3.408
 7067TIP3    H221166   4.385   0.410   3.536
 7068TIP3   OH221167   1.709   6.637   5.499
 7068TIP3    H121168   1.641   6.702   5.516
 7068TIP3    H221169   1.664   6.553   5.511
 7069TIP3   OH221170   6.508   3.278   3.156
 7069TIP3    H121171   6.510   3.219   3.231
 7069TIP3    H221172   6.520   3.220   3.080
 7070TIP3   OH221173   1.191   1.034   4.984
 7070TIP3    H121174   1.216   0.965   4.922
 7070TIP3    H221175   1.122   0.994   5.037
 7071TIP3   OH221176   2.016   1.690   2.966
 7071TIP3    H121177   1.942   1.704   2.907
 7071TIP3    H221178   1.978   1.643   3.040
 7072TIP3   OH221179   1.943   5.656   5.050
 7072TIP3    H121180   1.967   5.681   4.961
 7072TIP3    H221181   1.922   5.739   5.094
 7073TIP3   OH221182   4.471   4.871   1.627
 7073TIP3    H121183   4.440   4.797   1.575
 7073TIP3    H221184   4.545   4.906   1.578
 7074TIP3   OH221185   4.555   2.649   5.065
 7074TIP3    H121186   4.491   2.578   5.073
 7074TIP3    H221187   4.512   2.713   5.008
 7075TIP3   OH221188   3.032   4.408   4.731
 7075TIP3    H121189   2.940   4.380   4.739
 7075TIP3    H221190   3.082   4.327   4.738
 7076TIP3   OH221191   6.933   5.830   0.723
 7076TIP3    H121192   6.848   5.861   0.755
 7076TIP3    H221193   6.917   5.804   0.633
 7077TIP3   OH221194   4.929   1.801   0.016
 7077TIP3    H121195   4.937   1.706   0.021
 7077TIP3    H221196   5.016   1.834   0.037
 7078TIP3   OH221197   4.126   4.241   5.180
 7078TIP3    H121198   4.121   4.193   5.263
 7078TIP3    H221199   4.141   4.173   5.114
 7079TIP3   OH221200   2.920   3.735   1.356
 7079TIP3    H121201   2.987   3.698   1.413
 7079TIP3    H221202   2.936   3.830   1.358
 7080TIP3   OH221203   2.115   2.455   0.446
 7080TIP3    H121204   2.036   2.400   0.446
 7080TIP3    H221205   2.092   2.529   0.503
 7081TIP3   OH221206   1.103   0.031   3.016
 7081TIP3    H121207   1.121   0.123   3.036
 7081TIP3    H221208   1.095   0.028   2.921
 7082TIP3   OH221209   3.882   1.711   1.765
 7082TIP3    H121210   3.814   1.724   1.831
 7082TIP3    H221211   3.964   1.707   1.815
 7083TIP3   OH221212   3.714   1.475   0.958
 7083TIP3    H121213   3.738   1.567   0.952
 7083TIP3    H221214   3.776   1.431   0.899
 7084TIP3   OH221215   1.620   3.051   4.302
 7084TIP3    H121216   1.715   3.044   4.298
 7084TIP3    H221217   1.592   2.978   4.358
 7085TIP3   OH221218   1.460   5.651   4.750
 7085TIP3    H121219   1.413   5.651   4.833
 7085TIP3    H221220   1.521   5.724   4.757
 7086TIP3   OH221221   3.605   2.001   5.523
 7086TIP3    H121222   3.638   1.945   5.453
 7086TIP3    H221223   3.572   2.079   5.478
 7087TIP3   OH221224   0.897   3.234   4.639
 7087TIP3    H121225   0.826   3.177   4.608
 7087TIP3    H221226   0.973   3.176   4.645
 7088TIP3   OH221227   0.979   6.319   2.336
 7088TIP3    H121228   0.924   6.357   2.267
 7088TIP3    H221229   0.920   6.311   2.411
 7089TIP3   OH221230   5.392   0.568   2.729
 7089TIP3    H121231   5.456   0.639   2.732
 7089TIP3    H221232   5.336   0.582   2.805
 7090TIP3   OH221233   4.172   6.696   4.706
 7090TIP3    H121234   4.224   6.621   4.675
 7090TIP3    H221235   4.208   6.771   4.659
 7091TIP3   OH221236   1.245   2.588   2.107
 7091TIP3    H121237   1.196   2.670   2.103
 7091TIP3    H221238   1.273   2.573   2.017
 7092TIP3   OH221239   4.603   6.534   0.508
 7092TIP3    H121240   4.588   6.538   0.602
 7092TIP3    H221241   4.644   6.617   0.487
 7093TIP3   OH221242   5.654   1.949   1.898
 7093TIP3    H121243   5.661   1.911   1.985
 7093TIP3    H221244   5.668   2.043   1.911
 7094TIP3   OH221245   3.501   1.134   3.484
 7094TIP3    H121246   3.586   1.119   3.526
 7094TIP3    H221247   3.500   1.228   3.466
 7095TIP3   OH221248   4.681   6.097   5.693
 7095TIP3    H121249   4.599   6.144   5.708
 7095TIP3    H221250   4.745   6.166   5.676
 7096TIP3   OH221251   1.829   4.760   5.671
 7096TIP3    H121252   1.889   4.779   5.598
 7096TIP3    H221253   1.753   4.719   5.629
 7097TIP3   OH221254   6.327   3.464   5.828
 7097TIP3    H121255   6.305   3.435   5.739
 7097TIP3    H221256   6.259   3.528   5.849
 7098TIP3   OH221257   2.524   1.131   4.091
 7098TIP3    H121258   2.594   1.194   4.108
 7098TIP3    H221259   2.571   1.052   4.063
 7099TIP3   OH221260   2.496   3.903   0.491
 7099TIP3    H121261   2.580   3.878   0.452
 7099TIP3    H221262   2.508   3.994   0.518
 7100TIP3   OH221263   0.541   5.231   1.352
 7100TIP3    H121264   0.491   5.210   1.273
 7100TIP3    H221265   0.587   5.151   1.374
 7101TIP3   OH221266   4.985   4.377   4.517
 7101TIP3    H121267   5.045   4.400   4.588
 7101TIP3    H221268   4.918   4.324   4.559
 7102TIP3   OH221269   0.522   4.787   4.980
 7102TIP3    H121270   0.568   4.734   5.044
 7102TIP3    H221271   0.442   4.816   5.025
 7103TIP3   OH221272   3.666   4.858   4.768
 7103TIP3    H121273   3.761   4.871   4.769
 7103TIP3    H221274   3.642   4.848   4.860
 7104TIP3   OH221275   2.821   0.559   4.938
 7104TIP3    H121276   2.785   0.492   4.997
 7104TIP3    H221277   2.902   0.587   4.981
 7105TIP3   OH221278   4.798   3.161   1.396
 7105TIP3    H121279   4.795   3.248   1.435
 7105TIP3    H221280   4.721   3.116   1.432
 7106TIP3   OH221281   7.155   0.347   0.503
 7106TIP3    H121282   7.248   0.325   0.502
 7106TIP3    H221283   7.149   0.427   0.452
 7107TIP3   OH221284   1.923   1.470   5.841
 7107TIP3    H121285   1.903   1.391   5.791
 7107TIP3    H221286   1.901   1.543   5.782
 7108TIP3   OH221287   3.759   5.573   3.879
 7108TIP3    H121288   3.698   5.626   3.932
 7108TIP3    H221289   3.751   5.485   3.915
 7109TIP3   OH221290   4.323   2.835   1.715
 7109TIP3    H121291   4.345   2.780   1.790
 7109TIP3    H221292   4.292   2.917   1.754
 7110TIP3   OH221293   5.771   6.205   1.021
 7110TIP3    H121294   5.750   6.222   1.113
 7110TIP3    H221295   5.725   6.273   0.973
 7111TIP3   OH221296   5.885   6.261   0.745
 7111TIP3    H121297   5.916   6.196   0.808
 7111TIP3    H221298   5.800   6.229   0.716
 7112TIP3   OH221299   5.783   5.584   5.046
 7112TIP3    H121300   5.829   5.536   5.115
 7112TIP3    H221301   5.789   5.528   4.969
 7113TIP3   OH221302   1.888   3.013   2.242
 7113TIP3    H121303   1.903   2.962   2.162
 7113TIP3    H221304   1.818   3.074   2.219
 7114TIP3   OH221305   6.757   5.660   5.816
 7114TIP3    H121306   6.674   5.679   5.860
 7114TIP3    H221307   6.736   5.660   5.723
 7115TIP3   OH221308   0.539   0.692   3.752
 7115TIP3    H121309   0.535   0.787   3.756
 7115TIP3    H221310   0.623   0.673   3.711
 7116TIP3   OH221311   6.253   2.115   0.337
 7116TIP3    H121312   6.164   2.110   0.372
 7116TIP3    H221313   6.262   2.035   0.284
 7117TIP3   OH221314   5.306   1.099   2.518
 7117TIP3    H121315   5.329   1.007   2.530
 7117TIP3    H221316   5.242   1.098   2.446
 7118TIP3   OH221317   0.577  -0.025   5.764
 7118TIP3    H121318   0.498   0.028   5.764
 7118TIP3    H221319   0.640   0.025   5.817
 7119TIP3   OH221320   2.157   0.180   1.776
 7119TIP3    H121321   2.127   0.271   1.779
 7119TIP3    H221322   2.252   0.186   1.769
 7120TIP3   OH221323   5.378   5.971   2.729
 7120TIP3    H121324   5.404   5.903   2.667
 7120TIP3    H221325   5.341   6.040   2.675
 7121TIP3   OH221326   5.795   5.881   2.762
 7121TIP3    H121327   5.857   5.817   2.727
 7121TIP3    H221328   5.723   5.829   2.797
 7122TIP3   OH221329   2.698   5.355   4.343
 7122TIP3    H121330   2.699   5.273   4.392
 7122TIP3    H221331   2.734   5.419   4.405
 7123TIP3   OH221332   0.606   3.698   0.523
 7123TIP3    H121333   0.641   3.679   0.436
 7123TIP3    H221334   0.634   3.624   0.577
 7124TIP3   OH221335   1.599   1.811   5.799
 7124TIP3    H121336   1.558   1.725   5.806
 7124TIP3    H221337   1.529   1.868   5.767
 7125TIP3   OH221338   0.238   5.419   4.449
 7125TIP3    H121339   0.154   5.415   4.403
 7125TIP3    H221340   0.254   5.330   4.480
 7126TIP3   OH221341   7.110   2.134   0.873
 7126TIP3    H121342   7.028   2.175   0.900
 7126TIP3    H221343   7.164   2.206   0.841
 7127TIP3   OH221344   3.073   6.212   2.958
 7127TIP3    H121345   3.168   6.200   2.953
 7127TIP3    H221346   3.056   6.289   2.904
 7128TIP3   OH221347   1.783   1.452   3.454
 7128TIP3    H121348   1.846   1.476   3.522
 7128TIP3    H221349   1.826   1.384   3.403
 7129TIP3   OH221350   2.637   4.441   1.517
 7129TIP3    H121351   2.570   4.432   1.585
 7129TIP3    H221352   2.600   4.396   1.441
 7130TIP3   OH221353   4.709   3.066   3.727
 7130TIP3    H121354   4.687   3.028   3.642
 7130TIP3    H221355   4.803   3.048   3.738
 7131TIP3   OH221356   5.057   4.873   2.784
 7131TIP3    H121357   5.015   4.957   2.768
 7131TIP3    H221358   5.056   4.828   2.700
 7132TIP3   OH221359   2.097   5.479   5.149
 7132TIP3    H121360   2.043   5.543   5.103
 7132TIP3    H221361   2.187   5.509   5.135
 7133TIP3   OH221362   7.091   4.235   5.019
 7133TIP3    H121363   7.184   4.216   5.012
 7133TIP3    H221364   7.079   4.317   4.970
 7134TIP3   OH221365   5.913   3.065   5.385
 7134TIP3    H121366   5.904   2.974   5.414
 7134TIP3    H221367   5.851   3.073   5.312
 7135TIP3   OH221368   2.682   0.383   5.600
 7135TIP3    H121369   2.684   0.447   5.529
 7135TIP3    H221370   2.773   0.352   5.606
 7136TIP3   OH221371   2.818   5.763   3.000
 7136TIP3    H121372   2.746   5.716   3.041
 7136TIP3    H221373   2.780   5.847   2.972
 7137TIP3   OH221374   5.564   2.440   4.162
 7137TIP3    H121375   5.499   2.509   4.176
 7137TIP3    H221376   5.625   2.449   4.235
 7138TIP3   OH221377   6.131   4.862   1.340
 7138TIP3    H121378   6.086   4.822   1.414
 7138TIP3    H221379   6.093   4.949   1.333
 7139TIP3   OH221380   1.245   5.863   5.201
 7139TIP3    H121381   1.171   5.919   5.224
 7139TIP3    H221382   1.238   5.789   5.262
 7140TIP3   OH221383   2.395   1.201   5.581
 7140TIP3    H121384   2.302   1.204   5.603
 7140TIP3    H221385   2.402   1.133   5.514
 7141TIP3   OH221386   5.814   2.802   5.245
 7141TIP3    H121387   5.735   2.807   5.191
 7141TIP3    H221388   5.886   2.808   5.182
 7142TIP3   OH221389   4.654   3.667   3.936
 7142TIP3    H121390   4.734   3.681   3.885
 7142TIP3    H221391   4.586   3.713   3.887
 7143TIP3   OH221392   4.646   4.768   5.868
 7143TIP3    H121393   4.662   4.736   5.780
 7143TIP3    H221394   4.684   4.702   5.926
 7144TIP3   OH221395   6.930   6.671   0.086
 7144TIP3    H121396   6.997   6.641   0.025
 7144TIP3    H221397   6.852   6.684   0.031
 7145TIP3   OH221398   0.192   3.039   0.995
 7145TIP3    H121399   0.180   2.944   1.000
 7145TIP3    H221400   0.225   3.055   0.907
 7146TIP3   OH221401   4.537   0.620   3.167
 7146TIP3    H121402   4.500   0.661   3.089
 7146TIP3    H221403   4.573   0.537   3.136
 7147TIP3   OH221404   2.269   5.341   2.024
 7147TIP3    H121405   2.341   5.319   2.083
 7147TIP3    H221406   2.242   5.430   2.051
 7148TIP3   OH221407   4.093   6.698   0.824
 7148TIP3    H121408   4.123   6.768   0.883
 7148TIP3    H221409   4.081   6.742   0.740
 7149TIP3   OH221410   2.969   3.387   5.494
 7149TIP3    H121411   2.985   3.335   5.415
 7149TIP3    H221412   3.054   3.394   5.537
 7150TIP3   OH221413   0.110   6.254   4.868
 7150TIP3    H121414   0.064   6.335   4.844
 7150TIP3    H221415   0.198   6.266   4.834
 7151TIP3   OH221416   2.711   0.069   5.284
 7151TIP3    H121417   2.751   0.033   5.205
 7151TIP3    H221418   2.775   0.054   5.353
 7152TIP3   OH221419   1.240   4.048   1.587
 7152TIP3    H121420   1.275   4.134   1.561
 7152TIP3    H221421   1.318   3.993   1.596
 7153TIP3   OH221422   6.488   6.212   5.461
 7153TIP3    H121423   6.454   6.297   5.491
 7153TIP3    H221424   6.461   6.206   5.370
 7154TIP3   OH221425   6.296   0.757   3.894
 7154TIP3    H121426   6.373   0.757   3.837
 7154TIP3    H221427   6.227   0.717   3.840
 7155TIP3   OH221428   3.193   4.460   5.066
 7155TIP3    H121429   3.276   4.444   5.021
 7155TIP3    H221430   3.139   4.384   5.044
 7156TIP3   OH221431   0.705   3.282   2.429
 7156TIP3    H121432   0.778   3.258   2.487
 7156TIP3    H221433   0.684   3.372   2.453
 7157TIP3   OH221434   6.319   4.265   0.308
 7157TIP3    H121435   6.315   4.196   0.375
 7157TIP3    H221436   6.361   4.338   0.353
 7158TIP3   OH221437   6.654   5.536   2.782
 7158TIP3    H121438   6.630   5.472   2.849
 7158TIP3    H221439   6.578   5.593   2.774
 7159TIP3   OH221440   1.652   3.305   0.589
 7159TIP3    H121441   1.687   3.394   0.582
 7159TIP3    H221442   1.707   3.262   0.654
 7160TIP3   OH221443   6.226   1.900   0.621
 7160TIP3    H121444   6.174   1.820   0.622
 7160TIP3    H221445   6.180   1.959   0.562
 7161TIP3   OH221446   3.665   4.947   0.150
 7161TIP3    H121447   3.688   5.030   0.110
 7161TIP3    H221448   3.605   4.906   0.087
 7162TIP3   OH221449   1.270   1.186   5.176
 7162TIP3    H121450   1.271   1.149   5.088
 7162TIP3    H221451   1.184   1.164   5.211
 7163TIP3   OH221452   2.123   4.484   5.181
 7163TIP3    H121453   2.105   4.510   5.091
 7163TIP3    H221454   2.038   4.460   5.217
 7164TIP3   OH221455   0.027   6.035   4.672
 7164TIP3    H121456   0.007   6.000   4.759
 7164TIP3    H221457  -0.020   6.118   4.669
 7165TIP3   OH221458   6.033   1.429   1.953
 7165TIP3    H121459   5.971   1.363   1.923
 7165TIP3    H221460   5.978   1.497   1.992
 7166TIP3   OH221461   3.840   2.348   5.671
 7166TIP3    H121462   3.909   2.300   5.625
 7166TIP3    H221463   3.803   2.284   5.731
 7167TIP3   OH221464   2.631   2.249   3.185
 7167TIP3    H121465   2.542   2.219   3.204
 7167TIP3    H221466   2.653   2.209   3.101
 7168TIP3   OH221467   1.656   1.481   2.925
 7168TIP3    H121468   1.707   1.546   2.877
 7168TIP3    H221469   1.587   1.532   2.968
 7169TIP3   OH221470   2.357   0.688   3.086
 7169TIP3    H121471   2.414   0.623   3.127
 7169TIP3    H221472   2.414   0.736   3.027
 7170TIP3   OH221473   3.254   1.036   3.492
 7170TIP3    H121474   3.264   0.952   3.535
 7170TIP3    H221475   3.344   1.067   3.480
 7171TIP3   OH221476   1.870   6.220   5.889
 7171TIP3    H121477   1.777   6.238   5.896
 7171TIP3    H221478   1.877   6.158   5.817
 7172TIP3   OH221479   3.508   0.265   4.870
 7172TIP3    H121480   3.538   0.187   4.823
 7172TIP3    H221481   3.420   0.281   4.837
 7173TIP3   OH221482   5.233   0.484   2.524
 7173TIP3    H121483   5.293   0.511   2.594
 7173TIP3    H221484   5.173   0.558   2.515
 7174TIP3   OH221485   6.319   2.061   5.116
 7174TIP3    H121486   6.287   1.972   5.102
 7174TIP3    H221487   6.242   2.110   5.145
 7175TIP3   OH221488   5.793   2.438   0.290
 7175TIP3    H121489   5.804   2.417   0.382
 7175TIP3    H221490   5.791   2.353   0.246
 7176TIP3   OH221491   5.297   5.584   0.616
 7176TIP3    H121492   5.277   5.506   0.565
 7176TIP3    H221493   5.370   5.625   0.570
 7177TIP3   OH221494   0.687   0.284   4.578
 7177TIP3    H121495   0.705   0.223   4.506
 7177TIP3    H221496   0.769   0.331   4.590
 7178TIP3   OH221497   5.690   6.283   3.221
 7178TIP3    H121498   5.635   6.214   3.183
 7178TIP3    H221499   5.758   6.298   3.156
 7179TIP3   OH221500   5.379   2.869   4.448
 7179TIP3    H121501   5.453   2.920   4.415
 7179TIP3    H221502   5.407   2.841   4.536
 7180TIP3   OH221503   7.066   6.274   2.010
 7180TIP3    H121504   7.040   6.205   2.071
 7180TIP3    H221505   7.052   6.235   1.923
 7181TIP3   OH221506   3.783   2.152   1.051
 7181TIP3    H121507   3.734   2.075   1.077
 7181TIP3    H221508   3.746   2.223   1.104
 7182TIP3   OH221509   0.022   2.590   5.217
 7182TIP3    H121510  -0.037   2.519   5.190
 7182TIP3    H221511   0.066   2.556   5.295
 7183TIP3   OH221512   5.383   3.558   4.435
 7183TIP3    H121513   5.301   3.521   4.402
 7183TIP3    H221514   5.374   3.556   4.530
 7184TIP3   OH221515   6.050   0.077   5.620
 7184TIP3    H121516   6.128   0.128   5.639
 7184TIP3    H221517   6.067  -0.008   5.659
 7185TIP3   OH221518   0.656   2.519   4.420
 7185TIP3    H121519   0.638   2.592   4.480
 7185TIP3    H221520   0.631   2.441   4.470
 7186TIP3   OH221521   2.849   3.794   3.311
 7186TIP3    H121522   2.842   3.731   3.240
 7186TIP3    H221523   2.772   3.778   3.366
 7187TIP3   OH221524   4.246   0.083   4.237
 7187TIP3    H121525   4.196   0.158   4.269
 7187TIP3    H221526   4.320   0.075   4.298
 7188TIP3   OH221527   2.381   3.539   4.101
 7188TIP3    H121528   2.401   3.618   4.050
 7188TIP3    H221529   2.288   3.547   4.121
 7189TIP3   OH221530   2.577   5.179   5.842
 7189TIP3    H121531   2.578   5.256   5.900
 7189TIP3    H221532   2.646   5.122   5.877
 7190TIP3   OH221533   6.508   5.122   2.938
 7190TIP3    H121534   6.582   5.072   2.904
 7190TIP3    H221535   6.454   5.141   2.861
 7191TIP3   OH221536   6.796   2.062   0.021
 7191TIP3    H121537   6.888   2.089   0.029
 7191TIP3    H221538   6.794   1.973   0.055
 7192TIP3   OH221539   2.388   4.745   1.908
 7192TIP3    H121540   2.313   4.788   1.950
 7192TIP3    H221541   2.463   4.802   1.929
 7193TIP3   OH221542   3.553   5.699   4.654
 7193TIP3    H121543   3.541   5.737   4.741
 7193TIP3    H221544   3.646   5.677   4.650
 7194TIP3   OH221545   0.350   2.331   4.162
 7194TIP3    H121546   0.255   2.337   4.152
 7194TIP3    H221547   0.363   2.314   4.255
 7195TIP3   OH221548   5.548   4.200   2.989
 7195TIP3    H121549   5.482   4.141   2.953
 7195TIP3    H221550   5.609   4.144   3.035
 7196TIP3   OH221551   4.819   6.768   0.936
 7196TIP3    H121552   4.837   6.677   0.958
 7196TIP3    H221553   4.810   6.812   1.021
 7197TIP3   OH221554   5.608   3.806   1.621
 7197TIP3    H121555   5.589   3.861   1.545
 7197TIP3    H221556   5.529   3.754   1.635
 7198TIP3   OH221557   5.258   6.182   5.590
 7198TIP3    H121558   5.326   6.190   5.657
 7198TIP3    H221559   5.209   6.104   5.616
 7199TIP3   OH221560   0.804   4.755   3.977
 7199TIP3    H121561   0.826   4.786   3.889
 7199TIP3    H221562   0.826   4.662   3.975
 7200TIP3   OH221563   6.872   2.329   4.020
 7200TIP3    H121564   6.923   2.409   4.005
 7200TIP3    H221565   6.840   2.338   4.109
 7201TIP3   OH221566   1.380   5.110   4.073
 7201TIP3    H121567   1.464   5.127   4.030
 7201TIP3    H221568   1.359   5.193   4.117
 7202TIP3   OH221569   1.970   5.770   2.374
 7202TIP3    H121570   1.908   5.782   2.446
 7202TIP3    H221571   1.921   5.797   2.296
 7203TIP3   OH221572   1.711   4.868   1.863
 7203TIP3    H121573   1.737   4.781   1.831
 7203TIP3    H221574   1.617   4.873   1.844
 7204TIP3   OH221575   3.795   1.235   3.463
 7204TIP3    H121576   3.772   1.236   3.556
 7204TIP3    H221577   3.805   1.327   3.440
 7205TIP3   OH221578   2.901   5.467   1.012
 7205TIP3    H121579   2.852   5.440   0.934
 7205TIP3    H221580   2.879   5.400   1.078
 7206TIP3   OH221581   3.225   0.564   2.293
 7206TIP3    H121582   3.137   0.590   2.268
 7206TIP3    H221583   3.235   0.475   2.260
 7207TIP3   OH221584   0.617   1.658   1.425
 7207TIP3    H121585   0.608   1.628   1.335
 7207TIP3    H221586   0.527   1.655   1.460
 7208TIP3   OH221587   3.168   3.172   2.681
 7208TIP3    H121588   3.097   3.109   2.668
 7208TIP3    H221589   3.228   3.155   2.608
 7209TIP3   OH221590   5.867   5.630   3.773
 7209TIP3    H121591   5.806   5.684   3.723
 7209TIP3    H221592   5.828   5.624   3.860
 7210TIP3   OH221593   6.157   1.748   2.278
 7210TIP3    H121594   6.135   1.710   2.363
 7210TIP3    H221595   6.176   1.840   2.297
 7211TIP3   OH221596   4.828   0.754   5.271
 7211TIP3    H121597   4.883   0.680   5.250
 7211TIP3    H221598   4.889   0.826   5.286
 7212TIP3   OH221599   2.052   4.980   4.636
 7212TIP3    H121600   2.087   4.968   4.548
 7212TIP3    H221601   1.971   4.929   4.638
 7213TIP3   OH221602   0.782   2.736   2.072
 7213TIP3    H121603   0.698   2.775   2.047
 7213TIP3    H221604   0.790   2.659   2.016
 7214TIP3   OH221605   0.598   0.059   2.340
 7214TIP3    H121606   0.568   0.135   2.389
 7214TIP3    H221607   0.691   0.074   2.326
 7215TIP3   OH221608   5.774   2.133   1.398
 7215TIP3    H121609   5.760   2.205   1.336
 7215TIP3    H221610   5.696   2.078   1.389
 7216TIP3   OH221611   4.368   3.457   1.141
 7216TIP3    H121612   4.434   3.431   1.077
 7216TIP3    H221613   4.365   3.384   1.203
 7217TIP3   OH221614   4.434   2.034   1.653
 7217TIP3    H121615   4.447   2.086   1.732
 7217TIP3    H221616   4.494   2.071   1.589
 7218TIP3   OH221617   5.952   2.297   1.045
 7218TIP3    H121618   5.969   2.376   0.994
 7218TIP3    H221619   5.973   2.225   0.986
 7219TIP3   OH221620   1.379   0.778   0.377
 7219TIP3    H121621   1.296   0.732   0.383
 7219TIP3    H221622   1.373   0.829   0.296
 7220TIP3   OH221623   6.800   6.064   1.044
 7220TIP3    H121624   6.861   6.138   1.041
 7220TIP3    H221625   6.775   6.057   1.136
 7221TIP3   OH221626   3.170   5.697   3.674
 7221TIP3    H121627   3.205   5.666   3.757
 7221TIP3    H221628   3.246   5.701   3.615
 7222TIP3   OH221629   4.342   1.743   5.430
 7222TIP3    H121630   4.431   1.753   5.462
 7222TIP3    H221631   4.351   1.714   5.340
 7223TIP3   OH221632   6.011   2.608   4.063
 7223TIP3    H121633   6.037   2.648   3.980
 7223TIP3    H221634   5.948   2.540   4.037
 7224TIP3   OH221635   6.179   0.428   1.816
 7224TIP3    H121636   6.272   0.410   1.800
 7224TIP3    H221637   6.168   0.520   1.789
 7225TIP3   OH221638   5.313   1.472   2.960
 7225TIP3    H121639   5.374   1.545   2.973
 7225TIP3    H221640   5.328   1.445   2.869
 7226TIP3   OH221641   7.064   4.513   3.909
 7226TIP3    H121642   7.070   4.586   3.847
 7226TIP3    H221643   6.990   4.536   3.966
 7227TIP3   OH221644   4.665   3.185   4.939
 7227TIP3    H121645   4.680   3.091   4.933
 7227TIP3    H221646   4.723   3.214   5.010
 7228TIP3   OH221647   4.420   2.250   3.332
 7228TIP3    H121648   4.364   2.247   3.254
 7228TIP3    H221649   4.461   2.336   3.329
 7229TIP3   OH221650   7.077   1.380   1.669
 7229TIP3    H121651   7.083   1.475   1.680
 7229TIP3    H221652   6.994   1.357   1.710
 7230TIP3   OH221653   5.589   0.917   0.475
 7230TIP3    H121654   5.605   0.971   0.397
 7230TIP3    H221655   5.510   0.955   0.514
 7231TIP3   OH221656   6.954   1.467   1.201
 7231TIP3    H121657   6.948   1.558   1.171
 7231TIP3    H221658   6.948   1.472   1.296
 7232TIP3   OH221659   0.844   5.282   3.426
 7232TIP3    H121660   0.893   5.225   3.368
 7232TIP3    H221661   0.911   5.331   3.475
 7233TIP3   OH221662   3.863   5.469   3.637
 7233TIP3    H121663   3.957   5.486   3.635
 7233TIP3    H221664   3.837   5.489   3.726
 7234TIP3   OH221665   5.677   5.824   3.687
 7234TIP3    H121666   5.596   5.782   3.658
 7234TIP3    H221667   5.648   5.889   3.751
 7235TIP3   OH221668   0.197   5.273   5.250
 7235TIP3    H121669   0.145   5.251   5.327
 7235TIP3    H221670   0.175   5.365   5.233
 7236TIP3   OH221671   4.369   4.634   1.517
 7236TIP3    H121672   4.300   4.684   1.471
 7236TIP3    H221673   4.360   4.545   1.482
 7237TIP3   OH221674   1.018   5.740   5.424
 7237TIP3    H121675   1.001   5.817   5.369
 7237TIP3    H221676   0.977   5.668   5.376
 7238TIP3   OH221677   2.203   4.938   3.109
 7238TIP3    H121678   2.181   4.855   3.067
 7238TIP3    H221679   2.182   5.005   3.044
 7239TIP3   OH221680   5.393   4.218   4.284
 7239TIP3    H121681   5.309   4.179   4.307
 7239TIP3    H221682   5.445   4.212   4.365
 7240TIP3   OH221683   4.041   0.103   1.180
 7240TIP3    H121684   4.121   0.114   1.129
 7240TIP3    H221685   4.071   0.070   1.265
 7241TIP3   OH221686   5.494   4.895   3.253
 7241TIP3    H121687   5.436   4.830   3.212
 7241TIP3    H221688   5.464   4.901   3.343
 7242TIP3   OH221689   6.294   3.511   0.434
 7242TIP3    H121690   6.224   3.510   0.499
 7242TIP3    H221691   6.258   3.560   0.360
 7243TIP3   OH221692   3.958   4.336   4.825
 7243TIP3    H121693   3.906   4.401   4.873
 7243TIP3    H221694   3.898   4.301   4.760
 7244TIP3   OH221695   3.075   0.536   0.040
 7244TIP3    H121696   2.998   0.572   0.083
 7244TIP3    H221697   3.047   0.518  -0.049
 7245TIP3   OH221698   6.901   5.601   3.792
 7245TIP3    H121699   6.817   5.600   3.746
 7245TIP3    H221700   6.899   5.682   3.843
 7246TIP3   OH221701   6.217   0.348   3.310
 7246TIP3    H121702   6.203   0.253   3.308
 7246TIP3    H221703   6.221   0.370   3.403
 7247TIP3   OH221704   6.821   4.091   1.847
 7247TIP3    H121705   6.859   4.131   1.768
 7247TIP3    H221706   6.730   4.073   1.823
 7248TIP3   OH221707   4.907   1.150   1.842
 7248TIP3    H121708   4.987   1.184   1.882
 7248TIP3    H221709   4.882   1.077   1.898
 7249TIP3   OH221710   2.675   6.639   1.819
 7249TIP3    H121711   2.594   6.633   1.869
 7249TIP3    H221712   2.738   6.679   1.879
 7250TIP3   OH221713   2.779   0.472   1.917
 7250TIP3    H121714   2.790   0.407   1.848
 7250TIP3    H221715   2.732   0.426   1.986
 7251TIP3   OH221716   1.495   4.138   1.025
 7251TIP3    H121717   1.454   4.212   0.980
 7251TIP3    H221718   1.460   4.061   0.980
 7252TIP3   OH221719   6.713   2.824   3.860
 7252TIP3    H121720   6.806   2.832   3.841
 7252TIP3    H221721   6.704   2.858   3.949
 7253TIP3   OH221722   0.180   3.827   4.500
 7253TIP3    H121723   0.191   3.761   4.432
 7253TIP3    H221724   0.117   3.788   4.561
 7254TIP3   OH221725   6.803   5.462   1.433
 7254TIP3    H121726   6.738   5.426   1.494
 7254TIP3    H221727   6.871   5.395   1.427
 7255TIP3   OH221728   0.424   5.539   4.752
 7255TIP3    H121729   0.420   5.449   4.784
 7255TIP3    H221730   0.504   5.575   4.789
 7256TIP3   OH221731   0.439   3.595   0.107
 7256TIP3    H121732   0.494   3.547   0.046
 7256TIP3    H221733   0.443   3.544   0.188
 7257TIP3   OH221734   0.292   2.038   4.046
 7257TIP3    H121735   0.309   2.128   4.073
 7257TIP3    H221736   0.214   2.012   4.094
 7258TIP3   OH221737   5.398   6.223   4.711
 7258TIP3    H121738   5.382   6.148   4.654
 7258TIP3    H221739   5.318   6.232   4.762
 7259TIP3   OH221740   4.565   5.374   0.675
 7259TIP3    H121741   4.606   5.292   0.646
 7259TIP3    H221742   4.537   5.356   0.765
 7260TIP3   OH221743   4.889   1.414   4.614
 7260TIP3    H121744   4.905   1.370   4.698
 7260TIP3    H221745   4.898   1.507   4.633
 7261TIP3   OH221746   5.286   0.094   0.839
 7261TIP3    H121747   5.353   0.160   0.855
 7261TIP3    H221748   5.208   0.127   0.883
 7262TIP3   OH221749   5.223   5.899   0.521
 7262TIP3    H121750   5.140   5.853   0.523
 7262TIP3    H221751   5.288   5.834   0.548
 7263TIP3   OH221752   1.813   6.085   0.372
 7263TIP3    H121753   1.811   6.045   0.286
 7263TIP3    H221754   1.899   6.062   0.408
 7264TIP3   OH221755   1.455   5.220   4.853
 7264TIP3    H121756   1.468   5.289   4.918
 7264TIP3    H221757   1.542   5.207   4.814
 7265TIP3   OH221758   5.912   3.161   5.819
 7265TIP3    H121759   5.959   3.079   5.805
 7265TIP3    H221760   5.890   3.191   5.731
 7266TIP3   OH221761   3.465   2.570   0.786
 7266TIP3    H121762   3.430   2.613   0.865
 7266TIP3    H221763   3.536   2.514   0.819
 7267TIP3   OH221764   4.919   5.293   4.962
 7267TIP3    H121765   4.948   5.273   5.051
 7267TIP3    H221766   4.911   5.208   4.919
 7268TIP3   OH221767   3.206   3.544   0.589
 7268TIP3    H121768   3.196   3.452   0.566
 7268TIP3    H221769   3.212   3.590   0.506
 7269TIP3   OH221770   0.900   0.090   5.693
 7269TIP3    H121771   0.875   0.026   5.627
 7269TIP3    H221772   0.877   0.048   5.776
 7270TIP3   OH221773   5.250   0.877   3.199
 7270TIP3    H121774   5.211   0.872   3.286
 7270TIP3    H221775   5.205   0.949   3.155
 7271TIP3   OH221776   5.053   1.589   1.700
 7271TIP3    H121777   5.141   1.587   1.663
 7271TIP3    H221778   5.004   1.525   1.650
 7272TIP3   OH221779   6.461   2.606   1.501
 7272TIP3    H121780   6.546   2.564   1.486
 7272TIP3    H221781   6.440   2.648   1.418
 7273TIP3   OH221782   5.949   3.499   5.323
 7273TIP3    H121783   6.036   3.537   5.314
 7273TIP3    H221784   5.927   3.509   5.415
 7274TIP3   OH221785   7.176   1.028   2.839
 7274TIP3    H121786   7.207   0.980   2.762
 7274TIP3    H221787   7.109   1.086   2.805
 7275TIP3   OH221788   7.177   5.773   4.203
 7275TIP3    H121789   7.222   5.839   4.256
 7275TIP3    H221790   7.084   5.783   4.226
 7276TIP3   OH221791   7.140   2.996   4.123
 7276TIP3    H121792   7.129   3.086   4.155
 7276TIP3    H221793   7.232   2.976   4.139
 7277TIP3   OH221794   5.652   3.222   0.579
 7277TIP3    H121795   5.622   3.306   0.546
 7277TIP3    H221796   5.722   3.244   0.641
 7278TIP3   OH221797   4.627   0.991   4.951
 7278TIP3    H121798   4.590   1.013   4.866
 7278TIP3    H221799   4.552   0.977   5.008
 7279TIP3   OH221800   1.716   0.782   1.447
 7279TIP3    H121801   1.794   0.746   1.490
 7279TIP3    H221802   1.650   0.785   1.516
 7280TIP3   OH221803   1.748   1.865   3.534
 7280TIP3    H121804   1.835   1.899   3.555
 7280TIP3    H221805   1.760   1.820   3.450
 7281TIP3   OH221806   3.271   1.323   2.891
 7281TIP3    H121807   3.225   1.278   2.820
 7281TIP3    H221808   3.218   1.401   2.909
 7282TIP3   OH221809   4.176   4.755   1.117
 7282TIP3    H121810   4.085   4.780   1.134
 7282TIP3    H221811   4.188   4.773   1.023
 7283TIP3   OH221812   6.127   3.433   2.272
 7283TIP3    H121813   6.096   3.352   2.231
 7283TIP3    H221814   6.187   3.404   2.341
 7284TIP3   OH221815   0.685   1.819   5.439
 7284TIP3    H121816   0.753   1.886   5.433
 7284TIP3    H221817   0.604   1.864   5.415
 7285TIP3   OH221818   0.052   3.985   3.198
 7285TIP3    H121819   0.019   3.998   3.109
 7285TIP3    H221820  -0.022   4.006   3.254
 7286TIP3   OH221821   6.509   5.206   1.013
 7286TIP3    H121822   6.464   5.247   0.940
 7286TIP3    H221823   6.452   5.221   1.089
 7287TIP3   OH221824   0.988   4.670   1.493
 7287TIP3    H121825   0.975   4.577   1.473
 7287TIP3    H221826   0.921   4.691   1.558
 7288TIP3   OH221827   5.950   0.127   4.615
 7288TIP3    H121828   5.977   0.119   4.523
 7288TIP3    H221829   5.997   0.203   4.647
 7289TIP3   OH221830   2.416   4.774   0.557
 7289TIP3    H121831   2.452   4.781   0.646
 7289TIP3    H221832   2.453   4.694   0.522
 7290TIP3   OH221833   6.545   3.808   2.125
 7290TIP3    H121834   6.621   3.817   2.181
 7290TIP3    H221835   6.571   3.743   2.060
 7291TIP3   OH221836   1.975   3.007   0.226
 7291TIP3    H121837   1.935   2.993   0.311
 7291TIP3    H221838   2.010   2.921   0.202
 7292TIP3   OH221839   2.251   6.296   5.559
 7292TIP3    H121840   2.211   6.377   5.592
 7292TIP3    H221841   2.213   6.286   5.471
 7293TIP3   OH221842   5.772   4.485   2.138
 7293TIP3    H121843   5.805   4.574   2.134
 7293TIP3    H221844   5.844   4.434   2.176
 7294TIP3   OH221845   6.446   2.020   3.102
 7294TIP3    H121846   6.464   2.089   3.038
 7294TIP3    H221847   6.521   1.960   3.094
 7295TIP3   OH221848   2.875   5.860   4.825
 7295TIP3    H121849   2.781   5.841   4.822
 7295TIP3    H221850   2.896   5.892   4.737
 7296TIP3   OH221851   5.083   6.271   0.759
 7296TIP3    H121852   4.997   6.263   0.719
 7296TIP3    H221853   5.139   6.213   0.707
 7297TIP3   OH221854   3.625   3.153   1.267
 7297TIP3    H121855   3.582   3.231   1.233
 7297TIP3    H221856   3.708   3.184   1.303
 7298TIP3   OH221857   0.701   0.961   4.037
 7298TIP3    H121858   0.659   1.046   4.026
 7298TIP3    H221859   0.649   0.902   3.982
 7299TIP3   OH221860   1.170   2.875   1.221
 7299TIP3    H121861   1.110   2.950   1.218
 7299TIP3    H221862   1.216   2.878   1.136
 7300TIP3   OH221863   2.955   1.739   1.357
 7300TIP3    H121864   2.868   1.699   1.352
 7300TIP3    H221865   3.015   1.665   1.364
 7301TIP3   OH221866   1.927   4.180   3.768
 7301TIP3    H121867   1.967   4.134   3.842
 7301TIP3    H221868   1.956   4.131   3.691
 7302TIP3   OH221869   5.732   1.500   2.075
 7302TIP3    H121870   5.658   1.485   2.016
 7302TIP3    H221871   5.722   1.591   2.103
 7303TIP3   OH221872   5.434   4.693   3.827
 7303TIP3    H121873   5.498   4.634   3.787
 7303TIP3    H221874   5.350   4.666   3.789
 7304TIP3   OH221875   6.142   2.744   0.827
 7304TIP3    H121876   6.181   2.828   0.852
 7304TIP3    H221877   6.129   2.750   0.733
 7305TIP3   OH221878   1.557   6.508   0.846
 7305TIP3    H121879   1.478   6.455   0.856
 7305TIP3    H221880   1.536   6.571   0.777
 7306TIP3   OH221881   5.874   3.303   4.383
 7306TIP3    H121882   5.920   3.249   4.320
 7306TIP3    H221883   5.799   3.338   4.335
 7307TIP3   OH221884   6.422   2.725   1.914
 7307TIP3    H121885   6.439   2.758   1.826
 7307TIP3    H221886   6.438   2.800   1.971
 7308TIP3   OH221887   2.172   2.660   1.202
 7308TIP3    H121888   2.125   2.720   1.144
 7308TIP3    H221889   2.264   2.673   1.180
 7309TIP3   OH221890   4.369   0.971   5.069
 7309TIP3    H121891   4.316   1.020   5.132
 7309TIP3    H221892   4.320   0.976   4.987
 7310TIP3   OH221893   3.863   0.941   2.101
 7310TIP3    H121894   3.955   0.950   2.126
 7310TIP3    H221895   3.852   1.001   2.028
 7311TIP3   OH221896   6.582   2.185   1.532
 7311TIP3    H121897   6.536   2.253   1.581
 7311TIP3    H221898   6.517   2.154   1.469
 7312TIP3   OH221899   1.254   6.071   4.744
 7312TIP3    H121900   1.212   6.096   4.826
 7312TIP3    H221901   1.267   5.977   4.752
 7313TIP3   OH221902   4.181   0.990   1.386
 7313TIP3    H121903   4.237   0.918   1.415
 7313TIP3    H221904   4.204   1.002   1.293
 7314TIP3   OH221905   1.141   6.567   5.187
 7314TIP3    H121906   1.087   6.500   5.227
 7314TIP3    H221907   1.217   6.519   5.153
 7315TIP3   OH221908   1.716   4.739   3.973
 7315TIP3    H121909   1.627   4.735   4.007
 7315TIP3    H221910   1.708   4.715   3.881
 7316TIP3   OH221911   5.116   1.897   4.775
 7316TIP3    H121912   5.059   1.960   4.731
 7316TIP3    H221913   5.056   1.834   4.815
 7317TIP3   OH221914   2.028   4.427   1.470
 7317TIP3    H121915   2.118   4.431   1.438
 7317TIP3    H221916   2.035   4.388   1.557
 7318TIP3   OH221917   2.221   2.182   0.355
 7318TIP3    H121918   2.205   2.104   0.409
 7318TIP3    H221919   2.134   2.214   0.332
 7319TIP3   OH221920   6.705   6.653   4.464
 7319TIP3    H121921   6.704   6.693   4.377
 7319TIP3    H221922   6.664   6.719   4.520
 7320TIP3   OH221923   4.426   0.263   2.868
 7320TIP3    H121924   4.360   0.322   2.832
 7320TIP3    H221925   4.377   0.184   2.891
 7321TIP3   OH221926   3.580   3.652   1.806
 7321TIP3    H121927   3.530   3.690   1.878
 7321TIP3    H221928   3.532   3.678   1.727
 7322TIP3   OH221929   2.758   1.353   3.115
 7322TIP3    H121930   2.800   1.438   3.123
 7322TIP3    H221931   2.807   1.308   3.047
 7323TIP3   OH221932   0.447   4.162   4.093
 7323TIP3    H121933   0.511   4.098   4.061
 7323TIP3    H221934   0.459   4.238   4.037
 7324TIP3   OH221935   3.514   0.797   2.724
 7324TIP3    H121936   3.604   0.826   2.716
 7324TIP3    H221937   3.500   0.739   2.649
 7325TIP3   OH221938   1.069   5.743   0.500
 7325TIP3    H121939   0.997   5.806   0.503
 7325TIP3    H221940   1.060   5.701   0.414
 7326TIP3   OH221941   7.018   2.796   3.119
 7326TIP3    H121942   7.068   2.716   3.139
 7326TIP3    H221943   7.015   2.799   3.023
 7327TIP3   OH221944   6.390   0.403   0.757
 7327TIP3    H121945   6.455   0.472   0.771
 7327TIP3    H221946   6.369   0.409   0.663
 7328TIP3   OH221947   2.995   1.864   5.352
 7328TIP3    H121948   3.009   1.777   5.390
 7328TIP3    H221949   3.082   1.905   5.354
 7329TIP3   OH221950   3.022   2.349   1.105
 7329TIP3    H121951   3.102   2.340   1.053
 7329TIP3    H221952   2.957   2.296   1.058
 7330TIP3   OH221953   4.843   0.557   5.073
 7330TIP3    H121954   4.798   0.498   5.012
 7330TIP3    H221955   4.821   0.645   5.042
 7331TIP3   OH221956   6.336   3.987   5.483
 7331TIP3    H121957   6.258   3.998   5.537
 7331TIP3    H221958   6.401   4.045   5.522
 7332TIP3   OH221959   3.684   3.247   2.004
 7332TIP3    H121960   3.640   3.288   2.078
 7332TIP3    H221961   3.777   3.265   2.018
 7333TIP3   OH221962   2.708   2.603   3.588
 7333TIP3    H121963   2.709   2.520   3.635
 7333TIP3    H221964   2.639   2.594   3.523
 7334TIP3   OH221965   3.578   6.578   2.595
 7334TIP3    H121966   3.514   6.619   2.653
 7334TIP3    H221967   3.596   6.644   2.528
 7335TIP3   OH221968   2.450   0.736   1.245
 7335TIP3    H121969   2.524   0.677   1.249
 7335TIP3    H221970   2.374   0.681   1.263
 7336TIP3   OH221971   4.170   4.660   4.855
 7336TIP3    H121972   4.170   4.597   4.928
 7336TIP3    H221973   4.244   4.718   4.874
 7337TIP3   OH221974   4.625   2.882   2.747
 7337TIP3    H121975   4.567   2.917   2.681
 7337TIP3    H221976   4.658   2.959   2.793
 7338TIP3   OH221977   2.163   6.719   2.345
 7338TIP3    H121978   2.215   6.792   2.380
 7338TIP3    H221979   2.173   6.649   2.409
 7339TIP3   OH221980   4.849   4.425   3.517
 7339TIP3    H121981   4.857   4.519   3.499
 7339TIP3    H221982   4.798   4.421   3.598
 7340TIP3   OH221983   6.490   6.636   5.430
 7340TIP3    H121984   6.534   6.575   5.371
 7340TIP3    H221985   6.433   6.688   5.373
 7341TIP3   OH221986   0.738   0.187   0.881
 7341TIP3    H121987   0.791   0.130   0.825
 7341TIP3    H221988   0.726   0.137   0.962
 7342TIP3   OH221989   1.992   5.661   0.800
 7342TIP3    H121990   2.065   5.609   0.834
 7342TIP3    H221991   1.914   5.609   0.821
 7343TIP3   OH221992   4.918   5.173   1.093
 7343TIP3    H121993   4.916   5.120   1.173
 7343TIP3    H221994   4.880   5.116   1.026
 7344TIP3   OH221995   0.819   5.261   0.470
 7344TIP3    H121996   0.900   5.284   0.425
 7344TIP3    H221997   0.818   5.317   0.547
 7345TIP3   OH221998   0.647   2.239   3.817
 7345TIP3    H121999   0.599   2.158   3.800
 7345TIP3    H222000   0.697   2.254   3.737
 7346TIP3   OH222001   2.405   3.892   4.822
 7346TIP3    H122002   2.380   3.860   4.908
 7346TIP3    H222003   2.365   3.830   4.761
 7347TIP3   OH222004   5.585   3.437   0.425
 7347TIP3    H122005   5.543   3.414   0.342
 7347TIP3    H222006   5.610   3.529   0.415
 7348TIP3   OH222007   2.696   3.052   5.378
 7348TIP3    H122008   2.624   3.052   5.441
 7348TIP3    H222009   2.756   3.120   5.410
 7349TIP3   OH222010   2.589   4.169   5.037
 7349TIP3    H122011   2.667   4.202   5.082
 7349TIP3    H222012   2.553   4.103   5.097
 7350TIP3   OH222013   0.157   3.824   5.876
 7350TIP3    H122014   0.225   3.810   5.941
 7350TIP3    H222015   0.200   3.810   5.792
 7351TIP3   OH222016   1.384   5.835   4.092
 7351TIP3    H122017   1.385   5.800   4.181
 7351TIP3    H222018   1.321   5.907   4.095
 7352TIP3   OH222019   1.771   3.012   3.839
 7352TIP3    H122020   1.727   3.040   3.759
 7352TIP3    H222021   1.849   3.068   3.844
 7353TIP3   OH222022   1.187   1.727   5.336
 7353TIP3    H122023   1.221   1.753   5.422
 7353TIP3    H222024   1.263   1.732   5.278
 7354TIP3   OH222025   3.984   4.779   3.176
 7354TIP3    H122026   3.918   4.713   3.155
 7354TIP3    H222027   4.057   4.758   3.117
 7355TIP3   OH222028   1.638   3.230   1.067
 7355TIP3    H122029   1.654   3.154   1.123
 7355TIP3    H222030   1.559   3.270   1.103
 7356TIP3   OH222031   1.764   3.427   3.817
 7356TIP3    H122032   1.832   3.367   3.847
 7356TIP3    H222033   1.747   3.401   3.727
 7357TIP3   OH222034   2.776   6.063   4.310
 7357TIP3    H122035   2.857   6.096   4.273
 7357TIP3    H222036   2.781   6.087   4.403
 7358TIP3   OH222037   5.254   6.017   2.365
 7358TIP3    H122038   5.213   6.001   2.280
 7358TIP3    H222039   5.200   6.085   2.405
 7359TIP3   OH222040   4.150   1.601   3.499
 7359TIP3    H122041   4.090   1.596   3.574
 7359TIP3    H222042   4.128   1.684   3.456
 7360TIP3   OH222043   2.545   6.153   1.645
 7360TIP3    H122044   2.568   6.117   1.559
 7360TIP3    H222045   2.617   6.126   1.701
 7361TIP3   OH222046   6.822   4.341   2.473
 7361TIP3    H122047   6.808   4.368   2.564
 7361TIP3    H222048   6.845   4.422   2.427
 7362TIP3   OH222049   0.996   5.093   0.631
 7362TIP3    H122050   0.980   5.141   0.713
 7362TIP3    H222051   0.929   5.125   0.571
 7363TIP3   OH222052   1.507   2.856   2.432
 7363TIP3    H122053   1.493   2.821   2.344
 7363TIP3    H222054   1.551   2.940   2.418
 7364TIP3   OH222055   3.193   1.541   4.618
 7364TIP3    H122056   3.168   1.599   4.546
 7364TIP3    H222057   3.251   1.477   4.577
 7365TIP3   OH222058   7.016   1.459   4.913
 7365TIP3    H122059   7.068   1.482   4.991
 7365TIP3    H222060   6.928   1.490   4.934
 7366TIP3   OH222061   4.207   4.734   5.197
 7366TIP3    H122062   4.238   4.685   5.121
 7366TIP3    H222063   4.267   4.708   5.267
 7367TIP3   OH222064   0.971   3.191   0.994
 7367TIP3    H122065   0.899   3.188   0.931
 7367TIP3    H222066   0.998   3.283   0.996
 7368TIP3   OH222067   0.217   0.712   1.347
 7368TIP3    H122068   0.235   0.700   1.253
 7368TIP3    H222069   0.276   0.649   1.390
 7369TIP3   OH222070   2.394   3.080   4.908
 7369TIP3    H122071   2.458   3.150   4.892
 7369TIP3    H222072   2.434   3.002   4.870
 7370TIP3   OH222073   2.596   2.280   0.316
 7370TIP3    H122074   2.539   2.338   0.266
 7370TIP3    H222075   2.573   2.192   0.287
 7371TIP3   OH222076   4.020   3.963   1.514
 7371TIP3    H122077   4.021   4.030   1.582
 7371TIP3    H222078   4.007   3.881   1.560
 7372TIP3   OH222079   4.892   1.679   4.649
 7372TIP3    H122080   4.892   1.680   4.553
 7372TIP3    H222081   4.892   1.771   4.674
 7373TIP3   OH222082   2.706   3.834   1.017
 7373TIP3    H122083   2.696   3.855   0.924
 7373TIP3    H222084   2.761   3.904   1.052
 7374TIP3   OH222085   4.768   1.384   3.728
 7374TIP3    H122086   4.708   1.335   3.671
 7374TIP3    H222087   4.768   1.473   3.693
 7375TIP3   OH222088   5.014   5.518   2.033
 7375TIP3    H122089   5.074   5.526   1.959
 7375TIP3    H222090   4.937   5.567   2.006
 7376TIP3   OH222091   6.744   1.592   3.682
 7376TIP3    H122092   6.649   1.591   3.693
 7376TIP3    H222093   6.771   1.503   3.703
 7377TIP3   OH222094   5.804   2.207   0.140
 7377TIP3    H122095   5.836   2.158   0.064
 7377TIP3    H222096   5.714   2.229   0.117
 7378TIP3   OH222097   6.402   2.549   0.754
 7378TIP3    H122098   6.335   2.525   0.690
 7378TIP3    H222099   6.417   2.642   0.739
 7379TIP3   OH222100   7.084   4.217   0.937
 7379TIP3    H122101   7.082   4.303   0.894
 7379TIP3    H222102   7.100   4.238   1.029
 7380TIP3   OH222103   3.127   0.023   4.632
 7380TIP3    H122104   3.053   0.039   4.690
 7380TIP3    H222105   3.088  -0.010   4.552
 7381TIP3   OH222106   5.649   3.752   3.763
 7381TIP3    H122107   5.737   3.790   3.757
 7381TIP3    H222108   5.658   3.668   3.718
 7382TIP3   OH222109   6.144   0.637   1.665
 7382TIP3    H122110   6.081   0.702   1.693
 7382TIP3    H222111   6.217   0.688   1.629
 7383TIP3   OH222112   3.394   6.624   5.531
 7383TIP3    H122113   3.435   6.589   5.452
 7383TIP3    H222114   3.406   6.718   5.525
 7384TIP3   OH222115   2.030   1.179   1.498
 7384TIP3    H122116   2.119   1.146   1.487
 7384TIP3    H222117   2.041   1.272   1.516
 7385TIP3   OH222118   0.039   5.521   0.419
 7385TIP3    H122119  -0.038   5.541   0.472
 7385TIP3    H222120   0.060   5.430   0.438
 7386TIP3   OH222121   0.653   2.106   0.795
 7386TIP3    H122122   0.606   2.188   0.810
 7386TIP3    H222123   0.735   2.115   0.842
 7387TIP3   OH222124   4.936   3.991   1.992
 7387TIP3    H122125   4.974   4.076   1.972
 7387TIP3    H222126   4.841   4.007   1.998
 7388TIP3   OH222127   0.992   6.305   5.244
 7388TIP3    H122128   1.019   6.261   5.164
 7388TIP3    H222129   0.901   6.331   5.228
 7389TIP3   OH222130   1.433   2.635   5.685
 7389TIP3    H122131   1.479   2.552   5.673
 7389TIP3    H222132   1.485   2.698   5.634
 7390TIP3   OH222133   2.267   3.096   0.297
 7390TIP3    H122134   2.245   3.189   0.295
 7390TIP3    H222135   2.182   3.052   0.292
 7391TIP3   OH222136   2.772   1.557   0.147
 7391TIP3    H122137   2.848   1.540   0.091
 7391TIP3    H222138   2.718   1.478   0.139
 7392TIP3   OH222139   3.721   2.796   4.453
 7392TIP3    H122140   3.714   2.856   4.528
 7392TIP3    H222141   3.685   2.713   4.485
 7393TIP3   OH222142   1.831   4.297   0.062
 7393TIP3    H122143   1.866   4.249   0.137
 7393TIP3    H222144   1.741   4.319   0.086
 7394TIP3   OH222145   0.086   0.983   5.077
 7394TIP3    H122146   0.041   1.059   5.113
 7394TIP3    H222147   0.148   1.020   5.013
 7395TIP3   OH222148   5.422   6.079   1.930
 7395TIP3    H122149   5.408   6.088   1.835
 7395TIP3    H222150   5.507   6.036   1.938
 7396TIP3   OH222151   3.401   4.212   0.288
 7396TIP3    H122152   3.350   4.279   0.244
 7396TIP3    H222153   3.467   4.185   0.223
 7397TIP3   OH222154   1.908   5.946   5.122
 7397TIP3    H122155   1.989   5.985   5.090
 7397TIP3    H222156   1.844   6.017   5.119
 7398TIP3   OH222157   3.309   4.546   3.124
 7398TIP3    H122158   3.347   4.481   3.065
 7398TIP3    H222159   3.383   4.600   3.151
 7399TIP3   OH222160   0.478   2.782   2.473
 7399TIP3    H122161   0.400   2.739   2.510
 7399TIP3    H222162   0.493   2.858   2.530
 7400TIP3   OH222163   1.451   0.480   3.093
 7400TIP3    H122164   1.483   0.440   3.012
 7400TIP3    H222165   1.440   0.573   3.072
 7401TIP3   OH222166   2.622   0.085   2.815
 7401TIP3    H122167   2.581   0.000   2.799
 7401TIP3    H222168   2.554   0.138   2.856
 7402TIP3   OH222169   2.047   6.742   4.418
 7402TIP3    H122170   2.136   6.739   4.381
 7402TIP3    H222171   2.007   6.660   4.391
 7403TIP3   OH222172   2.117   6.105   5.045
 7403TIP3    H122173   2.194   6.051   5.027
 7403TIP3    H222174   2.108   6.161   4.967
 7404TIP3   OH222175   3.156   5.840   1.236
 7404TIP3    H122176   3.195   5.920   1.199
 7404TIP3    H222177   3.074   5.830   1.188
 7405TIP3   OH222178   3.967   1.480   1.977
 7405TIP3    H122179   4.001   1.534   1.906
 7405TIP3    H222180   3.941   1.542   2.045
 7406TIP3   OH222181   1.416   5.524   4.048
 7406TIP3    H122182   1.443   5.516   4.140
 7406TIP3    H222183   1.322   5.544   4.053
 7407TIP3   OH222184   4.520   0.710   4.230
 7407TIP3    H122185   4.598   0.764   4.219
 7407TIP3    H222186   4.474   0.718   4.146
 7408TIP3   OH222187   4.677   6.572   2.001
 7408TIP3    H122188   4.766   6.598   1.980
 7408TIP3    H222189   4.627   6.588   1.921
 7409TIP3   OH222190   2.272   2.443   2.966
 7409TIP3    H122191   2.365   2.426   2.981
 7409TIP3    H222192   2.250   2.388   2.891
 7410TIP3   OH222193   4.626   1.770   1.741
 7410TIP3    H122194   4.555   1.814   1.695
 7410TIP3    H222195   4.593   1.758   1.830
 7411TIP3   OH222196   2.221   5.529   0.927
 7411TIP3    H122197   2.280   5.578   0.870
 7411TIP3    H222198   2.279   5.486   0.990
 7412TIP3   OH222199   3.010   3.434   1.798
 7412TIP3    H122200   3.102   3.459   1.786
 7412TIP3    H222201   2.980   3.413   1.709
 7413TIP3   OH222202   0.136   6.535   5.799
 7413TIP3    H122203   0.079   6.598   5.755
 7413TIP3    H222204   0.171   6.583   5.875
 7414TIP3   OH222205   7.150   3.494   4.882
 7414TIP3    H122206   7.112   3.417   4.922
 7414TIP3    H222207   7.244   3.486   4.899
 7415TIP3   OH222208   2.449   3.492   4.573
 7415TIP3    H122209   2.405   3.569   4.608
 7415TIP3    H222210   2.532   3.525   4.538
 7416TIP3   OH222211   2.680   1.908   2.519
 7416TIP3    H122212   2.601   1.885   2.568
 7416TIP3    H222213   2.656   1.896   2.428
 7417TIP3   OH222214   6.652   6.338   2.065
 7417TIP3    H122215   6.678   6.362   1.976
 7417TIP3    H222216   6.685   6.249   2.076
 7418TIP3   OH222217   0.645   3.177   2.977
 7418TIP3    H122218   0.642   3.264   2.938
 7418TIP3    H222219   0.727   3.176   3.026
 7419TIP3   OH222220   1.969   2.625   5.688
 7419TIP3    H122221   1.895   2.648   5.632
 7419TIP3    H222222   1.929   2.603   5.772
 7420TIP3   OH222223   3.383   0.707   0.698
 7420TIP3    H122224   3.331   0.686   0.620
 7420TIP3    H222225   3.358   0.797   0.719
 7421TIP3   OH222226   0.987   3.710   1.420
 7421TIP3    H122227   1.012   3.722   1.329
 7421TIP3    H222228   0.944   3.792   1.444
 7422TIP3   OH222229   5.505   1.624   3.427
 7422TIP3    H122230   5.521   1.566   3.352
 7422TIP3    H222231   5.580   1.611   3.484
 7423TIP3   OH222232   1.213   0.233   1.506
 7423TIP3    H122233   1.175   0.161   1.457
 7423TIP3    H222234   1.152   0.249   1.577
 7424TIP3   OH222235   1.226   6.074   4.307
 7424TIP3    H122236   1.164   6.088   4.378
 7424TIP3    H222237   1.172   6.053   4.231
 7425TIP3   OH222238   3.974   6.394   5.532
 7425TIP3    H122239   3.917   6.408   5.608
 7425TIP3    H222240   4.032   6.470   5.530
 7426TIP3   OH222241   0.960   1.493   2.769
 7426TIP3    H122242   0.909   1.412   2.763
 7426TIP3    H222243   1.032   1.481   2.706
 7427TIP3   OH222244   1.413   6.248   2.669
 7427TIP3    H122245   1.490   6.246   2.612
 7427TIP3    H222246   1.366   6.168   2.648
 7428TIP3   OH222247   2.609   4.523   4.227
 7428TIP3    H122248   2.517   4.546   4.226
 7428TIP3    H222249   2.654   4.604   4.253
 7429TIP3   OH222250   3.007   6.257   1.474
 7429TIP3    H122251   2.916   6.250   1.447
 7429TIP3    H222252   3.031   6.347   1.454
 7430TIP3   OH222253   3.116   0.991   3.058
 7430TIP3    H122254   3.179   1.051   3.019
 7430TIP3    H222255   3.043   0.989   2.996
 7431TIP3   OH222256   6.492   6.596   1.904
 7431TIP3    H122257   6.557   6.610   1.974
 7431TIP3    H222258   6.420   6.550   1.948
 7432TIP3   OH222259   4.454   0.067   1.515
 7432TIP3    H122260   4.498   0.126   1.454
 7432TIP3    H222261   4.369   0.049   1.474
 7433TIP3   OH222262   1.942   1.108   2.006
 7433TIP3    H122263   1.894   1.179   2.048
 7433TIP3    H222264   1.877   1.039   1.991
 7434TIP3   OH222265   2.966   2.612   2.516
 7434TIP3    H122266   2.942   2.530   2.475
 7434TIP3    H222267   2.990   2.670   2.443
 7435TIP3   OH222268   2.560   0.071   0.140
 7435TIP3    H122269   2.647   0.070   0.100
 7435TIP3    H222270   2.556   0.155   0.186
 7436TIP3   OH222271   5.126   5.550   1.578
 7436TIP3    H122272   5.060   5.532   1.511
 7436TIP3    H222273   5.198   5.591   1.530
 7437TIP3   OH222274   3.808   2.736   1.372
 7437TIP3    H122275   3.798   2.684   1.292
 7437TIP3    H222276   3.883   2.697   1.416
 7438TIP3   OH222277   3.791   2.174   3.522
 7438TIP3    H122278   3.855   2.138   3.584
 7438TIP3    H222279   3.706   2.145   3.555
 7439TIP3   OH222280   6.837   1.139   0.185
 7439TIP3    H122281   6.748   1.123   0.216
 7439TIP3    H222282   6.850   1.074   0.116
 7440TIP3   OH222283   0.706   1.040   1.129
 7440TIP3    H122284   0.657   1.108   1.083
 7440TIP3    H222285   0.660   0.958   1.106
 7441TIP3   OH222286   3.760   2.422   2.852
 7441TIP3    H122287   3.711   2.356   2.902
 7441TIP3    H222288   3.700   2.496   2.845
 7442TIP3   OH222289   0.506   0.130   0.448
 7442TIP3    H122290   0.426   0.079   0.460
 7442TIP3    H222291   0.508   0.190   0.523
 7443TIP3   OH222292   4.903   4.372   0.598
 7443TIP3    H122293   4.859   4.376   0.683
 7443TIP3    H222294   4.996   4.367   0.618
 7444TIP3   OH222295   0.339   6.123   4.321
 7444TIP3    H122296   0.370   6.117   4.231
 7444TIP3    H222297   0.342   6.217   4.342
 7445TIP3   OH222298   1.800   2.174   4.207
 7445TIP3    H122299   1.767   2.085   4.195
 7445TIP3    H222300   1.853   2.169   4.286
 7446TIP3   OH222301   4.910   1.610   1.090
 7446TIP3    H122302   4.888   1.612   0.997
 7446TIP3    H222303   4.833   1.572   1.132
 7447TIP3   OH222304   1.006   6.657   3.887
 7447TIP3    H122305   1.068   6.585   3.878
 7447TIP3    H222306   1.010   6.680   3.980
 7448TIP3   OH222307   1.279   0.069   3.957
 7448TIP3    H122308   1.258   0.123   4.033
 7448TIP3    H222309   1.250  -0.019   3.981
 7449TIP3   OH222310   6.970   2.285   3.542
 7449TIP3    H122311   6.931   2.257   3.460
 7449TIP3    H222312   7.031   2.355   3.518
 7450TIP3   OH222313   5.155   6.653   2.857
 7450TIP3    H122314   5.185   6.575   2.902
 7450TIP3    H222315   5.234   6.704   2.840
 7451TIP3   OH222316   1.735   1.118   5.206
 7451TIP3    H122317   1.773   1.190   5.156
 7451TIP3    H222318   1.672   1.078   5.146
 7452TIP3   OH222319   5.574   2.485   3.221
 7452TIP3    H122320   5.500   2.459   3.276
 7452TIP3    H222321   5.585   2.579   3.238
 7453TIP3   OH222322   1.522   6.723   3.443
 7453TIP3    H122323   1.475   6.806   3.434
 7453TIP3    H222324   1.614   6.748   3.444
 7454TIP3   OH222325   4.160   0.693   3.503
 7454TIP3    H122326   4.235   0.691   3.444
 7454TIP3    H222327   4.116   0.609   3.489
 7455TIP3   OH222328   0.827   0.024   5.104
 7455TIP3    H122329   0.776   0.091   5.149
 7455TIP3    H222330   0.785  -0.059   5.129
 7456TIP3   OH222331   1.812   6.401   4.168
 7456TIP3    H122332   1.894   6.369   4.130
 7456TIP3    H222333   1.784   6.471   4.109
 7457TIP3   OH222334   3.501   3.989   4.405
 7457TIP3    H122335   3.503   3.949   4.319
 7457TIP3    H222336   3.535   3.922   4.464
 7458TIP3   OH222337   7.117   0.499   3.572
 7458TIP3    H122338   7.093   0.531   3.485
 7458TIP3    H222339   7.207   0.527   3.584
 7459TIP3   OH222340   0.806   1.621   5.022
 7459TIP3    H122341   0.890   1.578   5.015
 7459TIP3    H222342   0.750   1.578   4.957
 7460TIP3   OH222343   5.996   2.182   4.304
 7460TIP3    H122344   6.034   2.138   4.228
 7460TIP3    H222345   6.033   2.135   4.379
 7461TIP3   OH222346   3.942   3.515   1.092
 7461TIP3    H122347   3.889   3.575   1.039
 7461TIP3    H222348   4.030   3.553   1.089
 7462TIP3   OH222349   4.416   6.720   0.950
 7462TIP3    H122350   4.407   6.662   1.026
 7462TIP3    H222351   4.347   6.785   0.962
 7463TIP3   OH222352   1.400   4.395   3.936
 7463TIP3    H122353   1.408   4.444   4.018
 7463TIP3    H222354   1.404   4.463   3.868
 7464TIP3   OH222355   5.901   2.571   0.995
 7464TIP3    H122356   5.815   2.607   1.014
 7464TIP3    H222357   5.960   2.618   1.054
 7465TIP3   OH222358   1.917   6.403   4.848
 7465TIP3    H122359   1.968   6.455   4.786
 7465TIP3    H222360   1.834   6.387   4.804
 7466TIP3   OH222361   0.104   5.578   1.184
 7466TIP3    H122362   0.081   5.632   1.109
 7466TIP3    H222363   0.026   5.525   1.201
 7467TIP3   OH222364   4.529   1.550   2.938
 7467TIP3    H122365   4.552   1.633   2.978
 7467TIP3    H222366   4.578   1.549   2.855
 7468TIP3   OH222367   6.305   4.679   2.053
 7468TIP3    H122368   6.401   4.676   2.046
 7468TIP3    H222369   6.288   4.742   2.123
 7469TIP3   OH222370   5.612   3.397   5.383
 7469TIP3    H122371   5.581   3.316   5.342
 7469TIP3    H222372   5.706   3.381   5.398
 7470TIP3   OH222373   3.750   6.648   5.456
 7470TIP3    H122374   3.842   6.639   5.432
 7470TIP3    H222375   3.737   6.742   5.465
 7471TIP3   OH222376   2.215   5.091   2.193
 7471TIP3    H122377   2.145   5.149   2.222
 7471TIP3    H222378   2.291   5.149   2.184
 7472TIP3   OH222379   1.254   4.701   1.407
 7472TIP3    H122380   1.278   4.790   1.432
 7472TIP3    H222381   1.163   4.692   1.436
 7473TIP3   OH222382   3.118   4.389   3.810
 7473TIP3    H122383   3.128   4.416   3.901
 7473TIP3    H222384   3.193   4.331   3.794
 7474TIP3   OH222385   2.246   4.176   3.600
 7474TIP3    H122386   2.261   4.087   3.631
 7474TIP3    H222387   2.186   4.166   3.526
 7475TIP3   OH222388   1.945   6.250   1.680
 7475TIP3    H122389   2.001   6.271   1.605
 7475TIP3    H222390   1.953   6.327   1.737
 7476TIP3   OH222391   0.690   4.070   0.010
 7476TIP3    H122392   0.676   4.056   0.103
 7476TIP3    H222393   0.649   4.155  -0.008
 7477TIP3   OH222394   5.654   2.101   4.317
 7477TIP3    H122395   5.721   2.041   4.285
 7477TIP3    H222396   5.576   2.047   4.328
 7478TIP3   OH222397   0.626   5.509   1.379
 7478TIP3    H122398   0.718   5.527   1.398
 7478TIP3    H222399   0.617   5.415   1.398
 7479TIP3   OH222400   0.376   6.454   1.780
 7479TIP3    H122401   0.411   6.370   1.808
 7479TIP3    H222402   0.361   6.502   1.862
 7480TIP3   OH222403   4.043   5.620   1.488
 7480TIP3    H122404   4.005   5.693   1.439
 7480TIP3    H222405   4.013   5.634   1.578
 7481TIP3   OH222406   5.659   1.666   1.762
 7481TIP3    H122407   5.648   1.754   1.797
 7481TIP3    H222408   5.748   1.665   1.726
 7482TIP3   OH222409   1.152   3.496   3.032
 7482TIP3    H122410   1.216   3.564   3.011
 7482TIP3    H222411   1.092   3.496   2.957
 7483TIP3   OH222412   2.966   2.700   2.777
 7483TIP3    H122413   2.954   2.652   2.695
 7483TIP3    H222414   2.902   2.662   2.837
 7484TIP3   OH222415   1.369   3.125   2.568
 7484TIP3    H122416   1.428   3.126   2.493
 7484TIP3    H222417   1.420   3.087   2.639
 7485TIP3   OH222418   3.996   3.539   0.782
 7485TIP3    H122419   3.910   3.565   0.749
 7485TIP3    H222420   3.988   3.445   0.797
 7486TIP3   OH222421   5.177   4.967   1.053
 7486TIP3    H122422   5.149   4.923   1.134
 7486TIP3    H222423   5.144   5.056   1.062
 7487TIP3   OH222424   5.152   2.075   4.499
 7487TIP3    H122425   5.241   2.080   4.533
 7487TIP3    H222426   5.106   2.148   4.540
 7488TIP3   OH222427   0.631   5.024   1.926
 7488TIP3    H122428   0.645   4.939   1.884
 7488TIP3    H222429   0.543   5.050   1.900
 7489TIP3   OH222430   5.323   2.692   5.198
 7489TIP3    H122431   5.240   2.724   5.163
 7489TIP3    H222432   5.300   2.614   5.249
 7490TIP3   OH222433   3.584   3.397   5.399
 7490TIP3    H122434   3.509   3.354   5.358
 7490TIP3    H222435   3.578   3.371   5.492
 7491TIP3   OH222436   3.394   0.131   5.321
 7491TIP3    H122437   3.472   0.127   5.266
 7491TIP3    H222438   3.402   0.054   5.378
 7492TIP3   OH222439   5.823   6.573   1.100
 7492TIP3    H122440   5.763   6.524   1.044
 7492TIP3    H222441   5.778   6.578   1.185
 7493TIP3   OH222442   1.352   6.536   1.547
 7493TIP3    H122443   1.330   6.450   1.583
 7493TIP3    H222444   1.438   6.524   1.508
 7494TIP3   OH222445   0.905   6.257   4.852
 7494TIP3    H122446   0.817   6.225   4.833
 7494TIP3    H222447   0.961   6.180   4.844
 7495TIP3   OH222448   1.909   1.002   0.130
 7495TIP3    H122449   1.980   1.025   0.070
 7495TIP3    H222450   1.855   1.080   0.136
 7496TIP3   OH222451   0.877   3.967   1.101
 7496TIP3    H122452   0.911   3.884   1.134
 7496TIP3    H222453   0.955   4.013   1.068
 7497TIP3   OH222454   4.066   5.027   4.260
 7497TIP3    H122455   4.082   4.934   4.243
 7497TIP3    H222456   4.147   5.071   4.235
 7498TIP3   OH222457   5.221   5.383   0.484
 7498TIP3    H122458   5.134   5.385   0.445
 7498TIP3    H222459   5.215   5.316   0.552
 7499TIP3   OH222460   2.739   0.259   1.668
 7499TIP3    H122461   2.732   0.218   1.582
 7499TIP3    H222462   2.652   0.295   1.684
 7500TIP3   OH222463   2.671   6.457   0.409
 7500TIP3    H122464   2.604   6.512   0.368
 7500TIP3    H222465   2.666   6.375   0.361
 7501TIP3   OH222466   4.482   2.456   4.521
 7501TIP3    H122467   4.449   2.541   4.549
 7501TIP3    H222468   4.443   2.393   4.582
 7502TIP3   OH222469   7.057   3.366   1.391
 7502TIP3    H122470   6.970   3.406   1.398
 7502TIP3    H222471   7.107   3.405   1.463
 7503TIP3   OH222472   1.111   0.214   5.878
 7503TIP3    H122473   1.082   0.302   5.902
 7503TIP3    H222474   1.054   0.189   5.806
 7504TIP3   OH222475   2.339   5.306   0.738
 7504TIP3    H122476   2.359   5.356   0.659
 7504TIP3    H222477   2.244   5.296   0.737
 7505TIP3   OH222478   5.779   5.146   2.045
 7505TIP3    H122479   5.700   5.171   2.093
 7505TIP3    H222480   5.820   5.079   2.100
 7506TIP3   OH222481   2.626   1.782   5.769
 7506TIP3    H122482   2.544   1.742   5.796
 7506TIP3    H222483   2.663   1.817   5.850
 7507TIP3   OH222484   4.311   6.467   4.644
 7507TIP3    H122485   4.328   6.415   4.566
 7507TIP3    H222486   4.397   6.476   4.686
 7508TIP3   OH222487   6.225   1.000   1.702
 7508TIP3    H122488   6.145   1.037   1.740
 7508TIP3    H222489   6.230   1.037   1.614
 7509TIP3   OH222490   5.950   0.629   1.098
 7509TIP3    H122491   5.966   0.534   1.101
 7509TIP3    H222492   5.945   0.650   1.005
 7510TIP3   OH222493   2.025   4.428   5.816
 7510TIP3    H122494   1.961   4.450   5.748
 7510TIP3    H222495   2.050   4.338   5.798
 7511TIP3   OH222496   0.812   3.227   1.570
 7511TIP3    H122497   0.761   3.290   1.519
 7511TIP3    H222498   0.900   3.265   1.573
 7512TIP3   OH222499   4.395   2.265   1.384
 7512TIP3    H122500   4.476   2.230   1.422
 7512TIP3    H222501   4.325   2.213   1.423
 7513TIP3   OH222502   5.845   0.427   0.109
 7513TIP3    H122503   5.898   0.434   0.030
 7513TIP3    H222504   5.866   0.506   0.159
 7514TIP3   OH222505   2.273   0.269   1.286
 7514TIP3    H122506   2.253   0.216   1.208
 7514TIP3    H222507   2.207   0.243   1.350
 7515TIP3   OH222508   6.176   5.029   0.426
 7515TIP3    H122509   6.263   4.990   0.422
 7515TIP3    H222510   6.177   5.082   0.506
 7516TIP3   OH222511   2.520   3.290   5.669
 7516TIP3    H122512   2.458   3.320   5.736
 7516TIP3    H222513   2.601   3.275   5.717
 7517TIP3   OH222514   5.040   2.706   3.873
 7517TIP3    H122515   5.049   2.618   3.837
 7517TIP3    H222516   5.078   2.701   3.960
 7518TIP3   OH222517   1.049   1.330   0.939
 7518TIP3    H122518   1.047   1.260   0.873
 7518TIP3    H222519   1.039   1.411   0.889
 7519TIP3   OH222520   0.990   4.109  -0.019
 7519TIP3    H122521   0.993   4.103   0.077
 7519TIP3    H222522   0.905   4.070  -0.042
 7520TIP3   OH222523   0.383   2.218   2.445
 7520TIP3    H122524   0.296   2.203   2.482
 7520TIP3    H222525   0.440   2.233   2.521
 7521TIP3   OH222526   5.650   3.977   0.425
 7521TIP3    H122527   5.658   4.068   0.399
 7521TIP3    H222528   5.739   3.949   0.444
 7522TIP3   OH222529   0.914   4.451   5.320
 7522TIP3    H122530   0.835   4.432   5.270
 7522TIP3    H222531   0.884   4.472   5.408
 7523TIP3   OH222532   2.538   0.915   1.607
 7523TIP3    H122533   2.614   0.862   1.580
 7523TIP3    H222534   2.577   0.995   1.643
 7524TIP3   OH222535   1.167   3.839   4.509
 7524TIP3    H122536   1.091   3.895   4.496
 7524TIP3    H222537   1.239   3.899   4.527
 7525TIP3   OH222538   4.907   6.625   2.974
 7525TIP3    H122539   4.844   6.689   2.942
 7525TIP3    H222540   4.989   6.648   2.930
 7526TIP3   OH222541   0.810   4.648   1.754
 7526TIP3    H122542   0.766   4.573   1.793
 7526TIP3    H222543   0.891   4.657   1.806
 7527TIP3   OH222544   1.432   0.352   1.074
 7527TIP3    H122545   1.473   0.360   1.161
 7527TIP3    H222546   1.450   0.436   1.032
 7528TIP3   OH222547   1.755   3.172   0.812
 7528TIP3    H122548   1.708   3.185   0.894
 7528TIP3    H222549   1.847   3.162   0.838
 7529TIP3   OH222550   6.609   2.546   1.999
 7529TIP3    H122551   6.539   2.608   1.979
 7529TIP3    H222552   6.668   2.595   2.057
 7530TIP3   OH222553   2.562   4.834   5.809
 7530TIP3    H122554   2.592   4.911   5.857
 7530TIP3    H222555   2.611   4.761   5.847
 7531TIP3   OH222556   1.774   2.535   2.749
 7531TIP3    H122557   1.712   2.523   2.820
 7531TIP3    H222558   1.723   2.576   2.679
 7532TIP3   OH222559   0.606   0.826   4.259
 7532TIP3    H122560   0.641   0.891   4.198
 7532TIP3    H222561   0.549   0.771   4.205
 7533TIP3   OH222562   4.032   0.482   3.747
 7533TIP3    H122563   3.940   0.507   3.739
 7533TIP3    H222564   4.054   0.442   3.663
 7534TIP3   OH222565   2.072   6.707   3.828
 7534TIP3    H122566   2.090   6.653   3.905
 7534TIP3    H222567   2.030   6.785   3.864
 7535TIP3   OH222568   0.419   4.618   3.986
 7535TIP3    H122569   0.457   4.647   3.903
 7535TIP3    H222570   0.450   4.528   3.997
 7536TIP3   OH222571   0.194   5.742   0.621
 7536TIP3    H122572   0.112   5.779   0.588
 7536TIP3    H222573   0.237   5.705   0.543
 7537TIP3   OH222574   6.375   6.504   3.571
 7537TIP3    H122575   6.335   6.569   3.513
 7537TIP3    H222576   6.318   6.428   3.566
 7538TIP3   OH222577   0.406   0.448   5.531
 7538TIP3    H122578   0.407   0.428   5.438
 7538TIP3    H222579   0.411   0.543   5.536
 7539TIP3   OH222580   0.482   4.652   0.322
 7539TIP3    H122581   0.392   4.625   0.308
 7539TIP3    H222582   0.477   4.747   0.336
 7540TIP3   OH222583   6.616   2.820   3.608
 7540TIP3    H122584   6.674   2.882   3.562
 7540TIP3    H222585   6.650   2.818   3.697
 7541TIP3   OH222586   6.113   3.601   2.565
 7541TIP3    H122587   6.078   3.637   2.483
 7541TIP3    H222588   6.100   3.507   2.558
 7542TIP3   OH222589   3.813   6.325   0.970
 7542TIP3    H122590   3.898   6.311   0.929
 7542TIP3    H222591   3.821   6.282   1.056
 7543TIP3   OH222592   2.377   5.901   2.412
 7543TIP3    H122593   2.347   5.988   2.436
 7543TIP3    H222594   2.452   5.916   2.354
 7544TIP3   OH222595   4.284   6.435   3.102
 7544TIP3    H122596   4.244   6.515   3.138
 7544TIP3    H222597   4.324   6.463   3.020
 7545TIP3   OH222598   2.581   4.657   5.213
 7545TIP3    H122599   2.490   4.648   5.185
 7545TIP3    H222600   2.593   4.585   5.275
 7546TIP3   OH222601   2.262   2.275   0.615
 7546TIP3    H122602   2.235   2.314   0.532
 7546TIP3    H222603   2.273   2.182   0.595
 7547TIP3   OH222604   6.581   2.716   4.342
 7547TIP3    H122605   6.505   2.763   4.305
 7547TIP3    H222606   6.603   2.765   4.421
 7548TIP3   OH222607   4.354   4.336   0.569
 7548TIP3    H122608   4.350   4.423   0.528
 7548TIP3    H222609   4.433   4.296   0.532
 7549TIP3   OH222610   1.012   2.677   2.483
 7549TIP3    H122611   0.951   2.670   2.556
 7549TIP3    H222612   1.054   2.763   2.495
 7550TIP3   OH222613   6.529   3.610   4.954
 7550TIP3    H122614   6.444   3.630   4.915
 7550TIP3    H222615   6.554   3.690   5.000
 7551TIP3   OH222616   0.167   4.440   4.502
 7551TIP3    H122617   0.079   4.450   4.538
 7551TIP3    H222618   0.217   4.398   4.572
 7552TIP3   OH222619   6.262   0.635   1.169
 7552TIP3    H122620   6.282   0.572   1.100
 7552TIP3    H222621   6.247   0.718   1.123
 7553TIP3   OH222622   0.268   4.569   4.277
 7553TIP3    H122623   0.241   4.539   4.363
 7553TIP3    H222624   0.192   4.555   4.221
 7554TIP3   OH222625   3.341   0.352   3.802
 7554TIP3    H122626   3.253   0.381   3.777
 7554TIP3    H222627   3.325   0.274   3.857
 7555TIP3   OH222628   5.337   5.960   5.243
 7555TIP3    H122629   5.400   5.897   5.278
 7555TIP3    H222630   5.260   5.952   5.299
 7556TIP3   OH222631   3.151   5.472   0.704
 7556TIP3    H122632   3.083   5.405   0.705
 7556TIP3    H222633   3.173   5.483   0.611
 7557TIP3   OH222634   6.194   2.279   0.783
 7557TIP3    H122635   6.162   2.195   0.816
 7557TIP3    H222636   6.280   2.291   0.825
 7558TIP3   OH222637   6.693   2.615   5.282
 7558TIP3    H122638   6.769   2.580   5.329
 7558TIP3    H222639   6.679   2.553   5.210
 7559TIP3   OH222640   1.286   1.668   0.370
 7559TIP3    H122641   1.310   1.610   0.442
 7559TIP3    H222642   1.351   1.739   0.374
 7560TIP3   OH222643   6.771   2.681   2.188
 7560TIP3    H122644   6.850   2.644   2.228
 7560TIP3    H222645   6.748   2.755   2.245
 7561TIP3   OH222646   6.084   1.456   5.152
 7561TIP3    H122647   6.171   1.497   5.153
 7561TIP3    H222648   6.102   1.362   5.145
 7562TIP3   OH222649   5.968   6.476   1.383
 7562TIP3    H122650   6.051   6.474   1.430
 7562TIP3    H222651   5.982   6.420   1.307
 7563TIP3   OH222652   5.835   0.212   2.828
 7563TIP3    H122653   5.919   0.251   2.851
 7563TIP3    H222654   5.769   0.271   2.864
 7564TIP3   OH222655   2.682   2.961   1.746
 7564TIP3    H122656   2.612   3.018   1.778
 7564TIP3    H222657   2.702   2.904   1.820
 7565TIP3   OH222658   5.695   1.536   1.479
 7565TIP3    H122659   5.649   1.557   1.561
 7565TIP3    H222660   5.747   1.614   1.461
 7566TIP3   OH222661   6.487   4.756   5.057
 7566TIP3    H122662   6.524   4.832   5.103
 7566TIP3    H222663   6.421   4.793   4.998
 7567TIP3   OH222664   4.368   4.257   2.963
 7567TIP3    H122665   4.344   4.204   3.039
 7567TIP3    H222666   4.309   4.333   2.967
 7568TIP3   OH222667   5.253   4.825   4.749
 7568TIP3    H122668   5.275   4.732   4.761
 7568TIP3    H222669   5.208   4.849   4.829
 7569TIP3   OH222670   1.992   1.261   5.397
 7569TIP3    H122671   1.986   1.191   5.463
 7569TIP3    H222672   2.008   1.340   5.448
 7570TIP3   OH222673   3.129   3.898   3.718
 7570TIP3    H122674   3.072   3.937   3.784
 7570TIP3    H222675   3.121   3.957   3.642
 7571TIP3   OH222676   5.237   5.220   4.770
 7571TIP3    H122677   5.183   5.190   4.843
 7571TIP3    H222678   5.277   5.301   4.803
 7572TIP3   OH222679   3.585   6.573   0.481
 7572TIP3    H122680   3.506   6.525   0.458
 7572TIP3    H222681   3.554   6.657   0.512
 7573TIP3   OH222682   1.030   6.363   4.261
 7573TIP3    H122683   0.993   6.433   4.314
 7573TIP3    H222684   1.072   6.305   4.325
 7574TIP3   OH222685   3.664   3.305   4.909
 7574TIP3    H122686   3.604   3.233   4.929
 7574TIP3    H222687   3.679   3.348   4.993
 7575TIP3   OH222688   3.537   6.521   3.282
 7575TIP3    H122689   3.580   6.442   3.314
 7575TIP3    H222690   3.597   6.556   3.216
 7576TIP3   OH222691   7.174   5.440   3.796
 7576TIP3    H122692   7.082   5.452   3.775
 7576TIP3    H222693   7.183   5.473   3.886
 7577TIP3   OH222694   1.362   4.592   4.966
 7577TIP3    H122695   1.423   4.597   4.893
 7577TIP3    H222696   1.399   4.649   5.033
 7578TIP3   OH222697   1.172   6.446   2.019
 7578TIP3    H122698   1.081   6.454   2.044
 7578TIP3    H222699   1.218   6.511   2.071
 7579TIP3   OH222700   2.084   2.698   2.505
 7579TIP3    H122701   2.130   2.766   2.456
 7579TIP3    H222702   2.151   2.663   2.564
 7580TIP3   OH222703   7.004   2.654   1.473
 7580TIP3    H122704   7.054   2.598   1.533
 7580TIP3    H222705   6.954   2.713   1.530
 7581TIP3   OH222706   3.200   6.328   2.605
 7581TIP3    H122707   3.198   6.424   2.597
 7581TIP3    H222708   3.145   6.297   2.534
 7582TIP3   OH222709   5.346   2.597   1.707
 7582TIP3    H122710   5.413   2.628   1.647
 7582TIP3    H222711   5.321   2.511   1.674
 7583TIP3   OH222712   5.870   6.658   4.548
 7583TIP3    H122713   5.798   6.613   4.504
 7583TIP3    H222714   5.934   6.589   4.566
 7584TIP3   OH222715   3.976   5.671   3.173
 7584TIP3    H122716   3.948   5.758   3.199
 7584TIP3    H222717   4.046   5.686   3.109
 7585TIP3   OH222718   3.460   3.267   2.796
 7585TIP3    H122719   3.460   3.331   2.725
 7585TIP3    H222720   3.383   3.289   2.849
 7586TIP3   OH222721   0.578   5.960   5.564
 7586TIP3    H122722   0.624   5.923   5.489
 7586TIP3    H222723   0.518   5.891   5.592
 7587TIP3   OH222724   3.707   4.866   0.407
 7587TIP3    H122725   3.667   4.783   0.434
 7587TIP3    H222726   3.667   4.885   0.322
 7588TIP3   OH222727   3.224   3.551   5.813
 7588TIP3    H122728   3.175   3.626   5.777
 7588TIP3    H222729   3.204   3.479   5.754
 7589TIP3   OH222730   4.413   1.224   0.734
 7589TIP3    H122731   4.349   1.222   0.663
 7589TIP3    H222732   4.464   1.304   0.719
 7590TIP3   OH222733   6.409   5.812   5.346
 7590TIP3    H122734   6.344   5.869   5.386
 7590TIP3    H222735   6.362   5.767   5.276
 7591TIP3   OH222736   4.611   3.233   3.393
 7591TIP3    H122737   4.676   3.179   3.348
 7591TIP3    H222738   4.635   3.323   3.372
 7592TIP3   OH222739   1.223   4.169   3.443
 7592TIP3    H122740   1.306   4.207   3.412
 7592TIP3    H222741   1.205   4.098   3.382
 7593TIP3   OH222742   1.777   0.764   0.569
 7593TIP3    H122743   1.736   0.712   0.500
 7593TIP3    H222744   1.871   0.759   0.550
 7594TIP3   OH222745   5.675   2.763   4.638
 7594TIP3    H122746   5.729   2.743   4.715
 7594TIP3    H222747   5.585   2.757   4.670
 7595TIP3   OH222748   5.888   3.011   3.232
 7595TIP3    H122749   5.832   3.050   3.164
 7595TIP3    H222750   5.891   2.918   3.210
 7596TIP3   OH222751   3.473   0.388   0.420
 7596TIP3    H122752   3.545   0.325   0.434
 7596TIP3    H222753   3.395   0.341   0.449
 7597TIP3   OH222754   6.292   5.763   2.223
 7597TIP3    H122755   6.331   5.846   2.198
 7597TIP3    H222756   6.250   5.731   2.143
 7598TIP3   OH222757   7.122   6.722   0.974
 7598TIP3    H122758   7.064   6.647   0.958
 7598TIP3    H222759   7.177   6.727   0.896
 7599TIP3   OH222760   4.541   4.093   3.321
 7599TIP3    H122761   4.567   4.117   3.410
 7599TIP3    H222762   4.593   4.150   3.265
 7600TIP3   OH222763   0.832   3.931   1.453
 7600TIP3    H122764   0.769   3.885   1.397
 7600TIP3    H222765   0.805   3.908   1.542
 7601TIP3   OH222766   7.138   0.233   4.817
 7601TIP3    H122767   7.150   0.313   4.767
 7601TIP3    H222768   7.157   0.258   4.907
 7602TIP3   OH222769   6.076   1.658   2.527
 7602TIP3    H122770   6.091   1.720   2.598
 7602TIP3    H222771   6.046   1.578   2.571
 7603TIP3   OH222772   2.557   2.476   0.118
 7603TIP3    H122773   2.648   2.503   0.102
 7603TIP3    H222774   2.510   2.501   0.039
 7604TIP3   OH222775   2.785   2.843   2.516
 7604TIP3    H122776   2.707   2.788   2.509
 7604TIP3    H222777   2.853   2.795   2.469
 7605TIP3   OH222778   7.126   2.966   4.940
 7605TIP3    H122779   7.120   2.931   5.029
 7605TIP3    H222780   7.140   2.889   4.885
 7606TIP3   OH222781   2.587   0.397   0.617
 7606TIP3    H122782   2.504   0.396   0.664
 7606TIP3    H222783   2.653   0.381   0.684
 7607TIP3   OH222784   4.090   5.093   3.056
 7607TIP3    H122785   4.085   5.174   3.107
 7607TIP3    H222786   4.004   5.052   3.069
 7608TIP3   OH222787   5.661   2.058   3.002
 7608TIP3    H122788   5.600   2.082   2.932
 7608TIP3    H222789   5.606   2.019   3.070
 7609TIP3   OH222790   3.407   6.629   5.189
 7609TIP3    H122791   3.477   6.584   5.236
 7609TIP3    H222792   3.443   6.645   5.101
 7610TIP3   OH222793   5.199   1.534   4.669
 7610TIP3    H122794   5.143   1.527   4.746
 7610TIP3    H222795   5.270   1.472   4.686
 7611TIP3   OH222796   2.863   6.487   2.428
 7611TIP3    H122797   2.895   6.438   2.504
 7611TIP3    H222798   2.885   6.579   2.448
 7612TIP3   OH222799   3.849   3.077   1.010
 7612TIP3    H122800   3.902   3.124   1.074
 7612TIP3    H222801   3.779   3.139   0.987
 7613TIP3   OH222802   6.845   0.836   1.599
 7613TIP3    H122803   6.842   0.783   1.520
 7613TIP3    H222804   6.926   0.887   1.592
 7614TIP3   OH222805   2.473   5.535   3.549
 7614TIP3    H122806   2.380   5.514   3.537
 7614TIP3    H222807   2.514   5.514   3.465
 7615TIP3   OH222808   4.670   0.335   3.367
 7615TIP3    H122809   4.638   0.277   3.299
 7615TIP3    H222810   4.605   0.405   3.371
 7616TIP3   OH222811   1.724   5.873   1.718
 7616TIP3    H122812   1.661   5.931   1.674
 7616TIP3    H222813   1.810   5.908   1.693
 7617TIP3   OH222814   0.321   4.677   2.049
 7617TIP3    H122815   0.262   4.750   2.064
 7617TIP3    H222816   0.313   4.658   1.955
 7618TIP3   OH222817   2.632   5.942   5.680
 7618TIP3    H122818   2.565   6.008   5.665
 7618TIP3    H222819   2.600   5.863   5.636
 7619TIP3   OH222820   5.438   1.868   3.756
 7619TIP3    H122821   5.399   1.891   3.840
 7619TIP3    H222822   5.388   1.791   3.727
 7620TIP3   OH222823   5.383   0.858   0.880
 7620TIP3    H122824   5.326   0.889   0.950
 7620TIP3    H222825   5.340   0.780   0.846
 7621TIP3   OH222826   2.614   5.385   2.394
 7621TIP3    H122827   2.700   5.343   2.400
 7621TIP3    H222828   2.623   5.465   2.445
 7622TIP3   OH222829   0.858   1.620   5.764
 7622TIP3    H122830   0.884   1.639   5.674
 7622TIP3    H222831   0.763   1.625   5.763
 7623TIP3   OH222832   3.957   4.849   5.183
 7623TIP3    H122833   3.970   4.936   5.220
 7623TIP3    H222834   4.043   4.824   5.149
 7624TIP3   OH222835   6.224   3.040   2.865
 7624TIP3    H122836   6.283   3.101   2.823
 7624TIP3    H222837   6.248   3.043   2.958
 7625TIP3   OH222838   5.006   5.953   4.595
 7625TIP3    H122839   5.099   5.968   4.580
 7625TIP3    H222840   4.993   5.860   4.575
 7626TIP3   OH222841   0.152   0.154   3.040
 7626TIP3    H122842   0.102   0.144   2.959
 7626TIP3    H222843   0.094   0.202   3.099
 7627TIP3   OH222844   2.922   2.094   3.368
 7627TIP3    H122845   2.973   2.057   3.440
 7627TIP3    H222846   2.839   2.048   3.371
 7628TIP3   OH222847   7.182   0.962   5.463
 7628TIP3    H122848   7.202   0.941   5.554
 7628TIP3    H222849   7.116   1.030   5.468
 7629TIP3   OH222850   0.321   2.803   2.190
 7629TIP3    H122851   0.358   2.752   2.262
 7629TIP3    H222852   0.302   2.888   2.228
 7630TIP3   OH222853   1.356   2.875   5.904
 7630TIP3    H122854   1.439   2.903   5.864
 7630TIP3    H222855   1.291   2.889   5.836
 7631TIP3   OH222856   4.296   5.801   3.414
 7631TIP3    H122857   4.355   5.737   3.374
 7631TIP3    H222858   4.268   5.857   3.341
 7632TIP3   OH222859   2.576   1.748   1.763
 7632TIP3    H122860   2.501   1.690   1.772
 7632TIP3    H222861   2.635   1.703   1.702
 7633TIP3   OH222862   1.483   2.279   3.415
 7633TIP3    H122863   1.546   2.211   3.388
 7633TIP3    H222864   1.498   2.289   3.509
 7634TIP3   OH222865   1.089   0.717   5.628
 7634TIP3    H122866   1.122   0.806   5.616
 7634TIP3    H222867   1.075   0.685   5.539
 7635TIP3   OH222868   2.779   0.631   2.716
 7635TIP3    H122869   2.736   0.674   2.790
 7635TIP3    H222870   2.751   0.683   2.640
 7636TIP3   OH222871   1.054   2.438   4.079
 7636TIP3    H122872   1.048   2.528   4.047
 7636TIP3    H222873   1.027   2.384   4.005
 7637TIP3   OH222874   4.536   5.474   3.654
 7637TIP3    H122875   4.536   5.568   3.634
 7637TIP3    H222876   4.628   5.455   3.674
 7638TIP3   OH222877   6.042   5.899   0.671
 7638TIP3    H122878   6.016   5.959   0.741
 7638TIP3    H222879   6.055   5.955   0.595
 7639TIP3   OH222880   0.302   3.628   3.516
 7639TIP3    H122881   0.368   3.569   3.479
 7639TIP3    H222882   0.311   3.709   3.466
 7640TIP3   OH222883   2.429   6.595   4.946
 7640TIP3    H122884   2.478   6.539   5.007
 7640TIP3    H222885   2.372   6.534   4.899
 7641TIP3   OH222886   3.753   5.486   2.406
 7641TIP3    H122887   3.679   5.466   2.462
 7641TIP3    H222888   3.819   5.522   2.465
 7642TIP3   OH222889   7.000   4.043   0.044
 7642TIP3    H122890   7.071   3.990   0.080
 7642TIP3    H222891   6.961   3.990  -0.025
 7643TIP3   OH222892   0.637   0.572   0.464
 7643TIP3    H122893   0.684   0.655   0.453
 7643TIP3    H222894   0.674   0.534   0.544
 7644TIP3   OH222895   3.583   6.750   0.823
 7644TIP3    H122896   3.551   6.785   0.740
 7644TIP3    H222897   3.677   6.739   0.809
 7645TIP3   OH222898   1.003   3.431   1.513
 7645TIP3    H122899   1.024   3.387   1.430
 7645TIP3    H222900   0.966   3.515   1.486
 7646TIP3   OH222901   6.715   3.000   5.186
 7646TIP3    H122902   6.766   3.070   5.146
 7646TIP3    H222903   6.687   3.036   5.270
 7647TIP3   OH222904   2.630   4.365   1.937
 7647TIP3    H122905   2.707   4.412   1.907
 7647TIP3    H222906   2.664   4.285   1.976
 7648TIP3   OH222907   6.546   4.924   1.049
 7648TIP3    H122908   6.454   4.926   1.075
 7648TIP3    H222909   6.569   5.016   1.035
 7649TIP3   OH222910   3.621   6.060   0.207
 7649TIP3    H122911   3.596   5.996   0.140
 7649TIP3    H222912   3.632   6.142   0.159
 7650TIP3   OH222913   6.477   1.393   0.453
 7650TIP3    H122914   6.477   1.483   0.421
 7650TIP3    H222915   6.487   1.340   0.373
 7651TIP3   OH222916   0.711   2.670   0.109
 7651TIP3    H122917   0.767   2.726   0.055
 7651TIP3    H222918   0.686   2.598   0.052
 7652TIP3   OH222919   3.131   5.765   0.569
 7652TIP3    H122920   3.043   5.746   0.603
 7652TIP3    H222921   3.159   5.843   0.616
 7653TIP3   OH222922   2.539   5.075   4.245
 7653TIP3    H122923   2.544   5.023   4.165
 7653TIP3    H222924   2.446   5.075   4.268
 7654TIP3   OH222925   2.696   1.216   0.740
 7654TIP3    H122926   2.783   1.238   0.707
 7654TIP3    H222927   2.702   1.123   0.762
 7655TIP3   OH222928   4.959   3.098   1.976
 7655TIP3    H122929   4.903   3.041   1.922
 7655TIP3    H222930   5.047   3.083   1.942
 7656TIP3   OH222931   2.084   6.571   5.539
 7656TIP3    H122932   2.031   6.577   5.619
 7656TIP3    H222933   2.021   6.557   5.469
 7657TIP3   OH222934   0.002   6.181   2.936
 7657TIP3    H122935   0.037   6.131   2.863
 7657TIP3    H222936  -0.036   6.115   2.994
 7658TIP3   OH222937   4.239   6.413   3.374
 7658TIP3    H122938   4.301   6.358   3.422
 7658TIP3    H222939   4.268   6.407   3.283
 7659TIP3   OH222940   5.141   0.318   0.206
 7659TIP3    H122941   5.095   0.247   0.250
 7659TIP3    H222942   5.229   0.284   0.190
 7660TIP3   OH222943   5.020   0.353   5.629
 7660TIP3    H122944   4.940   0.337   5.579
 7660TIP3    H222945   5.076   0.278   5.608
 7661TIP3   OH222946   3.433   4.667   2.015
 7661TIP3    H122947   3.517   4.649   2.056
 7661TIP3    H222948   3.426   4.602   1.945
 7662TIP3   OH222949   5.222   0.898   1.110
 7662TIP3    H122950   5.209   0.929   1.200
 7662TIP3    H222951   5.179   0.812   1.108
 7663TIP3   OH222952   4.436   6.029   0.789
 7663TIP3    H122953   4.436   6.115   0.832
 7663TIP3    H222954   4.438   5.966   0.862
 7664TIP3   OH222955   6.685   3.700   1.888
 7664TIP3    H122956   6.715   3.683   1.799
 7664TIP3    H222957   6.590   3.686   1.884
 7665TIP3   OH222958   3.370   1.079   2.965
 7665TIP3    H122959   3.384   1.067   2.871
 7665TIP3    H222960   3.357   1.173   2.976
 7666TIP3   OH222961   6.834   0.697   3.482
 7666TIP3    H122962   6.797   0.612   3.505
 7666TIP3    H222963   6.868   0.686   3.393
 7667TIP3   OH222964   5.740   3.756   5.376
 7667TIP3    H122965   5.801   3.791   5.441
 7667TIP3    H222966   5.774   3.668   5.356
 7668TIP3   OH222967   3.473   1.568   0.525
 7668TIP3    H122968   3.453   1.642   0.467
 7668TIP3    H222969   3.441   1.596   0.610
 7669TIP3   OH222970   6.748   5.439   3.067
 7669TIP3    H122971   6.815   5.383   3.029
 7669TIP3    H222972   6.688   5.379   3.111
 7670TIP3   OH222973   0.962   1.313   3.200
 7670TIP3    H122974   0.911   1.361   3.135
 7670TIP3    H222975   0.912   1.323   3.281
 7671TIP3   OH222976   3.976   4.574   0.189
 7671TIP3    H122977   4.001   4.662   0.218
 7671TIP3    H222978   4.055   4.521   0.204
 7672TIP3   OH222979   6.674   5.576   1.704
 7672TIP3    H122980   6.620   5.586   1.625
 7672TIP3    H222981   6.639   5.640   1.765
 7673TIP3   OH222982   6.015   2.532   4.799
 7673TIP3    H122983   5.931   2.566   4.829
 7673TIP3    H222984   6.074   2.607   4.805
 7674TIP3   OH222985   5.089   0.874   3.411
 7674TIP3    H122986   4.998   0.871   3.381
 7674TIP3    H222987   5.082   0.878   3.507
 7675TIP3   OH222988   1.976   0.466   1.351
 7675TIP3    H122989   1.946   0.378   1.377
 7675TIP3    H222990   1.913   0.494   1.285
 7676TIP3   OH222991   0.102   1.888   1.174
 7676TIP3    H122992   0.069   1.813   1.224
 7676TIP3    H222993   0.024   1.922   1.129
 7677TIP3   OH222994   0.391   1.352   3.547
 7677TIP3    H122995   0.352   1.416   3.486
 7677TIP3    H222996   0.444   1.295   3.491
 7678TIP3   OH222997   3.236   2.090   1.494
 7678TIP3    H122998   3.238   2.141   1.576
 7678TIP3    H222999   3.195   2.149   1.430
 7679TIP3   OH223000   5.735   3.317   2.192
 7679TIP3    H123001   5.694   3.384   2.246
 7679TIP3    H223002   5.807   3.284   2.245
 7680TIP3   OH223003   5.308   5.026   5.368
 7680TIP3    H123004   5.387   5.059   5.324
 7680TIP3    H223005   5.264   5.105   5.401
 7681TIP3   OH223006   1.818   0.201   1.667
 7681TIP3    H123007   1.839   0.169   1.579
 7681TIP3    H223008   1.894   0.179   1.720
 7682TIP3   OH223009   1.480   2.950   3.831
 7682TIP3    H123010   1.480   2.996   3.747
 7682TIP3    H223011   1.515   3.014   3.894
 7683TIP3   OH223012   6.314   3.714   5.601
 7683TIP3    H123013   6.394   3.766   5.586
 7683TIP3    H223014   6.325   3.637   5.546
 7684TIP3   OH223015   3.305   1.811   3.245
 7684TIP3    H123016   3.336   1.791   3.156
 7684TIP3    H223017   3.380   1.851   3.288
 7685TIP3   OH223018   3.393   3.573   4.469
 7685TIP3    H123019   3.330   3.619   4.414
 7685TIP3    H223020   3.339   3.523   4.530
 7686TIP3   OH223021   6.687   3.900   3.210
 7686TIP3    H123022   6.655   3.876   3.123
 7686TIP3    H223023   6.779   3.873   3.209
 7687TIP3   OH223024   3.717   3.662   0.668
 7687TIP3    H123025   3.691   3.750   0.640
 7687TIP3    H223026   3.635   3.617   0.686
 7688TIP3   OH223027   2.665   0.510   1.265
 7688TIP3    H123028   2.647   0.417   1.272
 7688TIP3    H223029   2.710   0.533   1.346
 7689TIP3   OH223030   7.101   4.361   3.497
 7689TIP3    H123031   7.010   4.387   3.509
 7689TIP3    H223032   7.140   4.369   3.584
 7690TIP3   OH223033   6.119   4.039   5.693
 7690TIP3    H123034   6.048   3.979   5.670
 7690TIP3    H223035   6.115   4.046   5.788
 7691TIP3   OH223036   4.127   1.199   3.389
 7691TIP3    H123037   4.090   1.111   3.377
 7691TIP3    H223038   4.216   1.183   3.418
 7692TIP3   OH223039   5.445   5.364   5.591
 7692TIP3    H123040   5.440   5.407   5.676
 7692TIP3    H223041   5.359   5.323   5.580
 7693TIP3   OH223042   4.518   4.084   4.368
 7693TIP3    H123043   4.438   4.129   4.396
 7693TIP3    H223044   4.575   4.155   4.339
 7694TIP3   OH223045   4.295   5.192   0.773
 7694TIP3    H123046   4.344   5.126   0.723
 7694TIP3    H223047   4.354   5.215   0.845
 7695TIP3   OH223048   2.164   4.468   3.414
 7695TIP3    H123049   2.149   4.377   3.389
 7695TIP3    H223050   2.087   4.492   3.465
 7696TIP3   OH223051   0.925   0.871   2.316
 7696TIP3    H123052   0.862   0.801   2.297
 7696TIP3    H223053   0.995   0.827   2.365
 7697TIP3   OH223054   1.064   5.259   0.841
 7697TIP3    H123055   1.007   5.303   0.904
 7697TIP3    H223056   1.146   5.309   0.844
 7698TIP3   OH223057   4.361   4.602   0.444
 7698TIP3    H123058   4.452   4.581   0.468
 7698TIP3    H223059   4.368   4.652   0.363
 7699TIP3   OH223060   0.063   1.831   3.909
 7699TIP3    H123061  -0.019   1.790   3.936
 7699TIP3    H223062   0.075   1.804   3.818
 7700TIP3   OH223063   4.795   2.688   4.842
 7700TIP3    H123064   4.864   2.716   4.782
 7700TIP3    H223065   4.792   2.593   4.832
 7701TIP3   OH223066   6.327   3.773   2.302
 7701TIP3    H123067   6.254   3.725   2.264
 7701TIP3    H223068   6.399   3.761   2.241
 7702TIP3   OH223069   5.576   0.809   0.081
 7702TIP3    H123070   5.501   0.853   0.121
 7702TIP3    H223071   5.591   0.733   0.137
 7703TIP3   OH223072   5.732   3.546   2.761
 7703TIP3    H123073   5.825   3.561   2.776
 7703TIP3    H223074   5.725   3.453   2.742
 7704TIP3   OH223075   1.796   5.485   2.443
 7704TIP3    H123076   1.834   5.569   2.468
 7704TIP3    H223077   1.869   5.422   2.452
 7705TIP3   OH223078   3.248   4.239   4.356
 7705TIP3    H123079   3.200   4.321   4.365
 7705TIP3    H223080   3.195   4.175   4.403
 7706TIP3   OH223081   5.341   6.088   5.015
 7706TIP3    H123082   5.353   6.033   5.093
 7706TIP3    H223083   5.309   6.171   5.049
 7707TIP3   OH223084   6.493   4.754   2.995
 7707TIP3    H123085   6.453   4.707   2.923
 7707TIP3    H223086   6.450   4.720   3.074
 7708TIP3   OH223087   6.189   2.895   4.501
 7708TIP3    H123088   6.234   2.843   4.434
 7708TIP3    H223089   6.101   2.908   4.466
 7709TIP3   OH223090   6.324   5.315   4.098
 7709TIP3    H123091   6.264   5.353   4.035
 7709TIP3    H223092   6.410   5.348   4.074
 7710TIP3   OH223093   1.332   4.798   5.604
 7710TIP3    H123094   1.301   4.875   5.557
 7710TIP3    H223095   1.425   4.794   5.585
 7711TIP3   OH223096   3.940   3.670   5.421
 7711TIP3    H123097   3.932   3.763   5.401
 7711TIP3    H223098   3.897   3.659   5.506
 7712TIP3   OH223099   2.378   1.437   1.512
 7712TIP3    H123100   2.457   1.460   1.560
 7712TIP3    H223101   2.396   1.463   1.422
 7713TIP3   OH223102   4.532   5.883   4.166
 7713TIP3    H123103   4.582   5.934   4.230
 7713TIP3    H223104   4.587   5.808   4.147
 7714TIP3   OH223105   5.257   4.480   1.420
 7714TIP3    H123106   5.241   4.566   1.458
 7714TIP3    H223107   5.184   4.426   1.449
 7715TIP3   OH223108   1.811   5.423   3.879
 7715TIP3    H123109   1.822   5.342   3.829
 7715TIP3    H223110   1.900   5.459   3.886
 7716TIP3   OH223111   4.364   2.194   0.835
 7716TIP3    H123112   4.281   2.241   0.834
 7716TIP3    H223113   4.389   2.185   0.743
 7717TIP3   OH223114   5.729   6.499   1.785
 7717TIP3    H123115   5.793   6.439   1.747
 7717TIP3    H223116   5.768   6.527   1.868
 7718TIP3   OH223117   1.768   4.409   3.306
 7718TIP3    H123118   1.727   4.364   3.233
 7718TIP3    H223119   1.800   4.338   3.363
 7719TIP3   OH223120   6.896   4.498   4.896
 7719TIP3    H123121   6.835   4.541   4.956
 7719TIP3    H223122   6.848   4.494   4.813
 7720TIP3   OH223123   6.344   5.703   5.062
 7720TIP3    H123124   6.271   5.644   5.047
 7720TIP3    H223125   6.414   5.646   5.095
 7721TIP3   OH223126   5.530   0.635   0.298
 7721TIP3    H123127   5.442   0.663   0.321
 7721TIP3    H223128   5.581   0.646   0.379
 7722TIP3   OH223129   2.303   2.927   3.392
 7722TIP3    H123130   2.393   2.928   3.424
 7722TIP3    H223131   2.264   2.849   3.432
 7723TIP3   OH223132   0.289   5.131   4.481
 7723TIP3    H123133   0.204   5.105   4.444
 7723TIP3    H223134   0.340   5.050   4.482
 7724TIP3   OH223135   0.543   3.596   1.905
 7724TIP3    H123136   0.555   3.522   1.965
 7724TIP3    H223137   0.632   3.629   1.891
 7725TIP3   OH223138   2.461   2.421   0.728
 7725TIP3    H123139   2.379   2.396   0.687
 7725TIP3    H223140   2.529   2.382   0.673
 7726TIP3   OH223141   1.628   4.307   3.097
 7726TIP3    H123142   1.548   4.351   3.123
 7726TIP3    H223143   1.638   4.326   3.004
 7727TIP3   OH223144   2.265   4.599   5.458
 7727TIP3    H123145   2.236   4.534   5.394
 7727TIP3    H223146   2.342   4.561   5.499
 7728TIP3   OH223147   7.020   5.159   3.175
 7728TIP3    H123148   6.960   5.224   3.138
 7728TIP3    H223149   7.013   5.083   3.117
 7729TIP3   OH223150   2.632   5.802   4.739
 7729TIP3    H123151   2.574   5.752   4.796
 7729TIP3    H223152   2.596   5.789   4.651
 7730TIP3   OH223153   5.186   0.684   0.057
 7730TIP3    H123154   5.182   0.751   0.125
 7730TIP3    H223155   5.279   0.673   0.039
 7731TIP3   OH223156   0.340   1.109   2.268
 7731TIP3    H123157   0.370   1.044   2.331
 7731TIP3    H223158   0.336   1.062   2.185
 7732TIP3   OH223159   1.834   2.174   5.542
 7732TIP3    H123160   1.829   2.203   5.451
 7732TIP3    H223161   1.927   2.175   5.563
 7733TIP3   OH223162   2.451   1.807   2.624
 7733TIP3    H123163   2.412   1.783   2.708
 7733TIP3    H223164   2.378   1.801   2.562
 7734TIP3   OH223165   6.938   6.377   0.256
 7734TIP3    H123166   6.848   6.405   0.240
 7734TIP3    H223167   6.934   6.281   0.254
 7735TIP3   OH223168   2.123   6.138   1.461
 7735TIP3    H123169   2.192   6.087   1.418
 7735TIP3    H223170   2.053   6.144   1.397
 7736TIP3   OH223171   6.828   5.482   4.068
 7736TIP3    H123172   6.808   5.552   4.006
 7736TIP3    H223173   6.901   5.516   4.119
 7737TIP3   OH223174   3.392   3.780   5.725
 7737TIP3    H123175   3.390   3.693   5.684
 7737TIP3    H223176   3.326   3.830   5.676
 7738TIP3   OH223177   2.802   5.218   0.418
 7738TIP3    H123178   2.763   5.144   0.463
 7738TIP3    H223179   2.823   5.185   0.330
 7739TIP3   OH223180   3.090   2.720   4.709
 7739TIP3    H123181   3.035   2.795   4.688
 7739TIP3    H223182   3.053   2.686   4.791
 7740TIP3   OH223183   2.380   4.457   1.868
 7740TIP3    H123184   2.473   4.437   1.880
 7740TIP3    H223185   2.376   4.553   1.872
 7741TIP3   OH223186   0.932   2.283   5.597
 7741TIP3    H123187   0.855   2.304   5.649
 7741TIP3    H223188   0.926   2.188   5.582
 7742TIP3   OH223189   6.954   5.072   0.558
 7742TIP3    H123190   6.969   5.133   0.486
 7742TIP3    H223191   6.862   5.083   0.580
 7743TIP3   OH223192   1.590   5.385   5.056
 7743TIP3    H123193   1.683   5.366   5.050
 7743TIP3    H223194   1.566   5.362   5.145
 7744TIP3   OH223195   1.785   5.191   1.019
 7744TIP3    H123196   1.860   5.249   1.011
 7744TIP3    H223197   1.789   5.159   1.109
 7745TIP3   OH223198   0.665   2.432   2.085
 7745TIP3    H123199   0.754   2.400   2.067
 7745TIP3    H223200   0.627   2.447   1.999
 7746TIP3   OH223201   3.458   3.617   0.770
 7746TIP3    H123202   3.369   3.609   0.736
 7746TIP3    H223203   3.455   3.577   0.857
 7747TIP3   OH223204   0.596   0.963   3.743
 7747TIP3    H123205   0.689   0.969   3.723
 7747TIP3    H223206   0.570   1.054   3.759
 7748TIP3   OH223207   1.851   5.471   4.629
 7748TIP3    H123208   1.852   5.559   4.668
 7748TIP3    H223209   1.883   5.413   4.698
 7749TIP3   OH223210   3.800   3.759   0.290
 7749TIP3    H123211   3.876   3.754   0.347
 7749TIP3    H223212   3.806   3.845   0.249
 7750TIP3   OH223213   4.827   6.640   3.757
 7750TIP3    H123214   4.763   6.710   3.743
 7750TIP3    H223215   4.777   6.571   3.800
 7751TIP3   OH223216   2.226   4.439   2.577
 7751TIP3    H123217   2.188   4.365   2.529
 7751TIP3    H223218   2.279   4.486   2.513
 7752TIP3   OH223219   0.316   6.616   0.293
 7752TIP3    H123220   0.263   6.563   0.352
 7752TIP3    H223221   0.276   6.702   0.295
 7753TIP3   OH223222   1.026   5.219   3.215
 7753TIP3    H123223   1.029   5.315   3.217
 7753TIP3    H223224   0.954   5.199   3.155
 7754TIP3   OH223225   5.560   5.741   4.448
 7754TIP3    H123226   5.549   5.824   4.401
 7754TIP3    H223227   5.526   5.674   4.389
 7755TIP3   OH223228   4.447   6.124   1.851
 7755TIP3    H123229   4.406   6.179   1.784
 7755TIP3    H223230   4.474   6.186   1.919
 7756TIP3   OH223231   1.152   5.595   1.406
 7756TIP3    H123232   1.112   5.565   1.487
 7756TIP3    H223233   1.236   5.550   1.402
 7757TIP3   OH223234   5.092   4.477   5.728
 7757TIP3    H123235   5.182   4.453   5.752
 7757TIP3    H223236   5.038   4.432   5.793
 7758TIP3   OH223237   1.672   6.394   4.715
 7758TIP3    H123238   1.584   6.357   4.710
 7758TIP3    H223239   1.696   6.411   4.624
 7759TIP3   OH223240   5.291   2.559   3.506
 7759TIP3    H123241   5.284   2.612   3.427
 7759TIP3    H223242   5.292   2.623   3.578
 7760TIP3   OH223243   3.413   0.356   4.628
 7760TIP3    H123244   3.396   0.272   4.586
 7760TIP3    H223245   3.390   0.421   4.562
 7761TIP3   OH223246   3.689   3.343   4.641
 7761TIP3    H123247   3.641   3.323   4.722
 7761TIP3    H223248   3.695   3.438   4.639
 7762TIP3   OH223249   0.635   1.405   2.003
 7762TIP3    H123250   0.596   1.372   1.922
 7762TIP3    H223251   0.607   1.343   2.070
 7763TIP3   OH223252   1.046   1.080   5.288
 7763TIP3    H123253   0.995   1.073   5.368
 7763TIP3    H223254   0.982   1.105   5.221
 7764TIP3   OH223255   5.947   2.159   4.966
 7764TIP3    H123256   5.981   2.118   5.046
 7764TIP3    H223257   5.963   2.252   4.979
 7765TIP3   OH223258   3.026   0.990   3.318
 7765TIP3    H123259   3.045   0.980   3.225
 7765TIP3    H223260   3.098   1.044   3.351
 7766TIP3   OH223261   2.723   0.311   5.063
 7766TIP3    H123262   2.723   0.268   5.149
 7766TIP3    H223263   2.782   0.258   5.010
 7767TIP3   OH223264   3.459   1.787   2.130
 7767TIP3    H123265   3.434   1.828   2.214
 7767TIP3    H223266   3.430   1.696   2.138
 7768TIP3   OH223267   5.819   3.739   1.355
 7768TIP3    H123268   5.736   3.767   1.316
 7768TIP3    H223269   5.795   3.665   1.411
 7769TIP3   OH223270   7.153   1.392   1.975
 7769TIP3    H123271   7.059   1.383   1.993
 7769TIP3    H223272   7.165   1.485   1.957
 7770TIP3   OH223273   0.534   2.390   0.162
 7770TIP3    H123274   0.463   2.392   0.097
 7770TIP3    H223275   0.587   2.468   0.142
 7771TIP3   OH223276   1.103   6.090   2.091
 7771TIP3    H123277   1.116   6.181   2.065
 7771TIP3    H223278   1.168   6.075   2.160
 7772TIP3   OH223279   1.028   2.665   0.104
 7772TIP3    H123280   0.968   2.591   0.091
 7772TIP3    H223281   0.980   2.741   0.071
 7773TIP3   OH223282   2.003   5.323   4.835
 7773TIP3    H123283   1.973   5.336   4.925
 7773TIP3    H223284   2.012   5.228   4.826
 7774TIP3   OH223285   5.439   5.472   2.858
 7774TIP3    H123286   5.490   5.552   2.840
 7774TIP3    H223287   5.406   5.446   2.772
 7775TIP3   OH223288   5.610   1.347   3.766
 7775TIP3    H123289   5.612   1.316   3.675
 7775TIP3    H223290   5.694   1.391   3.778
 7776TIP3   OH223291   0.101   3.805   1.522
 7776TIP3    H123292   0.178   3.815   1.578
 7776TIP3    H223293   0.057   3.890   1.528
 7777TIP3   OH223294   0.386   1.226   3.806
 7777TIP3    H123295   0.417   1.305   3.849
 7777TIP3    H223296   0.383   1.248   3.713
 7778TIP3   OH223297   0.907   6.203   0.453
 7778TIP3    H123298   0.998   6.227   0.438
 7778TIP3    H223299   0.871   6.189   0.365
 7779TIP3   OH223300   1.212   1.662   4.200
 7779TIP3    H123301   1.148   1.611   4.250
 7779TIP3    H223302   1.253   1.599   4.142
 7780TIP3   OH223303   0.402   5.719   0.425
 7780TIP3    H123304   0.463   5.758   0.363
 7780TIP3    H223305   0.433   5.629   0.436
 7781TIP3   OH223306   0.320   6.542   3.657
 7781TIP3    H123307   0.387   6.492   3.610
 7781TIP3    H223308   0.352   6.633   3.655
 7782TIP3   OH223309   1.826   6.635   2.497
 7782TIP3    H123310   1.767   6.618   2.570
 7782TIP3    H223311   1.892   6.695   2.532
 7783TIP3   OH223312   6.177   1.549   4.748
 7783TIP3    H123313   6.173   1.477   4.686
 7783TIP3    H223314   6.246   1.523   4.810
 7784TIP3   OH223315   4.282   3.234   2.413
 7784TIP3    H123316   4.206   3.178   2.430
 7784TIP3    H223317   4.252   3.323   2.432
 7785TIP3   OH223318   0.660   5.381   4.417
 7785TIP3    H123319   0.577   5.422   4.393
 7785TIP3    H223320   0.684   5.328   4.340
 7786TIP3   OH223321   3.683   4.240   4.350
 7786TIP3    H123322   3.739   4.194   4.288
 7786TIP3    H223323   3.619   4.175   4.378
 7787TIP3   OH223324   7.230   2.302   4.648
 7787TIP3    H123325   7.243   2.324   4.556
 7787TIP3    H223326   7.136   2.315   4.663
 7788TIP3   OH223327   4.292   4.128   3.202
 7788TIP3    H123328   4.377   4.092   3.227
 7788TIP3    H223329   4.250   4.150   3.285
 7789TIP3   OH223330   6.062   0.134   3.076
 7789TIP3    H123331   6.003   0.061   3.060
 7789TIP3    H223332   6.020   0.184   3.146
 7790TIP3   OH223333   4.863   4.552   0.222
 7790TIP3    H123334   4.948   4.509   0.210
 7790TIP3    H223335   4.822   4.505   0.294
 7791TIP3   OH223336   0.047   1.403   4.760
 7791TIP3    H123337  -0.043   1.395   4.791
 7791TIP3    H223338   0.087   1.468   4.817
 7792TIP3   OH223339   2.862   5.025   0.941
 7792TIP3    H123340   2.778   5.023   0.987
 7792TIP3    H223341   2.847   5.082   0.866
 7793TIP3   OH223342   1.746   4.560   1.844
 7793TIP3    H123343   1.714   4.536   1.931
 7793TIP3    H223344   1.789   4.481   1.811
 7794TIP3   OH223345   5.087   2.522   0.382
 7794TIP3    H123346   5.137   2.601   0.361
 7794TIP3    H223347   5.078   2.524   0.477
 7795TIP3   OH223348   2.167   0.625   4.553
 7795TIP3    H123349   2.111   0.574   4.612
 7795TIP3    H223350   2.134   0.603   4.465
 7796TIP3   OH223351   6.592   0.687   2.198
 7796TIP3    H123352   6.648   0.609   2.187
 7796TIP3    H223353   6.527   0.660   2.263
 7797TIP3   OH223354   6.350   1.983   2.324
 7797TIP3    H123355   6.411   1.912   2.307
 7797TIP3    H223356   6.405   2.057   2.350
 7798TIP3   OH223357   0.371   5.308   4.125
 7798TIP3    H123358   0.435   5.249   4.164
 7798TIP3    H223359   0.360   5.275   4.035
 7799TIP3   OH223360   5.452   1.703   5.311
 7799TIP3    H123361   5.394   1.633   5.283
 7799TIP3    H223362   5.394   1.771   5.345
 7800TIP3   OH223363   5.483   6.121   3.111
 7800TIP3    H123364   5.402   6.086   3.146
 7800TIP3    H223365   5.539   6.044   3.099
 7801TIP3   OH223366   0.261   0.487   2.136
 7801TIP3    H123367   0.242   0.560   2.195
 7801TIP3    H223368   0.254   0.409   2.192
 7802TIP3   OH223369   4.591   2.370   0.056
 7802TIP3    H123370   4.561   2.411   0.137
 7802TIP3    H223371   4.514   2.372  -0.001
 7803TIP3   OH223372   4.962   4.603   5.065
 7803TIP3    H123373   4.897   4.668   5.038
 7803TIP3    H223374   5.045   4.641   5.038
 7804TIP3   OH223375   6.209   0.966   3.673
 7804TIP3    H123376   6.294   0.995   3.639
 7804TIP3    H223377   6.148   1.033   3.644
 7805TIP3   OH223378   4.388   5.642   0.630
 7805TIP3    H123379   4.353   5.569   0.580
 7805TIP3    H223380   4.391   5.715   0.568
 7806TIP3   OH223381   3.192   4.441   2.805
 7806TIP3    H123382   3.259   4.372   2.810
 7806TIP3    H223383   3.114   4.397   2.773
 7807TIP3   OH223384   6.316   3.872   3.643
 7807TIP3    H123385   6.289   3.780   3.639
 7807TIP3    H223386   6.287   3.909   3.559
 7808TIP3   OH223387   6.500   5.489   5.168
 7808TIP3    H123388   6.518   5.407   5.123
 7808TIP3    H223389   6.491   5.464   5.260
 7809TIP3   OH223390   1.776   1.654   0.570
 7809TIP3    H123391   1.805   1.608   0.649
 7809TIP3    H223392   1.790   1.591   0.499
 7810TIP3   OH223393   3.225   3.175   2.995
 7810TIP3    H123394   3.229   3.254   3.049
 7810TIP3    H223395   3.139   3.179   2.953
 7811TIP3   OH223396   6.597   4.024   3.600
 7811TIP3    H123397   6.570   3.938   3.569
 7811TIP3    H223398   6.629   4.069   3.522
 7812TIP3   OH223399   0.888   5.070   2.387
 7812TIP3    H123400   0.836   5.142   2.422
 7812TIP3    H223401   0.824   5.005   2.358
 7813TIP3   OH223402   6.044   5.398   4.023
 7813TIP3    H123403   6.059   5.353   4.107
 7813TIP3    H223404   5.975   5.462   4.043
 7814TIP3   OH223405   5.404   3.940   0.779
 7814TIP3    H123406   5.368   3.991   0.706
 7814TIP3    H223407   5.490   3.913   0.749
 7815TIP3   OH223408   6.392   5.958   1.339
 7815TIP3    H123409   6.449   5.919   1.405
 7815TIP3    H223410   6.428   5.929   1.256
 7816TIP3   OH223411   2.038   6.033   0.528
 7816TIP3    H123412   2.113   6.011   0.473
 7816TIP3    H223413   2.068   6.014   0.617
 7817TIP3   OH223414   5.080   4.155   0.897
 7817TIP3    H123415   5.014   4.136   0.964
 7817TIP3    H223416   5.143   4.084   0.905
 7818TIP3   OH223417   0.920   5.455   1.025
 7818TIP3    H123418   0.827   5.478   1.031
 7818TIP3    H223419   0.945   5.479   0.936
 7819TIP3   OH223420   1.157   3.393   1.731
 7819TIP3    H123421   1.107   3.390   1.649
 7819TIP3    H223422   1.178   3.486   1.743
 7820TIP3   OH223423   6.964   5.868   0.288
 7820TIP3    H123424   6.898   5.839   0.351
 7820TIP3    H223425   6.967   5.799   0.222
 7821TIP3   OH223426   1.145   4.194   2.734
 7821TIP3    H123427   1.053   4.220   2.722
 7821TIP3    H223428   1.183   4.200   2.646
 7822TIP3   OH223429   2.418   0.252   2.215
 7822TIP3    H123430   2.388   0.168   2.181
 7822TIP3    H223431   2.472   0.289   2.144
 7823TIP3   OH223432   3.641   4.579   0.616
 7823TIP3    H123433   3.603   4.492   0.629
 7823TIP3    H223434   3.733   4.569   0.642
 7824TIP3   OH223435   2.268   1.212   3.983
 7824TIP3    H123436   2.348   1.198   4.034
 7824TIP3    H223437   2.296   1.204   3.892
 7825TIP3   OH223438   1.483   3.795   2.188
 7825TIP3    H123439   1.452   3.705   2.180
 7825TIP3    H223440   1.446   3.840   2.112
 7826TIP3   OH223441   6.736   2.069   4.582
 7826TIP3    H123442   6.674   1.998   4.563
 7826TIP3    H223443   6.821   2.034   4.556
 7827TIP3   OH223444   4.614   0.986   0.420
 7827TIP3    H123445   4.669   1.043   0.473
 7827TIP3    H223446   4.668   0.963   0.345
 7828TIP3   OH223447   5.537   5.687   2.601
 7828TIP3    H123448   5.579   5.757   2.550
 7828TIP3    H223449   5.550   5.713   2.692
 7829TIP3   OH223450   1.396   2.799   3.273
 7829TIP3    H123451   1.463   2.807   3.340
 7829TIP3    H223452   1.349   2.883   3.275
 7830TIP3   OH223453   1.684   4.359   2.832
 7830TIP3    H123454   1.720   4.362   2.743
 7830TIP3    H223455   1.603   4.410   2.828
 7831TIP3   OH223456   6.750   4.010   2.715
 7831TIP3    H123457   6.688   4.061   2.663
 7831TIP3    H223458   6.698   3.971   2.785
 7832TIP3   OH223459   5.371   2.258   5.202
 7832TIP3    H123460   5.337   2.225   5.119
 7832TIP3    H223461   5.466   2.262   5.190
 7833TIP3   OH223462   6.073   5.459   3.046
 7833TIP3    H123463   6.028   5.439   3.128
 7833TIP3    H223464   6.139   5.390   3.039
 7834TIP3   OH223465   0.902   5.552   5.287
 7834TIP3    H123466   0.889   5.558   5.192
 7834TIP3    H223467   0.831   5.496   5.317
 7835TIP3   OH223468   1.721   2.165   4.804
 7835TIP3    H123469   1.736   2.258   4.785
 7835TIP3    H223470   1.770   2.119   4.736
 7836TIP3   OH223471   5.770   6.571   3.865
 7836TIP3    H123472   5.705   6.635   3.894
 7836TIP3    H223473   5.844   6.583   3.924
 7837TIP3   OH223474   5.382   3.877   0.322
 7837TIP3    H123475   5.440   3.947   0.353
 7837TIP3    H223476   5.332   3.918   0.250
 7838TIP3   OH223477   4.560   2.384   3.654
 7838TIP3    H123478   4.639   2.331   3.657
 7838TIP3    H223479   4.562   2.427   3.569
 7839TIP3   OH223480   2.510   4.949   3.086
 7839TIP3    H123481   2.433   4.935   3.142
 7839TIP3    H223482   2.513   5.044   3.074
 7840TIP3   OH223483   4.184   0.210  -0.027
 7840TIP3    H123484   4.091   0.186  -0.022
 7840TIP3    H223485   4.214   0.209   0.064
 7841TIP3   OH223486   4.838   5.952   1.966
 7841TIP3    H123487   4.837   6.040   1.929
 7841TIP3    H223488   4.746   5.934   1.986
 7842TIP3   OH223489   6.432   0.305   1.944
 7842TIP3    H123490   6.457   0.219   1.977
 7842TIP3    H223491   6.426   0.360   2.022
 7843TIP3   OH223492   3.941   4.826   4.786
 7843TIP3    H123493   4.024   4.778   4.783
 7843TIP3    H223494   3.966   4.914   4.815
 7844TIP3   OH223495   1.233   3.726   4.191
 7844TIP3    H123496   1.233   3.716   4.286
 7844TIP3    H223497   1.325   3.713   4.166
 7845TIP3   OH223498   6.730   4.471   1.101
 7845TIP3    H123499   6.803   4.524   1.132
 7845TIP3    H223500   6.653   4.526   1.115
 7846TIP3   OH223501   1.177   5.792   1.809
 7846TIP3    H123502   1.235   5.755   1.742
 7846TIP3    H223503   1.231   5.857   1.853
 7847TIP3   OH223504   7.019   1.769   3.232
 7847TIP3    H123505   7.091   1.810   3.280
 7847TIP3    H223506   6.968   1.724   3.299
 7848TIP3   OH223507   0.946   5.664   1.856
 7848TIP3    H123508   0.932   5.707   1.941
 7848TIP3    H223509   1.031   5.698   1.827
 7849TIP3   OH223510   5.889   2.881   1.539
 7849TIP3    H123511   5.833   2.957   1.527
 7849TIP3    H223512   5.893   2.867   1.633
 7850TIP3   OH223513   2.317   3.112   4.087
 7850TIP3    H123514   2.392   3.163   4.115
 7850TIP3    H223515   2.332   3.098   3.993
 7851TIP3   OH223516   1.889   0.505   3.165
 7851TIP3    H123517   1.939   0.438   3.118
 7851TIP3    H223518   1.954   0.566   3.198
 7852TIP3   OH223519   4.760   0.205   2.100
 7852TIP3    H123520   4.742   0.274   2.035
 7852TIP3    H223521   4.736   0.245   2.183
 7853TIP3   OH223522   5.759   4.007   3.608
 7853TIP3    H123523   5.748   3.952   3.530
 7853TIP3    H223524   5.837   3.970   3.651
 7854TIP3   OH223525   3.981   1.691   0.208
 7854TIP3    H123526   3.939   1.754   0.266
 7854TIP3    H223527   4.071   1.721   0.200
 7855TIP3   OH223528   1.589   2.296   0.740
 7855TIP3    H123529   1.669   2.341   0.765
 7855TIP3    H223530   1.592   2.213   0.787
 7856TIP3   OH223531   4.562   3.520   4.464
 7856TIP3    H123532   4.559   3.512   4.368
 7856TIP3    H223533   4.652   3.543   4.484
 7857TIP3   OH223534   0.687   3.399   4.976
 7857TIP3    H123535   0.603   3.409   4.931
 7857TIP3    H223536   0.752   3.419   4.909
 7858TIP3   OH223537   3.943   0.504   5.262
 7858TIP3    H123538   3.979   0.585   5.299
 7858TIP3    H223539   4.014   0.469   5.208
 7859TIP3   OH223540   1.165   6.406   5.442
 7859TIP3    H123541   1.184   6.320   5.478
 7859TIP3    H223542   1.112   6.388   5.364
 7860TIP3   OH223543   2.780   5.098   2.036
 7860TIP3    H123544   2.718   5.172   2.038
 7860TIP3    H223545   2.817   5.101   1.948
 7861TIP3   OH223546   5.800   5.310   5.531
 7861TIP3    H123547   5.745   5.381   5.498
 7861TIP3    H223548   5.744   5.233   5.529
 7862TIP3   OH223549   1.746   5.120   3.718
 7862TIP3    H123550   1.751   5.189   3.651
 7862TIP3    H223551   1.655   5.091   3.715
 7863TIP3   OH223552   3.277   2.886   4.004
 7863TIP3    H123553   3.215   2.893   4.076
 7863TIP3    H223554   3.277   2.793   3.982
 7864TIP3   OH223555   4.434   5.793   2.827
 7864TIP3    H123556   4.504   5.751   2.777
 7864TIP3    H223557   4.455   5.773   2.918
 7865TIP3   OH223558   5.421   5.050   1.347
 7865TIP3    H123559   5.430   4.962   1.311
 7865TIP3    H223560   5.507   5.089   1.338
 7866TIP3   OH223561   3.302   4.717   0.149
 7866TIP3    H123562   3.357   4.639   0.141
 7866TIP3    H223563   3.343   4.768   0.218
 7867TIP3   OH223564   5.806   1.681   2.958
 7867TIP3    H123565   5.812   1.619   3.031
 7867TIP3    H223566   5.766   1.631   2.887
 7868TIP3   OH223567   0.673   2.621   5.719
 7868TIP3    H123568   0.612   2.644   5.789
 7868TIP3    H223569   0.651   2.680   5.647
 7869TIP3   OH223570   3.136   0.084   0.026
 7869TIP3    H123571   3.207   0.031   0.064
 7869TIP3    H223572   3.169   0.109  -0.060
 7870TIP3   OH223573   0.199   1.157   0.809
 7870TIP3    H123574   0.133   1.137   0.876
 7870TIP3    H223575   0.149   1.187   0.734
 7871TIP3   OH223576   5.032   1.246   3.386
 7871TIP3    H123577   5.030   1.188   3.462
 7871TIP3    H223578   5.045   1.334   3.423
 7872TIP3   OH223579   5.677   2.706   2.059
 7872TIP3    H123580   5.717   2.695   2.145
 7872TIP3    H223581   5.741   2.758   2.010
 7873TIP3   OH223582   6.560   0.910   3.307
 7873TIP3    H123583   6.510   0.984   3.274
 7873TIP3    H223584   6.630   0.949   3.359
 7874TIP3   OH223585   2.176   4.335   4.827
 7874TIP3    H123586   2.254   4.359   4.878
 7874TIP3    H223587   2.111   4.402   4.850
 7875TIP3   OH223588   4.939   0.287   2.656
 7875TIP3    H123589   4.865   0.344   2.676
 7875TIP3    H223590   4.963   0.308   2.566
 7876TIP3   OH223591   6.550   4.988   1.826
 7876TIP3    H123592   6.561   4.959   1.916
 7876TIP3    H223593   6.483   5.056   1.830
 7877TIP3   OH223594   1.714   3.646   3.991
 7877TIP3    H123595   1.748   3.577   3.934
 7877TIP3    H223596   1.688   3.716   3.931
 7878TIP3   OH223597   4.812   5.806   0.245
 7878TIP3    H123598   4.883   5.810   0.309
 7878TIP3    H223599   4.857   5.798   0.161
 7879TIP3   OH223600   0.859   4.795   3.704
 7879TIP3    H123601   0.844   4.713   3.657
 7879TIP3    H223602   0.946   4.823   3.676
 7880TIP3   OH223603   2.868   5.612   0.483
 7880TIP3    H123604   2.819   5.682   0.440
 7880TIP3    H223605   2.854   5.628   0.577
 7881TIP3   OH223606   1.539   1.523   3.368
 7881TIP3    H123607   1.467   1.534   3.431
 7881TIP3    H223608   1.615   1.500   3.421
 7882TIP3   OH223609   6.153   3.074   4.000
 7882TIP3    H123610   6.103   3.042   3.926
 7882TIP3    H223611   6.215   3.004   4.020
 7883TIP3   OH223612   7.089  -0.028   5.529
 7883TIP3    H123613   7.129   0.030   5.595
 7883TIP3    H223614   7.000   0.006   5.518
 7884TIP3   OH223615   1.060   4.493   0.814
 7884TIP3    H123616   1.044   4.538   0.731
 7884TIP3    H223617   1.146   4.523   0.842
 7885TIP3   OH223618   5.458   3.238   1.695
 7885TIP3    H123619   5.423   3.240   1.785
 7885TIP3    H223620   5.417   3.161   1.656
 7886TIP3   OH223621   2.497   0.391   1.694
 7886TIP3    H123622   2.446   0.466   1.664
 7886TIP3    H223623   2.458   0.316   1.650
 7887TIP3   OH223624   0.586   2.959   4.844
 7887TIP3    H123625   0.582   3.005   4.928
 7887TIP3    H223626   0.503   2.913   4.837
 7888TIP3   OH223627   0.867   1.909   0.200
 7888TIP3    H123628   0.946   1.855   0.190
 7888TIP3    H223629   0.868   1.967   0.124
 7889TIP3   OH223630   6.012   2.737   3.494
 7889TIP3    H123631   5.987   2.829   3.498
 7889TIP3    H223632   5.989   2.709   3.405
 7890TIP3   OH223633   2.886   2.585   5.228
 7890TIP3    H123634   2.895   2.665   5.175
 7890TIP3    H223635   2.869   2.617   5.316
 7891TIP3   OH223636   6.759   1.293   0.621
 7891TIP3    H123637   6.664   1.293   0.610
 7891TIP3    H223638   6.789   1.209   0.586
 7892TIP3   OH223639   1.082   3.062   0.579
 7892TIP3    H123640   1.110   3.136   0.632
 7892TIP3    H223641   1.163   3.016   0.556
 7893TIP3   OH223642   2.872   0.694   0.165
 7893TIP3    H123643   2.796   0.738   0.127
 7893TIP3    H223644   2.835   0.635   0.231
 7894TIP3   OH223645   4.090   3.455   2.303
 7894TIP3    H123646   4.112   3.542   2.335
 7894TIP3    H223647   4.130   3.450   2.216
 7895TIP3   OH223648   5.068   2.853   3.531
 7895TIP3    H123649   5.109   2.864   3.617
 7895TIP3    H223650   5.019   2.771   3.538
 7896TIP3   OH223651   2.845   3.900   2.143
 7896TIP3    H123652   2.937   3.879   2.157
 7896TIP3    H223653   2.798   3.851   2.211
 7897TIP3   OH223654   2.923   0.798   0.742
 7897TIP3    H123655   2.853   0.810   0.805
 7897TIP3    H223656   2.968   0.883   0.739
 7898TIP3   OH223657   0.693   2.698   0.705
 7898TIP3    H123658   0.773   2.656   0.737
 7898TIP3    H223659   0.640   2.711   0.784
 7899TIP3   OH223660   3.639   6.084   1.633
 7899TIP3    H123661   3.628   6.039   1.717
 7899TIP3    H223662   3.642   6.014   1.568
 7900TIP3   OH223663   1.544   2.736   5.442
 7900TIP3    H123664   1.638   2.745   5.458
 7900TIP3    H223665   1.521   2.816   5.395
 7901TIP3   OH223666   2.763   2.090   2.940
 7901TIP3    H123667   2.763   2.022   2.872
 7901TIP3    H223668   2.675   2.088   2.977
 7902TIP3   OH223669   2.287   1.744   4.877
 7902TIP3    H123670   2.235   1.799   4.936
 7902TIP3    H223671   2.312   1.803   4.806
 7903TIP3   OH223672   4.023   6.709   4.095
 7903TIP3    H123673   4.113   6.678   4.107
 7903TIP3    H223674   3.982   6.644   4.038
 7904TIP3   OH223675   5.235   4.364   2.617
 7904TIP3    H123676   5.286   4.306   2.561
 7904TIP3    H223677   5.289   4.376   2.695
 7905TIP3   OH223678   0.898   2.083   0.974
 7905TIP3    H123679   0.946   2.166   0.973
 7905TIP3    H223680   0.885   2.064   1.067
 7906TIP3   OH223681   0.969   4.196   3.560
 7906TIP3    H123682   0.981   4.128   3.627
 7906TIP3    H223683   1.057   4.221   3.535
 7907TIP3   OH223684   1.596   4.120   1.421
 7907TIP3    H123685   1.633   4.072   1.346
 7907TIP3    H223686   1.662   4.184   1.444
 7908TIP3   OH223687   1.625   4.259   0.370
 7908TIP3    H123688   1.591   4.279   0.283
 7908TIP3    H223689   1.614   4.341   0.419
 7909TIP3   OH223690   6.686   2.820   4.972
 7909TIP3    H123691   6.722   2.878   5.038
 7909TIP3    H223692   6.632   2.877   4.917
 7910TIP3   OH223693   7.157   2.868   5.210
 7910TIP3    H123694   7.216   2.792   5.210
 7910TIP3    H223695   7.122   2.870   5.299
 7911TIP3   OH223696   2.999   5.473   0.289
 7911TIP3    H123697   2.954   5.536   0.345
 7911TIP3    H223698   3.054   5.422   0.349
 7912TIP3   OH223699   6.926   3.761   1.986
 7912TIP3    H123700   6.836   3.733   1.968
 7912TIP3    H223701   6.921   3.799   2.074
 7913TIP3   OH223702   2.911   0.657   3.859
 7913TIP3    H123703   2.839   0.656   3.796
 7913TIP3    H223704   2.869   0.666   3.944
 7914TIP3   OH223705   6.360   6.402   1.058
 7914TIP3    H123706   6.408   6.323   1.079
 7914TIP3    H223707   6.310   6.380   0.979
 7915TIP3   OH223708   6.822   6.103   3.375
 7915TIP3    H123709   6.788   6.014   3.388
 7915TIP3    H223710   6.917   6.094   3.379
 7916TIP3   OH223711   4.816   6.476   0.946
 7916TIP3    H123712   4.784   6.419   0.876
 7916TIP3    H223713   4.897   6.434   0.976
 7917TIP3   OH223714   0.298   1.108   2.845
 7917TIP3    H123715   0.356   1.137   2.775
 7917TIP3    H223716   0.210   1.126   2.813
 7918TIP3   OH223717   1.188   5.870   1.370
 7918TIP3    H123718   1.126   5.886   1.298
 7918TIP3    H223719   1.180   5.776   1.388
 7919TIP3   OH223720   3.984   1.009   0.907
 7919TIP3    H123721   3.955   1.086   0.955
 7919TIP3    H223722   4.019   1.044   0.825
 7920TIP3   OH223723   6.963   2.572   4.238
 7920TIP3    H123724   6.970   2.564   4.143
 7920TIP3    H223725   6.980   2.665   4.255
 7921TIP3   OH223726   7.028   1.043   2.016
 7921TIP3    H123727   6.941   1.012   2.042
 7921TIP3    H223728   7.087   0.998   2.076
 7922TIP3   OH223729   1.589   2.655   0.689
 7922TIP3    H123730   1.539   2.613   0.758
 7922TIP3    H223731   1.569   2.748   0.698
 7923TIP3   OH223732   5.987   2.052   0.881
 7923TIP3    H123733   5.896   2.049   0.851
 7923TIP3    H223734   6.036   2.009   0.812
 7924TIP3   OH223735   2.261   2.432   2.383
 7924TIP3    H123736   2.209   2.358   2.414
 7924TIP3    H223737   2.265   2.491   2.458
 7925TIP3   OH223738   7.215   0.625   3.967
 7925TIP3    H123739   7.164   0.648   4.045
 7925TIP3    H223740   7.157   0.647   3.893
 7926TIP3   OH223741   6.407   1.608   2.022
 7926TIP3    H123742   6.405   1.529   2.077
 7926TIP3    H223743   6.337   1.594   1.958
 7927TIP3   OH223744   4.704   1.644   1.458
 7927TIP3    H123745   4.732   1.674   1.544
 7927TIP3    H223746   4.616   1.610   1.471
 7928TIP3   OH223747   3.193   0.602   5.819
 7928TIP3    H123748   3.201   0.697   5.826
 7928TIP3    H223749   3.282   0.569   5.828
 7929TIP3   OH223750   5.686   5.670   0.209
 7929TIP3    H123751   5.689   5.594   0.268
 7929TIP3    H223752   5.744   5.647   0.137
 7930TIP3   OH223753   6.663   3.622   4.004
 7930TIP3    H123754   6.606   3.597   3.932
 7930TIP3    H223755   6.614   3.688   4.052
 7931TIP3   OH223756   3.914   3.315   3.542
 7931TIP3    H123757   3.956   3.352   3.464
 7931TIP3    H223758   3.846   3.378   3.565
 7932TIP3   OH223759   7.134   1.247   2.271
 7932TIP3    H123760   7.107   1.256   2.180
 7932TIP3    H223761   7.224   1.279   2.273
 7933TIP3   OH223762   3.756   5.469   0.623
 7933TIP3    H123763   3.682   5.449   0.565
 7933TIP3    H223764   3.719   5.467   0.711
 7934TIP3   OH223765   2.069   0.788   0.905
 7934TIP3    H123766   2.063   0.881   0.885
 7934TIP3    H223767   2.033   0.779   0.993
 7935TIP3   OH223768   0.598   4.898   3.413
 7935TIP3    H123769   0.531   4.921   3.349
 7935TIP3    H223770   0.589   4.803   3.425
 7936TIP3   OH223771   1.033   0.540   2.404
 7936TIP3    H123772   1.113   0.563   2.357
 7936TIP3    H223773   0.969   0.522   2.335
 7937TIP3   OH223774   3.520   1.656   3.570
 7937TIP3    H123775   3.495   1.736   3.525
 7937TIP3    H223776   3.594   1.681   3.626
 7938TIP3   OH223777   3.111   6.018   3.705
 7938TIP3    H123778   3.205   6.006   3.695
 7938TIP3    H223779   3.078   5.931   3.727
 7939TIP3   OH223780   2.608   5.402   5.674
 7939TIP3    H123781   2.647   5.349   5.605
 7939TIP3    H223782   2.567   5.339   5.733
 7940TIP3   OH223783   0.082   3.051   1.964
 7940TIP3    H123784   0.071   3.019   2.053
 7940TIP3    H223785   0.152   3.116   1.970
 7941TIP3   OH223786   5.233   5.596   0.979
 7941TIP3    H123787   5.207   5.624   0.891
 7941TIP3    H223788   5.169   5.529   1.002
 7942TIP3   OH223789   3.557   4.331   0.743
 7942TIP3    H123790   3.600   4.267   0.800
 7942TIP3    H223791   3.536   4.282   0.664
 7943TIP3   OH223792   1.984   2.392   1.396
 7943TIP3    H123793   2.003   2.437   1.478
 7943TIP3    H223794   1.923   2.449   1.350
 7944TIP3   OH223795   1.947   0.030   0.625
 7944TIP3    H123796   1.939   0.008   0.532
 7944TIP3    H223797   1.993   0.114   0.626
 7945TIP3   OH223798   3.041   5.650   5.694
 7945TIP3    H123799   2.951   5.634   5.725
 7945TIP3    H223800   3.073   5.721   5.750
 7946TIP3   OH223801   5.619   5.236   3.962
 7946TIP3    H123802   5.616   5.201   4.051
 7946TIP3    H223803   5.692   5.189   3.921
 7947TIP3   OH223804   0.142   2.540   5.461
 7947TIP3    H123805   0.219   2.495   5.494
 7947TIP3    H223806   0.090   2.559   5.539
 7948TIP3   OH223807   1.222   2.686   4.985
 7948TIP3    H123808   1.255   2.622   5.047
 7948TIP3    H223809   1.277   2.763   4.998
 7949TIP3   OH223810   3.214   2.560   0.010
 7949TIP3    H123811   3.167   2.582   0.091
 7949TIP3    H223812   3.149   2.514  -0.043
 7950TIP3   OH223813   0.461   3.778   2.766
 7950TIP3    H123814   0.398   3.795   2.696
 7950TIP3    H223815   0.418   3.810   2.845
 7951TIP3   OH223816   3.629   0.430   2.793
 7951TIP3    H123817   3.690   0.436   2.867
 7951TIP3    H223818   3.644   0.343   2.757
 7952TIP3   OH223819   5.998   2.799   0.556
 7952TIP3    H123820   5.984   2.892   0.536
 7952TIP3    H223821   5.977   2.754   0.474
 7953TIP3   OH223822   6.737   3.753   5.078
 7953TIP3    H123823   6.821   3.725   5.042
 7953TIP3    H223824   6.759   3.796   5.161
 7954TIP3   OH223825   5.615   5.170   1.166
 7954TIP3    H123826   5.622   5.256   1.123
 7954TIP3    H223827   5.588   5.111   1.096
 7955TIP3   OH223828   0.178   1.356   2.215
 7955TIP3    H123829   0.225   1.273   2.208
 7955TIP3    H223830   0.216   1.411   2.146
 7956TIP3   OH223831   5.587   0.674   5.081
 7956TIP3    H123832   5.581   0.598   5.023
 7956TIP3    H223833   5.663   0.655   5.137
 7957TIP3   OH223834   2.862   6.517   1.233
 7957TIP3    H123835   2.894   6.591   1.285
 7957TIP3    H223836   2.820   6.557   1.157
 7958TIP3   OH223837   4.769   4.649   1.709
 7958TIP3    H123838   4.856   4.686   1.695
 7958TIP3    H223839   4.732   4.701   1.780
 7959TIP3   OH223840   2.973   1.891   2.347
 7959TIP3    H123841   3.019   1.888   2.430
 7959TIP3    H223842   2.904   1.956   2.361
 7960TIP3   OH223843   4.792   4.836   3.256
 7960TIP3    H123844   4.767   4.920   3.218
 7960TIP3    H223845   4.874   4.812   3.212
 7961TIP3   OH223846   3.007   5.041   4.609
 7961TIP3    H123847   3.010   5.075   4.519
 7961TIP3    H223848   2.914   5.040   4.631
 7962TIP3   OH223849   4.520   4.453   5.863
 7962TIP3    H123850   4.609   4.485   5.879
 7962TIP3    H223851   4.520   4.427   5.771
 7963TIP3   OH223852   1.966   0.931   3.244
 7963TIP3    H123853   2.028   0.859   3.247
 7963TIP3    H223854   1.895   0.904   3.302
 7964TIP3   OH223855   7.175   3.370   2.352
 7964TIP3    H123856   7.153   3.319   2.274
 7964TIP3    H223857   7.180   3.461   2.320
 7965TIP3   OH223858   3.243   4.892   1.087
 7965TIP3    H123859   3.211   4.977   1.057
 7965TIP3    H223860   3.291   4.911   1.167
 7966TIP3   OH223861   3.468   1.121   2.691
 7966TIP3    H123862   3.528   1.079   2.629
 7966TIP3    H223863   3.403   1.165   2.635
 7967TIP3   OH223864   6.508   3.062   3.963
 7967TIP3    H123865   6.553   3.031   4.041
 7967TIP3    H223866   6.473   3.148   3.987
 7968TIP3   OH223867   0.245   0.969   4.322
 7968TIP3    H123868   0.192   0.975   4.243
 7968TIP3    H223869   0.192   0.917   4.383
 7969TIP3   OH223870   0.541   0.892   0.109
 7969TIP3    H123871   0.574   0.802   0.104
 7969TIP3    H223872   0.540   0.923   0.019
 7970TIP3   OH223873   4.826   2.959   1.750
 7970TIP3    H123874   4.919   2.965   1.728
 7970TIP3    H223875   4.787   2.912   1.676
 7971TIP3   OH223876   0.463   3.700   4.730
 7971TIP3    H123877   0.520   3.664   4.663
 7971TIP3    H223878   0.507   3.780   4.759
 7972TIP3   OH223879   1.321   0.395   4.038
 7972TIP3    H123880   1.309   0.319   4.096
 7972TIP3    H223881   1.396   0.372   3.984
 7973TIP3   OH223882   2.800   0.749   1.853
 7973TIP3    H123883   2.786   0.655   1.865
 7973TIP3    H223884   2.717   0.789   1.877
 7974TIP3   OH223885   4.317   0.288   3.658
 7974TIP3    H123886   4.280   0.219   3.604
 7974TIP3    H223887   4.374   0.242   3.720
 7975TIP3   OH223888   0.420   6.451   0.062
 7975TIP3    H123889   0.435   6.378   0.121
 7975TIP3    H223890   0.350   6.502   0.103
 7976TIP3   OH223891   4.075   0.737   0.898
 7976TIP3    H123892   4.061   0.784   0.980
 7976TIP3    H223893   4.123   0.798   0.842
 7977TIP3   OH223894   5.747   3.074   5.101
 7977TIP3    H123895   5.726   3.046   5.012
 7977TIP3    H223896   5.811   3.145   5.090
 7978TIP3   OH223897   3.101   5.436   5.250
 7978TIP3    H123898   3.089   5.411   5.341
 7978TIP3    H223899   3.065   5.525   5.245
 7979TIP3   OH223900   3.930   5.934   3.271
 7979TIP3    H123901   3.937   6.020   3.230
 7979TIP3    H223902   3.972   5.944   3.356
 7980TIP3   OH223903   0.108   1.628   2.436
 7980TIP3    H123904   0.201   1.650   2.438
 7980TIP3    H223905   0.093   1.595   2.347
 7981TIP3   OH223906   1.873   5.307   5.096
 7981TIP3    H123907   1.886   5.239   5.163
 7981TIP3    H223908   1.945   5.368   5.110
 7982TIP3   OH223909   1.532   6.250   3.555
 7982TIP3    H123910   1.591   6.178   3.578
 7982TIP3    H223911   1.590   6.322   3.531
 7983TIP3   OH223912   3.033   0.303   4.408
 7983TIP3    H123913   2.943   0.284   4.383
 7983TIP3    H223914   3.026   0.349   4.491
 7984TIP3   OH223915   2.697   0.674   4.370
 7984TIP3    H123916   2.628   0.610   4.389
 7984TIP3    H223917   2.677   0.749   4.427
 7985TIP3   OH223918   4.458   1.107   0.191
 7985TIP3    H123919   4.521   1.043   0.223
 7985TIP3    H223920   4.503   1.150   0.118
 7986TIP3   OH223921   6.162   4.597   4.286
 7986TIP3    H123922   6.088   4.566   4.234
 7986TIP3    H223923   6.203   4.518   4.320
 7987TIP3   OH223924   5.740   4.220   5.619
 7987TIP3    H123925   5.678   4.159   5.579
 7987TIP3    H223926   5.714   4.306   5.586
 7988TIP3   OH223927   6.382   3.777   3.099
 7988TIP3    H123928   6.448   3.712   3.072
 7988TIP3    H223929   6.317   3.726   3.147
 7989TIP3   OH223930   3.918   1.506   4.035
 7989TIP3    H123931   3.859   1.434   4.060
 7989TIP3    H223932   4.006   1.467   4.040
 7990TIP3   OH223933   0.101   3.215   0.448
 7990TIP3    H123934   0.028   3.166   0.409
 7990TIP3    H223935   0.059   3.278   0.506
 7991TIP3   OH223936   3.560   0.053   3.071
 7991TIP3    H123937   3.654   0.045   3.053
 7991TIP3    H223938   3.523   0.091   2.991
 7992TIP3   OH223939   6.730   0.436   3.601
 7992TIP3    H123940   6.638   0.414   3.584
 7992TIP3    H223941   6.768   0.355   3.635
 7993TIP3   OH223942   1.502   3.925   2.541
 7993TIP3    H123943   1.500   3.834   2.572
 7993TIP3    H223944   1.537   3.975   2.615
 7994TIP3   OH223945   2.298   1.228   3.379
 7994TIP3    H123946   2.373   1.256   3.326
 7994TIP3    H223947   2.318   1.137   3.403
 7995TIP3   OH223948   6.626   2.204   4.178
 7995TIP3    H123949   6.538   2.237   4.156
 7995TIP3    H223950   6.655   2.261   4.249
 7996TIP3   OH223951   0.289   0.803   0.397
 7996TIP3    H123952   0.365   0.854   0.424
 7996TIP3    H223953   0.230   0.867   0.356
 7997TIP3   OH223954   6.824   2.244   1.675
 7997TIP3    H123955   6.743   2.201   1.648
 7997TIP3    H223956   6.796   2.329   1.709
 7998TIP3   OH223957   3.293   4.164   5.743
 7998TIP3    H123958   3.275   4.226   5.673
 7998TIP3    H223959   3.248   4.084   5.717
 7999TIP3   OH223960   4.295   1.439   0.117
 7999TIP3    H123961   4.230   1.370   0.125
 7999TIP3    H223962   4.264   1.510   0.173
 8000TIP3   OH223963   4.033   3.421   3.031
 8000TIP3    H123964   4.114   3.444   3.075
 8000TIP3    H223965   4.045   3.451   2.941
 8001TIP3   OH223966   5.215   1.310   5.745
 8001TIP3    H123967   5.254   1.365   5.677
 8001TIP3    H223968   5.289   1.268   5.788
 8002TIP3   OH223969   2.985   0.356   5.153
 8002TIP3    H123970   2.917   0.423   5.160
 8002TIP3    H223971   2.983   0.330   5.061
 8003TIP3   OH223972   1.000   1.948   4.177
 8003TIP3    H123973   0.951   1.866   4.190
 8003TIP3    H223974   1.053   1.958   4.256
 8004TIP3   OH223975   0.137   0.871   1.902
 8004TIP3    H123976   0.090   0.875   1.819
 8004TIP3    H223977   0.069   0.885   1.969
 8005TIP3   OH223978   4.924   4.651   5.623
 8005TIP3    H123979   4.955   4.736   5.654
 8005TIP3    H223980   4.984   4.587   5.662
 8006TIP3   OH223981   6.198   6.703   2.502
 8006TIP3    H123982   6.270   6.759   2.476
 8006TIP3    H223983   6.209   6.623   2.451
 8007TIP3   OH223984   1.195   2.759   1.736
 8007TIP3    H123985   1.158   2.686   1.786
 8007TIP3    H223986   1.136   2.769   1.662
 8008TIP3   OH223987   4.452   3.657   2.523
 8008TIP3    H123988   4.407   3.733   2.560
 8008TIP3    H223989   4.384   3.589   2.519
 8009TIP3   OH223990   2.611   2.707   4.951
 8009TIP3    H123991   2.636   2.618   4.978
 8009TIP3    H223992   2.618   2.759   5.031
 8010TIP3   OH223993   3.426   0.400   1.180
 8010TIP3    H123994   3.379   0.463   1.125
 8010TIP3    H223995   3.487   0.454   1.231
 8011TIP3   OH223996   5.656   0.854   0.988
 8011TIP3    H123997   5.576   0.898   0.959
 8011TIP3    H223998   5.665   0.880   1.080
 8012TIP3   OH223999   4.388   1.094   2.299
 8012TIP3    H124000   4.347   1.075   2.214
 8012TIP3    H224001   4.323   1.148   2.345
 8013TIP3   OH224002   3.342   3.012   1.349
 8013TIP3    H124003   3.302   2.976   1.427
 8013TIP3    H224004   3.401   2.944   1.317
 8014TIP3   OH224005   5.025   2.083   2.612
 8014TIP3    H124006   5.026   1.988   2.604
 8014TIP3    H224007   5.113   2.106   2.645
 8015TIP3   OH224008   4.624   2.132   1.513
 8015TIP3    H124009   4.643   2.084   1.433
 8015TIP3    H224010   4.711   2.151   1.550
 8016TIP3   OH224011   4.802   1.450   0.517
 8016TIP3    H124012   4.872   1.434   0.454
 8016TIP3    H224013   4.774   1.540   0.501
 8017TIP3   OH224014   5.580   2.486   1.889
 8017TIP3    H124015   5.498   2.457   1.930
 8017TIP3    H224016   5.598   2.571   1.931
 8018TIP3   OH224017   6.325   0.125   2.962
 8018TIP3    H124018   6.341   0.033   2.944
 8018TIP3    H224019   6.231   0.130   2.984
 8019TIP3   OH224020   3.929   2.580   3.045
 8019TIP3    H124021   4.006   2.621   3.005
 8019TIP3    H224022   3.865   2.574   2.974
 8020TIP3   OH224023   3.357   2.040   4.243
 8020TIP3    H124024   3.375   2.134   4.236
 8020TIP3    H224025   3.353   2.024   4.337
 8021TIP3   OH224026   4.846   2.617   4.149
 8021TIP3    H124027   4.781   2.552   4.119
 8021TIP3    H224028   4.841   2.687   4.084
 8022TIP3   OH224029   6.818   1.054   1.233
 8022TIP3    H124030   6.889   1.075   1.294
 8022TIP3    H224031   6.768   1.136   1.225
 8023TIP3   OH224032   7.043   0.979   3.145
 8023TIP3    H124033   7.007   1.060   3.108
 8023TIP3    H224034   7.008   0.977   3.234
 8024TIP3   OH224035   5.496   2.746   0.362
 8024TIP3    H124036   5.533   2.692   0.431
 8024TIP3    H224037   5.546   2.722   0.283
 8025TIP3   OH224038   5.859   4.478   0.381
 8025TIP3    H124039   5.944   4.496   0.421
 8025TIP3    H224040   5.858   4.533   0.302
 8026TIP3   OH224041   0.477   3.690   3.268
 8026TIP3    H124042   0.394   3.728   3.239
 8026TIP3    H224043   0.485   3.609   3.218
 8027TIP3   OH224044   2.852   4.836   3.468
 8027TIP3    H124045   2.773   4.853   3.418
 8027TIP3    H224046   2.899   4.919   3.468
 8028TIP3   OH224047   6.170   3.358   3.011
 8028TIP3    H124048   6.168   3.278   3.064
 8028TIP3    H224049   6.098   3.411   3.046
 8029TIP3   OH224050   5.409   3.554   4.702
 8029TIP3    H124051   5.351   3.538   4.777
 8029TIP3    H224052   5.459   3.632   4.727
 8030TIP3   OH224053   5.740   4.822   3.179
 8030TIP3    H124054   5.655   4.856   3.208
 8030TIP3    H224055   5.740   4.731   3.207
 8031TIP3   OH224056   0.908   2.643   4.455
 8031TIP3    H124057   0.847   2.629   4.527
 8031TIP3    H224058   0.928   2.556   4.422
 8032TIP3   OH224059   3.243   1.402   5.843
 8032TIP3    H124060   3.194   1.376   5.765
 8032TIP3    H224061   3.335   1.385   5.821
 8033TIP3   OH224062   6.951   2.362   5.448
 8033TIP3    H124063   6.859   2.337   5.440
 8033TIP3    H224064   6.981   2.372   5.357
 8034TIP3   OH224065   2.181   3.767   4.118
 8034TIP3    H124066   2.087   3.758   4.105
 8034TIP3    H224067   2.207   3.839   4.061
 8035TIP3   OH224068   1.100   4.217   5.373
 8035TIP3    H124069   1.170   4.243   5.313
 8035TIP3    H224070   1.019   4.240   5.327
 8036TIP3   OH224071   1.532   4.753   5.194
 8036TIP3    H124072   1.583   4.773   5.272
 8036TIP3    H224073   1.443   4.783   5.215
 8037TIP3   OH224074   5.739   6.313   4.068
 8037TIP3    H124075   5.664   6.353   4.112
 8037TIP3    H224076   5.730   6.341   3.977
 8038TIP3   OH224077   4.884   2.167   4.973
 8038TIP3    H124078   4.848   2.245   4.931
 8038TIP3    H224079   4.865   2.096   4.912
 8039TIP3   OH224080   3.649   3.530   3.858
 8039TIP3    H124081   3.570   3.482   3.883
 8039TIP3    H224082   3.656   3.517   3.763
 8040TIP3   OH224083   2.190   4.875   1.131
 8040TIP3    H124084   2.222   4.965   1.122
 8040TIP3    H224085   2.167   4.868   1.224
 8041TIP3   OH224086   2.746   3.546   1.795
 8041TIP3    H124087   2.831   3.505   1.813
 8041TIP3    H224088   2.757   3.636   1.826
 8042TIP3   OH224089   5.145   4.274   0.666
 8042TIP3    H124090   5.214   4.219   0.630
 8042TIP3    H224091   5.110   4.225   0.741
 8043TIP3   OH224092   2.676   2.858   5.199
 8043TIP3    H124093   2.658   2.930   5.260
 8043TIP3    H224094   2.627   2.784   5.236
 8044TIP3   OH224095   7.084   3.109   1.765
 8044TIP3    H124096   7.145   3.132   1.695
 8044TIP3    H224097   7.140   3.071   1.833
 8045TIP3   OH224098   5.518   0.577   5.421
 8045TIP3    H124099   5.521   0.669   5.395
 8045TIP3    H224100   5.427   0.551   5.408
 8046TIP3   OH224101   4.624   1.547   5.283
 8046TIP3    H124102   4.716   1.552   5.260
 8046TIP3    H224103   4.622   1.495   5.364
 8047TIP3   OH224104   5.706   1.296   3.515
 8047TIP3    H124105   5.771   1.279   3.583
 8047TIP3    H224106   5.722   1.387   3.488
 8048TIP3   OH224107   1.877   3.475   5.211
 8048TIP3    H124108   1.884   3.568   5.234
 8048TIP3    H224109   1.786   3.453   5.229
 8049TIP3   OH224110   6.084   2.372   0.282
 8049TIP3    H124111   6.143   2.321   0.226
 8049TIP3    H224112   6.001   2.371   0.236
 8050TIP3   OH224113   6.449   1.189   3.212
 8050TIP3    H124114   6.456   1.157   3.121
 8050TIP3    H224115   6.490   1.275   3.210
 8051TIP3   OH224116   0.245   3.548   2.320
 8051TIP3    H124117   0.275   3.635   2.295
 8051TIP3    H224118   0.152   3.547   2.299
 8052TIP3   OH224119   4.747   0.007   3.662
 8052TIP3    H124120   4.711  -0.032   3.583
 8052TIP3    H224121   4.675   0.057   3.699
 8053TIP3   OH224122   5.045   0.072   3.776
 8053TIP3    H124123   5.065   0.126   3.852
 8053TIP3    H224124   4.999   0.130   3.715
 8054TIP3   OH224125   4.340   4.810   4.570
 8054TIP3    H124126   4.245   4.798   4.561
 8054TIP3    H224127   4.352   4.905   4.565
 8055TIP3   OH224128   1.608   5.573   3.779
 8055TIP3    H124129   1.645   5.612   3.700
 8055TIP3    H224130   1.679   5.520   3.815
 8056TIP3   OH224131   3.791   4.542   4.907
 8056TIP3    H124132   3.807   4.636   4.899
 8056TIP3    H224133   3.700   4.535   4.936
 8057TIP3   OH224134   6.526   0.856   0.254
 8057TIP3    H124135   6.492   0.857   0.165
 8057TIP3    H224136   6.565   0.769   0.264
 8058TIP3   OH224137   0.432   1.471   4.579
 8058TIP3    H124138   0.363   1.534   4.559
 8058TIP3    H224139   0.475   1.455   4.495
 8059TIP3   OH224140   5.562   5.613   4.699
 8059TIP3    H124141   5.564   5.651   4.611
 8059TIP3    H224142   5.616   5.534   4.692
 8060TIP3   OH224143   6.236   5.594   5.777
 8060TIP3    H124144   6.195   5.561   5.857
 8060TIP3    H224145   6.163   5.629   5.725
 8061TIP3   OH224146   0.495   1.424   4.332
 8061TIP3    H124147   0.586   1.396   4.323
 8061TIP3    H224148   0.443   1.344   4.322
 8062TIP3   OH224149   4.240   3.598   0.156
 8062TIP3    H124150   4.277   3.682   0.130
 8062TIP3    H224151   4.248   3.596   0.252
 8063TIP3   OH224152   4.746   2.705   3.881
 8063TIP3    H124153   4.695   2.708   3.799
 8063TIP3    H224154   4.836   2.717   3.853
 8064TIP3   OH224155   6.835   1.924   1.717
 8064TIP3    H124156   6.835   1.841   1.765
 8064TIP3    H224157   6.744   1.933   1.687
 8065TIP3   OH224158   5.419   2.044   4.682
 8065TIP3    H124159   5.502   2.036   4.635
 8065TIP3    H224160   5.371   1.964   4.659
 8066TIP3   OH224161   4.251   6.189   2.234
 8066TIP3    H124162   4.175   6.207   2.289
 8066TIP3    H224163   4.220   6.203   2.145
 8067TIP3   OH224164   5.692   1.421   2.891
 8067TIP3    H124165   5.755   1.376   2.834
 8067TIP3    H224166   5.611   1.423   2.840
 8068TIP3   OH224167   1.868   6.055   4.056
 8068TIP3    H124168   1.891   6.004   4.134
 8068TIP3    H224169   1.942   6.114   4.042
 8069TIP3   OH224170   5.110   1.662   2.371
 8069TIP3    H124171   5.036   1.602   2.377
 8069TIP3    H224172   5.073   1.748   2.392
 8070TIP3   OH224173   0.071   3.220   1.287
 8070TIP3    H124174   0.085   3.175   1.370
 8070TIP3    H224175  -0.007   3.273   1.301
 8071TIP3   OH224176   3.257   0.134   1.735
 8071TIP3    H124177   3.175   0.176   1.763
 8071TIP3    H224178   3.287   0.188   1.662
 8072TIP3   OH224179   5.300   0.075   4.915
 8072TIP3    H124180   5.297   0.076   5.011
 8072TIP3    H224181   5.215   0.037   4.890
 8073TIP3   OH224182   4.468   2.724   4.673
 8073TIP3    H124183   4.398   2.769   4.626
 8073TIP3    H224184   4.498   2.787   4.738
 8074TIP3   OH224185   6.211   1.371   1.640
 8074TIP3    H124186   6.244   1.374   1.550
 8074TIP3    H224187   6.132   1.318   1.635
 8075TIP3   OH224188   0.337   0.510   3.887
 8075TIP3    H124189   0.266   0.496   3.824
 8075TIP3    H224190   0.384   0.587   3.853
 8076TIP3   OH224191   0.551   3.518   2.385
 8076TIP3    H124192   0.482   3.583   2.373
 8076TIP3    H224193   0.631   3.564   2.360
 8077TIP3   OH224194   5.169   6.526   4.176
 8077TIP3    H124195   5.187   6.432   4.174
 8077TIP3    H224196   5.113   6.541   4.099
 8078TIP3   OH224197   0.627   1.625   5.243
 8078TIP3    H124198   0.674   1.674   5.311
 8078TIP3    H224199   0.681   1.636   5.164
 8079TIP3   OH224200   1.046   4.731   1.878
 8079TIP3    H124201   1.081   4.808   1.834
 8079TIP3    H224202   1.122   4.688   1.917
 8080TIP3   OH224203   2.488   0.026   4.278
 8080TIP3    H124204   2.408  -0.014   4.245
 8080TIP3    H224205   2.484   0.012   4.373
 8081TIP3   OH224206   2.871   4.754   1.918
 8081TIP3    H124207   2.960   4.786   1.931
 8081TIP3    H224208   2.881   4.660   1.908
 8082TIP3   OH224209   3.908   5.215   1.635
 8082TIP3    H124210   3.911   5.119   1.633
 8082TIP3    H224211   3.990   5.241   1.677
 8083TIP3   OH224212   0.288   0.170   4.470
 8083TIP3    H124213   0.288   0.254   4.424
 8083TIP3    H224214   0.327   0.109   4.408
 8084TIP3   OH224215   4.325   4.474   3.563
 8084TIP3    H124216   4.275   4.555   3.567
 8084TIP3    H224217   4.404   4.492   3.614
 8085TIP3   OH224218   0.219   2.722   0.759
 8085TIP3    H124219   0.138   2.677   0.732
 8085TIP3    H224220   0.257   2.752   0.676
 8086TIP3   OH224221   3.349   0.271   1.510
 8086TIP3    H124222   3.386   0.223   1.436
 8086TIP3    H224223   3.275   0.319   1.473
 8087TIP3   OH224224   6.182   1.829   5.047
 8087TIP3    H124225   6.142   1.821   4.961
 8087TIP3    H224226   6.109   1.821   5.108
 8088TIP3   OH224227   2.824   2.771   4.122
 8088TIP3    H124228   2.776   2.750   4.202
 8088TIP3    H224229   2.757   2.805   4.062
 8089TIP3   OH224230   2.279   2.282   1.651
 8089TIP3    H124231   2.346   2.333   1.605
 8089TIP3    H224232   2.273   2.200   1.602
 8090TIP3   OH224233   2.765   3.493   1.321
 8090TIP3    H124234   2.682   3.489   1.369
 8090TIP3    H224235   2.784   3.587   1.315
 8091TIP3   OH224236   6.658   1.406   4.138
 8091TIP3    H124237   6.654   1.453   4.054
 8091TIP3    H224238   6.576   1.429   4.182
 8092TIP3   OH224239   6.397   6.511   4.856
 8092TIP3    H124240   6.448   6.469   4.787
 8092TIP3    H224241   6.443   6.487   4.937
 8093TIP3   OH224242   5.159   6.533   1.499
 8093TIP3    H124243   5.083   6.476   1.511
 8093TIP3    H224244   5.211   6.488   1.432
 8094TIP3   OH224245   2.265   3.602   2.422
 8094TIP3    H124246   2.342   3.579   2.474
 8094TIP3    H224247   2.263   3.537   2.352
 8095TIP3   OH224248   4.945   5.412   0.687
 8095TIP3    H124249   4.911   5.416   0.777
 8095TIP3    H224250   4.866   5.415   0.632
 8096TIP3   OH224251   5.428   6.792   2.826
 8096TIP3    H124252   5.439   6.850   2.751
 8096TIP3    H224253   5.444   6.704   2.791
 8097TIP3   OH224254   3.891   0.521   4.271
 8097TIP3    H124255   3.815   0.509   4.214
 8097TIP3    H224256   3.858   0.569   4.347
 8098TIP3   OH224257   5.238   0.941   3.924
 8098TIP3    H124258   5.330   0.925   3.943
 8098TIP3    H224259   5.231   1.037   3.923
 8099TIP3   OH224260   0.199   6.280   3.285
 8099TIP3    H124261   0.243   6.254   3.366
 8099TIP3    H224262   0.241   6.228   3.217
 8100TIP3   OH224263   0.527   5.474   0.460
 8100TIP3    H124264   0.578   5.440   0.534
 8100TIP3    H224265   0.482   5.398   0.425
 8101TIP3   OH224266   1.126   1.033   0.253
 8101TIP3    H124267   1.047   1.009   0.205
 8101TIP3    H224268   1.178   1.082   0.189
 8102TIP3   OH224269   6.763   6.289   3.590
 8102TIP3    H124270   6.853   6.318   3.606
 8102TIP3    H224271   6.772   6.213   3.532
 8103TIP3   OH224272   2.943   6.200   5.564
 8103TIP3    H124273   3.038   6.211   5.562
 8103TIP3    H224274   2.912   6.270   5.622
 8104TIP3   OH224275   4.502   2.190   1.861
 8104TIP3    H124276   4.438   2.221   1.925
 8104TIP3    H224277   4.564   2.138   1.912
 8105TIP3   OH224278   0.385   6.278   1.250
 8105TIP3    H124279   0.447   6.269   1.322
 8105TIP3    H224280   0.415   6.216   1.184
 8106TIP3   OH224281   3.226   3.835  -0.024
 8106TIP3    H124282   3.185   3.823   0.062
 8106TIP3    H224283   3.277   3.916  -0.015
 8107TIP3   OH224284   1.897   5.646   3.282
 8107TIP3    H124285   1.934   5.724   3.324
 8107TIP3    H224286   1.848   5.603   3.352
 8108TIP3   OH224287   7.123   5.761   3.121
 8108TIP3    H124288   7.203   5.731   3.163
 8108TIP3    H224289   7.146   5.769   3.028
 8109TIP3   OH224290   0.009   5.044   0.356
 8109TIP3    H124291   0.090   5.056   0.306
 8109TIP3    H224292  -0.051   5.004   0.293
 8110TIP3   OH224293   1.067   4.708   4.537
 8110TIP3    H124294   1.131   4.758   4.588
 8110TIP3    H224295   1.085   4.617   4.559
 8111TIP3   OH224296   1.037   0.344   1.000
 8111TIP3    H124297   1.096   0.269   0.988
 8111TIP3    H224298   0.971   0.333   0.932
 8112TIP3   OH224299   0.302   3.353   2.932
 8112TIP3    H124300   0.224   3.298   2.926
 8112TIP3    H224301   0.284   3.427   2.875
 8113TIP3   OH224302   5.433   6.492   4.672
 8113TIP3    H124303   5.399   6.550   4.603
 8113TIP3    H224304   5.410   6.404   4.642
 8114TIP3   OH224305   3.061   1.035   0.715
 8114TIP3    H124306   3.063   1.127   0.687
 8114TIP3    H224307   3.148   1.018   0.750
 8115TIP3   OH224308   3.536   3.192   4.473
 8115TIP3    H124309   3.602   3.244   4.521
 8115TIP3    H224310   3.493   3.256   4.416
 8116TIP3   OH224311   7.005   1.187   1.386
 8116TIP3    H124312   7.091   1.221   1.361
 8116TIP3    H224313   6.954   1.264   1.411
 8117TIP3   OH224314   4.477   4.619   4.451
 8117TIP3    H124315   4.557   4.597   4.498
 8117TIP3    H224316   4.441   4.693   4.499
 8118TIP3   OH224317   3.629   0.785   4.609
 8118TIP3    H124318   3.633   0.841   4.687
 8118TIP3    H224319   3.547   0.736   4.619
 8119TIP3   OH224320   4.743   4.722   1.979
 8119TIP3    H124321   4.786   4.637   1.982
 8119TIP3    H224322   4.657   4.707   2.018
 8120TIP3   OH224323   2.990   0.912   1.197
 8120TIP3    H124324   3.062   0.923   1.259
 8120TIP3    H224325   2.978   0.817   1.191
 8121TIP3   OH224326   4.432   5.336   5.630
 8121TIP3    H124327   4.462   5.268   5.690
 8121TIP3    H224328   4.415   5.412   5.686
 8122TIP3   OH224329   4.981   5.765   2.594
 8122TIP3    H124330   4.944   5.752   2.506
 8122TIP3    H224331   4.908   5.802   2.645
 8123TIP3   OH224332   0.051   2.165   3.447
 8123TIP3    H124333  -0.023   2.220   3.471
 8123TIP3    H224334   0.112   2.173   3.520
 8124TIP3   OH224335   3.506   4.301   5.492
 8124TIP3    H124336   3.585   4.324   5.443
 8124TIP3    H224337   3.516   4.207   5.511
 8125TIP3   OH224338   1.122   0.187   0.433
 8125TIP3    H124339   1.065   0.249   0.387
 8125TIP3    H224340   1.161   0.239   0.504
 8126TIP3   OH224341   3.698   4.130   0.847
 8126TIP3    H124342   3.662   4.102   0.931
 8126TIP3    H224343   3.767   4.193   0.870
 8127TIP3   OH224344   3.429   3.953   1.276
 8127TIP3    H124345   3.423   4.010   1.199
 8127TIP3    H224346   3.343   3.962   1.318
 8128TIP3   OH224347   5.059   0.155   0.528
 8128TIP3    H124348   5.034   0.113   0.446
 8128TIP3    H224349   5.129   0.099   0.562
 8129TIP3   OH224350   0.798   6.386   4.587
 8129TIP3    H124351   0.743   6.368   4.663
 8129TIP3    H224352   0.854   6.308   4.579
 8130TIP3   OH224353   2.636   5.322   2.035
 8130TIP3    H124354   2.694   5.398   2.037
 8130TIP3    H224355   2.586   5.333   1.954
 8131TIP3   OH224356   3.818   4.010   0.437
 8131TIP3    H124357   3.874   4.025   0.361
 8131TIP3    H224358   3.804   4.097   0.474
 8132TIP3   OH224359   1.449   1.962   3.221
 8132TIP3    H124360   1.523   2.018   3.244
 8132TIP3    H224361   1.487   1.875   3.210
 8133TIP3   OH224362   5.323   4.645   3.189
 8133TIP3    H124363   5.229   4.648   3.169
 8133TIP3    H224364   5.335   4.560   3.234
 8134TIP3   OH224365   0.617   5.397   3.567
 8134TIP3    H124366   0.587   5.374   3.479
 8134TIP3    H224367   0.691   5.338   3.583
 8135TIP3   OH224368   5.246   3.968   0.997
 8135TIP3    H124369   5.193   3.888   0.996
 8135TIP3    H224370   5.319   3.949   0.938
 8136TIP3   OH224371   3.888   2.508   5.893
 8136TIP3    H124372   3.930   2.492   5.808
 8136TIP3    H224373   3.803   2.466   5.886
 8137TIP3   OH224374   1.857   4.980   3.973
 8137TIP3    H124375   1.809   5.033   3.910
 8137TIP3    H224376   1.796   4.910   3.997
 8138TIP3   OH224377   1.823   1.534   3.844
 8138TIP3    H124378   1.834   1.626   3.869
 8138TIP3    H224379   1.739   1.531   3.799
 8139TIP3   OH224380   2.640   1.717   0.824
 8139TIP3    H124381   2.582   1.791   0.843
 8139TIP3    H224382   2.724   1.757   0.804
 8140TIP3   OH224383   3.652   2.388   0.900
 8140TIP3    H124384   3.731   2.440   0.887
 8140TIP3    H224385   3.670   2.337   0.979
 8141TIP3   OH224386   3.601   2.716   3.968
 8141TIP3    H124387   3.662   2.726   3.894
 8141TIP3    H224388   3.515   2.705   3.927
 8142TIP3   OH224389   1.923   4.113   1.020
 8142TIP3    H124390   2.004   4.063   1.024
 8142TIP3    H224391   1.875   4.076   0.946
 8143TIP3   OH224392   4.140   5.071   1.183
 8143TIP3    H124393   4.083   5.002   1.216
 8143TIP3    H224394   4.120   5.076   1.089
 8144TIP3   OH224395   5.713   0.903   1.883
 8144TIP3    H124396   5.714   0.834   1.950
 8144TIP3    H224397   5.656   0.868   1.815
 8145TIP3   OH224398   4.643   0.765   1.536
 8145TIP3    H124399   4.598   0.744   1.454
 8145TIP3    H224400   4.659   0.859   1.532
 8146TIP3   OH224401   0.526   1.938   4.353
 8146TIP3    H124402   0.520   1.854   4.308
 8146TIP3    H224403   0.586   1.990   4.299
 8147TIP3   OH224404   4.069   1.418   2.635
 8147TIP3    H124405   3.995   1.391   2.689
 8147TIP3    H224406   4.132   1.455   2.697
 8148TIP3   OH224407   5.884   1.920   1.646
 8148TIP3    H124408   5.928   1.841   1.677
 8148TIP3    H224409   5.847   1.960   1.725
 8149TIP3   OH224410   6.351   6.352   2.751
 8149TIP3    H124411   6.354   6.268   2.704
 8149TIP3    H224412   6.412   6.340   2.824
 8150TIP3   OH224413   4.462   3.969   2.488
 8150TIP3    H124414   4.390   4.030   2.505
 8150TIP3    H224415   4.530   4.023   2.447
 8151TIP3   OH224416   2.585   6.209   2.561
 8151TIP3    H124417   2.588   6.297   2.599
 8151TIP3    H224418   2.491   6.193   2.547
 8152TIP3   OH224419   4.020   6.579   0.388
 8152TIP3    H124420   3.952   6.585   0.322
 8152TIP3    H224421   3.986   6.518   0.453
 8153TIP3   OH224422   5.801   2.110   3.819
 8153TIP3    H124423   5.751   2.127   3.899
 8153TIP3    H224424   5.841   2.024   3.833
 8154TIP3   OH224425   2.313   0.986   0.330
 8154TIP3    H124426   2.278   0.916   0.386
 8154TIP3    H224427   2.383   0.944   0.280
 8155TIP3   OH224428   0.942   4.324   3.095
 8155TIP3    H124429   0.908   4.237   3.115
 8155TIP3    H224430   0.888   4.384   3.146
 8156TIP3   OH224431   6.900   4.290   4.035
 8156TIP3    H124432   6.870   4.296   4.126
 8156TIP3    H224433   6.944   4.374   4.019
 8157TIP3   OH224434   2.246   5.247   5.195
 8157TIP3    H124435   2.231   5.332   5.155
 8157TIP3    H224436   2.303   5.266   5.270
 8158TIP3   OH224437   6.327   2.918   5.437
 8158TIP3    H124438   6.248   2.866   5.452
 8158TIP3    H224439   6.300   2.988   5.378
 8159TIP3   OH224440   6.164   3.179   3.665
 8159TIP3    H124441   6.228   3.239   3.704
 8159TIP3    H224442   6.165   3.202   3.571
 8160TIP3   OH224443   2.240   5.382   3.474
 8160TIP3    H124444   2.229   5.466   3.430
 8160TIP3    H224445   2.180   5.385   3.548
 8161TIP3   OH224446   3.844   1.686   5.055
 8161TIP3    H124447   3.869   1.779   5.055
 8161TIP3    H224448   3.927   1.639   5.069
 8162TIP3   OH224449   1.844   0.659   2.936
 8162TIP3    H124450   1.825   0.622   3.023
 8162TIP3    H224451   1.823   0.589   2.875
 8163TIP3   OH224452   0.900   5.764   2.110
 8163TIP3    H124453   0.853   5.842   2.140
 8163TIP3    H224454   0.967   5.750   2.177
 8164TIP3   OH224455   6.581   6.003   2.344
 8164TIP3    H124456   6.523   6.026   2.272
 8164TIP3    H224457   6.633   6.082   2.360
 8165TIP3   OH224458   0.122   5.057   5.092
 8165TIP3    H124459   0.060   5.105   5.037
 8165TIP3    H224460   0.158   5.123   5.151
 8166TIP3   OH224461   4.900   5.287   3.128
 8166TIP3    H124462   4.917   5.375   3.163
 8166TIP3    H224463   4.965   5.277   3.058
 8167TIP3   OH224464   1.839   0.653   4.882
 8167TIP3    H124465   1.805   0.602   4.809
 8167TIP3    H224466   1.858   0.739   4.846
 8168TIP3   OH224467   7.151   0.191   3.930
 8168TIP3    H124468   7.220   0.251   3.959
 8168TIP3    H224469   7.169   0.109   3.976
 8169TIP3   OH224470   5.200   4.130   4.956
 8169TIP3    H124471   5.116   4.092   4.929
 8169TIP3    H224472   5.177   4.215   4.994
 8170TIP3   OH224473   4.548   2.118   4.594
 8170TIP3    H124474   4.635   2.102   4.556
 8170TIP3    H224475   4.501   2.166   4.526
 8171TIP3   OH224476   1.925   3.040   1.433
 8171TIP3    H124477   1.872   3.067   1.509
 8171TIP3    H224478   1.937   2.946   1.445
 8172TIP3   OH224479   1.445   5.559   0.205
 8172TIP3    H124480   1.415   5.534   0.292
 8172TIP3    H224481   1.475   5.650   0.215
 8173TIP3   OH224482   3.346   4.323   3.308
 8173TIP3    H124483   3.291   4.387   3.264
 8173TIP3    H224484   3.328   4.240   3.263
 8174TIP3   OH224485   0.153   2.907   2.806
 8174TIP3    H124486   0.091   2.834   2.803
 8174TIP3    H224487   0.135   2.958   2.728
 8175TIP3   OH224488   3.935   3.332   5.718
 8175TIP3    H124489   3.896   3.252   5.684
 8175TIP3    H224490   3.966   3.309   5.805
 8176TIP3   OH224491   2.245   0.140   4.893
 8176TIP3    H124492   2.181   0.127   4.823
 8176TIP3    H224493   2.303   0.064   4.888
 8177TIP3   OH224494   2.181   5.131   3.972
 8177TIP3    H124495   2.153   5.044   4.000
 8177TIP3    H224496   2.124   5.151   3.898
 8178TIP3   OH224497   3.143   6.203   5.082
 8178TIP3    H124498   3.158   6.130   5.022
 8178TIP3    H224499   3.204   6.271   5.053
 8179TIP3   OH224500   3.643   5.173   2.213
 8179TIP3    H124501   3.732   5.195   2.239
 8179TIP3    H224502   3.590   5.247   2.242
 8180TIP3   OH224503   5.828   2.442   2.209
 8180TIP3    H124504   5.917   2.457   2.177
 8180TIP3    H224505   5.837   2.439   2.304
 8181TIP3   OH224506   6.326   5.157   4.997
 8181TIP3    H124507   6.381   5.196   4.930
 8181TIP3    H224508   6.308   5.069   4.966
 8182TIP3   OH224509   1.349   0.330   2.131
 8182TIP3    H124510   1.381   0.275   2.202
 8182TIP3    H224511   1.313   0.407   2.174
 8183TIP3   OH224512   5.964   0.665   4.332
 8183TIP3    H124513   5.894   0.634   4.390
 8183TIP3    H224514   6.037   0.684   4.391
 8184TIP3   OH224515   1.037   4.626   3.337
 8184TIP3    H124516   0.952   4.591   3.310
 8184TIP3    H224517   1.074   4.559   3.395
 8185TIP3   OH224518   3.865   6.421   5.809
 8185TIP3    H124519   3.940   6.375   5.846
 8185TIP3    H224520   3.826   6.466   5.883
 8186TIP3   OH224521   1.810   2.765   4.401
 8186TIP3    H124522   1.805   2.817   4.482
 8186TIP3    H224523   1.808   2.674   4.431
 8187TIP3   OH224524   5.245   5.148   1.563
 8187TIP3    H124525   5.300   5.104   1.498
 8187TIP3    H224526   5.306   5.178   1.630
 8188TIP3   OH224527   2.953   4.122   2.883
 8188TIP3    H124528   2.922   4.208   2.855
 8188TIP3    H224529   3.031   4.106   2.831
 8189TIP3   OH224530   4.827   5.522   2.765
 8189TIP3    H124531   4.911   5.493   2.731
 8189TIP3    H224532   4.764   5.458   2.731
 8190TIP3   OH224533   5.288   2.674   2.140
 8190TIP3    H124534   5.234   2.602   2.108
 8190TIP3    H224535   5.341   2.700   2.064
 8191TIP3   OH224536   0.262   1.073   4.872
 8191TIP3    H124537   0.280   0.988   4.830
 8191TIP3    H224538   0.348   1.114   4.881
 8192TIP3   OH224539   0.932   6.566   4.413
 8192TIP3    H124540   1.006   6.601   4.462
 8192TIP3    H224541   0.880   6.518   4.478
 8193TIP3   OH224542   6.562   3.807   1.170
 8193TIP3    H124543   6.624   3.792   1.241
 8193TIP3    H224544   6.510   3.882   1.199
 8194TIP3   OH224545   2.205   0.552   4.227
 8194TIP3    H124546   2.220   0.469   4.272
 8194TIP3    H224547   2.290   0.575   4.190
 8195TIP3   OH224548   0.967   1.620   3.023
 8195TIP3    H124549   0.975   1.572   2.941
 8195TIP3    H224550   0.875   1.609   3.048
 8196TIP3   OH224551   6.752   3.380   1.423
 8196TIP3    H124552   6.721   3.387   1.513
 8196TIP3    H224553   6.706   3.304   1.388
 8197TIP3   OH224554   7.157   2.478   2.046
 8197TIP3    H124555   7.248   2.462   2.024
 8197TIP3    H224556   7.159   2.550   2.109
 8198TIP3   OH224557   1.415   5.226   3.313
 8198TIP3    H124558   1.411   5.170   3.235
 8198TIP3    H224559   1.485   5.189   3.366
 8199TIP3   OH224560   4.138   5.710   1.156
 8199TIP3    H124561   4.110   5.618   1.153
 8199TIP3    H224562   4.131   5.733   1.249
 8200TIP3   OH224563   3.428   1.738   0.029
 8200TIP3    H124564   3.507   1.717   0.079
 8200TIP3    H224565   3.457   1.798  -0.039
 8201TIP3   OH224566   3.581   3.733   5.490
 8201TIP3    H124567   3.523   3.667   5.452
 8201TIP3    H224568   3.656   3.684   5.523
 8202TIP3   OH224569   0.720   2.313   4.184
 8202TIP3    H124570   0.725   2.375   4.257
 8202TIP3    H224571   0.641   2.338   4.137
 8203TIP3   OH224572   5.991   1.584   5.380
 8203TIP3    H124573   6.027   1.543   5.302
 8203TIP3    H224574   6.025   1.673   5.379
 8204TIP3   OH224575   0.455   2.589   5.360
 8204TIP3    H124576   0.431   2.576   5.452
 8204TIP3    H224577   0.529   2.529   5.346
 8205TIP3   OH224578   3.273   2.857   1.556
 8205TIP3    H124579   3.351   2.830   1.605
 8205TIP3    H224580   3.213   2.783   1.564
 8206TIP3   OH224581   0.900   4.320   2.826
 8206TIP3    H124582   0.935   4.317   2.915
 8206TIP3    H224583   0.805   4.325   2.837
 8207TIP3   OH224584   5.957   5.843   5.027
 8207TIP3    H124585   5.918   5.756   5.037
 8207TIP3    H224586   5.885   5.904   5.041
 8208TIP3   OH224587   0.392   2.537   4.686
 8208TIP3    H124588   0.395   2.520   4.780
 8208TIP3    H224589   0.478   2.573   4.665
 8209TIP3   OH224590   5.273   3.465   1.235
 8209TIP3    H124591   5.209   3.394   1.238
 8209TIP3    H224592   5.286   3.481   1.142
 8210TIP3   OH224593   5.140   4.617   3.587
 8210TIP3    H124594   5.117   4.589   3.499
 8210TIP3    H224595   5.194   4.546   3.622
 8211TIP3   OH224596   3.466   1.593   5.563
 8211TIP3    H124597   3.496   1.528   5.626
 8211TIP3    H224598   3.444   1.543   5.485
 8212TIP3   OH224599   0.411   3.471   4.937
 8212TIP3    H124600   0.428   3.565   4.937
 8212TIP3    H224601   0.324   3.462   4.977
 8213TIP3   OH224602   0.310   3.615   0.488
 8213TIP3    H124603   0.372   3.551   0.454
 8213TIP3    H224604   0.261   3.645   0.411
 8214TIP3   OH224605   6.547   6.037   5.852
 8214TIP3    H124606   6.561   5.970   5.786
 8214TIP3    H224607   6.559   6.120   5.805
 8215TIP3   OH224608   1.451   1.002   3.348
 8215TIP3    H124609   1.377   1.048   3.386
 8215TIP3    H224610   1.501   1.070   3.303
 8216TIP3   OH224611   0.501   0.280   2.098
 8216TIP3    H124612   0.573   0.229   2.062
 8216TIP3    H224613   0.532   0.310   2.183
 8217TIP3   OH224614   1.183   2.012   3.293
 8217TIP3    H124615   1.184   2.036   3.386
 8217TIP3    H224616   1.272   1.980   3.276
 8218TIP3   OH224617   3.390   5.585   0.134
 8218TIP3    H124618   3.468   5.623   0.095
 8218TIP3    H224619   3.412   5.574   0.226
 8219TIP3   OH224620   3.084   5.900   0.831
 8219TIP3    H124621   3.078   5.995   0.836
 8219TIP3    H224622   3.176   5.880   0.850
 8220TIP3   OH224623   6.562   6.001   4.194
 8220TIP3    H124624   6.652   5.984   4.222
 8220TIP3    H224625   6.509   5.944   4.250
 8221TIP3   OH224626   4.596   0.155   1.264
 8221TIP3    H124627   4.671   0.103   1.292
 8221TIP3    H224628   4.631   0.209   1.192
 8222TIP3   OH224629   6.397   0.079   5.069
 8222TIP3    H124630   6.440   0.110   5.149
 8222TIP3    H224631   6.409   0.150   5.006
 8223TIP3   OH224632   3.256   6.476   3.217
 8223TIP3    H124633   3.178   6.426   3.240
 8223TIP3    H224634   3.324   6.442   3.275
 8224TIP3   OH224635   3.453   1.131   0.216
 8224TIP3    H124636   3.400   1.203   0.252
 8224TIP3    H224637   3.388   1.067   0.186
 8225TIP3   OH224638   0.030   2.721   4.883
 8225TIP3    H124639  -0.030   2.646   4.878
 8225TIP3    H224640   0.110   2.685   4.921
 8226TIP3   OH224641   2.169   6.013   5.582
 8226TIP3    H124642   2.214   6.097   5.571
 8226TIP3    H224643   2.178   5.969   5.498
 8227TIP3   OH224644   3.035   5.528   2.650
 8227TIP3    H124645   2.964   5.562   2.595
 8227TIP3    H224646   3.089   5.476   2.590
 8228TIP3   OH224647   3.132   5.164   3.043
 8228TIP3    H124648   3.148   5.112   2.965
 8228TIP3    H224649   3.200   5.231   3.041
 8229TIP3   OH224650   4.166   5.999   0.626
 8229TIP3    H124651   4.201   6.088   0.632
 8229TIP3    H224652   4.188   5.959   0.710
 8230TIP3   OH224653   0.927   0.135   4.592
 8230TIP3    H124654   0.888   0.125   4.679
 8230TIP3    H224655   0.953   0.047   4.567
 8231TIP3   OH224656   6.935   1.104   5.494
 8231TIP3    H124657   6.922   1.197   5.514
 8231TIP3    H224658   6.876   1.087   5.421
 8232TIP3   OH224659   4.323   3.782   4.289
 8232TIP3    H124660   4.312   3.770   4.195
 8232TIP3    H224661   4.406   3.739   4.310
 8233TIP3   OH224662   1.415   5.707   2.479
 8233TIP3    H124663   1.449   5.627   2.519
 8233TIP3    H224664   1.458   5.711   2.394
 8234TIP3   OH224665   1.816   2.207   0.516
 8234TIP3    H124666   1.884   2.249   0.569
 8234TIP3    H224667   1.804   2.121   0.556
 8235TIP3   OH224668   2.892   4.879   4.929
 8235TIP3    H124669   2.864   4.788   4.925
 8235TIP3    H224670   2.984   4.878   4.904
 8236TIP3   OH224671   2.735   0.334   0.840
 8236TIP3    H124672   2.827   0.309   0.848
 8236TIP3    H224673   2.690   0.286   0.909
 8237TIP3   OH224674   6.854   5.501   5.495
 8237TIP3    H124675   6.763   5.514   5.523
 8237TIP3    H224676   6.897   5.584   5.515
 8238TIP3   OH224677   4.201   1.441   5.470
 8238TIP3    H124678   4.216   1.526   5.429
 8238TIP3    H224679   4.284   1.394   5.460
 8239TIP3   OH224680   3.558   5.948   3.495
 8239TIP3    H124681   3.641   5.961   3.540
 8239TIP3    H224682   3.580   5.894   3.420
 8240TIP3   OH224683   3.751   0.875   4.378
 8240TIP3    H124684   3.674   0.897   4.325
 8240TIP3    H224685   3.714   0.839   4.459
 8241TIP3   OH224686   2.377   4.928   1.616
 8241TIP3    H124687   2.317   4.855   1.630
 8241TIP3    H224688   2.353   4.992   1.683
 8242TIP3   OH224689   5.014   1.315   0.796
 8242TIP3    H124690   4.921   1.308   0.773
 8242TIP3    H224691   5.035   1.407   0.779
 8243TIP3   OH224692   4.172   3.740   2.892
 8243TIP3    H124693   4.221   3.780   2.821
 8243TIP3    H224694   4.158   3.811   2.955
 8244TIP3   OH224695   4.586   5.584   3.329
 8244TIP3    H124696   4.637   5.504   3.332
 8244TIP3    H224697   4.614   5.634   3.405
 8245TIP3   OH224698   6.236   3.690   1.170
 8245TIP3    H124699   6.219   3.714   1.079
 8245TIP3    H224700   6.275   3.768   1.209
 8246TIP3   OH224701   2.131   6.159   0.146
 8246TIP3    H124702   2.069   6.213   0.194
 8246TIP3    H224703   2.200   6.220   0.119
 8247TIP3   OH224704   0.112   3.813   4.165
 8247TIP3    H124705   0.018   3.804   4.149
 8247TIP3    H224706   0.133   3.740   4.224
 8248TIP3   OH224707   2.152   5.175   2.671
 8248TIP3    H124708   2.070   5.206   2.710
 8248TIP3    H224709   2.186   5.251   2.623
 8249TIP3   OH224710   5.809   1.312   1.355
 8249TIP3    H124711   5.780   1.397   1.390
 8249TIP3    H224712   5.879   1.335   1.294
 8250TIP3   OH224713   3.362   3.530   1.296
 8250TIP3    H124714   3.372   3.437   1.278
 8250TIP3    H224715   3.449   3.558   1.325
 8251TIP3   OH224716   0.841   4.485   2.490
 8251TIP3    H124717   0.884   4.541   2.555
 8251TIP3    H224718   0.770   4.540   2.455
 8252TIP3   OH224719   5.122   1.719   1.342
 8252TIP3    H124720   5.133   1.645   1.401
 8252TIP3    H224721   5.042   1.699   1.292
 8253TIP3   OH224722   0.196   5.294   1.288
 8253TIP3    H124723   0.287   5.321   1.293
 8253TIP3    H224724   0.161   5.339   1.211
 8254TIP3   OH224725   3.368   4.901   1.327
 8254TIP3    H124726   3.443   4.927   1.380
 8254TIP3    H224727   3.324   4.833   1.379
 8255TIP3   OH224728   4.044   0.389   2.809
 8255TIP3    H124729   4.064   0.452   2.878
 8255TIP3    H224730   4.032   0.306   2.854
 8256TIP3   OH224731   4.338   3.414   1.518
 8256TIP3    H124732   4.371   3.489   1.569
 8256TIP3    H224733   4.243   3.418   1.528
 8257TIP3   OH224734   4.353   5.664   0.089
 8257TIP3    H124735   4.327   5.756   0.082
 8257TIP3    H224736   4.277   5.615   0.061
 8258TIP3   OH224737   4.276   5.039   0.222
 8258TIP3    H124738   4.370   5.042   0.207
 8258TIP3    H224739   4.244   5.125   0.193
 8259TIP3   OH224740   6.057   0.360   2.882
 8259TIP3    H124741   6.081   0.336   2.972
 8259TIP3    H224742   6.136   0.346   2.831
 8260TIP3   OH224743   3.313   0.932   1.317
 8260TIP3    H124744   3.289   1.024   1.306
 8260TIP3    H224745   3.344   0.905   1.231
 8261TIP3   OH224746   4.421   1.042   3.341
 8261TIP3    H124747   4.351   1.021   3.280
 8261TIP3    H224748   4.404   0.988   3.418
 8262TIP3   OH224749   0.952   1.247   3.819
 8262TIP3    H124750   0.918   1.158   3.814
 8262TIP3    H224751   0.875   1.303   3.807
 8263TIP3   OH224752   4.367   2.830   4.915
 8263TIP3    H124753   4.280   2.832   4.956
 8263TIP3    H224754   4.386   2.921   4.893
 8264TIP3   OH224755   4.680   3.661   5.215
 8264TIP3    H124756   4.609   3.724   5.209
 8264TIP3    H224757   4.639   3.577   5.192
 8265TIP3   OH224758   4.846   2.133   1.687
 8265TIP3    H124759   4.882   2.054   1.728
 8265TIP3    H224760   4.818   2.187   1.760
 8266TIP3   OH224761   3.776   6.085   1.146
 8266TIP3    H124762   3.699   6.050   1.191
 8266TIP3    H224763   3.786   6.031   1.068
 8267TIP3   OH224764   6.730   3.779   1.618
 8267TIP3    H124765   6.743   3.794   1.524
 8267TIP3    H224766   6.762   3.690   1.633
 8268TIP3   OH224767   0.794   3.673   1.827
 8268TIP3    H124768   0.863   3.635   1.881
 8268TIP3    H224769   0.810   3.638   1.739
 8269TIP3   OH224770   2.230   2.664   4.277
 8269TIP3    H124771   2.321   2.693   4.280
 8269TIP3    H224772   2.234   2.573   4.247
 8270TIP3   OH224773   3.360   1.117   1.883
 8270TIP3    H124774   3.367   1.039   1.829
 8270TIP3    H224775   3.292   1.169   1.840
 8271TIP3   OH224776   0.624   2.645   1.387
 8271TIP3    H124777   0.582   2.692   1.459
 8271TIP3    H224778   0.672   2.712   1.339
 8272TIP3   OH224779   3.703   0.200   5.499
 8272TIP3    H124780   3.625   0.235   5.541
 8272TIP3    H224781   3.670   0.149   5.425
 8273TIP3   OH224782   6.263   4.920   3.962
 8273TIP3    H124783   6.301   4.968   4.036
 8273TIP3    H224784   6.169   4.933   3.970
 8274TIP3   OH224785   5.092   2.245   5.850
 8274TIP3    H124786   5.089   2.305   5.776
 8274TIP3    H224787   5.019   2.271   5.906
 8275TIP3   OH224788   0.879   4.613   2.089
 8275TIP3    H124789   0.922   4.675   2.031
 8275TIP3    H224790   0.860   4.663   2.168
 8276TIP3   OH224791   5.728   1.997   0.786
 8276TIP3    H124792   5.704   1.998   0.879
 8276TIP3    H224793   5.668   2.060   0.745
 8277TIP3   OH224794   7.016   5.123   0.955
 8277TIP3    H124795   6.921   5.137   0.956
 8277TIP3    H224796   7.047   5.179   0.883
 8278TIP3   OH224797   1.226   6.504   3.757
 8278TIP3    H124798   1.307   6.555   3.757
 8278TIP3    H224799   1.232   6.450   3.835
 8279TIP3   OH224800   0.798   4.698   3.027
 8279TIP3    H124801   0.786   4.655   3.112
 8279TIP3    H224802   0.824   4.627   2.968
 8280TIP3   OH224803   6.259   3.534   5.334
 8280TIP3    H124804   6.294   3.622   5.324
 8280TIP3    H224805   6.334   3.476   5.322
 8281TIP3   OH224806   6.711   1.506   2.092
 8281TIP3    H124807   6.791   1.458   2.071
 8281TIP3    H224808   6.652   1.488   2.019
 8282TIP3   OH224809   4.138   3.208   1.783
 8282TIP3    H124810   4.122   3.293   1.742
 8282TIP3    H224811   4.075   3.149   1.741
 8283TIP3   OH224812   2.137   1.311   5.111
 8283TIP3    H124813   2.142   1.312   5.206
 8283TIP3    H224814   2.195   1.239   5.085
 8284TIP3   OH224815   3.803   6.636   3.193
 8284TIP3    H124816   3.786   6.620   3.100
 8284TIP3    H224817   3.889   6.596   3.209
 8285TIP3   OH224818   5.053   5.678   1.269
 8285TIP3    H124819   4.988   5.704   1.202
 8285TIP3    H224820   5.065   5.585   1.255
 8286TIP3   OH224821   6.937   2.643   5.433
 8286TIP3    H124822   7.007   2.707   5.439
 8286TIP3    H224823   6.975   2.562   5.467
 8287TIP3   OH224824   1.168   0.259   3.718
 8287TIP3    H124825   1.201   0.344   3.746
 8287TIP3    H224826   1.170   0.205   3.797
 8288TIP3   OH224827   4.462   5.128   3.649
 8288TIP3    H124828   4.544   5.102   3.691
 8288TIP3    H224829   4.469   5.223   3.639
 8289TIP3   OH224830   0.716   1.522   2.424
 8289TIP3    H124831   0.664   1.576   2.483
 8289TIP3    H224832   0.807   1.546   2.443
 8290TIP3   OH224833   3.488   6.758   2.953
 8290TIP3    H124834   3.475   6.834   2.896
 8290TIP3    H224835   3.400   6.737   2.986
 8291TIP3   OH224836   6.461   4.106   4.403
 8291TIP3    H124837   6.505   4.105   4.318
 8291TIP3    H224838   6.456   4.014   4.429
 8292TIP3   OH224839   1.790   5.663   2.074
 8292TIP3    H124840   1.745   5.591   2.119
 8292TIP3    H224841   1.807   5.629   1.986
 8293TIP3   OH224842   4.409   3.450   0.362
 8293TIP3    H124843   4.410   3.382   0.429
 8293TIP3    H224844   4.332   3.504   0.382
 8294TIP3   OH224845   0.935   4.685   4.973
 8294TIP3    H124846   0.850   4.684   4.929
 8294TIP3    H224847   0.988   4.621   4.926
 8295TIP3   OH224848   4.149   1.147   3.987
 8295TIP3    H124849   4.181   1.177   4.072
 8295TIP3    H224850   4.204   1.072   3.966
 8296TIP3   OH224851   4.609   4.561   3.095
 8296TIP3    H124852   4.610   4.472   3.132
 8296TIP3    H224853   4.627   4.548   3.002
 8297TIP3   OH224854   1.324   2.965   2.865
 8297TIP3    H124855   1.256   2.977   2.931
 8297TIP3    H224856   1.357   2.876   2.880
 8298TIP3   OH224857   5.037   6.074   3.167
 8298TIP3    H124858   5.024   6.051   3.075
 8298TIP3    H224859   5.011   6.166   3.174
 8299TIP3   OH224860   2.860   2.530   0.876
 8299TIP3    H124861   2.798   2.563   0.812
 8299TIP3    H224862   2.946   2.541   0.835
 8300TIP3   OH224863   5.756   2.418   4.364
 8300TIP3    H124864   5.689   2.406   4.431
 8300TIP3    H224865   5.797   2.332   4.355
 8301TIP3   OH224866   1.299   6.176   5.224
 8301TIP3    H124867   1.394   6.182   5.229
 8301TIP3    H224868   1.268   6.217   5.304
 8302TIP3   OH224869   1.330   6.093   0.728
 8302TIP3    H124870   1.421   6.077   0.706
 8302TIP3    H224871   1.283   6.087   0.645
 8303TIP3   OH224872   6.965   3.034   0.676
 8303TIP3    H124873   6.920   3.009   0.595
 8303TIP3    H224874   7.058   3.020   0.658
 8304TIP3   OH224875   7.082   0.381   1.918
 8304TIP3    H124876   7.147   0.450   1.931
 8304TIP3    H224877   7.015   0.421   1.862
 8305TIP3   OH224878   5.055   2.611   4.982
 8305TIP3    H124879   5.078   2.631   4.892
 8305TIP3    H224880   5.034   2.697   5.020
 8306TIP3   OH224881   1.993   5.025   1.851
 8306TIP3    H124882   2.036   4.971   1.918
 8306TIP3    H224883   2.043   5.107   1.850
 8307TIP3   OH224884   5.482   1.832   2.842
 8307TIP3    H124885   5.439   1.792   2.767
 8307TIP3    H224886   5.450   1.922   2.844
 8308TIP3   OH224887   2.511   6.051   4.225
 8308TIP3    H124888   2.513   5.987   4.154
 8308TIP3    H224889   2.602   6.056   4.255
 8309TIP3   OH224890   5.153   3.336   0.809
 8309TIP3    H124891   5.095   3.411   0.826
 8309TIP3    H224892   5.120   3.297   0.729
 8310TIP3   OH224893   1.401   4.051   0.604
 8310TIP3    H124894   1.482   4.007   0.631
 8310TIP3    H224895   1.384   4.018   0.516
 8311TIP3   OH224896   5.628   6.090   3.778
 8311TIP3    H124897   5.659   6.069   3.690
 8311TIP3    H224898   5.633   6.186   3.783
 8312TIP3   OH224899   5.683   5.906   2.499
 8312TIP3    H124900   5.670   5.999   2.485
 8312TIP3    H224901   5.738   5.900   2.577
 8313TIP3   OH224902   1.810   0.044   5.025
 8313TIP3    H124903   1.725   0.020   5.063
 8313TIP3    H224904   1.833   0.126   5.068
 8314TIP3   OH224905   6.706   2.414   2.411
 8314TIP3    H124906   6.731   2.368   2.491
 8314TIP3    H224907   6.739   2.503   2.422
 8315TIP3   OH224908   2.647   4.105   3.280
 8315TIP3    H124909   2.650   4.201   3.271
 8315TIP3    H224910   2.722   4.074   3.229
 8316TIP3   OH224911   4.231   4.475   5.051
 8316TIP3    H124912   4.326   4.461   5.059
 8316TIP3    H224913   4.192   4.405   5.102
 8317TIP3   OH224914   2.820   6.458   4.779
 8317TIP3    H124915   2.893   6.398   4.794
 8317TIP3    H224916   2.816   6.466   4.683
 8318TIP3   OH224917   1.847   3.280   5.800
 8318TIP3    H124918   1.879   3.241   5.718
 8318TIP3    H224919   1.903   3.241   5.868
 8319TIP3   OH224920   6.106   1.869   1.880
 8319TIP3    H124921   6.174   1.804   1.865
 8319TIP3    H224922   6.052   1.832   1.950
 8320TIP3   OH224923   2.593   0.376   3.466
 8320TIP3    H124924   2.566   0.454   3.513
 8320TIP3    H224925   2.680   0.356   3.500
 8321TIP3   OH224926   1.692   3.356   3.561
 8321TIP3    H124927   1.597   3.345   3.558
 8321TIP3    H224928   1.706   3.447   3.533
 8322TIP3   OH224929   0.381   5.397   1.910
 8322TIP3    H124930   0.410   5.399   2.001
 8322TIP3    H224931   0.368   5.305   1.891
 8323TIP3   OH224932   0.579   2.367   0.818
 8323TIP3    H124933   0.644   2.412   0.873
 8323TIP3    H224934   0.532   2.438   0.775
 8324TIP3   OH224935   3.459   6.122   4.925
 8324TIP3    H124936   3.458   6.215   4.946
 8324TIP3    H224937   3.542   6.109   4.878
 8325TIP3   OH224938   4.079   5.878   0.247
 8325TIP3    H124939   4.050   5.793   0.280
 8325TIP3    H224940   4.004   5.911   0.196
 8326TIP3   OH224941   3.906   5.845   1.735
 8326TIP3    H124942   3.842   5.777   1.757
 8326TIP3    H224943   3.862   5.927   1.757
 8327TIP3   OH224944   5.004   3.555   0.739
 8327TIP3    H124945   4.976   3.640   0.705
 8327TIP3    H224946   5.022   3.503   0.661
 8328TIP3   OH224947   1.445   2.287   4.146
 8328TIP3    H124948   1.435   2.363   4.088
 8328TIP3    H224949   1.527   2.302   4.193
 8329TIP3   OH224950   3.558   3.825   4.854
 8329TIP3    H124951   3.650   3.849   4.841
 8329TIP3    H224952   3.512   3.909   4.858
 8330TIP3   OH224953   1.578   6.539   2.355
 8330TIP3    H124954   1.521   6.566   2.428
 8330TIP3    H224955   1.653   6.498   2.398
 8331TIP3   OH224956   0.231   4.870   1.545
 8331TIP3    H124957   0.189   4.791   1.509
 8331TIP3    H224958   0.166   4.939   1.533
 8332TIP3   OH224959   4.619   5.412   3.068
 8332TIP3    H124960   4.704   5.388   3.105
 8332TIP3    H224961   4.606   5.351   2.996
 8333TIP3   OH224962   5.917   0.887   2.979
 8333TIP3    H124963   5.919   0.929   2.893
 8333TIP3    H224964   5.882   0.800   2.963
 8334TIP3   OH224965   4.957   4.414   1.304
 8334TIP3    H124966   4.970   4.508   1.313
 8334TIP3    H224967   4.982   4.395   1.214
 8335TIP3   OH224968   6.484   0.427   5.228
 8335TIP3    H124969   6.512   0.337   5.245
 8335TIP3    H224970   6.558   0.481   5.256
 8336TIP3   OH224971   6.810   4.406   0.571
 8336TIP3    H124972   6.870   4.332   0.561
 8336TIP3    H224973   6.815   4.428   0.664
 8337TIP3   OH224974   1.558   3.862   1.792
 8337TIP3    H124975   1.489   3.879   1.857
 8337TIP3    H224976   1.520   3.889   1.709
 8338TIP3   OH224977   4.680   6.004   4.652
 8338TIP3    H124978   4.639   6.037   4.732
 8338TIP3    H224979   4.663   5.910   4.653
 8339TIP3   OH224980   4.422   6.010   5.103
 8339TIP3    H124981   4.337   6.032   5.140
 8339TIP3    H224982   4.441   5.923   5.136
 8340TIP3   OH224983   6.652   1.079   4.197
 8340TIP3    H124984   6.704   1.013   4.242
 8340TIP3    H224985   6.594   1.029   4.139
 8341TIP3   OH224986   3.304   5.911   4.197
 8341TIP3    H124987   3.378   5.954   4.155
 8341TIP3    H224988   3.299   5.949   4.284
 8342TIP3   OH224989   1.121   1.057   0.520
 8342TIP3    H124990   1.132   1.063   0.425
 8342TIP3    H224991   1.192   0.999   0.550
 8343TIP3   OH224992   2.874   4.469   1.912
 8343TIP3    H124993   2.926   4.454   1.991
 8343TIP3    H224994   2.906   4.405   1.850
 8344TIP3   OH224995   5.864   4.184   0.106
 8344TIP3    H124996   5.789   4.200   0.048
 8344TIP3    H224997   5.940   4.206   0.053
 8345TIP3   OH224998   0.235   1.143   1.672
 8345TIP3    H124999   0.141   1.136   1.691
 8345TIP3    H225000   0.259   1.055   1.641
 8346TIP3   OH225001   0.337   0.877   2.426
 8346TIP3    H125002   0.315   0.832   2.345
 8346TIP3    H225003   0.406   0.822   2.466
 8347TIP3   OH225004   2.256   4.660   1.582
 8347TIP3    H125005   2.308   4.582   1.563
 8347TIP3    H225006   2.207   4.638   1.662
 8348TIP3   OH225007   0.640   6.603   5.301
 8348TIP3    H125008   0.617   6.525   5.350
 8348TIP3    H225009   0.715   6.640   5.349
 8349TIP3   OH225010   1.239   0.806   4.280
 8349TIP3    H125011   1.174   0.843   4.339
 8349TIP3    H225012   1.310   0.870   4.278
 8350TIP3   OH225013   5.874   6.140   2.833
 8350TIP3    H125014   5.850   6.052   2.804
 8350TIP3    H225015   5.970   6.140   2.834
 8351TIP3   OH225016   3.858   3.601   3.642
 8351TIP3    H125017   3.875   3.639   3.728
 8351TIP3    H225018   3.817   3.517   3.661
 8352TIP3   OH225019   6.301   4.896   4.904
 8352TIP3    H125020   6.207   4.896   4.887
 8352TIP3    H225021   6.341   4.896   4.817
 8353TIP3   OH225022   5.922   4.518   4.183
 8353TIP3    H125023   5.926   4.423   4.168
 8353TIP3    H225024   5.859   4.550   4.118
 8354TIP3   OH225025   1.995   0.697   4.191
 8354TIP3    H125026   2.067   0.635   4.199
 8354TIP3    H225027   1.917   0.642   4.181
 8355TIP3   OH225028   5.891   5.602   1.313
 8355TIP3    H125029   5.916   5.668   1.377
 8355TIP3    H225030   5.943   5.622   1.235
 8356TIP3   OH225031   6.862   4.676   4.503
 8356TIP3    H125032   6.842   4.715   4.418
 8356TIP3    H225033   6.790   4.614   4.518
 8357TIP3   OH225034   4.223   3.048   0.796
 8357TIP3    H125035   4.147   3.002   0.759
 8357TIP3    H225036   4.264   2.984   0.854
 8358TIP3   OH225037   3.480   1.942   3.852
 8358TIP3    H125038   3.393   1.959   3.888
 8358TIP3    H225039   3.489   1.847   3.857
 8359TIP3   OH225040   1.991   6.346   2.197
 8359TIP3    H125041   1.947   6.430   2.209
 8359TIP3    H225042   2.066   6.366   2.141
 8360TIP3   OH225043   5.906   4.995   3.465
 8360TIP3    H125044   5.897   5.038   3.380
 8360TIP3    H225045   5.876   5.061   3.528
 8361TIP3   OH225046   1.683   4.695   0.015
 8361TIP3    H125047   1.669   4.750   0.092
 8361TIP3    H225048   1.739   4.748  -0.042
 8362TIP3   OH225049   6.384   4.723   4.423
 8362TIP3    H125050   6.309   4.691   4.372
 8362TIP3    H225051   6.459   4.676   4.387
 8363TIP3   OH225052   6.872   5.217   5.254
 8363TIP3    H125053   6.899   5.238   5.343
 8363TIP3    H225054   6.838   5.128   5.260
 8364TIP3   OH225055   1.177   4.454   3.496
 8364TIP3    H125056   1.216   4.367   3.487
 8364TIP3    H225057   1.181   4.473   3.589
 8365TIP3   OH225058   0.737   6.545   3.930
 8365TIP3    H125059   0.651   6.586   3.933
 8365TIP3    H225060   0.798   6.616   3.949
 8366TIP3   OH225061   3.948   0.460   1.991
 8366TIP3    H125062   3.909   0.533   2.039
 8366TIP3    H225063   3.885   0.389   2.002
 8367TIP3   OH225064   6.249   6.420   1.719
 8367TIP3    H125065   6.155   6.403   1.706
 8367TIP3    H225066   6.252   6.474   1.798
 8368TIP3   OH225067   0.698   6.698   2.874
 8368TIP3    H125068   0.630   6.632   2.884
 8368TIP3    H225069   0.777   6.656   2.908
 8369TIP3   OH225070   3.159   6.488   1.406
 8369TIP3    H125071   3.203   6.529   1.480
 8369TIP3    H225072   3.177   6.545   1.332
 8370TIP3   OH225073   1.219   5.072   4.427
 8370TIP3    H125074   1.296   5.128   4.422
 8370TIP3    H225075   1.203   5.061   4.520
 8371TIP3   OH225076   2.248   5.681   4.587
 8371TIP3    H125077   2.226   5.641   4.504
 8371TIP3    H225078   2.243   5.610   4.651
 8372TIP3   OH225079   2.193   3.329   4.706
 8372TIP3    H125080   2.139   3.392   4.658
 8372TIP3    H225081   2.261   3.303   4.645
 8373TIP3   OH225082   2.057   5.474   3.642
 8373TIP3    H125083   2.011   5.501   3.562
 8373TIP3    H225084   2.106   5.552   3.668
 8374TIP3   OH225085   2.513   3.292   1.000
 8374TIP3    H125086   2.460   3.267   1.076
 8374TIP3    H225087   2.564   3.213   0.979
 8375TIP3   OH225088   6.065   2.505   5.387
 8375TIP3    H125089   6.009   2.457   5.448
 8375TIP3    H225090   6.145   2.453   5.381
 8376TIP3   OH225091   7.169   0.307   2.248
 8376TIP3    H125092   7.258   0.291   2.217
 8376TIP3    H225093   7.115   0.247   2.197
 8377TIP3   OH225094   5.792   1.570   3.532
 8377TIP3    H125095   5.792   1.646   3.590
 8377TIP3    H225096   5.847   1.505   3.576
 8378TIP3   OH225097   4.025   6.269   2.377
 8378TIP3    H125098   3.988   6.238   2.294
 8378TIP3    H225099   3.971   6.228   2.445
 8379TIP3   OH225100   5.425   1.969   0.665
 8379TIP3    H125101   5.365   2.034   0.629
 8379TIP3    H225102   5.481   2.017   0.726
 8380TIP3   OH225103   5.002   1.282   4.827
 8380TIP3    H125104   4.952   1.203   4.809
 8380TIP3    H225105   4.997   1.292   4.922
 8381TIP3   OH225106   2.992   0.525   2.572
 8381TIP3    H125107   2.932   0.583   2.619
 8381TIP3    H225108   3.078   0.565   2.584
 8382TIP3   OH225109   4.666   6.287   5.135
 8382TIP3    H125110   4.726   6.220   5.167
 8382TIP3    H225111   4.624   6.321   5.215
 8383TIP3   OH225112   2.683   6.259   0.198
 8383TIP3    H125113   2.615   6.254   0.132
 8383TIP3    H225114   2.741   6.329   0.168
 8384TIP3   OH225115   1.719   3.574   0.475
 8384TIP3    H125116   1.796   3.588   0.529
 8384TIP3    H225117   1.717   3.649   0.416
 8385TIP3   OH225118   4.010   2.451   0.192
 8385TIP3    H125119   4.062   2.470   0.270
 8385TIP3    H225120   3.932   2.505   0.202
 8386TIP3   OH225121   4.298   4.363   2.384
 8386TIP3    H125122   4.235   4.310   2.336
 8386TIP3    H225123   4.281   4.453   2.355
 8387TIP3   OH225124   3.045   3.029   4.955
 8387TIP3    H125125   3.113   2.997   4.896
 8387TIP3    H225126   2.963   3.008   4.910
 8388TIP3   OH225127   5.805   0.233   5.365
 8388TIP3    H125128   5.727   0.221   5.311
 8388TIP3    H225129   5.874   0.184   5.320
 8389TIP3   OH225130   0.211   0.889   1.557
 8389TIP3    H125131   0.199   0.826   1.486
 8389TIP3    H225132   0.128   0.889   1.604
 8390TIP3   OH225133   0.837   2.623   0.373
 8390TIP3    H125134   0.808   2.632   0.282
 8390TIP3    H225135   0.814   2.706   0.414
 8391TIP3   OH225136   0.726   0.114   4.365
 8391TIP3    H125137   0.732   0.018   4.362
 8391TIP3    H225138   0.676   0.137   4.287
 8392TIP3   OH225139   0.628   4.644   5.171
 8392TIP3    H125140   0.574   4.665   5.247
 8392TIP3    H225141   0.651   4.552   5.183
 8393TIP3   OH225142   2.519   4.048   5.838
 8393TIP3    H125143   2.476   4.127   5.871
 8393TIP3    H225144   2.584   4.026   5.905
 8394TIP3   OH225145   4.199   6.165   1.050
 8394TIP3    H125146   4.169   6.112   0.976
 8394TIP3    H225147   4.197   6.255   1.017
 8395TIP3   OH225148   2.322   0.892   4.198
 8395TIP3    H125149   2.241   0.929   4.233
 8395TIP3    H225150   2.323   0.920   4.107
 8396TIP3   OH225151   2.764   0.445   3.091
 8396TIP3    H125152   2.710   0.411   3.020
 8396TIP3    H225153   2.850   0.405   3.078
 8397TIP3   OH225154   6.639   3.120   2.895
 8397TIP3    H125155   6.669   3.099   2.806
 8397TIP3    H225156   6.700   3.187   2.925
 8398TIP3   OH225157   3.219   2.259   5.191
 8398TIP3    H125158   3.212   2.185   5.252
 8398TIP3    H225159   3.161   2.237   5.119
 8399TIP3   OH225160   3.203   2.028   5.870
 8399TIP3    H125161   3.181   1.986   5.787
 8399TIP3    H225162   3.128   2.084   5.890
 8400TIP3   OH225163   2.783   1.101   1.289
 8400TIP3    H125164   2.756   1.161   1.219
 8400TIP3    H225165   2.823   1.027   1.243
 8401TIP3   OH225166   0.303   3.516   1.718
 8401TIP3    H125167   0.397   3.522   1.734
 8401TIP3    H225168   0.265   3.583   1.774
 8402TIP3   OH225169   3.912   4.945   1.653
 8402TIP3    H125170   3.965   4.882   1.702
 8402TIP3    H225171   3.894   4.902   1.570
 8403TIP3   OH225172   0.498   6.807   5.496
 8403TIP3    H125173   0.527   6.735   5.439
 8403TIP3    H225174   0.491   6.768   5.583
 8404TIP3   OH225175   0.763   0.084   0.453
 8404TIP3    H125176   0.679   0.123   0.430
 8404TIP3    H225177   0.828   0.138   0.407
 8405TIP3   OH225178   0.864   2.777   0.961
 8405TIP3    H125179   0.888   2.849   0.902
 8405TIP3    H225180   0.921   2.705   0.935
 8406TIP3   OH225181   3.236   0.575   3.236
 8406TIP3    H125182   3.155   0.573   3.185
 8406TIP3    H225183   3.272   0.662   3.220
 8407TIP3   OH225184   5.450   5.023   0.981
 8407TIP3    H125185   5.504   4.947   0.961
 8407TIP3    H225186   5.367   4.987   1.012
 8408TIP3   OH225187   5.792   1.895   2.712
 8408TIP3    H125188   5.764   1.859   2.796
 8408TIP3    H225189   5.809   1.988   2.730
 8409TIP3   OH225190   0.321   4.170   2.631
 8409TIP3    H125191   0.415   4.161   2.615
 8409TIP3    H225192   0.286   4.081   2.623
 8410TIP3   OH225193   1.400   3.290   3.588
 8410TIP3    H125194   1.398   3.311   3.681
 8410TIP3    H225195   1.339   3.352   3.547
 8411TIP3   OH225196   0.574   2.497   1.848
 8411TIP3    H125197   0.600   2.578   1.804
 8411TIP3    H225198   0.488   2.515   1.885
 8412TIP3   OH225199   0.509   1.214   1.044
 8412TIP3    H125200   0.434   1.275   1.042
 8412TIP3    H225201   0.565   1.244   0.972
 8413TIP3   OH225202   3.025   4.120   1.966
 8413TIP3    H125203   3.065   4.053   2.022
 8413TIP3    H225204   3.078   4.119   1.886
 8414TIP3   OH225205   0.937   4.417   0.009
 8414TIP3    H125206   0.883   4.402   0.087
 8414TIP3    H225207   0.949   4.330  -0.029
 8415TIP3   OH225208   5.918   3.947   0.495
 8415TIP3    H125209   5.921   3.994   0.578
 8415TIP3    H225210   5.947   4.010   0.430
 8416TIP3   OH225211   6.641   3.209   1.110
 8416TIP3    H125212   6.553   3.226   1.074
 8416TIP3    H225213   6.625   3.180   1.200
 8417TIP3   OH225214   0.022   0.669   4.776
 8417TIP3    H125215   0.041   0.620   4.856
 8417TIP3    H225216  -0.040   0.736   4.803
 8418TIP3   OH225217   4.954   0.593   4.036
 8418TIP3    H125218   4.905   0.523   4.080
 8418TIP3    H225219   4.984   0.553   3.954
 8419TIP3   OH225220   0.484   4.825   1.728
 8419TIP3    H125221   0.420   4.858   1.665
 8419TIP3    H225222   0.444   4.745   1.763
 8420TIP3   OH225223   6.729   5.023   0.288
 8420TIP3    H125224   6.799   5.079   0.320
 8420TIP3    H225225   6.657   5.083   0.267
 8421TIP3   OH225226   5.217   0.241   1.440
 8421TIP3    H125227   5.310   0.252   1.420
 8421TIP3    H225228   5.209   0.149   1.464
 8422TIP3   OH225229   4.205   3.565   5.384
 8422TIP3    H125230   4.121   3.608   5.394
 8422TIP3    H225231   4.224   3.529   5.471
 8423TIP3   OH225232   4.908   5.221   1.773
 8423TIP3    H125233   4.887   5.291   1.834
 8423TIP3    H225234   4.945   5.151   1.827
 8424TIP3   OH225235   0.190   5.413   3.351
 8424TIP3    H125236   0.120   5.347   3.347
 8424TIP3    H225237   0.266   5.370   3.313
 8425TIP3   OH225238   4.042   1.931   1.311
 8425TIP3    H125239   4.093   1.853   1.293
 8425TIP3    H225240   4.056   1.987   1.235
 8426TIP3   OH225241   3.424   1.631   4.110
 8426TIP3    H125242   3.368   1.707   4.125
 8426TIP3    H225243   3.446   1.634   4.017
 8427TIP3   OH225244   1.457   0.384   2.840
 8427TIP3    H125245   1.486   0.293   2.843
 8427TIP3    H225246   1.413   0.392   2.756
 8428TIP3   OH225247   5.560   3.974   4.173
 8428TIP3    H125248   5.532   3.903   4.231
 8428TIP3    H225249   5.503   4.048   4.196
 8429TIP3   OH225250   4.088   5.755   4.697
 8429TIP3    H125251   4.180   5.760   4.672
 8429TIP3    H225252   4.076   5.827   4.759
 8430TIP3   OH225253   1.645   4.899   2.375
 8430TIP3    H125254   1.730   4.866   2.405
 8430TIP3    H225255   1.581   4.853   2.429
 8431TIP3   OH225256   2.262   3.168   2.103
 8431TIP3    H125257   2.264   3.078   2.071
 8431TIP3    H225258   2.226   3.219   2.031
 8432TIP3   OH225259   6.414   4.795   1.336
 8432TIP3    H125260   6.322   4.822   1.334
 8432TIP3    H225261   6.463   4.875   1.320
 8433TIP3   OH225262   0.866   5.470   2.176
 8433TIP3    H125263   0.893   5.485   2.086
 8433TIP3    H225264   0.865   5.557   2.217
 8434TIP3   OH225265   3.076   4.772   3.845
 8434TIP3    H125266   3.021   4.838   3.887
 8434TIP3    H225267   3.016   4.724   3.787
 8435TIP3   OH225268   6.607   4.475   1.796
 8435TIP3    H125269   6.543   4.418   1.840
 8435TIP3    H225270   6.568   4.562   1.801
 8436TIP3   OH225271   0.672   5.171   0.956
 8436TIP3    H125272   0.683   5.106   0.885
 8436TIP3    H225273   0.752   5.162   1.008
 8437TIP3   OH225274   4.253   2.044   3.109
 8437TIP3    H125275   4.166   2.014   3.136
 8437TIP3    H225276   4.244   2.138   3.096
 8438TIP3   OH225277   2.486   6.441   5.802
 8438TIP3    H125278   2.482   6.504   5.874
 8438TIP3    H225279   2.493   6.495   5.723
 8439TIP3   OH225280   2.855   4.599   1.379
 8439TIP3    H125281   2.814   4.533   1.435
 8439TIP3    H225282   2.877   4.552   1.298
 8440TIP3   OH225283   1.418  -0.031   5.374
 8440TIP3    H125284   1.361   0.037   5.410
 8440TIP3    H225285   1.435  -0.003   5.284
 8441TIP3   OH225286   5.996   1.051   5.783
 8441TIP3    H125287   5.918   1.097   5.812
 8441TIP3    H225288   6.062   1.120   5.773
 8442TIP3   OH225289   2.757   1.322   4.063
 8442TIP3    H125290   2.703   1.401   4.056
 8442TIP3    H225291   2.793   1.326   4.152
 8443TIP3   OH225292   6.407   0.961   4.041
 8443TIP3    H125293   6.377   0.894   3.979
 8443TIP3    H225294   6.338   0.963   4.108
 8444TIP3   OH225295   5.578   2.246   2.244
 8444TIP3    H125296   5.556   2.194   2.167
 8444TIP3    H225297   5.630   2.319   2.209
 8445TIP3   OH225298   3.085   2.587   3.274
 8445TIP3    H125299   3.120   2.675   3.285
 8445TIP3    H225300   3.139   2.548   3.205
 8446TIP3   OH225301   2.436   4.085   0.866
 8446TIP3    H125302   2.345   4.103   0.846
 8446TIP3    H225303   2.485   4.119   0.791
 8447TIP3   OH225304   6.288   1.217   1.880
 8447TIP3    H125305   6.278   1.286   1.815
 8447TIP3    H225306   6.302   1.138   1.828
 8448TIP3   OH225307   6.744   0.405   5.496
 8448TIP3    H125308   6.706   0.318   5.480
 8448TIP3    H225309   6.726   0.423   5.588
 8449TIP3   OH225310   2.184   3.559   1.000
 8449TIP3    H125311   2.277   3.577   1.008
 8449TIP3    H225312   2.169   3.483   1.055
 8450TIP3   OH225313   1.033   4.984   0.179
 8450TIP3    H125314   1.027   4.954   0.270
 8450TIP3    H225315   1.102   4.929   0.141
 8451TIP3   OH225316   6.218   3.654   0.203
 8451TIP3    H125317   6.220   3.601   0.124
 8451TIP3    H225318   6.195   3.742   0.173
 8452TIP3   OH225319   3.538   2.734   0.564
 8452TIP3    H125320   3.489   2.677   0.622
 8452TIP3    H225321   3.541   2.687   0.481
 8453TIP3   OH225322   4.721   5.739   4.978
 8453TIP3    H125323   4.682   5.727   4.892
 8453TIP3    H225324   4.735   5.650   5.011
 8454TIP3   OH225325   2.526   3.958   1.923
 8454TIP3    H125326   2.479   3.915   1.851
 8454TIP3    H225327   2.605   3.991   1.882
 8455TIP3   OH225328   6.900   4.384   5.225
 8455TIP3    H125329   6.838   4.401   5.154
 8455TIP3    H225330   6.974   4.342   5.183
 8456TIP3   OH225331   2.890   6.703   3.367
 8456TIP3    H125332   2.876   6.795   3.347
 8456TIP3    H225333   2.953   6.673   3.301
 8457TIP3   OH225334   4.380   0.720   5.162
 8457TIP3    H125335   4.352   0.693   5.250
 8457TIP3    H225336   4.348   0.811   5.155
 8458TIP3   OH225337   2.503   1.613   2.044
 8458TIP3    H125338   2.578   1.670   2.060
 8458TIP3    H225339   2.479   1.630   1.952
 8459TIP3   OH225340   3.884   6.000   0.097
 8459TIP3    H125341   3.790   6.020   0.099
 8459TIP3    H225342   3.923   6.073   0.051
 8460TIP3   OH225343   0.338   4.569   1.750
 8460TIP3    H125344   0.254   4.526   1.762
 8460TIP3    H225345   0.355   4.563   1.657
 8461TIP3   OH225346   1.061   1.005   3.980
 8461TIP3    H125347   1.022   0.929   3.936
 8461TIP3    H225348   1.136   1.028   3.926
 8462TIP3   OH225349   4.884   6.754   1.950
 8462TIP3    H125350   4.934   6.772   1.871
 8462TIP3    H225351   4.803   6.805   1.939
 8463TIP3   OH225352   0.385   6.004   5.294
 8463TIP3    H125353   0.410   5.954   5.371
 8463TIP3    H225354   0.400   6.095   5.318
 8464TIP3   OH225355   0.666   6.194   0.634
 8464TIP3    H125356   0.585   6.201   0.584
 8464TIP3    H225357   0.729   6.155   0.573
 8465TIP3   OH225358   5.775   6.053   5.070
 8465TIP3    H125359   5.704   6.040   5.006
 8465TIP3    H225360   5.797   6.146   5.062
 8466TIP3   OH225361   0.076   5.144   1.876
 8466TIP3    H125362  -0.010   5.179   1.897
 8466TIP3    H225363   0.101   5.189   1.795
 8467TIP3   OH225364   6.575   5.236   3.172
 8467TIP3    H125365   6.572   5.180   3.250
 8467TIP3    H225366   6.560   5.176   3.099
 8468TIP3   OH225367   0.910   4.551   3.594
 8468TIP3    H125368   0.979   4.488   3.616
 8468TIP3    H225369   0.891   4.534   3.502
 8469TIP3   OH225370   2.373   1.169   0.096
 8469TIP3    H125371   2.341   1.149   0.184
 8469TIP3    H225372   2.442   1.104   0.080
 8470TIP3   OH225373   4.070   4.504   3.300
 8470TIP3    H125374   4.143   4.564   3.280
 8470TIP3    H225375   4.046   4.525   3.390
 8471TIP3   OH225376   6.208   5.368   1.116
 8471TIP3    H125377   6.181   5.459   1.131
 8471TIP3    H225378   6.175   5.347   1.029
 8472TIP3   OH225379   6.585   2.420   1.164
 8472TIP3    H125380   6.618   2.505   1.135
 8472TIP3    H225381   6.656   2.382   1.215
 8473TIP3   OH225382   5.998   6.273   2.228
 8473TIP3    H125383   6.046   6.348   2.192
 8473TIP3    H225384   6.067   6.211   2.254
 8474TIP3   OH225385   4.426   2.764   4.349
 8474TIP3    H125386   4.424   2.859   4.361
 8474TIP3    H225387   4.439   2.753   4.254
 8475TIP3   OH225388   5.578   3.086   3.970
 8475TIP3    H125389   5.670   3.084   3.993
 8475TIP3    H225390   5.535   3.124   4.047
 8476TIP3   OH225391   0.076   1.343   0.622
 8476TIP3    H125392  -0.005   1.390   0.602
 8476TIP3    H225393   0.105   1.380   0.705
 8477TIP3   OH225394   4.356   1.258   2.034
 8477TIP3    H125395   4.287   1.222   1.978
 8477TIP3    H225396   4.314   1.332   2.078
 8478TIP3   OH225397   1.912   3.294   4.027
 8478TIP3    H125398   1.926   3.206   4.061
 8478TIP3    H225399   1.836   3.327   4.075
 8479TIP3   OH225400   3.534   4.978   5.242
 8479TIP3    H125401   3.445   4.944   5.235
 8479TIP3    H225402   3.550   4.984   5.336
 8480TIP3   OH225403   4.480   2.736   4.076
 8480TIP3    H125404   4.508   2.686   3.999
 8480TIP3    H225405   4.385   2.742   4.067
 8481TIP3   OH225406   5.972   0.413   5.512
 8481TIP3    H125407   6.024   0.411   5.432
 8481TIP3    H225408   5.892   0.367   5.490
 8482TIP3   OH225409   0.760   4.971   0.784
 8482TIP3    H125410   0.730   4.890   0.742
 8482TIP3    H225411   0.844   4.948   0.822
 8483TIP3   OH225412   1.094   3.058   0.060
 8483TIP3    H125413   1.079   3.146   0.095
 8483TIP3    H225414   1.123   3.072  -0.030
 8484TIP3   OH225415   6.173   2.275   3.245
 8484TIP3    H125416   6.086   2.262   3.207
 8484TIP3    H225417   6.211   2.187   3.247
 8485TIP3   OH225418   3.194   1.046   0.346
 8485TIP3    H125419   3.102   1.069   0.355
 8485TIP3    H225420   3.193   0.953   0.324
 8486TIP3   OH225421   2.369   5.524   5.133
 8486TIP3    H125422   2.437   5.548   5.071
 8486TIP3    H225423   2.403   5.447   5.178
 8487TIP3   OH225424   0.150   1.494   1.287
 8487TIP3    H125425   0.110   1.547   1.356
 8487TIP3    H225426   0.218   1.549   1.250
 8488TIP3   OH225427   2.036   1.919   0.079
 8488TIP3    H125428   1.943   1.936   0.088
 8488TIP3    H225429   2.058   1.863   0.153
 8489TIP3   OH225430   0.698   0.028   1.788
 8489TIP3    H125431   0.648  -0.050   1.763
 8489TIP3    H225432   0.667   0.050   1.876
 8490TIP3   OH225433   3.823   1.575   2.221
 8490TIP3    H125434   3.749   1.532   2.263
 8490TIP3    H225435   3.895   1.567   2.284
 8491TIP3   OH225436   5.999   5.037   4.588
 8491TIP3    H125437   5.984   4.986   4.667
 8491TIP3    H225438   6.055   4.981   4.534
 8492TIP3   OH225439   0.604   0.370   3.034
 8492TIP3    H125440   0.518   0.385   3.073
 8492TIP3    H225441   0.630   0.283   3.064
 8493TIP3   OH225442   4.810   3.268   4.441
 8493TIP3    H125443   4.894   3.230   4.464
 8493TIP3    H225444   4.754   3.253   4.517
 8494TIP3   OH225445   4.394   0.696   2.194
 8494TIP3    H125446   4.439   0.614   2.173
 8494TIP3    H225447   4.405   0.750   2.116
 8495TIP3   OH225448   5.948   2.971   2.824
 8495TIP3    H125449   5.959   2.947   2.732
 8495TIP3    H225450   6.037   2.985   2.856
 8496TIP3   OH225451   2.038   5.248   5.366
 8496TIP3    H125452   2.015   5.334   5.401
 8496TIP3    H225453   2.117   5.264   5.314
 8497TIP3   OH225454   6.157   0.196   1.083
 8497TIP3    H125455   6.156   0.221   0.991
 8497TIP3    H225456   6.139   0.277   1.131
 8498TIP3   OH225457   5.546   3.873   3.024
 8498TIP3    H125458   5.505   3.857   3.108
 8498TIP3    H225459   5.473   3.891   2.964
 8499TIP3   OH225460   1.894   5.111   3.042
 8499TIP3    H125461   1.915   5.021   3.065
 8499TIP3    H225462   1.979   5.151   3.022
 8500TIP3   OH225463   0.844   1.089   5.073
 8500TIP3    H125464   0.803   1.167   5.110
 8500TIP3    H225465   0.798   1.073   4.991
 8501TIP3   OH225466   3.320   5.381   3.191
 8501TIP3    H125467   3.239   5.429   3.173
 8501TIP3    H225468   3.389   5.444   3.173
 8502TIP3   OH225469   0.139   1.223   2.603
 8502TIP3    H125470   0.052   1.227   2.563
 8502TIP3    H225471   0.199   1.243   2.531
 8503TIP3   OH225472   3.864   2.811   1.640
 8503TIP3    H125473   3.867   2.784   1.549
 8503TIP3    H225474   3.803   2.749   1.682
 8504TIP3   OH225475   5.682   5.782   1.280
 8504TIP3    H125476   5.738   5.705   1.291
 8504TIP3    H225477   5.605   5.749   1.234
 8505TIP3   OH225478   4.466   0.729   5.650
 8505TIP3    H125479   4.504   0.705   5.566
 8505TIP3    H225480   4.410   0.656   5.674
 8506TIP3   OH225481   3.945   0.338   5.492
 8506TIP3    H125482   3.945   0.397   5.416
 8506TIP3    H225483   3.863   0.289   5.484
 8507TIP3   OH225484   2.828   2.076   1.347
 8507TIP3    H125485   2.840   2.010   1.416
 8507TIP3    H225486   2.886   2.148   1.372
 8508TIP3   OH225487   0.657   4.901   1.164
 8508TIP3    H125488   0.701   4.975   1.121
 8508TIP3    H225489   0.705   4.889   1.246
 8509TIP3   OH225490   2.880   6.048   2.861
 8509TIP3    H125491   2.949   6.081   2.919
 8509TIP3    H225492   2.804   6.037   2.918
 8510TIP3   OH225493   1.254   5.321   4.208
 8510TIP3    H125494   1.167   5.339   4.245
 8510TIP3    H225495   1.298   5.268   4.275
 8511TIP3   OH225496   6.061   1.681   1.341
 8511TIP3    H125497   6.094   1.599   1.378
 8511TIP3    H225498   6.050   1.663   1.248
 8512TIP3   OH225499   5.934   5.797   1.518
 8512TIP3    H125500   5.913   5.887   1.544
 8512TIP3    H225501   5.933   5.748   1.600
 8513TIP3   OH225502   4.160   5.015   2.802
 8513TIP3    H125503   4.085   5.049   2.752
 8513TIP3    H225504   4.133   5.021   2.893
 8514TIP3   OH225505   5.388   2.643   4.242
 8514TIP3    H125506   5.292   2.639   4.241
 8514TIP3    H225507   5.408   2.720   4.294
 8515TIP3   OH225508   5.489   3.236   4.172
 8515TIP3    H125509   5.528   3.279   4.249
 8515TIP3    H225510   5.459   3.309   4.117
 8516TIP3   OH225511   0.925   5.992   4.703
 8516TIP3    H125512   0.840   5.996   4.658
 8516TIP3    H225513   0.989   5.983   4.632
 8517TIP3   OH225514   5.161   5.030   4.973
 8517TIP3    H125515   5.254   5.008   4.970
 8517TIP3    H225516   5.150   5.073   5.059
 8518TIP3   OH225517   0.625   5.894   1.869
 8518TIP3    H125518   0.678   5.822   1.836
 8518TIP3    H225519   0.689   5.962   1.891
 8519TIP3   OH225520   5.344   5.603   4.273
 8519TIP3    H125521   5.396   5.561   4.205
 8519TIP3    H225522   5.256   5.565   4.264
 8520TIP3   OH225523   6.036   4.742   1.571
 8520TIP3    H125524   6.123   4.703   1.575
 8520TIP3    H225525   5.978   4.669   1.552
 8521TIP3   OH225526   2.392   2.562   4.950
 8521TIP3    H125527   2.475   2.520   4.970
 8521TIP3    H225528   2.415   2.639   4.899
 8522TIP3   OH225529   4.021   6.017   3.518
 8522TIP3    H125530   3.988   6.096   3.561
 8522TIP3    H225531   4.022   5.950   3.587
 8523TIP3   OH225532   5.963   2.675   0.317
 8523TIP3    H125533   5.925   2.591   0.290
 8523TIP3    H225534   5.915   2.740   0.266
 8524TIP3   OH225535   3.962   4.256   3.234
 8524TIP3    H125536   4.015   4.335   3.245
 8524TIP3    H225537   3.927   4.238   3.321
 8525TIP3   OH225538   4.956   2.972   3.781
 8525TIP3    H125539   4.965   2.879   3.801
 8525TIP3    H225540   4.995   3.016   3.856
 8526TIP3   OH225541   3.153   4.426   1.253
 8526TIP3    H125542   3.216   4.444   1.183
 8526TIP3    H225543   3.068   4.429   1.209
 8527TIP3   OH225544   1.805   0.899   3.461
 8527TIP3    H125545   1.762   0.814   3.473
 8527TIP3    H225546   1.868   0.904   3.532
 8528TIP3   OH225547   1.123   3.802   1.956
 8528TIP3    H125548   1.126   3.708   1.974
 8528TIP3    H225549   1.112   3.808   1.861
 8529TIP3   OH225550   1.151   6.316   0.351
 8529TIP3    H125551   1.207   6.329   0.427
 8529TIP3    H225552   1.203   6.263   0.291
 8530TIP3   OH225553   6.340   0.224   4.414
 8530TIP3    H125554   6.399   0.193   4.483
 8530TIP3    H225555   6.263   0.255   4.461
 8531TIP3   OH225556   4.995   6.298   1.461
 8531TIP3    H125557   5.042   6.261   1.386
 8531TIP3    H225558   4.928   6.233   1.482
 8532TIP3   OH225559   2.540   3.978   5.515
 8532TIP3    H125560   2.527   3.895   5.561
 8532TIP3    H225561   2.601   4.027   5.570
 8533TIP3   OH225562   3.773   1.859   1.311
 8533TIP3    H125563   3.851   1.910   1.287
 8533TIP3    H225564   3.801   1.808   1.388
 8534TIP3   OH225565   7.090   5.768   2.528
 8534TIP3    H125566   6.997   5.787   2.540
 8534TIP3    H225567   7.124   5.753   2.616
 8535TIP3   OH225568   6.002   4.252   2.602
 8535TIP3    H125569   6.087   4.263   2.645
 8535TIP3    H225570   5.990   4.157   2.596
 8536TIP3   OH225571   4.438   4.696   3.838
 8536TIP3    H125572   4.435   4.601   3.826
 8536TIP3    H225573   4.513   4.723   3.784
 8537TIP3   OH225574   6.320   3.963   2.038
 8537TIP3    H125575   6.403   3.919   2.052
 8537TIP3    H225576   6.282   3.921   1.961
 8538TIP3   OH225577   5.353   2.850   0.977
 8538TIP3    H125578   5.379   2.806   0.896
 8538TIP3    H225579   5.261   2.871   0.965
 8539TIP3   OH225580   6.207   4.049   1.590
 8539TIP3    H125581   6.294   4.026   1.556
 8539TIP3    H225582   6.225   4.110   1.662
 8540TIP3   OH225583   6.386   2.907   0.328
 8540TIP3    H125584   6.449   2.980   0.323
 8540TIP3    H225585   6.438   2.833   0.360
 8541TIP3   OH225586   3.441   6.356   1.720
 8541TIP3    H125587   3.352   6.331   1.695
 8541TIP3    H225588   3.469   6.287   1.780
 8542TIP3   OH225589   3.746   6.598   2.912
 8542TIP3    H125590   3.705   6.684   2.908
 8542TIP3    H225591   3.675   6.537   2.933
 8543TIP3   OH225592   4.585   0.054   0.291
 8543TIP3    H125593   4.538  -0.028   0.275
 8543TIP3    H225594   4.562   0.110   0.217
 8544TIP3   OH225595   5.067   3.819   5.625
 8544TIP3    H125596   5.118   3.757   5.573
 8544TIP3    H225597   5.087   3.904   5.586
 8545TIP3   OH225598   1.404   1.655   5.173
 8545TIP3    H125599   1.422   1.719   5.104
 8545TIP3    H225600   1.410   1.571   5.129
 8546TIP3   OH225601   4.781   5.306   0.434
 8546TIP3    H125602   4.699   5.356   0.430
 8546TIP3    H225603   4.770   5.235   0.371
 8547TIP3   OH225604   4.837   3.645   0.483
 8547TIP3    H125605   4.898   3.708   0.521
 8547TIP3    H225606   4.844   3.660   0.389
 8548TIP3   OH225607   6.806   1.560   2.614
 8548TIP3    H125608   6.858   1.554   2.533
 8548TIP3    H225609   6.786   1.653   2.622
 8549TIP3   OH225610   6.837   5.745   2.818
 8549TIP3    H125611   6.854   5.781   2.731
 8549TIP3    H225612   6.758   5.692   2.808
 8550TIP3   OH225613   1.849   2.558   1.914
 8550TIP3    H125614   1.901   2.487   1.875
 8550TIP3    H225615   1.805   2.517   1.988
 8551TIP3   OH225616   2.171   5.223   4.475
 8551TIP3    H125617   2.158   5.225   4.380
 8551TIP3    H225618   2.259   5.187   4.486
 8552TIP3   OH225619   5.097   0.576   3.263
 8552TIP3    H125620   5.187   0.573   3.295
 8552TIP3    H225621   5.052   0.635   3.323
 8553TIP3   OH225622   4.568   5.880   3.780
 8553TIP3    H125623   4.550   5.970   3.807
 8553TIP3    H225624   4.527   5.826   3.848
 8554TIP3   OH225625   4.933   6.246   5.714
 8554TIP3    H125626   4.902   6.335   5.700
 8554TIP3    H225627   4.986   6.227   5.636
 8555TIP3   OH225628   0.172   6.040   3.523
 8555TIP3    H125629   0.261   6.046   3.490
 8555TIP3    H225630   0.126   5.987   3.458
 8556TIP3   OH225631   4.459   1.857   5.028
 8556TIP3    H125632   4.453   1.773   5.072
 8556TIP3    H225633   4.506   1.913   5.089
 8557TIP3   OH225634   0.763   1.200   1.592
 8557TIP3    H125635   0.805   1.283   1.614
 8557TIP3    H225636   0.669   1.221   1.592
 8558TIP3   OH225637   1.520   6.574   3.805
 8558TIP3    H125638   1.525   6.517   3.881
 8558TIP3    H225639   1.564   6.525   3.735
 8559TIP3   OH225640   2.623   5.904   1.409
 8559TIP3    H125641   2.700   5.855   1.439
 8559TIP3    H225642   2.659   5.989   1.382
 8560TIP3   OH225643  -0.032   2.092   3.823
 8560TIP3    H125644   0.008   2.176   3.799
 8560TIP3    H225645   0.042   2.036   3.848
 8561TIP3   OH225646   7.159  -0.013   0.466
 8561TIP3    H125647   7.151   0.017   0.556
 8561TIP3    H225648   7.250   0.004   0.442
 8562TIP3   OH225649   2.460   5.030   3.672
 8562TIP3    H125650   2.458   5.071   3.585
 8562TIP3    H225651   2.387   4.968   3.671
 8563TIP3   OH225652   5.103   2.840   4.478
 8563TIP3    H125653   5.059   2.881   4.403
 8563TIP3    H225654   5.195   2.864   4.468
 8564TIP3   OH225655   7.122   6.717   0.259
 8564TIP3    H125656   7.042   6.706   0.208
 8564TIP3    H225657   7.186   6.751   0.197
 8565TIP3   OH225658   0.731   6.092   3.048
 8565TIP3    H125659   0.801   6.154   3.068
 8565TIP3    H225660   0.667   6.143   2.999
 8566TIP3   OH225661   5.798   2.613   3.761
 8566TIP3    H125662   5.803   2.532   3.813
 8566TIP3    H225663   5.798   2.683   3.826
 8567TIP3   OH225664   1.252   5.632   0.021
 8567TIP3    H125665   1.318   5.587   0.074
 8567TIP3    H225666   1.198   5.561  -0.014
 8568TIP3   OH225667   2.755   2.254   5.839
 8568TIP3    H125668   2.746   2.171   5.791
 8568TIP3    H225669   2.829   2.298   5.797
 8569TIP3   OH225670   0.233   3.153   5.683
 8569TIP3    H125671   0.286   3.211   5.629
 8569TIP3    H225672   0.144   3.165   5.650
 8570TIP3   OH225673   4.375   3.987   5.392
 8570TIP3    H125674   4.463   3.993   5.429
 8570TIP3    H225675   4.323   4.046   5.446
 8571TIP3   OH225676   6.883   4.083   2.477
 8571TIP3    H125677   6.872   4.176   2.459
 8571TIP3    H225678   6.823   4.064   2.549
 8572TIP3   OH225679   1.712   6.116   4.763
 8572TIP3    H125680   1.642   6.136   4.701
 8572TIP3    H225681   1.704   6.182   4.831
 8573TIP3   OH225682   5.353   6.661   4.460
 8573TIP3    H125683   5.423   6.646   4.396
 8573TIP3    H225684   5.348   6.756   4.469
 8574TIP3   OH225685   1.452   4.514   2.803
 8574TIP3    H125686   1.363   4.547   2.795
 8574TIP3    H225687   1.502   4.589   2.838
 8575TIP3   OH225688   0.996   0.159   2.006
 8575TIP3    H125689   1.079   0.157   1.957
 8575TIP3    H225690   1.016   0.117   2.089
 8576TIP3   OH225691   5.285   5.537   4.539
 8576TIP3    H125692   5.283   5.449   4.502
 8576TIP3    H225693   5.303   5.594   4.465
 8577TIP3   OH225694   5.439   4.789   1.969
 8577TIP3    H125695   5.448   4.694   1.959
 8577TIP3    H225696   5.415   4.801   2.061
 8578TIP3   OH225697   5.544   3.823   5.197
 8578TIP3    H125698   5.582   3.880   5.130
 8578TIP3    H225699   5.613   3.813   5.263
 8579TIP3   OH225700   1.806   0.066   2.945
 8579TIP3    H125701   1.779  -0.005   2.886
 8579TIP3    H225702   1.775   0.039   3.031
 8580TIP3   OH225703   6.606   0.505   4.653
 8580TIP3    H125704   6.684   0.474   4.699
 8580TIP3    H225705   6.604   0.453   4.572
 8581TIP3   OH225706   2.116   5.787   2.650
 8581TIP3    H125707   2.108   5.865   2.706
 8581TIP3    H225708   2.118   5.714   2.711
 8582TIP3   OH225709   1.867   3.550   0.204
 8582TIP3    H125710   1.796   3.611   0.221
 8582TIP3    H225711   1.929   3.565   0.275
 8583TIP3   OH225712   4.119   1.329   5.209
 8583TIP3    H125713   4.117   1.235   5.190
 8583TIP3    H225714   4.183   1.338   5.280
 8584TIP3   OH225715   4.746   4.678   2.343
 8584TIP3    H125716   4.727   4.589   2.372
 8584TIP3    H225717   4.736   4.732   2.422
 8585TIP3   OH225718   2.615   5.752   3.656
 8585TIP3    H125719   2.567   5.816   3.603
 8585TIP3    H225720   2.588   5.667   3.622
 8586TIP3   OH225721   1.900   6.600   2.241
 8586TIP3    H125722   1.991   6.595   2.270
 8586TIP3    H225723   1.854   6.640   2.315
 8587TIP3   OH225724   2.636   3.805   3.479
 8587TIP3    H125725   2.555   3.854   3.462
 8587TIP3    H225726   2.611   3.738   3.541
 8588TIP3   OH225727   5.105   6.526   4.783
 8588TIP3    H125728   5.123   6.558   4.695
 8588TIP3    H225729   5.043   6.590   4.819
 8589TIP3   OH225730   5.860   1.699   2.333
 8589TIP3    H125731   5.835   1.614   2.296
 8589TIP3    H225732   5.947   1.683   2.370
 8590TIP3   OH225733   4.744   5.963   3.316
 8590TIP3    H125734   4.822   6.000   3.358
 8590TIP3    H225735   4.719   6.028   3.251
 8591TIP3   OH225736   2.543   5.700   1.618
 8591TIP3    H125737   2.625   5.737   1.650
 8591TIP3    H225738   2.478   5.723   1.685
 8592TIP3   OH225739   2.605   2.858   3.076
 8592TIP3    H125740   2.696   2.887   3.075
 8592TIP3    H225741   2.606   2.774   3.029
 8593TIP3   OH225742   4.203   4.379   5.732
 8593TIP3    H125743   4.263   4.344   5.667
 8593TIP3    H225744   4.210   4.474   5.723
 8594TIP3   OH225745   5.816   6.224   5.562
 8594TIP3    H125746   5.877   6.292   5.591
 8594TIP3    H225747   5.730   6.260   5.582
 8595TIP3   OH225748   5.437   3.130   1.409
 8595TIP3    H125749   5.378   3.130   1.334
 8595TIP3    H225750   5.399   3.067   1.470
 8596TIP3   OH225751   0.738   0.577   3.617
 8596TIP3    H125752   0.735   0.570   3.521
 8596TIP3    H225753   0.812   0.522   3.643
 8597TIP3   OH225754   1.306   1.498   3.952
 8597TIP3    H125755   1.225   1.459   3.985
 8597TIP3    H225756   1.278   1.577   3.906
 8598TIP3   OH225757   4.883   3.187   2.703
 8598TIP3    H125758   4.884   3.124   2.631
 8598TIP3    H225759   4.853   3.138   2.779
 8599TIP3   OH225760   6.075   2.087   2.204
 8599TIP3    H125761   6.162   2.072   2.241
 8599TIP3    H225762   6.030   2.142   2.268
 8600TIP3   OH225763   1.971   4.139   0.532
 8600TIP3    H125764   2.060   4.136   0.568
 8600TIP3    H225765   1.922   4.190   0.596
 8601TIP3   OH225766   4.506   3.161   1.047
 8601TIP3    H125767   4.516   3.210   0.966
 8601TIP3    H225768   4.589   3.113   1.056
 8602TIP3   OH225769   1.551   5.026   0.157
 8602TIP3    H125770   1.619   4.965   0.187
 8602TIP3    H225771   1.598   5.110   0.146
 8603TIP3   OH225772   3.542   1.348   1.168
 8603TIP3    H125773   3.599   1.388   1.102
 8603TIP3    H225774   3.507   1.422   1.217
 8604TIP3   OH225775   4.801   3.439   2.652
 8604TIP3    H125776   4.814   3.346   2.668
 8604TIP3    H225777   4.849   3.483   2.722
 8605TIP3   OH225778   2.495   1.148   5.831
 8605TIP3    H125779   2.512   1.210   5.902
 8605TIP3    H225780   2.426   1.190   5.779
 8606TIP3   OH225781   1.767   3.944   2.305
 8606TIP3    H125782   1.819   3.864   2.294
 8606TIP3    H225783   1.787   3.973   2.394
 8607TIP3   OH225784   0.201   5.206   1.627
 8607TIP3    H125785   0.140   5.169   1.564
 8607TIP3    H225786   0.260   5.260   1.574
 8608TIP3   OH225787   1.464   5.249   1.151
 8608TIP3    H125788   1.435   5.292   1.231
 8608TIP3    H225789   1.558   5.265   1.147
 8609TIP3   OH225790   2.459   5.266   4.675
 8609TIP3    H125791   2.515   5.246   4.750
 8609TIP3    H225792   2.520   5.282   4.603
 8610TIP3   OH225793   5.682   3.966   5.013
 8610TIP3    H125794   5.766   3.951   4.969
 8610TIP3    H225795   5.667   4.061   5.004
 8611TIP3   OH225796   1.331   3.803   3.581
 8611TIP3    H125797   1.282   3.733   3.624
 8611TIP3    H225798   1.319   3.879   3.637
 8612TIP3   OH225799   4.987   0.949   5.339
 8612TIP3    H125800   4.926   1.012   5.377
 8612TIP3    H225801   5.055   0.938   5.405
 8613TIP3   OH225802   4.086   3.819   0.911
 8613TIP3    H125803   3.997   3.783   0.906
 8613TIP3    H225804   4.127   3.770   0.982
 8614TIP3   OH225805   7.150   6.296   1.528
 8614TIP3    H125806   7.155   6.272   1.620
 8614TIP3    H225807   7.221   6.359   1.515
 8615TIP3   OH225808   1.725   1.293   2.502
 8615TIP3    H125809   1.697   1.202   2.496
 8615TIP3    H225810   1.750   1.304   2.594
 8616TIP3   OH225811   3.096   2.162   2.129
 8616TIP3    H125812   3.129   2.072   2.132
 8616TIP3    H225813   3.009   2.155   2.089
 8617TIP3   OH225814   0.855   0.494   2.212
 8617TIP3    H125815   0.771   0.473   2.171
 8617TIP3    H225816   0.919   0.483   2.141
 8618TIP3   OH225817   6.955   0.697   2.517
 8618TIP3    H125818   6.919   0.783   2.537
 8618TIP3    H225819   6.891   0.635   2.552
 8619TIP3   OH225820   5.157   1.507   3.920
 8619TIP3    H125821   5.123   1.484   3.833
 8619TIP3    H225822   5.246   1.540   3.903
 8620TIP3   OH225823   2.016   6.479   1.462
 8620TIP3    H125824   1.935   6.493   1.510
 8620TIP3    H225825   2.006   6.532   1.383
 8621TIP3   OH225826   1.439   5.426   5.668
 8621TIP3    H125827   1.402   5.436   5.580
 8621TIP3    H225828   1.533   5.441   5.656
 8622TIP3   OH225829   5.571   0.350   0.246
 8622TIP3    H125830   5.666   0.361   0.250
 8622TIP3    H225831   5.536   0.436   0.269
 8623TIP3   OH225832   4.736   3.672   5.509
 8623TIP3    H125833   4.654   3.670   5.559
 8623TIP3    H225834   4.708   3.666   5.418
 8624TIP3   OH225835   4.777   1.307   2.281
 8624TIP3    H125836   4.713   1.284   2.348
 8624TIP3    H225837   4.743   1.268   2.200
 8625TIP3   OH225838   0.261   1.242   4.368
 8625TIP3    H125839   0.240   1.255   4.460
 8625TIP3    H225840   0.237   1.151   4.351
 8626TIP3   OH225841   6.390   1.507   5.528
 8626TIP3    H125842   6.362   1.420   5.499
 8626TIP3    H225843   6.357   1.513   5.618
 8627TIP3   OH225844   1.015   1.136   1.175
 8627TIP3    H125845   0.922   1.146   1.195
 8627TIP3    H225846   1.039   1.219   1.132
 8628TIP3   OH225847   2.439   0.640   4.138
 8628TIP3    H125848   2.492   0.650   4.059
 8628TIP3    H225849   2.426   0.729   4.170
 8629TIP3   OH225850   0.220   2.390   1.978
 8629TIP3    H125851   0.254   2.352   2.059
 8629TIP3    H225852   0.248   2.482   1.981
 8630TIP3   OH225853   3.522   1.920   3.053
 8630TIP3    H125854   3.481   1.987   2.998
 8630TIP3    H225855   3.598   1.891   3.003
 8631TIP3   OH225856   2.617   4.273   3.868
 8631TIP3    H125857   2.594   4.301   3.779
 8631TIP3    H225858   2.706   4.307   3.880
 8632TIP3   OH225859   4.744   1.355   5.799
 8632TIP3    H125860   4.757   1.268   5.837
 8632TIP3    H225861   4.668   1.390   5.844
 8633TIP3   OH225862   5.644   3.523   1.825
 8633TIP3    H125863   5.727   3.567   1.846
 8633TIP3    H225864   5.668   3.458   1.760
 8634TIP3   OH225865   4.510   1.627   5.778
 8634TIP3    H125866   4.595   1.670   5.788
 8634TIP3    H225867   4.501   1.612   5.684
 8635TIP3   OH225868   5.197   1.802   3.301
 8635TIP3    H125869   5.120   1.821   3.248
 8635TIP3    H225870   5.198   1.707   3.308
 8636TIP3   OH225871   0.978   4.729   5.681
 8636TIP3    H125872   0.900   4.689   5.641
 8636TIP3    H225873   1.016   4.782   5.611
 8637TIP3   OH225874   3.177   2.355   3.419
 8637TIP3    H125875   3.128   2.437   3.409
 8637TIP3    H225876   3.189   2.323   3.330
 8638TIP3   OH225877   1.537   0.498   1.404
 8638TIP3    H125878   1.582   0.488   1.487
 8638TIP3    H225879   1.594   0.555   1.352
 8639TIP3   OH225880   5.081   0.821   3.680
 8639TIP3    H125881   5.015   0.823   3.750
 8639TIP3    H225882   5.158   0.861   3.719
 8640TIP3   OH225883   4.921   2.739   2.487
 8640TIP3    H125884   4.830   2.711   2.473
 8640TIP3    H225885   4.942   2.705   2.574
 8641TIP3   OH225886   5.912   2.704   3.188
 8641TIP3    H125887   5.890   2.709   3.095
 8641TIP3    H225888   5.975   2.632   3.194
 8642TIP3   OH225889   0.420   3.932   4.428
 8642TIP3    H125890   0.412   3.904   4.519
 8642TIP3    H225891   0.332   3.922   4.392
 8643TIP3   OH225892   5.616   4.940   2.298
 8643TIP3    H125893   5.576   4.875   2.356
 8643TIP3    H225894   5.630   5.017   2.354
 8644TIP3   OH225895   3.587   4.947   3.844
 8644TIP3    H125896   3.560   5.025   3.893
 8644TIP3    H225897   3.546   4.874   3.891
 8645TIP3   OH225898   0.089   2.321   4.392
 8645TIP3    H125899   0.175   2.344   4.428
 8645TIP3    H225900   0.106   2.302   4.300
 8646TIP3   OH225901   3.924   0.880   4.848
 8646TIP3    H125902   3.837   0.919   4.837
 8646TIP3    H225903   3.908   0.801   4.899
 8647TIP3   OH225904   4.567   5.194   2.899
 8647TIP3    H125905   4.549   5.257   2.830
 8647TIP3    H225906   4.483   5.183   2.944
 8648TIP3   OH225907   1.079   5.991   5.847
 8648TIP3    H125908   1.026   5.942   5.785
 8648TIP3    H225909   1.074   6.082   5.816
 8649TIP3   OH225910   4.635   1.685   4.498
 8649TIP3    H125911   4.572   1.756   4.485
 8649TIP3    H225912   4.660   1.691   4.590
 8650TIP3   OH225913   4.184   5.527   1.984
 8650TIP3    H125914   4.129   5.545   2.059
 8650TIP3    H225915   4.159   5.593   1.919
 8651TIP3   OH225916   5.696   6.593   0.309
 8651TIP3    H125917   5.770   6.535   0.326
 8651TIP3    H225918   5.729   6.681   0.326
 8652TIP3   OH225919   5.537   6.479   4.148
 8652TIP3    H125920   5.481   6.458   4.073
 8652TIP3    H225921   5.501   6.428   4.220
 8653TIP3   OH225922   3.980   0.540   4.906
 8653TIP3    H125923   3.929   0.601   4.961
 8653TIP3    H225924   3.915   0.497   4.851
 8654TIP3   OH225925   4.778   0.963   1.230
 8654TIP3    H125926   4.862   0.939   1.270
 8654TIP3    H225927   4.714   0.905   1.272
 8655TIP3   OH225928   4.610   5.447   1.696
 8655TIP3    H125929   4.606   5.351   1.697
 8655TIP3    H225930   4.542   5.474   1.757
 8656TIP3   OH225931   2.149   3.665   1.844
 8656TIP3    H125932   2.211   3.628   1.781
 8656TIP3    H225933   2.184   3.752   1.863
 8657TIP3   OH225934   2.579   1.363   4.813
 8657TIP3    H125935   2.654   1.418   4.836
 8657TIP3    H225936   2.541   1.336   4.897
 8658TIP3   OH225937   3.306   1.088   5.726
 8658TIP3    H125938   3.385   1.122   5.685
 8658TIP3    H225939   3.238   1.150   5.702
 8659TIP3   OH225940   1.546   4.077   5.098
 8659TIP3    H125941   1.571   4.007   5.038
 8659TIP3    H225942   1.582   4.156   5.059
 8660TIP3   OH225943   6.458   0.900   1.776
 8660TIP3    H125944   6.380   0.914   1.722
 8660TIP3    H225945   6.424   0.887   1.864
 8661TIP3   OH225946   4.430   1.725   4.210
 8661TIP3    H125947   4.461   1.765   4.291
 8661TIP3    H225948   4.350   1.773   4.189
 8662TIP3   OH225949   3.960   0.547   2.583
 8662TIP3    H125950   3.946   0.492   2.506
 8662TIP3    H225951   3.978   0.486   2.654
 8663TIP3   OH225952   3.281   3.618   0.305
 8663TIP3    H125953   3.302   3.584   0.218
 8663TIP3    H225954   3.363   3.615   0.353
 8664TIP3   OH225955   3.564   1.823   2.591
 8664TIP3    H125956   3.538   1.885   2.660
 8664TIP3    H225957   3.557   1.873   2.510
 8665TIP3   OH225958   5.892   0.882   2.509
 8665TIP3    H125959   5.797   0.887   2.500
 8665TIP3    H225960   5.916   0.797   2.473
 8666TIP3   OH225961   6.670   4.515   5.814
 8666TIP3    H125962   6.630   4.516   5.901
 8666TIP3    H225963   6.737   4.584   5.818
 8667TIP3   OH225964   0.353   5.911   1.106
 8667TIP3    H125965   0.394   5.992   1.075
 8667TIP3    H225966   0.332   5.862   1.027
 8668TIP3   OH225967   6.529   1.688   5.345
 8668TIP3    H125968   6.481   1.636   5.410
 8668TIP3    H225969   6.600   1.728   5.395
 8669TIP3   OH225970   6.984   5.223   3.976
 8669TIP3    H125971   6.932   5.164   3.920
 8669TIP3    H225972   6.936   5.305   3.976
 8670TIP3   OH225973   2.552   2.655   5.306
 8670TIP3    H125974   2.459   2.670   5.322
 8670TIP3    H225975   2.562   2.560   5.309
 8671TIP3   OH225976   4.093   2.445   4.530
 8671TIP3    H125977   3.997   2.439   4.537
 8671TIP3    H225978   4.108   2.495   4.450
 8672TIP3   OH225979   3.349   5.868   3.893
 8672TIP3    H125980   3.410   5.800   3.922
 8672TIP3    H225981   3.396   5.916   3.825
 8673TIP3   OH225982   0.803   1.487   3.987
 8673TIP3    H125983   0.834   1.572   3.956
 8673TIP3    H225984   0.716   1.505   4.023
 8674TIP3   OH225985   4.400   6.550   2.823
 8674TIP3    H125986   4.480   6.600   2.808
 8674TIP3    H225987   4.405   6.477   2.762
 8675TIP3   OH225988   3.260   1.947   5.362
 8675TIP3    H125989   3.332   1.936   5.299
 8675TIP3    H225990   3.298   1.924   5.447
 8676TIP3   OH225991   1.685   4.517   5.128
 8676TIP3    H125992   1.632   4.444   5.096
 8676TIP3    H225993   1.622   4.585   5.150
 8677TIP3   OH225994   7.001   1.882   4.469
 8677TIP3    H125995   6.951   1.864   4.390
 8677TIP3    H225996   7.064   1.949   4.442
 8678TIP3   OH225997   1.769   4.092   3.342
 8678TIP3    H125998   1.688   4.047   3.318
 8678TIP3    H225999   1.812   4.110   3.258
 8679TIP3   OH226000   2.338   1.571   4.584
 8679TIP3    H126001   2.367   1.622   4.659
 8679TIP3    H226002   2.243   1.567   4.593
 8680TIP3   OH226003   4.647   5.182   1.661
 8680TIP3    H126004   4.645   5.103   1.606
 8680TIP3    H226005   4.737   5.187   1.692
 8681TIP3   OH226006   5.701   4.582   3.975
 8681TIP3    H126007   5.662   4.569   3.888
 8681TIP3    H226008   5.675   4.670   4.000
 8682TIP3   OH226009   6.709   1.373   0.050
 8682TIP3    H126010   6.803   1.353   0.044
 8682TIP3    H226011   6.682   1.385  -0.041
 8683TIP3   OH226012   7.184   1.146   1.788
 8683TIP3    H126013   7.164   1.238   1.801
 8683TIP3    H226014   7.143   1.102   1.863
 8684TIP3   OH226015   2.602   1.850   1.380
 8684TIP3    H126016   2.638   1.823   1.296
 8684TIP3    H226017   2.567   1.770   1.419
 8685TIP3   OH226018   5.736   3.488   1.484
 8685TIP3    H126019   5.751   3.409   1.535
 8685TIP3    H226020   5.646   3.479   1.450
 8686TIP3   OH226021   1.310   4.151   4.509
 8686TIP3    H126022   1.287   4.176   4.420
 8686TIP3    H226023   1.403   4.173   4.517
 8687TIP3   OH226024   5.054   2.411   1.205
 8687TIP3    H126025   5.130   2.419   1.263
 8687TIP3    H226026   4.998   2.347   1.248
 8688TIP3   OH226027   0.598   1.364   5.013
 8688TIP3    H126028   0.564   1.293   4.960
 8688TIP3    H226029   0.522   1.420   5.031
 8689TIP3   OH226030   6.712   4.565   3.871
 8689TIP3    H126031   6.752   4.652   3.876
 8689TIP3    H226032   6.711   4.534   3.962
 8690TIP3   OH226033   4.719   6.242   2.281
 8690TIP3    H126034   4.804   6.286   2.281
 8690TIP3    H226035   4.702   6.222   2.373
 8691TIP3   OH226036   3.069   0.170   5.815
 8691TIP3    H126037   3.000   0.111   5.785
 8691TIP3    H226038   3.123   0.185   5.737
 8692TIP3   OH226039   0.583   1.622   5.658
 8692TIP3    H126040   0.610   1.649   5.571
 8692TIP3    H226041   0.569   1.528   5.651
 8693TIP3   OH226042   4.041   5.015   3.955
 8693TIP3    H126043   3.959   5.057   3.980
 8693TIP3    H226044   4.077   5.073   3.887
 8694TIP3   OH226045   1.454   4.737   2.517
 8694TIP3    H126046   1.471   4.645   2.498
 8694TIP3    H226047   1.407   4.737   2.600
 8695TIP3   OH226048   0.819   5.863   2.623
 8695TIP3    H126049   0.843   5.902   2.707
 8695TIP3    H226050   0.736   5.818   2.639
 8696TIP3   OH226051   3.714   5.636   3.015
 8696TIP3    H126052   3.648   5.601   3.075
 8696TIP3    H226053   3.797   5.608   3.054
 8697TIP3   OH226054   0.864   6.075   1.918
 8697TIP3    H126055   0.891   6.037   1.834
 8697TIP3    H226056   0.939   6.064   1.976
 8698TIP3   OH226057   5.658   3.309   4.904
 8698TIP3    H126058   5.678   3.222   4.870
 8698TIP3    H226059   5.714   3.318   4.981
 8699TIP3   OH226060   5.127   4.251   1.664
 8699TIP3    H126061   5.132   4.180   1.728
 8699TIP3    H226062   5.099   4.208   1.583
 8700TIP3   OH226063   5.861   0.127   2.368
 8700TIP3    H126064   5.858   0.190   2.296
 8700TIP3    H226065   5.909   0.173   2.437
 8701TIP3   OH226066   2.153   4.006   1.378
 8701TIP3    H126067   2.206   4.044   1.448
 8701TIP3    H226068   2.063   4.022   1.404
 8702TIP3   OH226069   6.797   2.741   1.650
 8702TIP3    H126070   6.869   2.750   1.712
 8702TIP3    H226071   6.800   2.820   1.597
 8703TIP3   OH226072   0.248   2.022   1.553
 8703TIP3    H126073   0.238   2.079   1.476
 8703TIP3    H226074   0.342   2.025   1.572
 8704TIP3   OH226075   0.899   6.822   3.641
 8704TIP3    H126076   0.934   6.740   3.606
 8704TIP3    H226077   0.907   6.813   3.736
 8705TIP3   OH226078   3.605   3.986   0.119
 8705TIP3    H126079   3.600   3.958   0.027
 8705TIP3    H226080   3.622   4.080   0.114
 8706TIP3   OH226081   1.286   2.664   4.707
 8706TIP3    H126082   1.366   2.618   4.734
 8706TIP3    H226083   1.251   2.700   4.788
 8707TIP3   OH226084   3.573   3.006   3.798
 8707TIP3    H126085   3.555   3.078   3.737
 8707TIP3    H226086   3.552   2.927   3.747
 8708TIP3   OH226087   1.514   5.937   5.257
 8708TIP3    H126088   1.420   5.938   5.276
 8708TIP3    H226089   1.537   5.844   5.254
 8709TIP3   OH226090   2.215   2.408   3.462
 8709TIP3    H126091   2.177   2.328   3.498
 8709TIP3    H226092   2.264   2.446   3.534
 8710TIP3   OH226093   1.274   5.449   3.432
 8710TIP3    H126094   1.361   5.485   3.442
 8710TIP3    H226095   1.275   5.406   3.347
 8711TIP3   OH226096   3.489   4.106   3.024
 8711TIP3    H126097   3.471   4.101   3.118
 8711TIP3    H226098   3.526   4.021   3.002
 8712TIP3   OH226099   0.324   5.821   5.617
 8712TIP3    H126100   0.283   5.774   5.690
 8712TIP3    H226101   0.250   5.857   5.568
 8713TIP3   OH226102   4.528   2.809   3.255
 8713TIP3    H126103   4.573   2.799   3.339
 8713TIP3    H226104   4.522   2.720   3.220
 8714TIP3   OH226105   3.463   3.857   4.162
 8714TIP3    H126106   3.428   3.904   4.087
 8714TIP3    H226107   3.529   3.798   4.125
 8715TIP3   OH226108   0.898   6.442   2.097
 8715TIP3    H126109   0.853   6.397   2.026
 8715TIP3    H226110   0.831   6.498   2.136
 8716TIP3   OH226111   1.082   4.551   0.521
 8716TIP3    H126112   1.154   4.599   0.480
 8716TIP3    H226113   1.009   4.559   0.459
 8717TIP3   OH226114   0.897   4.447   5.850
 8717TIP3    H126115   0.878   4.479   5.762
 8717TIP3    H226116   0.829   4.382   5.867
 8718TIP3   OH226117   6.970   5.764   5.602
 8718TIP3    H126118   7.000   5.803   5.684
 8718TIP3    H226119   6.943   5.838   5.548
 8719TIP3   OH226120   5.840   1.299   5.724
 8719TIP3    H126121   5.820   1.390   5.703
 8719TIP3    H226122   5.897   1.269   5.654
 8720TIP3   OH226123   2.089   6.172   3.503
 8720TIP3    H126124   2.179   6.150   3.528
 8720TIP3    H226125   2.045   6.087   3.497
 8721TIP3   OH226126   4.841   1.843   5.171
 8721TIP3    H126127   4.890   1.913   5.127
 8721TIP3    H226128   4.752   1.878   5.180
 8722TIP3   OH226129   0.125   0.927   2.612
 8722TIP3    H126130   0.131   1.023   2.609
 8722TIP3    H226131   0.182   0.896   2.542
 8723TIP3   OH226132   3.682   3.020   4.213
 8723TIP3    H126133   3.616   2.959   4.246
 8723TIP3    H226134   3.730   3.048   4.291
 8724TIP3   OH226135   0.895   5.310   4.621
 8724TIP3    H126136   0.805   5.339   4.638
 8724TIP3    H226137   0.889   5.256   4.543
 8725TIP3   OH226138   0.294   4.323   3.786
 8725TIP3    H126139   0.203   4.307   3.811
 8725TIP3    H226140   0.288   4.370   3.703
 8726TIP3   OH226141   1.724   6.646   0.061
 8726TIP3    H126142   1.728   6.636   0.156
 8726TIP3    H226143   1.668   6.723   0.047
 8727TIP3   OH226144   4.750   4.794   2.948
 8727TIP3    H126145   4.700   4.770   3.026
 8727TIP3    H226146   4.733   4.723   2.886
 8728TIP3   OH226147   6.952   5.236   5.560
 8728TIP3    H126148   7.036   5.253   5.604
 8728TIP3    H226149   6.915   5.323   5.546
 8729TIP3   OH226150   0.099   1.997   4.217
 8729TIP3    H126151   0.131   1.922   4.268
 8729TIP3    H226152   0.030   2.034   4.271
 8730TIP3   OH226153   3.599   2.244   1.515
 8730TIP3    H126154   3.587   2.319   1.457
 8730TIP3    H226155   3.599   2.282   1.603
 8731TIP3   OH226156   1.379   4.962   0.407
 8731TIP3    H126157   1.412   4.998   0.324
 8731TIP3    H226158   1.458   4.935   0.454
 8732TIP3   OH226159   4.159   2.681   2.281
 8732TIP3    H126160   4.248   2.713   2.297
 8732TIP3    H226161   4.113   2.757   2.243
 8733TIP3   OH226162   6.672   3.199   4.724
 8733TIP3    H126163   6.751   3.145   4.734
 8733TIP3    H226164   6.670   3.219   4.630
 8734TIP3   OH226165   0.159   4.436   5.065
 8734TIP3    H126166   0.110   4.415   4.985
 8734TIP3    H226167   0.247   4.458   5.034
 8735TIP3   OH226168  -0.002   0.087   4.357
 8735TIP3    H126169   0.082   0.120   4.387
 8735TIP3    H226170  -0.051   0.166   4.331
 8736TIP3   OH226171   4.012   2.502   1.880
 8736TIP3    H126172   4.037   2.480   1.970
 8736TIP3    H226173   4.090   2.544   1.844
 8737TIP3   OH226174   7.209   0.796   1.688
 8737TIP3    H126175   7.162   0.774   1.608
 8737TIP3    H226176   7.149   0.773   1.759
 8738TIP3   OH226177   5.030   1.818   2.599
 8738TIP3    H126178   4.943   1.784   2.618
 8738TIP3    H226179   5.090   1.760   2.646
 8739TIP3   OH226180   4.974   5.142   0.688
 8739TIP3    H126181   5.070   5.145   0.691
 8739TIP3    H226182   4.947   5.234   0.691
 8740TIP3   OH226183   3.107   2.865   3.325
 8740TIP3    H126184   3.083   2.857   3.417
 8740TIP3    H226185   3.201   2.886   3.326
 8741TIP3   OH226186   0.686   5.371   4.932
 8741TIP3    H126187   0.706   5.419   4.851
 8741TIP3    H226188   0.758   5.393   4.991
 8742TIP3   OH226189   5.115   4.157   2.787
 8742TIP3    H126190   5.138   4.227   2.726
 8742TIP3    H226191   5.051   4.196   2.846
 8743TIP3   OH226192   3.176   0.179   3.016
 8743TIP3    H126193   3.261   0.219   2.999
 8743TIP3    H226194   3.194   0.107   3.076
 8744TIP3   OH226195   4.715   5.221   4.678
 8744TIP3    H126196   4.766   5.172   4.742
 8744TIP3    H226197   4.652   5.271   4.730
 8745TIP3   OH226198   1.768   4.811   3.494
 8745TIP3    H126199   1.841   4.811   3.432
 8745TIP3    H226200   1.709   4.744   3.461
 8746TIP3   OH226201   3.376   2.324   4.272
 8746TIP3    H126202   3.370   2.320   4.367
 8746TIP3    H226203   3.445   2.387   4.254
 8747TIP3   OH226204   1.952   1.897   1.157
 8747TIP3    H126205   1.862   1.895   1.188
 8747TIP3    H226206   1.991   1.817   1.192
 8748TIP3   OH226207   2.782   5.895   0.469
 8748TIP3    H126208   2.757   5.951   0.543
 8748TIP3    H226209   2.873   5.920   0.450
 8749TIP3   OH226210   3.159   3.276   1.035
 8749TIP3    H126211   3.121   3.352   0.990
 8749TIP3    H226212   3.117   3.277   1.121
 8750TIP3   OH226213   5.817   5.216   3.612
 8750TIP3    H126214   5.758   5.161   3.663
 8750TIP3    H226215   5.844   5.285   3.673
 8751TIP3   OH226216   2.048   5.411   4.042
 8751TIP3    H126217   2.138   5.383   4.022
 8751TIP3    H226218   2.020   5.354   4.113
 8752TIP3   OH226219   1.001   4.949   1.331
 8752TIP3    H126220   1.024   4.856   1.332
 8752TIP3    H226221   1.086   4.994   1.331
 8753TIP3   OH226222   6.103   2.866   2.171
 8753TIP3    H126223   6.125   2.923   2.245
 8753TIP3    H226224   6.122   2.919   2.093
 8754TIP3   OH226225   6.825   6.486   5.356
 8754TIP3    H126226   6.828   6.466   5.449
 8754TIP3    H226227   6.817   6.581   5.352
 8755TIP3   OH226228   5.695   1.796   5.261
 8755TIP3    H126229   5.736   1.715   5.233
 8755TIP3    H226230   5.610   1.769   5.297
 8756TIP3   OH226231   2.120   6.413   0.392
 8756TIP3    H126232   2.171   6.488   0.425
 8756TIP3    H226233   2.075   6.379   0.469
 8757TIP3   OH226234   0.913   5.118   2.819
 8757TIP3    H126235   0.996   5.071   2.814
 8757TIP3    H226236   0.913   5.175   2.742
 8758TIP3   OH226237   1.953   4.814   2.944
 8758TIP3    H126238   2.014   4.741   2.935
 8758TIP3    H226239   1.902   4.812   2.862
 8759TIP3   OH226240   0.806   1.259   2.782
 8759TIP3    H126241   0.877   1.195   2.783
 8759TIP3    H226242   0.773   1.257   2.692
 8760TIP3   OH226243   2.343   0.879   4.831
 8760TIP3    H126244   2.377   0.794   4.860
 8760TIP3    H226245   2.248   0.869   4.837
 8761TIP3   OH226246   0.599   3.455   1.443
 8761TIP3    H126247   0.574   3.541   1.477
 8761TIP3    H226248   0.689   3.466   1.413
 8762TIP3   OH226249   0.261   0.961   5.800
 8762TIP3    H126250   0.266   0.869   5.775
 8762TIP3    H226251   0.321   0.969   5.874
 8763TIP3   OH226252   5.963   4.625   4.520
 8763TIP3    H126253   5.919   4.603   4.438
 8763TIP3    H226254   6.055   4.607   4.503
 8764TIP3   OH226255   6.777   1.830   2.632
 8764TIP3    H126256   6.869   1.849   2.646
 8764TIP3    H226257   6.764   1.840   2.538
 8765TIP3   OH226258   4.199   6.175   5.708
 8765TIP3    H126259   4.135   6.105   5.720
 8765TIP3    H226260   4.156   6.238   5.650
 8766TIP3   OH226261   4.101   3.280   0.824
 8766TIP3    H126262   4.009   3.258   0.810
 8766TIP3    H226263   4.147   3.196   0.820
 8767TIP3   OH226264   3.418   0.133   3.343
 8767TIP3    H126265   3.433   0.071   3.272
 8767TIP3    H226266   3.331   0.169   3.325
 8768TIP3   OH226267   7.095   1.076   2.479
 8768TIP3    H126268   7.007   1.046   2.499
 8768TIP3    H226269   7.083   1.157   2.430
 8769TIP3   OH226270   4.535   3.066   1.523
 8769TIP3    H126271   4.578   2.986   1.554
 8769TIP3    H226272   4.508   3.111   1.603
 8770TIP3   OH226273   2.102   3.274   1.445
 8770TIP3    H126274   2.041   3.206   1.474
 8770TIP3    H226275   2.188   3.243   1.473
 8771TIP3   OH226276   4.204   3.286   4.231
 8771TIP3    H126277   4.189   3.289   4.326
 8771TIP3    H226278   4.252   3.367   4.212
 8772TIP3   OH226279   4.164   2.084   0.264
 8772TIP3    H126280   4.148   2.042   0.180
 8772TIP3    H226281   4.259   2.095   0.268
 8773TIP3   OH226282   4.968   2.894   0.696
 8773TIP3    H126283   5.056   2.912   0.663
 8773TIP3    H226284   4.933   2.981   0.716
 8774TIP3   OH226285   0.230   6.504   0.911
 8774TIP3    H126286   0.189   6.570   0.855
 8774TIP3    H226287   0.158   6.470   0.964
 8775TIP3   OH226288   0.108   1.914   2.453
 8775TIP3    H126289   0.108   1.975   2.526
 8775TIP3    H226290   0.132   1.830   2.491
 8776TIP3   OH226291   0.680   6.317   4.079
 8776TIP3    H126292   0.679   6.405   4.042
 8776TIP3    H226293   0.640   6.327   4.165
 8777TIP3   OH226294   1.738   5.526   1.452
 8777TIP3    H126295   1.674   5.497   1.517
 8777TIP3    H226296   1.740   5.621   1.461
 8778TIP3   OH226297   0.633   3.154   1.933
 8778TIP3    H126298   0.638   3.094   2.008
 8778TIP3    H226299   0.545   3.141   1.899
 8779TIP3   OH226300   3.207   1.906   4.061
 8779TIP3    H126301   3.193   1.979   4.001
 8779TIP3    H226302   3.264   1.942   4.129
 8780TIP3   OH226303   0.185   1.615   3.118
 8780TIP3    H126304   0.217   1.686   3.062
 8780TIP3    H226305   0.157   1.660   3.199
 8781TIP3   OH226306   1.796   4.234   4.679
 8781TIP3    H126307   1.778   4.323   4.708
 8781TIP3    H226308   1.829   4.189   4.757
 8782TIP3   OH226309   0.736   1.268   5.473
 8782TIP3    H126310   0.780   1.198   5.425
 8782TIP3    H226311   0.768   1.259   5.563
 8783TIP3   OH226312   2.096   5.594   3.087
 8783TIP3    H126313   2.022   5.590   3.147
 8783TIP3    H226314   2.167   5.551   3.135
 8784TIP3   OH226315   0.857   3.220   0.404
 8784TIP3    H126316   0.930   3.192   0.459
 8784TIP3    H226317   0.850   3.152   0.337
 8785TIP3   OH226318   6.672   5.509   3.683
 8785TIP3    H126319   6.581   5.479   3.678
 8785TIP3    H226320   6.709   5.484   3.598
 8786TIP3   OH226321   4.487   1.751   3.575
 8786TIP3    H126322   4.443   1.667   3.564
 8786TIP3    H226323   4.457   1.804   3.501
 8787TIP3   OH226324   0.889   2.292   0.776
 8787TIP3    H126325   0.911   2.199   0.780
 8787TIP3    H226326   0.830   2.300   0.702
 8788TIP3   OH226327   1.317   5.345   0.954
 8788TIP3    H126328   1.322   5.440   0.967
 8788TIP3    H226329   1.351   5.308   1.035
 8789TIP3   OH226330   1.722   0.559   0.770
 8789TIP3    H126331   1.783   0.495   0.807
 8789TIP3    H226332   1.778   0.627   0.733
 8790TIP3   OH226333   0.640   4.616   4.235
 8790TIP3    H126334   0.685   4.547   4.186
 8790TIP3    H226335   0.710   4.676   4.262
 8791TIP3   OH226336   6.480   1.904   5.783
 8791TIP3    H126337   6.572   1.925   5.765
 8791TIP3    H226338   6.475   1.809   5.774
 8792TIP3   OH226339   5.022   5.784   2.159
 8792TIP3    H126340   5.084   5.774   2.087
 8792TIP3    H226341   5.028   5.701   2.207
 8793TIP3   OH226342   5.845   4.136   4.608
 8793TIP3    H126343   5.770   4.077   4.611
 8793TIP3    H226344   5.919   4.082   4.637
 8794TIP3   OH226345   1.551   1.137   2.825
 8794TIP3    H126346   1.646   1.148   2.823
 8794TIP3    H226347   1.538   1.042   2.822
 8795TIP3   OH226348   0.042   4.490   0.021
 8795TIP3    H126349   0.053   4.431  -0.054
 8795TIP3    H226350  -0.015   4.441   0.081
 8796TIP3   OH226351   2.803   4.131   4.233
 8796TIP3    H126352   2.733   4.139   4.298
 8796TIP3    H226353   2.830   4.221   4.216
 8797TIP3   OH226354   4.181   0.031   4.952
 8797TIP3    H126355   4.233   0.033   4.872
 8797TIP3    H226356   4.245   0.038   5.023
 8798TIP3   OH226357   2.296   0.810   1.693
 8798TIP3    H126358   2.248   0.887   1.719
 8798TIP3    H226359   2.383   0.842   1.669
 8799TIP3   OH226360   3.838   1.913   2.130
 8799TIP3    H126361   3.786   1.869   2.062
 8799TIP3    H226362   3.804   2.003   2.131
 8800TIP3   OH226363   4.295   6.577   0.373
 8800TIP3    H126364   4.199   6.579   0.367
 8800TIP3    H226365   4.316   6.488   0.398
 8801TIP3   OH226366   1.373   6.511   2.554
 8801TIP3    H126367   1.315   6.496   2.479
 8801TIP3    H226368   1.402   6.424   2.580
 8802TIP3   OH226369   6.203   4.896   1.757
 8802TIP3    H126370   6.148   4.923   1.830
 8802TIP3    H226371   6.141   4.867   1.689
 8803TIP3   OH226372   0.433   4.447   2.361
 8803TIP3    H126373   0.524   4.419   2.373
 8803TIP3    H226374   0.405   4.406   2.279
 8804TIP3   OH226375   0.573   3.298   1.036
 8804TIP3    H126376   0.556   3.391   1.027
 8804TIP3    H226377   0.490   3.262   1.068
 8805TIP3   OH226378   5.089   2.935   0.975
 8805TIP3    H126379   5.018   2.966   1.031
 8805TIP3    H226380   5.056   2.854   0.937
 8806TIP3   OH226381   4.742   2.542   1.865
 8806TIP3    H126382   4.799   2.591   1.806
 8806TIP3    H226383   4.788   2.545   1.950
 8807TIP3   OH226384   6.209   1.296   0.572
 8807TIP3    H126385   6.172   1.271   0.488
 8807TIP3    H226386   6.303   1.299   0.557
 8808TIP3   OH226387   5.029   5.516   3.225
 8808TIP3    H126388   5.119   5.550   3.230
 8808TIP3    H226389   4.975   5.593   3.209
 8809TIP3   OH226390   2.353   2.784   5.607
 8809TIP3    H126391   2.297   2.806   5.533
 8809TIP3    H226392   2.374   2.692   5.595
 8810TIP3   OH226393   7.129   0.457   4.630
 8810TIP3    H126394   7.154   0.548   4.650
 8810TIP3    H226395   7.181   0.434   4.554
 8811TIP3   OH226396   4.756   3.981   3.048
 8811TIP3    H126397   4.808   3.927   3.107
 8811TIP3    H226398   4.800   4.065   3.046
 8812TIP3   OH226399   6.372   6.419   0.280
 8812TIP3    H126400   6.333   6.440   0.365
 8812TIP3    H226401   6.389   6.325   0.284
 8813TIP3   OH226402   6.701   2.495   1.723
 8813TIP3    H126403   6.651   2.499   1.804
 8813TIP3    H226404   6.734   2.583   1.710
 8814TIP3   OH226405   1.084   0.862   1.452
 8814TIP3    H126406   1.041   0.777   1.460
 8814TIP3    H226407   1.050   0.899   1.371
 8815TIP3   OH226408   0.204   0.995   3.795
 8815TIP3    H126409   0.273   0.930   3.808
 8815TIP3    H226410   0.250   1.074   3.768
 8816TIP3   OH226411   0.902   1.388   1.815
 8816TIP3    H126412   0.827   1.422   1.767
 8816TIP3    H226413   0.978   1.412   1.762
 8817TIP3   OH226414   1.327   5.625   0.998
 8817TIP3    H126415   1.365   5.713   1.000
 8817TIP3    H226416   1.240   5.636   1.037
 8818TIP3   OH226417   6.528   6.521   4.050
 8818TIP3    H126418   6.435   6.533   4.071
 8818TIP3    H226419   6.546   6.430   4.073
 8819TIP3   OH226420   1.038   3.980   2.159
 8819TIP3    H126421   0.969   3.917   2.176
 8819TIP3    H226422   1.095   3.937   2.095
 8820TIP3   OH226423   5.832   5.378   4.884
 8820TIP3    H126424   5.911   5.387   4.830
 8820TIP3    H226425   5.832   5.286   4.911
 8821TIP3   OH226426   4.619   1.104   4.150
 8821TIP3    H126427   4.662   1.178   4.195
 8821TIP3    H226428   4.563   1.145   4.084
 8822TIP3   OH226429   6.380   5.396   5.664
 8822TIP3    H126430   6.349   5.314   5.702
 8822TIP3    H226431   6.328   5.463   5.707
 8823TIP3   OH226432   6.698   2.913   4.564
 8823TIP3    H126433   6.739   2.871   4.640
 8823TIP3    H226434   6.770   2.931   4.504
 8824TIP3   OH226435   5.809   3.577   5.837
 8824TIP3    H126436   5.837   3.643   5.900
 8824TIP3    H226437   5.730   3.614   5.798
 8825TIP3   OH226438   6.633   3.813   5.464
 8825TIP3    H126439   6.705   3.870   5.435
 8825TIP3    H226440   6.645   3.807   5.559
 8826TIP3   OH226441   2.794   4.278   0.157
 8826TIP3    H126442   2.881   4.244   0.136
 8826TIP3    H226443   2.768   4.231   0.237
 8827TIP3   OH226444   6.640   4.040   4.171
 8827TIP3    H126445   6.596   4.043   4.086
 8827TIP3    H226446   6.689   4.122   4.175
 8828TIP3   OH226447   2.468   4.274   4.150
 8828TIP3    H126448   2.436   4.212   4.085
 8828TIP3    H226449   2.484   4.354   4.100
 8829TIP3   OH226450   2.242   5.739   1.542
 8829TIP3    H126451   2.268   5.823   1.504
 8829TIP3    H226452   2.324   5.695   1.563
 8830TIP3   OH226453   5.384   2.102   2.089
 8830TIP3    H126454   5.350   2.032   2.033
 8830TIP3    H226455   5.323   2.106   2.162
 8831TIP3   OH226456   0.492   5.964   2.474
 8831TIP3    H126457   0.560   5.906   2.439
 8831TIP3    H226458   0.474   5.929   2.561
 8832TIP3   OH226459   3.626   0.133   0.279
 8832TIP3    H126460   3.689   0.203   0.260
 8832TIP3    H226461   3.631   0.075   0.204
 8833TIP3   OH226462   5.645   5.417   4.302
 8833TIP3    H126463   5.625   5.325   4.316
 8833TIP3    H226464   5.685   5.446   4.384
 8834TIP3   OH226465   3.261   0.556   1.023
 8834TIP3    H126466   3.211   0.605   0.957
 8834TIP3    H226467   3.283   0.473   0.980
 8835TIP3   OH226468   2.740   3.195   1.244
 8835TIP3    H126469   2.690   3.155   1.315
 8835TIP3    H226470   2.765   3.281   1.278
 8836TIP3   OH226471   0.968   1.010   1.652
 8836TIP3    H126472   1.002   0.937   1.600
 8836TIP3    H226473   0.891   1.040   1.605
 8837TIP3   OH226474   1.364   5.179   5.764
 8837TIP3    H126475   1.380   5.252   5.704
 8837TIP3    H226476   1.433   5.116   5.743
 8838TIP3   OH226477   6.129   4.355   4.456
 8838TIP3    H126478   6.136   4.315   4.543
 8838TIP3    H226479   6.219   4.354   4.422
 8839TIP3   OH226480   1.555   6.683   4.249
 8839TIP3    H126481   1.543   6.749   4.317
 8839TIP3    H226482   1.522   6.724   4.169
 8840TIP3   OH226483   1.398   2.001   5.704
 8840TIP3    H126484   1.441   2.084   5.683
 8840TIP3    H226485   1.330   2.024   5.767
 8841TIP3   OH226486   1.266   3.444   3.841
 8841TIP3    H126487   1.180   3.409   3.866
 8841TIP3    H226488   1.328   3.376   3.866
 8842TIP3   OH226489   5.791   3.826   4.055
 8842TIP3    H126490   5.741   3.907   4.043
 8842TIP3    H226491   5.879   3.848   4.026
 8843TIP3   OH226492   0.855   3.378   3.370
 8843TIP3    H126493   0.846   3.430   3.450
 8843TIP3    H226494   0.837   3.441   3.300
 8844TIP3   OH226495   3.345   1.433   5.362
 8844TIP3    H126496   3.270   1.395   5.407
 8844TIP3    H226497   3.308   1.503   5.309
 8845TIP3   OH226498   2.572   2.909   4.780
 8845TIP3    H126499   2.607   2.904   4.691
 8845TIP3    H226500   2.609   2.834   4.825
 8846TIP3   OH226501   3.044   1.294   1.374
 8846TIP3    H126502   3.111   1.348   1.414
 8846TIP3    H226503   3.088   1.249   1.302
 8847TIP3   OH226504   4.895   5.727   2.947
 8847TIP3    H126505   4.855   5.663   2.887
 8847TIP3    H226506   4.989   5.710   2.940
 8848TIP3   OH226507   7.146   1.632   5.366
 8848TIP3    H126508   7.192   1.598   5.443
 8848TIP3    H226509   7.053   1.625   5.389
 8849TIP3   OH226510   1.775   4.847   0.235
 8849TIP3    H126511   1.845   4.909   0.249
 8849TIP3    H226512   1.792   4.777   0.298
 8850TIP3   OH226513   6.626   4.881   4.171
 8850TIP3    H126514   6.603   4.790   4.190
 8850TIP3    H226515   6.543   4.927   4.172
 8851TIP3   OH226516   2.437   5.070   1.371
 8851TIP3    H126517   2.429   4.991   1.424
 8851TIP3    H226518   2.471   5.136   1.432
 8852TIP3   OH226519   3.739   5.341   3.992
 8852TIP3    H126520   3.738   5.358   4.086
 8852TIP3    H226521   3.753   5.247   3.984
 8853TIP3   OH226522   1.760   6.075   3.590
 8853TIP3    H126523   1.784   6.123   3.669
 8853TIP3    H226524   1.834   6.017   3.573
 8854TIP3   OH226525   1.382   6.737   2.980
 8854TIP3    H126526   1.402   6.749   2.887
 8854TIP3    H226527   1.466   6.715   3.020
 8855TIP3   OH226528   1.613   5.116   2.216
 8855TIP3    H126529   1.639   5.053   2.284
 8855TIP3    H226530   1.564   5.064   2.153
 8856TIP3   OH226531   0.654   2.275   4.546
 8856TIP3    H126532   0.718   2.216   4.507
 8856TIP3    H226533   0.628   2.231   4.627
 8857TIP3   OH226534   0.144   0.631   3.679
 8857TIP3    H126535   0.229   0.634   3.634
 8857TIP3    H226536   0.144   0.710   3.733
 8858TIP3   OH226537   3.770   5.914   0.949
 8858TIP3    H126538   3.804   5.946   0.866
 8858TIP3    H226539   3.699   5.855   0.925
 8859TIP3   OH226540   0.777   0.835   5.190
 8859TIP3    H126541   0.838   0.878   5.131
 8859TIP3    H226542   0.808   0.744   5.194
 8860TIP3   OH226543   1.829   4.116   5.811
 8860TIP3    H126544   1.922   4.094   5.815
 8860TIP3    H226545   1.784   4.034   5.833
 8861TIP3   OH226546   3.379   5.731   1.873
 8861TIP3    H126547   3.308   5.777   1.829
 8861TIP3    H226548   3.405   5.789   1.944
 8862TIP3   OH226549   1.972   4.055   3.536
 8862TIP3    H126550   1.910   4.051   3.464
 8862TIP3    H226551   1.982   3.965   3.565
 8863TIP3   OH226552   3.417   1.475   4.340
 8863TIP3    H126553   3.421   1.517   4.254
 8863TIP3    H226554   3.475   1.527   4.395
 8864TIP3   OH226555   4.755   4.691   0.845
 8864TIP3    H126556   4.831   4.703   0.902
 8864TIP3    H226557   4.757   4.768   0.787
 8865TIP3   OH226558   5.033   4.418   1.044
 8865TIP3    H126559   5.048   4.361   0.969
 8865TIP3    H226560   5.093   4.491   1.030
 8866TIP3   OH226561   6.655   1.571   4.474
 8866TIP3    H126562   6.731   1.531   4.517
 8866TIP3    H226563   6.580   1.528   4.516
 8867TIP3   OH226564   1.639   2.151   5.727
 8867TIP3    H126565   1.705   2.157   5.659
 8867TIP3    H226566   1.617   2.242   5.749
 8868TIP3   OH226567   6.497   4.367   2.796
 8868TIP3    H126568   6.429   4.330   2.740
 8868TIP3    H226569   6.474   4.459   2.805
 8869TIP3   OH226570   4.896   3.559   3.772
 8869TIP3    H126571   4.926   3.468   3.772
 8869TIP3    H226572   4.844   3.567   3.692
 8870TIP3   OH226573   2.688   3.952   4.465
 8870TIP3    H126574   2.637   4.023   4.426
 8870TIP3    H226575   2.752   3.996   4.521
 8871TIP3   OH226576   7.121   3.061   0.317
 8871TIP3    H126577   7.158   3.036   0.232
 8871TIP3    H226578   7.074   2.984   0.347
 8872TIP3   OH226579   6.055   2.314   2.746
 8872TIP3    H126580   6.085   2.229   2.714
 8872TIP3    H226581   5.994   2.293   2.817
 8873TIP3   OH226582   2.892   6.438   2.161
 8873TIP3    H126583   2.810   6.470   2.123
 8873TIP3    H226584   2.881   6.453   2.255
 8874TIP3   OH226585   3.764   6.139   3.154
 8874TIP3    H126586   3.709   6.064   3.132
 8874TIP3    H226587   3.827   6.144   3.081
 8875TIP3   OH226588   1.816   0.975   4.942
 8875TIP3    H126589   1.855   1.031   4.875
 8875TIP3    H226590   1.721   0.986   4.930
 8876TIP3   OH226591   4.219   2.631   3.019
 8876TIP3    H126592   4.290   2.691   2.995
 8876TIP3    H226593   4.231   2.615   3.112
 8877TIP3   OH226594   2.550   3.155   2.166
 8877TIP3    H126595   2.592   3.089   2.221
 8877TIP3    H226596   2.457   3.138   2.174
 8878TIP3   OH226597   1.416   0.949   2.083
 8878TIP3    H126598   1.451   0.983   2.166
 8878TIP3    H226599   1.322   0.943   2.097
 8879TIP3   OH226600   0.678   0.574   1.399
 8879TIP3    H126601   0.715   0.507   1.457
 8879TIP3    H226602   0.623   0.525   1.338
 8880TIP3   OH226603   0.437   3.836   1.020
 8880TIP3    H126604   0.430   3.895   1.095
 8880TIP3    H226605   0.442   3.894   0.944
 8881TIP3   OH226606   2.327   2.002   4.413
 8881TIP3    H126607   2.420   1.983   4.408
 8881TIP3    H226608   2.320   2.094   4.387
 8882TIP3   OH226609   2.107   0.443   1.047
 8882TIP3    H126610   2.143   0.354   1.048
 8882TIP3    H226611   2.183   0.499   1.032
 8883TIP3   OH226612   2.043   3.798   0.275
 8883TIP3    H126613   2.073   3.796   0.184
 8883TIP3    H226614   1.949   3.816   0.269
 8884TIP3   OH226615   0.204   5.853   1.313
 8884TIP3    H126616   0.185   5.762   1.289
 8884TIP3    H226617   0.259   5.885   1.242
 8885TIP3   OH226618   5.890   1.108   0.563
 8885TIP3    H126619   5.834   1.110   0.486
 8885TIP3    H226620   5.978   1.124   0.529
 8886TIP3   OH226621   0.600   2.060   5.807
 8886TIP3    H126622   0.658   2.116   5.754
 8886TIP3    H226623   0.656   2.029   5.878
 8887TIP3   OH226624   3.237   2.496   2.467
 8887TIP3    H126625   3.182   2.427   2.429
 8887TIP3    H226626   3.209   2.501   2.559
 8888TIP3   OH226627   3.334   6.643   0.940
 8888TIP3    H126628   3.424   6.636   0.909
 8888TIP3    H226629   3.320   6.737   0.952
 8889TIP3   OH226630   6.364   0.434   1.032
 8889TIP3    H126631   6.368   0.358   1.091
 8889TIP3    H226632   6.368   0.396   0.944
 8890TIP3   OH226633   4.109   2.044   5.839
 8890TIP3    H126634   4.167   2.094   5.781
 8890TIP3    H226635   4.168   1.988   5.889
 8891TIP3   OH226636   2.553   4.762   4.809
 8891TIP3    H126637   2.500   4.782   4.732
 8891TIP3    H226638   2.569   4.668   4.804
 8892TIP3   OH226639   5.522   6.367   2.977
 8892TIP3    H126640   5.611   6.401   2.983
 8892TIP3    H226641   5.525   6.284   3.026
 8893TIP3   OH226642   3.382   5.188   0.110
 8893TIP3    H126643   3.315   5.254   0.126
 8893TIP3    H226644   3.333   5.106   0.103
 8894TIP3   OH226645   1.611   3.875   0.685
 8894TIP3    H126646   1.644   3.836   0.604
 8894TIP3    H226647   1.592   3.800   0.742
 8895TIP3   OH226648   5.543   5.461   1.746
 8895TIP3    H126649   5.463   5.411   1.728
 8895TIP3    H226650   5.574   5.429   1.830
 8896TIP3   OH226651   1.917   2.375   4.857
 8896TIP3    H126652   1.866   2.449   4.892
 8896TIP3    H226653   2.008   2.404   4.864
 8897TIP3   OH226654   2.247   5.092   4.808
 8897TIP3    H126655   2.289   5.133   4.733
 8897TIP3    H226656   2.190   5.025   4.770
 8898TIP3   OH226657   3.547   0.173   2.659
 8898TIP3    H126658   3.613   0.142   2.596
 8898TIP3    H226659   3.509   0.093   2.694
 8899TIP3   OH226660   0.458   6.498   3.988
 8899TIP3    H126661   0.384   6.489   3.928
 8899TIP3    H226662   0.447   6.585   4.027
 8900TIP3   OH226663   0.788   4.936   5.037
 8900TIP3    H126664   0.733   4.936   4.959
 8900TIP3    H226665   0.785   4.846   5.069
 8901TIP3   OH226666   2.219   2.285   2.725
 8901TIP3    H126667   2.125   2.293   2.708
 8901TIP3    H226668   2.237   2.191   2.715
 8902TIP3   OH226669   5.662   1.940   1.089
 8902TIP3    H126670   5.610   1.989   1.153
 8902TIP3    H226671   5.605   1.869   1.061
 8903TIP3   OH226672   1.240   4.812   2.325
 8903TIP3    H126673   1.248   4.739   2.264
 8903TIP3    H226674   1.315   4.802   2.383
 8904TIP3   OH226675   0.067   5.855   4.450
 8904TIP3    H126676   0.083   5.909   4.527
 8904TIP3    H226677  -0.008   5.801   4.473
 8905TIP3   OH226678   4.040   6.678   1.845
 8905TIP3    H126679   4.088   6.596   1.827
 8905TIP3    H226680   3.950   6.659   1.818
 8906TIP3   OH226681   3.590   0.555   4.853
 8906TIP3    H126682   3.521   0.610   4.816
 8906TIP3    H226683   3.553   0.467   4.851
 8907TIP3   OH226684   4.407   4.217   1.137
 8907TIP3    H126685   4.357   4.198   1.216
 8907TIP3    H226686   4.460   4.139   1.122
 8908TIP3   OH226687   5.802   4.286   1.604
 8908TIP3    H126688   5.749   4.363   1.622
 8908TIP3    H226689   5.761   4.215   1.652
 8909TIP3   OH226690   0.522   2.833   1.569
 8909TIP3    H126691   0.595   2.889   1.594
 8909TIP3    H226692   0.451   2.858   1.628
 8910TIP3   OH226693   2.454   0.095   5.236
 8910TIP3    H126694   2.418   0.178   5.269
 8910TIP3    H226695   2.546   0.098   5.262
 8911TIP3   OH226696   5.436   6.214   1.112
 8911TIP3    H126697   5.426   6.143   1.176
 8911TIP3    H226698   5.412   6.174   1.028
 8912TIP3   OH226699   4.075   0.361   0.799
 8912TIP3    H126700   4.134   0.413   0.854
 8912TIP3    H226701   4.133   0.321   0.734
 8913TIP3   OH226702   4.078   1.753   2.184
 8913TIP3    H126703   4.136   1.823   2.213
 8913TIP3    H226704   3.991   1.793   2.184
 8914TIP3   OH226705   0.953   4.433   1.307
 8914TIP3    H126706   0.904   4.351   1.304
 8914TIP3    H226707   1.007   4.432   1.228
 8915TIP3   OH226708   5.340   3.150   1.938
 8915TIP3    H126709   5.337   3.054   1.944
 8915TIP3    H226710   5.400   3.176   2.008
 8916TIP3   OH226711   6.062   5.029   1.067
 8916TIP3    H126712   6.055   5.115   1.109
 8916TIP3    H226713   5.972   4.996   1.065
 8917TIP3   OH226714   3.888   5.892   5.114
 8917TIP3    H126715   3.945   5.933   5.179
 8917TIP3    H226716   3.835   5.830   5.165
 8918TIP3   OH226717   1.550   0.309   2.562
 8918TIP3    H126718   1.480   0.362   2.525
 8918TIP3    H226719   1.630   0.341   2.521
 8919TIP3   OH226720   3.737   1.397   3.745
 8919TIP3    H126721   3.735   1.301   3.734
 8919TIP3    H226722   3.652   1.419   3.781
 8920TIP3   OH226723   3.420   3.764   1.610
 8920TIP3    H126724   3.333   3.747   1.644
 8920TIP3    H226725   3.432   3.858   1.621
 8921TIP3   OH226726   1.382   3.397   5.826
 8921TIP3    H126727   1.390   3.491   5.836
 8921TIP3    H226728   1.330   3.369   5.902
 8922TIP3   OH226729   7.047   1.676   1.683
 8922TIP3    H126730   7.047   1.751   1.624
 8922TIP3    H226731   6.966   1.685   1.734
 8923TIP3   OH226732   0.420   0.045   1.913
 8923TIP3    H126733   0.454  -0.029   1.863
 8923TIP3    H226734   0.343   0.075   1.863
 8924TIP3   OH226735   1.291   3.712   5.058
 8924TIP3    H126736   1.367   3.675   5.012
 8924TIP3    H226737   1.324   3.732   5.146
 8925TIP3   OH226738   2.525   1.440   0.765
 8925TIP3    H126739   2.590   1.373   0.748
 8925TIP3    H226740   2.576   1.521   0.778
 8926TIP3   OH226741   5.192   6.077   2.111
 8926TIP3    H126742   5.148   6.007   2.062
 8926TIP3    H226743   5.277   6.085   2.068
 8927TIP3   OH226744   3.213   2.598   2.723
 8927TIP3    H126745   3.252   2.652   2.655
 8927TIP3    H226746   3.128   2.639   2.742
 8928TIP3   OH226747   2.264   5.614   5.393
 8928TIP3    H126748   2.282   5.588   5.302
 8928TIP3    H226749   2.275   5.709   5.393
 8929TIP3   OH226750   6.757   2.497   1.449
 8929TIP3    H126751   6.839   2.547   1.447
 8929TIP3    H226752   6.748   2.469   1.540
 8930TIP3   OH226753   5.670   5.426   1.051
 8930TIP3    H126754   5.647   5.476   0.973
 8930TIP3    H226755   5.644   5.482   1.124
 8931TIP3   OH226756   2.594   0.382   2.881
 8931TIP3    H126757   2.512   0.396   2.833
 8931TIP3    H226758   2.663   0.408   2.819
 8932TIP3   OH226759   3.121   4.980   1.685
 8932TIP3    H126760   3.048   4.929   1.651
 8932TIP3    H226761   3.151   5.032   1.611
 8933TIP3   OH226762   4.585   3.429   5.121
 8933TIP3    H126763   4.670   3.384   5.115
 8933TIP3    H226764   4.521   3.361   5.102
 8934TIP3   OH226765   3.923   4.406   1.747
 8934TIP3    H126766   3.976   4.330   1.723
 8934TIP3    H226767   3.952   4.475   1.688
 8935TIP3   OH226768   2.954   1.973   4.211
 8935TIP3    H126769   2.985   2.037   4.275
 8935TIP3    H226770   3.028   1.959   4.152
 8936TIP3   OH226771   2.718   4.119   2.524
 8936TIP3    H126772   2.743   4.029   2.545
 8936TIP3    H226773   2.647   4.138   2.586
 8937TIP3   OH226774   5.802   6.355   5.209
 8937TIP3    H126775   5.852   6.433   5.234
 8937TIP3    H226776   5.844   6.283   5.257
 8938TIP3   OH226777   7.035   0.248   5.565
 8938TIP3    H126778   7.017   0.338   5.538
 8938TIP3    H226779   6.974   0.232   5.637
 8939TIP3   OH226780   0.810   3.646   0.946
 8939TIP3    H126781   0.782   3.736   0.933
 8939TIP3    H226782   0.897   3.652   0.986
 8940TIP3   OH226783   4.983   5.249   1.523
 8940TIP3    H126784   5.077   5.263   1.526
 8940TIP3    H226785   4.956   5.243   1.615
 8941TIP3   OH226786   2.861   1.250   4.564
 8941TIP3    H126787   2.807   1.180   4.526
 8941TIP3    H226788   2.811   1.330   4.546
 8942TIP3   OH226789   5.897   6.534   2.834
 8942TIP3    H126790   5.865   6.617   2.798
 8942TIP3    H226791   5.927   6.485   2.758
 8943TIP3   OH226792   0.523   2.753   0.307
 8943TIP3    H126793   0.610   2.735   0.272
 8943TIP3    H226794   0.470   2.772   0.230
 8944TIP3   OH226795   0.839   1.220   2.031
 8944TIP3    H126796   0.863   1.288   1.968
 8944TIP3    H226797   0.744   1.223   2.035
 8945TIP3   OH226798   3.785   3.605   5.650
 8945TIP3    H126799   3.828   3.522   5.629
 8945TIP3    H226800   3.717   3.581   5.713
 8946TIP3   OH226801   4.785   6.730   0.008
 8946TIP3    H126802   4.822   6.812   0.041
 8946TIP3    H226803   4.706   6.716   0.060
 8947TIP3   OH226804   0.182   5.707   2.081
 8947TIP3    H126805   0.172   5.613   2.065
 8947TIP3    H226806   0.232   5.739   2.005
 8948TIP3   OH226807   6.769   0.508   2.559
 8948TIP3    H126808   6.684   0.550   2.567
 8948TIP3    H226809   6.750   0.421   2.525
 8949TIP3   OH226810   0.424   5.094   5.370
 8949TIP3    H126811   0.410   5.091   5.465
 8949TIP3    H226812   0.387   5.178   5.344
 8950TIP3   OH226813   4.715   5.585   0.636
 8950TIP3    H126814   4.650   5.525   0.671
 8950TIP3    H226815   4.680   5.611   0.551
 8951TIP3   OH226816   5.878   4.555   5.603
 8951TIP3    H126817   5.845   4.467   5.586
 8951TIP3    H226818   5.964   4.557   5.561
 8952TIP3   OH226819   5.447   4.698   5.551
 8952TIP3    H126820   5.406   4.751   5.619
 8952TIP3    H226821   5.373   4.656   5.506
 8953TIP3   OH226822   3.931   5.063   4.919
 8953TIP3    H126823   3.874   5.022   4.984
 8953TIP3    H226824   3.887   5.146   4.899
 8954TIP3   OH226825   4.207   5.441   0.904
 8954TIP3    H126826   4.123   5.486   0.895
 8954TIP3    H226827   4.210   5.379   0.831
 8955TIP3   OH226828   1.023   1.928   5.277
 8955TIP3    H126829   1.071   1.848   5.299
 8955TIP3    H226830   1.005   1.921   5.183
 8956TIP3   OH226831   5.836   6.340   3.008
 8956TIP3    H126832   5.878   6.413   2.962
 8956TIP3    H226833   5.839   6.268   2.946
 8957TIP3   OH226834   2.577   2.102   4.682
 8957TIP3    H126835   2.502   2.161   4.672
 8957TIP3    H226836   2.651   2.160   4.702
 8958TIP3   OH226837   2.217   4.881   3.706
 8958TIP3    H126838   2.125   4.881   3.733
 8958TIP3    H226839   2.215   4.861   3.612
 8959TIP3   OH226840   2.788   1.385   2.337
 8959TIP3    H126841   2.758   1.398   2.427
 8959TIP3    H226842   2.848   1.310   2.343
 8960TIP3   OH226843   5.265   3.177   0.324
 8960TIP3    H126844   5.279   3.271   0.325
 8960TIP3    H226845   5.351   3.139   0.341
 8961TIP3   OH226846   4.620   1.856   0.838
 8961TIP3    H126847   4.668   1.923   0.788
 8961TIP3    H226848   4.554   1.823   0.777
 8962TIP3   OH226849   4.337   0.146   3.889
 8962TIP3    H126850   4.319   0.192   3.971
 8962TIP3    H226851   4.252   0.112   3.862
 8963TIP3   OH226852   0.958   4.576   2.715
 8963TIP3    H126853   0.942   4.485   2.742
 8963TIP3    H226854   0.982   4.621   2.795
 8964TIP3   OH226855   6.598   1.567   1.708
 8964TIP3    H126856   6.591   1.475   1.680
 8964TIP3    H226857   6.522   1.609   1.667
 8965TIP3   OH226858   0.995   4.892   0.452
 8965TIP3    H126859   0.910   4.857   0.479
 8965TIP3    H226860   1.023   4.946   0.526
 8966TIP3   OH226861   5.612   0.166   4.870
 8966TIP3    H126862   5.614   0.152   4.776
 8966TIP3    H226863   5.703   0.183   4.894
 8967TIP3   OH226864   0.460   5.272   4.636
 8967TIP3    H126865   0.413   5.209   4.581
 8967TIP3    H226866   0.496   5.336   4.575
 8968TIP3   OH226867   3.895   5.422   1.366
 8968TIP3    H126868   3.954   5.367   1.314
 8968TIP3    H226869   3.952   5.465   1.430
 8969TIP3   OH226870   2.121   1.456   1.829
 8969TIP3    H126871   2.089   1.541   1.860
 8969TIP3    H226872   2.152   1.411   1.908
 8970TIP3   OH226873   1.068   0.800   5.032
 8970TIP3    H126874   1.075   0.781   4.938
 8970TIP3    H226875   1.032   0.720   5.070
 8971TIP3   OH226876   6.137   4.139   1.907
 8971TIP3    H126877   6.210   4.135   1.968
 8971TIP3    H226878   6.126   4.049   1.877
 8972TIP3   OH226879   4.477   3.805   3.773
 8972TIP3    H126880   4.503   3.892   3.742
 8972TIP3    H226881   4.404   3.781   3.717
 8973TIP3   OH226882   4.683   0.159   4.027
 8973TIP3    H126883   4.589   0.178   4.026
 8973TIP3    H226884   4.689   0.066   4.048
 8974TIP3   OH226885   0.943   0.353   0.719
 8974TIP3    H126886   0.979   0.275   0.761
 8974TIP3    H226887   1.019   0.398   0.682
 8975TIP3   OH226888   2.529   3.867   2.339
 8975TIP3    H126889   2.497   3.798   2.281
 8975TIP3    H226890   2.616   3.837   2.366
 8976TIP3   OH226891   4.567   1.846   0.149
 8976TIP3    H126892   4.633   1.894   0.199
 8976TIP3    H226893   4.550   1.900   0.072
 8977TIP3   OH226894   0.974   1.548   3.739
 8977TIP3    H126895   1.065   1.540   3.710
 8977TIP3    H226896   0.964   1.481   3.806
 8978TIP3   OH226897   5.594   1.120   4.658
 8978TIP3    H126898   5.594   1.057   4.587
 8978TIP3    H226899   5.507   1.113   4.697
 8979TIP3   OH226900   2.757   4.079   1.815
 8979TIP3    H126901   2.787   4.106   1.728
 8979TIP3    H226902   2.835   4.082   1.870
 8980TIP3   OH226903   2.610   2.527   1.742
 8980TIP3    H126904   2.535   2.587   1.742
 8980TIP3    H226905   2.653   2.542   1.658
 8981TIP3   OH226906   2.387   1.615   5.491
 8981TIP3    H126907   2.462   1.564   5.524
 8981TIP3    H226908   2.331   1.627   5.568
 8982TIP3   OH226909   2.067   0.290   0.607
 8982TIP3    H126910   2.070   0.350   0.681
 8982TIP3    H226911   2.062   0.346   0.530
 8983TIP3   OH226912   1.713   4.484   4.749
 8983TIP3    H126913   1.738   4.549   4.815
 8983TIP3    H226914   1.636   4.522   4.706
 8984TIP3   OH226915   4.529   1.276   2.477
 8984TIP3    H126916   4.443   1.261   2.437
 8984TIP3    H226917   4.535   1.210   2.546
 8985TIP3   OH226918   1.998   1.812   0.382
 8985TIP3    H126919   2.084   1.769   0.383
 8985TIP3    H226920   1.935   1.740   0.387
 8986TIP3   OH226921   5.592   3.984   1.868
 8986TIP3    H126922   5.624   4.029   1.946
 8986TIP3    H226923   5.541   3.911   1.903
 8987TIP3   OH226924   5.568   5.329   5.057
 8987TIP3    H126925   5.662   5.336   5.042
 8987TIP3    H226926   5.527   5.363   4.977
 8988TIP3   OH226927   5.033   2.799   5.169
 8988TIP3    H126928   4.946   2.794   5.207
 8988TIP3    H226929   5.030   2.874   5.110
 8989TIP3   OH226930   0.712   1.770   2.833
 8989TIP3    H126931   0.625   1.808   2.847
 8989TIP3    H226932   0.761   1.794   2.911
 8990TIP3   OH226933   2.151   1.787   4.330
 8990TIP3    H126934   2.219   1.853   4.346
 8990TIP3    H226935   2.197   1.704   4.329
 8991TIP3   OH226936   3.539   1.382   5.729
 8991TIP3    H126937   3.609   1.357   5.789
 8991TIP3    H226938   3.528   1.306   5.671
 8992TIP3   OH226939   5.876   3.437   3.975
 8992TIP3    H126940   5.952   3.475   3.929
 8992TIP3    H226941   5.824   3.397   3.905
 8993TIP3   OH226942   0.836   0.481   2.941
 8993TIP3    H126943   0.814   0.467   2.849
 8993TIP3    H226944   0.757   0.455   2.989
 8994TIP3   OH226945   2.704   1.464   3.362
 8994TIP3    H126946   2.752   1.453   3.444
 8994TIP3    H226947   2.747   1.405   3.300
 8995TIP3   OH226948   4.610   3.629   4.205
 8995TIP3    H126949   4.692   3.582   4.221
 8995TIP3    H226950   4.610   3.645   4.110
 8996TIP3   OH226951   1.448   1.918   2.385
 8996TIP3    H126952   1.385   1.855   2.350
 8996TIP3    H226953   1.460   1.891   2.476
 8997TIP3   OH226954   1.882   5.364   0.333
 8997TIP3    H126955   1.906   5.455   0.317
 8997TIP3    H226956   1.905   5.348   0.424
 8998TIP3   OH226957   6.865   4.362   2.741
 8998TIP3    H126958   6.914   4.295   2.788
 8998TIP3    H226959   6.877   4.441   2.793
 8999TIP3   OH226960   4.290   5.983   4.627
 8999TIP3    H126961   4.338   5.900   4.620
 8999TIP3    H226962   4.310   6.014   4.715
 9000TIP3   OH226963   6.741   3.417   3.378
 9000TIP3    H126964   6.725   3.427   3.284
 9000TIP3    H226965   6.669   3.464   3.421
 9001TIP3   OH226966   2.951   5.788   3.827
 9001TIP3    H126967   3.008   5.747   3.763
 9001TIP3    H226968   3.010   5.832   3.888
 9002TIP3   OH226969   1.556   2.838   3.484
 9002TIP3    H126970   1.585   2.923   3.519
 9002TIP3    H226971   1.468   2.826   3.521
 9003TIP3   OH226972   6.403   1.167   4.307
 9003TIP3    H126973   6.494   1.158   4.279
 9003TIP3    H226974   6.365   1.081   4.294
 9004TIP3   OH226975   2.764   0.076   1.452
 9004TIP3    H126976   2.840   0.124   1.419
 9004TIP3    H226977   2.798   0.026   1.527
 9005TIP3   OH226978   6.311   5.635   1.962
 9005TIP3    H126979   6.382   5.576   1.984
 9005TIP3    H226980   6.236   5.602   2.012
 9006TIP3   OH226981   2.667   2.340   0.581
 9006TIP3    H126982   2.732   2.400   0.543
 9006TIP3    H226983   2.626   2.299   0.505
 9007TIP3   OH226984   0.715   6.459   0.070
 9007TIP3    H126985   0.640   6.517   0.059
 9007TIP3    H226986   0.768   6.500   0.139
 9008TIP3   OH226987   6.398   5.985   2.150
 9008TIP3    H126988   6.341   6.059   2.168
 9008TIP3    H226989   6.399   5.978   2.055
 9009TIP3   OH226990   0.296   3.798   1.317
 9009TIP3    H126991   0.232   3.813   1.386
 9009TIP3    H226992   0.282   3.707   1.290
 9010TIP3   OH226993   1.170   5.408   3.934
 9010TIP3    H126994   1.209   5.478   3.882
 9010TIP3    H226995   1.242   5.373   3.986
 9011TIP3   OH226996   6.569   3.384   2.014
 9011TIP3    H126997   6.647   3.368   1.961
 9011TIP3    H226998   6.519   3.448   1.964
 9012TIP3   OH226999   7.057   4.523   5.631
 9012TIP3    H127000   7.127   4.483   5.580
 9012TIP3    H227001   7.012   4.580   5.569
 9013TIP3   OH227002   1.107   3.087   4.880
 9013TIP3    H127003   1.098   3.114   4.971
 9013TIP3    H227004   1.034   3.027   4.865
 9014TIP3   OH227005   6.058   5.744   0.064
 9014TIP3    H127006   6.047   5.649   0.067
 9014TIP3    H227007   5.978   5.777   0.024
 9015TIP3   OH227008   4.032   3.150   2.473
 9015TIP3    H127009   4.010   3.166   2.564
 9015TIP3    H227010   4.033   3.054   2.465
 9016TIP3   OH227011   5.874   1.797   0.041
 9016TIP3    H127012   5.894   1.812   0.133
 9016TIP3    H227013   5.959   1.783   0.000
 9017TIP3   OH227014   5.425   0.631   3.392
 9017TIP3    H127015   5.466   0.548   3.367
 9017TIP3    H227016   5.458   0.694   3.327
 9018TIP3   OH227017   4.726   4.110   5.637
 9018TIP3    H127018   4.800   4.131   5.579
 9018TIP3    H227019   4.672   4.188   5.636
 9019TIP3   OH227020   1.726   6.726   2.727
 9019TIP3    H127021   1.759   6.794   2.786
 9019TIP3    H227022   1.643   6.699   2.766
 9020TIP3   OH227023   6.797   0.484   3.214
 9020TIP3    H127024   6.862   0.555   3.214
 9020TIP3    H227025   6.713   0.529   3.202
 9021TIP3   OH227026   5.923   2.173   3.193
 9021TIP3    H127027   5.896   2.084   3.170
 9021TIP3    H227028   5.841   2.218   3.215
 9022TIP3   OH227029   1.630   6.544   3.049
 9022TIP3    H127030   1.608   6.476   3.112
 9022TIP3    H227031   1.655   6.620   3.102
 9023TIP3   OH227032   2.258   5.966   4.131
 9023TIP3    H127033   2.311   5.990   4.207
 9023TIP3    H227034   2.184   5.918   4.168
 9024TIP3   OH227035   6.427   1.053   0.944
 9024TIP3    H127036   6.401   0.994   0.873
 9024TIP3    H227037   6.523   1.047   0.945
 9025TIP3   OH227038   0.574   3.174   3.496
 9025TIP3    H127039   0.522   3.110   3.544
 9025TIP3    H227040   0.633   3.211   3.561
 9026TIP3   OH227041   4.530   0.557   0.123
 9026TIP3    H127042   4.514   0.614   0.199
 9026TIP3    H227043   4.612   0.589   0.086
 9027TIP3   OH227044   4.426   4.729   4.954
 9027TIP3    H127045   4.460   4.817   4.938
 9027TIP3    H227046   4.454   4.708   5.043
 9028TIP3   OH227047   0.917   2.617   5.527
 9028TIP3    H127048   0.940   2.542   5.582
 9028TIP3    H227049   0.826   2.636   5.549
 9029TIP3   OH227050   6.994   2.006   5.439
 9029TIP3    H127051   7.032   2.079   5.488
 9029TIP3    H227052   7.042   1.929   5.470
 9030TIP3   OH227053   6.336   4.634   4.017
 9030TIP3    H127054   6.405   4.628   4.084
 9030TIP3    H227055   6.289   4.714   4.040
 9031TIP3   OH227056   1.424   5.866   0.227
 9031TIP3    H127057   1.476   5.910   0.160
 9031TIP3    H227058   1.341   5.846   0.184
 9032TIP3   OH227059   6.874   5.443   2.574
 9032TIP3    H127060   6.848   5.478   2.489
 9032TIP3    H227061   6.810   5.479   2.635
 9033TIP3   OH227062   2.511   5.759   1.201
 9033TIP3    H127063   2.549   5.823   1.141
 9033TIP3    H227064   2.552   5.779   1.286
 9034TIP3   OH227065   1.682   0.624   0.051
 9034TIP3    H127066   1.681   0.718   0.065
 9034TIP3    H227067   1.686   0.586   0.139
 9035TIP3   OH227068   5.091   2.982   0.199
 9035TIP3    H127069   5.029   3.018   0.135
 9035TIP3    H227070   5.118   3.058   0.250
 9036TIP3   OH227071   4.572   4.663   5.625
 9036TIP3    H127072   4.504   4.667   5.558
 9036TIP3    H227073   4.645   4.619   5.582
 9037TIP3   OH227074   2.677   6.603   3.987
 9037TIP3    H127075   2.735   6.536   3.952
 9037TIP3    H227076   2.721   6.635   4.066
 9038TIP3   OH227077   3.132   0.054   3.284
 9038TIP3    H127078   3.163   0.024   3.369
 9038TIP3    H227079   3.046   0.092   3.302
 9039TIP3   OH227080   5.796   3.129   1.888
 9039TIP3    H127081   5.769   3.108   1.977
 9039TIP3    H227082   5.891   3.135   1.892
 9040TIP3   OH227083   1.777   1.722   2.767
 9040TIP3    H127084   1.730   1.753   2.690
 9040TIP3    H227085   1.826   1.799   2.798
 9041TIP3   OH227086   3.869   3.252   1.362
 9041TIP3    H127087   3.927   3.229   1.289
 9041TIP3    H227088   3.820   3.329   1.330
 9042TIP3   OH227089   2.015   2.562   1.599
 9042TIP3    H127090   1.928   2.594   1.621
 9042TIP3    H227091   2.035   2.498   1.667
 9043TIP3   OH227092   0.306   5.896   3.729
 9043TIP3    H127093   0.255   5.958   3.678
 9043TIP3    H227094   0.248   5.821   3.742
 9044TIP3   OH227095   6.595   2.706   0.341
 9044TIP3    H127096   6.645   2.713   0.423
 9044TIP3    H227097   6.661   2.688   0.274
 9045TIP3   OH227098   3.957   5.592   0.945
 9045TIP3    H127099   3.918   5.653   0.883
 9045TIP3    H227100   3.923   5.619   1.030
 9046TIP3   OH227101   6.033   6.463   0.609
 9046TIP3    H127102   6.006   6.390   0.665
 9046TIP3    H227103   6.128   6.466   0.618
 9047TIP3   OH227104   2.809   4.845   0.549
 9047TIP3    H127105   2.782   4.927   0.590
 9047TIP3    H227106   2.781   4.777   0.611
 9048TIP3   OH227107   6.193   5.143   5.705
 9048TIP3    H127108   6.204   5.051   5.729
 9048TIP3    H227109   6.182   5.142   5.610
 9049TIP3   OH227110   3.798   3.842   4.568
 9049TIP3    H127111   3.774   3.766   4.515
 9049TIP3    H227112   3.833   3.905   4.506
 9050TIP3   OH227113   1.831   5.734   2.649
 9050TIP3    H127114   1.925   5.742   2.662
 9050TIP3    H227115   1.793   5.788   2.718
 9051TIP3   OH227116   6.989   4.948   3.804
 9051TIP3    H127117   7.071   4.991   3.827
 9051TIP3    H227118   7.014   4.861   3.775
 9052TIP3   OH227119   1.327   3.785   3.321
 9052TIP3    H127120   1.350   3.799   3.413
 9052TIP3    H227121   1.309   3.691   3.315
 9053TIP3   OH227122   6.994   5.503   3.223
 9053TIP3    H127123   7.075   5.538   3.186
 9053TIP3    H227124   6.943   5.477   3.146
 9054TIP3   OH227125   6.711   0.138   5.023
 9054TIP3    H127126   6.651   0.196   4.976
 9054TIP3    H227127   6.679   0.139   5.113
 9055TIP3   OH227128   5.224   4.723   5.043
 9055TIP3    H127129   5.290   4.674   4.994
 9055TIP3    H227130   5.259   4.812   5.047
 9056TIP3   OH227131   0.639   6.392   5.847
 9056TIP3    H127132   0.715   6.334   5.853
 9056TIP3    H227133   0.565   6.333   5.834
 9057TIP3   OH227134   1.774   5.845   3.863
 9057TIP3    H127135   1.811   5.916   3.916
 9057TIP3    H227136   1.757   5.775   3.926
 9058TIP3   OH227137   2.738   0.217   2.098
 9058TIP3    H127138   2.717   0.145   2.038
 9058TIP3    H227139   2.833   0.220   2.100
 9059TIP3   OH227140   5.058   1.814   3.587
 9059TIP3    H127141   5.058   1.845   3.678
 9059TIP3    H227142   5.003   1.877   3.541
 9060TIP3   OH227143   0.659   0.255   3.876
 9060TIP3    H127144   0.630   0.273   3.786
 9060TIP3    H227145   0.677   0.342   3.912
 9061TIP3   OH227146   5.543   4.781   4.881
 9061TIP3    H127147   5.506   4.696   4.860
 9061TIP3    H227148   5.606   4.797   4.810
 9062TIP3   OH227149   5.087   1.584   4.966
 9062TIP3    H127150   5.093   1.558   5.058
 9062TIP3    H227151   5.016   1.648   4.964
 9063TIP3   OH227152   4.359   1.197   3.616
 9063TIP3    H127153   4.363   1.103   3.637
 9063TIP3    H227154   4.274   1.225   3.648
 9064TIP3   OH227155   0.308   5.236   0.508
 9064TIP3    H127156   0.399   5.231   0.539
 9064TIP3    H227157   0.265   5.161   0.548
 9065TIP3   OH227158   2.878   3.137   1.840
 9065TIP3    H127159   2.822   3.071   1.799
 9065TIP3    H227160   2.877   3.211   1.779
 9066TIP3   OH227161   1.047   0.789   0.411
 9066TIP3    H127162   1.005   0.822   0.491
 9066TIP3    H227163   1.058   0.867   0.356
 9067TIP3   OH227164   0.532   5.154   3.848
 9067TIP3    H127165   0.471   5.085   3.875
 9067TIP3    H227166   0.588   5.113   3.782
 9068TIP3   OH227167   3.521   0.935   1.476
 9068TIP3    H127168   3.558   0.991   1.407
 9068TIP3    H227169   3.436   0.907   1.441
 9069TIP3   OH227170   1.405   2.054   2.938
 9069TIP3    H127171   1.436   2.043   3.028
 9069TIP3    H227172   1.380   1.966   2.910
 9070TIP3   OH227173   6.143   3.120   3.152
 9070TIP3    H127174   6.203   3.046   3.145
 9070TIP3    H227175   6.065   3.084   3.194
 9071TIP3   OH227176   3.426   3.178   1.573
 9071TIP3    H127177   3.471   3.239   1.631
 9071TIP3    H227178   3.471   3.187   1.489
 9072TIP3   OH227179   4.614   3.188   1.853
 9072TIP3    H127180   4.692   3.140   1.825
 9072TIP3    H227181   4.648   3.266   1.897
 9073TIP3   OH227182   2.867   4.334   3.912
 9073TIP3    H127183   2.948   4.369   3.876
 9073TIP3    H227184   2.867   4.363   4.004
 9074TIP3   OH227185   0.750   4.558   4.549
 9074TIP3    H127186   0.794   4.482   4.512
 9074TIP3    H227187   0.793   4.633   4.509
 9075TIP3   OH227188   5.918   0.409   3.589
 9075TIP3    H127189   6.003   0.451   3.581
 9075TIP3    H227190   5.930   0.323   3.549
 9076TIP3   OH227191   5.939   4.187   5.421
 9076TIP3    H127192   6.007   4.211   5.483
 9076TIP3    H227193   5.863   4.166   5.475
 9077TIP3   OH227194   6.407   5.465   3.315
 9077TIP3    H127195   6.391   5.558   3.301
 9077TIP3    H227196   6.462   5.439   3.241
 9078TIP3   OH227197   3.650   1.905   4.060
 9078TIP3    H127198   3.738   1.868   4.059
 9078TIP3    H227199   3.639   1.943   3.973
 9079TIP3   OH227200   1.266   0.589   2.243
 9079TIP3    H127201   1.261   0.675   2.202
 9079TIP3    H227202   1.339   0.596   2.305
 9080TIP3   OH227203   6.379   1.480   1.111
 9080TIP3    H127204   6.342   1.405   1.065
 9080TIP3    H227205   6.308   1.544   1.113
 9081TIP3   OH227206   3.502   3.793   2.341
 9081TIP3    H127207   3.435   3.850   2.302
 9081TIP3    H227208   3.546   3.848   2.405
 9082TIP3   OH227209   6.210   2.506   2.634
 9082TIP3    H127210   6.161   2.437   2.679
 9082TIP3    H227211   6.279   2.530   2.695
 9083TIP3   OH227212   0.267   2.568   3.885
 9083TIP3    H127213   0.280   2.619   3.805
 9083TIP3    H227214   0.355   2.540   3.910
 9084TIP3   OH227215   5.354   2.437   0.712
 9084TIP3    H127216   5.298   2.512   0.692
 9084TIP3    H227217   5.434   2.475   0.748
 9085TIP3   OH227218   4.285   6.742   3.162
 9085TIP3    H127219   4.294   6.746   3.257
 9085TIP3    H227220   4.273   6.833   3.134
 9086TIP3   OH227221   5.345   4.370   1.776
 9086TIP3    H127222   5.271   4.321   1.739
 9086TIP3    H227223   5.421   4.315   1.758
 9087TIP3   OH227224   0.839   2.369   0.023
 9087TIP3    H127225   0.853   2.296   0.083
 9087TIP3    H227226   0.918   2.373  -0.030
 9088TIP3   OH227227   6.401   3.130   0.647
 9088TIP3    H127228   6.416   3.118   0.554
 9088TIP3    H227229   6.322   3.080   0.666
 9089TIP3   OH227230   1.549   1.079   1.866
 9089TIP3    H127231   1.465   1.097   1.823
 9089TIP3    H227232   1.525   1.039   1.950
 9090TIP3   OH227233   5.261   3.168   2.914
 9090TIP3    H127234   5.228   3.227   2.982
 9090TIP3    H227235   5.208   3.089   2.923
 9091TIP3   OH227236   3.428   1.718   1.019
 9091TIP3    H127237   3.511   1.763   1.034
 9091TIP3    H227238   3.443   1.662   0.943
 9092TIP3   OH227239   1.279   5.379   2.004
 9092TIP3    H127240   1.347   5.314   1.987
 9092TIP3    H227241   1.197   5.331   1.990
 9093TIP3   OH227242   4.534   6.107   0.547
 9093TIP3    H127243   4.623   6.075   0.558
 9093TIP3    H227244   4.492   6.090   0.632
 9094TIP3   OH227245   3.288   4.390   0.132
 9094TIP3    H127246   3.342   4.452   0.083
 9094TIP3    H227247   3.198   4.415   0.111
 9095TIP3   OH227248   4.965   3.068   4.700
 9095TIP3    H127249   4.892   3.009   4.679
 9095TIP3    H227250   4.923   3.150   4.724
 9096TIP3   OH227251   2.792   0.544   5.266
 9096TIP3    H127252   2.711   0.592   5.244
 9096TIP3    H227253   2.835   0.599   5.332
 9097TIP3   OH227254   3.851   3.174   0.300
 9097TIP3    H127255   3.791   3.248   0.308
 9097TIP3    H227256   3.929   3.210   0.256
 9098TIP3   OH227257   6.350   5.669   0.422
 9098TIP3    H127258   6.397   5.652   0.340
 9098TIP3    H227259   6.263   5.697   0.394
 9099TIP3   OH227260   6.620   4.381   3.148
 9099TIP3    H127261   6.708   4.417   3.141
 9099TIP3    H227262   6.563   4.457   3.145
 9100TIP3   OH227263   1.266   3.108   5.821
 9100TIP3    H127264   1.333   3.085   5.885
 9100TIP3    H227265   1.302   3.185   5.776
 9101TIP3   OH227266   2.702   2.033   1.109
 9101TIP3    H127267   2.728   2.116   1.068
 9101TIP3    H227268   2.738   2.037   1.197
 9102TIP3   OH227269   0.632   2.524   3.160
 9102TIP3    H127270   0.657   2.604   3.113
 9102TIP3    H227271   0.714   2.476   3.171
 9103TIP3   OH227272   6.297   5.900   1.651
 9103TIP3    H127273   6.364   5.857   1.599
 9103TIP3    H227274   6.232   5.929   1.588
 9104TIP3   OH227275   4.772   4.421   0.813
 9104TIP3    H127276   4.781   4.397   0.905
 9104TIP3    H227277   4.765   4.516   0.813
 9105TIP3   OH227278   2.208   2.390   1.139
 9105TIP3    H127279   2.205   2.473   1.188
 9105TIP3    H227280   2.159   2.328   1.193
 9106TIP3   OH227281   5.096   1.089   3.146
 9106TIP3    H127282   5.096   1.148   3.221
 9106TIP3    H227283   5.004   1.064   3.135
 9107TIP3   OH227284   4.196   3.437   5.130
 9107TIP3    H127285   4.212   3.500   5.200
 9107TIP3    H227286   4.213   3.352   5.170
 9108TIP3   OH227287   5.026   4.746   2.511
 9108TIP3    H127288   5.026   4.660   2.552
 9108TIP3    H227289   4.942   4.751   2.465
 9109TIP3   OH227290   4.001   4.223   3.955
 9109TIP3    H127291   3.992   4.317   3.944
 9109TIP3    H227292   3.992   4.209   4.049
 9110TIP3   OH227293   2.470   3.607   1.087
 9110TIP3    H127294   2.554   3.654   1.088
 9110TIP3    H227295   2.492   3.519   1.058
 9111TIP3   OH227296   4.830   0.025   1.347
 9111TIP3    H127297   4.922   0.001   1.334
 9111TIP3    H227298   4.828   0.063   1.435
 9112TIP3   OH227299   3.687   2.375   0.171
 9112TIP3    H127300   3.655   2.427   0.097
 9112TIP3    H227301   3.652   2.287   0.154
 9113TIP3   OH227302   1.379   3.909   0.310
 9113TIP3    H127303   1.398   3.883   0.220
 9113TIP3    H227304   1.412   3.836   0.364
 9114TIP3   OH227305   0.203   0.278   0.402
 9114TIP3    H127306   0.244   0.247   0.483
 9114TIP3    H227307   0.274   0.321   0.354
 9115TIP3   OH227308   4.915   3.488   5.563
 9115TIP3    H127309   4.982   3.525   5.622
 9115TIP3    H227310   4.878   3.564   5.518
 9116TIP3   OH227311   0.917   6.526   2.984
 9116TIP3    H127312   0.982   6.552   3.049
 9116TIP3    H227313   0.969   6.488   2.912
 9117TIP3   OH227314   3.683   4.891   2.289
 9117TIP3    H127315   3.778   4.898   2.288
 9117TIP3    H227316   3.652   4.960   2.231
 9118TIP3   OH227317   4.841   2.324   4.724
 9118TIP3    H127318   4.857   2.386   4.653
 9118TIP3    H227319   4.756   2.351   4.759
 9119TIP3   OH227320   2.260   2.698   3.109
 9119TIP3    H127321   2.347   2.665   3.132
 9119TIP3    H227322   2.252   2.679   3.015
 9120TIP3   OH227323   1.068   1.058   1.982
 9120TIP3    H127324   1.067   1.047   1.887
 9120TIP3    H227325   0.997   1.119   2.000
 9121TIP3   OH227326   1.928   2.106   1.387
 9121TIP3    H127327   1.967   2.193   1.400
 9121TIP3    H227328   1.940   2.088   1.293
 9122TIP3   OH227329   1.753   1.451   1.285
 9122TIP3    H127330   1.789   1.376   1.238
 9122TIP3    H227331   1.673   1.473   1.237
 9123TIP3   OH227332   4.919   2.583   1.505
 9123TIP3    H127333   4.930   2.588   1.410
 9123TIP3    H227334   4.915   2.489   1.523
 9124TIP3   OH227335   3.167   4.155   4.719
 9124TIP3    H127336   3.245   4.177   4.669
 9124TIP3    H227337   3.157   4.060   4.707
 9125TIP3   OH227338   6.811   5.778   3.987
 9125TIP3    H127339   6.752   5.775   4.063
 9125TIP3    H227340   6.851   5.865   3.992
 9126TIP3   OH227341   3.839   5.158   1.064
 9126TIP3    H127342   3.907   5.098   1.035
 9126TIP3    H227343   3.886   5.236   1.092
 9127TIP3   OH227344   0.486   1.758   2.054
 9127TIP3    H127345   0.570   1.716   2.074
 9127TIP3    H227346   0.424   1.686   2.045
 9128TIP3   OH227347   2.338   3.592   1.628
 9128TIP3    H127348   2.274   3.595   1.556
 9128TIP3    H227349   2.403   3.528   1.599
 9129TIP3   OH227350   7.064   4.351   0.163
 9129TIP3    H127351   7.028   4.416   0.224
 9129TIP3    H227352   6.988   4.298   0.137
 9130TIP3   OH227353   1.031   5.998   5.322
 9130TIP3    H127354   1.074   5.986   5.406
 9130TIP3    H227355   1.005   6.090   5.320
 9131TIP3   OH227356   6.188   5.175   0.184
 9131TIP3    H127357   6.166   5.137   0.269
 9131TIP3    H227358   6.117   5.148   0.126
 9132TIP3   OH227359   6.351   6.522   1.300
 9132TIP3    H127360   6.336   6.616   1.306
 9132TIP3    H227361   6.362   6.505   1.207
 9133TIP3   OH227362   6.387   2.859   3.454
 9133TIP3    H127363   6.468   2.862   3.506
 9133TIP3    H227364   6.318   2.849   3.520
 9134TIP3   OH227365   0.426   0.227   1.014
 9134TIP3    H127366   0.416   0.303   0.956
 9134TIP3    H227367   0.459   0.157   0.957
 9135TIP3   OH227368   3.681   0.344   4.621
 9135TIP3    H127369   3.585   0.341   4.622
 9135TIP3    H227370   3.707   0.324   4.711
 9136TIP3   OH227371   5.662   2.219   4.049
 9136TIP3    H127372   5.654   2.183   4.137
 9136TIP3    H227373   5.620   2.305   4.054
 9137TIP3   OH227374   1.763   1.243   0.087
 9137TIP3    H127375   1.823   1.318   0.097
 9137TIP3    H227376   1.776   1.215  -0.003
 9138TIP3   OH227377   6.805   1.937   3.470
 9138TIP3    H127378   6.884   1.985   3.446
 9138TIP3    H227379   6.818   1.850   3.431
 9139TIP3   OH227380   2.797   3.790   1.885
 9139TIP3    H127381   2.735   3.854   1.851
 9139TIP3    H227382   2.812   3.817   1.976
 9140TIP3   OH227383   5.316   1.872   2.633
 9140TIP3    H127384   5.308   1.839   2.544
 9140TIP3    H227385   5.285   1.962   2.628
 9141TIP3   OH227386   4.021   3.930   3.655
 9141TIP3    H127387   4.064   3.850   3.626
 9141TIP3    H227388   3.960   3.902   3.722
 9142TIP3   OH227389   3.827   2.106   3.931
 9142TIP3    H127390   3.751   2.143   3.977
 9142TIP3    H227391   3.901   2.126   3.987
 9143TIP3   OH227392   5.771   2.495   3.465
 9143TIP3    H127393   5.758   2.531   3.377
 9143TIP3    H227394   5.687   2.454   3.486
 9144TIP3   OH227395   4.783   4.689   4.273
 9144TIP3    H127396   4.831   4.720   4.351
 9144TIP3    H227397   4.817   4.600   4.259
 9145TIP3   OH227398   2.696   1.069   0.319
 9145TIP3    H127399   2.642   1.074   0.399
 9145TIP3    H227400   2.752   0.993   0.333
 9146TIP3   OH227401   2.202   6.510   3.618
 9146TIP3    H127402   2.158   6.593   3.637
 9146TIP3    H227403   2.210   6.508   3.522
 9147TIP3   OH227404   2.676   4.414   5.781
 9147TIP3    H127405   2.634   4.466   5.849
 9147TIP3    H227406   2.765   4.449   5.776
 9148TIP3   OH227407   1.793   3.537   1.386
 9148TIP3    H127408   1.707   3.514   1.419
 9148TIP3    H227409   1.790   3.631   1.372
 9149TIP3   OH227410   0.170   5.478   2.630
 9149TIP3    H127411   0.162   5.481   2.725
 9149TIP3    H227412   0.112   5.548   2.599
 9150TIP3   OH227413   5.781   4.396   4.670
 9150TIP3    H127414   5.823   4.312   4.654
 9150TIP3    H227415   5.842   4.442   4.728
 9151TIP3   OH227416   2.756   0.662   4.093
 9151TIP3    H127417   2.810   0.587   4.119
 9151TIP3    H227418   2.740   0.710   4.174
 9152TIP3   OH227419   2.351   5.987   1.401
 9152TIP3    H127420   2.440   5.951   1.410
 9152TIP3    H227421   2.362   6.065   1.348
 9153TIP3   OH227422   0.585   3.633   4.479
 9153TIP3    H127423   0.515   3.624   4.414
 9153TIP3    H227424   0.637   3.553   4.469
 9154TIP3   OH227425   0.666   4.941   2.287
 9154TIP3    H127426   0.645   4.905   2.201
 9154TIP3    H227427   0.589   4.992   2.311
 9155TIP3   OH227428   4.697   3.577   3.580
 9155TIP3    H127429   4.675   3.669   3.569
 9155TIP3    H227430   4.718   3.546   3.492
 9156TIP3   OH227431   6.911   3.484   2.167
 9156TIP3    H127432   6.831   3.468   2.216
 9156TIP3    H227433   6.959   3.548   2.220
 9157TIP3   OH227434   5.860   3.741   1.706
 9157TIP3    H127435   5.894   3.754   1.617
 9157TIP3    H227436   5.765   3.748   1.696
 9158TIP3   OH227437   1.277   3.959   3.828
 9158TIP3    H127438   1.362   3.990   3.796
 9158TIP3    H227439   1.283   3.864   3.824
 9159TIP3   OH227440   2.857   5.098   5.859
 9159TIP3    H127441   2.878   5.103   5.766
 9159TIP3    H227442   2.870   5.186   5.892
 9160TIP3   OH227443   5.241   0.666   5.658
 9160TIP3    H127444   5.243   0.658   5.563
 9160TIP3    H227445   5.329   0.639   5.686
 9161TIP3   OH227446   3.251   4.086   3.198
 9161TIP3    H127447   3.238   4.028   3.122
 9161TIP3    H227448   3.194   4.049   3.266
 9162TIP3   OH227449   0.024   3.050   3.303
 9162TIP3    H127450   0.000   3.065   3.211
 9162TIP3    H227451   0.093   3.115   3.321
 9163TIP3   OH227452   0.238   6.661   2.597
 9163TIP3    H127453   0.283   6.580   2.573
 9163TIP3    H227454   0.160   6.632   2.646
 9164TIP3   OH227455   1.812   1.043   2.816
 9164TIP3    H127456   1.895   1.051   2.864
 9164TIP3    H227457   1.765   0.973   2.861
 9165TIP3   OH227458   5.089   0.646   1.148
 9165TIP3    H127459   5.125   0.587   1.214
 9165TIP3    H227460   5.031   0.590   1.096
 9166TIP3   OH227461   4.385   1.618   5.159
 9166TIP3    H127462   4.358   1.557   5.090
 9166TIP3    H227463   4.466   1.580   5.194
 9167TIP3   OH227464   5.850   4.761   0.612
 9167TIP3    H127465   5.899   4.780   0.532
 9167TIP3    H227466   5.876   4.672   0.635
 9168TIP3   OH227467   3.393   0.524   1.530
 9168TIP3    H127468   3.481   0.556   1.508
 9168TIP3    H227469   3.401   0.429   1.529
 9169TIP3   OH227470   3.576   6.485   5.347
 9169TIP3    H127471   3.654   6.520   5.389
 9169TIP3    H227472   3.609   6.418   5.287
 9170TIP3   OH227473   3.678   6.328   0.738
 9170TIP3    H127474   3.729   6.276   0.801
 9170TIP3    H227475   3.632   6.392   0.792
 9171TIP3   OH227476   1.635   1.368   5.404
 9171TIP3    H127477   1.666   1.283   5.434
 9171TIP3    H227478   1.539   1.360   5.403
 9172TIP3   OH227479   0.596   3.115   2.261
 9172TIP3    H127480   0.646   3.035   2.277
 9172TIP3    H227481   0.621   3.174   2.333
 9173TIP3   OH227482   6.829   0.918   4.534
 9173TIP3    H127483   6.870   0.859   4.472
 9173TIP3    H227484   6.887   0.994   4.538
 9174TIP3   OH227485   3.202   0.594   5.083
 9174TIP3    H127486   3.191   0.584   5.178
 9174TIP3    H227487   3.194   0.688   5.068
 9175TIP3   OH227488   5.846   1.874   3.936
 9175TIP3    H127489   5.886   1.916   4.012
 9175TIP3    H227490   5.834   1.783   3.962
 9176TIP3   OH227491   4.932   3.418   1.788
 9176TIP3    H127492   4.957   3.498   1.743
 9176TIP3    H227493   5.014   3.372   1.804
 9177TIP3   OH227494   1.929   0.690   2.586
 9177TIP3    H127495   1.977   0.756   2.637
 9177TIP3    H227496   1.980   0.610   2.597
 9178TIP3   OH227497   6.731   6.055   2.087
 9178TIP3    H127498   6.736   6.067   1.992
 9178TIP3    H227499   6.821   6.039   2.114
 9179TIP3   OH227500   4.362   6.603   5.016
 9179TIP3    H127501   4.393   6.677   4.964
 9179TIP3    H227502   4.266   6.608   5.010
 9180TIP3   OH227503   6.488   6.173   0.347
 9180TIP3    H127504   6.542   6.163   0.425
 9180TIP3    H227505   6.461   6.084   0.325
 9181TIP3   OH227506   3.052   0.885   2.290
 9181TIP3    H127507   2.984   0.951   2.281
 9181TIP3    H227508   3.042   0.828   2.214
 9182TIP3   OH227509   4.296   0.110   2.222
 9182TIP3    H127510   4.330   0.137   2.308
 9182TIP3    H227511   4.350   0.034   2.199
 9183TIP3   OH227512   1.116   3.034   4.607
 9183TIP3    H127513   1.161   2.954   4.580
 9183TIP3    H227514   1.121   3.034   4.702
 9184TIP3   OH227515   0.533   4.103   2.012
 9184TIP3    H127516   0.535   4.097   1.917
 9184TIP3    H227517   0.625   4.093   2.039
 9185TIP3   OH227518   3.437   4.363   2.975
 9185TIP3    H127519   3.524   4.400   2.985
 9185TIP3    H227520   3.451   4.268   2.975
 9186TIP3   OH227521   1.770   1.562   0.986
 9186TIP3    H127522   1.738   1.489   0.933
 9186TIP3    H227523   1.708   1.568   1.058
 9187TIP3   OH227524   2.759   0.467   5.854
 9187TIP3    H127525   2.718   0.466   5.767
 9187TIP3    H227526   2.814   0.546   5.853
 9188TIP3   OH227527   0.965   0.317   3.122
 9188TIP3    H127528   1.052   0.306   3.083
 9188TIP3    H227529   0.922   0.382   3.066
 9189TIP3   OH227530   5.540   1.243   2.296
 9189TIP3    H127531   5.607   1.255   2.228
 9189TIP3    H227532   5.589   1.227   2.376
 9190TIP3   OH227533   1.152   3.467   3.537
 9190TIP3    H127534   1.060   3.485   3.516
 9190TIP3    H227535   1.158   3.480   3.632
 9191TIP3   OH227536   5.033   0.989   2.680
 9191TIP3    H127537   4.981   1.027   2.609
 9191TIP3    H227538   5.122   1.021   2.664
 9192TIP3   OH227539   1.670   5.937   3.312
 9192TIP3    H127540   1.719   5.969   3.237
 9192TIP3    H227541   1.722   5.964   3.388
 9193TIP3   OH227542   5.126   3.605   5.386
 9193TIP3    H127543   5.053   3.582   5.328
 9193TIP3    H227544   5.160   3.520   5.416
 9194TIP3   OH227545   1.995   0.913   5.572
 9194TIP3    H127546   2.049   0.985   5.604
 9194TIP3    H227547   1.919   0.955   5.533
 9195TIP3   OH227548   0.258   3.073   0.719
 9195TIP3    H127549   0.284   3.165   0.714
 9195TIP3    H227550   0.328   3.026   0.674
 9196TIP3   OH227551   7.135   0.133   1.534
 9196TIP3    H127552   7.121   0.228   1.532
 9196TIP3    H227553   7.095   0.104   1.615
 9197TIP3   OH227554   0.869   0.946   2.877
 9197TIP3    H127555   0.805   1.005   2.918
 9197TIP3    H227556   0.863   0.965   2.784
 9198TIP3   OH227557   0.671   5.002   3.645
 9198TIP3    H127558   0.633   4.958   3.569
 9198TIP3    H227559   0.751   4.952   3.664
 9199TIP3   OH227560   1.136   4.316   3.974
 9199TIP3    H127561   1.226   4.284   3.965
 9199TIP3    H227562   1.088   4.244   4.014
 9200TIP3   OH227563   6.377   3.297   0.062
 9200TIP3    H127564   6.401   3.383   0.027
 9200TIP3    H227565   6.450   3.274   0.120
 9201TIP3   OH227566   3.522   0.168   2.161
 9201TIP3    H127567   3.532   0.135   2.072
 9201TIP3    H227568   3.566   0.104   2.216
 9202TIP3   OH227569   4.253   5.051   4.959
 9202TIP3    H127570   4.203   5.088   5.033
 9202TIP3    H227571   4.192   5.056   4.885
 9203TIP3   OH227572   2.042   3.204   0.990
 9203TIP3    H127573   1.970   3.146   1.013
 9203TIP3    H227574   2.027   3.283   1.042
 9204TIP3   OH227575   4.464   4.021   4.070
 9204TIP3    H127576   4.373   4.023   4.040
 9204TIP3    H227577   4.458   4.034   4.165
 9205TIP3   OH227578   0.466   5.328   2.199
 9205TIP3    H127579   0.402   5.353   2.266
 9205TIP3    H227580   0.535   5.394   2.207
 9206TIP3   OH227581   1.160   6.087   5.003
 9206TIP3    H127582   1.122   5.999   5.003
 9206TIP3    H227583   1.193   6.098   5.092
 9207TIP3   OH227584   6.253   0.958   4.258
 9207TIP3    H127585   6.179   0.983   4.313
 9207TIP3    H227586   6.265   0.865   4.275
 9208TIP3   OH227587   2.610   3.006   1.050
 9208TIP3    H127588   2.689   3.058   1.067
 9208TIP3    H227589   2.605   2.999   0.955
 9209TIP3   OH227590   3.275   3.460   4.702
 9209TIP3    H127591   3.193   3.430   4.742
 9209TIP3    H227592   3.307   3.529   4.761
 9210TIP3   OH227593   5.459   5.707   4.971
 9210TIP3    H127594   5.518   5.713   4.896
 9210TIP3    H227595   5.517   5.708   5.047
 9211TIP3   OH227596   6.133   6.004   4.746
 9211TIP3    H127597   6.138   6.005   4.650
 9211TIP3    H227598   6.039   6.005   4.765
 9212TIP3   OH227599   6.002   3.849   5.008
 9212TIP3    H127600   5.975   3.760   5.029
 9212TIP3    H227601   6.048   3.880   5.086
 9213TIP3   OH227602   5.727   0.409   2.406
 9213TIP3    H127603   5.719   0.447   2.318
 9213TIP3    H227604   5.687   0.322   2.397
 9214TIP3   OH227605   6.559   3.843   2.599
 9214TIP3    H127606   6.552   3.880   2.511
 9214TIP3    H227607   6.475   3.862   2.640
 9215TIP3   OH227608   7.032   3.897   1.179
 9215TIP3    H127609   6.997   3.892   1.268
 9215TIP3    H227610   7.039   3.991   1.161
 9216TIP3   OH227611   5.043   5.442   3.519
 9216TIP3    H127612   5.067   5.508   3.584
 9216TIP3    H227613   5.012   5.493   3.444
 9217TIP3   OH227614   4.739   3.468   3.301
 9217TIP3    H127615   4.803   3.414   3.255
 9217TIP3    H227616   4.728   3.545   3.244
 9218TIP3   OH227617   6.527   4.870   3.724
 9218TIP3    H127618   6.589   4.847   3.794
 9218TIP3    H227619   6.512   4.964   3.735
 9219TIP3   OH227620   2.194   1.178   4.464
 9219TIP3    H127621   2.202   1.090   4.427
 9219TIP3    H227622   2.278   1.193   4.508
 9220TIP3   OH227623   1.295   4.164   2.059
 9220TIP3    H127624   1.233   4.208   2.000
 9220TIP3    H227625   1.375   4.216   2.052
 9221TIP3   OH227626   2.827   5.301   1.289
 9221TIP3    H127627   2.825   5.210   1.318
 9221TIP3    H227628   2.918   5.327   1.296
 9222TIP3   OH227629   6.416   1.383   4.832
 9222TIP3    H127630   6.416   1.290   4.810
 9222TIP3    H227631   6.435   1.385   4.926
 9223TIP3   OH227632   1.068   0.316   3.371
 9223TIP3    H127633   1.021   0.315   3.288
 9223TIP3    H227634   1.000   0.323   3.437
 9224TIP3   OH227635   5.274   4.982   3.029
 9224TIP3    H127636   5.282   5.052   2.965
 9224TIP3    H227637   5.289   5.025   3.113
 9225TIP3   OH227638   5.989   5.325   5.727
 9225TIP3    H127639   5.928   5.320   5.654
 9225TIP3    H227640   6.075   5.313   5.688
 9226TIP3   OH227641   6.166   0.441   4.448
 9226TIP3    H127642   6.194   0.444   4.356
 9226TIP3    H227643   6.071   0.454   4.444
 9227TIP3   OH227644   1.727   3.226   2.569
 9227TIP3    H127645   1.722   3.305   2.624
 9227TIP3    H227646   1.770   3.161   2.625
 9228TIP3   OH227647   2.918   4.953   1.293
 9228TIP3    H127648   3.011   4.978   1.296
 9228TIP3    H227649   2.892   4.947   1.385
 9229TIP3   OH227650   5.148   4.536   2.348
 9229TIP3    H127651   5.236   4.504   2.329
 9229TIP3    H227652   5.116   4.480   2.418
 9230TIP3   OH227653   0.209   0.637   4.592
 9230TIP3    H127654   0.151   0.645   4.668
 9230TIP3    H227655   0.238   0.546   4.594
 9231TIP3   OH227656   3.830   3.584   1.526
 9231TIP3    H127657   3.746   3.586   1.480
 9231TIP3    H227658   3.806   3.569   1.618
 9232TIP3   OH227659   7.116   0.379   4.191
 9232TIP3    H127660   7.188   0.375   4.128
 9232TIP3    H227661   7.037   0.392   4.137
 9233TIP3   OH227662   1.671   2.104   3.305
 9233TIP3    H127663   1.730   2.031   3.287
 9233TIP3    H227664   1.729   2.179   3.321
 9234TIP3   OH227665   4.404   3.740   5.242
 9234TIP3    H127666   4.355   3.673   5.290
 9234TIP3    H227667   4.402   3.817   5.299
 9235TIP3   OH227668   4.717   1.300   2.934
 9235TIP3    H127669   4.637   1.344   2.964
 9235TIP3    H227670   4.779   1.310   3.006
 9236TIP3   OH227671   4.046   3.828   0.515
 9236TIP3    H127672   4.049   3.859   0.605
 9236TIP3    H227673   3.992   3.893   0.469
 9237TIP3   OH227674   0.231   3.525   1.276
 9237TIP3    H127675   0.233   3.462   1.203
 9237TIP3    H227676   0.204   3.473   1.351
 9238TIP3   OH227677   1.634   5.824   0.519
 9238TIP3    H127678   1.626   5.875   0.438
 9238TIP3    H227679   1.647   5.890   0.587
 9239TIP3   OH227680   2.465   2.943   0.815
 9239TIP3    H127681   2.436   2.852   0.824
 9239TIP3    H227682   2.399   2.995   0.860
 9240TIP3   OH227683   3.280   0.317   2.151
 9240TIP3    H127684   3.325   0.397   2.123
 9240TIP3    H227685   3.349   0.250   2.151
 9241TIP3   OH227686   3.605   2.822   2.394
 9241TIP3    H127687   3.602   2.891   2.327
 9241TIP3    H227688   3.527   2.770   2.377
 9242TIP3   OH227689   1.317   5.361   2.509
 9242TIP3    H127690   1.223   5.347   2.517
 9242TIP3    H227691   1.330   5.387   2.418
 9243TIP3   OH227692   4.791   5.667   5.524
 9243TIP3    H127693   4.860   5.620   5.571
 9243TIP3    H227694   4.838   5.718   5.458
 9244TIP3   OH227695   0.509   0.788   1.319
 9244TIP3    H127696   0.580   0.726   1.339
 9244TIP3    H227697   0.510   0.795   1.224
 9245TIP3   OH227698   0.595   1.663   3.765
 9245TIP3    H127699   0.617   1.722   3.836
 9245TIP3    H227700   0.507   1.631   3.786
 9246TIP3   OH227701   6.654   5.774   1.890
 9246TIP3    H127702   6.676   5.702   1.949
 9246TIP3    H227703   6.563   5.795   1.911
 9247TIP3   OH227704   1.753   6.479   1.595
 9247TIP3    H127705   1.768   6.540   1.667
 9247TIP3    H227706   1.752   6.393   1.636
 9248TIP3   OH227707   6.238   2.270   5.675
 9248TIP3    H127708   6.171   2.283   5.741
 9248TIP3    H227709   6.197   2.211   5.611
 9249TIP3   OH227710   5.131   4.611   2.876
 9249TIP3    H127711   5.075   4.686   2.855
 9249TIP3    H227712   5.217   4.650   2.892
 9250TIP3   OH227713   3.672   3.701   4.070
 9250TIP3    H127714   3.753   3.731   4.029
 9250TIP3    H227715   3.642   3.629   4.016
 9251TIP3   OH227716   6.382   4.435   1.057
 9251TIP3    H127717   6.424   4.515   1.088
 9251TIP3    H227718   6.387   4.441   0.961
 9252TIP3   OH227719   6.971   3.822   2.787
 9252TIP3    H127720   6.952   3.916   2.778
 9252TIP3    H227721   6.895   3.779   2.747
 9253TIP3   OH227722   7.095   4.638   1.024
 9253TIP3    H127723   7.097   4.670   0.934
 9253TIP3    H227724   7.151   4.700   1.072
 9254TIP3   OH227725   6.249   5.641   4.544
 9254TIP3    H127726   6.189   5.614   4.474
 9254TIP3    H227727   6.239   5.574   4.612
 9255TIP3   OH227728   2.115   2.432   0.039
 9255TIP3    H127729   2.167   2.501   0.079
 9255TIP3    H227730   2.175   2.358   0.031
 9256TIP3   OH227731   2.886   0.287   0.346
 9256TIP3    H127732   2.915   0.239   0.424
 9256TIP3    H227733   2.966   0.299   0.295
 9257TIP3   OH227734   2.038   0.748   0.519
 9257TIP3    H127735   2.129   0.777   0.524
 9257TIP3    H227736   2.020   0.741   0.425
 9258TIP3   OH227737   3.796   3.062   0.575
 9258TIP3    H127738   3.781   2.974   0.610
 9258TIP3    H227739   3.711   3.090   0.543
 9259TIP3   OH227740   5.409   1.679   2.057
 9259TIP3    H127741   5.404   1.654   1.965
 9259TIP3    H227742   5.397   1.597   2.105
 9260TIP3   OH227743   6.380   2.174   2.659
 9260TIP3    H127744   6.407   2.149   2.570
 9260TIP3    H227745   6.296   2.130   2.672
 9261TIP3   OH227746   6.942   3.639   3.830
 9261TIP3    H127747   6.993   3.615   3.753
 9261TIP3    H227748   6.893   3.717   3.803
 9262TIP3   OH227749   2.759   5.878  -0.037
 9262TIP3    H127750   2.733   5.824   0.037
 9262TIP3    H227751   2.790   5.959   0.003
 9263TIP3   OH227752   6.787   2.940   1.474
 9263TIP3    H127753   6.852   3.002   1.439
 9263TIP3    H227754   6.766   2.883   1.400
 9264TIP3   OH227755   5.621   4.693   1.567
 9264TIP3    H127756   5.537   4.678   1.609
 9264TIP3    H227757   5.632   4.618   1.509
 9265TIP3   OH227758   3.183   5.587   1.109
 9265TIP3    H127759   3.193   5.667   1.159
 9265TIP3    H227760   3.091   5.562   1.122
 9266TIP3   OH227761   3.151   1.943   2.579
 9266TIP3    H127762   3.128   1.869   2.635
 9266TIP3    H227763   3.239   1.968   2.609
 9267TIP3   OH227764   2.565   1.497   3.738
 9267TIP3    H127765   2.603   1.508   3.651
 9267TIP3    H227766   2.491   1.557   3.740
 9268TIP3   OH227767   0.043   3.269   3.000
 9268TIP3    H127768  -0.021   3.204   2.972
 9268TIP3    H227769   0.002   3.312   3.075
 9269TIP3   OH227770   4.515   5.035   3.985
 9269TIP3    H127771   4.428   5.022   3.946
 9269TIP3    H227772   4.499   5.035   4.079
 9270TIP3   OH227773   2.948   4.466   3.382
 9270TIP3    H127774   2.953   4.412   3.461
 9270TIP3    H227775   2.999   4.418   3.317
 9271TIP3   OH227776   5.020   1.433   0.360
 9271TIP3    H127777   5.055   1.360   0.310
 9271TIP3    H227778   5.097   1.481   0.390
 9272TIP3   OH227779   2.563   6.446   2.684
 9272TIP3    H127780   2.623   6.491   2.625
 9272TIP3    H227781   2.488   6.506   2.692
 9273TIP3   OH227782   6.596   2.283   0.064
 9273TIP3    H127783   6.563   2.269   0.153
 9273TIP3    H227784   6.640   2.201   0.042
 9274TIP3   OH227785   2.688   6.444   0.773
 9274TIP3    H127786   2.765   6.388   0.773
 9274TIP3    H227787   2.672   6.463   0.865
 9275TIP3   OH227788   4.852   5.748   3.203
 9275TIP3    H127789   4.807   5.730   3.120
 9275TIP3    H227790   4.805   5.822   3.240
 9276TIP3   OH227791   2.840   5.379   5.799
 9276TIP3    H127792   2.820   5.407   5.888
 9276TIP3    H227793   2.763   5.403   5.748
 9277TIP3   OH227794   2.532   2.766   3.404
 9277TIP3    H127795   2.627   2.763   3.411
 9277TIP3    H227796   2.515   2.771   3.310
 9278TIP3   OH227797   4.056   5.023   1.884
 9278TIP3    H127798   4.079   4.932   1.864
 9278TIP3    H227799   4.098   5.074   1.815
 9279TIP3   OH227800   6.201   5.971   5.449
 9279TIP3    H127801   6.207   6.057   5.490
 9279TIP3    H227802   6.111   5.966   5.416
 9280TIP3   OH227803   2.348   4.648   5.092
 9280TIP3    H127804   2.286   4.578   5.112
 9280TIP3    H227805   2.337   4.663   4.998
 9281TIP3   OH227806   3.965   3.224   2.741
 9281TIP3    H127807   3.896   3.288   2.723
 9281TIP3    H227808   3.951   3.199   2.832
 9282TIP3   OH227809   0.932   2.479   3.387
 9282TIP3    H127810   0.913   2.572   3.400
 9282TIP3    H227811   0.926   2.466   3.293
 9283TIP3   OH227812   0.982   0.054   0.986
 9283TIP3    H127813   1.025  -0.015   1.036
 9283TIP3    H227814   1.010   0.039   0.895
 9284TIP3   OH227815   2.801   2.346   3.830
 9284TIP3    H127816   2.800   2.337   3.735
 9284TIP3    H227817   2.881   2.396   3.849
 9285TIP3   OH227818   1.078   2.650   5.322
 9285TIP3    H127819   1.097   2.562   5.354
 9285TIP3    H227820   1.011   2.683   5.382
 9286TIP3   OH227821   0.198   1.221   1.956
 9286TIP3    H127822   0.129   1.282   1.982
 9286TIP3    H227823   0.159   1.171   1.885
 9287TIP3   OH227824   2.034   3.236   2.974
 9287TIP3    H127825   2.071   3.178   3.041
 9287TIP3    H227826   1.940   3.237   2.992
 9288TIP3   OH227827   3.764   3.459   0.374
 9288TIP3    H127828   3.831   3.443   0.440
 9288TIP3    H227829   3.792   3.541   0.332
 9289TIP3   OH227830   5.114   1.489   2.155
 9289TIP3    H127831   5.072   1.551   2.095
 9289TIP3    H227832   5.135   1.541   2.233
 9290TIP3   OH227833   5.314   3.924   1.566
 9290TIP3    H127834   5.226   3.961   1.576
 9290TIP3    H227835   5.302   3.849   1.508
 9291TIP3   OH227836   2.152   5.728   3.696
 9291TIP3    H127837   2.101   5.790   3.643
 9291TIP3    H227838   2.157   5.769   3.782
 9292TIP3   OH227839   0.109   6.465   0.141
 9292TIP3    H127840   0.115   6.369   0.142
 9292TIP3    H227841   0.190   6.495   0.182
 9293TIP3   OH227842   0.719   3.935   0.550
 9293TIP3    H127843   0.795   3.931   0.608
 9293TIP3    H227844   0.673   3.852   0.564
 9294TIP3   OH227845   4.171   2.425   1.241
 9294TIP3    H127846   4.206   2.419   1.330
 9294TIP3    H227847   4.148   2.335   1.218
 9295TIP3   OH227848   4.667   2.512   0.460
 9295TIP3    H127849   4.620   2.527   0.541
 9295TIP3    H227850   4.708   2.596   0.440
 9296TIP3   OH227851   6.843   1.341   5.269
 9296TIP3    H127852   6.861   1.434   5.283
 9296TIP3    H227853   6.754   1.329   5.302
 9297TIP3   OH227854   1.575   5.860   1.198
 9297TIP3    H127855   1.642   5.821   1.142
 9297TIP3    H227856   1.509   5.894   1.137
 9298TIP3   OH227857   6.795   5.057   4.314
 9298TIP3    H127858   6.754   4.979   4.277
 9298TIP3    H227859   6.754   5.130   4.268
 9299TIP3   OH227860   0.757   4.301   0.513
 9299TIP3    H127861   0.714   4.225   0.553
 9299TIP3    H227862   0.699   4.374   0.533
 9300TIP3   OH227863   1.497   5.539   0.755
 9300TIP3    H127864   1.509   5.451   0.791
 9300TIP3    H227865   1.467   5.592   0.829
 9301TIP3   OH227866   4.414   5.527   1.047
 9301TIP3    H127867   4.391   5.520   1.140
 9301TIP3    H227868   4.337   5.494   1.001
 9302TIP3   OH227869   6.516   3.165   3.691
 9302TIP3    H127870   6.608   3.149   3.673
 9302TIP3    H227871   6.501   3.124   3.777
 9303TIP3   OH227872   4.703   1.504   3.258
 9303TIP3    H127873   4.619   1.502   3.303
 9303TIP3    H227874   4.757   1.563   3.310
 9304TIP3   OH227875   6.896   4.125   2.141
 9304TIP3    H127876   6.844   4.055   2.178
 9304TIP3    H227877   6.897   4.107   2.047
 9305TIP3   OH227878   6.399   5.030   1.544
 9305TIP3    H127879   6.343   4.974   1.597
 9305TIP3    H227880   6.483   5.030   1.589
 9306TIP3   OH227881   5.694   4.200   2.079
 9306TIP3    H127882   5.756   4.206   2.007
 9306TIP3    H227883   5.711   4.277   2.133
 9307TIP3   OH227884   6.216   3.656   3.304
 9307TIP3    H127885   6.187   3.721   3.368
 9307TIP3    H227886   6.135   3.621   3.267
 9308TIP3   OH227887   3.566   3.516   2.325
 9308TIP3    H127888   3.546   3.488   2.414
 9308TIP3    H227889   3.516   3.596   2.313
 9309TIP3   OH227890   0.296   6.124   5.583
 9309TIP3    H127891   0.222   6.063   5.575
 9309TIP3    H227892   0.368   6.070   5.614
 9310TIP3   OH227893   7.202   2.197   2.214
 9310TIP3    H127894   7.197   2.103   2.231
 9310TIP3    H227895   7.200   2.203   2.118
 9311TIP3   OH227896   6.684   4.699   1.407
 9311TIP3    H127897   6.595   4.727   1.385
 9311TIP3    H227898   6.736   4.720   1.330
 9312TIP3   OH227899   4.746   0.520   2.157
 9312TIP3    H127900   4.660   0.525   2.199
 9312TIP3    H227901   4.735   0.565   2.074
 9313TIP3   OH227902   3.353   6.468   2.341
 9313TIP3    H127903   3.312   6.510   2.416
 9313TIP3    H227904   3.291   6.481   2.269
 9314TIP3   OH227905   2.810   6.181   4.608
 9314TIP3    H127906   2.866   6.106   4.588
 9314TIP3    H227907   2.858   6.228   4.677
 9315TIP3   OH227908   0.262   1.970   5.211
 9315TIP3    H127909   0.220   2.004   5.132
 9315TIP3    H227910   0.234   2.030   5.280
 9316TIP3   OH227911   3.194   5.126   1.929
 9316TIP3    H127912   3.206   5.102   1.837
 9316TIP3    H227913   3.280   5.113   1.968
 9317TIP3   OH227914   0.107   4.502   2.142
 9317TIP3    H127915   0.057   4.510   2.061
 9317TIP3    H227916   0.193   4.537   2.121
 9318TIP3   OH227917   1.459   2.229   4.455
 9318TIP3    H127918   1.391   2.286   4.419
 9318TIP3    H227919   1.541   2.274   4.436
 9319TIP3   OH227920   0.837   2.983   4.169
 9319TIP3    H127921   0.790   2.902   4.149
 9319TIP3    H227922   0.856   2.978   4.262
 9320TIP3   OH227923   5.836   6.277   0.153
 9320TIP3    H127924   5.861   6.262   0.244
 9320TIP3    H227925   5.746   6.245   0.147
 9321TIP3   OH227926   0.629   3.383   4.607
 9321TIP3    H127927   0.687   3.420   4.673
 9321TIP3    H227928   0.646   3.289   4.610
 9322TIP3   OH227929   4.616   0.822   2.814
 9322TIP3    H127930   4.616   0.901   2.869
 9322TIP3    H227931   4.652   0.851   2.731
 9323TIP3   OH227932   0.878   3.264   2.176
 9323TIP3    H127933   0.866   3.169   2.184
 9323TIP3    H227934   0.843   3.299   2.258
 9324TIP3   OH227935   0.819   3.889   2.515
 9324TIP3    H127936   0.827   3.975   2.556
 9324TIP3    H227937   0.812   3.828   2.589
 9325TIP3   OH227938   5.924   1.945   1.133
 9325TIP3    H127939   5.830   1.939   1.117
 9325TIP3    H227940   5.958   1.997   1.060
 9326TIP3   OH227941   3.745   5.598   1.764
 9326TIP3    H127942   3.720   5.581   1.674
 9326TIP3    H227943   3.673   5.560   1.816
 9327TIP3   OH227944   2.157   4.383   3.075
 9327TIP3    H127945   2.081   4.428   3.038
 9327TIP3    H227946   2.189   4.441   3.143
 9328TIP3   OH227947   0.564   4.469   3.063
 9328TIP3    H127948   0.511   4.549   3.054
 9328TIP3    H227949   0.622   4.487   3.138
 9329TIP3   OH227950   4.003   1.475   3.019
 9329TIP3    H127951   4.011   1.398   2.963
 9329TIP3    H227952   3.990   1.439   3.107
 9330TIP3   OH227953   0.093   0.396   4.390
 9330TIP3    H127954   0.025   0.399   4.322
 9330TIP3    H227955   0.174   0.387   4.341
 9331TIP3   OH227956   5.307   6.375   1.333
 9331TIP3    H127957   5.365   6.419   1.270
 9331TIP3    H227958   5.273   6.299   1.286
 9332TIP3   OH227959   5.097   4.259   3.448
 9332TIP3    H127960   5.076   4.180   3.498
 9332TIP3    H227961   5.013   4.304   3.439
 9333TIP3   OH227962   0.976   5.106   3.623
 9333TIP3    H127963   1.015   5.089   3.538
 9333TIP3    H227964   0.888   5.136   3.604
 9334TIP3   OH227965   3.122   3.903   0.465
 9334TIP3    H127966   3.204   3.856   0.483
 9334TIP3    H227967   3.134   3.989   0.506
 9335TIP3   OH227968   0.545   4.093   0.842
 9335TIP3    H127969   0.588   4.167   0.885
 9335TIP3    H227970   0.616   4.043   0.803
 9336TIP3   OH227971   2.993   0.666   2.104
 9336TIP3    H127972   2.928   0.677   2.035
 9336TIP3    H227973   2.947   0.623   2.176
 9337TIP3   OH227974   1.546   2.865   1.642
 9337TIP3    H127975   1.469   2.873   1.698
 9337TIP3    H227976   1.523   2.913   1.562
 9338TIP3   OH227977   2.985   3.187   5.314
 9338TIP3    H127978   3.021   3.189   5.225
 9338TIP3    H227979   2.981   3.093   5.336
 9339TIP3   OH227980   5.747   2.508   4.988
 9339TIP3    H127981   5.684   2.578   5.008
 9339TIP3    H227982   5.694   2.428   4.984
 9340TIP3   OH227983   3.022   6.681   0.946
 9340TIP3    H127984   3.100   6.727   0.978
 9340TIP3    H227985   2.980   6.745   0.888
 9341TIP3   OH227986   2.207   1.089   2.148
 9341TIP3    H127987   2.185   1.054   2.234
 9341TIP3    H227988   2.124   1.094   2.101
 9342TIP3   OH227989   2.752   3.923   1.539
 9342TIP3    H127990   2.841   3.909   1.571
 9342TIP3    H227991   2.760   3.995   1.477
 9343TIP3   OH227992   1.702   1.011   2.532
 9343TIP3    H127993   1.615   0.979   2.553
 9343TIP3    H227994   1.743   1.029   2.616
 9344TIP3   OH227995   1.336   3.986   2.794
 9344TIP3    H127996   1.282   4.065   2.783
 9344TIP3    H227997   1.426   4.018   2.785
 9345TIP3   OH227998   6.513   2.209   0.322
 9345TIP3    H127999   6.500   2.304   0.331
 9345TIP3    H228000   6.425   2.174   0.312
 9346TIP3   OH228001   2.705   6.686   4.844
 9346TIP3    H128002   2.769   6.648   4.784
 9346TIP3    H228003   2.654   6.611   4.874
 9347TIP3   OH228004   7.007   2.516   4.872
 9347TIP3    H128005   6.976   2.437   4.916
 9347TIP3    H228006   6.968   2.588   4.920
 9348TIP3   OH228007   1.043   5.351   0.366
 9348TIP3    H128008   1.110   5.394   0.420
 9348TIP3    H228009   1.010   5.421   0.309
 9349TIP3   OH228010   5.451   4.125   1.701
 9349TIP3    H128011   5.507   4.079   1.763
 9349TIP3    H228012   5.425   4.058   1.638
 9350TIP3   OH228013   6.861   6.442   2.281
 9350TIP3    H128014   6.867   6.388   2.202
 9350TIP3    H228015   6.785   6.407   2.328
 9351TIP3   OH228016   3.853  -0.008   4.013
 9351TIP3    H128017   3.860  -0.051   3.927
 9351TIP3    H228018   3.902   0.073   4.002
 9352TIP3   OH228019   4.630   6.561   1.344
 9352TIP3    H128020   4.717   6.600   1.334
 9352TIP3    H228021   4.631   6.486   1.285
 9353TIP3   OH228022   6.859   3.225   5.336
 9353TIP3    H128023   6.769   3.242   5.362
 9353TIP3    H228024   6.905   3.210   5.419
 9354TIP3   OH228025   5.194   0.177   4.349
 9354TIP3    H128026   5.217   0.255   4.398
 9354TIP3    H228027   5.211   0.200   4.257
 9355TIP3   OH228028   0.081   2.363   3.824
 9355TIP3    H128029   0.131   2.429   3.873
 9355TIP3    H228030   0.021   2.414   3.770
 9356TIP3   OH228031   1.712   0.472   2.773
 9356TIP3    H128032   1.623   0.448   2.801
 9356TIP3    H228033   1.712   0.454   2.679
 9357TIP3   OH228034   2.749   0.845   5.089
 9357TIP3    H128035   2.746   0.899   5.010
 9357TIP3    H228036   2.708   0.898   5.157
 9358TIP3   OH228037   0.032   1.224   3.153
 9358TIP3    H128038   0.012   1.217   3.247
 9358TIP3    H228039   0.086   1.148   3.134
 9359TIP3   OH228040   1.468   1.547   5.812
 9359TIP3    H128041   1.506   1.460   5.822
 9359TIP3    H228042   1.411   1.540   5.736
 9360TIP3   OH228043   0.682   0.215   5.266
 9360TIP3    H128044   0.608   0.230   5.207
 9360TIP3    H228045   0.646   0.161   5.337
 9361TIP3   OH228046   0.858   3.494   0.709
 9361TIP3    H128047   0.857   3.538   0.794
 9361TIP3    H228048   0.893   3.559   0.648
 9362TIP3   OH228049   4.961   6.056   3.457
 9362TIP3    H128050   5.050   6.093   3.456
 9362TIP3    H228051   4.910   6.118   3.509
 9363TIP3   OH228052   3.288   2.021   4.534
 9363TIP3    H128053   3.261   1.993   4.622
 9363TIP3    H228054   3.284   2.116   4.537
 9364TIP3   OH228055   5.684   0.599   3.080
 9364TIP3    H128056   5.721   0.593   3.168
 9364TIP3    H228057   5.600   0.643   3.092
 9365TIP3   OH228058   2.308   4.517   3.721
 9365TIP3    H128059   2.366   4.586   3.687
 9365TIP3    H228060   2.266   4.480   3.644
 9366TIP3   OH228061   1.350   4.083   5.344
 9366TIP3    H128062   1.255   4.092   5.348
 9366TIP3    H228063   1.369   4.060   5.253
 9367TIP3   OH228064   3.068   2.477   4.551
 9367TIP3    H128065   3.087   2.521   4.634
 9367TIP3    H228066   3.044   2.549   4.492
 9368TIP3   OH228067   5.977   2.973   1.229
 9368TIP3    H128068   5.949   3.001   1.316
 9368TIP3    H228069   5.961   2.879   1.228
 9369TIP3   OH228070   2.255   3.053   5.594
 9369TIP3    H128071   2.347   3.031   5.611
 9369TIP3    H228072   2.235   3.009   5.511
 9370TIP3   OH228073   6.746   0.572   3.844
 9370TIP3    H128074   6.665   0.539   3.884
 9370TIP3    H228075   6.759   0.515   3.768
 9371TIP3   OH228076   5.566   3.294   3.778
 9371TIP3    H128077   5.471   3.289   3.769
 9371TIP3    H228078   5.587   3.237   3.851
 9372TIP3   OH228079   0.913   1.728   2.632
 9372TIP3    H128080   0.955   1.660   2.686
 9372TIP3    H228081   0.831   1.747   2.676
 9373TIP3   OH228082   3.229   4.843   0.770
 9373TIP3    H128083   3.197   4.800   0.691
 9373TIP3    H228084   3.215   4.936   0.753
 9374TIP3   OH228085   5.075   2.777   1.607
 9374TIP3    H128086   5.116   2.803   1.525
 9374TIP3    H228087   5.006   2.716   1.581
 9375TIP3   OH228088   0.052   3.295   0.057
 9375TIP3    H128089   0.061   3.354   0.131
 9375TIP3    H228090  -0.027   3.324   0.012
 9376TIP3   OH228091   5.495   0.609   2.452
 9376TIP3    H128092   5.539   0.529   2.427
 9376TIP3    H228093   5.465   0.593   2.542
 9377TIP3   OH228094   6.101   4.436   1.476
 9377TIP3    H128095   6.107   4.384   1.556
 9377TIP3    H228096   6.167   4.505   1.488
 9378TIP3   OH228097   0.242   3.868   2.588
 9378TIP3    H128098   0.227   3.854   2.494
 9378TIP3    H228099   0.172   3.819   2.631
 9379TIP3   OH228100   6.911   1.822   5.059
 9379TIP3    H128101   6.886   1.812   4.967
 9379TIP3    H228102   6.880   1.742   5.101
 9380TIP3   OH228103   0.285   2.419   2.832
 9380TIP3    H128104   0.262   2.466   2.752
 9380TIP3    H228105   0.242   2.469   2.902
 9381TIP3   OH228106   4.446   1.966   0.993
 9381TIP3    H128107   4.507   1.933   0.928
 9381TIP3    H228108   4.414   2.048   0.957
 9382TIP3   OH228109   1.907   3.989   5.445
 9382TIP3    H128110   1.896   4.078   5.480
 9382TIP3    H228111   1.827   3.974   5.394
 9383TIP3   OH228112   5.577   6.383   5.039
 9383TIP3    H128113   5.493   6.371   5.084
 9383TIP3    H228114   5.641   6.389   5.109
 9384TIP3   OH228115   2.245   5.779   5.107
 9384TIP3    H128116   2.281   5.694   5.081
 9384TIP3    H228117   2.291   5.843   5.052
 9385TIP3   OH228118   0.470   4.274   0.530
 9385TIP3    H128119   0.391   4.295   0.580
 9385TIP3    H228120   0.439   4.217   0.460
 9386TIP3   OH228121   7.035   3.505   1.906
 9386TIP3    H128122   6.975   3.496   1.980
 9386TIP3    H228123   7.078   3.589   1.919
 9387TIP3   OH228124   1.841   5.230   2.718
 9387TIP3    H128125   1.788   5.230   2.638
 9387TIP3    H228126   1.828   5.318   2.754
 9388TIP3   OH228127   3.703   1.009   1.816
 9388TIP3    H128128   3.686   0.918   1.840
 9388TIP3    H228129   3.616   1.049   1.816
 9389TIP3   OH228130   3.767   0.380   0.156
 9389TIP3    H128131   3.761   0.383   0.060
 9389TIP3    H228132   3.735   0.466   0.185
 9390TIP3   OH228133   0.234   3.572   4.636
 9390TIP3    H128134   0.328   3.582   4.652
 9390TIP3    H228135   0.226   3.577   4.541
 9391TIP3   OH228136   0.194   2.277   0.761
 9391TIP3    H128137   0.143   2.224   0.700
 9391TIP3    H228138   0.132   2.343   0.793
 9392TIP3   OH228139   1.648   5.913   2.823
 9392TIP3    H128140   1.616   5.969   2.893
 9392TIP3    H228141   1.572   5.859   2.798
 9393TIP3   OH228142   2.802   6.166   2.394
 9393TIP3    H128143   2.762   6.198   2.474
 9393TIP3    H228144   2.857   6.092   2.421
 9394TIP3   OH228145   6.489   1.796   2.721
 9394TIP3    H128146   6.433   1.855   2.772
 9394TIP3    H228147   6.565   1.849   2.698
 9395TIP3   OH228148   2.356   5.548   1.166
 9395TIP3    H128149   2.438   5.585   1.198
 9395TIP3    H228150   2.307   5.624   1.134
 9396TIP3   OH228151   0.149   3.980   3.486
 9396TIP3    H128152   0.185   3.972   3.575
 9396TIP3    H228153   0.223   4.010   3.433
 9397TIP3   OH228154   3.179   3.968   1.403
 9397TIP3    H128155   3.108   3.963   1.468
 9397TIP3    H228156   3.195   4.062   1.392
 9398TIP3   OH228157   0.940   1.983   1.964
 9398TIP3    H128158   0.849   2.012   1.958
 9398TIP3    H228159   0.987   2.058   2.000
 9399TIP3   OH228160   1.684   3.223   5.131
 9399TIP3    H128161   1.712   3.230   5.039
 9399TIP3    H228162   1.615   3.288   5.140
 9400TIP3   OH228163   2.978   5.702   5.255
 9400TIP3    H128164   2.890   5.725   5.285
 9400TIP3    H228165   3.002   5.771   5.193
 9401TIP3   OH228166   5.558   2.760   5.052
 9401TIP3    H128167   5.484   2.713   5.089
 9401TIP3    H228168   5.525   2.849   5.039
 9402TIP3   OH228169   5.471   6.015   5.551
 9402TIP3    H128170   5.545   6.024   5.491
 9402TIP3    H228171   5.410   6.084   5.525
 9403TIP3   OH228172   4.777   2.060   4.463
 9403TIP3    H128173   4.750   2.003   4.391
 9403TIP3    H228174   4.871   2.070   4.452
 9404TIP3   OH228175   7.141   1.436   2.603
 9404TIP3    H128176   7.213   1.494   2.577
 9404TIP3    H228177   7.064   1.472   2.558
 9405TIP3   OH228178   3.564   6.623   4.224
 9405TIP3    H128179   3.590   6.689   4.159
 9405TIP3    H228180   3.581   6.665   4.308
 9406TIP3   OH228181   4.761   0.100   5.687
 9406TIP3    H128182   4.842   0.120   5.733
 9406TIP3    H228183   4.789   0.073   5.600
 9407TIP3   OH228184   0.574   3.830   1.328
 9407TIP3    H128185   0.500   3.804   1.274
 9407TIP3    H228186   0.550   3.917   1.362
 9408TIP3   OH228187   5.262   5.789   4.617
 9408TIP3    H128188   5.280   5.695   4.611
 9408TIP3    H228189   5.193   5.796   4.683
 9409TIP3   OH228190   5.690   0.986   3.128
 9409TIP3    H128191   5.772   0.961   3.085
 9409TIP3    H228192   5.650   1.050   3.069
 9410TIP3   OH228193   4.529   2.612   1.486
 9410TIP3    H128194   4.449   2.663   1.494
 9410TIP3    H228195   4.521   2.544   1.553
 9411TIP3   OH228196   1.636   0.684   0.330
 9411TIP3    H128197   1.631   0.588   0.338
 9411TIP3    H228198   1.550   0.715   0.358
 9412TIP3   OH228199   2.408   3.775   0.032
 9412TIP3    H128200   2.458   3.775   0.114
 9412TIP3    H228201   2.472   3.802  -0.035
 9413TIP3   OH228202   3.073   6.112   3.234
 9413TIP3    H128203   3.160   6.131   3.270
 9413TIP3    H228204   3.082   6.129   3.140
 9414TIP3   OH228205   3.170   2.790   0.750
 9414TIP3    H128206   3.225   2.749   0.817
 9414TIP3    H228207   3.098   2.829   0.798
 9415TIP3   OH228208   5.905   3.085   0.035
 9415TIP3    H128209   5.840   3.145  -0.004
 9415TIP3    H228210   5.958   3.141   0.092
 9416TIP3   OH228211   4.314   0.811   1.885
 9416TIP3    H128212   4.409   0.801   1.880
 9416TIP3    H228213   4.281   0.721   1.881
 9417TIP3   OH228214   3.193   0.126   4.316
 9417TIP3    H128215   3.130   0.193   4.341
 9417TIP3    H228216   3.140   0.058   4.274
 9418TIP3   OH228217   7.133   5.398   2.282
 9418TIP3    H128218   7.168   5.474   2.328
 9418TIP3    H228219   7.093   5.434   2.203
 9419TIP3   OH228220   5.477   3.943   3.627
 9419TIP3    H128221   5.472   3.996   3.706
 9419TIP3    H228222   5.546   3.879   3.645
 9420TIP3   OH228223   3.504   4.851   5.534
 9420TIP3    H128224   3.409   4.848   5.540
 9420TIP3    H228225   3.535   4.820   5.619
 9421TIP3   OH228226   2.715   4.230   5.563
 9421TIP3    H128227   2.678   4.249   5.649
 9421TIP3    H228228   2.809   4.229   5.577
 9422TIP3   OH228229   6.002   1.211   1.661
 9422TIP3    H128230   5.978   1.169   1.744
 9422TIP3    H228231   5.922   1.206   1.609
 9423TIP3   OH228232   5.996   3.996   3.386
 9423TIP3    H128233   6.015   4.038   3.302
 9423TIP3    H228234   6.006   4.067   3.450
 9424TIP3   OH228235   4.485   4.263   1.682
 9424TIP3    H128236   4.421   4.314   1.730
 9424TIP3    H228237   4.540   4.328   1.639
 9425TIP3   OH228238   3.729   4.540   1.444
 9425TIP3    H128239   3.642   4.548   1.404
 9425TIP3    H228240   3.782   4.499   1.375
 9426TIP3   OH228241   6.936   2.144   3.301
 9426TIP3    H128242   7.019   2.174   3.265
 9426TIP3    H228243   6.871   2.165   3.233
 9427TIP3   OH228244   5.052   4.681   2.126
 9427TIP3    H128245   5.051   4.617   2.197
 9427TIP3    H228246   5.002   4.755   2.159
 9428TIP3   OH228247   6.883   6.650   1.509
 9428TIP3    H128248   6.797   6.673   1.543
 9428TIP3    H228249   6.912   6.727   1.461
 9429TIP3   OH228250   3.904   6.223   4.260
 9429TIP3    H128251   3.835   6.168   4.298
 9429TIP3    H228252   3.978   6.212   4.319
 9430TIP3   OH228253   0.711   6.362   3.707
 9430TIP3    H128254   0.722   6.412   3.787
 9430TIP3    H228255   0.771   6.287   3.717
 9431TIP3   OH228256   2.262   0.562   3.636
 9431TIP3    H128257   2.252   0.538   3.728
 9431TIP3    H228258   2.212   0.643   3.627
 9432TIP3   OH228259   5.866   3.372   0.734
 9432TIP3    H128260   5.909   3.447   0.692
 9432TIP3    H228261   5.922   3.298   0.713
 9433TIP3   OH228262   0.926   3.467   5.171
 9433TIP3    H128263   0.846   3.432   5.132
 9433TIP3    H228264   0.896   3.516   5.248
 9434TIP3   OH228265   0.265   5.682   5.836
 9434TIP3    H128266   0.215   5.743   5.890
 9434TIP3    H228267   0.277   5.605   5.892
 9435TIP3   OH228268   1.616   4.642   3.266
 9435TIP3    H128269   1.654   4.555   3.252
 9435TIP3    H228270   1.548   4.628   3.332
 9436TIP3   OH228271   3.718   4.993   5.763
 9436TIP3    H128272   3.639   4.961   5.805
 9436TIP3    H228273   3.755   5.056   5.825
 9437TIP3   OH228274   5.068   0.729   2.610
 9437TIP3    H128275   5.048   0.816   2.646
 9437TIP3    H228276   4.983   0.695   2.582
 9438TIP3   OH228277   5.299   2.607   1.358
 9438TIP3    H128278   5.260   2.691   1.336
 9438TIP3    H228279   5.365   2.627   1.424
 9439TIP3   OH228280   6.052   5.658   0.859
 9439TIP3    H128281   6.120   5.671   0.925
 9439TIP3    H228282   6.063   5.731   0.798
 9440TIP3   OH228283   1.209   1.285   2.313
 9440TIP3    H128284   1.147   1.357   2.325
 9440TIP3    H228285   1.242   1.297   2.224
 9441TIP3   OH228286   1.961   1.602   4.092
 9441TIP3    H128287   1.939   1.510   4.107
 9441TIP3    H228288   1.884   1.650   4.125
 9442TIP3   OH228289   5.859   0.225   4.123
 9442TIP3    H128290   5.842   0.318   4.135
 9442TIP3    H228291   5.865   0.214   4.029
 9443TIP3   OH228292   2.849   5.083   0.206
 9443TIP3    H128293   2.843   5.137   0.128
 9443TIP3    H228294   2.920   5.021   0.187
 9444TIP3   OH228295   1.521   0.580   2.407
 9444TIP3    H128296   1.552   0.652   2.353
 9444TIP3    H228297   1.599   0.527   2.425
 9445TIP3   OH228298   4.414   0.530   1.147
 9445TIP3    H128299   4.333   0.503   1.104
 9445TIP3    H228300   4.480   0.527   1.078
 9446TIP3   OH228301   0.865   1.828   2.172
 9446TIP3    H128302   0.892   1.877   2.094
 9446TIP3    H228303   0.899   1.740   2.158
 9447TIP3   OH228304   6.687   4.305   1.313
 9447TIP3    H128305   6.617   4.361   1.346
 9447TIP3    H228306   6.732   4.358   1.248
 9448TIP3   OH228307   6.279   4.949   5.269
 9448TIP3    H128308   6.352   4.892   5.294
 9448TIP3    H228309   6.215   4.888   5.231
 9449TIP3   OH228310   4.811   1.640   0.839
 9449TIP3    H128311   4.768   1.575   0.783
 9449TIP3    H228312   4.749   1.713   0.842
 9450TIP3   OH228313   2.921   0.268   5.571
 9450TIP3    H128314   2.893   0.178   5.588
 9450TIP3    H228315   2.962   0.265   5.484
 9451TIP3   OH228316   4.394   6.334   5.086
 9451TIP3    H128317   4.397   6.428   5.068
 9451TIP3    H228318   4.486   6.306   5.081
 9452TIP3   OH228319   0.367   2.065   0.894
 9452TIP3    H128320   0.319   2.147   0.880
 9452TIP3    H228321   0.438   2.067   0.830
 9453TIP3   OH228322   0.699   2.742   2.992
 9453TIP3    H128323   0.754   2.815   2.960
 9453TIP3    H228324   0.643   2.720   2.918
 9454TIP3   OH228325   3.864   5.969   4.650
 9454TIP3    H128326   3.874   6.064   4.649
 9454TIP3    H228327   3.920   5.940   4.721
 9455TIP3   OH228328   4.020   0.643   5.778
 9455TIP3    H128329   4.041   0.656   5.686
 9455TIP3    H228330   4.080   0.701   5.825
 9456TIP3   OH228331   3.793   5.169   0.398
 9456TIP3    H128332   3.838   5.242   0.357
 9456TIP3    H228333   3.706   5.168   0.359
 9457TIP3   OH228334   6.457   4.527   0.079
 9457TIP3    H128335   6.514   4.467   0.127
 9457TIP3    H228336   6.453   4.605   0.134
 9458TIP3   OH228337   4.394   3.789   2.272
 9458TIP3    H128338   4.446   3.843   2.332
 9458TIP3    H228339   4.439   3.705   2.269
 9459TIP3   OH228340   5.695   4.458   4.404
 9459TIP3    H128341   5.702   4.429   4.495
 9459TIP3    H228342   5.749   4.396   4.356
 9460TIP3   OH228343   0.090   2.660   4.070
 9460TIP3    H128344   0.154   2.642   4.001
 9460TIP3    H228345   0.124   2.737   4.116
 9461TIP3   OH228346   4.613   5.665   0.381
 9461TIP3    H128347   4.560   5.736   0.417
 9461TIP3    H228348   4.678   5.708   0.327
 9462TIP3   OH228349   6.919   3.565   5.365
 9462TIP3    H128350   6.839   3.525   5.331
 9462TIP3    H228351   6.924   3.650   5.322
 9463TIP3   OH228352   1.561   3.534   3.300
 9463TIP3    H128353   1.477   3.489   3.294
 9463TIP3    H228354   1.620   3.482   3.245
 9464TIP3   OH228355   2.038   2.360   1.777
 9464TIP3    H128356   2.130   2.367   1.753
 9464TIP3    H228357   2.034   2.285   1.836
 9465TIP3   OH228358   6.039   0.553   0.485
 9465TIP3    H128359   5.988   0.633   0.498
 9465TIP3    H228360   5.979   0.482   0.508
 9466TIP3   OH228361   1.094   3.288   0.195
 9466TIP3    H128362   1.116   3.316   0.284
 9466TIP3    H228363   1.046   3.362   0.158
 9467TIP3   OH228364   0.113   3.175   3.876
 9467TIP3    H128365   0.063   3.226   3.940
 9467TIP3    H228366   0.160   3.110   3.929
 9468TIP3   OH228367   6.501   2.620   2.810
 9468TIP3    H128368   6.448   2.550   2.847
 9468TIP3    H228369   6.553   2.578   2.741
 9469TIP3   OH228370   0.311   4.479   1.226
 9469TIP3    H128371   0.240   4.471   1.163
 9469TIP3    H228372   0.370   4.544   1.188
 9470TIP3   OH228373   4.235   1.338   0.455
 9470TIP3    H128374   4.187   1.371   0.379
 9470TIP3    H228375   4.288   1.266   0.420
 9471TIP3   OH228376   6.636   2.319   2.670
 9471TIP3    H128377   6.664   2.262   2.742
 9471TIP3    H228378   6.550   2.285   2.646
 9472TIP3   OH228379   5.945   0.067   0.537
 9472TIP3    H128380   5.862   0.100   0.501
 9472TIP3    H228381   6.012   0.126   0.502
 9473TIP3   OH228382   3.527   1.885   4.751
 9473TIP3    H128383   3.610   1.839   4.765
 9473TIP3    H228384   3.537   1.967   4.798
 9474TIP3   OH228385   3.426   2.259   2.604
 9474TIP3    H128386   3.442   2.330   2.666
 9474TIP3    H228387   3.464   2.290   2.522
 9475TIP3   OH228388   0.368   5.313   3.028
 9475TIP3    H128389   0.431   5.324   3.099
 9475TIP3    H228390   0.372   5.220   3.006
 9476TIP3   OH228391   3.571   5.045   4.280
 9476TIP3    H128392   3.522   5.081   4.206
 9476TIP3    H228393   3.529   4.961   4.299
 9477TIP3   OH228394   4.674   0.426   4.872
 9477TIP3    H128395   4.620   0.359   4.912
 9477TIP3    H228396   4.624   0.506   4.880
 9478TIP3   OH228397   0.342   4.562   4.912
 9478TIP3    H128398   0.318   4.652   4.934
 9478TIP3    H228399   0.357   4.564   4.818
 9479TIP3   OH228400   6.735   2.770   5.574
 9479TIP3    H128401   6.790   2.728   5.640
 9479TIP3    H228402   6.755   2.723   5.493
 9480TIP3   OH228403   2.975   5.974   4.568
 9480TIP3    H128404   2.972   5.884   4.537
 9480TIP3    H228405   3.057   6.009   4.532
 9481TIP3   OH228406   2.069   0.486   2.165
 9481TIP3    H128407   2.036   0.456   2.080
 9481TIP3    H228408   2.011   0.558   2.189
 9482TIP3   OH228409   6.697   0.767   1.946
 9482TIP3    H128410   6.670   0.755   2.037
 9482TIP3    H228411   6.621   0.804   1.902
 9483TIP3   OH228412   6.732   4.835   3.917
 9483TIP3    H128413   6.707   4.849   4.008
 9483TIP3    H228414   6.803   4.897   3.901
 9484TIP3   OH228415   1.631   0.454   5.733
 9484TIP3    H128416   1.537   0.435   5.730
 9484TIP3    H228417   1.663   0.402   5.808
 9485TIP3   OH228418   5.098   2.021   3.792
 9485TIP3    H128419   5.086   1.985   3.880
 9485TIP3    H228420   5.145   2.103   3.806
 9486TIP3   OH228421   2.726   4.711   0.762
 9486TIP3    H128422   2.758   4.711   0.852
 9486TIP3    H228423   2.632   4.730   0.770
 9487TIP3   OH228424   6.589   0.593   0.331
 9487TIP3    H128425   6.593   0.509   0.378
 9487TIP3    H228426   6.543   0.572   0.250
 9488TIP3   OH228427   4.264   0.528   0.919
 9488TIP3    H128428   4.340   0.568   0.877
 9488TIP3    H228429   4.208   0.601   0.942
 9489TIP3   OH228430   3.834   0.251   4.866
 9489TIP3    H128431   3.753   0.208   4.893
 9489TIP3    H228432   3.875   0.280   4.948
 9490TIP3   OH228433   1.041   3.315   1.262
 9490TIP3    H128434   1.074   3.348   1.178
 9490TIP3    H228435   0.947   3.304   1.247
 9491TIP3   OH228436   3.045   1.868   3.177
 9491TIP3    H128437   3.138   1.846   3.174
 9491TIP3    H228438   3.012   1.821   3.254
 9492TIP3   OH228439   4.345   5.425   1.295
 9492TIP3    H128440   4.395   5.347   1.318
 9492TIP3    H228441   4.268   5.421   1.351
 9493TIP3   OH228442   2.882   3.878   4.839
 9493TIP3    H128443   2.962   3.825   4.840
 9493TIP3    H228444   2.815   3.821   4.803
 9494TIP3   OH228445   1.024   5.798   3.853
 9494TIP3    H128446   0.985   5.884   3.839
 9494TIP3    H228447   0.953   5.737   3.836
 9495TIP3   OH228448   2.406   0.171   0.541
 9495TIP3    H128449   2.440   0.219   0.466
 9495TIP3    H228450   2.393   0.237   0.609
 9496TIP3   OH228451   1.503   5.773   2.230
 9496TIP3    H128452   1.536   5.853   2.188
 9496TIP3    H228453   1.423   5.752   2.181
 9497TIP3   OH228454   3.430   2.376   5.028
 9497TIP3    H128455   3.365   2.342   5.088
 9497TIP3    H228456   3.507   2.393   5.082
 9498TIP3   OH228457   2.088   1.470   5.553
 9498TIP3    H128458   2.000   1.472   5.589
 9498TIP3    H228459   2.144   1.500   5.625
 9499TIP3   OH228460   3.993   3.255   1.135
 9499TIP3    H128461   4.078   3.226   1.101
 9499TIP3    H228462   3.987   3.347   1.109
 9500TIP3   OH228463   4.236   0.648   2.464
 9500TIP3    H128464   4.242   0.597   2.384
 9500TIP3    H228465   4.170   0.603   2.517
 9501TIP3   OH228466   0.689   4.311   2.357
 9501TIP3    H128467   0.730   4.355   2.432
 9501TIP3    H228468   0.688   4.218   2.381
 9502TIP3   OH228469   2.901   1.517   0.883
 9502TIP3    H128470   2.983   1.543   0.924
 9502TIP3    H228471   2.862   1.599   0.853
 9503TIP3   OH228472   4.078   4.117   1.717
 9503TIP3    H128473   4.089   4.031   1.756
 9503TIP3    H228474   4.124   4.177   1.776
 9504TIP3   OH228475   2.313   1.414   2.365
 9504TIP3    H128476   2.253   1.365   2.310
 9504TIP3    H228477   2.392   1.425   2.312
 9505TIP3   OH228478   3.183   3.693   1.462
 9505TIP3    H128479   3.214   3.763   1.405
 9505TIP3    H228480   3.232   3.616   1.433
 9506TIP3   OH228481   3.518   2.141   4.887
 9506TIP3    H128482   3.468   2.223   4.889
 9506TIP3    H228483   3.575   2.147   4.964
 9507TIP3   OH228484   3.882   2.510   5.008
 9507TIP3    H128485   3.900   2.515   5.102
 9507TIP3    H228486   3.905   2.597   4.975
 9508TIP3   OH228487   6.640   4.496   4.630
 9508TIP3    H128488   6.605   4.469   4.545
 9508TIP3    H228489   6.563   4.524   4.680
 9509TIP3   OH228490   2.490   5.634   5.733
 9509TIP3    H128491   2.534   5.573   5.673
 9509TIP3    H228492   2.418   5.671   5.681
 9510TIP3   OH228493   1.774   4.900   4.614
 9510TIP3    H128494   1.720   4.941   4.681
 9510TIP3    H228495   1.794   4.813   4.649
 9511TIP3   OH228496   1.080   5.185   1.957
 9511TIP3    H128497   0.988   5.209   1.948
 9511TIP3    H228498   1.083   5.133   2.038
 9512TIP3   OH228499   0.581   5.961   3.230
 9512TIP3    H128500   0.623   5.878   3.251
 9512TIP3    H228501   0.640   6.001   3.165
 9513TIP3   OH228502   0.202   6.660   4.750
 9513TIP3    H128503   0.129   6.714   4.780
 9513TIP3    H228504   0.254   6.645   4.829
 9514TIP3   OH228505   6.166   2.579   2.102
 9514TIP3    H128506   6.118   2.662   2.096
 9514TIP3    H228507   6.249   2.603   2.143
 9515TIP3   OH228508   1.363   3.926   1.959
 9515TIP3    H128509   1.277   3.891   1.981
 9515TIP3    H228510   1.367   4.010   2.006
 9516TIP3   OH228511   4.718   4.423   3.775
 9516TIP3    H128512   4.664   4.347   3.797
 9516TIP3    H228513   4.743   4.459   3.860
 9517TIP3   OH228514   4.664   6.020   4.357
 9517TIP3    H128515   4.674   6.013   4.452
 9517TIP3    H228516   4.734   5.966   4.322
 9518TIP3   OH228517   6.854   6.609   3.954
 9518TIP3    H128518   6.788   6.604   3.884
 9518TIP3    H228519   6.913   6.536   3.937
 9519TIP3   OH228520   5.682   2.135   5.482
 9519TIP3    H128521   5.592   2.137   5.515
 9519TIP3    H228522   5.732   2.186   5.546
 9520TIP3   OH228523   3.523   5.237   4.682
 9520TIP3    H128524   3.432   5.218   4.663
 9520TIP3    H228525   3.561   5.262   4.598
 9521TIP3   OH228526   2.452   2.351   1.014
 9521TIP3    H128527   2.450   2.403   0.934
 9521TIP3    H228528   2.364   2.360   1.050
 9522TIP3   OH228529   4.768   5.383   1.381
 9522TIP3    H128530   4.849   5.343   1.414
 9522TIP3    H228531   4.719   5.407   1.460
 9523TIP3   OH228532   0.542   4.770   3.779
 9523TIP3    H128533   0.459   4.790   3.736
 9523TIP3    H228534   0.609   4.796   3.715
 9524TIP3   OH228535   3.768   4.541   5.518
 9524TIP3    H128536   3.836   4.523   5.454
 9524TIP3    H228537   3.692   4.568   5.466
 9525TIP3   OH228538   7.148   0.540   0.293
 9525TIP3    H128539   7.159   0.483   0.217
 9525TIP3    H228540   7.077   0.600   0.268
 9526TIP3   OH228541   0.745   0.800   0.556
 9526TIP3    H128542   0.706   0.885   0.536
 9526TIP3    H228543   0.774   0.808   0.647
 9527TIP3   OH228544   3.151   1.573   2.209
 9527TIP3    H128545   3.159   1.619   2.293
 9527TIP3    H228546   3.178   1.483   2.228
 9528TIP3   OH228547   6.978   1.136   3.888
 9528TIP3    H128548   7.025   1.097   3.814
 9528TIP3    H228549   6.944   1.061   3.937
 9529TIP3   OH228550   0.562   0.773   1.020
 9529TIP3    H128551   0.507   0.776   0.942
 9529TIP3    H228552   0.596   0.683   1.022
 9530TIP3   OH228553   4.986   0.503   0.926
 9530TIP3    H128554   4.952   0.482   0.839
 9530TIP3    H228555   4.914   0.547   0.970
 9531TIP3   OH228556   5.520   5.289   3.719
 9531TIP3    H128557   5.438   5.244   3.697
 9531TIP3    H228558   5.533   5.269   3.812
 9532TIP3   OH228559   3.300   1.253   2.127
 9532TIP3    H128560   3.204   1.253   2.121
 9532TIP3    H228561   3.328   1.193   2.059
 9533TIP3   OH228562   1.074   5.481   3.176
 9533TIP3    H128563   1.167   5.500   3.162
 9533TIP3    H228564   1.042   5.554   3.230
 9534TIP3   OH228565   5.506   5.648   2.124
 9534TIP3    H128566   5.441   5.596   2.172
 9534TIP3    H228567   5.481   5.739   2.141
 9535TIP3   OH228568   3.444   5.497   1.386
 9535TIP3    H128569   3.395   5.579   1.395
 9535TIP3    H228570   3.464   5.491   1.292
 9536TIP3   OH228571   6.866   0.222   1.154
 9536TIP3    H128572   6.909   0.175   1.225
 9536TIP3    H228573   6.824   0.297   1.196
 9537TIP3   OH228574   6.120   6.583   0.131
 9537TIP3    H128575   6.116   6.598   0.226
 9537TIP3    H228576   6.214   6.570   0.114
 9538TIP3   OH228577   3.986   5.326   0.710
 9538TIP3    H128578   4.018   5.365   0.629
 9538TIP3    H228579   3.906   5.374   0.731
 9539TIP3   OH228580   1.763   2.458   4.644
 9539TIP3    H128581   1.837   2.441   4.703
 9539TIP3    H228582   1.800   2.450   4.556
 9540TIP3   OH228583   4.709   2.465   5.546
 9540TIP3    H128584   4.676   2.521   5.476
 9540TIP3    H228585   4.721   2.525   5.620
 9541TIP3   OH228586   3.333   4.538   2.447
 9541TIP3    H128587   3.242   4.509   2.443
 9541TIP3    H228588   3.335   4.618   2.393
 9542TIP3   OH228589   1.033   3.736   5.260
 9542TIP3    H128590   1.084   3.655   5.248
 9542TIP3    H228591   1.027   3.745   5.355
 9543TIP3   OH228592   6.520   4.279   1.977
 9543TIP3    H128593   6.595   4.275   2.035
 9543TIP3    H228594   6.448   4.309   2.033
 9544TIP3   OH228595   7.011   3.329   0.379
 9544TIP3    H128596   6.933   3.351   0.328
 9544TIP3    H228597   7.031   3.239   0.353
 9545TIP3   OH228598   4.363   1.682   2.237
 9545TIP3    H128599   4.397   1.770   2.253
 9545TIP3    H228600   4.273   1.685   2.271
 9546TIP3   OH228601   1.219   0.763   3.990
 9546TIP3    H128602   1.203   0.737   4.081
 9546TIP3    H228603   1.246   0.855   3.996
 9547TIP3   OH228604   3.160   4.698   3.352
 9547TIP3    H128605   3.198   4.652   3.426
 9547TIP3    H228606   3.087   4.748   3.389
 9548TIP3   OH228607   6.389   4.911   4.624
 9548TIP3    H128608   6.405   4.842   4.559
 9548TIP3    H228609   6.327   4.970   4.580
 9549TIP3   OH228610   1.753   4.340   1.497
 9549TIP3    H128611   1.712   4.423   1.474
 9549TIP3    H228612   1.846   4.351   1.475
 9550TIP3   OH228613   0.272   0.373   5.782
 9550TIP3    H128614   0.295   0.396   5.692
 9550TIP3    H228615   0.328   0.428   5.837
 9551TIP3   OH228616   6.943   6.526   0.917
 9551TIP3    H128617   6.864   6.576   0.897
 9551TIP3    H228618   6.965   6.483   0.834
 9552TIP3   OH228619   1.177   5.683   2.298
 9552TIP3    H128620   1.254   5.665   2.352
 9552TIP3    H228621   1.205   5.663   2.208
 9553TIP3   OH228622   1.781   2.473   0.597
 9553TIP3    H128623   1.759   2.404   0.534
 9553TIP3    H228624   1.705   2.531   0.597
 9554TIP3   OH228625   2.658   1.313   5.292
 9554TIP3    H128626   2.737   1.264   5.315
 9554TIP3    H228627   2.587   1.268   5.338
 9555TIP3   OH228628   1.293   6.540   1.222
 9555TIP3    H128629   1.365   6.583   1.176
 9555TIP3    H228630   1.310   6.557   1.315
 9556TIP3   OH228631   1.305   5.728   4.335
 9556TIP3    H128632   1.233   5.692   4.283
 9556TIP3    H228633   1.375   5.663   4.328
 9557TIP3   OH228634   3.272   6.037   2.577
 9557TIP3    H128635   3.192   6.088   2.590
 9557TIP3    H228636   3.247   5.948   2.602
 9558TIP3   OH228637   3.127   4.825   1.960
 9558TIP3    H128638   3.163   4.913   1.951
 9558TIP3    H228639   3.201   4.767   1.946
 9559TIP3   OH228640   6.065   4.333   1.202
 9559TIP3    H128641   6.062   4.427   1.180
 9559TIP3    H228642   6.072   4.331   1.297
 9560TIP3   OH228643   5.949   3.526   5.626
 9560TIP3    H128644   5.878   3.537   5.690
 9560TIP3    H228645   5.964   3.431   5.624
 9561TIP3   OH228646   2.314   2.497   3.711
 9561TIP3    H128647   2.247   2.482   3.777
 9561TIP3    H228648   2.395   2.464   3.752
 9562TIP3   OH228649   0.383   4.197   1.229
 9562TIP3    H128650   0.383   4.292   1.214
 9562TIP3    H228651   0.378   4.160   1.141
 9563TIP3   OH228652   2.665   4.855   1.211
 9563TIP3    H128653   2.628   4.850   1.299
 9563TIP3    H228654   2.758   4.876   1.226
 9564TIP3   OH228655   5.304   1.801   4.606
 9564TIP3    H128656   5.282   1.708   4.600
 9564TIP3    H228657   5.255   1.832   4.682
 9565TIP3   OH228658   2.152   0.802   3.572
 9565TIP3    H128659   2.210   0.838   3.505
 9565TIP3    H228660   2.102   0.877   3.603
 9566TIP3   OH228661   1.122   4.526   4.869
 9566TIP3    H128662   1.159   4.459   4.811
 9566TIP3    H228663   1.198   4.564   4.913
 9567TIP3   OH228664   4.782   5.982   2.640
 9567TIP3    H128665   4.690   5.956   2.652
 9567TIP3    H228666   4.787   6.007   2.548
 9568TIP3   OH228667   1.603   2.195   1.389
 9568TIP3    H128668   1.673   2.190   1.454
 9568TIP3    H228669   1.648   2.214   1.307
 9569TIP3   OH228670   7.012   0.084   4.613
 9569TIP3    H128671   7.070   0.100   4.539
 9569TIP3    H228672   7.048   0.138   4.684
 9570TIP3   OH228673   5.806   0.388   0.540
 9570TIP3    H128674   5.846   0.403   0.626
 9570TIP3    H228675   5.714   0.371   0.559
 9571TIP3   OH228676   4.654   0.494   4.430
 9571TIP3    H128677   4.633   0.516   4.339
 9571TIP3    H228678   4.575   0.517   4.478
 9572TIP3   OH228679   1.030   3.554   2.280
 9572TIP3    H128680   1.087   3.491   2.324
 9572TIP3    H228681   1.075   3.638   2.290
 9573TIP3   OH228682   2.768   5.377   5.453
 9573TIP3    H128683   2.857   5.404   5.473
 9573TIP3    H228684   2.724   5.457   5.424
 9574TIP3   OH228685   2.580   5.469   4.929
 9574TIP3    H128686   2.586   5.378   4.957
 9574TIP3    H228687   2.665   5.487   4.888
 9575TIP3   OH228688   5.858   1.893   4.352
 9575TIP3    H128689   5.892   1.926   4.435
 9575TIP3    H228690   5.934   1.857   4.307
 9576TIP3   OH228691  -0.025   0.335   0.948
 9576TIP3    H128692   0.058   0.366   0.912
 9576TIP3    H228693  -0.001   0.258   1.000
 9577TIP3   OH228694   1.692   0.399   5.019
 9577TIP3    H128695   1.601   0.380   4.993
 9577TIP3    H228696   1.692   0.492   5.039
 9578TIP3   OH228697   1.170   6.012   2.842
 9578TIP3    H128698   1.191   5.923   2.815
 9578TIP3    H228699   1.080   6.026   2.811
 9579TIP3   OH228700   3.710   3.443   5.142
 9579TIP3    H128701   3.782   3.507   5.147
 9579TIP3    H228702   3.687   3.425   5.233
 9580TIP3   OH228703   2.120   4.876   4.099
 9580TIP3    H128704   2.027   4.899   4.087
 9580TIP3    H228705   2.135   4.804   4.037
 9581TIP3   OH228706   1.739   5.516   0.963
 9581TIP3    H128707   1.670   5.490   0.902
 9581TIP3    H228708   1.716   5.472   1.045
 9582TIP3   OH228709   5.851   3.697   4.589
 9582TIP3    H128710   5.919   3.675   4.525
 9582TIP3    H228711   5.823   3.613   4.625
 9583TIP3   OH228712   2.892   2.258   4.828
 9583TIP3    H128713   2.824   2.298   4.774
 9583TIP3    H228714   2.902   2.170   4.793
 9584TIP3   OH228715   6.399   2.079   2.046
 9584TIP3    H128716   6.371   2.043   2.131
 9584TIP3    H228717   6.359   2.166   2.043
 9585TIP3   OH228718   6.394   4.254   2.358
 9585TIP3    H128719   6.472   4.309   2.373
 9585TIP3    H228720   6.345   4.300   2.290
 9586TIP3   OH228721   7.074   6.717   5.400
 9586TIP3    H128722   6.985   6.734   5.370
 9586TIP3    H228723   7.128   6.779   5.350
 9587TIP3   OH228724   1.040   2.512   1.715
 9587TIP3    H128725   0.971   2.567   1.678
 9587TIP3    H228726   1.090   2.482   1.639
 9588TIP3   OH228727   6.496   4.783   5.371
 9588TIP3    H128728   6.490   4.701   5.322
 9588TIP3    H228729   6.550   4.761   5.447
 9589TIP3   OH228730   2.566   3.083   0.600
 9589TIP3    H128731   2.517   3.034   0.666
 9589TIP3    H228732   2.550   3.175   0.622
 9590TIP3   OH228733   3.456   3.086   3.150
 9590TIP3    H128734   3.423   3.026   3.217
 9590TIP3    H228735   3.377   3.121   3.108
 9591TIP3   OH228736   1.670   2.809   4.963
 9591TIP3    H128737   1.596   2.805   4.903
 9591TIP3    H228738   1.710   2.894   4.946
 9592TIP3   OH228739   1.081   1.726   0.122
 9592TIP3    H128740   1.081   1.645   0.071
 9592TIP3    H228741   1.110   1.700   0.209
 9593TIP3   OH228742   3.246   1.497   4.930
 9593TIP3    H128743   3.251   1.494   4.835
 9593TIP3    H228744   3.160   1.536   4.948
 9594TIP3   OH228745   6.041   6.297   1.167
 9594TIP3    H128746   5.963   6.254   1.132
 9594TIP3    H228747   6.106   6.227   1.173
 9595TIP3   OH228748   3.019   5.251   2.100
 9595TIP3    H128749   3.069   5.201   2.036
 9595TIP3    H228750   2.928   5.223   2.086
 9596TIP3   OH228751   5.728   1.589   0.270
 9596TIP3    H128752   5.760   1.565   0.183
 9596TIP3    H228753   5.680   1.670   0.256
 9597TIP3   OH228754   6.958   1.380   5.622
 9597TIP3    H128755   6.955   1.454   5.561
 9597TIP3    H228756   7.050   1.356   5.626
 9598TIP3   OH228757   5.353   3.647   2.397
 9598TIP3    H128758   5.286   3.643   2.328
 9598TIP3    H228759   5.328   3.578   2.459
 9599TIP3   OH228760   3.517   4.944   1.552
 9599TIP3    H128761   3.540   5.035   1.572
 9599TIP3    H228762   3.501   4.904   1.637
 9600TIP3   OH228763   3.749   4.298   5.274
 9600TIP3    H128764   3.704   4.251   5.204
 9600TIP3    H228765   3.757   4.387   5.240
 9601TIP3   OH228766   2.186   4.302   4.190
 9601TIP3    H128767   2.106   4.252   4.174
 9601TIP3    H228768   2.240   4.285   4.113
 9602TIP3   OH228769   3.225   2.599   4.256
 9602TIP3    H128770   3.260   2.667   4.314
 9602TIP3    H228771   3.151   2.562   4.304
 9603TIP3   OH228772   3.424   5.910   2.102
 9603TIP3    H128773   3.428   5.998   2.139
 9603TIP3    H228774   3.499   5.865   2.139
 9604TIP3   OH228775   4.349   2.767   5.661
 9604TIP3    H128776   4.373   2.856   5.632
 9604TIP3    H228777   4.338   2.775   5.755
 9605TIP3   OH228778   3.818   0.956   3.403
 9605TIP3    H128779   3.906   0.966   3.368
 9605TIP3    H228780   3.798   1.042   3.441
 9606TIP3   OH228781   1.284   1.908   0.200
 9606TIP3    H128782   1.201   1.863   0.184
 9606TIP3    H228783   1.258   1.992   0.240
 9607TIP3   OH228784   3.872   6.200   2.585
 9607TIP3    H128785   3.805   6.133   2.582
 9607TIP3    H228786   3.829   6.278   2.549
 9608TIP3   OH228787   1.463   4.597   3.764
 9608TIP3    H128788   1.389   4.602   3.703
 9608TIP3    H228789   1.436   4.651   3.839
 9609TIP3   OH228790   4.093   1.114   0.651
 9609TIP3    H128791   4.008   1.133   0.612
 9609TIP3    H228792   4.156   1.133   0.582
 9610TIP3   OH228793   0.547   6.271   2.963
 9610TIP3    H128794   0.458   6.270   2.998
 9610TIP3    H228795   0.596   6.329   3.022
 9611TIP3   OH228796   1.198   1.911   1.799
 9611TIP3    H128797   1.117   1.936   1.844
 9611TIP3    H228798   1.222   1.989   1.748
 9612TIP3   OH228799   0.732   0.761   3.016
 9612TIP3    H128800   0.784   0.827   2.969
 9612TIP3    H228801   0.762   0.677   2.981
 9613TIP3   OH228802   6.415   0.263   2.259
 9613TIP3    H128803   6.327   0.256   2.295
 9613TIP3    H228804   6.421   0.191   2.196
 9614TIP3   OH228805   3.344   5.545   2.338
 9614TIP3    H128806   3.262   5.575   2.300
 9614TIP3    H228807   3.399   5.524   2.262
 9615TIP3   OH228808   6.130   6.632   0.401
 9615TIP3    H128809   6.106   6.574   0.474
 9615TIP3    H228810   6.211   6.674   0.429
 9616TIP3   OH228811   0.702   3.397   4.347
 9616TIP3    H128812   0.700   3.389   4.443
 9616TIP3    H228813   0.613   3.424   4.324
 9617TIP3   OH228814   2.225   0.379   2.359
 9617TIP3    H128815   2.311   0.343   2.337
 9617TIP3    H228816   2.197   0.426   2.281
 9618TIP3   OH228817   5.469   0.270   2.357
 9618TIP3    H128818   5.426   0.226   2.431
 9618TIP3    H228819   5.517   0.201   2.313
 9619TIP3   OH228820   7.056   0.694   3.751
 9619TIP3    H128821   6.961   0.694   3.739
 9619TIP3    H228822   7.088   0.628   3.690
 9620TIP3   OH228823   5.076   6.561   1.125
 9620TIP3    H128824   5.170   6.560   1.107
 9620TIP3    H228825   5.045   6.475   1.094
 9621TIP3   OH228826   1.317   1.897   4.575
 9621TIP3    H128827   1.272   1.843   4.509
 9621TIP3    H228828   1.246   1.932   4.629
 9622TIP3   OH228829   5.112   2.502   0.959
 9622TIP3    H128830   5.204   2.515   0.980
 9622TIP3    H228831   5.071   2.475   1.041
 9623TIP3   OH228832   4.837   5.919   4.029
 9623TIP3    H128833   4.884   5.872   4.098
 9623TIP3    H228834   4.850   6.011   4.050
 9624TIP3   OH228835   2.257   4.189   0.365
 9624TIP3    H128836   2.187   4.254   0.363
 9624TIP3    H228837   2.246   4.140   0.284
 9625TIP3   OH228838   4.483   4.851   0.652
 9625TIP3    H128839   4.545   4.890   0.714
 9625TIP3    H228840   4.522   4.766   0.630
 9626TIP3   OH228841   2.998   4.210   5.547
 9626TIP3    H128842   3.079   4.246   5.511
 9626TIP3    H228843   2.972   4.142   5.484
 9627TIP3   OH228844   3.569   0.353   5.130
 9627TIP3    H128845   3.552   0.446   5.147
 9627TIP3    H228846   3.521   0.334   5.050
 9628TIP3   OH228847   1.425   0.448   4.894
 9628TIP3    H128848   1.344   0.499   4.898
 9628TIP3    H228849   1.401   0.368   4.847
 9629TIP3   OH228850   2.001  -0.018   5.330
 9629TIP3    H128851   2.039   0.062   5.294
 9629TIP3    H228852   1.907   0.002   5.337
 9630TIP3   OH228853   4.490   4.170   2.303
 9630TIP3    H128854   4.416   4.220   2.338
 9630TIP3    H228855   4.470   4.161   2.209
 9631TIP3   OH228856   2.045   6.590   1.170
 9631TIP3    H128857   2.020   6.626   1.084
 9631TIP3    H228858   1.979   6.624   1.230
 9632TIP3   OH228859   5.492   1.492   4.211
 9632TIP3    H128860   5.485   1.526   4.122
 9632TIP3    H228861   5.408   1.449   4.227
 9633TIP3   OH228862   2.298   6.700   0.066
 9633TIP3    H128863   2.243   6.621   0.068
 9633TIP3    H228864   2.246   6.764   0.019
 9634TIP3   OH228865   0.966   0.467   3.698
 9634TIP3    H128866   1.027   0.464   3.772
 9634TIP3    H228867   0.974   0.380   3.657
 9635TIP3   OH228868   6.695   6.217   0.073
 9635TIP3    H128869   6.760   6.166   0.121
 9635TIP3    H228870   6.612   6.172   0.089
 9636TIP3   OH228871   2.755   1.721   4.357
 9636TIP3    H128872   2.795   1.680   4.434
 9636TIP3    H228873   2.704   1.651   4.316
 9637TIP3   OH228874   3.460   5.760   5.722
 9637TIP3    H128875   3.421   5.730   5.640
 9637TIP3    H228876   3.538   5.706   5.733
 9638TIP3   OH228877   7.148   4.880   0.573
 9638TIP3    H128878   7.091   4.944   0.531
 9638TIP3    H228879   7.191   4.835   0.501
 9639TIP3   OH228880   5.180   3.064   5.700
 9639TIP3    H128881   5.246   3.130   5.677
 9639TIP3    H228882   5.182   3.061   5.796
 9640TIP3   OH228883   0.386   3.385   4.013
 9640TIP3    H128884   0.442   3.312   3.988
 9640TIP3    H228885   0.319   3.346   4.069
 9641TIP3   OH228886   2.657   1.836   3.773
 9641TIP3    H128887   2.652   1.931   3.776
 9641TIP3    H228888   2.713   1.812   3.847
 9642TIP3   OH228889   4.853   6.353   2.811
 9642TIP3    H128890   4.909   6.394   2.746
 9642TIP3    H228891   4.766   6.389   2.795
 9643TIP3   OH228892   3.831   4.991   3.107
 9643TIP3    H128893   3.877   4.909   3.122
 9643TIP3    H228894   3.788   4.979   3.022
 9644TIP3   OH228895   7.186   0.815   2.406
 9644TIP3    H128896   7.118   0.758   2.444
 9644TIP3    H228897   7.185   0.893   2.461
 9645TIP3   OH228898   5.070   2.044   1.061
 9645TIP3    H128899   5.041   1.998   1.140
 9645TIP3    H228900   5.004   2.112   1.048
 9646TIP3   OH228901   3.510   6.723   4.968
 9646TIP3    H128902   3.494   6.705   4.876
 9646TIP3    H228903   3.592   6.773   4.970
 9647TIP3   OH228904   0.314   1.814   1.003
 9647TIP3    H128905   0.228   1.831   1.041
 9647TIP3    H228906   0.340   1.897   0.963
 9648TIP3   OH228907   3.975   5.642   0.320
 9648TIP3    H128908   3.885   5.654   0.351
 9648TIP3    H228909   4.011   5.574   0.377
 9649TIP3   OH228910   0.393   2.426   5.588
 9649TIP3    H128911   0.365   2.336   5.602
 9649TIP3    H228912   0.404   2.462   5.676
 9650TIP3   OH228913   4.787   6.036   0.658
 9650TIP3    H128914   4.721   5.975   0.692
 9650TIP3    H228915   4.863   6.023   0.714
 9651TIP3   OH228916   3.525   6.212   0.502
 9651TIP3    H128917   3.542   6.118   0.506
 9651TIP3    H228918   3.558   6.246   0.586
 9652TIP3   OH228919   3.201   3.313   5.654
 9652TIP3    H128920   3.251   3.292   5.733
 9652TIP3    H228921   3.192   3.229   5.609
 9653TIP3   OH228922   2.064   4.533   0.922
 9653TIP3    H128923   2.026   4.612   0.885
 9653TIP3    H228924   2.152   4.559   0.949
 9654TIP3   OH228925   1.414   0.203   4.752
 9654TIP3    H128926   1.397   0.149   4.829
 9654TIP3    H228927   1.485   0.158   4.706
 9655TIP3   OH228928   1.550   5.526   1.657
 9655TIP3    H128929   1.489   5.600   1.657
 9655TIP3    H228930   1.500   5.454   1.696
 9656TIP3   OH228931   3.854   1.982   4.385
 9656TIP3    H128932   3.844   2.051   4.450
 9656TIP3    H228933   3.770   1.936   4.385
 9657TIP3   OH228934   6.013   3.363   4.904
 9657TIP3    H128935   5.958   3.440   4.885
 9657TIP3    H228936   6.073   3.394   4.972
 9658TIP3   OH228937   5.425   4.520   4.292
 9658TIP3    H128938   5.515   4.553   4.292
 9658TIP3    H228939   5.433   4.429   4.263
 9659TIP3   OH228940   5.588   0.748   2.784
 9659TIP3    H128941   5.611   0.839   2.803
 9659TIP3    H228942   5.662   0.698   2.816
 9660TIP3   OH228943   4.110   0.051   1.462
 9660TIP3    H128944   4.155   0.099   1.531
 9660TIP3    H228945   4.019   0.044   1.493
 9661TIP3   OH228946   3.304   5.486   4.419
 9661TIP3    H128947   3.269   5.398   4.401
 9661TIP3    H228948   3.278   5.504   4.510
 9662TIP3   OH228949   3.781   1.170   5.180
 9662TIP3    H128950   3.834   1.184   5.258
 9662TIP3    H228951   3.697   1.212   5.200
 9663TIP3   OH228952   6.159   6.076   0.513
 9663TIP3    H128953   6.217   6.033   0.450
 9663TIP3    H228954   6.218   6.130   0.566
 9664TIP3   OH228955   1.995   6.338   0.647
 9664TIP3    H128956   1.938   6.280   0.596
 9664TIP3    H228957   1.936   6.401   0.688
 9665TIP3   OH228958   4.129   5.302   1.772
 9665TIP3    H128959   4.138   5.369   1.840
 9665TIP3    H228960   4.210   5.252   1.776
 9666TIP3   OH228961   0.998   0.756   3.710
 9666TIP3    H128962   1.091   0.736   3.698
 9666TIP3    H228963   0.954   0.672   3.700
 9667TIP3   OH228964   1.677   0.825   4.326
 9667TIP3    H128965   1.689   0.893   4.392
 9667TIP3    H228966   1.609   0.859   4.269
 9668TIP3   OH228967   5.237   6.799   0.854
 9668TIP3    H128968   5.156   6.747   0.855
 9668TIP3    H228969   5.276   6.781   0.768
 9669TIP3   OH228970   2.233   5.447   4.734
 9669TIP3    H128971   2.150   5.402   4.747
 9669TIP3    H228972   2.300   5.379   4.745
 9670TIP3   OH228973   2.098   2.913   0.691
 9670TIP3    H128974   2.095   3.006   0.671
 9670TIP3    H228975   2.069   2.906   0.782
 9671TIP3   OH228976   0.302   6.415   4.684
 9671TIP3    H128977   0.252   6.495   4.703
 9671TIP3    H228978   0.384   6.427   4.732
 9672TIP3   OH228979   1.199   4.229   1.297
 9672TIP3    H128980   1.265   4.259   1.359
 9672TIP3    H228981   1.116   4.263   1.331
 9673TIP3   OH228982   4.283   3.515   2.102
 9673TIP3    H128983   4.234   3.465   2.036
 9673TIP3    H228984   4.364   3.465   2.115
 9674TIP3   OH228985   4.165   2.663   4.059
 9674TIP3    H128986   4.191   2.673   3.967
 9674TIP3    H228987   4.096   2.728   4.072
 9675TIP3   OH228988   0.499   3.199   4.998
 9675TIP3    H128989   0.440   3.262   4.956
 9675TIP3    H228990   0.579   3.249   5.017
 9676TIP3   OH228991   3.808   3.407   2.613
 9676TIP3    H128992   3.789   3.500   2.600
 9676TIP3    H228993   3.745   3.361   2.557
 9677TIP3   OH228994   0.652   5.783   2.379
 9677TIP3    H128995   0.741   5.804   2.350
 9677TIP3    H228996   0.624   5.712   2.322
 9678TIP3   OH228997   0.112   0.064   0.706
 9678TIP3    H128998   0.157   0.147   0.692
 9678TIP3    H228999   0.096   0.060   0.800
 9679TIP3   OH229000   1.357   2.712   1.386
 9679TIP3    H129001   1.277   2.661   1.372
 9679TIP3    H229002   1.332   2.802   1.367
 9680TIP3   OH229003   2.181   4.300   0.997
 9680TIP3    H129004   2.263   4.345   1.019
 9680TIP3    H229005   2.120   4.371   0.977
 9681TIP3   OH229006   5.661   2.825   0.842
 9681TIP3    H129007   5.741   2.867   0.874
 9681TIP3    H229008   5.611   2.896   0.802
 9682TIP3   OH229009   4.258   0.678   3.754
 9682TIP3    H129010   4.232   0.586   3.764
 9682TIP3    H229011   4.238   0.698   3.662
 9683TIP3   OH229012   3.454   2.182   5.901
 9683TIP3    H129013   3.379   2.126   5.880
 9683TIP3    H229014   3.524   2.152   5.843
 9684TIP3   OH229015   4.915   3.966   1.015
 9684TIP3    H129016   4.964   3.941   1.093
 9684TIP3    H229017   4.844   3.902   1.009
 9685TIP3   OH229018   5.809   5.546   4.093
 9685TIP3    H129019   5.730   5.502   4.124
 9685TIP3    H229020   5.816   5.624   4.149
 9686TIP3   OH229021   4.627   2.276   2.251
 9686TIP3    H129022   4.665   2.327   2.323
 9686TIP3    H229023   4.534   2.266   2.275
 9687TIP3   OH229024   3.648   4.558   2.840
 9687TIP3    H129025   3.603   4.572   2.756
 9687TIP3    H229026   3.716   4.625   2.842
 9688TIP3   OH229027   3.320   3.494   4.072
 9688TIP3    H129028   3.225   3.499   4.064
 9688TIP3    H229029   3.349   3.461   3.987
 9689TIP3   OH229030   0.253   2.641   5.023
 9689TIP3    H129031   0.188   2.617   5.089
 9689TIP3    H229032   0.332   2.661   5.073
 9690TIP3   OH229033   4.345   5.201   2.600
 9690TIP3    H129034   4.350   5.293   2.626
 9690TIP3    H229035   4.310   5.157   2.677
 9691TIP3   OH229036   4.113   2.267   0.022
 9691TIP3    H129037   4.082   2.336   0.080
 9691TIP3    H229038   4.039   2.251  -0.037
 9692TIP3   OH229039   3.992   1.432   1.586
 9692TIP3    H129040   4.052   1.397   1.520
 9692TIP3    H229041   3.957   1.355   1.631
 9693TIP3   OH229042   6.403   2.612   5.376
 9693TIP3    H129043   6.489   2.594   5.415
 9693TIP3    H229044   6.381   2.700   5.406
 9694TIP3   OH229045   1.770   0.468   2.479
 9694TIP3    H129046   1.807   0.552   2.506
 9694TIP3    H229047   1.846   0.418   2.449
 9695TIP3   OH229048   5.591   5.709   2.861
 9695TIP3    H129049   5.520   5.748   2.911
 9695TIP3    H229050   5.643   5.662   2.926
 9696TIP3   OH229051   5.981   1.241   5.482
 9696TIP3    H129052   5.909   1.188   5.446
 9696TIP3    H229053   6.056   1.221   5.426
 9697TIP3   OH229054   0.967   5.387   5.751
 9697TIP3    H129055   0.902   5.334   5.706
 9697TIP3    H229056   1.009   5.328   5.814
 9698TIP3   OH229057   0.972   2.407   4.336
 9698TIP3    H129058   1.033   2.334   4.352
 9698TIP3    H229059   1.001   2.444   4.252
 9699TIP3   OH229060   0.026   4.311   1.633
 9699TIP3    H129061   0.048   4.370   1.561
 9699TIP3    H229062   0.086   4.335   1.703
 9700TIP3   OH229063   3.581   0.865   2.448
 9700TIP3    H129064   3.487   0.847   2.434
 9700TIP3    H229065   3.602   0.935   2.387
 9701TIP3   OH229066   5.844   2.783   5.513
 9701TIP3    H129067   5.780   2.739   5.568
 9701TIP3    H229068   5.812   2.770   5.423
 9702TIP3   OH229069   6.935   2.261   4.965
 9702TIP3    H129070   6.943   2.204   5.042
 9702TIP3    H229071   6.948   2.202   4.891
 9703TIP3   OH229072   2.507   4.963   0.353
 9703TIP3    H129073   2.531   4.903   0.283
 9703TIP3    H229074   2.461   4.909   0.417
 9704TIP3   OH229075   3.570   2.418   4.731
 9704TIP3    H129076   3.527   2.487   4.780
 9704TIP3    H229077   3.511   2.343   4.738
 9705TIP3   OH229078   2.967   5.038   3.792
 9705TIP3    H129079   2.883   4.997   3.768
 9705TIP3    H229080   3.024   5.021   3.718
 9706TIP3   OH229081   1.320   5.537   5.902
 9706TIP3    H129082   1.369   5.486   5.838
 9706TIP3    H229083   1.230   5.535   5.869
 9707TIP3   OH229084   0.255   2.438   1.364
 9707TIP3    H129085   0.213   2.355   1.340
 9707TIP3    H229086   0.278   2.427   1.456
 9708TIP3   OH229087   5.978   4.694   2.216
 9708TIP3    H129088   6.072   4.704   2.229
 9708TIP3    H229089   5.951   4.775   2.173
 9709TIP3   OH229090   2.175   2.399   4.994
 9709TIP3    H129091   2.150   2.419   5.084
 9709TIP3    H229092   2.256   2.448   4.980
 9710TIP3   OH229093   4.661   3.770   0.677
 9710TIP3    H129094   4.704   3.756   0.761
 9710TIP3    H229095   4.710   3.715   0.616
 9711TIP3   OH229096   0.050   2.834   1.640
 9711TIP3    H129097   0.012   2.906   1.590
 9711TIP3    H229098   0.127   2.807   1.589
 9712TIP3   OH229099   2.365   0.212   3.834
 9712TIP3    H129100   2.283   0.177   3.868
 9712TIP3    H229101   2.373   0.299   3.872
 9713TIP3   OH229102   5.900   1.584   3.265
 9713TIP3    H129103   5.879   1.612   3.354
 9713TIP3    H229104   5.986   1.623   3.247
 9714TIP3   OH229105   5.495   1.230   0.981
 9714TIP3    H129106   5.413   1.202   0.940
 9714TIP3    H229107   5.564   1.193   0.925
 9715TIP3   OH229108   0.848   3.507   4.783
 9715TIP3    H129109   0.916   3.477   4.843
 9715TIP3    H229110   0.887   3.580   4.736
 9716TIP3   OH229111   7.034   6.021   2.712
 9716TIP3    H129112   6.986   6.032   2.794
 9716TIP3    H229113   7.106   5.962   2.734
 9717TIP3   OH229114   6.143   1.441   5.655
 9717TIP3    H129115   6.085   1.404   5.588
 9717TIP3    H229116   6.184   1.365   5.695
 9718TIP3   OH229117   4.551   0.468   3.849
 9718TIP3    H129118   4.528   0.418   3.927
 9718TIP3    H229119   4.557   0.402   3.780
 9719TIP3   OH229120   7.069   1.759   2.599
 9719TIP3    H129121   7.146   1.746   2.544
 9719TIP3    H229122   7.072   1.852   2.622
 9720TIP3   OH229123   4.090   0.128   5.837
 9720TIP3    H129124   4.156   0.077   5.790
 9720TIP3    H229125   4.102   0.217   5.803
 9721TIP3   OH229126   4.596   4.506   1.565
 9721TIP3    H129127   4.511   4.549   1.552
 9721TIP3    H229128   4.646   4.569   1.617
 9722TIP3   OH229129   2.501   4.259   3.603
 9722TIP3    H129130   2.407   4.260   3.581
 9722TIP3    H229131   2.544   4.295   3.525
 9723TIP3   OH229132   0.393   3.270   5.282
 9723TIP3    H129133   0.478   3.230   5.262
 9723TIP3    H229134   0.343   3.200   5.324
 9724TIP3   OH229135   2.384   1.095   3.005
 9724TIP3    H129136   2.472   1.132   3.005
 9724TIP3    H229137   2.335   1.150   3.066
 9725TIP3   OH229138   5.768   1.794   0.549
 9725TIP3    H129139   5.690   1.767   0.598
 9725TIP3    H229140   5.780   1.886   0.574
 9726TIP3   OH229141   2.785   4.330   4.701
 9726TIP3    H129142   2.758   4.387   4.629
 9726TIP3    H229143   2.704   4.301   4.742
 9727TIP3   OH229144   0.946   5.797   4.933
 9727TIP3    H129145   0.891   5.862   4.889
 9727TIP3    H229146   0.995   5.755   4.863
 9728TIP3   OH229147   1.029   6.446   1.197
 9728TIP3    H129148   1.124   6.460   1.197
 9728TIP3    H229149   1.012   6.405   1.282
 9729TIP3   OH229150   1.542   1.795   2.623
 9729TIP3    H129151   1.503   1.711   2.601
 9729TIP3    H229152   1.496   1.824   2.701
 9730TIP3   OH229153   3.959   0.555   3.304
 9730TIP3    H129154   3.868   0.571   3.330
 9730TIP3    H229155   3.992   0.494   3.371
 9731TIP3   OH229156   1.310   2.389   4.898
 9731TIP3    H129157   1.347   2.317   4.846
 9731TIP3    H229158   1.266   2.444   4.833
 9732TIP3   OH229159   4.654   1.412   4.917
 9732TIP3    H129160   4.643   1.339   4.856
 9732TIP3    H229161   4.578   1.409   4.974
 9733TIP3   OH229162   3.699   2.939   5.252
 9733TIP3    H129163   3.624   2.919   5.308
 9733TIP3    H229164   3.763   2.871   5.272
 9734TIP3   OH229165   1.510   2.795   2.129
 9734TIP3    H129166   1.570   2.816   2.057
 9734TIP3    H229167   1.540   2.710   2.162
 9735TIP3   OH229168   1.218   4.151   4.241
 9735TIP3    H129169   1.141   4.100   4.216
 9735TIP3    H229170   1.289   4.117   4.187
 9736TIP3   OH229171   6.084   4.448   5.013
 9736TIP3    H129172   6.070   4.459   4.919
 9736TIP3    H229173   6.179   4.440   5.022
 9737TIP3   OH229174   5.139   2.039   0.523
 9737TIP3    H129175   5.201   2.107   0.495
 9737TIP3    H229176   5.085   2.082   0.590
 9738TIP3   OH229177   6.505   2.852   1.665
 9738TIP3    H129178   6.555   2.778   1.632
 9738TIP3    H229179   6.427   2.854   1.609
 9739TIP3   OH229180   1.130   1.916   1.001
 9739TIP3    H129181   1.142   1.964   1.083
 9739TIP3    H229182   1.037   1.926   0.982
 9740TIP3   OH229183   6.441   2.235   0.907
 9740TIP3    H129184   6.521   2.201   0.867
 9740TIP3    H229185   6.469   2.272   0.990
 9741TIP3   OH229186   1.422   0.621   4.216
 9741TIP3    H129187   1.379   0.573   4.145
 9741TIP3    H229188   1.350   0.658   4.267
 9742TIP3   OH229189   1.497   3.242   5.525
 9742TIP3    H129190   1.506   3.257   5.619
 9742TIP3    H229191   1.587   3.251   5.491
 9743TIP3   OH229192   0.664   5.160   4.748
 9743TIP3    H129193   0.593   5.205   4.701
 9743TIP3    H229194   0.666   5.201   4.834
 9744TIP3   OH229195   1.831   3.088   0.005
 9744TIP3    H129196   1.893   3.059   0.072
 9744TIP3    H229197   1.759   3.128   0.054
 9745TIP3   OH229198   5.622   0.919   4.930
 9745TIP3    H129199   5.697   0.977   4.942
 9745TIP3    H229200   5.651   0.835   4.968
 9746TIP3   OH229201   6.526   2.662   5.718
 9746TIP3    H129202   6.520   2.718   5.796
 9746TIP3    H229203   6.596   2.700   5.666
 9747TIP3   OH229204   6.949   3.224   3.395
 9747TIP3    H129205   6.913   3.147   3.352
 9747TIP3    H229206   6.875   3.285   3.403
 9748TIP3   OH229207   3.113   2.094   0.330
 9748TIP3    H129208   3.022   2.116   0.350
 9748TIP3    H229209   3.153   2.078   0.415
 9749TIP3   OH229210   1.007   2.162   2.966
 9749TIP3    H129211   1.037   2.072   2.977
 9749TIP3    H229212   1.084   2.211   2.939
   7.20501   6.79296   5.88286   0.00000   0.00000  -2.40168   0.00000  -2.40168  -3.39647
