Title
29212
    1ASP      N    1   2.228   1.772   2.465  0.1167  0.0014  0.3076
    1ASP    HT1    2   2.170   1.696   2.425 -1.7773  1.8427 -0.6782
    1ASP    HT2    3   2.324   1.732   2.475  0.9205  0.7930 -2.9118
    1ASP    HT3    4   2.230   1.859   2.408  1.5114 -0.9470 -1.1889
    1ASP     CA    5   2.172   1.799   2.605 -0.2669  0.5913  0.4247
    1ASP     HA    6   2.065   1.812   2.596 -0.4394 -0.4895  0.7444
    1ASP     CB    7   2.198   1.670   2.691 -0.5365 -0.2862 -0.2661
    1ASP    HB1    8   2.177   1.692   2.798  1.2821 -0.3738  0.1572
    1ASP    HB2    9   2.299   1.624   2.680 -0.8704 -0.8685 -0.9599
    1ASP     CG   10   2.107   1.556   2.645  0.1682 -0.5492  0.0802
    1ASP    OD1   11   2.003   1.588   2.579  0.2488  0.3241  0.0488
    1ASP    OD2   12   2.121   1.440   2.697 -0.2734 -0.1275 -0.2929
    1ASP      C   13   2.224   1.924   2.667  0.8056  0.2634  0.4329
    1ASP      O   14   2.208   2.025   2.602 -0.7765  0.1813  0.4539
    2GLY      N   15   2.284   1.924   2.788 -0.0441  0.1341  0.0676
    2GLY     HN   16   2.324   1.838   2.819  3.4947  1.9088  0.9723
    2GLY     CA   17   2.333   2.046   2.852  0.4580  0.3848  0.9000
    2GLY    HA1   18   2.398   2.015   2.932  1.2493  0.9963  0.5191
    2GLY    HA2   19   2.242   2.098   2.880  0.0479 -0.4904  1.1981
    2GLY      C   20   2.418   2.140   2.772 -0.0978  0.4051 -0.0920
    2GLY      O   21   2.492   2.103   2.682 -0.4434 -0.1987 -0.5003
    3ASP      N   22   2.402   2.271   2.798 -0.1642  0.6668  0.8622
    3ASP     HN   23   2.331   2.307   2.859 -1.3232  2.0567 -1.1988
    3ASP     CA   24   2.468   2.381   2.726  0.8336 -0.4051  0.3438
    3ASP     HA   25   2.446   2.354   2.624 -0.3133 -0.0441  0.4835
    3ASP     CB   26   2.419   2.514   2.776 -0.7089 -1.1879  0.1742
    3ASP    HB1   27   2.470   2.603   2.733 -2.5977 -0.5987 -0.9724
    3ASP    HB2   28   2.439   2.515   2.886  1.2862 -2.1738 -0.1502
    3ASP     CG   29   2.267   2.530   2.755 -0.0566  0.6368 -0.3938
    3ASP    OD1   30   2.198   2.608   2.827  0.2834 -0.3823 -0.2979
    3ASP    OD2   31   2.218   2.472   2.653  0.3364 -0.3486 -0.2984
    3ASP      C   32   2.612   2.379   2.730  0.1430  0.8946 -0.6090
    3ASP      O   33   2.669   2.320   2.820  0.2946 -0.8740 -0.3331
    4GLY      N   34   2.678   2.438   2.635  0.2893 -0.1732 -0.2902
    4GLY     HN   35   2.633   2.485   2.560  1.8605 -0.0206 -1.1857
    4GLY     CA   36   2.825   2.469   2.650 -0.1334  0.0047 -0.4822
    4GLY    HA1   37   2.862   2.515   2.560 -0.6490  0.5982 -0.3942
    4GLY    HA2   38   2.876   2.375   2.668  1.8502  1.2972  1.1074
    4GLY      C   39   2.866   2.559   2.759  0.1572  1.2044  0.1997
    4GLY      O   40   2.779   2.613   2.826  0.0589 -0.5455 -0.2941
    5PRO      N   41   2.995   2.579   2.784  0.9442 -0.1712  0.0437
    5PRO     CD   42   3.104   2.524   2.701 -0.1879 -0.0697  0.0937
    5PRO    HD1   43   3.094   2.530   2.591 -2.5872  0.0858  0.2554
    5PRO    HD2   44   3.094   2.417   2.729 -0.0158 -0.0235  0.3309
    5PRO     CA   45   3.035   2.693   2.862 -0.7347 -0.5324  0.2986
    5PRO     HA   46   2.980   2.692   2.955  0.7018  0.1880  1.1900
    5PRO     CB   47   3.194   2.677   2.875  1.1817  0.3731  0.0610
    5PRO    HB1   48   3.216   2.637   2.976 -0.0213  0.8678  0.5385
    5PRO    HB2   49   3.244   2.776   2.884 -2.4306  2.5045 -0.8077
    5PRO     CG   50   3.232   2.596   2.751  0.1895  0.2247  0.6927
    5PRO    HG1   51   3.259   2.664   2.668  0.9493 -0.1622  0.6156
    5PRO    HG2   52   3.316   2.526   2.772 -1.0167 -1.2941  0.6632
    5PRO      C   53   3.000   2.827   2.793 -0.2641  0.3099  0.2810
    5PRO      O   54   3.012   2.838   2.670 -0.0452 -0.0374  0.2958
    6GLY      N   55   2.943   2.923   2.873 -0.5523 -0.4485  0.8742
    6GLY     HN   56   2.935   2.910   2.972  0.4915 -2.0432  0.7939
    6GLY     CA   57   2.899   3.055   2.826  0.2726 -0.4173  0.5543
    6GLY    HA1   58   2.864   3.098   2.918 -0.9857 -2.8264  1.2771
    6GLY    HA2   59   2.821   3.046   2.752  0.7376  0.8070 -0.1092
    6GLY      C   60   3.009   3.138   2.758 -0.2512 -0.2644 -0.5429
    6GLY      O   61   3.125   3.102   2.776 -0.2456 -0.6496  0.4833
    7ASP      N   62   2.974   3.259   2.705  0.4228  0.4179 -0.0648
    7ASP     HN   63   2.880   3.292   2.714  0.4437  0.7492 -0.9805
    7ASP     CA   64   3.067   3.358   2.653 -0.2646  0.1086  0.0631
    7ASP     HA   65   3.155   3.303   2.624 -0.5321 -1.1448  1.4721
    7ASP     CB   66   3.007   3.438   2.540 -0.6792  0.3713 -0.3215
    7ASP    HB1   67   3.073   3.527   2.529 -0.1541 -0.1333 -1.4017
    7ASP    HB2   68   2.900   3.458   2.560 -0.1288  1.2020  2.1451
    7ASP     CG   69   3.032   3.361   2.414 -0.0105  0.9832 -0.7222
    7ASP    OD1   70   2.963   3.393   2.314 -1.3345 -0.3964  0.5241
    7ASP    OD2   71   3.098   3.256   2.414 -0.1622 -0.2358 -0.6355
    7ASP      C   72   3.108   3.443   2.763 -0.8875  0.0599 -0.1561
    7ASP      O   73   3.014   3.497   2.820 -0.2004 -0.0350  0.0334
    8PRO      N   74   3.239   3.470   2.790 -0.5232  0.3237  0.0626
    8PRO     CD   75   3.351   3.401   2.724 -0.2855  0.3292  0.8614
    8PRO    HD1   76   3.367   3.453   2.627 -0.5683  0.1757  0.7303
    8PRO    HD2   77   3.341   3.291   2.718  0.1073  0.3600 -0.8131
    8PRO     CA   78   3.292   3.574   2.875  0.3133 -0.4705 -0.4950
    8PRO     HA   79   3.297   3.556   2.981 -1.0965  3.3090  0.3612
    8PRO     CB   80   3.443   3.587   2.830  0.5727  0.4322 -0.0118
    8PRO    HB1   81   3.514   3.640   2.898  1.7887 -2.2667  0.9506
    8PRO    HB2   82   3.453   3.642   2.733  1.3804 -1.5834 -1.1437
    8PRO     CG   83   3.477   3.441   2.806  0.2968 -0.3430  0.0433
    8PRO    HG1   84   3.572   3.425   2.750  1.3537  3.1133  0.6255
    8PRO    HG2   85   3.478   3.387   2.903  0.9957 -1.9432 -0.8203
    8PRO      C   86   3.210   3.707   2.871 -0.0426  0.5502 -0.2771
    8PRO      O   87   3.189   3.771   2.768  0.1024 -0.2396 -0.1796
    9GLY      N   88   3.164   3.745   2.990  0.0537  0.1407  0.3245
    9GLY     HN   89   3.173   3.688   3.072 -0.4779  0.1457  0.3936
    9GLY     CA   90   3.064   3.852   3.007  0.0768 -0.0721 -0.0458
    9GLY    HA1   91   3.046   3.857   3.114 -0.5704  0.6503 -0.1832
    9GLY    HA2   92   2.973   3.829   2.954  0.6418 -0.5130 -0.8520
    9GLY      C   93   3.114   3.990   2.975  0.2034 -0.3036  0.6947
    9GLY      O   94   3.232   4.012   2.958  0.3245  0.1417 -0.1125
   10ASP      N   95   3.028   4.088   2.964 -0.3618 -0.2843  0.0146
   10ASP     HN   96   2.929   4.091   2.957 -0.3356 -0.1557 -0.3664
   10ASP     CA   97   3.069   4.229   2.941 -0.1198 -0.0094 -0.3523
   10ASP     HA   98   3.134   4.233   2.854  0.0784 -2.2240 -0.3675
   10ASP     CB   99   2.946   4.320   2.920  0.0829  0.6318  0.2778
   10ASP    HB1  100   2.964   4.429   2.935  1.6270  0.3926  0.3325
   10ASP    HB2  101   2.872   4.296   2.999 -0.8166 -1.5156 -1.1444
   10ASP     CG  102   2.883   4.290   2.784  0.1715  0.0906  0.7467
   10ASP    OD1  103   2.776   4.353   2.753  0.0042  0.0592 -0.2340
   10ASP    OD2  104   2.931   4.204   2.708 -0.6777  0.0814  0.1455
   10ASP      C  105   3.144   4.280   3.062  0.2052 -0.1576  0.0973
   10ASP      O  106   3.089   4.279   3.174  0.1265  0.2132  0.4146
   11GLY      N  107   3.269   4.322   3.046  0.1716 -0.0358 -0.5506
   11GLY     HN  108   3.318   4.326   2.960 -0.3549 -2.1860 -1.0281
   11GLY     CA  109   3.347   4.370   3.157 -0.2771 -0.2838 -0.1860
   11GLY    HA1  110   3.401   4.285   3.196 -1.0847 -0.4685  0.5793
   11GLY    HA2  111   3.287   4.434   3.221 -1.0271 -0.4606 -0.7025
   11GLY      C  112   3.444   4.473   3.098  0.0077 -0.5811  0.3079
   11GLY    OT1  113   3.529   4.441   3.006 -0.3129 -0.1489 -0.0095
   11GLY    OT2  114   3.430   4.597   3.124 -0.4229 -0.4851  0.4017
   12SOD    SOD  115   4.962   2.295   3.868 -0.2737 -0.0151 -0.3367
   13SOD    SOD  116   6.590   3.683   1.065  0.1114  0.2735 -0.1579
   14SOD    SOD  117   3.034   3.936   1.826  0.4025  0.5506 -0.2729
   15SOD    SOD  118   6.528   6.207   1.359  0.5147  0.2180 -0.3807
   16SOD    SOD  119   4.788   3.405   1.261 -0.2378 -0.4351 -0.3687
   17SOD    SOD  120   0.143   1.460   5.109 -0.3061  0.2460  0.1026
   18SOD    SOD  121   6.077   1.076   1.114 -0.7401  0.2427  0.3484
   19SOD    SOD  122   7.138   2.757   1.878 -0.1136  0.5101 -0.5263
   20SOD    SOD  123   0.819   4.373   1.931  0.5624  0.0618  0.4927
   21SOD    SOD  124   1.429   5.499   3.658 -0.0352 -0.1361 -0.1009
   22SOD    SOD  125   1.564   6.659   4.367 -0.3833 -0.1446  0.0338
   23SOD    SOD  126   1.675   1.199   3.234 -0.3531  0.0646 -0.1856
   24SOD    SOD  127   6.323   0.432   5.856  0.1508  0.2246 -0.1096
   25SOD    SOD  128   3.630   3.985   1.807  0.2417  0.1785 -0.0884
   26SOD    SOD  129   4.353   5.759   5.541  0.1437 -0.2637  0.2816
   27SOD    SOD  130   2.768   4.266   0.862 -0.1383 -0.1883  0.0676
   28SOD    SOD  131   2.496   6.225   5.254 -0.2940 -0.0014 -0.1140
   29SOD    SOD  132   2.461   1.061   4.727 -0.1556  0.6058 -0.1959
   30SOD    SOD  133   1.624   4.283   4.531  0.1957  0.2758  0.0839
   31SOD    SOD  134   6.382   6.467   2.457 -0.1210 -0.0960 -0.1849
   32SOD    SOD  135   4.175   4.267   3.240  0.2184 -0.2523 -0.3038
   33SOD    SOD  136   2.428   2.895   1.569  0.1610 -0.1952 -0.2329
   34SOD    SOD  137   4.200   5.517   0.130 -0.6251 -0.1780 -0.0530
   35SOD    SOD  138   3.045   4.789   2.999  0.2851  0.2723 -0.2603
   36SOD    SOD  139   1.529   4.947   2.473 -0.0672 -0.1195 -0.4509
   37SOD    SOD  140   3.257   4.050   4.680  0.2501 -0.4499  0.4052
   38SOD    SOD  141   6.484   3.911   2.664 -0.0339  0.0135 -0.4088
   39SOD    SOD  142   2.572   6.486   2.992  0.1039  0.1812 -0.2210
   40SOD    SOD  143   5.855   2.387   4.013 -0.2933  0.5832  0.1040
   41SOD    SOD  144   4.426   2.951   5.210 -0.6913  0.2037 -0.2108
   42SOD    SOD  145   2.264   5.032   0.182  0.4154  0.0203  0.2863
   43CLA    CLA  146   0.760   4.781   3.942 -0.5383 -0.3811 -0.2964
   44CLA    CLA  147   3.910   0.351   3.036  0.5121 -0.1106  0.0599
   45CLA    CLA  148   3.371   2.575   1.019 -0.2447  0.3172 -0.2341
   46CLA    CLA  149   7.139   2.507   3.133  0.1986  0.2241 -0.1772
   47CLA    CLA  150   5.401   2.332   0.496  0.0294  0.2139 -0.1957
   48CLA    CLA  151   5.982   6.141   0.327  0.4307  0.0381 -0.1500
   49CLA    CLA  152   1.783   5.287   0.682  0.1953 -0.1106  0.1965
   50CLA    CLA  153   5.545   2.347   5.644  0.2911 -0.2164 -0.4043
   51CLA    CLA  154   7.099   0.995   4.026 -0.0093  0.0200  0.0433
   52CLA    CLA  155   5.740   5.270   0.738 -0.3592 -0.5353 -0.1244
   53CLA    CLA  156   1.659   3.971   1.211  0.1090 -0.0980 -0.2013
   54CLA    CLA  157   6.953   3.505   5.307 -0.5294 -0.0096 -0.0131
   55CLA    CLA  158   3.520   4.864   5.499  0.0318  0.3178 -0.0791
   56CLA    CLA  159   6.886   1.887   1.486  0.0791 -0.2213 -0.3002
   57CLA    CLA  160   1.502   1.583   4.832 -0.1642  0.0646 -0.0650
   58CLA    CLA  161   6.505   5.597   1.053  0.4802 -0.7221  0.0270
   59CLA    CLA  162   5.995   0.120   0.966 -0.1357 -0.1453  0.1248
   60CLA    CLA  163   1.786   5.810   4.170 -0.4429  0.2526  0.3253
   61CLA    CLA  164   6.373   4.215   1.820  0.2824 -0.0048  0.4238
   62CLA    CLA  165   4.527   3.524   4.208 -0.1137  0.1411  0.4626
   63CLA    CLA  166   2.076   0.741   4.633  0.2961  0.0613 -0.3794
   64CLA    CLA  167   5.899   6.719   2.879 -0.2836 -0.0650 -0.0572
   65CLA    CLA  168   2.511   1.995   5.177 -0.2105 -0.3963  0.3991
   66CLA    CLA  169   0.064   0.975   4.818  0.2230 -0.6226  0.2108
   67CLA    CLA  170   3.788   0.753   4.742  0.1612  0.0583  0.4495
   68CLA    CLA  171   3.315   5.423   2.578  0.0456  0.0255 -0.0774
   69CLA    CLA  172   3.560   0.800   5.397 -0.3151 -0.1677  0.1264
   70TIP3   OH2  173   1.238   5.456   1.143  0.5680  0.0264  0.3896
   70TIP3    H1  174   1.275   5.528   1.194  1.4578 -0.1832  0.0692
   70TIP3    H2  175   1.149   5.446   1.175  0.1632  1.7898 -0.1123
   71TIP3   OH2  176   0.249   4.054   4.895  0.7148 -0.1206 -0.0603
   71TIP3    H1  177   0.221   4.008   4.816  1.1982  0.7556 -0.7623
   71TIP3    H2  178   0.266   3.985   4.959 -2.1801 -0.7777  0.1486
   72TIP3   OH2  179   0.215   4.145   5.703  0.4041  0.4589  0.6174
   72TIP3    H1  180   0.153   4.190   5.761 -0.2116 -0.2007  0.4877
   72TIP3    H2  181   0.200   4.052   5.720  0.9159  0.2788  0.1136
   73TIP3   OH2  182   4.055   2.947   3.691  0.4498 -0.0486  0.2011
   73TIP3    H1  183   4.058   3.043   3.699 -0.2654  0.0971 -1.0922
   73TIP3    H2  184   4.059   2.930   3.597 -0.9346 -1.2148  0.3152
   74TIP3   OH2  185   1.194   0.676   3.053 -0.2151 -0.0673 -0.6094
   74TIP3    H1  186   1.276   0.723   3.068 -0.9817  1.2980 -0.4991
   74TIP3    H2  187   1.211   0.621   2.977  0.9389 -0.1615 -0.3038
   75TIP3   OH2  188   3.807   5.121   2.200  0.0474  0.2365  0.5228
   75TIP3    H1  189   3.751   5.049   2.231  1.2415 -1.0455 -0.2027
   75TIP3    H2  190   3.895   5.098   2.229  0.8557  0.1297 -1.7796
   76TIP3   OH2  191   7.130   1.005   3.222 -0.1674 -0.2363  0.3367
   76TIP3    H1  192   7.095   0.915   3.220  0.4162 -0.4737  0.6017
   76TIP3    H2  193   7.076   1.053   3.159 -0.2182 -0.8701 -0.1128
   77TIP3   OH2  194   0.655   5.848   1.375  0.7430  0.2558 -0.2248
   77TIP3    H1  195   0.746   5.819   1.380  0.6149 -0.0991  0.0811
   77TIP3    H2  196   0.627   5.824   1.286  0.7807 -0.1419 -0.1308
   78TIP3   OH2  197   3.703   5.372   1.925 -0.1136  0.9535  0.4729
   78TIP3    H1  198   3.743   5.296   1.883 -0.7539  1.2704 -0.7548
   78TIP3    H2  199   3.728   5.364   2.018  0.7582 -0.1340  0.1672
   79TIP3   OH2  200   4.159   5.408   4.103  0.3237  0.3993  0.1443
   79TIP3    H1  201   4.210   5.361   4.037  0.6859  0.8254  0.1158
   79TIP3    H2  202   4.098   5.462   4.051 -0.4127 -0.3760  0.1816
   80TIP3   OH2  203   3.194   6.775   2.973  0.3076  0.1979 -0.1176
   80TIP3    H1  204   3.255   6.790   2.901  0.2627 -0.2850 -0.2568
   80TIP3    H2  205   3.237   6.815   3.049  0.7366 -0.0166 -0.2412
   81TIP3   OH2  206   1.114   5.378   2.670  0.3410  0.4409  0.3749
   81TIP3    H1  207   1.140   5.345   2.584  0.5541  1.1538  0.1619
   81TIP3    H2  208   1.188   5.431   2.699 -0.4226  1.6008  0.2478
   82TIP3   OH2  209   0.634   1.262   0.829  0.3910 -0.4950  0.1613
   82TIP3    H1  210   0.708   1.214   0.792  0.2441 -1.2191  0.7856
   82TIP3    H2  211   0.666   1.352   0.837  0.6657 -0.4636 -1.0319
   83TIP3   OH2  212   0.126   6.530   3.444 -0.0297 -0.2818  0.0153
   83TIP3    H1  213   0.058   6.511   3.379  0.9097 -0.7534 -0.8564
   83TIP3    H2  214   0.115   6.463   3.511 -0.1852 -0.5733 -0.3024
   84TIP3   OH2  215   6.608   3.901   2.870  0.0965  0.0626 -0.0417
   84TIP3    H1  216   6.679   3.955   2.905 -0.4132  0.3813  0.5313
   84TIP3    H2  217   6.573   3.856   2.947  0.4596 -1.0360 -0.4962
   85TIP3   OH2  218   6.570   6.616   3.409  0.2103  0.1539  0.0225
   85TIP3    H1  219   6.510   6.547   3.438  0.9190 -0.3051  0.4288
   85TIP3    H2  220   6.561   6.617   3.314  0.1138 -0.4258  0.0236
   86TIP3   OH2  221   0.763   1.174   5.899 -0.2207  0.6029 -0.0070
   86TIP3    H1  222   0.798   1.236   5.835 -0.1017 -1.3216 -1.9225
   86TIP3    H2  223   0.788   1.088   5.865 -1.7183 -0.5824  1.7050
   87TIP3   OH2  224   4.175   0.310   0.695 -0.2120  0.2678 -0.2341
   87TIP3    H1  225   4.096   0.339   0.650 -0.4751  0.4482  0.3263
   87TIP3    H2  226   4.222   0.391   0.714 -0.3206  0.2364  0.1957
   88TIP3   OH2  227   3.871   2.387   5.866  0.3436  0.1234 -0.3758
   88TIP3    H1  228   3.817   2.422   5.937  0.6762 -0.4630  0.1732
   88TIP3    H2  229   3.825   2.307   5.839  0.8419 -0.2818 -0.0280
   89TIP3   OH2  230   0.819   1.610   0.735 -0.0753 -0.6012  0.4169
   89TIP3    H1  231   0.910   1.639   0.742 -0.6357  1.5853 -0.3610
   89TIP3    H2  232   0.795   1.586   0.825  0.8921  0.0623  0.8729
   90TIP3   OH2  233   4.670   1.928   2.106 -0.4009  0.5335  0.2262
   90TIP3    H1  234   4.758   1.914   2.070  0.5419 -0.1684  2.5925
   90TIP3    H2  235   4.668   2.020   2.131  0.1714  0.2640  1.3288
   91TIP3   OH2  236   1.898   0.979   4.141 -0.1453  0.0762  0.5287
   91TIP3    H1  237   1.876   0.975   4.048  0.1650  1.4947  0.3707
   91TIP3    H2  238   1.844   1.049   4.175  0.0051 -0.2045  1.3546
   92TIP3   OH2  239   0.589   4.850   5.269  0.1791 -0.4816  0.0021
   92TIP3    H1  240   0.640   4.795   5.209 -1.0231 -2.7186  0.9099
   92TIP3    H2  241   0.616   4.822   5.356 -1.2368 -0.3952  0.4958
   93TIP3   OH2  242   6.426   2.330   5.194 -0.0807 -0.5439 -0.1648
   93TIP3    H1  243   6.513   2.330   5.154  0.4489 -1.3209  0.9233
   93TIP3    H2  244   6.372   2.379   5.133  1.5121  1.5812 -0.0082
   94TIP3   OH2  245   1.575   2.431   0.025  0.2397  0.6483 -1.0043
   94TIP3    H1  246   1.488   2.470   0.021 -0.6756 -0.8366  1.6975
   94TIP3    H2  247   1.634   2.500  -0.006 -1.8900  1.3553 -3.8571
   95TIP3   OH2  248   3.169   4.642   3.111  0.4525 -0.0250  0.1620
   95TIP3    H1  249   3.150   4.569   3.170 -1.0920  0.4562  0.2948
   95TIP3    H2  250   3.265   4.648   3.110  0.5899 -1.7941  0.4440
   96TIP3   OH2  251   6.636   2.794   4.999  0.2752  0.0770 -0.2623
   96TIP3    H1  252   6.672   2.877   5.031 -1.2147  0.7995 -0.3947
   96TIP3    H2  253   6.661   2.793   4.906 -0.2497  0.7108 -0.4236
   97TIP3   OH2  254   1.258   2.747   1.671 -0.0726 -0.2365  0.1862
   97TIP3    H1  255   1.211   2.827   1.647 -1.2706 -1.0040 -0.1232
   97TIP3    H2  256   1.342   2.755   1.626 -0.1932  0.8204  0.1152
   98TIP3   OH2  257   4.150   0.946   4.846 -0.5315  0.0510  0.0795
   98TIP3    H1  258   4.137   0.862   4.803 -0.7837  0.0420  0.1674
   98TIP3    H2  259   4.070   0.959   4.898  0.1027 -0.3127  1.1824
   99TIP3   OH2  260   6.017   2.466   0.322 -0.2118 -0.0180 -0.4168
   99TIP3    H1  261   6.099   2.422   0.300  0.4058  1.1401 -0.5386
   99TIP3    H2  262   5.948   2.405   0.295  0.5880 -1.8673  1.4206
  100TIP3   OH2  263   2.947   1.586   0.452 -0.2309  0.1581 -0.1412
  100TIP3    H1  264   2.947   1.571   0.547  0.4954 -0.3525 -0.2064
  100TIP3    H2  265   2.856   1.575   0.425 -0.2516 -0.9257  0.3198
  101TIP3   OH2  266   4.957   0.632   4.044 -0.4629 -0.3732 -0.7531
  101TIP3    H1  267   4.882   0.573   4.053 -0.2672 -0.3628  1.4261
  101TIP3    H2  268   4.987   0.646   4.134  0.2712  2.0520 -1.3175
  102TIP3   OH2  269   3.443   6.222   5.215 -0.0003  0.0548 -0.0463
  102TIP3    H1  270   3.513   6.214   5.151 -1.2117 -1.2495 -1.2667
  102TIP3    H2  271   3.371   6.263   5.167 -0.5067  0.2079  0.8254
  103TIP3   OH2  272   6.444   6.531   1.137 -0.2778 -0.5301 -0.2186
  103TIP3    H1  273   6.451   6.441   1.168 -0.1492 -0.7143 -0.7815
  103TIP3    H2  274   6.534   6.560   1.126 -0.3262 -0.4912 -0.5062
  104TIP3   OH2  275   0.721   0.284   5.844 -0.2017 -0.2289 -0.3335
  104TIP3    H1  276   0.798   0.306   5.896  1.0947 -1.2182 -1.7353
  104TIP3    H2  277   0.745   0.310   5.755 -1.4917 -0.6084 -0.8114
  105TIP3   OH2  278   3.203   1.411   0.855 -0.2973 -0.0422 -0.3305
  105TIP3    H1  279   3.191   1.404   0.950 -0.0468 -0.4655 -0.3279
  105TIP3    H2  280   3.296   1.394   0.841 -0.2554  0.3964 -0.6205
  106TIP3   OH2  281   4.561   2.929   5.580 -0.1567 -0.3910  0.2419
  106TIP3    H1  282   4.585   2.986   5.653  2.1989 -1.0075  0.0235
  106TIP3    H2  283   4.644   2.894   5.548 -1.4367 -4.2989  0.6219
  107TIP3   OH2  284   7.232   1.303   3.665 -0.4878 -0.0982  0.0586
  107TIP3    H1  285   7.181   1.305   3.746 -1.3341 -0.2915 -0.4463
  107TIP3    H2  286   7.185   1.241   3.609 -0.9051  1.2626 -1.1888
  108TIP3   OH2  287   5.816   1.116   4.456 -0.4001 -0.4776 -0.4273
  108TIP3    H1  288   5.774   1.114   4.542  1.5806  1.2128  0.6573
  108TIP3    H2  289   5.882   1.185   4.463  0.9396 -1.4101 -2.7857
  109TIP3   OH2  290   2.889   0.462   2.194 -0.1381 -0.3206  0.1926
  109TIP3    H1  291   2.819   0.445   2.131 -0.0117 -1.6319  0.3664
  109TIP3    H2  292   2.962   0.409   2.163  0.2327 -0.2473  0.9208
  110TIP3   OH2  293   5.337   3.480   3.130  0.2341  0.1561  0.0013
  110TIP3    H1  294   5.410   3.421   3.110 -0.6484 -1.6143  1.6831
  110TIP3    H2  295   5.259   3.432   3.102 -0.5093  0.5821  1.2642
  111TIP3   OH2  296   5.621   4.545   5.234 -0.3100 -0.0035  0.5476
  111TIP3    H1  297   5.654   4.564   5.147 -1.1028 -1.3972 -0.0843
  111TIP3    H2  298   5.643   4.622   5.286  1.2479  0.3371 -0.5740
  112TIP3   OH2  299   2.347   5.002   1.158  0.0007 -0.6405 -0.1445
  112TIP3    H1  300   2.412   4.982   1.091 -0.3441  0.0318 -0.6945
  112TIP3    H2  301   2.302   4.919   1.174  0.6014 -0.9785 -0.1760
  113TIP3   OH2  302   6.188   0.811   4.923  0.0929  0.5953 -0.4700
  113TIP3    H1  303   6.111   0.850   4.964  0.4572 -0.6207  1.4762
  113TIP3    H2  304   6.153   0.742   4.867 -0.2406 -0.0183  0.4811
  114TIP3   OH2  305   5.821   6.761   2.443  0.3119  0.2805 -0.2316
  114TIP3    H1  306   5.791   6.739   2.532  0.6199 -0.4183 -0.2927
  114TIP3    H2  307   5.811   6.679   2.394 -0.0909  0.7334 -0.9104
  115TIP3   OH2  308   5.231   5.706   3.195  0.2198 -0.0490 -0.3354
  115TIP3    H1  309   5.208   5.639   3.130 -0.0903  0.0729 -0.3512
  115TIP3    H2  310   5.149   5.726   3.240  0.2561  0.5055 -0.5025
  116TIP3   OH2  311   1.728   4.147   3.048 -0.7053  0.0802  0.3850
  116TIP3    H1  312   1.809   4.121   3.004 -0.9501  0.7883 -0.5172
  116TIP3    H2  313   1.735   4.242   3.057 -2.0392  0.3462 -1.0165
  117TIP3   OH2  314   7.130   6.221   5.495  0.2938 -1.1697 -0.1670
  117TIP3    H1  315   7.214   6.204   5.453 -0.3982 -1.0868 -1.6397
  117TIP3    H2  316   7.064   6.199   5.429 -0.8005  0.9361  0.1366
  118TIP3   OH2  317   5.070   6.448   2.353 -0.5877 -0.5158  0.0924
  118TIP3    H1  318   5.092   6.364   2.394 -1.4123 -1.1124 -0.6306
  118TIP3    H2  319   5.066   6.510   2.426 -0.7825 -1.2824  0.7503
  119TIP3   OH2  320   5.359   4.140   4.062  0.3922  0.0878  0.1901
  119TIP3    H1  321   5.289   4.183   4.013  0.0022 -0.6998  0.0436
  119TIP3    H2  322   5.323   4.055   4.086  0.7222  0.2898  1.4908
  120TIP3   OH2  323   2.487   3.668   4.852  0.6954  0.5156  0.2939
  120TIP3    H1  324   2.412   3.693   4.906  0.8317  0.4585  0.5062
  120TIP3    H2  325   2.535   3.750   4.838  1.0483  0.4073  0.8477
  121TIP3   OH2  326   3.385   3.817   2.570  0.2645 -0.0039  0.3817
  121TIP3    H1  327   3.380   3.730   2.530  3.0690  0.4491 -1.2175
  121TIP3    H2  328   3.326   3.812   2.645 -0.6976 -2.8318 -0.4236
  122TIP3   OH2  329   1.296   3.317   0.888 -0.6156 -0.4614  0.3239
  122TIP3    H1  330   1.374   3.361   0.922 -1.2686  0.3437  0.8231
  122TIP3    H2  331   1.223   3.357   0.935 -1.3873 -0.7598 -0.5785
  123TIP3   OH2  332   3.754   0.742   5.830 -0.0735  0.0420 -0.3732
  123TIP3    H1  333   3.827   0.717   5.887  1.2622  1.2836 -1.4608
  123TIP3    H2  334   3.796   0.771   5.749 -1.8371  0.0228 -1.3356
  124TIP3   OH2  335   3.776   3.000   0.421 -0.0680 -0.0905 -0.0326
  124TIP3    H1  336   3.724   2.922   0.404 -0.2774  0.1694 -0.6387
  124TIP3    H2  337   3.724   3.051   0.484 -0.9054  0.4939 -1.1502
  125TIP3   OH2  338   5.483   3.432   5.217 -0.7741  0.1374 -0.6366
  125TIP3    H1  339   5.573   3.428   5.249  0.2648 -0.5429 -3.3581
  125TIP3    H2  340   5.451   3.516   5.249  1.1424  0.8184 -0.3464
  126TIP3   OH2  341   3.993   0.201   5.608  0.0654 -0.3737  0.6807
  126TIP3    H1  342   3.968   0.160   5.525  0.7519 -1.2054  0.8742
  126TIP3    H2  343   4.075   0.247   5.589 -0.1481  0.0389  0.7333
  127TIP3   OH2  344   3.388   2.140   5.425 -0.1490 -0.0312  0.5748
  127TIP3    H1  345   3.296   2.149   5.401 -0.1225 -0.6622  0.2117
  127TIP3    H2  346   3.389   2.148   5.520 -0.9160 -2.4591  0.8398
  128TIP3   OH2  347   4.421   3.801   3.233  0.3662  0.9544  0.2465
  128TIP3    H1  348   4.358   3.831   3.298 -0.7803 -0.3809 -0.1959
  128TIP3    H2  349   4.395   3.843   3.152 -0.0981  0.2635  0.0249
  129TIP3   OH2  350   0.520   4.861   2.522 -0.5896  0.0159 -0.2623
  129TIP3    H1  351   0.485   4.814   2.446 -0.4236 -1.1055  0.3453
  129TIP3    H2  352   0.450   4.856   2.588 -0.6031  0.7085 -0.2074
  130TIP3   OH2  353   0.515   3.784   4.321 -0.0700  0.3134 -0.0680
  130TIP3    H1  354   0.437   3.797   4.375  0.3118 -0.4057  0.6755
  130TIP3    H2  355   0.582   3.837   4.362  1.1885 -2.7916  2.3228
  131TIP3   OH2  356   4.487   1.342   4.961 -0.1062 -0.1319 -0.0017
  131TIP3    H1  357   4.581   1.337   4.974  0.0917  0.7166 -0.8924
  131TIP3    H2  358   4.463   1.259   4.921  0.5925  0.3041 -1.4169
  132TIP3   OH2  359   5.603   2.014   1.274  0.3382  0.4299 -0.2318
  132TIP3    H1  360   5.632   2.059   1.195  1.5781  0.8218  0.4175
  132TIP3    H2  361   5.537   1.952   1.244  0.6592  0.6989 -1.5393
  133TIP3   OH2  362   0.155   2.099   2.147  0.0139 -0.5927 -0.0015
  133TIP3    H1  363   0.120   2.045   2.076 -1.2726  1.7460 -1.2557
  133TIP3    H2  364   0.082   2.110   2.208  1.1122 -2.6030  1.8232
  134TIP3   OH2  365   6.946   1.174   4.218 -0.0100  0.1677 -0.7222
  134TIP3    H1  366   6.995   1.103   4.177 -0.3247 -0.9327  0.7186
  134TIP3    H2  367   6.872   1.189   4.160 -0.5162 -1.4417 -0.5240
  135TIP3   OH2  368   4.113   6.015   5.733 -0.2085 -0.8154 -0.2297
  135TIP3    H1  369   4.159   6.098   5.743 -2.3339  0.3295  0.6533
  135TIP3    H2  370   4.157   5.971   5.661  1.0034  1.0496 -0.6711
  136TIP3   OH2  371   0.289   2.738   1.086 -0.2389 -0.1900  0.1352
  136TIP3    H1  372   0.356   2.692   1.137  0.3815 -1.2995 -1.5888
  136TIP3    H2  373   0.227   2.770   1.151 -0.4493 -3.0917  1.5433
  137TIP3   OH2  374   5.687   3.807   5.200  0.1848  0.0384 -0.0537
  137TIP3    H1  375   5.688   3.870   5.128  0.4853 -0.4646 -0.5016
  137TIP3    H2  376   5.777   3.805   5.232  0.4571 -1.0202 -0.8239
  138TIP3   OH2  377   3.740   0.390   2.589 -0.2528 -0.1688  0.3998
  138TIP3    H1  378   3.693   0.307   2.578 -0.6203  0.1673 -0.6612
  138TIP3    H2  379   3.829   0.364   2.613 -0.0747 -0.9189 -0.9668
  139TIP3   OH2  380   2.117   4.572   5.274  0.0115  0.2762  0.2945
  139TIP3    H1  381   2.026   4.567   5.246 -0.9845  1.5844  2.8919
  139TIP3    H2  382   2.153   4.486   5.254 -1.8056 -0.3133 -0.7078
  140TIP3   OH2  383   2.651   1.475   4.509  0.3050  0.7093  0.2626
  140TIP3    H1  384   2.641   1.569   4.528  0.0637  0.3909  1.8364
  140TIP3    H2  385   2.714   1.444   4.574  0.6705 -0.1689 -0.4849
  141TIP3   OH2  386   3.404   5.716   0.669  0.0689 -0.6077 -0.4816
  141TIP3    H1  387   3.415   5.794   0.614  2.7519 -0.3263  0.3289
  141TIP3    H2  388   3.488   5.706   0.714 -1.7768 -1.0843  3.2608
  142TIP3   OH2  389   0.800   5.847   5.089  0.1258 -0.6703 -0.2982
  142TIP3    H1  390   0.784   5.900   5.011 -0.8359  0.6389  0.7308
  142TIP3    H2  391   0.895   5.855   5.103 -0.0136  0.9661 -0.0821
  143TIP3   OH2  392   5.396   3.005   3.029  0.1597  0.2850 -0.0131
  143TIP3    H1  393   5.329   2.946   3.064  2.8017 -1.7836  2.0135
  143TIP3    H2  394   5.413   2.971   2.941 -1.5078  1.0037 -0.6670
  144TIP3   OH2  395   4.578   5.512   5.445  0.8474  0.8256 -0.4540
  144TIP3    H1  396   4.625   5.446   5.496 -0.4847  1.1062  1.2454
  144TIP3    H2  397   4.507   5.464   5.402  0.0321  1.0573  0.5793
  145TIP3   OH2  398   3.694   6.611   5.039 -0.1644 -0.4283  0.1296
  145TIP3    H1  399   3.641   6.532   5.051 -1.1166  0.4560  2.5821
  145TIP3    H2  400   3.634   6.682   5.063  1.5619  0.7591  1.1286
  146TIP3   OH2  401   2.884   2.527   3.560 -0.2020 -0.0340  0.7348
  146TIP3    H1  402   2.858   2.437   3.539 -0.7524  0.1368  0.6570
  146TIP3    H2  403   2.804   2.578   3.547 -0.0390  0.3795  1.3212
  147TIP3   OH2  404   6.489   6.599   0.736 -0.4048 -0.0399  0.3066
  147TIP3    H1  405   6.494   6.547   0.656 -1.8449 -1.3179  1.0078
  147TIP3    H2  406   6.437   6.546   0.797  0.0435  1.2123  1.8493
  148TIP3   OH2  407   6.012   2.805   2.579 -0.1248  0.0458 -0.0707
  148TIP3    H1  408   6.102   2.824   2.604 -0.0571 -1.2110  0.7408
  148TIP3    H2  409   6.011   2.711   2.561 -1.0375  0.2347 -1.1413
  149TIP3   OH2  410   2.856   4.028   0.157  0.6229 -0.0765 -0.0142
  149TIP3    H1  411   2.894   4.074   0.082 -0.8562 -1.3542 -1.6329
  149TIP3    H2  412   2.810   4.097   0.205  0.8161  0.6223 -0.8001
  150TIP3   OH2  413   1.362   0.297   4.510  0.1494 -0.0148 -0.0811
  150TIP3    H1  414   1.311   0.368   4.470 -0.1251 -0.1926 -0.0553
  150TIP3    H2  415   1.324   0.218   4.471 -0.6245 -0.2383  1.0875
  151TIP3   OH2  416   0.344   2.874   4.982 -0.0816  0.3129 -0.2031
  151TIP3    H1  417   0.259   2.899   4.947 -0.2574 -0.7453 -0.5879
  151TIP3    H2  418   0.405   2.937   4.945 -0.3356 -0.4660 -2.0740
  152TIP3   OH2  419   3.636   0.642   4.989  0.5182 -0.4931  0.1204
  152TIP3    H1  420   3.685   0.660   4.909  0.4734 -1.3615 -0.1120
  152TIP3    H2  421   3.594   0.725   5.010  0.2903 -0.3282 -0.9218
  153TIP3   OH2  422   5.272   5.271   3.046  0.8182 -0.1838  0.6040
  153TIP3    H1  423   5.193   5.312   3.080  0.9863  0.4273  0.2634
  153TIP3    H2  424   5.331   5.344   3.026  0.7118 -0.5118 -1.0593
  154TIP3   OH2  425   0.189   4.779   2.901 -0.7573  0.1529 -0.2172
  154TIP3    H1  426   0.187   4.699   2.849 -1.9246 -0.0145  0.0391
  154TIP3    H2  427   0.194   4.749   2.992  1.3628  0.4444 -0.1967
  155TIP3   OH2  428   4.868   6.715   0.963  0.1692 -0.4301  0.3139
  155TIP3    H1  429   4.839   6.640   0.910 -0.6925  0.4996 -0.5640
  155TIP3    H2  430   4.876   6.679   1.052 -2.6560 -1.0342  0.4200
  156TIP3   OH2  431   1.679   2.669   2.014  0.2136 -0.2296 -0.0215
  156TIP3    H1  432   1.628   2.677   1.933 -0.1158 -0.8254  0.1264
  156TIP3    H2  433   1.764   2.634   1.985 -0.0236 -0.7750 -0.0703
  157TIP3   OH2  434   6.538   6.639   1.476  0.7661 -0.1529  0.0377
  157TIP3    H1  435   6.597   6.690   1.420 -0.4672  0.1844 -1.0016
  157TIP3    H2  436   6.536   6.552   1.434 -0.6482  0.2791 -0.8517
  158TIP3   OH2  437   3.179   3.810   1.356  0.2508 -0.5172 -0.1426
  158TIP3    H1  438   3.202   3.896   1.390  1.4030 -0.8112 -0.1090
  158TIP3    H2  439   3.229   3.803   1.274 -0.4230 -0.8555 -0.5274
  159TIP3   OH2  440   3.493   1.575   2.426 -0.3865 -0.6240 -0.0658
  159TIP3    H1  441   3.522   1.613   2.343 -1.7483 -0.9620 -0.7227
  159TIP3    H2  442   3.522   1.637   2.493 -1.9554  1.2620 -1.0473
  160TIP3   OH2  443   4.340   2.388   4.838 -0.2675 -0.6890  0.8207
  160TIP3    H1  444   4.349   2.441   4.759 -0.4707  0.0590  1.2924
  160TIP3    H2  445   4.400   2.428   4.901 -1.8037  0.1567  1.7872
  161TIP3   OH2  446   5.542   2.255   3.278  0.3089  0.6965 -0.3624
  161TIP3    H1  447   5.495   2.176   3.253  0.3215  0.7349 -0.5075
  161TIP3    H2  448   5.499   2.325   3.228  0.6217  0.7104 -0.6173
  162TIP3   OH2  449   2.085   1.445   3.147  0.0219 -0.3153 -0.3535
  162TIP3    H1  450   2.037   1.452   3.229  1.1807  0.7205  0.2646
  162TIP3    H2  451   2.122   1.532   3.133  0.2269 -0.6013 -1.7391
  163TIP3   OH2  452   6.458   3.695   3.833  0.2950  0.0018  0.0117
  163TIP3    H1  453   6.368   3.677   3.807  0.0472  0.7381  0.3095
  163TIP3    H2  454   6.489   3.758   3.767  0.5377 -0.1360 -0.0045
  164TIP3   OH2  455   1.331   4.961   1.623 -0.0163  0.1357  0.3943
  164TIP3    H1  456   1.334   5.048   1.583  0.0138 -0.0455 -0.0078
  164TIP3    H2  457   1.304   4.977   1.713  0.7569  0.6327  0.5460
  165TIP3   OH2  458   4.751   5.486   3.123  0.0261 -0.4133 -0.3590
  165TIP3    H1  459   4.750   5.477   3.218 -1.5275 -2.0191 -0.4807
  165TIP3    H2  460   4.785   5.402   3.092  2.0498  0.6463 -1.2324
  166TIP3   OH2  461   6.141   0.832   3.767  0.3060 -0.0329  0.0858
  166TIP3    H1  462   6.178   0.770   3.704 -0.0935  0.2054 -0.3886
  166TIP3    H2  463   6.046   0.820   3.759  0.2740 -0.7845  1.4322
  167TIP3   OH2  464   3.061   1.651   4.804  0.0979 -0.1544 -0.1856
  167TIP3    H1  465   3.144   1.616   4.836  0.0558  0.1751  0.2841
  167TIP3    H2  466   3.021   1.693   4.880 -1.6478 -2.4255  0.2790
  168TIP3   OH2  467   5.389   2.899   3.830  0.4287 -0.3498  0.7352
  168TIP3    H1  468   5.314   2.863   3.878 -1.4044  0.9460 -0.9585
  168TIP3    H2  469   5.394   2.990   3.858  1.2570 -0.3769  0.6869
  169TIP3   OH2  470   3.805   2.751   4.105  0.0326 -0.0564  0.0873
  169TIP3    H1  471   3.830   2.659   4.098  1.5224  0.2907  0.5472
  169TIP3    H2  472   3.860   2.796   4.041  0.7053  0.7445  1.1878
  170TIP3   OH2  473   3.055   5.176   1.082 -0.4572 -0.6331  0.2275
  170TIP3    H1  474   3.032   5.084   1.066 -1.3566 -0.4780  0.5286
  170TIP3    H2  475   2.971   5.221   1.079 -0.3870 -0.2103  2.7347
  171TIP3   OH2  476   1.872   5.133   3.672  0.3697 -0.6784 -0.2488
  171TIP3    H1  477   1.889   5.227   3.673 -0.2282 -0.5650 -0.2261
  171TIP3    H2  478   1.811   5.119   3.745  0.8229 -1.1551  0.0374
  172TIP3   OH2  479   2.158   3.195   2.840  0.1826  0.1060 -0.5236
  172TIP3    H1  480   2.089   3.158   2.897  0.2928 -0.2030 -0.5901
  172TIP3    H2  481   2.219   3.123   2.827  0.2250  0.2151 -0.9332
  173TIP3   OH2  482   5.967   3.783   5.004 -0.2753  0.0025 -0.2899
  173TIP3    H1  483   6.032   3.799   4.934 -1.9089 -0.1216 -1.9151
  173TIP3    H2  484   5.903   3.853   4.992 -0.4312  0.1675  1.3461
  174TIP3   OH2  485   1.445   2.378   5.930  0.3593 -0.3281 -0.0264
  174TIP3    H1  486   1.477   2.465   5.905  0.7169 -0.5600 -0.3857
  174TIP3    H2  487   1.412   2.341   5.848 -0.7221 -0.1485  0.3065
  175TIP3   OH2  488   5.352   6.278   2.455  0.1793 -0.1730 -0.6733
  175TIP3    H1  489   5.266   6.247   2.484  0.3949 -0.5810 -0.4701
  175TIP3    H2  490   5.390   6.203   2.410  1.0081 -0.4508  0.4564
  176TIP3   OH2  491   0.467   6.312   0.468 -0.1790 -0.0957  0.5357
  176TIP3    H1  492   0.493   6.325   0.377 -2.5910  1.3811 -0.0217
  176TIP3    H2  493   0.377   6.343   0.472  0.0652  0.4945  3.5897
  177TIP3   OH2  494   5.693   2.457   3.864  0.0548 -0.2058  0.1565
  177TIP3    H1  495   5.658   2.546   3.867  2.5712  0.9706 -1.8716
  177TIP3    H2  496   5.639   2.412   3.799 -0.7523  0.0266  0.6450
  178TIP3   OH2  497   1.622   3.370   4.426  0.3090 -0.3393  0.1283
  178TIP3    H1  498   1.635   3.293   4.370 -0.6163 -1.5662  1.5218
  178TIP3    H2  499   1.599   3.440   4.365  3.7163 -0.3858 -1.4879
  179TIP3   OH2  500   2.720   6.651   5.569  0.2315 -0.2574  0.0173
  179TIP3    H1  501   2.710   6.559   5.544  0.8643 -0.4127  0.3124
  179TIP3    H2  502   2.780   6.687   5.505 -1.3283  0.4128 -1.1417
  180TIP3   OH2  503   4.264   3.555   2.964 -0.1548 -0.3319 -0.0708
  180TIP3    H1  504   4.222   3.629   3.007  1.1719  0.3493  0.1131
  180TIP3    H2  505   4.326   3.521   3.028 -0.1419 -1.0724 -0.4612
  181TIP3   OH2  506   7.012   3.181   4.389  0.2685 -0.1891 -0.1059
  181TIP3    H1  507   6.944   3.170   4.323 -1.1453 -0.4820  1.3320
  181TIP3    H2  508   7.075   3.111   4.370 -0.4407 -0.6772 -0.7385
  182TIP3   OH2  509   5.095   1.233   1.055 -0.1080 -0.7064  0.1274
  182TIP3    H1  510   5.094   1.262   0.964 -1.5502  2.6185  1.0572
  182TIP3    H2  511   5.025   1.167   1.059 -0.5716 -0.3201 -1.0147
  183TIP3   OH2  512   1.455   0.329   5.554  0.3720 -0.3618  0.3156
  183TIP3    H1  513   1.468   0.269   5.628  0.8953 -1.6204 -0.7620
  183TIP3    H2  514   1.361   0.323   5.534  0.1463  0.2876  1.0906
  184TIP3   OH2  515   1.348   3.738   1.983  0.4813  0.1301 -0.4480
  184TIP3    H1  516   1.253   3.733   1.974  0.5008  0.5696 -0.9284
  184TIP3    H2  517   1.363   3.821   2.029  0.6707  0.4428 -1.0665
  185TIP3   OH2  518   2.596   4.407   5.020  0.5606  0.3991  0.0363
  185TIP3    H1  519   2.534   4.351   4.974  0.4499 -0.1936  0.8782
  185TIP3    H2  520   2.658   4.434   4.953 -0.5544  0.9452 -0.8104
  186TIP3   OH2  521   4.687   0.393   3.167  0.0074  0.0152  0.1404
  186TIP3    H1  522   4.743   0.434   3.233  1.3246  1.0694 -1.5496
  186TIP3    H2  523   4.628   0.337   3.217 -0.4993  2.3751  2.4103
  187TIP3   OH2  524   6.537   6.743   4.454  0.0977  0.6123 -0.1990
  187TIP3    H1  525   6.447   6.716   4.472  0.6580 -1.5604 -0.3445
  187TIP3    H2  526   6.549   6.725   4.361  0.7241  0.7920 -0.1599
  188TIP3   OH2  527   5.745   5.066   4.150 -0.9075 -0.0552  0.3959
  188TIP3    H1  528   5.751   5.123   4.073  0.6711 -0.3282  0.2782
  188TIP3    H2  529   5.768   4.979   4.116 -0.1757 -0.1738  1.1550
  189TIP3   OH2  530   6.807   6.696   3.914  0.2268 -0.3791 -0.0599
  189TIP3    H1  531   6.862   6.694   3.992  1.0530 -0.0356 -0.6182
  189TIP3    H2  532   6.862   6.656   3.846  0.3813  1.3561 -0.9900
  190TIP3   OH2  533   1.398   1.627   3.952  0.2899 -0.6345  0.1702
  190TIP3    H1  534   1.318   1.655   3.996 -1.8538 -2.4529 -2.2357
  190TIP3    H2  535   1.398   1.532   3.961  0.5391 -0.9399 -2.2702
  191TIP3   OH2  536   4.228   5.430   3.302 -0.2955  0.1690  0.3122
  191TIP3    H1  537   4.283   5.374   3.248  0.2423  0.4731  0.5356
  191TIP3    H2  538   4.248   5.519   3.272  0.8565  0.4257  1.7627
  192TIP3   OH2  539   2.256   0.747   4.058 -0.5225  0.2064  0.4331
  192TIP3    H1  540   2.182   0.784   4.107 -0.3464 -0.6077  1.3433
  192TIP3    H2  541   2.333   0.776   4.106 -0.2486  0.8326 -0.3660
  193TIP3   OH2  542   7.222   5.560   1.394  0.4093 -0.1529  0.5611
  193TIP3    H1  543   7.149   5.544   1.454  1.4786 -0.0664  1.9488
  193TIP3    H2  544   7.248   5.472   1.365 -1.9190 -0.0774 -2.1427
  194TIP3   OH2  545   2.926   0.989   5.709  0.2979  0.0324  0.4588
  194TIP3    H1  546   2.969   0.998   5.794 -1.6039  3.0773  1.2503
  194TIP3    H2  547   2.932   1.076   5.670 -1.7096 -0.4497 -1.0814
  195TIP3   OH2  548   1.570   3.168   2.943 -0.4295 -0.5319 -0.4942
  195TIP3    H1  549   1.537   3.154   3.032 -1.0515  1.5792 -0.3439
  195TIP3    H2  550   1.600   3.258   2.943  1.1511 -1.0241 -1.9761
  196TIP3   OH2  551   5.575   0.262   5.864 -0.1550 -0.6296  0.0017
  196TIP3    H1  552   5.481   0.264   5.846 -0.5612 -1.6186  1.7948
  196TIP3    H2  553   5.605   0.181   5.823  0.3894  0.7057 -2.4137
  197TIP3   OH2  554   4.486   3.525   0.886 -0.2930 -0.1806  0.0696
  197TIP3    H1  555   4.520   3.495   0.802 -0.1347  0.4447 -0.0977
  197TIP3    H2  556   4.411   3.469   0.903  0.6334 -1.3975  0.2996
  198TIP3   OH2  557   6.272   1.330   3.687  0.1165 -0.4219  0.1484
  198TIP3    H1  558   6.212   1.325   3.761  0.6263 -0.9664  0.5272
  198TIP3    H2  559   6.358   1.312   3.724  0.9386  2.7883  0.0995
  199TIP3   OH2  560   0.794   2.654   2.787 -0.1489 -0.0180  0.0992
  199TIP3    H1  561   0.749   2.723   2.836 -1.4351 -0.7122 -0.0732
  199TIP3    H2  562   0.843   2.701   2.720 -1.0293  0.7474 -0.0344
  200TIP3   OH2  563   5.402   3.752   3.129 -0.1713 -0.2940 -0.4166
  200TIP3    H1  564   5.347   3.674   3.121  2.8642 -2.6062 -0.8441
  200TIP3    H2  565   5.463   3.732   3.200 -0.0825  2.2968  0.3386
  201TIP3   OH2  566   1.937   4.166   2.772 -0.2611  0.3341  0.0894
  201TIP3    H1  567   1.989   4.160   2.691  1.5834  0.6632  1.1957
  201TIP3    H2  568   1.914   4.259   2.778  0.7409  0.5583  0.6027
  202TIP3   OH2  569   6.523   3.198   1.144  0.1802 -0.4531 -0.2033
  202TIP3    H1  570   6.574   3.197   1.063  1.7849  0.2766  0.7386
  202TIP3    H2  571   6.503   3.106   1.162  2.3059 -0.9123  0.0325
  203TIP3   OH2  572   6.954   3.468   1.686  0.4425  0.2176 -0.4551
  203TIP3    H1  573   7.009   3.393   1.667 -0.3071 -0.0444 -1.6860
  203TIP3    H2  574   7.000   3.542   1.647  0.0534  0.0337 -1.2823
  204TIP3   OH2  575   1.770   6.404   3.572  0.1873  0.2134  0.2878
  204TIP3    H1  576   1.687   6.440   3.601  0.3540  0.7104  0.1554
  204TIP3    H2  577   1.836   6.456   3.617  0.4449 -1.5610  2.0856
  205TIP3   OH2  578   6.124   3.057   5.660 -0.0722  0.1102 -0.0873
  205TIP3    H1  579   6.108   3.136   5.713  0.3958 -0.6287  1.2015
  205TIP3    H2  580   6.043   3.008   5.665  0.0479 -0.0662  0.1374
  206TIP3   OH2  581   0.459   0.967   5.806  0.0683  0.1226 -0.0010
  206TIP3    H1  582   0.481   0.912   5.730 -0.9242 -0.8248  0.3556
  206TIP3    H2  583   0.517   0.936   5.876  1.2004  1.2083 -0.4370
  207TIP3   OH2  584   3.463   4.475   3.763  0.4227 -0.0322 -0.7355
  207TIP3    H1  585   3.537   4.533   3.779 -0.0088 -0.0209  1.6087
  207TIP3    H2  586   3.390   4.515   3.811 -0.3642 -1.4773 -0.6597
  208TIP3   OH2  587   2.722   5.246   3.453 -0.1993 -0.0477 -0.6468
  208TIP3    H1  588   2.675   5.204   3.380 -1.3309  1.1078 -0.6185
  208TIP3    H2  589   2.794   5.186   3.472 -1.0975 -1.4207 -1.3442
  209TIP3   OH2  590   3.020   1.659   5.618 -0.4362 -0.1579  0.1919
  209TIP3    H1  591   3.017   1.587   5.555  1.4968  1.4442 -1.9434
  209TIP3    H2  592   3.014   1.738   5.563 -0.1115  1.3194  2.1864
  210TIP3   OH2  593   2.451   1.414   1.346  0.4814 -0.6085 -0.0946
  210TIP3    H1  594   2.399   1.480   1.301  0.0188 -2.3671 -2.3050
  210TIP3    H2  595   2.399   1.389   1.422  0.7414  1.5984  0.8857
  211TIP3   OH2  596   2.409   0.189   0.795 -0.1367 -0.5024 -0.1331
  211TIP3    H1  597   2.490   0.157   0.756  0.1468  0.7188 -0.5780
  211TIP3    H2  598   2.387   0.267   0.744 -0.6200  0.2211  1.1403
  212TIP3   OH2  599   5.210   6.086   3.065  0.0725  0.4015  0.3376
  212TIP3    H1  600   5.273   6.025   3.103 -1.3106 -0.1084  1.9365
  212TIP3    H2  601   5.147   6.030   3.019 -0.1133  0.7661  0.1448
  213TIP3   OH2  602   0.059   1.826   4.648  0.0859  0.0336  0.0583
  213TIP3    H1  603   0.117   1.838   4.572 -0.8100 -0.1037 -0.6624
  213TIP3    H2  604   0.015   1.910   4.659  1.4091  0.5903  1.4798
  214TIP3   OH2  605   1.757   1.462   3.867 -0.0574 -0.3909 -0.6406
  214TIP3    H1  606   1.797   1.529   3.922  0.3229  0.2617 -1.6777
  214TIP3    H2  607   1.665   1.462   3.892  0.6303 -2.5505  2.4409
  215TIP3   OH2  608   2.288   2.392   0.660 -0.6187 -0.2631  0.0237
  215TIP3    H1  609   2.334   2.341   0.726 -0.9492  3.6178  3.6844
  215TIP3    H2  610   2.200   2.405   0.696 -0.9859  1.5926 -1.3537
  216TIP3   OH2  611   6.495   4.201   5.423  0.1774  0.3340  0.4040
  216TIP3    H1  612   6.529   4.287   5.449  1.1634 -0.4624  1.8677
  216TIP3    H2  613   6.545   4.180   5.343  1.7895  0.0472  1.4429
  217TIP3   OH2  614   4.482   0.505   3.878 -0.5982 -0.3749  0.1571
  217TIP3    H1  615   4.547   0.468   3.819 -2.0101  0.9590 -2.4168
  217TIP3    H2  616   4.442   0.430   3.921  0.8262 -1.3602 -0.1866
  218TIP3   OH2  617   5.063   3.348   0.680 -0.0437 -0.3662  0.6463
  218TIP3    H1  618   4.986   3.402   0.697  1.3849  2.4620 -1.1403
  218TIP3    H2  619   5.044   3.305   0.597  0.1183 -0.0518  0.4474
  219TIP3   OH2  620   1.477   0.645   0.540  0.1750 -0.0388 -0.7025
  219TIP3    H1  621   1.540   0.614   0.605  1.5755  0.8554 -1.5647
  219TIP3    H2  622   1.393   0.648   0.587  0.7770 -1.1351  0.5197
  220TIP3   OH2  623   3.200   1.857   5.175 -1.0276  0.2953  0.1162
  220TIP3    H1  624   3.177   1.866   5.083 -0.5111 -1.5260 -0.2310
  220TIP3    H2  625   3.157   1.776   5.203 -0.6558  0.4823  1.3087
  221TIP3   OH2  626   0.474   5.263   2.646  0.1610  0.0093 -0.0729
  221TIP3    H1  627   0.486   5.210   2.566  0.7688  0.0146  0.0104
  221TIP3    H2  628   0.381   5.255   2.665 -0.2866  1.1444 -1.5796
  222TIP3   OH2  629   5.065   4.080   2.692 -0.4240 -0.1127 -0.0601
  222TIP3    H1  630   5.062   4.066   2.786 -0.6413 -1.8957 -0.2957
  222TIP3    H2  631   5.036   3.997   2.654  0.0747  0.4141 -1.7048
  223TIP3   OH2  632   6.748   6.121   4.121  0.0145  0.5794 -0.0880
  223TIP3    H1  633   6.817   6.103   4.058  0.1708  0.0082  0.2287
  223TIP3    H2  634   6.787   6.182   4.183 -0.0300  0.8841 -0.3626
  224TIP3   OH2  635   0.027   3.009   1.561  0.5580  0.8932 -0.5886
  224TIP3    H1  636   0.011   3.046   1.474 -0.4722  1.3749 -0.2143
  224TIP3    H2  637   0.122   2.993   1.563  0.4165 -0.4461 -2.2926
  225TIP3   OH2  638   0.505   2.464   4.883 -0.6699  0.6138  0.3360
  225TIP3    H1  639   0.509   2.371   4.858 -2.7505  0.8777 -1.2544
  225TIP3    H2  640   0.441   2.467   4.954 -1.2237  0.9063 -0.1671
  226TIP3   OH2  641   4.721   1.324   5.082  0.3402 -0.1557  0.1926
  226TIP3    H1  642   4.798   1.367   5.044  0.4429  0.9397  1.5235
  226TIP3    H2  643   4.736   1.231   5.070  0.9191  0.1056 -1.3238
  227TIP3   OH2  644   0.533   3.337   0.434  0.7080 -0.3907  0.9350
  227TIP3    H1  645   0.498   3.317   0.347 -2.6422  3.5363  1.0652
  227TIP3    H2  646   0.480   3.285   0.494 -0.2779  0.4363  0.7974
  228TIP3   OH2  647   5.090   1.993   5.762 -0.2070 -0.7445 -0.0986
  228TIP3    H1  648   5.047   1.931   5.703 -2.5427  0.2321  0.4784
  228TIP3    H2  649   5.117   1.939   5.837  1.6982 -1.7608 -1.4099
  229TIP3   OH2  650   4.006   0.270   4.940  0.0046  0.1809  0.3579
  229TIP3    H1  651   3.971   0.265   5.029 -0.0272  0.2350  0.3484
  229TIP3    H2  652   3.928   0.270   4.884  0.0397 -2.0846  0.2215
  230TIP3   OH2  653   6.314   0.224   0.131  0.3125  0.1769 -0.7409
  230TIP3    H1  654   6.266   0.205   0.212 -1.6164 -0.1234 -1.8664
  230TIP3    H2  655   6.362   0.304   0.149  0.3482 -0.1671  0.8497
  231TIP3   OH2  656   6.404   0.825   5.123 -0.1686  0.0357 -0.4511
  231TIP3    H1  657   6.329   0.850   5.069 -1.5084 -2.1166  0.2511
  231TIP3    H2  658   6.451   0.760   5.070  0.3087  0.2323 -0.2749
  232TIP3   OH2  659   2.708   3.418   5.836  0.1585  0.1140  0.0136
  232TIP3    H1  660   2.714   3.325   5.812  0.3963 -0.4272  1.9869
  232TIP3    H2  661   2.654   3.419   5.915  3.3593  1.1167  2.4277
  233TIP3   OH2  662   0.242   3.247   5.834  0.1812  0.0093  0.3136
  233TIP3    H1  663   0.317   3.271   5.780  0.6769  0.6140  1.2495
  233TIP3    H2  664   0.172   3.306   5.806  0.4774  0.4169  0.4250
  234TIP3   OH2  665   1.905   4.905   1.681 -0.3910 -0.2370 -0.9420
  234TIP3    H1  666   1.851   4.873   1.608 -0.3702  1.4638 -1.7344
  234TIP3    H2  667   1.968   4.963   1.640  1.2796 -1.2215  0.1470
  235TIP3   OH2  668   0.593   6.066   1.536 -0.2977 -0.6317 -0.3213
  235TIP3    H1  669   0.663   6.131   1.529 -1.0336  0.1018 -1.1046
  235TIP3    H2  670   0.635   5.983   1.514  0.6652 -0.4374  0.7288
  236TIP3   OH2  671   1.833   2.148   3.191 -0.4914 -0.5039 -0.5023
  236TIP3    H1  672   1.883   2.174   3.114  0.1024  0.6032  0.2192
  236TIP3    H2  673   1.748   2.191   3.181 -0.5507 -0.6700 -0.7148
  237TIP3   OH2  674   6.989   3.658   0.275 -0.5444 -0.4631 -0.0921
  237TIP3    H1  675   7.021   3.744   0.303 -2.5928  0.1626  0.5041
  237TIP3    H2  676   6.894   3.664   0.283 -0.8684 -2.1633 -1.8869
  238TIP3   OH2  677   4.434   3.565   4.517 -0.5297  0.3903  0.0478
  238TIP3    H1  678   4.487   3.576   4.438  0.1428  2.1665  0.7027
  238TIP3    H2  679   4.452   3.643   4.569 -4.3869  1.5137 -0.0072
  239TIP3   OH2  680   5.024   2.257   5.767  0.4729  0.1996  0.3633
  239TIP3    H1  681   4.936   2.237   5.800  0.6127 -1.2668 -0.0813
  239TIP3    H2  682   5.066   2.172   5.759  0.6309  0.4800 -3.1442
  240TIP3   OH2  683   5.292   2.021   3.873  0.5026 -0.2711  0.1973
  240TIP3    H1  684   5.366   1.963   3.891  0.3350 -0.5776 -0.0971
  240TIP3    H2  685   5.229   2.002   3.943  0.9272  0.3832  0.7664
  241TIP3   OH2  686   4.627   3.300   4.576  0.8173 -0.0397 -0.0428
  241TIP3    H1  687   4.688   3.250   4.522  0.9799  0.4818 -0.3445
  241TIP3    H2  688   4.675   3.379   4.601  0.6946 -0.2054  0.7489
  242TIP3   OH2  689   0.972   3.734   5.431 -0.4119 -0.1321  0.8455
  242TIP3    H1  690   1.029   3.776   5.495 -0.3478 -0.3743  0.9474
  242TIP3    H2  691   0.901   3.797   5.417  0.1425  0.3958  0.3364
  243TIP3   OH2  692   5.616   0.315   0.659 -0.1239  0.3647  0.6575
  243TIP3    H1  693   5.625   0.275   0.572 -2.5395  1.0334  0.0147
  243TIP3    H2  694   5.626   0.243   0.720  0.1806 -0.3833 -0.2483
  244TIP3   OH2  695   1.553   1.959   3.329 -0.3425  0.1902  0.1804
  244TIP3    H1  696   1.571   2.050   3.354 -0.3732 -0.0217  1.0000
  244TIP3    H2  697   1.524   1.965   3.237 -1.9107  1.1880  0.6949
  245TIP3   OH2  698   0.076   2.928   5.540 -0.4356  0.0653  0.1144
  245TIP3    H1  699   0.142   2.982   5.496 -1.6191  0.5865 -1.1207
  245TIP3    H2  700  -0.007   2.970   5.517 -1.4507 -2.4422 -1.2110
  246TIP3   OH2  701   0.846   2.654   0.853 -0.0370  0.1214  0.1666
  246TIP3    H1  702   0.912   2.614   0.796 -0.0715 -0.6142  0.6352
  246TIP3    H2  703   0.762   2.623   0.818 -0.0811  0.1172  0.2760
  247TIP3   OH2  704   5.911   2.252   4.816 -0.4400 -0.5971 -0.0536
  247TIP3    H1  705   5.973   2.233   4.886 -0.3322  2.6354  0.8947
  247TIP3    H2  706   5.964   2.255   4.737  0.3628  0.6351  0.5154
  248TIP3   OH2  707   1.398   2.806   5.721  0.1538  0.2463  0.5770
  248TIP3    H1  708   1.325   2.759   5.680 -0.0723  0.4086  0.7887
  248TIP3    H2  709   1.466   2.740   5.733  0.0221  0.0817  0.4280
  249TIP3   OH2  710   4.876   5.715   0.625 -0.0901  0.1739 -0.4306
  249TIP3    H1  711   4.895   5.664   0.703  0.6895 -1.6522 -1.7365
  249TIP3    H2  712   4.962   5.740   0.591 -0.2963 -0.9350 -1.8500
  250TIP3   OH2  713   4.822   0.624   5.180 -0.5310  0.2696 -0.0756
  250TIP3    H1  714   4.911   0.614   5.145 -0.8411 -2.7589 -0.2724
  250TIP3    H2  715   4.828   0.701   5.237  2.5929 -0.5480  0.9441
  251TIP3   OH2  716   3.084   4.264   3.827  0.0931  0.9381  0.3759
  251TIP3    H1  717   3.001   4.221   3.847  0.2569 -0.3091 -1.3460
  251TIP3    H2  718   3.065   4.357   3.832 -1.6838  0.6888 -0.9292
  252TIP3   OH2  719   5.215   4.764   3.724  0.2464 -0.1150 -0.8493
  252TIP3    H1  720   5.187   4.673   3.713 -0.3163 -0.2281  1.0984
  252TIP3    H2  721   5.144   4.806   3.771  0.3696  1.4506 -1.9697
  253TIP3   OH2  722   3.898   3.133   4.952 -0.1776 -0.0130  0.2237
  253TIP3    H1  723   3.932   3.217   4.920  0.9191  0.0155  1.3975
  253TIP3    H2  724   3.856   3.094   4.875  0.8769  0.8068 -0.8136
  254TIP3   OH2  725   1.564   2.010   0.120 -0.7912  0.5371 -0.7308
  254TIP3    H1  726   1.468   2.004   0.116 -0.8566  1.0581 -0.0918
  254TIP3    H2  727   1.585   1.995   0.212 -0.1338 -1.0970 -1.0989
  255TIP3   OH2  728   3.250   6.270   1.916  0.2137  0.0064  0.1788
  255TIP3    H1  729   3.239   6.348   1.861  2.1296 -0.1771 -0.5728
  255TIP3    H2  730   3.315   6.297   1.981 -0.2450 -0.5197  0.8625
  256TIP3   OH2  731   0.903   2.157   3.360 -0.7829 -0.4178  0.2082
  256TIP3    H1  732   0.865   2.240   3.387 -0.6463 -0.6024  0.9856
  256TIP3    H2  733   0.896   2.101   3.437 -0.2756 -0.9253 -0.1046
  257TIP3   OH2  734   4.100   5.855   4.009  0.7421  0.2434  0.0731
  257TIP3    H1  735   4.175   5.884   3.957  0.8420 -0.0362  0.0578
  257TIP3    H2  736   4.139   5.801   4.078  0.4812 -0.6412 -0.4599
  258TIP3   OH2  737   6.790   1.998   2.647 -0.3955 -0.4766 -0.4182
  258TIP3    H1  738   6.731   1.954   2.708  0.0839 -2.8026 -1.5231
  258TIP3    H2  739   6.823   2.073   2.696 -0.2726 -2.0321  2.0685
  259TIP3   OH2  740   2.055   6.324   5.114  0.4271  0.6025  0.1192
  259TIP3    H1  741   2.086   6.410   5.088  2.9674 -0.5544 -1.0264
  259TIP3    H2  742   1.966   6.319   5.081  1.6479  1.2607 -3.8005
  260TIP3   OH2  743   2.822   5.859   5.327 -0.4213 -0.4762 -0.1415
  260TIP3    H1  744   2.840   5.775   5.284  1.7553  0.3922 -1.1062
  260TIP3    H2  745   2.848   5.845   5.418 -1.1078 -1.1494 -0.0424
  261TIP3   OH2  746   2.555   0.454   3.043 -0.4025  0.3328  0.1670
  261TIP3    H1  747   2.603   0.507   3.106 -0.9256  0.4945  0.4353
  261TIP3    H2  748   2.589   0.365   3.056  1.5826  0.7921 -1.3336
  262TIP3   OH2  749   4.115   2.761   5.855 -0.4069  0.3048  0.2227
  262TIP3    H1  750   4.132   2.835   5.797 -0.9401  0.7395  0.6098
  262TIP3    H2  751   4.145   2.790   5.941 -1.0084  0.2377  0.4599
  263TIP3   OH2  752   5.721   0.800   4.096  0.2350  0.0599  0.6084
  263TIP3    H1  753   5.670   0.862   4.147  1.0599  0.2182  1.2721
  263TIP3    H2  754   5.657   0.740   4.059 -0.6335  1.5962 -0.4683
  264TIP3   OH2  755   2.477   1.878   3.480 -0.3939 -0.0075  0.0930
  264TIP3    H1  756   2.489   1.788   3.510  2.2870  0.9121  2.0913
  264TIP3    H2  757   2.388   1.901   3.509 -0.7527 -1.6602  0.4212
  265TIP3   OH2  758   4.538   2.799   3.293 -0.0939 -0.0248 -0.2408
  265TIP3    H1  759   4.517   2.709   3.318 -2.7522  0.1108 -1.7388
  265TIP3    H2  760   4.613   2.790   3.234  0.7967 -1.0543  0.9787
  266TIP3   OH2  761   2.568   4.554   2.172  0.0164  0.2297 -0.0346
  266TIP3    H1  762   2.549   4.573   2.080  1.1356  1.2625 -0.0820
  266TIP3    H2  763   2.663   4.557   2.178 -0.0544  0.5009  1.2189
  267TIP3   OH2  764   1.599   4.504   5.145 -0.1565  0.4593 -0.6913
  267TIP3    H1  765   1.538   4.544   5.083  1.5726  1.3041 -1.9247
  267TIP3    H2  766   1.667   4.464   5.090  0.4294 -0.4563  0.6348
  268TIP3   OH2  767   6.660   5.514   2.623  0.1184  0.0291  0.6185
  268TIP3    H1  768   6.617   5.430   2.606  2.8059 -1.2663 -0.2874
  268TIP3    H2  769   6.646   5.564   2.543 -2.9200  1.2318  1.7588
  269TIP3   OH2  770   4.553   1.149   1.176  0.3815  0.0342 -0.0576
  269TIP3    H1  771   4.542   1.079   1.112 -0.7893 -0.5781  0.7737
  269TIP3    H2  772   4.568   1.103   1.259  0.7773  0.7963  0.3012
  270TIP3   OH2  773   0.814   3.777   0.265 -0.1003 -0.0003 -0.2400
  270TIP3    H1  774   0.811   3.832   0.187 -0.4496  0.8882  0.3890
  270TIP3    H2  775   0.798   3.837   0.338  0.4595 -0.7692  0.5427
  271TIP3   OH2  776   0.113   3.363   3.891  0.3325  0.1260 -0.3949
  271TIP3    H1  777   0.118   3.270   3.870  0.9244 -0.2842  1.4322
  271TIP3    H2  778   0.188   3.379   3.948  0.0303  1.6557 -0.3860
  272TIP3   OH2  779   2.412   6.826   1.961 -0.2328  0.0297  0.3919
  272TIP3    H1  780   2.342   6.765   1.981  0.1405 -1.1626 -1.6422
  272TIP3    H2  781   2.413   6.832   1.865  2.2741  0.1556  0.3499
  273TIP3   OH2  782   0.158   4.023   1.687  0.4706  0.4700  0.2061
  273TIP3    H1  783   0.163   3.928   1.698  0.6181  0.3495 -0.8346
  273TIP3    H2  784   0.066   4.040   1.665  0.8568  0.3080 -1.7110
  274TIP3   OH2  785   2.085   5.152   5.554 -0.5198  0.5100  0.1780
  274TIP3    H1  786   2.164   5.170   5.503 -0.7847 -1.1179 -0.8462
  274TIP3    H2  787   2.111   5.172   5.644  1.5589 -1.3912  0.0830
  275TIP3   OH2  788   6.148   0.975   4.313  0.7674 -0.0451 -0.3736
  275TIP3    H1  789   6.148   0.925   4.231  0.1118 -1.7883  0.6310
  275TIP3    H2  790   6.063   0.957   4.352  1.4686 -0.1550  1.1895
  276TIP3   OH2  791   3.749   6.695   2.214  0.0782  0.4009  0.3799
  276TIP3    H1  792   3.670   6.735   2.178 -0.3234  1.0232  1.8808
  276TIP3    H2  793   3.760   6.614   2.164 -1.9752 -0.1141  0.6572
  277TIP3   OH2  794   0.590   0.486   3.767  0.0094 -0.3638  0.2572
  277TIP3    H1  795   0.572   0.448   3.682 -0.0330 -2.2209  1.0571
  277TIP3    H2  796   0.684   0.504   3.766 -0.1616  0.5466 -0.5143
  278TIP3   OH2  797   1.903   2.107   4.530  0.3366  0.1114 -0.0125
  278TIP3    H1  798   1.873   2.016   4.531  0.1735  0.1634 -0.1550
  278TIP3    H2  799   1.824   2.158   4.513  0.5547  0.2314 -0.7099
  279TIP3   OH2  800   6.113   6.102   4.540 -0.1936 -0.2490  0.0227
  279TIP3    H1  801   6.047   6.074   4.476 -0.1763 -1.4293  0.5077
  279TIP3    H2  802   6.179   6.033   4.539  1.5148  1.2901 -1.0546
  280TIP3   OH2  803   5.550   6.410   2.930 -0.6701  0.3454  0.0049
  280TIP3    H1  804   5.530   6.479   2.867 -1.2840 -0.1354 -0.3329
  280TIP3    H2  805   5.583   6.457   3.007 -0.0637  0.9478 -0.6000
  281TIP3   OH2  806   4.430   3.241   1.473  0.4877  0.5429  0.2651
  281TIP3    H1  807   4.360   3.245   1.538  0.6787 -1.1079  0.6230
  281TIP3    H2  808   4.510   3.233   1.524  0.6686 -0.4246 -0.1436
  282TIP3   OH2  809   2.559   1.979   1.659 -0.1161  0.3637 -0.2001
  282TIP3    H1  810   2.560   1.990   1.754 -1.0529 -0.3572 -0.0904
  282TIP3    H2  811   2.584   1.887   1.646  0.5482  0.6012 -0.6939
  283TIP3   OH2  812   5.753   3.065   3.199 -0.3245 -0.1240  0.4283
  283TIP3    H1  813   5.802   3.064   3.281 -1.9210 -0.9066  1.4355
  283TIP3    H2  814   5.770   2.979   3.160 -0.4571 -0.1866  0.5073
  284TIP3   OH2  815   4.239   4.850   5.092  0.1142  0.2165  0.5783
  284TIP3    H1  816   4.233   4.940   5.124 -0.0194  0.0259  1.1095
  284TIP3    H2  817   4.179   4.847   5.017  0.8249  0.8079 -0.0320
  285TIP3   OH2  818   0.168   1.925   5.566  0.4213 -0.5106 -0.1609
  285TIP3    H1  819   0.094   1.894   5.514  0.3748 -1.4419  0.4314
  285TIP3    H2  820   0.192   1.850   5.620  0.0760  0.5874  1.6115
  286TIP3   OH2  821   4.302   4.719   2.302 -0.0528 -0.2710 -0.0319
  286TIP3    H1  822   4.314   4.733   2.208  0.4615 -2.0359 -0.2730
  286TIP3    H2  823   4.384   4.678   2.331  1.2052  3.1609  1.9145
  287TIP3   OH2  824   2.972   1.232   5.606  0.5208 -0.0998  0.7851
  287TIP3    H1  825   3.002   1.199   5.522  0.4005 -1.2508  1.1753
  287TIP3    H2  826   2.923   1.311   5.585  0.4752 -0.3867 -0.2284
  288TIP3   OH2  827   5.658   2.016   3.735 -0.5491 -0.1041  0.2385
  288TIP3    H1  828   5.611   2.099   3.728 -2.0262 -0.9719 -0.7282
  288TIP3    H2  829   5.740   2.039   3.779 -1.3439  1.6831  0.9154
  289TIP3   OH2  830   2.668   3.543   2.605  0.2540 -0.0816 -0.0832
  289TIP3    H1  831   2.675   3.477   2.674 -0.9962  0.3831  0.5247
  289TIP3    H2  832   2.689   3.626   2.650 -1.1585  0.3024 -0.0877
  290TIP3   OH2  833   5.518   3.488   4.147 -0.4462  0.4743  0.4924
  290TIP3    H1  834   5.429   3.468   4.118 -1.3105  0.9499  2.6124
  290TIP3    H2  835   5.572   3.421   4.106 -1.8544 -0.1649 -0.4040
  291TIP3   OH2  836   1.650   4.239   1.796 -0.9009  0.4595 -0.2047
  291TIP3    H1  837   1.654   4.212   1.705 -2.8296 -0.0664 -0.1928
  291TIP3    H2  838   1.604   4.323   1.795 -3.0724 -0.6319  0.3779
  292TIP3   OH2  839   3.297   0.190   4.515  0.1550  0.1330  0.5973
  292TIP3    H1  840   3.216   0.144   4.538  0.7126 -1.5202 -0.5697
  292TIP3    H2  841   3.365   0.124   4.523  0.8380  0.3282 -2.3658
  293TIP3   OH2  842   0.650   1.122   2.125  0.5474  0.2852  0.1544
  293TIP3    H1  843   0.684   1.196   2.175  0.0824  1.2337 -0.9012
  293TIP3    H2  844   0.557   1.139   2.116  0.2179 -0.9864  0.7955
  294TIP3   OH2  845   6.223   5.734   4.250  0.4638  0.3203  0.1821
  294TIP3    H1  846   6.256   5.753   4.338 -0.4879  1.6392  0.2834
  294TIP3    H2  847   6.272   5.793   4.192 -1.9588  2.7599  0.4030
  295TIP3   OH2  848   2.571   2.737   1.127  0.3811  0.9400  0.3135
  295TIP3    H1  849   2.603   2.651   1.100  1.5814  1.0673  1.2535
  295TIP3    H2  850   2.610   2.798   1.065  1.1651  0.9848  0.8279
  296TIP3   OH2  851   5.614   3.413   2.354  0.2844 -0.3018 -0.5063
  296TIP3    H1  852   5.534   3.376   2.318 -0.8153  0.0434  1.4699
  296TIP3    H2  853   5.614   3.504   2.326  0.9200 -0.7286 -1.9758
  297TIP3   OH2  854   3.725   4.073   0.797  0.2371  0.4023 -0.2447
  297TIP3    H1  855   3.787   4.126   0.748 -1.0136  1.8184 -0.3667
  297TIP3    H2  856   3.772   4.047   0.876  1.6471 -0.3238 -1.2867
  298TIP3   OH2  857   7.068   3.140   2.345  0.0198  0.1942 -0.6287
  298TIP3    H1  858   7.012   3.094   2.283  1.6564 -1.1606 -1.1800
  298TIP3    H2  859   7.032   3.120   2.431 -0.3252 -0.6998 -0.9699
  299TIP3   OH2  860   4.924   1.599   2.069  0.0272 -0.1614 -0.0103
  299TIP3    H1  861   4.836   1.582   2.035  0.3438 -0.3098 -0.7669
  299TIP3    H2  862   4.973   1.518   2.051  0.9718  0.7539 -1.7657
  300TIP3   OH2  863   2.660   3.481   3.580  0.0618 -0.3192  0.2691
  300TIP3    H1  864   2.654   3.535   3.658  0.4032 -0.4602  0.3958
  300TIP3    H2  865   2.571   3.480   3.544  0.2648  1.2512 -0.3670
  301TIP3   OH2  866   0.367   1.196   3.882 -0.4540 -0.3186  0.0836
  301TIP3    H1  867   0.356   1.112   3.926  0.9446 -0.0530  0.9840
  301TIP3    H2  868   0.366   1.175   3.789  0.3361 -1.3888  0.3083
  302TIP3   OH2  869   0.942   6.292   5.247  0.1906 -0.3007 -0.3720
  302TIP3    H1  870   0.923   6.210   5.292 -1.9332 -1.0661 -2.4760
  302TIP3    H2  871   1.012   6.270   5.185  0.3238 -0.2695 -0.2324
  303TIP3   OH2  872   4.008   0.037   5.346  0.1588  0.2805  0.3903
  303TIP3    H1  873   3.964  -0.043   5.375 -1.8802  1.1414 -0.1962
  303TIP3    H2  874   4.013   0.028   5.251 -0.0001  0.8073  0.3295
  304TIP3   OH2  875   1.814   0.300   5.542 -0.3423  0.2610  0.0599
  304TIP3    H1  876   1.893   0.251   5.518 -1.0683 -1.8744  1.6581
  304TIP3    H2  877   1.810   0.372   5.479  0.8736 -1.6692 -2.4303
  305TIP3   OH2  878   0.810   5.140   5.574  0.3721 -0.0157 -0.3305
  305TIP3    H1  879   0.721   5.110   5.592  0.7051 -1.6093 -1.1353
  305TIP3    H2  880   0.799   5.220   5.523 -0.6042 -0.3787 -0.7049
  306TIP3   OH2  881   3.409   5.348   5.364  0.3974  0.2605  0.2313
  306TIP3    H1  882   3.474   5.322   5.430  0.6677  0.6740  0.1305
  306TIP3    H2  883   3.392   5.267   5.315 -0.3783 -0.2376  1.2842
  307TIP3   OH2  884   6.139   5.631   3.847  0.3620  0.0946 -0.1370
  307TIP3    H1  885   6.203   5.634   3.918  1.1033 -1.0835 -0.7158
  307TIP3    H2  886   6.180   5.681   3.776 -1.0034  2.5487  0.6728
  308TIP3   OH2  887   1.065   5.454   5.123 -0.4838  0.2915 -0.3517
  308TIP3    H1  888   1.051   5.461   5.029  0.0805  1.3752 -0.3764
  308TIP3    H2  889   0.980   5.477   5.162 -0.2975  1.4411 -0.5829
  309TIP3   OH2  890   1.455   4.717   0.340 -0.0431  0.6589  0.0086
  309TIP3    H1  891   1.495   4.688   0.422 -1.5680 -0.9494  0.2460
  309TIP3    H2  892   1.413   4.800   0.362  0.2538  0.6445  0.6549
  310TIP3   OH2  893   6.646   5.248   0.920  0.2836 -0.8858  0.0343
  310TIP3    H1  894   6.616   5.299   0.845 -1.5131  1.9608  2.4873
  310TIP3    H2  895   6.578   5.182   0.933 -2.5057  2.0978  2.2581
  311TIP3   OH2  896   0.359   3.838   4.520  0.3466  0.1172  0.1985
  311TIP3    H1  897   0.425   3.795   4.574  0.3955  1.0488  0.9055
  311TIP3    H2  898   0.288   3.857   4.580 -0.6982 -1.0849 -0.6061
  312TIP3   OH2  899   6.108   1.902   4.386 -0.1861 -0.4907  0.2384
  312TIP3    H1  900   6.200   1.928   4.377  0.1438 -1.7998 -0.4082
  312TIP3    H2  901   6.068   1.926   4.302 -0.4734  0.1483  0.5462
  313TIP3   OH2  902   0.197   3.682   2.454 -0.2329  0.3281 -0.3102
  313TIP3    H1  903   0.125   3.631   2.416  0.0537 -0.9502  0.8021
  313TIP3    H2  904   0.273   3.623   2.450  0.3351  1.0112  0.1449
  314TIP3   OH2  905   2.715   2.175   5.025  0.0806 -0.3824 -0.2111
  314TIP3    H1  906   2.665   2.102   5.064  0.3977 -1.3302 -1.4984
  314TIP3    H2  907   2.806   2.148   5.032  0.2543  0.2170 -0.1042
  315TIP3   OH2  908   5.166   5.607   4.556 -0.1688  0.4628  0.0575
  315TIP3    H1  909   5.173   5.518   4.522  0.9946  1.2676 -1.9395
  315TIP3    H2  910   5.092   5.645   4.509 -0.7905  0.5183  1.0508
  316TIP3   OH2  911   3.743   3.250   2.936  0.0399 -0.4528  0.2713
  316TIP3    H1  912   3.773   3.271   2.847  2.7375  2.1098  1.5886
  316TIP3    H2  913   3.779   3.164   2.954  0.7598 -0.3516 -0.6264
  317TIP3   OH2  914   2.490   1.688   2.489 -0.2989 -0.6762 -0.3907
  317TIP3    H1  915   2.523   1.725   2.570  0.3416 -0.9510 -0.5190
  317TIP3    H2  916   2.530   1.601   2.485 -2.0312 -1.5357  0.0855
  318TIP3   OH2  917   1.923   0.148   2.660  0.0575  0.4488 -0.6676
  318TIP3    H1  918   1.903   0.109   2.745 -0.2062  1.5428 -0.2125
  318TIP3    H2  919   2.011   0.184   2.670 -0.4306  1.6323 -0.4484
  319TIP3   OH2  920   0.774   3.985   1.619  0.1819  0.0253 -0.3598
  319TIP3    H1  921   0.807   4.075   1.616  0.3785 -0.0583 -0.8242
  319TIP3    H2  922   0.738   3.970   1.532 -3.3965  0.9335  0.8080
  320TIP3   OH2  923   1.139   2.581   5.131 -0.6425 -0.2101  0.0076
  320TIP3    H1  924   1.233   2.577   5.116 -0.7094 -3.0250 -0.1884
  320TIP3    H2  925   1.127   2.545   5.219 -1.5093  0.7792  0.3199
  321TIP3   OH2  926   1.692   5.779   4.833 -0.0406  0.8256  0.2051
  321TIP3    H1  927   1.623   5.795   4.898  0.7641  1.3952  0.9455
  321TIP3    H2  928   1.744   5.708   4.870  1.1581  1.9715  0.8273
  322TIP3   OH2  929   5.122   5.039   5.416 -0.7216 -0.3394  0.2590
  322TIP3    H1  930   5.186   5.011   5.351 -0.1170 -0.8054  1.0432
  322TIP3    H2  931   5.049   5.073   5.364  0.2070  0.3527 -0.6476
  323TIP3   OH2  932   3.110   4.018   4.897 -0.4855  0.8196 -0.4564
  323TIP3    H1  933   3.163   3.942   4.919  0.5685  0.9599 -2.3696
  323TIP3    H2  934   3.092   4.060   4.982  2.7072  0.9264  0.2843
  324TIP3   OH2  935   6.972   3.338   3.038  0.1432 -0.7075 -0.2947
  324TIP3    H1  936   7.049   3.367   2.990  0.6377 -1.8348 -0.2250
  324TIP3    H2  937   6.995   3.250   3.069 -0.4967 -0.3542  1.2610
  325TIP3   OH2  938   2.882   5.434   2.425 -0.0280  0.4219 -0.2514
  325TIP3    H1  939   2.952   5.439   2.360  0.7517  1.5351  0.6275
  325TIP3    H2  940   2.905   5.500   2.490 -1.6563  0.4743  0.3203
  326TIP3   OH2  941   5.866   4.525   3.120  0.4841 -0.0620 -0.1092
  326TIP3    H1  942   5.771   4.533   3.128  0.3802  0.1297 -1.3619
  326TIP3    H2  943   5.892   4.599   3.065  1.2454 -0.5974 -0.4934
  327TIP3   OH2  944   6.983   4.743   1.364 -0.3531  0.1230 -0.1948
  327TIP3    H1  945   7.005   4.769   1.274 -0.3331  5.3774  1.0430
  327TIP3    H2  946   7.068   4.734   1.407 -0.3697  1.0964  0.0621
  328TIP3   OH2  947   5.479   1.397   3.921 -0.4194  0.3721 -0.3647
  328TIP3    H1  948   5.502   1.333   3.854 -0.3641 -1.2468  1.1378
  328TIP3    H2  949   5.393   1.371   3.952  0.4541 -0.2967  1.6952
  329TIP3   OH2  950   2.677   6.775   5.813  0.2648  0.3466 -0.3974
  329TIP3    H1  951   2.612   6.831   5.770 -1.5220 -1.5588 -0.3084
  329TIP3    H2  952   2.715   6.724   5.742 -0.1363 -0.3018 -0.1485
  330TIP3   OH2  953   2.434   6.832   5.425  0.2700 -0.3155 -0.8110
  330TIP3    H1  954   2.509   6.857   5.478 -0.2896  0.2654 -0.2716
  330TIP3    H2  955   2.445   6.738   5.411  0.4358 -0.4897  0.3388
  331TIP3   OH2  956   5.144   0.070   1.184  0.1090 -0.0925  0.4516
  331TIP3    H1  957   5.203   0.094   1.112  1.7709  0.4386  1.9191
  331TIP3    H2  958   5.139   0.148   1.238 -1.2331 -0.4436  0.8741
  332TIP3   OH2  959   4.923   2.306   1.247 -0.1063  0.3453 -0.1091
  332TIP3    H1  960   5.000   2.271   1.201 -0.2195 -0.9230  0.6457
  332TIP3    H2  961   4.858   2.317   1.178  0.4766  0.6652 -0.6265
  333TIP3   OH2  962   7.064   5.703   3.722 -0.1743 -0.2192 -0.0378
  333TIP3    H1  963   7.095   5.754   3.647  0.4750  1.1987  1.1582
  333TIP3    H2  964   6.977   5.738   3.740  0.5007  0.8977  1.1420
  334TIP3   OH2  965   4.084   4.780   3.244  0.1220  0.3820 -0.5606
  334TIP3    H1  966   4.015   4.844   3.257 -1.6426 -1.3577 -0.8536
  334TIP3    H2  967   4.133   4.811   3.168 -0.6271  1.3835 -0.6496
  335TIP3   OH2  968   3.437   0.983   1.106 -1.2812 -0.0547 -0.6758
  335TIP3    H1  969   3.463   0.933   1.184  1.1227  0.6690 -0.9313
  335TIP3    H2  970   3.429   0.917   1.037 -2.1988 -0.5520 -0.1143
  336TIP3   OH2  971   3.772   3.879   2.815 -0.2247  0.9896 -0.5988
  336TIP3    H1  972   3.746   3.830   2.737  1.1112 -0.6173 -0.0849
  336TIP3    H2  973   3.757   3.971   2.791 -1.6607  0.4321 -2.0240
  337TIP3   OH2  974   4.165   6.386   0.576 -0.4863 -0.1631 -0.2008
  337TIP3    H1  975   4.153   6.440   0.654  0.0253  0.3687 -0.4762
  337TIP3    H2  976   4.080   6.344   0.562 -0.9539  0.6976 -0.0563
  338TIP3   OH2  977   6.950   5.349   4.718 -0.5403 -0.3280 -0.5100
  338TIP3    H1  978   6.932   5.341   4.624  0.8104 -1.3039 -0.7098
  338TIP3    H2  979   7.043   5.370   4.723 -0.1268 -2.2269  0.6427
  339TIP3   OH2  980   4.575   2.175   3.054  0.8312  0.7466 -0.1352
  339TIP3    H1  981   4.671   2.174   3.053  0.8948  0.4037  1.9792
  339TIP3    H2  982   4.552   2.202   3.142 -1.0260 -0.6249 -0.1385
  340TIP3   OH2  983   4.846   1.166   1.318  0.2309  0.2120 -0.1572
  340TIP3    H1  984   4.768   1.214   1.345 -0.0005 -0.9211  1.3627
  340TIP3    H2  985   4.912   1.233   1.301 -0.7757  1.1379 -0.4762
  341TIP3   OH2  986   2.613   5.088   5.424 -0.3888  0.2509  0.6607
  341TIP3    H1  987   2.625   5.037   5.505  0.1366 -1.4257 -0.4256
  341TIP3    H2  988   2.543   5.042   5.377 -2.4670  2.6429  1.2080
  342TIP3   OH2  989   5.785   1.464   4.298 -0.6951 -0.4535  0.4218
  342TIP3    H1  990   5.799   1.554   4.268 -2.5536 -0.3263 -0.1688
  342TIP3    H2  991   5.782   1.412   4.217  0.8054 -1.1618  0.7720
  343TIP3   OH2  992   6.670   0.897   2.752 -0.1044 -0.2742 -0.2286
  343TIP3    H1  993   6.735   0.939   2.695  1.7380 -3.1455 -0.5049
  343TIP3    H2  994   6.713   0.890   2.837 -1.5114  0.9262  0.6274
  344TIP3   OH2  995   2.537   1.708   1.420  0.1957  0.0887 -0.1585
  344TIP3    H1  996   2.591   1.715   1.341 -0.2323 -2.0404 -0.6986
  344TIP3    H2  997   2.596   1.670   1.485 -0.0304 -0.0995 -0.0650
  345TIP3   OH2  998   5.714   1.511   0.439  0.1243 -0.5682  0.1476
  345TIP3    H1  999   5.764   1.536   0.517 -0.2581  0.6359  0.0303
  345TIP3    H2 1000   5.731   1.418   0.428  2.3791 -0.1902  0.0640
  346TIP3   OH2 1001   4.764   5.856   1.225 -0.3142  0.0035  0.1664
  346TIP3    H1 1002   4.811   5.776   1.248  1.0372  1.0599  1.1983
  346TIP3    H2 1003   4.731   5.889   1.308  0.0788  1.0886 -0.0970
  347TIP3   OH2 1004   1.426   0.634   1.838  0.4132  0.5471 -0.0654
  347TIP3    H1 1005   1.500   0.628   1.778  0.1920  0.2881 -0.3177
  347TIP3    H2 1006   1.410   0.728   1.848  0.8564  0.6051  0.0932
  348TIP3   OH2 1007   4.037   3.247   4.444  0.0493 -0.4484  0.0707
  348TIP3    H1 1008   4.078   3.161   4.450  0.9653 -0.0407 -0.1084
  348TIP3    H2 1009   4.103   3.307   4.479 -0.7799  0.1229  0.6924
  349TIP3   OH2 1010   5.493   0.534   5.214  0.8567 -0.1865  0.7420
  349TIP3    H1 1011   5.530   0.490   5.138 -1.3849 -0.3303 -0.3345
  349TIP3    H2 1012   5.406   0.496   5.224  0.3029  1.3261  2.0898
  350TIP3   OH2 1013   4.936   4.159   4.100 -0.0465 -0.7539  0.4466
  350TIP3    H1 1014   4.913   4.083   4.046  1.2541 -0.8962  0.0477
  350TIP3    H2 1015   4.951   4.123   4.187 -1.3572 -0.6414  0.7444
  351TIP3   OH2 1016   0.994   0.563   5.514 -0.4355 -0.5933 -0.2041
  351TIP3    H1 1017   1.003   0.605   5.600 -3.6423 -0.2553  0.1157
  351TIP3    H2 1018   0.978   0.636   5.454  0.4981 -0.9250 -0.8678
  352TIP3   OH2 1019   2.489   6.326   1.544 -0.0414 -0.2274  0.3809
  352TIP3    H1 1020   2.509   6.284   1.627 -0.1166  0.4988  0.7822
  352TIP3    H2 1021   2.517   6.417   1.556 -1.0699  0.1600  0.0199
  353TIP3   OH2 1022   4.702   4.560   1.745  0.3450 -0.1246 -0.2452
  353TIP3    H1 1023   4.707   4.464   1.747  1.2838 -0.1039 -0.7719
  353TIP3    H2 1024   4.793   4.588   1.743  0.0733  0.7465 -1.0013
  354TIP3   OH2 1025   3.099   3.677   2.245  0.2618  0.7098 -0.5728
  354TIP3    H1 1026   3.116   3.584   2.256  0.1957  0.8713  1.2005
  354TIP3    H2 1027   3.008   3.681   2.213 -0.0932  0.1856  0.3289
  355TIP3   OH2 1028   5.381   0.420   1.697  0.1164  1.0525  0.1533
  355TIP3    H1 1029   5.470   0.407   1.664 -0.4580 -1.0725 -0.7662
  355TIP3    H2 1030   5.389   0.489   1.762  2.2536  1.6052 -0.6242
  356TIP3   OH2 1031   6.028   5.183   3.482  0.1183 -0.6166  0.1116
  356TIP3    H1 1032   6.086   5.249   3.519 -0.7662  0.5776 -0.5778
  356TIP3    H2 1033   5.955   5.232   3.444 -0.5418 -1.9775 -0.4818
  357TIP3   OH2 1034   0.590   5.328   1.599 -0.0789  0.2951 -0.0743
  357TIP3    H1 1035   0.635   5.374   1.670 -1.3269  0.8054  0.4181
  357TIP3    H2 1036   0.497   5.339   1.618 -0.4391 -1.9527 -0.2724
  358TIP3   OH2 1037   5.256   0.476   0.638 -0.0475 -0.4883 -0.3084
  358TIP3    H1 1038   5.221   0.447   0.722  1.7802 -0.5677  0.4496
  358TIP3    H2 1039   5.222   0.565   0.628 -1.2292 -0.8875 -0.0815
  359TIP3   OH2 1040   5.994   5.691   0.611  0.3515 -0.3251 -0.2030
  359TIP3    H1 1041   6.063   5.629   0.591 -1.2308 -2.5784  0.8953
  359TIP3    H2 1042   6.033   5.753   0.671  1.6342 -1.0371 -0.2770
  360TIP3   OH2 1043   4.902   5.295   3.525  0.5497 -0.0604  0.5985
  360TIP3    H1 1044   4.836   5.226   3.516  1.3449 -0.6331 -1.1963
  360TIP3    H2 1045   4.942   5.279   3.610  1.0512 -2.1575  0.0158
  361TIP3   OH2 1046   4.657   4.915   4.378 -0.1488 -1.0172  0.2133
  361TIP3    H1 1047   4.701   4.935   4.460  0.4586 -1.6448  0.0503
  361TIP3    H2 1048   4.602   4.839   4.398 -1.0546 -0.3278  0.3790
  362TIP3   OH2 1049   4.043   1.165   2.514  0.2780 -0.6198 -0.1329
  362TIP3    H1 1050   4.037   1.106   2.439 -1.1925 -1.9446  0.9707
  362TIP3    H2 1051   3.998   1.119   2.585 -2.4258  2.4650  0.3918
  363TIP3   OH2 1052   0.289   5.024   1.547  0.1864 -0.3342 -0.3066
  363TIP3    H1 1053   0.380   5.054   1.547  0.5102 -1.2034  1.3501
  363TIP3    H2 1054   0.283   4.966   1.623 -2.1570  0.9620  0.5956
  364TIP3   OH2 1055   6.530   2.526   5.675 -0.3379 -0.4161  0.0709
  364TIP3    H1 1056   6.459   2.583   5.706 -0.8183 -1.2760  0.5774
  364TIP3    H2 1057   6.558   2.566   5.592  0.5212  1.5526  1.2329
  365TIP3   OH2 1058   6.012   1.566   0.606 -0.2383  0.7532  0.0192
  365TIP3    H1 1059   6.095   1.598   0.641 -0.2234  1.2677 -0.4757
  365TIP3    H2 1060   5.945   1.620   0.649 -0.4323 -0.5723  1.4701
  366TIP3   OH2 1061   3.101   0.559   4.966  0.0226  0.0683 -0.2217
  366TIP3    H1 1062   3.162   0.632   4.957 -0.3697  0.9688  3.1878
  366TIP3    H2 1063   3.014   0.601   4.964 -0.2925 -0.5873 -0.3880
  367TIP3   OH2 1064   6.878   4.593   0.507 -0.3018  0.1943 -0.4562
  367TIP3    H1 1065   6.886   4.599   0.412 -0.4083  1.1114 -0.4137
  367TIP3    H2 1066   6.871   4.684   0.536 -0.0218 -0.0705  0.4498
  368TIP3   OH2 1067   5.234   1.194   5.009  0.2081  0.3274 -0.1125
  368TIP3    H1 1068   5.302   1.144   5.053 -1.0962 -0.0800  1.5225
  368TIP3    H2 1069   5.278   1.232   4.933  2.3164  0.3080  1.0303
  369TIP3   OH2 1070   6.926   4.387   0.708 -0.8186 -0.3484  0.2944
  369TIP3    H1 1071   6.931   4.468   0.656 -0.0433  1.0154  2.3768
  369TIP3    H2 1072   6.902   4.416   0.796 -1.6993 -2.5455  0.8406
  370TIP3   OH2 1073   3.983   2.873   0.563  0.0750  1.1228  0.4268
  370TIP3    H1 1074   3.949   2.906   0.480  0.9184 -0.4134 -0.5855
  370TIP3    H2 1075   3.946   2.785   0.571 -0.3906  1.4232  1.9617
  371TIP3   OH2 1076   0.079   1.053   4.252 -0.3375 -0.3475  0.0291
  371TIP3    H1 1077   0.036   1.071   4.336  1.0770 -0.2421  0.7531
  371TIP3    H2 1078   0.010   1.014   4.199 -1.8184  1.4516  0.5241
  372TIP3   OH2 1079   3.227   2.227   4.400 -0.0396 -0.1138  0.0277
  372TIP3    H1 1080   3.235   2.206   4.307  0.0719  2.3715 -0.5964
  372TIP3    H2 1081   3.305   2.189   4.440 -0.9649 -2.7823 -0.5136
  373TIP3   OH2 1082   2.017   5.119   1.408  0.4987  0.3637 -0.1128
  373TIP3    H1 1083   2.088   5.124   1.473 -1.4426  0.6385  2.1242
  373TIP3    H2 1084   2.035   5.038   1.360  2.9870  1.0601 -0.5206
  374TIP3   OH2 1085   3.188   0.328   1.893  0.1767 -0.8382 -0.3851
  374TIP3    H1 1086   3.128   0.300   1.962  0.2884 -0.4398 -0.1203
  374TIP3    H2 1087   3.238   0.400   1.933  0.6689 -1.0137 -0.6772
  375TIP3   OH2 1088   3.283   0.935   3.685  0.4773  0.1292  0.5753
  375TIP3    H1 1089   3.309   0.974   3.768  2.3732 -0.8225  0.4875
  375TIP3    H2 1090   3.354   0.875   3.664 -0.0208  0.2605 -1.6917
  376TIP3   OH2 1091   4.474   4.703   5.476 -0.0823 -0.0349 -0.0913
  376TIP3    H1 1092   4.488   4.758   5.399 -1.3049  0.9922  0.3777
  376TIP3    H2 1093   4.506   4.755   5.549 -1.7291  0.3175  0.4203
  377TIP3   OH2 1094   1.021   1.836   5.716 -0.6012 -0.1409 -0.1242
  377TIP3    H1 1095   1.010   1.923   5.755  0.5627 -0.5037  1.1017
  377TIP3    H2 1096   0.938   1.818   5.673 -1.2345  1.1412  0.5115
  378TIP3   OH2 1097   5.205   0.926   1.476 -0.4648  0.2259 -0.0774
  378TIP3    H1 1098   5.266   0.890   1.412  0.4456 -0.1683  0.9726
  378TIP3    H2 1099   5.206   1.020   1.461  1.5949  0.4095  0.8810
  379TIP3   OH2 1100   0.860   5.557   3.335 -0.0086  0.1575  0.0999
  379TIP3    H1 1101   0.950   5.557   3.302 -0.0451  1.3546 -0.0329
  379TIP3    H2 1102   0.806   5.548   3.256 -0.0589  1.9195 -0.1159
  380TIP3   OH2 1103   2.053   2.011   4.938 -0.4584 -0.1733  0.1069
  380TIP3    H1 1104   1.992   2.084   4.944 -0.4136  0.0181 -1.4081
  380TIP3    H2 1105   2.124   2.034   4.997 -1.1848  0.2448  0.8477
  381TIP3   OH2 1106   3.554   1.361   3.020  0.4528  0.3426  0.2612
  381TIP3    H1 1107   3.567   1.433   2.958  0.5250 -0.6200 -0.8572
  381TIP3    H2 1108   3.573   1.282   2.970 -0.5278 -0.5272  1.2199
  382TIP3   OH2 1109   5.928   2.345   1.222  0.4483 -0.1212  0.6883
  382TIP3    H1 1110   5.900   2.436   1.209  0.9964 -0.1457 -0.8877
  382TIP3    H2 1111   6.022   2.351   1.238  0.8183 -0.5023 -1.1825
  383TIP3   OH2 1112   0.941   3.065   5.573 -0.0146  0.0761 -0.2387
  383TIP3    H1 1113   0.891   3.089   5.495  0.0444 -0.0591 -0.3199
  383TIP3    H2 1114   0.950   3.146   5.622 -0.5719  0.0387 -0.0734
  384TIP3   OH2 1115   1.331   4.979   3.317 -0.0245 -0.1792  0.1360
  384TIP3    H1 1116   1.236   4.972   3.326  0.0256 -1.2090  0.0684
  384TIP3    H2 1117   1.361   5.008   3.403 -0.3246 -0.8867  0.4931
  385TIP3   OH2 1118   6.011   0.786   0.067 -0.0152  0.3122  0.0208
  385TIP3    H1 1119   6.000   0.723  -0.004  0.8528  1.0580 -0.8027
  385TIP3    H2 1120   6.004   0.871   0.024 -0.6253  0.7784  1.0244
  386TIP3   OH2 1121   2.189   2.186   3.326 -0.2236 -0.3418 -0.9227
  386TIP3    H1 1122   2.145   2.259   3.369 -0.3854 -0.6838 -0.4942
  386TIP3    H2 1123   2.123   2.116   3.324 -0.2953 -0.2558 -1.9457
  387TIP3   OH2 1124   4.063   3.818   3.394  0.5986  0.7432  0.0797
  387TIP3    H1 1125   3.979   3.856   3.420 -0.0882 -0.3439 -0.4468
  387TIP3    H2 1126   4.045   3.724   3.388  1.4197  0.6574 -1.6137
  388TIP3   OH2 1127   3.761   5.395   2.276 -0.6465 -0.3972 -0.1416
  388TIP3    H1 1128   3.805   5.311   2.268  0.4475  0.1501 -0.0648
  388TIP3    H2 1129   3.819   5.447   2.332 -1.2724  0.4285 -0.2406
  389TIP3   OH2 1130   5.828   1.048   2.046  0.0057  0.3232 -0.8747
  389TIP3    H1 1131   5.770   0.997   1.990 -0.2074  1.6880 -1.9478
  389TIP3    H2 1132   5.871   1.110   1.986  1.1683  0.5795  0.1839
  390TIP3   OH2 1133   6.357   1.873   4.062  0.4078  0.5794  0.0274
  390TIP3    H1 1134   6.323   1.791   4.098 -1.0933  0.7274 -0.9596
  390TIP3    H2 1135   6.419   1.846   3.994 -1.6891  0.1384 -1.8348
  391TIP3   OH2 1136   7.169   1.199   1.963 -0.4145  0.4146  0.3418
  391TIP3    H1 1137   7.180   1.187   1.868 -0.5918 -2.0474  0.5648
  391TIP3    H2 1138   7.075   1.202   1.976 -0.5195 -1.7924  0.5993
  392TIP3   OH2 1139   6.606   0.622   2.739 -0.0270  0.0784 -0.3313
  392TIP3    H1 1140   6.643   0.710   2.736 -0.9204  0.4786  0.1402
  392TIP3    H2 1141   6.551   0.622   2.817  2.8801 -2.0540  1.9568
  393TIP3   OH2 1142   5.946   4.082   0.508 -0.0433  0.2225  0.4371
  393TIP3    H1 1143   5.892   4.049   0.579  0.4379 -0.2036  0.6126
  393TIP3    H2 1144   5.892   4.072   0.429  0.1594 -1.2162  0.4440
  394TIP3   OH2 1145   2.621   1.641   2.142 -0.0679  0.4099 -0.0486
  394TIP3    H1 1146   2.703   1.638   2.191 -0.4889  1.7018  0.7919
  394TIP3    H2 1147   2.605   1.735   2.129 -1.7278  0.2147  0.3889
  395TIP3   OH2 1148   2.057   0.798   4.267 -0.5832 -0.6800  0.4166
  395TIP3    H1 1149   2.057   0.818   4.361  0.4654 -1.2254  0.5465
  395TIP3    H2 1150   1.992   0.858   4.230 -0.5845 -0.0435  1.4081
  396TIP3   OH2 1151   3.229   6.805   5.767 -0.2586  0.1154 -0.4480
  396TIP3    H1 1152   3.153   6.764   5.726 -1.0411 -0.8020  1.7446
  396TIP3    H2 1153   3.304   6.754   5.736 -0.2606  1.8383 -3.6731
  397TIP3   OH2 1154   3.072   3.250   3.924 -0.1181 -0.4345  0.0026
  397TIP3    H1 1155   3.100   3.335   3.890  0.4180 -0.8239 -0.5564
  397TIP3    H2 1156   2.981   3.264   3.951 -0.2049  0.1789 -0.5590
  398TIP3   OH2 1157   0.442   1.694   2.380  0.1697 -0.4088 -0.2481
  398TIP3    H1 1158   0.410   1.726   2.296  2.2357  0.0404 -0.9268
  398TIP3    H2 1159   0.433   1.769   2.439 -1.4867 -0.7908  0.0255
  399TIP3   OH2 1160   1.777   4.408   4.962  0.0335  0.0758 -0.7967
  399TIP3    H1 1161   1.789   4.489   4.912 -1.1015  0.8545  0.1262
  399TIP3    H2 1162   1.852   4.406   5.022  1.2038 -0.6794 -2.2178
  400TIP3   OH2 1163   3.505   2.059   4.342  0.0226 -0.3758 -0.4191
  400TIP3    H1 1164   3.478   2.029   4.429 -0.6090 -0.2442 -0.5663
  400TIP3    H2 1165   3.441   2.019   4.282 -0.9621  1.3891 -0.6026
  401TIP3   OH2 1166   3.418   1.536   0.099 -0.1509  0.3113  0.3405
  401TIP3    H1 1167   3.503   1.548   0.143  0.1235  1.3728 -0.4187
  401TIP3    H2 1168   3.355   1.578   0.157  0.0462  0.6797  0.2971
  402TIP3   OH2 1169   4.477   1.432   2.113  0.1548 -0.1378  0.5568
  402TIP3    H1 1170   4.549   1.457   2.170  2.3930  2.5397 -3.0552
  402TIP3    H2 1171   4.416   1.506   2.116 -0.0226 -0.2501  0.0023
  403TIP3   OH2 1172   6.425   5.262   2.223  0.3593  0.2601 -0.0211
  403TIP3    H1 1173   6.482   5.338   2.214  0.0050  0.6428  0.8513
  403TIP3    H2 1174   6.339   5.291   2.192  0.3669  0.0222 -0.2757
  404TIP3   OH2 1175   3.575   6.603   1.834  0.2500 -0.1704 -0.6358
  404TIP3    H1 1176   3.659   6.642   1.859  0.3245 -1.1145  0.6665
  404TIP3    H2 1177   3.586   6.510   1.850 -0.8100 -0.4027 -1.1899
  405TIP3   OH2 1178   3.631   2.668   3.679  0.2482 -0.3790 -0.4769
  405TIP3    H1 1179   3.565   2.606   3.709 -0.4208 -0.9792 -2.9530
  405TIP3    H2 1180   3.584   2.750   3.666  0.2433 -0.4749 -1.0846
  406TIP3   OH2 1181   3.663   5.776   4.911  0.1420  0.4410 -0.2610
  406TIP3    H1 1182   3.676   5.824   4.829 -0.1340  0.4311 -0.3127
  406TIP3    H2 1183   3.568   5.782   4.927  0.2201  0.5854  0.1444
  407TIP3   OH2 1184   2.046   2.462   1.704 -0.4455 -0.7107 -0.0109
  407TIP3    H1 1185   1.989   2.492   1.632 -0.4942 -0.6392  0.0571
  407TIP3    H2 1186   2.134   2.463   1.667 -0.3792  0.0422  0.1510
  408TIP3   OH2 1187   1.256   5.019   2.475 -0.5541  0.4100 -0.1217
  408TIP3    H1 1188   1.250   5.074   2.397 -1.5386 -1.3316 -1.3400
  408TIP3    H2 1189   1.176   4.966   2.474  0.1008 -0.6981  1.2661
  409TIP3   OH2 1190   1.660   3.607   3.222  0.7810  0.1154 -0.5268
  409TIP3    H1 1191   1.678   3.543   3.291 -1.9262 -0.5612 -0.3458
  409TIP3    H2 1192   1.746   3.633   3.190  2.0806 -0.5599  2.1757
  410TIP3   OH2 1193   2.975   2.302   4.471  0.6100  0.3928  0.3420
  410TIP3    H1 1194   3.070   2.303   4.464  0.6637  1.9262  0.8466
  410TIP3    H2 1195   2.957   2.243   4.544  1.0216 -1.4681 -0.9843
  411TIP3   OH2 1196   6.290   6.594   1.922  0.3235 -0.1133 -0.0041
  411TIP3    H1 1197   6.316   6.519   1.869 -1.7363 -1.5115  0.8488
  411TIP3    H2 1198   6.255   6.657   1.859 -0.8569 -1.1967 -0.4601
  412TIP3   OH2 1199   1.847   1.271   2.252  0.4536  0.0926  0.0742
  412TIP3    H1 1200   1.840   1.355   2.296 -1.5895  0.8718 -1.5545
  412TIP3    H2 1201   1.816   1.207   2.316 -0.0901  0.8694  0.5977
  413TIP3   OH2 1202   1.875   1.673   1.824  0.1113 -0.0925 -0.3536
  413TIP3    H1 1203   1.903   1.675   1.916  0.7204 -1.4517 -0.4936
  413TIP3    H2 1204   1.950   1.706   1.775 -0.1202  0.3866 -0.3902
  414TIP3   OH2 1205   2.418   5.225   4.411  0.4317 -0.6076 -0.2411
  414TIP3    H1 1206   2.444   5.198   4.324 -1.5716  1.5031 -1.6140
  414TIP3    H2 1207   2.340   5.174   4.431  0.7869 -0.9655  0.2768
  415TIP3   OH2 1208   6.729   3.569   3.639 -0.0943 -0.1663 -0.1301
  415TIP3    H1 1209   6.757   3.594   3.728  0.0992 -0.6913 -0.0406
  415TIP3    H2 1210   6.731   3.474   3.639  2.0140 -0.1842 -1.3381
  416TIP3   OH2 1211   2.326   3.850   0.895  0.5751  0.3677 -0.0834
  416TIP3    H1 1212   2.238   3.813   0.902  1.0439 -0.5336  1.4108
  416TIP3    H2 1213   2.373   3.790   0.838  1.2803 -1.3925  2.1894
  417TIP3   OH2 1214   2.468   3.967   5.060  0.2281  0.7205  0.2540
  417TIP3    H1 1215   2.443   4.032   5.125 -1.8494 -0.2514  0.4814
  417TIP3    H2 1216   2.476   3.885   5.109  0.4187  0.3179 -0.4308
  418TIP3   OH2 1217   2.750   5.241   5.132 -0.2741  0.3696 -0.4891
  418TIP3    H1 1218   2.672   5.206   5.089 -0.4998  0.8972 -0.5174
  418TIP3    H2 1219   2.779   5.312   5.074  1.1018 -0.7642 -1.2651
  419TIP3   OH2 1220   6.355   6.036   0.128  0.4077 -0.2648  0.0637
  419TIP3    H1 1221   6.369   6.070   0.040 -0.1577 -1.4387 -0.5066
  419TIP3    H2 1222   6.260   6.041   0.142  0.1742 -2.3743 -0.4129
  420TIP3   OH2 1223   6.254   1.767   2.063  0.4578  0.2709  0.1243
  420TIP3    H1 1224   6.319   1.789   1.996  0.4989 -1.0002 -0.2885
  420TIP3    H2 1225   6.303   1.713   2.126  0.2412  0.8399  0.7905
  421TIP3   OH2 1226   3.915   0.043   3.016 -0.3872 -0.0510  0.0796
  421TIP3    H1 1227   3.913   0.139   3.021 -1.6518  0.1390 -2.5410
  421TIP3    H2 1228   3.886   0.014   3.103 -0.3470  1.9241  0.8055
  422TIP3   OH2 1229   0.085   4.836   3.601 -0.0131  0.1846  0.3315
  422TIP3    H1 1230   0.071   4.876   3.686  0.2789  0.9767  0.0167
  422TIP3    H2 1231   0.002   4.846   3.555  0.3672  1.3996 -0.1281
  423TIP3   OH2 1232   6.342   5.252   5.386 -0.6391 -0.2628 -0.1811
  423TIP3    H1 1233   6.296   5.168   5.383 -2.6796  0.7274  0.6708
  423TIP3    H2 1234   6.290   5.309   5.329  0.2525  0.6073 -0.1396
  424TIP3   OH2 1235   6.889   2.442   2.704 -0.5563  0.1079 -0.5156
  424TIP3    H1 1236   6.871   2.362   2.754 -2.8302  0.7388 -0.2416
  424TIP3    H2 1237   6.967   2.478   2.746 -0.2113 -1.3120  0.1587
  425TIP3   OH2 1238   0.494   6.580   2.471 -0.2592 -0.5131  0.7493
  425TIP3    H1 1239   0.475   6.593   2.378  0.1155 -1.3281  0.5469
  425TIP3    H2 1240   0.552   6.653   2.495  0.4642 -0.8609  0.0814
  426TIP3   OH2 1241   3.321   3.362   0.175 -0.6227 -0.5192  0.6590
  426TIP3    H1 1242   3.415   3.381   0.180 -0.8777  1.0871 -0.0936
  426TIP3    H2 1243   3.314   3.293   0.109  0.0127 -0.6489  0.7205
  427TIP3   OH2 1244   2.948   3.123   1.316  0.0656  0.3900 -0.4971
  427TIP3    H1 1245   2.868   3.089   1.275 -0.2224  0.2615  0.1678
  427TIP3    H2 1246   3.012   3.122   1.245  0.7652 -3.7793 -0.0174
  428TIP3   OH2 1247   3.913   0.463   3.564  0.2753  0.1881 -0.4682
  428TIP3    H1 1248   3.908   0.539   3.621 -0.8219  1.0265 -1.6424
  428TIP3    H2 1249   3.910   0.388   3.623 -0.3600  1.0355  0.5932
  429TIP3   OH2 1250   4.240   4.640   5.612  0.0550  0.0866  0.3947
  429TIP3    H1 1251   4.301   4.660   5.540  0.3432  0.4078  0.7258
  429TIP3    H2 1252   4.282   4.675   5.690  1.2920 -2.9778  1.2826
  430TIP3   OH2 1253   2.361   5.606   4.092  0.3450  0.6047  0.0309
  430TIP3    H1 1254   2.345   5.619   3.999 -0.6533 -0.4795  0.0146
  430TIP3    H2 1255   2.274   5.588   4.128  0.9439 -0.8923  0.8145
  431TIP3   OH2 1256   0.602   3.831   1.118 -0.9224 -0.3076  0.1594
  431TIP3    H1 1257   0.611   3.811   1.024 -0.5605  0.0432  0.1121
  431TIP3    H2 1258   0.517   3.874   1.125 -0.8189 -0.0605 -0.0603
  432TIP3   OH2 1259   5.242   6.525   4.353  0.4053 -0.2688  0.0292
  432TIP3    H1 1260   5.285   6.535   4.438 -1.7098  2.5382  0.9481
  432TIP3    H2 1261   5.308   6.552   4.289  0.8240  1.6927  1.1850
  433TIP3   OH2 1262   6.565   0.519   5.562  0.7856 -0.2510  0.0220
  433TIP3    H1 1263   6.535   0.580   5.629 -0.2800 -0.2533 -0.4356
  433TIP3    H2 1264   6.497   0.521   5.495  0.7126 -1.9374 -0.0055
  434TIP3   OH2 1265   2.950   5.037   5.640 -0.7233  0.1015 -0.7676
  434TIP3    H1 1266   2.977   5.111   5.694  1.7397 -1.6550  0.5583
  434TIP3    H2 1267   2.994   5.052   5.556  0.4116 -0.2328 -0.2451
  435TIP3   OH2 1268   5.008   1.122   5.733 -0.5526  0.2619 -0.7311
  435TIP3    H1 1269   5.080   1.130   5.796 -0.0994  0.8210 -1.3113
  435TIP3    H2 1270   4.995   1.211   5.701 -0.0284 -0.1849 -2.2504
  436TIP3   OH2 1271   2.065   2.783   0.415  0.2067 -1.2105 -0.0047
  436TIP3    H1 1272   2.001   2.851   0.395  1.5354 -0.3100 -1.4301
  436TIP3    H2 1273   2.075   2.735   0.333  1.4482 -1.2386  0.1522
  437TIP3   OH2 1274   0.194   0.025   2.862 -0.0322 -0.4522 -0.4748
  437TIP3    H1 1275   0.114   0.059   2.821 -0.0806 -0.7614 -0.6378
  437TIP3    H2 1276   0.170  -0.062   2.894 -1.0155  1.0232  3.2722
  438TIP3   OH2 1277   3.612   3.958   1.409  0.1010 -0.1131  0.1347
  438TIP3    H1 1278   3.636   4.048   1.388  0.4861 -0.3120 -0.3046
  438TIP3    H2 1279   3.535   3.941   1.355  0.2458 -0.1633 -0.0578
  439TIP3   OH2 1280   3.627   0.361   1.310 -0.1223 -1.2064  0.1076
  439TIP3    H1 1281   3.659   0.300   1.244  1.5629  0.0832 -0.3173
  439TIP3    H2 1282   3.674   0.336   1.390  1.0273 -0.1089 -0.2118
  440TIP3   OH2 1283   3.993   3.375   0.624  0.2007 -0.0505 -0.0545
  440TIP3    H1 1284   3.927   3.319   0.584  1.2200 -1.6857  0.4520
  440TIP3    H2 1285   4.015   3.331   0.706 -0.6177  2.3320  1.5464
  441TIP3   OH2 1286   1.340   3.112   2.092  0.0307  0.3999 -0.0404
  441TIP3    H1 1287   1.385   3.168   2.155 -0.7973  1.2750 -0.2043
  441TIP3    H2 1288   1.410   3.062   2.050  0.6758  0.4745  0.9140
  442TIP3   OH2 1289   2.297   6.469   2.600 -0.0530  0.5183 -0.2257
  442TIP3    H1 1290   2.371   6.530   2.590 -1.2897  2.3289  1.1572
  442TIP3    H2 1291   2.311   6.428   2.685 -0.0955  0.0321 -0.4452
  443TIP3   OH2 1292   2.867   4.933   3.010 -0.6905 -0.4313  0.2226
  443TIP3    H1 1293   2.774   4.912   2.995 -0.8888  0.2321  0.4888
  443TIP3    H2 1294   2.872   5.027   2.997  0.0728 -0.5456 -0.3913
  444TIP3   OH2 1295   5.768   0.623   1.658 -0.3078  0.2138 -0.0274
  444TIP3    H1 1296   5.833   0.554   1.670 -1.0641 -0.5517 -0.2200
  444TIP3    H2 1297   5.705   0.586   1.597 -0.5212  1.2351 -0.4546
  445TIP3   OH2 1298   1.679   3.128   3.384  0.0464 -0.4341  0.7123
  445TIP3    H1 1299   1.588   3.158   3.394  0.5517  1.5007 -0.0426
  445TIP3    H2 1300   1.710   3.118   3.474 -0.2010  1.3237  1.0248
  446TIP3   OH2 1301   3.175   0.271   3.291  0.2354 -0.7357 -0.7626
  446TIP3    H1 1302   3.222   0.215   3.352 -0.7568  0.0969  0.8514
  446TIP3    H2 1303   3.083   0.266   3.319  0.0636  1.4155 -0.7206
  447TIP3   OH2 1304   5.183   6.552   0.034 -0.3430 -0.4264  0.0441
  447TIP3    H1 1305   5.115   6.507   0.084  0.5535 -1.3723  0.4672
  447TIP3    H2 1306   5.234   6.599   0.100 -1.9635  2.2823 -0.4969
  448TIP3   OH2 1307   0.917   0.306   2.330 -0.3740  0.0067  0.6256
  448TIP3    H1 1308   0.987   0.284   2.392  2.1655  0.8118 -1.7168
  448TIP3    H2 1309   0.908   0.228   2.275 -2.6066 -0.7061  1.8729
  449TIP3   OH2 1310   6.346   2.886   0.241 -0.2535  0.3700  0.5721
  449TIP3    H1 1311   6.367   2.802   0.281 -1.2555  0.7789  2.0401
  449TIP3    H2 1312   6.284   2.864   0.171 -0.5110 -0.1174  0.9452
  450TIP3   OH2 1313   7.165   0.125   3.296  0.0420 -0.0415  0.2833
  450TIP3    H1 1314   7.168   0.215   3.263  3.4346  0.6444  2.0509
  450TIP3    H2 1315   7.224   0.076   3.239  0.5236 -0.4445  1.1124
  451TIP3   OH2 1316   5.849   0.099   4.522 -0.0951  0.1184  0.0210
  451TIP3    H1 1317   5.924   0.084   4.465  0.8102 -0.3845  1.2773
  451TIP3    H2 1318   5.842   0.018   4.574 -0.2422  0.9280  1.3051
  452TIP3   OH2 1319   6.643   2.374   2.963 -0.0863  0.0415 -0.1635
  452TIP3    H1 1320   6.596   2.415   3.036  0.4194  1.3676 -0.5391
  452TIP3    H2 1321   6.691   2.447   2.923  1.4460 -1.0697 -0.4246
  453TIP3   OH2 1322   2.610   4.695   5.229 -0.2995  0.1141 -0.2324
  453TIP3    H1 1323   2.544   4.753   5.267 -1.3163 -1.7936  1.0570
  453TIP3    H2 1324   2.677   4.688   5.296 -0.5420 -0.7413 -0.0668
  454TIP3   OH2 1325   4.324   2.209   0.599  0.5588 -0.3030 -0.2200
  454TIP3    H1 1326   4.402   2.163   0.567  1.2547 -1.0281  2.3441
  454TIP3    H2 1327   4.352   2.299   0.611  0.1957  0.0589 -1.8456
  455TIP3   OH2 1328   1.997   0.370   4.103 -0.4609  0.1226 -0.7534
  455TIP3    H1 1329   1.999   0.281   4.068 -1.0426  0.0143 -0.5256
  455TIP3    H2 1330   2.069   0.373   4.166 -0.4023 -0.1704 -0.8061
  456TIP3   OH2 1331   1.206   5.214   3.091 -0.3901  0.3414  0.2653
  456TIP3    H1 1332   1.250   5.138   3.054  0.9326  0.4647  1.5054
  456TIP3    H2 1333   1.114   5.190   3.095 -0.3320 -0.3026 -1.4858
  457TIP3   OH2 1334   2.189   1.792   5.660  0.4960 -0.0145  0.4212
  457TIP3    H1 1335   2.116   1.831   5.612 -0.4569 -3.0349 -0.8317
  457TIP3    H2 1336   2.250   1.763   5.592  2.0969  0.9716  1.3841
  458TIP3   OH2 1337   2.345   4.883   4.217  0.3308 -0.2231  0.3057
  458TIP3    H1 1338   2.326   4.804   4.168 -1.5588  0.4811 -0.1998
  458TIP3    H2 1339   2.268   4.939   4.204  1.9746  2.1004 -0.1491
  459TIP3   OH2 1340   6.847   4.965   0.264  0.1530 -0.1943 -0.0674
  459TIP3    H1 1341   6.841   4.979   0.169 -1.9374  0.7778  0.1408
  459TIP3    H2 1342   6.833   5.051   0.302 -1.3200 -0.9054  1.1319
  460TIP3   OH2 1343   0.984   5.969   3.862  0.2623  0.3487  0.2678
  460TIP3    H1 1344   0.957   5.899   3.921 -0.2429  0.0834 -0.2673
  460TIP3    H2 1345   0.968   5.935   3.775  1.3136  0.6112 -0.0446
  461TIP3   OH2 1346   3.848   3.756   1.193  0.6324 -0.6086  0.4404
  461TIP3    H1 1347   3.904   3.832   1.179  1.1890 -0.9858  0.5873
  461TIP3    H2 1348   3.839   3.750   1.289 -0.1590 -0.1920  0.3964
  462TIP3   OH2 1349   3.162   6.719   3.817  0.1962  0.1245  0.2529
  462TIP3    H1 1350   3.171   6.647   3.879  1.6876 -0.9019 -1.0800
  462TIP3    H2 1351   3.081   6.762   3.842 -1.2845 -2.6009  0.4970
  463TIP3   OH2 1352   2.606   6.241   5.042  0.6138 -0.7701 -0.0584
  463TIP3    H1 1353   2.628   6.177   4.974  0.3650  0.2834 -1.1679
  463TIP3    H2 1354   2.688   6.258   5.087  1.3054  0.2524 -1.6332
  464TIP3   OH2 1355   2.826   6.100   0.408 -0.6996  0.2628  0.3612
  464TIP3    H1 1356   2.844   6.017   0.364 -0.7061  0.1743  0.5251
  464TIP3    H2 1357   2.730   6.102   0.417 -0.6412 -0.1246  1.1553
  465TIP3   OH2 1358   5.574   5.003   2.285 -0.1519 -0.7699 -0.3517
  465TIP3    H1 1359   5.580   5.008   2.381 -0.4820 -2.5448 -0.1917
  465TIP3    H2 1360   5.662   5.024   2.254  0.1029 -0.7332  0.3831
  466TIP3   OH2 1361   6.816   4.233   0.359  0.3515 -0.5966 -0.1677
  466TIP3    H1 1362   6.911   4.229   0.362  0.3755 -0.3087 -0.4190
  466TIP3    H2 1363   6.788   4.230   0.451  0.6317 -0.0827 -0.0627
  467TIP3   OH2 1364   4.655   3.289   5.177 -0.4641 -0.6706 -0.1691
  467TIP3    H1 1365   4.585   3.226   5.158 -0.4226  0.0098 -3.1927
  467TIP3    H2 1366   4.719   3.240   5.229 -1.2658 -2.5710 -0.8759
  468TIP3   OH2 1367   2.878   0.260   1.047 -0.5173  0.6181  0.4340
  468TIP3    H1 1368   2.828   0.275   0.967 -1.3274 -1.0321  0.5866
  468TIP3    H2 1369   2.930   0.340   1.058 -0.7499  1.0848 -1.4530
  469TIP3   OH2 1370   0.280   3.175   2.933 -0.4217 -0.4587  0.3472
  469TIP3    H1 1371   0.327   3.170   3.016 -0.3051  0.8329  0.3745
  469TIP3    H2 1372   0.294   3.264   2.902 -1.5988 -0.4973 -0.3860
  470TIP3   OH2 1373   0.146   5.808   2.438 -0.4959 -0.2113  0.1556
  470TIP3    H1 1374   0.223   5.804   2.381 -0.8018 -0.1813 -0.2654
  470TIP3    H2 1375   0.150   5.895   2.479  0.1723 -0.5483  0.8196
  471TIP3   OH2 1376   3.651   0.949   1.953  0.0376 -0.0720  0.2587
  471TIP3    H1 1377   3.583   0.978   1.892  0.6989  0.3681 -0.2937
  471TIP3    H2 1378   3.700   0.883   1.904 -1.2226 -1.9162  1.3766
  472TIP3   OH2 1379   3.355   3.222   2.425  0.9530 -0.1315  0.1964
  472TIP3    H1 1380   3.355   3.140   2.474 -1.3826 -0.5514 -0.3843
  472TIP3    H2 1381   3.262   3.240   2.408  1.5430  1.3092 -1.8919
  473TIP3   OH2 1382   0.704   3.932   1.351 -0.0308 -0.0272  0.2346
  473TIP3    H1 1383   0.737   4.004   1.298 -1.7719  0.9355  0.3781
  473TIP3    H2 1384   0.683   3.863   1.288  0.6513 -0.0165 -0.0117
  474TIP3   OH2 1385   2.556   6.025   1.842 -0.6321  0.0489  0.0416
  474TIP3    H1 1386   2.571   5.970   1.920  1.9004 -0.3445 -0.6378
  474TIP3    H2 1387   2.476   5.989   1.804 -1.9085  0.1986  2.3769
  475TIP3   OH2 1388   4.904   0.513   2.796  0.1992  0.0815 -0.2195
  475TIP3    H1 1389   4.987   0.560   2.812  0.4271 -0.1540 -0.7086
  475TIP3    H2 1390   4.924   0.422   2.815  0.0747  0.0104 -0.4319
  476TIP3   OH2 1391   5.033   1.519   3.153 -0.5338 -0.2697 -0.5951
  476TIP3    H1 1392   5.048   1.438   3.105  0.2705  0.6912 -2.0259
  476TIP3    H2 1393   5.119   1.562   3.154 -0.9302  0.5240  0.2396
  477TIP3   OH2 1394   3.221   5.122   2.457 -0.2964  0.0303 -0.5113
  477TIP3    H1 1395   3.135   5.131   2.416 -1.8154 -1.0578  2.1994
  477TIP3    H2 1396   3.251   5.213   2.470 -1.2613  0.4334 -0.9948
  478TIP3   OH2 1397   6.178   5.419   2.224  0.2665 -0.1808 -0.2012
  478TIP3    H1 1398   6.105   5.373   2.265  1.0916 -0.9102  0.5023
  478TIP3    H2 1399   6.206   5.484   2.289  2.8558 -2.6508  1.3969
  479TIP3   OH2 1400   1.418   0.844   3.205  0.0215 -0.0704  0.5700
  479TIP3    H1 1401   1.442   0.754   3.225 -0.0838 -0.0245  0.8973
  479TIP3    H2 1402   1.353   0.868   3.272  0.8653  0.6228  1.1595
  480TIP3   OH2 1403   5.801   4.007   4.984  0.0171  0.3565 -0.3284
  480TIP3    H1 1404   5.769   4.028   4.897 -0.5765 -0.9557 -0.4559
  480TIP3    H2 1405   5.794   4.089   5.033  0.6102  1.1617 -1.5752
  481TIP3   OH2 1406   1.537   5.643   3.800 -0.0971  0.0117  0.0674
  481TIP3    H1 1407   1.494   5.700   3.863  1.9848  2.0774 -0.2417
  481TIP3    H2 1408   1.605   5.598   3.852 -1.1535 -1.6122  0.1237
  482TIP3   OH2 1409   2.883   4.940   1.972 -0.1655 -0.6194 -0.2418
  482TIP3    H1 1410   2.944   4.967   2.042 -0.7886  0.5608 -0.1367
  482TIP3    H2 1411   2.921   4.859   1.938  0.5764 -0.7933  0.9390
  483TIP3   OH2 1412   3.167   5.893   3.272 -0.6371  0.2979  0.2359
  483TIP3    H1 1413   3.202   5.851   3.351  0.1450  2.1402  0.9128
  483TIP3    H2 1414   3.230   5.870   3.204 -0.4216  0.0678  0.5075
  484TIP3   OH2 1415   0.514   0.569   2.711 -0.3808 -0.2404 -0.6373
  484TIP3    H1 1416   0.532   0.644   2.767 -0.8289 -2.1076  2.2150
  484TIP3    H2 1417   0.600   0.539   2.682 -0.1530  0.8547 -1.1392
  485TIP3   OH2 1418   3.001   0.968   4.248  0.1285 -0.4467  0.2049
  485TIP3    H1 1419   2.916   0.956   4.207  0.9469  0.3563 -1.8899
  485TIP3    H2 1420   3.054   0.895   4.217  0.6199 -0.1189  0.2499
  486TIP3   OH2 1421   6.680   3.881   2.513  0.5206  0.1001  0.2917
  486TIP3    H1 1422   6.752   3.916   2.567 -0.5399 -0.6687  2.3184
  486TIP3    H2 1423   6.715   3.799   2.479  0.8667  0.0861  0.6589
  487TIP3   OH2 1424   5.263   6.242   0.739 -0.1944 -0.2015  0.0134
  487TIP3    H1 1425   5.242   6.186   0.664 -0.2383  0.9243 -0.8483
  487TIP3    H2 1426   5.248   6.331   0.707 -1.2575  0.2707  1.7078
  488TIP3   OH2 1427   5.181   1.391   5.624 -0.1799  0.4035  0.2030
  488TIP3    H1 1428   5.102   1.366   5.671 -0.9943 -0.5880 -1.5972
  488TIP3    H2 1429   5.178   1.487   5.620 -0.3793  0.4767  1.5909
  489TIP3   OH2 1430   2.243   4.736   2.887 -0.5297  0.5280 -0.3390
  489TIP3    H1 1431   2.301   4.667   2.856 -0.8244  0.1265 -0.0043
  489TIP3    H2 1432   2.268   4.813   2.836  1.1008  0.6852  0.6249
  490TIP3   OH2 1433   6.479   2.891   1.153  0.1124  0.0835 -0.3019
  490TIP3    H1 1434   6.524   2.814   1.189  1.4017  1.3257  0.9028
  490TIP3    H2 1435   6.408   2.855   1.100  1.7914 -1.9749 -1.3187
  491TIP3   OH2 1436   1.014   2.447   0.709  0.6635 -0.3736  0.2889
  491TIP3    H1 1437   1.049   2.422   0.624 -0.4057  0.2360 -0.3524
  491TIP3    H2 1438   1.012   2.366   0.760 -0.9737 -1.2583 -1.0976
  492TIP3   OH2 1439   6.905   5.861   0.903  0.1165 -0.1711  0.2141
  492TIP3    H1 1440   6.903   5.854   0.808  1.6912  0.1952  0.1334
  492TIP3    H2 1441   6.996   5.846   0.927 -0.2704 -0.3334  1.6771
  493TIP3   OH2 1442   5.434   0.340   4.728  0.1383 -0.4105  0.6143
  493TIP3    H1 1443   5.473   0.259   4.761  1.0670 -0.6658 -0.9994
  493TIP3    H2 1444   5.507   0.401   4.719 -0.1257 -0.2291 -0.5501
  494TIP3   OH2 1445   4.500   3.191   5.692 -0.3277  0.8094 -0.1045
  494TIP3    H1 1446   4.437   3.223   5.627 -0.3268  1.8686  0.3942
  494TIP3    H2 1447   4.448   3.143   5.755 -0.5260  0.9915 -0.1293
  495TIP3   OH2 1448   4.610   1.671   4.433  0.0066 -0.0325 -0.0854
  495TIP3    H1 1449   4.691   1.695   4.388 -0.5425 -0.1712 -1.1685
  495TIP3    H2 1450   4.602   1.576   4.418 -0.5750  0.0557 -0.3640
  496TIP3   OH2 1451   4.009   1.496   2.174  0.4292  0.9287  0.0115
  496TIP3    H1 1452   3.956   1.460   2.103 -0.2732  1.2889  0.3390
  496TIP3    H2 1453   4.058   1.422   2.208  0.8954  0.7827 -0.9534
  497TIP3   OH2 1454   2.270   2.941   2.744  0.3065  0.4608 -0.2996
  497TIP3    H1 1455   2.275   2.860   2.794  0.7819 -1.1481 -2.7879
  497TIP3    H2 1456   2.210   2.921   2.672  2.4709  1.3755 -2.5038
  498TIP3   OH2 1457   1.567   2.267   5.543  0.2560  0.1024 -0.1102
  498TIP3    H1 1458   1.472   2.273   5.549  0.3550  1.1809  0.8440
  498TIP3    H2 1459   1.588   2.299   5.456 -0.2842 -0.7703 -0.5766
  499TIP3   OH2 1460   4.396   0.616   1.194 -0.0107 -0.1396  0.1420
  499TIP3    H1 1461   4.365   0.550   1.256  0.4314 -0.9766 -0.5171
  499TIP3    H2 1462   4.323   0.628   1.133 -0.1849  0.1717  0.4091
  500TIP3   OH2 1463   0.493   6.193   5.028 -0.3462  1.0984  0.2969
  500TIP3    H1 1464   0.556   6.121   5.030 -1.0317  0.4680 -0.1701
  500TIP3    H2 1465   0.409   6.152   5.048 -1.0979  1.3597 -1.9801
  501TIP3   OH2 1466   2.960   5.867   1.453 -0.2546  0.7271 -0.5727
  501TIP3    H1 1467   2.934   5.780   1.424  1.4214 -0.8671  2.2703
  501TIP3    H2 1468   2.898   5.888   1.523 -1.4790  2.5146 -2.0887
  502TIP3   OH2 1469   4.952   1.838   5.578 -0.0868 -0.3864  0.4224
  502TIP3    H1 1470   4.959   1.763   5.518 -1.5819 -1.5597  1.6442
  502TIP3    H2 1471   4.862   1.869   5.568 -0.0148  0.1228  1.2337
  503TIP3   OH2 1472   0.076   3.528   0.640 -0.0863  0.1618  0.0827
  503TIP3    H1 1473   0.052   3.439   0.612 -1.9319  0.2619  1.1860
  503TIP3    H2 1474   0.015   3.548   0.711  0.2799  2.3254 -0.1513
  504TIP3   OH2 1475   3.758   3.055   0.034  0.5792 -0.3773  0.0382
  504TIP3    H1 1476   3.679   3.056   0.087 -0.1328  2.5549 -0.8653
  504TIP3    H2 1477   3.828   3.081   0.094  0.0402  1.3697 -0.0189
  505TIP3   OH2 1478   6.936   4.861   3.726 -0.5531  0.4530  0.0347
  505TIP3    H1 1479   6.964   4.861   3.635 -2.0001  0.9253 -0.4363
  505TIP3    H2 1480   6.978   4.783   3.764 -0.4621 -0.1234 -1.2017
  506TIP3   OH2 1481   0.415   1.832   4.829 -0.0319 -0.5802 -0.3386
  506TIP3    H1 1482   0.431   1.799   4.918 -0.5551  0.7810  0.3011
  506TIP3    H2 1483   0.354   1.769   4.791 -0.4143 -0.7800  0.5620
  507TIP3   OH2 1484   6.874   4.263   3.884 -0.1009  0.0085 -0.3586
  507TIP3    H1 1485   6.828   4.199   3.939 -1.0407  0.3599 -0.7173
  507TIP3    H2 1486   6.967   4.242   3.895 -0.2990 -0.3022  0.9053
  508TIP3   OH2 1487   4.774   2.666   5.219  0.1707 -0.1847  0.3062
  508TIP3    H1 1488   4.747   2.757   5.232 -0.1698 -0.0578 -1.0806
  508TIP3    H2 1489   4.692   2.616   5.222  0.4711 -0.6387  2.2720
  509TIP3   OH2 1490   1.526   1.021   4.305  0.1229  0.1580  0.4419
  509TIP3    H1 1491   1.453   1.016   4.367 -0.0188 -0.0712  0.2578
  509TIP3    H2 1492   1.499   1.088   4.241 -0.3956 -0.6736 -0.2296
  510TIP3   OH2 1493   0.499   4.863   1.913  0.0468  0.5423 -0.1839
  510TIP3    H1 1494   0.553   4.859   1.834 -0.9869 -0.0024 -0.8849
  510TIP3    H2 1495   0.548   4.920   1.972  1.2950  0.2237 -0.8590
  511TIP3   OH2 1496   4.779   4.824   2.880 -0.3530  0.5021  0.6142
  511TIP3    H1 1497   4.782   4.856   2.790  0.5206 -0.0132  0.4473
  511TIP3    H2 1498   4.815   4.735   2.875  0.7292  0.8518  1.6294
  512TIP3   OH2 1499   5.274   4.964   2.625 -0.4509  0.0538  0.1446
  512TIP3    H1 1500   5.293   4.897   2.559 -2.2965  0.1591 -0.5379
  512TIP3    H2 1501   5.327   5.039   2.597  0.2698 -0.5197 -0.0866
  513TIP3   OH2 1502   6.059   5.901   4.005 -0.8974  0.2888 -0.4790
  513TIP3    H1 1503   5.986   5.862   4.053 -0.9422 -0.3590 -1.0517
  513TIP3    H2 1504   6.043   5.995   4.009 -0.5033  0.3271  1.3894
  514TIP3   OH2 1505   6.378   2.856   4.791  0.5211  0.4743 -0.0890
  514TIP3    H1 1506   6.360   2.851   4.697 -0.9812  1.2745  0.1298
  514TIP3    H2 1507   6.319   2.924   4.823 -0.0694 -0.8280  1.7076
  515TIP3   OH2 1508   6.427   4.668   2.025  0.0188 -0.2829  0.1417
  515TIP3    H1 1509   6.447   4.614   1.948 -0.7096  2.0086 -1.7891
  515TIP3    H2 1510   6.332   4.660   2.035  0.0534 -0.2084  0.5534
  516TIP3   OH2 1511   5.853   1.185   3.698 -0.0125  0.3099  0.6144
  516TIP3    H1 1512   5.891   1.270   3.677  0.5994 -0.0752  0.1291
  516TIP3    H2 1513   5.905   1.153   3.772  1.0985 -0.5257 -0.4948
  517TIP3   OH2 1514   1.733   2.537   1.116 -0.0911 -0.0713 -0.1988
  517TIP3    H1 1515   1.785   2.617   1.107  0.4988 -0.3506  0.6238
  517TIP3    H2 1516   1.643   2.568   1.123  0.1666  0.5570  0.4728
  518TIP3   OH2 1517   3.348   0.531   0.757 -0.0164  0.1413  0.5442
  518TIP3    H1 1518   3.437   0.533   0.792  1.0029 -1.0153 -1.7753
  518TIP3    H2 1519   3.309   0.452   0.794 -0.9046  1.6978  3.2067
  519TIP3   OH2 1520   6.257   4.759   3.119 -0.2641 -0.3761  0.1276
  519TIP3    H1 1521   6.291   4.674   3.148  1.1860  0.5182  1.1777
  519TIP3    H2 1522   6.255   4.753   3.024  3.8495 -0.2111 -0.1283
  520TIP3   OH2 1523   0.801   2.381   1.654  0.0844 -0.3118 -0.1714
  520TIP3    H1 1524   0.874   2.393   1.715  1.2685 -1.3721 -1.3235
  520TIP3    H2 1525   0.800   2.461   1.602  0.3443 -0.2457 -0.0780
  521TIP3   OH2 1526   6.501   5.151   1.407 -0.8985  0.0760  0.6394
  521TIP3    H1 1527   6.438   5.091   1.447 -1.7994  1.3314  1.1595
  521TIP3    H2 1528   6.454   5.190   1.334 -0.9846  1.5257  1.4379
  522TIP3   OH2 1529   6.681   4.907   3.571 -0.2231 -0.5170 -0.3233
  522TIP3    H1 1530   6.602   4.853   3.572 -1.7940  1.6032  2.1685
  522TIP3    H2 1531   6.740   4.864   3.633 -0.9846 -0.0742  0.7333
  523TIP3   OH2 1532   2.506   4.886   0.952  0.3798 -0.4244  0.4133
  523TIP3    H1 1533   2.468   4.823   0.891  0.7579 -0.4451  0.1976
  523TIP3    H2 1534   2.538   4.958   0.897 -0.3091  0.1014  0.6776
  524TIP3   OH2 1535   1.856   1.732   0.524  0.3706  0.7081  0.4962
  524TIP3    H1 1536   1.950   1.719   0.540  0.3232 -1.0345 -0.4561
  524TIP3    H2 1537   1.813   1.660   0.569 -0.4057  0.7136 -0.2085
  525TIP3   OH2 1538   3.138   5.425   5.435 -0.3753  0.2798 -0.6646
  525TIP3    H1 1539   3.083   5.387   5.366  0.6593  1.8861 -2.4850
  525TIP3    H2 1540   3.227   5.404   5.409  0.0319  0.7331  0.3290
  526TIP3   OH2 1541   4.316   3.394   5.806 -0.4385  0.0395  0.3526
  526TIP3    H1 1542   4.351   3.388   5.717 -0.4984  0.2780  0.3128
  526TIP3    H2 1543   4.221   3.397   5.794 -0.4334  0.3725  0.4102
  527TIP3   OH2 1544   6.546   0.572   1.848 -0.1557  0.0159 -0.2903
  527TIP3    H1 1545   6.496   0.595   1.770 -0.6527 -0.2231 -0.0415
  527TIP3    H2 1546   6.598   0.651   1.866 -0.6735  0.3825 -0.3633
  528TIP3   OH2 1547   6.448   1.797   1.863  0.5928  0.2776 -0.5896
  528TIP3    H1 1548   6.514   1.826   1.801  0.1831 -1.0483 -1.7207
  528TIP3    H2 1549   6.372   1.777   1.809 -0.6803  1.5163  0.6437
  529TIP3   OH2 1550   4.179   3.560   5.595  0.3136 -0.1992 -0.3569
  529TIP3    H1 1551   4.160   3.578   5.503  2.4661  0.8599 -0.6632
  529TIP3    H2 1552   4.100   3.588   5.641 -1.1874 -1.6212 -1.9048
  530TIP3   OH2 1553   4.438   6.304   5.919 -0.0563  0.1256 -0.4362
  530TIP3    H1 1554   4.381   6.305   5.842  0.5700 -0.3633 -0.9158
  530TIP3    H2 1555   4.497   6.378   5.907  2.0447 -1.6992 -1.9930
  531TIP3   OH2 1556  -0.008   3.985   3.755  0.2344 -0.0584  0.2784
  531TIP3    H1 1557  -0.055   3.903   3.743  0.2117 -0.2469  1.4861
  531TIP3    H2 1558   0.078   3.958   3.787  0.5924  0.3527 -0.3281
  532TIP3   OH2 1559   1.101   1.118   4.937 -0.2349 -0.1028  0.4038
  532TIP3    H1 1560   1.047   1.191   4.904 -0.4661 -0.6509 -0.4517
  532TIP3    H2 1561   1.175   1.114   4.876  0.3478  0.0972  1.0823
  533TIP3   OH2 1562   5.716   3.695   1.020  0.3205  0.2108  0.2685
  533TIP3    H1 1563   5.679   3.775   1.058  0.7849  0.9955 -0.8723
  533TIP3    H2 1564   5.640   3.649   0.985  0.1636  0.7128 -0.0646
  534TIP3   OH2 1565   5.782   4.898   3.184 -0.1172 -0.3045 -0.1952
  534TIP3    H1 1566   5.846   4.859   3.124 -0.8617 -0.4767 -0.8983
  534TIP3    H2 1567   5.829   4.908   3.267  0.5543 -1.2431 -0.4482
  535TIP3   OH2 1568   0.619   2.963   2.195  0.1686  0.2650 -0.4063
  535TIP3    H1 1569   0.660   2.962   2.108 -0.1959 -0.3904 -0.5780
  535TIP3    H2 1570   0.653   3.042   2.237  1.3328 -0.0797 -0.6694
  536TIP3   OH2 1571   0.705   6.522   3.554  0.2090  0.1141  0.1983
  536TIP3    H1 1572   0.767   6.481   3.616 -0.2283  0.0351  0.5934
  536TIP3    H2 1573   0.749   6.601   3.524  0.7547 -0.2594  0.0108
  537TIP3   OH2 1574   4.847   5.638   4.086  0.4459 -0.1289 -0.3786
  537TIP3    H1 1575   4.837   5.693   4.008  0.9553  0.1109 -0.2774
  537TIP3    H2 1576   4.767   5.585   4.088  0.2595  0.1265 -0.8553
  538TIP3   OH2 1577   5.942   0.686   4.196  0.5081  0.4858  0.3501
  538TIP3    H1 1578   5.997   0.732   4.132  0.5422 -0.0882 -0.0480
  538TIP3    H2 1579   5.853   0.711   4.173  0.5579  0.8140  0.5092
  539TIP3   OH2 1580   5.212   2.623   2.232  0.1546  0.2213 -0.4058
  539TIP3    H1 1581   5.176   2.700   2.189  0.2712  0.2882 -0.3824
  539TIP3    H2 1582   5.248   2.570   2.161  1.7566  1.0565 -0.2670
  540TIP3   OH2 1583   3.635   1.696   5.701  0.2711 -0.4915 -0.1707
  540TIP3    H1 1584   3.562   1.678   5.643 -0.1843  1.3773 -0.2423
  540TIP3    H2 1585   3.662   1.785   5.679  1.5263 -0.5573  0.9642
  541TIP3   OH2 1586   6.317   1.899   3.780  0.2733  0.1052 -0.1212
  541TIP3    H1 1587   6.390   1.841   3.801 -0.4731 -0.8395 -0.0250
  541TIP3    H2 1588   6.314   1.962   3.853  0.1438 -0.7108  0.5981
  542TIP3   OH2 1589   0.182   0.955   0.882  0.3201  0.3592 -0.1394
  542TIP3    H1 1590   0.267   0.921   0.854  0.3054  1.1162 -1.2105
  542TIP3    H2 1591   0.125   0.944   0.805 -0.2499  0.8437  0.1979
  543TIP3   OH2 1592   4.080   6.486   3.414  0.4126 -0.2558 -0.1678
  543TIP3    H1 1593   4.011   6.433   3.374 -0.5281  0.6669  0.1712
  543TIP3    H2 1594   4.041   6.573   3.422  0.9900 -0.1236  1.6737
  544TIP3   OH2 1595   5.037   5.988   4.070  0.1505  0.2115  0.3780
  544TIP3    H1 1596   4.943   6.007   4.064  0.2940  1.1657  0.9515
  544TIP3    H2 1597   5.069   6.047   4.138  1.1606 -0.1406  0.2212
  545TIP3   OH2 1598   0.205   3.843   1.340 -0.6746  0.5329  0.1798
  545TIP3    H1 1599   0.192   3.903   1.266  0.5517  0.1016 -0.4121
  545TIP3    H2 1600   0.295   3.858   1.368 -0.0227 -1.6012 -0.5522
  546TIP3   OH2 1601   6.765   1.729   2.513  0.2207  0.3527  0.0098
  546TIP3    H1 1602   6.671   1.732   2.528 -0.3180  0.5577 -2.8158
  546TIP3    H2 1603   6.798   1.811   2.549 -0.9086  0.8999 -0.1581
  547TIP3   OH2 1604   4.376   2.724   1.976 -0.1030 -0.2735 -0.1088
  547TIP3    H1 1605   4.356   2.817   1.978  2.1397  0.2856 -0.9328
  547TIP3    H2 1606   4.364   2.698   1.884 -0.1140 -0.6655 -0.0000
  548TIP3   OH2 1607   0.842   2.250   0.250 -0.3601  0.2415  0.3363
  548TIP3    H1 1608   0.762   2.301   0.263 -1.1283  0.0347 -2.9389
  548TIP3    H2 1609   0.816   2.177   0.195  1.9913 -0.1661 -0.3495
  549TIP3   OH2 1610   2.917   6.349   2.796  0.2699 -0.1948 -0.4838
  549TIP3    H1 1611   2.933   6.282   2.862  1.9793  1.4848  0.9154
  549TIP3    H2 1612   2.999   6.355   2.747  0.5664  1.5490  0.1262
  550TIP3   OH2 1613   1.144   3.284   4.743 -0.2754 -0.1192  0.0062
  550TIP3    H1 1614   1.100   3.273   4.827  0.4780  3.0004  0.9393
  550TIP3    H2 1615   1.076   3.263   4.678 -1.1746 -1.5916  1.3641
  551TIP3   OH2 1616   5.298   5.434   0.171 -0.0661  0.2871  0.2054
  551TIP3    H1 1617   5.363   5.499   0.144  0.4868  0.1509  1.1615
  551TIP3    H2 1618   5.347   5.351   0.174 -1.0498 -0.4824 -2.2985
  552TIP3   OH2 1619   1.443   2.804   5.042  0.2515 -0.3608  0.3475
  552TIP3    H1 1620   1.420   2.852   5.122  1.1678  0.0629  0.3642
  552TIP3    H2 1621   1.459   2.872   4.977  1.2383 -0.6315  0.2846
  553TIP3   OH2 1622   1.602   3.116   5.347  0.3363 -0.5627  0.6722
  553TIP3    H1 1623   1.568   3.041   5.396 -1.3430 -0.2020  0.1320
  553TIP3    H2 1624   1.611   3.186   5.412 -2.6970  0.1731  0.4360
  554TIP3   OH2 1625   2.654   5.907   5.680  0.2637 -0.0400  0.5245
  554TIP3    H1 1626   2.612   5.908   5.766  0.4779  0.1041  0.6301
  554TIP3    H2 1627   2.621   5.828   5.637  0.2874 -0.2040  0.8052
  555TIP3   OH2 1628   2.754   5.289   4.661 -0.0321 -0.1314  0.3519
  555TIP3    H1 1629   2.703   5.342   4.600  2.9667  0.5254 -1.7776
  555TIP3    H2 1630   2.742   5.199   4.630 -1.8997 -0.3358  1.5084
  556TIP3   OH2 1631   0.970   1.205   3.268 -0.3353  0.4773 -0.1028
  556TIP3    H1 1632   0.874   1.207   3.273 -0.3902 -0.9869 -0.3669
  556TIP3    H2 1633   0.990   1.125   3.220  0.9450  2.0988 -2.5248
  557TIP3   OH2 1634   1.190   1.215   4.026 -0.2481  0.1069  0.1730
  557TIP3    H1 1635   1.230   1.266   3.955 -0.1645  0.5396  0.5275
  557TIP3    H2 1636   1.126   1.274   4.065 -0.3462 -0.1573  0.4140
  558TIP3   OH2 1637   0.115   6.491   1.885 -0.3662 -0.0511 -0.3301
  558TIP3    H1 1638   0.176   6.557   1.916  0.1237  0.8791 -3.0341
  558TIP3    H2 1639   0.164   6.441   1.819 -2.1155 -0.0186 -1.7435
  559TIP3   OH2 1640   4.598   0.113   2.226 -0.0969 -0.2669 -0.6062
  559TIP3    H1 1641   4.513   0.077   2.251 -0.2221  1.5858  2.0537
  559TIP3    H2 1642   4.576   0.194   2.180  0.2291 -0.0665 -0.4083
  560TIP3   OH2 1643   1.705   2.808   0.607  0.2612  0.3297 -0.5898
  560TIP3    H1 1644   1.686   2.725   0.563  2.0117 -0.9233  0.8541
  560TIP3    H2 1645   1.632   2.865   0.585 -0.2699 -1.1190 -2.8096
  561TIP3   OH2 1646   0.143   2.906   2.829 -0.2681 -0.3931 -0.2207
  561TIP3    H1 1647   0.074   2.844   2.805  0.5748 -1.7589  0.7446
  561TIP3    H2 1648   0.196   2.859   2.894  1.7554  0.5102 -1.1408
  562TIP3   OH2 1649   0.477   1.400   4.588  0.3788  0.7352 -0.2068
  562TIP3    H1 1650   0.528   1.375   4.664 -2.7717  0.0541  1.8625
  562TIP3    H2 1651   0.413   1.329   4.577  1.0033  0.5304 -3.8902
  563TIP3   OH2 1652   6.162   5.234   1.839 -0.4481 -0.1343 -0.0736
  563TIP3    H1 1653   6.219   5.168   1.878  0.5634 -0.2327 -1.6030
  563TIP3    H2 1654   6.192   5.317   1.878 -0.2828 -0.3501  0.2674
  564TIP3   OH2 1655   5.728   4.602   2.753  0.1187  0.0015 -0.3720
  564TIP3    H1 1656   5.728   4.697   2.763  0.0508  0.0313 -0.6447
  564TIP3    H2 1657   5.645   4.573   2.789  0.1897  0.0322 -0.1808
  565TIP3   OH2 1658   0.139   3.908   4.657 -0.2873  0.0443 -0.3538
  565TIP3    H1 1659   0.089   3.837   4.698 -0.0338 -0.0098 -0.1396
  565TIP3    H2 1660   0.074   3.954   4.604 -0.3687 -0.5910 -0.8186
  566TIP3   OH2 1661   0.135   1.440   0.466 -0.5251  0.3555  0.0748
  566TIP3    H1 1662   0.117   1.346   0.467 -0.2934  0.2494 -1.7394
  566TIP3    H2 1663   0.058   1.479   0.424 -0.4804  0.9435  0.5268
  567TIP3   OH2 1664   2.068   0.304   1.617  0.1294  0.5981  0.0219
  567TIP3    H1 1665   2.149   0.281   1.572  0.0919  3.2972 -1.6359
  567TIP3    H2 1666   2.054   0.232   1.678  3.1584 -0.5206 -0.4050
  568TIP3   OH2 1667   3.038   4.804   0.800 -0.5029 -0.5566 -0.1351
  568TIP3    H1 1668   2.964   4.746   0.782 -0.5930  0.1359 -2.1901
  568TIP3    H2 1669   3.113   4.761   0.759  0.0761 -0.7534  1.0768
  569TIP3   OH2 1670   2.053   2.271   2.561  0.3925 -0.0970 -0.6420
  569TIP3    H1 1671   2.085   2.182   2.548 -0.0909 -0.1216 -1.8152
  569TIP3    H2 1672   2.121   2.313   2.614  0.6027 -1.1705 -0.0350
  570TIP3   OH2 1673   2.861   2.364   5.858 -0.0341 -0.7062 -0.5761
  570TIP3    H1 1674   2.798   2.334   5.923  0.4029 -0.3071  0.0403
  570TIP3    H2 1675   2.931   2.404   5.909  0.9383 -1.5353 -1.2322
  571TIP3   OH2 1676   3.862   6.681   3.458 -0.0247 -0.6655  0.2193
  571TIP3    H1 1677   3.869   6.756   3.399  1.4242 -0.7503  0.2403
  571TIP3    H2 1678   3.771   6.653   3.451 -0.4656  0.7993 -0.1444
  572TIP3   OH2 1679   1.608   1.943   0.390 -0.6114  0.1232 -0.1125
  572TIP3    H1 1680   1.525   1.979   0.420 -0.5180  0.6229 -0.4249
  572TIP3    H2 1681   1.654   1.917   0.470 -1.2378 -0.5386  0.0316
  573TIP3   OH2 1682   4.605   3.840   3.693  0.2497  0.5166 -0.2992
  573TIP3    H1 1683   4.659   3.795   3.758  0.8582  1.1452 -0.3547
  573TIP3    H2 1684   4.530   3.874   3.742  0.5259  0.6833  0.0091
  574TIP3   OH2 1685   0.810   5.429   5.204 -0.3896  0.0348  0.3747
  574TIP3    H1 1686   0.796   5.460   5.115 -0.4024  0.5689  0.5587
  574TIP3    H2 1687   0.743   5.362   5.217 -0.7026  0.3009  0.1466
  575TIP3   OH2 1688   0.995   2.790   0.569 -0.0004  0.0493  0.2441
  575TIP3    H1 1689   1.038   2.759   0.489  0.3094  0.4809  0.2333
  575TIP3    H2 1690   0.925   2.727   0.586  0.4260 -0.4817  0.0679
  576TIP3   OH2 1691   5.747   3.885   2.920  0.1113  0.4098  0.5147
  576TIP3    H1 1692   5.734   3.867   3.013 -1.6363  1.3949  0.4863
  576TIP3    H2 1693   5.719   3.975   2.908 -0.8927 -0.0752 -1.1816
  577TIP3   OH2 1694   2.765   3.044   3.424  0.3712  0.5704  1.0133
  577TIP3    H1 1695   2.722   2.966   3.388  3.0841 -0.8558  0.5877
  577TIP3    H2 1696   2.806   3.085   3.347  1.7483  0.5047  1.6874
  578TIP3   OH2 1697   6.070   3.924   2.320  0.2275 -0.2499 -0.1693
  578TIP3    H1 1698   6.026   3.989   2.375 -0.8253  0.0740 -1.3427
  578TIP3    H2 1699   6.077   3.847   2.375 -2.8851 -0.6970 -0.2325
  579TIP3   OH2 1700   6.316   2.595   3.665  0.4792  0.1731 -0.6030
  579TIP3    H1 1701   6.233   2.637   3.643  0.5552  0.8684  0.3509
  579TIP3    H2 1702   6.382   2.658   3.637  0.6425  0.1004 -0.3843
  580TIP3   OH2 1703   2.233   0.732   2.037 -0.4723 -0.1650 -0.1956
  580TIP3    H1 1704   2.223   0.813   2.087 -1.6844 -0.1134 -0.4891
  580TIP3    H2 1705   2.199   0.664   2.094 -0.6342 -0.2944 -0.4457
  581TIP3   OH2 1706   5.378   5.114   3.815  0.0452  0.0349 -1.0749
  581TIP3    H1 1707   5.431   5.141   3.740  0.9418 -0.0841 -0.5042
  581TIP3    H2 1708   5.397   5.020   3.824  1.8836  0.5248  0.7762
  582TIP3   OH2 1709   3.116   1.819   0.173  0.9036  0.1371  1.0610
  582TIP3    H1 1710   3.039   1.783   0.130  1.4657  0.3691 -0.2049
  582TIP3    H2 1711   3.163   1.742   0.206  0.0199  0.0123  2.0948
  583TIP3   OH2 1712   5.001   0.482   1.113  0.4563 -0.0549 -0.4492
  583TIP3    H1 1713   4.949   0.562   1.116 -0.1344 -0.4532  1.4528
  583TIP3    H2 1714   4.948   0.421   1.062  0.5411  0.5145 -1.2280
  584TIP3   OH2 1715   4.235   0.602   0.597 -0.0744  0.5575 -0.0545
  584TIP3    H1 1716   4.152   0.646   0.610 -0.6788 -0.3761 -0.6198
  584TIP3    H2 1717   4.274   0.596   0.684 -1.5662 -0.8299  0.5608
  585TIP3   OH2 1718   4.116   0.888   1.208  0.8613 -0.1935 -0.1391
  585TIP3    H1 1719   4.190   0.875   1.148  0.0634 -0.1614 -1.1427
  585TIP3    H2 1720   4.067   0.807   1.204  0.5176  0.0004  0.0891
  586TIP3   OH2 1721   0.654   4.150   4.296  0.6386  0.1388 -0.2929
  586TIP3    H1 1722   0.579   4.122   4.243 -0.4695  1.7825  0.3236
  586TIP3    H2 1723   0.678   4.072   4.347 -0.2397 -0.5927 -0.9612
  587TIP3   OH2 1724   5.607   2.580   4.244  0.4883  0.0576 -0.2963
  587TIP3    H1 1725   5.531   2.587   4.187 -0.0956  0.2297  0.4874
  587TIP3    H2 1726   5.571   2.562   4.331  1.3302  0.2532  0.1107
  588TIP3   OH2 1727   2.890   4.599   5.602  0.1197 -0.0683  0.0864
  588TIP3    H1 1728   2.945   4.525   5.578  1.9331  1.3906 -0.4249
  588TIP3    H2 1729   2.945   4.654   5.657  0.4225  3.0607 -2.9926
  589TIP3   OH2 1730   4.554   3.031   0.304  0.2353  0.0252  0.0480
  589TIP3    H1 1731   4.638   2.998   0.336  1.9960 -0.4692 -4.2766
  589TIP3    H2 1732   4.578   3.103   0.246 -2.1386 -0.8261 -2.2030
  590TIP3   OH2 1733   3.156   2.680   5.561  0.9850  0.2855 -0.4129
  590TIP3    H1 1734   3.126   2.726   5.638  3.0404  2.2573 -0.6689
  590TIP3    H2 1735   3.212   2.610   5.595 -0.0176 -0.3862 -0.0960
  591TIP3   OH2 1736   5.005   1.363   5.035  0.0713  0.3082 -0.0953
  591TIP3    H1 1737   5.069   1.434   5.036  0.9807 -0.4265 -1.5976
  591TIP3    H2 1738   5.057   1.284   5.024 -1.0162 -0.4504  0.0156
  592TIP3   OH2 1739   1.119   4.771   4.197  0.5227  0.7958 -0.5673
  592TIP3    H1 1740   1.171   4.695   4.170 -0.8771 -0.5118  0.2783
  592TIP3    H2 1741   1.138   4.781   4.290  0.4031  1.2640 -0.5894
  593TIP3   OH2 1742   0.471   3.600   1.291  0.2105  0.6060  0.6334
  593TIP3    H1 1743   0.548   3.566   1.336 -0.1091  0.7840  1.3279
  593TIP3    H2 1744   0.496   3.686   1.260  0.2590  0.7047  0.9480
  594TIP3   OH2 1745   6.836   4.437   5.316 -0.3377  0.1642  0.2661
  594TIP3    H1 1746   6.919   4.396   5.293 -0.1444  0.4954  0.3624
  594TIP3    H2 1747   6.782   4.426   5.238  0.6574  2.1754 -0.8039
  595TIP3   OH2 1748   5.179   6.226   4.261 -0.3302 -0.1809  0.1962
  595TIP3    H1 1749   5.168   6.304   4.316 -3.1438  0.0018 -0.4912
  595TIP3    H2 1750   5.236   6.255   4.190 -1.3882  1.3086 -0.0914
  596TIP3   OH2 1751   3.730   4.368   4.628  0.6574  0.1947 -0.3479
  596TIP3    H1 1752   3.774   4.447   4.659 -2.0113  0.8330  2.2841
  596TIP3    H2 1753   3.750   4.302   4.695 -0.5495 -0.1342 -0.2970
  597TIP3   OH2 1754   0.575   1.246   5.582  0.0678  0.2358 -0.1347
  597TIP3    H1 1755   0.627   1.172   5.613  0.3223  0.8068  0.8422
  597TIP3    H2 1756   0.624   1.280   5.506  2.0989  1.7991  1.7521
  598TIP3   OH2 1757   2.142   2.133   5.386  0.0002 -0.4109  0.1846
  598TIP3    H1 1758   2.157   2.044   5.355  1.3020 -0.0012 -0.4171
  598TIP3    H2 1759   2.074   2.167   5.329  0.0882 -0.7396 -0.1197
  599TIP3   OH2 1760   5.951   0.293   1.376  0.1471  0.6292  0.4721
  599TIP3    H1 1761   5.921   0.234   1.445 -0.3868  0.2104 -0.1109
  599TIP3    H2 1762   5.969   0.375   1.422  1.2072 -0.0616  1.3407
  600TIP3   OH2 1763   3.278   4.616   3.956 -0.8060 -0.0294  0.8362
  600TIP3    H1 1764   3.185   4.593   3.949 -1.2111  1.7872 -3.4957
  600TIP3    H2 1765   3.279   4.712   3.946  1.5306 -0.1200 -0.5590
  601TIP3   OH2 1766   0.303   5.998   5.133  0.0445  0.1025  0.4738
  601TIP3    H1 1767   0.301   5.967   5.223  0.5996 -3.0507 -0.4609
  601TIP3    H2 1768   0.273   5.923   5.081 -0.2532  1.7894 -1.9758
  602TIP3   OH2 1769   5.532   1.853   3.000  0.7581 -0.0896 -0.5830
  602TIP3    H1 1770   5.473   1.889   3.067 -0.1042 -1.0649 -0.8049
  602TIP3    H2 1771   5.617   1.892   3.021  0.3537  0.1960  0.6389
  603TIP3   OH2 1772   3.543   1.002   0.216 -0.8155 -0.0344 -0.2945
  603TIP3    H1 1773   3.609   1.034   0.154  2.0649 -1.5342  1.7905
  603TIP3    H2 1774   3.559   1.052   0.296 -1.2027 -1.4746  0.7099
  604TIP3   OH2 1775   2.650   0.108   0.981 -0.0680  0.0861 -0.0841
  604TIP3    H1 1776   2.664   0.122   0.887 -0.4832  0.5354 -0.0832
  604TIP3    H2 1777   2.726   0.149   1.023 -0.7141  1.3696 -0.1421
  605TIP3   OH2 1778   1.184   5.871   3.384  0.4682  0.0174  0.4141
  605TIP3    H1 1779   1.137   5.789   3.398 -0.4365  0.5115  0.4154
  605TIP3    H2 1780   1.114   5.935   3.365  1.2539  0.4217 -1.3232
  606TIP3   OH2 1781   0.758   6.151   3.427 -0.6163 -0.0266 -0.2268
  606TIP3    H1 1782   0.720   6.168   3.513 -0.8063  1.1606 -0.5252
  606TIP3    H2 1783   0.711   6.074   3.394  1.1874 -2.1150  1.7403
  607TIP3   OH2 1784   3.242   0.267   3.857 -0.2436  0.2174  0.1341
  607TIP3    H1 1785   3.199   0.318   3.926  1.2766  0.3902  1.0114
  607TIP3    H2 1786   3.313   0.324   3.827  0.8288 -0.9334  0.3838
  608TIP3   OH2 1787   0.217   2.012   0.888 -0.5994  0.5182  0.4056
  608TIP3    H1 1788   0.269   1.971   0.957  1.5259  1.3756 -0.6216
  608TIP3    H2 1789   0.176   1.939   0.842  2.0904 -0.4577 -0.6012
  609TIP3   OH2 1790   5.355   1.154   3.529 -0.8768 -0.1911  0.8319
  609TIP3    H1 1791   5.317   1.080   3.480 -1.5142  0.9068 -0.3855
  609TIP3    H2 1792   5.358   1.225   3.466  2.9587 -0.0672  0.9315
  610TIP3   OH2 1793   2.910   2.118   4.137 -0.2402  0.3080  0.0410
  610TIP3    H1 1794   2.968   2.102   4.212 -0.9056  1.6278  0.8864
  610TIP3    H2 1795   2.886   2.210   4.145  0.5996  0.8038 -2.5070
  611TIP3   OH2 1796   5.118   4.419   5.587  0.1955 -0.0066 -1.0774
  611TIP3    H1 1797   5.034   4.373   5.582  0.3067 -0.1876 -1.3609
  611TIP3    H2 1798   5.166   4.373   5.657 -0.1780  0.5042 -0.4754
  612TIP3   OH2 1799   1.435   6.483   3.022 -0.0647  0.3517  0.5407
  612TIP3    H1 1800   1.401   6.553   3.077  0.6370  0.8753  0.3243
  612TIP3    H2 1801   1.384   6.488   2.941  0.4507  1.0773  0.2506
  613TIP3   OH2 1802   4.126   5.944   4.410 -0.6209 -0.0488 -0.0038
  613TIP3    H1 1803   4.195   5.920   4.472  0.1659  1.2607 -0.3321
  613TIP3    H2 1804   4.141   5.887   4.334 -0.3453 -0.2618  0.2090
  614TIP3   OH2 1805   7.037   2.199   3.419 -0.3726 -0.5971 -0.4689
  614TIP3    H1 1806   6.979   2.254   3.367 -0.2074  0.4268  0.3947
  614TIP3    H2 1807   6.979   2.152   3.479 -0.3592  0.1250  0.1218
  615TIP3   OH2 1808   0.409   0.096   2.181  0.2260 -0.2035 -0.3968
  615TIP3    H1 1809   0.441   0.040   2.251  1.0946  0.3059 -0.3723
  615TIP3    H2 1810   0.484   0.107   2.122 -0.0010  0.7204 -0.5289
  616TIP3   OH2 1811   5.058   5.723   2.306  0.1578  0.3191 -0.2159
  616TIP3    H1 1812   5.106   5.695   2.228  2.3574 -1.9056  1.7479
  616TIP3    H2 1813   4.967   5.700   2.288  0.7511 -1.0747 -1.7526
  617TIP3   OH2 1814   1.821   5.691   4.603 -0.1308 -0.0468 -0.1394
  617TIP3    H1 1815   1.761   5.686   4.528  0.5226  1.1216 -0.7871
  617TIP3    H2 1816   1.769   5.733   4.672 -0.1906  0.6492 -0.5880
  618TIP3   OH2 1817   3.694   0.568   3.127  0.5289 -0.3504  0.5340
  618TIP3    H1 1818   3.771   0.512   3.126  0.1338 -0.9138 -0.8986
  618TIP3    H2 1819   3.642   0.537   3.201  0.4352 -1.7305 -0.0836
  619TIP3   OH2 1820   5.269   5.975   2.241  0.2909 -0.4230 -0.0763
  619TIP3    H1 1821   5.177   5.949   2.251  0.6854 -1.8336  0.1204
  619TIP3    H2 1822   5.271   6.025   2.159 -0.8004  0.4616  0.4030
  620TIP3   OH2 1823   5.409   5.192   2.587 -0.2740  0.8718 -0.0753
  620TIP3    H1 1824   5.386   5.284   2.599  1.6881  1.5339 -0.9064
  620TIP3    H2 1825   5.486   5.180   2.642 -0.1871 -0.1207 -0.4056
  621TIP3   OH2 1826   2.418   4.486   5.236 -0.2275 -0.4725  0.1094
  621TIP3    H1 1827   2.468   4.423   5.184 -0.3266 -1.3709  1.0729
  621TIP3    H2 1828   2.481   4.555   5.258  0.3734 -1.1614  0.5787
  622TIP3   OH2 1829   2.372   6.658   4.275 -0.1498 -0.2012 -0.2645
  622TIP3    H1 1830   2.414   6.594   4.332  1.0457  1.7766  1.1628
  622TIP3    H2 1831   2.318   6.711   4.333  2.3989  2.9660 -0.4854
  623TIP3   OH2 1832   3.220   3.091   4.532 -0.1303  0.2255 -0.6754
  623TIP3    H1 1833   3.251   3.005   4.503 -0.7242 -1.1594  2.3612
  623TIP3    H2 1834   3.295   3.130   4.576 -0.8241 -0.3943  1.1505
  624TIP3   OH2 1835   6.955   6.098   2.195  0.3623  0.0839 -0.0148
  624TIP3    H1 1836   6.952   6.100   2.290  1.5176  0.6760  0.0309
  624TIP3    H2 1837   6.922   6.011   2.172 -0.9134  0.3230  0.8573
  625TIP3   OH2 1838   5.926   0.543   0.431  0.3569  0.0435 -0.8176
  625TIP3    H1 1839   5.856   0.489   0.396  0.5879 -1.1096  0.4471
  625TIP3    H2 1840   5.912   0.544   0.526  1.2520  0.9392 -0.6673
  626TIP3   OH2 1841  -0.024   0.726   4.468 -0.6657  0.3810 -0.3536
  626TIP3    H1 1842   0.029   0.669   4.524 -1.0114  0.6633  0.2658
  626TIP3    H2 1843   0.040   0.771   4.413 -0.2461  0.7669  0.4355
  627TIP3   OH2 1844   6.464   3.430   2.972 -0.5806  0.4518 -0.2447
  627TIP3    H1 1845   6.469   3.517   2.932  0.3299  1.0112  1.0186
  627TIP3    H2 1846   6.398   3.384   2.920 -1.7771  2.2039 -0.3618
  628TIP3   OH2 1847   5.116   0.088   3.382  0.1847 -0.0340  0.4511
  628TIP3    H1 1848   5.187   0.029   3.359 -0.3214 -0.3671 -0.2727
  628TIP3    H2 1849   5.144   0.129   3.464  2.5167  1.9758 -1.2244
  629TIP3   OH2 1850   6.582   0.849   1.032 -0.0163  0.2829 -0.3257
  629TIP3    H1 1851   6.524   0.794   1.085 -0.7045 -1.2477 -2.4981
  629TIP3    H2 1852   6.670   0.816   1.050  0.0604  1.4474  1.6695
  630TIP3   OH2 1853   2.733   4.232   0.301 -0.2754  0.3134 -0.1010
  630TIP3    H1 1854   2.786   4.310   0.316 -0.1035  0.0018  1.0299
  630TIP3    H2 1855   2.642   4.262   0.309 -0.2175  0.4734 -0.0554
  631TIP3   OH2 1856   7.012   4.468   1.502  0.3028 -0.3587 -0.1851
  631TIP3    H1 1857   6.950   4.395   1.499 -0.8016  0.5559 -0.4269
  631TIP3    H2 1858   7.006   4.507   1.415  0.3112  0.4755  0.1830
  632TIP3   OH2 1859   3.657   4.953   1.542 -0.1526 -0.0946 -0.3968
  632TIP3    H1 1860   3.737   4.941   1.491 -0.5421  0.5826 -1.1869
  632TIP3    H2 1861   3.586   4.939   1.479 -0.6521  2.7257 -0.5715
  633TIP3   OH2 1862   1.415   4.588   2.312  0.1212  0.4831  0.0357
  633TIP3    H1 1863   1.332   4.564   2.270 -0.0111  1.8007 -0.5104
  633TIP3    H2 1864   1.395   4.587   2.406  0.0032 -0.9798  0.0284
  634TIP3   OH2 1865   5.701   0.613   3.724  0.6299  0.1270  0.1515
  634TIP3    H1 1866   5.660   0.629   3.809 -0.9505  0.7930 -0.6975
  634TIP3    H2 1867   5.704   0.518   3.716  1.4320  0.0417  1.2271
  635TIP3   OH2 1868   3.152   5.026   0.206  0.2727 -0.3251  0.7207
  635TIP3    H1 1869   3.108   4.969   0.143 -0.3074 -1.7179  2.2848
  635TIP3    H2 1870   3.170   5.107   0.158 -0.9639 -0.9802 -0.9368
  636TIP3   OH2 1871   2.565   0.378   5.623  0.4944 -0.1305  0.4131
  636TIP3    H1 1872   2.499   0.444   5.604  1.5294  0.7387 -0.2813
  636TIP3    H2 1873   2.585   0.389   5.716 -0.4069 -0.5009  0.6695
  637TIP3   OH2 1874   0.952   5.372   1.994 -0.1348 -0.6854 -0.4664
  637TIP3    H1 1875   0.874   5.424   1.974 -1.4897 -1.4789  2.2953
  637TIP3    H2 1876   1.025   5.433   1.982 -1.4681  1.1116  0.1257
  638TIP3   OH2 1877   6.674   2.372   5.070  0.1932 -0.2258  0.2160
  638TIP3    H1 1878   6.684   2.467   5.079  0.7908 -0.2647 -0.0162
  638TIP3    H2 1879   6.759   2.336   5.095 -0.4198 -0.7941  1.5743
  639TIP3   OH2 1880   5.080   1.899   4.752 -0.7644  0.2078 -0.3797
  639TIP3    H1 1881   5.066   1.863   4.840  0.0887  1.8240  0.4724
  639TIP3    H2 1882   5.174   1.916   4.749 -1.2212  3.2511 -0.3122
  640TIP3   OH2 1883   2.452   4.676   3.440  0.2141 -0.2756 -0.1592
  640TIP3    H1 1884   2.377   4.638   3.395 -0.6013  1.2177 -0.1086
  640TIP3    H2 1885   2.477   4.751   3.387  0.2930  0.5230  0.9778
  641TIP3   OH2 1886   3.638   5.906   4.667 -0.3787  0.4322  0.6194
  641TIP3    H1 1887   3.599   5.879   4.584  0.1476  0.2727  0.4202
  641TIP3    H2 1888   3.729   5.927   4.646 -0.4484  1.1801  1.0047
  642TIP3   OH2 1889   6.932   1.699   4.254 -0.6191 -0.4830 -0.1202
  642TIP3    H1 1890   6.964   1.748   4.330  0.2992 -1.3176  0.0500
  642TIP3    H2 1891   6.837   1.705   4.260 -0.5370  0.5199  0.3862
  643TIP3   OH2 1892   2.449   5.203   4.136  0.0942  0.0811  0.0622
  643TIP3    H1 1893   2.403   5.129   4.097  0.1620 -0.1070  0.3362
  643TIP3    H2 1894   2.441   5.273   4.072 -0.0216 -0.1464 -0.1722
  644TIP3   OH2 1895   4.522   4.615   2.459 -0.0584 -0.3918 -0.1638
  644TIP3    H1 1896   4.460   4.611   2.531  1.2746 -1.1090  0.9895
  644TIP3    H2 1897   4.569   4.698   2.472 -0.2828 -0.1895 -0.6192
  645TIP3   OH2 1898   4.346   2.238   5.533  0.0973 -0.0067 -0.3752
  645TIP3    H1 1899   4.378   2.155   5.497  0.8119  0.2970 -0.4632
  645TIP3    H2 1900   4.305   2.214   5.616  3.4892 -0.0781  1.4443
  646TIP3   OH2 1901   0.014   0.808   1.038  0.0422 -0.1005  0.1123
  646TIP3    H1 1902  -0.036   0.772   0.964 -1.6513 -0.1769  1.2396
  646TIP3    H2 1903   0.085   0.857   0.997 -0.5380 -0.5696 -1.5545
  647TIP3   OH2 1904   0.211   1.769   2.589 -0.3868 -0.1817  0.8180
  647TIP3    H1 1905   0.155   1.846   2.601  1.4508  1.3604 -0.0843
  647TIP3    H2 1906   0.300   1.804   2.585  0.3099 -1.9265 -2.8519
  648TIP3   OH2 1907   2.358   4.621   0.486 -0.0381 -0.4346 -0.0236
  648TIP3    H1 1908   2.410   4.630   0.406 -0.3769  1.8015 -0.0580
  648TIP3    H2 1909   2.269   4.606   0.456  0.3371 -3.4671  0.0345
  649TIP3   OH2 1910   4.075   1.145   0.863 -0.2150  0.4945  0.6154
  649TIP3    H1 1911   4.128   1.194   0.925  0.4322 -0.5238  0.8960
  649TIP3    H2 1912   4.052   1.209   0.795  0.6560  1.1576  0.9317
  650TIP3   OH2 1913   4.711   0.500   0.102 -0.2768 -0.4638 -0.2351
  650TIP3    H1 1914   4.805   0.485   0.105 -0.0615  0.7217 -0.2962
  650TIP3    H2 1915   4.674   0.443   0.169  0.6706  0.2411  0.9269
  651TIP3   OH2 1916   2.665   1.010   5.863 -0.6440 -0.2394 -0.2289
  651TIP3    H1 1917   2.707   1.087   5.902 -0.9200 -0.5970  0.8169
  651TIP3    H2 1918   2.731   0.974   5.805  0.7417 -1.0587  1.7373
  652TIP3   OH2 1919   3.539   6.016   3.319  0.1115 -1.0442 -0.1829
  652TIP3    H1 1920   3.525   5.991   3.410  1.8659 -1.5294 -0.0128
  652TIP3    H2 1921   3.524   5.936   3.269  0.2272 -1.0517 -0.2060
  653TIP3   OH2 1922   6.942   0.307   4.814  0.8165 -0.4466  0.1824
  653TIP3    H1 1923   7.017   0.282   4.760  0.2097 -0.8303 -0.4984
  653TIP3    H2 1924   6.902   0.380   4.767  0.8756 -0.1069  0.6517
  654TIP3   OH2 1925   7.033   4.733   4.819  0.4947 -0.3516 -0.7375
  654TIP3    H1 1926   7.005   4.791   4.749  0.3688  2.3916  1.4232
  654TIP3    H2 1927   6.952   4.701   4.858  0.5251 -0.1750 -0.5279
  655TIP3   OH2 1928   4.707   0.887   5.145 -0.0702  0.0733 -0.0117
  655TIP3    H1 1929   4.643   0.823   5.113  0.1871 -0.5920  0.7716
  655TIP3    H2 1930   4.784   0.873   5.091  0.6682 -1.6460  1.4050
  656TIP3   OH2 1931   2.360   2.919   1.075  0.3165  0.5212 -0.0455
  656TIP3    H1 1932   2.275   2.919   1.120 -0.7025  1.0486 -1.8835
  656TIP3    H2 1933   2.418   2.873   1.136 -0.7719  1.8610  2.1446
  657TIP3   OH2 1934   6.251   5.613   3.312  0.7704  0.0319 -0.2000
  657TIP3    H1 1935   6.245   5.653   3.399  1.3731 -1.7961  0.7382
  657TIP3    H2 1936   6.214   5.679   3.253 -2.2534  0.2812  1.7362
  658TIP3   OH2 1937   4.722   3.600   2.224  0.0221  0.4106  0.3791
  658TIP3    H1 1938   4.680   3.545   2.290  1.0967 -0.5085  0.3200
  658TIP3    H2 1939   4.791   3.545   2.187  0.3997  1.4230 -0.4696
  659TIP3   OH2 1940   4.862   0.168   5.751  0.0873  0.4133  0.4918
  659TIP3    H1 1941   4.805   0.190   5.825  0.5408 -0.3733  1.0918
  659TIP3    H2 1942   4.807   0.180   5.674 -0.2458  1.7595  0.9115
  660TIP3   OH2 1943   5.439   3.736   0.287 -0.0506  0.0203 -0.2235
  660TIP3    H1 1944   5.439   3.798   0.360 -2.8935  1.0561 -0.9836
  660TIP3    H2 1945   5.522   3.689   0.296  2.0113  3.4816  0.7368
  661TIP3   OH2 1946   5.575   6.502   1.435 -0.3388  0.9454 -0.1273
  661TIP3    H1 1947   5.622   6.495   1.518  0.1447 -1.2629 -0.5135
  661TIP3    H2 1948   5.622   6.570   1.386  2.3841 -0.9592 -0.3795
  662TIP3   OH2 1949   6.220   5.411   3.609  0.1908 -0.2031  0.3067
  662TIP3    H1 1950   6.304   5.421   3.564 -1.4083  1.8078 -2.5734
  662TIP3    H2 1951   6.188   5.501   3.620 -1.4044 -0.8910  1.7308
  663TIP3   OH2 1952   7.161   6.704   3.126 -0.0063 -0.1485 -0.7826
  663TIP3    H1 1953   7.210   6.622   3.126 -1.9859 -1.3946 -0.9706
  663TIP3    H2 1954   7.139   6.719   3.218 -1.2984 -0.8985 -0.9528
  664TIP3   OH2 1955   5.649   0.257   4.406  0.1518  0.2135  0.1036
  664TIP3    H1 1956   5.723   0.201   4.427 -0.6911 -1.0388 -0.1583
  664TIP3    H2 1957   5.576   0.220   4.456 -0.6762  0.3802 -0.9404
  665TIP3   OH2 1958   4.655   5.553   2.759  0.1428 -0.1332  0.1945
  665TIP3    H1 1959   4.600   5.505   2.821  0.6456  1.5960  2.0834
  665TIP3    H2 1960   4.599   5.622   2.725  0.8954  1.2814  1.6910
  666TIP3   OH2 1961   7.047   2.824   0.409 -0.1125  0.1783  0.1096
  666TIP3    H1 1962   6.982   2.889   0.434 -0.5156 -0.2573  0.2033
  666TIP3    H2 1963   7.000   2.741   0.409  0.5289 -0.1958  0.5372
  667TIP3   OH2 1964   0.955   5.135   2.650  0.3974 -0.3780  0.3031
  667TIP3    H1 1965   1.021   5.190   2.692  0.1433 -0.3860  0.7124
  667TIP3    H2 1966   0.874   5.153   2.698  0.6246 -2.2802  1.4987
  668TIP3   OH2 1967   2.404   4.050   1.573 -0.0787  0.0613  0.5723
  668TIP3    H1 1968   2.423   3.993   1.648  0.6495 -0.2765  0.1378
  668TIP3    H2 1969   2.408   3.992   1.497 -0.0503  0.5556  0.1947
  669TIP3   OH2 1970   4.211   4.901   2.531 -0.2637  0.6956  0.6461
  669TIP3    H1 1971   4.233   4.841   2.459 -3.4302  0.0930  0.0111
  669TIP3    H2 1972   4.249   4.985   2.505 -0.0084  0.1234 -0.9863
  670TIP3   OH2 1973   4.578   0.966   4.700  0.6033  0.3601  0.5771
  670TIP3    H1 1974   4.565   1.060   4.684 -3.8094  0.0079  0.8451
  670TIP3    H2 1975   4.547   0.924   4.620  0.3883 -0.9177  1.3118
  671TIP3   OH2 1976   5.753   5.634   5.853  0.0467  0.2264 -0.1545
  671TIP3    H1 1977   5.844   5.659   5.838  0.3757  0.1932  1.5542
  671TIP3    H2 1978   5.747   5.620   5.947 -1.5170 -0.6468 -0.3393
  672TIP3   OH2 1979   4.612   4.436   0.770 -0.1295  0.6435 -0.2735
  672TIP3    H1 1980   4.706   4.453   0.777  0.0014  0.2464 -0.9548
  672TIP3    H2 1981   4.579   4.504   0.711 -0.2286  0.6469 -0.2147
  673TIP3   OH2 1982   2.617   4.933   1.733 -0.0593 -0.5098 -0.0362
  673TIP3    H1 1983   2.698   4.908   1.690 -0.2207 -0.1399 -0.5649
  673TIP3    H2 1984   2.595   5.019   1.695  0.6408  0.6089  1.9524
  674TIP3   OH2 1985   4.195   5.733   4.245  0.2701 -0.0130  0.0466
  674TIP3    H1 1986   4.139   5.699   4.315  0.9513  1.1785  1.2395
  674TIP3    H2 1987   4.258   5.663   4.229  0.4114 -0.1277  1.0087
  675TIP3   OH2 1988   1.951   0.543   1.627 -0.1878 -0.1186  0.0969
  675TIP3    H1 1989   1.885   0.523   1.693  1.1317 -0.3321  1.3936
  675TIP3    H2 1990   1.994   0.460   1.610 -0.5531 -0.0828 -1.1188
  676TIP3   OH2 1991   4.604   2.654   3.873 -0.3771  0.1954  0.6436
  676TIP3    H1 1992   4.543   2.726   3.890 -0.4889 -0.1974  2.0014
  676TIP3    H2 1993   4.549   2.585   3.835 -0.3136  0.7059 -0.4259
  677TIP3   OH2 1994   0.943   1.860   5.254  0.8283 -0.5604 -0.1851
  677TIP3    H1 1995   0.912   1.885   5.341 -0.3945 -0.7530 -0.5486
  677TIP3    H2 1996   1.035   1.835   5.267  1.3104  1.4458  0.6720
  678TIP3   OH2 1997   5.900   4.832   0.582 -0.8412 -0.9381 -0.0838
  678TIP3    H1 1998   5.902   4.777   0.504  0.7383 -0.0540 -0.7381
  678TIP3    H2 1999   5.816   4.877   0.579 -0.0586  0.5888 -2.4576
  679TIP3   OH2 2000   1.751   1.982   5.640 -0.1913 -0.2913  0.3921
  679TIP3    H1 2001   1.720   2.062   5.681 -2.2529 -0.4034 -0.8026
  679TIP3    H2 2002   1.760   1.920   5.712  1.8984  1.0668  1.4032
  680TIP3   OH2 2003   6.313   3.388   2.689 -0.3750 -0.5093  0.1188
  680TIP3    H1 2004   6.303   3.328   2.764 -2.4194 -1.6348 -0.9738
  680TIP3    H2 2005   6.319   3.330   2.613  0.8195  0.6418 -0.7187
  681TIP3   OH2 2006   4.732   3.061   2.673  0.0548  0.0771 -0.4681
  681TIP3    H1 2007   4.800   3.128   2.678 -1.7108  1.9213  0.0365
  681TIP3    H2 2008   4.689   3.063   2.758 -0.4009 -1.3571 -0.6239
  682TIP3   OH2 2009   2.782   3.918   5.199 -0.3522  0.3067 -0.2784
  682TIP3    H1 2010   2.710   3.913   5.137  0.5170 -1.1170 -1.2136
  682TIP3    H2 2011   2.760   3.854   5.267  0.1085 -0.2771 -0.6701
  683TIP3   OH2 2012   6.017   1.239   0.031 -0.2311  0.3340 -0.2543
  683TIP3    H1 2013   6.060   1.204   0.109 -0.1070  0.1588 -0.3983
  683TIP3    H2 2014   5.928   1.260   0.059 -0.8624 -1.6923 -0.5548
  684TIP3   OH2 2015   3.946   0.962   0.112 -0.5763 -0.3687 -0.0181
  684TIP3    H1 2016   3.865   0.960   0.061 -0.3370 -0.2619 -0.4079
  684TIP3    H2 2017   4.016   0.964   0.046 -0.2881  2.5846  0.2277
  685TIP3   OH2 2018   1.448   5.779   3.011  0.6315 -0.0665  0.0974
  685TIP3    H1 2019   1.460   5.740   2.925  1.7614 -1.9983  1.0855
  685TIP3    H2 2020   1.434   5.705   3.070 -0.3224  1.2208  1.5760
  686TIP3   OH2 2021   4.961   3.703   3.691  0.3828 -0.6606  0.0998
  686TIP3    H1 2022   4.915   3.679   3.611 -1.3961 -1.7058  1.3597
  686TIP3    H2 2023   4.985   3.620   3.732  1.6690 -0.1450  0.4454
  687TIP3   OH2 2024   0.824   4.629   0.578 -0.4082  0.3127 -0.0245
  687TIP3    H1 2025   0.755   4.576   0.618  1.1857 -2.3270 -0.5140
  687TIP3    H2 2026   0.802   4.633   0.485 -0.4823  0.4393 -0.0017
  688TIP3   OH2 2027   1.354   4.533   0.563 -0.4624  0.1081  0.1303
  688TIP3    H1 2028   1.292   4.597   0.596 -0.0628 -0.1727  1.4917
  688TIP3    H2 2029   1.440   4.569   0.585 -0.1541  0.1625 -1.1100
  689TIP3   OH2 2030   0.393   6.027   2.320  0.3206 -0.0630 -0.7102
  689TIP3    H1 2031   0.357   6.115   2.328 -2.1674 -0.9594 -0.9908
  689TIP3    H2 2032   0.431   6.008   2.406  1.0866  1.3428 -0.7237
  690TIP3   OH2 2033   3.136   4.863   3.748  0.2839  0.7610  0.1958
  690TIP3    H1 2034   3.220   4.885   3.788 -0.4278  1.0614  1.6145
  690TIP3    H2 2035   3.075   4.926   3.785 -0.6296  0.3472 -0.5652
  691TIP3   OH2 2036   6.568   0.807   5.395  0.1879  0.2744 -0.7648
  691TIP3    H1 2037   6.496   0.761   5.439 -0.3835  2.0255  0.2487
  691TIP3    H2 2038   6.527   0.853   5.322  0.5811 -0.0464 -1.1948
  692TIP3   OH2 2039   3.388   2.447   0.737 -0.5339  0.3921  0.0176
  692TIP3    H1 2040   3.389   2.488   0.823  0.2045 -0.1857  0.3030
  692TIP3    H2 2041   3.315   2.384   0.741  1.0756 -1.5302  1.1893
  693TIP3   OH2 2042   6.938   2.629   1.948 -0.4174 -0.3302 -0.3766
  693TIP3    H1 2043   6.855   2.674   1.933 -0.2113 -0.0162 -0.5854
  693TIP3    H2 2044   6.913   2.543   1.980 -0.8112  0.3529  1.2706
  694TIP3   OH2 2045   3.067   5.205   5.839  0.4758  0.0436 -0.5106
  694TIP3    H1 2046   3.150   5.162   5.856 -0.0947 -0.2275  1.9174
  694TIP3    H2 2047   3.092   5.294   5.811  1.6337  0.5245  1.7808
  695TIP3   OH2 2048   3.298   0.087   2.643 -0.0077 -0.8228 -0.3684
  695TIP3    H1 2049   3.372   0.061   2.698  0.9004  1.7303 -0.2409
  695TIP3    H2 2050   3.225   0.098   2.704  0.1867 -0.9359 -0.1157
  696TIP3   OH2 2051   0.387   6.723   0.081  0.2142  0.1591  0.3452
  696TIP3    H1 2052   0.382   6.642   0.132  0.4544 -0.1394 -0.0929
  696TIP3    H2 2053   0.461   6.770   0.117  2.1485 -1.2983 -1.4461
  697TIP3   OH2 2054   2.639   6.274   1.839  0.1279 -0.1619 -0.4529
  697TIP3    H1 2055   2.729   6.259   1.808  0.2011 -0.7888  0.0392
  697TIP3    H2 2056   2.593   6.193   1.818  0.3443 -0.8933  1.6124
  698TIP3   OH2 2057   3.105   5.534   0.860 -0.0666  0.0502 -0.1534
  698TIP3    H1 2058   3.015   5.510   0.840 -0.1813 -0.2450  0.6843
  698TIP3    H2 2059   3.111   5.627   0.838 -0.9212  0.3798  0.9505
  699TIP3   OH2 2060   4.998   6.626   3.024 -0.6396  0.0636 -0.4552
  699TIP3    H1 2061   4.994   6.533   3.048 -1.6776  0.1515 -0.2372
  699TIP3    H2 2062   5.092   6.646   3.019 -0.4004 -1.0864 -0.8738
  700TIP3   OH2 2063   6.545   2.563   4.704 -0.6334  0.7058 -0.3887
  700TIP3    H1 2064   6.596   2.639   4.734  1.1869 -0.9215  0.8694
  700TIP3    H2 2065   6.487   2.599   4.638  1.2618  2.9371 -0.9982
  701TIP3   OH2 2066   5.811   1.157   2.460 -0.5011 -0.5651  0.8234
  701TIP3    H1 2067   5.754   1.131   2.388 -1.0662 -0.3808  1.1886
  701TIP3    H2 2068   5.838   1.246   2.438  0.9303 -1.2050 -0.1198
  702TIP3   OH2 2069   3.241   3.662   3.261  0.1627 -0.0490 -0.4453
  702TIP3    H1 2070   3.184   3.589   3.284  1.6156 -0.6929  1.3934
  702TIP3    H2 2071   3.330   3.629   3.278  0.8922  1.9818 -0.0134
  703TIP3   OH2 2072   0.460   2.874   0.921 -0.1846  0.6008  0.4859
  703TIP3    H1 2073   0.368   2.847   0.925 -0.1873  0.5897  0.3572
  703TIP3    H2 2074   0.505   2.797   0.885 -0.1748  0.7280  0.2252
  704TIP3   OH2 2075   5.597   4.193   1.298  0.2756 -0.0382 -0.2719
  704TIP3    H1 2076   5.525   4.147   1.256  0.9577 -2.5898  1.1237
  704TIP3    H2 2077   5.623   4.136   1.371  1.3876  2.4937  1.4769
  705TIP3   OH2 2078   3.870   3.393   4.619  0.7558  0.1748  0.0336
  705TIP3    H1 2079   3.803   3.444   4.573 -1.7890 -2.6891  0.2123
  705TIP3    H2 2080   3.909   3.339   4.550 -1.8856 -2.8920  0.6890
  706TIP3   OH2 2081   2.120   3.533   4.691  0.6325  0.6703  0.2902
  706TIP3    H1 2082   2.180   3.483   4.747  0.8972 -3.3489 -3.1045
  706TIP3    H2 2083   2.037   3.486   4.697  0.7111 -0.0166 -2.5834
  707TIP3   OH2 2084   6.146   1.298   4.289 -0.4521  0.6596 -0.1819
  707TIP3    H1 2085   6.111   1.217   4.254 -1.3110  0.8396  0.2243
  707TIP3    H2 2086   6.085   1.322   4.360  0.6396  0.8483  0.7225
  708TIP3   OH2 2087   5.984   2.191   0.518 -0.2991  0.3154 -0.7870
  708TIP3    H1 2088   6.008   2.177   0.426 -2.1005 -0.4133 -1.1840
  708TIP3    H2 2089   5.990   2.104   0.558 -2.4095  0.0411 -0.9748
  709TIP3   OH2 2090   5.830   3.248   2.828  0.2919 -0.4801  0.3245
  709TIP3    H1 2091   5.772   3.205   2.765 -3.2789  0.5759  2.6194
  709TIP3    H2 2092   5.864   3.324   2.781 -0.1761 -1.1087 -1.0926
  710TIP3   OH2 2093   1.911   3.776   1.353 -0.0288 -0.0417  0.3305
  710TIP3    H1 2094   1.821   3.806   1.341  0.0782  0.2630  0.2665
  710TIP3    H2 2095   1.965   3.845   1.313  0.3767  1.4089  3.1358
  711TIP3   OH2 2096   6.072   6.281   2.594  1.1281  0.5173 -0.1912
  711TIP3    H1 2097   6.138   6.231   2.642  2.5766 -0.3689 -2.9258
  711TIP3    H2 2098   6.118   6.361   2.567  0.2318  1.1705  0.1533
  712TIP3   OH2 2099   4.497   5.261   2.279  0.3009  0.3170 -0.0766
  712TIP3    H1 2100   4.590   5.260   2.302  0.3142  1.0011 -0.0759
  712TIP3    H2 2101   4.481   5.349   2.245 -0.3647  0.2322 -0.0084
  713TIP3   OH2 2102   0.688   4.724   4.587 -0.4031  0.0061  0.0784
  713TIP3    H1 2103   0.739   4.648   4.559 -0.6223 -0.2973  0.4816
  713TIP3    H2 2104   0.626   4.739   4.516 -1.0445 -0.8430  0.4354
  714TIP3   OH2 2105   2.169   1.508   2.355  0.4121  0.0480  0.4715
  714TIP3    H1 2106   2.081   1.496   2.391  0.4318  0.7405  0.7613
  714TIP3    H2 2107   2.202   1.419   2.341 -1.2448 -0.2876 -1.9118
  715TIP3   OH2 2108   5.765   5.786   1.581 -0.0710  0.2203 -0.1507
  715TIP3    H1 2109   5.675   5.758   1.602  0.4892 -0.2726  1.8088
  715TIP3    H2 2110   5.755   5.875   1.548 -1.2611  0.3010  0.3535
  716TIP3   OH2 2111   6.230   6.705   1.091  0.0624  0.1328 -0.4217
  716TIP3    H1 2112   6.199   6.644   1.024  0.5211 -1.2629  0.5794
  716TIP3    H2 2113   6.312   6.666   1.123  0.2387  1.1425  0.4210
  717TIP3   OH2 2114   2.626   3.240   5.628  0.1830 -0.2706  0.2409
  717TIP3    H1 2115   2.674   3.167   5.590 -0.0170 -0.9516  1.2721
  717TIP3    H2 2116   2.581   3.281   5.554  0.3124 -1.1786 -0.3428
  718TIP3   OH2 2117   0.883   5.572   2.776  0.1167  0.1159 -0.7873
  718TIP3    H1 2118   0.932   5.491   2.764 -1.0509 -0.6609 -0.4888
  718TIP3    H2 2119   0.799   5.555   2.734  0.3033  1.6521 -1.8662
  719TIP3   OH2 2120   4.805   1.423   0.336  0.5497 -0.4034  0.5336
  719TIP3    H1 2121   4.821   1.398   0.427  0.8543 -1.6815  0.1601
  719TIP3    H2 2122   4.720   1.382   0.315  0.3247  0.1575  0.3371
  720TIP3   OH2 2123   2.485   0.160   3.077  0.3525 -0.0612 -0.2870
  720TIP3    H1 2124   2.453   0.166   3.167 -1.1196  0.1147 -0.7933
  720TIP3    H2 2125   2.477   0.067   3.055 -0.4727  0.0874 -0.6367
  721TIP3   OH2 2126   6.681   2.762   1.911 -0.8029  0.2175 -0.7234
  721TIP3    H1 2127   6.666   2.757   2.005 -1.5223  1.0329 -0.7812
  721TIP3    H2 2128   6.598   2.795   1.875 -0.2894  0.6524 -1.5466
  722TIP3   OH2 2129   2.914   3.630   0.131 -0.9029 -0.2808 -0.0511
  722TIP3    H1 2130   2.831   3.670   0.105 -0.8117  1.9436  2.5483
  722TIP3    H2 2131   2.975   3.654   0.062 -1.5730  1.6116 -0.0552
  723TIP3   OH2 2132   6.943   4.649   3.405  0.1074  0.9704 -0.4394
  723TIP3    H1 2133   6.862   4.629   3.452 -0.0278  2.4513  0.0178
  723TIP3    H2 2134   7.003   4.578   3.427 -0.3181  1.0607  1.0705
  724TIP3   OH2 2135   5.578   5.013   0.816  0.2246  0.2951  0.6130
  724TIP3    H1 2136   5.621   5.094   0.788  1.6908 -0.4806  0.5071
  724TIP3    H2 2137   5.587   5.012   0.911 -0.7785  0.7738  0.7225
  725TIP3   OH2 2138   1.940   0.476   2.714 -0.1524  0.4793  0.2064
  725TIP3    H1 2139   2.008   0.412   2.735 -0.9430 -0.5600 -0.3217
  725TIP3    H2 2140   1.984   0.561   2.723  0.5667 -0.0416  2.1975
  726TIP3   OH2 2141   0.531   2.246   1.958 -0.0236 -0.7867  0.0151
  726TIP3    H1 2142   0.445   2.233   1.998 -0.0148 -0.3798  0.1790
  726TIP3    H2 2143   0.581   2.294   2.025  0.3904 -1.1841 -0.0049
  727TIP3   OH2 2144   2.983   3.934   2.643 -0.1936 -0.2921  0.0872
  727TIP3    H1 2145   2.990   4.020   2.685 -2.9545 -0.3492  0.8337
  727TIP3    H2 2146   3.051   3.881   2.685  0.4863  1.0600  0.7581
  728TIP3   OH2 2147   3.385   5.915   0.491  0.0633  0.6582  0.6609
  728TIP3    H1 2148   3.370   5.998   0.444  1.0399  1.2029  1.2847
  728TIP3    H2 2149   3.304   5.866   0.477 -0.2835  1.4466 -0.2729
  729TIP3   OH2 2150   5.276   6.450   2.149 -0.1438  0.3120  0.0370
  729TIP3    H1 2151   5.261   6.450   2.243 -0.5035  0.1042 -0.0143
  729TIP3    H2 2152   5.234   6.530   2.118  1.3506  1.2150  0.2411
  730TIP3   OH2 2153   6.666   6.522   4.509 -0.1533 -0.3828 -0.2997
  730TIP3    H1 2154   6.627   6.500   4.594  0.1517 -0.3330 -0.1471
  730TIP3    H2 2155   6.624   6.605   4.486 -0.3730 -0.4883 -0.2864
  731TIP3   OH2 2156   4.451   3.973   3.886  0.0790  0.6159 -0.3559
  731TIP3    H1 2157   4.500   3.959   3.967  0.4472 -0.1935 -0.7096
  731TIP3    H2 2158   4.365   3.934   3.903 -0.2242  1.4215  0.0204
  732TIP3   OH2 2159   7.052   1.541   1.031 -0.2039  0.1002  0.1683
  732TIP3    H1 2160   7.063   1.610   1.096 -0.6768  0.8212 -0.5022
  732TIP3    H2 2161   7.133   1.543   0.979  0.5980 -1.1237  1.3085
  733TIP3   OH2 2162   0.206   6.027   2.580 -0.1480  0.2866  0.5306
  733TIP3    H1 2163   0.299   6.015   2.562 -0.0055 -0.1692  1.5161
  733TIP3    H2 2164   0.203   6.102   2.640 -0.4255  0.3797  0.4005
  734TIP3   OH2 2165   3.555   1.954   3.321  0.1794 -0.1334  0.3780
  734TIP3    H1 2166   3.579   1.864   3.297 -0.0336  0.1399 -0.9310
  734TIP3    H2 2167   3.501   1.944   3.400 -1.4948 -1.3407 -0.8406
  735TIP3   OH2 2168   1.000   3.810   2.672  0.1861 -0.2886  0.2698
  735TIP3    H1 2169   1.069   3.850   2.725 -0.8958  0.5118  1.1172
  735TIP3    H2 2170   1.022   3.717   2.671 -0.2050 -0.4903  2.8990
  736TIP3   OH2 2171   2.162   4.634   1.448 -0.3525  0.5567 -0.1751
  736TIP3    H1 2172   2.210   4.672   1.374 -0.3292 -0.3974 -0.6627
  736TIP3    H2 2173   2.079   4.682   1.449 -0.6825  0.0546 -1.3325
  737TIP3   OH2 2174   0.624   4.165   2.655 -0.1853  0.3339  0.2481
  737TIP3    H1 2175   0.709   4.201   2.627 -0.6619  0.9377 -0.4532
  737TIP3    H2 2176   0.645   4.077   2.686  1.1436  1.4651  2.8308
  738TIP3   OH2 2177   1.625   5.947   3.667  0.8465 -0.2588 -0.0652
  738TIP3    H1 2178   1.644   5.893   3.744  1.9553 -0.5642 -0.5332
  738TIP3    H2 2179   1.545   5.909   3.630  0.4931 -0.3249  0.7273
  739TIP3   OH2 2180   3.383   4.095   4.473  0.9908 -0.3148  0.0272
  739TIP3    H1 2181   3.422   4.167   4.424  1.0208  0.7349  1.5162
  739TIP3    H2 2182   3.356   4.031   4.406  0.7612  1.1675 -1.3464
  740TIP3   OH2 2183   3.376   3.943   3.178 -0.6984 -0.2087 -0.3284
  740TIP3    H1 2184   3.354   4.013   3.116  2.8210  0.1365 -1.3670
  740TIP3    H2 2185   3.339   3.864   3.138  1.0813  0.0765 -2.7603
  741TIP3   OH2 2186   3.239   3.225   1.814  0.2808  0.1766 -0.4186
  741TIP3    H1 2187   3.152   3.227   1.853 -1.0494  0.5798 -3.1713
  741TIP3    H2 2188   3.249   3.135   1.783  0.8554  0.1402 -0.1388
  742TIP3   OH2 2189   2.304   4.978   3.524 -0.2687  0.2146  0.3774
  742TIP3    H1 2190   2.339   5.032   3.595  0.9152 -1.2645  1.0058
  742TIP3    H2 2191   2.210   4.975   3.540 -0.3099  1.7380  0.5392
  743TIP3   OH2 2192   6.357   2.590   4.425  0.0726  0.1607  0.4797
  743TIP3    H1 2193   6.400   2.659   4.374  0.0280 -0.1486  0.0202
  743TIP3    H2 2194   6.285   2.561   4.370 -0.3683  0.2650  0.9944
  744TIP3   OH2 2195   1.521   2.283   0.279 -0.1179 -0.2641 -0.4946
  744TIP3    H1 2196   1.544   2.294   0.187  0.1962  0.3979 -0.3435
  744TIP3    H2 2197   1.462   2.356   0.297  0.3664  0.0055  0.0059
  745TIP3   OH2 2198   3.135   2.515   3.982 -0.3114  0.5472  0.1152
  745TIP3    H1 2199   3.212   2.554   3.941  0.2296 -0.4025  0.1889
  745TIP3    H2 2200   3.094   2.464   3.912 -0.3153  0.2618  0.3203
  746TIP3   OH2 2201   4.004   1.986   0.951  0.3157 -0.6512  0.0767
  746TIP3    H1 2202   4.079   2.044   0.962  0.5505 -0.5921 -1.6330
  746TIP3    H2 2203   4.008   1.957   0.860 -2.7469  0.7939 -0.6431
  747TIP3   OH2 2204   4.385   4.831   3.634  0.2316  0.4459 -0.3501
  747TIP3    H1 2205   4.451   4.890   3.669 -0.1712  0.0962  1.0934
  747TIP3    H2 2206   4.321   4.822   3.705 -0.1366 -1.0633 -0.8231
  748TIP3   OH2 2207   3.140   1.710   5.859  1.1164 -0.1997  0.6587
  748TIP3    H1 2208   3.176   1.632   5.901 -0.3387 -0.7950  0.8446
  748TIP3    H2 2209   3.084   1.677   5.789 -0.6519  0.5766  1.6273
  749TIP3   OH2 2210   5.478   4.749   4.038  0.2122 -0.3294  0.0627
  749TIP3    H1 2211   5.478   4.793   3.954  1.6387 -2.1897 -0.9787
  749TIP3    H2 2212   5.426   4.670   4.024  1.8246 -1.5050  0.3826
  750TIP3   OH2 2213   1.300   2.096   3.928 -0.3887 -0.8075  0.2090
  750TIP3    H1 2214   1.283   2.132   4.016 -0.0222 -1.3083  0.4900
  750TIP3    H2 2215   1.362   2.025   3.943 -0.6386 -1.1608 -0.4184
  751TIP3   OH2 2216   7.045   1.433   4.308  0.0038  0.1821 -0.0153
  751TIP3    H1 2217   7.020   1.360   4.252 -1.3545  0.8075 -0.2674
  751TIP3    H2 2218   7.012   1.511   4.263 -0.4028  0.7727  1.2487
  752TIP3   OH2 2219   3.212   4.554   1.086 -0.0562 -0.3984  0.3607
  752TIP3    H1 2220   3.239   4.632   1.134 -0.3049 -0.4854  0.6469
  752TIP3    H2 2221   3.117   4.552   1.095 -0.1042 -0.4081 -0.1506
  753TIP3   OH2 2222   2.750   4.544   3.550 -0.7797 -0.4678 -0.2051
  753TIP3    H1 2223   2.739   4.463   3.600  2.0321 -1.4537 -0.9910
  753TIP3    H2 2224   2.701   4.528   3.469 -1.8893 -0.5357  0.4540
  754TIP3   OH2 2225   2.236   5.935   2.020 -0.2346  0.0307 -0.7136
  754TIP3    H1 2226   2.283   6.018   2.013  1.1980 -0.8680 -2.6480
  754TIP3    H2 2227   2.145   5.957   2.002 -0.2675  1.4757  0.9741
  755TIP3   OH2 2228   5.207   5.322   1.171 -0.2384 -0.3387 -0.0903
  755TIP3    H1 2229   5.260   5.361   1.101 -1.4985 -1.5490 -1.8090
  755TIP3    H2 2230   5.257   5.245   1.199 -0.3897 -0.6542 -0.6772
  756TIP3   OH2 2231   5.204   3.504   5.364  0.5817 -0.5148 -0.1349
  756TIP3    H1 2232   5.277   3.495   5.426  0.3092 -4.2806 -0.1220
  756TIP3    H2 2233   5.152   3.575   5.399  2.7201  0.3719  1.4849
  757TIP3   OH2 2234   0.422   4.975   5.060  0.4727 -0.5172  0.1004
  757TIP3    H1 2235   0.454   4.920   5.132 -1.0729  0.5686  1.6956
  757TIP3    H2 2236   0.385   5.052   5.103 -0.0223  0.4355 -1.9114
  758TIP3   OH2 2237   3.629   6.644   0.165 -0.1160  0.0484 -0.3896
  758TIP3    H1 2238   3.591   6.716   0.115  0.9717  2.0674  1.5742
  758TIP3    H2 2239   3.717   6.633   0.129  0.5435  1.2749  0.7804
  759TIP3   OH2 2240   1.457   6.629   1.233 -0.0339  0.0731 -0.0336
  759TIP3    H1 2241   1.382   6.654   1.179 -0.8265 -1.9740  0.0600
  759TIP3    H2 2242   1.440   6.669   1.319  0.0232  1.2882 -0.5684
  760TIP3   OH2 2243   4.833   0.768   4.465 -0.3468 -0.1453  0.7057
  760TIP3    H1 2244   4.753   0.720   4.487 -0.7741  1.0098  1.7690
  760TIP3    H2 2245   4.801   0.852   4.432  0.4375  0.3656  1.2413
  761TIP3   OH2 2246   6.316   1.629   3.551 -0.1274  0.4303 -1.0697
  761TIP3    H1 2247   6.355   1.542   3.564  0.4251  0.9652  1.5621
  761TIP3    H2 2248   6.384   1.690   3.581 -1.3688  1.6296 -0.5904
  762TIP3   OH2 2249   1.934   5.877   0.636  0.0673  0.1217  0.1227
  762TIP3    H1 2250   1.970   5.936   0.570 -0.1860 -0.1553 -0.2649
  762TIP3    H2 2251   1.946   5.924   0.719  2.1009 -0.3368  0.1286
  763TIP3   OH2 2252   6.096   3.197   3.229 -0.4904  0.0301 -0.2412
  763TIP3    H1 2253   6.040   3.162   3.160  0.1952 -2.3591  0.3025
  763TIP3    H2 2254   6.152   3.260   3.185  0.7121 -2.2346 -2.2002
  764TIP3   OH2 2255   5.053   3.550   4.630  0.6391  0.3268  0.3536
  764TIP3    H1 2256   5.096   3.564   4.714  1.1931 -0.0235  0.1338
  764TIP3    H2 2257   5.125   3.539   4.568  0.2601  2.4029 -0.5008
  765TIP3   OH2 2258   4.922   3.427   2.146 -0.1746 -0.1279  0.0522
  765TIP3    H1 2259   4.990   3.432   2.214 -0.7698  1.1940  0.5636
  765TIP3    H2 2260   4.896   3.334   2.146  0.9777 -0.4689  0.4854
  766TIP3   OH2 2261   6.626   2.360   4.481  0.6037 -0.5788 -0.4303
  766TIP3    H1 2262   6.640   2.401   4.566 -0.1830 -1.0345 -0.0794
  766TIP3    H2 2263   6.629   2.266   4.498  0.3429 -0.6750 -0.8906
  767TIP3   OH2 2264   5.014   2.068   3.779 -0.6971  0.2153  0.1698
  767TIP3    H1 2265   5.090   2.091   3.726 -0.9071 -0.3057 -0.3664
  767TIP3    H2 2266   5.036   1.984   3.819 -0.7856  0.3100  0.4217
  768TIP3   OH2 2267   4.359   5.924   3.563 -0.5105  0.0159 -0.5727
  768TIP3    H1 2268   4.452   5.949   3.564 -0.4800 -0.0299 -1.3043
  768TIP3    H2 2269   4.320   5.980   3.496 -0.4387 -1.8319 -2.2617
  769TIP3   OH2 2270   2.533   3.772   3.090 -0.1772 -0.8916 -0.0209
  769TIP3    H1 2271   2.529   3.707   3.020  1.6681  0.4818 -1.5166
  769TIP3    H2 2272   2.622   3.764   3.124 -0.4072 -0.1578  0.7685
  770TIP3   OH2 2273   2.877   4.145   4.124  0.2425  0.6727  0.0174
  770TIP3    H1 2274   2.851   4.180   4.039  2.3949  0.7234 -0.6892
  770TIP3    H2 2275   2.867   4.050   4.115 -1.4801  0.7923  0.4436
  771TIP3   OH2 2276   4.368   5.234   5.021 -0.3480 -0.2650 -0.0732
  771TIP3    H1 2277   4.448   5.183   5.009 -0.4840 -0.2459 -1.1435
  771TIP3    H2 2278   4.375   5.306   4.958  0.2770  1.6286  2.0071
  772TIP3   OH2 2279   3.903   2.485   5.138 -0.2978 -0.1864 -0.2032
  772TIP3    H1 2280   3.948   2.413   5.182 -1.4522 -0.6798  0.2102
  772TIP3    H2 2281   3.900   2.458   5.046 -0.2578 -0.4207 -0.1369
  773TIP3   OH2 2282   5.818   0.275   5.275 -0.0511  0.4869  0.0508
  773TIP3    H1 2283   5.882   0.237   5.335 -0.6595 -0.2182  0.2638
  773TIP3    H2 2284   5.733   0.243   5.306 -0.7143  2.8509  0.8795
  774TIP3   OH2 2285   7.206   3.721   4.261 -0.4586  0.1921 -0.5434
  774TIP3    H1 2286   7.166   3.688   4.341  1.2485 -0.8709 -0.0760
  774TIP3    H2 2287   7.160   3.803   4.243 -0.6103  0.6751  1.7508
  775TIP3   OH2 2288   4.470   1.805   2.559  0.2054  0.4522  0.7206
  775TIP3    H1 2289   4.532   1.847   2.500 -0.3166  0.6275  0.2885
  775TIP3    H2 2290   4.522   1.778   2.635  0.8121  0.5516  0.3391
  776TIP3   OH2 2291   1.168   2.499   3.333  0.2396 -0.0341 -0.2579
  776TIP3    H1 2292   1.127   2.467   3.252  0.7425 -1.0946 -0.1073
  776TIP3    H2 2293   1.262   2.501   3.313  0.1751  2.4872 -0.6424
  777TIP3   OH2 2294   4.750   4.904   5.885  0.2019  0.5667  0.5687
  777TIP3    H1 2295   4.842   4.907   5.859 -0.3073  0.6397 -1.4752
  777TIP3    H2 2296   4.725   4.996   5.895  0.5778  0.5214  2.1739
  778TIP3   OH2 2297   0.266   4.456   2.508  0.4208  0.3273  0.3581
  778TIP3    H1 2298   0.173   4.437   2.512  0.3087  0.2584 -1.5255
  778TIP3    H2 2299   0.309   4.370   2.508  0.4358  0.3349  0.4869
  779TIP3   OH2 2300   1.035   3.287   5.305 -0.4277  0.4027 -0.4189
  779TIP3    H1 2301   0.961   3.240   5.345 -0.4821  0.7236 -0.1368
  779TIP3    H2 2302   1.092   3.308   5.379 -0.4036  0.7796 -0.5412
  780TIP3   OH2 2303   2.848   5.957   4.166 -0.2995 -0.4337 -0.9813
  780TIP3    H1 2304   2.861   5.921   4.079  0.8878  1.0767 -1.4810
  780TIP3    H2 2305   2.936   5.972   4.199 -0.7243 -1.0833  0.5539
  781TIP3   OH2 2306   0.869   4.820   3.213 -0.4235 -0.1280 -0.2523
  781TIP3    H1 2307   0.930   4.746   3.209  1.0545  1.0651 -3.2692
  781TIP3    H2 2308   0.783   4.780   3.201  0.4409 -1.3878 -3.4721
  782TIP3   OH2 2309   4.727   1.793   2.330 -0.0465 -0.3125  0.0393
  782TIP3    H1 2310   4.773   1.867   2.369 -0.1834  0.9212 -2.0129
  782TIP3    H2 2311   4.684   1.829   2.253 -1.8046 -2.1160  0.0808
  783TIP3   OH2 2312   2.812   1.003   1.828 -0.2970 -0.2087  0.1422
  783TIP3    H1 2313   2.771   0.931   1.876 -0.9085 -0.0690 -0.1483
  783TIP3    H2 2314   2.751   1.076   1.839 -0.6794 -0.2912 -1.1837
  784TIP3   OH2 2315   0.610   4.235   3.508 -0.2934 -0.2193  0.1585
  784TIP3    H1 2316   0.639   4.191   3.588 -2.4785 -0.3976  0.9353
  784TIP3    H2 2317   0.555   4.171   3.464 -0.8824  0.6179 -0.3545
  785TIP3   OH2 2318   3.180   1.276   3.354  0.6234 -0.1237 -0.1937
  785TIP3    H1 2319   3.216   1.257   3.267  0.0447  0.1029 -0.4851
  785TIP3    H2 2320   3.257   1.289   3.410  1.0015  0.5086 -0.8459
  786TIP3   OH2 2321   3.909   1.183   5.134 -0.2378  0.6909 -0.3237
  786TIP3    H1 2322   3.938   1.249   5.072  0.0696  0.0234 -0.9030
  786TIP3    H2 2323   3.872   1.113   5.081  0.8717 -0.3109  0.1535
  787TIP3   OH2 2324   0.880   6.649   2.847  0.3263 -0.0054  0.6048
  787TIP3    H1 2325   0.935   6.725   2.866 -0.5473  0.7353  0.2623
  787TIP3    H2 2326   0.862   6.611   2.933 -0.7168  1.2557  0.9836
  788TIP3   OH2 2327   3.931   0.648   2.175  0.1070 -0.1546  0.5413
  788TIP3    H1 2328   3.841   0.665   2.202  0.5345  1.2550  1.1923
  788TIP3    H2 2329   3.923   0.602   2.092 -1.1995  0.2953  0.3944
  789TIP3   OH2 2330   4.128   0.671   4.161 -0.0931 -0.4108  0.4415
  789TIP3    H1 2331   4.039   0.702   4.144 -0.4326 -0.9853  1.1297
  789TIP3    H2 2332   4.177   0.695   4.082 -1.3859 -2.1705 -0.9695
  790TIP3   OH2 2333   5.104   2.834   2.624  0.0116 -0.1044 -0.5724
  790TIP3    H1 2334   5.191   2.868   2.642 -0.5313  1.2935 -0.4422
  790TIP3    H2 2335   5.095   2.758   2.682  0.9311  0.0594 -0.1984
  791TIP3   OH2 2336   6.774   1.968   5.213 -0.3281 -0.0254 -0.3468
  791TIP3    H1 2337   6.729   1.949   5.296 -0.9378  0.8758 -0.4592
  791TIP3    H2 2338   6.730   1.912   5.149 -0.3475 -0.1812 -0.1993
  792TIP3   OH2 2339   2.985   2.997   0.059  0.1334  0.7503  0.3833
  792TIP3    H1 2340   2.922   2.957   0.119  2.6095  0.6494  3.1155
  792TIP3    H2 2341   3.039   2.924   0.029  0.7392  1.1885  0.3876
  793TIP3   OH2 2342   2.320   4.118   0.208 -0.1275 -0.1549  0.2709
  793TIP3    H1 2343   2.254   4.150   0.147  3.3549  1.0106 -3.2491
  793TIP3    H2 2344   2.341   4.030   0.177  1.0371  0.0909  0.3197
  794TIP3   OH2 2345   3.864   2.488   1.431 -0.0492  0.2014  0.0878
  794TIP3    H1 2346   3.803   2.542   1.381 -0.3732 -0.4680 -0.2434
  794TIP3    H2 2347   3.823   2.402   1.434  1.2636 -0.4817 -0.8498
  795TIP3   OH2 2348   6.320   0.160   2.126 -0.2846  0.1780 -0.2849
  795TIP3    H1 2349   6.310   0.230   2.061  0.5332  1.0612  0.5025
  795TIP3    H2 2350   6.244   0.170   2.183 -0.6073 -0.1131 -0.6644
  796TIP3   OH2 2351   3.144   5.204   1.959  0.2293 -0.3154  0.1810
  796TIP3    H1 2352   3.220   5.259   1.941 -0.4337  0.9700  1.1744
  796TIP3    H2 2353   3.073   5.242   1.906  0.0300 -0.8893  0.0262
  797TIP3   OH2 2354   0.046   1.566   2.753 -0.0467 -0.2794  0.0656
  797TIP3    H1 2355   0.091   1.559   2.669 -2.2457 -3.6567 -1.0273
  797TIP3    H2 2356  -0.021   1.633   2.739 -0.7393 -1.1861 -1.1063
  798TIP3   OH2 2357   3.943   1.017   1.726 -0.7579 -0.6178 -0.6220
  798TIP3    H1 2358   3.945   0.953   1.654  2.7963 -1.2489 -0.1251
  798TIP3    H2 2359   3.993   0.975   1.796 -0.2544  1.8220  0.5523
  799TIP3   OH2 2360   5.245   2.760   4.358  0.0472  0.0602 -0.7965
  799TIP3    H1 2361   5.252   2.737   4.451  0.2175  2.7235 -0.0710
  799TIP3    H2 2362   5.319   2.820   4.343 -0.1309 -0.1203 -2.5997
  800TIP3   OH2 2363   1.424   5.688   5.297  0.1673 -0.3889  0.5025
  800TIP3    H1 2364   1.347   5.710   5.350  0.5695  2.7949  0.0011
  800TIP3    H2 2365   1.495   5.741   5.334  0.8576  0.7058 -2.0884
  801TIP3   OH2 2366   1.711   4.979   4.406  0.2405 -0.0138  0.0532
  801TIP3    H1 2367   1.733   4.919   4.478  0.6169 -1.2894 -1.0914
  801TIP3    H2 2368   1.659   5.047   4.448  0.5152 -0.6744  1.5573
  802TIP3   OH2 2369   3.395   4.427   1.712 -0.1116  0.2581 -0.2440
  802TIP3    H1 2370   3.340   4.444   1.635  0.7855  0.4471 -0.8557
  802TIP3    H2 2371   3.456   4.501   1.714  0.5401 -0.2813  0.0364
  803TIP3   OH2 2372   6.856   2.217   2.847  0.1990 -0.5745  0.3520
  803TIP3    H1 2373   6.779   2.244   2.897  0.2103 -0.3385  0.2401
  803TIP3    H2 2374   6.923   2.202   2.914  0.1610 -0.4348  0.4222
  804TIP3   OH2 2375   1.066   3.038   2.084  0.1176 -0.2248 -0.6089
  804TIP3    H1 2376   1.162   3.042   2.087  0.0961  0.9506 -1.0739
  804TIP3    H2 2377   1.037   3.107   2.143 -0.4429 -0.4150 -0.6596
  805TIP3   OH2 2378   1.200   5.235   2.306  0.6759 -0.3691  0.1317
  805TIP3    H1 2379   1.151   5.315   2.289 -0.3333 -0.8553  0.5976
  805TIP3    H2 2380   1.277   5.240   2.250  0.8367  1.1046  0.4555
  806TIP3   OH2 2381   0.838   6.277   0.444 -0.3182 -0.1675 -0.1939
  806TIP3    H1 2382   0.812   6.333   0.517  0.9518 -0.7394  0.7198
  806TIP3    H2 2383   0.791   6.195   0.458 -0.3057 -0.1729 -0.1838
  807TIP3   OH2 2384   0.236   4.293   5.497  0.1098 -0.3138 -0.2304
  807TIP3    H1 2385   0.222   4.231   5.569 -0.7806 -0.5883 -0.6225
  807TIP3    H2 2386   0.272   4.371   5.539 -0.3019 -0.5059  0.5064
  808TIP3   OH2 2387   0.051   2.757   0.071  0.2112 -0.6161  0.0810
  808TIP3    H1 2388   0.027   2.848   0.087  0.5464 -0.4786 -0.1837
  808TIP3    H2 2389   0.146   2.755   0.081  0.2237 -0.9008 -0.0837
  809TIP3   OH2 2390   2.880   5.009   0.377  0.0650 -0.8649  0.4014
  809TIP3    H1 2391   2.897   5.022   0.470 -0.1175 -0.1136  0.3357
  809TIP3    H2 2392   2.966   5.013   0.336 -0.0546  1.1841  0.2720
  810TIP3   OH2 2393   4.603   1.796   3.037  0.3802  0.1370  0.5725
  810TIP3    H1 2394   4.688   1.815   3.076  0.9988 -0.8946 -0.1914
  810TIP3    H2 2395   4.543   1.859   3.076  1.5638  1.1163  0.8765
  811TIP3   OH2 2396   6.663   2.384   2.238  0.0160 -0.0511 -0.3165
  811TIP3    H1 2397   6.759   2.377   2.242 -0.1088 -1.6834  1.5042
  811TIP3    H2 2398   6.640   2.442   2.311 -0.3763  0.9041 -1.1745
  812TIP3   OH2 2399   0.823   4.660   1.764 -0.9161  0.3642  0.8949
  812TIP3    H1 2400   0.739   4.690   1.731 -0.8276 -0.2339  0.0932
  812TIP3    H2 2401   0.830   4.569   1.735 -0.5102  0.0444  1.9677
  813TIP3   OH2 2402   1.413   1.829   0.761  0.1953  0.0073 -0.1229
  813TIP3    H1 2403   1.480   1.852   0.826  0.1261  1.8107 -0.6475
  813TIP3    H2 2404   1.425   1.735   0.747  0.8590 -0.2181  1.7564
  814TIP3   OH2 2405   6.992   1.231   0.617 -0.4776  0.0688 -0.2187
  814TIP3    H1 2406   7.003   1.288   0.693 -1.7505  2.1290 -1.4939
  814TIP3    H2 2407   6.944   1.155   0.650 -1.2396  1.0547  0.9816
  815TIP3   OH2 2408   1.233   0.824   2.754 -0.6848 -0.3908  0.6965
  815TIP3    H1 2409   1.209   0.733   2.742  1.7956 -1.0455  0.2236
  815TIP3    H2 2410   1.150   0.868   2.775 -2.0792 -2.5461  0.0237
  816TIP3   OH2 2411   3.448   0.418   4.554  0.4219 -0.1929  0.4914
  816TIP3    H1 2412   3.398   0.457   4.626 -1.2703 -0.4559 -0.5022
  816TIP3    H2 2413   3.404   0.335   4.536  0.9284 -0.2184 -0.7316
  817TIP3   OH2 2414   7.169   0.673   0.346  0.7176 -0.3374  0.5002
  817TIP3    H1 2415   7.179   0.635   0.433 -0.9975 -2.7627 -0.2673
  817TIP3    H2 2416   7.258   0.679   0.312  1.2706 -0.8455  1.8133
  818TIP3   OH2 2417   6.240   2.963   5.418 -0.4952 -0.3574 -0.0198
  818TIP3    H1 2418   6.191   2.998   5.492  1.1381  0.8445  0.5627
  818TIP3    H2 2419   6.200   2.879   5.399 -1.2004 -0.5187  1.9813
  819TIP3   OH2 2420   2.690   0.740   1.990  0.3092 -0.0843 -0.2459
  819TIP3    H1 2421   2.615   0.799   1.990  1.2510  1.1586  0.1100
  819TIP3    H2 2422   2.669   0.674   1.924 -0.8191  0.5912 -0.5871
  820TIP3   OH2 2423   3.905   4.683   0.103  0.2825  0.2308 -0.3493
  820TIP3    H1 2424   3.935   4.630   0.029 -0.5927 -1.6984  0.5931
  820TIP3    H2 2425   3.815   4.707   0.080 -0.3054 -1.1204  0.4074
  821TIP3   OH2 2426   6.861   6.772   0.919 -0.8814 -0.5970 -0.4041
  821TIP3    H1 2427   6.916   6.831   0.971 -1.8345 -0.6677  0.7249
  821TIP3    H2 2428   6.908   6.762   0.836  0.1610  0.3524  0.0487
  822TIP3   OH2 2429   4.449   3.856   4.588  0.0754  0.0087 -0.0658
  822TIP3    H1 2430   4.459   3.824   4.678 -3.2074 -1.7810 -0.2201
  822TIP3    H2 2431   4.423   3.948   4.599 -0.1429 -0.1437  0.8125
  823TIP3   OH2 2432   5.202   5.835   4.281  0.1757  0.2210  0.2790
  823TIP3    H1 2433   5.118   5.879   4.292  0.8733  1.2885  1.5508
  823TIP3    H2 2434   5.196   5.795   4.194 -0.7235  2.3359 -0.7143
  824TIP3   OH2 2435   1.732   5.183   5.104  0.0419  0.2072  0.0661
  824TIP3    H1 2436   1.749   5.185   5.199 -0.7055  0.2993  0.2015
  824TIP3    H2 2437   1.738   5.275   5.077  0.0137  0.2087  0.0648
  825TIP3   OH2 2438   2.527   5.944   3.415  0.3012 -0.3988 -0.2533
  825TIP3    H1 2439   2.572   5.907   3.491  0.4956  0.4238  0.0320
  825TIP3    H2 2440   2.444   5.976   3.450 -0.8721 -2.5208 -0.8865
  826TIP3   OH2 2441   4.684   6.321   2.157 -0.1259  0.7673 -0.4943
  826TIP3    H1 2442   4.736   6.328   2.237  0.0969  1.1906 -0.6726
  826TIP3    H2 2443   4.716   6.242   2.115 -0.8662  0.0391  0.2730
  827TIP3   OH2 2444   1.622   0.991   0.866  0.1183  0.7282  0.3315
  827TIP3    H1 2445   1.658   0.911   0.905  1.1559  0.9864 -0.0553
  827TIP3    H2 2446   1.575   0.960   0.788 -0.4643  0.3871  0.8136
  828TIP3   OH2 2447   3.816   4.061   5.372  0.2829 -0.0079  0.3036
  828TIP3    H1 2448   3.848   3.971   5.365  1.7782  0.4576  0.8040
  828TIP3    H2 2449   3.793   4.086   5.283  0.3510 -0.7089  0.0897
  829TIP3   OH2 2450   2.825   2.346   1.661 -0.4956 -0.2347 -0.1860
  829TIP3    H1 2451   2.767   2.294   1.605 -1.5403  0.6677 -0.0015
  829TIP3    H2 2452   2.822   2.302   1.746 -1.3133  0.0408 -0.0526
  830TIP3   OH2 2453   2.934   0.243   3.419 -0.3477 -0.0087  0.3608
  830TIP3    H1 2454   2.943   0.151   3.444 -1.7978 -0.4496 -0.6616
  830TIP3    H2 2455   2.984   0.290   3.486  0.8105 -1.5492  0.6444
  831TIP3   OH2 2456   1.947   6.569   3.743 -0.0019 -0.6347 -0.0988
  831TIP3    H1 2457   1.909   6.566   3.831  0.2516  0.7707  0.0927
  831TIP3    H2 2458   2.041   6.561   3.757  0.1601  0.8893 -0.0804
  832TIP3   OH2 2459   0.449   4.474   3.248  0.1032 -0.0875  0.4163
  832TIP3    H1 2460   0.446   4.479   3.344  1.1597 -1.9089  0.5759
  832TIP3    H2 2461   0.476   4.385   3.229 -0.4319  0.1324 -1.6164
  833TIP3   OH2 2462   3.781   0.086   4.950 -0.2582 -0.8779 -0.2196
  833TIP3    H1 2463   3.784   0.177   4.978  0.6466 -1.0779  0.3806
  833TIP3    H2 2464   3.722   0.086   4.874 -1.6234 -0.0959  0.8015
  834TIP3   OH2 2465   4.450   5.115   5.538  0.1435  0.5438 -0.2797
  834TIP3    H1 2466   4.373   5.156   5.498 -0.2371  3.5013  2.9685
  834TIP3    H2 2467   4.413   5.056   5.605  0.5739  2.2330  1.5289
  835TIP3   OH2 2468   1.302   4.595   2.897 -0.7270 -0.5428  0.2037
  835TIP3    H1 2469   1.332   4.654   2.965  0.9161 -0.1324 -0.8119
  835TIP3    H2 2470   1.213   4.624   2.876 -0.7294  0.1879  1.1905
  836TIP3   OH2 2471   1.771   2.721   2.644 -0.3770  0.0096  1.0433
  836TIP3    H1 2472   1.824   2.662   2.590 -1.9554 -0.2907 -0.2552
  836TIP3    H2 2473   1.832   2.756   2.709  0.9116 -1.9271  0.9318
  837TIP3   OH2 2474   4.196   0.844   1.450 -0.2793 -0.4498  0.2548
  837TIP3    H1 2475   4.152   0.863   1.367  0.7471  1.2792  0.0461
  837TIP3    H2 2476   4.280   0.805   1.425  0.6421  1.3623  0.3603
  838TIP3   OH2 2477   2.208   6.456   2.265 -0.2606 -0.0996  0.6082
  838TIP3    H1 2478   2.223   6.375   2.315 -1.9572 -2.1638 -1.9696
  838TIP3    H2 2479   2.145   6.506   2.318 -0.6704 -1.3793  1.3731
  839TIP3   OH2 2480   0.396   2.070   5.614  0.6046 -0.0721  0.4535
  839TIP3    H1 2481   0.372   2.112   5.697 -0.8379  1.9040 -0.8686
  839TIP3    H2 2482   0.327   2.005   5.600  0.1259  0.4733  0.2247
  840TIP3   OH2 2483   0.344   6.293   2.328  0.1305 -0.0107  0.0685
  840TIP3    H1 2484   0.317   6.287   2.237 -0.5001 -2.2112  0.3568
  840TIP3    H2 2485   0.281   6.354   2.368 -1.2287 -1.0496 -0.4204
  841TIP3   OH2 2486   2.255   3.189   4.253 -0.1850 -0.4554 -0.3882
  841TIP3    H1 2487   2.347   3.195   4.281 -0.7045 -2.6111  2.1509
  841TIP3    H2 2488   2.252   3.238   4.171  2.6801  1.8125  0.6838
  842TIP3   OH2 2489   0.387   0.818   2.213 -0.0775  0.5777  0.1339
  842TIP3    H1 2490   0.468   0.769   2.197 -1.0322 -0.7387 -0.8404
  842TIP3    H2 2491   0.403   0.862   2.297  3.3101  3.9693 -1.9695
  843TIP3   OH2 2492   2.012   0.113   2.338  0.4872  0.0274 -0.2864
  843TIP3    H1 2493   1.999   0.170   2.413 -0.3133  0.4081 -0.7049
  843TIP3    H2 2494   1.999   0.025   2.372 -0.0084  0.2053 -0.0052
  844TIP3   OH2 2495   5.144   5.807   1.419 -0.3204  0.3422  0.2077
  844TIP3    H1 2496   5.175   5.724   1.457 -0.6455  1.4965  3.3350
  844TIP3    H2 2497   5.216   5.868   1.435 -1.0402  1.1982  0.2209
  845TIP3   OH2 2498   3.569   2.651   4.743 -0.5193  0.1677  0.4610
  845TIP3    H1 2499   3.488   2.608   4.716 -0.2326 -1.4426  1.9510
  845TIP3    H2 2500   3.581   2.623   4.834  0.8664  1.6879  0.7852
  846TIP3   OH2 2501   1.789   5.399   5.357 -0.6429  0.8369  0.2928
  846TIP3    H1 2502   1.827   5.315   5.383  0.2484  1.0681 -0.2135
  846TIP3    H2 2503   1.696   5.381   5.343 -0.1968 -0.4000 -1.2276
  847TIP3   OH2 2504   6.364   0.617   1.642  0.8302  0.0319  0.1209
  847TIP3    H1 2505   6.390   0.562   1.569  0.1974 -1.0350  0.6704
  847TIP3    H2 2506   6.353   0.705   1.604  0.9461 -0.4080 -0.9579
  848TIP3   OH2 2507   5.093   4.619   0.767 -0.6496 -0.4195 -0.0171
  848TIP3    H1 2508   5.091   4.712   0.790  1.6564 -0.5204  0.8695
  848TIP3    H2 2509   5.003   4.599   0.739 -1.5726  1.7052  1.1795
  849TIP3   OH2 2510   6.479   4.098   1.050 -0.3055 -0.1919  0.3004
  849TIP3    H1 2511   6.391   4.068   1.072  0.1173 -0.9482  1.0233
  849TIP3    H2 2512   6.506   4.151   1.124  0.1993 -0.7427  0.5215
  850TIP3   OH2 2513   4.287   0.717   3.952  0.2131 -0.6046  0.0594
  850TIP3    H1 2514   4.347   0.646   3.929  1.9785  0.8297  0.0480
  850TIP3    H2 2515   4.248   0.743   3.869  1.5382  0.1347 -0.3619
  851TIP3   OH2 2516   6.495   0.376   3.507  0.1075 -1.0001 -0.2652
  851TIP3    H1 2517   6.434   0.311   3.542  0.7272 -1.8460 -0.7217
  851TIP3    H2 2518   6.536   0.333   3.432  0.3875 -0.0049 -0.7001
  852TIP3   OH2 2519   6.963   6.195   3.180 -0.0146  0.3446  0.1927
  852TIP3    H1 2520   6.946   6.204   3.274  3.0711 -0.3745  0.9151
  852TIP3    H2 2521   6.956   6.285   3.146 -0.0983  0.7851  1.3201
  853TIP3   OH2 2522   2.801   5.220   1.859  0.1462 -0.4816  0.0920
  853TIP3    H1 2523   2.806   5.125   1.869 -0.4332 -0.5822 -0.5381
  853TIP3    H2 2524   2.827   5.236   1.769  1.0942  0.0461  0.4381
  854TIP3   OH2 2525   6.496   2.338   4.863  0.1688  0.0333  0.1838
  854TIP3    H1 2526   6.567   2.361   4.923 -0.8682  0.8019  1.1540
  854TIP3    H2 2527   6.485   2.416   4.808 -0.0673 -0.0043  0.1770
  855TIP3   OH2 2528   5.672   4.507   1.654 -0.3844 -0.1717 -0.3419
  855TIP3    H1 2529   5.697   4.566   1.583 -0.0082 -1.0685 -0.9857
  855TIP3    H2 2530   5.754   4.484   1.697 -0.7937  1.9275  1.7113
  856TIP3   OH2 2531   2.008   0.402   0.822  0.5308  0.1843  0.3951
  856TIP3    H1 2532   1.980   0.313   0.841  2.8873 -0.3499  1.7242
  856TIP3    H2 2533   2.088   0.392   0.771  1.0145  1.5209  0.8409
  857TIP3   OH2 2534   3.153   3.723   5.798  0.5157 -0.5423  0.4769
  857TIP3    H1 2535   3.096   3.800   5.798  0.1631 -0.8005  0.2779
  857TIP3    H2 2536   3.093   3.649   5.797  0.7675 -0.8575 -2.5811
  858TIP3   OH2 2537   2.162   6.725   3.523  0.2935 -0.0270  0.7822
  858TIP3    H1 2538   2.251   6.744   3.491  0.1780  1.9278  1.4891
  858TIP3    H2 2539   2.112   6.706   3.444  0.8173  1.2095  0.1221
  859TIP3   OH2 2540   5.002   6.083   0.982  0.4995  0.0658  0.0171
  859TIP3    H1 2541   5.078   6.136   0.958  1.2908 -0.4911  1.1905
  859TIP3    H2 2542   5.021   6.053   1.071 -1.3469  0.3577  0.5479
  860TIP3   OH2 2543   0.298   6.493   1.360 -0.3095 -0.3099  0.0295
  860TIP3    H1 2544   0.277   6.407   1.324 -0.1787 -0.1818 -0.3589
  860TIP3    H2 2545   0.394   6.499   1.352 -0.0159 -1.1111  2.2664
  861TIP3   OH2 2546   1.072   0.191   2.521 -0.2758 -0.1693 -0.5892
  861TIP3    H1 2547   1.079   0.105   2.480 -0.1001 -0.4860  0.0903
  861TIP3    H2 2548   0.990   0.188   2.570 -1.1029  0.6318 -1.8630
  862TIP3   OH2 2549   4.277   5.344   4.524 -0.4336 -0.0592  0.5018
  862TIP3    H1 2550   4.189   5.331   4.560  0.1469  0.7793  2.3349
  862TIP3    H2 2551   4.295   5.262   4.478 -2.4659  0.0509 -0.6262
  863TIP3   OH2 2552   0.826   6.343   3.778  0.1216  0.2419  0.3457
  863TIP3    H1 2553   0.845   6.319   3.869  0.4294 -4.1929 -0.6941
  863TIP3    H2 2554   0.902   6.395   3.751  1.6933 -1.1910  1.7311
  864TIP3   OH2 2555   4.883   3.147   2.102 -0.5878  0.3281 -0.1257
  864TIP3    H1 2556   4.965   3.113   2.065 -0.8858 -0.4596 -0.0843
  864TIP3    H2 2557   4.852   3.077   2.159 -1.5273  0.4304 -0.4983
  865TIP3   OH2 2558   2.523   4.258   4.562  0.3436 -0.1129  0.0066
  865TIP3    H1 2559   2.579   4.192   4.521 -0.5228 -1.0743  0.3338
  865TIP3    H2 2560   2.499   4.316   4.490  2.2629  0.7269 -0.0280
  866TIP3   OH2 2561   4.676   5.912   1.465 -0.3306  0.4583 -0.0734
  866TIP3    H1 2562   4.620   5.864   1.527 -0.0887 -0.2035 -0.3608
  866TIP3    H2 2563   4.631   5.996   1.453 -0.5955  0.4390  0.6771
  867TIP3   OH2 2564   3.458   6.420   4.318  0.7193  0.1121  0.1698
  867TIP3    H1 2565   3.548   6.403   4.292  1.2518  1.8987  0.7347
  867TIP3    H2 2566   3.423   6.475   4.247  0.3761  0.2479  0.4421
  868TIP3   OH2 2567   1.335   2.709   4.168 -0.1273  0.1638 -0.6178
  868TIP3    H1 2568   1.304   2.759   4.244 -0.1869 -1.1251  0.2355
  868TIP3    H2 2569   1.331   2.617   4.196 -0.6331 -0.3947 -2.3455
  869TIP3   OH2 2570   5.018   6.387   3.147  0.2125  0.2667  0.2389
  869TIP3    H1 2571   4.972   6.316   3.103 -1.5006  1.3417  0.2299
  869TIP3    H2 2572   5.105   6.351   3.166  0.0221 -1.1984 -1.3958
  870TIP3   OH2 2573   2.926   1.095   4.478  0.8239  0.4644 -0.5008
  870TIP3    H1 2574   2.968   1.046   4.407  1.0814  0.1568 -0.1437
  870TIP3    H2 2575   2.862   1.151   4.435  0.8250  0.1179 -0.9539
  871TIP3   OH2 2576   6.452   0.627   5.793 -0.7837  0.4046  0.1112
  871TIP3    H1 2577   6.366   0.649   5.759 -2.0164 -0.5209  2.4289
  871TIP3    H2 2578   6.455   0.664   5.881  1.4947  1.0207 -0.1390
  872TIP3   OH2 2579   3.703   4.476   2.422  0.4902  0.1643 -0.2720
  872TIP3    H1 2580   3.714   4.541   2.491 -1.4252 -0.2560  0.5138
  872TIP3    H2 2581   3.789   4.433   2.415  0.6948  0.0448  2.0662
  873TIP3   OH2 2582   2.101   3.741   1.045 -0.6651  0.2393  0.6313
  873TIP3    H1 2583   2.103   3.652   1.082 -0.2612  0.2590  0.6640
  873TIP3    H2 2584   2.018   3.778   1.075 -2.3139 -1.1824 -1.8579
  874TIP3   OH2 2585   2.261   5.787   5.894 -0.1545 -0.5661  0.3423
  874TIP3    H1 2586   2.213   5.707   5.877  0.4981 -0.7302 -0.9158
  874TIP3    H2 2587   2.229   5.849   5.828  2.6095 -1.2672 -1.8954
  875TIP3   OH2 2588   1.643   2.699   0.861 -0.1693 -0.1726  0.1484
  875TIP3    H1 2589   1.636   2.734   0.772  1.8469  0.9471  0.3543
  875TIP3    H2 2590   1.686   2.613   0.850  1.9920  0.8376  0.0934
  876TIP3   OH2 2591   6.094   3.941   4.809  0.2509  0.2880 -0.1517
  876TIP3    H1 2592   6.150   3.879   4.763 -1.1582 -0.5728 -0.8013
  876TIP3    H2 2593   6.088   4.017   4.751  0.1892  0.0851 -0.4145
  877TIP3   OH2 2594   0.655   2.490   4.291  0.3908  0.0288  0.4678
  877TIP3    H1 2595   0.657   2.545   4.369  0.9274 -0.5390  0.8622
  877TIP3    H2 2596   0.747   2.479   4.267  0.1892  1.7184 -1.3532
  878TIP3   OH2 2597   0.745   0.793   1.041 -0.4209  0.7581  0.4991
  878TIP3    H1 2598   0.835   0.766   1.057 -0.4654 -0.5535 -1.2010
  878TIP3    H2 2599   0.749   0.888   1.035  0.5417  0.8562  2.0617
  879TIP3   OH2 2600   0.343   0.937   3.974 -0.9131  0.3383  0.4610
  879TIP3    H1 2601   0.249   0.923   3.980 -0.5552 -2.3689  1.1529
  879TIP3    H2 2602   0.375   0.866   3.919  0.5905  2.1274 -1.1240
  880TIP3   OH2 2603   6.701   1.190   4.049 -0.4699  0.2699  0.4499
  880TIP3    H1 2604   6.646   1.116   4.024 -1.2119  0.8444  0.3777
  880TIP3    H2 2605   6.654   1.234   4.119 -0.0265  0.6665  0.5107
  881TIP3   OH2 2606   6.750   3.512   3.114 -0.3196 -0.1673  0.2621
  881TIP3    H1 2607   6.674   3.471   3.074 -0.3315 -0.4437  0.5672
  881TIP3    H2 2608   6.814   3.442   3.122  0.4239  0.3062 -1.0882
  882TIP3   OH2 2609   2.420   4.702   4.712  0.2773  0.3013 -0.1250
  882TIP3    H1 2610   2.493   4.644   4.691  2.2267  2.5972 -0.1449
  882TIP3    H2 2611   2.400   4.683   4.803  2.0626  0.7579  0.3970
  883TIP3   OH2 2612   6.496   0.205   5.310 -0.2078  0.4274  0.3053
  883TIP3    H1 2613   6.479   0.153   5.232 -0.5368 -0.4571  0.9453
  883TIP3    H2 2614   6.524   0.291   5.277 -0.2871  0.0506 -0.7680
  884TIP3   OH2 2615   1.852   0.161   0.892 -0.1874  0.2579  0.5990
  884TIP3    H1 2616   1.774   0.107   0.883  0.7252 -1.1508  0.9000
  884TIP3    H2 2617   1.924   0.099   0.905  0.9435  1.5260  0.6823
  885TIP3   OH2 2618   0.921   6.358   4.035 -0.2768 -0.0607 -0.1789
  885TIP3    H1 2619   0.928   6.451   4.058  1.7831 -0.2506  0.1153
  885TIP3    H2 2620   0.887   6.316   4.114 -0.5740  0.3378 -0.0919
  886TIP3   OH2 2621   1.748   3.268   1.710 -0.0845 -0.3625 -0.6629
  886TIP3    H1 2622   1.682   3.332   1.683  0.1255 -0.2445 -0.8992
  886TIP3    H2 2623   1.742   3.268   1.806 -1.2131 -1.1934 -0.7161
  887TIP3   OH2 2624   0.994   1.085   3.823 -0.4557 -0.6485  0.2013
  887TIP3    H1 2625   1.024   1.094   3.914  0.9170 -2.0776 -0.0634
  887TIP3    H2 2626   0.910   1.041   3.829 -1.6567  1.5533  0.8606
  888TIP3   OH2 2627   3.492   5.849   4.152  0.1084 -0.1884 -0.2884
  888TIP3    H1 2628   3.460   5.763   4.124 -0.4318 -0.0570 -0.0836
  888TIP3    H2 2629   3.421   5.885   4.205 -0.6968  1.3767 -2.3027
  889TIP3   OH2 2630   3.259   2.398   5.166 -0.3337  0.0805  0.5226
  889TIP3    H1 2631   3.218   2.469   5.214  0.1580 -0.3432  1.6064
  889TIP3    H2 2632   3.234   2.319   5.214 -0.2094 -0.3967 -0.1841
  890TIP3   OH2 2633   1.653   2.467   2.505 -0.0101 -0.7500  0.0481
  890TIP3    H1 2634   1.626   2.523   2.432 -1.2055  0.7268  1.5541
  890TIP3    H2 2635   1.749   2.469   2.502 -0.0359  0.4932 -0.6116
  891TIP3   OH2 2636   3.294   5.434   1.823 -0.6946 -0.0498 -0.0785
  891TIP3    H1 2637   3.363   5.412   1.886 -0.3550  1.1086 -0.0345
  891TIP3    H2 2638   3.315   5.522   1.794 -2.2481  0.3801  0.0353
  892TIP3   OH2 2639   3.169   2.915   5.733  0.7510 -0.1404 -0.4699
  892TIP3    H1 2640   3.250   2.948   5.696 -0.6320  1.8206 -1.9779
  892TIP3    H2 2641   3.149   2.976   5.805  0.2015 -0.0547 -0.6859
  893TIP3   OH2 2642   1.720   0.206   4.171  0.9621 -0.2952 -0.2575
  893TIP3    H1 2643   1.755   0.294   4.180  1.1224 -0.4323  0.6380
  893TIP3    H2 2644   1.787   0.157   4.123  1.0662 -0.0386 -0.3712
  894TIP3   OH2 2645   1.173   5.274   0.666 -0.2155  0.2405 -0.0374
  894TIP3    H1 2646   1.207   5.289   0.754  0.9575 -0.5223 -0.3312
  894TIP3    H2 2647   1.128   5.355   0.643 -0.2841  0.5581  1.1379
  895TIP3   OH2 2648   5.903   6.681   1.533  0.1088 -0.3337  0.1890
  895TIP3    H1 2649   5.815   6.695   1.567  1.1997  1.1805  2.6507
  895TIP3    H2 2650   5.917   6.752   1.471 -0.5816 -0.9510 -0.7039
  896TIP3   OH2 2651   5.020   1.270   3.024  0.2112 -0.8288 -0.3780
  896TIP3    H1 2652   5.074   1.232   2.955  2.0213 -1.6588  1.3702
  896TIP3    H2 2653   4.961   1.200   3.050  1.1053 -1.3327  0.4046
  897TIP3   OH2 2654   0.951   0.351   3.271  0.5183  0.1559 -0.6294
  897TIP3    H1 2655   1.038   0.389   3.258  0.3435  1.2495  1.0497
  897TIP3    H2 2656   0.923   0.383   3.357 -2.9165  2.6075 -2.3877
  898TIP3   OH2 2657   5.970   4.776   3.006 -0.0635  0.3855  0.3319
  898TIP3    H1 2658   6.059   4.772   3.041  0.0080  0.3235  0.1469
  898TIP3    H2 2659   5.983   4.793   2.912 -0.2314 -0.1919  0.2021
  899TIP3   OH2 2660   4.201   6.239   2.647  0.0193 -0.2832 -0.4683
  899TIP3    H1 2661   4.215   6.334   2.648  0.2641 -0.2818 -1.8212
  899TIP3    H2 2662   4.148   6.222   2.725  1.6575  0.6663  0.9131
  900TIP3   OH2 2663   4.560   2.993   2.968  0.0161  0.5361 -0.5119
  900TIP3    H1 2664   4.559   2.902   2.999 -0.1266  0.0152 -1.9457
  900TIP3    H2 2665   4.649   3.024   2.987  0.8689 -0.7302 -2.1411
  901TIP3   OH2 2666   1.179   0.131   5.016 -0.3550  0.8749 -0.2457
  901TIP3    H1 2667   1.141   0.130   5.104  0.0196  2.5668 -0.0237
  901TIP3    H2 2668   1.247   0.064   5.018 -0.5267  0.7190  0.6787
  902TIP3   OH2 2669   4.780   2.206   2.262 -0.1357 -0.0790 -0.0673
  902TIP3    H1 2670   4.702   2.168   2.301 -1.0364  1.1037 -0.6778
  902TIP3    H2 2671   4.826   2.248   2.335 -0.3568 -0.2841  0.1904
  903TIP3   OH2 2672   2.174   1.076   3.594 -0.0815 -0.0972  0.5042
  903TIP3    H1 2673   2.128   1.052   3.514  0.0667  1.7545 -0.1912
  903TIP3    H2 2674   2.110   1.063   3.664 -1.4536  1.6623 -0.3492
  904TIP3   OH2 2675   2.504   0.859   2.188 -0.2946  0.0976 -0.1390
  904TIP3    H1 2676   2.457   0.917   2.247 -0.9522  0.4740 -1.0167
  904TIP3    H2 2677   2.596   0.883   2.200 -0.2693 -0.6976  1.6468
  905TIP3   OH2 2678   4.127   5.071   2.202  0.3081  0.1010  0.0567
  905TIP3    H1 2679   4.109   4.986   2.241  0.7370  1.1559  2.7484
  905TIP3    H2 2680   4.143   5.052   2.109 -1.0007 -2.5279  0.2894
  906TIP3   OH2 2681   5.248   3.923   4.658 -0.2198 -0.3933 -0.2298
  906TIP3    H1 2682   5.238   4.018   4.647  0.5007 -0.4262 -1.4036
  906TIP3    H2 2683   5.272   3.911   4.749 -0.5081  0.5390 -0.0226
  907TIP3   OH2 2684   0.800   3.075   4.502  0.3764 -0.2889 -0.2477
  907TIP3    H1 2685   0.825   3.005   4.563  1.6492  0.5903  0.2891
  907TIP3    H2 2686   0.762   3.030   4.427 -0.6943 -1.4406  0.9346
  908TIP3   OH2 2687   1.215   4.379   4.887 -0.2643  0.0752  0.8718
  908TIP3    H1 2688   1.255   4.304   4.844  0.2409  1.6174 -1.5571
  908TIP3    H2 2689   1.288   4.440   4.901 -1.1228  1.4815 -0.3952
  909TIP3   OH2 2690   1.226   4.550   3.952 -0.9300 -0.5004  0.8023
  909TIP3    H1 2691   1.131   4.553   3.954 -1.0365 -1.5934 -0.8082
  909TIP3    H2 2692   1.252   4.559   4.044 -2.4557  2.0457  1.0760
  910TIP3   OH2 2693   5.927   6.809   2.116  0.2697 -0.5011  0.7596
  910TIP3    H1 2694   5.835   6.817   2.143 -0.3029  1.4280 -1.5319
  910TIP3    H2 2695   5.974   6.797   2.198 -1.9458 -0.8625  2.0673
  911TIP3   OH2 2696   3.938   2.842   5.481  0.1823  0.2151  0.1723
  911TIP3    H1 2697   3.988   2.781   5.426  0.2809  0.2672  0.2035
  911TIP3    H2 2698   3.878   2.786   5.530  0.4728  0.1121  0.4133
  912TIP3   OH2 2699   2.987   6.102   0.788  0.4938 -0.2340 -0.0496
  912TIP3    H1 2700   2.939   6.023   0.760  1.1960 -0.3463 -0.9867
  912TIP3    H2 2701   2.929   6.174   0.765  0.0425 -0.4482  0.3925
  913TIP3   OH2 2702   6.057   4.452   1.105  0.0731 -0.0644 -0.1412
  913TIP3    H1 2703   6.036   4.450   1.011 -0.6126  1.1897 -0.0372
  913TIP3    H2 2704   6.005   4.381   1.143 -0.9298  0.4630 -0.4874
  914TIP3   OH2 2705   2.209   1.247   2.247 -0.1828  0.2538  0.3158
  914TIP3    H1 2706   2.170   1.302   2.178 -0.3954 -0.4454 -0.1320
  914TIP3    H2 2707   2.287   1.209   2.206 -0.2853 -0.1326  0.4762
  915TIP3   OH2 2708   4.994   0.559   3.169  0.5293  0.3761 -0.0135
  915TIP3    H1 2709   5.042   0.507   3.105  2.0731  2.2182 -0.4816
  915TIP3    H2 2710   4.941   0.619   3.117 -0.4965 -0.0550  0.4983
  916TIP3   OH2 2711   5.909   1.439   2.390  0.3193 -0.6116 -0.4954
  916TIP3    H1 2712   5.897   1.531   2.365  1.8969 -0.1951  0.1612
  916TIP3    H2 2713   5.996   1.436   2.429 -0.8939 -1.7388  2.4170
  917TIP3   OH2 2714   0.016   4.738   1.487 -0.2418 -0.2450 -0.1139
  917TIP3    H1 2715   0.083   4.782   1.435 -0.3391  1.5987  1.2255
  917TIP3    H2 2716   0.016   4.648   1.455  1.2516  0.2742 -1.7171
  918TIP3   OH2 2717   2.189   6.736   2.759 -0.3995  0.2186 -0.1568
  918TIP3    H1 2718   2.206   6.773   2.673  3.5439  0.6024  0.6014
  918TIP3    H2 2719   2.139   6.804   2.805 -1.6365  0.4331 -1.7431
  919TIP3   OH2 2720   0.421   2.540   1.256 -0.4342 -0.0620  0.6606
  919TIP3    H1 2721   0.336   2.497   1.266 -1.1945  1.5616  1.6747
  919TIP3    H2 2722   0.441   2.573   1.343 -0.0234  1.7815 -0.0805
  920TIP3   OH2 2723   1.653   5.995   4.664  0.0110 -0.3870 -0.1032
  920TIP3    H1 2724   1.704   5.960   4.592  0.0991 -2.1830  0.7722
  920TIP3    H2 2725   1.654   5.926   4.730 -0.9063  0.7935  1.2149
  921TIP3   OH2 2726   4.070   2.567   1.893  0.0395 -0.1754  0.9155
  921TIP3    H1 2727   4.038   2.561   1.983 -0.4198  1.3570  0.8753
  921TIP3    H2 2728   3.995   2.598   1.843  0.3908 -0.6825  0.0556
  922TIP3   OH2 2729   7.140   0.934   5.108  0.2055 -0.5304  0.6087
  922TIP3    H1 2730   7.183   0.951   5.025 -1.3726 -0.1459 -0.1695
  922TIP3    H2 2731   7.172   1.003   5.167 -0.3978  0.6114 -0.3576
  923TIP3   OH2 2732   1.876   5.517   0.321  0.1917  0.3584  0.2279
  923TIP3    H1 2733   1.941   5.458   0.283 -0.5730  1.2330 -2.6896
  923TIP3    H2 2734   1.792   5.471   0.308 -0.0603  0.4906  1.3280
  924TIP3   OH2 2735   6.829   5.792   2.124  0.0954  0.2123 -0.4542
  924TIP3    H1 2736   6.827   5.759   2.034  0.8397 -1.0479 -0.0290
  924TIP3    H2 2737   6.922   5.791   2.148 -0.0785  0.7203  0.2750
  925TIP3   OH2 2738   4.291   3.052   0.308 -0.0798 -0.2225 -0.1684
  925TIP3    H1 2739   4.267   3.033   0.399 -1.4385  0.3800 -0.3817
  925TIP3    H2 2740   4.386   3.042   0.306 -0.1053 -0.9753  1.1407
  926TIP3   OH2 2741   6.205   4.199   5.787  0.0337  0.0807  0.1964
  926TIP3    H1 2742   6.286   4.153   5.765 -0.7789 -0.5921 -1.6134
  926TIP3    H2 2743   6.171   4.153   5.864  0.1933 -1.1599 -0.4557
  927TIP3   OH2 2744   0.203   3.586   1.280 -0.2004 -0.0402  0.6154
  927TIP3    H1 2745   0.183   3.679   1.293 -1.1601  0.3231 -2.6955
  927TIP3    H2 2746   0.298   3.581   1.285 -0.2028  0.7441  2.5262
  928TIP3   OH2 2747   1.812   3.850   4.268  0.9294  0.2587 -0.0003
  928TIP3    H1 2748   1.818   3.871   4.362 -0.6326  0.4119  0.0865
  928TIP3    H2 2749   1.719   3.833   4.253  1.3263 -0.9206 -1.2981
  929TIP3   OH2 2750   2.824   4.492   0.956  0.5252 -0.1823  0.0061
  929TIP3    H1 2751   2.779   4.570   0.988 -0.3503 -0.4659 -0.4806
  929TIP3    H2 2752   2.884   4.468   1.026 -0.3019  0.0406  0.8128
  930TIP3   OH2 2753   3.194   4.140   0.237  0.5008  0.5427 -0.3047
  930TIP3    H1 2754   3.148   4.124   0.320  0.6807 -1.7463 -0.5787
  930TIP3    H2 2755   3.277   4.180   0.263  1.9893 -2.9982  1.0561
  931TIP3   OH2 2756   6.039   5.953   1.360  0.3684 -0.5368  0.2340
  931TIP3    H1 2757   6.065   6.043   1.341 -1.4642  0.7187  3.0156
  931TIP3    H2 2758   5.999   5.922   1.279  0.7155  1.2898 -0.6846
  932TIP3   OH2 2759   2.671   4.967   5.656  0.5548 -0.1745 -0.7654
  932TIP3    H1 2760   2.756   5.011   5.653  0.1996  0.8301  1.8331
  932TIP3    H2 2761   2.650   4.960   5.749 -3.1301  1.5035 -1.2744
  933TIP3   OH2 2762   2.618   5.892   2.548 -0.3130  0.0413 -0.1287
  933TIP3    H1 2763   2.540   5.895   2.493 -0.6318 -1.0913  0.2095
  933TIP3    H2 2764   2.691   5.894   2.487 -0.6619 -2.7662 -0.7794
  934TIP3   OH2 2765   3.131   1.840   3.007  0.4372 -0.4689 -0.0197
  934TIP3    H1 2766   3.166   1.900   3.072  1.2126 -1.3850  0.4411
  934TIP3    H2 2767   3.042   1.821   3.036  0.8286 -0.9926  0.8707
  935TIP3   OH2 2768   2.242   1.703   3.663  0.3603 -0.5296  0.0800
  935TIP3    H1 2769   2.161   1.651   3.657 -0.2206  0.4459 -1.0475
  935TIP3    H2 2770   2.253   1.739   3.575  0.9528  0.9533  0.7398
  936TIP3   OH2 2771   4.224   0.454   2.694 -0.3750 -0.2051 -0.0018
  936TIP3    H1 2772   4.213   0.549   2.690  2.0953  0.2194  1.4009
  936TIP3    H2 2773   4.256   0.430   2.608 -1.8547  0.0580 -0.6570
  937TIP3   OH2 2774   3.062   2.472   0.830  0.7537  0.4788  0.7031
  937TIP3    H1 2775   3.089   2.382   0.845 -1.1150  0.1059  2.1532
  937TIP3    H2 2776   3.032   2.503   0.915 -1.0281  1.6251 -0.2692
  938TIP3   OH2 2777   5.944   5.259   5.520 -0.0808 -0.7171  0.3255
  938TIP3    H1 2778   5.900   5.179   5.491  0.8510 -0.7392 -1.1199
  938TIP3    H2 2779   6.002   5.282   5.448  1.2291  0.0996  1.5953
  939TIP3   OH2 2780   5.394   1.589   3.736  0.3410 -0.0860  0.0389
  939TIP3    H1 2781   5.402   1.513   3.794  1.3667 -0.3400 -0.4194
  939TIP3    H2 2782   5.475   1.639   3.750  0.1961  0.3158 -0.5207
  940TIP3   OH2 2783   6.163   1.813   1.385 -0.1099 -0.4504 -0.0923
  940TIP3    H1 2784   6.229   1.840   1.321 -0.3718  0.0426 -0.1562
  940TIP3    H2 2785   6.079   1.834   1.344 -0.2970  2.7964  1.5735
  941TIP3   OH2 2786   6.364   3.188   3.353 -0.2167  0.2049 -0.3022
  941TIP3    H1 2787   6.361   3.232   3.438 -0.5277 -0.5574  0.0969
  941TIP3    H2 2788   6.274   3.191   3.322  0.1355  1.6778 -1.2507
  942TIP3   OH2 2789   3.166   4.970   1.440 -0.4511 -0.2639 -0.2189
  942TIP3    H1 2790   3.089   5.015   1.475  0.3600 -0.1607  1.5494
  942TIP3    H2 2791   3.225   5.041   1.414 -0.7185 -0.3469 -1.1158
  943TIP3   OH2 2792   3.506   5.697   2.386 -0.1371 -0.0981  0.3250
  943TIP3    H1 2793   3.488   5.674   2.296  0.1607 -1.9761  0.7160
  943TIP3    H2 2794   3.579   5.759   2.381 -1.6502  1.6904 -0.8038
  944TIP3   OH2 2795   1.316   6.285   2.194 -0.1173  0.3039 -0.3454
  944TIP3    H1 2796   1.287   6.307   2.106 -0.4009  0.8084 -0.1285
  944TIP3    H2 2797   1.253   6.221   2.225  1.5843 -2.1097 -1.5647
  945TIP3   OH2 2798   3.579   5.233   1.134 -0.3481  0.5376 -0.0431
  945TIP3    H1 2799   3.642   5.164   1.154 -0.3338  0.3710 -0.6587
  945TIP3    H2 2800   3.511   5.189   1.082  0.7879  1.4389 -2.4275
  946TIP3   OH2 2801   4.438   2.420   5.772 -0.6210 -0.0869  0.2640
  946TIP3    H1 2802   4.381   2.469   5.713 -1.5994 -3.5724 -1.9910
  946TIP3    H2 2803   4.520   2.412   5.724 -0.9775 -1.8298 -0.0958
  947TIP3   OH2 2804   3.737   0.353   4.948  0.2472  0.2249 -0.2777
  947TIP3    H1 2805   3.715   0.384   4.860 -0.2479 -0.5682 -0.4393
  947TIP3    H2 2806   3.698   0.419   5.007  1.3415  1.2353 -0.6538
  948TIP3   OH2 2807   1.506   1.233   2.295 -0.0702  0.2365  0.0053
  948TIP3    H1 2808   1.431   1.233   2.355 -1.5830  0.4510 -1.7820
  948TIP3    H2 2809   1.501   1.319   2.252  0.0809 -0.4503 -1.4303
  949TIP3   OH2 2810   6.378   2.117   1.608  0.5593  0.0914 -0.0777
  949TIP3    H1 2811   6.394   2.210   1.626  1.4688 -0.3937  1.9682
  949TIP3    H2 2812   6.332   2.085   1.686 -2.7001 -0.5626 -2.0840
  950TIP3   OH2 2813   6.889   5.618   5.293  0.2370  0.0198  0.0344
  950TIP3    H1 2814   6.823   5.613   5.363 -0.1602  1.1846 -0.2368
  950TIP3    H2 2815   6.848   5.672   5.225  0.8889 -0.5106 -0.8116
  951TIP3   OH2 2816   5.763   6.514   2.339 -0.4875 -0.1317 -0.5323
  951TIP3    H1 2817   5.814   6.483   2.264  0.4970  0.3703 -0.0938
  951TIP3    H2 2818   5.796   6.462   2.413 -1.0101 -0.1824 -0.3289
  952TIP3   OH2 2819   0.444   0.671   5.354  0.0132 -0.2087  0.2981
  952TIP3    H1 2820   0.387   0.594   5.354 -0.1792 -0.0768 -0.4362
  952TIP3    H2 2821   0.456   0.692   5.261 -0.0335  0.7192  0.4904
  953TIP3   OH2 2822   1.413   4.164   0.283  0.6011 -0.5195 -0.0874
  953TIP3    H1 2823   1.371   4.246   0.260  0.7882 -0.4801 -0.2927
  953TIP3    H2 2824   1.470   4.185   0.357  0.3278 -0.5548  0.1331
  954TIP3   OH2 2825   3.476   3.228   3.363  0.8099  0.0002  0.2387
  954TIP3    H1 2826   3.425   3.266   3.292 -0.1795  0.4918  1.1712
  954TIP3    H2 2827   3.426   3.151   3.390  0.7157  0.2969  0.9449
  955TIP3   OH2 2828   1.229   4.240   2.113  0.2233 -0.6408  0.0605
  955TIP3    H1 2829   1.307   4.295   2.103  0.5073 -0.3632  2.9271
  955TIP3    H2 2830   1.178   4.255   2.033  1.3588  2.0343 -0.2628
  956TIP3   OH2 2831   5.552   3.478   3.762  0.2878 -0.2293  0.5098
  956TIP3    H1 2832   5.593   3.479   3.849 -0.1784 -0.3750  0.7361
  956TIP3    H2 2833   5.623   3.498   3.702  0.4295  0.8430  1.0122
  957TIP3   OH2 2834   6.633   5.637   3.962 -0.3299 -0.0859 -0.3235
  957TIP3    H1 2835   6.666   5.711   4.012  2.7396  0.3982 -2.7231
  957TIP3    H2 2836   6.644   5.562   4.021 -0.0157  0.8583  0.8655
  958TIP3   OH2 2837   4.924   2.187   1.945  0.2286  0.0215 -0.2485
  958TIP3    H1 2838   4.832   2.211   1.954  0.2562  0.1763 -0.3867
  958TIP3    H2 2839   4.931   2.102   1.989 -0.5016 -1.1927 -2.3250
  959TIP3   OH2 2840   2.553   2.605   3.242 -0.0467  0.0818  0.2102
  959TIP3    H1 2841   2.573   2.529   3.188 -0.4238  0.6875 -0.8201
  959TIP3    H2 2842   2.458   2.612   3.240 -0.0806  0.0068  1.1248
  960TIP3   OH2 2843   3.706   6.045   1.790  0.2287  0.1274  0.0758
  960TIP3    H1 2844   3.643   5.981   1.758  1.6123 -1.6968  0.8010
  960TIP3    H2 2845   3.786   6.026   1.741  0.7372  1.1223  0.4956
  961TIP3   OH2 2846   4.509   2.001   5.502 -0.1962 -0.6437 -0.2197
  961TIP3    H1 2847   4.574   2.021   5.571 -0.1187  0.1635 -0.5175
  961TIP3    H2 2848   4.557   1.946   5.440  0.7273  1.2523 -1.2668
  962TIP3   OH2 2849   6.754   3.513   5.073 -0.2090 -0.2821 -0.6481
  962TIP3    H1 2850   6.844   3.502   5.103 -0.1639  0.5694 -0.4562
  962TIP3    H2 2851   6.732   3.429   5.033  0.5288 -0.6359 -0.3312
  963TIP3   OH2 2852   6.637   4.688   0.175 -0.4173  0.2297 -0.9300
  963TIP3    H1 2853   6.569   4.652   0.231 -0.0242 -1.4388 -1.4801
  963TIP3    H2 2854   6.589   4.738   0.108 -0.9511  0.9516 -0.0391
  964TIP3   OH2 2855   0.760   6.267   1.496 -0.2062 -0.0326 -0.1892
  964TIP3    H1 2856   0.796   6.344   1.452 -0.6820  1.2369  1.5501
  964TIP3    H2 2857   0.834   6.233   1.548 -0.0447 -0.6649 -0.8216
  965TIP3   OH2 2858   2.814   1.818   0.983 -0.2893  0.3507 -0.1982
  965TIP3    H1 2859   2.812   1.819   0.888 -1.3272 -0.8951 -0.2258
  965TIP3    H2 2860   2.877   1.748   1.005  1.1008  1.6347  0.0789
  966TIP3   OH2 2861   3.918   0.305   1.877 -1.5591 -0.1287 -0.3658
  966TIP3    H1 2862   3.839   0.264   1.843 -0.3946 -1.6119 -1.4147
  966TIP3    H2 2863   3.947   0.248   1.948 -2.9660  1.9899  2.1027
  967TIP3   OH2 2864   5.031   4.813   1.283 -0.3930  0.0042  0.1040
  967TIP3    H1 2865   5.046   4.790   1.375 -2.8485 -0.5350  0.4535
  967TIP3    H2 2866   4.954   4.870   1.285  1.9665  3.5773 -1.3059
  968TIP3   OH2 2867   0.511   2.091   5.874  0.0606  0.0672  0.6817
  968TIP3    H1 2868   0.534   1.998   5.870  2.0006  0.5370 -0.1371
  968TIP3    H2 2869   0.585   2.136   5.834 -1.8805  1.8394 -1.2086
  969TIP3   OH2 2870   2.424   1.206   0.636  0.2486 -0.2457  0.0785
  969TIP3    H1 2871   2.519   1.211   0.637  0.3351 -1.4408  0.0959
  969TIP3    H2 2872   2.400   1.206   0.543  0.2510  0.1524  0.0754
  970TIP3   OH2 2873   6.572   0.018   4.405  0.2233  0.5235  0.5851
  970TIP3    H1 2874   6.497   0.062   4.445 -1.6169 -1.6508 -0.2811
  970TIP3    H2 2875   6.567   0.041   4.312 -0.3889 -0.9170  0.2361
  971TIP3   OH2 2876   5.597   1.147   4.280 -0.3539  0.1306 -0.4772
  971TIP3    H1 2877   5.666   1.153   4.214 -1.5129  1.0812 -1.6567
  971TIP3    H2 2878   5.641   1.165   4.363  1.0075 -0.3850 -1.0663
  972TIP3   OH2 2879   5.734   3.141   5.066 -0.4512 -0.2654  0.4585
  972TIP3    H1 2880   5.744   3.072   5.000  1.4392 -0.6543  1.0683
  972TIP3    H2 2881   5.717   3.220   5.016  2.5873 -0.2296 -0.7255
  973TIP3   OH2 2882   1.163   3.083   1.375 -0.7563  0.0654  0.1782
  973TIP3    H1 2883   1.146   3.089   1.469 -0.1393  0.3105  0.2776
  973TIP3    H2 2884   1.237   3.141   1.360 -1.8894  1.3283 -0.7438
  974TIP3   OH2 2885   5.292   4.941   5.916  0.0363 -0.2986  0.6027
  974TIP3    H1 2886   5.213   4.971   5.871  0.3340 -0.6188 -0.1497
  974TIP3    H2 2887   5.353   5.015   5.908  0.2737 -0.5505 -0.0031
  975TIP3   OH2 2888   3.966   0.385   1.381  0.3650 -0.6387  0.3254
  975TIP3    H1 2889   3.991   0.306   1.333  0.2579 -0.3995 -0.1374
  975TIP3    H2 2890   3.878   0.366   1.414  0.3279 -0.7024  0.1902
  976TIP3   OH2 2891   0.944   2.281   2.627  0.3394 -0.2443 -0.1367
  976TIP3    H1 2892   1.002   2.208   2.646 -0.4692 -0.6851  0.7225
  976TIP3    H2 2893   0.876   2.244   2.571  1.1023  0.3749 -1.5237
  977TIP3   OH2 2894   4.616   4.288   3.170 -0.0965 -0.2149  0.1125
  977TIP3    H1 2895   4.576   4.223   3.229 -0.9574 -0.8138 -1.0756
  977TIP3    H2 2896   4.660   4.235   3.103 -0.2801  0.4211 -0.5237
  978TIP3   OH2 2897   0.051   5.688   0.416 -1.0237  0.2333 -0.8245
  978TIP3    H1 2898  -0.006   5.611   0.427  1.6955 -1.8419  0.0356
  978TIP3    H2 2899   0.118   5.659   0.353  0.6784  1.4896  0.3201
  979TIP3   OH2 2900   3.404   4.003   4.834 -0.1937 -0.1661  0.4546
  979TIP3    H1 2901   3.466   3.937   4.805  0.4972 -0.1573  1.8601
  979TIP3    H2 2902   3.454   4.059   4.893  0.2027  3.6248 -3.0245
  980TIP3   OH2 2903   6.260   6.036   5.525 -0.3844 -0.1620 -0.2397
  980TIP3    H1 2904   6.222   5.949   5.536 -1.9777  0.4522 -0.5809
  980TIP3    H2 2905   6.221   6.069   5.444  1.9206  0.0234 -1.3416
  981TIP3   OH2 2906   0.081   1.225   3.273 -0.0009  0.6495 -0.2955
  981TIP3    H1 2907   0.038   1.306   3.302 -0.6304  0.8165 -1.6421
  981TIP3    H2 2908   0.010   1.169   3.243  0.5010 -0.1157 -0.0789
  982TIP3   OH2 2909   0.178   1.468   5.870  0.6837  0.0479 -0.2647
  982TIP3    H1 2910   0.273   1.477   5.864  0.8981 -0.8348  1.3669
  982TIP3    H2 2911   0.160   1.378   5.842  0.5773 -0.4534  1.2958
  983TIP3   OH2 2912   0.067   6.620   5.628  0.8411  0.4194  0.4110
  983TIP3    H1 2913   0.041   6.687   5.691  1.8079 -0.2332  1.5390
  983TIP3    H2 2914   0.138   6.659   5.577  0.8211  0.5511  0.4856
  984TIP3   OH2 2915   6.591   6.718   1.735 -0.2981  1.4054  0.3754
  984TIP3    H1 2916   6.613   6.642   1.788  0.2024  0.6883 -0.8211
  984TIP3    H2 2917   6.556   6.681   1.654  4.1748  2.1974 -2.2102
  985TIP3   OH2 2918   3.256   0.835   4.225  0.5030 -0.1897 -0.2647
  985TIP3    H1 2919   3.243   0.838   4.320 -0.1281  1.2673 -0.3587
  985TIP3    H2 2920   3.346   0.863   4.212  0.4647  0.0109 -0.1055
  986TIP3   OH2 2921   5.918   3.508   0.821 -0.5444  0.2793 -0.2515
  986TIP3    H1 2922   5.888   3.588   0.865 -0.8301  0.7295 -1.2557
  986TIP3    H2 2923   5.838   3.458   0.806 -0.7998  1.2499 -2.4698
  987TIP3   OH2 2924   2.001   6.195   1.135  0.4002  0.1019 -0.0641
  987TIP3    H1 2925   2.013   6.153   1.050 -0.9288 -1.3873  0.4578
  987TIP3    H2 2926   1.955   6.277   1.116 -1.0040 -0.8063 -0.6865
  988TIP3   OH2 2927   2.205   5.265   3.201  0.1958 -0.3534  0.1918
  988TIP3    H1 2928   2.199   5.170   3.211 -0.3173 -0.1971  1.5541
  988TIP3    H2 2929   2.117   5.292   3.176  0.5293 -0.2921 -1.0205
  989TIP3   OH2 2930   1.605   2.207   4.528 -0.1110  0.1571 -0.1490
  989TIP3    H1 2931   1.547   2.160   4.468 -1.1076  0.2999  0.6731
  989TIP3    H2 2932   1.584   2.300   4.514  0.0798  0.2212 -0.0124
  990TIP3   OH2 2933   3.129   0.647   2.861  0.1165 -0.2644  0.2470
  990TIP3    H1 2934   3.080   0.689   2.931 -0.1363  3.1198 -1.7630
  990TIP3    H2 2935   3.204   0.705   2.846  0.5309 -1.2259 -1.7811
  991TIP3   OH2 2936   2.625   1.720   5.818 -0.1175 -0.6020 -0.4274
  991TIP3    H1 2937   2.680   1.742   5.893 -0.3658  0.4858 -0.5476
  991TIP3    H2 2938   2.623   1.625   5.817  2.3695 -0.7124 -0.8646
  992TIP3   OH2 2939   5.101   6.193   2.519 -0.0496 -0.0256  0.0994
  992TIP3    H1 2940   5.048   6.223   2.593 -0.6707 -0.0287 -0.3290
  992TIP3    H2 2941   5.049   6.123   2.480  1.2028 -1.4468  0.8644
  993TIP3   OH2 2942   2.206   1.677   3.041 -0.0595  0.4827  0.1993
  993TIP3    H1 2943   2.287   1.630   3.022 -0.0923  0.2316  0.6619
  993TIP3    H2 2944   2.234   1.754   3.092 -0.2424 -0.4640  1.8085
  994TIP3   OH2 2945   4.016   5.704   0.459  0.1634 -0.4034  0.7052
  994TIP3    H1 2946   4.061   5.767   0.515  0.2340  1.9902 -1.8034
  994TIP3    H2 2947   4.081   5.682   0.392 -1.5330  1.3039 -1.6588
  995TIP3   OH2 2948   2.716   3.018   1.202  0.5367  0.2187 -0.2653
  995TIP3    H1 2949   2.652   2.999   1.271  2.0869 -0.6149  1.0384
  995TIP3    H2 2950   2.674   3.083   1.147 -2.3948 -1.9937 -0.9144
  996TIP3   OH2 2951   3.850   2.038   1.517 -0.0912  0.3339  0.1558
  996TIP3    H1 2952   3.838   1.984   1.439 -0.7476  1.5661 -0.6225
  996TIP3    H2 2953   3.765   2.037   1.560  0.5878 -1.4008  1.6205
  997TIP3   OH2 2954   1.551   4.629   4.845  0.4275  0.2231  0.5480
  997TIP3    H1 2955   1.487   4.686   4.889  0.0629 -1.9143  3.0360
  997TIP3    H2 2956   1.585   4.682   4.773 -3.6747  1.6963 -0.5899
  998TIP3   OH2 2957   2.777   1.525   5.022 -0.2140  0.2312 -0.1025
  998TIP3    H1 2958   2.796   1.528   4.928 -1.2170  0.2449 -0.3164
  998TIP3    H2 2959   2.688   1.490   5.027 -0.0578 -0.0440  0.8611
  999TIP3   OH2 2960   0.085   4.485   1.417 -0.0843  0.5954  0.3274
  999TIP3    H1 2961   0.018   4.436   1.370 -1.1270  0.3701  1.9817
  999TIP3    H2 2962   0.068   4.467   1.510  1.6780  1.3022  0.8323
 1000TIP3   OH2 2963   1.635   1.725   1.372 -0.5457 -0.0076  0.0264
 1000TIP3    H1 2964   1.596   1.805   1.407 -0.0953  0.6764 -0.9906
 1000TIP3    H2 2965   1.728   1.732   1.394 -0.4571 -0.1156 -0.3022
 1001TIP3   OH2 2966   4.004   3.060   2.613 -0.8816  0.4078 -0.0389
 1001TIP3    H1 2967   4.073   3.102   2.664 -1.2029  0.3230  0.4771
 1001TIP3    H2 2968   3.960   3.002   2.676 -0.9071 -0.1477 -0.5553
 1002TIP3   OH2 2969   5.439   0.890   5.507 -0.1366  0.1667  0.4242
 1002TIP3    H1 2970   5.528   0.924   5.510  0.2034 -0.7581  2.0841
 1002TIP3    H2 2971   5.385   0.961   5.543 -0.4313  1.5331 -2.4277
 1003TIP3   OH2 2972   2.114   1.693   5.118  0.3663 -0.5195  0.2542
 1003TIP3    H1 2973   2.082   1.732   5.037  2.0300 -0.3363 -0.3528
 1003TIP3    H2 2974   2.046   1.631   5.144 -1.1842  0.9601 -0.0967
 1004TIP3   OH2 2975   4.040   1.725   1.036  0.4464 -0.4307  1.1305
 1004TIP3    H1 2976   3.996   1.808   1.017 -0.5377 -1.4345 -1.5270
 1004TIP3    H2 2977   4.039   1.718   1.131 -1.5020  1.5374  1.3340
 1005TIP3   OH2 2978   5.721   2.888   2.062  0.0488  0.0313 -0.4185
 1005TIP3    H1 2979   5.632   2.854   2.072 -0.6971  1.5939 -1.5389
 1005TIP3    H2 2980   5.727   2.959   2.126  0.0135  0.8252 -1.2814
 1006TIP3   OH2 2981   2.975   0.625   1.503  0.4173 -0.4052  0.2908
 1006TIP3    H1 2982   2.908   0.677   1.547 -1.2586 -2.0236 -0.2098
 1006TIP3    H2 2983   3.032   0.594   1.573 -1.4842 -1.9249  1.2567
 1007TIP3   OH2 2984   3.182   2.099   3.930  0.3187  0.0002 -0.8972
 1007TIP3    H1 2985   3.097   2.078   3.969  1.2608 -1.2325  0.5772
 1007TIP3    H2 2986   3.202   2.187   3.962 -0.2461  0.1631 -0.9853
 1008TIP3   OH2 2987   3.620   1.330   2.312 -0.1107 -0.7775  0.3541
 1008TIP3    H1 2988   3.669   1.372   2.242 -1.1170  0.0887  0.1411
 1008TIP3    H2 2989   3.591   1.402   2.368 -0.6145 -1.3216  0.8067
 1009TIP3   OH2 2990   7.172   2.885   3.941 -0.1426  0.5233  0.4779
 1009TIP3    H1 2991   7.123   2.803   3.952  1.2436 -0.2058  1.5066
 1009TIP3    H2 2992   7.166   2.928   4.026  0.1365  0.9391  0.2889
 1010TIP3   OH2 2993   0.249   0.297   0.082 -0.1671  0.5080 -0.1474
 1010TIP3    H1 2994   0.287   0.363   0.140  0.2554  1.3111 -1.3040
 1010TIP3    H2 2995   0.168   0.270   0.125 -0.9705  2.6505 -0.2209
 1011TIP3   OH2 2996   5.369   0.088   4.175  0.1679  0.0598  0.0238
 1011TIP3    H1 2997   5.283   0.057   4.203 -0.1208  0.5021 -0.3728
 1011TIP3    H2 2998   5.430   0.044   4.234 -0.4807  1.6954  2.0434
 1012TIP3   OH2 2999   6.267   0.254   3.699  0.8284  0.3483  0.4054
 1012TIP3    H1 3000   6.191   0.297   3.738 -0.1362 -1.7115  0.9829
 1012TIP3    H2 3001   6.341   0.283   3.752  0.3601  1.8414  0.2824
 1013TIP3   OH2 3002   1.512   0.524   1.061  0.1302 -0.0106  0.5016
 1013TIP3    H1 3003   1.529   0.444   1.110  1.1081 -0.2517 -0.2021
 1013TIP3    H2 3004   1.572   0.589   1.099 -0.7842  0.4575  1.1901
 1014TIP3   OH2 3005   4.083   2.639   4.355  0.4993  0.2271  0.0387
 1014TIP3    H1 3006   4.124   2.700   4.416  1.4411  0.0563 -0.3964
 1014TIP3    H2 3007   3.993   2.629   4.387  0.8039  0.5889  1.0454
 1015TIP3   OH2 3008   6.818   2.564   3.124 -0.9330  0.5226  0.0362
 1015TIP3    H1 3009   6.769   2.538   3.202 -0.6480 -0.1567  0.0015
 1015TIP3    H2 3010   6.895   2.506   3.124 -1.1284  0.2478 -0.9494
 1016TIP3   OH2 3011   5.736   3.599   1.302  0.5872 -0.6097 -0.4689
 1016TIP3    H1 3012   5.692   3.625   1.221 -0.4123 -2.5657 -0.6075
 1016TIP3    H2 3013   5.800   3.533   1.275 -0.2893 -1.8565  0.3865
 1017TIP3   OH2 3014   3.841   3.365   0.039  0.2017  0.5140 -0.0546
 1017TIP3    H1 3015   3.845   3.290  -0.021 -0.8665  1.1590 -0.9787
 1017TIP3    H2 3016   3.771   3.344   0.100  1.1052 -0.0182  0.8321
 1018TIP3   OH2 3017  -0.002   4.715   3.259 -0.5175  0.3996 -0.3274
 1018TIP3    H1 3018  -0.027   4.807   3.245 -2.6698 -0.3194 -1.7945
 1018TIP3    H2 3019   0.093   4.714   3.249 -0.4369  2.4552 -0.2635
 1019TIP3   OH2 3020   1.095   2.547   5.393 -0.5167 -1.1427  0.2616
 1019TIP3    H1 3021   1.005   2.526   5.417 -1.4294  2.1711  0.2605
 1019TIP3    H2 3022   1.129   2.598   5.467  0.8546 -1.1024 -0.3538
 1020TIP3   OH2 3023   0.405   3.235   4.516  0.4323 -0.4279 -0.2975
 1020TIP3    H1 3024   0.467   3.298   4.552 -0.9111 -0.6828  2.7596
 1020TIP3    H2 3025   0.332   3.288   4.486 -0.7595 -0.3674  2.3974
 1021TIP3   OH2 3026   6.100   1.176   0.653 -0.0152 -0.0493 -0.0618
 1021TIP3    H1 3027   6.042   1.124   0.597 -0.5582 -0.8624  1.2162
 1021TIP3    H2 3028   6.041   1.227   0.709  0.4989  1.9655 -1.2293
 1022TIP3   OH2 3029   2.340   5.330   1.529 -0.1251  0.2759  0.4542
 1022TIP3    H1 3030   2.319   5.282   1.449  0.3254 -1.2795  1.2470
 1022TIP3    H2 3031   2.375   5.414   1.498  0.3545 -0.4298 -0.9833
 1023TIP3   OH2 3032   3.721   0.304   5.381  0.1384 -0.0199  0.2890
 1023TIP3    H1 3033   3.666   0.315   5.458  1.1432  0.6306  0.9314
 1023TIP3    H2 3034   3.684   0.365   5.316  0.6612  1.1049  1.0308
 1024TIP3   OH2 3035   1.602   2.332   0.981 -0.5413  0.8774  0.0237
 1024TIP3    H1 3036   1.662   2.269   0.941 -0.7037 -1.0703  2.5442
 1024TIP3    H2 3037   1.660   2.395   1.025 -0.3800  1.6794 -1.3038
 1025TIP3   OH2 3038   3.442   1.801   2.837 -0.3445  0.2410 -0.5290
 1025TIP3    H1 3039   3.379   1.768   2.772 -0.6234 -0.3066  0.0079
 1025TIP3    H2 3040   3.478   1.881   2.798 -0.0518 -0.4126 -1.6245
 1026TIP3   OH2 3041   0.482   3.510   3.540 -0.0379 -0.0285  0.0480
 1026TIP3    H1 3042   0.542   3.543   3.606 -0.1755  1.1890 -0.4117
 1026TIP3    H2 3043   0.410   3.471   3.590  0.0649  0.5003  0.6142
 1027TIP3   OH2 3044   1.264   1.390   4.892  0.1875  0.1823  0.0455
 1027TIP3    H1 3045   1.305   1.360   4.973  0.8707  0.8661 -0.0361
 1027TIP3    H2 3046   1.328   1.450   4.853 -0.9211  1.3992 -0.0047
 1028TIP3   OH2 3047   1.764   3.504   5.447 -0.1375  0.4006  0.9181
 1028TIP3    H1 3048   1.829   3.571   5.425  1.3095 -0.3282  2.6262
 1028TIP3    H2 3049   1.683   3.552   5.463  0.6802  1.6658  1.3970
 1029TIP3   OH2 3050   0.242   4.501   4.876  0.1938  0.2806 -0.2658
 1029TIP3    H1 3051   0.227   4.575   4.935  0.9328  0.5950 -0.4542
 1029TIP3    H2 3052   0.310   4.532   4.816 -0.1323 -0.2366 -0.9186
 1030TIP3   OH2 3053   4.583   1.744   3.731  0.3117  0.0922  0.1996
 1030TIP3    H1 3054   4.631   1.685   3.673 -0.5512 -0.8865  0.4466
 1030TIP3    H2 3055   4.630   1.827   3.726  0.7928 -0.2474 -1.1639
 1031TIP3   OH2 3056   5.563   5.771   2.994 -0.0031 -0.6186  0.2453
 1031TIP3    H1 3057   5.581   5.693   2.942  2.3451  0.1215 -0.1825
 1031TIP3    H2 3058   5.603   5.754   3.079 -1.3819 -0.7040  0.9033
 1032TIP3   OH2 3059   3.732   6.578   0.407  0.3818  0.1267 -0.0444
 1032TIP3    H1 3060   3.689   6.596   0.324  0.5113  0.1931 -0.0969
 1032TIP3    H2 3061   3.661   6.578   0.471  0.5613  2.7634  0.2632
 1033TIP3   OH2 3062   0.898   0.315   3.011 -0.1498  0.0688 -0.1926
 1033TIP3    H1 3063   0.808   0.284   3.022  0.0324 -1.5295 -2.5187
 1033TIP3    H2 3064   0.927   0.337   3.099 -3.0723  1.4542  0.5397
 1034TIP3   OH2 3065   1.679   5.372   4.579 -0.2148 -0.5902 -0.3052
 1034TIP3    H1 3066   1.652   5.460   4.552 -0.3929 -0.8045 -0.8348
 1034TIP3    H2 3067   1.767   5.384   4.616  0.1784 -0.3422 -1.3032
 1035TIP3   OH2 3068   5.720   1.386   1.396 -0.5170 -0.5749  0.0669
 1035TIP3    H1 3069   5.710   1.291   1.391 -0.8112 -0.5457  0.0535
 1035TIP3    H2 3070   5.803   1.404   1.352 -0.1766 -0.8777  0.5730
 1036TIP3   OH2 3071   6.136   4.083   0.937 -0.2967  0.3940 -0.2799
 1036TIP3    H1 3072   6.112   4.171   0.909 -0.5446 -0.0418 -1.5421
 1036TIP3    H2 3073   6.068   4.027   0.899 -0.9502 -0.2266  1.6863
 1037TIP3   OH2 3074   4.647   0.007   1.029 -0.5004  0.5666 -0.5829
 1037TIP3    H1 3075   4.695   0.039   1.106 -0.9297  3.6109 -1.4252
 1037TIP3    H2 3076   4.714  -0.003   0.961 -0.2816 -1.0383 -0.1643
 1038TIP3   OH2 3077   1.938   4.199   5.218 -0.6164  0.0587  0.0002
 1038TIP3    H1 3078   1.987   4.150   5.283 -0.0962 -0.1449 -0.5343
 1038TIP3    H2 3079   1.995   4.271   5.193 -0.5714 -0.1845 -0.6334
 1039TIP3   OH2 3080   0.374   1.066   4.534 -0.4883 -0.0988  0.1681
 1039TIP3    H1 3081   0.393   1.047   4.442 -2.7661 -1.4259 -0.0872
 1039TIP3    H2 3082   0.295   1.119   4.532 -0.7337 -0.3922  1.3605
 1040TIP3   OH2 3083   1.252   4.058   1.140 -0.3562 -0.5675  0.0393
 1040TIP3    H1 3084   1.319   4.015   1.087 -1.4273 -1.2284 -0.8199
 1040TIP3    H2 3085   1.190   4.094   1.076  0.2398  1.8881  0.7387
 1041TIP3   OH2 3086   4.923   3.887   5.300 -0.1275  0.1622  0.2809
 1041TIP3    H1 3087   4.867   3.928   5.233 -1.1952 -0.0408  1.0209
 1041TIP3    H2 3088   4.946   3.959   5.359  1.5773  0.5308 -0.7735
 1042TIP3   OH2 3089   6.420   5.688   3.028  0.7155 -0.2218  0.5523
 1042TIP3    H1 3090   6.368   5.614   3.058  1.1411 -0.5083  0.5811
 1042TIP3    H2 3091   6.407   5.690   2.933  0.8747 -0.4618  0.5262
 1043TIP3   OH2 3092   5.985   6.011   4.309 -0.2613 -0.1445 -0.1687
 1043TIP3    H1 3093   5.912   6.055   4.266  1.5350  1.0944 -2.1234
 1043TIP3    H2 3094   5.960   5.919   4.309 -1.3520  0.1028 -1.8201
 1044TIP3   OH2 3095   3.486   5.710   1.258  0.0443 -0.1575 -0.0457
 1044TIP3    H1 3096   3.541   5.636   1.231  0.2366 -0.6975  1.6936
 1044TIP3    H2 3097   3.423   5.721   1.187  2.8470  1.0335 -2.5681
 1045TIP3   OH2 3098   2.663   3.912   0.316 -0.2972 -0.7622 -0.1650
 1045TIP3    H1 3099   2.697   3.985   0.367  1.7424 -2.1092  0.5443
 1045TIP3    H2 3100   2.715   3.913   0.235 -1.3649 -0.5028 -0.8702
 1046TIP3   OH2 3101   1.272   0.810   5.437  0.2368  0.2410 -0.4907
 1046TIP3    H1 3102   1.338   0.880   5.441  0.3066  0.1456  1.7726
 1046TIP3    H2 3103   1.318   0.732   5.468 -0.7612  0.0394  0.5598
 1047TIP3   OH2 3104   3.942   4.037   0.979  0.2388 -0.1615  0.1639
 1047TIP3    H1 3105   3.994   3.976   1.032 -0.1612 -0.8634 -0.2235
 1047TIP3    H2 3106   4.000   4.110   0.961  1.0885 -0.9045 -0.2160
 1048TIP3   OH2 3107   1.327   1.688   2.216 -0.1235  0.1695  0.2503
 1048TIP3    H1 3108   1.406   1.634   2.211 -0.1173  0.1510  0.5101
 1048TIP3    H2 3109   1.256   1.625   2.234 -0.3871  0.0376 -1.1406
 1049TIP3   OH2 3110   1.935   2.448   2.823 -0.3750 -0.4422 -0.0232
 1049TIP3    H1 3111   1.904   2.497   2.899 -1.6763 -0.8686 -0.2517
 1049TIP3    H2 3112   2.017   2.490   2.799 -1.2651  1.3876  0.0178
 1050TIP3   OH2 3113   5.929   1.229   5.274  0.0946 -0.1514  0.1367
 1050TIP3    H1 3114   5.903   1.208   5.184 -1.6021 -0.0476  0.5751
 1050TIP3    H2 3115   5.879   1.307   5.296  1.6898  0.7725  0.6559
 1051TIP3   OH2 3116   0.308   0.112   3.378  0.0032 -0.1940  0.6949
 1051TIP3    H1 3117   0.231   0.080   3.425 -0.9273 -1.5742 -1.6063
 1051TIP3    H2 3118   0.285   0.102   3.286  2.8981 -0.5650 -0.0720
 1052TIP3   OH2 3119   1.680   0.178   1.785  0.0286  0.5388 -0.0699
 1052TIP3    H1 3120   1.710   0.091   1.762 -1.9644 -0.1921 -0.0888
 1052TIP3    H2 3121   1.644   0.169   1.873 -0.6577  1.2083 -0.2658
 1053TIP3   OH2 3122   4.421   1.625   0.021 -0.7319 -0.1047 -0.1248
 1053TIP3    H1 3123   4.495   1.638  -0.038 -1.6523 -0.9501 -1.5549
 1053TIP3    H2 3124   4.402   1.712   0.056  0.1212  0.3443 -0.7370
 1054TIP3   OH2 3125   5.276   3.577   2.413  0.2354  0.5890  0.3066
 1054TIP3    H1 3126   5.297   3.498   2.363  1.0501  1.5685 -0.9707
 1054TIP3    H2 3127   5.187   3.599   2.386 -0.2516 -0.2402  1.1770
 1055TIP3   OH2 3128   1.760   5.912   3.304 -0.1877 -0.4165 -0.1086
 1055TIP3    H1 3129   1.734   5.823   3.328 -0.1361 -0.3502  0.1924
 1055TIP3    H2 3130   1.685   5.946   3.256 -1.3232  0.3122  2.0551
 1056TIP3   OH2 3131   1.140   5.820   2.438  0.1374  0.7226 -0.3343
 1056TIP3    H1 3132   1.214   5.760   2.444 -0.5858 -0.4736 -2.2913
 1056TIP3    H2 3133   1.112   5.833   2.528  3.0377  1.6724  0.5320
 1057TIP3   OH2 3134   6.476   5.825   0.447 -0.1165  0.3338 -0.0348
 1057TIP3    H1 3135   6.551   5.811   0.388  1.1334  1.1131  1.2978
 1057TIP3    H2 3136   6.459   5.919   0.440  0.0409  0.4299  0.8350
 1058TIP3   OH2 3137   3.352   0.535   4.782  0.4000 -0.2743  0.3588
 1058TIP3    H1 3138   3.299   0.596   4.833  0.7114  0.1075  0.2321
 1058TIP3    H2 3139   3.393   0.478   4.847  2.4679  1.5098  0.7662
 1059TIP3   OH2 3140   1.369   2.080   0.420  0.2743 -0.5910 -0.1029
 1059TIP3    H1 3141   1.413   2.162   0.397 -2.2934  1.2479  1.0535
 1059TIP3    H2 3142   1.361   2.083   0.515 -0.9648 -1.5902 -0.1530
 1060TIP3   OH2 3143   4.086   2.573   0.826 -0.1839 -0.0707 -0.3390
 1060TIP3    H1 3144   3.997   2.564   0.793 -0.6583 -3.4955  1.4686
 1060TIP3    H2 3145   4.075   2.589   0.920  1.0809 -1.4985  0.0826
 1061TIP3   OH2 3146   4.249   5.418   2.575  0.2585 -0.1178 -0.1185
 1061TIP3    H1 3147   4.198   5.450   2.501  0.0112 -2.4015 -1.0295
 1061TIP3    H2 3148   4.325   5.476   2.578  1.0331 -0.8003 -3.1402
 1062TIP3   OH2 3149   1.851   4.090   0.723 -0.1465 -0.0333  0.2840
 1062TIP3    H1 3150   1.832   4.183   0.719 -1.8484 -0.3317  0.7142
 1062TIP3    H2 3151   1.769   4.047   0.702  0.9958 -1.4758 -1.5016
 1063TIP3   OH2 3152   6.617   0.245   0.348  0.4299  0.4657 -0.1018
 1063TIP3    H1 3153   6.558   0.210   0.415  1.0907 -1.1260 -0.3126
 1063TIP3    H2 3154   6.619   0.177   0.280  1.6866  0.9610 -0.5837
 1064TIP3   OH2 3155   4.701   5.117   0.282 -0.1126 -0.0246  0.4939
 1064TIP3    H1 3156   4.689   5.121   0.187  0.2526  1.8943  0.4797
 1064TIP3    H2 3157   4.789   5.080   0.293  0.0341  0.1807  0.0553
 1065TIP3   OH2 3158   1.087   6.367   3.072 -0.1177  0.4992  0.1976
 1065TIP3    H1 3159   1.159   6.328   3.121  0.5587  1.0533 -0.3337
 1065TIP3    H2 3160   1.089   6.324   2.986 -1.9202 -1.1931  0.9105
 1066TIP3   OH2 3161   5.001   3.181   2.980  0.3923 -0.4879  0.4263
 1066TIP3    H1 3162   4.966   3.249   2.923  0.6357  0.3662  1.2722
 1066TIP3    H2 3163   5.076   3.145   2.932  1.3406  1.0545  0.7188
 1067TIP3   OH2 3164   0.525   1.238   4.089 -0.2592 -0.0690  0.6205
 1067TIP3    H1 3165   0.462   1.193   4.146 -0.6822 -0.3743 -0.0651
 1067TIP3    H2 3166   0.481   1.241   4.004  0.9369 -0.9448 -0.0579
 1068TIP3   OH2 3167   1.913   1.016   0.712 -0.1410  0.4307  0.0849
 1068TIP3    H1 3168   1.955   0.931   0.727 -1.1734 -0.1429 -0.2152
 1068TIP3    H2 3169   1.820   0.996   0.700 -0.3067  1.5299 -0.6703
 1069TIP3   OH2 3170   6.778   6.679   2.433 -0.2850  0.0554 -0.0114
 1069TIP3    H1 3171   6.699   6.644   2.473 -0.7899  1.7323  0.5484
 1069TIP3    H2 3172   6.831   6.708   2.507  0.7158 -0.7046 -0.3981
 1070TIP3   OH2 3173   3.298   5.578   2.113 -0.2486 -0.3314 -0.5913
 1070TIP3    H1 3174   3.339   5.493   2.105 -1.6008 -0.8849 -2.2722
 1070TIP3    H2 3175   3.343   5.633   2.049  0.0644 -0.0053 -0.0975
 1071TIP3   OH2 3176   1.522   5.806   4.012 -0.3703  0.1727 -0.1250
 1071TIP3    H1 3177   1.601   5.819   4.064 -0.7652  0.3610  0.4340
 1071TIP3    H2 3178   1.472   5.886   4.024 -0.6229  0.0794 -0.5307
 1072TIP3   OH2 3179   4.051   3.750   5.751  0.2617 -0.0079  0.4194
 1072TIP3    H1 3180   4.061   3.757   5.846 -0.5382 -1.2250  0.6137
 1072TIP3    H2 3181   3.966   3.790   5.732  1.8409  3.3466 -0.2642
 1073TIP3   OH2 3182   2.383   2.772   2.365 -0.5021  0.2308  0.3124
 1073TIP3    H1 3183   2.409   2.822   2.288  1.2745 -1.4201 -0.2106
 1073TIP3    H2 3184   2.440   2.804   2.435  0.1562 -0.5205  0.1386
 1074TIP3   OH2 3185   6.315   6.346   3.852 -0.4214 -0.1198 -0.6115
 1074TIP3    H1 3186   6.392   6.308   3.893 -1.6030 -0.9772  0.9499
 1074TIP3    H2 3187   6.333   6.440   3.848  1.0298 -0.4087 -1.0592
 1075TIP3   OH2 3188   1.404   3.512   2.785  0.0164  0.1221  0.1694
 1075TIP3    H1 3189   1.435   3.589   2.832 -0.2130  1.2336 -1.4291
 1075TIP3    H2 3190   1.474   3.491   2.723 -0.7121  0.2205 -0.7129
 1076TIP3   OH2 3191   0.344   1.202   1.240 -0.0537 -0.6635  0.3509
 1076TIP3    H1 3192   0.263   1.169   1.201 -0.2568  0.4883 -0.2238
 1076TIP3    H2 3193   0.317   1.242   1.323 -0.1196 -0.0109  0.0166
 1077TIP3   OH2 3194   6.595   2.658   5.452 -0.4070  0.2820  0.3521
 1077TIP3    H1 3195   6.687   2.679   5.437  0.0204 -0.6755  1.4604
 1077TIP3    H2 3196   6.551   2.744   5.454  0.2054  0.6813 -1.5353
 1078TIP3   OH2 3197   4.859   4.374   0.888  0.0162  0.0578  0.3615
 1078TIP3    H1 3198   4.866   4.288   0.847 -0.4715 -1.2616  2.8350
 1078TIP3    H2 3199   4.936   4.381   0.944  1.2146  2.2531 -1.3744
 1079TIP3   OH2 3200   2.945   5.826   4.588  0.6054  0.5968  0.0343
 1079TIP3    H1 3201   2.867   5.773   4.574  1.1661 -1.3140  3.2965
 1079TIP3    H2 3202   3.016   5.776   4.546  0.6743  0.2909  0.5126
 1080TIP3   OH2 3203   0.192   1.915   5.001 -0.3359 -0.1812  0.3405
 1080TIP3    H1 3204   0.136   1.988   5.025  1.5519  1.0074  1.4168
 1080TIP3    H2 3205   0.262   1.954   4.949  1.0853 -1.0659  1.4929
 1081TIP3   OH2 3206   3.212   5.966   1.376  0.0277 -0.2942 -0.0012
 1081TIP3    H1 3207   3.208   5.941   1.284  1.9494 -0.7541 -0.0087
 1081TIP3    H2 3208   3.131   5.934   1.414 -1.1460  0.5599 -1.6697
 1082TIP3   OH2 3209   1.323   3.371   1.182  0.2790  0.5964 -0.0883
 1082TIP3    H1 3210   1.395   3.352   1.243 -0.2872  1.1825  0.7910
 1082TIP3    H2 3211   1.332   3.464   1.162 -0.0669  0.6082 -0.1990
 1083TIP3   OH2 3212   4.891   0.179   4.137 -0.0516 -0.1116  0.2419
 1083TIP3    H1 3213   4.974   0.175   4.184 -0.2996 -0.6956  0.6421
 1083TIP3    H2 3214   4.842   0.249   4.179  0.3944  0.5198 -0.2676
 1084TIP3   OH2 3215   0.744   2.879   1.171  0.1342  0.3436 -0.3026
 1084TIP3    H1 3216   0.782   2.910   1.089  0.7074 -0.5441 -0.3841
 1084TIP3    H2 3217   0.674   2.819   1.144  0.1946  0.2018 -0.1513
 1085TIP3   OH2 3218   6.046   4.617   4.603 -0.1597  0.4059  0.3142
 1085TIP3    H1 3219   6.118   4.555   4.593  0.5214  1.3374 -0.7150
 1085TIP3    H2 3220   5.988   4.599   4.529 -1.9402 -1.4863  2.0391
 1086TIP3   OH2 3221   7.072   6.121   0.875  0.7895  0.0314 -0.5300
 1086TIP3    H1 3222   7.019   6.089   0.801 -0.2984  0.7595 -0.0983
 1086TIP3    H2 3223   7.014   6.182   0.921  1.1818 -0.8938  1.3188
 1087TIP3   OH2 3224   3.044   1.828   4.182  0.0215  1.0216 -0.1173
 1087TIP3    H1 3225   3.051   1.864   4.270  2.2132  0.1390  0.1327
 1087TIP3    H2 3226   2.966   1.773   4.185  0.8780 -0.2003  1.7895
 1088TIP3   OH2 3227   2.597   1.871   0.506 -0.5953 -0.2149  0.1429
 1088TIP3    H1 3228   2.556   1.860   0.592 -0.4368  0.9583  0.3807
 1088TIP3    H2 3229   2.525   1.893   0.448 -0.4735  0.7425  0.3392
 1089TIP3   OH2 3230   3.654   4.921   4.581 -0.2167  0.2121 -0.6703
 1089TIP3    H1 3231   3.674   4.953   4.669 -0.0099  1.3990 -1.1335
 1089TIP3    H2 3232   3.703   4.839   4.574  0.7265  0.7003 -0.0971
 1090TIP3   OH2 3233   2.469   5.222   4.959 -0.0007  0.1795 -0.1826
 1090TIP3    H1 3234   2.383   5.234   4.999 -1.1308 -2.1956 -1.6490
 1090TIP3    H2 3235   2.451   5.219   4.865  1.5168 -1.2880 -0.4735
 1091TIP3   OH2 3236   2.082   4.467   0.834  0.5390  0.6324 -0.6501
 1091TIP3    H1 3237   1.994   4.442   0.861  0.7619  0.1001 -0.4141
 1091TIP3    H2 3238   2.072   4.556   0.799 -0.2132  0.3203 -1.2687
 1092TIP3   OH2 3239   1.394   3.609   3.189  0.1790  0.2301  0.5571
 1092TIP3    H1 3240   1.490   3.608   3.194  0.1426 -0.3423  1.2895
 1092TIP3    H2 3241   1.374   3.677   3.124  1.1144 -0.3993 -0.4265
 1093TIP3   OH2 3242   0.158   5.421   0.896 -0.3911 -0.1710 -0.4488
 1093TIP3    H1 3243   0.210   5.454   0.970 -0.5715  2.6650 -1.4697
 1093TIP3    H2 3244   0.069   5.450   0.914 -0.5551 -0.0283 -1.4513
 1094TIP3   OH2 3245   5.609   3.220   0.355  0.2544 -0.2643  0.4090
 1094TIP3    H1 3246   5.592   3.256   0.268 -1.5536 -1.0481  0.4058
 1094TIP3    H2 3247   5.670   3.148   0.340  1.1150  0.5301 -0.0041
 1095TIP3   OH2 3248   0.317   3.118   5.433  0.0282 -0.2151 -0.1841
 1095TIP3    H1 3249   0.366   3.076   5.362 -1.0070 -1.4170 -0.2247
 1095TIP3    H2 3250   0.242   3.159   5.389 -0.6224 -0.9692  0.1950
 1096TIP3   OH2 3251   6.117   4.419   4.205  0.1148 -0.6003 -0.0685
 1096TIP3    H1 3252   6.095   4.358   4.135 -1.4687 -0.8764  0.6275
 1096TIP3    H2 3253   6.195   4.382   4.246 -0.2902 -1.6520 -0.2278
 1097TIP3   OH2 3254   6.880   5.363   1.057  0.4225  0.3924 -0.5803
 1097TIP3    H1 3255   6.818   5.302   1.016  0.9551 -1.1711  0.8260
 1097TIP3    H2 3256   6.856   5.448   1.021  0.2891 -0.7299 -3.3907
 1098TIP3   OH2 3257   5.081   2.032   1.057  0.4279  0.0082 -0.0924
 1098TIP3    H1 3258   5.028   1.969   1.106  0.0752  0.7106  0.4538
 1098TIP3    H2 3259   5.169   1.994   1.056  0.2965 -0.3280  0.5284
 1099TIP3   OH2 3260   6.657   6.614   2.680  0.1727 -0.0435  0.4857
 1099TIP3    H1 3261   6.566   6.595   2.700 -0.9275  2.8223 -1.2607
 1099TIP3    H2 3262   6.658   6.707   2.658  3.2976 -0.2623 -0.8337
 1100TIP3   OH2 3263   4.611   6.811   4.452 -0.0396  0.2127 -0.3038
 1100TIP3    H1 3264   4.683   6.758   4.484  1.7175  0.9726 -2.7035
 1100TIP3    H2 3265   4.541   6.748   4.433 -0.2223 -0.4993  2.3401
 1101TIP3   OH2 3266   4.099   1.779   0.102 -0.5237  0.0029 -0.4877
 1101TIP3    H1 3267   4.101   1.698   0.052 -2.6770  0.5077 -1.4923
 1101TIP3    H2 3268   4.163   1.836   0.059 -0.0631 -0.6542 -0.6789
 1102TIP3   OH2 3269   5.583   0.422   3.239  0.3098  0.5078  0.5839
 1102TIP3    H1 3270   5.582   0.515   3.261  0.7437  0.2094  1.9655
 1102TIP3    H2 3271   5.676   0.400   3.233  0.2174  0.0515  0.7838
 1103TIP3   OH2 3272   6.272   5.700   3.581  0.0174  0.3604 -0.0584
 1103TIP3    H1 3273   6.358   5.706   3.622 -0.7678 -0.1109  1.7805
 1103TIP3    H2 3274   6.248   5.791   3.563  0.3524  0.6010  0.6572
 1104TIP3   OH2 3275   1.873   5.759   5.338  0.6634  0.2771  0.2833
 1104TIP3    H1 3276   1.938   5.700   5.377  1.1178 -0.5140 -1.5313
 1104TIP3    H2 3277   1.792   5.740   5.385  1.2476 -0.3704  1.0593
 1105TIP3   OH2 3278   1.983   4.463   4.533 -0.0092  0.7123 -0.2740
 1105TIP3    H1 3279   2.062   4.420   4.567 -1.1678 -0.4172  1.0904
 1105TIP3    H2 3280   1.942   4.398   4.476 -0.6562  0.7948  0.0892
 1106TIP3   OH2 3281   3.099   6.723   0.370  0.4910 -0.5860 -0.5461
 1106TIP3    H1 3282   3.153   6.762   0.301  1.2252 -1.8511 -0.7173
 1106TIP3    H2 3283   3.055   6.650   0.327 -0.8150 -0.0148 -0.2143
 1107TIP3   OH2 3284   0.484   4.098   5.790 -0.1281 -0.2626  0.3216
 1107TIP3    H1 3285   0.409   4.115   5.733 -0.5882 -1.1344  0.6373
 1107TIP3    H2 3286   0.446   4.098   5.878  0.3238 -0.2747  0.5143
 1108TIP3   OH2 3287   1.472   3.859   2.282  0.1562 -0.6222 -0.4610
 1108TIP3    H1 3288   1.383   3.881   2.310  0.1626  1.4759 -1.8659
 1108TIP3    H2 3289   1.471   3.764   2.270 -2.0626 -0.5794 -0.9901
 1109TIP3   OH2 3290   0.041   4.127   5.072  0.2490 -0.1494  0.2924
 1109TIP3    H1 3291   0.113   4.099   5.015 -0.6568 -0.4052 -0.7474
 1109TIP3    H2 3292   0.084   4.147   5.155  1.7012  0.7913 -0.6285
 1110TIP3   OH2 3293   5.200   5.649   2.097  0.4386  0.1832  0.1503
 1110TIP3    H1 3294   5.189   5.583   2.028  0.2265 -0.4264  0.7564
 1110TIP3    H2 3295   5.256   5.716   2.057 -0.9510  0.6144 -1.1386
 1111TIP3   OH2 3296   5.906   3.925   1.254 -0.3142  0.6711 -0.1369
 1111TIP3    H1 3297   5.830   3.874   1.227  0.2073 -0.4647  0.4499
 1111TIP3    H2 3298   5.919   3.902   1.346  0.5241  1.1145 -0.1310
 1112TIP3   OH2 3299   6.477   6.741   0.345 -0.5232  0.3741 -0.3307
 1112TIP3    H1 3300   6.456   6.675   0.280  2.1178  0.1127 -0.9946
 1112TIP3    H2 3301   6.526   6.808   0.298 -0.9927  1.6141  0.8449
 1113TIP3   OH2 3302   3.049   5.054   2.177  0.8571 -0.2201  0.2046
 1113TIP3    H1 3303   3.002   5.098   2.249 -1.0517  0.2247 -1.2149
 1113TIP3    H2 3304   3.094   5.125   2.131 -1.1214  0.1784 -1.2805
 1114TIP3   OH2 3305   1.840   2.897   2.311  0.4982 -0.4357  0.1201
 1114TIP3    H1 3306   1.874   2.810   2.292  0.1127 -0.2816 -1.4115
 1114TIP3    H2 3307   1.753   2.881   2.349  1.2494 -0.7505  1.7792
 1115TIP3   OH2 3308   4.880   0.745   0.018  0.0135 -0.4301 -0.4114
 1115TIP3    H1 3309   4.787   0.742   0.037  0.5735 -0.6552  2.9294
 1115TIP3    H2 3310   4.911   0.656   0.038  1.3406  0.3717  1.2652
 1116TIP3   OH2 3311   0.248   4.511   4.513  0.2092  0.0463  0.4874
 1116TIP3    H1 3312   0.331   4.465   4.523  0.2735  0.0781  0.1385
 1116TIP3    H2 3313   0.182   4.446   4.535  0.3455  0.2352  1.4899
 1117TIP3   OH2 3314   6.155   5.095   5.667 -0.3442 -0.4473  0.2192
 1117TIP3    H1 3315   6.090   5.165   5.664 -1.0360 -1.1002 -0.5395
 1117TIP3    H2 3316   6.173   5.075   5.575  3.6211  2.1074  0.1517
 1118TIP3   OH2 3317   6.144   3.334   4.637 -0.4220 -0.9293  0.7362
 1118TIP3    H1 3318   6.199   3.410   4.656  1.0314 -2.2397  2.1378
 1118TIP3    H2 3319   6.059   3.355   4.675 -0.1352  0.1148  0.8206
 1119TIP3   OH2 3320   1.859   0.025   5.198  0.4862  0.2245 -0.4439
 1119TIP3    H1 3321   1.834   0.114   5.224 -0.3127 -0.9563  3.4183
 1119TIP3    H2 3322   1.776  -0.017   5.175  0.2476 -0.5671  1.6504
 1120TIP3   OH2 3323   6.004   6.568   5.098  0.5908 -0.0048 -0.2436
 1120TIP3    H1 3324   5.912   6.590   5.112  0.7347  1.1712 -1.0553
 1120TIP3    H2 3325   6.052   6.632   5.151  0.9646 -0.1838 -0.3628
 1121TIP3   OH2 3326   4.188   2.862   4.468  0.2920 -0.1574 -0.3212
 1121TIP3    H1 3327   4.144   2.856   4.553 -1.0599 -0.4160 -1.0019
 1121TIP3    H2 3328   4.207   2.955   4.457 -0.5765  0.0430 -0.2210
 1122TIP3   OH2 3329   0.789   5.787   5.383 -0.0476  0.3052 -0.7363
 1122TIP3    H1 3330   0.879   5.756   5.392  1.1231  3.6906  0.7983
 1122TIP3    H2 3331   0.785   5.827   5.296 -1.1992 -2.6206 -2.1956
 1123TIP3   OH2 3332   2.658   4.533   4.629 -0.0186 -0.3127 -0.4491
 1123TIP3    H1 3333   2.604   4.502   4.557  1.2160 -0.9033 -1.1504
 1123TIP3    H2 3334   2.686   4.453   4.674  1.4989 -0.1404 -1.0246
 1124TIP3   OH2 3335   6.665   4.342   4.333 -0.1892 -0.6375 -0.3603
 1124TIP3    H1 3336   6.726   4.316   4.402  2.2242  2.0723 -1.2830
 1124TIP3    H2 3337   6.675   4.274   4.266 -0.0514 -1.5147  0.5253
 1125TIP3   OH2 3338   4.192   3.312   0.219  0.1011 -0.1246  0.1571
 1125TIP3    H1 3339   4.214   3.296   0.128 -0.8082  1.8156 -0.4560
 1125TIP3    H2 3340   4.162   3.227   0.252 -1.9327 -0.3654 -2.0633
 1126TIP3   OH2 3341   4.598   6.781   1.110  0.2070  0.2570 -0.5640
 1126TIP3    H1 3342   4.642   6.724   1.046  0.3042 -1.0745  0.6325
 1126TIP3    H2 3343   4.512   6.798   1.072 -1.4083 -3.9119  0.6094
 1127TIP3   OH2 3344   6.524   6.762   2.238  0.3196 -0.4127 -0.4300
 1127TIP3    H1 3345   6.579   6.753   2.160 -1.6615 -0.9302 -1.8462
 1127TIP3    H2 3346   6.543   6.850   2.271  1.2321 -0.2062 -1.4670
 1128TIP3   OH2 3347   2.121   3.351   2.310  0.2149 -0.3166  0.0420
 1128TIP3    H1 3348   2.065   3.276   2.289 -0.6950 -0.1542  1.6803
 1128TIP3    H2 3349   2.099   3.417   2.244  1.4900 -1.6488 -1.8166
 1129TIP3   OH2 3350   5.914   6.251   5.357 -0.2868  0.0766  0.2333
 1129TIP3    H1 3351   5.868   6.332   5.336 -1.1850 -0.5281 -0.2116
 1129TIP3    H2 3352   5.951   6.223   5.273  1.5802  0.9375  0.7135
 1130TIP3   OH2 3353   1.427   4.863   4.890 -0.0548  0.2793 -0.1364
 1130TIP3    H1 3354   1.437   4.939   4.832  2.2263 -0.4004 -0.7311
 1130TIP3    H2 3355   1.455   4.895   4.975  0.1781  0.3264 -0.2277
 1131TIP3   OH2 3356   1.909   6.379   1.453 -0.0210 -0.4852 -0.3884
 1131TIP3    H1 3357   1.947   6.312   1.510  2.6788  1.0840 -0.1922
 1131TIP3    H2 3358   1.923   6.461   1.499 -1.2618  0.4743 -1.6140
 1132TIP3   OH2 3359   5.995   4.321   5.661  0.2554  0.4260  0.2757
 1132TIP3    H1 3360   6.053   4.251   5.689  0.6958 -0.1419 -1.8809
 1132TIP3    H2 3361   5.939   4.280   5.594  0.0040  1.9250 -0.4688
 1133TIP3   OH2 3362   3.562   5.838   5.505  0.7677  0.5301  0.1143
 1133TIP3    H1 3363   3.492   5.784   5.541  1.1544 -1.2926 -1.6839
 1133TIP3    H2 3364   3.531   5.928   5.517 -1.2254 -0.1671  0.6563
 1134TIP3   OH2 3365   5.601   1.960   0.268 -0.5708  0.2010 -0.4033
 1134TIP3    H1 3366   5.592   1.975   0.362 -1.1941 -1.7275 -0.0908
 1134TIP3    H2 3367   5.644   1.875   0.261 -1.1194  0.0005 -1.8416
 1135TIP3   OH2 3368   3.952   0.377   4.585 -0.2084 -0.1985 -0.5663
 1135TIP3    H1 3369   3.872   0.401   4.633 -0.2157 -1.9693  0.3649
 1135TIP3    H2 3370   3.984   0.461   4.550 -0.8837  0.9833  1.4667
 1136TIP3   OH2 3371   3.989   4.712   1.921 -0.3423  0.2604 -0.5798
 1136TIP3    H1 3372   4.064   4.763   1.949 -2.0319  2.5873  0.0449
 1136TIP3    H2 3373   4.014   4.621   1.936  1.7509  1.0302  1.0039
 1137TIP3   OH2 3374   1.677   3.967   2.647  0.6386  0.1448 -0.8433
 1137TIP3    H1 3375   1.610   4.016   2.599  1.2547  1.7105 -0.1685
 1137TIP3    H2 3376   1.717   3.909   2.581 -0.4746  0.1353 -1.5352
 1138TIP3   OH2 3377   3.746   3.684   2.144 -0.0426 -0.2911 -0.0463
 1138TIP3    H1 3378   3.805   3.681   2.219  0.2136 -0.4446 -0.2504
 1138TIP3    H2 3379   3.764   3.602   2.096 -0.3015 -0.2610 -0.1987
 1139TIP3   OH2 3380   3.248   1.909   1.239 -0.2924 -0.0787  0.6275
 1139TIP3    H1 3381   3.246   1.944   1.328 -0.9194  1.0379  0.2034
 1139TIP3    H2 3382   3.242   1.987   1.183 -0.8200 -0.8198 -0.3748
 1140TIP3   OH2 3383   5.861   0.621   0.942 -0.4391 -0.1776  0.3004
 1140TIP3    H1 3384   5.919   0.570   0.999 -3.1482 -1.7856  1.8455
 1140TIP3    H2 3385   5.847   0.565   0.865 -0.7257 -0.2489  0.4026
 1141TIP3   OH2 3386   1.872   1.472   5.885  0.3647 -0.2899  0.1895
 1141TIP3    H1 3387   1.868   1.514   5.799  0.7292 -0.2858  0.1719
 1141TIP3    H2 3388   1.953   1.420   5.882  0.4581 -0.1712  0.5809
 1142TIP3   OH2 3389   0.091   1.047   1.564  0.7724 -0.1214  0.0721
 1142TIP3    H1 3390   0.185   1.063   1.565  0.7407  0.0917  1.0277
 1142TIP3    H2 3391   0.054   1.120   1.614 -0.0780  0.7627 -1.7492
 1143TIP3   OH2 3392   5.528   1.325   1.922  0.2456 -0.4958  0.1246
 1143TIP3    H1 3393   5.470   1.252   1.943 -0.3171 -0.2032 -0.3988
 1143TIP3    H2 3394   5.586   1.291   1.853  1.7989 -1.3112  1.7494
 1144TIP3   OH2 3395   1.506   0.307   4.830 -0.1421 -0.4214 -0.5679
 1144TIP3    H1 3396   1.534   0.366   4.759 -0.9264 -0.3603 -0.8347
 1144TIP3    H2 3397   1.481   0.226   4.785  3.6210 -2.1061 -0.0190
 1145TIP3   OH2 3398   6.388   2.663   0.354 -0.0559  0.0083 -0.1868
 1145TIP3    H1 3399   6.324   2.630   0.417  0.1674  1.4780  0.8860
 1145TIP3    H2 3400   6.466   2.610   0.370 -1.2338 -2.5881 -2.2965
 1146TIP3   OH2 3401   2.198   3.597   4.430  0.7234  0.1897  0.2845
 1146TIP3    H1 3402   2.153   3.614   4.513  0.4041  3.9306 -0.4919
 1146TIP3    H2 3403   2.132   3.556   4.374  0.5196 -1.0182  1.3586
 1147TIP3   OH2 3404   6.964   6.166   5.288 -0.2668 -0.0411  0.4451
 1147TIP3    H1 3405   7.011   6.083   5.294  0.6361  0.3537 -0.8467
 1147TIP3    H2 3406   6.902   6.154   5.216 -0.5697  0.1955  0.6640
 1148TIP3   OH2 3407   0.695   4.077   5.616  0.7528 -0.5429 -0.8792
 1148TIP3    H1 3408   0.755   4.091   5.689 -0.7735 -0.5585  0.4487
 1148TIP3    H2 3409   0.610   4.063   5.658 -0.1337 -0.7735 -2.6677
 1149TIP3   OH2 3410   1.727   4.977   3.500 -0.6372 -0.8399  0.2286
 1149TIP3    H1 3411   1.763   5.047   3.554  0.6740  0.2644 -1.9148
 1149TIP3    H2 3412   1.752   4.897   3.545  2.1249 -0.0167  0.3588
 1150TIP3   OH2 3413   2.816   2.419   4.117  0.4236 -0.0437 -0.1929
 1150TIP3    H1 3414   2.758   2.446   4.188  2.4277  0.6444  1.2656
 1150TIP3    H2 3415   2.806   2.488   4.051  0.6502  0.8474  0.6811
 1151TIP3   OH2 3416   3.940   4.843   3.879 -0.0362 -0.0086 -0.4836
 1151TIP3    H1 3417   3.982   4.828   3.964 -1.2531  1.1193  0.3639
 1151TIP3    H2 3418   3.979   4.778   3.821  0.4601 -1.1459  1.0580
 1152TIP3   OH2 3419   5.910   4.472   4.403  0.2814  0.0903 -0.0789
 1152TIP3    H1 3420   5.954   4.437   4.326  0.2688 -1.8310  0.7205
 1152TIP3    H2 3421   5.818   4.482   4.376  0.4007  0.0369 -0.5093
 1153TIP3   OH2 3422   3.784   2.273   2.499  0.2200  0.1369 -0.1792
 1153TIP3    H1 3423   3.752   2.352   2.544  0.8056  0.8701 -1.0109
 1153TIP3    H2 3424   3.747   2.201   2.549 -1.7572  0.9310 -0.3963
 1154TIP3   OH2 3425   3.208   0.062   4.901 -0.2500  0.0595  0.2830
 1154TIP3    H1 3426   3.278   0.078   4.838  0.8326 -0.7958  1.2200
 1154TIP3    H2 3427   3.195   0.147   4.943 -0.3105  0.4041 -0.4162
 1155TIP3   OH2 3428   6.908   0.049   3.475  0.0306  0.0370  0.0179
 1155TIP3    H1 3429   6.991   0.061   3.428 -0.2623  1.4064 -0.1694
 1155TIP3    H2 3430   6.897  -0.046   3.477  0.9937 -0.1312 -1.0374
 1156TIP3   OH2 3431   6.007   0.326   3.793  0.3131 -0.3186 -0.0813
 1156TIP3    H1 3432   5.988   0.276   3.872 -1.1049 -0.9344 -0.7717
 1156TIP3    H2 3433   6.037   0.411   3.825 -2.7724  0.4218  1.2236
 1157TIP3   OH2 3434   0.294   3.950   2.437 -0.5083  0.0510 -0.1868
 1157TIP3    H1 3435   0.251   3.867   2.459 -0.1695  0.0618  0.5681
 1157TIP3    H2 3436   0.363   3.959   2.503  0.1089  0.4487 -0.8661
 1158TIP3   OH2 3437   0.822   1.603   3.869  0.0313 -0.0643  0.3680
 1158TIP3    H1 3438   0.832   1.509   3.886  0.8374  0.5221  3.9866
 1158TIP3    H2 3439   0.899   1.628   3.819 -0.2661 -1.3122 -0.7563
 1159TIP3   OH2 3440   2.371   3.324   2.778  0.0943  0.0641 -0.1177
 1159TIP3    H1 3441   2.298   3.266   2.799  0.5193 -0.9762 -1.3719
 1159TIP3    H2 3442   2.348   3.362   2.692  1.2162 -0.6473 -0.7622
 1160TIP3   OH2 3443   5.661   2.243   2.924  0.5271  0.5184  0.9742
 1160TIP3    H1 3444   5.663   2.330   2.964  1.3783  0.6276  0.7344
 1160TIP3    H2 3445   5.716   2.252   2.845  0.7255 -0.2611  1.0136
 1161TIP3   OH2 3446   1.767   2.984   2.052  0.2566 -0.6671 -0.1303
 1161TIP3    H1 3447   1.842   3.006   2.108 -0.2440 -0.3830  0.4334
 1161TIP3    H2 3448   1.770   2.888   2.046 -0.6225 -0.8591  1.7353
 1162TIP3   OH2 3449   5.038   4.073   1.800 -0.1569 -0.1764 -0.2031
 1162TIP3    H1 3450   4.971   4.018   1.841 -0.2271  0.1168  0.0809
 1162TIP3    H2 3451   5.065   4.133   1.870 -0.3486  0.3909 -0.6164
 1163TIP3   OH2 3452   5.516   0.967   0.090 -0.3479  0.0618 -0.1232
 1163TIP3    H1 3453   5.439   1.022   0.082  0.7438  1.4792 -1.5561
 1163TIP3    H2 3454   5.590   1.028   0.090  0.9296 -1.3554 -1.8054
 1164TIP3   OH2 3455   1.932   2.212   0.067  0.8168 -0.1172  0.5591
 1164TIP3    H1 3456   1.864   2.160   0.111  0.7423  1.2106  2.0574
 1164TIP3    H2 3457   1.980   2.147   0.014  0.2776 -1.5950  1.8010
 1165TIP3   OH2 3458   3.841   1.130   4.537 -0.2327  0.0617  0.0306
 1165TIP3    H1 3459   3.860   1.215   4.498  1.2369 -0.7517 -1.1407
 1165TIP3    H2 3460   3.899   1.124   4.613  3.7854 -1.8673 -2.7842
 1166TIP3   OH2 3461   0.363   6.572   4.723  0.2715  0.6041  0.7802
 1166TIP3    H1 3462   0.424   6.553   4.795 -0.0333 -0.6076  0.7428
 1166TIP3    H2 3463   0.419   6.598   4.650  0.6209  1.2990  1.2891
 1167TIP3   OH2 3464   4.101   2.623   1.114 -0.5893  0.2218 -0.1751
 1167TIP3    H1 3465   4.018   2.665   1.090 -0.5214  0.9693  0.8195
 1167TIP3    H2 3466   4.155   2.695   1.148 -0.0392 -0.4811  0.4745
 1168TIP3   OH2 3467   1.772   4.493   5.737 -0.2169 -0.8292 -0.4732
 1168TIP3    H1 3468   1.751   4.582   5.767 -0.7275 -1.1777  0.2360
 1168TIP3    H2 3469   1.764   4.498   5.642  0.7988  0.1480 -0.5336
 1169TIP3   OH2 3470   2.429   6.058   2.805 -0.0182 -0.1265 -0.0053
 1169TIP3    H1 3471   2.384   6.056   2.721 -0.5774  1.4353  0.2277
 1169TIP3    H2 3472   2.372   6.009   2.865 -0.5956  0.4316 -0.0941
 1170TIP3   OH2 3473   5.710   4.070   0.332 -0.0014 -0.4028  0.3219
 1170TIP3    H1 3474   5.618   4.089   0.351 -0.3827 -1.7533 -0.0625
 1170TIP3    H2 3475   5.732   4.131   0.261 -0.5554  0.0244  0.5063
 1171TIP3   OH2 3476   4.132   6.592   0.383 -0.0927  0.0946 -0.1142
 1171TIP3    H1 3477   4.191   6.664   0.405 -0.4977  0.2522  0.4646
 1171TIP3    H2 3478   4.142   6.529   0.454 -1.5324  0.6838  0.6500
 1172TIP3   OH2 3479   1.001   2.537   3.109 -0.5977 -0.1342  0.4332
 1172TIP3    H1 3480   0.997   2.631   3.126  0.0392  0.4339 -2.0921
 1172TIP3    H2 3481   1.012   2.530   3.014  0.1661 -2.7505  0.6232
 1173TIP3   OH2 3482   7.090   3.661   0.013  0.7870  0.0255  0.5971
 1173TIP3    H1 3483   7.081   3.658   0.108  1.5586 -3.2120  0.6869
 1173TIP3    H2 3484   7.013   3.614  -0.019  2.2636 -2.0388 -0.1148
 1174TIP3   OH2 3485   2.252   1.565   5.895 -0.0679  0.4529 -0.0019
 1174TIP3    H1 3486   2.255   1.556   5.800  1.8665  2.3530 -0.1829
 1174TIP3    H2 3487   2.186   1.501   5.923 -1.4888  0.6067 -2.6835
 1175TIP3   OH2 3488   5.959   4.954   2.390 -0.3429 -0.3145  0.0455
 1175TIP3    H1 3489   5.889   4.918   2.445 -0.0235  0.3029  0.8719
 1175TIP3    H2 3490   5.913   5.007   2.325 -0.6387  0.4631  0.8673
 1176TIP3   OH2 3491   2.232   5.731   1.656 -0.1091  0.6300  0.5598
 1176TIP3    H1 3492   2.262   5.640   1.650 -0.5667  0.4050  1.5085
 1176TIP3    H2 3493   2.146   5.731   1.615  0.2357  0.8147 -0.1777
 1177TIP3   OH2 3494   6.502   1.308   2.470  0.6694  0.1420  0.0053
 1177TIP3    H1 3495   6.488   1.313   2.376 -1.5716  1.4118  0.3537
 1177TIP3    H2 3496   6.570   1.374   2.488  0.7340  0.2569 -0.6512
 1178TIP3   OH2 3497   1.092   6.054   4.639  0.0228 -0.1995 -0.1213
 1178TIP3    H1 3498   1.079   6.146   4.614 -0.2362  0.0042  0.7030
 1178TIP3    H2 3499   1.007   6.027   4.674  0.6499 -0.0845  1.6231
 1179TIP3   OH2 3500   6.282   6.028   0.426 -0.2587 -0.2247 -0.1097
 1179TIP3    H1 3501   6.299   6.029   0.332 -0.2351 -0.8933 -0.1186
 1179TIP3    H2 3502   6.187   6.043   0.434 -0.0656  1.0983 -0.1736
 1180TIP3   OH2 3503   3.141   1.225   3.658 -0.3317 -0.0850 -0.2885
 1180TIP3    H1 3504   3.185   1.143   3.635  0.3680  0.2020 -0.0246
 1180TIP3    H2 3505   3.211   1.281   3.692 -0.7687  0.6807 -0.6101
 1181TIP3   OH2 3506   4.074   3.226   0.821  0.2815  0.6701  0.3226
 1181TIP3    H1 3507   4.082   3.132   0.800 -1.2228  0.6182 -0.1055
 1181TIP3    H2 3508   4.006   3.230   0.888  0.9847  1.3898  1.0115
 1182TIP3   OH2 3509   0.329   1.148   4.261  0.0706 -0.8334 -0.0317
 1182TIP3    H1 3510   0.241   1.115   4.244  0.3780 -0.6095 -2.4328
 1182TIP3    H2 3511   0.317   1.242   4.271 -0.1795 -1.0222  1.7945
 1183TIP3   OH2 3512   4.441   3.514   3.174  0.1497  0.1368  0.1853
 1183TIP3    H1 3513   4.432   3.604   3.206 -0.6706 -0.6954  2.5325
 1183TIP3    H2 3514   4.525   3.485   3.208  0.1988 -0.1544 -0.1758
 1184TIP3   OH2 3515   0.228   5.189   2.657  0.3771 -0.1172  0.2138
 1184TIP3    H1 3516   0.233   5.110   2.710 -2.2677 -1.0282 -0.6915
 1184TIP3    H2 3517   0.159   5.170   2.592  3.4725  0.7910 -3.7557
 1185TIP3   OH2 3518   2.896   1.759   3.675  0.4729 -0.0561 -0.0251
 1185TIP3    H1 3519   2.869   1.672   3.706  3.1186 -0.2993  1.9508
 1185TIP3    H2 3520   2.988   1.748   3.651  0.1485  1.6312 -2.3818
 1186TIP3   OH2 3521   4.332   5.251   1.639  0.1643 -0.4484  0.0793
 1186TIP3    H1 3522   4.424   5.262   1.664  1.6462 -0.7564 -4.4038
 1186TIP3    H2 3523   4.328   5.164   1.600 -1.5432  0.3005 -1.5578
 1187TIP3   OH2 3524   6.260   4.352   3.793  0.9463  0.1320 -0.2460
 1187TIP3    H1 3525   6.329   4.353   3.859  0.2480 -0.2480  0.5045
 1187TIP3    H2 3526   6.307   4.350   3.709  1.8462  0.7795  0.2224
 1188TIP3   OH2 3527   3.508   1.602   3.995  0.3757  0.0649 -0.4928
 1188TIP3    H1 3528   3.564   1.585   4.071  0.3338  0.1524 -0.4420
 1188TIP3    H2 3529   3.503   1.697   3.990 -0.7334  0.0690  0.2226
 1189TIP3   OH2 3530   2.486   4.920   4.470 -0.0384  0.2783 -0.3916
 1189TIP3    H1 3531   2.424   4.925   4.398 -1.4004 -0.7586  0.6406
 1189TIP3    H2 3532   2.446   4.859   4.532  0.6461  1.7415  1.6286
 1190TIP3   OH2 3533   2.690   4.485   1.609 -0.1413 -0.1194  0.3258
 1190TIP3    H1 3534   2.707   4.535   1.689 -0.1113  0.8286 -0.2713
 1190TIP3    H2 3535   2.600   4.505   1.586 -0.2735 -0.6936  0.3246
 1191TIP3   OH2 3536   1.449   0.050   2.584  0.0892  0.0325 -0.0056
 1191TIP3    H1 3537   1.428  -0.018   2.649 -0.0586 -0.8431 -0.9443
 1191TIP3    H2 3538   1.504   0.112   2.632 -0.0022 -0.5962  0.9587
 1192TIP3   OH2 3539   5.914   4.191   3.066  0.4887 -0.1685 -0.0634
 1192TIP3    H1 3540   5.918   4.287   3.073 -1.4232 -0.0079 -0.7747
 1192TIP3    H2 3541   5.823   4.170   3.085  1.4193 -2.1548  3.0636
 1193TIP3   OH2 3542   6.332   3.599   0.693 -0.1193  0.1541  0.0108
 1193TIP3    H1 3543   6.355   3.691   0.679 -0.7840  0.3523  0.2026
 1193TIP3    H2 3544   6.365   3.554   0.616 -2.9335  1.0867 -1.8873
 1194TIP3   OH2 3545   1.447   4.433   1.085 -0.4661  0.3304 -0.2991
 1194TIP3    H1 3546   1.498   4.412   1.163 -1.1290  0.2232  0.1168
 1194TIP3    H2 3547   1.438   4.350   1.039 -0.7812  0.2261 -0.0551
 1195TIP3   OH2 3548   2.791   6.139   1.326 -0.0757 -0.3347 -0.5389
 1195TIP3    H1 3549   2.772   6.133   1.419  1.5893  0.9455 -0.0783
 1195TIP3    H2 3550   2.803   6.048   1.298  0.0627 -0.6943  0.6378
 1196TIP3   OH2 3551   2.638   0.767   4.407  0.2922 -0.1603 -0.2220
 1196TIP3    H1 3552   2.690   0.707   4.353  0.3662  0.6534 -1.0756
 1196TIP3    H2 3553   2.697   0.796   4.476  0.5086 -0.4164 -0.2981
 1197TIP3   OH2 3554   6.949   6.431   4.619  0.7250 -0.1890 -0.1490
 1197TIP3    H1 3555   6.860   6.439   4.583  0.9123 -0.1004 -0.6093
 1197TIP3    H2 3556   6.942   6.365   4.687  0.7139 -1.7348 -1.5855
 1198TIP3   OH2 3557   3.224   0.046   1.790  0.3918 -0.5270 -0.4938
 1198TIP3    H1 3558   3.148   0.099   1.814 -0.5199 -0.7293 -2.7317
 1198TIP3    H2 3559   3.238  -0.011   1.867 -1.2569  0.0094  0.2506
 1199TIP3   OH2 3560   6.987   5.002   2.207  0.5534  0.1627 -0.1008
 1199TIP3    H1 3561   6.968   5.064   2.277  2.2136  0.7201 -0.0921
 1199TIP3    H2 3562   7.009   4.920   2.252  1.7042  0.5453  0.0480
 1200TIP3   OH2 3563   5.618   5.614   3.224 -0.3277  0.0043 -0.4340
 1200TIP3    H1 3564   5.693   5.642   3.276  1.1470 -1.7601 -1.4984
 1200TIP3    H2 3565   5.554   5.583   3.288  0.4231  0.1783  0.4159
 1201TIP3   OH2 3566   5.129   4.842   0.491  0.0521 -0.0673  0.2493
 1201TIP3    H1 3567   5.221   4.814   0.497  0.0370 -0.1466  0.1302
 1201TIP3    H2 3568   5.080   4.760   0.492  0.0790 -0.1505 -1.5115
 1202TIP3   OH2 3569   5.654   0.056   2.729 -0.2702  0.0739 -0.3432
 1202TIP3    H1 3570   5.744   0.071   2.700 -0.1184  1.4957  0.7140
 1202TIP3    H2 3571   5.626   0.141   2.763 -1.5087 -0.6963  0.6618
 1203TIP3   OH2 3572   0.158   1.015   3.591  0.2699  0.8874 -0.3144
 1203TIP3    H1 3573   0.083   1.068   3.563 -0.4978 -0.0660 -0.1217
 1203TIP3    H2 3574   0.138   0.991   3.682 -0.3887 -1.3562 -0.9887
 1204TIP3   OH2 3575   1.907   6.064   0.122  0.1427 -0.0752  0.5071
 1204TIP3    H1 3576   1.931   5.987   0.070  2.4548  0.2506  0.9767
 1204TIP3    H2 3577   1.824   6.094   0.084  0.0880 -1.7541 -0.8273
 1205TIP3   OH2 3578   2.787   4.445   2.001 -0.1951 -0.3951  0.1650
 1205TIP3    H1 3579   2.854   4.488   1.948  0.6085 -0.4211  1.1198
 1205TIP3    H2 3580   2.705   4.461   1.955  0.2905  0.8179 -0.3078
 1206TIP3   OH2 3581   6.136   0.588   4.769 -0.0772 -0.0963 -0.1975
 1206TIP3    H1 3582   6.199   0.517   4.754 -0.3410 -0.6485  1.1462
 1206TIP3    H2 3583   6.117   0.622   4.682  1.8863 -0.0702 -0.6580
 1207TIP3   OH2 3584   2.693   6.027   2.763 -0.2238 -0.2848 -0.7875
 1207TIP3    H1 3585   2.601   6.040   2.785 -0.1086  0.3343 -0.6601
 1207TIP3    H2 3586   2.695   6.026   2.667 -0.3754 -0.4119 -0.7898
 1208TIP3   OH2 3587   4.982   5.143   4.273  0.3564 -0.3090  0.4769
 1208TIP3    H1 3588   4.950   5.054   4.260  0.6116 -0.4458  0.7715
 1208TIP3    H2 3589   5.052   5.153   4.209  0.8262 -0.5799  0.9370
 1209TIP3   OH2 3590   4.236   2.954   0.590  0.3277 -0.4133 -0.1304
 1209TIP3    H1 3591   4.140   2.956   0.599  0.4647  0.4832  1.4831
 1209TIP3    H2 3592   4.257   2.861   0.580 -0.8113 -0.5107 -2.1990
 1210TIP3   OH2 3593   4.180   3.018   0.044 -0.1690 -0.5469 -0.1408
 1210TIP3    H1 3594   4.239   3.013   0.120 -0.5328 -2.4335  0.0777
 1210TIP3    H2 3595   4.094   3.037   0.082  0.2201  2.3211 -0.4689
 1211TIP3   OH2 3596   0.739   4.346   5.468  0.3654 -0.5885 -0.0185
 1211TIP3    H1 3597   0.658   4.384   5.433  0.1582  0.6731  1.7075
 1211TIP3    H2 3598   0.710   4.294   5.543  1.1571  0.4471  1.0578
 1212TIP3   OH2 3599   6.793   6.501   4.229 -0.0053 -0.6956  0.2449
 1212TIP3    H1 3600   6.881   6.519   4.263  0.1923 -0.7355 -0.2301
 1212TIP3    H2 3601   6.737   6.503   4.306  0.4444 -0.8843  0.5849
 1213TIP3   OH2 3602   6.131   1.514   0.330 -0.4138 -0.2649  0.1029
 1213TIP3    H1 3603   6.104   1.524   0.421 -0.2548 -0.2081  0.1422
 1213TIP3    H2 3604   6.216   1.472   0.334 -0.0500  0.4549  0.0015
 1214TIP3   OH2 3605   3.620   0.637   2.486 -0.6383  0.2508  0.0780
 1214TIP3    H1 3606   3.700   0.686   2.470  0.3538 -1.7596 -1.6883
 1214TIP3    H2 3607   3.646   0.564   2.541 -1.5735  0.3578  0.6885
 1215TIP3   OH2 3608   0.034   3.050   1.302  0.7446 -0.0644  0.2550
 1215TIP3    H1 3609  -0.048   3.087   1.268  0.5591  0.9239  1.6926
 1215TIP3    H2 3610   0.100   3.117   1.284  1.0529 -0.4369 -0.0154
 1216TIP3   OH2 3611   5.567   4.229   4.305  0.4790  0.5852 -0.1686
 1216TIP3    H1 3612   5.503   4.162   4.279  1.2047  0.1206 -0.8027
 1216TIP3    H2 3613   5.644   4.211   4.251  0.5123  2.2697 -0.7456
 1217TIP3   OH2 3614   1.311   0.221   3.049  0.1776 -0.1567  0.0177
 1217TIP3    H1 3615   1.257   0.238   2.972 -0.8010  1.3618  0.9869
 1217TIP3    H2 3616   1.256   0.164   3.104  0.2656 -0.0394  0.2291
 1218TIP3   OH2 3617   2.521   3.807   5.730 -0.3519  0.0593  0.0492
 1218TIP3    H1 3618   2.524   3.895   5.693 -0.3836  0.5136  1.0755
 1218TIP3    H2 3619   2.579   3.812   5.806 -0.1095 -0.9010 -0.0682
 1219TIP3   OH2 3620   2.022   6.154   0.694 -0.2941 -0.1627 -0.0462
 1219TIP3    H1 3621   2.082   6.148   0.620  0.6689 -0.8903  0.7618
 1219TIP3    H2 3622   2.075   6.189   0.765 -0.5148 -1.8126  0.9843
 1220TIP3   OH2 3623   5.399   2.370   2.766  0.3507 -0.7320  0.3758
 1220TIP3    H1 3624   5.303   2.364   2.769  0.4249 -2.1070  1.0915
 1220TIP3    H2 3625   5.429   2.290   2.810  1.8332 -0.5502 -0.2516
 1221TIP3   OH2 3626   0.165   3.969   3.499  0.0305 -0.1984  0.7175
 1221TIP3    H1 3627   0.144   3.978   3.406 -0.2125  0.5951  0.8338
 1221TIP3    H2 3628   0.167   3.875   3.515 -1.8741 -0.3396  0.3328
 1222TIP3   OH2 3629   2.146   0.253   4.571  0.0504 -0.3909 -0.5537
 1222TIP3    H1 3630   2.071   0.195   4.559  0.0705 -0.5821  0.2381
 1222TIP3    H2 3631   2.191   0.219   4.648  1.9175 -1.3207 -1.9704
 1223TIP3   OH2 3632   3.951   5.743   3.709 -0.1148  0.5608  0.0183
 1223TIP3    H1 3633   3.961   5.822   3.761 -0.4403 -0.3759  1.5675
 1223TIP3    H2 3634   3.859   5.741   3.684  0.0310  0.9842 -0.5769
 1224TIP3   OH2 3635   2.854   4.662   3.115 -0.0195  0.5968 -0.3699
 1224TIP3    H1 3636   2.883   4.725   3.180  1.5868 -0.1459 -0.3331
 1224TIP3    H2 3637   2.827   4.585   3.166  0.7705  0.2001 -0.5322
 1225TIP3   OH2 3638   4.407   5.142   4.359  0.1523 -0.1124  0.4746
 1225TIP3    H1 3639   4.347   5.150   4.285 -0.1814 -0.4733  0.7008
 1225TIP3    H2 3640   4.493   5.128   4.320 -0.3493 -2.7539  0.1448
 1226TIP3   OH2 3641   0.662   0.890   3.213 -0.2964  0.4579  0.0483
 1226TIP3    H1 3642   0.727   0.878   3.143 -0.9133 -1.7818 -0.2295
 1226TIP3    H2 3643   0.680   0.819   3.274 -2.2804 -0.0660  0.0949
 1227TIP3   OH2 3644   6.869   5.384   5.535 -0.3233 -0.2021 -0.5870
 1227TIP3    H1 3645   6.844   5.470   5.501 -0.1033 -0.3092 -1.0263
 1227TIP3    H2 3646   6.785   5.341   5.554 -0.4300  0.1618 -0.2263
 1228TIP3   OH2 3647   1.175   4.129   3.122 -0.4909  0.0880 -0.0566
 1228TIP3    H1 3648   1.137   4.157   3.038  0.4406  0.0610 -0.4979
 1228TIP3    H2 3649   1.191   4.210   3.169 -0.2079  0.1508 -0.2615
 1229TIP3   OH2 3650   1.219   4.323   3.750 -0.4860 -0.0551 -0.2329
 1229TIP3    H1 3651   1.301   4.273   3.744  0.3966  1.4127 -0.9577
 1229TIP3    H2 3652   1.244   4.405   3.793 -2.1498 -0.6644  2.0995
 1230TIP3   OH2 3653   5.308   6.680   4.081  0.7714 -0.3066  0.4107
 1230TIP3    H1 3654   5.341   6.728   4.005 -1.9019  0.2183 -0.5308
 1230TIP3    H2 3655   5.295   6.590   4.049  2.1603 -0.7560  1.0594
 1231TIP3   OH2 3656   2.946   6.571   0.601  0.4300  0.2490 -0.7882
 1231TIP3    H1 3657   2.880   6.640   0.593 -0.5223 -0.3103  1.6360
 1231TIP3    H2 3658   3.008   6.604   0.665  0.5514 -0.7107 -0.3993
 1232TIP3   OH2 3659   5.126   6.501   3.497  0.5578  0.0102 -0.3284
 1232TIP3    H1 3660   5.063   6.536   3.434 -0.4033 -1.2375 -0.1131
 1232TIP3    H2 3661   5.190   6.454   3.444  0.6864  0.3610 -0.4838
 1233TIP3   OH2 3662   4.012   2.615   5.385 -0.2949  0.2370 -0.3333
 1233TIP3    H1 3663   3.984   2.545   5.327 -1.0597  0.5149 -0.3183
 1233TIP3    H2 3664   4.024   2.573   5.470 -1.2604  0.2062 -0.2028
 1234TIP3   OH2 3665   1.033   4.678   2.834  0.0919 -0.0272  0.0670
 1234TIP3    H1 3666   1.006   4.762   2.871 -0.4851 -0.9030  1.7781
 1234TIP3    H2 3667   0.990   4.674   2.749 -0.9910  0.8359  0.5467
 1235TIP3   OH2 3668   0.941   1.374   1.277  0.1517  0.4482  0.0040
 1235TIP3    H1 3669   0.943   1.452   1.221  1.5928  0.0704 -0.5022
 1235TIP3    H2 3670   1.021   1.378   1.328  0.8349 -1.2544 -0.8363
 1236TIP3   OH2 3671   0.632   2.467   2.920  0.1205 -0.0729 -0.2829
 1236TIP3    H1 3672   0.588   2.546   2.953 -1.5946 -0.8996 -0.4441
 1236TIP3    H2 3673   0.708   2.500   2.872  0.2269  1.3936  0.8089
 1237TIP3   OH2 3674   4.854   5.078   3.853 -0.2072 -0.0130  0.0337
 1237TIP3    H1 3675   4.844   5.117   3.939 -1.7513  1.5622 -0.7864
 1237TIP3    H2 3676   4.948   5.072   3.839  0.0642  1.3697  1.1121
 1238TIP3   OH2 3677   6.490   1.492   0.465  0.1231 -0.3133  0.2495
 1238TIP3    H1 3678   6.510   1.504   0.558 -2.9769  0.1711  0.9481
 1238TIP3    H2 3679   6.424   1.422   0.464 -1.1838  0.8784 -1.3855
 1239TIP3   OH2 3680   5.924  -0.005   5.060  0.8298 -0.1790 -0.1990
 1239TIP3    H1 3681   5.911   0.019   4.968  0.6702 -0.9579 -0.3885
 1239TIP3    H2 3682   5.957   0.074   5.101 -0.1901  0.5326 -0.6874
 1240TIP3   OH2 3683   0.977   5.178   0.149  0.2942  1.1818  0.1728
 1240TIP3    H1 3684   0.991   5.273   0.145  0.3174  1.3000  2.1087
 1240TIP3    H2 3685   1.064   5.141   0.132  0.2004  1.4626 -1.0351
 1241TIP3   OH2 3686   2.932   1.137   0.635 -0.2254  0.0886  0.1170
 1241TIP3    H1 3687   2.970   1.201   0.575 -1.1605  0.5549  0.0060
 1241TIP3    H2 3688   3.001   1.121   0.699  0.0479  1.1581  0.1093
 1242TIP3   OH2 3689   3.481   2.051   3.044  0.1516  0.5827 -0.1372
 1242TIP3    H1 3690   3.451   1.992   2.974 -0.3003  2.2900 -1.4733
 1242TIP3    H2 3691   3.473   2.000   3.124  2.1196 -1.9982 -1.4273
 1243TIP3   OH2 3692   4.549   2.532   0.839  0.1806 -0.0100  0.1055
 1243TIP3    H1 3693   4.624   2.569   0.791 -1.8878  1.0381 -2.5698
 1243TIP3    H2 3694   4.569   2.439   0.848  1.8694  0.2770 -0.3778
 1244TIP3   OH2 3695   6.796   3.914   3.143  0.1589  0.1542 -0.2749
 1244TIP3    H1 3696   6.772   4.003   3.168  4.2317  1.0594  1.1009
 1244TIP3    H2 3697   6.747   3.858   3.203  0.0949  1.6511  1.1154
 1245TIP3   OH2 3698   2.598   3.954   3.948  0.1606  0.2626 -0.7731
 1245TIP3    H1 3699   2.622   3.986   3.861 -0.2085  0.3817 -0.8307
 1245TIP3    H2 3700   2.678   3.912   3.981 -0.2609 -1.6095 -1.9969
 1246TIP3   OH2 3701   5.698   6.026   2.261  0.0506  0.2076  0.3170
 1246TIP3    H1 3702   5.617   6.019   2.313 -0.3872  1.8739 -0.0978
 1246TIP3    H2 3703   5.760   6.069   2.320  0.1894  0.2463  0.1423
 1247TIP3   OH2 3704   3.328   2.687   1.983  0.1111 -0.1343 -0.4127
 1247TIP3    H1 3705   3.270   2.612   1.995 -0.3957  0.4622  1.1233
 1247TIP3    H2 3706   3.406   2.665   2.033 -0.2127  0.5209  0.4016
 1248TIP3   OH2 3707   3.915   1.889   2.962  0.0634  0.5901  0.2335
 1248TIP3    H1 3708   3.919   1.803   2.920 -2.3892  0.4337  0.1790
 1248TIP3    H2 3709   4.006   1.918   2.965  1.0482 -2.1982  0.6879
 1249TIP3   OH2 3710   4.229   2.648   2.208 -0.2949  0.0897 -0.1323
 1249TIP3    H1 3711   4.285   2.660   2.132 -0.4173 -1.8872 -0.5961
 1249TIP3    H2 3712   4.272   2.697   2.278 -0.0186  1.6855 -1.3571
 1250TIP3   OH2 3713   1.285   5.754   5.524 -0.0396  0.0704  0.7598
 1250TIP3    H1 3714   1.353   5.697   5.560  0.4418  0.1546  0.0158
 1250TIP3    H2 3715   1.289   5.833   5.578  0.3073 -0.0103  0.8570
 1251TIP3   OH2 3716   4.967   3.121   4.417 -0.4092  0.4788  0.2937
 1251TIP3    H1 3717   4.886   3.086   4.380  0.1327 -0.9634  0.4106
 1251TIP3    H2 3718   4.997   3.185   4.353 -0.9618  0.0818 -0.3774
 1252TIP3   OH2 3719   2.495   2.801   4.414  0.1019  0.8700 -0.4353
 1252TIP3    H1 3720   2.463   2.720   4.454 -1.6938  0.3092 -2.7939
 1252TIP3    H2 3721   2.569   2.774   4.361 -0.0514  0.8814 -0.6571
 1253TIP3   OH2 3722   3.922   2.722   2.312  0.2759 -0.5747  0.2603
 1253TIP3    H1 3723   3.910   2.638   2.355  0.4576 -0.4955  0.4721
 1253TIP3    H2 3724   4.010   2.717   2.274  0.0363 -0.7215 -0.2841
 1254TIP3   OH2 3725   4.163   0.732   2.744  0.4102  0.3747 -0.0355
 1254TIP3    H1 3726   4.114   0.721   2.826 -2.1949 -0.0196 -1.5188
 1254TIP3    H2 3727   4.230   0.797   2.764  0.7089 -0.6333  2.7083
 1255TIP3   OH2 3728   6.236   3.346   3.857 -0.4720  0.0646 -0.1607
 1255TIP3    H1 3729   6.233   3.422   3.914 -1.6942  1.1325 -1.5718
 1255TIP3    H2 3730   6.205   3.273   3.911 -0.4962  0.8065  0.8391
 1256TIP3   OH2 3731   4.531   4.598   0.563 -0.5029 -0.1876  0.4408
 1256TIP3    H1 3732   4.610   4.639   0.597 -0.3023 -0.1777 -0.0311
 1256TIP3    H2 3733   4.540   4.604   0.467 -1.4473  0.5387  0.3850
 1257TIP3   OH2 3734   0.430   6.513   5.847 -0.2041 -0.1144  0.7470
 1257TIP3    H1 3735   0.430   6.488   5.940 -0.2868  1.0152  1.0747
 1257TIP3    H2 3736   0.382   6.596   5.845  1.0113  0.6010 -0.0948
 1258TIP3   OH2 3737   2.821   4.683   1.811  0.0434  0.5921  0.1182
 1258TIP3    H1 3738   2.910   4.650   1.824  0.1393  0.3979 -0.9562
 1258TIP3    H2 3739   2.827   4.738   1.733 -0.6598  1.0613  0.3863
 1259TIP3   OH2 3740   2.056   0.283   2.133  0.2264  0.0470 -0.0844
 1259TIP3    H1 3741   2.019   0.240   2.210 -0.1331  0.3697 -0.0784
 1259TIP3    H2 3742   2.069   0.212   2.070 -0.0731 -0.1209  0.0419
 1260TIP3   OH2 3743   6.826   1.539   2.055 -0.2260  0.5344 -0.0820
 1260TIP3    H1 3744   6.893   1.589   2.008 -1.8600  3.0155 -0.0085
 1260TIP3    H2 3745   6.750   1.542   1.997 -1.3206  0.9159  1.3149
 1261TIP3   OH2 3746   5.160   2.377   3.758 -0.3599  0.1351 -0.5739
 1261TIP3    H1 3747   5.253   2.370   3.776  0.0573 -0.8167 -2.6927
 1261TIP3    H2 3748   5.155   2.400   3.665 -2.2286  0.0830 -0.5369
 1262TIP3   OH2 3749   1.811   3.627   5.909  0.1560  0.2230  0.0644
 1262TIP3    H1 3750   1.804   3.631   5.814 -0.7816 -0.5861  0.0877
 1262TIP3    H2 3751   1.774   3.711   5.940  2.5541  1.5205 -0.3327
 1263TIP3   OH2 3752   1.236   1.984   5.492  0.4615  0.4117 -0.3997
 1263TIP3    H1 3753   1.267   1.972   5.582  0.9095 -0.8023 -0.6903
 1263TIP3    H2 3754   1.296   2.048   5.454  1.1800 -0.1531 -0.2466
 1264TIP3   OH2 3755   3.364   5.390   4.985  0.4592 -0.3129  0.0516
 1264TIP3    H1 3756   3.402   5.395   4.897 -0.8379  2.5009 -0.4989
 1264TIP3    H2 3757   3.278   5.349   4.971  1.0541 -1.7086  0.3809
 1265TIP3   OH2 3758   1.931   3.517   2.473 -0.2998 -0.6971 -0.4676
 1265TIP3    H1 3759   1.873   3.470   2.532  0.2428 -0.1920  0.4830
 1265TIP3    H2 3760   1.972   3.448   2.420 -0.4966 -1.1841  0.0066
 1266TIP3   OH2 3761   3.974   5.297   5.616  0.0101  0.8565 -0.3328
 1266TIP3    H1 3762   3.944   5.373   5.566 -1.5920  2.1725  2.3758
 1266TIP3    H2 3763   4.013   5.335   5.695  0.4394 -1.1154  0.4439
 1267TIP3   OH2 3764   0.435   0.179   5.291  0.2483 -0.5592  0.3115
 1267TIP3    H1 3765   0.441   0.274   5.284 -2.2809 -0.3920 -0.5962
 1267TIP3    H2 3766   0.369   0.154   5.226  0.9546 -2.9720  0.4061
 1268TIP3   OH2 3767   2.956   0.541   4.462 -0.1662  0.4256 -0.2138
 1268TIP3    H1 3768   3.038   0.523   4.416 -0.2436  0.3784 -0.3316
 1268TIP3    H2 3769   2.891   0.550   4.393 -0.6532 -1.4627 -0.0576
 1269TIP3   OH2 3770   1.892   2.486   3.625  0.1457  0.5970  0.8860
 1269TIP3    H1 3771   1.845   2.568   3.611 -1.2099 -0.4955 -1.7309
 1269TIP3    H2 3772   1.824   2.418   3.625  1.4875 -0.9832 -2.4451
 1270TIP3   OH2 3773   1.766   1.047   1.161  0.2199  0.0720  0.6493
 1270TIP3    H1 3774   1.737   1.081   1.076  0.5249  1.1085  0.9457
 1270TIP3    H2 3775   1.686   1.042   1.213  0.1590  0.2820  0.5783
 1271TIP3   OH2 3776   5.734   4.042   1.986  0.2194  0.2148  0.3027
 1271TIP3    H1 3777   5.826   4.043   2.012  0.4158  1.9560 -0.3433
 1271TIP3    H2 3778   5.701   4.129   2.008 -1.5591 -0.6743  1.3729
 1272TIP3   OH2 3779   1.338   3.815   5.279 -0.0643 -0.1569 -0.1998
 1272TIP3    H1 3780   1.263   3.873   5.291 -0.7730 -1.1009  0.0786
 1272TIP3    H2 3781   1.414   3.873   5.283 -0.8077  0.9329 -1.3161
 1273TIP3   OH2 3782   1.932   3.282   1.450  0.3947  0.8125  0.6514
 1273TIP3    H1 3783   1.852   3.231   1.465  0.2339  0.3908 -1.3076
 1273TIP3    H2 3784   1.905   3.373   1.459 -0.0465  0.6445  1.0774
 1274TIP3   OH2 3785   5.276   1.670   2.653  0.2345 -0.1152  0.0737
 1274TIP3    H1 3786   5.350   1.618   2.622 -1.3981 -1.1748 -2.2985
 1274TIP3    H2 3787   5.276   1.748   2.597 -0.6063 -0.2723 -0.1543
 1275TIP3   OH2 3788   4.587   1.834   5.717 -0.1081  0.1916 -0.6806
 1275TIP3    H1 3789   4.668   1.884   5.712  0.8649 -1.4553 -2.4740
 1275TIP3    H2 3790   4.536   1.862   5.641 -0.8422  0.5427 -0.0740
 1276TIP3   OH2 3791   1.603   4.811   2.298 -0.2592  0.5564 -0.7775
 1276TIP3    H1 3792   1.686   4.775   2.330 -0.1339  1.3178 -0.2121
 1276TIP3    H2 3793   1.552   4.734   2.272 -0.1180 -0.0619  0.6799
 1277TIP3   OH2 3794   4.989   5.353   3.801  0.3962 -0.7033  0.4961
 1277TIP3    H1 3795   4.934   5.342   3.878 -1.6865 -0.0747 -0.8318
 1277TIP3    H2 3796   5.020   5.443   3.805 -0.2209 -0.4811  0.2817
 1278TIP3   OH2 3797   0.847   2.514   5.453  0.7457  0.0752 -0.1335
 1278TIP3    H1 3798   0.819   2.525   5.544  1.0136  1.7705 -0.2316
 1278TIP3    H2 3799   0.800   2.581   5.404  1.3390 -0.1811 -1.0914
 1279TIP3   OH2 3800   3.917   1.916   3.898 -0.1808 -0.3843 -0.1774
 1279TIP3    H1 3801   3.906   1.950   3.986 -0.4005 -1.3356  0.1762
 1279TIP3    H2 3802   4.012   1.916   3.883 -0.2126  1.1300 -0.5078
 1280TIP3   OH2 3803   5.245   5.739   1.803 -0.3093  0.3096  0.3132
 1280TIP3    H1 3804   5.317   5.717   1.863 -1.2574 -0.5819  1.1485
 1280TIP3    H2 3805   5.271   5.823   1.765  0.3627  0.8577  1.9046
 1281TIP3   OH2 3806   0.175   1.633   5.578  0.5143  0.4428  0.0191
 1281TIP3    H1 3807   0.147   1.544   5.600 -0.6315  0.9505  0.7336
 1281TIP3    H2 3808   0.227   1.660   5.654  0.4848  0.5398  0.0039
 1282TIP3   OH2 3809   0.078   4.465   5.865  0.0041 -0.1767  0.1274
 1282TIP3    H1 3810   0.052   4.385   5.912 -0.8246 -0.4454 -0.7689
 1282TIP3    H2 3811   0.002   4.522   5.870 -1.3833 -1.4347 -3.5584
 1283TIP3   OH2 3812   2.491   2.849   3.577 -1.0090 -0.1075 -0.1176
 1283TIP3    H1 3813   2.550   2.903   3.629 -0.7840 -1.2961  0.9147
 1283TIP3    H2 3814   2.403   2.875   3.605 -0.9545  0.7390 -0.7028
 1284TIP3   OH2 3815   6.527   1.238   1.289 -0.4993 -0.1730 -0.6367
 1284TIP3    H1 3816   6.474   1.158   1.289  0.2436 -0.7001  0.5831
 1284TIP3    H2 3817   6.610   1.210   1.249 -0.5636  0.2434 -1.0702
 1285TIP3   OH2 3818   4.836   1.274   1.847 -0.0185  0.0291  0.2442
 1285TIP3    H1 3819   4.762   1.218   1.871  0.5852 -1.0620 -0.3473
 1285TIP3    H2 3820   4.807   1.319   1.768  0.1759 -0.9486 -0.4153
 1286TIP3   OH2 3821   0.803   0.357   5.549 -0.4663  0.2383 -0.6190
 1286TIP3    H1 3822   0.711   0.380   5.541 -0.5427  0.2943  0.2864
 1286TIP3    H2 3823   0.850   0.437   5.524 -0.7152  1.0386  1.3000
 1287TIP3   OH2 3824   6.450   4.044   3.423 -0.2048 -0.0169  0.2311
 1287TIP3    H1 3825   6.366   4.000   3.436  0.2826 -0.9701  0.1911
 1287TIP3    H2 3826   6.449   4.072   3.332 -0.3755 -0.2468  0.1635
 1288TIP3   OH2 3827   6.922   2.667   1.449 -0.8030  0.6029 -0.4698
 1288TIP3    H1 3828   6.867   2.626   1.517 -0.1043  0.5789  0.0939
 1288TIP3    H2 3829   6.986   2.719   1.499  1.0011 -0.9919 -1.0162
 1289TIP3   OH2 3830   0.398   4.590   1.798  0.5283  0.5235 -0.3295
 1289TIP3    H1 3831   0.410   4.685   1.810 -0.3881  0.6404 -0.2640
 1289TIP3    H2 3832   0.362   4.581   1.710 -0.1019  0.3027 -0.0547
 1290TIP3   OH2 3833   5.226   6.023   1.651  0.0610 -0.4602 -0.2460
 1290TIP3    H1 3834   5.141   5.978   1.651 -0.9886  1.3509  1.4155
 1290TIP3    H2 3835   5.209   6.104   1.698  2.1107  1.2071 -2.2107
 1291TIP3   OH2 3836   0.917   0.684   4.433 -0.1826  0.3719 -0.3008
 1291TIP3    H1 3837   0.958   0.742   4.370  0.1870  0.8510  0.3608
 1291TIP3    H2 3838   0.823   0.694   4.418 -0.0852 -0.0560 -1.2322
 1292TIP3   OH2 3839   0.811   5.643   1.533  1.0547  0.5066  0.2260
 1292TIP3    H1 3840   0.863   5.724   1.535  0.3329  1.0130  2.5291
 1292TIP3    H2 3841   0.818   5.612   1.443  1.5788  3.0008 -0.6939
 1293TIP3   OH2 3842   4.950   4.637   4.159 -0.2241  0.2808  0.0695
 1293TIP3    H1 3843   4.868   4.632   4.208 -1.0180 -2.0435 -1.3291
 1293TIP3    H2 3844   5.014   4.591   4.213 -0.6079 -0.5585 -0.1852
 1294TIP3   OH2 3845   5.707   4.060   1.545  0.5990 -0.0422  0.2547
 1294TIP3    H1 3846   5.725   3.968   1.526  1.0071  0.0503  0.1809
 1294TIP3    H2 3847   5.616   4.062   1.572  0.5308 -0.4404  0.0547
 1295TIP3   OH2 3848   0.748   3.615   0.987 -0.1087  0.2516 -0.2735
 1295TIP3    H1 3849   0.766   3.668   1.064  1.0452 -0.5119  0.0025
 1295TIP3    H2 3850   0.774   3.671   0.913 -1.3858  1.0513 -0.1494
 1296TIP3   OH2 3851   7.183   4.400   2.496 -0.4456  0.0236  0.2676
 1296TIP3    H1 3852   7.140   4.397   2.411  1.8785 -0.7600 -0.9819
 1296TIP3    H2 3853   7.195   4.308   2.521  1.3487  0.1487  0.0383
 1297TIP3   OH2 3854   7.123   5.301   0.228 -0.1892 -0.4471 -0.0037
 1297TIP3    H1 3855   7.051   5.273   0.171 -0.4414 -2.4028  1.1654
 1297TIP3    H2 3856   7.191   5.235   0.215  0.6865  0.3731  0.2700
 1298TIP3   OH2 3857   2.453   4.252   2.201 -0.3945 -0.0377 -0.0773
 1298TIP3    H1 3858   2.470   4.279   2.291  2.3452  1.0120 -0.8327
 1298TIP3    H2 3859   2.447   4.334   2.152  1.0604 -0.6243 -1.3016
 1299TIP3   OH2 3860   4.122   1.945   4.641  0.2872  0.4678  0.3881
 1299TIP3    H1 3861   4.138   1.868   4.587  1.5244  0.1101  1.2194
 1299TIP3    H2 3862   4.147   2.019   4.586  0.9850  0.1425  0.2498
 1300TIP3   OH2 3863   2.396   0.688   0.336  0.2599  0.7801 -0.1192
 1300TIP3    H1 3864   2.346   0.614   0.370 -3.8533  2.0653 -2.6365
 1300TIP3    H2 3865   2.480   0.650   0.311 -0.7474 -2.4766  0.9179
 1301TIP3   OH2 3866   2.640   5.623   2.647  0.3526 -0.1451 -0.4103
 1301TIP3    H1 3867   2.617   5.698   2.593  1.0546  0.4046  0.0244
 1301TIP3    H2 3868   2.680   5.661   2.725 -2.8955 -0.7579  1.7463
 1302TIP3   OH2 3869   6.222   4.902   0.655 -0.0888  0.0972  0.4839
 1302TIP3    H1 3870   6.190   4.826   0.606  0.0077  1.0066 -1.0586
 1302TIP3    H2 3871   6.317   4.893   0.654  0.1936  1.8629 -2.6699
 1303TIP3   OH2 3872   5.658   0.394   4.167 -0.1346  0.2075  0.0607
 1303TIP3    H1 3873   5.753   0.407   4.167 -0.1017  0.0247 -0.8114
 1303TIP3    H2 3874   5.641   0.333   4.238  0.6281 -1.2684 -0.9773
 1304TIP3   OH2 3875   4.376   2.505   5.446 -0.1474 -0.0872  0.4541
 1304TIP3    H1 3876   4.404   2.419   5.477 -0.2465 -0.1342  0.4133
 1304TIP3    H2 3877   4.297   2.524   5.496  0.7543  0.7014  1.6613
 1305TIP3   OH2 3878   5.088   0.210   4.848 -0.6243  0.0828 -0.4642
 1305TIP3    H1 3879   5.068   0.138   4.908 -2.0066 -0.4397 -1.5005
 1305TIP3    H2 3880   5.013   0.269   4.856  0.4080  1.3524  0.2398
 1306TIP3   OH2 3881   3.164   4.966   4.684  0.2112 -0.1269 -0.2224
 1306TIP3    H1 3882   3.234   4.982   4.621 -0.7318 -0.3652 -1.3566
 1306TIP3    H2 3883   3.116   5.049   4.689 -0.5760 -0.5255 -0.9225
 1307TIP3   OH2 3884   4.483   5.612   1.989 -0.7661  0.0983 -0.0236
 1307TIP3    H1 3885   4.453   5.702   1.986  0.7712  0.6197 -1.2447
 1307TIP3    H2 3886   4.490   5.592   2.082 -0.8588  1.3200  0.2635
 1308TIP3   OH2 3887   6.516   3.476   4.480  0.1622 -0.4235 -0.1624
 1308TIP3    H1 3888   6.581   3.444   4.542 -0.7074  0.7293  1.4060
 1308TIP3    H2 3889   6.448   3.515   4.534 -0.8633  0.2335 -1.8369
 1309TIP3   OH2 3890   5.231   0.630   3.976 -0.2960 -0.1748 -0.2151
 1309TIP3    H1 3891   5.157   0.676   4.017 -0.1599 -0.2254  0.0891
 1309TIP3    H2 3892   5.242   0.551   4.029  1.5319  0.9984  1.2682
 1310TIP3   OH2 3893   2.704   4.895   1.336 -0.1799  0.3279  0.1246
 1310TIP3    H1 3894   2.715   4.953   1.412 -0.8939 -0.2014  0.6431
 1310TIP3    H2 3895   2.793   4.877   1.307  0.1528 -0.3199  1.5023
 1311TIP3   OH2 3896   4.798   4.989   5.037 -0.4145  0.2944 -0.1304
 1311TIP3    H1 3897   4.873   4.943   5.074 -1.7078 -1.5597  0.3437
 1311TIP3    H2 3898   4.783   5.063   5.096  0.3075 -0.0064  0.4393
 1312TIP3   OH2 3899   3.432   2.341   1.577 -0.2359  0.1145 -0.0371
 1312TIP3    H1 3900   3.515   2.320   1.534 -0.2459  0.5170 -0.2579
 1312TIP3    H2 3901   3.391   2.256   1.592  0.5142 -0.1354  0.6784
 1313TIP3   OH2 3902   2.287   3.087   4.693 -0.1789 -0.5148 -0.6325
 1313TIP3    H1 3903   2.260   3.022   4.757 -1.4184  0.3095 -0.2835
 1313TIP3    H2 3904   2.205   3.119   4.655  0.3988  0.7701 -0.8558
 1314TIP3   OH2 3905   2.052   1.099   5.004  0.2433 -0.4079  0.4934
 1314TIP3    H1 3906   2.017   1.168   5.062  1.4412  1.0236 -0.4182
 1314TIP3    H2 3907   2.017   1.120   4.918 -0.5263 -1.8160  0.4279
 1315TIP3   OH2 3908   0.871   4.073   3.940  0.0141  0.4076 -0.1622
 1315TIP3    H1 3909   0.963   4.099   3.942 -0.0161  0.4749  1.8265
 1315TIP3    H2 3910   0.825   4.144   3.985 -0.4689 -1.4741  2.5025
 1316TIP3   OH2 3911   4.718   2.084   5.678 -0.2131  0.8486 -0.3828
 1316TIP3    H1 3912   4.685   2.171   5.652 -0.4010  1.3323  1.3291
 1316TIP3    H2 3913   4.780   2.103   5.749  0.4381 -0.3760 -0.6083
 1317TIP3   OH2 3914   0.781   1.813   5.029  0.3248 -0.9534 -0.2075
 1317TIP3    H1 3915   0.827   1.859   5.100 -0.4096  1.8678 -1.4167
 1317TIP3    H2 3916   0.848   1.758   4.989  1.2584 -1.0282  1.3505
 1318TIP3   OH2 3917   5.862   1.760   1.660 -0.6345  0.2597  0.5065
 1318TIP3    H1 3918   5.819   1.844   1.679 -0.5371  0.7443 -1.2192
 1318TIP3    H2 3919   5.934   1.756   1.723  0.3443  2.2902 -0.3509
 1319TIP3   OH2 3920   2.580   1.249   3.688  0.0082  0.1107  0.6800
 1319TIP3    H1 3921   2.634   1.317   3.727 -1.0388  0.3627  1.7339
 1319TIP3    H2 3922   2.494   1.258   3.730 -0.2331 -1.6939  0.6730
 1320TIP3   OH2 3923   1.737   3.410   3.410  0.1876 -0.0861  0.0745
 1320TIP3    H1 3924   1.744   3.424   3.504 -0.5418  0.4929  0.0472
 1320TIP3    H2 3925   1.675   3.337   3.401  0.2358 -0.1230  0.0377
 1321TIP3   OH2 3926   0.085   2.813   5.203 -0.9648  0.5051  0.0365
 1321TIP3    H1 3927   0.164   2.859   5.177 -0.8992  0.7410  0.6461
 1321TIP3    H2 3928   0.116   2.729   5.236 -1.0750  0.0551 -0.9551
 1322TIP3   OH2 3929   6.679   2.796   4.725 -0.3946 -0.3269 -0.4448
 1322TIP3    H1 3930   6.651   2.867   4.666  1.2718  2.2855  1.6784
 1322TIP3    H2 3931   6.771   2.780   4.701 -0.1123 -0.2044  0.5167
 1323TIP3   OH2 3932   0.898   4.498   1.353  0.6950  0.3687  0.2039
 1323TIP3    H1 3933   0.940   4.425   1.397 -0.0502  0.8052  1.6793
 1323TIP3    H2 3934   0.971   4.554   1.326  1.4019 -1.6541 -2.4585
 1324TIP3   OH2 3935   1.661   1.604   2.906 -0.0516 -0.4898  0.1631
 1324TIP3    H1 3936   1.613   1.685   2.886 -1.1856 -0.9407  0.9690
 1324TIP3    H2 3937   1.717   1.627   2.981  0.9853  0.0137 -0.7271
 1325TIP3   OH2 3938   5.064   1.811   0.834 -0.5612  0.0087  0.3556
 1325TIP3    H1 3939   4.975   1.839   0.812  0.0820  1.8042 -0.1298
 1325TIP3    H2 3940   5.096   1.878   0.894 -0.0411 -1.4520  1.7965
 1326TIP3   OH2 3941   2.717   1.515   3.411  0.1141 -0.5793 -0.3255
 1326TIP3    H1 3942   2.811   1.517   3.395 -0.1904 -0.6843 -2.3688
 1326TIP3    H2 3943   2.678   1.548   3.330 -1.6667 -2.3643 -0.2787
 1327TIP3   OH2 3944   2.149   2.166   0.406  0.0119  0.0542  0.1817
 1327TIP3    H1 3945   2.114   2.239   0.458  1.1592  0.7263  0.0421
 1327TIP3    H2 3946   2.228   2.139   0.452  1.2234  0.8536 -1.3146
 1328TIP3   OH2 3947   0.330   0.473   0.825  0.1432  0.0044 -0.0260
 1328TIP3    H1 3948   0.284   0.488   0.907 -0.2200  0.2368 -0.2675
 1328TIP3    H2 3949   0.358   0.382   0.829  1.8429  0.5388  1.1930
 1329TIP3   OH2 3950   4.156   2.118   0.226 -0.1782 -0.8529  0.0389
 1329TIP3    H1 3951   4.206   2.068   0.162 -0.2247 -1.6962  0.6500
 1329TIP3    H2 3952   4.087   2.160   0.174  0.0811 -1.1266 -0.5380
 1330TIP3   OH2 3953   1.403   3.493   4.603  0.1444  0.6843  0.9980
 1330TIP3    H1 3954   1.477   3.499   4.542 -1.6214  2.0182 -1.1602
 1330TIP3    H2 3955   1.393   3.581   4.637  0.4945  0.1557  2.5506
 1331TIP3   OH2 3956   5.890   5.081   0.032  0.2801 -0.7325 -0.4896
 1331TIP3    H1 3957   5.938   5.032   0.099  2.0149 -0.0873 -1.1944
 1331TIP3    H2 3958   5.950   5.084  -0.043 -0.8117  0.2760 -1.3586
 1332TIP3   OH2 3959   1.391   3.335   1.859  0.1462 -0.7208 -0.2655
 1332TIP3    H1 3960   1.395   3.338   1.764  0.8984  1.0046 -0.2002
 1332TIP3    H2 3961   1.478   3.307   1.887 -0.0022 -0.9928 -0.0594
 1333TIP3   OH2 3962   2.772   3.421   0.248  0.1451 -0.0257 -0.3883
 1333TIP3    H1 3963   2.821   3.501   0.229  0.0467  0.0997 -0.1131
 1333TIP3    H2 3964   2.803   3.358   0.183  1.7473 -0.3867  0.6560
 1334TIP3   OH2 3965   3.761   0.582   0.977 -0.2584  0.1883 -0.1647
 1334TIP3    H1 3966   3.706   0.590   1.055 -1.2848 -0.6975 -0.7636
 1334TIP3    H2 3967   3.850   0.596   1.009 -0.4466 -1.8420  1.5266
 1335TIP3   OH2 3968   3.128   6.222   2.375 -0.5593 -0.4887  0.6012
 1335TIP3    H1 3969   3.061   6.285   2.348 -2.1283 -2.2526  0.1666
 1335TIP3    H2 3970   3.150   6.174   2.295  1.9963  0.6403  0.5172
 1336TIP3   OH2 3971   3.828   1.317   1.224 -0.2497 -0.3713  0.4598
 1336TIP3    H1 3972   3.835   1.333   1.319 -0.8249 -3.1434  1.0535
 1336TIP3    H2 3973   3.911   1.273   1.202 -0.6442 -0.8725 -0.0343
 1337TIP3   OH2 3974   6.049   0.114   5.329 -0.3191 -0.8090 -0.5299
 1337TIP3    H1 3975   6.037   0.022   5.353  0.4051 -0.8162 -0.1679
 1337TIP3    H2 3976   6.105   0.111   5.251  1.1976 -0.6271  0.5169
 1338TIP3   OH2 3977   4.951   1.704   3.654 -0.1843  0.0600  0.5282
 1338TIP3    H1 3978   5.038   1.676   3.624 -0.0497  0.6544  0.3388
 1338TIP3    H2 3979   4.957   1.701   3.750 -0.5338 -1.5967  0.5185
 1339TIP3   OH2 3980   2.883   6.771   3.913 -0.2450  0.1582  0.4819
 1339TIP3    H1 3981   2.912   6.770   4.004  0.8166 -2.0563  0.1652
 1339TIP3    H2 3982   2.827   6.849   3.907  0.7106  1.0926  2.6709
 1340TIP3   OH2 3983   5.002   0.674   2.464 -0.4652  0.2890 -0.1535
 1340TIP3    H1 3984   4.969   0.589   2.495  0.2061  0.4198  0.9849
 1340TIP3    H2 3985   4.951   0.692   2.386 -0.0900 -1.5446 -0.8842
 1341TIP3   OH2 3986   1.336   6.764   2.796 -0.4682 -0.2735 -0.3243
 1341TIP3    H1 3987   1.408   6.789   2.854 -2.8864 -0.0113  2.7897
 1341TIP3    H2 3988   1.358   6.674   2.770  1.5452  0.2115 -0.5065
 1342TIP3   OH2 3989   4.448   0.744   4.541 -0.4386  0.0558  0.0270
 1342TIP3    H1 3990   4.374   0.790   4.501 -1.1342 -1.9353 -1.1651
 1342TIP3    H2 3991   4.463   0.669   4.483  0.9215 -0.9362  1.5732
 1343TIP3   OH2 3992   5.375   4.823   2.420 -0.5625 -0.0892  0.5757
 1343TIP3    H1 3993   5.437   4.753   2.439 -0.2856  0.4150  1.6072
 1343TIP3    H2 3994   5.418   4.877   2.354 -0.3164 -0.2838  0.5782
 1344TIP3   OH2 3995   5.642   1.487   2.121  0.1983  0.3822 -0.4780
 1344TIP3    H1 3996   5.591   1.567   2.109 -2.2430 -0.6774  1.8634
 1344TIP3    H2 3997   5.593   1.420   2.074  0.8763 -0.2276 -0.3382
 1345TIP3   OH2 3998   1.329   3.156   0.300 -0.6880  0.4165 -0.2437
 1345TIP3    H1 3999   1.294   3.130   0.215  0.3493  0.3601 -0.6715
 1345TIP3    H2 4000   1.409   3.205   0.279 -0.5391  0.5931  0.6883
 1346TIP3   OH2 4001   4.352   3.404   4.751  0.2083  0.7156 -0.0836
 1346TIP3    H1 4002   4.401   3.339   4.700 -0.0748  0.2004  0.2897
 1346TIP3    H2 4003   4.416   3.438   4.814  0.1571  0.2341  0.2306
 1347TIP3   OH2 4004   2.138   5.366   4.439  0.2432 -0.0721  0.7929
 1347TIP3    H1 4005   2.170   5.452   4.412  2.1439 -0.6471  1.0150
 1347TIP3    H2 4006   2.212   5.328   4.486  0.3692 -2.7755 -1.3497
 1348TIP3   OH2 4007   0.026   1.422   3.006  0.2477  0.6481 -0.3959
 1348TIP3    H1 4008   0.023   1.336   2.965  0.6721  0.7382 -0.6185
 1348TIP3    H2 4009   0.020   1.484   2.933  0.5004  0.8110 -0.2795
 1349TIP3   OH2 4010   2.033   5.979   0.962  0.2932 -0.0326 -0.3748
 1349TIP3    H1 4011   2.060   5.928   1.038  2.2127 -0.1272 -1.0905
 1349TIP3    H2 4012   1.937   5.979   0.966  0.3279 -1.4229  1.1051
 1350TIP3   OH2 4013   5.387   2.122   2.897 -0.5148  0.3563  0.0637
 1350TIP3    H1 4014   5.436   2.099   2.976  0.5843  1.7666 -0.1669
 1350TIP3    H2 4015   5.367   2.038   2.856  1.9959 -0.2899  0.0147
 1351TIP3   OH2 4016   5.457   2.757   0.543  0.4415 -0.1987 -0.3822
 1351TIP3    H1 4017   5.399   2.685   0.565  0.7926 -0.4532 -0.2789
 1351TIP3    H2 4018   5.457   2.814   0.620 -0.0946  0.0845 -0.5905
 1352TIP3   OH2 4019   5.173   4.342   0.234  0.0091 -0.0496 -0.3989
 1352TIP3    H1 4020   5.118   4.349   0.156  0.6294 -0.7096 -0.9101
 1352TIP3    H2 4021   5.178   4.248   0.251  1.5957 -0.0588 -0.8227
 1353TIP3   OH2 4022   4.411   2.804   5.392  0.6483  0.3990  0.7510
 1353TIP3    H1 4023   4.401   2.716   5.430 -4.0214  1.2962  2.2130
 1353TIP3    H2 4024   4.469   2.849   5.454  3.6181 -1.5937 -0.3253
 1354TIP3   OH2 4025   2.986   4.722   2.557  0.0869  0.0394 -1.0459
 1354TIP3    H1 4026   2.958   4.802   2.602 -0.2086 -0.6099 -0.0357
 1354TIP3    H2 4027   2.981   4.744   2.464  1.6800  1.7435 -0.7822
 1355TIP3   OH2 4028   0.293   2.914   1.626  0.0539  0.0860 -0.4917
 1355TIP3    H1 4029   0.322   2.950   1.710 -0.1780 -0.2168 -0.2836
 1355TIP3    H2 4030   0.353   2.953   1.562  1.3809 -1.0422  0.0086
 1356TIP3   OH2 4031   0.977   2.819   5.141  0.2926  0.0847 -0.5273
 1356TIP3    H1 4032   1.052   2.867   5.107  0.7758  0.0360  0.4332
 1356TIP3    H2 4033   1.003   2.727   5.135  0.6246  0.0956  0.4697
 1357TIP3   OH2 4034   2.158   0.153   3.297 -0.0678 -0.6809 -0.0690
 1357TIP3    H1 4035   2.145   0.191   3.384  0.8538 -2.0292  0.6942
 1357TIP3    H2 4036   2.251   0.131   3.294 -0.0384 -0.4524 -1.5040
 1358TIP3   OH2 4037   2.007   0.546   4.865 -0.0473 -0.1408 -0.0915
 1358TIP3    H1 4038   2.020   0.597   4.785  0.7868 -1.6586 -0.9793
 1358TIP3    H2 4039   2.096   0.521   4.892 -0.4464 -1.6149 -0.0534
 1359TIP3   OH2 4040   1.237   0.575   1.653  0.0784 -0.3726 -0.0043
 1359TIP3    H1 4041   1.271   0.593   1.741  1.2056  0.8382 -0.6533
 1359TIP3    H2 4042   1.187   0.653   1.630  0.5230 -0.3052 -0.7747
 1360TIP3   OH2 4043   2.911   3.846   0.965  0.1756  0.1240  0.5893
 1360TIP3    H1 4044   2.956   3.927   0.940  0.9366  0.5643  3.0939
 1360TIP3    H2 4045   2.931   3.785   0.894 -1.9349  2.5419 -2.3404
 1361TIP3   OH2 4046   1.573   0.806   5.304 -0.1062 -0.3017  0.0731
 1361TIP3    H1 4047   1.584   0.721   5.348 -0.2603 -0.1780  0.3571
 1361TIP3    H2 4048   1.530   0.861   5.370  0.6118  0.2021  0.1379
 1362TIP3   OH2 4049   5.454   6.020   4.083  0.1081 -0.2095  0.0466
 1362TIP3    H1 4050   5.429   6.002   4.173 -1.6365  1.3651 -0.0702
 1362TIP3    H2 4051   5.502   6.102   4.087  1.1875 -0.8009 -0.3333
 1363TIP3   OH2 4052   0.384   4.770   0.774  0.0579 -0.5520  0.1060
 1363TIP3    H1 4053   0.406   4.862   0.785 -1.4732 -0.2248  0.7201
 1363TIP3    H2 4054   0.290   4.766   0.787 -0.1070 -2.0305 -1.1851
 1364TIP3   OH2 4055   6.270   5.465   1.964 -0.5694  0.1643 -0.8603
 1364TIP3    H1 4056   6.271   5.548   1.917  1.6431  0.8552  0.2803
 1364TIP3    H2 4057   6.218   5.483   2.043 -0.7505  0.2316 -0.9945
 1365TIP3   OH2 4058   1.008   3.490   0.093 -0.3365 -0.0504 -0.0408
 1365TIP3    H1 4059   1.072   3.535   0.038 -0.2281  0.5399  0.5600
 1365TIP3    H2 4060   0.936   3.552   0.102  0.3648  0.5474  1.8452
 1366TIP3   OH2 4061   4.222   1.999   0.479  0.2431  0.2826  0.3709
 1366TIP3    H1 4062   4.283   2.057   0.525  2.3311 -0.2109 -1.6135
 1366TIP3    H2 4063   4.202   2.044   0.398 -1.4357  0.0488  0.6239
 1367TIP3   OH2 4064   3.528   5.260   3.074 -0.2379  0.1698 -0.4718
 1367TIP3    H1 4065   3.550   5.331   3.013 -0.0567  2.1994  1.8090
 1367TIP3    H2 4066   3.549   5.180   3.026 -0.9407  1.5758 -3.3770
 1368TIP3   OH2 4067   2.510   2.272   3.563  0.0591  0.2911  0.1227
 1368TIP3    H1 4068   2.477   2.362   3.573 -1.0572 -0.1959  1.1419
 1368TIP3    H2 4069   2.491   2.231   3.647  2.0208 -0.4663  0.2477
 1369TIP3   OH2 4070   2.955   1.666   5.232 -0.1826  0.3331  0.6000
 1369TIP3    H1 4071   2.953   1.659   5.136 -1.3453  0.9370  0.5573
 1369TIP3    H2 4072   2.893   1.736   5.252  0.8154  0.9297  1.7486
 1370TIP3   OH2 4073   4.081   4.074   1.537 -0.4879  0.2174  0.1126
 1370TIP3    H1 4074   4.079   3.978   1.538  0.9413  0.1638  0.3546
 1370TIP3    H2 4075   4.067   4.098   1.445  1.8449 -0.3600 -0.4493
 1371TIP3   OH2 4076   1.993   3.175   1.723  0.3354 -0.2244 -0.0164
 1371TIP3    H1 4077   1.907   3.215   1.710  1.2489  1.8876 -0.0091
 1371TIP3    H2 4078   1.984   3.086   1.690 -2.8068 -1.2507  3.0695
 1372TIP3   OH2 4079   3.323   1.629   0.558 -0.0187 -0.0462 -0.1557
 1372TIP3    H1 4080   3.414   1.602   0.561 -0.3670 -1.1632  1.1350
 1372TIP3    H2 4081   3.317   1.686   0.481  1.7977  0.2202 -0.1271
 1373TIP3   OH2 4082   6.069   0.950   2.216  0.0647  0.1221  0.0518
 1373TIP3    H1 4083   6.144   0.951   2.157  1.1036  2.4318  1.2813
 1373TIP3    H2 4084   6.007   1.012   2.177 -0.0309  0.2818  0.4525
 1374TIP3   OH2 4085   0.276   5.943   3.526 -0.3329  0.2486 -0.2231
 1374TIP3    H1 4086   0.256   5.987   3.444 -0.3263 -0.0081 -0.3641
 1374TIP3    H2 4087   0.264   5.850   3.507  0.3626  0.1374 -0.1308
 1375TIP3   OH2 4088   6.572   6.649   3.781 -0.3570  0.1194  0.3425
 1375TIP3    H1 4089   6.655   6.674   3.822  0.2119  1.1594 -1.3479
 1375TIP3    H2 4090   6.586   6.559   3.751 -0.1213  0.0124  0.7730
 1376TIP3   OH2 4091   1.367   3.904   1.326 -0.3252 -0.1575  0.1184
 1376TIP3    H1 4092   1.451   3.914   1.282 -1.1346  0.6177 -1.3182
 1376TIP3    H2 4093   1.312   3.974   1.290 -1.3598 -0.1667  1.5896
 1377TIP3   OH2 4094   3.753   0.810   3.360  0.7828  0.2841  0.8220
 1377TIP3    H1 4095   3.818   0.843   3.297  1.1878  0.8731  1.5397
 1377TIP3    H2 4096   3.694   0.757   3.306  0.8582  1.1455 -0.1489
 1378TIP3   OH2 4097   0.390   5.315   2.950 -0.2800  0.2267  0.1568
 1378TIP3    H1 4098   0.427   5.357   3.027 -0.8930 -0.3368  0.7750
 1378TIP3    H2 4099   0.440   5.350   2.876  1.3963 -0.4291  0.9471
 1379TIP3   OH2 4100   2.574   0.014   4.168  0.7858 -0.4035 -0.1843
 1379TIP3    H1 4101   2.523   0.050   4.095  1.2528  1.7398  0.4742
 1379TIP3    H2 4102   2.597   0.090   4.221  2.2539 -1.6617  1.0823
 1380TIP3   OH2 4103   6.306   2.993   3.572  1.0956 -0.0273  0.3537
 1380TIP3    H1 4104   6.213   3.008   3.586  1.2558  1.0746  0.3082
 1380TIP3    H2 4105   6.310   2.931   3.499  0.3940 -0.8001  0.9535
 1381TIP3   OH2 4106   2.437   2.996   5.695  0.9667 -0.1559  0.1289
 1381TIP3    H1 4107   2.463   3.087   5.712 -1.9534  1.1377 -1.5502
 1381TIP3    H2 4108   2.472   2.977   5.608 -0.0398  0.0821 -0.3384
 1382TIP3   OH2 4109   0.288   4.131   3.183  0.0432  0.2490 -0.9842
 1382TIP3    H1 4110   0.247   4.046   3.202 -1.1717  1.2358  1.2489
 1382TIP3    H2 4111   0.221   4.179   3.133 -0.3110  0.7283 -0.0869
 1383TIP3   OH2 4112   4.023   0.046   3.695  0.6221 -0.1343 -0.5185
 1383TIP3    H1 4113   3.982  -0.041   3.698  1.0033 -0.3744 -1.8612
 1383TIP3    H2 4114   4.100   0.034   3.640  0.4150  1.1665 -1.1242
 1384TIP3   OH2 4115   3.799   2.609   2.097  0.0284  0.6837  0.0448
 1384TIP3    H1 4116   3.835   2.647   2.178 -3.8356 -0.3901  2.5139
 1384TIP3    H2 4117   3.710   2.643   2.093 -0.9073 -1.7574 -2.0732
 1385TIP3   OH2 4118   5.679   2.024   2.752  0.0089  0.7723  0.1896
 1385TIP3    H1 4119   5.665   2.099   2.695 -0.1824  0.7764  0.2386
 1385TIP3    H2 4120   5.614   2.034   2.822 -0.6103  0.1126 -0.2699
 1386TIP3   OH2 4121   6.407   2.278   5.618 -0.0232 -0.5665  0.1519
 1386TIP3    H1 4122   6.448   2.362   5.639 -0.4029 -0.5317  0.8013
 1386TIP3    H2 4123   6.479   2.216   5.618  0.1211 -0.4098  0.7041
 1387TIP3   OH2 4124   5.432   3.956   0.474 -0.5569  0.4290 -0.5114
 1387TIP3    H1 4125   5.373   3.924   0.542  0.6607  0.5187  0.6124
 1387TIP3    H2 4126   5.384   4.028   0.433 -1.6608 -0.1847 -0.3629
 1388TIP3   OH2 4127   2.877   0.630   5.294 -0.3437  0.0802  0.2256
 1388TIP3    H1 4128   2.800   0.681   5.269 -0.9326  0.1657  2.0263
 1388TIP3    H2 4129   2.842   0.544   5.318  0.2066 -0.0884  0.4381
 1389TIP3   OH2 4130   5.323   1.104   2.498 -0.4367  0.1323 -0.0673
 1389TIP3    H1 4131   5.360   1.057   2.423  0.6858  0.6631  0.1493
 1389TIP3    H2 4132   5.362   1.063   2.575 -1.7837 -0.5833  0.2708
 1390TIP3   OH2 4133   5.781   1.955   4.576  0.3209  0.0537 -0.2605
 1390TIP3    H1 4134   5.873   1.939   4.555  0.9649 -0.1037  2.3899
 1390TIP3    H2 4135   5.748   1.871   4.607  0.0537  0.7058  1.3192
 1391TIP3   OH2 4136   1.939   1.314  -0.019 -0.0443  0.3924  0.8461
 1391TIP3    H1 4137   1.880   1.338   0.053 -0.9020  1.4612 -0.1562
 1391TIP3    H2 4138   1.971   1.227   0.004 -2.7627 -0.6694  1.0211
 1392TIP3   OH2 4139   5.264   4.044   5.666  0.1701 -0.5710 -0.5026
 1392TIP3    H1 4140   5.351   4.073   5.637 -0.1334  1.3187  0.3132
 1392TIP3    H2 4141   5.235   4.113   5.726 -1.0227 -2.2139  0.8873
 1393TIP3   OH2 4142   6.043   4.441   0.480 -0.1454  0.2532 -0.1629
 1393TIP3    H1 4143   5.982   4.379   0.520  0.0342  1.2066  1.6757
 1393TIP3    H2 4144   6.123   4.391   0.467 -0.1215 -0.0165  0.9484
 1394TIP3   OH2 4145   5.723   2.999   4.538  0.5777 -0.0016 -0.0579
 1394TIP3    H1 4146   5.711   3.094   4.540  1.7691  0.2113 -1.4105
 1394TIP3    H2 4147   5.772   2.982   4.457 -0.4419 -1.8699 -0.3490
 1395TIP3   OH2 4148   6.931   2.144   4.419 -0.5798 -0.4641 -0.2874
 1395TIP3    H1 4149   6.917   2.055   4.450 -0.6798  0.3433  2.2350
 1395TIP3    H2 4150   6.951   2.134   4.326 -0.3294 -3.1134 -0.0355
 1396TIP3   OH2 4151   0.601   0.915   3.696  0.2749  0.0700  0.4346
 1396TIP3    H1 4152   0.543   0.991   3.697 -0.9529 -0.7628 -1.5187
 1396TIP3    H2 4153   0.543   0.841   3.710  1.0968 -0.6910 -0.0977
 1397TIP3   OH2 4154   4.624   5.820   4.228 -0.2029  1.2123  0.4083
 1397TIP3    H1 4155   4.632   5.737   4.182 -1.5469  1.5786 -0.5626
 1397TIP3    H2 4156   4.603   5.796   4.318  0.6801  0.5071  0.4450
 1398TIP3   OH2 4157   0.674   6.672   3.863  0.1682 -0.4139 -0.1902
 1398TIP3    H1 4158   0.613   6.745   3.871 -0.3850 -0.9378  0.5404
 1398TIP3    H2 4159   0.752   6.710   3.823  0.6226  1.0188  1.9022
 1399TIP3   OH2 4160   2.313   1.010   4.922  0.3084  0.1169 -0.0251
 1399TIP3    H1 4161   2.335   0.940   4.983  0.4564 -1.6223 -1.9575
 1399TIP3    H2 4162   2.220   1.028   4.937 -0.8087 -3.2237 -1.9333
 1400TIP3   OH2 4163   1.183   1.716   0.558  0.2518  0.1107 -0.0816
 1400TIP3    H1 4164   1.270   1.743   0.589  0.7175 -0.7210 -0.6250
 1400TIP3    H2 4165   1.201   1.644   0.497 -0.8422 -0.3275  0.0903
 1401TIP3   OH2 4166   5.747   2.180   0.715  0.1704 -0.3253 -0.3565
 1401TIP3    H1 4167   5.830   2.197   0.672  0.5079 -0.6505  0.1547
 1401TIP3    H2 4168   5.718   2.265   0.746  0.1590 -0.1636 -0.8049
 1402TIP3   OH2 4169   3.398   5.705   5.845  0.6130  0.4858 -0.0510
 1402TIP3    H1 4170   3.473   5.706   5.785  1.1959  0.5706  0.6689
 1402TIP3    H2 4171   3.396   5.616   5.879  0.4080  0.4954 -0.0371
 1403TIP3   OH2 4172   1.643   1.134   4.675  0.2928 -0.4464 -0.0455
 1403TIP3    H1 4173   1.581   1.084   4.728  0.8023 -1.6052 -0.5159
 1403TIP3    H2 4174   1.596   1.214   4.653 -0.7670 -0.9655  0.2454
 1404TIP3   OH2 4175   3.265   0.551   0.171 -0.1942  0.0192 -0.3966
 1404TIP3    H1 4176   3.229   0.521   0.254  0.0398 -1.4408 -0.8053
 1404TIP3    H2 4177   3.340   0.604   0.196 -0.8253  0.5985  0.3499
 1405TIP3   OH2 4178   1.332   0.970   3.950  0.0863  0.1537 -0.3209
 1405TIP3    H1 4179   1.309   0.877   3.949  0.5969 -0.0102  0.9639
 1405TIP3    H2 4180   1.257   1.012   3.994 -0.8429  0.5889 -2.2214
 1406TIP3   OH2 4181   2.616   2.243   1.516 -0.3618 -0.5003  0.3958
 1406TIP3    H1 4182   2.645   2.214   1.430  0.3694 -0.5470  0.6520
 1406TIP3    H2 4183   2.522   2.224   1.517 -0.6860  0.8237 -0.9280
 1407TIP3   OH2 4184   5.419   4.081   1.645 -0.1567  0.1710  0.4747
 1407TIP3    H1 4185   5.434   4.175   1.636  1.7526 -0.0261  1.2330
 1407TIP3    H2 4186   5.326   4.070   1.625 -0.2838  2.1261 -0.2241
 1408TIP3   OH2 4187   5.454   4.232   4.836 -0.4707 -0.0486  0.1323
 1408TIP3    H1 4188   5.542   4.267   4.821 -0.7198 -0.0350 -1.5087
 1408TIP3    H2 4189   5.413   4.232   4.749 -1.9459 -0.4648  0.7920
 1409TIP3   OH2 4190   2.194   5.463   3.560 -0.4507 -0.7456 -0.4456
 1409TIP3    H1 4191   2.264   5.503   3.508 -1.4090  1.8868  0.1536
 1409TIP3    H2 4192   2.232   5.450   3.647 -1.4877  4.0839  1.0153
 1410TIP3   OH2 4193   6.182   3.749   0.261 -0.2548  0.1558  0.1614
 1410TIP3    H1 4194   6.201   3.834   0.300 -1.3056  0.3002  0.3986
 1410TIP3    H2 4195   6.104   3.764   0.207 -0.2625 -0.5782 -0.0414
 1411TIP3   OH2 4196   3.778   6.671   5.417 -0.2044 -0.4376 -0.1851
 1411TIP3    H1 4197   3.756   6.746   5.472  1.6295 -0.4366  0.6339
 1411TIP3    H2 4198   3.708   6.609   5.432 -0.4710  0.1311  1.0957
 1412TIP3   OH2 4199   4.570   2.991   4.128  0.0969  0.0176  0.4464
 1412TIP3    H1 4200   4.647   3.026   4.084 -0.4578  0.9457  0.1952
 1412TIP3    H2 4201   4.504   3.059   4.121 -0.1227  0.0938  2.4579
 1413TIP3   OH2 4202   3.055   6.414   0.941 -0.6386 -0.3052 -0.8289
 1413TIP3    H1 4203   3.073   6.354   1.013  0.9901 -0.9841 -1.7406
 1413TIP3    H2 4204   3.123   6.395   0.877 -0.2924  2.2515 -1.3275
 1414TIP3   OH2 4205   4.339   2.356   4.168 -0.1643 -0.0671  0.6813
 1414TIP3    H1 4206   4.301   2.339   4.082 -1.6720  1.7219  0.9360
 1414TIP3    H2 4207   4.432   2.371   4.151 -0.2649 -0.7296 -0.4967
 1415TIP3   OH2 4208   0.466   5.497   5.250 -0.1489  0.2118 -0.0421
 1415TIP3    H1 4209   0.376   5.496   5.216 -0.3185  1.1557  0.3546
 1415TIP3    H2 4210   0.515   5.443   5.188 -0.9420 -0.1352 -0.3900
 1416TIP3   OH2 4211   1.221   4.107   5.701  0.2241  0.0970 -0.0723
 1416TIP3    H1 4212   1.199   4.200   5.705 -3.0633 -0.5675 -0.0126
 1416TIP3    H2 4213   1.299   4.104   5.645  0.4380  2.8574 -0.0789
 1417TIP3   OH2 4214   1.865   0.466   5.848 -0.1809 -0.2707  0.6179
 1417TIP3    H1 4215   1.852   0.482   5.941 -0.9869  0.1933  0.4326
 1417TIP3    H2 4216   1.889   0.374   5.842 -1.8267 -0.7638  1.1376
 1418TIP3   OH2 4217   5.156   0.659   1.549  0.2135 -0.5074  0.3335
 1418TIP3    H1 4218   5.068   0.625   1.530  0.8914 -0.8934 -2.4924
 1418TIP3    H2 4219   5.145   0.754   1.552 -0.2866 -0.5470 -0.0860
 1419TIP3   OH2 4220   3.969   4.524   0.639  0.3506  0.3518 -0.1501
 1419TIP3    H1 4221   3.990   4.499   0.550  0.5553 -3.3713  0.7804
 1419TIP3    H2 4222   4.043   4.578   0.667  0.6358  0.9546 -1.9382
 1420TIP3   OH2 4223   0.842   1.345   5.682  0.0347 -0.4687 -0.5761
 1420TIP3    H1 4224   0.875   1.434   5.692 -2.9753  0.5669  1.7113
 1420TIP3    H2 4225   0.793   1.346   5.600 -0.0190 -0.0324 -0.5365
 1421TIP3   OH2 4226   1.545   5.262   3.941 -0.6614 -0.3360  0.2557
 1421TIP3    H1 4227   1.473   5.305   3.894 -1.7803  0.3061  2.4201
 1421TIP3    H2 4228   1.562   5.320   4.016  4.0307  1.0547 -1.5152
 1422TIP3   OH2 4229   2.533   2.325   0.477  0.2889  0.4538  0.0708
 1422TIP3    H1 4230   2.555   2.403   0.528  2.8354  0.4690 -0.8840
 1422TIP3    H2 4231   2.485   2.358   0.401 -2.1708  0.5863  1.5877
 1423TIP3   OH2 4232   7.101   2.956   5.338  0.1185 -0.0808 -0.0589
 1423TIP3    H1 4233   7.164   2.927   5.272 -0.4995  1.0909 -1.2053
 1423TIP3    H2 4234   7.052   3.026   5.295 -1.7344 -0.7084  0.9205
 1424TIP3   OH2 4235   2.042   3.829   0.456  0.5450 -0.1230  0.5386
 1424TIP3    H1 4236   2.109   3.775   0.415  0.9180 -0.3678  1.4563
 1424TIP3    H2 4237   2.088   3.878   0.524 -0.0805  0.1725  0.7622
 1425TIP3   OH2 4238   1.648   0.974   5.099 -0.7191 -0.6000 -0.1717
 1425TIP3    H1 4239   1.697   0.907   5.052 -0.9551 -1.5740  0.9164
 1425TIP3    H2 4240   1.622   0.932   5.181 -1.1655  0.7212  0.3987
 1426TIP3   OH2 4241   5.752   1.560   5.200 -0.1898  0.1930 -0.3265
 1426TIP3    H1 4242   5.720   1.575   5.289 -1.6535  2.3367 -1.1371
 1426TIP3    H2 4243   5.714   1.476   5.175 -1.3862  0.5049  0.3882
 1427TIP3   OH2 4244   4.506   2.253   1.614  0.2227  0.5578 -0.1138
 1427TIP3    H1 4245   4.426   2.200   1.618  1.1230 -0.9927 -1.4495
 1427TIP3    H2 4246   4.493   2.311   1.540  0.1146  0.7059  0.0199
 1428TIP3   OH2 4247   4.106   4.192   0.834  0.1366  0.0353 -0.6710
 1428TIP3    H1 4248   4.182   4.141   0.806 -0.5910 -2.4437  1.4954
 1428TIP3    H2 4249   4.144   4.270   0.874  1.7344 -1.7528  1.5732
 1429TIP3   OH2 4250   6.655   0.586   4.930  0.0871 -0.4309  0.0682
 1429TIP3    H1 4251   6.636   0.570   5.022 -1.0754  1.1312  0.1276
 1429TIP3    H2 4252   6.739   0.542   4.915  0.8229  0.1578  2.1320
 1430TIP3   OH2 4253   0.055   4.852   0.531  0.2909  0.4756 -0.1316
 1430TIP3    H1 4254   0.127   4.911   0.512  0.2429  0.1376 -1.4517
 1430TIP3    H2 4255  -0.019   4.887   0.481 -0.0052 -0.1146 -0.1242
 1431TIP3   OH2 4256   5.908   3.017   2.336  0.2780  0.4287 -0.1898
 1431TIP3    H1 4257   5.964   3.005   2.413 -0.9189  1.6262  0.9300
 1431TIP3    H2 4258   5.923   3.108   2.309 -0.3208  0.4352 -0.5285
 1432TIP3   OH2 4259   1.104   0.578   3.305 -0.0605 -0.3687  0.2315
 1432TIP3    H1 4260   1.141   0.630   3.233  3.2891  0.3422  2.2418
 1432TIP3    H2 4261   1.155   0.604   3.381 -1.8421 -2.8389  2.4305
 1433TIP3   OH2 4262   5.452   6.642   1.890 -0.3999  0.7349 -0.1208
 1433TIP3    H1 4263   5.440   6.716   1.830  2.8935  1.7580  0.3251
 1433TIP3    H2 4264   5.438   6.564   1.835  0.5440  1.6512 -1.7345
 1434TIP3   OH2 4265   5.760   0.182   2.141  0.7423  0.6566 -0.1036
 1434TIP3    H1 4266   5.715   0.266   2.137  0.1873  0.5143  1.9338
 1434TIP3    H2 4267   5.822   0.184   2.069  0.2573  2.5289 -0.5102
 1435TIP3   OH2 4268   5.029   6.209   3.502 -0.3145 -0.2845  0.3430
 1435TIP3    H1 4269   5.021   6.288   3.555  0.0838  1.1336 -1.6078
 1435TIP3    H2 4270   5.096   6.157   3.547  0.5534  1.2047  0.8390
 1436TIP3   OH2 4271   0.084   3.341   0.919  0.5264 -0.2186  0.0007
 1436TIP3    H1 4272   0.007   3.338   0.862 -1.1714 -1.7379  2.1941
 1436TIP3    H2 4273   0.136   3.266   0.893  0.8443  0.2949 -0.8909
 1437TIP3   OH2 4274   4.134   1.230   0.415  0.0330 -0.0130  0.3188
 1437TIP3    H1 4275   4.135   1.135   0.430 -0.7167  0.2136  2.0446
 1437TIP3    H2 4276   4.043   1.249   0.391  0.5017  0.1006 -1.4686
 1438TIP3   OH2 4277   5.903   5.524   3.078 -0.1152 -0.2566  0.3518
 1438TIP3    H1 4278   5.886   5.435   3.048  1.5817 -0.8324  1.0146
 1438TIP3    H2 4279   5.927   5.515   3.170  2.8674  0.4900 -0.2400
 1439TIP3   OH2 4280   1.775   6.207   3.891  0.4701 -1.1585 -0.6782
 1439TIP3    H1 4281   1.820   6.146   3.950  1.6618 -0.7877 -1.1604
 1439TIP3    H2 4282   1.795   6.175   3.803  0.3828 -0.5764 -0.9159
 1440TIP3   OH2 4283   0.305   4.678   5.390 -0.3255 -0.0697 -0.1086
 1440TIP3    H1 4284   0.369   4.748   5.377 -1.1762  0.6542 -0.5425
 1440TIP3    H2 4285   0.230   4.721   5.431 -0.0833 -1.1460  1.5730
 1441TIP3   OH2 4286   2.734   3.883   1.521  0.0443  0.1468 -0.1283
 1441TIP3    H1 4287   2.827   3.868   1.540 -0.0227 -1.4958 -0.9862
 1441TIP3    H2 4288   2.731   3.974   1.491  1.0573  0.8529  1.7157
 1442TIP3   OH2 4289   2.644   1.196   1.905 -0.0542 -0.0504 -0.6371
 1442TIP3    H1 4290   2.626   1.265   1.969  0.8483 -0.7819  0.4517
 1442TIP3    H2 4291   2.558   1.159   1.885 -0.3716  0.2689  0.0885
 1443TIP3   OH2 4292   1.727   1.675   3.186  0.5474 -0.1559  0.1879
 1443TIP3    H1 4293   1.714   1.759   3.142  1.3888 -0.2210 -0.2081
 1443TIP3    H2 4294   1.746   1.699   3.277  0.3627  0.0648  0.1693
 1444TIP3   OH2 4295   4.301   0.799   2.321 -0.2500 -0.0738  0.3124
 1444TIP3    H1 4296   4.373   0.851   2.285 -0.6565  0.9723  0.9704
 1444TIP3    H2 4297   4.335   0.766   2.404 -0.2862 -0.1933  0.2810
 1445TIP3   OH2 4298   4.410   6.781   4.004  0.5019  0.3054  0.6178
 1445TIP3    H1 4299   4.436   6.806   3.915  0.1305 -0.9425  0.1504
 1445TIP3    H2 4300   4.485   6.807   4.058  1.2585 -0.0658 -0.2332
 1446TIP3   OH2 4301   0.810   2.558   3.852 -0.0016 -0.0508 -0.1088
 1446TIP3    H1 4302   0.743   2.523   3.794  0.6108 -1.7129  0.1201
 1446TIP3    H2 4303   0.763   2.615   3.912 -0.8221  0.7057 -1.4460
 1447TIP3   OH2 4304   6.537   3.810   1.684  0.2676  0.2148  0.0536
 1447TIP3    H1 4305   6.609   3.765   1.640  0.7296 -0.3725  1.3793
 1447TIP3    H2 4306   6.556   3.903   1.672  2.0426  0.1013  1.5953
 1448TIP3   OH2 4307   5.416   1.750   0.151  0.2838 -0.5318 -0.1033
 1448TIP3    H1 4308   5.443   1.727   0.240 -0.6934  1.6251  0.8279
 1448TIP3    H2 4309   5.488   1.802   0.118 -0.0433  0.0373  0.0633
 1449TIP3   OH2 4310   5.776   2.731   2.877 -0.0561 -0.1359  0.0561
 1449TIP3    H1 4311   5.766   2.811   2.824  1.9191 -0.3114 -0.6846
 1449TIP3    H2 4312   5.785   2.661   2.812  1.0263 -0.5552  0.6362
 1450TIP3   OH2 4313   6.335   4.497   3.122 -0.2223 -0.5269 -0.1839
 1450TIP3    H1 4314   6.328   4.424   3.061  0.3723 -0.5796 -0.1894
 1450TIP3    H2 4315   6.414   4.478   3.173 -0.4852 -0.2749  0.3225
 1451TIP3   OH2 4316   3.922   3.564   3.450 -0.0803 -0.2368  0.1062
 1451TIP3    H1 4317   3.881   3.646   3.478 -0.5181 -0.6123  0.5789
 1451TIP3    H2 4318   3.849   3.506   3.430  0.2174 -0.9507  1.0618
 1452TIP3   OH2 4319   0.782   0.918   5.737 -0.8459  0.6422  0.4531
 1452TIP3    H1 4320   0.748   0.832   5.759  1.2497 -0.4620 -0.3362
 1452TIP3    H2 4321   0.772   0.925   5.642  2.6805 -0.5874 -0.1586
 1453TIP3   OH2 4322   1.228   1.316   3.328 -0.3597  1.0979 -0.2054
 1453TIP3    H1 4323   1.242   1.399   3.282  0.0987  1.1601  0.0419
 1453TIP3    H2 4324   1.140   1.289   3.302  0.3828  0.4200 -2.2108
 1454TIP3   OH2 4325   6.992   1.431   3.400  1.0446  1.1758  0.1338
 1454TIP3    H1 4326   7.085   1.454   3.399  1.0684  1.2499 -2.6325
 1454TIP3    H2 4327   6.948   1.506   3.361 -0.3964  1.6049  2.3671
 1455TIP3   OH2 4328   2.146   0.071   1.957  0.2517 -0.3542 -0.6365
 1455TIP3    H1 4329   2.230   0.086   2.001  0.2988 -1.2962 -0.3816
 1455TIP3    H2 4330   2.169   0.065   1.864  0.4898 -0.7715 -0.5522
 1456TIP3   OH2 4331   1.617   3.218   1.985 -0.5094  0.5673 -0.4966
 1456TIP3    H1 4332   1.676   3.143   1.990  0.6534  1.4990  0.2584
 1456TIP3    H2 4333   1.663   3.288   2.029 -2.2845  1.2927  0.3109
 1457TIP3   OH2 4334   4.449   1.287   3.216  0.0112 -0.4228  0.1303
 1457TIP3    H1 4335   4.398   1.242   3.284 -1.7200  0.7582 -0.2919
 1457TIP3    H2 4336   4.446   1.379   3.243  0.6856 -0.1493 -0.7169
 1458TIP3   OH2 4337   6.158   2.531   4.244 -0.5123  0.1981 -0.2352
 1458TIP3    H1 4338   6.185   2.513   4.154 -0.6534 -0.3939 -0.1604
 1458TIP3    H2 4339   6.109   2.613   4.238 -0.7825  0.0049 -0.7508
 1459TIP3   OH2 4340   0.936   6.201   0.073  0.1444 -0.4107  0.0040
 1459TIP3    H1 4341   0.889   6.134   0.024 -0.2140 -1.3250  1.5424
 1459TIP3    H2 4342   0.895   6.202   0.159  1.5383  0.2870  0.7025
 1460TIP3   OH2 4343   2.877   1.081   0.119 -0.2676  0.3560 -0.0451
 1460TIP3    H1 4344   2.906   1.140   0.188  2.4567 -1.8369  0.8941
 1460TIP3    H2 4345   2.956   1.066   0.066 -0.9080 -2.1132 -0.4295
 1461TIP3   OH2 4346   1.269   3.472   4.923 -0.2387  0.0386 -0.4191
 1461TIP3    H1 4347   1.345   3.451   4.976  0.6891  1.7812 -0.9799
 1461TIP3    H2 4348   1.274   3.412   4.848  1.0653  0.6475 -0.8512
 1462TIP3   OH2 4349   3.784   3.873   5.717 -0.3544 -0.2392  0.2688
 1462TIP3    H1 4350   3.720   3.805   5.699 -0.9536  0.1830  0.7890
 1462TIP3    H2 4351   3.759   3.908   5.802  0.5807 -0.0842  0.4957
 1463TIP3   OH2 4352   3.422   3.194   5.100  0.1693  1.3979 -0.5080
 1463TIP3    H1 4353   3.352   3.202   5.036 -0.0948 -0.1641 -0.4354
 1463TIP3    H2 4354   3.395   3.123   5.158  1.0970  1.7918  0.4562
 1464TIP3   OH2 4355   4.198   1.306   0.082 -0.6481 -0.4387 -0.2848
 1464TIP3    H1 4356   4.215   1.235   0.019  2.4266 -0.0517 -0.0586
 1464TIP3    H2 4357   4.161   1.262   0.158 -0.7006 -1.4978 -0.8932
 1465TIP3   OH2 4358   0.038   0.657   2.837 -0.3284 -0.6563 -0.2015
 1465TIP3    H1 4359   0.026   0.620   2.749  0.2437  0.3675 -0.7206
 1465TIP3    H2 4360   0.120   0.618   2.868  0.5183  0.5105 -0.9350
 1466TIP3   OH2 4361   6.391   5.161   0.330 -0.4382  0.1042 -0.0980
 1466TIP3    H1 4362   6.479   5.188   0.355  0.5051 -2.0232 -0.8475
 1466TIP3    H2 4363   6.369   5.217   0.255  0.2254  0.7271  0.1672
 1467TIP3   OH2 4364   1.053   5.742   0.488 -0.5488 -0.0392 -0.1594
 1467TIP3    H1 4365   1.053   5.823   0.438 -1.2382 -0.1115 -0.2922
 1467TIP3    H2 4366   1.126   5.691   0.452 -0.2565  0.4264 -0.2282
 1468TIP3   OH2 4367   1.474   2.068   4.263  0.2807 -0.1998 -0.2834
 1468TIP3    H1 4368   1.477   1.973   4.266  0.3169 -0.2650 -1.7156
 1468TIP3    H2 4369   1.551   2.093   4.212  0.0771  0.5735 -0.2231
 1469TIP3   OH2 4370   0.923   5.696   1.152  0.5851  0.0248 -0.2038
 1469TIP3    H1 4371   0.907   5.718   1.060  0.9990 -0.6313 -0.4471
 1469TIP3    H2 4372   0.879   5.611   1.164  2.0347 -0.7780 -0.3107
 1470TIP3   OH2 4373   1.921   4.415   0.549 -0.2526  0.3866 -0.4067
 1470TIP3    H1 4374   1.880   4.340   0.507 -1.0845 -1.0532  2.6453
 1470TIP3    H2 4375   1.896   4.408   0.641  1.1902  3.3984  0.3726
 1471TIP3   OH2 4376   1.676   4.456   4.687  0.4638 -0.1597  0.0344
 1471TIP3    H1 4377   1.650   4.534   4.639 -1.6361 -1.4025 -0.9484
 1471TIP3    H2 4378   1.637   4.467   4.774  0.2147 -0.0992 -0.0855
 1472TIP3   OH2 4379   3.904   5.932   4.575 -0.4352  1.0374  0.3825
 1472TIP3    H1 4380   3.981   5.914   4.521  0.8632  1.1187  2.1088
 1472TIP3    H2 4381   3.903   6.027   4.584  0.2415  0.9491  1.6545
 1473TIP3   OH2 4382   5.203   3.261   2.564  0.1370 -0.4767 -0.3412
 1473TIP3    H1 4383   5.242   3.347   2.583 -0.7170 -0.1032 -0.2107
 1473TIP3    H2 4384   5.273   3.199   2.578  0.3639  0.0638  1.0577
 1474TIP3   OH2 4385   4.226   0.018   0.821 -0.0437 -0.0970 -0.5882
 1474TIP3    H1 4386   4.230  -0.030   0.904 -0.4416 -0.2477 -0.6528
 1474TIP3    H2 4387   4.304   0.073   0.821  0.4781 -0.8259 -0.5572
 1475TIP3   OH2 4388   0.608   3.106   1.704 -0.2419  0.4536 -0.1772
 1475TIP3    H1 4389   0.521   3.144   1.696 -0.4102  0.1229  0.0488
 1475TIP3    H2 4390   0.655   3.136   1.626 -0.4916  0.8031 -0.1922
 1476TIP3   OH2 4391   2.829   5.468   0.773 -0.2474 -0.7960  0.5946
 1476TIP3    H1 4392   2.742   5.472   0.735 -0.4535 -0.7751  1.0634
 1476TIP3    H2 4393   2.819   5.413   0.850  0.1470 -0.7634  0.6712
 1477TIP3   OH2 4394   4.117   1.158   1.500  0.0360 -0.1385  0.5017
 1477TIP3    H1 4395   4.157   1.230   1.452  0.4922 -0.2678  0.6806
 1477TIP3    H2 4396   4.163   1.080   1.469 -0.3169 -0.3320  0.4547
 1478TIP3   OH2 4397   6.438   0.153   0.537 -0.5029 -0.4847  0.0051
 1478TIP3    H1 4398   6.398   0.216   0.597  0.3173 -0.6236  0.7210
 1478TIP3    H2 4399   6.385   0.074   0.545 -0.8130 -0.2720  0.0251
 1479TIP3   OH2 4400   3.649   6.008   5.090  0.2446  0.6423  0.3155
 1479TIP3    H1 4401   3.605   5.924   5.083  1.1239  0.2585 -1.0142
 1479TIP3    H2 4402   3.696   6.003   5.173  0.1648 -0.1178  0.3240
 1480TIP3   OH2 4403   5.577   2.892   1.216  0.4441  0.5368  0.1517
 1480TIP3    H1 4404   5.486   2.898   1.185  0.9617  1.4574 -1.2924
 1480TIP3    H2 4405   5.573   2.834   1.292 -1.2163 -0.1549 -0.4216
 1481TIP3   OH2 4406   6.940   3.489   2.543 -0.1770  0.0552  0.0898
 1481TIP3    H1 4407   7.003   3.513   2.475 -0.3065 -0.8326 -0.3615
 1481TIP3    H2 4408   6.952   3.555   2.612  1.0263  0.0719 -0.1204
 1482TIP3   OH2 4409   6.466   0.321   5.722  0.2876  0.1376 -0.2126
 1482TIP3    H1 4410   6.518   0.383   5.672 -0.1501  0.1123 -0.7132
 1482TIP3    H2 4411   6.520   0.242   5.727  0.3527  0.1561 -0.6061
 1483TIP3   OH2 4412   5.964   0.870   3.425  0.4310 -0.0267 -0.2455
 1483TIP3    H1 4413   5.923   0.874   3.339 -0.8305 -0.5766  0.2999
 1483TIP3    H2 4414   5.929   0.791   3.465  0.4170  0.5906  1.0472
 1484TIP3   OH2 4415   5.780   3.819   0.438  0.2231  0.3797  0.4986
 1484TIP3    H1 4416   5.763   3.816   0.533  0.1457  1.6872  0.5534
 1484TIP3    H2 4417   5.732   3.897   0.409 -0.5246 -0.5324 -0.7893
 1485TIP3   OH2 4418   1.173   0.357   5.417  0.2453 -0.4428 -0.1130
 1485TIP3    H1 4419   1.207   0.412   5.346  3.9281 -0.7570  1.2479
 1485TIP3    H2 4420   1.123   0.417   5.472  0.8858  0.7093 -0.7559
 1486TIP3   OH2 4421   2.702   2.023   3.677  0.3469  0.2575 -0.7635
 1486TIP3    H1 4422   2.629   2.014   3.616  0.8558  2.2595 -1.7393
 1486TIP3    H2 4423   2.665   2.000   3.762 -1.1832  0.3868 -1.3664
 1487TIP3   OH2 4424   0.968   3.259   3.614 -0.3852 -0.1423 -0.1126
 1487TIP3    H1 4425   1.002   3.178   3.578  0.2563  0.4485 -0.8700
 1487TIP3    H2 4426   0.969   3.246   3.709  1.4203 -0.3645 -0.1318
 1488TIP3   OH2 4427   4.761   2.385   1.047  0.4040 -0.6151 -0.3523
 1488TIP3    H1 4428   4.759   2.321   0.975  0.0318  1.3056 -2.1374
 1488TIP3    H2 4429   4.802   2.462   1.009  0.9851  0.1996  1.7873
 1489TIP3   OH2 4430   3.520   1.589   1.029  0.2703  0.4173 -0.1376
 1489TIP3    H1 4431   3.552   1.551   1.111  1.7773 -1.3241 -1.4549
 1489TIP3    H2 4432   3.429   1.611   1.048  0.5959  0.1699  2.0278
 1490TIP3   OH2 4433   0.589   0.610   0.863 -0.0278 -0.2163  0.0565
 1490TIP3    H1 4434   0.510   0.556   0.866 -0.8468  0.9001 -0.4198
 1490TIP3    H2 4435   0.620   0.613   0.954 -0.4830 -0.7281  0.2335
 1491TIP3   OH2 4436   0.919   3.580   4.129  0.3929 -0.2169 -0.4749
 1491TIP3    H1 4437   0.899   3.670   4.102 -0.4860 -0.7930 -1.8475
 1491TIP3    H2 4438   1.014   3.573   4.121  0.7532  1.1683  1.6524
 1492TIP3   OH2 4439   5.598   5.312   2.396 -0.4038 -0.3893 -0.3268
 1492TIP3    H1 4440   5.558   5.233   2.432  1.3608 -1.7188 -1.1359
 1492TIP3    H2 4441   5.565   5.318   2.307  2.1294 -2.3479 -1.5308
 1493TIP3   OH2 4442   0.498   2.199   2.601  0.0171  0.3916 -0.4277
 1493TIP3    H1 4443   0.475   2.285   2.637  0.1705  0.4266 -0.4133
 1493TIP3    H2 4444   0.583   2.212   2.559  0.6561 -0.0485  0.6860
 1494TIP3   OH2 4445   1.750   5.474   2.311  0.2199  0.1018 -0.4292
 1494TIP3    H1 4446   1.829   5.463   2.364  0.6498 -0.7593 -1.2021
 1494TIP3    H2 4447   1.782   5.478   2.221 -0.6897 -2.0741 -0.9290
 1495TIP3   OH2 4448   3.813   1.405   0.490 -0.0888 -0.0052  0.8352
 1495TIP3    H1 4449   3.892   1.459   0.492 -1.6888  2.5206  0.2974
 1495TIP3    H2 4450   3.795   1.394   0.397  0.4763 -2.0218  0.9134
 1496TIP3   OH2 4451   2.449   0.883   1.903  0.1476  0.3799  0.2473
 1496TIP3    H1 4452   2.431   0.972   1.933 -0.5141  0.7428 -1.1354
 1496TIP3    H2 4453   2.382   0.829   1.945  0.1642  0.6260  0.5951
 1497TIP3   OH2 4454   4.935   3.642   4.039 -0.7415 -0.9296 -0.3988
 1497TIP3    H1 4455   4.992   3.605   3.972 -0.3985 -2.3174  0.6354
 1497TIP3    H2 4456   4.994   3.666   4.111 -1.3706 -1.7858  0.4211
 1498TIP3   OH2 4457   6.827   1.387   3.624 -0.3428 -0.2345 -0.0236
 1498TIP3    H1 4458   6.854   1.428   3.706  2.2954 -0.8730 -0.4541
 1498TIP3    H2 4459   6.894   1.416   3.561 -0.5646 -2.1533 -1.2030
 1499TIP3   OH2 4460   4.273   2.208   2.067 -0.9806  0.4057  0.6854
 1499TIP3    H1 4461   4.311   2.295   2.063  1.2031 -0.5460 -1.3518
 1499TIP3    H2 4462   4.317   2.158   1.998 -2.9730 -2.0161  0.9881
 1500TIP3   OH2 4463   6.341   0.168   4.502  0.7161 -0.8371 -0.0258
 1500TIP3    H1 4464   6.325   0.189   4.410  1.3573 -2.1870 -0.4719
 1500TIP3    H2 4465   6.302   0.241   4.550 -0.7713 -0.7140 -1.3143
 1501TIP3   OH2 4466   6.964   3.205   3.441  0.4640 -0.0650 -0.4858
 1501TIP3    H1 4467   7.036   3.211   3.379  0.1018  0.0910 -0.8976
 1501TIP3    H2 4468   6.965   3.290   3.486  0.3217  0.0729 -0.7380
 1502TIP3   OH2 4469   1.241   1.850   3.247  0.1684  0.1619  0.1018
 1502TIP3    H1 4470   1.206   1.937   3.227  0.0782  0.0171 -0.3690
 1502TIP3    H2 4471   1.244   1.805   3.163 -0.2731 -0.4723  0.4143
 1503TIP3   OH2 4472   1.441   4.505   3.781 -0.3157  0.2348  0.0626
 1503TIP3    H1 4473   1.368   4.533   3.837 -1.1291  2.5166 -1.9651
 1503TIP3    H2 4474   1.495   4.583   3.772  0.0504 -0.2001 -1.9092
 1504TIP3   OH2 4475   3.676   5.594   0.958  0.2698 -0.0378  0.4682
 1504TIP3    H1 4476   3.664   5.686   0.984  1.5233  0.3230 -0.1230
 1504TIP3    H2 4477   3.594   5.570   0.916  0.6862  1.5735 -1.4542
 1505TIP3   OH2 4478   4.192   0.669   3.553  0.3839 -0.7608  0.2025
 1505TIP3    H1 4479   4.119   0.719   3.589 -0.5149 -0.7926 -1.4588
 1505TIP3    H2 4480   4.194   0.588   3.605 -2.6233 -2.0411 -1.4285
 1506TIP3   OH2 4481   4.473   5.745   3.337 -0.1217  0.3468  0.0764
 1506TIP3    H1 4482   4.406   5.800   3.378  0.2970  0.4781  0.6044
 1506TIP3    H2 4483   4.430   5.661   3.322 -0.0968  0.0677  1.4326
 1507TIP3   OH2 4484   2.908   5.048   3.462  0.4708 -0.5852  0.1504
 1507TIP3    H1 4485   2.933   5.108   3.392 -2.5965  0.9569  0.2182
 1507TIP3    H2 4486   2.906   4.962   3.420  3.1937 -0.4689 -0.4016
 1508TIP3   OH2 4487   4.571   6.534   5.853 -0.5580 -0.0479 -0.3769
 1508TIP3    H1 4488   4.643   6.557   5.794 -1.9786  0.2237 -2.0954
 1508TIP3    H2 4489   4.570   6.605   5.918  0.6953 -0.0585 -0.3225
 1509TIP3   OH2 4490   3.438   0.097   5.105  0.6438  0.0864  0.6972
 1509TIP3    H1 4491   3.390   0.153   5.165 -0.8365 -0.0497 -0.3203
 1509TIP3    H2 4492   3.506   0.057   5.159 -0.6196 -0.0188  2.2824
 1510TIP3   OH2 4493   4.690   4.225   0.566 -0.1390  0.1981 -0.3365
 1510TIP3    H1 4494   4.727   4.275   0.494 -0.3301 -1.5489 -1.7354
 1510TIP3    H2 4495   4.661   4.290   0.629  0.1943  1.7817 -1.7593
 1511TIP3   OH2 4496   7.184   5.350   5.797  0.1570  0.0260 -0.1826
 1511TIP3    H1 4497   7.193   5.381   5.887  1.0011  0.7238 -0.4908
 1511TIP3    H2 4498   7.188   5.430   5.744 -0.6529 -0.3461 -0.8257
 1512TIP3   OH2 4499   5.945   5.801   1.903 -0.3982 -0.7117  0.1114
 1512TIP3    H1 4500   5.930   5.734   1.836 -0.7938  0.0113 -0.5600
 1512TIP3    H2 4501   5.902   5.879   1.867 -0.8241 -0.3582  1.3273
 1513TIP3   OH2 4502   1.110   3.537   0.971  0.4019  0.3021 -0.3361
 1513TIP3    H1 4503   1.085   3.629   0.959  1.6387  0.6627 -0.3447
 1513TIP3    H2 4504   1.070   3.511   1.053 -0.5641  0.6234 -0.6928
 1514TIP3   OH2 4505   1.031   2.650   5.874  0.0068  0.2965 -0.5133
 1514TIP3    H1 4506   0.987   2.724   5.914 -0.5856 -1.7411  3.0483
 1514TIP3    H2 4507   1.118   2.649   5.914 -0.2634 -1.2859  0.1315
 1515TIP3   OH2 4508   1.487   1.341   3.893  0.0693 -0.7503 -0.2003
 1515TIP3    H1 4509   1.398   1.343   3.858 -0.5032  0.5114  1.1881
 1515TIP3    H2 4510   1.516   1.251   3.879 -1.6427 -1.3527 -0.1999
 1516TIP3   OH2 4511   6.051   4.188   3.861 -0.4441 -0.2226 -0.3009
 1516TIP3    H1 4512   6.132   4.234   3.842  0.1977  0.0003  2.4649
 1516TIP3    H2 4513   5.990   4.257   3.887 -0.6952 -0.5956  0.1171
 1517TIP3   OH2 4514   5.846   2.407   5.048 -0.2494 -0.0744  0.5733
 1517TIP3    H1 4515   5.890   2.390   4.965 -0.8710  0.6872  0.0645
 1517TIP3    H2 4516   5.917   2.432   5.108  0.2855 -1.3571  0.4888
 1518TIP3   OH2 4517   2.258   1.369   1.538  0.0586 -0.5140 -0.3719
 1518TIP3    H1 4518   2.243   1.411   1.623 -1.5785 -1.8083  0.0065
 1518TIP3    H2 4519   2.176   1.380   1.491  1.3118  1.2759 -2.3525
 1519TIP3   OH2 4520   4.414   5.264   3.152 -0.2636 -0.2173 -0.2318
 1519TIP3    H1 4521   4.479   5.236   3.216 -0.8391 -0.5521  0.2129
 1519TIP3    H2 4522   4.372   5.183   3.124 -0.8108  0.0409 -0.1694
 1520TIP3   OH2 4523   1.201   5.506   3.345 -0.0907 -0.0624 -0.1734
 1520TIP3    H1 4524   1.184   5.412   3.353 -0.3620 -0.1295 -1.3125
 1520TIP3    H2 4525   1.272   5.523   3.407 -0.8373 -0.7822  0.9179
 1521TIP3   OH2 4526   6.839   2.110   0.717  0.2616  0.0590  0.2403
 1521TIP3    H1 4527   6.820   2.030   0.767  1.2437 -0.3213  0.0130
 1521TIP3    H2 4528   6.827   2.180   0.780 -0.9673 -0.2191  0.3566
 1522TIP3   OH2 4529   1.076   3.630   5.212 -0.4015 -0.0823 -0.2832
 1522TIP3    H1 4530   1.157   3.603   5.255 -1.3882 -1.5725  0.7467
 1522TIP3    H2 4531   1.015   3.649   5.283 -2.2673 -3.1717 -0.8673
 1523TIP3   OH2 4532   6.800   0.108   2.142  0.6471 -0.2842  0.2341
 1523TIP3    H1 4533   6.872   0.082   2.085  1.7302  0.8527  1.0289
 1523TIP3    H2 4534   6.819   0.199   2.165 -0.3003 -0.3901  1.5805
 1524TIP3   OH2 4535   2.833   2.783   4.797  1.0151  0.0168 -0.0104
 1524TIP3    H1 4536   2.891   2.834   4.740 -1.2272  1.0690 -1.4865
 1524TIP3    H2 4537   2.753   2.835   4.803  0.0776 -1.5108  1.7099
 1525TIP3   OH2 4538   5.749   4.764   4.171 -0.0890 -0.1304  0.0839
 1525TIP3    H1 4539   5.735   4.689   4.228 -1.9006  1.3938  1.7935
 1525TIP3    H2 4540   5.661   4.786   4.139  0.4863  0.9084 -0.8647
 1526TIP3   OH2 4541   2.906   1.436   2.910 -0.3683 -0.3076  0.2077
 1526TIP3    H1 4542   2.860   1.510   2.948 -0.8365  0.1759 -1.2442
 1526TIP3    H2 4543   2.840   1.366   2.906 -0.9342  0.2693 -1.5227
 1527TIP3   OH2 4544   6.094   2.202   5.001  0.6485  0.1591  0.1253
 1527TIP3    H1 4545   6.068   2.174   5.089 -1.6793  0.1882 -0.4997
 1527TIP3    H2 4546   6.117   2.294   5.011  0.1656  0.2264  0.6625
 1528TIP3   OH2 4547   2.557   0.597   0.717 -0.2141 -0.2185 -0.7009
 1528TIP3    H1 4548   2.573   0.521   0.660 -1.2539 -0.1605 -1.0835
 1528TIP3    H2 4549   2.560   0.672   0.658 -1.1354 -0.1442 -0.6588
 1529TIP3   OH2 4550   4.502   1.036   4.403 -0.2081  0.6076  0.2127
 1529TIP3    H1 4551   4.467   1.086   4.477 -0.7285 -0.4751  0.7357
 1529TIP3    H2 4552   4.473   1.084   4.325 -0.9548  0.9563  0.6895
 1530TIP3   OH2 4553   5.196   2.432   0.929  0.0646  0.0419 -0.0301
 1530TIP3    H1 4554   5.125   2.477   0.882 -1.0611 -0.3004  1.2762
 1530TIP3    H2 4555   5.250   2.394   0.859 -0.1036  1.6598 -1.0993
 1531TIP3   OH2 4556   0.720   3.874   2.391  0.0440  0.3372 -0.2951
 1531TIP3    H1 4557   0.787   3.890   2.458  0.9995  1.2927 -1.4347
 1531TIP3    H2 4558   0.770   3.841   2.316 -0.7949  0.8812 -1.1012
 1532TIP3   OH2 4559   4.805   0.508   3.386 -0.4024 -0.5534  0.6568
 1532TIP3    H1 4560   4.855   0.452   3.445  0.2976  0.9127  1.5089
 1532TIP3    H2 4561   4.871   0.555   3.335 -0.9081  0.5588  0.9872
 1533TIP3   OH2 4562   1.565   6.347   0.808 -0.3366  0.0794  0.5784
 1533TIP3    H1 4563   1.610   6.328   0.890 -0.1017 -0.1828  0.3883
 1533TIP3    H2 4564   1.617   6.303   0.741 -0.8674 -0.2238  0.3592
 1534TIP3   OH2 4565   2.785   4.702   3.803  0.0183 -0.3513 -0.4680
 1534TIP3    H1 4566   2.742   4.698   3.717  0.2743  0.2527 -0.6304
 1534TIP3    H2 4567   2.823   4.790   3.806 -0.1404 -0.3079  0.3401
 1535TIP3   OH2 4568   5.450   0.915   2.938 -0.1307  0.7220 -0.0137
 1535TIP3    H1 4569   5.534   0.959   2.931 -0.4635  1.2161 -1.1928
 1535TIP3    H2 4570   5.438   0.872   2.853 -1.1223  0.7646  0.0889
 1536TIP3   OH2 4571   3.059   4.895   3.224  0.2157 -0.2935  0.4579
 1536TIP3    H1 4572   3.143   4.886   3.271  1.6044 -0.1703 -1.8769
 1536TIP3    H2 4573   3.032   4.985   3.242  1.5679  0.2868 -0.2639
 1537TIP3   OH2 4574   0.158   6.063   0.308 -0.0648 -0.8080 -0.0774
 1537TIP3    H1 4575   0.071   6.103   0.301 -0.4482 -1.6972 -0.5262
 1537TIP3    H2 4576   0.167   6.041   0.400  0.4549  0.9447  0.3305
 1538TIP3   OH2 4577   3.521   4.962   3.104  0.4267  0.0570  0.5500
 1538TIP3    H1 4578   3.512   4.866   3.104 -0.9712  0.1568  1.0431
 1538TIP3    H2 4579   3.527   4.985   3.196  1.8202  0.3913  0.3960
 1539TIP3   OH2 4580   1.079   2.260   5.008  0.2590  0.0061 -0.1111
 1539TIP3    H1 4581   1.090   2.355   5.017 -2.1111  0.3168  0.1875
 1539TIP3    H2 4582   1.099   2.224   5.094  1.0265  0.2533 -0.1865
 1540TIP3   OH2 4583   1.095   3.521   3.685  0.1924 -0.2397 -0.2250
 1540TIP3    H1 4584   1.150   3.506   3.609 -1.6729 -2.6326 -1.2507
 1540TIP3    H2 4585   1.047   3.438   3.697 -1.9303  1.1194  1.5542
 1541TIP3   OH2 4586   6.980   5.705   4.098 -0.3309 -0.2597 -0.4924
 1541TIP3    H1 4587   7.005   5.788   4.140 -1.3297 -0.7249  1.0970
 1541TIP3    H2 4588   6.885   5.700   4.109 -0.2111 -1.9399  0.0902
 1542TIP3   OH2 4589   1.490   5.610   4.601 -0.2219  0.2321 -0.2718
 1542TIP3    H1 4590   1.434   5.582   4.528 -0.9825  0.5942  0.1573
 1542TIP3    H2 4591   1.468   5.702   4.614 -1.4229 -0.2460  1.5305
 1543TIP3   OH2 4592   0.280   1.932   4.477 -0.3087 -0.6785 -0.2159
 1543TIP3    H1 4593   0.290   2.000   4.545  0.0843 -0.3477 -0.5987
 1543TIP3    H2 4594   0.328   1.967   4.402 -0.3378 -1.2640 -0.5058
 1544TIP3   OH2 4595   0.865   1.200   1.703 -0.5585 -0.0722  0.1572
 1544TIP3    H1 4596   0.949   1.179   1.661 -0.0362  1.1168  0.5788
 1544TIP3    H2 4597   0.887   1.213   1.795 -1.0815  0.9958  0.1395
 1545TIP3   OH2 4598   5.207   0.170   3.628 -0.8193  0.8967  0.4215
 1545TIP3    H1 4599   5.181   0.125   3.708 -0.9028  0.5931  0.2297
 1545TIP3    H2 4600   5.301   0.185   3.638 -0.4368 -0.8215 -0.2019
 1546TIP3   OH2 4601   6.214   1.323   5.610  0.0258  0.4403  0.3097
 1546TIP3    H1 4602   6.136   1.336   5.665 -2.1747 -0.7724 -2.2728
 1546TIP3    H2 4603   6.240   1.233   5.627 -0.1373  0.3319 -0.0135
 1547TIP3   OH2 4604   6.746   1.473   2.488  0.8688 -0.2011  0.2973
 1547TIP3    H1 4605   6.838   1.455   2.472  1.0565 -0.4565  1.5333
 1547TIP3    H2 4606   6.742   1.568   2.503  0.8550 -0.1212 -0.2103
 1548TIP3   OH2 4607   6.513   1.891   0.760  1.0716  0.7788  0.2811
 1548TIP3    H1 4608   6.498   1.980   0.729  1.3218  0.4436 -0.8530
 1548TIP3    H2 4609   6.600   1.867   0.725  1.9927  0.8399  2.3616
 1549TIP3   OH2 4610   2.703   3.949   3.678  0.4890  0.3430  0.2704
 1549TIP3    H1 4611   2.661   3.872   3.639 -0.6098  0.3435  1.3972
 1549TIP3    H2 4612   2.712   4.010   3.604 -0.6446 -0.0284 -0.2068
 1550TIP3   OH2 4613   6.251   1.221   1.447  0.0049  0.0389 -0.5273
 1550TIP3    H1 4614   6.184   1.172   1.495  0.3732 -0.0203 -0.0728
 1550TIP3    H2 4615   6.318   1.241   1.512  0.3240  0.2960 -0.9304
 1551TIP3   OH2 4616   0.077   2.039   2.781 -0.0097 -0.0708  0.3697
 1551TIP3    H1 4617   0.135   2.002   2.847  0.4003 -1.5021 -0.7403
 1551TIP3    H2 4618   0.137   2.072   2.714 -0.4059  1.6843  0.8252
 1552TIP3   OH2 4619   3.405   3.325   0.468  0.3706  0.1463  0.0367
 1552TIP3    H1 4620   3.400   3.341   0.374  1.4296 -0.7987 -0.2002
 1552TIP3    H2 4621   3.392   3.231   0.477  1.2825  0.0753  0.7437
 1553TIP3   OH2 4622   2.385   5.753   3.792  0.0635 -0.3797  0.0104
 1553TIP3    H1 4623   2.449   5.814   3.828 -0.4490 -0.4509  1.0955
 1553TIP3    H2 4624   2.311   5.807   3.767 -0.1933 -0.4897  0.5125
 1554TIP3   OH2 4625   1.879   6.461   0.114  0.0743  0.0877  0.0428
 1554TIP3    H1 4626   1.829   6.537   0.143  0.8185  0.0283  1.5559
 1554TIP3    H2 4627   1.880   6.402   0.190  1.0353 -0.6332 -0.5011
 1555TIP3   OH2 4628   3.527   2.145   2.317 -0.1780 -0.0882 -0.2287
 1555TIP3    H1 4629   3.502   2.210   2.383 -0.6472 -0.4719 -0.0275
 1555TIP3    H2 4630   3.602   2.185   2.273 -0.7401  0.8014 -0.4201
 1556TIP3   OH2 4631   6.408   4.579   2.309  0.8004 -0.6357 -0.0088
 1556TIP3    H1 4632   6.320   4.546   2.290  0.2099  0.5095  0.6217
 1556TIP3    H2 4633   6.448   4.591   2.223  0.4409 -1.4220 -0.2920
 1557TIP3   OH2 4634   2.262   0.280   1.414  0.2110  0.0930 -0.7613
 1557TIP3    H1 4635   2.287   0.372   1.402 -0.4946  0.6052  1.2693
 1557TIP3    H2 4636   2.345   0.236   1.432  0.4985  0.4401 -1.2156
 1558TIP3   OH2 4637   4.587   0.675   3.520 -0.6530 -0.1512  0.7318
 1558TIP3    H1 4638   4.643   0.598   3.512 -1.5007 -0.7832  0.6570
 1558TIP3    H2 4639   4.535   0.676   3.439  0.1815  1.2041  0.1750
 1559TIP3   OH2 4640   6.081   4.494   5.891 -0.1256  0.1078 -0.1802
 1559TIP3    H1 4641   6.074   4.411   5.844  1.2659 -0.5236  0.6724
 1559TIP3    H2 4642   6.157   4.538   5.852 -0.9860  1.1064 -0.7787
 1560TIP3   OH2 4643   3.656   2.764   5.703  0.2110  0.0667 -0.1139
 1560TIP3    H1 4644   3.639   2.707   5.629  1.5336  0.6159 -0.8711
 1560TIP3    H2 4645   3.586   2.744   5.766  0.8545 -2.6561 -0.1656
 1561TIP3   OH2 4646   4.526   3.423   0.635  0.3589 -0.6887 -0.5554
 1561TIP3    H1 4647   4.614   3.452   0.608  0.4906  2.0320  2.1761
 1561TIP3    H2 4648   4.467   3.468   0.575  0.7794  0.6364 -0.0243
 1562TIP3   OH2 4649   5.330   2.157   4.264  0.2085 -0.0833  0.2053
 1562TIP3    H1 4650   5.311   2.075   4.310 -1.8752  0.0642 -0.2930
 1562TIP3    H2 4651   5.359   2.216   4.333 -1.7734 -0.2036  1.2172
 1563TIP3   OH2 4652   2.348   0.683   2.336 -0.0902 -0.6285 -0.1204
 1563TIP3    H1 4653   2.410   0.723   2.276  0.6982  0.1450  1.1542
 1563TIP3    H2 4654   2.264   0.723   2.315  0.5116  1.0422  0.4984
 1564TIP3   OH2 4655   6.719   3.633   0.262  0.4235 -0.7240 -0.0279
 1564TIP3    H1 4656   6.704   3.539   0.273 -1.9094 -0.5534 -1.2118
 1564TIP3    H2 4657   6.636   3.667   0.230  0.9376  1.9116  1.1765
 1565TIP3   OH2 4658   4.216   0.726   0.122 -0.0534  0.3073  0.4288
 1565TIP3    H1 4659   4.188   0.729   0.213 -0.1400 -0.9699  0.4645
 1565TIP3    H2 4660   4.309   0.704   0.126  0.0858  0.8278  0.2099
 1566TIP3   OH2 4661   0.697   3.914   1.893  0.1726  0.0943  0.2520
 1566TIP3    H1 4662   0.603   3.932   1.887  0.1166 -0.2580  0.0650
 1566TIP3    H2 4663   0.729   3.920   1.803  0.2434 -0.2504  0.2534
 1567TIP3   OH2 4664   5.893   6.689   3.568 -0.5633 -0.0304  0.4894
 1567TIP3    H1 4665   5.982   6.685   3.605 -0.5968  0.7969  0.6867
 1567TIP3    H2 4666   5.888   6.776   3.529 -0.7533 -0.6507 -0.9084
 1568TIP3   OH2 4667   1.880   2.926   3.364 -0.2491 -0.2939 -0.5552
 1568TIP3    H1 4668   1.958   2.972   3.397 -0.6416  1.2687 -1.7317
 1568TIP3    H2 4669   1.819   2.996   3.341 -2.2911 -1.4971  0.9092
 1569TIP3   OH2 4670   3.737   0.749   1.800  0.0413  0.4302  0.2497
 1569TIP3    H1 4671   3.810   0.767   1.741  0.9066 -0.4873  0.9995
 1569TIP3    H2 4672   3.774   0.690   1.866 -1.3105  0.1766  0.8078
 1570TIP3   OH2 4673   1.383   4.228   0.889  0.1976 -0.0653 -0.2781
 1570TIP3    H1 4674   1.347   4.154   0.839 -0.6515 -0.8929  1.4718
 1570TIP3    H2 4675   1.321   4.299   0.874 -0.5956 -0.6040  0.3481
 1571TIP3   OH2 4676   6.091   2.178   4.601  0.5057  0.7311 -0.1664
 1571TIP3    H1 4677   6.186   2.180   4.610  0.4862 -0.5339  0.5647
 1571TIP3    H2 4678   6.063   2.102   4.653 -0.9929  1.6635  0.4757
 1572TIP3   OH2 4679   4.061   4.809   0.609  0.3206  0.1818 -0.2826
 1572TIP3    H1 4680   4.143   4.763   0.593  0.5359  1.0564 -1.9009
 1572TIP3    H2 4681   4.009   4.794   0.530  0.5024  2.8568 -1.0017
 1573TIP3   OH2 4682   6.046   5.768   4.739 -1.0099 -0.3844  0.2299
 1573TIP3    H1 4683   6.005   5.855   4.734 -1.9559 -0.8184  0.2631
 1573TIP3    H2 4684   5.997   5.722   4.806 -0.8626 -1.1348 -0.1684
 1574TIP3   OH2 4685   3.906   5.207   3.430 -0.0396  0.0613  0.0184
 1574TIP3    H1 4686   3.861   5.206   3.346  0.4851 -0.2254 -0.2676
 1574TIP3    H2 4687   3.903   5.116   3.459  1.4132 -0.2193 -0.5976
 1575TIP3   OH2 4688   6.749   3.956   2.079 -0.3944  0.6794  0.3865
 1575TIP3    H1 4689   6.686   3.893   2.045 -1.0039  1.8383 -0.6954
 1575TIP3    H2 4690   6.730   3.960   2.173 -0.0898 -0.9956  0.5571
 1576TIP3   OH2 4691   2.001   5.601   0.555  0.2410 -0.6894  0.4030
 1576TIP3    H1 4692   1.937   5.572   0.490 -0.0279 -1.9715  1.2192
 1576TIP3    H2 4693   1.974   5.690   0.577 -0.8925 -0.9895  0.2844
 1577TIP3   OH2 4694   3.075   3.599   1.208  0.5150  0.0118  0.1166
 1577TIP3    H1 4695   2.994   3.554   1.232 -1.2696  2.5878 -0.5737
 1577TIP3    H2 4696   3.078   3.676   1.265  2.3619  0.1242 -0.0630
 1578TIP3   OH2 4697   2.761   2.880   0.603 -0.2693 -0.7187  0.2979
 1578TIP3    H1 4698   2.781   2.972   0.588 -2.2581 -0.4288 -0.9342
 1578TIP3    H2 4699   2.702   2.880   0.678  0.2571 -1.0716  0.7205
 1579TIP3   OH2 4700   5.449   2.273   1.275  0.5522 -0.1696  0.3349
 1579TIP3    H1 4701   5.355   2.270   1.256  0.7970  0.2040 -1.0810
 1579TIP3    H2 4702   5.480   2.185   1.254  0.5035 -0.3142  0.8744
 1580TIP3   OH2 4703   1.381   2.294   1.709  0.4935  0.3364  0.1630
 1580TIP3    H1 4704   1.373   2.335   1.795 -0.6495  0.3110  0.0743
 1580TIP3    H2 4705   1.367   2.200   1.725 -1.8627  0.5521 -0.3162
 1581TIP3   OH2 4706   4.345   3.435   3.909 -0.9264  0.2711 -0.0106
 1581TIP3    H1 4707   4.335   3.401   3.998 -1.3815  1.3880  0.3811
 1581TIP3    H2 4708   4.440   3.442   3.897 -0.8728  0.7670  0.6478
 1582TIP3   OH2 4709   5.332   5.052   1.164 -0.1700 -0.9837 -0.1588
 1582TIP3    H1 4710   5.376   4.967   1.159 -0.7563 -1.5118  2.5529
 1582TIP3    H2 4711   5.250   5.039   1.116 -0.5944 -2.1935  0.8589
 1583TIP3   OH2 4712   1.752   5.730   2.459  0.2190  0.1599 -0.5263
 1583TIP3    H1 4713   1.757   5.658   2.396  1.3011  0.7018 -1.0798
 1583TIP3    H2 4714   1.828   5.784   2.440  1.8537 -0.7665  2.6543
 1584TIP3   OH2 4715   3.568   3.337   5.253  0.3184 -0.4303 -0.4778
 1584TIP3    H1 4716   3.641   3.275   5.245 -0.1457 -1.1675  0.7463
 1584TIP3    H2 4717   3.507   3.310   5.185  0.2909 -1.0932 -0.1973
 1585TIP3   OH2 4718   0.362   6.725   3.117  0.0429 -0.3164 -0.1952
 1585TIP3    H1 4719   0.406   6.805   3.086 -0.1675 -0.2000 -0.1948
 1585TIP3    H2 4720   0.426   6.655   3.101 -0.1820 -0.3119 -1.2155
 1586TIP3   OH2 4721   1.895   0.337   4.411  0.1191 -0.0611  0.3195
 1586TIP3    H1 4722   1.844   0.418   4.410 -0.2045 -0.2658 -0.0502
 1586TIP3    H2 4723   1.950   0.342   4.333 -0.6919 -0.6874 -0.3151
 1587TIP3   OH2 4724   5.170   1.925   4.353 -0.0361  0.1558  0.2988
 1587TIP3    H1 4725   5.120   1.939   4.433  0.3974  0.0912  0.5816
 1587TIP3    H2 4726   5.237   1.861   4.377  0.4286  0.5311  0.0272
 1588TIP3   OH2 4727   1.885   4.965   2.196 -0.6024 -0.0126 -0.4798
 1588TIP3    H1 4728   1.795   4.976   2.167 -0.8386 -0.2881  0.1312
 1588TIP3    H2 4729   1.882   4.892   2.258  0.3160 -1.0642 -1.6385
 1589TIP3   OH2 4730   0.839   1.912   5.511 -0.4788  0.3656 -0.6975
 1589TIP3    H1 4731   0.745   1.918   5.494 -0.4778  0.6466 -0.6124
 1589TIP3    H2 4732   0.871   2.002   5.504 -0.4085  0.4392  0.4017
 1590TIP3   OH2 4733   5.405   0.293   1.379  0.3244  0.2993 -0.2494
 1590TIP3    H1 4734   5.425   0.254   1.294  0.4356  0.7535 -0.4305
 1590TIP3    H2 4735   5.425   0.223   1.442  2.5806  0.7309 -0.4050
 1591TIP3   OH2 4736   5.920   5.807   3.008 -0.3646  0.0225 -0.5083
 1591TIP3    H1 4737   5.991   5.818   3.072 -1.6186  0.8773  0.8004
 1591TIP3    H2 4738   5.903   5.713   3.007 -0.4547  0.0094  0.6072
 1592TIP3   OH2 4739   1.275   0.926   5.933 -0.5419  0.0057  0.1275
 1592TIP3    H1 4740   1.213   0.968   5.874  0.7796 -0.2676 -1.5261
 1592TIP3    H2 4741   1.293   0.841   5.893  1.2527  0.2814  0.2660
 1593TIP3   OH2 4742   7.001   3.458   1.054 -0.2574 -0.3347 -0.1970
 1593TIP3    H1 4743   6.983   3.365   1.041  0.2378 -0.6231  1.0032
 1593TIP3    H2 4744   7.044   3.462   1.139 -1.9558  1.1891  0.6614
 1594TIP3   OH2 4745   6.606   4.833   2.885 -0.1680 -0.1808  0.1037
 1594TIP3    H1 4746   6.612   4.738   2.873 -0.5280 -0.1873 -0.0470
 1594TIP3    H2 4747   6.678   4.869   2.834 -2.7916 -0.0589 -3.9562
 1595TIP3   OH2 4748   1.626   1.353   5.576 -0.0326  0.0229  0.4607
 1595TIP3    H1 4749   1.571   1.390   5.507 -0.0537 -1.3367 -0.2733
 1595TIP3    H2 4750   1.576   1.368   5.656 -0.4001  0.8585  0.0915
 1596TIP3   OH2 4751   6.976   6.423   5.236 -0.1193 -0.1523  0.0795
 1596TIP3    H1 4752   6.968   6.339   5.281  0.8038  0.6027  1.7759
 1596TIP3    H2 4753   7.020   6.403   5.154  0.3950 -1.2888  0.6111
 1597TIP3   OH2 4754   5.181   6.239   0.005  0.4395  0.0441  0.3351
 1597TIP3    H1 4755   5.102   6.187   0.020  0.0878  1.0081  2.0309
 1597TIP3    H2 4756   5.170   6.317   0.060  3.3444 -0.5948  2.0048
 1598TIP3   OH2 4757   0.282   0.915   5.358 -0.2585  0.0488 -0.5576
 1598TIP3    H1 4758   0.202   0.866   5.379  0.0375 -0.7573 -1.2730
 1598TIP3    H2 4759   0.343   0.849   5.325 -0.1149  1.0002 -2.3099
 1599TIP3   OH2 4760   0.562   2.954  -0.013 -0.1636 -0.1281 -0.3729
 1599TIP3    H1 4761   0.633   2.904  -0.053 -0.8601 -0.6034 -1.0622
 1599TIP3    H2 4762   0.571   2.938   0.081 -0.9490 -2.4470 -0.6000
 1600TIP3   OH2 4763   1.486   1.746   1.127 -0.9733  0.5833 -0.2080
 1600TIP3    H1 4764   1.497   1.755   1.222  1.8866 -1.5463 -0.1937
 1600TIP3    H2 4765   1.551   1.806   1.090 -0.6887 -0.0502 -0.7473
 1601TIP3   OH2 4766   5.061   1.351   1.310 -0.4286  0.6645 -0.0736
 1601TIP3    H1 4767   5.029   1.441   1.318  1.2638  1.2787  0.0433
 1601TIP3    H2 4768   5.081   1.342   1.217 -0.4131  0.4582 -0.0498
 1602TIP3   OH2 4769   1.652   3.756   0.452  0.1470 -0.4356  0.0173
 1602TIP3    H1 4770   1.711   3.815   0.406 -0.5787  0.8329  0.6577
 1602TIP3    H2 4771   1.583   3.736   0.388 -0.2642  0.4226  0.1784
 1603TIP3   OH2 4772   3.183   1.560   0.290 -0.3500 -0.3023  0.1549
 1603TIP3    H1 4773   3.234   1.484   0.319  0.9610  0.6529  0.4621
 1603TIP3    H2 4774   3.128   1.582   0.365  0.1191 -0.2448  0.4817
 1604TIP3   OH2 4775   0.698   5.475   0.542  0.1969 -0.0745 -0.1092
 1604TIP3    H1 4776   0.674   5.389   0.508 -0.7874 -0.9292  2.4416
 1604TIP3    H2 4777   0.636   5.490   0.614  1.3093  2.1013  0.4929
 1605TIP3   OH2 4778   6.218   2.035   1.827  0.3566  0.2199 -0.1966
 1605TIP3    H1 4779   6.138   2.007   1.871  0.2475 -0.7714 -0.9913
 1605TIP3    H2 4780   6.265   2.086   1.893 -0.1864 -0.5174  0.7928
 1606TIP3   OH2 4781   6.885   2.254   5.193 -0.2505  0.2839  0.1942
 1606TIP3    H1 4782   6.861   2.312   5.264 -1.9483  0.2957 -0.3437
 1606TIP3    H2 4783   6.850   2.168   5.218  0.0630  0.0517 -0.1390
 1607TIP3   OH2 4784   3.975   6.187   2.852 -0.1353  0.4229  0.2850
 1607TIP3    H1 4785   3.905   6.189   2.917 -0.5472 -0.7490 -0.0965
 1607TIP3    H2 4786   3.934   6.218   2.771 -0.0985  0.1665  0.1666
 1608TIP3   OH2 4787   3.513   4.225   0.946 -0.0736 -0.3761  0.1223
 1608TIP3    H1 4788   3.571   4.165   0.899 -2.1304 -0.6681 -2.2340
 1608TIP3    H2 4789   3.546   4.312   0.924  0.6114 -0.5580  0.4041
 1609TIP3   OH2 4790   3.336   2.762   4.561  0.0237  0.2689  0.5504
 1609TIP3    H1 4791   3.326   2.678   4.515  1.6371  0.0017  0.6200
 1609TIP3    H2 4792   3.402   2.809   4.510  0.1452  0.9173  1.2941
 1610TIP3   OH2 4793   6.799   4.118   2.370  0.4638  0.6257  0.3581
 1610TIP3    H1 4794   6.705   4.101   2.377  0.9969 -3.2984  0.2298
 1610TIP3    H2 4795   6.838   4.065   2.440  2.6497  1.8360  0.1461
 1611TIP3   OH2 4796   1.526   4.757   3.444  0.2823 -0.3062 -0.0443
 1611TIP3    H1 4797   1.490   4.845   3.453  2.4317  0.8357 -1.7055
 1611TIP3    H2 4798   1.594   4.752   3.511  0.2305 -0.6427 -0.0174
 1612TIP3   OH2 4799   3.325   5.939   4.706 -0.2626 -0.5996  0.3677
 1612TIP3    H1 4800   3.408   5.987   4.705 -1.2476  1.2333 -1.5442
 1612TIP3    H2 4801   3.349   5.849   4.684  1.0862  0.2439 -1.9085
 1613TIP3   OH2 4802   2.341   6.181   2.036  0.3031  0.0079 -0.7525
 1613TIP3    H1 4803   2.333   6.238   1.959  0.2672 -0.3837 -1.0424
 1613TIP3    H2 4804   2.416   6.216   2.084 -0.4007  0.9828 -0.3390
 1614TIP3   OH2 4805   4.805   3.388   4.372  0.3193 -0.3150 -0.0639
 1614TIP3    H1 4806   4.712   3.402   4.355  0.3816 -0.2031 -0.3187
 1614TIP3    H2 4807   4.834   3.467   4.418  0.0751 -0.7607  0.8874
 1615TIP3   OH2 4808   0.570   3.441   5.462  0.5916 -0.1248  0.1841
 1615TIP3    H1 4809   0.664   3.459   5.459  0.6835 -0.6894 -0.8353
 1615TIP3    H2 4810   0.531   3.508   5.406  0.4993 -0.4938 -0.2012
 1616TIP3   OH2 4811   3.869   4.916   3.505 -0.1675  0.2165 -0.4033
 1616TIP3    H1 4812   3.921   4.844   3.542 -1.2956 -0.4651 -0.0820
 1616TIP3    H2 4813   3.851   4.889   3.415  0.2114  0.5564 -0.5843
 1617TIP3   OH2 4814   1.236   1.066   3.108  0.3199  0.1584 -0.1085
 1617TIP3    H1 4815   1.284   0.984   3.100 -0.0423 -0.1806  1.0022
 1617TIP3    H2 4816   1.304   1.133   3.113  0.6264  0.1819 -2.8525
 1618TIP3   OH2 4817   6.346   3.539   5.612 -0.1096 -0.3436  0.2188
 1618TIP3    H1 4818   6.279   3.472   5.603  0.7190 -1.0882 -0.5492
 1618TIP3    H2 4819   6.392   3.539   5.528 -0.2654  1.3927  0.0965
 1619TIP3   OH2 4820   6.262   3.944   2.747 -0.1141 -0.4014  0.2490
 1619TIP3    H1 4821   6.269   3.916   2.839  0.5280  1.1724  0.7234
 1619TIP3    H2 4822   6.203   4.019   2.749 -0.0603 -0.3271 -0.6312
 1620TIP3   OH2 4823   0.323   0.948   1.938  0.1636  0.9707 -0.5238
 1620TIP3    H1 4824   0.330   1.043   1.931  1.2342  0.9881  0.5579
 1620TIP3    H2 4825   0.395   0.922   1.996  0.6019 -0.6347 -1.7207
 1621TIP3   OH2 4826   6.203   5.564   4.967  0.1904  0.6162 -0.1579
 1621TIP3    H1 4827   6.122   5.605   4.936  0.2905 -0.1689 -1.5358
 1621TIP3    H2 4828   6.187   5.470   4.960  0.9241  0.4446  0.3695
 1622TIP3   OH2 4829   0.969   3.404   5.041 -0.0692 -0.2566  0.3653
 1622TIP3    H1 4830   0.998   3.375   5.128  0.1214 -0.2343  0.3081
 1622TIP3    H2 4831   0.998   3.495   5.035 -0.4629 -0.1231  0.4512
 1623TIP3   OH2 4832   1.037   5.457   0.168  0.6011 -0.2008 -0.2035
 1623TIP3    H1 4833   1.050   5.551   0.185  0.4448 -0.3024  0.5285
 1623TIP3    H2 4834   1.100   5.413   0.225  0.6200 -0.5448 -0.4865
 1624TIP3   OH2 4835   6.613   1.498   4.832  0.8503  0.1371  0.1082
 1624TIP3    H1 4836   6.624   1.591   4.811 -0.4708  0.2398 -0.2502
 1624TIP3    H2 4837   6.521   1.490   4.858  0.5513 -1.3031 -1.2403
 1625TIP3   OH2 4838   5.244   2.011   1.905  0.0343 -0.3161 -0.4181
 1625TIP3    H1 4839   5.200   1.938   1.947  0.0417 -0.5594 -0.8230
 1625TIP3    H2 4840   5.336   1.985   1.901  0.2340  0.2209  0.4881
 1626TIP3   OH2 4841   1.134   5.724   0.773 -0.2764  0.3049  0.0003
 1626TIP3    H1 4842   1.096   5.751   0.689  1.3593  0.1393 -0.8354
 1626TIP3    H2 4843   1.058   5.698   0.826 -1.4583  1.6123 -0.9657
 1627TIP3   OH2 4844   0.345   5.046   0.149 -0.0398  1.3478  0.4070
 1627TIP3    H1 4845   0.350   5.085   0.061 -3.0733  0.6551 -0.1989
 1627TIP3    H2 4846   0.371   4.955   0.137  0.4494  1.4851  0.4215
 1628TIP3   OH2 4847   1.320   6.661   1.844 -0.5422  0.4759  0.7067
 1628TIP3    H1 4848   1.334   6.586   1.786 -1.1124  0.6147  0.3783
 1628TIP3    H2 4849   1.233   6.646   1.881 -0.3777  0.6337  1.1608
 1629TIP3   OH2 4850   2.094   4.581   0.433  0.4161 -0.2915 -0.2781
 1629TIP3    H1 4851   2.069   4.555   0.345  0.8346 -0.5210 -0.3310
 1629TIP3    H2 4852   2.030   4.538   0.490 -2.1593  2.7462 -0.6332
 1630TIP3   OH2 4853   0.208   3.960   2.173  0.0193  0.1676 -0.1891
 1630TIP3    H1 4854   0.269   3.951   2.246  0.8547 -0.9542 -0.9846
 1630TIP3    H2 4855   0.245   4.031   2.120  0.6159 -0.4358 -0.6106
 1631TIP3   OH2 4856   3.782   3.530   4.347 -0.3275  0.0317  0.3731
 1631TIP3    H1 4857   3.859   3.562   4.394  0.0263 -0.8758  0.4308
 1631TIP3    H2 4858   3.817   3.489   4.268 -0.8187  0.3181 -0.0011
 1632TIP3   OH2 4859   0.431   3.108   3.156 -0.2292  0.3810  0.3838
 1632TIP3    H1 4860   0.471   3.149   3.233  1.1475  0.6645 -0.4311
 1632TIP3    H2 4861   0.483   3.029   3.142 -0.2120  0.5357 -0.4744
 1633TIP3   OH2 4862   5.481   0.212   3.347  0.0670  0.4590 -0.1749
 1633TIP3    H1 4863   5.511   0.288   3.296  0.5755  0.9327  0.7843
 1633TIP3    H2 4864   5.469   0.247   3.436  2.5300 -1.0184  0.8624
 1634TIP3   OH2 4865   3.606   3.320   0.194 -0.4833 -0.4128  0.2795
 1634TIP3    H1 4866   3.659   3.355   0.266  1.2273  0.8278 -1.4757
 1634TIP3    H2 4867   3.594   3.228   0.215 -0.4849  0.0244  2.3937
 1635TIP3   OH2 4868   2.600   6.193   4.019 -0.3182 -0.1429 -0.0412
 1635TIP3    H1 4869   2.607   6.233   4.105 -0.9732  0.9361 -0.4619
 1635TIP3    H2 4870   2.685   6.211   3.977 -0.0668 -0.5123  0.3034
 1636TIP3   OH2 4871   3.188   5.743   4.467  0.3637  0.0543  0.2049
 1636TIP3    H1 4872   3.263   5.718   4.521 -0.2033 -2.6179 -0.1103
 1636TIP3    H2 4873   3.224   5.808   4.406  1.8337  0.5625  1.5465
 1637TIP3   OH2 4874   6.836   5.198   3.445  0.3218  0.1923  0.5351
 1637TIP3    H1 4875   6.816   5.128   3.508  1.9444  0.2898  1.2199
 1637TIP3    H2 4876   6.754   5.213   3.399  0.1798 -2.9621 -0.4614
 1638TIP3   OH2 4877   0.622   5.513   2.643  0.2396 -0.2103  0.7050
 1638TIP3    H1 4878   0.643   5.544   2.555  1.3926 -3.2758 -0.2390
 1638TIP3    H2 4879   0.549   5.452   2.630  0.3341 -0.5990  1.8693
 1639TIP3   OH2 4880   1.947   4.597   1.130  0.5090  0.1795  0.3631
 1639TIP3    H1 4881   1.901   4.636   1.056  0.7906  0.1674  0.1835
 1639TIP3    H2 4882   1.885   4.534   1.167  0.5814 -0.2282 -0.2072
 1640TIP3   OH2 4883   5.954   1.435   3.638  0.2709  0.2193 -0.5551
 1640TIP3    H1 4884   6.028   1.489   3.666 -0.6688  0.8324  0.8538
 1640TIP3    H2 4885   5.963   1.431   3.542  2.1528  0.1926 -0.4280
 1641TIP3   OH2 4886   6.356   1.281   0.916  0.0134 -0.4462 -0.1068
 1641TIP3    H1 4887   6.449   1.266   0.933  0.3803 -0.6300 -1.9905
 1641TIP3    H2 4888   6.349   1.376   0.902 -0.3975 -0.2036  1.5726
 1642TIP3   OH2 4889   1.089   1.084   2.443 -0.7817  0.2370  0.0108
 1642TIP3    H1 4890   0.994   1.088   2.432 -0.8549 -1.5599 -0.2761
 1642TIP3    H2 4891   1.104   1.120   2.531 -1.3718  3.2679 -0.9916
 1643TIP3   OH2 4892   2.516   3.566   2.167  0.0789 -0.1412 -0.1713
 1643TIP3    H1 4893   2.430   3.608   2.159 -0.2892 -0.1639  2.6331
 1643TIP3    H2 4894   2.579   3.637   2.158 -0.0125 -0.3119 -3.7109
 1644TIP3   OH2 4895   0.665   5.148   3.156 -0.0231 -0.7605  0.6447
 1644TIP3    H1 4896   0.664   5.059   3.124  1.3732 -0.4262 -0.4354
 1644TIP3    H2 4897   0.573   5.175   3.157 -0.5153 -2.3389  1.4627
 1645TIP3   OH2 4898   6.312   4.055   4.083 -0.5411  0.5076 -0.7434
 1645TIP3    H1 4899   6.341   3.966   4.104 -0.0909  0.9220  0.5596
 1645TIP3    H2 4900   6.360   4.078   4.003  0.5657  0.1340 -0.2141
 1646TIP3   OH2 4901   7.082   3.745   5.767  0.4371 -0.1670  0.4228
 1646TIP3    H1 4902   7.092   3.684   5.840  0.4489 -0.2395  0.3612
 1646TIP3    H2 4903   7.080   3.831   5.807 -0.4907 -0.2532  0.6021
 1647TIP3   OH2 4904   6.947   1.097   0.157  0.2399 -0.4609  0.4838
 1647TIP3    H1 4905   7.018   1.058   0.207 -1.1495 -0.5964  2.4806
 1647TIP3    H2 4906   6.905   1.023   0.113  0.3289 -0.6048  0.6409
 1648TIP3   OH2 4907   0.814   4.852   3.540  0.1618  0.6296  0.4497
 1648TIP3    H1 4908   0.744   4.882   3.481  0.7885 -1.0557 -1.2484
 1648TIP3    H2 4909   0.786   4.765   3.568 -0.1898  1.4466  2.8544
 1649TIP3   OH2 4910   5.367   4.450   3.834 -0.8474  0.4620  0.4445
 1649TIP3    H1 4911   5.317   4.502   3.896 -0.8641  0.3231  0.5464
 1649TIP3    H2 4912   5.310   4.377   3.811 -1.5524  1.4291 -1.0703
 1650TIP3   OH2 4913   4.739   5.829   3.783 -0.0003 -0.2068 -0.3233
 1650TIP3    H1 4914   4.786   5.892   3.837  0.3127 -0.3257 -0.4526
 1650TIP3    H2 4915   4.808   5.782   3.736 -0.2550 -0.3185 -0.5872
 1651TIP3   OH2 4916   5.276   5.986   2.614 -0.1551  0.7279 -0.5540
 1651TIP3    H1 4917   5.193   5.951   2.647 -0.7670  1.4393 -1.2747
 1651TIP3    H2 4918   5.273   6.079   2.638  0.4513  0.7510 -0.5593
 1652TIP3   OH2 4919   2.268   2.864   0.825 -0.0353  0.2450 -0.0671
 1652TIP3    H1 4920   2.172   2.870   0.822 -0.1034  0.0878  1.2422
 1652TIP3    H2 4921   2.292   2.904   0.908  1.0422  0.2425 -0.3656
 1653TIP3   OH2 4922   5.393   0.078   2.078  0.2197  0.8238 -0.3147
 1653TIP3    H1 4923   5.317   0.041   2.123  0.6754 -2.2749 -1.8247
 1653TIP3    H2 4924   5.355   0.124   2.003 -0.2493  0.3879 -0.3563
 1654TIP3   OH2 4925   5.189   5.075   4.829  0.1877  0.3741  0.1200
 1654TIP3    H1 4926   5.169   4.982   4.818 -1.5000  0.6385  0.7781
 1654TIP3    H2 4927   5.193   5.109   4.739  1.0500 -0.3444 -0.1372
 1655TIP3   OH2 4928   1.207   1.472   4.468  0.6625  0.0392  0.1931
 1655TIP3    H1 4929   1.222   1.381   4.443 -0.2050 -0.6026  1.8639
 1655TIP3    H2 4930   1.124   1.495   4.427  0.7974  0.0321 -0.0879
 1656TIP3   OH2 4931   3.574   1.276   5.241  0.2926 -0.6689 -0.2792
 1656TIP3    H1 4932   3.520   1.321   5.306  0.7951 -1.7617  0.9277
 1656TIP3    H2 4933   3.631   1.218   5.292 -1.0775 -3.5410 -1.7464
 1657TIP3   OH2 4934   6.477   6.717   4.878 -0.4045 -0.1720 -0.1665
 1657TIP3    H1 4935   6.571   6.731   4.863 -0.4857  1.9036  1.0119
 1657TIP3    H2 4936   6.460   6.632   4.837  1.6192  0.1626 -1.8970
 1658TIP3   OH2 4937   6.487   2.179   0.712  0.1184  0.2609  0.9290
 1658TIP3    H1 4938   6.500   2.226   0.630  0.2116 -0.9740  0.2005
 1658TIP3    H2 4939   6.564   2.198   0.764  0.4962  0.3283  0.3537
 1659TIP3   OH2 4940   1.972   5.426   1.436 -0.2067  0.4421  0.5934
 1659TIP3    H1 4941   1.995   5.340   1.402 -0.4621  0.0591  1.3685
 1659TIP3    H2 4942   1.921   5.466   1.365  1.4249  0.6835 -0.4895
 1660TIP3   OH2 4943   5.257   6.599   5.462 -0.1291  0.4602 -0.0318
 1660TIP3    H1 4944   5.215   6.662   5.520 -0.4768 -1.8387  2.3869
 1660TIP3    H2 4945   5.313   6.547   5.520  1.3521 -0.4768 -2.1809
 1661TIP3   OH2 4946   3.271   3.561   5.161  0.2696 -0.4875 -0.5748
 1661TIP3    H1 4947   3.187   3.559   5.114 -1.7134 -0.2607  2.6484
 1661TIP3    H2 4948   3.269   3.483   5.216  0.7553  1.0307  1.7171
 1662TIP3   OH2 4949   6.671   5.444   3.057 -0.5647  0.1397  0.1025
 1662TIP3    H1 4950   6.586   5.476   3.026 -0.9063  1.5407  2.2251
 1662TIP3    H2 4951   6.663   5.349   3.054 -0.8736  0.1571 -2.9990
 1663TIP3   OH2 4952   1.552   3.747   4.079  0.1012  0.2379 -0.4009
 1663TIP3    H1 4953   1.598   3.711   4.003 -1.9426  0.8861 -2.0481
 1663TIP3    H2 4954   1.542   3.840   4.059  0.6662  0.7062  1.3266
 1664TIP3   OH2 4955   0.625   6.798   0.217 -0.2969 -0.1094 -0.4602
 1664TIP3    H1 4956   0.687   6.867   0.244 -0.1941 -0.2996 -0.2117
 1664TIP3    H2 4957   0.659   6.768   0.133 -1.3297  1.3759 -1.4714
 1665TIP3   OH2 4958   5.019   0.798   0.383  0.4127 -0.1823 -0.2770
 1665TIP3    H1 4959   5.068   0.762   0.457  0.8255 -0.4487 -0.6750
 1665TIP3    H2 4960   4.927   0.786   0.407  0.5411 -0.0046  0.3182
 1666TIP3   OH2 4961   3.201   6.074   0.966 -0.4887  0.5304  0.7376
 1666TIP3    H1 4962   3.193   5.987   0.926  0.7804  0.6634  0.1320
 1666TIP3    H2 4963   3.112   6.109   0.964 -0.9899 -0.6723  0.8139
 1667TIP3   OH2 4964   1.499   3.557   4.277  0.0470  0.0034 -0.1851
 1667TIP3    H1 4965   1.409   3.526   4.274 -0.4681  1.2896  0.7954
 1667TIP3    H2 4966   1.503   3.626   4.211  0.0769  0.5041  0.3344
 1668TIP3   OH2 4967   3.345   6.757   1.850 -0.5221 -0.5183  0.0874
 1668TIP3    H1 4968   3.425   6.711   1.874 -1.0493 -0.8642  1.2694
 1668TIP3    H2 4969   3.295   6.764   1.932 -1.3949  0.2994 -0.4810
 1669TIP3   OH2 4970   4.897   0.623   1.459  0.3722  0.5732 -0.3637
 1669TIP3    H1 4971   4.846   0.661   1.530  0.4191  1.1906 -0.6517
 1669TIP3    H2 4972   4.843   0.552   1.424 -1.2283  2.4811 -1.9852
 1670TIP3   OH2 4973   0.290   5.598   5.610  0.3132 -0.3450  0.3555
 1670TIP3    H1 4974   0.346   5.634   5.541  0.2365  1.8818  1.3685
 1670TIP3    H2 4975   0.350   5.551   5.668  0.7571 -0.0298  0.1547
 1671TIP3   OH2 4976   1.266   4.189   1.587  0.0526 -0.1300  0.3833
 1671TIP3    H1 4977   1.356   4.173   1.559  0.4991 -0.3617  1.8519
 1671TIP3    H2 4978   1.251   4.282   1.570  1.5989  0.6373  2.7420
 1672TIP3   OH2 4979   5.044   1.604   1.514 -0.7048  0.3665 -0.4541
 1672TIP3    H1 4980   5.006   1.596   1.602  0.7632  1.8500  0.3719
 1672TIP3    H2 4981   4.969   1.609   1.456 -1.7694  1.2397  0.9242
 1673TIP3   OH2 4982   4.241   0.979   0.406 -0.1465  0.7236  0.3205
 1673TIP3    H1 4983   4.219   0.938   0.322 -1.2027  1.8201  0.0419
 1673TIP3    H2 4984   4.319   0.932   0.435 -1.5975 -1.8603  0.3070
 1674TIP3   OH2 4985   6.948   3.169   5.213 -0.6559 -0.2457  0.3700
 1674TIP3    H1 4986   6.873   3.189   5.269 -0.9839 -2.2206  0.6976
 1674TIP3    H2 4987   6.979   3.255   5.184 -1.9115  0.7066  1.6829
 1675TIP3   OH2 4988   4.215   4.870   1.942  0.2295 -0.1197 -0.5343
 1675TIP3    H1 4989   4.238   4.868   1.849  2.0744 -2.2100 -0.1423
 1675TIP3    H2 4990   4.299   4.866   1.988 -0.6251 -2.9961  1.1119
 1676TIP3   OH2 4991   1.798   3.191   3.157  0.2505 -0.1339  0.2216
 1676TIP3    H1 4992   1.762   3.183   3.245 -0.5888 -2.5842 -0.2812
 1676TIP3    H2 4993   1.762   3.274   3.124  0.4633  0.7387  2.1027
 1677TIP3   OH2 4994   4.330   4.077   1.913  0.4136  0.0689  0.3096
 1677TIP3    H1 4995   4.276   4.013   1.961 -0.2182 -0.5647 -1.2003
 1677TIP3    H2 4996   4.417   4.037   1.911 -0.1140 -1.1073 -1.1696
 1678TIP3   OH2 4997   6.507   3.668   5.163 -0.3851 -0.3951 -0.8051
 1678TIP3    H1 4998   6.582   3.676   5.222 -1.0880  0.4163  0.0076
 1678TIP3    H2 4999   6.545   3.642   5.079  0.7433 -0.5362 -0.2722
 1679TIP3   OH2 5000   6.205   6.611   0.132 -0.3026 -0.3273 -0.3754
 1679TIP3    H1 5001   6.230   6.696   0.094 -0.9898  1.1242  2.2031
 1679TIP3    H2 5002   6.110   6.606   0.119 -0.7026  0.6276  1.8227
 1680TIP3   OH2 5003   3.630   3.453   0.796 -0.2128  0.9484  0.3714
 1680TIP3    H1 5004   3.605   3.457   0.888  0.3868 -2.7520  0.8382
 1680TIP3    H2 5005   3.725   3.455   0.796 -0.1822  0.0512 -0.0582
 1681TIP3   OH2 5006   1.568   6.777   5.087 -0.0597 -0.5162 -0.5635
 1681TIP3    H1 5007   1.531   6.689   5.077 -0.4785 -0.7402  2.1499
 1681TIP3    H2 5008   1.500   6.835   5.054 -0.6100 -1.1421 -0.5666
 1682TIP3   OH2 5009   4.187   0.296   5.359 -0.3321 -0.4595 -0.1266
 1682TIP3    H1 5010   4.198   0.382   5.401  1.9168 -0.2056 -1.1154
 1682TIP3    H2 5011   4.203   0.233   5.429 -1.7216 -0.1101  0.5447
 1683TIP3   OH2 5012   2.073   1.197   4.327 -0.0122  0.2175 -0.0676
 1683TIP3    H1 5013   2.066   1.114   4.376  0.5770  0.9934  1.3894
 1683TIP3    H2 5014   1.982   1.222   4.311 -0.3125  0.6635  1.9714
 1684TIP3   OH2 5015   7.126   6.347   5.020  0.5936  0.4162 -0.4148
 1684TIP3    H1 5016   7.205   6.310   5.059 -0.6595 -0.9370  0.9658
 1684TIP3    H2 5017   7.141   6.442   5.021  1.8911  0.2287  0.5331
 1685TIP3   OH2 5018   3.504   0.424   1.889  0.0522 -0.0829 -0.1039
 1685TIP3    H1 5019   3.480   0.423   1.796 -2.2297  0.9698  0.3978
 1685TIP3    H2 5020   3.472   0.341   1.923 -2.5564  1.0410  0.4229
 1686TIP3   OH2 5021   3.321   2.982   3.792 -0.5097 -0.0062  0.0210
 1686TIP3    H1 5022   3.248   3.036   3.761 -0.2001  1.1693  1.2173
 1686TIP3    H2 5023   3.374   3.043   3.844 -0.9775 -1.7826  2.7712
 1687TIP3   OH2 5024   6.563   2.538   2.436  0.3627  0.1454 -0.8933
 1687TIP3    H1 5025   6.622   2.613   2.441 -2.2194  2.2357  0.2791
 1687TIP3    H2 5026   6.513   2.551   2.356  1.0914 -1.3400 -1.6274
 1688TIP3   OH2 5027   5.578   6.407   5.022 -0.3539  0.1718 -0.0650
 1688TIP3    H1 5028   5.581   6.326   5.073  0.4024  0.5103  0.4452
 1688TIP3    H2 5029   5.584   6.477   5.087  0.4773  0.6105 -0.5901
 1689TIP3   OH2 5030   0.303   5.409   2.268 -0.3926  0.1412  0.0321
 1689TIP3    H1 5031   0.373   5.351   2.298 -1.2375 -0.1722  1.4719
 1689TIP3    H2 5032   0.227   5.351   2.259 -0.7970  0.7073 -0.2449
 1690TIP3   OH2 5033   4.543   5.261   0.748  0.1259 -0.3623 -0.2475
 1690TIP3    H1 5034   4.515   5.181   0.704  0.2866  0.7061 -2.4384
 1690TIP3    H2 5035   4.638   5.251   0.756  0.0149 -0.8586  0.5183
 1691TIP3   OH2 5036   3.077   6.388   4.176 -0.0976 -0.3536  0.1495
 1691TIP3    H1 5037   2.990   6.426   4.163 -0.8804 -2.2170 -0.4314
 1691TIP3    H2 5038   3.110   6.429   4.255 -1.7921 -0.0724  0.7483
 1692TIP3   OH2 5039   6.216   4.564   3.452 -0.5728 -0.4839 -0.1761
 1692TIP3    H1 5040   6.193   4.656   3.469 -1.6194 -0.4938 -1.3948
 1692TIP3    H2 5041   6.194   4.551   3.360 -0.2576 -1.9120 -0.0642
 1693TIP3   OH2 5042   5.693   1.029   2.905 -0.0702 -0.3671 -0.4378
 1693TIP3    H1 5043   5.746   1.039   2.984 -0.9524  2.8057 -0.0838
 1693TIP3    H2 5044   5.756   1.030   2.833  0.5805  2.8172  0.0023
 1694TIP3   OH2 5045   4.561   1.110   3.056  0.4574  0.5855  0.1867
 1694TIP3    H1 5046   4.586   1.173   2.988 -0.8494  1.5562  0.5506
 1694TIP3    H2 5047   4.512   1.162   3.120 -0.6524 -0.7873  0.5193
 1695TIP3   OH2 5048   2.191   1.985   1.885 -0.1776  0.4316  0.4496
 1695TIP3    H1 5049   2.164   1.908   1.834  0.4079  0.3386  0.2742
 1695TIP3    H2 5050   2.144   2.058   1.844  3.3615  1.0988 -3.0673
 1696TIP3   OH2 5051   7.226   2.938   0.635  0.2814  0.1019 -0.4413
 1696TIP3    H1 5052   7.187   2.910   0.552 -0.8834  1.8434 -0.5356
 1696TIP3    H2 5053   7.155   2.931   0.698  0.6528  0.5295  0.0295
 1697TIP3   OH2 5054   3.276   5.536   3.715  0.4958 -0.4447  0.5164
 1697TIP3    H1 5055   3.271   5.459   3.772  0.4553 -1.1152 -0.3617
 1697TIP3    H2 5056   3.192   5.536   3.668  0.7872 -0.2912 -0.0137
 1698TIP3   OH2 5057   7.010   2.297   4.957  0.5529 -0.0857 -0.0481
 1698TIP3    H1 5058   6.940   2.274   4.896  0.3124 -2.4356  1.0225
 1698TIP3    H2 5059   6.965   2.314   5.039  1.0547  0.9421  0.0254
 1699TIP3   OH2 5060   1.996   5.805   2.376  0.3253 -0.8854  0.0756
 1699TIP3    H1 5061   2.005   5.900   2.375  0.0931 -0.8639 -0.5742
 1699TIP3    H2 5062   2.063   5.775   2.437  0.3473 -0.2996  0.3454
 1700TIP3   OH2 5063   6.437   4.307   4.848 -0.2988  0.3376  0.4141
 1700TIP3    H1 5064   6.504   4.282   4.784  1.4354  1.5931  1.6725
 1700TIP3    H2 5065   6.428   4.231   4.905  0.6593  0.4463  0.7196
 1701TIP3   OH2 5066   7.007   3.477   3.542  0.1977 -0.3835  0.1120
 1701TIP3    H1 5067   6.920   3.502   3.511 -0.2032  0.4846  1.8502
 1701TIP3    H2 5068   7.068   3.519   3.480 -0.5547  1.7588  0.7575
 1702TIP3   OH2 5069   0.824   0.794   1.348 -0.1912 -0.1932  0.4802
 1702TIP3    H1 5070   0.796   0.743   1.272  0.0168 -0.9648  0.9083
 1702TIP3    H2 5071   0.822   0.885   1.318 -0.8778 -0.4205 -0.2014
 1703TIP3   OH2 5072   6.312   2.499   1.070 -0.0556  0.4342 -0.1193
 1703TIP3    H1 5073   6.391   2.551   1.079 -0.1917  0.5887  0.2269
 1703TIP3    H2 5074   6.259   2.545   1.006  0.5945 -0.2513 -1.1718
 1704TIP3   OH2 5075   2.641   0.798   3.965  0.0871 -0.6411  0.2653
 1704TIP3    H1 5076   2.599   0.850   3.897  2.5406  0.2693 -0.6619
 1704TIP3    H2 5077   2.598   0.825   4.047 -1.0455  0.2482 -0.5961
 1705TIP3   OH2 5078   1.249   6.734   5.621  0.0777 -0.2260 -0.2487
 1705TIP3    H1 5079   1.291   6.790   5.687 -0.3985  0.7867 -0.7788
 1705TIP3    H2 5080   1.158   6.727   5.650  0.1296 -0.7288 -0.1962
 1706TIP3   OH2 5081   6.650   1.262   2.102  0.8350  0.6705  0.4526
 1706TIP3    H1 5082   6.579   1.317   2.134  0.0340  0.5078 -0.9396
 1706TIP3    H2 5083   6.730   1.302   2.136  0.3944  3.4942 -1.5402
 1707TIP3   OH2 5084   3.887   2.581   3.676 -0.3846 -0.1333 -0.1136
 1707TIP3    H1 5085   3.855   2.494   3.652  0.0482 -0.4565  0.4672
 1707TIP3    H2 5086   3.809   2.637   3.673 -0.1021  0.3798 -4.3609
 1708TIP3   OH2 5087   7.180   0.581   0.595 -0.0384 -0.6524 -0.3162
 1708TIP3    H1 5088   7.219   0.505   0.637 -2.9572 -0.5556  3.0797
 1708TIP3    H2 5089   7.180   0.649   0.662  0.1910  1.5846 -2.4182
 1709TIP3   OH2 5090   2.174   0.951   0.213  0.2611  0.3687 -0.0263
 1709TIP3    H1 5091   2.210   0.990   0.292 -0.1853  1.5945 -0.4138
 1709TIP3    H2 5092   2.168   0.857   0.233  3.7591  0.0056  0.0027
 1710TIP3   OH2 5093   1.138   2.157   1.895  0.6344  0.3965 -0.1622
 1710TIP3    H1 5094   1.069   2.092   1.904  0.3519  0.2761 -2.5502
 1710TIP3    H2 5095   1.210   2.111   1.853  0.1972  1.7037 -2.4955
 1711TIP3   OH2 5096   1.597   5.195   1.271 -0.5469 -0.2725 -0.0269
 1711TIP3    H1 5097   1.504   5.188   1.289 -0.4947  0.1243  0.4196
 1711TIP3    H2 5098   1.602   5.230   1.182 -0.8437  0.8628  0.3771
 1712TIP3   OH2 5099   3.331   5.958   4.343  0.5472  0.1825 -0.4827
 1712TIP3    H1 5100   3.391   6.004   4.402  1.1138 -0.2739 -0.6921
 1712TIP3    H2 5101   3.271   6.026   4.312 -0.3198  0.2936  1.2609
 1713TIP3   OH2 5102   5.127   3.684   1.002  0.3010  0.3399  0.3577
 1713TIP3    H1 5103   5.174   3.601   1.000 -0.0607  0.1070 -2.2505
 1713TIP3    H2 5104   5.035   3.659   0.996  0.1583  0.9119  0.1151
 1714TIP3   OH2 5105   5.664   2.529   2.086 -0.1508 -0.4149 -0.5089
 1714TIP3    H1 5106   5.612   2.610   2.089 -0.4895 -0.6311  3.0405
 1714TIP3    H2 5107   5.603   2.463   2.054 -0.5848  0.2640 -1.1239
 1715TIP3   OH2 5108   6.365   2.957   3.148  0.3669  0.1590  0.3357
 1715TIP3    H1 5109   6.410   3.030   3.190  0.8485 -0.1610  0.3910
 1715TIP3    H2 5110   6.433   2.890   3.137  0.0741 -0.0407 -0.2853
 1716TIP3   OH2 5111   5.821   6.034   1.861 -0.7135  0.0041 -0.1548
 1716TIP3    H1 5112   5.818   6.123   1.827  0.1935 -0.0837 -0.4896
 1716TIP3    H2 5113   5.749   6.030   1.924  1.0040  1.9369  2.1915
 1717TIP3   OH2 5114   6.433   6.449   0.136  0.1761  0.2841  0.0600
 1717TIP3    H1 5115   6.380   6.369   0.140  0.2480  0.1502 -1.1547
 1717TIP3    H2 5116   6.370   6.519   0.120  0.1676  0.4002  0.5972
 1718TIP3   OH2 5117   2.132   3.472   0.517  0.3023 -0.3602  0.0195
 1718TIP3    H1 5118   2.127   3.378   0.537 -1.6241  0.0024  1.4899
 1718TIP3    H2 5119   2.122   3.515   0.601 -0.3299  1.1960 -0.8147
 1719TIP3   OH2 5120   5.435   4.772   2.763  0.2137  0.1148  0.0779
 1719TIP3    H1 5121   5.376   4.721   2.818 -1.2682 -0.4405 -1.9137
 1719TIP3    H2 5122   5.380   4.841   2.725  0.9379 -0.0644 -1.3852
 1720TIP3   OH2 5123   3.123   3.486   3.802  0.2076  0.0035 -0.3179
 1720TIP3    H1 5124   3.173   3.468   3.723 -0.7812  1.0358 -1.2218
 1720TIP3    H2 5125   3.185   3.526   3.862  0.8330 -0.2531 -0.7891
 1721TIP3   OH2 5126   3.980   0.788   5.339  0.2593  0.2374 -0.2013
 1721TIP3    H1 5127   3.959   0.711   5.287  1.8024 -2.0378  2.2983
 1721TIP3    H2 5128   4.075   0.785   5.349  0.2144  1.6994  1.0803
 1722TIP3   OH2 5129   3.533   2.203   0.939  0.2395 -0.2181  0.1307
 1722TIP3    H1 5130   3.466   2.249   0.888 -0.0042 -1.2767 -0.5590
 1722TIP3    H2 5131   3.488   2.126   0.974  0.9887 -0.7374 -0.0117
 1723TIP3   OH2 5132   1.146   0.369   1.488  0.8712 -0.3060  0.1587
 1723TIP3    H1 5133   1.208   0.389   1.418  0.8655  0.7614  0.4414
 1723TIP3    H2 5134   1.179   0.418   1.563 -1.0121  1.3307 -0.0202
 1724TIP3   OH2 5135   1.141   6.023   5.863  0.1308 -0.2408 -0.9550
 1724TIP3    H1 5136   1.223   6.073   5.853  0.5843 -1.1725 -2.3037
 1724TIP3    H2 5137   1.164   5.935   5.833 -1.4970 -0.3840 -1.8877
 1725TIP3   OH2 5138   0.882   5.733   3.632 -0.1021 -0.2039 -0.2183
 1725TIP3    H1 5139   0.820   5.805   3.619  0.2706  0.5224  1.6321
 1725TIP3    H2 5140   0.839   5.675   3.696 -0.5710 -1.8965 -1.9784
 1726TIP3   OH2 5141   6.135   0.832   4.044  0.0132 -0.0937 -0.0822
 1726TIP3    H1 5142   6.219   0.810   4.084 -0.1542 -1.0592 -0.2259
 1726TIP3    H2 5143   6.158   0.875   3.961  0.3598  0.1864  0.1606
 1727TIP3   OH2 5144   3.045   1.259   4.678 -0.6220 -0.3135  0.0919
 1727TIP3    H1 5145   3.131   1.299   4.661 -1.5543  1.8425  0.0369
 1727TIP3    H2 5146   3.024   1.212   4.598  0.8914 -1.6711  0.4487
 1728TIP3   OH2 5147   6.637   4.210   2.961 -0.3740 -0.0981 -0.6533
 1728TIP3    H1 5148   6.610   4.301   2.974 -1.5727 -0.5834  0.4261
 1728TIP3    H2 5149   6.733   4.214   2.956 -0.4058  1.2044 -0.5193
 1729TIP3   OH2 5150   5.184   2.227   1.584 -0.1590 -0.1213 -0.1619
 1729TIP3    H1 5151   5.139   2.145   1.561 -0.0566 -0.5172  0.9621
 1729TIP3    H2 5152   5.275   2.202   1.593 -0.3356 -0.2127  1.6173
 1730TIP3   OH2 5153   5.300   3.438   4.453 -0.0959  0.3151  0.0210
 1730TIP3    H1 5154   5.371   3.502   4.446  0.6135 -0.5961 -2.0685
 1730TIP3    H2 5155   5.310   3.400   4.540  1.9782  0.2757 -0.1732
 1731TIP3   OH2 5156   2.789   3.064   4.421  0.1492  0.0938  0.4379
 1731TIP3    H1 5157   2.711   3.029   4.465  0.2678  0.2593  0.7807
 1731TIP3    H2 5158   2.860   3.052   4.484  0.5043 -0.5188 -0.0606
 1732TIP3   OH2 5159   2.320   2.509   1.055  0.1444  0.6651 -0.3537
 1732TIP3    H1 5160   2.368   2.554   0.985  0.3114  0.9315 -0.0696
 1732TIP3    H2 5161   2.388   2.462   1.104 -0.1994 -1.4799 -1.7582
 1733TIP3   OH2 5162   1.134   1.203   1.674 -0.2424  0.0078  0.1675
 1733TIP3    H1 5163   1.158   1.279   1.726  0.7676 -0.3286  0.2035
 1733TIP3    H2 5164   1.216   1.158   1.656 -0.4964  0.2977 -2.0539
 1734TIP3   OH2 5165   4.563   5.533   4.087  0.2310 -0.0651 -0.1284
 1734TIP3    H1 5166   4.514   5.574   4.015  0.4956 -0.6045 -0.6163
 1734TIP3    H2 5167   4.496   5.513   4.153 -0.0669  0.0616 -0.3912
 1735TIP3   OH2 5168   5.722   4.825   1.669  0.2921  0.0088 -0.2107
 1735TIP3    H1 5169   5.670   4.848   1.592 -2.5381 -3.3206  0.4606
 1735TIP3    H2 5170   5.778   4.754   1.640  1.3956  0.7021  0.1595
 1736TIP3   OH2 5171   5.040   1.596   4.385 -0.0728 -0.3027 -0.3917
 1736TIP3    H1 5172   5.010   1.626   4.470  0.9049 -1.8838  0.5719
 1736TIP3    H2 5173   5.084   1.513   4.403 -1.0005 -1.3577 -2.6269
 1737TIP3   OH2 5174   5.485   4.930   3.428 -0.1011 -0.0914  0.2617
 1737TIP3    H1 5175   5.521   5.015   3.402  1.2103 -0.8677 -0.6188
 1737TIP3    H2 5176   5.405   4.951   3.476 -0.1764  1.6090 -0.5315
 1738TIP3   OH2 5177   5.655   1.159   1.057 -0.0689 -0.0257 -0.0730
 1738TIP3    H1 5178   5.635   1.133   0.967  0.3997  0.8130 -0.4297
 1738TIP3    H2 5179   5.668   1.076   1.103 -2.5439 -0.5630 -0.2136
 1739TIP3   OH2 5180   4.506   2.044   4.957  0.4026  0.6357 -0.0555
 1739TIP3    H1 5181   4.569   2.070   5.025 -0.7441 -0.8044  1.6286
 1739TIP3    H2 5182   4.558   1.991   4.896  0.9976  0.1356  0.8642
 1740TIP3   OH2 5183   5.210   0.458   4.619 -0.6176 -0.0763 -0.4108
 1740TIP3    H1 5184   5.181   0.407   4.544 -1.2656 -1.9814  1.0398
 1740TIP3    H2 5185   5.288   0.411   4.650  0.0867  1.1193 -0.3229
 1741TIP3   OH2 5186   6.737   5.911   4.893 -0.7143  0.0113  0.2704
 1741TIP3    H1 5187   6.804   5.977   4.907 -1.5544  0.2954  3.9985
 1741TIP3    H2 5188   6.770   5.858   4.821  2.6038  1.2242  0.7346
 1742TIP3   OH2 5189   5.244   4.363   4.955 -0.3021 -0.8711  0.2813
 1742TIP3    H1 5190   5.266   4.455   4.970 -1.2598 -0.5733 -0.0670
 1742TIP3    H2 5191   5.322   4.326   4.914 -0.7721  0.3980 -1.8905
 1743TIP3   OH2 5192   4.094   0.619   2.982 -0.0739  0.0939  0.1226
 1743TIP3    H1 5193   4.161   0.601   3.048 -0.0318 -1.6862 -0.3564
 1743TIP3    H2 5194   4.061   0.533   2.957 -1.3283  0.8367 -0.9146
 1744TIP3   OH2 5195   0.389   1.820   3.453  0.5491 -0.6644  0.0719
 1744TIP3    H1 5196   0.305   1.784   3.482  1.2381 -2.0799  0.4114
 1744TIP3    H2 5197   0.436   1.839   3.534  0.5471  0.1834 -0.1168
 1745TIP3   OH2 5198   1.779   1.999   2.021  0.6593  0.5600  0.5044
 1745TIP3    H1 5199   1.691   2.025   2.048 -1.2884 -3.0699 -1.5562
 1745TIP3    H2 5200   1.781   2.015   1.926  2.0403  0.1064  0.4301
 1746TIP3   OH2 5201   2.614   3.478   1.925  0.1183  0.9649  0.2443
 1746TIP3    H1 5202   2.589   3.491   2.016  0.8126  2.9373  0.2073
 1746TIP3    H2 5203   2.545   3.522   1.875  0.8651  1.8401 -0.0571
 1747TIP3   OH2 5204   2.197   0.322   4.294  0.2447 -0.5860 -0.0124
 1747TIP3    H1 5205   2.288   0.295   4.280  0.9431  1.3021  0.4694
 1747TIP3    H2 5206   2.183   0.312   4.388  0.9099  1.6345  0.3839
 1748TIP3   OH2 5207   2.131   5.606   1.262 -0.3137 -0.3558  0.2194
 1748TIP3    H1 5208   2.091   5.565   1.186 -1.0025  0.3438  0.1938
 1748TIP3    H2 5209   2.078   5.576   1.336 -0.4120 -0.0470  0.2757
 1749TIP3   OH2 5210   5.324   4.612   2.961 -0.0609 -0.5349 -0.2405
 1749TIP3    H1 5211   5.312   4.517   2.959  0.0741 -0.5971  0.9235
 1749TIP3    H2 5212   5.318   4.635   3.054  0.8586  0.4652 -0.4068
 1750TIP3   OH2 5213   2.877   1.717   2.255  0.5083 -0.1660 -0.0432
 1750TIP3    H1 5214   2.863   1.779   2.327 -0.5024 -1.9796  1.4049
 1750TIP3    H2 5215   2.970   1.696   2.259  0.5404  0.0599  0.4653
 1751TIP3   OH2 5216   1.124   0.244   4.252  0.3078 -0.1026 -0.5264
 1751TIP3    H1 5217   1.148   0.167   4.303 -1.5825 -0.0382  0.5097
 1751TIP3    H2 5218   1.100   0.310   4.316  1.2001  1.1564 -1.4255
 1752TIP3   OH2 5219   1.150   5.006   0.936 -0.0240 -0.7510 -0.7360
 1752TIP3    H1 5220   1.068   5.001   0.885 -0.0920  1.5575 -0.9422
 1752TIP3    H2 5221   1.157   5.098   0.961  0.4347 -1.6000  2.7947
 1753TIP3   OH2 5222   1.803   6.754   1.833  0.1491 -0.1047  0.2200
 1753TIP3    H1 5223   1.833   6.665   1.815  0.2233 -0.1110  0.3715
 1753TIP3    H2 5224   1.882   6.800   1.862 -0.2667 -0.5246  2.1390
 1754TIP3   OH2 5225   5.841   6.356   3.862  0.1520  0.3560 -0.5985
 1754TIP3    H1 5226   5.898   6.392   3.794  2.3515 -0.6425  0.6343
 1754TIP3    H2 5227   5.825   6.431   3.921  1.5238  0.2962 -0.1168
 1755TIP3   OH2 5228   0.046   6.009   3.998  0.6856 -0.2843  0.4005
 1755TIP3    H1 5229   0.096   6.007   3.917  1.9387  1.8664  1.0388
 1755TIP3    H2 5230  -0.041   6.039   3.972  1.3070  1.2018 -0.1020
 1756TIP3   OH2 5231   6.349   1.522   4.920  0.4564  0.0472  0.0057
 1756TIP3    H1 5232   6.257   1.517   4.947  0.2975 -0.8855 -0.6569
 1756TIP3    H2 5233   6.386   1.591   4.975 -1.1649  2.0506 -1.2409
 1757TIP3   OH2 5234   3.116   1.322   1.105  0.0132 -0.1485  0.0983
 1757TIP3    H1 5235   3.204   1.336   1.142  0.0231 -0.4415  0.1884
 1757TIP3    H2 5236   3.059   1.317   1.182 -0.6207  3.2676  0.0372
 1758TIP3   OH2 5237   6.711   0.170   4.565 -0.0000  0.6092  0.7230
 1758TIP3    H1 5238   6.690   0.234   4.496  1.2344  1.2420  0.9102
 1758TIP3    H2 5239   6.673   0.088   4.534 -0.8323  1.2329  0.0462
 1759TIP3   OH2 5240   1.637   2.347   2.781  0.5256 -0.2015  0.7737
 1759TIP3    H1 5241   1.620   2.425   2.728  1.1512 -0.9694 -0.5922
 1759TIP3    H2 5242   1.714   2.307   2.742 -1.1740 -2.8448 -0.1494
 1760TIP3   OH2 5243   6.370   5.173   0.644  0.4747  0.3972 -0.1961
 1760TIP3    H1 5244   6.457   5.144   0.672  0.2021 -0.5284 -0.2868
 1760TIP3    H2 5245   6.309   5.133   0.706  0.0746  0.6865 -0.3945
 1761TIP3   OH2 5246   2.002   4.612   3.015 -0.3804 -0.0984  0.4496
 1761TIP3    H1 5247   2.021   4.671   3.089 -1.4344  0.0904  0.5782
 1761TIP3    H2 5248   2.064   4.639   2.947  0.8949 -0.5524  1.3892
 1762TIP3   OH2 5249   2.762   4.333   4.337 -0.2465  0.1034 -0.3223
 1762TIP3    H1 5250   2.838   4.384   4.366 -0.0988 -0.1680 -0.2183
 1762TIP3    H2 5251   2.798   4.273   4.272 -0.7938  1.5433 -2.0302
 1763TIP3   OH2 5252   1.713   2.763   5.728 -0.4777  0.1261  0.2594
 1763TIP3    H1 5253   1.807   2.778   5.734 -0.0930  1.0773 -4.4113
 1763TIP3    H2 5254   1.704   2.692   5.664 -2.9934 -1.0150  1.7216
 1764TIP3   OH2 5255   5.599   2.332   5.018  0.0816 -0.6992 -0.0715
 1764TIP3    H1 5256   5.681   2.375   5.040 -1.1751  1.9368 -0.1579
 1764TIP3    H2 5257   5.623   2.241   5.000  3.0722  0.1654 -0.8915
 1765TIP3   OH2 5258   4.047   5.563   0.762  0.1805 -0.5041 -0.6109
 1765TIP3    H1 5259   4.126   5.529   0.806  0.3253  0.0410 -0.4443
 1765TIP3    H2 5260   4.079   5.634   0.706 -0.2373 -0.0262 -0.2534
 1766TIP3   OH2 5261   1.026   2.572   3.543 -0.1748  0.4214 -0.4655
 1766TIP3    H1 5262   1.081   2.571   3.465  1.7881 -0.0964  0.8560
 1766TIP3    H2 5263   1.038   2.485   3.582 -0.3535  0.9866  0.8994
 1767TIP3   OH2 5264   2.658   0.859   3.400 -0.4766 -0.8105 -0.0192
 1767TIP3    H1 5265   2.643   0.904   3.483  0.2011 -0.6485  0.0185
 1767TIP3    H2 5266   2.627   0.921   3.333 -0.7589 -0.8269  0.0941
 1768TIP3   OH2 5267   6.197   6.071   2.727 -0.5209 -0.3576  0.1303
 1768TIP3    H1 5268   6.266   6.015   2.691 -0.3869 -1.5888  2.1326
 1768TIP3    H2 5269   6.118   6.017   2.726 -0.7261 -0.0829  0.7545
 1769TIP3   OH2 5270   4.173   4.652   3.457  0.1929  0.0678  0.0388
 1769TIP3    H1 5271   4.259   4.693   3.460  0.1731  0.0799  0.5027
 1769TIP3    H2 5272   4.128   4.696   3.385  0.5572  0.0896 -0.1783
 1770TIP3   OH2 5273   1.091   5.506   2.305  0.2879  0.2824  0.0147
 1770TIP3    H1 5274   1.103   5.578   2.244 -0.5062  0.2407 -0.1908
 1770TIP3    H2 5275   1.152   5.525   2.376  1.7913 -0.0530 -1.1157
 1771TIP3   OH2 5276   2.200   3.179   3.808  0.4667  0.0240  0.0815
 1771TIP3    H1 5277   2.213   3.242   3.737  0.4489  0.5692  0.5577
 1771TIP3    H2 5278   2.257   3.210   3.879 -1.1630  0.7459  1.1137
 1772TIP3   OH2 5279   3.579   4.141   3.505  0.2299  0.2793  0.4195
 1772TIP3    H1 5280   3.545   4.144   3.594  1.8391 -1.5504  1.1494
 1772TIP3    H2 5281   3.545   4.060   3.468  0.0389  0.7393 -0.4664
 1773TIP3   OH2 5282   0.938   0.100   5.525  0.6808 -0.7905 -0.2665
 1773TIP3    H1 5283   0.990   0.098   5.444 -0.0513 -2.9653 -0.7750
 1773TIP3    H2 5284   0.907   0.190   5.532  1.2539 -0.4059 -2.1147
 1774TIP3   OH2 5285   1.093   5.809   4.787  0.2103 -0.4927 -0.0754
 1774TIP3    H1 5286   1.016   5.814   4.730 -0.6571 -0.3526  1.0720
 1774TIP3    H2 5287   1.093   5.891   4.836 -0.5200 -1.5943  1.9046
 1775TIP3   OH2 5288   1.718   5.060   4.765  0.3536 -0.2138 -0.0150
 1775TIP3    H1 5289   1.740   5.112   4.687  0.2266  0.7473  0.5766
 1775TIP3    H2 5290   1.625   5.077   4.779  0.2270 -0.8903 -0.0175
 1776TIP3   OH2 5291   5.688   5.156   1.845  0.2063 -0.2218 -0.4648
 1776TIP3    H1 5292   5.726   5.176   1.760  2.2476  0.4513  0.5399
 1776TIP3    H2 5293   5.750   5.095   1.885  0.1037  0.6649  1.1293
 1777TIP3   OH2 5294   3.027   5.353   4.421 -0.6519  0.3247 -0.4811
 1777TIP3    H1 5295   3.028   5.406   4.500  0.3334  0.6122 -0.6662
 1777TIP3    H2 5296   2.972   5.278   4.442 -1.2541  0.9281  0.1150
 1778TIP3   OH2 5297   6.564   1.710   5.368  0.5347 -0.4077 -0.1408
 1778TIP3    H1 5298   6.523   1.633   5.407 -3.4721  1.0044 -1.1008
 1778TIP3    H2 5299   6.613   1.750   5.439  1.4852 -2.9365  0.7535
 1779TIP3   OH2 5300   3.850   3.731   5.079 -0.3929  0.3215  0.1570
 1779TIP3    H1 5301   3.928   3.785   5.063 -0.8843  1.3903  1.1857
 1779TIP3    H2 5302   3.858   3.705   5.171 -0.6439 -0.6018 -0.0705
 1780TIP3   OH2 5303   7.080   0.187   2.913 -0.1315 -0.5927  0.5233
 1780TIP3    H1 5304   6.991   0.183   2.879 -1.0703 -1.3013  2.8570
 1780TIP3    H2 5305   7.135   0.203   2.836 -2.2786  0.1748 -0.9355
 1781TIP3   OH2 5306   2.177   1.350   3.574 -0.1872  0.5459  0.7005
 1781TIP3    H1 5307   2.220   1.405   3.638  0.4283 -0.4997  1.1965
 1781TIP3    H2 5308   2.189   1.261   3.606 -0.9147  0.0916 -0.2370
 1782TIP3   OH2 5309   3.014   2.903   3.529 -0.4038 -0.4995  0.7300
 1782TIP3    H1 5310   2.988   2.850   3.605 -0.3307 -1.6477 -0.0240
 1782TIP3    H2 5311   2.932   2.939   3.496 -0.2978  1.4049  2.2941
 1783TIP3   OH2 5312   2.752   2.697   0.873  0.1931 -0.7208 -0.1327
 1783TIP3    H1 5313   2.839   2.737   0.874  0.3103 -0.9757  1.2206
 1783TIP3    H2 5314   2.693   2.770   0.857  0.5698 -0.3565  0.1172
 1784TIP3   OH2 5315   1.997   4.428   1.582 -0.3207 -0.2482 -0.4570
 1784TIP3    H1 5316   2.042   4.346   1.559  0.5494 -0.0576  0.5259
 1784TIP3    H2 5317   2.053   4.496   1.544 -1.5628 -0.1077 -2.1493
 1785TIP3   OH2 5318   3.960   5.006   5.264 -0.3993  0.0310 -0.0999
 1785TIP3    H1 5319   3.902   5.081   5.280 -0.1769  0.1233  0.2993
 1785TIP3    H2 5320   4.031   5.042   5.210  0.1014  0.2912  0.7214
 1786TIP3   OH2 5321   1.721   1.229   0.930  0.3524  0.1000 -0.0563
 1786TIP3    H1 5322   1.687   1.144   0.902 -1.0619  1.4581 -2.9252
 1786TIP3    H2 5323   1.812   1.230   0.899 -0.0045  0.0450 -1.1756
 1787TIP3   OH2 5324   0.965   4.966   5.717 -0.6722 -0.0843  0.2060
 1787TIP3    H1 5325   0.931   4.877   5.707 -1.1574 -0.3064  3.0170
 1787TIP3    H2 5326   0.904   5.021   5.668 -1.2998 -1.1379 -0.2219
 1788TIP3   OH2 5327   2.581   0.823   5.297 -0.6924 -0.4709  0.1806
 1788TIP3    H1 5328   2.550   0.737   5.324  1.0211 -1.6064 -1.2104
 1788TIP3    H2 5329   2.649   0.845   5.360  0.4790 -1.2492 -0.7666
 1789TIP3   OH2 5330   4.585   1.187   1.915 -0.1506 -0.4952  0.6464
 1789TIP3    H1 5331   4.538   1.269   1.899  0.2690 -0.2998  0.3906
 1789TIP3    H2 5332   4.536   1.145   1.985 -1.1503 -0.6561 -0.1262
 1790TIP3   OH2 5333   6.286   3.212   2.908  0.1791 -0.1645 -0.0115
 1790TIP3    H1 5334   6.300   3.126   2.867 -0.1403 -0.4941  0.5551
 1790TIP3    H2 5335   6.243   3.192   2.991 -1.8192  0.6606 -0.7796
 1791TIP3   OH2 5336   4.575   6.299   0.725 -0.1775 -0.5346 -0.2424
 1791TIP3    H1 5337   4.489   6.255   0.730 -1.2177  1.4095 -0.0695
 1791TIP3    H2 5338   4.632   6.245   0.779 -1.9795 -0.4677  1.8778
 1792TIP3   OH2 5339   1.619   3.415   2.640  0.2218  0.3968  0.2320
 1792TIP3    H1 5340   1.634   3.331   2.595 -1.6188  0.1203  0.0535
 1792TIP3    H2 5341   1.682   3.414   2.712 -0.2286 -1.5115  0.6783
 1793TIP3   OH2 5342   0.560   5.763   1.129 -0.1928  0.1239 -0.1631
 1793TIP3    H1 5343   0.609   5.695   1.082 -1.3324 -0.5696 -0.4007
 1793TIP3    H2 5344   0.551   5.834   1.066  1.0987  0.5661  0.1205
 1794TIP3   OH2 5345   1.838   5.869   1.181  0.1085  0.1569  0.0413
 1794TIP3    H1 5346   1.836   5.936   1.249  1.7292 -0.4682  0.7570
 1794TIP3    H2 5347   1.794   5.909   1.106 -0.9913  1.1613  1.1702
 1795TIP3   OH2 5348   3.464   2.948   4.387  0.2648  0.3794 -0.0754
 1795TIP3    H1 5349   3.524   2.927   4.316 -0.5028  0.1034 -0.6621
 1795TIP3    H2 5350   3.460   3.044   4.388 -1.4260  0.3848 -1.9174
 1796TIP3   OH2 5351   6.242   1.741   3.297  0.6295 -0.1747  0.2973
 1796TIP3    H1 5352   6.290   1.728   3.379  0.5645 -0.9072  0.2238
 1796TIP3    H2 5353   6.213   1.833   3.301  1.6871  0.1633  0.5188
 1797TIP3   OH2 5354   4.164   0.285   1.015  0.1788  0.5149  0.1028
 1797TIP3    H1 5355   4.164   0.207   0.958  3.3500  0.8014 -0.4529
 1797TIP3    H2 5356   4.182   0.251   1.102 -0.3413  0.4844  0.2038
 1798TIP3   OH2 5357   2.405   0.337   0.324  0.1240 -0.3878 -0.1412
 1798TIP3    H1 5358   2.326   0.377   0.361  0.7455 -0.3629  1.2268
 1798TIP3    H2 5359   2.399   0.353   0.230  0.0967  2.5502  0.2751
 1799TIP3   OH2 5360   2.600   1.448   2.556  0.2847 -0.0610 -0.4852
 1799TIP3    H1 5361   2.566   1.372   2.604  1.0094 -0.2243 -0.2243
 1799TIP3    H2 5362   2.694   1.447   2.573  0.7170 -0.6755 -2.6576
 1800TIP3   OH2 5363   2.592   0.385   0.542 -0.0845 -0.2836  0.5600
 1800TIP3    H1 5364   2.548   0.385   0.457  0.3935 -0.9093  0.3064
 1800TIP3    H2 5365   2.661   0.319   0.534  0.9912  0.7651  0.9072
 1801TIP3   OH2 5366   4.011   2.289   2.098 -0.7600 -0.2208  0.1440
 1801TIP3    H1 5367   4.107   2.284   2.092 -0.7967  0.4511 -1.7994
 1801TIP3    H2 5368   3.991   2.257   2.186  1.2327 -0.5194  0.5486
 1802TIP3   OH2 5369   4.680   2.978   4.957  0.5706  1.3243  0.0756
 1802TIP3    H1 5370   4.696   2.884   4.950 -1.4043  1.0842 -2.8074
 1802TIP3    H2 5371   4.743   3.017   4.896  0.2181  1.7070 -0.0431
 1803TIP3   OH2 5372   5.411   2.991   0.304  0.0639 -0.6224  0.5801
 1803TIP3    H1 5373   5.457   3.058   0.355  0.3619  0.3160 -0.8735
 1803TIP3    H2 5374   5.462   2.982   0.224 -0.9235 -1.3718  0.0107
 1804TIP3   OH2 5375   2.390   1.695   5.460 -0.2032  0.5499 -0.2945
 1804TIP3    H1 5376   2.412   1.712   5.369 -0.1317 -0.9921 -0.5885
 1804TIP3    H2 5377   2.447   1.623   5.486 -0.2487  0.9420  0.9639
 1805TIP3   OH2 5378   1.772   3.913   3.750 -0.4441  0.4880  0.7203
 1805TIP3    H1 5379   1.832   3.871   3.811 -0.0543 -2.1032 -1.2540
 1805TIP3    H2 5380   1.828   3.963   3.690 -0.5320  0.4747  0.6255
 1806TIP3   OH2 5381   6.432   2.864   2.443 -0.6354 -0.2763 -0.2424
 1806TIP3    H1 5382   6.510   2.882   2.390 -1.5439 -0.7188 -1.7766
 1806TIP3    H2 5383   6.364   2.920   2.406 -1.1503 -0.1176  0.8958
 1807TIP3   OH2 5384   3.461   1.910   0.098 -0.1186  0.4750 -0.4670
 1807TIP3    H1 5385   3.519   1.841   0.066 -1.2202 -0.7377  0.0906
 1807TIP3    H2 5386   3.521   1.979   0.127  1.1567 -1.2347  1.2630
 1808TIP3   OH2 5387   5.566   5.450   1.247  0.1931 -0.3438  0.4830
 1808TIP3    H1 5388   5.601   5.418   1.164  1.5761 -1.1278  1.3161
 1808TIP3    H2 5389   5.552   5.543   1.233  0.4424 -0.4601 -0.6203
 1809TIP3   OH2 5390   5.317   3.013   1.066 -0.1843  0.3184  0.2516
 1809TIP3    H1 5391   5.272   3.007   0.982  2.8398 -1.7367 -1.3654
 1809TIP3    H2 5392   5.287   3.096   1.103 -1.6235  1.3031 -2.8252
 1810TIP3   OH2 5393   6.316   1.071   5.593 -0.0014 -0.6328 -0.3569
 1810TIP3    H1 5394   6.350   1.097   5.507  1.2382 -0.9611  0.0115
 1810TIP3    H2 5395   6.385   1.095   5.654 -0.6452 -0.8958  0.4899
 1811TIP3   OH2 5396   3.885   0.869   2.620  0.1248 -0.1269  0.4278
 1811TIP3    H1 5397   3.955   0.825   2.667  0.2233 -0.3814  0.0453
 1811TIP3    H2 5398   3.924   0.894   2.537 -0.1707 -0.0553  0.3092
 1812TIP3   OH2 5399   3.833   1.768   4.568 -0.2923 -0.1725  0.6201
 1812TIP3    H1 5400   3.813   1.827   4.495  2.1393 -0.5666 -0.4675
 1812TIP3    H2 5401   3.837   1.826   4.645  0.7725  0.9182 -0.2113
 1813TIP3   OH2 5402   7.106   1.951   5.697  0.1417  0.0916 -0.1548
 1813TIP3    H1 5403   7.025   1.987   5.662 -0.6945  0.4375  2.0210
 1813TIP3    H2 5404   7.100   1.963   5.792  3.0731  0.8713  0.0537
 1814TIP3   OH2 5405   3.179   0.830   2.258  0.2662  0.4038  0.0300
 1814TIP3    H1 5406   3.100   0.843   2.311  0.6230 -0.6328  0.8552
 1814TIP3    H2 5407   3.209   0.742   2.280  1.5916  0.7242 -0.3712
 1815TIP3   OH2 5408   5.952   2.619   1.291 -0.1965  0.2180  0.0723
 1815TIP3    H1 5409   5.901   2.638   1.212  0.2490  1.4757  0.0592
 1815TIP3    H2 5410   5.890   2.631   1.363 -0.5692 -0.8021 -0.0556
 1816TIP3   OH2 5411   4.875   2.044   0.140  0.0295 -0.1917  0.1692
 1816TIP3    H1 5412   4.869   2.038   0.235 -1.4728 -1.4239  0.0407
 1816TIP3    H2 5413   4.964   2.075   0.123  0.3553 -0.0467  1.9554
 1817TIP3   OH2 5414   3.728   3.043   1.599  0.1801  0.5789  0.4644
 1817TIP3    H1 5415   3.649   3.044   1.653 -0.1505  0.9928 -0.0178
 1817TIP3    H2 5416   3.775   3.123   1.622  0.7670  0.0450  1.1814
 1818TIP3   OH2 5417   3.057   4.335   5.110  0.1081  0.2909  0.3247
 1818TIP3    H1 5418   3.002   4.262   5.138 -0.7957  0.7405 -0.2518
 1818TIP3    H2 5419   3.085   4.377   5.191 -2.3527  1.4872  0.6297
 1819TIP3   OH2 5420   6.776   5.210   5.266  0.1273  0.4358 -0.5671
 1819TIP3    H1 5421   6.861   5.251   5.280 -0.2055  1.0360 -0.2179
 1819TIP3    H2 5422   6.784   5.123   5.305  0.8031  0.2134 -1.1900
 1820TIP3   OH2 5423   4.415   2.819   3.565 -0.7777 -0.0871  0.3647
 1820TIP3    H1 5424   4.348   2.755   3.587 -0.4364 -0.3360  0.7050
 1820TIP3    H2 5425   4.411   2.827   3.470  1.8980 -3.7186 -0.2740
 1821TIP3   OH2 5426   7.050   0.484   5.665 -0.0904  0.3114  0.6035
 1821TIP3    H1 5427   7.038   0.575   5.693  2.0232  0.3884  1.4934
 1821TIP3    H2 5428   6.980   0.436   5.709 -1.6323  1.5532 -0.3817
 1822TIP3   OH2 5429   4.363   0.171   1.699  0.3845  0.4700  0.9204
 1822TIP3    H1 5430   4.360   0.174   1.795  2.4125  0.6747  1.0208
 1822TIP3    H2 5431   4.284   0.219   1.671  0.1048  0.9891  2.4805
 1823TIP3   OH2 5432   6.806   5.829   3.409 -0.1359  0.1598 -0.1434
 1823TIP3    H1 5433   6.760   5.760   3.362  1.6700 -0.7336 -0.6656
 1823TIP3    H2 5434   6.787   5.909   3.359 -0.3033 -0.3545 -0.9152
 1824TIP3   OH2 5435   4.967   2.537   3.935 -0.1455  0.3700 -0.2750
 1824TIP3    H1 5436   4.937   2.628   3.944 -0.8128  0.3992 -2.3963
 1824TIP3    H2 5437   5.053   2.544   3.895 -0.1169  0.0755 -0.2634
 1825TIP3   OH2 5438   3.696   4.916   1.805  0.4130 -0.3134 -0.2467
 1825TIP3    H1 5439   3.761   4.980   1.835  0.5967 -0.0490 -1.1847
 1825TIP3    H2 5440   3.666   4.950   1.721 -0.0967 -1.0344 -0.3610
 1826TIP3   OH2 5441   5.996   3.213   0.809 -0.1660 -0.2659  0.4956
 1826TIP3    H1 5442   6.071   3.170   0.767 -0.0310  0.4387 -0.0000
 1826TIP3    H2 5443   6.006   3.305   0.786 -2.5165 -0.4537 -1.6399
 1827TIP3   OH2 5444   3.598   1.594   0.564 -0.3982 -1.0257 -0.1203
 1827TIP3    H1 5445   3.636   1.662   0.620 -0.1928 -0.6384 -0.7253
 1827TIP3    H2 5446   3.662   1.523   0.567  0.0851 -0.6210 -0.6373
 1828TIP3   OH2 5447   1.881   4.477   1.822 -0.4918  0.2831 -0.0010
 1828TIP3    H1 5448   1.890   4.465   1.727  1.9391  1.2200  0.0371
 1828TIP3    H2 5449   1.965   4.448   1.857 -0.8071  1.3511  1.7321
 1829TIP3   OH2 5450   5.163   2.219   2.462  0.1803 -0.2394 -0.1321
 1829TIP3    H1 5451   5.254   2.217   2.492  0.4775 -2.3566 -1.0378
 1829TIP3    H2 5452   5.168   2.204   2.367 -1.1241 -0.5206 -0.1811
 1830TIP3   OH2 5453   4.537   6.247   0.266  0.0177 -0.6420 -0.1099
 1830TIP3    H1 5454   4.589   6.313   0.220 -0.4025 -0.1858  0.0548
 1830TIP3    H2 5455   4.455   6.292   0.287 -1.0121 -1.7264 -1.5536
 1831TIP3   OH2 5456   5.037   5.340   2.598 -0.0072  0.4136 -0.1880
 1831TIP3    H1 5457   5.022   5.398   2.673  0.4905 -0.0587  0.2766
 1831TIP3    H2 5458   5.129   5.352   2.577 -0.1724  0.6364 -0.8112
 1832TIP3   OH2 5459   2.622   1.059   0.224 -0.6556  0.1147  0.4187
 1832TIP3    H1 5460   2.675   1.075   0.146 -0.7975 -0.4154  0.2091
 1832TIP3    H2 5461   2.676   1.001   0.278 -0.7946  0.0173  0.4542
 1833TIP3   OH2 5462   3.055   4.134   5.770  0.5166 -0.5366 -0.5061
 1833TIP3    H1 5463   3.112   4.146   5.845 -0.3566  0.2991  0.0392
 1833TIP3    H2 5464   3.000   4.059   5.793  1.7229 -1.6973 -1.2628
 1834TIP3   OH2 5465   0.004   3.874   2.015 -0.1846  0.3749  1.0222
 1834TIP3    H1 5466  -0.004   3.780   2.032  0.1423  0.3572  1.0799
 1834TIP3    H2 5467   0.082   3.901   2.064  0.5090  0.4127 -0.0573
 1835TIP3   OH2 5468   0.180   1.258   4.533  0.1466  0.3748 -0.2827
 1835TIP3    H1 5469   0.098   1.210   4.528 -0.0654  0.2881  2.3589
 1835TIP3    H2 5470   0.156   1.349   4.514  0.1888 -0.1321 -3.2312
 1836TIP3   OH2 5471   1.663   0.630   2.193  0.0801  0.6353 -0.4232
 1836TIP3    H1 5472   1.575   0.653   2.223  0.2599  1.1188 -0.2513
 1836TIP3    H2 5473   1.652   0.546   2.149 -0.0362 -0.6301  1.8629
 1837TIP3   OH2 5474   4.095   4.889   2.988 -0.0485 -0.2714 -0.6248
 1837TIP3    H1 5475   4.002   4.866   2.976  0.7353 -3.6597 -1.4297
 1837TIP3    H2 5476   4.119   4.932   2.906 -0.9252  0.8434 -0.3225
 1838TIP3   OH2 5477   1.804   5.648   3.663 -0.1827  0.1609  0.3301
 1838TIP3    H1 5478   1.750   5.705   3.608  2.1816  0.2143 -2.1569
 1838TIP3    H2 5479   1.825   5.701   3.740 -0.5758  1.5130 -0.4545
 1839TIP3   OH2 5480   0.994   6.066   3.324 -0.2695 -0.1060  0.2017
 1839TIP3    H1 5481   0.957   6.029   3.244 -0.6566 -0.0512  0.3523
 1839TIP3    H2 5482   0.919   6.106   3.368 -0.1600 -0.5998  0.8501
 1840TIP3   OH2 5483   3.373   1.799   1.711  0.3880 -0.2098 -0.3253
 1840TIP3    H1 5484   3.391   1.751   1.630  0.7113 -1.0304  0.2164
 1840TIP3    H2 5485   3.429   1.757   1.776  0.4884  0.7590  0.2234
 1841TIP3   OH2 5486   0.774   5.002   4.631 -0.3364  0.0634 -0.0952
 1841TIP3    H1 5487   0.696   4.974   4.679 -0.2742 -0.6497 -0.3916
 1841TIP3    H2 5488   0.795   4.927   4.574  1.0585 -0.0969  0.5810
 1842TIP3   OH2 5489   1.314   0.672   5.804 -0.3764  0.7361 -0.2444
 1842TIP3    H1 5490   1.371   0.670   5.727 -0.4926  1.0313 -0.3442
 1842TIP3    H2 5491   1.337   0.594   5.854  0.8795  1.4199  0.2807
 1843TIP3   OH2 5492   2.544   0.501   2.451 -0.1814  0.3542 -0.1910
 1843TIP3    H1 5493   2.459   0.539   2.429 -0.3156 -0.4371 -1.0813
 1843TIP3    H2 5494   2.604   0.535   2.385 -0.1333 -0.3284 -0.5056
 1844TIP3   OH2 5495   1.592   5.765   5.753  0.5236  0.3483  0.5787
 1844TIP3    H1 5496   1.599   5.836   5.816 -1.0774 -1.0814  2.4912
 1844TIP3    H2 5497   1.644   5.694   5.791 -1.2878 -0.8795  0.8597
 1845TIP3   OH2 5498   3.858   1.751   0.243  0.1366 -0.4054 -0.3993
 1845TIP3    H1 5499   3.923   1.759   0.173  2.2868  1.1637  1.5906
 1845TIP3    H2 5500   3.851   1.840   0.278  1.0485 -1.4865  2.8941
 1846TIP3   OH2 5501   2.867   0.528   1.009  0.0884 -0.1958  0.3700
 1846TIP3    H1 5502   2.870   0.597   1.075 -0.3735 -0.7969  1.0443
 1846TIP3    H2 5503   2.917   0.562   0.935 -2.8747  2.2870 -0.7344
 1847TIP3   OH2 5504   6.088   2.540   2.748  0.4083  0.5512 -0.2778
 1847TIP3    H1 5505   6.072   2.482   2.673  0.0710  1.3077 -0.8100
 1847TIP3    H2 5506   6.142   2.611   2.711 -1.3496  1.9411 -0.2824
 1848TIP3   OH2 5507   6.883   6.322   4.875 -0.1740 -0.0592  0.2307
 1848TIP3    H1 5508   6.963   6.320   4.927 -0.7412 -0.5637  1.1063
 1848TIP3    H2 5509   6.846   6.408   4.891  0.6126  0.5082 -0.8582
 1849TIP3   OH2 5510   2.529   1.386   2.101 -0.3323 -0.5462  0.5287
 1849TIP3    H1 5511   2.549   1.474   2.133 -0.1185 -0.1768 -0.5793
 1849TIP3    H2 5512   2.452   1.397   2.046 -0.4920 -1.1102  0.6288
 1850TIP3   OH2 5513   1.793   2.725   3.538 -0.3980  0.4356  0.2118
 1850TIP3    H1 5514   1.841   2.764   3.465  0.9142 -0.5461  0.5068
 1850TIP3    H2 5515   1.758   2.800   3.586  1.6986  1.2741  0.5431
 1851TIP3   OH2 5516   4.164   5.135   1.167 -0.1653 -0.3988  0.2844
 1851TIP3    H1 5517   4.124   5.220   1.187 -1.5291 -0.7570 -0.7904
 1851TIP3    H2 5518   4.124   5.075   1.230 -0.6119 -0.5704 -0.1512
 1852TIP3   OH2 5519   6.887   6.660   0.367  0.1239  0.0494  0.2947
 1852TIP3    H1 5520   6.797   6.639   0.340 -0.5381 -0.4693  2.6766
 1852TIP3    H2 5521   6.934   6.577   0.360 -0.4384 -0.4519  2.0752
 1853TIP3   OH2 5522   4.866   3.086   3.353  0.5562 -0.5974 -0.2471
 1853TIP3    H1 5523   4.870   3.092   3.449  0.4280  1.4767 -0.3346
 1853TIP3    H2 5524   4.956   3.102   3.325  0.0950  1.9219 -0.5358
 1854TIP3   OH2 5525   5.161   3.736   3.467 -0.2459 -0.2908  0.0903
 1854TIP3    H1 5526   5.239   3.753   3.520 -1.0372 -0.7906  1.4441
 1854TIP3    H2 5527   5.088   3.740   3.528 -1.3490  0.5446 -1.2181
 1855TIP3   OH2 5528   6.412   1.762   4.503  0.4260 -0.2900 -0.0925
 1855TIP3    H1 5529   6.329   1.722   4.478  0.1724  0.4317 -0.4138
 1855TIP3    H2 5530   6.394   1.801   4.589  0.6900 -0.8996  0.2481
 1856TIP3   OH2 5531   5.495   2.871   4.462 -0.2859  0.2078 -0.1200
 1856TIP3    H1 5532   5.567   2.909   4.512 -1.0306 -0.8667  1.9189
 1856TIP3    H2 5533   5.480   2.785   4.503 -2.1688  0.0527 -1.0153
 1857TIP3   OH2 5534   6.746   1.469   5.785  0.0813 -0.0592  0.4597
 1857TIP3    H1 5535   6.830   1.475   5.739  0.8246  2.5691  1.8982
 1857TIP3    H2 5536   6.743   1.380   5.819  1.7950 -0.5382 -0.5473
 1858TIP3   OH2 5537   5.494   6.171   3.277  0.6751 -0.3820 -0.0872
 1858TIP3    H1 5538   5.553   6.194   3.205  1.3365  0.4658  0.7060
 1858TIP3    H2 5539   5.475   6.078   3.263 -0.1246  0.0235 -1.9837
 1859TIP3   OH2 5540   3.387   4.139   2.774 -0.3221 -0.4296  0.4758
 1859TIP3    H1 5541   3.442   4.126   2.852 -1.1741 -2.6059  0.7964
 1859TIP3    H2 5542   3.314   4.078   2.786 -1.2811  0.2805 -1.3310
 1860TIP3   OH2 5543   2.520   4.081   2.506 -0.0094 -0.3971  0.1813
 1860TIP3    H1 5544   2.607   4.042   2.513 -0.0839 -0.6291 -0.1611
 1860TIP3    H2 5545   2.464   4.023   2.558  0.1584  0.1374  0.9793
 1861TIP3   OH2 5546   3.418   3.528   4.483 -0.0439 -0.1074  0.2685
 1861TIP3    H1 5547   3.332   3.491   4.462 -0.3766  1.1520 -0.6571
 1861TIP3    H2 5548   3.420   3.528   4.579 -0.4448 -1.5441  0.2999
 1862TIP3   OH2 5549   4.092   0.149   4.620  0.1235 -0.3391  0.3812
 1862TIP3    H1 5550   4.080   0.241   4.597  0.0257 -0.7159 -1.2131
 1862TIP3    H2 5551   4.174   0.147   4.669 -0.6043  0.7655  1.7154
 1863TIP3   OH2 5552   2.547   6.599   3.823 -0.4184 -0.3130 -0.3628
 1863TIP3    H1 5553   2.535   6.633   3.734 -0.2624  0.6738 -0.0089
 1863TIP3    H2 5554   2.638   6.569   3.825  0.2620  1.6497  0.1023
 1864TIP3   OH2 5555   6.191   0.732   0.269 -0.2202 -0.3039 -0.3402
 1864TIP3    H1 5556   6.145   0.751   0.187 -0.2437  0.0480 -0.2494
 1864TIP3    H2 5557   6.269   0.789   0.266  0.1383 -0.7936 -0.4297
 1865TIP3   OH2 5558   0.635   6.649   4.812 -0.3466 -0.3856  0.0364
 1865TIP3    H1 5559   0.597   6.586   4.873 -1.9390  1.2755  0.8598
 1865TIP3    H2 5560   0.689   6.706   4.868 -0.1420 -0.1090 -0.4383
 1866TIP3   OH2 5561   4.536   0.761   4.145 -0.0459 -0.4546  0.2049
 1866TIP3    H1 5562   4.503   0.849   4.164 -1.2409 -1.3495  2.7188
 1866TIP3    H2 5563   4.606   0.775   4.081  0.4010  2.3930  1.1778
 1867TIP3   OH2 5564   0.846   5.754   0.233  0.1899  0.0123  0.2689
 1867TIP3    H1 5565   0.886   5.746   0.146  0.0265  0.5539  0.1423
 1867TIP3    H2 5566   0.913   5.797   0.286 -0.6875  2.1286 -0.2802
 1868TIP3   OH2 5567   3.488   5.716   5.265  0.1126  0.7164 -0.6721
 1868TIP3    H1 5568   3.538   5.731   5.345 -0.3715  0.9263 -0.4078
 1868TIP3    H2 5569   3.525   5.635   5.229  0.9445  1.1078 -0.7232
 1869TIP3   OH2 5570   2.804   1.377   4.744 -0.1489 -0.1027 -0.5880
 1869TIP3    H1 5571   2.893   1.374   4.707  0.0019  1.4991 -0.4165
 1869TIP3    H2 5572   2.796   1.296   4.794  0.8789 -0.7087 -1.3708
 1870TIP3   OH2 5573   4.356   1.020   0.050 -0.0152  0.6797 -0.0384
 1870TIP3    H1 5574   4.410   1.017   0.129 -2.4112 -1.1553  1.6927
 1870TIP3    H2 5575   4.406   0.970  -0.015  1.1776  0.5838  0.9176
 1871TIP3   OH2 5576   6.565   3.457   3.940  0.7383 -0.5878 -0.0053
 1871TIP3    H1 5577   6.655   3.489   3.943  0.6000 -0.1200 -0.5871
 1871TIP3    H2 5578   6.518   3.524   3.890 -0.1998 -0.1543  1.3919
 1872TIP3   OH2 5579   4.269   2.661   0.140 -0.5051 -0.3176  0.6247
 1872TIP3    H1 5580   4.348   2.706   0.168 -0.7140 -1.1362  2.7020
 1872TIP3    H2 5581   4.204   2.680   0.207 -1.5320 -1.1457 -0.0800
 1873TIP3   OH2 5582   7.062   6.603   5.059 -0.7934 -0.9570  0.4696
 1873TIP3    H1 5583   7.009   6.615   5.138 -1.7402  0.5062 -0.3463
 1873TIP3    H2 5584   7.013   6.647   4.990  1.0743 -0.2569 -0.4917
 1874TIP3   OH2 5585   1.863   0.011   1.303 -0.5542 -0.3314 -0.1537
 1874TIP3    H1 5586   1.908   0.084   1.347 -0.0348 -0.8435  0.1854
 1874TIP3    H2 5587   1.811   0.053   1.235 -1.8758  0.5637  1.3198
 1875TIP3   OH2 5588   6.843   3.539   0.019  0.0969  0.0021  0.6760
 1875TIP3    H1 5589   6.801   3.598   0.082 -0.8255 -0.1628  0.2259
 1875TIP3    H2 5590   6.799   3.455   0.032 -0.4422  0.0873 -0.5147
 1876TIP3   OH2 5591   6.813   0.472   4.146  0.4151  0.5484  0.0034
 1876TIP3    H1 5592   6.748   0.526   4.101 -0.8506  1.1457  2.3803
 1876TIP3    H2 5593   6.864   0.533   4.198  1.4229 -0.1713 -0.1113
 1877TIP3   OH2 5594   1.185   4.485   1.551  0.4529  0.0403 -0.0649
 1877TIP3    H1 5595   1.185   4.554   1.617 -0.9274  1.3377 -1.3431
 1877TIP3    H2 5596   1.252   4.512   1.488  0.5252 -0.2518 -0.1159
 1878TIP3   OH2 5597   1.754   4.413   3.092  0.3564 -0.3885  0.1393
 1878TIP3    H1 5598   1.789   4.466   3.163 -0.7152 -0.2548  0.5887
 1878TIP3    H2 5599   1.706   4.475   3.037  0.9396 -0.5386 -0.5537
 1879TIP3   OH2 5600   5.762   0.152   1.554 -0.2430  0.5311 -0.1365
 1879TIP3    H1 5601   5.812   0.083   1.599 -0.6503 -0.4134 -1.1014
 1879TIP3    H2 5602   5.678   0.111   1.534 -0.7365  1.5264 -0.1684
 1880TIP3   OH2 5603   2.595   5.848   5.055  0.6465  1.1924  0.0788
 1880TIP3    H1 5604   2.581   5.938   5.086 -0.8427  0.5412  1.4337
 1880TIP3    H2 5605   2.522   5.832   4.994 -0.1671  0.3241  1.2468
 1881TIP3   OH2 5606   2.348   3.394   5.211 -0.5204  0.1115  0.3254
 1881TIP3    H1 5607   2.330   3.304   5.186 -1.3828  0.1659  0.7196
 1881TIP3    H2 5608   2.277   3.445   5.173 -0.2090  0.5907  0.3660
 1882TIP3   OH2 5609   5.482   3.748   4.270  0.1781  0.2944  0.1088
 1882TIP3    H1 5610   5.489   3.665   4.222 -2.2160  0.8656 -1.4125
 1882TIP3    H2 5611   5.554   3.801   4.237 -0.2871 -0.0168 -1.4978
 1883TIP3   OH2 5612   1.351   1.372   2.130  0.2343 -0.2859 -0.2732
 1883TIP3    H1 5613   1.297   1.413   2.197  1.1337 -0.8568  0.8393
 1883TIP3    H2 5614   1.309   1.288   2.114  0.0633 -0.1829 -0.3672
 1884TIP3   OH2 5615   4.476   0.229   0.074  0.2965 -0.5909 -0.0774
 1884TIP3    H1 5616   4.445   0.143   0.102 -4.0439  1.6345  3.1231
 1884TIP3    H2 5617   4.414   0.256   0.006 -0.4428  1.1274  1.2015
 1885TIP3   OH2 5618   0.804   4.924   4.212  0.1007 -0.5354  0.7086
 1885TIP3    H1 5619   0.862   4.848   4.225  0.0646 -1.2163 -2.4205
 1885TIP3    H2 5620   0.777   4.919   4.120 -1.8860  1.9381  1.0388
 1886TIP3   OH2 5621   0.472   5.906   2.896  0.7772 -0.4338 -0.1167
 1886TIP3    H1 5622   0.436   5.858   2.821  1.0263 -0.3152 -0.3109
 1886TIP3    H2 5623   0.500   5.990   2.860  0.4392 -0.1771  0.2033
 1887TIP3   OH2 5624   0.785  -0.022   1.586 -0.2699  0.2853  0.1195
 1887TIP3    H1 5625   0.731  -0.028   1.507 -0.5306 -0.4485  0.3441
 1887TIP3    H2 5626   0.783   0.071   1.609  0.1518  0.5761 -0.9655
 1888TIP3   OH2 5627   2.657   0.253   3.541 -1.1984 -0.8592  0.4541
 1888TIP3    H1 5628   2.713   0.198   3.487 -2.2349 -0.9632 -0.5727
 1888TIP3    H2 5629   2.716   0.318   3.580 -0.1774 -1.8360  0.5717
 1889TIP3   OH2 5630   2.121   1.078   2.440 -0.0526 -0.0565 -0.1437
 1889TIP3    H1 5631   2.069   1.130   2.501 -0.9190 -1.1239  0.0604
 1889TIP3    H2 5632   2.142   1.138   2.369  0.0553  0.9087  0.6842
 1890TIP3   OH2 5633   4.339   3.471   0.361  0.3314  0.4489  0.2596
 1890TIP3    H1 5634   4.297   3.470   0.447  2.0570  1.4721  1.1842
 1890TIP3    H2 5635   4.290   3.407   0.309 -1.4963  0.6579  1.6222
 1891TIP3   OH2 5636   2.359   5.764   4.912  0.7701 -0.1390 -0.1103
 1891TIP3    H1 5637   2.307   5.804   4.982  2.2120  2.1803 -0.2398
 1891TIP3    H2 5638   2.319   5.679   4.897 -1.2180  0.4039  1.6917
 1892TIP3   OH2 5639   5.554   2.035   5.760  0.1185 -0.3134  0.3214
 1892TIP3    H1 5640   5.546   2.054   5.854  0.0519  0.4579  0.1664
 1892TIP3    H2 5641   5.528   2.116   5.717  0.9208 -0.4012 -0.3504
 1893TIP3   OH2 5642   1.166   2.646   2.163 -0.0996  0.1551  0.2506
 1893TIP3    H1 5643   1.187   2.585   2.234  0.5885  0.3315  0.2009
 1893TIP3    H2 5644   1.210   2.728   2.188  0.6548  0.0475 -0.6748
 1894TIP3   OH2 5645   5.571   5.157   5.089 -0.6387 -0.8973  0.7524
 1894TIP3    H1 5646   5.642   5.221   5.078 -0.1299 -0.8479  3.5516
 1894TIP3    H2 5647   5.493   5.211   5.102 -0.7110 -0.9004  0.3308
 1895TIP3   OH2 5648   4.324   4.436   3.893  0.6286  0.2297  0.1610
 1895TIP3    H1 5649   4.402   4.426   3.838  0.5746  0.0791  0.1115
 1895TIP3    H2 5650   4.270   4.501   3.846 -1.7981 -3.4335 -2.7425
 1896TIP3   OH2 5651   4.836   1.377   2.432  0.0221 -0.8962  0.8530
 1896TIP3    H1 5652   4.923   1.411   2.454 -1.0414  1.8621  1.2126
 1896TIP3    H2 5653   4.851   1.321   2.355  1.9463  0.6637 -0.0070
 1897TIP3   OH2 5654   4.444   0.375   4.953 -0.7830 -0.1313 -0.2961
 1897TIP3    H1 5655   4.536   0.372   4.977 -0.7483 -0.0939 -0.4279
 1897TIP3    H2 5656   4.405   0.301   5.001 -0.6076 -0.4050 -0.5712
 1898TIP3   OH2 5657   3.533   4.183   5.039  0.4096 -0.2489  0.2381
 1898TIP3    H1 5658   3.503   4.142   5.120 -0.0154  1.0360  0.7515
 1898TIP3    H2 5659   3.456   4.227   5.004  0.2555 -1.7800 -1.5566
 1899TIP3   OH2 5660   6.928   3.940   0.604 -0.1728  0.2207  0.0721
 1899TIP3    H1 5661   6.977   3.925   0.523 -1.2991  1.0037 -0.7799
 1899TIP3    H2 5662   6.995   3.953   0.671  0.7735  0.2807 -0.8676
 1900TIP3   OH2 5663   1.212   5.769   3.892 -0.4889  0.2210  0.2680
 1900TIP3    H1 5664   1.258   5.780   3.975 -0.6009 -2.2463  0.7222
 1900TIP3    H2 5665   1.119   5.775   3.914 -0.5001  1.1803  0.0174
 1901TIP3   OH2 5666   0.441   4.044   3.390  0.1206  0.2409 -0.7056
 1901TIP3    H1 5667   0.490   3.968   3.358 -4.0522 -3.4698  0.6237
 1901TIP3    H2 5668   0.383   4.067   3.318 -0.5351  0.3073 -0.1666
 1902TIP3   OH2 5669   4.020   5.929   1.001  0.0097  0.5818 -0.2692
 1902TIP3    H1 5670   4.109   5.958   0.983 -0.0968  0.1522 -1.5401
 1902TIP3    H2 5671   3.965   5.980   0.941 -0.5419  0.4009  0.0700
 1903TIP3   OH2 5672   0.987   2.823   5.461  0.5716  0.0891  0.1538
 1903TIP3    H1 5673   0.969   2.902   5.512  2.1064  1.2449 -1.0021
 1903TIP3    H2 5674   0.927   2.828   5.387 -2.2643 -2.0227  2.1080
 1904TIP3   OH2 5675   4.117   1.516   1.599  0.9067  0.2317 -0.1446
 1904TIP3    H1 5676   4.039   1.564   1.570  0.3533 -0.9298 -0.6395
 1904TIP3    H2 5677   4.146   1.467   1.522  0.7809 -1.0812  0.6004
 1905TIP3   OH2 5678   4.000   3.093   0.265  0.3800 -0.3527 -0.6448
 1905TIP3    H1 5679   4.069   3.028   0.277  0.6177  0.1091  0.6531
 1905TIP3    H2 5680   3.928   3.061   0.320  0.3997  0.3296 -0.2192
 1906TIP3   OH2 5681   4.084   2.337   5.280 -0.1124 -0.2134  0.3896
 1906TIP3    H1 5682   4.123   2.313   5.364  1.7166  0.2798 -0.2639
 1906TIP3    H2 5683   4.112   2.268   5.220  4.4284  2.5860 -1.3004
 1907TIP3   OH2 5684   0.283   4.402   3.486 -0.1152 -0.1036  0.6863
 1907TIP3    H1 5685   0.196   4.408   3.446  0.9890 -0.9528 -2.1168
 1907TIP3    H2 5686   0.279   4.321   3.538 -0.3795 -1.4667 -1.3323
 1908TIP3   OH2 5687   6.086   4.876   5.063 -0.1276 -0.5911  0.2331
 1908TIP3    H1 5688   6.019   4.926   5.016  0.6278  0.1085 -0.1236
 1908TIP3    H2 5689   6.112   4.807   5.002 -0.1517 -0.5520  0.1783
 1909TIP3   OH2 5690   4.642   4.311   1.047 -0.4825 -0.2021  0.3122
 1909TIP3    H1 5691   4.682   4.336   0.963 -0.6490 -0.4997  0.1453
 1909TIP3    H2 5692   4.629   4.395   1.092 -1.6151  0.0898 -0.5068
 1910TIP3   OH2 5693   6.275   2.773   2.647 -0.1309  0.2906 -0.3584
 1910TIP3    H1 5694   6.321   2.792   2.565 -0.6593  1.1814 -0.4568
 1910TIP3    H2 5695   6.338   2.795   2.715  0.2160 -0.1952 -0.5201
 1911TIP3   OH2 5696   3.845   3.330   5.484 -0.0515 -0.6006 -0.5216
 1911TIP3    H1 5697   3.785   3.335   5.558  0.4554  0.9963 -0.1813
 1911TIP3    H2 5698   3.806   3.264   5.426 -0.1223 -2.3752  1.4257
 1912TIP3   OH2 5699   6.175   3.791   4.085  0.6631  0.7738  0.3236
 1912TIP3    H1 5700   6.181   3.725   4.016 -0.1390  0.6951  0.3192
 1912TIP3    H2 5701   6.159   3.873   4.039 -0.5770  0.6120  0.4368
 1913TIP3   OH2 5702   0.359   1.232   2.054 -0.3507  0.0844  0.5140
 1913TIP3    H1 5703   0.408   1.310   2.027  0.9975 -0.8712  0.0737
 1913TIP3    H2 5704   0.381   1.220   2.146 -1.0750  0.5638  0.7634
 1914TIP3   OH2 5705   3.422   1.085   2.727 -0.3968 -0.4155 -0.7067
 1914TIP3    H1 5706   3.495   1.024   2.719 -0.9037 -1.1350 -0.0119
 1914TIP3    H2 5707   3.364   1.045   2.792 -1.6503 -0.0895 -1.5998
 1915TIP3   OH2 5708   3.736   0.888   5.177 -0.2564  0.0395 -0.2738
 1915TIP3    H1 5709   3.817   0.852   5.213  0.0309 -0.2498 -1.1804
 1915TIP3    H2 5710   3.670   0.871   5.244  0.2313 -0.6077  0.0506
 1916TIP3   OH2 5711   4.232   3.150   4.789  0.3393 -0.5222  0.0784
 1916TIP3    H1 5712   4.238   3.241   4.820 -3.6906 -0.1059  0.2170
 1916TIP3    H2 5713   4.231   3.158   4.694 -0.9841 -0.2334  0.0910
 1917TIP3   OH2 5714   3.318   1.483   3.634 -0.2630 -1.0347 -0.3774
 1917TIP3    H1 5715   3.382   1.458   3.702 -1.3497  0.0628  1.1104
 1917TIP3    H2 5716   3.364   1.468   3.552  0.9587 -2.8570  0.5648
 1918TIP3   OH2 5717   4.255   5.114   4.116 -0.5287  0.4982 -0.4754
 1918TIP3    H1 5718   4.281   5.173   4.046 -1.7639 -1.0043 -2.2865
 1918TIP3    H2 5719   4.160   5.116   4.116 -0.5711 -0.2143  0.5715
 1919TIP3   OH2 5720   4.265   1.278   2.744 -0.3378  0.0584  0.1409
 1919TIP3    H1 5721   4.270   1.319   2.830 -0.3540 -0.1742  0.2558
 1919TIP3    H2 5722   4.187   1.315   2.703 -0.3750  0.1108  0.2600
 1920TIP3   OH2 5723   6.271   6.479   2.652 -0.6386 -0.5268  0.6948
 1920TIP3    H1 5724   6.303   6.418   2.719  1.4839  1.5718  1.7449
 1920TIP3    H2 5725   6.218   6.542   2.699 -0.8318 -0.1916  0.0407
 1921TIP3   OH2 5726   5.663   3.371   0.821  0.8131  1.0593  0.3299
 1921TIP3    H1 5727   5.642   3.293   0.873 -0.3527  0.8020 -0.4826
 1921TIP3    H2 5728   5.579   3.399   0.786  1.6805  0.3627 -2.6155
 1922TIP3   OH2 5729   4.283   2.094   5.823 -0.0109 -0.5725  0.7343
 1922TIP3    H1 5730   4.210   2.145   5.857 -0.7301 -1.8858  1.2503
 1922TIP3    H2 5731   4.358   2.119   5.877 -0.3335 -0.0190  0.9321
 1923TIP3   OH2 5732   5.162   3.276   1.813  0.5435  0.0023 -0.6684
 1923TIP3    H1 5733   5.173   3.314   1.726 -1.4580  0.3133 -0.8253
 1923TIP3    H2 5734   5.154   3.182   1.797 -0.2985  0.1044 -0.8829
 1924TIP3   OH2 5735   0.966   3.093   4.883  0.1152 -0.2723  0.1793
 1924TIP3    H1 5736   0.923   3.151   4.946  0.3126  0.6647 -0.5191
 1924TIP3    H2 5737   1.031   3.045   4.934 -0.3861 -0.2340  0.8616
 1925TIP3   OH2 5738   3.602   5.903   3.037  0.7731 -1.1335  0.2399
 1925TIP3    H1 5739   3.620   5.819   2.995 -0.7977 -0.5235 -1.8005
 1925TIP3    H2 5740   3.659   5.965   2.992 -0.1071 -0.6555 -0.2316
 1926TIP3   OH2 5741   0.217   4.388   2.178  0.6525  0.2075 -0.0253
 1926TIP3    H1 5742   0.242   4.417   2.266  1.4400  0.6941 -0.3942
 1926TIP3    H2 5743   0.263   4.305   2.167  2.8265  1.4572 -0.9834
 1927TIP3   OH2 5744   6.880   3.012   0.507  0.9092 -0.1654 -0.1656
 1927TIP3    H1 5745   6.905   3.104   0.504  0.4789 -0.0579 -0.7160
 1927TIP3    H2 5746   6.913   2.980   0.591  1.4722  0.3692 -0.1801
 1928TIP3   OH2 5747   6.260   1.551   1.721 -0.5461 -0.2442  0.6784
 1928TIP3    H1 5748   6.241   1.645   1.717 -0.3458 -0.1255  1.9654
 1928TIP3    H2 5749   6.249   1.520   1.631 -1.5289  0.8378  0.3998
 1929TIP3   OH2 5750   2.223   4.388   4.628 -0.3258 -0.0502  0.1883
 1929TIP3    H1 5751   2.226   4.365   4.721 -0.8765 -1.4477 -0.1026
 1929TIP3    H2 5752   2.313   4.411   4.606 -0.3929  1.4959  1.3223
 1930TIP3   OH2 5753   0.220   1.385   4.901  0.1040  0.1424  0.5242
 1930TIP3    H1 5754   0.191   1.310   4.849 -0.5902  0.9043 -0.2393
 1930TIP3    H2 5755   0.225   1.457   4.837  0.3536  0.8340  1.3073
 1931TIP3   OH2 5756   3.895   2.917   2.002 -0.1155  0.2513 -0.4629
 1931TIP3    H1 5757   3.920   2.846   2.060 -0.1985  1.1694  0.7587
 1931TIP3    H2 5758   3.815   2.886   1.959 -0.1806 -0.3719  0.0888
 1932TIP3   OH2 5759   2.759   5.878   1.698 -0.5409  0.5776  0.4492
 1932TIP3    H1 5760   2.774   5.926   1.780 -0.8722  0.8350  0.3622
 1932TIP3    H2 5761   2.683   5.921   1.659  0.2035  1.0716 -0.4753
 1933TIP3   OH2 5762   4.642   5.410   1.414  0.0678  0.6245 -0.3213
 1933TIP3    H1 5763   4.567   5.469   1.407  0.0911  0.4578 -2.4767
 1933TIP3    H2 5764   4.621   5.354   1.489 -2.2418  0.2419 -1.1597
 1934TIP3   OH2 5765   0.947   1.327   1.938  0.7150  0.4777  0.2009
 1934TIP3    H1 5766   1.007   1.393   1.904  0.6068  0.5755  0.1976
 1934TIP3    H2 5767   0.875   1.378   1.976 -0.4202  0.3743 -1.6874
 1935TIP3   OH2 5768   2.669   3.811   4.317 -0.6271  0.5369  0.0622
 1935TIP3    H1 5769   2.765   3.809   4.312 -0.5955  2.0369 -0.4865
 1935TIP3    H2 5770   2.649   3.802   4.410  0.0302  0.2040  0.1799
 1936TIP3   OH2 5771   6.735   5.587   3.317 -0.1430 -0.4245 -0.1534
 1936TIP3    H1 5772   6.821   5.548   3.334 -0.0260  0.2289  0.8332
 1936TIP3    H2 5773   6.722   5.574   3.223  1.5840  0.5040 -0.5812
 1937TIP3   OH2 5774   3.136   1.505   4.267 -0.3998  0.2640 -0.3479
 1937TIP3    H1 5775   3.086   1.560   4.327 -0.4582 -2.1191  1.9995
 1937TIP3    H2 5776   3.219   1.552   4.254 -0.0842  0.5650  2.2532
 1938TIP3   OH2 5777   1.695   6.632   0.218 -0.1427  0.5319 -0.2364
 1938TIP3    H1 5778   1.692   6.614   0.312  1.3070 -0.1964 -0.2968
 1938TIP3    H2 5779   1.604   6.637   0.192 -0.6073 -1.1307  0.8816
 1939TIP3   OH2 5780   1.865   0.104   0.559  0.3800 -0.7118  0.1036
 1939TIP3    H1 5781   1.810   0.060   0.494  0.9348 -0.8816 -0.2645
 1939TIP3    H2 5782   1.900   0.033   0.613 -1.7656 -0.4231  1.9800
 1940TIP3   OH2 5783   6.576   5.180   3.342  0.5045  0.1282  0.2375
 1940TIP3    H1 5784   6.561   5.258   3.396 -0.7199  0.2246 -0.2166
 1940TIP3    H2 5785   6.489   5.141   3.332  1.0894 -1.3065  0.4532
 1941TIP3   OH2 5786  -0.007   5.877   0.770  0.6332  0.3133 -0.5056
 1941TIP3    H1 5787   0.073   5.897   0.721  0.9384  1.1107  0.2861
 1941TIP3    H2 5788  -0.033   5.960   0.809 -0.8875  0.1858 -1.1576
 1942TIP3   OH2 5789   1.657   5.587   4.337 -0.3373 -0.0125  0.3045
 1942TIP3    H1 5790   1.577   5.568   4.287 -0.1582 -1.0112  0.3716
 1942TIP3    H2 5791   1.690   5.669   4.300 -1.1669  0.1910 -0.0036
 1943TIP3   OH2 5792   1.126   6.537   4.801 -0.0497 -0.0580 -0.0182
 1943TIP3    H1 5793   1.207   6.486   4.804  0.6233  0.9802  0.0894
 1943TIP3    H2 5794   1.097   6.540   4.892 -1.2589 -1.9933 -0.2760
 1944TIP3   OH2 5795   5.155   3.039   0.224 -0.0204  0.4629  0.3115
 1944TIP3    H1 5796   5.077   3.065   0.272 -0.8314 -0.0067 -0.7141
 1944TIP3    H2 5797   5.217   3.010   0.291 -2.0444 -2.7251  1.0289
 1945TIP3   OH2 5798   1.163   2.837   4.334  0.2241 -0.0264 -0.1565
 1945TIP3    H1 5799   1.167   2.885   4.417  1.5542  0.2020 -0.3324
 1945TIP3    H2 5800   1.082   2.787   4.340 -0.7369  1.5038  0.4426
 1946TIP3   OH2 5801   3.000   1.844   2.709 -0.3092 -0.0841  0.3946
 1946TIP3    H1 5802   3.026   1.753   2.723  1.8803  0.3627 -0.3884
 1946TIP3    H2 5803   2.967   1.873   2.794 -0.0727 -1.3159  0.9310
 1947TIP3   OH2 5804   2.860   0.700   4.945 -0.0460  0.0041  0.0410
 1947TIP3    H1 5805   2.889   0.732   4.859  0.0646  0.1987  0.1503
 1947TIP3    H2 5806   2.826   0.778   4.989 -1.3822 -0.3255 -0.3359
 1948TIP3   OH2 5807   3.840   6.288   1.556 -0.1271 -0.6533 -0.0730
 1948TIP3    H1 5808   3.763   6.232   1.558 -0.1464 -0.7041 -1.3928
 1948TIP3    H2 5809   3.816   6.360   1.497  0.7153 -0.4927 -0.2328
 1949TIP3   OH2 5810   4.018   1.137   2.074  0.0382  0.1493 -0.0537
 1949TIP3    H1 5811   4.074   1.149   2.151  1.7614 -0.8086 -1.0823
 1949TIP3    H2 5812   3.952   1.206   2.081  0.2877  0.2434  2.1284
 1950TIP3   OH2 5813   0.908   3.224   3.264 -0.1129 -0.3946 -0.2498
 1950TIP3    H1 5814   0.936   3.311   3.292 -0.2061 -0.3918 -0.1622
 1950TIP3    H2 5815   0.986   3.183   3.227 -0.1853 -0.0843 -0.7586
 1951TIP3   OH2 5816   6.308   6.805   1.541  0.0241  0.2105  0.7208
 1951TIP3    H1 5817   6.284   6.850   1.460  0.9025 -0.9116 -0.1877
 1951TIP3    H2 5818   6.395   6.770   1.525 -0.3659 -1.2654  1.6226
 1952TIP3   OH2 5819   1.282   3.671   5.783  0.2925  0.0760 -0.1370
 1952TIP3    H1 5820   1.315   3.640   5.867 -0.8931 -3.5314 -0.8358
 1952TIP3    H2 5821   1.356   3.660   5.723  0.0814 -0.8462 -0.2416
 1953TIP3   OH2 5822   0.300   3.454   5.589  0.1363 -0.5820  0.3769
 1953TIP3    H1 5823   0.235   3.459   5.518 -0.5790  1.3056  1.1025
 1953TIP3    H2 5824   0.384   3.442   5.544  0.0537  3.0503 -1.0428
 1954TIP3   OH2 5825   1.032   0.808   0.008  0.3563  0.3164 -0.0455
 1954TIP3    H1 5826   1.104   0.854  -0.034  0.5109 -1.2493 -1.5851
 1954TIP3    H2 5827   1.075   0.739   0.060 -0.0029 -0.2579 -0.5081
 1955TIP3   OH2 5828   1.722   5.523   3.965  0.2935  0.3643  0.6890
 1955TIP3    H1 5829   1.780   5.580   4.016 -0.3389 -0.4280  2.3958
 1955TIP3    H2 5830   1.737   5.436   4.002  0.5117 -0.4365 -1.1927
 1956TIP3   OH2 5831   3.085   3.884   3.866 -0.7141  0.2091  0.2456
 1956TIP3    H1 5832   3.167   3.909   3.823  0.0999 -1.5726  0.6819
 1956TIP3    H2 5833   3.030   3.852   3.794  0.2188 -1.6741  0.3186
 1957TIP3   OH2 5834   4.044   1.617   3.968 -0.0921 -0.2193 -0.7519
 1957TIP3    H1 5835   4.136   1.624   3.944  0.1968 -0.9009  0.0872
 1957TIP3    H2 5836   3.996   1.650   3.892  0.8170 -0.6827 -1.5447
 1958TIP3   OH2 5837   6.984   6.591   3.777  0.0486  0.0667  0.3634
 1958TIP3    H1 5838   7.063   6.565   3.825 -1.1307 -0.7328  1.9529
 1958TIP3    H2 5839   6.941   6.508   3.756 -0.2745  0.4879 -0.7250
 1959TIP3   OH2 5840   1.771   1.487   1.631  0.4583  0.7432  0.0140
 1959TIP3    H1 5841   1.734   1.560   1.580  0.8690  1.0669  0.1736
 1959TIP3    H2 5842   1.804   1.528   1.711 -1.2694  0.0674  1.1248
 1960TIP3   OH2 5843   2.714   4.486   1.319 -0.3472  0.5558 -0.1752
 1960TIP3    H1 5844   2.619   4.492   1.307 -0.3703 -0.1871 -0.4151
 1960TIP3    H2 5845   2.725   4.481   1.414 -0.4094  2.5822 -0.0238
 1961TIP3   OH2 5846   6.319   2.080   0.902 -0.1089  0.3339 -0.3682
 1961TIP3    H1 5847   6.379   2.112   0.835 -0.2126 -1.1607 -1.2373
 1961TIP3    H2 5848   6.237   2.128   0.885  0.5583  1.7556  0.2836
 1962TIP3   OH2 5849   1.380   4.940   0.454  0.0278 -0.4329  0.6271
 1962TIP3    H1 5850   1.375   4.957   0.548 -0.0999 -1.9052  0.9109
 1962TIP3    H2 5851   1.452   4.996   0.424  0.8113 -0.7652  1.8083
 1963TIP3   OH2 5852   4.026   5.196   3.046  0.4523  0.5588  0.1354
 1963TIP3    H1 5853   4.025   5.255   2.971  0.0274 -2.7229 -2.6853
 1963TIP3    H2 5854   4.111   5.152   3.041 -1.0813 -2.6006 -1.0959
 1964TIP3   OH2 5855   5.335   5.240   5.665 -0.2695  0.7166  0.1067
 1964TIP3    H1 5856   5.418   5.201   5.639  0.1455  1.4462  0.3099
 1964TIP3    H2 5857   5.340   5.331   5.635 -0.6313  1.0065  0.8896
 1965TIP3   OH2 5858   6.033   4.104   2.837 -0.8312  0.0171 -0.3504
 1965TIP3    H1 5859   6.032   4.189   2.794 -0.7903  0.0547 -0.2776
 1965TIP3    H2 5860   5.971   4.112   2.909 -0.6846  0.0470 -0.2273
 1966TIP3   OH2 5861   5.800   1.178   4.092 -0.4612 -0.0275 -0.6028
 1966TIP3    H1 5862   5.777   1.214   4.007  0.3614 -0.1044 -0.8703
 1966TIP3    H2 5863   5.884   1.134   4.078 -0.8414 -1.0019 -0.0052
 1967TIP3   OH2 5864   0.753   1.377   4.724  0.1040  0.6005 -0.1845
 1967TIP3    H1 5865   0.843   1.370   4.754  0.0771 -0.9128 -0.3535
 1967TIP3    H2 5866   0.759   1.408   4.634  0.6068 -1.3017 -0.8538
 1968TIP3   OH2 5867   3.868   5.116   1.928  0.2965  0.7075  0.3519
 1968TIP3    H1 5868   3.839   5.088   2.015  1.5851 -0.6627  0.3891
 1968TIP3    H2 5869   3.921   5.194   1.944  0.9654  0.1602  0.8891
 1969TIP3   OH2 5870   3.815   6.747   4.609  0.2384  0.3587 -0.5618
 1969TIP3    H1 5871   3.832   6.683   4.539  2.4552 -1.1402  1.1956
 1969TIP3    H2 5872   3.848   6.830   4.574 -1.0360  0.2239 -2.2141
 1970TIP3   OH2 5873   6.715   5.592   4.553  0.0850  0.2617  0.0420
 1970TIP3    H1 5874   6.792   5.598   4.610  0.4906 -1.8065 -0.2285
 1970TIP3    H2 5875   6.644   5.564   4.611 -0.1634  0.8342  0.0255
 1971TIP3   OH2 5876   6.070   4.790   4.320  0.1279  0.6504 -0.1781
 1971TIP3    H1 5877   6.041   4.866   4.271 -0.5531 -0.7613 -2.1143
 1971TIP3    H2 5878   6.002   4.776   4.386 -0.4316  0.9381 -0.6839
 1972TIP3   OH2 5879   0.705   5.927   3.636 -0.1322 -0.1336 -0.2742
 1972TIP3    H1 5880   0.692   5.924   3.541  0.5159  0.9225 -0.4138
 1972TIP3    H2 5881   0.680   6.016   3.661 -2.1922 -0.9628  0.8671
 1973TIP3   OH2 5882   1.401   1.569   1.733 -0.3614 -0.2232  0.2849
 1973TIP3    H1 5883   1.482   1.618   1.727  0.1296 -0.9303  0.9131
 1973TIP3    H2 5884   1.336   1.623   1.687  0.2874  0.7083  0.4365
 1974TIP3   OH2 5885   4.004   6.582   1.492  0.2383  0.2937  0.0266
 1974TIP3    H1 5886   3.935   6.561   1.429 -1.3308  2.0387  1.0805
 1974TIP3    H2 5887   4.083   6.591   1.438 -0.2783 -1.7606 -1.2015
 1975TIP3   OH2 5888   2.738   5.655   0.106 -0.0022  0.0800 -0.3367
 1975TIP3    H1 5889   2.804   5.609   0.055  1.0366  0.7617  0.3477
 1975TIP3    H2 5890   2.711   5.728   0.050  1.7193  1.3029  0.3193
 1976TIP3   OH2 5891   0.095   1.040   0.031  0.2631 -0.1499  0.1217
 1976TIP3    H1 5892   0.163   0.985   0.069  0.0598 -0.2888  0.2901
 1976TIP3    H2 5893   0.128   1.130   0.040  1.6930 -0.3412 -2.3045
 1977TIP3   OH2 5894   2.059   4.314   3.118  1.1320 -0.6247 -0.9971
 1977TIP3    H1 5895   2.038   4.273   3.202  1.8897 -1.4909 -1.2147
 1977TIP3    H2 5896   1.980   4.363   3.095  0.7807 -0.6729  0.0336
 1978TIP3   OH2 5897   6.639   3.373   0.276 -0.5019 -0.0070 -0.6040
 1978TIP3    H1 5898   6.687   3.298   0.313  0.3799  0.6158 -0.4417
 1978TIP3    H2 5899   6.587   3.336   0.205 -0.8711 -0.9389  0.1278
 1979TIP3   OH2 5900   2.871   1.168   5.350 -0.1459 -0.6222  0.2363
 1979TIP3    H1 5901   2.946   1.160   5.291 -0.4525 -0.2973 -0.2035
 1979TIP3    H2 5902   2.840   1.258   5.337 -0.0015 -0.4304  1.1537
 1980TIP3   OH2 5903   1.813   2.961   5.213  0.2196  0.2600  0.1209
 1980TIP3    H1 5904   1.879   2.978   5.280 -0.5807  0.6803  0.8236
 1980TIP3    H2 5905   1.733   3.002   5.246 -0.9466 -1.9666  0.3107
 1981TIP3   OH2 5906   4.017   2.883   5.053  0.2884  0.1951  0.2362
 1981TIP3    H1 5907   3.980   2.967   5.027 -0.4036 -0.1700  0.0090
 1981TIP3    H2 5908   3.947   2.820   5.037  0.8617 -0.4525  0.2220
 1982TIP3   OH2 5909   4.274   1.733   0.464  0.0978  0.1524  0.1921
 1982TIP3    H1 5910   4.246   1.822   0.442 -2.0340 -0.5047  0.0363
 1982TIP3    H2 5911   4.366   1.730   0.438  0.1674  2.2365  0.0132
 1983TIP3   OH2 5912   6.705   3.446   5.488 -0.4421 -0.0217 -0.0749
 1983TIP3    H1 5913   6.782   3.456   5.432  0.4444 -1.0452  0.9053
 1983TIP3    H2 5914   6.667   3.534   5.492 -0.7014  0.0451 -2.4539
 1984TIP3   OH2 5915   1.219   1.972   4.616 -0.0689 -0.2709  0.3027
 1984TIP3    H1 5916   1.138   1.954   4.569 -0.0833  0.8198 -0.1122
 1984TIP3    H2 5917   1.271   1.893   4.603 -0.7717 -0.6913 -0.0525
 1985TIP3   OH2 5918   0.120   6.147   4.728  0.2342  0.1508 -0.0617
 1985TIP3    H1 5919   0.138   6.160   4.635 -1.3491 -0.8852 -0.5583
 1985TIP3    H2 5920   0.037   6.100   4.730  0.0961  0.3817  1.8971
 1986TIP3   OH2 5921   6.065   1.004   5.715  0.0092  0.4349 -0.1866
 1986TIP3    H1 5922   6.145   1.029   5.668 -1.2533  0.8460 -2.2530
 1986TIP3    H2 5923   6.028   0.933   5.662 -1.1756  0.4793  0.5510
 1987TIP3   OH2 5924   1.470   6.230   3.409  0.6242 -0.0481  0.9599
 1987TIP3    H1 5925   1.499   6.200   3.495 -0.9463 -1.0645  1.1659
 1987TIP3    H2 5926   1.507   6.166   3.348  0.3531 -0.2795  1.0387
 1988TIP3   OH2 5927   4.287   6.672   3.303  0.0465 -0.4070  0.8913
 1988TIP3    H1 5928   4.371   6.702   3.270 -0.5078 -0.6222 -0.8338
 1988TIP3    H2 5929   4.257   6.742   3.362 -0.4388  1.7211 -1.6873
 1989TIP3   OH2 5930   6.041   6.289   5.094 -0.5389  0.3795 -0.1085
 1989TIP3    H1 5931   6.034   6.384   5.104 -0.8038  0.1873  2.0066
 1989TIP3    H2 5932   6.069   6.276   5.004 -0.2570  2.4751 -0.3639
 1990TIP3   OH2 5933   0.284   4.962   3.426  0.1539  0.8809 -0.4068
 1990TIP3    H1 5934   0.207   4.927   3.470 -0.1584 -0.9932 -2.2411
 1990TIP3    H2 5935   0.342   4.989   3.497 -0.8495 -0.7221  1.1268
 1991TIP3   OH2 5936   0.391   5.854   0.685 -0.2554  0.1840 -0.0654
 1991TIP3    H1 5937   0.347   5.772   0.662 -1.7464  1.1018 -0.5970
 1991TIP3    H2 5938   0.380   5.910   0.608  0.2559  1.0825  0.4934
 1992TIP3   OH2 5939   3.193   3.662   4.223 -0.2482  0.2409 -0.2988
 1992TIP3    H1 5940   3.263   3.652   4.159 -1.1762 -0.4061 -1.2408
 1992TIP3    H2 5941   3.116   3.624   4.181 -0.5256 -1.8572  1.8570
 1993TIP3   OH2 5942   4.411   5.539   1.549  0.1413  0.1644 -0.1663
 1993TIP3    H1 5943   4.452   5.468   1.599  1.0568  0.3478 -0.6382
 1993TIP3    H2 5944   4.318   5.518   1.551  0.2495 -0.3000  0.8719
 1994TIP3   OH2 5945   2.406   1.209   0.364  0.4777  0.3265  0.2648
 1994TIP3    H1 5946   2.476   1.175   0.309  1.6258  2.8090  0.0465
 1994TIP3    H2 5947   2.337   1.234   0.302  1.3714  2.2069 -0.0485
 1995TIP3   OH2 5948   2.132   0.495   0.113  0.1636 -0.1039  0.4860
 1995TIP3    H1 5949   2.153   0.560   0.046 -0.8753 -0.9249 -0.6865
 1995TIP3    H2 5950   2.061   0.536   0.164 -0.5520 -0.3135 -0.3050
 1996TIP3   OH2 5951   5.394   2.576   1.060  0.4695 -0.1627 -0.0673
 1996TIP3    H1 5952   5.321   2.529   1.018  0.0884 -0.0250  0.4250
 1996TIP3    H2 5953   5.351   2.638   1.119  0.9705  0.6349 -0.5269
 1997TIP3   OH2 5954   2.551   5.660   0.554 -0.4008 -0.0756  0.0615
 1997TIP3    H1 5955   2.617   5.594   0.533  0.9520  0.6872  1.7033
 1997TIP3    H2 5956   2.479   5.611   0.592 -0.2385 -0.7845 -0.5181
 1998TIP3   OH2 5957   0.408   4.573   2.060  0.1497 -0.1716  0.5226
 1998TIP3    H1 5958   0.402   4.593   1.967  0.8954  2.0307  0.9032
 1998TIP3    H2 5959   0.328   4.524   2.079 -1.2531  1.4842 -0.7797
 1999TIP3   OH2 5960   1.154   2.018   4.909  0.6137  0.6091 -0.0095
 1999TIP3    H1 5961   1.149   2.031   4.814 -1.3129  1.6688  0.1911
 1999TIP3    H2 5962   1.107   2.092   4.946 -0.2666 -0.7337  1.7023
 2000TIP3   OH2 5963   2.691   1.500   3.689 -0.2959  0.1916 -0.0578
 2000TIP3    H1 5964   2.637   1.562   3.737 -0.8336  0.1751 -0.6252
 2000TIP3    H2 5965   2.662   1.507   3.598  1.0044  0.5459 -0.4721
 2001TIP3   OH2 5966   3.520   1.534   1.798 -0.1875  0.3003  0.2802
 2001TIP3    H1 5967   3.471   1.460   1.835 -0.7908  0.1741 -0.7515
 2001TIP3    H2 5968   3.569   1.569   1.873  1.5605 -2.2588  0.4428
 2002TIP3   OH2 5969   2.684   2.258   0.035 -0.1777 -0.4561 -0.2731
 2002TIP3    H1 5970   2.657   2.335  -0.014  0.3128 -0.6533 -0.8650
 2002TIP3    H2 5971   2.722   2.292   0.116  2.0586  0.0762 -1.4575
 2003TIP3   OH2 5972   0.142   2.246   4.522  0.0154 -0.5986  0.3232
 2003TIP3    H1 5973   0.092   2.307   4.467 -0.2721  0.5110  1.7595
 2003TIP3    H2 5974   0.233   2.272   4.510  0.1808 -1.7396 -1.2306
 2004TIP3   OH2 5975   6.707   2.877   4.301  0.4286 -0.1943  0.3776
 2004TIP3    H1 5976   6.744   2.802   4.346 -1.0642 -0.2251  1.5890
 2004TIP3    H2 5977   6.752   2.878   4.216  3.3850 -0.0760  1.8035
 2005TIP3   OH2 5978   0.509   6.456   4.959  0.3676  0.1172  1.0375
 2005TIP3    H1 5979   0.535   6.366   4.978  0.1357  0.1612  1.5630
 2005TIP3    H2 5980   0.426   6.468   5.004 -0.3297  0.1453 -0.2049
 2006TIP3   OH2 5981   1.101   6.070   4.279  0.1500 -0.0650  0.2864
 2006TIP3    H1 5982   1.119   6.158   4.312 -0.5365 -0.3233  1.3849
 2006TIP3    H2 5983   1.012   6.075   4.244 -0.0477 -0.4160  0.7266
 2007TIP3   OH2 5984   4.577   3.854   0.318 -0.1737 -0.6508  0.0536
 2007TIP3    H1 5985   4.524   3.933   0.327 -0.6891 -0.8751 -0.8562
 2007TIP3    H2 5986   4.576   3.814   0.405 -0.2975  0.1045  0.3990
 2008TIP3   OH2 5987   3.124   4.681   3.546  0.2406 -0.1328  0.1478
 2008TIP3    H1 5988   3.201   4.626   3.561  2.0383  2.7525  2.5906
 2008TIP3    H2 5989   3.126   4.746   3.616 -1.9326  2.8108 -2.2260
 2009TIP3   OH2 5990   4.141   1.636   3.320 -0.3366 -0.1489  0.0017
 2009TIP3    H1 5991   4.092   1.559   3.290 -0.9785 -0.1892  1.1035
 2009TIP3    H2 5992   4.077   1.686   3.370  0.3607  0.5829  0.1683
 2010TIP3   OH2 5993   3.550   6.181   3.715 -0.3601 -0.1873 -0.1627
 2010TIP3    H1 5994   3.466   6.224   3.708 -0.1037  0.8021  2.1599
 2010TIP3    H2 5995   3.596   6.205   3.634 -1.1970  1.7080 -0.1151
 2011TIP3   OH2 5996   0.420   2.644   4.231  0.4323  0.0305  0.0204
 2011TIP3    H1 5997   0.502   2.594   4.235 -0.0539 -0.7321  0.8640
 2011TIP3    H2 5998   0.448   2.733   4.211  1.7137  0.2778  2.5081
 2012TIP3   OH2 5999   1.221   2.058   1.052  0.2166  0.3022 -0.8044
 2012TIP3    H1 6000   1.164   2.135   1.048 -1.5790 -0.9626 -0.7851
 2012TIP3    H2 6001   1.287   2.073   0.985 -1.3555  0.9209 -2.2870
 2013TIP3   OH2 6002   6.155   3.028   1.611 -0.4372 -0.4180 -0.2432
 2013TIP3    H1 6003   6.170   3.086   1.536 -1.1303 -2.3185 -1.9593
 2013TIP3    H2 6004   6.085   3.070   1.660  1.3170  1.8372  0.4716
 2014TIP3   OH2 6005   3.588   2.346   0.268 -0.5293  0.4282  0.1838
 2014TIP3    H1 6006   3.672   2.334   0.312  0.3412  0.0381 -1.4866
 2014TIP3    H2 6007   3.529   2.378   0.336  0.4953 -0.9906  1.8158
 2015TIP3   OH2 6008   5.886   0.470   2.841 -0.7359  0.3634  0.1157
 2015TIP3    H1 6009   5.873   0.494   2.749 -0.4912  1.2166  0.2898
 2015TIP3    H2 6010   5.866   0.550   2.890 -1.6236 -0.2990  0.8689
 2016TIP3   OH2 6011   1.818   5.165   0.405  0.1538  0.6735  0.2501
 2016TIP3    H1 6012   1.775   5.208   0.479 -0.4587  0.7083 -0.1238
 2016TIP3    H2 6013   1.769   5.195   0.328 -0.0985 -0.4548 -0.0408
 2017TIP3   OH2 6014   6.439   3.623   1.866 -0.4239 -1.1137  0.2157
 2017TIP3    H1 6015   6.487   3.670   1.797  2.2620 -2.9510  0.6686
 2017TIP3    H2 6016   6.388   3.557   1.818 -1.7296  0.1800 -0.2174
 2018TIP3   OH2 6017   7.008   3.693   2.760  0.4170 -1.0991  0.1962
 2018TIP3    H1 6018   7.010   3.698   2.856  1.6736  1.0183  0.1221
 2018TIP3    H2 6019   7.099   3.705   2.733 -0.1753  0.3062 -1.3127
 2019TIP3   OH2 6020   5.927   3.022   4.708 -0.2318  0.0294 -0.0523
 2019TIP3    H1 6021   5.883   3.006   4.791 -1.3211 -2.6048 -1.0192
 2019TIP3    H2 6022   5.861   3.004   4.641  0.8417  1.2617 -1.5304
 2020TIP3   OH2 6023   0.681   1.549   3.023 -0.5625 -0.1680 -0.4478
 2020TIP3    H1 6024   0.640   1.523   3.105  0.1122  0.3116  0.0585
 2020TIP3    H2 6025   0.742   1.619   3.048 -1.2886  0.9073 -1.5356
 2021TIP3   OH2 6026   6.796   0.165   3.689 -0.2102 -0.5731  0.2464
 2021TIP3    H1 6027   6.816   0.116   3.609 -0.2593 -0.9381  0.4569
 2021TIP3    H2 6028   6.724   0.117   3.730 -0.8982  0.2068 -0.0194
 2022TIP3   OH2 6029   6.465   4.790   0.521 -0.5499  0.1721  0.3233
 2022TIP3    H1 6030   6.395   4.726   0.530  0.8425 -1.1668  2.9650
 2022TIP3    H2 6031   6.541   4.739   0.492 -0.0176  1.0944  0.0409
 2023TIP3   OH2 6032   5.046   2.108   4.536  0.5860  0.3838  0.1455
 2023TIP3    H1 6033   5.088   2.188   4.568 -0.7343  1.6272 -1.0668
 2023TIP3    H2 6034   5.033   2.054   4.615 -0.3225  2.2509  1.3631
 2024TIP3   OH2 6035   5.419   5.052   0.429 -0.0557 -0.5265  0.4257
 2024TIP3    H1 6036   5.406   4.964   0.394 -0.4236 -0.4709  0.4176
 2024TIP3    H2 6037   5.417   5.109   0.352  0.2948 -0.5190  0.4183
 2025TIP3   OH2 6038   1.650   3.013   4.543 -0.2554 -0.0398  0.6287
 2025TIP3    H1 6039   1.695   3.069   4.481 -1.8986  0.1625 -0.4413
 2025TIP3    H2 6040   1.620   3.072   4.612  0.6103 -0.0994  1.0754
 2026TIP3   OH2 6041   4.182   1.628   1.841  0.5020  0.6690  0.8189
 2026TIP3    H1 6042   4.161   1.575   1.764 -0.9112  1.0824  0.8933
 2026TIP3    H2 6043   4.209   1.713   1.806  1.3731  0.3798  0.7515
 2027TIP3   OH2 6044   5.271   6.686   0.292 -0.1005  0.1458 -0.2247
 2027TIP3    H1 6045   5.326   6.614   0.323  1.3089  0.8771 -0.9167
 2027TIP3    H2 6046   5.317   6.765   0.323 -1.0297  0.7707 -0.4155
 2028TIP3   OH2 6047   1.156   5.556   3.061  0.6184 -0.6369  0.3417
 2028TIP3    H1 6048   1.178   5.547   3.153  3.1119  2.1484  0.1643
 2028TIP3    H2 6049   1.095   5.630   3.058  0.5045 -0.7473 -0.2561
 2029TIP3   OH2 6050   1.471   3.466   5.112 -0.3394 -0.0615  0.1548
 2029TIP3    H1 6051   1.542   3.530   5.101 -0.0984 -0.4396 -0.5940
 2029TIP3    H2 6052   1.409   3.508   5.171  0.8304  0.0066  1.3735
 2030TIP3   OH2 6053   0.667   0.953   4.006  0.8504 -0.0941  0.1257
 2030TIP3    H1 6054   0.600   1.020   4.018  1.4686  0.5887 -0.1946
 2030TIP3    H2 6055   0.619   0.870   4.012 -0.0018  0.3821  0.0221
 2031TIP3   OH2 6056   3.916   3.995   4.168 -0.6367 -0.4655 -0.3311
 2031TIP3    H1 6057   3.943   3.920   4.116  0.6046 -0.7280  0.6204
 2031TIP3    H2 6058   3.930   3.967   4.259 -1.4949  0.4286  0.1007
 2032TIP3   OH2 6059   3.697   6.292   1.115 -0.7411 -0.4240  0.1572
 2032TIP3    H1 6060   3.655   6.219   1.070 -2.0130  0.9517 -1.0105
 2032TIP3    H2 6061   3.652   6.370   1.081  2.2999  1.1252 -0.6960
 2033TIP3   OH2 6062   0.635   3.192   2.347  0.0057 -0.4722  0.1876
 2033TIP3    H1 6063   0.689   3.270   2.333  0.1388 -0.7299 -0.8733
 2033TIP3    H2 6064   0.552   3.226   2.381 -0.0408  0.1753 -0.5379
 2034TIP3   OH2 6065   3.866   2.530   1.717  0.1819  0.1163  0.1391
 2034TIP3    H1 6066   3.872   2.486   1.632 -0.5353  2.6947 -1.3734
 2034TIP3    H2 6067   3.781   2.502   1.753  0.2871 -0.6547 -0.2031
 2035TIP3   OH2 6068   0.437   6.456   1.912  0.4126 -0.1186 -0.3051
 2035TIP3    H1 6069   0.439   6.488   1.822 -0.1094  0.2554 -0.1870
 2035TIP3    H2 6070   0.529   6.444   1.936  0.5318 -1.3116 -1.2759
 2036TIP3   OH2 6071   6.150   2.682   5.376  0.0991  0.3535  0.0409
 2036TIP3    H1 6072   6.064   2.661   5.342  0.3641  1.1197 -1.1478
 2036TIP3    H2 6073   6.205   2.692   5.299  1.4303 -0.7615  0.7865
 2037TIP3   OH2 6074   0.313   1.753   5.789  0.1018  0.3924  0.3939
 2037TIP3    H1 6075   0.403   1.783   5.775  0.2283  0.5586  1.5065
 2037TIP3    H2 6076   0.275   1.817   5.849 -1.0959  0.8859 -0.8275
 2038TIP3   OH2 6077   6.200   6.287   0.031  0.2940  0.2130  0.3337
 2038TIP3    H1 6078   6.185   6.242  -0.052  0.7999 -1.9304  1.3265
 2038TIP3    H2 6079   6.130   6.257   0.088  1.7815 -0.9885  1.6277
 2039TIP3   OH2 6080   3.434   4.834   5.794 -0.0340  0.0042  0.0593
 2039TIP3    H1 6081   3.437   4.834   5.699  1.3725 -1.0786  0.0644
 2039TIP3    H2 6082   3.524   4.854   5.821 -0.6888  1.6784  1.1964
 2040TIP3   OH2 6083   2.664   4.827   0.578 -0.3536  0.1882  0.1792
 2040TIP3    H1 6084   2.707   4.753   0.620 -0.7896 -0.5669 -0.6667
 2040TIP3    H2 6085   2.687   4.819   0.486 -1.5552  0.2798 -0.1528
 2041TIP3   OH2 6086   1.784   0.291   1.488  0.3739 -0.2635  0.1808
 2041TIP3    H1 6087   1.813   0.306   1.578  0.5219 -1.1545  0.2857
 2041TIP3    H2 6088   1.864   0.277   1.439  0.3227  0.6256 -0.1844
 2042TIP3   OH2 6089   1.021   0.844   0.861  0.5605  0.0943  1.1537
 2042TIP3    H1 6090   1.014   0.846   0.957  0.5387  3.1223  1.1719
 2042TIP3    H2 6091   1.115   0.847   0.844  0.5891 -1.0077  1.0404
 2043TIP3   OH2 6092   5.666   2.284   3.505  0.0160 -0.0901 -1.0396
 2043TIP3    H1 6093   5.736   2.218   3.506  1.2804  1.1852  0.2773
 2043TIP3    H2 6094   5.629   2.278   3.417 -0.2988 -2.8938 -0.8129
 2044TIP3   OH2 6095   2.225   1.528   4.492 -0.3219  0.3295 -0.1589
 2044TIP3    H1 6096   2.131   1.540   4.506  0.0001  3.4534 -0.0542
 2044TIP3    H2 6097   2.266   1.594   4.547  2.0819 -1.8235  0.8548
 2045TIP3   OH2 6098   0.235   1.896   1.325  0.0451 -0.4226  0.0418
 2045TIP3    H1 6099   0.324   1.923   1.302 -0.3497  0.8181 -0.0968
 2045TIP3    H2 6100   0.228   1.806   1.294  1.2893 -0.5691  0.1547
 2046TIP3   OH2 6101   6.902   0.210   5.313  0.4193  0.7494 -0.4699
 2046TIP3    H1 6102   6.827   0.245   5.361 -0.8183 -0.2080 -1.6137
 2046TIP3    H2 6103   6.898   0.253   5.228  1.5449  1.1266 -0.3491
 2047TIP3   OH2 6104   0.542   0.017   3.460 -0.2909  0.3911  0.0343
 2047TIP3    H1 6105   0.543  -0.033   3.541  1.0208 -0.7899 -0.6611
 2047TIP3    H2 6106   0.449   0.032   3.442 -0.6774 -0.8439  0.8524
 2048TIP3   OH2 6107   0.537   2.667   3.096 -0.6361  0.5250  0.3160
 2048TIP3    H1 6108   0.530   2.614   3.176 -1.6742  1.1268  0.6538
 2048TIP3    H2 6109   0.578   2.749   3.126  0.4483  0.1471 -0.0936
 2049TIP3   OH2 6110   5.792   3.437   1.727 -0.0423  0.0016 -0.4416
 2049TIP3    H1 6111   5.809   3.530   1.741  2.2552 -0.1447 -1.7602
 2049TIP3    H2 6112   5.745   3.432   1.644 -1.2192  0.0159  0.1996
 2050TIP3   OH2 6113   3.694   4.847   5.891  0.1426  0.2234  0.1968
 2050TIP3    H1 6114   3.778   4.875   5.928  0.1742  0.8395 -0.3406
 2050TIP3    H2 6115   3.713   4.760   5.854 -0.0814 -0.7942  2.2856
 2051TIP3   OH2 6116   4.139   3.508   1.573  0.3979 -0.9886  0.4291
 2051TIP3    H1 6117   4.168   3.425   1.611 -0.8962 -1.6428  0.0468
 2051TIP3    H2 6118   4.062   3.485   1.522  0.5771  0.3067 -0.4683
 2052TIP3   OH2 6119   4.336   0.230   1.264  0.0668 -0.2857  0.4595
 2052TIP3    H1 6120   4.276   0.163   1.297  0.1530 -0.8192 -0.4203
 2052TIP3    H2 6121   4.325   0.304   1.323  0.6781 -1.4033  2.0421
 2053TIP3   OH2 6122   1.713   1.330   2.791 -0.3080 -0.3913 -0.1512
 2053TIP3    H1 6123   1.801   1.340   2.826 -0.2659 -1.6348  0.1302
 2053TIP3    H2 6124   1.665   1.404   2.828  0.6531  0.4078 -0.4589
 2054TIP3   OH2 6125   2.673   4.062   2.760 -0.0633  0.0128  0.4168
 2054TIP3    H1 6126   2.728   4.140   2.752 -0.9976  0.6142 -0.4261
 2054TIP3    H2 6127   2.584   4.095   2.750 -0.4402 -1.2537 -0.6057
 2055TIP3   OH2 6128   2.784   3.310   5.030 -0.4776 -0.5496 -0.2022
 2055TIP3    H1 6129   2.729   3.385   5.007 -0.6957 -0.6429  0.0121
 2055TIP3    H2 6130   2.755   3.285   5.117  0.6021  0.0445  0.3536
 2056TIP3   OH2 6131   0.711   4.824   0.754  0.0518 -0.0525 -0.0880
 2056TIP3    H1 6132   0.753   4.744   0.722  0.8940  0.5297 -0.4703
 2056TIP3    H2 6133   0.647   4.793   0.817  0.8377 -0.9985  0.2812
 2057TIP3   OH2 6134   6.856   6.260   1.071 -0.3896 -0.0159 -0.2460
 2057TIP3    H1 6135   6.885   6.346   1.043  0.0947 -0.2083 -0.3604
 2057TIP3    H2 6136   6.798   6.229   1.002 -0.9456  0.4136  0.0265
 2058TIP3   OH2 6137   0.407   5.675   1.685 -0.6160 -0.0925  0.0449
 2058TIP3    H1 6138   0.466   5.732   1.734 -0.9052 -0.3921  0.7582
 2058TIP3    H2 6139   0.320   5.694   1.719 -0.7681 -0.6320 -0.0228
 2059TIP3   OH2 6140   4.691   2.372   0.154 -0.1558  0.4469 -0.4265
 2059TIP3    H1 6141   4.745   2.378   0.075 -0.0847  0.2706 -0.3898
 2059TIP3    H2 6142   4.606   2.410   0.128 -0.5116 -0.6642 -0.9173
 2060TIP3   OH2 6143   1.948   6.678   3.334  0.0656 -0.0596  0.0589
 2060TIP3    H1 6144   1.979   6.710   3.249  0.6514 -1.0515 -0.1197
 2060TIP3    H2 6145   1.897   6.600   3.313 -1.9469  1.0900  0.4232
 2061TIP3   OH2 6146   3.326   5.164   1.335  0.0067  0.2804  0.2411
 2061TIP3    H1 6147   3.283   5.236   1.288 -0.6302 -1.3193 -1.8008
 2061TIP3    H2 6148   3.406   5.147   1.285  1.2939  0.9459  1.9828
 2062TIP3   OH2 6149   3.942   4.108   3.881 -0.0583 -0.6092 -0.2198
 2062TIP3    H1 6150   3.931   4.088   3.973 -0.3330  0.0666 -0.1021
 2062TIP3    H2 6151   4.036   4.124   3.871  0.0692 -1.3194 -0.1929
 2063TIP3   OH2 6152   4.693   6.560   1.627  0.2074 -0.8444 -0.1215
 2063TIP3    H1 6153   4.616   6.568   1.684  1.3138 -0.3630  1.3454
 2063TIP3    H2 6154   4.768   6.560   1.686  1.3167 -2.9227 -1.3849
 2064TIP3   OH2 6155   3.035   5.240   4.703 -0.4507 -0.4160 -0.2144
 2064TIP3    H1 6156   2.942   5.262   4.702 -0.0932  1.1977 -0.2394
 2064TIP3    H2 6157   3.080   5.321   4.681  0.9438 -1.3939 -1.1507
 2065TIP3   OH2 6158   7.223   5.354   3.110  0.2123  0.6451  0.3032
 2065TIP3    H1 6159   7.268   5.439   3.113  1.8808 -0.2286  0.8097
 2065TIP3    H2 6160   7.138   5.374   3.071  0.6899  2.5002  0.1181
 2066TIP3   OH2 6161   4.424   1.095   1.670 -0.4085  0.0399  0.6469
 2066TIP3    H1 6162   4.488   1.050   1.724 -0.6525  0.0512  0.9481
 2066TIP3    H2 6163   4.346   1.102   1.725 -2.1641 -3.6583 -1.0158
 2067TIP3   OH2 6164   6.529   3.109   0.153  0.4307 -0.5859 -0.0378
 2067TIP3    H1 6165   6.491   3.022   0.164 -0.8349 -0.1523 -0.8322
 2067TIP3    H2 6166   6.456   3.164   0.125  1.3648  0.5742 -0.2584
 2068TIP3   OH2 6167   0.143   3.098   3.850  0.2212  0.3886 -0.6317
 2068TIP3    H1 6168   0.099   3.013   3.854 -1.0580  1.0469  0.1475
 2068TIP3    H2 6169   0.210   3.088   3.783  0.8570 -1.5721  0.2214
 2069TIP3   OH2 6170   4.112   5.318   2.802 -0.1321  0.0293  0.3065
 2069TIP3    H1 6171   4.171   5.242   2.810 -2.5609 -2.0076  0.1179
 2069TIP3    H2 6172   4.144   5.365   2.725 -0.1561 -2.3656 -1.2590
 2070TIP3   OH2 6173   5.218   6.220   1.353 -0.5420  0.0456  0.3688
 2070TIP3    H1 6174   5.290   6.164   1.323 -0.1650  0.1547  1.0569
 2070TIP3    H2 6175   5.140   6.166   1.342 -0.3042 -0.2397  0.0510
 2071TIP3   OH2 6176   3.207   2.208   5.635 -0.4032 -0.4194 -0.3244
 2071TIP3    H1 6177   3.120   2.218   5.597  0.3213 -2.1385 -2.6158
 2071TIP3    H2 6178   3.202   2.128   5.686 -0.3427 -0.1113  0.1770
 2072TIP3   OH2 6179   0.736   4.875   2.677  0.5791 -0.1370  0.0891
 2072TIP3    H1 6180   0.737   4.949   2.737  2.2920  1.2253 -1.4865
 2072TIP3    H2 6181   0.656   4.887   2.625  0.9189  0.7551 -0.2592
 2073TIP3   OH2 6182   1.299   1.716   4.633 -0.0928  0.1345  0.1706
 2073TIP3    H1 6183   1.376   1.678   4.673 -0.3663  0.1561  0.7182
 2073TIP3    H2 6184   1.238   1.643   4.624 -0.0752  0.1521 -0.1044
 2074TIP3   OH2 6185   3.578   0.156   5.874  0.2353 -0.3639 -0.2053
 2074TIP3    H1 6186   3.504   0.109   5.913  0.7864 -0.5053  0.7009
 2074TIP3    H2 6187   3.548   0.179   5.786 -1.5523  1.1624  0.7381
 2075TIP3   OH2 6188   1.736   4.968   1.179  0.2384 -0.2971 -0.1769
 2075TIP3    H1 6189   1.727   4.886   1.228  0.8222 -0.8664 -0.9974
 2075TIP3    H2 6190   1.682   5.031   1.228  1.5043 -0.5983  1.7002
 2076TIP3   OH2 6191   5.021   5.093   3.219 -0.3606  0.5629 -0.2560
 2076TIP3    H1 6192   4.969   5.026   3.175 -1.0396  1.2315 -0.4966
 2076TIP3    H2 6193   5.111   5.060   3.215 -0.8062 -0.8732  0.6461
 2077TIP3   OH2 6194   3.526   2.591   2.165  0.7838 -0.7296 -0.1748
 2077TIP3    H1 6195   3.534   2.549   2.250 -2.0979  0.8439  1.0407
 2077TIP3    H2 6196   3.574   2.673   2.173 -1.3290  0.5008  0.8759
 2078TIP3   OH2 6197   4.627   0.222   4.175  0.2224  0.2279  0.1723
 2078TIP3    H1 6198   4.634   0.139   4.127 -0.1539  0.9115 -1.1144
 2078TIP3    H2 6199   4.596   0.197   4.262 -0.1104 -0.9623 -0.2736
 2079TIP3   OH2 6200   3.423   0.544   4.284 -0.1578 -0.2888  0.2865
 2079TIP3    H1 6201   3.447   0.627   4.244  0.9530 -1.2830 -1.2455
 2079TIP3    H2 6202   3.489   0.530   4.352  0.5610 -0.5719 -0.4449
 2080TIP3   OH2 6203   4.584   2.577   2.512  0.3130  0.2546  0.6287
 2080TIP3    H1 6204   4.609   2.663   2.480  1.2212 -0.9468 -2.1837
 2080TIP3    H2 6205   4.494   2.565   2.484  1.5555 -1.4106 -3.3899
 2081TIP3   OH2 6206   0.797   3.337   4.211  0.7198  0.2301  0.2850
 2081TIP3    H1 6207   0.863   3.393   4.170 -0.0991  1.0061 -0.0073
 2081TIP3    H2 6208   0.786   3.372   4.299  0.8180 -0.0039  0.3913
 2082TIP3   OH2 6209   3.333   0.618   2.404  0.3656 -0.1950  0.2133
 2082TIP3    H1 6210   3.426   0.632   2.422  0.1435  0.5326  0.8159
 2082TIP3    H2 6211   3.300   0.575   2.483  0.3216 -1.0774 -0.2700
 2083TIP3   OH2 6212   6.265  -0.018   3.703 -0.1864  0.1931  0.1595
 2083TIP3    H1 6213   6.274  -0.055   3.615 -0.0896  1.2750 -0.2990
 2083TIP3    H2 6214   6.254   0.076   3.688 -2.3033  0.1543  1.1867
 2084TIP3   OH2 6215   3.992   5.837   3.096  0.0015 -0.3164 -1.2317
 2084TIP3    H1 6216   3.928   5.908   3.089 -1.5055 -1.4199  0.5321
 2084TIP3    H2 6217   3.940   5.757   3.095  1.0485 -1.2272  2.0002
 2085TIP3   OH2 6218   4.086   5.675   1.029  0.2691 -0.2432  0.3334
 2085TIP3    H1 6219   4.045   5.625   0.959 -1.3001 -0.4858  1.3616
 2085TIP3    H2 6220   4.067   5.766   1.009  0.5922 -0.2516 -0.0139
 2086TIP3   OH2 6221   5.695   6.541   1.709 -0.0302  0.2695 -0.9356
 2086TIP3    H1 6222   5.668   6.633   1.702  0.6246  0.4696 -0.9153
 2086TIP3    H2 6223   5.768   6.542   1.770  0.2397 -0.2158 -1.2451
 2087TIP3   OH2 6224   5.663   5.373   5.822 -0.0137 -0.6528  0.6175
 2087TIP3    H1 6225   5.734   5.344   5.880  1.2326  0.0395 -0.5076
 2087TIP3    H2 6226   5.666   5.469   5.826 -1.6848 -0.6025  1.4568
 2088TIP3   OH2 6227   3.357   1.192   1.293 -0.0071 -0.1572 -0.0060
 2088TIP3    H1 6228   3.437   1.194   1.346  1.1864  2.4310 -1.7031
 2088TIP3    H2 6229   3.381   1.139   1.217  0.8085  2.0592 -1.3848
 2089TIP3   OH2 6230   6.558   2.822   3.809  0.1555 -0.1801 -0.0734
 2089TIP3    H1 6231   6.645   2.793   3.784  0.9068  2.2335 -0.5396
 2089TIP3    H2 6232   6.509   2.824   3.726  1.1904  3.0780 -0.7751
 2090TIP3   OH2 6233   5.501   1.085   5.051  0.4169  0.1268  0.3044
 2090TIP3    H1 6234   5.476   1.036   5.130 -1.7993 -1.0007 -0.9819
 2090TIP3    H2 6235   5.548   1.021   4.998 -0.0460  0.2035 -0.2087
 2091TIP3   OH2 6236   3.235   3.563   1.748  0.0650 -0.8079 -0.2513
 2091TIP3    H1 6237   3.291   3.499   1.704  0.6029 -0.7288  0.3109
 2091TIP3    H2 6238   3.164   3.511   1.786 -1.8132 -0.6740 -3.2130
 2092TIP3   OH2 6239   6.999   0.144   2.470  0.4014 -0.1593 -0.0181
 2092TIP3    H1 6240   6.983   0.178   2.382 -0.8435  0.4401  0.4223
 2092TIP3    H2 6241   6.964   0.055   2.468  0.4606 -0.1790 -0.1605
 2093TIP3   OH2 6242   0.869   1.599   0.053  0.1217 -0.6991 -0.0159
 2093TIP3    H1 6243   0.897   1.532  -0.010 -1.9078 -2.1949  0.5619
 2093TIP3    H2 6244   0.939   1.599   0.119  0.4775 -1.8035 -0.3572
 2094TIP3   OH2 6245   3.759   4.677   2.593 -0.0747 -0.3999 -0.0984
 2094TIP3    H1 6246   3.843   4.659   2.636 -0.8428 -0.6124  1.3626
 2094TIP3    H2 6247   3.719   4.745   2.647 -1.2969 -1.0329 -0.1774
 2095TIP3   OH2 6248   1.468   5.490   4.865 -0.9237 -0.2263  0.5911
 2095TIP3    H1 6249   1.479   5.506   4.771  1.0744  1.4427  1.0458
 2095TIP3    H2 6250   1.429   5.571   4.899 -1.5960 -0.8028  1.2276
 2096TIP3   OH2 6251   0.771   4.189   2.267  0.2592 -0.1325  0.7615
 2096TIP3    H1 6252   0.807   4.159   2.351 -0.1327  0.7372  1.2620
 2096TIP3    H2 6253   0.775   4.285   2.273  1.5100 -0.0460 -0.7937
 2097TIP3   OH2 6254   3.782   0.340   0.876  0.5363  0.1738 -0.3143
 2097TIP3    H1 6255   3.828   0.342   0.791  3.0565  0.2016  0.9587
 2097TIP3    H2 6256   3.769   0.432   0.897  1.5501  0.2281  0.1273
 2098TIP3   OH2 6257   4.312   3.345   1.844 -0.4478 -0.2881  0.8415
 2098TIP3    H1 6258   4.335   3.323   1.934  3.0173  1.4462  0.5308
 2098TIP3    H2 6259   4.346   3.434   1.831  0.0021 -0.7940 -2.4116
 2099TIP3   OH2 6260   1.472   0.405   4.220  0.3369 -0.0090  0.0510
 2099TIP3    H1 6261   1.474   0.314   4.247 -0.4802 -0.3665 -1.0357
 2099TIP3    H2 6262   1.562   0.425   4.194  0.4613 -0.5753  0.0432
 2100TIP3   OH2 6263   7.009   6.221   4.209 -0.1213 -0.6884 -0.3336
 2100TIP3    H1 6264   7.062   6.247   4.133 -1.0665 -0.1961 -0.8518
 2100TIP3    H2 6265   7.029   6.285   4.276  0.9947 -1.3376 -0.0310
 2101TIP3   OH2 6266   6.440   1.433   2.847  0.2519 -0.8707  0.4890
 2101TIP3    H1 6267   6.507   1.365   2.842  1.5387  0.3495  0.5257
 2101TIP3    H2 6268   6.371   1.402   2.789  0.3395 -2.6727  1.2556
 2102TIP3   OH2 6269   5.490   0.448   0.875 -0.5029  0.2967  0.0445
 2102TIP3    H1 6270   5.525   0.452   0.786 -0.4138 -2.3964 -0.1276
 2102TIP3    H2 6271   5.564   0.416   0.928 -1.1388 -0.1672  0.6767
 2103TIP3   OH2 6272   5.840   5.585   3.810 -0.1231  0.0954 -0.7778
 2103TIP3    H1 6273   5.935   5.592   3.812 -0.2156  1.4203  0.3033
 2103TIP3    H2 6274   5.815   5.566   3.900 -0.9066  0.4167 -0.9196
 2104TIP3   OH2 6275   5.595   6.522   4.762  0.1665  0.4134 -0.2647
 2104TIP3    H1 6276   5.569   6.472   4.840  3.9058 -1.2135  0.1571
 2104TIP3    H2 6277   5.645   6.596   4.797  2.7571 -0.8860 -0.9914
 2105TIP3   OH2 6278   4.382   1.646   3.899  0.5814 -0.2455  1.0898
 2105TIP3    H1 6279   4.413   1.558   3.921  0.2032 -0.2042  1.7846
 2105TIP3    H2 6280   4.438   1.673   3.826  1.0719 -0.8368  1.2424
 2106TIP3   OH2 6281   2.418   5.613   2.043 -0.5426  0.0195  0.0248
 2106TIP3    H1 6282   2.475   5.539   2.061 -0.3134  0.4442  1.1168
 2106TIP3    H2 6283   2.330   5.576   2.045 -0.4315 -0.2264  0.6021
 2107TIP3   OH2 6284   5.151   3.418   0.937  0.0922  0.1477 -0.3122
 2107TIP3    H1 6285   5.229   3.378   0.973 -1.5196 -2.0029  1.0464
 2107TIP3    H2 6286   5.152   3.394   0.844  0.3554 -1.0971 -0.0047
 2108TIP3   OH2 6287   5.050   1.280   0.775  0.3433  0.2992 -0.0610
 2108TIP3    H1 6288   4.988   1.312   0.708 -1.0078 -0.3343  0.8383
 2108TIP3    H2 6289   5.063   1.188   0.752  0.2198  0.1953  0.2853
 2109TIP3   OH2 6290   2.220   2.935   4.912 -0.3098 -0.5303 -0.4740
 2109TIP3    H1 6291   2.153   2.878   4.952  0.0754  0.1538  1.2165
 2109TIP3    H2 6292   2.300   2.882   4.914 -0.3757 -0.6390 -0.7029
 2110TIP3   OH2 6293   3.057   5.368   2.229 -0.0109  0.1245 -0.1985
 2110TIP3    H1 6294   2.979   5.371   2.174 -0.2295 -0.4867  0.0659
 2110TIP3    H2 6295   3.130   5.381   2.168 -0.1639 -1.8165 -0.8579
 2111TIP3   OH2 6296   4.529   4.138   5.165  0.2938  0.0849 -0.3792
 2111TIP3    H1 6297   4.465   4.097   5.108  1.0232 -2.6965  0.6629
 2111TIP3    H2 6298   4.477   4.175   5.237 -0.4574  2.0913 -1.8449
 2112TIP3   OH2 6299   4.194   3.032   5.692  0.4651  0.1562 -0.1025
 2112TIP3    H1 6300   4.216   3.037   5.599 -0.4752  0.9137 -0.3012
 2112TIP3    H2 6301   4.098   3.028   5.693  0.4893 -0.5366  0.8160
 2113TIP3   OH2 6302   3.091   4.643   2.805  0.0591  0.3078  0.1693
 2113TIP3    H1 6303   3.062   4.663   2.716 -0.4515 -0.1394  0.2314
 2113TIP3    H2 6304   3.161   4.580   2.794 -1.9343 -2.0620  0.1536
 2114TIP3   OH2 6305   4.679   1.541   1.973 -0.0687 -0.7716 -0.3650
 2114TIP3    H1 6306   4.625   1.470   2.007  0.2489 -0.3495  1.0480
 2114TIP3    H2 6307   4.616   1.610   1.950 -0.2537 -0.8951 -0.2274
 2115TIP3   OH2 6308   0.660   0.197   1.339  0.3209  0.5068  0.2836
 2115TIP3    H1 6309   0.633   0.109   1.363 -0.9040  1.3611  2.2796
 2115TIP3    H2 6310   0.701   0.233   1.418  1.7757  1.4041 -0.8031
 2116TIP3   OH2 6311   0.306   5.893   1.228  0.6828  0.1327 -0.6015
 2116TIP3    H1 6312   0.230   5.884   1.170 -1.2802 -2.4888  2.1028
 2116TIP3    H2 6313   0.374   5.839   1.187  1.0065  1.9694 -2.6965
 2117TIP3   OH2 6314   3.852   5.198   5.014  0.1242  0.3737  0.5500
 2117TIP3    H1 6315   3.801   5.204   5.095 -0.1272 -0.6011  0.4802
 2117TIP3    H2 6316   3.842   5.284   4.973  2.5088  1.8945  2.8337
 2118TIP3   OH2 6317   6.197   1.431   2.453 -0.0393  0.4508  0.8550
 2118TIP3    H1 6318   6.260   1.403   2.386  0.4115  0.8563  1.1025
 2118TIP3    H2 6319   6.225   1.385   2.532 -1.0990 -0.7226  0.5808
 2119TIP3   OH2 6320   0.153   2.350   2.783  0.5689  0.1180  0.0170
 2119TIP3    H1 6321   0.161   2.261   2.749 -0.5463  0.0182 -0.0135
 2119TIP3    H2 6322   0.240   2.371   2.816  0.4514 -1.6332  1.5897
 2120TIP3   OH2 6323   4.675   5.310   2.055  0.4159 -0.1679 -0.6987
 2120TIP3    H1 6324   4.751   5.276   2.101  1.3313  1.6068 -0.8231
 2120TIP3    H2 6325   4.634   5.370   2.118 -0.5735 -0.6790 -0.8313
 2121TIP3   OH2 6326   0.550   1.618   0.480  0.1637  0.0538 -0.5297
 2121TIP3    H1 6327   0.549   1.522   0.478  0.3051  0.0294  0.2347
 2121TIP3    H2 6328   0.638   1.641   0.450  1.1096 -0.1634  1.8579
 2122TIP3   OH2 6329   4.200   4.366   5.521 -0.3110 -0.1886  0.6629
 2122TIP3    H1 6330   4.135   4.384   5.589 -2.3732 -0.5410 -1.1366
 2122TIP3    H2 6331   4.231   4.453   5.495  0.5051 -0.0461  1.9847
 2123TIP3   OH2 6332   5.285   6.692   5.036 -0.1545 -0.5607  0.8856
 2123TIP3    H1 6333   5.348   6.763   5.036  0.2812 -0.9379  1.3010
 2123TIP3    H2 6334   5.201   6.734   5.020  0.3054 -0.1474 -0.5722
 2124TIP3   OH2 6335   3.894   5.945   1.244 -0.3972 -0.6410 -0.1927
 2124TIP3    H1 6336   3.940   5.941   1.161 -0.9498  0.4460 -0.5626
 2124TIP3    H2 6337   3.801   5.948   1.221 -0.6759 -2.2131  0.5276
 2125TIP3   OH2 6338   4.909   6.110   0.068 -0.2811 -0.1234  0.0996
 2125TIP3    H1 6339   4.889   6.077   0.156  0.0186 -0.8141 -0.0804
 2125TIP3    H2 6340   4.939   6.033   0.020 -1.3774  0.0510 -0.9091
 2126TIP3   OH2 6341   1.566   5.149   0.846  0.2375  0.0051  0.3067
 2126TIP3    H1 6342   1.594   5.200   0.770 -1.4459  1.2859  0.4764
 2126TIP3    H2 6343   1.593   5.201   0.921  1.5425 -1.0675  0.6301
 2127TIP3   OH2 6344   4.590   6.552   5.372 -0.8381  0.1373 -0.1822
 2127TIP3    H1 6345   4.635   6.483   5.323  1.3887  0.5547  1.1387
 2127TIP3    H2 6346   4.599   6.631   5.318 -1.9552 -0.2015 -0.9180
 2128TIP3   OH2 6347   7.074   3.898   3.311  0.4946 -0.4330 -0.7003
 2128TIP3    H1 6348   6.992   3.849   3.321  0.1235  0.2036 -0.5493
 2128TIP3    H2 6349   7.077   3.954   3.389  0.2113  0.7930 -1.5542
 2129TIP3   OH2 6350   6.910   6.194   5.786  0.1089 -0.0085 -0.3810
 2129TIP3    H1 6351   6.995   6.152   5.774  0.3501 -0.2781  1.7556
 2129TIP3    H2 6352   6.859   6.169   5.710  1.0850 -2.0642 -0.4209
 2130TIP3   OH2 6353   0.444   0.462   4.231 -0.2107 -0.8614  0.9192
 2130TIP3    H1 6354   0.527   0.481   4.187 -0.3070 -0.7696  0.7741
 2130TIP3    H2 6355   0.449   0.508   4.315 -0.5544  0.0482  0.4509
 2131TIP3   OH2 6356   2.619   0.581   3.433 -0.5667 -0.1166  0.2428
 2131TIP3    H1 6357   2.524   0.576   3.426 -0.5848 -1.3545  1.1548
 2131TIP3    H2 6358   2.639   0.673   3.416 -1.6157 -0.3831 -3.1586
 2132TIP3   OH2 6359   3.884   2.156   1.876  0.2381  0.1281 -0.8346
 2132TIP3    H1 6360   3.795   2.188   1.867  0.3154  0.1643 -1.5593
 2132TIP3    H2 6361   3.919   2.200   1.954 -0.0953  0.7637 -1.0405
 2133TIP3   OH2 6362   5.829   3.090   4.104  0.2476 -0.1119  0.1718
 2133TIP3    H1 6363   5.757   3.028   4.117  0.7760 -0.8489 -0.3140
 2133TIP3    H2 6364   5.870   3.098   4.190  0.0920 -0.3438  0.2687
 2134TIP3   OH2 6365   4.288   3.106   4.497 -0.0062  0.2222  0.3070
 2134TIP3    H1 6366   4.328   3.174   4.442 -0.9355  0.2602 -0.3432
 2134TIP3    H2 6367   4.362   3.063   4.538  0.6397  1.1728  0.1886
 2135TIP3   OH2 6368   0.687   3.639   2.824 -0.1421 -0.2675 -0.3842
 2135TIP3    H1 6369   0.732   3.717   2.858  0.1257 -0.4415 -0.3357
 2135TIP3    H2 6370   0.621   3.619   2.890  0.7880 -0.9814  0.3712
 2136TIP3   OH2 6371   0.154   0.169   1.378 -0.2219  0.1059 -0.0307
 2136TIP3    H1 6372   0.160   0.264   1.377 -0.0844  0.1068  0.5720
 2136TIP3    H2 6373   0.217   0.142   1.444 -1.8323 -0.2830  1.4001
 2137TIP3   OH2 6374   4.395   0.098   1.951 -0.2216  0.3605 -0.1355
 2137TIP3    H1 6375   4.366   0.076   2.040  0.8271 -1.2895 -0.1638
 2137TIP3    H2 6376   4.462   0.166   1.964 -0.4482  0.5055  0.2991
 2138TIP3   OH2 6377   6.343   4.884   0.304 -0.4747 -0.3293  0.5108
 2138TIP3    H1 6378   6.391   4.844   0.377  2.4473  1.3965 -0.3234
 2138TIP3    H2 6379   6.349   4.978   0.320 -2.4862  0.0019 -0.4059
 2139TIP3   OH2 6380   5.890   3.249   5.479  0.0322 -0.2837 -0.4006
 2139TIP3    H1 6381   5.895   3.222   5.388 -1.4673  1.4890 -1.0656
 2139TIP3    H2 6382   5.882   3.167   5.528  0.6914 -1.2572 -1.8517
 2140TIP3   OH2 6383   0.691   5.505   1.788 -0.3389  0.2135 -0.4110
 2140TIP3    H1 6384   0.660   5.544   1.870 -2.8640 -0.1675 -1.1034
 2140TIP3    H2 6385   0.701   5.580   1.729  2.1964  0.5822  0.3538
 2141TIP3   OH2 6386   6.390   1.683   2.776  0.1283  0.1705  0.4305
 2141TIP3    H1 6387   6.402   1.592   2.804  1.4447  0.3840  0.6212
 2141TIP3    H2 6388   6.356   1.728   2.854 -0.0820 -0.0661  0.4751
 2142TIP3   OH2 6389   1.562   2.101   0.735 -0.2540  0.2073  0.1642
 2142TIP3    H1 6390   1.548   2.038   0.806 -2.3375  1.1569  0.6569
 2142TIP3    H2 6391   1.478   2.105   0.689  0.5966  0.7703 -1.4325
 2143TIP3   OH2 6392   5.535   1.204   3.754 -0.5879 -0.0547  0.0448
 2143TIP3    H1 6393   5.461   1.175   3.701 -0.8523 -1.8689  1.3038
 2143TIP3    H2 6394   5.573   1.123   3.788  1.2866  0.8983  0.3683
 2144TIP3   OH2 6395   4.993   3.022   1.289 -0.7327 -0.3584  0.2176
 2144TIP3    H1 6396   4.990   3.030   1.194 -1.0637  1.0285  0.3227
 2144TIP3    H2 6397   4.921   2.963   1.311  0.2390 -1.8761 -0.4707
 2145TIP3   OH2 6398   3.435   0.081   1.318 -0.1097 -0.0976  0.3147
 2145TIP3    H1 6399   3.385   0.160   1.337  0.2414 -0.0397  1.0412
 2145TIP3    H2 6400   3.372   0.021   1.278 -0.9875 -0.3527  2.0096
 2146TIP3   OH2 6401   1.197   2.623   1.386 -0.7382  0.6533 -0.5267
 2146TIP3    H1 6402   1.112   2.593   1.418 -0.7220 -1.5307 -2.2375
 2146TIP3    H2 6403   1.177   2.668   1.304 -0.2743 -0.2550 -1.1674
 2147TIP3   OH2 6404   2.203   1.187   3.152  0.2255 -0.2287  1.0565
 2147TIP3    H1 6405   2.167   1.275   3.145 -0.4322 -0.6044 -0.7638
 2147TIP3    H2 6406   2.288   1.200   3.195  0.0491  1.2653  1.0129
 2148TIP3   OH2 6407   5.750   4.682   1.417  0.5363 -0.0054 -0.2301
 2148TIP3    H1 6408   5.677   4.740   1.397  1.2607  0.6305 -1.1369
 2148TIP3    H2 6409   5.803   4.682   1.337  2.1884  0.5334  0.8265
 2149TIP3   OH2 6410   4.290   5.160   2.456 -0.5750  0.0251  0.4883
 2149TIP3    H1 6411   4.251   5.247   2.461 -1.9451 -0.5067 -0.3558
 2149TIP3    H2 6412   4.357   5.168   2.387 -1.4575  0.1600 -0.3794
 2150TIP3   OH2 6413   4.765   6.100   0.836  0.1133  0.3811 -0.1766
 2150TIP3    H1 6414   4.851   6.096   0.879  0.4135  1.5838 -0.6146
 2150TIP3    H2 6415   4.707   6.049   0.893  0.7087  1.1183  1.1416
 2151TIP3   OH2 6416   0.244   1.181   3.065  0.1929  0.1299  0.2990
 2151TIP3    H1 6417   0.298   1.256   3.042  1.0075 -0.2061  1.0433
 2151TIP3    H2 6418   0.213   1.200   3.153  1.9221 -1.1857  1.2656
 2152TIP3   OH2 6419   5.989   3.257   2.501  0.5854 -0.1139 -0.1554
 2152TIP3    H1 6420   6.034   3.208   2.570  0.5973 -0.0100 -0.0896
 2152TIP3    H2 6421   5.946   3.329   2.546  0.1247 -0.3673 -0.1822
 2153TIP3   OH2 6422   5.675   6.034   2.790 -0.0110 -0.1983 -0.2611
 2153TIP3    H1 6423   5.656   5.941   2.803 -0.4490  0.0409  1.0105
 2153TIP3    H2 6424   5.594   6.071   2.754  0.2564 -0.3555 -1.0295
 2154TIP3   OH2 6425   2.413   5.298   5.441 -0.2314 -0.0411  0.6935
 2154TIP3    H1 6426   2.405   5.308   5.535  0.8575  0.2027  0.7698
 2154TIP3    H2 6427   2.444   5.384   5.410  0.1423 -0.3425  0.2128
 2155TIP3   OH2 6428   7.199   6.152   3.041 -0.4187 -0.2584  0.3029
 2155TIP3    H1 6429   7.119   6.168   3.092 -0.2597 -1.0925  0.8354
 2155TIP3    H2 6430   7.189   6.063   3.008 -1.0709  0.6510 -2.1774
 2156TIP3   OH2 6431   6.889   1.734   3.328  0.0172  0.0712 -0.3955
 2156TIP3    H1 6432   6.870   1.770   3.242  0.2800 -0.1652 -0.5547
 2156TIP3    H2 6433   6.985   1.738   3.335  0.0052 -0.0154 -0.1632
 2157TIP3   OH2 6434   6.428   3.676   0.153 -0.6810  0.3204  0.8926
 2157TIP3    H1 6435   6.337   3.694   0.177 -0.9206 -1.7358  1.7352
 2157TIP3    H2 6436   6.421   3.618   0.077 -0.1092 -0.1248  1.1698
 2158TIP3   OH2 6437   0.239   0.127   3.113 -0.2096 -0.3374  0.4021
 2158TIP3    H1 6438   0.240   0.094   3.024 -0.3794 -0.0613  0.2957
 2158TIP3    H2 6439   0.265   0.219   3.105 -0.1622 -0.3296  0.6430
 2159TIP3   OH2 6440   0.764   2.485   4.724 -0.4863  0.5392  0.2151
 2159TIP3    H1 6441   0.727   2.558   4.674 -0.3625  0.6913  0.3450
 2159TIP3    H2 6442   0.702   2.414   4.713 -0.8048  0.7866  0.4138
 2160TIP3   OH2 6443   2.819   3.414   3.335 -0.0179  0.1383 -0.4122
 2160TIP3    H1 6444   2.752   3.437   3.400 -1.1090 -0.3012 -1.3544
 2160TIP3    H2 6445   2.801   3.323   3.314  0.7858  0.0647 -0.8048
 2161TIP3   OH2 6446   5.114   1.432   0.323  0.2242  0.0150  0.3852
 2161TIP3    H1 6447   5.130   1.431   0.229  1.4184 -0.6060  0.5684
 2161TIP3    H2 6448   5.038   1.375   0.335 -1.9037  2.4499 -0.4569
 2162TIP3   OH2 6449   2.186   5.242   5.005 -0.0568 -0.3518  0.0556
 2162TIP3    H1 6450   2.114   5.291   4.965  0.1424  0.0040  0.1324
 2162TIP3    H2 6451   2.172   5.151   4.977  0.3534 -0.0349 -1.2194
 2163TIP3   OH2 6452   0.739   2.044   4.473  0.7734 -0.1236 -0.2022
 2163TIP3    H1 6453   0.666   2.048   4.411  0.4861  2.2148  0.2148
 2163TIP3    H2 6454   0.709   1.985   4.542  0.6706 -1.8875 -1.6754
 2164TIP3   OH2 6455   5.728   2.190   1.087 -0.8616  0.5245 -0.2862
 2164TIP3    H1 6456   5.803   2.245   1.111  0.1845 -1.1876  0.5800
 2164TIP3    H2 6457   5.675   2.245   1.029  1.2425  1.6781 -1.2255
 2165TIP3   OH2 6458   4.464   0.602   5.352 -0.1865  0.6071 -0.7839
 2165TIP3    H1 6459   4.406   0.660   5.302 -0.2312 -0.0735 -1.5444
 2165TIP3    H2 6460   4.511   0.660   5.411 -1.3761  1.2269 -0.4075
 2166TIP3   OH2 6461   4.042   1.158   1.165 -0.1890  0.2867 -0.6133
 2166TIP3    H1 6462   4.125   1.168   1.119  1.2817  1.0258  2.0226
 2166TIP3    H2 6463   4.051   1.078   1.215 -0.6782  0.8440  0.4012
 2167TIP3   OH2 6464   5.628   4.005   2.430  0.4972 -0.4569  0.0968
 2167TIP3    H1 6465   5.542   3.965   2.413  0.2605  0.6774 -1.6701
 2167TIP3    H2 6466   5.686   3.967   2.364  1.0474 -0.2728  0.4656
 2168TIP3   OH2 6467   5.799   4.586   3.758  0.5088 -0.3326  0.0903
 2168TIP3    H1 6468   5.865   4.607   3.824  0.9772  3.5555 -1.3149
 2168TIP3    H2 6469   5.848   4.561   3.680  0.3286  1.0861 -0.5112
 2169TIP3   OH2 6470   7.178   5.997   5.158  0.2711 -0.6257 -0.3643
 2169TIP3    H1 6471   7.226   5.973   5.237  1.1082 -1.2701 -1.0362
 2169TIP3    H2 6472   7.230   6.067   5.118 -1.3992  1.3921  0.8356
 2170TIP3   OH2 6473   3.761   1.733   1.476  0.0989 -0.1864  0.8775
 2170TIP3    H1 6474   3.697   1.764   1.411  0.6171 -1.6982 -0.3986
 2170TIP3    H2 6475   3.718   1.658   1.518  0.8666 -0.9862  0.2626
 2171TIP3   OH2 6476   2.005   0.980   2.738 -0.6754 -0.5230 -0.1368
 2171TIP3    H1 6477   2.078   1.004   2.795 -0.8053 -0.7966  0.1508
 2171TIP3    H2 6478   1.971   1.063   2.707  1.1558 -0.4128 -2.0946
 2172TIP3   OH2 6479   2.353   4.331   3.540  0.0430 -0.1881  0.0174
 2172TIP3    H1 6480   2.342   4.249   3.589 -1.3071 -0.5463 -0.8124
 2172TIP3    H2 6481   2.304   4.316   3.459  0.6676  1.0693 -0.6087
 2173TIP3   OH2 6482   4.650   4.891   3.861  0.0946 -0.3256 -0.1780
 2173TIP3    H1 6483   4.738   4.929   3.866  1.0549 -2.3400 -0.6269
 2173TIP3    H2 6484   4.615   4.899   3.949  1.0026 -0.0633  0.1674
 2174TIP3   OH2 6485   4.082   4.697   1.137 -0.6371 -0.5014 -0.2666
 2174TIP3    H1 6486   4.121   4.630   1.193 -0.3964 -1.0808 -1.0952
 2174TIP3    H2 6487   3.996   4.713   1.175  0.3667  0.7938  1.5963
 2175TIP3   OH2 6488   0.163   6.520   3.132 -0.2052  0.1157 -0.1285
 2175TIP3    H1 6489   0.235   6.576   3.101  0.6308 -0.3593  0.9188
 2175TIP3    H2 6490   0.199   6.471   3.205 -0.8095 -2.1021 -1.2217
 2176TIP3   OH2 6491   1.497   5.803   5.024 -0.8077  0.5819 -0.3571
 2176TIP3    H1 6492   1.482   5.740   5.095 -0.2487  0.5938 -0.2210
 2176TIP3    H2 6493   1.420   5.795   4.968 -0.8754 -0.0193 -0.1875
 2177TIP3   OH2 6494   0.187   0.963   5.806 -0.2112  0.2831 -0.1425
 2177TIP3    H1 6495   0.177   0.906   5.729 -0.8530  0.9080 -0.5352
 2177TIP3    H2 6496   0.282   0.966   5.820 -0.1239 -0.3415 -0.5206
 2178TIP3   OH2 6497   1.919  -0.014   4.798  0.1511 -0.6929  0.5594
 2178TIP3    H1 6498   2.002   0.003   4.753  0.7822 -1.5047  1.3699
 2178TIP3    H2 6499   1.858   0.049   4.760  0.4981 -1.6521 -1.8073
 2179TIP3   OH2 6500   6.378   4.578   4.848  0.5193 -0.4004 -0.0795
 2179TIP3    H1 6501   6.412   4.490   4.859 -1.7991 -1.2946  0.6034
 2179TIP3    H2 6502   6.429   4.632   4.907  1.2649 -1.4825  0.2901
 2180TIP3   OH2 6503   4.320   3.757   0.734  0.0406  0.3076  0.7577
 2180TIP3    H1 6504   4.310   3.852   0.745 -1.5073  0.0820  1.4915
 2180TIP3    H2 6505   4.324   3.722   0.823  0.3880 -0.3493  0.4934
 2181TIP3   OH2 6506   0.940   2.818   2.024  0.4587  0.2391  0.5334
 2181TIP3    H1 6507   0.847   2.839   2.014  0.4962  0.1206 -0.1471
 2181TIP3    H2 6508   0.983   2.903   2.031  0.2295  0.2742  1.5681
 2182TIP3   OH2 6509   2.823   6.571   4.199 -0.6200 -0.3579  0.4732
 2182TIP3    H1 6510   2.831   6.601   4.290 -0.0858 -0.7331  0.5582
 2182TIP3    H2 6511   2.732   6.589   4.176 -0.6377  0.1742  0.9271
 2183TIP3   OH2 6512   6.623   1.798   4.862  0.0319 -0.4085 -0.1288
 2183TIP3    H1 6513   6.571   1.760   4.932  0.1832 -0.6889 -0.1665
 2183TIP3    H2 6514   6.597   1.889   4.859 -1.1734 -0.7562 -0.7854
 2184TIP3   OH2 6515   2.035   0.549   2.165  0.5805 -0.3237 -0.0286
 2184TIP3    H1 6516   2.023   0.455   2.167 -0.8718 -0.1869 -0.9081
 2184TIP3    H2 6517   2.009   0.579   2.252 -0.4237 -0.5844 -0.2340
 2185TIP3   OH2 6518   5.452   0.946   4.790 -0.0993 -0.3918 -0.0241
 2185TIP3    H1 6519   5.422   1.018   4.735 -1.0565 -0.3691  0.5132
 2185TIP3    H2 6520   5.475   0.877   4.728  0.8421  0.3612 -0.5447
 2186TIP3   OH2 6521   6.858   2.207   3.910  0.5163  0.0033 -0.1882
 2186TIP3    H1 6522   6.830   2.121   3.880 -0.7442  0.5315 -0.5735
 2186TIP3    H2 6523   6.802   2.225   3.986 -0.1412  1.0137 -0.8858
 2187TIP3   OH2 6524   5.248   5.388   4.431  0.2549 -0.0079  0.0083
 2187TIP3    H1 6525   5.198   5.392   4.350 -1.2621 -0.2625  0.8848
 2187TIP3    H2 6526   5.333   5.351   4.406 -0.6497 -1.3454 -1.2586
 2188TIP3   OH2 6527   1.071   4.796   3.822  0.2985  0.0426 -0.2213
 2188TIP3    H1 6528   0.981   4.826   3.813  0.6638  0.6809 -2.2320
 2188TIP3    H2 6529   1.064   4.712   3.869 -1.3137  0.1439 -0.2397
 2189TIP3   OH2 6530   2.794   5.566   0.367  0.2141 -0.4515  0.2784
 2189TIP3    H1 6531   2.803   5.474   0.342  0.7913 -0.5692  0.8915
 2189TIP3    H2 6532   2.771   5.610   0.286 -0.1569 -1.1488 -0.0076
 2190TIP3   OH2 6533   5.393   6.617   3.247 -0.5918 -0.1634  0.7182
 2190TIP3    H1 6534   5.381   6.541   3.303 -1.2280 -0.1300  0.6344
 2190TIP3    H2 6535   5.410   6.690   3.307 -2.9158  0.2060  1.0012
 2191TIP3   OH2 6536   2.898   2.033   1.285 -0.6792 -0.2607 -0.5370
 2191TIP3    H1 6537   2.936   2.109   1.241 -0.1798  0.9649  1.8245
 2191TIP3    H2 6538   2.804   2.044   1.277 -0.6019  0.4224 -0.5083
 2192TIP3   OH2 6539   7.148   3.486   1.288 -0.0224 -0.5132 -0.0560
 2192TIP3    H1 6540   7.164   3.413   1.347 -0.2354 -2.3807 -2.1434
 2192TIP3    H2 6541   7.235   3.513   1.259  0.1116  0.7404  1.4208
 2193TIP3   OH2 6542   4.875   1.679   0.608  0.0794  0.0275  0.4066
 2193TIP3    H1 6543   4.900   1.594   0.571 -0.3591  0.4570 -0.9375
 2193TIP3    H2 6544   4.958   1.721   0.631  0.4707  0.2034 -1.1900
 2194TIP3   OH2 6545   2.028   2.753   1.449 -0.4230 -0.1733  0.0119
 2194TIP3    H1 6546   1.965   2.688   1.478  0.5430 -1.4702 -0.7116
 2194TIP3    H2 6547   2.074   2.712   1.376 -0.3800  1.6617 -1.0655
 2195TIP3   OH2 6548   3.506   2.480   3.835 -0.2984 -0.2015  0.1645
 2195TIP3    H1 6549   3.537   2.454   3.922  0.2398  1.7599  0.6164
 2195TIP3    H2 6550   3.440   2.415   3.812  1.6920 -2.5603  0.6843
 2196TIP3   OH2 6551   0.747   6.449   4.634  0.2520  0.2712 -0.0882
 2196TIP3    H1 6552   0.711   6.501   4.705  2.9000  1.8227  0.2609
 2196TIP3    H2 6553   0.675   6.392   4.607 -1.6898  1.5950  1.9234
 2197TIP3   OH2 6554   6.426   4.184   0.561 -0.7219 -0.2780  0.1555
 2197TIP3    H1 6555   6.372   4.123   0.612 -0.0954 -2.0688 -1.2144
 2197TIP3    H2 6556   6.515   4.150   0.570 -0.0374  1.5716  0.8808
 2198TIP3   OH2 6557   6.365   6.526   4.730 -0.8305 -0.2563  0.2275
 2198TIP3    H1 6558   6.287   6.518   4.784 -1.3456 -0.7730 -0.5733
 2198TIP3    H2 6559   6.333   6.563   4.648 -0.4944 -1.8217 -0.6474
 2199TIP3   OH2 6560   1.769   0.452   1.818  0.4109  0.1155 -0.1672
 2199TIP3    H1 6561   1.757   0.483   1.907  0.4961  1.6410 -0.6610
 2199TIP3    H2 6562   1.711   0.376   1.810 -0.9009  0.9983  0.6611
 2200TIP3   OH2 6563   1.260   4.669   1.767  0.3703  0.4868  0.1176
 2200TIP3    H1 6564   1.200   4.740   1.789  1.3850  0.7948  2.2650
 2200TIP3    H2 6565   1.339   4.713   1.736  0.8876  0.3174  1.1479
 2201TIP3   OH2 6566   5.376   5.037   3.113  0.0083 -0.1989 -0.6707
 2201TIP3    H1 6567   5.344   5.124   3.092 -2.2864 -0.7567  0.2751
 2201TIP3    H2 6568   5.428   5.048   3.192 -0.2691  0.3033 -0.5578
 2202TIP3   OH2 6569   4.188   2.980   5.225 -0.5666  0.2651 -0.0153
 2202TIP3    H1 6570   4.127   3.018   5.288 -0.1519  0.1966  0.4379
 2202TIP3    H2 6571   4.134   2.925   5.168 -1.1157  1.2752 -0.4767
 2203TIP3   OH2 6572   4.366   5.956   2.690  0.2375  0.6384  0.8174
 2203TIP3    H1 6573   4.314   5.893   2.740 -0.7501  0.7747 -0.0030
 2203TIP3    H2 6574   4.305   6.028   2.673  0.2214  0.1573 -1.4208
 2204TIP3   OH2 6575   2.632   6.456   2.513 -0.1767  0.2715 -0.1330
 2204TIP3    H1 6576   2.685   6.508   2.452  0.0279  1.4498  1.0226
 2204TIP3    H2 6577   2.666   6.367   2.503  0.6456  0.6444 -0.8837
 2205TIP3   OH2 6578   6.786   4.965   5.045  0.2338 -0.1980  0.8951
 2205TIP3    H1 6579   6.737   5.036   5.085 -2.2173 -0.3983 -1.4446
 2205TIP3    H2 6580   6.863   5.007   5.007 -1.0525  1.2327 -0.2457
 2206TIP3   OH2 6581   2.058   6.265   3.080 -0.3717  0.1718 -0.1269
 2206TIP3    H1 6582   2.096   6.318   3.150  2.9907  1.3559 -2.5635
 2206TIP3    H2 6583   2.068   6.175   3.110 -1.7716  0.6782  2.0686
 2207TIP3   OH2 6584   2.513   3.711   5.464 -0.4432  0.2481  0.4023
 2207TIP3    H1 6585   2.517   3.643   5.531  2.5245 -0.0508  0.0779
 2207TIP3    H2 6586   2.499   3.792   5.513 -0.5859 -0.2218  1.1557
 2208TIP3   OH2 6587   7.155   2.149   1.539 -0.3143 -0.2290 -0.0335
 2208TIP3    H1 6588   7.062   2.127   1.541 -0.8637  1.9196  0.1210
 2208TIP3    H2 6589   7.179   2.142   1.446 -1.0889  0.8319 -0.3380
 2209TIP3   OH2 6590   3.057   3.542   4.975 -0.0982 -0.8070  0.2721
 2209TIP3    H1 6591   3.109   3.512   4.901 -1.0858 -1.3126 -0.2204
 2209TIP3    H2 6592   2.971   3.561   4.939 -0.0838  0.7201  0.9442
 2210TIP3   OH2 6593   4.950   6.481   3.682  0.3575  0.2981  0.1545
 2210TIP3    H1 6594   5.030   6.490   3.630  0.4525  1.5537  0.4707
 2210TIP3    H2 6595   4.968   6.410   3.743  0.2842 -1.1265 -1.4313
 2211TIP3   OH2 6596   4.992   1.105   4.400 -0.0871  0.1817 -0.0430
 2211TIP3    H1 6597   4.902   1.080   4.380  0.3606 -1.7824  0.2582
 2211TIP3    H2 6598   5.014   1.057   4.479  1.8709 -0.9681 -1.1956
 2212TIP3   OH2 6599   6.110   5.890   0.209 -0.1386  0.3137  0.4565
 2212TIP3    H1 6600   6.078   5.808   0.247 -0.9905  0.8434  0.9087
 2212TIP3    H2 6601   6.057   5.958   0.251 -1.4336  0.9099 -1.9815
 2213TIP3   OH2 6602   5.232   5.636   3.794 -0.2118  0.0953  0.3428
 2213TIP3    H1 6603   5.191   5.654   3.878  0.5854  1.0248  0.5544
 2213TIP3    H2 6604   5.189   5.694   3.732 -1.6477 -1.4405 -0.1786
 2214TIP3   OH2 6605   1.620   5.345   1.021  0.4588  0.0307 -0.2249
 2214TIP3    H1 6606   1.566   5.418   1.051  1.6026 -0.2983  2.9352
 2214TIP3    H2 6607   1.696   5.387   0.980  0.7106  0.6264  0.8268
 2215TIP3   OH2 6608   2.603   6.662   4.093 -0.5242 -0.3649  0.1393
 2215TIP3    H1 6609   2.580   6.641   4.003  0.3889 -1.6196  0.1614
 2215TIP3    H2 6610   2.519   6.678   4.136 -0.9251  1.0336 -1.0880
 2216TIP3   OH2 6611   1.782   6.373   0.391  0.5469  0.0473 -0.1532
 2216TIP3    H1 6612   1.769   6.462   0.423  2.2704  0.6281 -0.9541
 2216TIP3    H2 6613   1.814   6.324   0.467  0.1735  0.2552  0.1398
 2217TIP3   OH2 6614   1.658   1.962   2.559  0.5164  0.4618 -0.1260
 2217TIP3    H1 6615   1.698   2.045   2.533 -0.9009  1.2519  0.1495
 2217TIP3    H2 6616   1.662   1.961   2.654  1.3047 -0.2162 -0.1437
 2218TIP3   OH2 6617   1.686   6.575   2.877 -0.2267 -0.3699 -0.0491
 2218TIP3    H1 6618   1.664   6.556   2.969 -1.5023  0.6919 -0.0844
 2218TIP3    H2 6619   1.751   6.509   2.853 -0.5230 -1.2223  1.3513
 2219TIP3   OH2 6620   2.489   1.616   1.055  0.4887 -0.4265  0.1756
 2219TIP3    H1 6621   2.499   1.542   0.994 -0.6442  0.7105 -1.4723
 2219TIP3    H2 6622   2.544   1.593   1.130  1.3534 -2.2322 -0.9462
 2220TIP3   OH2 6623   1.344   4.971   3.587  0.4388  0.1082 -0.2018
 2220TIP3    H1 6624   1.276   4.903   3.585  0.1759  0.3582  0.0945
 2220TIP3    H2 6625   1.317   5.029   3.658  1.3622 -0.2062  0.4175
 2221TIP3   OH2 6626   0.250   5.834   3.105  0.9258 -0.0359 -0.1728
 2221TIP3    H1 6627   0.306   5.872   3.037  0.5893 -0.2295 -0.5611
 2221TIP3    H2 6628   0.303   5.763   3.142  1.6229  0.9112  0.6730
 2222TIP3   OH2 6629   4.722   2.100   1.652  0.4387  0.6467  0.3101
 2222TIP3    H1 6630   4.790   2.159   1.620  0.5439  2.6874  3.7399
 2222TIP3    H2 6631   4.645   2.155   1.660 -0.4737 -0.5989  0.3231
 2223TIP3   OH2 6632   2.079   0.745   3.841 -0.2515  0.5638  0.1539
 2223TIP3    H1 6633   2.143   0.736   3.912  0.4162  0.7944 -0.4213
 2223TIP3    H2 6634   2.032   0.662   3.842  1.2007 -0.2986 -0.5339
 2224TIP3   OH2 6635   2.084   3.895   2.432 -0.2937 -0.0127 -0.2297
 2224TIP3    H1 6636   2.051   3.882   2.344  0.4995  2.0151 -0.8846
 2224TIP3    H2 6637   2.018   3.950   2.475 -1.8437 -2.8427  1.2939
 2225TIP3   OH2 6638   1.675   4.284   0.106 -0.2215 -0.0197  0.0129
 2225TIP3    H1 6639   1.582   4.305   0.101 -0.4473 -0.9659  0.0576
 2225TIP3    H2 6640   1.715   4.337   0.038 -0.8932 -0.1041 -0.4609
 2226TIP3   OH2 6641   3.467   6.159   4.499 -0.7034 -0.6304  0.0600
 2226TIP3    H1 6642   3.557   6.168   4.469 -1.4478  1.0671 -1.9085
 2226TIP3    H2 6643   3.417   6.216   4.441 -2.6238  1.0923  3.1235
 2227TIP3   OH2 6644   4.317   2.953   3.207  0.0387  0.0898 -0.2068
 2227TIP3    H1 6645   4.273   2.887   3.155  0.7050 -0.2501 -0.3527
 2227TIP3    H2 6646   4.410   2.932   3.200  0.2363  0.8193  0.0497
 2228TIP3   OH2 6647   0.472   2.904   4.133  0.5084  0.0152 -0.1176
 2228TIP3    H1 6648   0.478   2.952   4.051 -1.8740  0.9145  0.1566
 2228TIP3    H2 6649   0.431   2.966   4.194  2.1847 -0.6291  1.7897
 2229TIP3   OH2 6650   0.117   4.666   2.166 -0.4264 -0.0635  0.3191
 2229TIP3    H1 6651   0.120   4.682   2.072 -3.0304 -1.5346 -0.1203
 2229TIP3    H2 6652   0.097   4.573   2.174 -0.0786 -0.0149  2.3458
 2230TIP3   OH2 6653   6.386   1.067   2.653  0.3349  0.2988 -0.0387
 2230TIP3    H1 6654   6.468   1.039   2.695  0.6029 -0.5313 -1.0578
 2230TIP3    H2 6655   6.414   1.105   2.570 -0.2190  1.4777  0.2874
 2231TIP3   OH2 6656   1.601   2.238   3.039 -0.2945  0.2383 -0.3483
 2231TIP3    H1 6657   1.650   2.283   2.970 -1.2044 -1.3205 -2.0936
 2231TIP3    H2 6658   1.558   2.309   3.087  2.5133  1.5430  0.4115
 2232TIP3   OH2 6659   3.152   5.805   0.851  0.9418 -0.2098  0.0046
 2232TIP3    H1 6660   3.193   5.813   0.765  1.2731 -0.5818  0.1271
 2232TIP3    H2 6661   3.066   5.846   0.840  1.2461  0.3590 -0.3169
 2233TIP3   OH2 6662   0.067   6.590   5.297  0.4090  0.5724  0.7395
 2233TIP3    H1 6663   0.022   6.669   5.267  0.0527  0.3383  0.6505
 2233TIP3    H2 6664   0.052   6.589   5.392 -1.6616 -0.6533  0.4527
 2234TIP3   OH2 6665   5.033   2.669   1.240 -0.0042 -0.1229 -0.4670
 2234TIP3    H1 6666   4.970   2.733   1.272 -1.4464 -0.9607 -1.5053
 2234TIP3    H2 6667   5.023   2.594   1.300  1.2749  0.3810  0.4083
 2235TIP3   OH2 6668   6.365   0.077   5.535 -0.0857  0.2818 -0.4765
 2235TIP3    H1 6669   6.425   0.070   5.609 -0.1309 -1.1364 -0.5556
 2235TIP3    H2 6670   6.418   0.115   5.465  0.9084 -1.3946 -0.6990
 2236TIP3   OH2 6671   2.681   4.526   3.984 -0.3085  0.5376  0.1026
 2236TIP3    H1 6672   2.723   4.541   4.068  1.4814 -0.3099 -0.5872
 2236TIP3    H2 6673   2.720   4.590   3.925  1.5305 -1.4242 -0.9853
 2237TIP3   OH2 6674   5.273   3.616   4.762 -0.4265  0.7925  0.6203
 2237TIP3    H1 6675   5.354   3.642   4.806  0.1492  0.0956 -0.0084
 2237TIP3    H2 6676   5.278   3.657   4.676 -0.0823 -0.3599  0.0738
 2238TIP3   OH2 6677   5.199   2.816   3.118  0.7448  0.5324 -0.3084
 2238TIP3    H1 6678   5.149   2.735   3.120  2.1177 -0.3446 -0.3868
 2238TIP3    H2 6679   5.259   2.809   3.193  2.1003  0.6537 -1.3438
 2239TIP3   OH2 6680   5.582   5.035   4.394 -0.0726 -0.0149  0.2078
 2239TIP3    H1 6681   5.655   5.048   4.333 -1.0910  1.4258 -0.7941
 2239TIP3    H2 6682   5.515   4.991   4.342 -0.6040  0.3604  0.5656
 2240TIP3   OH2 6683   4.602   5.964   1.018 -0.7692 -0.4913 -0.3169
 2240TIP3    H1 6684   4.566   6.034   1.072  0.6115 -0.6670  0.8981
 2240TIP3    H2 6685   4.680   5.934   1.066  0.2164 -1.0151 -2.1609
 2241TIP3   OH2 6686   4.191   4.296   2.182  0.1384  0.8097  0.4376
 2241TIP3    H1 6687   4.217   4.218   2.232 -1.3021 -0.5650 -0.8707
 2241TIP3    H2 6688   4.113   4.329   2.227 -0.3973  0.3324 -0.1286
 2242TIP3   OH2 6689   4.131   4.317   2.796 -0.3395 -0.0880  0.3951
 2242TIP3    H1 6690   4.194   4.381   2.830 -0.1204 -0.4786  0.7449
 2242TIP3    H2 6691   4.057   4.324   2.855 -0.3890 -0.0338  0.3265
 2243TIP3   OH2 6692   6.780   4.046   0.114  0.5194  0.2997  0.2923
 2243TIP3    H1 6693   6.855   4.000   0.076 -0.3307 -0.9874  0.0904
 2243TIP3    H2 6694   6.818   4.111   0.172  1.8051  0.2870 -0.4909
 2244TIP3   OH2 6695   4.963   2.801   4.605 -0.0189  0.1571 -0.2970
 2244TIP3    H1 6696   5.039   2.779   4.659 -0.4847  0.4085  0.4654
 2244TIP3    H2 6697   4.944   2.720   4.557  1.3709  0.3909 -1.3148
 2245TIP3   OH2 6698   1.750   3.609   0.874  0.1221 -0.3495  0.1355
 2245TIP3    H1 6699   1.719   3.695   0.901  2.0341  0.5820 -0.4792
 2245TIP3    H2 6700   1.819   3.627   0.810 -0.7867 -2.3858 -1.5398
 2246TIP3   OH2 6701   1.980   2.027   3.388  0.1583  0.5730 -0.0965
 2246TIP3    H1 6702   1.912   2.060   3.329 -1.0275  0.4119  1.1368
 2246TIP3    H2 6703   1.932   1.990   3.463  1.6065  2.0204  1.6487
 2247TIP3   OH2 6704   1.188   2.398   2.604  0.2632  0.3383  0.4616
 2247TIP3    H1 6705   1.096   2.413   2.624  0.0099 -1.2955  0.6417
 2247TIP3    H2 6706   1.223   2.352   2.680  1.0806  0.3793  0.1298
 2248TIP3   OH2 6707   4.210   4.982   3.479 -0.1436 -0.3320  0.8895
 2248TIP3    H1 6708   4.167   5.019   3.557 -0.0447  1.4481  0.1279
 2248TIP3    H2 6709   4.284   4.933   3.514  0.7733  1.6556  1.8659
 2249TIP3   OH2 6710   6.457   2.075   2.344  0.1171  0.1515  0.2995
 2249TIP3    H1 6711   6.499   2.045   2.263 -0.7792  0.5888 -0.3436
 2249TIP3    H2 6712   6.516   2.143   2.377  0.8658 -0.5431  0.4236
 2250TIP3   OH2 6713   1.914   1.788   0.067  0.7796  0.1592  0.4617
 2250TIP3    H1 6714   1.860   1.760   0.141  0.7905 -2.0142 -0.2951
 2250TIP3    H2 6715   2.001   1.802   0.105  0.1738  1.9236  1.3395
 2251TIP3   OH2 6716   4.533   4.324   4.623  0.2485 -0.1294  0.4794
 2251TIP3    H1 6717   4.565   4.413   4.633  0.7845 -0.0589 -1.4111
 2251TIP3    H2 6718   4.489   4.324   4.538  0.7544 -1.7847  0.1788
 2252TIP3   OH2 6719   1.324   4.742   1.455 -0.1487 -0.6676 -0.1118
 2252TIP3    H1 6720   1.265   4.794   1.510 -0.7947 -0.1009 -1.2962
 2252TIP3    H2 6721   1.406   4.741   1.503 -0.3981  0.6762  0.4035
 2253TIP3   OH2 6722   0.804   4.168   5.252  0.2597 -0.1207  0.2842
 2253TIP3    H1 6723   0.805   4.212   5.337  1.0504  0.0148  0.2049
 2253TIP3    H2 6724   0.884   4.197   5.209 -1.0192  1.2754 -1.2657
 2254TIP3   OH2 6725   2.704   1.203   2.913 -0.2171 -0.1189 -0.4044
 2254TIP3    H1 6726   2.660   1.180   2.831 -0.9952 -3.8067  0.8758
 2254TIP3    H2 6727   2.766   1.132   2.928 -0.3757  0.2309  2.3908
 2255TIP3   OH2 6728   6.758   5.370   0.623  0.3412  0.7092  0.3487
 2255TIP3    H1 6729   6.805   5.447   0.591  1.3024  0.0540  0.1545
 2255TIP3    H2 6730   6.687   5.406   0.676  0.2603  1.7507 -0.4231
 2256TIP3   OH2 6731   0.685   3.833   5.131  0.1244  0.1638 -0.0920
 2256TIP3    H1 6732   0.604   3.884   5.121 -0.8331 -1.2080  0.4722
 2256TIP3    H2 6733   0.694   3.821   5.226  1.8372  1.5649 -0.0161
 2257TIP3   OH2 6734   5.729   0.428   1.257 -0.4431  0.1101  0.1957
 2257TIP3    H1 6735   5.722   0.363   1.327 -4.9387 -0.6535 -0.6432
 2257TIP3    H2 6736   5.731   0.377   1.177 -1.8527  0.9095 -0.3919
 2258TIP3   OH2 6737   5.862   6.253   1.181  0.1030  0.0503  0.1011
 2258TIP3    H1 6738   5.767   6.242   1.175  0.1738 -2.0339  1.6436
 2258TIP3    H2 6739   5.874   6.333   1.231 -0.9081 -0.2923  0.9345
 2259TIP3   OH2 6740   1.037   4.683   2.563  0.2167  0.4663  1.3535
 2259TIP3    H1 6741   1.040   4.769   2.521 -0.7557  0.1119  0.5163
 2259TIP3    H2 6742   0.945   4.656   2.557  1.0215 -2.2041 -1.7414
 2260TIP3   OH2 6743   4.131   5.441   1.751 -0.0848 -0.0113  0.0406
 2260TIP3    H1 6744   4.178   5.452   1.833  0.1505 -2.3794  0.2874
 2260TIP3    H2 6745   4.182   5.375   1.703 -1.0758  0.1886 -1.3522
 2261TIP3   OH2 6746   6.353   1.330   3.115 -0.0301  0.2219 -0.0607
 2261TIP3    H1 6747   6.350   1.417   3.076 -0.9365  0.1092 -0.2551
 2261TIP3    H2 6748   6.385   1.273   3.045 -0.6112  0.2001 -0.3128
 2262TIP3   OH2 6749   2.804   5.153   1.235 -0.5235 -0.0160 -0.0355
 2262TIP3    H1 6750   2.711   5.153   1.254 -0.4428 -1.8640  0.5670
 2262TIP3    H2 6751   2.821   5.066   1.199  1.1348 -0.0881  0.8275
 2263TIP3   OH2 6752   2.344   0.566   5.628 -0.2749 -0.9214 -0.0988
 2263TIP3    H1 6753   2.250   0.548   5.625 -0.9109  1.6289  1.3124
 2263TIP3    H2 6754   2.353   0.635   5.694  2.8121 -2.1658  0.9519
 2264TIP3   OH2 6755   2.129   2.811   2.470  0.5704  0.5011  0.3159
 2264TIP3    H1 6756   2.217   2.792   2.437  0.8308  2.0790  0.0017
 2264TIP3    H2 6757   2.078   2.832   2.391  0.3922  1.3034  0.6350
 2265TIP3   OH2 6758   0.728   4.236   0.660  0.0219 -0.1882 -0.0366
 2265TIP3    H1 6759   0.637   4.261   0.674  0.4072  0.8658  0.6425
 2265TIP3    H2 6760   0.780   4.308   0.695  1.1374 -1.0000  0.0634
 2266TIP3   OH2 6761   2.408   1.488   0.318 -0.9205 -0.1292  0.1022
 2266TIP3    H1 6762   2.436   1.403   0.349 -0.0750  0.6412  1.5341
 2266TIP3    H2 6763   2.471   1.511   0.249 -0.2106  0.0034  0.7866
 2267TIP3   OH2 6764   1.707   2.449   4.760  0.1438  0.7012 -0.4679
 2267TIP3    H1 6765   1.753   2.438   4.677 -0.8280 -0.1412 -0.9148
 2267TIP3    H2 6766   1.625   2.401   4.748  1.1083 -1.7950  1.9168
 2268TIP3   OH2 6767   1.595   1.107   2.660 -0.0855  0.2851  0.3024
 2268TIP3    H1 6768   1.596   1.201   2.679 -0.2797  0.1950  0.7933
 2268TIP3    H2 6769   1.658   1.070   2.722 -1.5196 -0.1529  1.5617
 2269TIP3   OH2 6770   0.487   5.100   0.880 -0.3834  0.3314  0.3411
 2269TIP3    H1 6771   0.397   5.068   0.890 -0.8759  1.3635 -0.5329
 2269TIP3    H2 6772   0.479   5.176   0.821  0.9743  0.8584  0.7965
 2270TIP3   OH2 6773   3.018   0.506   5.519  0.2256  0.5367 -0.6056
 2270TIP3    H1 6774   2.965   0.555   5.457  1.0627  0.4680 -1.3872
 2270TIP3    H2 6775   3.023   0.418   5.482 -0.2739  0.1534  0.1853
 2271TIP3   OH2 6776   0.517   6.796   3.483  0.0221 -0.0412 -0.3899
 2271TIP3    H1 6777   0.462   6.743   3.425 -0.3042  1.0366 -1.0959
 2271TIP3    H2 6778   0.568   6.732   3.533 -0.8714 -1.0295 -0.7065
 2272TIP3   OH2 6779   6.856   1.599   0.563  0.2049  0.8492  0.0666
 2272TIP3    H1 6780   6.951   1.614   0.565  0.3548  0.6629 -2.4199
 2272TIP3    H2 6781   6.836   1.561   0.649  2.6949 -0.7731  0.0327
 2273TIP3   OH2 6782   4.485   5.454   0.935  0.1823 -0.3272  0.2885
 2273TIP3    H1 6783   4.540   5.530   0.914 -0.0567 -0.1354  0.3457
 2273TIP3    H2 6784   4.527   5.380   0.891  0.5400 -0.1986  0.4110
 2274TIP3   OH2 6785   6.749   4.709   4.734  0.0005 -0.2091 -0.3399
 2274TIP3    H1 6786   6.711   4.716   4.646 -0.9388  1.5398  0.1520
 2274TIP3    H2 6787   6.801   4.789   4.744 -0.2869 -0.1517  0.8577
 2275TIP3   OH2 6788   5.334   1.876   2.295 -0.6659  0.1910  0.3828
 2275TIP3    H1 6789   5.322   1.968   2.272 -2.4664 -0.0916  0.0771
 2275TIP3    H2 6790   5.256   1.832   2.261 -0.8285 -1.1210  2.3157
 2276TIP3   OH2 6791   4.972   1.453   3.461  0.1354  0.0534  0.2522
 2276TIP3    H1 6792   4.949   1.516   3.394 -0.2141  1.1682  1.3800
 2276TIP3    H2 6793   5.065   1.468   3.479 -0.1500  0.8615  1.1225
 2277TIP3   OH2 6794   6.772   0.866   5.593 -0.4713  0.1299 -0.1732
 2277TIP3    H1 6795   6.715   0.840   5.521 -0.8764 -1.3960  0.6590
 2277TIP3    H2 6796   6.856   0.823   5.574 -0.1931  0.7417 -0.3619
 2278TIP3   OH2 6797   5.298   4.187   0.663  0.3874 -0.0853  0.2756
 2278TIP3    H1 6798   5.368   4.181   0.727 -0.4448 -1.3131  1.1199
 2278TIP3    H2 6799   5.252   4.102   0.669 -3.6152  1.9503  2.6387
 2279TIP3   OH2 6800   0.742   3.653   2.054 -0.4379  0.0976 -0.3743
 2279TIP3    H1 6801   0.787   3.724   2.099 -0.8542 -1.0383  2.0048
 2279TIP3    H2 6802   0.682   3.697   1.994  0.4030  1.7050 -0.0951
 2280TIP3   OH2 6803   1.942   5.388   3.682  0.1661  0.1953  0.2067
 2280TIP3    H1 6804   2.029   5.382   3.642  0.2989 -0.2352  0.5525
 2280TIP3    H2 6805   1.922   5.482   3.682  0.2214  0.2089 -0.7335
 2281TIP3   OH2 6806   3.648   6.239   5.390  0.6949  0.1848  0.1926
 2281TIP3    H1 6807   3.586   6.221   5.319 -0.4595 -1.8770  1.6058
 2281TIP3    H2 6808   3.731   6.202   5.359 -0.2802 -2.6278  0.6235
 2282TIP3   OH2 6809   2.987   4.284   2.083 -0.7111  0.1108 -0.0006
 2282TIP3    H1 6810   2.910   4.338   2.065 -1.4019 -0.2008  1.8175
 2282TIP3    H2 6811   3.034   4.281   2.000 -1.5528  2.0600 -0.6161
 2283TIP3   OH2 6812   3.343   3.719   3.608 -0.0016  0.3930  0.4877
 2283TIP3    H1 6813   3.393   3.801   3.608 -0.3694  0.6954 -2.1055
 2283TIP3    H2 6814   3.251   3.746   3.611 -0.1097  0.0588  0.2869
 2284TIP3   OH2 6815   0.009   2.435   3.449 -0.5040 -0.1790 -0.4607
 2284TIP3    H1 6816   0.056   2.421   3.367  0.8454 -2.4073  0.5907
 2284TIP3    H2 6817  -0.058   2.366   3.450  0.0597 -0.7316  0.6668
 2285TIP3   OH2 6818   2.141   4.996   3.271 -0.1958  0.1778  0.4523
 2285TIP3    H1 6819   2.218   4.956   3.312  0.5879  1.1051 -0.0781
 2285TIP3    H2 6820   2.082   4.922   3.254  1.2894 -0.8023 -0.6950
 2286TIP3   OH2 6821   0.123   3.528   5.164 -0.1017  0.3707  0.5010
 2286TIP3    H1 6822   0.109   3.540   5.258 -0.0637 -1.2838  0.7492
 2286TIP3    H2 6823   0.035   3.531   5.126 -0.3477 -1.0025  0.8882
 2287TIP3   OH2 6824   6.726   4.911   2.411 -0.0113 -0.1211 -0.0567
 2287TIP3    H1 6825   6.630   4.909   2.413 -0.0048 -1.4094  1.8836
 2287TIP3    H2 6826   6.748   4.872   2.326 -1.2364 -1.3730  0.1437
 2288TIP3   OH2 6827   3.100   1.975   0.774 -0.3362 -0.6330  0.1412
 2288TIP3    H1 6828   3.156   1.898   0.780 -0.3964 -0.8061 -1.3062
 2288TIP3    H2 6829   3.013   1.941   0.756 -0.2948 -0.2129 -0.8838
 2289TIP3   OH2 6830   2.852   0.377   2.969  0.1404  0.5914 -0.2130
 2289TIP3    H1 6831   2.933   0.326   2.976 -1.1065 -1.6205 -0.8423
 2289TIP3    H2 6832   2.827   0.395   3.059  1.0219  0.7971  0.0018
 2290TIP3   OH2 6833   1.553   3.969   0.714 -0.3043 -0.1375  0.0768
 2290TIP3    H1 6834   1.474   3.915   0.702  0.2059 -0.7654 -0.5686
 2290TIP3    H2 6835   1.602   3.924   0.783 -1.6611  1.6352  2.3028
 2291TIP3   OH2 6836   0.605   5.907   0.857 -0.1117  0.2471 -0.5118
 2291TIP3    H1 6837   0.609   5.999   0.833 -2.2578  0.6790  0.5966
 2291TIP3    H2 6838   0.518   5.878   0.830 -0.2647 -0.8693  1.0021
 2292TIP3   OH2 6839   2.119   0.245   3.027  0.5506  0.2569  0.4194
 2292TIP3    H1 6840   2.153   0.334   3.015 -0.0177  0.3008 -1.1513
 2292TIP3    H2 6841   2.153   0.218   3.112  2.5368  1.1633 -0.0194
 2293TIP3   OH2 6842   1.743   3.565   0.131 -0.2478  0.0360 -0.5262
 2293TIP3    H1 6843   1.650   3.569   0.151 -0.1999 -0.2908 -0.2187
 2293TIP3    H2 6844   1.784   3.537   0.213 -0.1441 -2.2766 -1.2925
 2294TIP3   OH2 6845   3.628   3.381   5.686 -0.0295  0.1516 -0.3846
 2294TIP3    H1 6846   3.611   3.287   5.684  0.4204  0.0703 -0.7324
 2294TIP3    H2 6847   3.543   3.421   5.701 -0.2236 -0.3119 -0.2288
 2295TIP3   OH2 6848   0.804   3.527   1.793  0.4538 -0.0308 -0.0719
 2295TIP3    H1 6849   0.854   3.455   1.755 -0.6388 -0.6096 -0.4527
 2295TIP3    H2 6850   0.757   3.488   1.867 -1.2685 -0.1013 -1.1351
 2296TIP3   OH2 6851   2.991   0.588   2.423 -0.1491  0.6465  0.3302
 2296TIP3    H1 6852   2.912   0.642   2.423  0.9699  2.4940 -2.2795
 2296TIP3    H2 6853   2.971   0.516   2.364 -0.0500  0.8629  0.0304
 2297TIP3   OH2 6854   2.087   4.095   5.450  0.0160 -0.7036  0.3188
 2297TIP3    H1 6855   2.092   4.160   5.521 -0.5325 -0.7056  0.3625
 2297TIP3    H2 6856   2.107   4.012   5.492  0.9041 -0.5466  0.2284
 2298TIP3   OH2 6857   1.529   1.598   0.123 -0.1460 -0.6970  0.3379
 2298TIP3    H1 6858   1.582   1.666   0.163 -0.6602 -0.3113  0.3730
 2298TIP3    H2 6859   1.507   1.631   0.036 -2.5217  0.3619  1.2548
 2299TIP3   OH2 6860   4.812   1.938   0.801  0.4673  0.1426 -0.0196
 2299TIP3    H1 6861   4.796   1.992   0.724  0.2096 -1.4590 -1.1410
 2299TIP3    H2 6862   4.727   1.900   0.822  0.4284  0.9676  1.3983
 2300TIP3   OH2 6863   2.195   2.312   3.993  0.0418 -0.0892  0.2690
 2300TIP3    H1 6864   2.139   2.312   3.915  1.2904  0.9020 -0.6561
 2300TIP3    H2 6865   2.185   2.400   4.029  0.2056 -0.2478  0.7080
 2301TIP3   OH2 6866   5.739   6.367   4.301  0.0159  0.5052 -0.1268
 2301TIP3    H1 6867   5.718   6.377   4.394  1.2710 -1.5061  0.4311
 2301TIP3    H2 6868   5.834   6.378   4.297 -0.0431  0.7302 -1.2184
 2302TIP3   OH2 6869   3.518   0.103   0.672  0.3037  0.8821  0.7274
 2302TIP3    H1 6870   3.434   0.066   0.647  0.3899  1.5737 -0.7008
 2302TIP3    H2 6871   3.561   0.124   0.589  2.8386 -1.4244  1.3125
 2303TIP3   OH2 6872   5.632   2.769   0.959 -0.6174  0.0681 -0.7856
 2303TIP3    H1 6873   5.584   2.784   1.040  0.4668  0.6240 -0.2308
 2303TIP3    H2 6874   5.563   2.758   0.892 -1.5125 -0.2067  0.1568
 2304TIP3   OH2 6875   3.909   1.739   3.430 -0.0845 -0.2211 -0.1366
 2304TIP3    H1 6876   3.881   1.765   3.342  0.7697 -0.4327 -0.4781
 2304TIP3    H2 6877   3.827   1.719   3.476 -0.6169  1.0037 -0.5175
 2305TIP3   OH2 6878   1.338   4.766   3.151  0.1601  0.1699  0.4515
 2305TIP3    H1 6879   1.431   4.772   3.132  0.2104 -0.5690  0.4588
 2305TIP3    H2 6880   1.326   4.821   3.229  0.4270  0.9678 -0.0595
 2306TIP3   OH2 6881   1.558   1.812   5.212 -0.0137 -0.0804 -0.1426
 2306TIP3    H1 6882   1.591   1.865   5.285 -0.0549 -1.6753  1.0788
 2306TIP3    H2 6883   1.485   1.863   5.177  0.5154  1.0908  0.3742
 2307TIP3   OH2 6884   5.913   1.015   0.512  0.1120 -0.0440 -0.3967
 2307TIP3    H1 6885   5.908   0.968   0.429  0.4840  1.6828 -1.4338
 2307TIP3    H2 6886   5.842   0.977   0.564 -1.7273  0.4603 -2.3797
 2308TIP3   OH2 6887   6.857   3.609   3.896 -0.8882 -0.6384 -0.2997
 2308TIP3    H1 6888   6.934   3.553   3.887 -0.2876  0.1223 -0.0051
 2308TIP3    H2 6889   6.850   3.628   3.989 -0.8956  0.0235 -0.4252
 2309TIP3   OH2 6890   1.056   3.820   0.435 -0.2827  0.2004  0.1087
 2309TIP3    H1 6891   0.990   3.869   0.485  0.0264 -0.6559  1.4069
 2309TIP3    H2 6892   1.012   3.739   0.412 -1.0490  1.3034 -2.6929
 2310TIP3   OH2 6893   7.097   4.200   0.274  0.0697 -0.2702 -0.4309
 2310TIP3    H1 6894   7.151   4.165   0.203  0.2734  1.8633 -1.4062
 2310TIP3    H2 6895   7.156   4.252   0.327 -0.6987  0.7831 -0.5808
 2311TIP3   OH2 6896   5.307   5.418   4.929 -0.6409  0.0086  0.1542
 2311TIP3    H1 6897   5.222   5.383   4.901  0.3037 -0.5356 -2.3030
 2311TIP3    H2 6898   5.311   5.505   4.888 -0.3243  0.3626  0.9209
 2312TIP3   OH2 6899   0.930   1.859   1.162 -0.6379 -0.2706  0.1486
 2312TIP3    H1 6900   0.915   1.954   1.157  2.0801  0.4623  2.9913
 2312TIP3    H2 6901   0.981   1.838   1.084  1.1456  1.2537  0.8321
 2313TIP3   OH2 6902   4.799   3.428   2.470  0.1840 -0.0481 -0.0995
 2313TIP3    H1 6903   4.745   3.497   2.508 -1.2121 -0.3109 -1.5286
 2313TIP3    H2 6904   4.831   3.378   2.546 -2.7809 -0.7933  0.7694
 2314TIP3   OH2 6905   1.105   3.985   5.353  0.0811 -0.6611 -0.4906
 2314TIP3    H1 6906   1.078   3.925   5.423  1.8884 -1.3996 -0.3557
 2314TIP3    H2 6907   1.063   3.950   5.274 -0.4706 -0.9225 -0.0895
 2315TIP3   OH2 6908   1.410   0.525   0.117  0.3143  0.2105 -0.0024
 2315TIP3    H1 6909   1.481   0.560   0.171  0.0711  0.2613  0.2875
 2315TIP3    H2 6910   1.406   0.432   0.140  0.1718  0.2446  0.1101
 2316TIP3   OH2 6911   3.995   4.227   3.374  0.0048 -0.3862  0.2765
 2316TIP3    H1 6912   3.983   4.162   3.442 -0.0599  0.4395  1.0727
 2316TIP3    H2 6913   3.940   4.197   3.301 -0.0481 -1.1857  0.6423
 2317TIP3   OH2 6914   4.562   2.319   3.985  0.3585 -0.3077  0.0746
 2317TIP3    H1 6915   4.640   2.298   4.036 -0.8321  0.2485  2.2553
 2317TIP3    H2 6916   4.529   2.234   3.955  0.8411 -0.6924  0.6126
 2318TIP3   OH2 6917   0.412   1.658   1.884 -0.1086  0.1754 -0.2107
 2318TIP3    H1 6918   0.327   1.616   1.899  1.2687 -2.3658  1.2937
 2318TIP3    H2 6919   0.435   1.696   1.969 -0.0167  1.4860 -0.8006
 2319TIP3   OH2 6920   3.423   2.024   2.052  0.0831 -0.2794  0.1767
 2319TIP3    H1 6921   3.384   1.965   2.116 -1.2758 -1.2933 -1.4748
 2319TIP3    H2 6922   3.502   2.056   2.094 -0.7344 -0.8826  2.3312
 2320TIP3   OH2 6923   1.002   1.131   0.959 -0.2030  0.5068 -0.0755
 2320TIP3    H1 6924   1.026   1.093   1.044  0.1721 -1.9132 -1.1850
 2320TIP3    H2 6925   1.065   1.202   0.946  0.6343  0.0068  1.0430
 2321TIP3   OH2 6926   3.249   3.808   4.625 -0.0085 -0.0692  0.4257
 2321TIP3    H1 6927   3.337   3.783   4.599 -0.1259 -2.2039  1.7933
 2321TIP3    H2 6928   3.192   3.774   4.556  0.1598  0.1505  0.1817
 2322TIP3   OH2 6929   5.873   1.991   1.328 -0.0846 -0.3637  0.0747
 2322TIP3    H1 6930   5.918   1.997   1.244 -1.0612 -2.5722 -0.7090
 2322TIP3    H2 6931   5.780   1.999   1.305 -0.2807  1.5937  1.3255
 2323TIP3   OH2 6932   0.843   0.064   2.236  0.0570 -0.1343 -0.3401
 2323TIP3    H1 6933   0.805  -0.020   2.209 -0.6726  0.0800  0.0099
 2323TIP3    H2 6934   0.813   0.075   2.327  1.1714 -0.0876  0.0347
 2324TIP3   OH2 6935   2.527   6.262   1.125  0.0037 -0.1968 -0.0907
 2324TIP3    H1 6936   2.592   6.260   1.195 -0.1678 -2.6265  0.1055
 2324TIP3    H2 6937   2.576   6.292   1.048  1.1588 -1.0670  0.2679
 2325TIP3   OH2 6938   6.894   1.654   5.375 -0.0960 -0.0243 -0.2888
 2325TIP3    H1 6939   6.846   1.685   5.451 -2.7126  1.3377 -2.3377
 2325TIP3    H2 6940   6.861   1.565   5.360  1.0200 -0.6121  0.5556
 2326TIP3   OH2 6941   3.130   6.139   0.288  0.2906 -0.0573  0.0167
 2326TIP3    H1 6942   3.052   6.173   0.333  0.1591  0.3840 -0.5300
 2326TIP3    H2 6943   3.095   6.072   0.228  0.0131  1.6848 -1.8679
 2327TIP3   OH2 6944   4.385   0.171   0.570  0.6753 -0.0636  0.3572
 2327TIP3    H1 6945   4.454   0.181   0.635  0.2515 -1.2822  1.0511
 2327TIP3    H2 6946   4.310   0.217   0.608  0.1091 -1.6692  1.2993
 2328TIP3   OH2 6947   6.649   5.260   0.151  0.5510  0.2330  0.0179
 2328TIP3    H1 6948   6.595   5.224   0.080 -1.3813 -0.2310  1.6269
 2328TIP3    H2 6949   6.729   5.288   0.108  0.2822 -1.8424 -2.0440
 2329TIP3   OH2 6950   6.270   0.532   2.154 -0.0992 -0.6742  0.6189
 2329TIP3    H1 6951   6.208   0.544   2.226 -0.0850 -1.8539  0.8546
 2329TIP3    H2 6952   6.317   0.615   2.149 -1.5299  0.1701  0.5851
 2330TIP3   OH2 6953   1.283   2.490   4.337 -0.2204 -0.0704 -0.1422
 2330TIP3    H1 6954   1.227   2.475   4.414  0.3495  0.6462  0.4250
 2330TIP3    H2 6955   1.371   2.499   4.373  0.2036 -0.7296 -0.9899
 2331TIP3   OH2 6956   2.872   5.114   4.385 -0.3389 -0.5193  0.0490
 2331TIP3    H1 6957   2.809   5.117   4.313 -1.7707 -1.2028  1.2145
 2331TIP3    H2 6958   2.824   5.075   4.458  1.2054 -0.3155  1.2456
 2332TIP3   OH2 6959   4.954   4.412   3.753 -0.2733  0.1310 -0.1695
 2332TIP3    H1 6960   4.871   4.457   3.768  0.9411  1.7221  2.4458
 2332TIP3    H2 6961   5.006   4.474   3.701 -0.3303 -0.4470 -0.9414
 2333TIP3   OH2 6962   5.927   2.533   4.539  0.0504 -0.1570 -0.8701
 2333TIP3    H1 6963   5.951   2.601   4.601  0.7416 -0.3185 -0.9495
 2333TIP3    H2 6964   5.989   2.462   4.556 -0.3875 -0.5951 -1.0734
 2334TIP3   OH2 6965   5.447   5.407   0.646  0.2889  0.5611  0.2494
 2334TIP3    H1 6966   5.397   5.325   0.642 -0.2243  0.8211  1.0558
 2334TIP3    H2 6967   5.529   5.383   0.687  0.8132  0.1477 -0.9987
 2335TIP3   OH2 6968   0.167   3.292   3.545  0.3409 -0.8827  0.0698
 2335TIP3    H1 6969   0.197   3.359   3.606  0.0959  0.2150 -0.9960
 2335TIP3    H2 6970   0.176   3.210   3.594  0.5110 -0.0734  1.4404
 2336TIP3   OH2 6971   5.726   5.704   1.310  0.3117 -0.0106 -0.0750
 2336TIP3    H1 6972   5.729   5.721   1.405  1.3324  0.9055 -0.2430
 2336TIP3    H2 6973   5.769   5.619   1.300  2.0119  0.7665  0.1485
 2337TIP3   OH2 6974   3.063   2.384   3.411 -0.7099 -0.5154  0.0782
 2337TIP3    H1 6975   3.024   2.402   3.325 -0.9154  0.3083  0.3368
 2337TIP3    H2 6976   3.083   2.470   3.447 -1.0011 -0.8431  1.0378
 2338TIP3   OH2 6977   6.567   6.637   3.138 -0.5274 -0.0345  0.1456
 2338TIP3    H1 6978   6.497   6.582   3.105 -0.2094 -0.5857  0.3860
 2338TIP3    H2 6979   6.625   6.650   3.063 -1.6206  1.6543 -0.4854
 2339TIP3   OH2 6980   6.871   3.527   0.572 -0.4032 -0.6304 -0.0342
 2339TIP3    H1 6981   6.817   3.598   0.608  1.2611  1.1578 -0.9094
 2339TIP3    H2 6982   6.885   3.552   0.481  1.1562 -1.5135 -0.0572
 2340TIP3   OH2 6983   2.358   6.626   1.241  0.1033  0.1406  0.5390
 2340TIP3    H1 6984   2.454   6.624   1.244  0.1408 -3.1577  1.5494
 2340TIP3    H2 6985   2.331   6.602   1.329 -1.5594 -0.9820 -0.2261
 2341TIP3   OH2 6986   2.852   0.056   2.159  0.3474  0.0871  0.0045
 2341TIP3    H1 6987   2.764   0.030   2.185  0.1888  0.2866 -0.3310
 2341TIP3    H2 6988   2.883   0.111   2.231  0.5153 -0.6451  0.5078
 2342TIP3   OH2 6989   4.238   1.384   1.367 -0.2302  0.5749  0.1696
 2342TIP3    H1 6990   4.244   1.360   1.275  0.0988 -0.4570  0.4435
 2342TIP3    H2 6991   4.283   1.468   1.373 -0.5230  0.7958 -0.6605
 2343TIP3   OH2 6992   0.028   2.374   2.240 -0.2088  0.4187 -0.0749
 2343TIP3    H1 6993  -0.000   2.304   2.299 -0.5364  0.3902 -0.2610
 2343TIP3    H2 6994   0.117   2.394   2.267 -0.0868 -0.1227 -0.0678
 2344TIP3   OH2 6995   6.091   1.477   4.917  0.4420 -0.7492 -0.4744
 2344TIP3    H1 6996   6.053   1.535   4.852 -0.8593  0.9616  1.6687
 2344TIP3    H2 6997   6.072   1.389   4.885 -2.2364  0.0402 -1.3070
 2345TIP3   OH2 6998   1.440   1.276   4.166 -0.5517  0.1953 -0.2835
 2345TIP3    H1 6999   1.466   1.299   4.077 -1.4702  2.0956 -0.1065
 2345TIP3    H2 7000   1.352   1.241   4.158 -0.6157  0.3187 -0.1210
 2346TIP3   OH2 7001   6.804   3.046   3.834  0.4403 -0.4961  0.3292
 2346TIP3    H1 7002   6.762   3.120   3.789 -1.1424 -0.9387  0.9991
 2346TIP3    H2 7003   6.897   3.066   3.830  0.1141  1.1321 -0.2132
 2347TIP3   OH2 7004   1.194   3.743   4.897  0.5136 -0.0847  0.4125
 2347TIP3    H1 7005   1.219   3.781   4.981  1.4200  0.4517 -0.0855
 2347TIP3    H2 7006   1.222   3.651   4.903  1.6124  0.2274  0.2899
 2348TIP3   OH2 7007   6.677   5.489   1.864  0.8276  0.0760  0.4030
 2348TIP3    H1 7008   6.721   5.573   1.856  0.3057  0.3445  0.2890
 2348TIP3    H2 7009   6.728   5.441   1.929  1.0545  0.5305  0.5635
 2349TIP3   OH2 7010   7.073   4.225   1.003  0.2406 -0.3597 -0.4355
 2349TIP3    H1 7011   6.980   4.232   0.981  0.5421  1.7105 -1.2903
 2349TIP3    H2 7012   7.093   4.132   0.994 -1.1037 -0.4922 -2.9981
 2350TIP3   OH2 7013   0.886   4.483   5.808  0.4729  0.3394  0.4960
 2350TIP3    H1 7014   0.915   4.510   5.721  0.3296  0.8689  0.6074
 2350TIP3    H2 7015   0.900   4.560   5.863  0.4346  0.0530  0.9125
 2351TIP3   OH2 7016   5.868   2.487   4.234 -0.2649 -0.4007 -0.5822
 2351TIP3    H1 7017   5.776   2.479   4.259 -0.8138  2.8138 -1.1902
 2351TIP3    H2 7018   5.914   2.428   4.294 -2.6740 -2.2355 -0.3619
 2352TIP3   OH2 7019   1.666   4.125   5.881 -0.4988 -0.1746  0.1467
 2352TIP3    H1 7020   1.716   4.154   5.805 -0.8576 -1.8651 -0.7734
 2352TIP3    H2 7021   1.584   4.175   5.875 -0.2378  0.2233 -0.1746
 2353TIP3   OH2 7022   1.328   3.885   0.919 -0.1743  0.2023 -0.0433
 2353TIP3    H1 7023   1.245   3.881   0.965  0.0074 -1.5957  0.2083
 2353TIP3    H2 7024   1.305   3.867   0.827 -0.1632  0.5084 -0.1048
 2354TIP3   OH2 7025   6.550   3.426   5.807  0.6734 -0.2513  0.3580
 2354TIP3    H1 7026   6.526   3.336   5.830  0.3978  0.0913  1.4254
 2354TIP3    H2 7027   6.486   3.452   5.740  1.2939 -1.1391 -0.6244
 2355TIP3   OH2 7028   4.027   2.936   0.838  0.3536 -0.1761 -0.6906
 2355TIP3    H1 7029   4.028   2.911   0.746  1.7896  0.3367 -0.8432
 2355TIP3    H2 7030   3.966   2.875   0.879  2.8283 -3.2847 -1.2507
 2356TIP3   OH2 7031   2.204   4.176   3.764  0.0877  0.0064 -0.0391
 2356TIP3    H1 7032   2.262   4.139   3.830  1.5673 -1.4104 -2.0124
 2356TIP3    H2 7033   2.211   4.271   3.777  5.1819  0.2029 -1.7964
 2357TIP3   OH2 7034   3.834   1.991   1.209  0.1131 -1.0865  0.1258
 2357TIP3    H1 7035   3.901   1.963   1.147 -0.6961  0.3927 -1.5167
 2357TIP3    H2 7036   3.813   2.081   1.182 -1.6706 -1.1024  1.3219
 2358TIP3   OH2 7037   2.159   6.427   0.036 -0.1978 -0.1248 -0.3797
 2358TIP3    H1 7038   2.072   6.462   0.050 -0.2352  0.1140 -1.1701
 2358TIP3    H2 7039   2.218   6.498   0.060 -0.2833  0.7391 -2.5585
 2359TIP3   OH2 7040   1.030   4.477   5.260  0.4502  0.6779 -0.1708
 2359TIP3    H1 7041   1.026   4.551   5.199  2.3125  0.8639 -0.1264
 2359TIP3    H2 7042   1.081   4.511   5.334  0.3987 -0.3157  0.3316
 2360TIP3   OH2 7043   6.551   0.051   5.760  0.5152  0.1075  0.2026
 2360TIP3    H1 7044   6.550   0.077   5.852 -2.4811 -1.3345  0.7238
 2360TIP3    H2 7045   6.593  -0.035   5.760  2.5180  1.0372 -0.1839
 2361TIP3   OH2 7046   0.705   1.748   1.301  0.5665  0.3688  0.0891
 2361TIP3    H1 7047   0.763   1.768   1.227  0.8341 -0.5998  0.0286
 2361TIP3    H2 7048   0.764   1.742   1.376  0.6130 -0.9740 -0.0324
 2362TIP3   OH2 7049   2.940   2.204   5.635 -0.2108 -0.2874 -0.4613
 2362TIP3    H1 7050   2.910   2.264   5.704 -0.4193 -1.0926  0.1591
 2362TIP3    H2 7051   2.865   2.148   5.617  0.4829 -1.4594  0.1648
 2363TIP3   OH2 7052   5.936   0.403   4.161  0.1050  0.2519 -0.0647
 2363TIP3    H1 7053   5.982   0.488   4.159 -0.4622  0.5814  0.6142
 2363TIP3    H2 7054   5.978   0.352   4.091 -0.3492  1.5055 -1.2952
 2364TIP3   OH2 7055   6.544   6.170   5.833  0.3807 -0.0794 -0.4786
 2364TIP3    H1 7056   6.611   6.133   5.890 -1.1932 -1.9298  0.2688
 2364TIP3    H2 7057   6.539   6.262   5.858  1.1496 -0.3975  0.9298
 2365TIP3   OH2 7058   6.060   3.821   0.795  0.0158  0.0353  0.0132
 2365TIP3    H1 7059   6.150   3.817   0.763 -0.2872  0.6497 -0.9623
 2365TIP3    H2 7060   6.007   3.793   0.721 -0.6512  0.5887  0.2702
 2366TIP3   OH2 7061   3.262   2.915   0.639 -0.1814 -0.3838 -0.1040
 2366TIP3    H1 7062   3.190   2.907   0.577 -0.7340 -1.1660  0.6130
 2366TIP3    H2 7063   3.309   2.832   0.633  0.6994  0.1355 -0.5966
 2367TIP3   OH2 7064   4.894   0.251   5.167 -0.2017  0.3912 -0.1469
 2367TIP3    H1 7065   4.924   0.310   5.097  0.7294  0.7741  0.5517
 2367TIP3    H2 7066   4.814   0.291   5.200  0.8473  1.7570  0.8709
 2368TIP3   OH2 7067   2.951   2.100   3.339  0.2740 -0.4397 -0.4433
 2368TIP3    H1 7068   2.876   2.048   3.311  0.9053 -2.2847  1.0560
 2368TIP3    H2 7069   2.915   2.165   3.399 -0.1787 -1.0419 -0.0561
 2369TIP3   OH2 7070   2.596   3.411   1.334  0.2598  0.7752 -0.2791
 2369TIP3    H1 7071   2.579   3.498   1.369 -3.2193  0.0046  0.4256
 2369TIP3    H2 7072   2.539   3.405   1.257 -0.3102 -1.1156  0.2223
 2370TIP3   OH2 7073   5.286   1.513   5.142 -0.2286 -0.0551  0.4070
 2370TIP3    H1 7074   5.284   1.596   5.190 -2.1973 -1.1224  2.3249
 2370TIP3    H2 7075   5.266   1.447   5.207 -0.1854 -1.9083 -1.3665
 2371TIP3   OH2 7076   0.863   6.453   2.652 -0.1327 -0.2280  0.2089
 2371TIP3    H1 7077   0.868   6.522   2.718 -1.0856  0.7998 -0.7648
 2371TIP3    H2 7078   0.771   6.426   2.653  0.4894 -2.5983  1.6436
 2372TIP3   OH2 7079   0.624   6.129   2.804  0.2152 -0.1686 -0.1361
 2372TIP3    H1 7080   0.681   6.132   2.881  0.4855 -0.5952 -0.3164
 2372TIP3    H2 7081   0.663   6.191   2.742 -0.2645  0.5292  0.2388
 2373TIP3   OH2 7082   4.065   5.066   0.699 -0.1992 -0.7075  0.0688
 2373TIP3    H1 7083   4.052   4.976   0.667 -1.5296 -0.9120  1.0843
 2373TIP3    H2 7084   3.996   5.116   0.656  1.3321  0.1562 -1.5218
 2374TIP3   OH2 7085   5.926   4.647   0.351 -0.6166  0.2758 -0.5243
 2374TIP3    H1 7086   5.915   4.623   0.259 -2.0981 -0.7016 -0.1312
 2374TIP3    H2 7087   5.969   4.571   0.391 -1.5950 -0.0769 -0.0885
 2375TIP3   OH2 7088   0.268   0.422   3.383  0.0822  0.1944 -0.2308
 2375TIP3    H1 7089   0.232   0.348   3.433 -2.7957  0.7414 -1.3087
 2375TIP3    H2 7090   0.292   0.383   3.299  2.4562 -0.2049  0.5401
 2376TIP3   OH2 7091   0.326   1.338   2.535 -0.5087  0.7836  0.3261
 2376TIP3    H1 7092   0.314   1.324   2.629 -0.4107  0.9235  0.3610
 2376TIP3    H2 7093   0.241   1.318   2.496  0.2435 -2.3228  0.0684
 2377TIP3   OH2 7094   3.547   4.649   4.336  0.6208 -0.3607 -0.4131
 2377TIP3    H1 7095   3.538   4.636   4.242 -0.5218 -1.0241 -0.2388
 2377TIP3    H2 7096   3.488   4.723   4.355  0.3188 -0.6677 -0.1343
 2378TIP3   OH2 7097   1.554   1.462   1.102  0.1919  0.4187 -0.3458
 2378TIP3    H1 7098   1.642   1.480   1.069  0.6581  0.0765  0.6644
 2378TIP3    H2 7099   1.508   1.546   1.097  0.9487  0.8733  0.2379
 2379TIP3   OH2 7100   0.747   5.602   4.963 -0.0964  0.2519 -0.2611
 2379TIP3    H1 7101   0.753   5.691   4.997 -0.1439  0.6196 -1.1881
 2379TIP3    H2 7102   0.760   5.611   4.869 -0.7774 -0.6427 -0.4587
 2380TIP3   OH2 7103   4.091   3.516   2.733 -0.5308  0.3979 -0.4423
 2380TIP3    H1 7104   4.128   3.501   2.820 -0.2009  1.7083 -0.3375
 2380TIP3    H2 7105   4.020   3.451   2.725  0.8046 -1.1666 -0.0683
 2381TIP3   OH2 7106   4.858   0.936   3.827 -0.5130  0.0293 -0.1934
 2381TIP3    H1 7107   4.817   0.868   3.881 -0.0838  0.9856  1.4016
 2381TIP3    H2 7108   4.811   0.932   3.744 -3.4741  0.6660  1.3243
 2382TIP3   OH2 7109   0.265   2.121   3.373 -0.6498  0.6636  0.0177
 2382TIP3    H1 7110   0.358   2.105   3.356 -0.3777  0.8000  1.3184
 2382TIP3    H2 7111   0.251   2.211   3.346 -0.7972  0.1695 -1.6839
 2383TIP3   OH2 7112   2.067   4.108   1.537  0.2186 -0.0968 -0.0526
 2383TIP3    H1 7113   2.049   4.040   1.602  0.2525  0.9580  1.1138
 2383TIP3    H2 7114   2.149   4.148   1.567 -0.7961  1.7379  0.4582
 2384TIP3   OH2 7115   3.947   0.870   4.495  0.4348 -0.5138  0.2631
 2384TIP3    H1 7116   3.903   0.954   4.511 -0.6696 -0.7894 -1.0882
 2384TIP3    H2 7117   3.886   0.805   4.529 -1.0811 -0.9930 -2.9665
 2385TIP3   OH2 7118   2.447   0.132   5.544 -0.4146  0.0578 -0.3372
 2385TIP3    H1 7119   2.390   0.100   5.614 -1.1145  0.4282 -0.7369
 2385TIP3    H2 7120   2.476   0.218   5.574  0.4769 -0.4084  0.1697
 2386TIP3   OH2 7121   5.000   4.539   5.133 -0.5882 -0.6223 -0.8384
 2386TIP3    H1 7122   5.079   4.506   5.176 -0.3793  0.0918 -0.6559
 2386TIP3    H2 7123   4.934   4.541   5.202  0.0855  1.7237 -0.1778
 2387TIP3   OH2 7124   3.518   3.475   1.062 -0.4299 -0.8978 -0.0805
 2387TIP3    H1 7125   3.522   3.401   1.123 -1.8676 -1.1110 -0.2108
 2387TIP3    H2 7126   3.433   3.467   1.020  1.0219 -1.5908 -3.1937
 2388TIP3   OH2 7127   1.744   0.220   2.292 -0.4646  0.1420  0.4124
 2388TIP3    H1 7128   1.823   0.260   2.327 -0.6133  1.3460 -0.5777
 2388TIP3    H2 7129   1.672   0.261   2.341 -0.5025 -1.1614  1.5176
 2389TIP3   OH2 7130   4.047   2.116   2.786  0.0046  0.4460  0.2363
 2389TIP3    H1 7131   4.089   2.056   2.847  0.2573  0.8032  0.4233
 2389TIP3    H2 7132   4.061   2.077   2.700 -2.1302 -1.1373  0.5292
 2390TIP3   OH2 7133   5.931   0.293   3.519  0.0947 -0.0054  0.1386
 2390TIP3    H1 7134   5.896   0.209   3.489 -0.9001  0.4164  0.0754
 2390TIP3    H2 7135   5.947   0.280   3.613  0.4017 -0.4153  0.0303
 2391TIP3   OH2 7136   6.806   2.712   3.717 -0.2797  0.1689 -0.1360
 2391TIP3    H1 7137   6.880   2.731   3.774 -0.1818 -1.2846  0.2569
 2391TIP3    H2 7138   6.844   2.665   3.643 -0.9751 -2.2559  0.9532
 2392TIP3   OH2 7139   1.466   0.348   5.121  0.6707  0.0625 -0.4201
 2392TIP3    H1 7140   1.474   0.444   5.115 -0.0553  0.2004  0.5988
 2392TIP3    H2 7141   1.506   0.316   5.040  3.7840  1.0595  0.5506
 2393TIP3   OH2 7142   2.759   0.816   2.694 -0.2679 -0.0900 -0.2258
 2393TIP3    H1 7143   2.728   0.743   2.748 -0.0329 -0.5394 -0.6894
 2393TIP3    H2 7144   2.705   0.812   2.615 -0.8395  0.7695  0.1099
 2394TIP3   OH2 7145   2.041   5.472   5.356 -0.2493 -0.5517  0.2161
 2394TIP3    H1 7146   2.060   5.397   5.298 -0.2717 -0.2091 -0.2438
 2394TIP3    H2 7147   1.949   5.491   5.341  0.3294  1.1832 -1.6420
 2395TIP3   OH2 7148   1.642   1.592   0.841  0.1612 -0.4428  0.4440
 2395TIP3    H1 7149   1.659   1.634   0.925  1.4450  0.2865 -0.1614
 2395TIP3    H2 7150   1.728   1.563   0.810 -0.5891 -3.0426  0.5605
 2396TIP3   OH2 7151   4.072   6.061   1.875  0.1150  0.2494 -0.0247
 2396TIP3    H1 7152   4.159   6.022   1.873  0.2603  0.5384  0.4635
 2396TIP3    H2 7153   4.028   6.027   1.797 -0.0805 -1.6283  0.8448
 2397TIP3   OH2 7154   0.895   4.335   4.576 -0.2995  0.0803 -0.2684
 2397TIP3    H1 7155   0.921   4.243   4.570  2.1413  0.7751 -1.9435
 2397TIP3    H2 7156   0.902   4.356   4.669 -1.3093 -1.4833  0.2005
 2398TIP3   OH2 7157   0.833   3.812   5.762  0.3945 -0.8626 -0.1720
 2398TIP3    H1 7158   0.924   3.835   5.744  1.7590 -3.5712  2.2965
 2398TIP3    H2 7159   0.813   3.857   5.844  0.0405 -1.3454  0.0149
 2399TIP3   OH2 7160   0.856   3.063   3.067  0.0710 -0.0521  0.5928
 2399TIP3    H1 7161   0.835   3.114   2.989 -1.6000 -0.7963  0.5062
 2399TIP3    H2 7162   0.853   3.126   3.139 -0.9231  0.1798  0.3565
 2400TIP3   OH2 7163   6.623   4.447   2.480  0.4323 -0.4682 -0.0908
 2400TIP3    H1 7164   6.561   4.494   2.424 -1.7749 -2.6312  0.3844
 2400TIP3    H2 7165   6.629   4.360   2.441 -0.1405 -1.6076  2.2092
 2401TIP3   OH2 7166   6.556   5.842   5.557 -0.5182  0.3571 -0.7941
 2401TIP3    H1 7167   6.566   5.937   5.568 -0.0003  0.3103 -0.8140
 2401TIP3    H2 7168   6.513   5.813   5.637 -2.5638  0.8774 -1.6279
 2402TIP3   OH2 7169   0.734   3.361   1.124 -0.1122  0.0780  0.2897
 2402TIP3    H1 7170   0.742   3.446   1.081 -1.1945  0.4597  0.7885
 2402TIP3    H2 7171   0.733   3.298   1.053  0.9974  0.4451 -0.0733
 2403TIP3   OH2 7172   7.176   3.306   5.461  0.3079  0.1163 -0.2749
 2403TIP3    H1 7173   7.111   3.373   5.439  0.5523 -0.0278 -1.5612
 2403TIP3    H2 7174   7.206   3.273   5.376  0.6559 -1.1846  0.3173
 2404TIP3   OH2 7175   0.620   3.286   5.208 -0.2225 -0.6852  0.2275
 2404TIP3    H1 7176   0.566   3.365   5.208 -1.8818 -1.7795 -0.2563
 2404TIP3    H2 7177   0.559   3.214   5.223  0.7961 -2.1510 -2.0146
 2405TIP3   OH2 7178   4.408   3.018   1.269 -0.0119 -0.4019 -0.0842
 2405TIP3    H1 7179   4.338   2.990   1.210  0.8173 -1.2922 -0.6814
 2405TIP3    H2 7180   4.372   3.094   1.315 -1.2352 -0.6292 -0.6242
 2406TIP3   OH2 7181   5.402   0.398   0.433  0.0550  0.3344 -0.2990
 2406TIP3    H1 7182   5.370   0.311   0.408 -0.8219 -0.3778  2.8001
 2406TIP3    H2 7183   5.342   0.426   0.503  1.9820  2.1714  0.7367
 2407TIP3   OH2 7184   7.249   1.830   0.791 -0.4723 -0.4740  0.0355
 2407TIP3    H1 7185   7.262   1.735   0.798 -0.6293 -0.4008  1.5504
 2407TIP3    H2 7186   7.158   1.843   0.820 -0.2603  0.1933  0.4082
 2408TIP3   OH2 7187   1.690   4.679   3.225 -0.0964 -0.1742  0.0189
 2408TIP3    H1 7188   1.655   4.741   3.160  0.0664  0.8720  0.9033
 2408TIP3    H2 7189   1.664   4.715   3.309  1.5056 -0.3638  0.6286
 2409TIP3   OH2 7190   4.756   6.114   2.834 -0.5788  0.2741 -0.0252
 2409TIP3    H1 7191   4.718   6.030   2.808 -0.0885 -0.4398  1.4529
 2409TIP3    H2 7192   4.682   6.174   2.838 -1.1371 -0.4121  0.1313
 2410TIP3   OH2 7193   4.010   1.380   0.743 -0.2057  0.5445  0.3435
 2410TIP3    H1 7194   4.091   1.429   0.729 -1.5789  2.5445 -1.1386
 2410TIP3    H2 7195   3.941   1.445   0.733 -2.1384 -1.6203 -1.5185
 2411TIP3   OH2 7196   4.655   2.433   4.373 -0.5772 -0.1456 -0.0381
 2411TIP3    H1 7197   4.633   2.524   4.393  0.9959 -0.0393  1.4642
 2411TIP3    H2 7198   4.708   2.439   4.293 -0.2202  0.3001  0.2249
 2412TIP3   OH2 7199   5.996   1.766   0.295 -0.2585 -0.1487 -0.8396
 2412TIP3    H1 7200   6.060   1.695   0.307  0.4475  0.6368  0.1486
 2412TIP3    H2 7201   6.000   1.816   0.376 -1.3372  0.5727 -1.2105
 2413TIP3   OH2 7202   6.892   5.622   0.559  0.3859 -0.1197  0.2461
 2413TIP3    H1 7203   6.879   5.688   0.491  1.2700  1.2506  1.3662
 2413TIP3    H2 7204   6.986   5.603   0.556  0.5077  0.2386  1.3043
 2414TIP3   OH2 7205   0.485   3.298   3.344 -0.1440  0.2740 -0.1617
 2414TIP3    H1 7206   0.527   3.224   3.387 -0.4239 -0.4433 -1.1024
 2414TIP3    H2 7207   0.490   3.369   3.408  0.7686 -0.3478  0.4756
 2415TIP3   OH2 7208   6.317   1.279   0.492  0.2804  0.6994 -0.4766
 2415TIP3    H1 7209   6.370   1.200   0.501 -1.2904 -0.7190 -2.6770
 2415TIP3    H2 7210   6.248   1.269   0.558  1.1462  1.2536  0.5636
 2416TIP3   OH2 7211   3.628   2.412   3.407  0.5710  0.7828 -0.1101
 2416TIP3    H1 7212   3.673   2.392   3.489  1.1953 -0.3273 -0.7089
 2416TIP3    H2 7213   3.555   2.469   3.433 -0.2777 -0.9223  1.4572
 2417TIP3   OH2 7214   4.337   4.470   5.014  0.4855 -0.1421  0.6036
 2417TIP3    H1 7215   4.288   4.397   5.051  0.2302  0.0087  0.5597
 2417TIP3    H2 7216   4.324   4.542   5.076 -0.2928  0.2402  0.0069
 2418TIP3   OH2 7217   1.550   6.252   5.237 -0.4483  0.2459  0.0119
 2418TIP3    H1 7218   1.577   6.189   5.171 -3.1446 -0.6355 -0.3376
 2418TIP3    H2 7219   1.537   6.334   5.189  1.4420  0.7232  0.2023
 2419TIP3   OH2 7220   5.006   2.559   0.731  0.0526 -0.0374  0.4359
 2419TIP3    H1 7221   4.995   2.576   0.824 -0.6100 -0.2519  0.4060
 2419TIP3    H2 7222   4.919   2.573   0.694  0.3579  0.2426 -0.1830
 2420TIP3   OH2 7223   0.892   0.887   0.342  0.3459  0.3552 -0.7224
 2420TIP3    H1 7224   0.929   0.974   0.353 -1.4850  1.1931 -0.7708
 2420TIP3    H2 7225   0.966   0.827   0.352  1.4718  1.8561  0.2741
 2421TIP3   OH2 7226   1.063   4.136   1.383  0.6423  0.4972  0.6711
 2421TIP3    H1 7227   1.145   4.112   1.428  0.5749 -3.1527 -0.8660
 2421TIP3    H2 7228   1.091   4.161   1.295  0.1488 -0.3171  0.2807
 2422TIP3   OH2 7229   2.440   3.545   4.576  0.1755 -0.1761  0.2034
 2422TIP3    H1 7230   2.372   3.530   4.510  1.5729  0.0046 -1.3231
 2422TIP3    H2 7231   2.399   3.517   4.658 -0.8898 -2.4813 -1.0063
 2423TIP3   OH2 7232   3.274   3.276   1.301 -0.3966  0.4526  0.2121
 2423TIP3    H1 7233   3.297   3.202   1.358  1.3927  0.0576 -0.9586
 2423TIP3    H2 7234   3.262   3.237   1.215  1.9597  1.6258 -0.7359
 2424TIP3   OH2 7235   2.282   3.682   2.777  0.2860  0.0200  0.2565
 2424TIP3    H1 7236   2.313   3.638   2.856  1.4636 -0.0431 -0.2261
 2424TIP3    H2 7237   2.245   3.612   2.724 -1.0565  0.1398  0.9659
 2425TIP3   OH2 7238   6.239   0.309   1.458  0.5706  0.0827 -0.5939
 2425TIP3    H1 7239   6.204   0.231   1.416  0.6831  0.1506 -0.8120
 2425TIP3    H2 7240   6.219   0.297   1.551  0.3393 -0.0739 -0.6643
 2426TIP3   OH2 7241   2.000   3.038   3.029  0.0350  0.1792 -0.0931
 2426TIP3    H1 7242   1.937   3.084   3.083 -0.3844  0.0901 -0.5049
 2426TIP3    H2 7243   2.081   3.038   3.081  0.5727  2.9090 -0.7655
 2427TIP3   OH2 7244   3.756   4.304   4.889 -0.3862  0.1170 -0.2409
 2427TIP3    H1 7245   3.715   4.390   4.884 -1.6309 -0.4734 -0.5136
 2427TIP3    H2 7246   3.683   4.243   4.901  0.2477 -1.1318 -2.2078
 2428TIP3   OH2 7247   1.771   1.699   2.643  0.5491 -0.1073  0.0199
 2428TIP3    H1 7248   1.855   1.665   2.614  2.0625  0.7727  2.9181
 2428TIP3    H2 7249   1.748   1.645   2.719 -1.4868 -0.2590 -0.6342
 2429TIP3   OH2 7250   0.824   6.314   4.934 -0.6497  0.7048 -0.2069
 2429TIP3    H1 7251   0.903   6.308   4.988 -0.9713  1.6284  0.3872
 2429TIP3    H2 7252   0.777   6.390   4.968 -0.7983  1.4021 -1.8803
 2430TIP3   OH2 7253   5.717   6.065   5.390  0.4271 -1.1286  0.0487
 2430TIP3    H1 7254   5.784   5.997   5.399  1.0964 -0.9586 -2.7343
 2430TIP3    H2 7255   5.766   6.146   5.379 -0.2315 -0.8423 -0.9363
 2431TIP3   OH2 7256   3.299   5.729   2.655 -0.3106  0.3324  0.2517
 2431TIP3    H1 7257   3.330   5.639   2.644  1.5292  0.8352  0.7875
 2431TIP3    H2 7258   3.368   5.783   2.615 -0.0830  1.5881  2.1873
 2432TIP3   OH2 7259   3.541   1.112   1.739  0.3712  0.3880  0.3514
 2432TIP3    H1 7260   3.455   1.109   1.781  0.5220  0.7425  0.6945
 2432TIP3    H2 7261   3.522   1.124   1.646  0.0270 -0.6622  0.2789
 2433TIP3   OH2 7262   5.326   5.765   0.739  0.2800 -0.0201 -0.1308
 2433TIP3    H1 7263   5.368   5.754   0.653  0.2363  1.3767 -0.3517
 2433TIP3    H2 7264   5.398   5.790   0.797  0.5060 -2.0462  0.5145
 2434TIP3   OH2 7265   0.073   2.738   0.903  0.2761  0.5159 -0.9452
 2434TIP3    H1 7266   0.150   2.737   0.960 -0.6502 -0.9453  0.3434
 2434TIP3    H2 7267   0.045   2.830   0.903  0.2055  0.5456  1.1548
 2435TIP3   OH2 7268   3.785   5.515   4.305 -0.0330 -0.4828 -0.0896
 2435TIP3    H1 7269   3.701   5.559   4.317 -0.0518 -0.9517  1.8537
 2435TIP3    H2 7270   3.783   5.484   4.215 -0.7362  1.9464 -0.9969
 2436TIP3   OH2 7271   3.289   3.862   0.725 -0.1549  0.2190  0.0880
 2436TIP3    H1 7272   3.305   3.771   0.750  1.8660  0.8700  1.3729
 2436TIP3    H2 7273   3.261   3.857   0.633 -1.1559 -1.7400  0.4366
 2437TIP3   OH2 7274   6.327   2.658   5.777 -0.8839  0.6891 -0.2225
 2437TIP3    H1 7275   6.295   2.640   5.865  2.4036 -2.3851  0.5737
 2437TIP3    H2 7276   6.249   2.660   5.723 -2.9084  1.3545  2.5098
 2438TIP3   OH2 7277   3.849   1.354   2.618  0.3211 -0.1852  0.5092
 2438TIP3    H1 7278   3.874   1.302   2.542 -0.4591  0.5272 -0.2644
 2438TIP3    H2 7279   3.802   1.294   2.675  0.7049 -0.6674  0.3221
 2439TIP3   OH2 7280   4.264   5.662   5.353  0.2556 -0.4707  0.1280
 2439TIP3    H1 7281   4.283   5.703   5.269  1.2109  0.3658  0.7316
 2439TIP3    H2 7282   4.281   5.569   5.339  3.5683 -0.0013  0.1955
 2440TIP3   OH2 7283   2.002   0.254   1.328 -0.5545 -0.0800 -0.2541
 2440TIP3    H1 7284   2.092   0.245   1.359  0.0672 -3.1721 -2.4517
 2440TIP3    H2 7285   2.005   0.326   1.265 -0.3657  1.7477  1.7213
 2441TIP3   OH2 7286   3.732   5.096   5.497  0.3642  0.3035  0.2515
 2441TIP3    H1 7287   3.700   5.181   5.529 -1.1519  0.4062 -1.3666
 2441TIP3    H2 7288   3.661   5.035   5.516  1.9009 -0.9263  2.4527
 2442TIP3   OH2 7289   0.423   3.714   3.843  0.7474 -0.4944  0.2564
 2442TIP3    H1 7290   0.477   3.763   3.905  0.1987  0.3696  0.0834
 2442TIP3    H2 7291   0.485   3.675   3.782  1.2081  0.0450  0.3680
 2443TIP3   OH2 7292   6.870   0.579   1.789 -0.4206  0.1948  0.5522
 2443TIP3    H1 7293   6.839   0.502   1.740 -0.7690  1.2349 -0.9427
 2443TIP3    H2 7294   6.791   0.614   1.830 -0.2029 -0.4263  1.5219
 2444TIP3   OH2 7295   5.730   5.984   4.947  0.2756 -0.1882  0.1361
 2444TIP3    H1 7296   5.806   5.959   5.000  0.8369  2.9886  1.0369
 2444TIP3    H2 7297   5.767   6.018   4.866  0.0590  2.9143  1.2271
 2445TIP3   OH2 7298   6.861   4.157   5.595  0.3927 -0.2188 -0.3147
 2445TIP3    H1 7299   6.939   4.113   5.562  1.0685 -0.9566  2.0980
 2445TIP3    H2 7300   6.821   4.095   5.657 -2.8330 -0.3577 -2.2857
 2446TIP3   OH2 7301   7.069   6.052   4.631  0.0873 -0.3828 -0.1193
 2446TIP3    H1 7302   7.035   6.108   4.562 -0.4329 -0.9225 -0.3063
 2446TIP3    H2 7303   7.059   5.963   4.598 -0.6925 -0.6871  0.8525
 2447TIP3   OH2 7304   0.143   0.048   4.412 -0.3326  0.7541 -0.1536
 2447TIP3    H1 7305   0.153   0.017   4.322  0.6792  2.1287 -0.5437
 2447TIP3    H2 7306   0.109  -0.028   4.460  0.8855 -0.5634 -1.3042
 2448TIP3   OH2 7307   5.142   4.039   1.294  0.2974 -0.0304  0.5315
 2448TIP3    H1 7308   5.117   4.116   1.243  0.2864 -0.4729 -0.1374
 2448TIP3    H2 7309   5.144   4.070   1.385 -2.6653  0.0409  0.6444
 2449TIP3   OH2 7310   2.848   4.866   1.608  0.1352 -0.0005 -0.5612
 2449TIP3    H1 7311   2.909   4.939   1.610  1.2346 -0.8797 -0.9251
 2449TIP3    H2 7312   2.889   4.801   1.551 -0.1779 -1.4177  0.7310
 2450TIP3   OH2 7313   6.878   2.064   5.504  0.2929  0.2959  0.0220
 2450TIP3    H1 7314   6.932   2.138   5.532  0.6373 -0.1345  0.5004
 2450TIP3    H2 7315   6.930   2.022   5.435 -0.2351  0.9272 -0.7914
 2451TIP3   OH2 7316   4.213   1.711   2.444 -0.6187 -0.3302 -0.0665
 2451TIP3    H1 7317   4.285   1.766   2.476  1.1601 -0.9510 -2.6775
 2451TIP3    H2 7318   4.251   1.623   2.438 -2.5042 -1.2863  1.1729
 2452TIP3   OH2 7319   2.058   6.212   2.681  0.3606  0.3340 -0.1971
 2452TIP3    H1 7320   2.106   6.250   2.754  0.0032  2.3052 -0.9295
 2452TIP3    H2 7321   2.010   6.138   2.719  1.9245 -0.0845  1.0623
 2453TIP3   OH2 7322   7.182   4.520   3.480 -0.8208 -0.0996 -0.0224
 2453TIP3    H1 7323   7.184   4.614   3.463  1.9485 -0.2635 -1.0593
 2453TIP3    H2 7324   7.230   4.510   3.563 -0.2010 -0.6456 -0.4347
 2454TIP3   OH2 7325   6.760   6.364   1.651  0.2090  0.2788  0.0140
 2454TIP3    H1 7326   6.807   6.285   1.623 -0.8202  0.1961 -1.5505
 2454TIP3    H2 7327   6.766   6.423   1.577 -0.1001  1.2179  0.7182
 2455TIP3   OH2 7328   6.429   5.462   4.405  0.3306 -0.9644  0.0110
 2455TIP3    H1 7329   6.490   5.389   4.411 -0.2287 -1.3575  1.1067
 2455TIP3    H2 7330   6.351   5.426   4.364  0.7635 -0.4922 -1.2722
 2456TIP3   OH2 7331   2.594   1.721   1.737  0.2196 -0.2251 -0.5924
 2456TIP3    H1 7332   2.564   1.631   1.723  0.0671 -0.3538  0.5274
 2456TIP3    H2 7333   2.675   1.712   1.787  0.2788  0.2560 -0.5956
 2457TIP3   OH2 7334   4.701   4.129   2.946 -0.0310  0.2511  0.2922
 2457TIP3    H1 7335   4.616   4.168   2.924  0.0399  0.3419  0.1773
 2457TIP3    H2 7336   4.708   4.054   2.888  0.9149  1.4645 -1.2220
 2458TIP3   OH2 7337   1.872   0.621   3.600  0.3092 -0.7411 -0.5641
 2458TIP3    H1 7338   1.842   0.555   3.538  1.1872 -1.3403 -0.3673
 2458TIP3    H2 7339   1.901   0.571   3.677 -1.5405  0.0322  0.6922
 2459TIP3   OH2 7340   5.266   5.992   4.727  0.1033 -0.0977  0.1414
 2459TIP3    H1 7341   5.215   5.928   4.678 -0.0223  0.5112 -0.5392
 2459TIP3    H2 7342   5.357   5.974   4.702 -0.0092  0.6172 -0.8198
 2460TIP3   OH2 7343   0.324   2.788   0.063 -0.6841 -0.6040  0.3021
 2460TIP3    H1 7344   0.399   2.758   0.114  0.2272 -1.6269 -1.5342
 2460TIP3    H2 7345   0.355   2.868   0.020 -0.3307 -1.4375 -1.0551
 2461TIP3   OH2 7346   3.119   1.320   2.124  0.3511 -0.0031 -0.4842
 2461TIP3    H1 7347   3.171   1.240   2.122  1.0761  0.2950  2.1031
 2461TIP3    H2 7348   3.029   1.291   2.109  0.8037 -1.0710 -1.1767
 2462TIP3   OH2 7349   2.918   5.855   3.903  0.2399  0.3137 -0.2860
 2462TIP3    H1 7350   2.896   5.762   3.902 -0.8940  0.5717 -0.1632
 2462TIP3    H2 7351   2.909   5.883   3.812 -0.0944  0.4509 -0.2134
 2463TIP3   OH2 7352   3.149   5.219   4.967 -0.0984  0.1847  0.6079
 2463TIP3    H1 7353   3.092   5.233   4.891 -0.1084 -0.7038  0.4352
 2463TIP3    H2 7354   3.091   5.231   5.042 -0.1921  0.6385  0.4664
 2464TIP3   OH2 7355   6.679   0.761   1.475 -0.2098  0.0886  0.3714
 2464TIP3    H1 7356   6.763   0.756   1.430  0.8057  0.8754  2.0820
 2464TIP3    H2 7357   6.659   0.671   1.500 -0.1114 -0.1601 -0.4061
 2465TIP3   OH2 7358   2.825   1.420   3.962 -0.5376  0.2734 -0.0396
 2465TIP3    H1 7359   2.751   1.395   3.907 -1.4868  0.2554  1.2043
 2465TIP3    H2 7360   2.816   1.514   3.974  0.9269  0.6899 -1.6591
 2466TIP3   OH2 7361   5.304   3.046   1.501  0.0430 -0.0913 -0.1023
 2466TIP3    H1 7362   5.380   2.989   1.516 -0.3298 -0.1227  2.0574
 2466TIP3    H2 7363   5.231   2.998   1.540 -0.7555  0.7121 -0.5992
 2467TIP3   OH2 7364   4.512   2.088   3.872 -0.3696 -0.2121 -0.2261
 2467TIP3    H1 7365   4.497   2.055   3.783 -0.0436  0.0841 -0.3963
 2467TIP3    H2 7366   4.563   2.019   3.915 -0.5402 -0.3625 -0.2621
 2468TIP3   OH2 7367   2.040   6.082   2.369  0.1255  0.1307  0.3074
 2468TIP3    H1 7368   2.084   6.144   2.310  0.6844 -1.1243 -0.6373
 2468TIP3    H2 7369   1.948   6.110   2.367  0.1945  0.3309 -0.8959
 2469TIP3   OH2 7370   4.267   2.698   0.610  0.0585  0.4126 -0.3205
 2469TIP3    H1 7371   4.335   2.638   0.577 -1.9915 -0.8421 -2.5836
 2469TIP3    H2 7372   4.221   2.647   0.676  1.9628  1.7155  2.1961
 2470TIP3   OH2 7373   4.079   3.925   1.178  0.4387 -0.4405  0.3184
 2470TIP3    H1 7374   4.051   4.008   1.218  0.6801 -0.5986  0.8199
 2470TIP3    H2 7375   4.172   3.937   1.161  0.4862 -0.6255  0.4404
 2471TIP3   OH2 7376   2.952   2.161   2.749 -0.0963  0.1678 -0.3962
 2471TIP3    H1 7377   2.882   2.158   2.814 -0.3319  0.2230 -0.6463
 2471TIP3    H2 7378   3.025   2.115   2.790 -0.3799 -0.1632 -0.2539
 2472TIP3   OH2 7379   4.981   5.010   0.310  0.1910  0.2828  0.0329
 2472TIP3    H1 7380   5.040   4.979   0.378  1.2125 -1.7540 -1.6702
 2472TIP3    H2 7381   5.019   5.093   0.282  2.1892 -0.8452 -0.8259
 2473TIP3   OH2 7382   5.270   3.010   1.795  0.4038  0.0468  0.2882
 2473TIP3    H1 7383   5.253   2.933   1.740  1.0060 -1.6090  2.2896
 2473TIP3    H2 7384   5.365   3.016   1.800  0.3836 -0.3743  1.7670
 2474TIP3   OH2 7385   5.334   6.555   2.824 -0.0474 -0.1688  0.0341
 2474TIP3    H1 7386   5.294   6.618   2.884 -2.2204 -0.8021 -0.6523
 2474TIP3    H2 7387   5.304   6.470   2.856  0.2591 -0.6302 -0.8732
 2475TIP3   OH2 7388   6.472   3.234   4.403 -0.1148 -0.0309 -0.8190
 2475TIP3    H1 7389   6.502   3.243   4.312  1.5738 -0.8010 -0.3932
 2475TIP3    H2 7390   6.468   3.323   4.436  2.6033  0.1320 -0.7036
 2476TIP3   OH2 7391   5.395   4.736   0.460  0.1842 -0.6024  0.3289
 2476TIP3    H1 7392   5.450   4.725   0.538  1.2154  2.5037  0.1756
 2476TIP3    H2 7393   5.456   4.732   0.387 -0.0066  1.1747  0.0377
 2477TIP3   OH2 7394   1.902   6.293   2.046 -0.6668 -0.8833 -0.2468
 2477TIP3    H1 7395   1.855   6.375   2.034  0.4325 -0.3213 -0.9450
 2477TIP3    H2 7396   1.990   6.311   2.014  0.2022 -1.7290  1.4822
 2478TIP3   OH2 7397   0.463   2.203   3.903 -0.5034  0.3350 -0.1751
 2478TIP3    H1 7398   0.552   2.187   3.933 -0.8659 -3.4235 -0.6367
 2478TIP3    H2 7399   0.410   2.138   3.949 -2.6588  0.9389 -1.6413
 2479TIP3   OH2 7400   4.508   1.264   2.599 -0.1931  0.0228 -0.7948
 2479TIP3    H1 7401   4.414   1.275   2.611 -0.7309 -2.6125 -1.9427
 2479TIP3    H2 7402   4.526   1.176   2.633  1.8308  0.3605 -0.8674
 2480TIP3   OH2 7403   3.953   5.059   0.953  0.2641  0.7605  0.0111
 2480TIP3    H1 7404   4.029   5.081   1.006  0.8378  0.4101 -0.6402
 2480TIP3    H2 7405   3.987   5.053   0.863  0.1674 -2.5406  0.0640
 2481TIP3   OH2 7406   5.111   5.902   0.242  0.3755 -0.2834 -0.7809
 2481TIP3    H1 7407   5.019   5.924   0.252  0.3347 -1.4568  2.3477
 2481TIP3    H2 7408   5.112   5.812   0.209  0.3951 -0.4172 -0.4166
 2482TIP3   OH2 7409   6.721   1.302   0.525 -0.2814 -0.0406  0.0901
 2482TIP3    H1 7410   6.811   1.326   0.547  0.0646 -1.1349 -0.0607
 2482TIP3    H2 7411   6.692   1.370   0.464  1.0664 -0.6005 -1.2450
 2483TIP3   OH2 7412   4.599   3.221   3.793  0.4522  0.2215 -0.0390
 2483TIP3    H1 7413   4.617   3.249   3.703  0.3320  0.9139  0.1510
 2483TIP3    H2 7414   4.534   3.152   3.784 -1.5881  2.0926 -0.3438
 2484TIP3   OH2 7415   0.641   3.842   0.833  0.3419 -0.0311 -0.2009
 2484TIP3    H1 7416   0.681   3.845   0.746  1.6752 -1.2305  0.3261
 2484TIP3    H2 7417   0.558   3.796   0.820  0.1489  0.4949 -0.9424
 2485TIP3   OH2 7418   6.240   0.973   1.265  0.0447 -0.5552  0.2436
 2485TIP3    H1 7419   6.278   0.885   1.274  0.8635 -0.2151  0.0979
 2485TIP3    H2 7420   6.283   1.024   1.333 -1.0060 -0.4508  0.8494
 2486TIP3   OH2 7421   0.505   4.430   4.534 -0.4427  0.6116  0.2636
 2486TIP3    H1 7422   0.509   4.337   4.555  2.0058  0.1355 -1.8387
 2486TIP3    H2 7423   0.576   4.444   4.472 -1.4405  3.6794 -0.3776
 2487TIP3   OH2 7424   3.232   3.435   2.075  0.5410  0.0659  0.0410
 2487TIP3    H1 7425   3.243   3.364   2.138 -0.6289  0.1628  0.3816
 2487TIP3    H2 7426   3.144   3.423   2.039 -0.1975  2.0386  1.0244
 2488TIP3   OH2 7427   2.726   4.816   4.994  0.7731  0.0984 -0.3011
 2488TIP3    H1 7428   2.677   4.898   5.001 -0.4315 -0.5397 -0.9359
 2488TIP3    H2 7429   2.668   4.750   5.034  1.3531 -0.5775 -0.5527
 2489TIP3   OH2 7430   0.919   1.761   4.219  0.8874 -0.1009  0.1284
 2489TIP3    H1 7431   0.824   1.766   4.217  0.7749 -1.8620  0.0606
 2489TIP3    H2 7432   0.947   1.809   4.141 -0.0135 -0.7407 -0.6056
 2490TIP3   OH2 7433   4.107   0.360   1.668 -0.1564 -0.0953  0.0556
 2490TIP3    H1 7434   4.048   0.374   1.742 -0.4531 -0.2090 -0.1562
 2490TIP3    H2 7435   4.052   0.320   1.601  0.5586 -1.7993  0.4524
 2491TIP3   OH2 7436   3.616   5.502   2.560  0.1278  0.1207 -0.5394
 2491TIP3    H1 7437   3.534   5.470   2.597 -0.2522 -0.0504 -1.5112
 2491TIP3    H2 7438   3.592   5.582   2.514  0.0676 -1.0754 -2.7097
 2492TIP3   OH2 7439   5.104   6.570   4.747  0.3706  0.5109 -0.1241
 2492TIP3    H1 7440   5.108   6.477   4.769  0.1723  0.1236 -1.6250
 2492TIP3    H2 7441   5.182   6.585   4.694 -0.1025  0.9600 -0.7088
 2493TIP3   OH2 7442   5.911   0.322   0.148  0.4826  0.2008 -0.3036
 2493TIP3    H1 7443   5.977   0.344   0.214  0.7944  1.4910 -1.0120
 2493TIP3    H2 7444   5.844   0.389   0.156  0.5352  0.3966 -1.2919
 2494TIP3   OH2 7445   2.166   0.696   1.774  0.0519 -0.6530  0.1640
 2494TIP3    H1 7446   2.081   0.652   1.772  0.3712 -1.2813 -2.3815
 2494TIP3    H2 7447   2.181   0.714   1.867 -2.6717 -0.8398  0.7158
 2495TIP3   OH2 7448   3.602   3.953   4.038 -0.4560 -0.1242 -0.0530
 2495TIP3    H1 7449   3.680   3.897   4.044 -0.3211  0.0377 -0.3037
 2495TIP3    H2 7450   3.582   3.975   4.129 -0.3807 -0.4002  0.0330
 2496TIP3   OH2 7451   5.304   1.034   3.979  0.2175 -0.4288 -0.3339
 2496TIP3    H1 7452   5.263   1.047   3.893  0.3746  1.4745 -0.1515
 2496TIP3    H2 7453   5.393   1.005   3.958  0.5867  1.0184 -0.8610
 2497TIP3   OH2 7454   5.497   5.626   0.178  0.3780 -0.3148 -0.2656
 2497TIP3    H1 7455   5.508   5.717   0.150  0.8210 -0.7240 -1.4893
 2497TIP3    H2 7456   5.563   5.615   0.247  0.7220  0.1279 -0.5153
 2498TIP3   OH2 7457   7.108   2.333   5.397  0.0219 -0.4878  0.5304
 2498TIP3    H1 7458   7.027   2.361   5.355 -1.0683 -1.4407  1.9012
 2498TIP3    H2 7459   7.170   2.405   5.381 -1.5196  0.9312  0.7147
 2499TIP3   OH2 7460   1.938   5.888   5.569 -0.0637  0.1268 -0.0368
 2499TIP3    H1 7461   1.877   5.946   5.614  0.4739  1.8643 -1.4110
 2499TIP3    H2 7462   1.925   5.908   5.476  1.4082 -0.6754 -0.4421
 2500TIP3   OH2 7463   1.874   5.465   3.130 -0.6025  0.2083 -0.5728
 2500TIP3    H1 7464   1.916   5.387   3.094 -0.9211 -0.2084 -0.0462
 2500TIP3    H2 7465   1.903   5.468   3.221  0.6696  1.5881 -0.9853
 2501TIP3   OH2 7466   3.161   2.300   4.772 -0.4376 -0.2172 -0.0699
 2501TIP3    H1 7467   3.099   2.340   4.833 -0.4208 -0.4711  0.1149
 2501TIP3    H2 7468   3.116   2.222   4.740  0.4910 -1.4825  1.5115
 2502TIP3   OH2 7469   1.868   2.016   3.789 -0.2529  0.1177  0.2403
 2502TIP3    H1 7470   1.862   1.942   3.729 -0.9895  0.5639 -0.2455
 2502TIP3    H2 7471   1.961   2.022   3.811 -0.1587 -0.7997  0.0967
 2503TIP3   OH2 7472   4.164   3.580   5.293 -0.0814  0.5194 -0.0060
 2503TIP3    H1 7473   4.141   3.672   5.288  2.4148  1.3680  2.0195
 2503TIP3    H2 7474   4.250   3.574   5.253  1.2885 -0.2100  2.7847
 2504TIP3   OH2 7475   4.376   6.521   2.019  0.0613  0.1087  0.7286
 2504TIP3    H1 7476   4.413   6.507   1.932 -1.1140 -0.3511  0.2858
 2504TIP3    H2 7477   4.445   6.566   2.067  0.8351  0.1179 -0.3524
 2505TIP3   OH2 7478   2.250   1.680   1.518  0.4652  0.0686 -0.1295
 2505TIP3    H1 7479   2.214   1.740   1.452  0.6027 -2.0432 -2.2528
 2505TIP3    H2 7480   2.345   1.682   1.501  0.6150  0.2901  0.7211
 2506TIP3   OH2 7481   5.844   5.882   1.130  0.1631  0.0259  0.6175
 2506TIP3    H1 7482   5.773   5.945   1.117 -0.1256 -0.6478 -1.3934
 2506TIP3    H2 7483   5.804   5.812   1.181 -0.7331 -0.4766 -0.7271
 2507TIP3   OH2 7484   0.970   4.402   2.964 -0.3417  0.5391 -0.6560
 2507TIP3    H1 7485   0.950   4.450   3.045 -1.9418  0.0761 -0.7455
 2507TIP3    H2 7486   1.002   4.470   2.904 -1.4431  1.3308 -0.3981
 2508TIP3   OH2 7487   4.787   1.680   4.214  0.5487 -0.3527 -0.1307
 2508TIP3    H1 7488   4.773   1.592   4.179  0.6754 -1.0054  1.3646
 2508TIP3    H2 7489   4.878   1.681   4.242  0.2767 -0.1219  0.8028
 2509TIP3   OH2 7490   0.468   1.268   5.009 -0.1263 -0.0260  0.3180
 2509TIP3    H1 7491   0.382   1.308   5.013 -0.0662  0.1050  0.2834
 2509TIP3    H2 7492   0.472   1.227   4.922 -0.2396 -0.2247  0.4049
 2510TIP3   OH2 7493   0.032   2.303   1.756 -0.3806  0.0857  0.2841
 2510TIP3    H1 7494  -0.024   2.251   1.699 -0.5958 -0.3523  0.8909
 2510TIP3    H2 7495   0.109   2.323   1.703 -0.9233  0.3513 -0.4215
 2511TIP3   OH2 7496   5.545   3.842   5.454  0.1936  0.5152  0.5375
 2511TIP3    H1 7497   5.565   3.928   5.490  0.1714 -0.1235  2.1178
 2511TIP3    H2 7498   5.609   3.830   5.383 -0.1263  2.0187 -0.0402
 2512TIP3   OH2 7499   2.711   2.002   4.564  0.3882 -0.0365  0.7016
 2512TIP3    H1 7500   2.726   2.057   4.640 -0.9693  1.1401  0.1636
 2512TIP3    H2 7501   2.661   2.057   4.504 -0.0013 -1.4748 -0.3501
 2513TIP3   OH2 7502   3.824   4.127   1.948 -0.0597 -0.0062 -0.5831
 2513TIP3    H1 7503   3.812   4.203   2.004 -0.0514  0.4875 -1.2423
 2513TIP3    H2 7504   3.907   4.143   1.903  0.4934 -0.9263  0.0771
 2514TIP3   OH2 7505   5.050   0.161   0.716  0.5553  0.0096 -0.2469
 2514TIP3    H1 7506   5.100   0.234   0.752  1.2933  0.3314 -1.8173
 2514TIP3    H2 7507   5.025   0.190   0.628  1.1079 -1.7053 -1.0192
 2515TIP3   OH2 7508   7.146   5.822   2.666 -0.1506  0.3608 -0.0966
 2515TIP3    H1 7509   7.149   5.881   2.591  0.8800  1.3066  0.6539
 2515TIP3    H2 7510   7.218   5.761   2.652  0.3505  0.8407  0.3483
 2516TIP3   OH2 7511   0.866   0.791   4.877 -0.0146 -0.4039 -0.2471
 2516TIP3    H1 7512   0.918   0.813   4.954 -1.1883 -1.9151  1.0631
 2516TIP3    H2 7513   0.814   0.715   4.904  0.0638 -1.4633 -2.7918
 2517TIP3   OH2 7514   4.283   2.742   2.594 -0.1747 -0.0809 -0.2231
 2517TIP3    H1 7515   4.200   2.701   2.569  0.1805 -0.4556 -0.8160
 2517TIP3    H2 7516   4.316   2.688   2.666 -0.6463  0.3198  0.2992
 2518TIP3   OH2 7517   0.923   1.489   3.326 -0.5266 -0.0463  0.5445
 2518TIP3    H1 7518   1.012   1.521   3.314 -0.0513 -1.3689  0.3701
 2518TIP3    H2 7519   0.898   1.453   3.241 -1.1553  0.1400  0.6442
 2519TIP3   OH2 7520   6.781   5.751   1.831  0.1947 -0.0242  0.6959
 2519TIP3    H1 7521   6.749   5.733   1.742 -1.3968 -0.2156  1.2847
 2519TIP3    H2 7522   6.848   5.818   1.818  2.1253 -2.1215 -0.9379
 2520TIP3   OH2 7523   6.792   0.929   2.984  0.1494 -0.7181 -0.0365
 2520TIP3    H1 7524   6.854   1.003   2.985 -0.3239 -0.3162  0.9973
 2520TIP3    H2 7525   6.814   0.879   3.063 -1.2332 -0.2236  0.6897
 2521TIP3   OH2 7526   5.497   6.192   4.738  0.2080  0.4765  0.6385
 2521TIP3    H1 7527   5.492   6.180   4.833 -0.6370 -2.7358  0.3091
 2521TIP3    H2 7528   5.407   6.211   4.711 -0.3946 -2.4793  0.2038
 2522TIP3   OH2 7529   5.479   4.157   0.857 -0.8362  0.0358  0.1911
 2522TIP3    H1 7530   5.445   4.097   0.923  1.0821 -1.1826  0.1483
 2522TIP3    H2 7531   5.516   4.230   0.908 -3.1093  1.2404  0.2443
 2523TIP3   OH2 7532   2.207   3.316   3.510  0.6852 -0.5554  0.2302
 2523TIP3    H1 7533   2.270   3.334   3.441  1.3610 -1.7052  0.5220
 2523TIP3    H2 7534   2.131   3.368   3.487  0.7525 -1.1885 -1.5821
 2524TIP3   OH2 7535   1.396   6.700   4.518  0.4860  0.0309 -0.7140
 2524TIP3    H1 7536   1.412   6.727   4.608 -0.7970 -0.0188 -0.4395
 2524TIP3    H2 7537   1.305   6.727   4.501  0.8527  0.4693 -2.1503
 2525TIP3   OH2 7538   6.870   1.849   0.821 -0.5954  0.2967 -0.4843
 2525TIP3    H1 7539   6.836   1.786   0.758  2.0210 -1.3678 -0.3893
 2525TIP3    H2 7540   6.800   1.859   0.886 -1.2920 -2.1657 -0.7771
 2526TIP3   OH2 7541   5.541   0.601   3.985 -0.7271  0.3286  0.4657
 2526TIP3    H1 7542   5.446   0.603   3.991 -0.6696  0.0835  1.9175
 2526TIP3    H2 7543   5.566   0.521   4.031  0.0785 -1.1319 -2.2737
 2527TIP3   OH2 7544   4.563   3.584   1.704 -0.0470 -0.3607 -0.5390
 2527TIP3    H1 7545   4.530   3.580   1.794 -0.4952  0.5858 -0.6445
 2527TIP3    H2 7546   4.654   3.611   1.713  0.1900 -1.2080 -0.3299
 2528TIP3   OH2 7547   0.357   3.384   4.056 -0.1008 -0.0575  0.2277
 2528TIP3    H1 7548   0.390   3.307   4.102  0.1069  0.3142  0.7109
 2528TIP3    H2 7549   0.409   3.457   4.090  0.4431  0.1637 -1.0022
 2529TIP3   OH2 7550   1.518   1.664   2.522  0.3853  0.1304 -0.4659
 2529TIP3    H1 7551   1.602   1.681   2.564 -0.3791 -1.5089  1.9659
 2529TIP3    H2 7552   1.540   1.607   2.448  1.5687  1.2586 -1.0147
 2530TIP3   OH2 7553   5.289   2.131   2.202  0.3307  0.1575 -0.4096
 2530TIP3    H1 7554   5.381   2.135   2.176  0.3612  2.2039 -0.1252
 2530TIP3    H2 7555   5.243   2.182   2.136 -0.6933 -1.1772 -0.7731
 2531TIP3   OH2 7556   3.752   6.774   4.091  0.6998  0.5960 -0.2055
 2531TIP3    H1 7557   3.702   6.724   4.156  2.5198  0.0732  0.8776
 2531TIP3    H2 7558   3.758   6.716   4.015 -0.9041  0.9571 -0.6502
 2532TIP3   OH2 7559   0.143   0.127   1.731  0.0971 -0.2672 -0.3910
 2532TIP3    H1 7560   0.159   0.139   1.825  1.7364  1.6410 -0.8444
 2532TIP3    H2 7561   0.054   0.092   1.726  0.2175 -1.0789  1.8880
 2533TIP3   OH2 7562   2.561   5.957   3.866  0.4389  0.0433  0.4724
 2533TIP3    H1 7563   2.621   5.999   3.929 -0.4437  0.6528  0.9314
 2533TIP3    H2 7564   2.599   5.977   3.780 -0.6393  3.0602  0.5622
 2534TIP3   OH2 7565   6.560   0.269   4.782  0.2239  0.1613 -0.2268
 2534TIP3    H1 7566   6.612   0.230   4.711  0.9483  0.8004 -0.0631
 2534TIP3    H2 7567   6.609   0.248   4.862  0.0595  0.4964 -0.0356
 2535TIP3   OH2 7568   1.855   1.838   3.580 -0.0682  0.6227 -0.6335
 2535TIP3    H1 7569   1.765   1.813   3.558 -0.0722  0.1460 -0.1091
 2535TIP3    H2 7570   1.908   1.762   3.556  0.1313  0.7242 -0.5210
 2536TIP3   OH2 7571   6.551   6.116   1.156 -0.7439 -0.0255 -0.2419
 2536TIP3    H1 7572   6.617   6.051   1.133  1.6732  2.4223 -0.7608
 2536TIP3    H2 7573   6.524   6.154   1.073 -2.4653 -0.6177  0.0146
 2537TIP3   OH2 7574   7.107   5.758   4.855 -0.1719  0.4396  0.2526
 2537TIP3    H1 7575   7.035   5.736   4.795 -2.2962  0.7774  2.5337
 2537TIP3    H2 7576   7.077   5.837   4.900  0.9237 -0.2969  2.3895
 2538TIP3   OH2 7577   7.089   1.924   1.036 -0.1189  0.1026  1.0998
 2538TIP3    H1 7578   7.010   1.894   0.991  0.5846  0.0005 -0.0850
 2538TIP3    H2 7579   7.112   2.006   0.993  0.3356  0.2149  1.5463
 2539TIP3   OH2 7580   0.538   2.026   3.347  0.3033  0.5685 -0.4665
 2539TIP3    H1 7581   0.485   1.951   3.375  0.5194 -0.0612 -1.6550
 2539TIP3    H2 7582   0.601   1.989   3.285  1.7937  1.3966  0.5034
 2540TIP3   OH2 7583   0.676   5.516   3.136 -0.1209  0.0968 -0.0629
 2540TIP3    H1 7584   0.657   5.528   3.043 -1.2427  0.2126  0.1577
 2540TIP3    H2 7585   0.609   5.454   3.165 -0.1209  0.4827  0.7768
 2541TIP3   OH2 7586   3.370   6.667   1.391 -0.1462 -0.5673 -0.4474
 2541TIP3    H1 7587   3.421   6.681   1.470 -1.7313  0.5477  0.4449
 2541TIP3    H2 7588   3.311   6.595   1.412  0.1916 -1.0180 -1.0219
 2542TIP3   OH2 7589   1.218   1.618   2.766 -0.5089 -0.0791  0.1885
 2542TIP3    H1 7590   1.242   1.676   2.694 -0.5697 -1.9363 -1.4173
 2542TIP3    H2 7591   1.297   1.566   2.781 -1.5262 -2.1161 -1.0338
 2543TIP3   OH2 7592   3.447   6.690   2.202 -0.1725 -0.2520 -0.2321
 2543TIP3    H1 7593   3.441   6.598   2.224 -0.0025 -0.0742  0.5865
 2543TIP3    H2 7594   3.356   6.721   2.199 -0.1681  0.0699  1.8012
 2544TIP3   OH2 7595   0.910   6.472   1.776  0.5678  0.4007  1.0001
 2544TIP3    H1 7596   0.969   6.503   1.709 -0.4111 -0.7405 -0.4646
 2544TIP3    H2 7597   0.822   6.489   1.741  0.0237  0.5365  2.3638
 2545TIP3   OH2 7598   4.962   0.353   3.566 -0.0541 -0.3701  0.4984
 2545TIP3    H1 7599   5.037   0.310   3.606  0.6623  1.9791  1.8944
 2545TIP3    H2 7600   4.958   0.439   3.609 -3.8711 -0.5740  0.8620
 2546TIP3   OH2 7601   5.126   4.142   5.264  0.2585  0.3236 -0.3741
 2546TIP3    H1 7602   5.186   4.067   5.261 -1.2306 -0.8866 -1.1064
 2546TIP3    H2 7603   5.072   4.133   5.186 -1.1767  1.1458  0.4880
 2547TIP3   OH2 7604   1.601   0.723   4.871 -0.2717  0.1044  0.1953
 2547TIP3    H1 7605   1.639   0.644   4.910 -2.6927 -0.1209  2.4042
 2547TIP3    H2 7606   1.602   0.706   4.777 -1.7366 -3.1886  0.6082
 2548TIP3   OH2 7607   1.940   0.072   4.517 -0.0307 -0.1866 -0.2788
 2548TIP3    H1 7608   1.913   0.147   4.463 -0.0237 -1.1103 -1.6205
 2548TIP3    H2 7609   1.859   0.024   4.533  0.1365 -0.5071 -0.3937
 2549TIP3   OH2 7610   6.032   0.801   1.539 -0.6055  0.5033  0.1864
 2549TIP3    H1 7611   6.061   0.723   1.492  1.1337  0.5458  1.1193
 2549TIP3    H2 7612   5.939   0.808   1.519 -0.1481 -0.0020 -2.4645
 2550TIP3   OH2 7613   2.240   3.790   4.200 -0.4128  0.4083  0.3494
 2550TIP3    H1 7614   2.198   3.724   4.256 -0.9809  2.8258  3.0078
 2550TIP3    H2 7615   2.332   3.764   4.199 -0.8568 -1.2918 -0.0316
 2551TIP3   OH2 7616   4.892   6.588   2.608  0.0962  0.7555  0.3051
 2551TIP3    H1 7617   4.813   6.547   2.644  0.6989  0.1717  0.9956
 2551TIP3    H2 7618   4.862   6.631   2.528 -0.4537 -1.6409 -0.8871
 2552TIP3   OH2 7619   5.664   0.918   1.223 -0.4232  0.1352 -0.9038
 2552TIP3    H1 7620   5.634   0.830   1.200 -0.1844 -0.0880 -0.3893
 2552TIP3    H2 7621   5.585   0.963   1.253 -0.7679  0.4910 -2.3078
 2553TIP3   OH2 7622   2.238   2.545   3.100 -0.2233  0.5341  0.2209
 2553TIP3    H1 7623   2.258   2.457   3.067 -1.5012 -0.5811  2.1980
 2553TIP3    H2 7624   2.204   2.592   3.024  3.8877  0.6313 -1.8301
 2554TIP3   OH2 7625   5.615   0.430   2.122 -0.0442  0.3502 -0.0239
 2554TIP3    H1 7626   5.560   0.469   2.190 -1.4483 -2.3532  0.5644
 2554TIP3    H2 7627   5.578   0.463   2.040 -1.0541  0.4281  0.4412
 2555TIP3   OH2 7628   4.372   0.659   4.794  0.1004  0.1007  0.1077
 2555TIP3    H1 7629   4.408   0.690   4.710  1.2208 -0.9216  0.1910
 2555TIP3    H2 7630   4.280   0.686   4.791  0.3598  0.9691 -1.0132
 2556TIP3   OH2 7631   2.160   4.040   4.992 -0.1584 -0.2649  0.2221
 2556TIP3    H1 7632   2.145   4.128   4.957  0.5808  0.0011  0.5710
 2556TIP3    H2 7633   2.252   4.023   4.976 -0.4241 -1.2174 -0.3628
 2557TIP3   OH2 7634   3.260   3.990   1.777 -0.4046  0.1850 -0.1664
 2557TIP3    H1 7635   3.298   3.904   1.758  1.0749 -0.0658  3.2893
 2557TIP3    H2 7636   3.320   4.030   1.840 -3.3408  1.8784  1.8008
 2558TIP3   OH2 7637   1.746   2.568   5.520  0.1351 -0.0427 -0.0102
 2558TIP3    H1 7638   1.809   2.612   5.462 -0.6287 -0.9430 -1.5650
 2558TIP3    H2 7639   1.799   2.506   5.571  0.9267  1.2937  0.8650
 2559TIP3   OH2 7640   0.550   4.146   3.103 -0.1173 -0.2541 -0.0812
 2559TIP3    H1 7641   0.455   4.145   3.120 -0.2451 -0.8591 -0.7596
 2559TIP3    H2 7642   0.566   4.063   3.057  0.3966  0.7355 -1.7763
 2560TIP3   OH2 7643   4.291   2.670   4.147  0.1183 -0.2964  0.3243
 2560TIP3    H1 7644   4.365   2.675   4.208  1.4469 -1.0891 -1.1361
 2560TIP3    H2 7645   4.216   2.700   4.197  1.5464  1.1596  1.6856
 2561TIP3   OH2 7646   4.115   3.427   3.606 -0.2058 -0.5403 -0.0307
 2561TIP3    H1 7647   4.208   3.415   3.586 -0.6950 -2.2472 -1.5391
 2561TIP3    H2 7648   4.084   3.489   3.541 -0.0967  0.2131  0.6214
 2562TIP3   OH2 7649   2.348   1.292   2.669 -0.1417  0.0299 -0.1012
 2562TIP3    H1 7650   2.271   1.342   2.694 -0.3616 -0.1760 -0.3592
 2562TIP3    H2 7651   2.365   1.317   2.578  0.1044  0.0858 -0.0411
 2563TIP3   OH2 7652   6.340   6.444   3.516 -0.1406  0.1202  0.5920
 2563TIP3    H1 7653   6.274   6.447   3.447 -0.1072 -2.3455  0.3519
 2563TIP3    H2 7654   6.291   6.466   3.596 -0.5306  1.4181  0.0141
 2564TIP3   OH2 7655   6.131   6.458   3.310  0.0126  0.2986 -0.1840
 2564TIP3    H1 7656   6.079   6.534   3.282  1.1753  0.5217 -1.9208
 2564TIP3    H2 7657   6.088   6.384   3.268 -0.2704  0.1788  0.3139
 2565TIP3   OH2 7658   3.250   4.224   3.609 -0.4593 -0.2232  0.6275
 2565TIP3    H1 7659   3.194   4.255   3.681 -4.2710  0.1430 -2.1804
 2565TIP3    H2 7660   3.255   4.298   3.549 -0.2964 -1.5157 -1.0254
 2566TIP3   OH2 7661   6.719   2.446   3.380  0.2743 -0.4279 -0.1553
 2566TIP3    H1 7662   6.700   2.477   3.468  2.2116 -0.4575  0.3138
 2566TIP3    H2 7663   6.730   2.351   3.389 -3.4621 -1.1279 -1.2013
 2567TIP3   OH2 7664   2.591   1.046   4.511  0.4736  0.3672  0.6085
 2567TIP3    H1 7665   2.605   0.963   4.465  1.2398  1.6224 -1.5866
 2567TIP3    H2 7666   2.622   1.113   4.450 -1.4307  2.3982  1.6991
 2568TIP3   OH2 7667   0.127   1.895   3.853  0.4012  0.3075 -0.1088
 2568TIP3    H1 7668   0.047   1.947   3.845  0.4655  0.9514  2.4146
 2568TIP3    H2 7669   0.182   1.925   3.782 -0.2267  2.5366  0.2543
 2569TIP3   OH2 7670   6.535   3.866   0.927 -0.1704  0.3719 -0.0189
 2569TIP3    H1 7671   6.542   3.955   0.961 -0.1073  0.4022 -0.1114
 2569TIP3    H2 7672   6.589   3.865   0.848 -1.0059  0.5496 -0.6140
 2570TIP3   OH2 7673   1.815   3.525   3.659 -0.4243  0.3082  0.2203
 2570TIP3    H1 7674   1.775   3.531   3.746 -2.0789 -0.7694 -0.4030
 2570TIP3    H2 7675   1.909   3.516   3.676 -0.7111  0.0917  1.8967
 2571TIP3   OH2 7676   1.449   0.019   5.014  0.1892  0.1507 -0.2301
 2571TIP3    H1 7677   1.480   0.046   5.100 -0.0125  1.9492 -0.6898
 2571TIP3    H2 7678   1.528  -0.012   4.969  0.4403 -0.0007  0.3023
 2572TIP3   OH2 7679   2.512   4.468   4.360  0.1131 -0.1207 -0.7056
 2572TIP3    H1 7680   2.598   4.431   4.338 -0.1285 -0.2845 -1.3874
 2572TIP3    H2 7681   2.513   4.556   4.323  0.0692 -0.0329 -0.5040
 2573TIP3   OH2 7682   0.947   4.410   2.692 -0.0631  0.6361  0.4607
 2573TIP3    H1 7683   0.897   4.481   2.652 -0.5419 -0.6671 -1.3856
 2573TIP3    H2 7684   0.889   4.373   2.758 -1.7984 -1.0263 -1.8259
 2574TIP3   OH2 7685   6.606   1.158   5.482  0.0477 -0.1497 -0.4542
 2574TIP3    H1 7686   6.669   1.093   5.511  0.2842  0.3643  0.2265
 2574TIP3    H2 7687   6.652   1.241   5.490 -0.9901  0.3275  0.9412
 2575TIP3   OH2 7688   3.166   2.361   1.782  0.7731 -0.0770 -0.1141
 2575TIP3    H1 7689   3.239   2.347   1.843 -0.4738 -1.1100  1.2139
 2575TIP3    H2 7690   3.155   2.276   1.739 -0.0045 -0.0972  0.1223
 2576TIP3   OH2 7691   0.277   3.620   5.840 -0.4604 -0.6112  0.2868
 2576TIP3    H1 7692   0.365   3.658   5.838 -0.1727 -1.2914  0.0090
 2576TIP3    H2 7693   0.275   3.560   5.767 -1.1909 -0.5432  0.2495
 2577TIP3   OH2 7694   1.808   1.426   4.626 -0.2256 -0.3617 -0.2495
 2577TIP3    H1 7695   1.741   1.372   4.584 -0.9477  1.7522 -1.9812
 2577TIP3    H2 7696   1.891   1.385   4.601 -0.7482 -2.3107  0.9223
 2578TIP3   OH2 7697   6.771   0.744   4.487 -0.2705 -0.2388 -0.1459
 2578TIP3    H1 7698   6.704   0.713   4.548  0.7027 -0.8854  0.6392
 2578TIP3    H2 7699   6.811   0.819   4.532 -0.7059  0.3905 -0.7800
 2579TIP3   OH2 7700   2.447   1.018   3.491 -0.0289  0.2164  0.0346
 2579TIP3    H1 7701   2.483   1.079   3.554  1.3391 -0.4703 -0.0574
 2579TIP3    H2 7702   2.355   1.008   3.517  0.0836  1.2277  0.8733
 2580TIP3   OH2 7703   5.509   1.257   2.893 -0.1162 -0.4403  0.2939
 2580TIP3    H1 7704   5.581   1.195   2.909  0.3659  0.3161  1.1743
 2580TIP3    H2 7705   5.525   1.291   2.805 -0.2299 -1.3459 -0.0908
 2581TIP3   OH2 7706   5.025   6.070   4.430  0.7048 -0.0902 -0.0442
 2581TIP3    H1 7707   4.946   6.124   4.430  1.4976  1.3042 -3.1751
 2581TIP3    H2 7708   5.097   6.132   4.445  1.3720 -1.0704  1.0246
 2582TIP3   OH2 7709   0.629   5.690   3.435  0.4437  0.5262 -0.0911
 2582TIP3    H1 7710   0.717   5.660   3.413 -0.3123 -0.8719 -1.3718
 2582TIP3    H2 7711   0.593   5.620   3.489 -0.4443  0.3235 -0.9331
 2583TIP3   OH2 7712   6.710   2.827   0.355  0.5715  0.3294 -0.5236
 2583TIP3    H1 7713   6.775   2.851   0.420 -0.6717  1.0969  0.4747
 2583TIP3    H2 7714   6.646   2.898   0.357 -0.7616 -0.8129 -0.8310
 2584TIP3   OH2 7715   5.527   3.013   2.364 -0.1220  0.1408 -0.2339
 2584TIP3    H1 7716   5.512   2.936   2.419  0.4605 -1.2930 -1.9630
 2584TIP3    H2 7717   5.444   3.025   2.317 -0.1789  0.5230 -0.0384
 2585TIP3   OH2 7718   5.241   4.155   1.022  0.4741  0.0944  0.3283
 2585TIP3    H1 7719   5.187   4.187   0.949  0.7910  0.8175  0.4054
 2585TIP3    H2 7720   5.230   4.220   1.091 -2.0134 -1.9203  2.0253
 2586TIP3   OH2 7721   0.974   2.320   4.691  0.1057 -0.3894  0.0024
 2586TIP3    H1 7722   0.902   2.382   4.677  0.8227  0.2266 -1.1065
 2586TIP3    H2 7723   0.990   2.324   4.785  1.4982  2.7672 -0.2290
 2587TIP3   OH2 7724   1.767   6.230   0.655 -0.1681  0.3025  0.0408
 2587TIP3    H1 7725   1.732   6.146   0.626  0.8543  0.2940 -1.2596
 2587TIP3    H2 7726   1.859   6.212   0.675  0.1598  1.1852 -0.6346
 2588TIP3   OH2 7727   0.149   4.196   3.672 -0.5299 -0.2543 -0.3788
 2588TIP3    H1 7728   0.100   4.142   3.733  0.2486  0.7598  1.1890
 2588TIP3    H2 7729   0.160   4.140   3.595  0.1446 -2.3026  1.1178
 2589TIP3   OH2 7730   0.535   0.638   1.199 -0.4972  0.2151 -0.2201
 2589TIP3    H1 7731   0.606   0.677   1.147  1.1272 -0.9106  1.0248
 2589TIP3    H2 7732   0.455   0.667   1.157  0.6811  2.3137 -1.1709
 2590TIP3   OH2 7733   0.366   2.632   5.845  0.3934  0.1734  0.1600
 2590TIP3    H1 7734   0.429   2.565   5.818  0.8952 -0.1105  1.9182
 2590TIP3    H2 7735   0.281   2.595   5.822  0.7208 -0.5914  0.1479
 2591TIP3   OH2 7736   4.214   0.903   4.483 -0.2007  0.5396  0.2249
 2591TIP3    H1 7737   4.118   0.899   4.478 -0.0956 -1.0430 -1.9729
 2591TIP3    H2 7738   4.239   0.972   4.422  0.1118 -0.4034 -0.7349
 2592TIP3   OH2 7739   6.798   5.040   4.420  0.1946 -0.2431 -0.4949
 2592TIP3    H1 7740   6.857   5.010   4.352  0.3836 -0.6922 -0.1356
 2592TIP3    H2 7741   6.730   4.972   4.426 -1.3008  1.0097 -2.0143
 2593TIP3   OH2 7742   3.523   1.186   3.880 -0.5553  0.0375 -0.4032
 2593TIP3    H1 7743   3.466   1.113   3.904  0.1029 -0.2007  0.4723
 2593TIP3    H2 7744   3.467   1.264   3.889 -0.8359 -0.2206  0.1281
 2594TIP3   OH2 7745   1.032   5.438   4.843 -0.1978 -0.7402 -0.2379
 2594TIP3    H1 7746   0.960   5.399   4.793 -0.3823  0.6948 -1.1383
 2594TIP3    H2 7747   1.106   5.439   4.781 -0.7360  2.0901 -0.9715
 2595TIP3   OH2 7748   2.461   0.947   1.015  0.6162  0.2379  0.2120
 2595TIP3    H1 7749   2.489   0.855   1.015 -0.4334 -0.1058 -0.0798
 2595TIP3    H2 7750   2.542   0.997   1.006  1.2014 -0.6633  0.3105
 2596TIP3   OH2 7751   3.088   1.362   4.020  0.0985  0.3224 -0.0930
 2596TIP3    H1 7752   3.106   1.422   4.092  0.1903  2.6165 -1.9131
 2596TIP3    H2 7753   2.995   1.371   4.003  0.0123 -0.4562 -0.0758
 2597TIP3   OH2 7754   1.029   4.613   3.403  0.2268  0.1010 -0.2448
 2597TIP3    H1 7755   1.031   4.593   3.310 -3.3931  0.2932 -0.5225
 2597TIP3    H2 7756   0.954   4.563   3.437  0.1481  1.6265  2.1187
 2598TIP3   OH2 7757   4.548   5.158   3.944  0.2637  0.3766  0.4365
 2598TIP3    H1 7758   4.550   5.092   4.013 -3.2354 -1.5024 -0.9689
 2598TIP3    H2 7759   4.585   5.114   3.868 -1.5401  0.1549 -0.3618
 2599TIP3   OH2 7760   0.778   6.050   4.877 -0.2862 -0.4236 -0.0508
 2599TIP3    H1 7761   0.797   6.124   4.935  1.1756  0.1642 -1.2113
 2599TIP3    H2 7762   0.739   6.090   4.800  2.1403 -0.5787 -1.4488
 2600TIP3   OH2 7763   3.039   0.073   5.189 -0.4479  0.0796  0.2085
 2600TIP3    H1 7764   3.043  -0.020   5.209 -0.3845  0.2064  0.8189
 2600TIP3    H2 7765   3.021   0.077   5.095  1.1030 -0.5337 -0.1355
 2601TIP3   OH2 7766   3.166   1.699   3.945  0.0262 -0.2231  0.8287
 2601TIP3    H1 7767   3.096   1.733   4.002 -0.3415  0.4556  0.0041
 2601TIP3    H2 7768   3.245   1.743   3.975 -0.2367  0.4418  0.5741
 2602TIP3   OH2 7769   7.168   0.779   0.066  0.8126  0.4169 -0.0000
 2602TIP3    H1 7770   7.225   0.855   0.051  1.6394 -0.0345  0.7803
 2602TIP3    H2 7771   7.210   0.731   0.138  0.7894 -1.2693 -1.0686
 2603TIP3   OH2 7772   4.424   5.380   4.772 -0.3270 -0.6197  0.3915
 2603TIP3    H1 7773   4.365   5.348   4.703 -0.2487 -2.8318  1.2679
 2603TIP3    H2 7774   4.499   5.320   4.768  0.7706  0.6764  0.8744
 2604TIP3   OH2 7775   6.726   3.950   5.752  0.2960  0.2912  0.0741
 2604TIP3    H1 7776   6.732   3.856   5.736 -2.1579 -0.0922  1.0052
 2604TIP3    H2 7777   6.729   3.959   5.847 -3.6271  0.6477  0.3073
 2605TIP3   OH2 7778   1.722   6.575   3.964  0.3510  0.4045  0.1763
 2605TIP3    H1 7779   1.714   6.616   4.050 -2.2729  1.2786 -0.3949
 2605TIP3    H2 7780   1.694   6.484   3.978 -1.2798  0.8632  0.0675
 2606TIP3   OH2 7781   3.001   4.857   5.119  0.5996  0.1909 -0.9014
 2606TIP3    H1 7782   3.001   4.855   5.214 -0.3266 -2.0186 -0.8896
 2606TIP3    H2 7783   2.909   4.860   5.095  0.6726 -1.9923 -1.6734
 2607TIP3   OH2 7784   4.467   2.537   5.193  0.0747 -0.1717  0.2656
 2607TIP3    H1 7785   4.445   2.551   5.285  0.5641  1.0806  0.2035
 2607TIP3    H2 7786   4.428   2.452   5.172  1.3977 -1.2986  2.0961
 2608TIP3   OH2 7787   4.718   4.358   0.042 -0.4295 -0.6070 -0.0821
 2608TIP3    H1 7788   4.794   4.361   0.101 -0.1489  1.4097 -0.4872
 2608TIP3    H2 7789   4.750   4.395  -0.040 -1.1411 -2.2788 -1.1834
 2609TIP3   OH2 7790   6.263   0.560   4.484  0.0125  0.2525  0.1624
 2609TIP3    H1 7791   6.317   0.635   4.510  0.9978 -0.5175  0.4008
 2609TIP3    H2 7792   6.299   0.487   4.533 -1.0275 -0.3675  0.0389
 2610TIP3   OH2 7793   4.273   5.713   2.876 -0.2803 -0.1415 -0.0014
 2610TIP3    H1 7794   4.318   5.648   2.822 -1.8127 -1.2085 -0.0716
 2610TIP3    H2 7795   4.198   5.665   2.913  0.7949  0.4361  3.2703
 2611TIP3   OH2 7796   4.915   3.851   0.530  0.3277  0.5058  0.0391
 2611TIP3    H1 7797   4.828   3.868   0.566  1.2599  2.0260  1.7437
 2611TIP3    H2 7798   4.951   3.782   0.585  0.5389  0.5462 -0.0442
 2612TIP3   OH2 7799   2.384   3.819   3.849 -0.1681  0.1020 -0.1469
 2612TIP3    H1 7800   2.415   3.732   3.825  0.8520  0.4236 -0.0503
 2612TIP3    H2 7801   2.464   3.870   3.863 -0.7380  0.7344  0.9694
 2613TIP3   OH2 7802   3.186   6.681   2.063  0.0534 -0.2548 -0.5192
 2613TIP3    H1 7803   3.117   6.745   2.083  1.1894  0.4652  1.3584
 2613TIP3    H2 7804   3.142   6.596   2.071 -1.7325  0.1471 -4.0181
 2614TIP3   OH2 7805   3.605   3.835   5.242  0.3620  0.1690  0.3629
 2614TIP3    H1 7806   3.577   3.745   5.261 -1.3451  0.3683 -0.9354
 2614TIP3    H2 7807   3.675   3.826   5.178  0.1373 -0.2512  0.1710
 2615TIP3   OH2 7808   1.401   2.355   0.536 -0.0069 -0.2838 -0.0244
 2615TIP3    H1 7809   1.401   2.357   0.632 -1.2571 -1.1646  0.0115
 2615TIP3    H2 7810   1.309   2.359   0.512  0.3077  0.1389 -1.2175
 2616TIP3   OH2 7811   0.641   0.029   3.914  0.3777 -0.0422 -0.4097
 2616TIP3    H1 7812   0.594   0.112   3.908  0.0087 -0.3442 -2.3596
 2616TIP3    H2 7813   0.692   0.024   3.832  1.9739 -0.8173  0.5810
 2617TIP3   OH2 7814   0.944   0.186   1.353 -0.3587 -0.4830 -0.0995
 2617TIP3    H1 7815   1.018   0.219   1.403 -0.8807 -0.4902  0.6947
 2617TIP3    H2 7816   0.899   0.264   1.321  0.8203 -0.4831 -1.8623
 2618TIP3   OH2 7817   3.291   4.725   2.133 -0.4174  0.0386  0.2917
 2618TIP3    H1 7818   3.384   4.703   2.124 -0.3716  0.6641 -1.0571
 2618TIP3    H2 7819   3.258   4.726   2.043 -1.6435  0.2270  0.7209
 2619TIP3   OH2 7820   4.201   6.077   2.963 -0.2985 -0.3860 -0.0356
 2619TIP3    H1 7821   4.262   6.138   3.004  1.6489 -1.9191 -0.5603
 2619TIP3    H2 7822   4.117   6.124   2.964  0.6149  1.3503  1.6655
 2620TIP3   OH2 7823   2.350   5.898   2.287  0.0431 -0.4695 -0.1041
 2620TIP3    H1 7824   2.288   5.954   2.333  0.4770  0.6219 -0.8145
 2620TIP3    H2 7825   2.317   5.894   2.197  0.5771 -0.5265 -0.3008
 2621TIP3   OH2 7826   2.025   4.316   5.867  0.3456  0.0280 -0.3014
 2621TIP3    H1 7827   1.958   4.353   5.810  1.6008 -1.1106 -2.6384
 2621TIP3    H2 7828   1.985   4.238   5.905  0.1161 -0.2627 -1.1350
 2622TIP3   OH2 7829   4.571   1.363   5.306  0.5111  0.1920 -0.2308
 2622TIP3    H1 7830   4.568   1.270   5.328 -1.3318  0.3429  0.4044
 2622TIP3    H2 7831   4.615   1.367   5.221  0.4882 -1.2704 -0.3348
 2623TIP3   OH2 7832   1.575   1.965   3.680 -0.0225  0.4367  0.0379
 2623TIP3    H1 7833   1.651   2.022   3.695 -0.9517  1.2615  2.0190
 2623TIP3    H2 7834   1.535   1.956   3.767 -1.5145 -0.9634 -0.7492
 2624TIP3   OH2 7835   2.976   2.600   2.181 -0.0074  0.1358 -0.4141
 2624TIP3    H1 7836   3.002   2.509   2.191 -0.4782 -0.0785 -1.0639
 2624TIP3    H2 7837   2.999   2.622   2.091  0.2773  0.7229 -0.2062
 2625TIP3   OH2 7838   2.052   6.623   1.206  0.7019 -0.4251 -0.1638
 2625TIP3    H1 7839   2.145   6.604   1.199  0.9929  1.1051 -0.6135
 2625TIP3    H2 7840   2.038   6.700   1.152 -0.4694  0.4871  1.3495
 2626TIP3   OH2 7841   3.745   6.309   2.175  0.3227  0.1989  0.4778
 2626TIP3    H1 7842   3.827   6.267   2.199 -0.7469 -2.1734  0.2459
 2626TIP3    H2 7843   3.768   6.369   2.104  1.8633 -0.2961  0.5318
 2627TIP3   OH2 7844   2.564   4.315   2.906 -0.2007  0.0121  0.9586
 2627TIP3    H1 7845   2.516   4.398   2.906 -0.0334  0.1582 -1.0042
 2627TIP3    H2 7846   2.642   4.332   2.853  0.3210 -1.1320  1.3210
 2628TIP3   OH2 7847   3.853   2.017   0.276 -0.5220 -0.3454  0.3663
 2628TIP3    H1 7848   3.777   2.042   0.222 -0.7730 -1.1635  0.3361
 2628TIP3    H2 7849   3.928   2.055   0.230 -0.9895  1.5818  1.0568
 2629TIP3   OH2 7850   5.653   4.029   5.635 -0.4007  0.3602 -0.4190
 2629TIP3    H1 7851   5.681   4.111   5.673 -0.8243  0.1055  0.4771
 2629TIP3    H2 7852   5.679   3.962   5.699 -1.4528 -0.0384 -0.3820
 2630TIP3   OH2 7853   3.721   2.143   3.136  0.0967 -0.6931  0.0884
 2630TIP3    H1 7854   3.654   2.098   3.084 -0.3940 -0.5304  0.5735
 2630TIP3    H2 7855   3.695   2.129   3.227 -0.2595  0.8513  0.2527
 2631TIP3   OH2 7856   1.510   4.072   2.459 -0.6588 -0.1797  0.1554
 2631TIP3    H1 7857   1.519   4.157   2.416  1.1383 -0.0832  0.6452
 2631TIP3    H2 7858   1.506   4.009   2.387  0.7371  0.1174 -0.2209
 2632TIP3   OH2 7859   3.456   0.129   4.805 -0.3917  0.1806  0.1060
 2632TIP3    H1 7860   3.448   0.096   4.895 -4.0237  0.8689  0.1752
 2632TIP3    H2 7861   3.471   0.223   4.816 -2.9561  0.6540  0.1268
 2633TIP3   OH2 7862   0.436   3.058   5.193  0.1765  0.0285 -0.2024
 2633TIP3    H1 7863   0.368   3.023   5.136  0.2969 -0.0226 -0.3151
 2633TIP3    H2 7864   0.518   3.033   5.151  0.2772  1.6628 -1.0579
 2634TIP3   OH2 7865   4.214   0.363   5.727 -0.3699  0.5139  0.4225
 2634TIP3    H1 7866   4.158   0.422   5.778 -0.2231  2.0756 -1.1684
 2634TIP3    H2 7867   4.240   0.413   5.650  0.5878 -1.2949 -0.5071
 2635TIP3   OH2 7868   2.453   2.201   4.898 -0.3231  0.0897 -0.3813
 2635TIP3    H1 7869   2.438   2.162   4.812 -2.7318 -1.1770  0.5278
 2635TIP3    H2 7870   2.467   2.127   4.957  0.1412  0.8827  0.5454
 2636TIP3   OH2 7871   3.284   3.154   4.861 -0.2030  0.0651 -0.2400
 2636TIP3    H1 7872   3.348   3.202   4.807 -0.3354  2.4981  1.5951
 2636TIP3    H2 7873   3.200   3.171   4.818 -0.0497  0.0775 -0.5389
 2637TIP3   OH2 7874   7.197   0.240   3.582  0.1966 -0.1575  0.3099
 2637TIP3    H1 7875   7.234   0.181   3.517 -0.5025  0.7903 -0.9851
 2637TIP3    H2 7876   7.157   0.183   3.647  1.5873 -1.1410  0.3397
 2638TIP3   OH2 7877   2.024   3.195   4.957  0.0483 -0.1050  0.0141
 2638TIP3    H1 7878   1.988   3.108   4.972 -3.5806  0.9540 -1.4727
 2638TIP3    H2 7879   1.996   3.218   4.869 -0.0724  2.9376  0.7138
 2639TIP3   OH2 7880   1.431   2.459   3.190  0.3872 -0.1122 -0.2354
 2639TIP3    H1 7881   1.446   2.536   3.245 -1.1614 -0.3297  0.5356
 2639TIP3    H2 7882   1.421   2.494   3.102 -0.9984  0.6769  0.2065
 2640TIP3   OH2 7883   5.537   1.355   2.377 -0.2516  0.0620  0.6614
 2640TIP3    H1 7884   5.618   1.400   2.353 -0.3484  0.0567  0.3146
 2640TIP3    H2 7885   5.560   1.262   2.373 -0.6348 -0.0009 -0.8341
 2641TIP3   OH2 7886   0.841   1.969   3.577  1.0659  0.2125  0.5498
 2641TIP3    H1 7887   0.776   1.902   3.596  0.3346  0.7684  0.0628
 2641TIP3    H2 7888   0.919   1.920   3.549  0.9461 -0.4622  1.3681
 2642TIP3   OH2 7889   4.258   2.798   1.465  0.3307 -0.4254  0.0657
 2642TIP3    H1 7890   4.306   2.864   1.415  2.3551 -0.0987  2.2597
 2642TIP3    H2 7891   4.270   2.717   1.415  0.9084  0.1704 -0.7980
 2643TIP3   OH2 7892   4.794   2.817   1.307  0.1010  0.0375  0.4780
 2643TIP3    H1 7893   4.745   2.836   1.227  1.8162  0.1431 -0.5929
 2643TIP3    H2 7894   4.740   2.752   1.353 -0.3180 -1.0469 -1.4173
 2644TIP3   OH2 7895   1.377   4.511   3.402  0.1257  0.1956  0.2252
 2644TIP3    H1 7896   1.415   4.524   3.315  2.2005 -2.1246  0.6673
 2644TIP3    H2 7897   1.410   4.583   3.454  0.7241  0.3536 -0.3676
 2645TIP3   OH2 7898   6.752   0.469   0.322 -0.5065  0.5391  0.1487
 2645TIP3    H1 7899   6.733   0.375   0.326 -0.9527  0.6388  0.4911
 2645TIP3    H2 7900   6.697   0.507   0.391  2.5284  0.5875  2.7689
 2646TIP3   OH2 7901   4.233   5.887   1.442  0.2652 -0.1313 -0.4083
 2646TIP3    H1 7902   4.263   5.852   1.358  3.1708 -1.0370  0.8918
 2646TIP3    H2 7903   4.197   5.812   1.488  0.7181 -0.1045 -0.0066
 2647TIP3   OH2 7904   0.645   1.213   2.974  0.6082  0.2921  0.3034
 2647TIP3    H1 7905   0.574   1.278   2.978 -0.9572 -1.3490  0.8967
 2647TIP3    H2 7906   0.676   1.217   2.884  0.9877  2.2364  0.4602
 2648TIP3   OH2 7907   1.824   1.653   5.392 -0.2281 -0.7263 -0.0214
 2648TIP3    H1 7908   1.737   1.689   5.374  0.9945  1.5147 -1.8512
 2648TIP3    H2 7909   1.857   1.625   5.307  2.2732  2.0004 -0.0957
 2649TIP3   OH2 7910   6.306   3.940   2.163 -0.2699  0.5112  0.0285
 2649TIP3    H1 7911   6.229   3.921   2.217  0.5939 -1.2500  0.7240
 2649TIP3    H2 7912   6.274   3.932   2.073 -0.1182 -5.0138  0.1028
 2650TIP3   OH2 7913   0.629   3.550   0.193  0.5573  0.3797 -0.2974
 2650TIP3    H1 7914   0.578   3.577   0.269  0.5244  1.0065 -0.5300
 2650TIP3    H2 7915   0.707   3.606   0.196  1.2288 -0.5377  0.0341
 2651TIP3   OH2 7916   5.776   5.573   0.747 -0.3629 -0.2477 -0.4928
 2651TIP3    H1 7917   5.769   5.478   0.747 -0.8643 -0.2490 -2.2345
 2651TIP3    H2 7918   5.858   5.591   0.700 -0.5968  0.1891 -0.7352
 2652TIP3   OH2 7919   3.778   1.598   1.222  0.4494 -0.1001 -0.1068
 2652TIP3    H1 7920   3.726   1.616   1.144  1.6147  1.9872 -0.4807
 2652TIP3    H2 7921   3.814   1.511   1.207  0.3043  0.0801 -1.7219
 2653TIP3   OH2 7922   5.414   2.757   2.447 -0.1411  0.0301  0.0347
 2653TIP3    H1 7923   5.343   2.708   2.405 -0.8301 -1.4176  2.5998
 2653TIP3    H2 7924   5.476   2.689   2.474  2.2592  1.2616 -2.0434
 2654TIP3   OH2 7925   5.503   2.008   3.495 -0.0319  0.4787  0.5620
 2654TIP3    H1 7926   5.556   1.957   3.435 -1.5440 -0.9802  0.4154
 2654TIP3    H2 7927   5.550   2.004   3.578  0.9939  0.7593  0.0076
 2655TIP3   OH2 7928   6.497   1.282   0.224  0.2000  0.4778 -0.3082
 2655TIP3    H1 7929   6.592   1.273   0.215  0.0684  1.0641 -3.1071
 2655TIP3    H2 7930   6.486   1.331   0.306  2.0963 -1.7121  1.4239
 2656TIP3   OH2 7931   1.829   1.479   1.063  0.2508 -0.4664 -0.5908
 2656TIP3    H1 7932   1.841   1.475   1.158  1.6876 -0.1664 -0.7393
 2656TIP3    H2 7933   1.819   1.388   1.037  0.8499 -0.6352 -0.2588
 2657TIP3   OH2 7934   4.616   2.058   1.038 -0.0454  0.0282 -0.1581
 2657TIP3    H1 7935   4.670   1.981   1.055  0.9897  0.5614 -0.9527
 2657TIP3    H2 7936   4.615   2.105   1.122 -0.9509 -0.9805  0.4282
 2658TIP3   OH2 7937   1.840   0.872   2.285 -0.6044 -0.5981 -0.7219
 2658TIP3    H1 7938   1.831   0.882   2.190 -0.9105 -0.6378 -0.6980
 2658TIP3    H2 7939   1.787   0.943   2.322 -1.9682 -1.6600 -0.5656
 2659TIP3   OH2 7940   7.180   6.677   0.801 -0.3768  0.2726  0.3043
 2659TIP3    H1 7941   7.219   6.762   0.823 -1.5273  0.6616  0.9382
 2659TIP3    H2 7942   7.100   6.699   0.754  0.0431 -0.5067 -0.8157
 2660TIP3   OH2 7943   0.197   1.434   1.357 -0.5158  0.0830  0.0108
 2660TIP3    H1 7944   0.137   1.453   1.429 -0.2046 -1.0431  0.5998
 2660TIP3    H2 7945   0.276   1.484   1.377 -1.2818  1.7253 -0.8681
 2661TIP3   OH2 7946   4.099   1.920   4.269 -0.6722  0.6015  0.1522
 2661TIP3    H1 7947   4.161   1.979   4.313  0.6146  0.1953 -1.0437
 2661TIP3    H2 7948   4.151   1.844   4.246 -2.2612 -0.9760  1.4844
 2662TIP3   OH2 7949   7.173   2.096   4.646 -0.0747 -0.2984 -0.5165
 2662TIP3    H1 7950   7.140   2.048   4.570  0.7154 -1.2982 -0.2537
 2662TIP3    H2 7951   7.221   2.171   4.609  0.0884 -0.6384 -0.9996
 2663TIP3   OH2 7952   6.101   1.275   3.447  0.4216  0.2747 -0.5162
 2663TIP3    H1 7953   6.120   1.187   3.415 -1.3150 -1.0144  1.7013
 2663TIP3    H2 7954   6.164   1.289   3.518 -1.0717 -0.4305  1.0249
 2664TIP3   OH2 7955   6.505   1.230   1.579 -0.1832  0.0103  0.3781
 2664TIP3    H1 7956   6.533   1.255   1.491 -0.0230 -1.5928 -0.0424
 2664TIP3    H2 7957   6.582   1.191   1.619 -0.3816  0.3136  1.0751
 2665TIP3   OH2 7958   0.162   2.434   3.663 -0.1969  0.3051 -0.0231
 2665TIP3    H1 7959   0.122   2.438   3.576  2.7406  1.1832 -1.4642
 2665TIP3    H2 7960   0.133   2.514   3.707 -0.2828  0.7676 -0.9078
 2666TIP3   OH2 7961   4.375   0.606   4.274  0.5231 -0.0548 -0.0259
 2666TIP3    H1 7962   4.433   0.672   4.237 -0.3323  1.2038  0.7752
 2666TIP3    H2 7963   4.290   0.622   4.231  0.3496 -0.7840  0.0234
 2667TIP3   OH2 7964   4.180   3.477   4.543  0.2805  0.5622  1.0381
 2667TIP3    H1 7965   4.224   3.452   4.624 -1.0640  2.5437  2.4630
 2667TIP3    H2 7966   4.246   3.527   4.495  0.6764  0.4995  1.5115
 2668TIP3   OH2 7967   0.100   3.584   5.433 -0.3116  0.2563  0.5298
 2668TIP3    H1 7968   0.010   3.606   5.459 -1.5988 -0.5588 -2.7178
 2668TIP3    H2 7969   0.140   3.668   5.411 -0.7040  0.5198  0.8049
 2669TIP3   OH2 7970   2.651   6.509   2.236 -0.0085 -0.2306  0.3966
 2669TIP3    H1 7971   2.687   6.488   2.149  0.4350 -0.8918  0.7274
 2669TIP3    H2 7972   2.588   6.439   2.252 -1.2865  0.7704 -0.0622
 2670TIP3   OH2 7973   7.145   2.537   4.899 -0.0931 -0.2076 -0.3510
 2670TIP3    H1 7974   7.109   2.451   4.922 -0.1720 -0.1729 -0.3448
 2670TIP3    H2 7975   7.086   2.571   4.833 -0.0041 -0.2007 -0.4279
 2671TIP3   OH2 7976   5.753   5.255   1.070 -0.1917 -0.4090  0.2424
 2671TIP3    H1 7977   5.746   5.284   0.979  1.2841  1.0201  0.5591
 2671TIP3    H2 7978   5.821   5.188   1.069  0.6441  0.4313  0.4726
 2672TIP3   OH2 7979   1.530   6.752   4.773 -0.6576  0.2329 -0.2223
 2672TIP3    H1 7980   1.585   6.811   4.721  1.8881 -0.0929  1.8853
 2672TIP3    H2 7981   1.496   6.807   4.843 -0.6428 -0.2062  0.1270
 2673TIP3   OH2 7982   0.200   5.835   1.732  0.2483  0.0812  0.0516
 2673TIP3    H1 7983   0.231   5.925   1.744 -1.6919  0.9144 -0.7422
 2673TIP3    H2 7984   0.196   5.824   1.637 -0.3680 -0.5364  0.1442
 2674TIP3   OH2 7985   5.621   5.751   2.575 -0.3482  0.1661 -0.1796
 2674TIP3    H1 7986   5.536   5.746   2.530 -0.1241  1.1565 -0.7492
 2674TIP3    H2 7987   5.683   5.715   2.511 -0.1909  0.4776 -0.2024
 2675TIP3   OH2 7988   6.812   4.496   3.773 -0.4851 -0.4329 -0.4427
 2675TIP3    H1 7989   6.826   4.410   3.813  0.1589  0.3882  1.1983
 2675TIP3    H2 7990   6.736   4.531   3.820  0.6938  0.8316  0.5957
 2676TIP3   OH2 7991   0.302   6.528   2.789  0.6390 -0.5661  0.3480
 2676TIP3    H1 7992   0.311   6.440   2.824  1.5630 -1.0986 -1.1244
 2676TIP3    H2 7993   0.392   6.559   2.778  0.3272  1.1078  2.0754
 2677TIP3   OH2 7994   1.795   3.159   4.321  0.0220  0.1635 -0.1972
 2677TIP3    H1 7995   1.824   3.200   4.239 -1.2269  0.9286 -0.2801
 2677TIP3    H2 7996   1.855   3.085   4.333  1.3884  1.1202 -0.8323
 2678TIP3   OH2 7997   3.392   4.383   5.322  0.6521  0.3206  0.6170
 2678TIP3    H1 7998   3.415   4.296   5.289  0.0959 -0.0901  1.2958
 2678TIP3    H2 7999   3.467   4.438   5.300  1.2542 -0.4616  0.6915
 2679TIP3   OH2 8000   6.485   1.715   5.069 -0.9324  0.3624  0.6294
 2679TIP3    H1 8001   6.518   1.702   5.158 -0.3736 -1.9877  0.1502
 2679TIP3    H2 8002   6.396   1.747   5.081 -1.7429 -2.1085  2.1544
 2680TIP3   OH2 8003   2.686   1.604   5.562 -0.2745 -0.0868 -0.5326
 2680TIP3    H1 8004   2.689   1.668   5.490  0.0797  0.0921 -0.3628
 2680TIP3    H2 8005   2.684   1.658   5.641  1.2665 -0.2727 -0.3418
 2681TIP3   OH2 8006   6.111   3.405   0.619 -0.4364 -0.3720 -0.5930
 2681TIP3    H1 8007   6.032   3.456   0.604 -0.2296  0.2278  0.2482
 2681TIP3    H2 8008   6.183   3.465   0.600 -0.1896 -0.5504 -0.2388
 2682TIP3   OH2 8009   3.017   6.128   2.009  0.1592 -0.7888 -0.2824
 2682TIP3    H1 8010   2.948   6.195   2.001 -0.0346 -0.6059  2.1068
 2682TIP3    H2 8011   3.097   6.172   1.981  0.0168  0.4807  1.1789
 2683TIP3   OH2 8012   2.255   1.654   4.138  0.6644 -0.3934  0.2713
 2683TIP3    H1 8013   2.200   1.680   4.212 -2.0788  1.6067 -2.2438
 2683TIP3    H2 8014   2.239   1.561   4.126 -2.4758  0.1416 -0.4538
 2684TIP3   OH2 8015   1.102   2.327   3.626  0.7106 -0.3997  0.0234
 2684TIP3    H1 8016   1.118   2.234   3.615  2.8026 -0.2226  1.0181
 2684TIP3    H2 8017   1.068   2.335   3.715  0.2118 -0.2318 -0.1783
 2685TIP3   OH2 8018   6.185   3.932   3.432 -0.5881 -0.7034  0.5855
 2685TIP3    H1 8019   6.149   3.911   3.345  1.6360 -2.7559  0.0651
 2685TIP3    H2 8020   6.190   3.848   3.477  1.8090 -0.2535  1.2737
 2686TIP3   OH2 8021   1.311   3.385   0.042 -0.2892 -0.4318  0.2612
 2686TIP3    H1 8022   1.360   3.304   0.051 -0.1518 -0.2360  1.4529
 2686TIP3    H2 8023   1.266   3.377  -0.042  0.4982 -1.3063 -0.0893
 2687TIP3   OH2 8024   0.036   4.132   2.415  0.0105 -0.0307  0.6570
 2687TIP3    H1 8025   0.106   4.067   2.402 -0.4898 -0.7347  1.3290
 2687TIP3    H2 8026  -0.020   4.122   2.338 -0.5359 -1.0318  1.1644
 2688TIP3   OH2 8027   1.906   1.504   5.169 -0.6322 -0.3560  0.0687
 2688TIP3    H1 8028   1.857   1.507   5.087  0.3555  1.6647 -0.5375
 2688TIP3    H2 8029   1.934   1.413   5.177  0.3979 -0.3656 -2.5997
 2689TIP3   OH2 8030   6.847   3.654   2.132 -0.0063  0.0231  0.0251
 2689TIP3    H1 8031   6.937   3.637   2.161 -0.0420 -1.3969 -0.6676
 2689TIP3    H2 8032   6.846   3.748   2.115  1.8404 -0.1950 -1.5762
 2690TIP3   OH2 8033   4.190   0.024   2.857 -0.4939 -0.0449 -0.6349
 2690TIP3    H1 8034   4.160  -0.055   2.901 -0.3284  1.1119  1.6844
 2690TIP3    H2 8035   4.123   0.089   2.875  0.8960  1.1966  0.2728
 2691TIP3   OH2 8036   0.922   1.528   2.202  0.4496 -0.0138 -0.2585
 2691TIP3    H1 8037   0.913   1.446   2.153  0.2123 -0.1228 -0.0349
 2691TIP3    H2 8038   0.833   1.561   2.210  0.3211 -0.6428  1.1934
 2692TIP3   OH2 8039   3.318   6.120   5.421  0.6133 -0.2634  0.3776
 2692TIP3    H1 8040   3.272   6.053   5.370 -0.0100  0.0388  0.5194
 2692TIP3    H2 8041   3.366   6.171   5.356 -0.5964  0.4524 -0.0093
 2693TIP3   OH2 8042   2.111   3.121   0.874  0.5216  0.2108  0.0862
 2693TIP3    H1 8043   2.034   3.081   0.915  1.5512 -1.9290  0.0896
 2693TIP3    H2 8044   2.092   3.120   0.781 -0.1891  1.3858  0.2085
 2694TIP3   OH2 8045   4.629   0.872   0.051 -0.0689  0.5368  0.5185
 2694TIP3    H1 8046   4.618   0.929   0.127 -1.6388 -0.3697  1.0143
 2694TIP3    H2 8047   4.626   0.931  -0.024 -0.4911  1.2387  1.0804
 2695TIP3   OH2 8048   3.454   1.107   4.604  0.2090 -0.8865 -0.5847
 2695TIP3    H1 8049   3.533   1.119   4.658 -0.8253  0.0336  0.7973
 2695TIP3    H2 8050   3.478   1.145   4.520  0.8288  0.6468  0.2359
 2696TIP3   OH2 8051   4.596   5.248   1.670 -0.2481 -0.5362  0.6798
 2696TIP3    H1 8052   4.623   5.311   1.737  1.1095 -1.2275  0.8191
 2696TIP3    H2 8053   4.634   5.165   1.699  0.6291 -0.7880 -1.1018
 2697TIP3   OH2 8054   6.060   4.527   3.680  0.5360 -0.2709  0.0744
 2697TIP3    H1 8055   6.086   4.451   3.733 -0.3162 -1.4163 -1.0543
 2697TIP3    H2 8056   6.117   4.523   3.603  0.3836  0.1345 -0.0584
 2698TIP3   OH2 8057   1.363  -0.015   3.341 -0.5263  0.0754  0.0933
 2698TIP3    H1 8058   1.407  -0.059   3.268  0.2018 -0.1346  0.6463
 2698TIP3    H2 8059   1.388   0.077   3.332  0.0081 -0.0329  0.3691
 2699TIP3   OH2 8060   5.809   2.555   1.528  0.3022  0.1069  0.3320
 2699TIP3    H1 8061   5.788   2.466   1.499 -0.3142  0.2770  0.2387
 2699TIP3    H2 8062   5.842   2.544   1.617  0.7020 -0.2629  0.1420
 2700TIP3   OH2 8063   0.401   4.954   3.189  0.5067 -0.4308 -0.2625
 2700TIP3    H1 8064   0.332   4.988   3.131  1.1507 -0.6561 -1.1842
 2700TIP3    H2 8065   0.369   4.973   3.277  0.9387  2.8580 -0.6738
 2701TIP3   OH2 8066   2.567   2.854   4.672 -0.1536 -0.4257 -0.3159
 2701TIP3    H1 8067   2.555   2.869   4.579 -1.7819  1.2371  0.0885
 2701TIP3    H2 8068   2.497   2.794   4.696  2.5507 -4.0659 -0.7508
 2702TIP3   OH2 8069   5.333   4.759   5.687 -0.3865  0.1302 -0.6036
 2702TIP3    H1 8070   5.246   4.725   5.711 -0.4659  0.4505 -0.4298
 2702TIP3    H2 8071   5.374   4.778   5.771 -0.7388  1.4546 -0.7199
 2703TIP3   OH2 8072   1.589   3.896   3.055 -0.3036 -0.2828  0.5197
 2703TIP3    H1 8073   1.640   3.975   3.035  0.7068 -1.0767 -0.1548
 2703TIP3    H2 8074   1.603   3.883   3.149 -0.7592  0.5214  0.7110
 2704TIP3   OH2 8075   1.697   0.320   0.130 -0.3174  0.1919 -0.6691
 2704TIP3    H1 8076   1.622   0.325   0.189 -0.2716 -3.2472 -0.1214
 2704TIP3    H2 8077   1.768   0.285   0.184  0.1768 -1.4964 -2.2999
 2705TIP3   OH2 8078   5.823   1.733   4.275  0.1630 -0.1722 -0.3701
 2705TIP3    H1 8079   5.875   1.813   4.265  1.1912 -0.4995  1.7736
 2705TIP3    H2 8080   5.735   1.765   4.292  0.3059  0.4701 -0.7673
 2706TIP3   OH2 8081   0.457   2.257   1.450  0.0706  0.5869 -0.0000
 2706TIP3    H1 8082   0.466   2.320   1.521  1.2954 -1.1959  1.5369
 2706TIP3    H2 8083   0.547   2.228   1.431 -0.2788  0.5754 -1.9004
 2707TIP3   OH2 8084   3.121   6.011   4.860  0.0683 -0.1364  0.4919
 2707TIP3    H1 8085   3.028   5.997   4.840 -0.5464  1.8379  1.7048
 2707TIP3    H2 8086   3.167   5.970   4.787 -1.7236 -1.3736 -0.0274
 2708TIP3   OH2 8087   4.511   2.545   0.074  0.3677 -0.3459  0.0447
 2708TIP3    H1 8088   4.425   2.582   0.055  0.4463  0.0874  0.5161
 2708TIP3    H2 8089   4.571   2.619   0.075  1.0082 -0.7944 -1.6118
 2709TIP3   OH2 8090   6.272   1.881   2.950 -0.2978  0.0462 -0.3816
 2709TIP3    H1 8091   6.218   1.825   3.005  0.6905  0.1961  0.7794
 2709TIP3    H2 8092   6.223   1.888   2.868 -1.1174 -1.3478 -0.0492
 2710TIP3   OH2 8093   1.242   2.925   3.007 -0.3102  0.2445  0.2940
 2710TIP3    H1 8094   1.287   2.922   2.922  0.1490  1.8982  0.4493
 2710TIP3    H2 8095   1.151   2.901   2.986  0.5224 -3.1593 -0.0194
 2711TIP3   OH2 8096   6.656   0.607   0.546  0.3461 -0.3931  0.1226
 2711TIP3    H1 8097   6.703   0.685   0.576  1.8870 -0.5073 -1.7303
 2711TIP3    H2 8098   6.564   0.629   0.554  0.7361  0.8651  1.4620
 2712TIP3   OH2 8099   6.203   2.445   5.018  0.5108 -0.1765  0.4911
 2712TIP3    H1 8100   6.171   2.536   5.012 -0.7891 -0.6911 -1.0605
 2712TIP3    H2 8101   6.280   2.443   4.961 -0.3227 -0.3658 -0.6655
 2713TIP3   OH2 8102   3.437   6.188   2.431  0.3972 -0.1938 -0.4338
 2713TIP3    H1 8103   3.352   6.152   2.408  0.8753 -1.1885 -0.7405
 2713TIP3    H2 8104   3.448   6.168   2.524  0.0897  0.3746 -0.2752
 2714TIP3   OH2 8105   0.065   0.992   2.692 -0.3057 -0.5982 -0.8341
 2714TIP3    H1 8106   0.146   0.941   2.689 -0.9579 -1.6873 -0.4975
 2714TIP3    H2 8107  -0.001   0.931   2.726 -0.5188  1.2802  2.5444
 2715TIP3   OH2 8108   1.095   1.827   3.506 -0.6790  0.1507 -0.0179
 2715TIP3    H1 8109   1.128   1.857   3.422  1.3280 -1.6271  0.0609
 2715TIP3    H2 8110   1.173   1.820   3.561 -1.5222 -1.7006  1.0180
 2716TIP3   OH2 8111   5.915   6.208   3.598  0.2102  0.1661  0.4772
 2716TIP3    H1 8112   5.834   6.156   3.601 -0.5841  1.3909  0.8763
 2716TIP3    H2 8113   5.894   6.281   3.540  0.7153  0.9969  1.3240
 2717TIP3   OH2 8114   7.127   0.250   2.231  0.0478 -0.5239  0.0664
 2717TIP3    H1 8115   7.207   0.293   2.200 -0.3237 -0.3840 -0.7379
 2717TIP3    H2 8116   7.060   0.276   2.167 -0.3332 -1.7460 -0.0607
 2718TIP3   OH2 8117   2.783   3.344   2.991 -0.0595  0.3668  0.0228
 2718TIP3    H1 8118   2.743   3.309   2.911 -1.2111 -1.0778  1.1621
 2718TIP3    H2 8119   2.709   3.370   3.046  0.5588 -1.1764  1.6884
 2719TIP3   OH2 8120   7.088   0.451   3.457 -0.1625  0.3327 -0.4320
 2719TIP3    H1 8121   7.004   0.412   3.435 -0.5443  1.4316 -1.0403
 2719TIP3    H2 8122   7.141   0.379   3.489 -1.3830 -0.3495  0.1040
 2720TIP3   OH2 8123   5.794   1.856   5.715  0.1819  0.0700  0.0194
 2720TIP3    H1 8124   5.877   1.903   5.709 -0.1593  0.5763 -0.8102
 2720TIP3    H2 8125   5.728   1.925   5.719 -0.2873 -0.3392 -0.6341
 2721TIP3   OH2 8126   3.734   3.715   1.451  0.1759  0.0033 -0.5232
 2721TIP3    H1 8127   3.666   3.661   1.491  0.8557 -0.2104  0.3762
 2721TIP3    H2 8128   3.689   3.797   1.429 -0.5856 -0.4895 -0.8113
 2722TIP3   OH2 8129   5.475   1.777   1.250  0.3395  0.6652  0.5535
 2722TIP3    H1 8130   5.382   1.799   1.254  0.2971  0.5820  0.0416
 2722TIP3    H2 8131   5.478   1.682   1.268  0.5243  1.0333  2.7857
 2723TIP3   OH2 8132   3.736   5.075   4.003  0.3414  0.1673 -0.4678
 2723TIP3    H1 8133   3.817   5.035   3.974 -1.9617 -1.8407 -5.1502
 2723TIP3    H2 8134   3.673   5.003   4.006 -1.8271  1.9650  0.6905
 2724TIP3   OH2 8135   6.823   0.219   1.515  0.5725  0.2279  0.3503
 2724TIP3    H1 8136   6.839   0.225   1.421 -2.8662  2.7478 -0.2822
 2724TIP3    H2 8137   6.783   0.133   1.528  1.8404 -0.4857 -0.2711
 2725TIP3   OH2 8138   2.341   3.921   2.929 -0.5342  0.3866 -0.2552
 2725TIP3    H1 8139   2.316   3.876   2.848 -1.3661  1.2091 -0.4712
 2725TIP3    H2 8140   2.427   3.885   2.950 -1.5348 -1.9936  0.1007
 2726TIP3   OH2 8141   1.683   5.694   1.804  0.4223  0.1867 -0.4097
 2726TIP3    H1 8142   1.717   5.782   1.819  2.3178 -0.5598  0.0450
 2726TIP3    H2 8143   1.761   5.638   1.811 -0.6596 -1.4638 -1.1599
 2727TIP3   OH2 8144   6.868   0.198   1.248 -0.2641  0.0695  0.4208
 2727TIP3    H1 8145   6.887   0.116   1.204 -2.2999 -0.5532  0.6214
 2727TIP3    H2 8146   6.901   0.266   1.188 -0.7579 -0.8240 -0.9051
 2728TIP3   OH2 8147   2.310   0.220   2.293  0.1380  0.3418 -0.1530
 2728TIP3    H1 8148   2.224   0.252   2.264 -0.4019 -2.2452 -1.6782
 2728TIP3    H2 8149   2.295   0.128   2.316  2.6039 -0.3418 -1.0199
 2729TIP3   OH2 8150   6.526   0.940   1.334  0.1325 -0.4565  0.0427
 2729TIP3    H1 8151   6.580   0.868   1.367 -0.5824 -0.9032  0.2770
 2729TIP3    H2 8152   6.527   0.929   1.239 -0.3204 -1.0520  0.0981
 2730TIP3   OH2 8153   1.968   1.358   3.396 -0.0845 -0.2292 -0.5848
 2730TIP3    H1 8154   2.035   1.379   3.461  0.8973  0.3771 -1.7579
 2730TIP3    H2 8155   1.886   1.388   3.436  0.3045 -1.0392  0.9006
 2731TIP3   OH2 8156   0.284   6.307   4.313  0.1687 -0.0157  0.3048
 2731TIP3    H1 8157   0.315   6.243   4.249 -0.2895 -0.1348  0.1965
 2731TIP3    H2 8158   0.272   6.387   4.263 -1.3318 -0.4216 -0.0203
 2732TIP3   OH2 8159   1.774   1.228   5.390  0.2660  0.4923 -0.5574
 2732TIP3    H1 8160   1.754   1.284   5.465  2.4204  0.6742 -0.0675
 2732TIP3    H2 8161   1.707   1.250   5.325 -0.5806  1.6017  0.6482
 2733TIP3   OH2 8162   5.640   1.406   0.741  0.5330 -0.4182 -0.1537
 2733TIP3    H1 8163   5.609   1.439   0.825 -0.5113  1.7473 -1.2977
 2733TIP3    H2 8164   5.562   1.370   0.699  0.8231 -0.4876 -0.6391
 2734TIP3   OH2 8165   5.463   4.444   0.068 -0.4704  0.4336 -0.3504
 2734TIP3    H1 8166   5.540   4.388   0.063  0.2577  1.4019 -0.4398
 2734TIP3    H2 8167   5.471   4.490   0.151 -0.5655  1.0605 -0.6763
 2735TIP3   OH2 8168   4.901   1.242   5.313  0.4972  0.8004  0.0750
 2735TIP3    H1 8169   4.844   1.309   5.351  0.3978  1.4417 -1.1524
 2735TIP3    H2 8170   4.926   1.278   5.228  0.0941 -0.9103 -0.7916
 2736TIP3   OH2 8171   2.293   4.262   2.498  0.3522 -0.1467  0.1250
 2736TIP3    H1 8172   2.341   4.184   2.525  0.0458 -0.6407 -0.7203
 2736TIP3    H2 8173   2.360   4.330   2.491  0.4688 -0.0424  1.8909
 2737TIP3   OH2 8174   4.696   5.938   0.588 -0.4983 -0.6696  0.5157
 2737TIP3    H1 8175   4.729   5.998   0.654 -0.0213 -0.4911  0.1179
 2737TIP3    H2 8176   4.750   5.859   0.598 -0.0263 -0.4239 -0.0506
 2738TIP3   OH2 8177   0.765   0.556   4.635 -0.3317  0.2586 -0.0365
 2738TIP3    H1 8178   0.746   0.632   4.690 -0.6472 -0.7221  1.2625
 2738TIP3    H2 8179   0.837   0.585   4.579 -0.3707  1.4747  0.5028
 2739TIP3   OH2 8180   5.119   3.198   2.316  0.6819  0.1866  0.7681
 2739TIP3    H1 8181   5.132   3.222   2.408  2.2043 -0.7607  0.8334
 2739TIP3    H2 8182   5.078   3.112   2.319  3.2145 -1.1107  0.6421
 2740TIP3   OH2 8183   6.837   4.689   5.030 -0.8509  0.4249  0.1025
 2740TIP3    H1 8184   6.763   4.628   5.031 -0.1970 -0.5195 -1.9749
 2740TIP3    H2 8185   6.798   4.774   5.010 -1.3233 -0.3217 -2.5210
 2741TIP3   OH2 8186   4.750   3.876   2.345 -0.3249 -0.3449  0.7295
 2741TIP3    H1 8187   4.679   3.830   2.389 -1.0657 -0.9871 -1.0612
 2741TIP3    H2 8188   4.789   3.811   2.287  0.0169  0.7023 -0.2563
 2742TIP3   OH2 8189   1.178   6.726   3.122 -0.2027 -0.0756 -0.3803
 2742TIP3    H1 8190   1.147   6.669   3.193 -0.9524 -0.1277 -0.7431
 2742TIP3    H2 8191   1.224   6.797   3.166  1.1828 -1.2198  0.0608
 2743TIP3   OH2 8192   1.137   6.218   3.946 -0.0899 -0.4564 -0.2259
 2743TIP3    H1 8193   1.079   6.289   3.972  0.3758 -0.2765  0.3477
 2743TIP3    H2 8194   1.117   6.202   3.853  0.1874  0.7915 -0.5116
 2744TIP3   OH2 8195   5.041   0.366   1.915 -0.1784 -0.2380  0.1890
 2744TIP3    H1 8196   5.044   0.456   1.948 -1.2240 -0.2004  0.2019
 2744TIP3    H2 8197   4.948   0.348   1.902 -0.1231 -1.8688  1.6913
 2745TIP3   OH2 8198   1.609   3.704   5.066 -0.0463  0.0111 -0.2033
 2745TIP3    H1 8199   1.562   3.778   5.026 -0.1974  0.2054  0.3241
 2745TIP3    H2 8200   1.672   3.745   5.126 -1.9213 -0.2714  2.1333
 2746TIP3   OH2 8201   0.077   6.255   4.480  0.3086 -0.6272  0.3527
 2746TIP3    H1 8202   0.157   6.268   4.429  1.1857 -0.9100  1.5947
 2746TIP3    H2 8203   0.010   6.304   4.432  1.1007 -0.8050 -0.9953
 2747TIP3   OH2 8204   0.848   5.390   5.823  0.1931  0.0782  0.2923
 2747TIP3    H1 8205   0.915   5.370   5.889 -0.3163 -1.2851  0.4160
 2747TIP3    H2 8206   0.845   5.312   5.767 -1.5163 -0.0072  0.4707
 2748TIP3   OH2 8207   4.550   0.335   2.013  0.0581 -0.4053  0.3010
 2748TIP3    H1 8208   4.596   0.399   2.066  2.5423 -1.0391 -0.9516
 2748TIP3    H2 8209   4.493   0.387   1.956  1.1440  0.6264  0.1319
 2749TIP3   OH2 8210   5.016   2.618   0.202  0.1915 -0.0441 -0.8342
 2749TIP3    H1 8211   5.100   2.653   0.173  1.2672 -2.3142 -0.6812
 2749TIP3    H2 8212   5.035   2.528   0.230 -2.2277 -0.5318 -0.4702
 2750TIP3   OH2 8213   0.374   1.211   2.790 -0.1118  0.6328 -0.2662
 2750TIP3    H1 8214   0.463   1.183   2.767  0.8863  1.8194  1.8757
 2750TIP3    H2 8215   0.334   1.134   2.830  0.7688  0.7190  0.8193
 2751TIP3   OH2 8216   6.205   0.220   4.219  0.3914 -0.0642 -0.6638
 2751TIP3    H1 8217   6.232   0.312   4.217  0.5058 -0.0431  0.7945
 2751TIP3    H2 8218   6.273   0.175   4.170  0.3773  0.6131 -1.3298
 2752TIP3   OH2 8219   3.086   0.687   5.722  0.8364  0.4563  0.0156
 2752TIP3    H1 8220   3.153   0.735   5.673  0.5167  0.2647 -0.6260
 2752TIP3    H2 8221   3.052   0.623   5.659  1.5514 -0.9093  0.9682
 2753TIP3   OH2 8222   5.502   1.515   1.310  0.1535  0.6503 -0.3329
 2753TIP3    H1 8223   5.436   1.477   1.368 -0.3939 -0.7552 -1.8139
 2753TIP3    H2 8224   5.581   1.466   1.328 -0.0130  0.2237 -0.7515
 2754TIP3   OH2 8225   2.575   5.451   4.513  0.4364  0.3660 -0.1758
 2754TIP3    H1 8226   2.547   5.384   4.450  0.2635  0.5549 -0.3025
 2754TIP3    H2 8227   2.581   5.531   4.461  1.4892  0.2787 -0.2159
 2755TIP3   OH2 8228   3.527   5.674   0.362 -0.1124  0.9718 -0.3240
 2755TIP3    H1 8229   3.622   5.661   0.355 -0.1594  0.7220 -0.5034
 2755TIP3    H2 8230   3.518   5.762   0.400  0.1797  1.8611 -2.1797
 2756TIP3   OH2 8231   4.319   6.622   5.777  0.7513 -0.5188 -0.1304
 2756TIP3    H1 8232   4.405   6.597   5.808  1.3544  2.2265  0.6779
 2756TIP3    H2 8233   4.326   6.619   5.681  1.6690 -0.5044 -0.0686
 2757TIP3   OH2 8234   5.550   3.666   5.801  1.1417 -0.3911  0.3148
 2757TIP3    H1 8235   5.597   3.625   5.729  0.2463  1.6180 -1.5193
 2757TIP3    H2 8236   5.613   3.728   5.839  0.9118  0.2093 -0.2646
 2758TIP3   OH2 8237   3.625   2.231   5.295  0.3486  0.1373 -0.1003
 2758TIP3    H1 8238   3.533   2.208   5.304  0.0081  1.4832  0.1890
 2758TIP3    H2 8239   3.624   2.316   5.251  1.4548  0.1812 -0.0811
 2759TIP3   OH2 8240   4.210   2.146   0.846 -0.1051  0.2731  0.9357
 2759TIP3    H1 8241   4.257   2.210   0.900  1.9727 -1.0424  0.8011
 2759TIP3    H2 8242   4.247   2.159   0.758 -0.2913 -0.5123  0.7364
 2760TIP3   OH2 8243   1.137   1.701   4.036 -0.0886 -0.3264 -0.2724
 2760TIP3    H1 8244   1.082   1.760   3.984  0.6432 -0.7054 -1.5215
 2760TIP3    H2 8245   1.082   1.624   4.051 -1.0635  0.6240  1.4007
 2761TIP3   OH2 8246   6.591   0.677   4.682 -0.0393  0.0742 -0.0918
 2761TIP3    H1 8247   6.577   0.772   4.689  2.5949  0.5422 -0.3262
 2761TIP3    H2 8248   6.609   0.649   4.772  3.0328  0.5683 -0.4520
 2762TIP3   OH2 8249   3.038   6.235   1.142 -0.7236  0.3749  0.2323
 2762TIP3    H1 8250   3.114   6.204   1.192 -1.0194  0.4246  0.7245
 2762TIP3    H2 8251   2.966   6.178   1.171 -1.5108  2.1180  1.9233
 2763TIP3   OH2 8252   4.790   1.108   0.784 -0.4231  0.3452 -0.2992
 2763TIP3    H1 8253   4.834   1.150   0.858  1.1112  1.3087 -1.6857
 2763TIP3    H2 8254   4.699   1.138   0.790  0.0650  1.8261  0.2151
 2764TIP3   OH2 8255   1.290   6.356   0.153 -0.2492  0.3475  0.3520
 2764TIP3    H1 8256   1.311   6.265   0.176  0.4895  1.1259  3.0290
 2764TIP3    H2 8257   1.372   6.390   0.117 -0.1569  0.3286  0.5463
 2765TIP3   OH2 8258   6.424   0.449   4.649 -0.1406 -0.4508  0.1802
 2765TIP3    H1 8259   6.477   0.383   4.693  1.2139 -0.6329 -1.6367
 2765TIP3    H2 8260   6.472   0.531   4.662 -0.1927 -0.3577 -0.2058
 2766TIP3   OH2 8261   1.004   3.426   3.406 -0.1040 -0.2911 -0.1176
 2766TIP3    H1 8262   0.991   3.381   3.490  1.5423 -1.7395 -0.5773
 2766TIP3    H2 8263   1.099   3.426   3.393 -0.3605 -2.5601 -3.1918
 2767TIP3   OH2 8264   6.256   2.954   2.882  0.3149 -0.2404  0.0176
 2767TIP3    H1 8265   6.202   2.876   2.892  2.2103 -1.8923 -1.7978
 2767TIP3    H2 8266   6.303   2.961   2.965 -3.0956  1.7885  2.0462
 2768TIP3   OH2 8267   6.926   4.560   3.120  0.0837  0.0477  0.0603
 2768TIP3    H1 8268   6.837   4.554   3.155  0.4190 -1.6545  0.7253
 2768TIP3    H2 8269   6.978   4.595   3.192  0.2236 -0.5256  0.2473
 2769TIP3   OH2 8270   3.259   0.255   0.577 -0.1356 -0.5492 -0.6931
 2769TIP3    H1 8271   3.305   0.323   0.527 -0.8974  0.4497 -0.0504
 2769TIP3    H2 8272   3.188   0.301   0.621  0.3162 -1.4674  1.0656
 2770TIP3   OH2 8273   1.177   3.130   0.507 -0.2291  0.7097  0.0924
 2770TIP3    H1 8274   1.098   3.172   0.472  0.2330  1.1037 -0.5078
 2770TIP3    H2 8275   1.241   3.136   0.436  0.3710  0.4768  0.5993
 2771TIP3   OH2 8276   3.357   1.048   5.402 -1.0507 -0.2717  0.0466
 2771TIP3    H1 8277   3.416   0.985   5.361 -0.9287 -0.4589  0.5124
 2771TIP3    H2 8278   3.414   1.111   5.446 -1.2011 -1.0393  1.3805
 2772TIP3   OH2 8279   1.386   3.115   5.847 -0.1315  0.1529 -0.3158
 2772TIP3    H1 8280   1.464   3.088   5.895  1.6785  1.4810 -2.3413
 2772TIP3    H2 8281   1.354   3.035   5.807 -0.1215 -0.4876  0.9060
 2773TIP3   OH2 8282   0.095   0.628   1.650  0.5524 -0.6238 -0.2033
 2773TIP3    H1 8283   0.190   0.619   1.647  0.6108 -0.0809 -0.2124
 2773TIP3    H2 8284   0.062   0.539   1.654  1.0954 -0.8023  0.6605
 2774TIP3   OH2 8285   1.228   4.746   0.669  0.2985 -0.5186 -0.1209
 2774TIP3    H1 8286   1.150   4.791   0.637 -0.9585 -0.6505  2.4871
 2774TIP3    H2 8287   1.284   4.816   0.702  0.1981 -0.5732  0.1703
 2775TIP3   OH2 8288   0.646   5.186   5.165  0.6701  0.3781  0.6212
 2775TIP3    H1 8289   0.569   5.172   5.220  1.7036 -0.5825  1.9007
 2775TIP3    H2 8290   0.615   5.241   5.093 -0.6537  2.2359  2.4666
 2776TIP3   OH2 8291   3.854   5.159   2.554  0.1246  0.0867 -0.2485
 2776TIP3    H1 8292   3.760   5.142   2.564  0.5003 -0.7234  3.6086
 2776TIP3    H2 8293   3.870   5.236   2.608  1.5758  0.9118 -1.7683
 2777TIP3   OH2 8294   1.045   2.807   3.214 -0.1514  0.8972 -0.0942
 2777TIP3    H1 8295   1.017   2.821   3.123 -0.2731 -1.2766 -0.4368
 2777TIP3    H2 8296   1.139   2.791   3.207 -0.0342  1.4120  0.2611
 2778TIP3   OH2 8297   4.513   4.403   3.690  1.0115  0.3567  0.3710
 2778TIP3    H1 8298   4.501   4.470   3.623 -1.5266 -0.9427 -0.5915
 2778TIP3    H2 8299   4.602   4.370   3.675  0.8153  0.6816 -1.8208
 2779TIP3   OH2 8300   4.253   4.546   0.692  0.2236 -0.0598 -0.1718
 2779TIP3    H1 8301   4.344   4.556   0.662 -0.6024 -0.5816 -3.1533
 2779TIP3    H2 8302   4.258   4.478   0.760  2.0442 -0.0686 -0.2539
 2780TIP3   OH2 8303   6.666  -0.021   0.537  0.1351  0.1948 -0.4773
 2780TIP3    H1 8304   6.618   0.059   0.560  1.6473  1.0090 -0.0173
 2780TIP3    H2 8305   6.758   0.005   0.542  0.6366 -0.7561 -3.3573
 2781TIP3   OH2 8306   5.748   4.482   2.215 -0.1337 -0.2282 -0.1334
 2781TIP3    H1 8307   5.774   4.570   2.188  1.5725 -0.7929 -0.4565
 2781TIP3    H2 8308   5.755   4.482   2.310 -0.1955 -0.0056 -0.1288
 2782TIP3   OH2 8309   1.559   1.111   0.336 -0.3169  0.0287 -0.2091
 2782TIP3    H1 8310   1.640   1.064   0.356  0.4283  1.0432 -0.7654
 2782TIP3    H2 8311   1.538   1.087   0.246 -1.0460 -0.7721  0.1484
 2783TIP3   OH2 8312   3.517   0.482   2.701 -0.2692 -0.5943 -0.6233
 2783TIP3    H1 8313   3.457   0.435   2.643 -1.3209  1.1047 -0.9514
 2783TIP3    H2 8314   3.604   0.467   2.662 -0.6790 -1.4708 -1.2399
 2784TIP3   OH2 8315   1.209   0.369   1.166  0.3627 -0.4173  1.0675
 2784TIP3    H1 8316   1.280   0.420   1.204 -0.1775  1.0908  0.1170
 2784TIP3    H2 8317   1.253   0.299   1.117  1.2461  0.9267 -0.1166
 2785TIP3   OH2 8318   5.166   4.881   1.880 -0.5430 -0.2149  0.3137
 2785TIP3    H1 8319   5.157   4.938   1.804 -1.0347 -0.3413  0.2747
 2785TIP3    H2 8320   5.095   4.817   1.871 -2.1331  1.1443  2.0595
 2786TIP3   OH2 8321   1.433   0.901   1.894  0.1023  0.0171  0.2283
 2786TIP3    H1 8322   1.428   0.987   1.851  0.2871  0.5373  1.2155
 2786TIP3    H2 8323   1.466   0.920   1.981  2.1943 -1.2990 -0.2151
 2787TIP3   OH2 8324   1.195   5.897   1.674  0.2790  0.3964 -0.1247
 2787TIP3    H1 8325   1.145   5.914   1.754  0.4057 -3.1705  0.8760
 2787TIP3    H2 8326   1.206   5.802   1.672 -0.5381  0.1606 -4.9233
 2788TIP3   OH2 8327   6.181   2.570   1.430  0.5626 -0.2376 -0.5525
 2788TIP3    H1 8328   6.092   2.596   1.407 -0.2021  0.4123  2.5973
 2788TIP3    H2 8329   6.200   2.495   1.373 -2.2586 -0.8292 -0.8700
 2789TIP3   OH2 8330   2.281   0.880   1.599 -0.4680  0.1982  0.3581
 2789TIP3    H1 8331   2.274   0.819   1.671  1.2875 -1.5446 -0.8436
 2789TIP3    H2 8332   2.224   0.844   1.531  1.2277 -0.6754 -0.6686
 2790TIP3   OH2 8333   3.092   5.718   4.834 -0.2466 -0.6174 -0.1993
 2790TIP3    H1 8334   3.119   5.688   4.921  0.4545  1.7084  0.4621
 2790TIP3    H2 8335   3.012   5.768   4.849  0.9717  1.5479 -0.4991
 2791TIP3   OH2 8336   4.917   4.579   2.343  0.1032  0.1003 -0.5094
 2791TIP3    H1 8337   5.012   4.565   2.350 -0.0800 -0.7528  0.4777
 2791TIP3    H2 8338   4.909   4.658   2.290  1.3813  0.5087 -0.1353
 2792TIP3   OH2 8339   2.480   4.848   3.223  0.4797  0.4973  0.3830
 2792TIP3    H1 8340   2.503   4.935   3.255  0.2147  0.4536  0.7014
 2792TIP3    H2 8341   2.525   4.840   3.139  0.3223  1.0293  0.2443
 2793TIP3   OH2 8342   0.814   6.777   3.478 -0.1547  0.0604  0.3724
 2793TIP3    H1 8343   0.778   6.767   3.390  0.1814  0.7944  0.1490
 2793TIP3    H2 8344   0.814   6.872   3.494  0.0464 -0.0461  1.0548
 2794TIP3   OH2 8345   7.071   2.197   2.012 -0.1798 -0.2217  0.3689
 2794TIP3    H1 8346   7.019   2.253   2.071 -1.7172 -0.3720 -0.7866
 2794TIP3    H2 8347   7.128   2.258   1.966  0.2354  0.0246  1.1753
 2795TIP3   OH2 8348   4.531   6.349   3.431  0.9028 -0.3752  0.0962
 2795TIP3    H1 8349   4.585   6.291   3.377  1.6260  0.5655 -0.2160
 2795TIP3    H2 8350   4.594   6.390   3.492  0.3818 -0.0299  0.4109
 2796TIP3   OH2 8351   0.808   3.959   0.487  0.0809 -0.1186  0.4601
 2796TIP3    H1 8352   0.775   4.048   0.475  1.0044  0.1269 -0.3450
 2796TIP3    H2 8353   0.746   3.919   0.549 -1.0813  0.6587 -0.1664
 2797TIP3   OH2 8354   2.454   1.572   3.178 -0.2486  0.0981  0.4743
 2797TIP3    H1 8355   2.490   1.486   3.157 -2.4771 -0.2724 -2.6409
 2797TIP3    H2 8356   2.394   1.556   3.250 -0.4832 -0.9679  0.0616
 2798TIP3   OH2 8357   5.949   2.263   4.385 -0.2412  0.1462 -0.7639
 2798TIP3    H1 8358   5.883   2.196   4.368 -0.7606  0.2022  0.7909
 2798TIP3    H2 8359   5.995   2.231   4.463  2.1215 -0.2759 -2.2593
 2799TIP3   OH2 8360   4.604   5.491   4.493 -0.6342 -0.7425  0.1810
 2799TIP3    H1 8361   4.674   5.461   4.434 -0.7443 -1.4691  0.4123
 2799TIP3    H2 8362   4.609   5.432   4.568 -2.4335 -1.7419 -0.4273
 2800TIP3   OH2 8363   2.329   3.681   3.239  0.2643  1.0014  0.3266
 2800TIP3    H1 8364   2.389   3.709   3.170  0.8575  0.2362  0.5125
 2800TIP3    H2 8365   2.250   3.732   3.224  0.2391  0.5842 -1.1565
 2801TIP3   OH2 8366   3.819   3.630   3.163  0.1056  0.1580 -0.4143
 2801TIP3    H1 8367   3.755   3.562   3.143  0.3643 -0.9117  2.0661
 2801TIP3    H2 8368   3.769   3.712   3.162 -0.5416 -0.2192 -1.8654
 2802TIP3   OH2 8369   0.027   2.045   0.091 -0.2960 -0.4074 -0.4953
 2802TIP3    H1 8370  -0.009   2.056   0.003  1.8819  0.6835 -1.3236
 2802TIP3    H2 8371   0.117   2.018   0.076  0.3674  0.6224  1.3755
 2803TIP3   OH2 8372   3.791   3.146   2.194  0.2216 -0.0861  0.1558
 2803TIP3    H1 8373   3.794   3.081   2.124  0.2546  0.5955 -0.4856
 2803TIP3    H2 8374   3.855   3.115   2.258 -0.6314 -1.3376  0.4582
 2804TIP3   OH2 8375   1.100   3.536   2.790 -0.6469 -0.3713 -0.3582
 2804TIP3    H1 8376   1.124   3.490   2.710  0.3199  0.1026 -0.3558
 2804TIP3    H2 8377   1.181   3.540   2.841 -1.2505 -0.7025  0.6707
 2805TIP3   OH2 8378   5.898   2.892   1.034  0.2399 -0.1704 -0.1892
 2805TIP3    H1 8379   5.947   2.897   0.952  0.2611  2.5426 -0.0914
 2805TIP3    H2 8380   5.819   2.843   1.012  1.6166 -2.1988 -1.0122
 2806TIP3   OH2 8381   5.714   2.244   4.109 -0.0516  0.0490  0.3723
 2806TIP3    H1 8382   5.705   2.191   4.188  0.0296 -1.3118 -0.4928
 2806TIP3    H2 8383   5.625   2.264   4.083 -0.3125 -2.6546 -1.1868
 2807TIP3   OH2 8384   4.520   6.150   1.453 -0.0764  0.1727  0.0952
 2807TIP3    H1 8385   4.505   6.180   1.543 -0.0974  2.8226 -0.6942
 2807TIP3    H2 8386   4.438   6.168   1.408  0.1512 -0.5329 -0.6195
 2808TIP3   OH2 8387   2.732   5.585   5.685 -0.7122  0.0787  0.5122
 2808TIP3    H1 8388   2.781   5.614   5.608  2.6692 -1.8876  1.6893
 2808TIP3    H2 8389   2.770   5.635   5.758 -0.0522 -1.7785  1.5236
 2809TIP3   OH2 8390   0.281   1.990   3.648 -0.2474  0.4151 -0.3974
 2809TIP3    H1 8391   0.374   2.016   3.652 -0.0051  0.1000 -2.7113
 2809TIP3    H2 8392   0.246   2.039   3.574 -1.2507 -1.4699 -1.2368
 2810TIP3   OH2 8393   2.992   5.061   4.006  0.3141 -0.9201 -0.2793
 2810TIP3    H1 8394   2.922   5.110   4.050 -0.1804 -2.0108  0.1771
 2810TIP3    H2 8395   2.966   5.061   3.914  1.4731  1.5711 -0.7035
 2811TIP3   OH2 8396   2.132   1.104   1.645 -0.1399 -0.4145  0.4893
 2811TIP3    H1 8397   2.183   1.024   1.639 -0.6299 -0.9747  2.8958
 2811TIP3    H2 8398   2.196   1.175   1.636  0.6205 -1.0817  0.5886
 2812TIP3   OH2 8399   1.477   6.784   3.298 -0.3333  0.3513 -0.1853
 2812TIP3    H1 8400   1.494   6.723   3.370 -0.1712 -0.1647 -0.6516
 2812TIP3    H2 8401   1.469   6.869   3.340  1.5079  0.3456  0.2623
 2813TIP3   OH2 8402   3.608   1.301   0.265  0.0652  0.3527  0.3610
 2813TIP3    H1 8403   3.617   1.390   0.229 -0.5082  0.6545  0.9370
 2813TIP3    H2 8404   3.520   1.300   0.303 -0.0900 -0.5999  0.0050
 2814TIP3   OH2 8405   0.874   2.513   2.036 -0.1788  0.4995 -0.0094
 2814TIP3    H1 8406   0.895   2.474   1.952 -0.9719  1.1863 -0.5438
 2814TIP3    H2 8407   0.935   2.587   2.044  1.2660 -0.7366  0.9646
 2815TIP3   OH2 8408   4.342   1.162   2.088 -0.1331  0.8323 -0.0509
 2815TIP3    H1 8409   4.349   1.253   2.118 -0.1688  0.7149  0.3105
 2815TIP3    H2 8410   4.270   1.163   2.025  0.3930  1.2193 -0.6766
 2816TIP3   OH2 8411   2.965   4.372   1.595  0.4300  0.4362 -0.2537
 2816TIP3    H1 8412   3.039   4.373   1.534  2.0378  1.6469  1.5940
 2816TIP3    H2 8413   2.919   4.454   1.577  2.1082  1.8253  1.4538
 2817TIP3   OH2 8414   5.811   3.524   3.614 -0.5167  0.3946 -0.0425
 2817TIP3    H1 8415   5.896   3.554   3.646 -0.0803  2.1021 -2.4931
 2817TIP3    H2 8416   5.832   3.458   3.548 -0.8529  2.3759 -2.2651
 2818TIP3   OH2 8417   5.294   5.668   4.784 -0.1014 -0.1895  0.0388
 2818TIP3    H1 8418   5.362   5.735   4.771 -0.7344  0.4712  0.0389
 2818TIP3    H2 8419   5.253   5.659   4.698 -0.1560 -0.4191  0.0902
 2819TIP3   OH2 8420   6.572   0.777   3.596 -0.5554 -0.0451 -0.1875
 2819TIP3    H1 8421   6.536   0.734   3.518  0.0756 -2.3661  0.7112
 2819TIP3    H2 8422   6.533   0.730   3.669  0.1692  0.9626  0.8818
 2820TIP3   OH2 8423   3.576   6.524   1.034  0.6876  0.0209  0.1409
 2820TIP3    H1 8424   3.558   6.565   0.950 -1.6373 -1.6563 -0.2790
 2820TIP3    H2 8425   3.633   6.586   1.079  0.2329  1.9837 -1.7971
 2821TIP3   OH2 8426   0.039   2.785   3.240  0.2352 -0.3962 -0.7196
 2821TIP3    H1 8427   0.022   2.695   3.214 -0.2759 -0.0740 -1.5377
 2821TIP3    H2 8428  -0.047   2.819   3.266  0.2785  0.0943 -1.1986
 2822TIP3   OH2 8429   5.378   4.494   1.026  0.3071  0.1380  0.1439
 2822TIP3    H1 8430   5.365   4.484   0.932  0.5311  0.7380  0.0460
 2822TIP3    H2 8431   5.307   4.551   1.055  0.3613  0.1287  0.3004
 2823TIP3   OH2 8432   6.089   4.877   4.642 -0.5236 -0.1957 -0.3064
 2823TIP3    H1 8433   6.051   4.937   4.577  1.1338  1.1587 -0.0971
 2823TIP3    H2 8434   6.049   4.793   4.622 -1.6676  0.6180 -1.7166
 2824TIP3   OH2 8435   3.636   0.654   0.473 -0.0696 -0.2472 -0.1183
 2824TIP3    H1 8436   3.687   0.669   0.552  0.4423  1.9322 -0.7965
 2824TIP3    H2 8437   3.700   0.629   0.407 -0.0271  1.1224 -0.6236
 2825TIP3   OH2 8438   2.593   2.549   2.406  0.0585  0.2945 -0.0191
 2825TIP3    H1 8439   2.517   2.607   2.400 -0.9190 -1.0391 -0.9127
 2825TIP3    H2 8440   2.650   2.577   2.334 -0.6228 -0.1391 -0.7348
 2826TIP3   OH2 8441   4.420   0.747   0.437 -0.3561 -0.5344  0.1903
 2826TIP3    H1 8442   4.482   0.697   0.384 -1.1466 -0.8572 -0.4483
 2826TIP3    H2 8443   4.366   0.681   0.479 -1.0895 -0.2302 -0.2670
 2827TIP3   OH2 8444   1.589   4.694   4.525  0.4244 -0.0328 -0.4618
 2827TIP3    H1 8445   1.566   4.674   4.434 -1.2412  0.8766 -0.2804
 2827TIP3    H2 8446   1.505   4.706   4.569  1.2176  1.4287  0.7636
 2828TIP3   OH2 8447   3.796   6.057   3.260  0.1604  0.2460 -0.0249
 2828TIP3    H1 8448   3.839   6.031   3.341  0.5442 -0.7085 -0.5202
 2828TIP3    H2 8449   3.704   6.036   3.273  0.2458 -0.0480  0.0967
 2829TIP3   OH2 8450   5.934   4.327   2.058 -0.0614 -0.9594 -0.5804
 2829TIP3    H1 8451   5.883   4.361   2.131  0.3901 -0.6985 -0.3820
 2829TIP3    H2 8452   5.962   4.240   2.085 -0.0411 -0.9312 -0.5115
 2830TIP3   OH2 8453   5.293   0.061   0.902 -0.1094  0.4994  0.4066
 2830TIP3    H1 8454   5.292   0.156   0.909  0.0535  0.5869 -0.5728
 2830TIP3    H2 8455   5.202   0.038   0.880  0.0808  0.5423 -0.4746
 2831TIP3   OH2 8456   2.963   1.610   1.074  0.4443  0.2049  0.1015
 2831TIP3    H1 8457   2.990   1.520   1.088  0.6334  0.1205 -0.7540
 2831TIP3    H2 8458   3.034   1.662   1.114 -0.0082 -0.0093  1.2161
 2832TIP3   OH2 8459   0.287   6.822   5.328 -0.2349 -0.0624  0.2326
 2832TIP3    H1 8460   0.213   6.771   5.294  0.2060 -0.0584 -0.7762
 2832TIP3    H2 8461   0.283   6.811   5.423 -1.0848 -0.6721  0.1348
 2833TIP3   OH2 8462   0.359   1.584   1.000  0.1936 -0.4022  0.0679
 2833TIP3    H1 8463   0.408   1.570   0.919 -0.8841 -1.9284 -0.3622
 2833TIP3    H2 8464   0.387   1.513   1.057  1.4049  1.0093  1.3133
 2834TIP3   OH2 8465   4.209   1.603   0.696  0.2380  0.0606  0.1743
 2834TIP3    H1 8466   4.153   1.670   0.735 -0.2499  0.4155 -1.1151
 2834TIP3    H2 8467   4.219   1.629   0.605 -0.2050 -1.7626 -0.4367
 2835TIP3   OH2 8468   4.243   3.818   3.986 -0.0777 -0.2639 -0.0490
 2835TIP3    H1 8469   4.270   3.737   3.943 -1.1266 -0.7803  0.2379
 2835TIP3    H2 8470   4.150   3.805   4.006 -0.7426  1.6637 -1.5284
 2836TIP3   OH2 8471   6.671   0.225   3.974 -0.0438 -0.3533 -0.1680
 2836TIP3    H1 8472   6.713   0.143   3.947  1.8705  1.3137 -2.7133
 2836TIP3    H2 8473   6.736   0.268   4.029 -1.0217 -0.4537  1.1143
 2837TIP3   OH2 8474   0.566   4.325   1.388 -0.6133 -0.2163  0.1783
 2837TIP3    H1 8475   0.505   4.295   1.319  1.0095 -0.8286 -1.0602
 2837TIP3    H2 8476   0.565   4.254   1.452 -1.3114 -0.1458  0.2575
 2838TIP3   OH2 8477   2.981   1.782   1.384  0.5698 -0.1465  0.2290
 2838TIP3    H1 8478   3.000   1.827   1.466  2.0253  0.0227 -0.1759
 2838TIP3    H2 8479   2.971   1.853   1.320  2.3916 -0.3240 -0.3123
 2839TIP3   OH2 8480   6.278   1.614   4.157 -0.3381  0.1451  0.3351
 2839TIP3    H1 8481   6.327   1.532   4.151  0.9880  0.8700  0.7356
 2839TIP3    H2 8482   6.187   1.587   4.161  0.1209 -1.4162  2.0832
 2840TIP3   OH2 8483   1.708   1.013   5.610 -0.1888  0.5577  0.3514
 2840TIP3    H1 8484   1.756   0.949   5.558 -1.5758 -0.8186  0.6684
 2840TIP3    H2 8485   1.739   1.098   5.579  1.5732 -0.2489 -0.2177
 2841TIP3   OH2 8486   6.273   4.485   0.743 -0.2891  0.0150 -0.3726
 2841TIP3    H1 8487   6.287   4.554   0.808 -0.9404 -0.3480  0.1613
 2841TIP3    H2 8488   6.250   4.533   0.663 -2.1208  0.3923  0.3473
 2842TIP3   OH2 8489   0.942   6.060   0.927 -0.0114 -0.3421 -0.7856
 2842TIP3    H1 8490   0.918   5.983   0.875 -0.4248 -1.0731  0.4472
 2842TIP3    H2 8491   1.035   6.047   0.948 -0.0049 -0.3584 -0.8248
 2843TIP3   OH2 8492   2.756   6.430   0.972  0.4563  0.1170  0.8174
 2843TIP3    H1 8493   2.725   6.517   0.944  2.0947  0.4459 -0.0760
 2843TIP3    H2 8494   2.846   6.426   0.942  1.1385 -1.0311  2.8127
 2844TIP3   OH2 8495   5.299   1.526   1.962 -0.7100  0.0922  0.0080
 2844TIP3    H1 8496   5.330   1.461   2.025 -1.9669 -0.9584 -0.4087
 2844TIP3    H2 8497   5.358   1.517   1.887  0.1593  0.6326  0.6180
 2845TIP3   OH2 8498   1.827   5.004   3.143  0.5073  0.1761  0.3958
 2845TIP3    H1 8499   1.739   5.030   3.170  0.3444 -1.3797  1.4954
 2845TIP3    H2 8500   1.815   4.963   3.057 -0.0635 -1.1713  1.0941
 2846TIP3   OH2 8501   4.979   0.509   3.776  0.2892 -0.6183  0.0617
 2846TIP3    H1 8502   5.038   0.440   3.807 -2.1897 -1.4733  3.4968
 2846TIP3    H2 8503   4.976   0.572   3.848 -1.7034  0.1857 -0.6609
 2847TIP3   OH2 8504   1.035   5.162   5.404 -0.1806 -0.5323  0.2839
 2847TIP3    H1 8505   1.021   5.103   5.330 -1.4698  1.2786 -1.0091
 2847TIP3    H2 8506   0.966   5.138   5.466 -0.1107 -0.9838  0.1937
 2848TIP3   OH2 8507   1.007   3.632   3.039 -0.3211 -0.0374  0.3064
 2848TIP3    H1 8508   1.003   3.724   3.066 -1.6510  0.2367 -0.7361
 2848TIP3    H2 8509   1.022   3.635   2.945 -1.2393 -0.8643  0.1201
 2849TIP3   OH2 8510   4.270   6.097   1.617 -0.3110  0.0301  0.1618
 2849TIP3    H1 8511   4.263   6.012   1.576 -0.4167 -0.1854  0.6188
 2849TIP3    H2 8512   4.193   6.145   1.586 -0.6596 -0.3021  0.4952
 2850TIP3   OH2 8513   1.554   5.532   0.734 -0.1798  0.0769 -0.6348
 2850TIP3    H1 8514   1.589   5.522   0.823 -1.0701  0.6028 -0.2173
 2850TIP3    H2 8515   1.608   5.473   0.681  0.2968 -0.3242  0.2676
 2851TIP3   OH2 8516   6.910   6.252   3.461  0.3066 -0.0648 -0.0715
 2851TIP3    H1 8517   6.921   6.252   3.556 -0.1793  0.5231 -0.0053
 2851TIP3    H2 8518   6.871   6.338   3.442 -3.2741 -1.5808 -0.3613
 2852TIP3   OH2 8519   1.013   1.528   1.058 -0.2772 -0.2616 -0.1631
 2852TIP3    H1 8520   1.070   1.461   1.021  0.1928  0.9870 -1.8644
 2852TIP3    H2 8521   1.049   1.610   1.025 -2.1944  0.6794 -0.0615
 2853TIP3   OH2 8522   5.311   1.122   0.040  0.1550 -0.0345 -0.0409
 2853TIP3    H1 8523   5.329   1.213   0.066 -1.1779  0.4632 -0.7229
 2853TIP3    H2 8524   5.216   1.113   0.049  0.4058 -1.8240  1.3363
 2854TIP3   OH2 8525   0.958   5.460   1.708 -0.2580 -0.0612 -0.3365
 2854TIP3    H1 8526   0.930   5.468   1.799 -0.9474 -1.2777 -0.4129
 2854TIP3    H2 8527   0.878   5.469   1.657  0.1163  0.5740 -0.8333
 2855TIP3   OH2 8528   2.117   1.323   5.863 -0.1103 -0.8167  0.0738
 2855TIP3    H1 8529   2.179   1.264   5.820  0.8599 -1.2603  2.0167
 2855TIP3    H2 8530   2.076   1.269   5.931 -1.3214 -0.0191  0.0073
 2856TIP3   OH2 8531   6.759   5.008   1.852 -0.8071  0.1311  0.1919
 2856TIP3    H1 8532   6.833   5.063   1.876 -1.7484  1.1862  0.7675
 2856TIP3    H2 8533   6.709   5.061   1.791 -0.7337 -0.8458 -0.7361
 2857TIP3   OH2 8534   0.892   5.726   3.001 -0.1434  0.1966 -0.0892
 2857TIP3    H1 8535   0.797   5.732   3.013 -0.1494 -0.4307  0.2375
 2857TIP3    H2 8536   0.903   5.675   2.921 -0.0927 -1.1445  0.7401
 2858TIP3   OH2 8537   3.797   4.795   3.267 -0.1939  0.0136 -0.0545
 2858TIP3    H1 8538   3.803   4.708   3.229 -2.4515 -0.2123 -0.0808
 2858TIP3    H2 8539   3.771   4.851   3.194 -1.5887  0.1334  0.4913
 2859TIP3   OH2 8540   5.915   6.300   3.240 -0.3204 -0.4305 -0.0934
 2859TIP3    H1 8541   5.895   6.365   3.173  1.1151 -0.2583 -0.3916
 2859TIP3    H2 8542   5.888   6.217   3.202 -0.2413 -0.2397 -0.5695
 2860TIP3   OH2 8543   2.086   3.933   0.083  0.0121  0.2582  0.0547
 2860TIP3    H1 8544   2.047   3.897   0.004 -1.4675  1.8828 -0.0241
 2860TIP3    H2 8545   2.096   3.858   0.142  1.3209 -1.0076 -1.6853
 2861TIP3   OH2 8546   2.207   5.308   3.876 -0.6455 -0.0954  0.2853
 2861TIP3    H1 8547   2.175   5.235   3.928 -1.2074 -1.2200 -1.5342
 2861TIP3    H2 8548   2.267   5.268   3.813  0.2470  1.2437  0.2283
 2862TIP3   OH2 8549   5.870   4.574   0.102 -0.1031  0.0335  0.4678
 2862TIP3    H1 8550   5.800   4.565   0.037  0.4280  1.7041 -0.3927
 2862TIP3    H2 8551   5.912   4.488   0.103 -1.1460 -0.5141 -0.1894
 2863TIP3   OH2 8552   4.493   6.026   3.977 -0.0224 -0.2155 -0.0554
 2863TIP3    H1 8553   4.419   6.027   3.916 -1.5093  0.9869  1.6523
 2863TIP3    H2 8554   4.507   5.933   3.996  0.2326 -0.5826 -1.8970
 2864TIP3   OH2 8555   2.620   6.679   0.887  0.2155 -0.7824 -0.0404
 2864TIP3    H1 8556   2.594   6.720   0.970  1.6145 -0.8715  0.4795
 2864TIP3    H2 8557   2.540   6.641   0.852 -0.7130  0.6143  0.4949
 2865TIP3   OH2 8558   0.483   3.226   5.624  0.2314  0.1676  0.5713
 2865TIP3    H1 8559   0.533   3.286   5.569 -1.8915  1.5288  0.0163
 2865TIP3    H2 8560   0.418   3.188   5.564  1.0446 -2.2169  1.0675
 2866TIP3   OH2 8561   1.348   6.059   4.732 -0.0584 -0.2811  0.4296
 2866TIP3    H1 8562   1.374   5.985   4.677 -0.2020  0.5278 -0.7861
 2866TIP3    H2 8563   1.253   6.059   4.730 -0.0839  1.1430 -1.3699
 2867TIP3   OH2 8564   1.451   0.642   5.089  0.0031 -0.2801  0.0343
 2867TIP3    H1 8565   1.500   0.684   5.159 -0.5225  0.4178 -0.0085
 2867TIP3    H2 8566   1.476   0.691   5.010 -1.0697  0.3498  0.0750
 2868TIP3   OH2 8567   5.268   5.996   5.914  0.1878  0.1645 -0.2785
 2868TIP3    H1 8568   5.282   6.032   5.826  0.9034  0.9012  0.1249
 2868TIP3    H2 8569   5.352   6.008   5.958 -0.3592  0.4002  0.7195
 2869TIP3   OH2 8570   5.827   5.446   4.577  0.1121 -0.3147 -0.1679
 2869TIP3    H1 8571   5.921   5.455   4.592  0.2921  0.0087 -1.3496
 2869TIP3    H2 8572   5.786   5.476   4.657  0.9307  2.5876 -0.7288
 2870TIP3   OH2 8573   0.975   2.761   1.726  0.0729  0.3533 -0.2250
 2870TIP3    H1 8574   1.067   2.734   1.731 -0.2700 -0.9933 -0.8159
 2870TIP3    H2 8575   0.950   2.775   1.817  0.7437  0.3251 -0.0248
 2871TIP3   OH2 8576   4.699   0.732   3.922 -0.1689  0.6176 -0.4505
 2871TIP3    H1 8577   4.621   0.680   3.904  0.8362 -1.3643  0.6249
 2871TIP3    H2 8578   4.739   0.690   3.998  2.2391  1.2446 -1.2843
 2872TIP3   OH2 8579   2.293   5.084   5.798  0.3539  0.3602  0.1765
 2872TIP3    H1 8580   2.351   5.024   5.844  0.1100 -0.3759 -0.4441
 2872TIP3    H2 8581   2.242   5.027   5.739 -0.6377  1.0418  0.3451
 2873TIP3   OH2 8582   0.521   4.782   5.573 -0.3019 -0.2608  0.3679
 2873TIP3    H1 8583   0.545   4.690   5.587  0.0387 -0.3635 -0.7512
 2873TIP3    H2 8584   0.441   4.794   5.625  0.5481 -0.7184  1.8190
 2874TIP3   OH2 8585   6.992   3.213   1.331  0.0365 -0.6573 -0.3211
 2874TIP3    H1 8586   7.028   3.195   1.244  0.5185  0.7159 -0.4263
 2874TIP3    H2 8587   6.917   3.153   1.339  0.7191 -1.6574 -1.1757
 2875TIP3   OH2 8588   5.303   2.875   5.669  0.0826 -0.0235 -0.2164
 2875TIP3    H1 8589   5.323   2.968   5.681  2.3302 -0.5682  0.8096
 2875TIP3    H2 8590   5.387   2.835   5.648 -0.9721 -1.7386 -1.3810
 2876TIP3   OH2 8591   6.377   3.261   3.635 -0.1500 -0.5074 -0.1917
 2876TIP3    H1 8592   6.332   3.286   3.716  0.0701 -1.6955  0.3230
 2876TIP3    H2 8593   6.377   3.165   3.636 -0.7614 -0.5532 -1.9633
 2877TIP3   OH2 8594   5.671   1.293   5.167 -0.0736 -0.1346 -0.6569
 2877TIP3    H1 8595   5.602   1.228   5.157 -0.3233  0.0636 -0.2241
 2877TIP3    H2 8596   5.735   1.270   5.099 -0.0090 -1.0269 -0.3084
 2878TIP3   OH2 8597   5.979   5.519   5.145  0.2444  0.6552 -0.0044
 2878TIP3    H1 8598   6.000   5.579   5.217  0.0789  0.9189 -0.1733
 2878TIP3    H2 8599   6.059   5.470   5.130  0.8255  1.7820 -0.7703
 2879TIP3   OH2 8600   2.583   0.276   2.619 -0.0607  0.0884 -0.5510
 2879TIP3    H1 8601   2.573   0.349   2.558  1.3671  2.8075  2.2047
 2879TIP3    H2 8602   2.513   0.289   2.683  2.4280  1.5134  2.1192
 2880TIP3   OH2 8603   4.142   5.631   1.503 -0.5029  0.4920  0.1568
 2880TIP3    H1 8604   4.077   5.607   1.437 -0.4998 -1.2899  0.7485
 2880TIP3    H2 8605   4.108   5.593   1.584  1.7802 -1.4063  0.2940
 2881TIP3   OH2 8606   2.924   4.967   2.692  0.0947  0.5050  0.1940
 2881TIP3    H1 8607   2.847   5.017   2.718  0.0390  0.8108 -0.5420
 2881TIP3    H2 8608   2.995   5.006   2.744 -0.4209 -0.5663  1.7718
 2882TIP3   OH2 8609   6.571   6.649   4.162  0.0961  0.1872  0.1049
 2882TIP3    H1 8610   6.657   6.608   4.155 -0.3554 -0.5917 -1.2676
 2882TIP3    H2 8611   6.524   6.619   4.084 -1.1732  1.1813  0.4617
 2883TIP3   OH2 8612   2.740   3.604   1.539 -0.1294  0.0493 -0.5089
 2883TIP3    H1 8613   2.722   3.693   1.509  1.8139  1.2208  1.4530
 2883TIP3    H2 8614   2.834   3.591   1.522  0.6653  0.1045  2.9142
 2884TIP3   OH2 8615   3.961   2.874   2.806  0.3773 -0.2355  0.0145
 2884TIP3    H1 8616   3.999   2.870   2.894 -0.6320  0.0537  0.4824
 2884TIP3    H2 8617   3.997   2.798   2.761  0.8522 -0.4302  0.7038
 2885TIP3   OH2 8618   3.286   1.080   0.164  0.4801  0.0397 -0.2003
 2885TIP3    H1 8619   3.372   1.049   0.193  0.3283  1.4817  1.9886
 2885TIP3    H2 8620   3.224   1.037   0.223 -0.2044  0.1316 -0.8326
 2886TIP3   OH2 8621   5.705   2.287   1.439 -0.4516 -0.0035  0.4942
 2886TIP3    H1 8622   5.784   2.243   1.408 -0.1143  0.7387  0.2796
 2886TIP3    H2 8623   5.650   2.296   1.361  0.2179  1.4851  0.1572
 2887TIP3   OH2 8624   3.742   6.795   3.109  0.4408  0.7383 -0.2857
 2887TIP3    H1 8625   3.670   6.858   3.122 -0.6806 -0.4159 -0.6518
 2887TIP3    H2 8626   3.731   6.733   3.182  1.4040  0.8437 -0.0465
 2888TIP3   OH2 8627   2.901   5.037   3.744 -0.0971 -0.2702  0.7773
 2888TIP3    H1 8628   2.912   5.029   3.649  1.3989  0.9918  0.8162
 2888TIP3    H2 8629   2.807   5.051   3.756  0.0784  3.1275 -0.8597
 2889TIP3   OH2 8630   6.664   1.462   1.630 -0.3924 -0.1472 -0.8127
 2889TIP3    H1 8631   6.589   1.405   1.614 -0.3757 -1.3985  2.7199
 2889TIP3    H2 8632   6.659   1.482   1.723  1.6255  2.8288 -1.2124
 2890TIP3   OH2 8633   5.064   3.929   0.251 -0.2000  0.2108 -0.5557
 2890TIP3    H1 8634   5.078   4.007   0.305  0.4969  1.1945 -2.0922
 2890TIP3    H2 8635   4.973   3.905   0.268 -0.0715  0.5998  0.8759
 2891TIP3   OH2 8636   1.985   0.482   3.838 -0.1399  0.3338 -0.0700
 2891TIP3    H1 8637   1.905   0.432   3.855 -0.6426  0.6099 -1.4757
 2891TIP3    H2 8638   2.055   0.418   3.847 -0.4778  0.1222  1.3376
 2892TIP3   OH2 8639   1.949   0.769   0.474  0.7866  0.8360  0.0459
 2892TIP3    H1 8640   1.979   0.716   0.400  0.1590 -0.5944  0.7803
 2892TIP3    H2 8641   2.007   0.744   0.546  0.4373  1.0997  0.4202
 2893TIP3   OH2 8642   2.046   2.927   4.650  0.3059 -0.0106 -0.1348
 2893TIP3    H1 8643   2.069   2.842   4.611 -1.4143  0.3866 -2.1518
 2893TIP3    H2 8644   2.067   2.916   4.743 -2.0187 -3.5207  0.1681
 2894TIP3   OH2 8645   0.287   4.561   2.795 -0.0960 -0.1316 -0.0351
 2894TIP3    H1 8646   0.250   4.551   2.707  1.9264  1.4157 -1.1511
 2894TIP3    H2 8647   0.354   4.492   2.800  0.2055  0.1603  0.0205
 2895TIP3   OH2 8648   2.460   4.006   1.084 -0.2470 -0.2267  0.2177
 2895TIP3    H1 8649   2.414   3.952   1.019 -0.3283  0.6562 -0.4877
 2895TIP3    H2 8650   2.446   4.096   1.053 -0.1076  0.1963  1.3559
 2896TIP3   OH2 8651   4.064   3.937   5.101 -0.0398 -0.2325 -0.5809
 2896TIP3    H1 8652   4.088   3.967   5.189 -0.1216 -1.0848 -0.2542
 2896TIP3    H2 8653   4.032   4.015   5.056  0.9420  0.4147 -0.1808
 2897TIP3   OH2 8654   1.518   6.665   2.059 -0.4321  0.4911 -0.3899
 2897TIP3    H1 8655   1.441   6.686   2.112 -0.2839 -1.5580  0.7270
 2897TIP3    H2 8656   1.482   6.626   1.979 -0.6398 -2.1061  0.8604
 2898TIP3   OH2 8657   5.705   5.996   0.284 -0.1078 -0.0398 -0.3120
 2898TIP3    H1 8658   5.773   6.062   0.275 -1.7131  1.8144  0.2646
 2898TIP3    H2 8659   5.739   5.934   0.348 -0.1899  2.7176  2.6799
 2899TIP3   OH2 8660   7.119   3.737   3.730 -0.2883 -0.3667  0.0976
 2899TIP3    H1 8661   7.154   3.684   3.659 -2.7996 -0.4248 -1.2037
 2899TIP3    H2 8662   7.145   3.691   3.810  1.3410 -1.0834 -0.7853
 2900TIP3   OH2 8663   2.570   1.828   2.732  0.3241  0.5613  0.3148
 2900TIP3    H1 8664   2.586   1.808   2.824  2.2161  2.7477  0.5659
 2900TIP3    H2 8665   2.575   1.924   2.727 -1.8325  0.6669 -1.7476
 2901TIP3   OH2 8666   5.614   6.464   0.940 -0.1821 -0.4139  0.0088
 2901TIP3    H1 8667   5.677   6.415   0.887 -0.5944 -0.5230 -0.3972
 2901TIP3    H2 8668   5.644   6.555   0.936 -1.2521 -0.0928 -2.0277
 2902TIP3   OH2 8669   4.096   2.358   0.455  0.1940  0.1221 -0.5541
 2902TIP3    H1 8670   4.150   2.367   0.534 -1.3657 -1.9649  0.8688
 2902TIP3    H2 8671   4.149   2.304   0.396 -0.0456 -1.4377  0.5960
 2903TIP3   OH2 8672   0.859   0.528   3.808  0.0811  0.6789  0.1677
 2903TIP3    H1 8673   0.877   0.616   3.843 -3.1584  1.5950 -0.1746
 2903TIP3    H2 8674   0.865   0.471   3.885  3.0856  0.9626  0.2484
 2904TIP3   OH2 8675   4.865   4.312   5.599 -0.3802 -0.4798  0.0222
 2904TIP3    H1 8676   4.789   4.315   5.541 -0.6992 -0.8490  0.4176
 2904TIP3    H2 8677   4.897   4.222   5.594  0.4791 -0.1610 -0.6921
 2905TIP3   OH2 8678   2.114   2.782   1.938 -0.6073  0.1827  0.2467
 2905TIP3    H1 8679   2.114   2.864   1.988  1.8546  0.4237 -0.0182
 2905TIP3    H2 8680   2.103   2.713   2.004  0.3712  0.6020  0.8671
 2906TIP3   OH2 8681   2.448   4.945   5.032  0.0465  0.1346 -0.0530
 2906TIP3    H1 8682   2.464   5.023   4.978 -0.0743 -0.9319 -1.7111
 2906TIP3    H2 8683   2.368   4.964   5.080  0.3013  1.2200 -0.0296
 2907TIP3   OH2 8684   6.655   0.394   0.726 -1.1430  0.2174  1.1007
 2907TIP3    H1 8685   6.719   0.322   0.729 -1.4349 -0.0181  2.0574
 2907TIP3    H2 8686   6.684   0.449   0.653  0.1129  0.0675  1.4636
 2908TIP3   OH2 8687   3.354   0.322   1.249 -0.4912 -0.2648  0.0516
 2908TIP3    H1 8688   3.283   0.364   1.298 -0.2907  0.3822 -0.1993
 2908TIP3    H2 8689   3.434   0.355   1.289 -0.3252 -0.9879  0.3293
 2909TIP3   OH2 8690   3.827   4.427   5.415  0.0443  0.0949 -0.3253
 2909TIP3    H1 8691   3.803   4.344   5.458 -0.1036 -0.3125 -1.1701
 2909TIP3    H2 8692   3.890   4.467   5.474  0.1281 -0.6357  0.0972
 2910TIP3   OH2 8693   4.398   4.197   0.146  0.0469 -0.7508 -0.3081
 2910TIP3    H1 8694   4.449   4.170   0.223  0.4786  1.3028  0.2003
 2910TIP3    H2 8695   4.454   4.175   0.072  0.9172 -0.1443  0.1482
 2911TIP3   OH2 8696   1.147   1.808   0.187  0.2933  0.1198  0.4446
 2911TIP3    H1 8697   1.081   1.856   0.237  0.1379  1.7498 -1.2408
 2911TIP3    H2 8698   1.151   1.722   0.230 -3.7239 -0.4931  0.0475
 2912TIP3   OH2 8699   0.637   2.251   4.691  0.8432  0.0140 -0.1176
 2912TIP3    H1 8700   0.689   2.192   4.745 -0.4472 -0.3809  0.7529
 2912TIP3    H2 8701   0.570   2.194   4.651 -0.9292  0.9385  1.3739
 2913TIP3   OH2 8702   0.975   0.249   3.666  0.1746 -0.1261  0.0398
 2913TIP3    H1 8703   1.063   0.268   3.698  0.0967 -1.6877  1.2530
 2913TIP3    H2 8704   0.923   0.324   3.696  0.7998  0.1212  0.5430
 2914TIP3   OH2 8705   1.289   3.940   3.309  0.0072  0.6116 -0.2963
 2914TIP3    H1 8706   1.198   3.910   3.318  0.3666 -0.4290  0.0114
 2914TIP3    H2 8707   1.281   4.033   3.285 -1.1256  1.0785  1.6483
 2915TIP3   OH2 8708   1.329   5.040   4.403  0.3234 -0.6717  0.1299
 2915TIP3    H1 8709   1.283   5.120   4.376 -0.5571 -0.8694  0.9745
 2915TIP3    H2 8710   1.411   5.072   4.441  0.4834 -0.2465 -0.5662
 2916TIP3   OH2 8711   5.642   3.017   5.303 -0.2700  0.0301  0.4025
 2916TIP3    H1 8712   5.677   3.101   5.272  1.1453 -0.3179  0.9611
 2916TIP3    H2 8713   5.553   3.014   5.270 -0.6850  2.1839  1.1556
 2917TIP3   OH2 8714   2.171   5.654   2.560 -0.5615  0.2734  0.0486
 2917TIP3    H1 8715   2.225   5.670   2.638  0.3845  2.9073 -1.0576
 2917TIP3    H2 8716   2.230   5.609   2.499 -1.3071 -1.8043  0.7613
 2918TIP3   OH2 8717   4.864   5.122   4.788 -0.7973  0.2300  0.2942
 2918TIP3    H1 8718   4.872   5.084   4.875 -0.5441 -0.8774 -0.1809
 2918TIP3    H2 8719   4.942   5.176   4.777 -1.1857  0.9478  1.0070
 2919TIP3   OH2 8720   2.780   1.042   4.079  0.1828  0.2044  0.1269
 2919TIP3    H1 8721   2.696   1.026   4.035  0.5096 -0.1949 -0.3486
 2919TIP3    H2 8722   2.828   1.099   4.019  0.2654  0.4104  0.3866
 2920TIP3   OH2 8723   0.666   2.757   4.883  0.5347  0.0849  0.0057
 2920TIP3    H1 8724   0.723   2.723   4.952  0.8107 -2.5194 -1.3863
 2920TIP3    H2 8725   0.581   2.716   4.899  0.0851  0.9531 -0.1140
 2921TIP3   OH2 8726   6.512   5.024   2.689 -0.4120  0.0106  0.6278
 2921TIP3    H1 8727   6.519   4.947   2.746  0.3888 -0.6476 -0.3306
 2921TIP3    H2 8728   6.490   4.988   2.603 -1.1876  0.9581  0.4136
 2922TIP3   OH2 8729   6.211   5.815   0.799  0.1302  0.2978 -0.1474
 2922TIP3    H1 8730   6.298   5.829   0.836 -0.4546  0.8234  1.0591
 2922TIP3    H2 8731   6.228   5.764   0.719  1.6277  1.2136 -0.4652
 2923TIP3   OH2 8732   3.679   1.229   0.649  0.4457  0.0969  0.1771
 2923TIP3    H1 8733   3.670   1.301   0.711  1.4126  0.6570 -0.3051
 2923TIP3    H2 8734   3.729   1.266   0.576 -1.2193 -0.3667 -1.2602
 2924TIP3   OH2 8735   5.243   1.453   0.827  0.3154  0.2247  0.0470
 2924TIP3    H1 8736   5.176   1.384   0.827 -0.9653  1.3931  1.3076
 2924TIP3    H2 8737   5.235   1.494   0.741 -2.0831  1.6438  0.8300
 2925TIP3   OH2 8738   5.421   5.516   2.240  0.0128  0.2358  0.4172
 2925TIP3    H1 8739   5.342   5.561   2.212  0.1324 -0.0840 -0.4597
 2925TIP3    H2 8740   5.491   5.581   2.227 -0.0645  0.4402  0.9775
 2926TIP3   OH2 8741   3.846   2.894   4.687 -0.3721 -0.2543 -0.2475
 2926TIP3    H1 8742   3.924   2.870   4.738  0.5974  0.0207 -1.5479
 2926TIP3    H2 8743   3.821   2.814   4.642 -0.7172 -0.2885  0.0052
 2927TIP3   OH2 8744   0.327   2.351   0.009  0.3776 -0.0045 -0.0067
 2927TIP3    H1 8745   0.242   2.395   0.014  0.0072 -0.7109 -0.0275
 2927TIP3    H2 8746   0.331   2.295   0.087  0.5016 -0.5375 -0.3886
 2928TIP3   OH2 8747   3.029   5.237   5.242 -0.7607 -0.5746 -0.4610
 2928TIP3    H1 8748   2.935   5.230   5.226 -1.3875  1.2467  1.8418
 2928TIP3    H2 8749   3.050   5.160   5.294 -0.4485 -2.1319 -2.7736
 2929TIP3   OH2 8750   1.465   2.946   1.415  0.3183 -0.2711  0.1608
 2929TIP3    H1 8751   1.422   2.974   1.334 -2.5015 -0.1946  1.5272
 2929TIP3    H2 8752   1.400   2.965   1.483  3.2154  1.4029  2.7277
 2930TIP3   OH2 8753   3.435   5.680   4.592 -0.0963  0.4689  0.3630
 2930TIP3    H1 8754   3.423   5.591   4.557 -0.1912 -0.0374  1.6370
 2930TIP3    H2 8755   3.497   5.721   4.532  0.4655 -0.6812  0.1326
 2931TIP3   OH2 8756   4.620   6.052   3.192 -0.0070  0.4229 -0.0117
 2931TIP3    H1 8757   4.600   6.005   3.274 -0.7872  1.5474  0.4636
 2931TIP3    H2 8758   4.698   6.104   3.214 -0.9512  1.6996  0.4454
 2932TIP3   OH2 8759   7.106   4.308   1.278  0.4302  0.4331  0.7121
 2932TIP3    H1 8760   7.094   4.267   1.192  0.9552  0.0810  0.8091
 2932TIP3    H2 8761   7.033   4.275   1.330  0.5257  0.0781  0.6196
 2933TIP3   OH2 8762   2.421   2.732   5.707 -0.2374 -0.1887  0.2987
 2933TIP3    H1 8763   2.517   2.727   5.702 -0.1869  1.0646 -0.3661
 2933TIP3    H2 8764   2.401   2.822   5.685 -1.5472 -0.2427  1.1854
 2934TIP3   OH2 8765   6.517   6.311   5.313 -0.4380  0.4800  0.0415
 2934TIP3    H1 8766   6.512   6.239   5.376  1.9035 -0.4696 -0.7550
 2934TIP3    H2 8767   6.565   6.379   5.359 -2.5070  1.5650  0.7335
 2935TIP3   OH2 8768   3.260   2.913   2.546  0.2786 -0.1663  0.3976
 2935TIP3    H1 8769   3.178   2.926   2.594  0.3050 -2.5519  1.2351
 2935TIP3    H2 8770   3.232   2.893   2.457  0.0448  0.5814  0.2950
 2936TIP3   OH2 8771   3.965   0.366   0.537  0.2538  0.2730  0.1382
 2936TIP3    H1 8772   3.910   0.434   0.498 -0.6853  0.0836  1.0714
 2936TIP3    H2 8773   3.982   0.304   0.467  0.4578  1.0663 -0.5210
 2937TIP3   OH2 8774   0.677   1.113   4.778 -0.4999 -0.3255 -0.2220
 2937TIP3    H1 8775   0.667   1.203   4.809  1.7246 -0.2022  0.3378
 2937TIP3    H2 8776   0.745   1.118   4.710 -1.6929 -1.3459 -1.5839
 2938TIP3   OH2 8777   5.591   0.792   0.280  0.1182 -0.2336  0.0390
 2938TIP3    H1 8778   5.575   0.853   0.209  1.2937  0.1191  0.0721
 2938TIP3    H2 8779   5.684   0.801   0.301 -0.2405 -0.1659  1.7677
 2939TIP3   OH2 8780   4.996   3.009   1.021 -0.0677  0.0799 -0.4446
 2939TIP3    H1 8781   5.040   3.036   0.940  0.0468  0.0130 -0.4050
 2939TIP3    H2 8782   4.928   2.948   0.992  0.2770 -0.3076 -0.4476
 2940TIP3   OH2 8783   3.496   3.015   2.004  0.1352 -0.5986 -0.5046
 2940TIP3    H1 8784   3.518   3.108   2.008 -0.8054 -0.3300 -1.0721
 2940TIP3    H2 8785   3.424   3.005   2.066  0.1312 -0.9171 -0.5577
 2941TIP3   OH2 8786   5.690   6.769   4.829  0.5411  0.2894 -0.3111
 2941TIP3    H1 8787   5.729   6.812   4.906 -1.4823  0.7656  0.5152
 2941TIP3    H2 8788   5.634   6.836   4.790 -1.2901 -1.0113 -0.0355
 2942TIP3   OH2 8789   6.385   4.224   2.394  0.1005  0.1403 -0.2501
 2942TIP3    H1 8790   6.325   4.283   2.348 -0.8308 -0.9011 -0.4117
 2942TIP3    H2 8791   6.361   4.232   2.486 -1.0805 -1.0697 -0.4064
 2943TIP3   OH2 8792   1.139   5.815   4.486 -0.3774  0.0969  0.1327
 2943TIP3    H1 8793   1.106   5.773   4.565  0.3458  0.2258  0.5109
 2943TIP3    H2 8794   1.132   5.909   4.503  0.5892  0.1334  0.4061
 2944TIP3   OH2 8795   2.732   0.815   0.384 -0.2377  0.6133  0.1198
 2944TIP3    H1 8796   2.746   0.840   0.475  0.0669 -0.6077  0.4248
 2944TIP3    H2 8797   2.818   0.786   0.353 -0.6236 -0.3407 -0.1069
 2945TIP3   OH2 8798   1.022   5.266   4.164  0.1070 -0.4296  0.4040
 2945TIP3    H1 8799   0.927   5.260   4.155 -0.0287  0.8834  0.7929
 2945TIP3    H2 8800   1.056   5.198   4.105 -1.0319  0.1562 -0.9789
 2946TIP3   OH2 8801   0.448   2.081   4.927 -0.5135 -0.5592 -0.1056
 2946TIP3    H1 8802   0.482   2.009   4.874 -1.7057 -1.7497  0.7015
 2946TIP3    H2 8803   0.370   2.110   4.880 -0.1991  0.0472 -0.2731
 2947TIP3   OH2 8804   1.095   5.754   4.237 -0.1859  0.9127 -0.1372
 2947TIP3    H1 8805   1.110   5.750   4.332 -0.8689 -0.0207 -0.0466
 2947TIP3    H2 8806   1.121   5.842   4.212 -1.4581  1.7128  1.2051
 2948TIP3   OH2 8807   3.853   0.962   4.950 -0.1994  0.1927 -0.4976
 2948TIP3    H1 8808   3.822   0.909   5.023 -1.2206 -0.2010 -1.1884
 2948TIP3    H2 8809   3.830   0.911   4.872  0.5588  0.7586 -1.1109
 2949TIP3   OH2 8810   7.235   5.942   5.433 -0.6741  0.0870  0.3863
 2949TIP3    H1 8811   7.261   5.851   5.420 -0.4296  0.3208 -0.8869
 2949TIP3    H2 8812   7.144   5.937   5.463 -0.8891 -0.5655 -0.3339
 2950TIP3   OH2 8813   3.399   1.296   4.812 -0.0782  0.4921  0.1102
 2950TIP3    H1 8814   3.489   1.326   4.818 -0.1602  0.7388  0.1204
 2950TIP3    H2 8815   3.400   1.227   4.746 -0.0675  1.1987 -0.6387
 2951TIP3   OH2 8816   4.805   6.335   4.798 -0.1720  0.0814  0.4777
 2951TIP3    H1 8817   4.868   6.360   4.866 -0.4130 -1.5170  1.3530
 2951TIP3    H2 8818   4.730   6.392   4.811 -0.7644 -1.0526  2.4856
 2952TIP3   OH2 8819   5.482   4.443   1.291  0.1711  0.2353  0.3391
 2952TIP3    H1 8820   5.460   4.454   1.198  0.8917 -0.2740  0.1025
 2952TIP3    H2 8821   5.533   4.362   1.294  0.9063  0.7201  1.0599
 2953TIP3   OH2 8822   3.543   1.887   3.671 -0.7168  0.3252  0.1786
 2953TIP3    H1 8823   3.479   1.843   3.615 -0.1991  0.5409 -0.5954
 2953TIP3    H2 8824   3.537   1.979   3.646  0.2654  0.2738 -0.2892
 2954TIP3   OH2 8825   5.277   0.519   3.715  0.0846  0.0970 -0.2068
 2954TIP3    H1 8826   5.261   0.534   3.808  1.7689 -0.6637  0.2408
 2954TIP3    H2 8827   5.238   0.595   3.672 -0.6805  0.4919  1.1036
 2955TIP3   OH2 8828   1.024   0.534   0.553 -0.3095 -0.0782 -0.2934
 2955TIP3    H1 8829   0.943   0.549   0.602 -0.3342  3.1107 -1.0559
 2955TIP3    H2 8830   1.093   0.573   0.607  0.6048 -1.7310 -0.1896
 2956TIP3   OH2 8831   5.906   2.588   3.276  0.1542  0.3765  0.2403
 2956TIP3    H1 8832   5.872   2.545   3.354 -1.7071 -0.2015 -0.8360
 2956TIP3    H2 8833   5.993   2.549   3.263 -0.5214 -1.3152  0.6428
 2957TIP3   OH2 8834   6.023   1.556   3.372 -0.2208  0.3467  0.0330
 2957TIP3    H1 8835   6.104   1.607   3.375  0.7102 -1.0262  3.2706
 2957TIP3    H2 8836   6.046   1.479   3.320  0.9312 -0.4211  1.5685
 2958TIP3   OH2 8837   5.090   1.340   1.789  0.1307 -0.2608  0.2555
 2958TIP3    H1 8838   4.997   1.330   1.808 -0.5731  0.1227 -2.5289
 2958TIP3    H2 8839   5.120   1.412   1.845 -1.7190  0.8849 -0.1720
 2959TIP3   OH2 8840   0.012   3.165   2.931 -0.3444  0.5213  0.0065
 2959TIP3    H1 8841   0.104   3.149   2.950 -0.4808 -0.1664  0.0861
 2959TIP3    H2 8842   0.008   3.259   2.910  0.3123  0.6258  0.3345
 2960TIP3   OH2 8843   2.958   4.402   2.337  0.0313 -0.0632  0.5462
 2960TIP3    H1 8844   2.905   4.324   2.354  0.7057 -0.4094  1.0642
 2960TIP3    H2 8845   3.002   4.383   2.254  0.4802 -0.3861  0.8581
 2961TIP3   OH2 8846   3.321   1.323   0.378 -0.6056 -0.1838  0.2311
 2961TIP3    H1 8847   3.362   1.277   0.451  0.1016 -1.1961 -0.7547
 2961TIP3    H2 8848   3.233   1.287   0.372 -0.4478 -0.5733  0.2024
 2962TIP3   OH2 8849   1.901   2.026   0.313 -0.5488 -0.1023  0.0491
 2962TIP3    H1 8850   1.942   2.102   0.352 -1.3827 -0.3957  1.5663
 2962TIP3    H2 8851   1.841   1.993   0.380 -2.0460 -0.6415 -1.4694
 2963TIP3   OH2 8852   3.745   5.365   3.618  0.3802 -0.0141 -0.3394
 2963TIP3    H1 8853   3.741   5.454   3.583  2.7233  0.4219  0.3451
 2963TIP3    H2 8854   3.817   5.323   3.571 -0.1511 -1.2942 -0.0561
 2964TIP3   OH2 8855   0.591   3.012   5.814  0.3011 -0.0037  0.5661
 2964TIP3    H1 8856   0.511   2.997   5.865 -0.6763 -0.6676 -1.0716
 2964TIP3    H2 8857   0.564   3.072   5.745  1.4578  0.4727  0.5095
 2965TIP3   OH2 8858   4.079   0.049   1.610 -0.0512  0.2324  0.0860
 2965TIP3    H1 8859   4.126   0.002   1.679 -1.3969 -1.2472  0.0708
 2965TIP3    H2 8860   4.026   0.114   1.656  1.1334  1.1574  0.1856
 2966TIP3   OH2 8861   4.339   5.724   2.308  0.0337  0.5157  0.0141
 2966TIP3    H1 8862   4.248   5.750   2.295 -0.0098  0.8410  0.8895
 2966TIP3    H2 8863   4.390   5.802   2.287 -0.0221  0.9611  1.4203
 2967TIP3   OH2 8864   0.301   5.947   5.415  0.2645 -0.3649  0.3475
 2967TIP3    H1 8865   0.324   5.920   5.503  2.7058 -1.5765 -0.5713
 2967TIP3    H2 8866   0.283   5.865   5.368  0.6512  0.1229 -0.6968
 2968TIP3   OH2 8867   4.024   1.572   0.419 -0.6874 -0.7099 -0.1803
 2968TIP3    H1 8868   3.978   1.642   0.373 -2.1274 -1.8775 -0.5955
 2968TIP3    H2 8869   4.107   1.563   0.373 -1.8897 -1.5320 -2.3244
 2969TIP3   OH2 8870   6.205   6.452   2.144 -0.3257 -0.0196 -0.2000
 2969TIP3    H1 8871   6.284   6.401   2.160  0.5769  1.5405  0.5487
 2969TIP3    H2 8872   6.224   6.503   2.066 -1.1323 -0.6035 -0.8039
 2970TIP3   OH2 8873   4.572   4.760   0.861  0.0462 -0.1570 -0.2467
 2970TIP3    H1 8874   4.627   4.693   0.904  1.6689  1.8857  1.0725
 2970TIP3    H2 8875   4.490   4.759   0.911 -0.1352 -1.4240 -0.5316
 2971TIP3   OH2 8876   2.835   1.853   3.921  0.5224  0.8808  0.3339
 2971TIP3    H1 8877   2.872   1.837   3.834 -1.7871  2.1780 -0.9989
 2971TIP3    H2 8878   2.884   1.927   3.955  1.4038  0.4042  0.1305
 2972TIP3   OH2 8879   5.774   4.580   4.971 -0.4310  0.4281 -0.6836
 2972TIP3    H1 8880   5.842   4.522   5.007 -0.9846  1.3561  2.0790
 2972TIP3    H2 8881   5.726   4.524   4.910  1.3255 -0.9287 -0.9223
 2973TIP3   OH2 8882   0.874   2.927   0.928  0.1218  0.0263 -0.3670
 2973TIP3    H1 8883   0.847   2.844   0.889 -0.2047  0.4752 -1.1010
 2973TIP3    H2 8884   0.950   2.954   0.876 -0.6065  0.8653 -1.0164
 2974TIP3   OH2 8885   3.333   3.993   3.737 -0.8826  0.5098  0.6104
 2974TIP3    H1 8886   3.415   4.043   3.732 -1.0274  0.6752 -0.3105
 2974TIP3    H2 8887   3.265   4.054   3.708 -1.1060 -0.0946 -0.1759
 2975TIP3   OH2 8888   3.251   4.481   4.507 -0.4586 -0.0512  0.5416
 2975TIP3    H1 8889   3.274   4.573   4.515  0.0309 -0.1861  0.6799
 2975TIP3    H2 8890   3.325   4.441   4.462 -0.8014 -0.3222  0.2044
 2976TIP3   OH2 8891   3.446   1.036   3.275  0.4143  0.1455  0.1125
 2976TIP3    H1 8892   3.472   1.069   3.361  2.1377 -0.4522 -0.1455
 2976TIP3    H2 8893   3.370   0.980   3.293 -0.8033  1.9352  0.9005
 2977TIP3   OH2 8894   1.337   0.168   0.985 -0.4843 -0.3737  0.2115
 2977TIP3    H1 8895   1.370   0.186   0.897  0.7451 -0.2876  0.6672
 2977TIP3    H2 8896   1.372   0.081   1.006 -1.2474 -0.6458  0.4152
 2978TIP3   OH2 8897   6.560   3.877   3.640 -0.4057  0.4705 -0.0419
 2978TIP3    H1 8898   6.653   3.876   3.661 -0.3953  0.4541 -0.0877
 2978TIP3    H2 8899   6.555   3.922   3.556 -0.4327  0.4162 -0.0693
 2979TIP3   OH2 8900   0.158   3.592   3.731 -0.1002 -0.2550 -0.1727
 2979TIP3    H1 8901   0.104   3.516   3.752 -0.6087 -0.3828 -1.7806
 2979TIP3    H2 8902   0.208   3.608   3.811  0.6573 -2.8154 -0.0220
 2980TIP3   OH2 8903   0.585   6.655   2.176 -0.2716  0.2325  0.0411
 2980TIP3    H1 8904   0.528   6.731   2.170 -0.4013  0.0655 -1.1645
 2980TIP3    H2 8905   0.584   6.618   2.088  1.1874 -0.1512  0.1646
 2981TIP3   OH2 8906   3.877   5.236   1.676  0.0560  0.4024  0.2095
 2981TIP3    H1 8907   3.969   5.261   1.664  0.6410 -0.9344  1.4871
 2981TIP3    H2 8908   3.865   5.161   1.619 -0.8490  1.7464 -1.4339
 2982TIP3   OH2 8909   3.037   4.803   4.172 -0.5041  0.2083  0.0921
 2982TIP3    H1 8910   2.989   4.811   4.255 -0.2712  1.2794  0.1329
 2982TIP3    H2 8911   3.022   4.887   4.127 -0.3146 -0.2135 -0.7873
 2983TIP3   OH2 8912   5.486   4.775   5.448 -0.6109  0.4835  0.3905
 2983TIP3    H1 8913   5.550   4.835   5.487  0.8369 -1.2329  0.7774
 2983TIP3    H2 8914   5.431   4.748   5.522 -1.1555  1.1591  0.2470
 2984TIP3   OH2 8915   4.405   4.634   1.072  0.0262  0.2773  0.2576
 2984TIP3    H1 8916   4.499   4.624   1.062 -0.1304 -1.6624  0.2429
 2984TIP3    H2 8917   4.385   4.720   1.035  1.5439 -0.0827 -1.5146
 2985TIP3   OH2 8918   1.702   1.847   4.094 -0.1782 -0.3296  0.2633
 2985TIP3    H1 8919   1.772   1.807   4.042 -0.7356 -2.0163  0.7465
 2985TIP3    H2 8920   1.741   1.861   4.180 -0.3654 -1.1466  0.4933
 2986TIP3   OH2 8921   7.037   0.600   4.309 -0.0669 -0.2433 -0.2210
 2986TIP3    H1 8922   7.080   0.634   4.230  0.9291 -0.5529  0.1638
 2986TIP3    H2 8923   7.087   0.638   4.381  0.8075 -2.0989  0.2281
 2987TIP3   OH2 8924   1.889   2.262   5.195 -0.3523  0.3848  1.2298
 2987TIP3    H1 8925   1.836   2.189   5.163  1.5221 -0.0633 -1.1523
 2987TIP3    H2 8926   1.831   2.338   5.189 -1.0167 -0.2195 -0.5020
 2988TIP3   OH2 8927   1.321   3.237   2.821  0.0823 -0.4664  0.5415
 2988TIP3    H1 8928   1.341   3.331   2.816  1.3688 -0.7265  0.6617
 2988TIP3    H2 8929   1.396   3.198   2.865  0.6370 -1.8770 -1.5147
 2989TIP3   OH2 8930   4.012   3.396   4.871 -0.4340 -0.2471  0.3061
 2989TIP3    H1 8931   4.013   3.403   4.775 -1.3302  2.2380  0.4017
 2989TIP3    H2 8932   4.104   3.402   4.896 -0.1931 -0.8684 -0.3830
 2990TIP3   OH2 8933   4.777   4.665   3.759  0.1963 -0.5510  0.1763
 2990TIP3    H1 8934   4.714   4.734   3.779  0.6353 -0.1730  0.2843
 2990TIP3    H2 8935   4.792   4.673   3.665 -0.5150 -1.1613  0.0053
 2991TIP3   OH2 8936   0.451   1.479   5.752  0.2101 -0.2127 -0.3133
 2991TIP3    H1 8937   0.462   1.554   5.694 -1.7361 -0.6029 -1.2888
 2991TIP3    H2 8938   0.493   1.406   5.706  2.3743  0.2743  0.7763
 2992TIP3   OH2 8939   1.122   4.622   0.088  0.4452 -0.3630  0.0248
 2992TIP3    H1 8940   1.121   4.608   0.183  2.0864 -0.9777 -0.0116
 2992TIP3    H2 8941   1.029   4.628   0.064 -0.0177 -0.6722  1.5924
 2993TIP3   OH2 8942   3.621   6.322   1.877 -0.0025 -0.5184 -0.4344
 2993TIP3    H1 8943   3.713   6.308   1.857 -0.1972  0.2073 -2.0523
 2993TIP3    H2 8944   3.580   6.236   1.865  0.4139 -0.7871  0.0484
 2994TIP3   OH2 8945   4.314   4.020   1.295  0.5388  0.0150 -0.8127
 2994TIP3    H1 8946   4.350   3.964   1.365 -1.3240 -0.5850 -0.2599
 2994TIP3    H2 8947   4.276   4.094   1.342  0.3983  0.2609 -1.3160
 2995TIP3   OH2 8948   4.985   3.340   0.392 -0.2116  0.5228 -0.1492
 2995TIP3    H1 8949   4.894   3.346   0.362 -0.5499 -1.2317  0.4081
 2995TIP3    H2 8950   5.037   3.358   0.313 -1.0653 -0.6433 -1.0236
 2996TIP3   OH2 8951   3.210   0.378   2.910 -0.0595  0.0630 -0.0379
 2996TIP3    H1 8952   3.304   0.373   2.894 -0.1659 -0.0784 -0.6407
 2996TIP3    H2 8953   3.189   0.470   2.896 -0.0382  0.0649 -0.0586
 2997TIP3   OH2 8954   5.673   2.451   0.686 -0.1766 -0.4360 -0.2702
 2997TIP3    H1 8955   5.704   2.524   0.633 -0.0510 -1.3636 -1.5292
 2997TIP3    H2 8956   5.619   2.400   0.626 -1.1297 -0.8118  0.8802
 2998TIP3   OH2 8957   6.497   3.036   3.995 -0.2336 -0.2922 -0.5144
 2998TIP3    H1 8958   6.541   2.993   3.922  0.3971 -1.6729  0.6442
 2998TIP3    H2 8959   6.410   2.995   3.998  0.2256 -1.2483  0.3374
 2999TIP3   OH2 8960   3.655   3.203   0.587 -0.0392 -0.3272  0.1709
 2999TIP3    H1 8961   3.702   3.242   0.514 -1.8336  0.9894 -0.3477
 2999TIP3    H2 8962   3.640   3.276   0.648  0.1453 -1.1012  1.1828
 3000TIP3   OH2 8963   0.166   3.429   4.372  0.0263  0.0571  0.3646
 3000TIP3    H1 8964   0.161   3.339   4.340  0.9947 -0.1472  0.7487
 3000TIP3    H2 8965   0.075   3.455   4.385 -0.2419 -1.5644  2.1743
 3001TIP3   OH2 8966   7.136   1.415   1.419 -0.2292  0.4489  0.0318
 3001TIP3    H1 8967   7.150   1.508   1.398 -0.4941  0.1603 -1.4666
 3001TIP3    H2 8968   7.041   1.403   1.411 -0.0213 -0.3323 -1.4727
 3002TIP3   OH2 8969   0.763   5.482   0.126 -0.0023 -0.0928  0.0922
 3002TIP3    H1 8970   0.851   5.456   0.156 -0.0512 -0.5734 -0.1821
 3002TIP3    H2 8971   0.764   5.578   0.130  0.5111 -0.0984  0.1625
 3003TIP3   OH2 8972   6.618   2.195   2.029 -0.6346  0.4321 -0.0449
 3003TIP3    H1 8973   6.634   2.268   2.089  1.3735  0.8248 -0.9838
 3003TIP3    H2 8974   6.670   2.123   2.065 -0.8090  0.1498 -0.3592
 3004TIP3   OH2 8975   3.829   1.438   3.988 -0.0711  0.3069 -0.6691
 3004TIP3    H1 8976   3.774   1.441   3.910 -2.5706  1.8333  1.0039
 3004TIP3    H2 8977   3.897   1.504   3.972  1.3287 -1.4858 -2.6979
 3005TIP3   OH2 8978   5.054   1.991   1.513 -0.0274 -0.0460  0.5540
 3005TIP3    H1 8979   4.974   1.957   1.472 -0.1384 -0.3246  0.9968
 3005TIP3    H2 8980   5.050   1.959   1.603  0.5750 -0.0433  0.5839
 3006TIP3   OH2 8981   3.302   2.304   4.099  0.1523  0.4082 -0.1795
 3006TIP3    H1 8982   3.388   2.342   4.115 -0.9811  2.7727  0.8294
 3006TIP3    H2 8983   3.248   2.379   4.072 -2.0549 -0.6163  1.1594
 3007TIP3   OH2 8984   2.503   6.279   2.254 -0.1525 -0.4184  0.4701
 3007TIP3    H1 8985   2.567   6.216   2.287 -0.2388 -0.6624  0.1721
 3007TIP3    H2 8986   2.422   6.257   2.301 -0.4622 -1.2300 -0.4100
 3008TIP3   OH2 8987   4.873   3.944   1.160 -0.4053  0.3532  0.2578
 3008TIP3    H1 8988   4.851   3.948   1.253  2.4843  1.9941  1.0085
 3008TIP3    H2 8989   4.968   3.931   1.159 -0.6965 -3.3163 -2.5604
 3009TIP3   OH2 8990   5.665   1.382   3.168 -0.5354 -0.7369 -0.0785
 3009TIP3    H1 8991   5.585   1.435   3.160 -1.2111 -1.4732  1.4464
 3009TIP3    H2 8992   5.711   1.420   3.243  1.7188  1.0824 -2.2113
 3010TIP3   OH2 8993   0.264   3.535   4.600  0.0731 -0.9310  0.3493
 3010TIP3    H1 8994   0.234   3.505   4.514 -1.1717 -0.8144  0.7229
 3010TIP3    H2 8995   0.360   3.528   4.596  0.1727  0.7657 -1.6693
 3011TIP3   OH2 8996   4.033   5.885   3.408 -0.0693  0.3551  0.2668
 3011TIP3    H1 8997   3.965   5.831   3.449  1.4880 -1.7273  0.2971
 3011TIP3    H2 8998   4.032   5.859   3.316 -0.4003  1.5412 -0.0770
 3012TIP3   OH2 8999   6.788   1.667   0.024  0.3189  0.0532 -0.1709
 3012TIP3    H1 9000   6.814   1.584  -0.016  1.4171 -0.4238  1.4401
 3012TIP3    H2 9001   6.719   1.644   0.086  0.5273  0.3599  0.1790
 3013TIP3   OH2 9002   2.793   3.933   1.815  0.0476 -0.0361  0.4326
 3013TIP3    H1 9003   2.787   4.026   1.793 -0.0092  0.0460  0.7860
 3013TIP3    H2 9004   2.722   3.919   1.879 -1.0462 -0.6872 -0.8655
 3014TIP3   OH2 9005   0.858   6.541   3.093 -0.0016 -0.1846 -0.9805
 3014TIP3    H1 9006   0.943   6.496   3.088  1.9655  2.7822  1.8799
 3014TIP3    H2 9007   0.820   6.510   3.175  0.9862  2.4033  0.5835
 3015TIP3   OH2 9008   5.334   3.178   5.256 -0.6014  0.3785  0.1055
 3015TIP3    H1 9009   5.272   3.202   5.325  0.9391  1.8416  1.0672
 3015TIP3    H2 9010   5.402   3.246   5.260  3.3041 -3.1310  1.8975
 3016TIP3   OH2 9011   2.969   2.127   4.679  0.1700 -0.2429 -0.0776
 3016TIP3    H1 9012   2.893   2.170   4.716  0.2604 -0.8942  0.9038
 3016TIP3    H2 9013   2.986   2.052   4.737  0.8842 -0.7546 -0.9025
 3017TIP3   OH2 9014   7.112   4.625   1.729  0.2551 -0.4992  0.0306
 3017TIP3    H1 9015   7.026   4.663   1.749  0.7964  0.3722  0.7814
 3017TIP3    H2 9016   7.107   4.604   1.636 -0.2682  0.9699 -0.3096
 3018TIP3   OH2 9017   4.691   1.240   0.065  0.0416 -0.0419 -0.0537
 3018TIP3    H1 9018   4.704   1.308  -0.000  1.4536  1.1978  1.4331
 3018TIP3    H2 9019   4.606   1.260   0.105  0.3746  0.7883  0.2648
 3019TIP3   OH2 9020   4.850   3.670   3.422  0.4667 -0.3402  0.2247
 3019TIP3    H1 9021   4.836   3.687   3.329 -2.6682 -0.6595  0.5355
 3019TIP3    H2 9022   4.812   3.745   3.466  0.3172 -1.0134  1.2764
 3020TIP3   OH2 9023   1.451   3.218   3.659 -0.8103 -0.4736  0.7109
 3020TIP3    H1 9024   1.430   3.127   3.682 -0.6973 -0.4846  0.7698
 3020TIP3    H2 9025   1.413   3.229   3.572  0.3894 -1.0177  0.0841
 3021TIP3   OH2 9026   7.104   5.325   0.679  0.2635 -0.2348  0.3439
 3021TIP3    H1 9027   7.106   5.372   0.762  1.1531 -2.6731  1.7993
 3021TIP3    H2 9028   7.196   5.306   0.660 -0.0720 -1.5487 -0.0608
 3022TIP3   OH2 9029   5.209   6.304   2.900 -0.2518  0.6445  0.3514
 3022TIP3    H1 9030   5.130   6.276   2.853  1.4527  0.2274 -2.5726
 3022TIP3    H2 9031   5.216   6.244   2.974 -1.6639 -0.6086 -0.4629
 3023TIP3   OH2 9032   7.048   0.132   3.810  0.5117  0.1771 -1.0928
 3023TIP3    H1 9033   7.040   0.168   3.898 -2.0751 -2.3097 -0.1462
 3023TIP3    H2 9034   6.971   0.164   3.763 -0.4149 -1.7841 -1.0390
 3024TIP3   OH2 9035   4.319   1.940   0.065  0.5479  0.0637 -0.0538
 3024TIP3    H1 9036   4.375   2.005   0.021 -0.0629 -0.4362 -1.6213
 3024TIP3    H2 9037   4.366   1.919   0.145  0.2836  3.2119  1.0777
 3025TIP3   OH2 9038   5.141   2.874   4.996 -0.3527  0.1010  0.3283
 3025TIP3    H1 9039   5.199   2.947   4.978 -0.2636  0.0295  0.3255
 3025TIP3    H2 9040   5.097   2.897   5.078 -2.7777  1.7275 -1.2660
 3026TIP3   OH2 9041   4.256   0.431   1.402  0.2123 -0.3852  0.1876
 3026TIP3    H1 9042   4.164   0.427   1.380  0.3772 -1.7247 -0.3449
 3026TIP3    H2 9043   4.258   0.426   1.498 -0.2544 -0.7794  0.1803
 3027TIP3   OH2 9044   5.925   0.560   2.574 -0.1299  0.0238 -0.3500
 3027TIP3    H1 9045   6.017   0.576   2.553 -0.2574 -0.1963 -1.1014
 3027TIP3    H2 9046   5.887   0.526   2.492  0.1272 -4.1325  0.9972
 3028TIP3   OH2 9047   4.628   4.391   1.434 -0.4179 -0.1805 -0.1774
 3028TIP3    H1 9048   4.712   4.423   1.468 -0.0211 -0.1413 -1.1419
 3028TIP3    H2 9049   4.609   4.313   1.485 -0.5418  0.6344  1.0552
 3029TIP3   OH2 9050   2.758   3.981   3.027  0.3375  0.3328  0.0816
 3029TIP3    H1 9051   2.697   4.025   3.087  1.6153 -0.4246  2.0632
 3029TIP3    H2 9052   2.719   3.991   2.941 -2.3829  0.1966  1.1974
 3030TIP3   OH2 9053   6.749   3.730   5.291  0.1483 -0.3440  0.4868
 3030TIP3    H1 9054   6.809   3.803   5.280  1.3708 -0.9938  2.4087
 3030TIP3    H2 9055   6.800   3.653   5.267 -0.6599 -0.7275 -0.0602
 3031TIP3   OH2 9056   1.897   2.941   4.941  0.8248 -0.0674  0.5694
 3031TIP3    H1 9057   1.853   2.953   5.025  1.9421  1.3160  1.0039
 3031TIP3    H2 9058   1.867   2.856   4.910 -0.6073 -0.0373  1.7518
 3032TIP3   OH2 9059   6.894   5.311   0.064 -0.2104 -0.1625  0.2200
 3032TIP3    H1 9060   6.935   5.299  -0.022 -0.4474 -0.9679  0.2087
 3032TIP3    H2 9061   6.909   5.403   0.085 -0.9020  0.2683 -1.0786
 3033TIP3   OH2 9062   0.432   6.453   3.649  0.6814 -0.1655  0.0105
 3033TIP3    H1 9063   0.372   6.527   3.657  0.0878 -0.8341  2.6958
 3033TIP3    H2 9064   0.515   6.492   3.622  0.5521  1.6094  1.9937
 3034TIP3   OH2 9065   0.071   2.640   5.658  0.0625 -0.1949 -0.6404
 3034TIP3    H1 9066   0.009   2.687   5.603 -0.1036 -0.8720 -1.0448
 3034TIP3    H2 9067   0.142   2.702   5.672 -0.4411  0.3940 -0.6375
 3035TIP3   OH2 9068   5.804   1.664   3.230  0.9726 -0.0105  0.2448
 3035TIP3    H1 9069   5.831   1.617   3.151  1.9057  1.0535 -0.1004
 3035TIP3    H2 9070   5.868   1.637   3.296  0.5788 -0.4088  0.4629
 3036TIP3   OH2 9071   5.714   1.330   0.024 -0.1406  0.4738 -0.4228
 3036TIP3    H1 9072   5.620   1.345   0.012 -0.3748  0.1511  0.8715
 3036TIP3    H2 9073   5.748   1.414   0.056 -0.3570  0.0569  0.9684
 3037TIP3   OH2 9074   7.116   5.708   2.033  0.4670  0.3507 -0.1093
 3037TIP3    H1 9075   7.118   5.698   1.938  0.3684  2.2541 -0.3361
 3037TIP3    H2 9076   7.203   5.742   2.056  1.2732 -2.0718  0.7829
 3038TIP3   OH2 9077   1.293   2.041   0.141  0.3631  0.1674  0.1525
 3038TIP3    H1 9078   1.271   1.950   0.118  1.2423  0.3123 -1.3782
 3038TIP3    H2 9079   1.260   2.051   0.230 -1.7096 -0.9695 -0.4258
 3039TIP3   OH2 9080   4.315   5.547   0.334  0.1733  0.3602 -0.0494
 3039TIP3    H1 9081   4.390   5.493   0.310  0.3072  1.2767 -1.8964
 3039TIP3    H2 9082   4.307   5.537   0.429  1.8770 -0.6971  0.0224
 3040TIP3   OH2 9083   0.873   4.734   1.042  0.1480  0.5457 -0.3917
 3040TIP3    H1 9084   0.790   4.688   1.025  0.7472 -0.6102 -0.2908
 3040TIP3    H2 9085   0.868   4.757   1.134 -0.4191  1.2463 -0.5860
 3041TIP3   OH2 9086   6.489   3.535   0.923 -0.0545  0.1550 -0.2430
 3041TIP3    H1 9087   6.405   3.556   0.882 -0.2705  0.1163  0.1697
 3041TIP3    H2 9088   6.514   3.451   0.886 -0.5396 -0.1642  0.1397
 3042TIP3   OH2 9089   5.498   4.059   5.038 -0.1345 -0.8982 -0.1253
 3042TIP3    H1 9090   5.573   4.101   5.079  0.7583 -2.9432  0.4887
 3042TIP3    H2 9091   5.460   4.126   4.982  0.6684  0.9388  1.4270
 3043TIP3   OH2 9092   1.382   3.090   1.151  0.0696 -0.3872  1.1587
 3043TIP3    H1 9093   1.416   3.034   1.081  0.8009 -0.0157  1.2021
 3043TIP3    H2 9094   1.374   3.177   1.111  2.3297  0.2942  1.9861
 3044TIP3   OH2 9095   4.408   3.476   2.735 -0.4295  0.2097 -0.2926
 3044TIP3    H1 9096   4.350   3.414   2.690  1.8577 -1.1983 -1.5024
 3044TIP3    H2 9097   4.365   3.494   2.818 -1.3772 -2.7741 -0.0235
 3045TIP3   OH2 9098   2.664   1.302   1.217  0.2277  0.1035  0.5496
 3045TIP3    H1 9099   2.606   1.365   1.260  0.5171  0.5307  0.3214
 3045TIP3    H2 9100   2.638   1.305   1.125 -1.2191 -1.7003  0.8317
 3046TIP3   OH2 9101   5.418   2.168   2.546 -0.1695 -0.1872 -0.5215
 3046TIP3    H1 9102   5.488   2.210   2.494 -1.9891  0.9249 -2.2359
 3046TIP3    H2 9103   5.410   2.223   2.624  2.1841 -1.5200  0.7850
 3047TIP3   OH2 9104   1.069   0.902   1.703 -0.1533  0.0376  0.3888
 3047TIP3    H1 9105   1.031   0.840   1.641 -1.9168 -0.2371  1.6765
 3047TIP3    H2 9106   1.120   0.962   1.649 -0.6237 -0.9334 -1.1794
 3048TIP3   OH2 9107   3.137   2.780   5.050 -0.1931  0.0365  0.1307
 3048TIP3    H1 9108   3.186   2.797   4.969  1.3138  0.8068  1.1657
 3048TIP3    H2 9109   3.109   2.867   5.079 -0.8174 -0.2508  0.4087
 3049TIP3   OH2 9110   2.166   6.351   0.836  0.1846 -0.1619  0.1487
 3049TIP3    H1 9111   2.082   6.397   0.830 -0.3063 -0.8795  1.3846
 3049TIP3    H2 9112   2.215   6.400   0.902  1.4228  1.2487 -1.7052
 3050TIP3   OH2 9113   3.788   4.749   5.627 -0.1524  0.0188 -0.2338
 3050TIP3    H1 9114   3.712   4.782   5.578  0.8487  0.4644 -1.5621
 3050TIP3    H2 9115   3.851   4.821   5.624  0.2856 -0.2858  0.9818
 3051TIP3   OH2 9116   3.979   6.725   2.368  0.3164 -0.4635 -0.5944
 3051TIP3    H1 9117   4.028   6.807   2.368 -1.2669  0.5696  0.6170
 3051TIP3    H2 9118   3.891   6.751   2.339  0.1727 -2.0237 -1.6228
 3052TIP3   OH2 9119   3.540   4.683   3.360  0.4983 -0.0143 -0.2145
 3052TIP3    H1 9120   3.517   4.639   3.278  1.0660 -0.5581 -0.0829
 3052TIP3    H2 9121   3.618   4.734   3.339  0.8363 -0.4101  0.0652
 3053TIP3   OH2 9122   4.705   5.688   4.964  0.5094  0.3043 -1.3478
 3053TIP3    H1 9123   4.703   5.669   5.058 -0.1076 -0.9902 -1.6013
 3053TIP3    H2 9124   4.760   5.618   4.927 -0.0672  0.2196 -2.0619
 3054TIP3   OH2 9125   3.467   5.321   2.303 -0.9053  0.2789 -0.0126
 3054TIP3    H1 9126   3.562   5.325   2.319 -0.8938 -2.0545  0.8834
 3054TIP3    H2 9127   3.429   5.360   2.382 -0.6844 -0.4585  0.4749
 3055TIP3   OH2 9128   0.395   2.300   3.642  0.3147 -0.0288  0.1209
 3055TIP3    H1 9129   0.314   2.351   3.653  0.3911  0.5846 -1.8036
 3055TIP3    H2 9130   0.413   2.266   3.730 -1.5011  0.6055  0.8060
 3056TIP3   OH2 9131   3.423   5.814   1.965  0.1073 -0.3117  0.1295
 3056TIP3    H1 9132   3.437   5.908   1.972  0.9310 -0.5062  1.7453
 3056TIP3    H2 9133   3.459   5.790   1.880 -3.2914  1.2907 -1.9305
 3057TIP3   OH2 9134   7.080   6.540   1.883  0.0720 -0.1191  0.0949
 3057TIP3    H1 9135   7.172   6.514   1.884  0.2862  0.6002 -0.5997
 3057TIP3    H2 9136   7.035   6.467   1.926  0.9484 -0.5146  0.3731
 3058TIP3   OH2 9137   0.020   2.126   1.280  0.0144  0.0924  0.1038
 3058TIP3    H1 9138   0.020   2.146   1.186  0.9648 -1.4291 -0.2526
 3058TIP3    H2 9139   0.067   2.043   1.287 -1.9536 -0.9837  1.6952
 3059TIP3   OH2 9140   0.120   2.778   1.830  0.0925  0.3835 -0.2234
 3059TIP3    H1 9141   0.174   2.715   1.877  0.1323  1.4471  1.2453
 3059TIP3    H2 9142   0.182   2.843   1.796  0.0361 -0.2332 -1.5567
 3060TIP3   OH2 9143   4.823   1.322   0.617 -0.3112  0.0861  0.3856
 3060TIP3    H1 9144   4.796   1.230   0.623  0.8420 -0.2033  1.5252
 3060TIP3    H2 9145   4.768   1.366   0.683 -0.1502  0.0335  0.5555
 3061TIP3   OH2 9146   6.433   4.861   4.302  0.2664  0.1169  0.2479
 3061TIP3    H1 9147   6.396   4.947   4.281 -0.2256 -0.1339  0.0738
 3061TIP3    H2 9148   6.373   4.824   4.367 -0.8399 -1.0545 -1.3684
 3062TIP3   OH2 9149   1.736   1.905   3.060  0.0335 -0.3554 -0.3920
 3062TIP3    H1 9150   1.783   1.970   3.112  0.0708  0.6104 -1.5899
 3062TIP3    H2 9151   1.648   1.942   3.049  0.7065  0.6647 -3.0053
 3063TIP3   OH2 9152   2.425   4.981   0.638 -0.1992 -0.3026 -0.7018
 3063TIP3    H1 9153   2.482   4.905   0.650 -0.1909 -0.0849  0.8238
 3063TIP3    H2 9154   2.366   4.978   0.713 -0.3786  1.0492 -0.7722
 3064TIP3   OH2 9155   0.937   1.106   4.624 -0.6307 -0.3525 -0.1485
 3064TIP3    H1 9156   0.938   1.021   4.667 -2.3751 -0.1436  0.4049
 3064TIP3    H2 9157   1.008   1.155   4.665 -1.1339 -0.7589  1.2611
 3065TIP3   OH2 9158   6.153   2.089   3.376 -0.1272 -0.2448 -0.1300
 3065TIP3    H1 9159   6.132   2.182   3.368  1.9576  0.3202  0.4419
 3065TIP3    H2 9160   6.075   2.045   3.342 -2.0237  1.6401  1.4591
 3066TIP3   OH2 9161   5.222   6.712   3.665  0.1850  0.5317  0.2253
 3066TIP3    H1 9162   5.161   6.775   3.702 -0.8742  0.4199 -1.2405
 3066TIP3    H2 9163   5.177   6.628   3.669  0.6867  0.2499  0.1205
 3067TIP3   OH2 9164   5.480   5.999   2.417  0.0428 -0.3344  0.1435
 3067TIP3    H1 9165   5.394   5.995   2.375  0.1655  1.9785 -0.4693
 3067TIP3    H2 9166   5.461   5.999   2.511 -0.5543 -0.5754  0.0283
 3068TIP3   OH2 9167   5.414   0.651   2.682 -0.5295 -0.4742  0.8690
 3068TIP3    H1 9168   5.471   0.574   2.674 -0.4276 -0.3118 -0.0785
 3068TIP3    H2 9169   5.474   0.723   2.701 -0.3371 -0.2376 -0.4792
 3069TIP3   OH2 9170   6.893   4.945   4.674  0.0110 -0.2109 -0.0106
 3069TIP3    H1 9171   6.862   5.004   4.606 -1.2524  0.5776  1.1813
 3069TIP3    H2 9172   6.969   4.989   4.712 -0.7902  0.5731  0.7220
 3070TIP3   OH2 9173   0.967   5.978   3.059  0.1687 -0.0032  0.1056
 3070TIP3    H1 9174   0.936   5.893   3.027  2.2464 -1.0171  0.6544
 3070TIP3    H2 9175   1.059   5.982   3.033 -0.0715  2.4769 -0.6419
 3071TIP3   OH2 9176   4.092   5.011   3.720 -0.3658 -0.1760 -0.1184
 3071TIP3    H1 9177   4.079   5.105   3.735  0.3418 -0.2069  0.7781
 3071TIP3    H2 9178   4.036   4.968   3.785  1.3632 -0.3308  1.3307
 3072TIP3   OH2 9179   4.369   0.742   5.709  0.5902  0.5018 -0.4736
 3072TIP3    H1 9180   4.297   0.798   5.740 -1.6303 -1.4420 -1.8200
 3072TIP3    H2 9181   4.403   0.701   5.788  0.0361  1.2634  0.1819
 3073TIP3   OH2 9182   3.014   5.366   1.743 -0.2808 -0.3678 -0.1871
 3073TIP3    H1 9183   3.106   5.391   1.729  0.0109 -1.5129 -0.4786
 3073TIP3    H2 9184   2.964   5.446   1.728  0.8208  0.8795  2.1933
 3074TIP3   OH2 9185   0.197   5.736   5.267 -0.4023  0.2925  0.3337
 3074TIP3    H1 9186   0.141   5.683   5.324 -1.3991  2.1566  1.1734
 3074TIP3    H2 9187   0.176   5.707   5.178 -2.5631  0.7274  0.6390
 3075TIP3   OH2 9188   3.054   2.366   2.268 -0.2424 -0.0154 -0.2145
 3075TIP3    H1 9189   3.078   2.312   2.343  0.0982  0.0441 -0.2809
 3075TIP3    H2 9190   3.015   2.304   2.206 -0.9590  0.0092  0.1985
 3076TIP3   OH2 9191   2.559   0.075   3.751  0.4058 -0.3048 -0.4539
 3076TIP3    H1 9192   2.607   0.005   3.706  1.4540  0.8499 -1.1901
 3076TIP3    H2 9193   2.583   0.155   3.704  0.1849  0.7243  1.1171
 3077TIP3   OH2 9194   4.204   0.704   5.027 -0.7096  0.2582 -0.0190
 3077TIP3    H1 9195   4.122   0.654   5.021 -0.3054 -0.2845 -1.4402
 3077TIP3    H2 9196   4.200   0.763   4.952  1.2289 -1.4157 -1.5565
 3078TIP3   OH2 9197   0.996   4.931   2.985  0.1136  0.0159  0.3529
 3078TIP3    H1 9198   0.916   4.894   3.023 -1.0778  1.4834 -0.6275
 3078TIP3    H2 9199   0.996   5.022   3.015  1.4735  0.0160  0.3870
 3079TIP3   OH2 9200   4.659   3.162   1.948 -0.1270 -0.2666 -0.2369
 3079TIP3    H1 9201   4.640   3.075   1.982 -1.7850 -0.4203 -1.4421
 3079TIP3    H2 9202   4.747   3.182   1.980 -0.3848 -1.6621  1.4645
 3080TIP3   OH2 9203   4.772   3.538   4.599 -0.1796  0.2325  0.3133
 3080TIP3    H1 9204   4.739   3.619   4.636 -1.4770  0.4295 -1.1996
 3080TIP3    H2 9205   4.867   3.551   4.594 -0.5193  2.6282 -1.9994
 3081TIP3   OH2 9206   6.996   2.754   0.972 -0.6683 -0.2526 -0.1352
 3081TIP3    H1 9207   6.973   2.773   1.063 -0.5602  1.1224 -0.3858
 3081TIP3    H2 9208   7.037   2.667   0.976  1.2783  0.6446  1.4658
 3082TIP3   OH2 9209   3.439   5.498   0.859 -0.3299 -0.3372 -0.5607
 3082TIP3    H1 9210   3.443   5.403   0.849 -1.0716 -0.3900 -0.4418
 3082TIP3    H2 9211   3.369   5.526   0.800  0.7524  0.3010 -1.5789
 3083TIP3   OH2 9212   5.639   3.290   2.596  0.0533 -0.0210 -0.0780
 3083TIP3    H1 9213   5.688   3.367   2.627 -0.8805 -0.2402  2.1625
 3083TIP3    H2 9214   5.621   3.309   2.504  2.6301  0.9318 -0.4529
 3084TIP3   OH2 9215   4.506   0.733   5.013 -0.3774  0.4659 -0.3364
 3084TIP3    H1 9216   4.452   0.690   4.946 -0.3816 -1.9552  1.1212
 3084TIP3    H2 9217   4.462   0.713   5.096  0.8719  1.4484  0.5956
 3085TIP3   OH2 9218   6.129   4.363   4.844  1.0254  0.3265 -0.8878
 3085TIP3    H1 9219   6.219   4.329   4.845  0.6877 -0.5821 -1.1860
 3085TIP3    H2 9220   6.135   4.445   4.893  1.4858 -1.0658  1.5539
 3086TIP3   OH2 9221   1.174   0.092   1.870  0.6256  0.3849  0.7018
 3086TIP3    H1 9222   1.152   0.055   1.955  1.8253  2.0150  1.8027
 3086TIP3    H2 9223   1.257   0.138   1.885  3.1595 -2.6440 -2.3388
 3087TIP3   OH2 9224   4.915   4.479   0.170  0.2560  0.4360 -0.1609
 3087TIP3    H1 9225   4.904   4.573   0.158  0.3730  0.1481 -3.4428
 3087TIP3    H2 9226   4.967   4.451   0.095 -0.8518 -2.4215 -0.0001
 3088TIP3   OH2 9227   3.485   3.907   3.411  0.0175 -0.3373  0.1788
 3088TIP3    H1 9228   3.437   3.936   3.333 -0.0925  1.5649  0.8866
 3088TIP3    H2 9229   3.475   3.812   3.411 -0.4165 -0.3484 -1.8318
 3089TIP3   OH2 9230   5.710   4.231   1.021 -0.0558  0.2081 -0.8040
 3089TIP3    H1 9231   5.772   4.159   1.024  0.9529  1.0552 -0.9260
 3089TIP3    H2 9232   5.708   4.265   1.111 -0.0018  0.4642 -0.8976
 3090TIP3   OH2 9233   3.923   4.419   5.154  0.1392 -0.5955  0.4337
 3090TIP3    H1 9234   3.892   4.458   5.235  1.0509 -0.0044  0.5161
 3090TIP3    H2 9235   3.844   4.404   5.102 -0.4040 -0.5037  1.2170
 3091TIP3   OH2 9236   4.316   5.299   3.914 -0.3245  0.5661  0.3741
 3091TIP3    H1 9237   4.311   5.368   3.848 -1.6604  1.1162  1.0125
 3091TIP3    H2 9238   4.405   5.264   3.906 -0.4889  0.5190 -1.7992
 3092TIP3   OH2 9239   0.519   3.132   0.970 -0.1937  0.0026  0.4003
 3092TIP3    H1 9240   0.606   3.146   0.932 -0.1994  0.2058  0.4603
 3092TIP3    H2 9241   0.504   3.038   0.961 -1.4046  0.3775 -2.7152
 3093TIP3   OH2 9242   5.342   0.829   3.177 -0.1837  0.6123 -0.4178
 3093TIP3    H1 9243   5.393   0.865   3.104 -0.0312 -0.4328 -0.8475
 3093TIP3    H2 9244   5.251   0.840   3.151 -0.1296 -0.5924 -1.2242
 3094TIP3   OH2 9245   1.259   2.247   4.600 -0.2180 -0.2785 -0.7074
 3094TIP3    H1 9246   1.174   2.265   4.639  0.1062  0.1249 -0.1767
 3094TIP3    H2 9247   1.257   2.153   4.581 -0.5329 -0.4034 -0.0852
 3095TIP3   OH2 9248   4.089   0.703   4.784 -0.3053  0.1868  0.3858
 3095TIP3    H1 9249   4.108   0.610   4.776 -1.2591 -0.0815  1.1275
 3095TIP3    H2 9250   3.994   0.709   4.780 -0.2980  1.0525  1.1346
 3096TIP3   OH2 9251   4.929   3.246   2.652 -0.4927  0.3555  0.0695
 3096TIP3    H1 9252   4.990   3.213   2.586  0.6206 -0.0380  1.2726
 3096TIP3    H2 9253   4.964   3.331   2.677 -1.6178  1.0867 -0.7362
 3097TIP3   OH2 9254   1.651   2.514   3.955 -0.3488  0.1219  0.5555
 3097TIP3    H1 9255   1.697   2.431   3.949  2.1309  1.3992  0.3075
 3097TIP3    H2 9256   1.609   2.513   4.041 -1.2062 -1.7364  0.1485
 3098TIP3   OH2 9257   0.258   3.043   3.587  0.3890  0.1031  0.9958
 3098TIP3    H1 9258   0.350   3.066   3.582  0.0454  1.2974 -2.1790
 3098TIP3    H2 9259   0.250   2.962   3.537 -0.5277  1.1649 -0.6658
 3099TIP3   OH2 9260   4.471   4.293   2.855 -0.4670 -0.1482 -0.3042
 3099TIP3    H1 9261   4.511   4.358   2.797  0.7144 -2.0217 -1.7081
 3099TIP3    H2 9262   4.422   4.235   2.796 -2.3272 -0.0195  1.0135
 3100TIP3   OH2 9263   7.224   4.868   4.952  0.4153  0.0827 -0.1050
 3100TIP3    H1 9264   7.162   4.800   4.927  0.9309 -0.4762  0.1134
 3100TIP3    H2 9265   7.209   4.882   5.045  0.7328 -0.1767 -0.0137
 3101TIP3   OH2 9266   2.468   6.564   5.373  0.3010  0.0568  0.1026
 3101TIP3    H1 9267   2.449   6.526   5.288  0.9966  0.1861 -0.1173
 3101TIP3    H2 9268   2.452   6.493   5.436 -0.9822  0.1909 -0.0514
 3102TIP3   OH2 9269   0.296   1.176   0.362  0.2834 -0.1876 -0.1728
 3102TIP3    H1 9270   0.279   1.217   0.277  0.3825  0.8779  0.3060
 3102TIP3    H2 9271   0.210   1.158   0.398  0.2273 -0.0174 -0.2181
 3103TIP3   OH2 9272   0.859   4.700   2.163  0.2017  0.6240 -0.4538
 3103TIP3    H1 9273   0.837   4.733   2.249 -1.1321  0.5116 -0.7346
 3103TIP3    H2 9274   0.860   4.777   2.107 -0.9683  0.4613 -0.7235
 3104TIP3   OH2 9275   1.199   3.374   4.271 -0.3454  0.3048  0.3894
 3104TIP3    H1 9276   1.228   3.315   4.201 -1.4240 -1.0374  1.0300
 3104TIP3    H2 9277   1.133   3.324   4.319 -1.2729  2.0328  0.9943
 3105TIP3   OH2 9278   3.523   2.819   0.353  0.4182  0.0236 -0.0349
 3105TIP3    H1 9279   3.511   2.757   0.281  0.9183 -0.4283  0.2617
 3105TIP3    H2 9280   3.475   2.781   0.426  0.6235  0.0465  0.1129
 3106TIP3   OH2 9281   0.368   6.228   3.809 -0.4232 -0.0386  0.2723
 3106TIP3    H1 9282   0.341   6.300   3.752  2.4418  0.4802 -0.5956
 3106TIP3    H2 9283   0.417   6.270   3.880  1.8752 -1.0619 -0.6008
 3107TIP3   OH2 9284   0.283   6.423   5.359  0.5405  0.0615  0.4214
 3107TIP3    H1 9285   0.207   6.479   5.341  0.0812 -0.5296  0.5105
 3107TIP3    H2 9286   0.246   6.343   5.395  1.3211  0.4124  2.0622
 3108TIP3   OH2 9287   4.672   4.780   4.853  0.4509  0.2774  0.1423
 3108TIP3    H1 9288   4.659   4.868   4.888 -2.3281 -0.3161  0.8626
 3108TIP3    H2 9289   4.709   4.730   4.926 -1.8573 -0.0699  1.1574
 3109TIP3   OH2 9290   2.392   0.086   3.981  0.9304 -0.2480 -0.4947
 3109TIP3    H1 9291   2.436   0.083   3.897  1.9358 -2.2961  0.0453
 3109TIP3    H2 9292   2.324   0.020   3.975 -1.2712  1.8897 -0.8073
 3110TIP3   OH2 9293   5.744   6.248   1.631  0.1458  0.3839  0.5575
 3110TIP3    H1 9294   5.727   6.326   1.684 -2.5884  0.0288  0.3285
 3110TIP3    H2 9295   5.666   6.194   1.642  0.6629 -0.9498 -1.7132
 3111TIP3   OH2 9296   1.019   6.638   5.105  0.1688 -0.5949  0.2342
 3111TIP3    H1 9297   1.002   6.728   5.076  0.3784  0.2917  2.6671
 3111TIP3    H2 9298   0.933   6.603   5.126  0.0970 -0.9547 -0.6212
 3112TIP3   OH2 9299   0.401   6.737   0.799 -0.0753 -0.1742  0.5015
 3112TIP3    H1 9300   0.351   6.660   0.774  1.1353 -1.1812  1.0815
 3112TIP3    H2 9301   0.355   6.772   0.876  0.7580 -1.8266  1.8165
 3113TIP3   OH2 9302   5.360   4.160   0.316 -0.3232 -0.1469  1.1241
 3113TIP3    H1 9303   5.329   4.251   0.309  0.6123  0.1833  1.1186
 3113TIP3    H2 9304   5.377   4.134   0.225  1.5173  0.4473  1.2577
 3114TIP3   OH2 9305   2.077   2.149   5.668  0.4261 -0.0726  0.3283
 3114TIP3    H1 9306   2.172   2.151   5.667  0.4273  1.8102 -0.9793
 3114TIP3    H2 9307   2.053   2.094   5.593  0.5152  0.7159 -0.2952
 3115TIP3   OH2 9308   4.422   0.206   4.412 -0.0469 -0.2553 -0.4125
 3115TIP3    H1 9309   4.338   0.185   4.371 -0.0641  2.1598 -1.7788
 3115TIP3    H2 9310   4.402   0.276   4.474  0.4737 -1.8982  1.7247
 3116TIP3   OH2 9311   5.139   1.484   2.290 -0.6166  0.0440 -0.8215
 3116TIP3    H1 9312   5.127   1.576   2.269  0.3532  0.9225  2.0080
 3116TIP3    H2 9313   5.120   1.478   2.384  2.8902 -1.8800 -0.0494
 3117TIP3   OH2 9314   0.839   3.562   5.845  0.1688 -0.3241 -0.0536
 3117TIP3    H1 9315   0.925   3.520   5.843  0.8843  1.1093  0.0586
 3117TIP3    H2 9316   0.851   3.644   5.798 -1.5522 -0.8077 -1.4850
 3118TIP3   OH2 9317   6.087   4.152   5.027  0.3463 -0.3682 -0.1374
 3118TIP3    H1 9318   6.037   4.076   4.996  0.5452 -0.5764  0.0391
 3118TIP3    H2 9319   6.055   4.225   4.976 -2.8247  0.2540  2.4519
 3119TIP3   OH2 9320   0.944   1.491   3.608 -0.5135 -0.0042  0.1661
 3119TIP3    H1 9321   0.996   1.411   3.610  1.5370  1.2491 -0.2501
 3119TIP3    H2 9322   0.929   1.507   3.515 -1.5160 -0.2460  0.2759
 3120TIP3   OH2 9323   2.948   3.546   5.851  0.2920 -0.0834 -0.3055
 3120TIP3    H1 9324   2.855   3.528   5.842 -0.0316  1.9000 -1.4695
 3120TIP3    H2 9325   2.957   3.584   5.938 -0.5954  2.6021 -1.2657
 3121TIP3   OH2 9326   6.856   4.435   0.976 -0.5295 -0.6818  0.0001
 3121TIP3    H1 9327   6.819   4.521   0.957  0.5562 -0.1259  0.2891
 3121TIP3    H2 9328   6.837   4.421   1.069  0.0338 -0.3622  0.1676
 3122TIP3   OH2 9329   5.998   3.299   2.186  0.0147 -0.2120 -0.8143
 3122TIP3    H1 9330   6.035   3.382   2.155 -1.3342  0.4278 -0.8195
 3122TIP3    H2 9331   5.988   3.311   2.280  0.3341 -0.5897 -0.7312
 3123TIP3   OH2 9332   5.140   0.683   2.832  0.8831  0.3082  0.4399
 3123TIP3    H1 9333   5.226   0.655   2.801  0.0702 -2.5707  0.5301
 3123TIP3    H2 9334   5.116   0.755   2.773  2.7627  0.3244 -0.3880
 3124TIP3   OH2 9335   4.253   2.422   1.764 -0.4988  0.1823 -0.6169
 3124TIP3    H1 9336   4.198   2.489   1.805 -1.0591  0.1494 -1.3004
 3124TIP3    H2 9337   4.193   2.372   1.708 -0.2615 -1.4110  0.4875
 3125TIP3   OH2 9338   3.679   2.983   2.688 -0.5941 -0.7128  0.1206
 3125TIP3    H1 9339   3.600   2.978   2.743 -1.0956 -1.8479 -0.6619
 3125TIP3    H2 9340   3.751   2.971   2.749 -0.9672  0.8284  0.9282
 3126TIP3   OH2 9341   4.687   1.326   3.437 -0.3516 -0.5964 -0.1929
 3126TIP3    H1 9342   4.703   1.314   3.343  0.3967  0.6555 -0.2393
 3126TIP3    H2 9343   4.764   1.290   3.480  0.6048  1.3202 -0.2102
 3127TIP3   OH2 9344   6.759   3.775   4.150  0.3902 -0.6061 -0.2963
 3127TIP3    H1 9345   6.774   3.685   4.178  1.8873 -0.0095  0.9077
 3127TIP3    H2 9346   6.664   3.786   4.156  0.4353 -1.0031  3.1919
 3128TIP3   OH2 9347   3.686   4.225   1.304  0.1242  0.3758  0.4840
 3128TIP3    H1 9348   3.654   4.215   1.214  1.1019  0.3695  0.1266
 3128TIP3    H2 9349   3.665   4.316   1.326  0.2179  0.4924  0.1059
 3129TIP3   OH2 9350   3.000   2.915   4.607 -0.3518 -0.4576 -0.3233
 3129TIP3    H1 9351   3.049   2.997   4.608 -0.0525 -0.6397  0.0063
 3129TIP3    H2 9352   3.067   2.847   4.598 -0.3624 -0.8352  1.9912
 3130TIP3   OH2 9353   5.857   4.358   1.799  0.0422 -0.9141 -0.2231
 3130TIP3    H1 9354   5.869   4.340   1.892 -2.0970  0.3893  0.3966
 3130TIP3    H2 9355   5.847   4.272   1.758  0.9811 -1.4938  0.7343
 3131TIP3   OH2 9356   3.465   0.742   0.253  0.0473 -0.5075 -0.6120
 3131TIP3    H1 9357   3.481   0.833   0.227  1.9341 -0.5350  0.2626
 3131TIP3    H2 9358   3.507   0.734   0.339 -0.8599 -1.9810 -0.2682
 3132TIP3   OH2 9359   1.564   2.662   1.778  0.5669  0.3474 -0.1238
 3132TIP3    H1 9360   1.567   2.583   1.725  0.1172  1.0365 -1.1941
 3132TIP3    H2 9361   1.590   2.733   1.719 -2.6376  1.5476 -0.2709
 3133TIP3   OH2 9362   5.252   0.382   0.135 -0.1311 -0.1166  0.4762
 3133TIP3    H1 9363   5.299   0.465   0.146 -0.5250  0.1693  0.0596
 3133TIP3    H2 9364   5.312   0.327   0.086 -0.1537  0.1888  0.0980
 3134TIP3   OH2 9365   0.095  -0.001   5.370 -0.0244  0.2658  0.0694
 3134TIP3    H1 9366   0.101  -0.022   5.277  0.2324 -2.7554  0.6535
 3134TIP3    H2 9367   0.007   0.036   5.380 -0.1682  0.3641 -1.3267
 3135TIP3   OH2 9368   4.721   1.028   5.562 -0.1893 -0.3674 -0.0781
 3135TIP3    H1 9369   4.767   1.112   5.557  0.8614 -0.9124  0.2391
 3135TIP3    H2 9370   4.641   1.047   5.611  0.4564  0.2732  0.7480
 3136TIP3   OH2 9371   7.098   3.250   0.749 -0.7350  0.0772 -0.9502
 3136TIP3    H1 9372   7.037   3.222   0.817 -0.3224 -0.9918 -0.9906
 3136TIP3    H2 9373   7.049   3.244   0.668 -0.5890 -0.8508 -0.9916
 3137TIP3   OH2 9374   5.489   2.243   1.628  0.5974  0.7066 -0.1113
 3137TIP3    H1 9375   5.557   2.277   1.570 -0.9809  0.3039 -2.3538
 3137TIP3    H2 9376   5.479   2.151   1.602 -0.3983  0.6030  0.5514
 3138TIP3   OH2 9377   3.969   1.525   4.231  0.2441  0.5082 -0.7966
 3138TIP3    H1 9378   3.891   1.568   4.197  1.0740  0.3810 -3.0970
 3138TIP3    H2 9379   4.032   1.532   4.159  2.2640  0.3734  0.8797
 3139TIP3   OH2 9380   2.120   6.070   1.345  0.1598 -0.4495  0.1869
 3139TIP3    H1 9381   2.183   6.021   1.293 -0.9521 -1.3203 -0.3645
 3139TIP3    H2 9382   2.061   6.109   1.281 -1.2405 -1.5573  0.7546
 3140TIP3   OH2 9383   2.701   1.090   0.976 -0.6074 -0.0429 -0.1813
 3140TIP3    H1 9384   2.772   1.153   0.963  0.2988 -0.8329  0.8642
 3140TIP3    H2 9385   2.739   1.005   0.954 -1.3889 -0.4172 -0.1245
 3141TIP3   OH2 9386   1.397   1.268   1.767  0.1368 -0.0038  0.2518
 3141TIP3    H1 9387   1.464   1.287   1.702 -0.7141 -2.2202 -1.3779
 3141TIP3    H2 9388   1.443   1.270   1.851  2.3231 -1.7693 -0.8275
 3142TIP3   OH2 9389   5.192   5.580   1.562  0.1349 -0.2525  0.4839
 3142TIP3    H1 9390   5.181   5.625   1.646 -2.0532  0.4930 -0.1218
 3142TIP3    H2 9391   5.168   5.489   1.581 -0.2408 -0.1114  0.7137
 3143TIP3   OH2 9392   0.293   0.525   5.073  0.2609 -0.4352 -0.3992
 3143TIP3    H1 9393   0.347   0.594   5.033  1.0135 -0.0665  1.1533
 3143TIP3    H2 9394   0.282   0.460   5.003 -2.2903  2.1488 -2.6574
 3144TIP3   OH2 9395   6.168   0.240   1.726  0.5284 -0.5198  0.2725
 3144TIP3    H1 9396   6.190   0.147   1.715  0.4806 -0.3137 -2.4652
 3144TIP3    H2 9397   6.189   0.260   1.817 -0.3265 -3.4230  1.2152
 3145TIP3   OH2 9398   4.583   4.752   5.712 -0.1195  0.1324 -0.5362
 3145TIP3    H1 9399   4.614   4.834   5.751  1.7377 -1.6494  1.9919
 3145TIP3    H2 9400   4.514   4.723   5.771 -0.8788 -0.0915 -1.5129
 3146TIP3   OH2 9401   2.354   4.136   3.989 -0.6230  0.4323 -0.1529
 3146TIP3    H1 9402   2.431   4.080   4.002 -1.0873 -0.1053  0.3054
 3146TIP3    H2 9403   2.380   4.221   4.024 -0.6329 -0.0559  1.0703
 3147TIP3   OH2 9404   1.137   2.675   0.356  0.0467 -0.0984 -0.0255
 3147TIP3    H1 9405   1.070   2.611   0.332  0.3572 -0.6431  0.5641
 3147TIP3    H2 9406   1.128   2.744   0.289 -0.7879 -0.3846 -0.2221
 3148TIP3   OH2 9407   5.420   1.527   1.694  0.3917  0.0662 -0.3464
 3148TIP3    H1 9408   5.396   1.485   1.611  1.2384  1.6834 -1.4428
 3148TIP3    H2 9409   5.515   1.517   1.700  0.2734 -0.6503  0.8180
 3149TIP3   OH2 9410   2.880   5.909   4.841  0.1517 -0.0841 -0.3152
 3149TIP3    H1 9411   2.798   5.884   4.884 -0.2102  1.3448 -0.1275
 3149TIP3    H2 9412   2.857   5.914   4.748  0.0766  0.0942 -0.2882
 3150TIP3   OH2 9413   5.585   0.582   2.970  0.1896 -0.2255  0.0887
 3150TIP3    H1 9414   5.647   0.631   2.916  1.3455 -1.1771  0.4962
 3150TIP3    H2 9415   5.606   0.608   3.060 -0.0097 -0.5660  0.2338
 3151TIP3   OH2 9416   6.194   0.844   1.742  0.3063 -0.1375 -0.3301
 3151TIP3    H1 9417   6.134   0.845   1.667  0.0238  0.1811 -0.1053
 3151TIP3    H2 9418   6.278   0.871   1.706  0.3263 -0.6305 -0.6586
 3152TIP3   OH2 9419   2.268   4.379   2.958 -0.1326  0.2520 -0.5260
 3152TIP3    H1 9420   2.187   4.368   3.007 -2.0193 -0.4574 -3.5223
 3152TIP3    H2 9421   2.260   4.318   2.885  4.8714 -2.7244  0.9380
 3153TIP3   OH2 9422   7.128   2.184   4.139 -0.5141  0.1109  0.0381
 3153TIP3    H1 9423   7.215   2.187   4.180 -0.1590 -1.2502 -0.5287
 3153TIP3    H2 9424   7.123   2.095   4.102 -2.1727  0.1561  0.1067
 3154TIP3   OH2 9425   5.722   1.769   1.104  0.0654  0.3347 -0.4013
 3154TIP3    H1 9426   5.717   1.835   1.035  0.2385  0.0938 -0.6491
 3154TIP3    H2 9427   5.633   1.766   1.140  0.2094  1.1460  0.0411
 3155TIP3   OH2 9428   4.050   1.727   3.668  0.0983  0.7045  0.5875
 3155TIP3    H1 9429   3.960   1.736   3.701  0.2211 -2.7576  2.3052
 3155TIP3    H2 9430   4.042   1.736   3.573 -1.3859  4.0738  0.8646
 3156TIP3   OH2 9431   3.866   6.435   5.544  0.3112  0.0066  0.7159
 3156TIP3    H1 9432   3.886   6.521   5.507 -1.2435 -0.4280 -1.3468
 3156TIP3    H2 9433   3.770   6.436   5.554  0.1084 -1.8595 -0.5035
 3157TIP3   OH2 9434   6.450   1.968   5.347  0.2523 -0.7178 -0.7926
 3157TIP3    H1 9435   6.492   1.882   5.346 -0.4488 -1.0718 -1.4401
 3157TIP3    H2 9436   6.356   1.948   5.341  0.0288  0.0647 -0.0082
 3158TIP3   OH2 9437   6.374   4.850   5.234 -0.2716  0.5965 -0.1184
 3158TIP3    H1 9438   6.403   4.933   5.270  0.8297  0.3692 -0.4582
 3158TIP3    H2 9439   6.281   4.844   5.258 -0.4891  2.1269 -0.5007
 3159TIP3   OH2 9440   6.905   1.041   2.604 -0.4078  0.1567 -0.2315
 3159TIP3    H1 9441   6.955   0.974   2.650  0.8096  0.3689 -1.1779
 3159TIP3    H2 9442   6.971   1.090   2.555 -1.5688  0.4267 -1.5754
 3160TIP3   OH2 9443   4.824   0.198   0.210 -0.0928 -0.2470  0.0106
 3160TIP3    H1 9444   4.760   0.138   0.247 -0.0656 -2.2672 -2.8508
 3160TIP3    H2 9445   4.909   0.156   0.226  0.2375  0.7227  0.8643
 3161TIP3   OH2 9446   6.378   3.188   5.830  0.1159 -0.2199 -0.2700
 3161TIP3    H1 9447   6.429   3.109   5.847 -0.4602 -0.6807 -0.6311
 3161TIP3    H2 9448   6.333   3.170   5.747 -2.0495 -0.5770  0.9056
 3162TIP3   OH2 9449   5.135   6.640   1.571  0.3293  0.2676  0.0173
 3162TIP3    H1 9450   5.057   6.684   1.603  0.9046  1.8609 -0.6738
 3162TIP3    H2 9451   5.208   6.692   1.605  0.9985  0.8016 -2.1102
 3163TIP3   OH2 9452   5.230   5.319   2.310  0.4257  0.1665  0.2898
 3163TIP3    H1 9453   5.303   5.322   2.249  0.7491  1.7104  0.7192
 3163TIP3    H2 9454   5.230   5.404   2.353 -1.0814 -0.1203  0.9456
 3164TIP3   OH2 9455   3.667   0.444   4.712  0.5183 -0.2906  0.6894
 3164TIP3    H1 9456   3.661   0.538   4.729  1.9263  0.2261 -1.2863
 3164TIP3    H2 9457   3.605   0.429   4.640 -0.4613 -1.1073  1.6667
 3165TIP3   OH2 9458   0.873   1.206   0.726 -0.2134  0.0504  0.0785
 3165TIP3    H1 9459   0.931   1.184   0.799 -1.0306 -0.2178  0.6507
 3165TIP3    H2 9460   0.860   1.124   0.680 -0.8210 -0.0665  0.4495
 3166TIP3   OH2 9461   3.608   5.948   1.242  0.4107 -0.7469 -0.6260
 3166TIP3    H1 9462   3.556   5.873   1.268 -0.8928  0.6929  1.2565
 3166TIP3    H2 9463   3.552   5.997   1.182 -0.2856  0.5231  0.9785
 3167TIP3   OH2 9464   6.230   5.813   4.522  0.6736  0.0169 -0.3068
 3167TIP3    H1 9465   6.175   5.770   4.588  0.7478 -2.9089 -1.9842
 3167TIP3    H2 9466   6.313   5.828   4.567  0.3292 -0.7211  0.6229
 3168TIP3   OH2 9467   3.925   0.601   5.147  0.2376  0.0027  0.2149
 3168TIP3    H1 9468   3.841   0.633   5.112  0.4671  0.6708  0.2694
 3168TIP3    H2 9469   3.921   0.506   5.134  0.2878  0.1986 -1.5942
 3169TIP3   OH2 9470   2.104   4.737   0.650 -0.5097 -0.1559  0.2073
 3169TIP3    H1 9471   2.074   4.688   0.573  1.8907 -0.5210 -0.5661
 3169TIP3    H2 9472   2.154   4.810   0.614  0.2262 -0.0468  1.3974
 3170TIP3   OH2 9473   1.452   3.196   5.132  0.4331 -0.1219 -0.1351
 3170TIP3    H1 9474   1.478   3.288   5.131  2.3480 -0.5864 -2.2253
 3170TIP3    H2 9475   1.503   3.157   5.203 -1.2765  0.5785  1.5548
 3171TIP3   OH2 9476   6.910   1.033   0.853 -0.3302 -0.0139 -0.0256
 3171TIP3    H1 9477   6.968   1.110   0.859  1.0485 -1.0762  1.1897
 3171TIP3    H2 9478   6.841   1.050   0.916  0.5796 -0.2185  1.0621
 3172TIP3   OH2 9479   6.655   5.284   5.695 -0.3672  0.5201  0.1612
 3172TIP3    H1 9480   6.653   5.302   5.789 -1.4040 -0.7299  0.4159
 3172TIP3    H2 9481   6.661   5.188   5.689  2.6591  0.6800 -1.0899
 3173TIP3   OH2 9482   0.163   5.506   3.811 -0.1544 -0.3037  0.0549
 3173TIP3    H1 9483   0.109   5.460   3.875  2.3192 -0.9572  1.8205
 3173TIP3    H2 9484   0.172   5.594   3.847  1.6068 -0.7993  0.9098
 3174TIP3   OH2 9485   6.617   1.291   4.324 -0.3572  0.2051 -0.0930
 3174TIP3    H1 9486   6.560   1.249   4.387 -0.4268  0.7521  0.2192
 3174TIP3    H2 9487   6.682   1.338   4.377  0.9377 -1.1221 -0.4375
 3175TIP3   OH2 9488   6.574   4.826   3.276 -0.4642 -0.0840 -0.0445
 3175TIP3    H1 9489   6.525   4.883   3.216 -1.0324 -0.3177  0.1866
 3175TIP3    H2 9490   6.577   4.875   3.358 -0.3798 -0.1009 -0.0380
 3176TIP3   OH2 9491   2.362   0.689   3.451 -0.0347 -0.2578  0.3676
 3176TIP3    H1 9492   2.278   0.705   3.493  0.3845  1.8652  0.5359
 3176TIP3    H2 9493   2.394   0.776   3.427  0.7152 -1.2133 -2.5077
 3177TIP3   OH2 9494   4.940   3.648   0.314  0.2630  0.4751  0.1894
 3177TIP3    H1 9495   5.025   3.617   0.281  0.4559 -0.4161  1.4250
 3177TIP3    H2 9496   4.962   3.721   0.372  0.3795 -0.7515  1.7545
 3178TIP3   OH2 9497   4.714   5.377   3.356  0.7447 -0.2086 -0.0920
 3178TIP3    H1 9498   4.786   5.367   3.418 -0.3103  1.5742  1.5778
 3178TIP3    H2 9499   4.681   5.289   3.342  1.3937 -0.7464  1.4945
 3179TIP3   OH2 9500   2.439   4.713   1.713  0.4189 -0.4556 -0.2013
 3179TIP3    H1 9501   2.500   4.786   1.698 -0.5424 -0.0448 -2.4291
 3179TIP3    H2 9502   2.360   4.755   1.748 -0.0374 -0.4322 -1.2294
 3180TIP3   OH2 9503   6.601   6.104   2.536  0.1563 -0.7083  0.3324
 3180TIP3    H1 9504   6.527   6.066   2.582  0.4511 -0.7670  0.7742
 3180TIP3    H2 9505   6.651   6.148   2.605  0.3548 -0.3923 -0.0118
 3181TIP3   OH2 9506   1.408   2.378   1.973  0.8786  0.1210  0.2162
 3181TIP3    H1 9507   1.354   2.332   2.037  0.7009 -1.7753 -1.2271
 3181TIP3    H2 9508   1.357   2.456   1.951  0.0518 -0.2024  0.9452
 3182TIP3   OH2 9509   0.972   3.908   4.292 -0.0917 -0.8391  0.1771
 3182TIP3    H1 9510   0.954   3.871   4.206  2.9876 -0.2503 -0.8687
 3182TIP3    H2 9511   1.066   3.894   4.305 -0.1061  0.6738  2.6803
 3183TIP3   OH2 9512   6.306   5.472   1.487 -0.4281  0.1766 -0.2209
 3183TIP3    H1 9513   6.284   5.545   1.429 -0.7107  1.1664  1.0844
 3183TIP3    H2 9514   6.390   5.497   1.526  0.6704 -1.3036 -1.4897
 3184TIP3   OH2 9515   1.324   5.427   2.844  0.0890 -0.1167  0.0247
 3184TIP3    H1 9516   1.259   5.449   2.911  0.6050 -0.0286  0.5021
 3184TIP3    H2 9517   1.300   5.338   2.816  0.4939 -0.5817  1.0941
 3185TIP3   OH2 9518   6.831   0.188   1.770  0.1829 -0.1625  0.3752
 3185TIP3    H1 9519   6.840   0.199   1.676  0.3984 -1.4429  0.2186
 3185TIP3    H2 9520   6.742   0.216   1.790  0.6197  1.5284  0.0425
 3186TIP3   OH2 9521   0.658   1.062   1.296 -0.2585  0.2423 -0.2506
 3186TIP3    H1 9522   0.582   1.022   1.254  0.0540  0.1037 -0.6944
 3186TIP3    H2 9523   0.729   1.053   1.231  0.8101 -1.9058  1.0975
 3187TIP3   OH2 9524   1.760   1.824   4.372  0.1211  0.0257  0.1511
 3187TIP3    H1 9525   1.673   1.798   4.403  0.9604 -2.9335  0.3311
 3187TIP3    H2 9526   1.818   1.757   4.407  2.2182  0.8577 -1.5602
 3188TIP3   OH2 9527   5.944   4.453   5.179 -0.1453  0.0144  0.5673
 3188TIP3    H1 9528   6.034   4.479   5.162 -0.8354  2.0764 -0.2384
 3188TIP3    H2 9529   5.927   4.478   5.269  0.2711 -1.0442  0.9583
 3189TIP3   OH2 9530   0.364   6.112   4.138  0.1920  0.0458  0.0115
 3189TIP3    H1 9531   0.338   6.067   4.057  1.0854  1.5888 -1.1937
 3189TIP3    H2 9532   0.417   6.048   4.184 -1.3093 -1.2839 -0.0170
 3190TIP3   OH2 9533   4.237   2.210   2.411  0.2255  0.2535 -0.0731
 3190TIP3    H1 9534   4.180   2.175   2.342 -0.7127  0.2590  0.6805
 3190TIP3    H2 9535   4.233   2.146   2.481  0.8000  0.4744  0.1688
 3191TIP3   OH2 9536   7.189  -0.031   1.316  0.1547  0.0802  0.5139
 3191TIP3    H1 9537   7.215   0.059   1.338 -0.0415  0.5144 -0.9067
 3191TIP3    H2 9538   7.096  -0.024   1.295 -0.4833 -0.9351  2.7533
 3192TIP3   OH2 9539   2.545   3.747   5.192  0.2483 -0.0302  0.0601
 3192TIP3    H1 9540   2.586   3.663   5.171  1.7632  0.6528  0.1321
 3192TIP3    H2 9541   2.531   3.743   5.287  0.8568  0.0028  0.1599
 3193TIP3   OH2 9542   3.529   4.918   5.061  0.2234 -0.2828 -0.1745
 3193TIP3    H1 9543   3.434   4.917   5.070  0.3077 -0.3451  0.8853
 3193TIP3    H2 9544   3.560   4.865   5.135  1.1076  0.3626 -0.0672
 3194TIP3   OH2 9545   0.670   5.502   3.723  0.0124 -0.5448  0.4443
 3194TIP3    H1 9546   0.578   5.507   3.699  0.3375  0.8170 -0.6722
 3194TIP3    H2 9547   0.709   5.443   3.657  0.5328  1.6249 -1.3186
 3195TIP3   OH2 9548   0.104   6.108   0.614  0.0566  0.0238  0.3216
 3195TIP3    H1 9549   0.131   6.127   0.705 -0.1668 -1.7325  0.7897
 3195TIP3    H2 9550   0.136   6.183   0.564  0.1552  1.0629  1.8498
 3196TIP3   OH2 9551   0.354   2.250   0.867  0.4975 -0.0114  0.5466
 3196TIP3    H1 9552   0.304   2.313   0.918  0.2787  1.5493 -1.4895
 3196TIP3    H2 9553   0.295   2.175   0.856 -0.1841  0.4667  0.9017
 3197TIP3   OH2 9554   4.169   0.449   4.814 -0.1247  0.1413  0.0749
 3197TIP3    H1 9555   4.250   0.442   4.865 -0.4693 -1.2760  0.4635
 3197TIP3    H2 9556   4.105   0.397   4.862 -1.2718  1.1986 -0.2585
 3198TIP3   OH2 9557   4.973   5.807   5.294  0.4450  0.3056  0.2616
 3198TIP3    H1 9558   4.932   5.893   5.296  1.4769  0.8047  0.5087
 3198TIP3    H2 9559   5.040   5.814   5.227  0.2133 -0.4722 -0.0664
 3199TIP3   OH2 9560   4.613   1.596   1.231  0.1146  0.0771 -1.0048
 3199TIP3    H1 9561   4.544   1.586   1.166 -0.6238 -0.4193 -0.1703
 3199TIP3    H2 9562   4.585   1.671   1.284  0.1327 -0.2271 -0.5642
 3200TIP3   OH2 9563   7.171   2.548   1.747 -0.4193  0.0748  0.1094
 3200TIP3    H1 9564   7.094   2.542   1.689  0.3816 -2.3368 -0.8055
 3200TIP3    H2 9565   7.206   2.459   1.750  1.5146  0.8251  1.6896
 3201TIP3   OH2 9566   5.825   5.064   4.606 -0.2718 -0.0842  0.6192
 3201TIP3    H1 9567   5.837   5.112   4.524 -1.0894 -2.9558 -1.3631
 3201TIP3    H2 9568   5.746   5.102   4.645 -0.7419  0.3589 -0.7165
 3202TIP3   OH2 9569   2.087   1.310   4.633 -0.0462  0.1341  0.1579
 3202TIP3    H1 9570   2.050   1.222   4.627  0.0064  0.1423 -0.3739
 3202TIP3    H2 9571   2.159   1.310   4.570 -0.3258  0.6889 -0.1730
 3203TIP3   OH2 9572   7.116   6.790   2.426 -0.2448 -0.3326 -0.3208
 3203TIP3    H1 9573   7.054   6.786   2.499  0.9930 -2.5984  0.7427
 3203TIP3    H2 9574   7.131   6.698   2.404  1.9631  0.1932 -1.1912
 3204TIP3   OH2 9575   5.405   0.916   2.316 -0.6957 -0.2058  0.1467
 3204TIP3    H1 9576   5.386   0.851   2.383 -2.1003 -0.1578 -0.1732
 3204TIP3    H2 9577   5.422   0.865   2.237 -0.7255 -0.2076  0.1417
 3205TIP3   OH2 9578   3.928   3.637   0.517 -0.0036  0.3139  0.3640
 3205TIP3    H1 9579   3.858   3.672   0.572  1.6197  0.4715  2.4630
 3205TIP3    H2 9580   3.961   3.561   0.566  0.0770 -0.9494 -1.5066
 3206TIP3   OH2 9581   6.387   3.310   5.078 -0.4196 -0.0079  0.3272
 3206TIP3    H1 9582   6.403   3.251   5.152  2.4882  0.9518  0.5685
 3206TIP3    H2 9583   6.419   3.261   5.002 -0.1670  0.3412  0.2082
 3207TIP3   OH2 9584   6.246   4.965   3.982  0.2306  0.2503 -0.5300
 3207TIP3    H1 9585   6.214   4.878   4.008 -0.7168  0.9212  0.6802
 3207TIP3    H2 9586   6.262   4.957   3.888 -0.8194 -0.9511 -0.6417
 3208TIP3   OH2 9587   0.726   2.632   0.437 -0.1919  0.2592  0.2382
 3208TIP3    H1 9588   0.686   2.713   0.470  0.9249  0.2699  1.6552
 3208TIP3    H2 9589   0.776   2.660   0.360  0.3896  0.9871  0.8645
 3209TIP3   OH2 9590   3.325   0.487   3.200  0.3589  0.0140 -0.2013
 3209TIP3    H1 9591   3.352   0.481   3.109 -0.3280 -0.1263 -0.4017
 3209TIP3    H2 9592   3.266   0.413   3.213 -0.3706  0.6253  0.0598
 3210TIP3   OH2 9593   1.549   2.690   3.320 -0.4819 -0.0044  0.1467
 3210TIP3    H1 9594   1.610   2.628   3.360 -2.3876 -1.1664  1.4401
 3210TIP3    H2 9595   1.511   2.737   3.394 -0.0143  1.8412 -0.7393
 3211TIP3   OH2 9596   7.162   3.564   3.977 -0.4207 -0.2561  0.3499
 3211TIP3    H1 9597   7.167   3.468   3.971 -0.5262 -0.1876 -1.3505
 3211TIP3    H2 9598   7.210   3.585   4.057  1.7711 -1.5845 -0.5027
 3212TIP3   OH2 9599   3.310   4.572   4.824  0.1394  0.3938 -0.9098
 3212TIP3    H1 9600   3.375   4.613   4.767  0.4066  0.3488 -0.6387
 3212TIP3    H2 9601   3.245   4.640   4.840  0.9330  0.9232  0.0921
 3213TIP3   OH2 9602   4.290   3.909   3.022  0.0094  0.5294 -0.4128
 3213TIP3    H1 9603   4.303   3.988   2.970 -0.2300  2.6384  2.4899
 3213TIP3    H2 9604   4.195   3.896   3.022 -0.0050  0.6362 -0.3438
 3214TIP3   OH2 9605   7.094   3.857   5.041  0.2928 -0.2415  0.3797
 3214TIP3    H1 9606   7.100   3.826   4.950  1.5668  0.5353  0.1629
 3214TIP3    H2 9607   7.111   3.951   5.035  0.7677 -0.2464  1.4548
 3215TIP3   OH2 9608   0.570   6.471   4.273  0.2006 -0.9757  0.7172
 3215TIP3    H1 9609   0.661   6.475   4.302 -0.4730  0.9064  2.9027
 3215TIP3    H2 9610   0.529   6.408   4.332 -0.1816 -0.8256  0.6170
 3216TIP3   OH2 9611   6.499   3.233   5.558 -0.1349  0.0121 -0.4586
 3216TIP3    H1 9612   6.513   3.191   5.643 -1.5929  0.8415  0.2300
 3216TIP3    H2 9613   6.536   3.320   5.568 -0.8540  0.3272 -0.4444
 3217TIP3   OH2 9614   2.510   4.211   4.856 -0.5593  0.0468  0.1670
 3217TIP3    H1 9615   2.474   4.209   4.767 -0.1540 -0.4581  0.0086
 3217TIP3    H2 9616   2.603   4.188   4.845 -0.7805 -1.2930  0.8480
 3218TIP3   OH2 9617   0.253   1.414   3.620 -0.3217 -0.4911 -0.4335
 3218TIP3    H1 9618   0.294   1.385   3.539  0.9197  0.8569 -0.3225
 3218TIP3    H2 9619   0.168   1.370   3.621 -0.8813  0.3606 -3.0594
 3219TIP3   OH2 9620   0.252   3.442   3.273  0.3279 -0.2732 -0.2985
 3219TIP3    H1 9621   0.187   3.372   3.287 -1.0888  1.2604  1.3102
 3219TIP3    H2 9622   0.336   3.400   3.291 -0.4304 -1.7033  0.0794
 3220TIP3   OH2 9623   0.344   1.280   3.372  0.1263  0.0035  0.5484
 3220TIP3    H1 9624   0.262   1.242   3.342  0.5587 -0.2662 -0.3329
 3220TIP3    H2 9625   0.411   1.216   3.347  1.0848  1.9424 -2.4531
 3221TIP3   OH2 9626   4.199   2.691   5.002 -0.4027  0.0535 -0.5162
 3221TIP3    H1 9627   4.124   2.746   5.023 -0.3090  0.6049 -1.5608
 3221TIP3    H2 9628   4.208   2.632   5.077 -0.0633  1.9134  0.9703
 3222TIP3   OH2 9629   1.691   2.621   0.406 -0.0137 -0.2183 -0.7735
 3222TIP3    H1 9630   1.706   2.692   0.344 -1.4382 -0.6519 -1.6534
 3222TIP3    H2 9631   1.712   2.541   0.358  2.5603 -0.4377  0.5118
 3223TIP3   OH2 9632   4.260   3.371   5.013  0.6351 -0.2407 -0.3789
 3223TIP3    H1 9633   4.338   3.426   5.023  1.5996 -1.3770 -1.3577
 3223TIP3    H2 9634   4.269   3.304   5.081  1.4946 -1.4502 -1.6354
 3224TIP3   OH2 9635   6.325   6.588   5.371  0.0390  0.7940  0.2332
 3224TIP3    H1 9636   6.320   6.506   5.420 -1.2328  1.2121  0.8475
 3224TIP3    H2 9637   6.341   6.655   5.438  0.4910  1.1165 -0.1905
 3225TIP3   OH2 9638   3.857   5.917   5.544 -0.4373  0.4034 -0.1916
 3225TIP3    H1 9639   3.916   5.992   5.554 -0.1440  0.1967 -0.3209
 3225TIP3    H2 9640   3.911   5.842   5.570 -0.2258  0.0658 -1.5231
 3226TIP3   OH2 9641   2.448   2.686   1.697 -0.2778 -0.5701 -0.1771
 3226TIP3    H1 9642   2.513   2.624   1.662  0.2933 -0.7072  1.0629
 3226TIP3    H2 9643   2.410   2.641   1.772 -0.9063  0.0243 -0.1281
 3227TIP3   OH2 9644   5.313   0.142   0.409 -0.0689 -0.0780 -0.4828
 3227TIP3    H1 9645   5.259   0.152   0.331  0.7788 -0.2932 -1.1149
 3227TIP3    H2 9646   5.369   0.066   0.390  1.0816  0.6846 -0.2268
 3228TIP3   OH2 9647   3.677   1.376   0.888 -0.1597  0.1608 -0.1465
 3228TIP3    H1 9648   3.629   1.450   0.925 -0.1605  0.4725 -0.7610
 3228TIP3    H2 9649   3.765   1.409   0.872  0.1476 -0.2857  0.5723
 3229TIP3   OH2 9650   3.016   1.894   0.461 -0.2102 -0.0953 -0.0506
 3229TIP3    H1 9651   3.103   1.935   0.454  0.3376 -0.8367  1.7521
 3229TIP3    H2 9652   3.021   1.817   0.405 -0.1193  0.5077 -0.8851
 3230TIP3   OH2 9653   3.045   0.410   3.591  1.0105  0.2743 -0.0482
 3230TIP3    H1 9654   3.071   0.384   3.679  1.3696  0.5260 -0.0779
 3230TIP3    H2 9655   2.953   0.437   3.600  1.2916  1.1011  0.4141
 3231TIP3   OH2 9656   2.763   5.917   1.115 -0.1061 -0.1783  0.0135
 3231TIP3    H1 9657   2.790   5.830   1.085 -0.0474 -0.6534  1.3871
 3231TIP3    H2 9658   2.720   5.956   1.039 -2.1484 -2.2714 -0.0178
 3232TIP3   OH2 9659   6.200   5.229   1.441  0.2297 -0.4432  0.1015
 3232TIP3    H1 9660   6.193   5.237   1.346 -1.7103  2.3988  0.3941
 3232TIP3    H2 9661   6.249   5.306   1.469  0.3358 -0.9694  1.4784
 3233TIP3   OH2 9662   2.563   4.714   4.247  0.2279  0.2424  0.1593
 3233TIP3    H1 9663   2.658   4.721   4.260  0.2502 -0.4554  0.3897
 3233TIP3    H2 9664   2.528   4.793   4.288  0.5306 -0.5658  2.1134
 3234TIP3   OH2 9665   6.001   5.515   2.581 -0.0560  0.0013 -0.2718
 3234TIP3    H1 9666   6.035   5.560   2.658  0.6068  1.3265 -1.2998
 3234TIP3    H2 9667   6.017   5.576   2.509 -0.3064 -1.3671 -1.5230
 3235TIP3   OH2 9668   2.728   3.384   1.702 -0.1121 -0.2783 -0.2817
 3235TIP3    H1 9669   2.721   3.459   1.643 -0.8465  0.1782  0.3621
 3235TIP3    H2 9670   2.687   3.413   1.783  0.7141 -0.9647  0.3947
 3236TIP3   OH2 9671   6.587   5.002   3.815 -0.0968  0.0840 -0.0643
 3236TIP3    H1 9672   6.608   4.954   3.734  3.8817  0.8267  0.3049
 3236TIP3    H2 9673   6.604   4.940   3.885 -1.0170  0.2125  0.2826
 3237TIP3   OH2 9674  -0.012   6.436   5.807  0.0406 -0.2384  0.0081
 3237TIP3    H1 9675   0.000   6.483   5.724 -0.8519 -2.1053 -1.2366
 3237TIP3    H2 9676   0.073   6.394   5.823  0.1973  0.0817  0.0404
 3238TIP3   OH2 9677   6.999   6.034   4.906 -0.3396  0.1737 -0.6532
 3238TIP3    H1 9678   7.058   6.091   4.956  1.7801 -0.4510 -2.2975
 3238TIP3    H2 9679   7.016   6.055   4.815 -1.1895 -1.4754 -1.2418
 3239TIP3   OH2 9680   2.886   5.844   0.321 -0.2766 -0.3699  0.3504
 3239TIP3    H1 9681   2.886   5.753   0.348 -1.2036 -1.0196 -1.6019
 3239TIP3    H2 9682   2.939   5.846   0.242 -0.1348  0.8182  0.4503
 3240TIP3   OH2 9683   5.010   6.629   5.876  0.1528 -0.0631 -0.6852
 3240TIP3    H1 9684   4.980   6.556   5.930 -0.3654  1.8366  1.8334
 3240TIP3    H2 9685   5.093   6.600   5.838  0.3106 -1.7023  0.8110
 3241TIP3   OH2 9686   5.029   6.836   0.243 -0.4905  0.0749 -0.0084
 3241TIP3    H1 9687   5.122   6.816   0.249 -0.4571  0.5108  1.3246
 3241TIP3    H2 9688   4.985   6.753   0.260 -0.3707 -0.3129 -1.4506
 3242TIP3   OH2 9689   4.508   0.742   2.833  0.1521  0.4338  0.0500
 3242TIP3    H1 9690   4.522   0.777   2.921 -1.4028 -0.3561  0.6482
 3242TIP3    H2 9691   4.511   0.647   2.845 -2.1092  0.2585 -0.3175
 3243TIP3   OH2 9692   2.888   5.430   2.026  0.1939 -0.2385  0.0151
 3243TIP3    H1 9693   2.855   5.353   1.981 -0.5464 -0.2074  0.4895
 3243TIP3    H2 9694   2.928   5.483   1.957 -2.3818  0.6111 -0.9126
 3244TIP3   OH2 9695   2.312   1.212   0.886 -0.2504 -0.5750 -0.5261
 3244TIP3    H1 9696   2.317   1.210   0.790 -0.3502 -0.2824 -0.5382
 3244TIP3    H2 9697   2.367   1.139   0.914  0.7988  0.0888 -0.7690
 3245TIP3   OH2 9698   6.363   2.327   3.530  0.0035  0.5598 -0.7949
 3245TIP3    H1 9699   6.282   2.360   3.569 -0.9042 -0.5047 -1.6922
 3245TIP3    H2 9700   6.356   2.232   3.538  2.4793  0.4931  1.6207
 3246TIP3   OH2 9701   1.383   6.491   2.746  0.0761  0.2814  0.3977
 3246TIP3    H1 9702   1.474   6.467   2.764  0.9694  2.1749 -1.2212
 3246TIP3    H2 9703   1.373   6.477   2.652 -0.6539  1.9991  0.1906
 3247TIP3   OH2 9704   5.877   4.134   3.586 -0.0201 -0.1346 -0.6583
 3247TIP3    H1 9705   5.865   4.218   3.541 -0.8632  0.5235  0.7277
 3247TIP3    H2 9706   5.965   4.140   3.623  0.0797 -0.0385 -0.9040
 3248TIP3   OH2 9707   0.262   4.873   4.824  0.2193 -0.8382  0.4983
 3248TIP3    H1 9708   0.311   4.897   4.903  0.4080 -0.5660  0.3024
 3248TIP3    H2 9709   0.176   4.847   4.855 -0.1750  0.5843  0.6905
 3249TIP3   OH2 9710   5.061   5.490   5.205 -0.3502  0.2373  0.4000
 3249TIP3    H1 9711   4.969   5.512   5.221 -0.2052 -0.2059  2.0547
 3249TIP3    H2 9712   5.090   5.553   5.140 -2.0233 -0.1051 -0.7515
 3250TIP3   OH2 9713   0.742   4.874   2.360 -0.0229 -0.1862 -0.2579
 3250TIP3    H1 9714   0.741   4.970   2.361 -0.2244 -0.1758  1.5112
 3250TIP3    H2 9715   0.666   4.849   2.413 -0.4853 -1.3504 -1.4238
 3251TIP3   OH2 9716   3.755   5.278   5.265  0.1220 -0.1268  0.6222
 3251TIP3    H1 9717   3.689   5.347   5.251 -1.6169 -2.0396 -1.4706
 3251TIP3    H2 9718   3.719   5.223   5.334  0.5344 -0.0446  0.9059
 3252TIP3   OH2 9719   4.976   1.995   5.256  0.5580 -0.8513 -0.3278
 3252TIP3    H1 9720   4.960   2.061   5.323 -1.0036 -0.6306 -0.8695
 3252TIP3    H2 9721   5.063   2.016   5.221  0.0878  0.9294 -0.4984
 3253TIP3   OH2 9722   2.008   3.439   3.021  0.3024  0.3730 -0.3005
 3253TIP3    H1 9723   1.996   3.360   3.073 -0.3640  0.2368 -0.6570
 3253TIP3    H2 9724   2.006   3.510   3.085 -2.6020  0.3876 -0.2899
 3254TIP3   OH2 9725   5.057   6.478   1.360 -0.4943 -0.3052 -0.0771
 3254TIP3    H1 9726   5.108   6.527   1.425 -2.0802  2.6985 -0.9195
 3254TIP3    H2 9727   5.102   6.394   1.352  1.2426  0.2003  2.9652
 3255TIP3   OH2 9728   6.609   5.387   3.701  0.4225 -0.2104 -0.4876
 3255TIP3    H1 9729   6.560   5.468   3.715 -0.3664 -0.9168  1.1170
 3255TIP3    H2 9730   6.700   5.415   3.694  0.4248  0.6984  2.0860
 3256TIP3   OH2 9731   2.151   2.656   3.642  0.2235 -0.5544  0.0060
 3256TIP3    H1 9732   2.130   2.677   3.551  0.2580  1.6481  0.4471
 3256TIP3    H2 9733   2.067   2.636   3.682  0.0612 -0.3044 -0.2121
 3257TIP3   OH2 9734   4.765   3.435   3.028  0.2299  0.1646  0.3622
 3257TIP3    H1 9735   4.713   3.461   3.104  0.0357 -0.5123  0.4682
 3257TIP3    H2 9736   4.736   3.346   3.008  0.7650  0.0827 -0.0873
 3258TIP3   OH2 9737   3.940   2.550   3.951  0.0356 -0.0105  0.6515
 3258TIP3    H1 9738   3.918   2.557   3.859 -1.0888  1.1758  0.9724
 3258TIP3    H2 9739   4.022   2.599   3.960 -1.7307  3.2121  0.8316
 3259TIP3   OH2 9740   2.144   3.500   5.727  0.3166  0.4851 -0.3866
 3259TIP3    H1 9741   2.153   3.511   5.821  3.1667 -0.4561 -0.4697
 3259TIP3    H2 9742   2.103   3.582   5.698 -0.6767  0.7715  1.6277
 3260TIP3   OH2 9743   2.482   4.163   1.843 -0.3335  0.2974 -0.2152
 3260TIP3    H1 9744   2.398   4.207   1.829 -0.2620 -0.1826 -2.3909
 3260TIP3    H2 9745   2.461   4.090   1.901 -1.3145  0.4871 -0.3132
 3261TIP3   OH2 9746   6.192   5.160   0.858 -0.0044  0.5927 -0.0040
 3261TIP3    H1 9747   6.177   5.235   0.915 -1.3615 -0.3060  0.9062
 3261TIP3    H2 9748   6.107   5.145   0.816  0.5609  0.2694 -1.0462
 3262TIP3   OH2 9749   0.477   2.065   4.314 -0.3276  0.4466  0.5522
 3262TIP3    H1 9750   0.470   2.160   4.323 -0.2200  0.7311 -1.7448
 3262TIP3    H2 9751   0.495   2.051   4.221 -1.5889 -1.8933  0.5809
 3263TIP3   OH2 9752   3.483   0.162   2.033 -0.2571  0.0940 -0.9096
 3263TIP3    H1 9753   3.401   0.115   2.047 -0.0572 -0.4243 -1.4717
 3263TIP3    H2 9754   3.517   0.178   2.121 -0.1389 -1.1521 -0.7161
 3264TIP3   OH2 9755   0.522   5.582   4.245  0.2268  0.3233  0.0650
 3264TIP3    H1 9756   0.603   5.588   4.195  1.3168 -1.3487  1.5394
 3264TIP3    H2 9757   0.457   5.550   4.181  1.3693 -0.9165 -0.5232
 3265TIP3   OH2 9758   5.528   1.942   4.960 -0.2816 -0.4904  0.2441
 3265TIP3    H1 9759   5.587   1.996   4.907 -1.1859  0.4581  0.1694
 3265TIP3    H2 9760   5.586   1.884   5.008  0.8599  1.4863  1.3893
 3266TIP3   OH2 9761   2.299   3.776   2.143 -0.4021 -0.0289 -0.0968
 3266TIP3    H1 9762   2.212   3.753   2.110 -0.5190 -0.1446  0.2771
 3266TIP3    H2 9763   2.284   3.853   2.198 -0.3236 -0.2301  0.2154
 3267TIP3   OH2 9764   0.500   3.708   3.083  0.3033 -0.1285  0.2865
 3267TIP3    H1 9765   0.511   3.731   3.175 -0.5922  0.9390  0.1507
 3267TIP3    H2 9766   0.527   3.617   3.078  1.1363  0.0312  1.4463
 3268TIP3   OH2 9767   2.720   5.693   1.420 -0.2423 -0.0976  0.1601
 3268TIP3    H1 9768   2.695   5.722   1.508  0.5294 -1.6697  0.9474
 3268TIP3    H2 9769   2.775   5.616   1.436 -0.1637 -0.4575 -1.7161
 3269TIP3   OH2 9770   5.956   4.581   5.417  0.0925 -0.2995 -0.3453
 3269TIP3    H1 9771   6.023   4.526   5.459 -0.1954 -0.1199  0.3637
 3269TIP3    H2 9772   5.886   4.586   5.482  0.2159  1.1199 -0.3060
 3270TIP3   OH2 9773   0.563   5.064   1.258 -0.7230  0.0200 -0.1356
 3270TIP3    H1 9774   0.600   5.059   1.170  0.1399 -1.4616  0.2864
 3270TIP3    H2 9775   0.558   4.974   1.288 -1.8155  0.4291  1.0252
 3271TIP3   OH2 9776   6.823   0.694   5.341 -0.4705  0.6722 -0.1735
 3271TIP3    H1 9777   6.842   0.729   5.254 -1.0994  2.9893  0.5442
 3271TIP3    H2 9778   6.746   0.743   5.370 -1.0108 -0.9088  1.2299
 3272TIP3   OH2 9779   3.860   1.416   4.890  0.4336 -0.5225 -0.1783
 3272TIP3    H1 9780   3.932   1.401   4.828  0.8600  0.0680  0.1604
 3272TIP3    H2 9781   3.788   1.362   4.857  1.1278 -1.3653 -0.3520
 3273TIP3   OH2 9782   3.758   0.318   2.233 -0.2407  0.2853  0.0343
 3273TIP3    H1 9783   3.703   0.244   2.206  0.7673 -0.3655 -0.2722
 3273TIP3    H2 9784   3.842   0.279   2.255 -0.5891  0.9419  2.9227
 3274TIP3   OH2 9785   6.070   2.660   5.619 -0.5328  0.3174 -0.4971
 3274TIP3    H1 9786   6.115   2.683   5.538  2.5334 -0.3349  0.8573
 3274TIP3    H2 9787   6.022   2.738   5.643 -0.1397  1.0859 -2.0900
 3275TIP3   OH2 9788   6.266   5.606   2.432  0.4014 -0.6180 -0.7206
 3275TIP3    H1 9789   6.184   5.655   2.433  0.1363 -1.0405 -1.0700
 3275TIP3    H2 9790   6.326   5.660   2.380 -0.0886 -0.9563 -1.6798
 3276TIP3   OH2 9791   5.056   3.865   2.537  0.1674 -0.7959 -0.4848
 3276TIP3    H1 9792   5.120   3.856   2.608 -0.6457 -1.6125  0.1859
 3276TIP3    H2 9793   5.049   3.777   2.500 -0.2687 -0.6305 -0.8013
 3277TIP3   OH2 9794   6.604   5.461   2.191  0.0489 -0.2368  0.6199
 3277TIP3    H1 9795   6.663   5.447   2.117 -1.7050 -0.4743 -0.7912
 3277TIP3    H2 9796   6.572   5.551   2.179  0.1436 -0.0952  1.3908
 3278TIP3   OH2 9797   2.119   2.647   0.041 -0.4812 -0.0718 -0.2485
 3278TIP3    H1 9798   2.197   2.660   0.095 -1.0265 -2.7131  1.3532
 3278TIP3    H2 9799   2.087   2.735   0.023  0.7609  0.9789  2.2563
 3279TIP3   OH2 9800   1.429   4.778   5.245  0.4565  0.1726 -0.1120
 3279TIP3    H1 9801   1.361   4.729   5.199 -2.0014  2.2414  1.0251
 3279TIP3    H2 9802   1.424   4.866   5.209  0.0829  1.2451  2.3205
 3280TIP3   OH2 9803   0.504   6.663   4.520 -0.1662  0.1059  0.0725
 3280TIP3    H1 9804   0.496   6.584   4.468 -1.3440  0.7729 -0.8226
 3280TIP3    H2 9805   0.583   6.706   4.488  0.5705 -0.7713  0.6809
 3281TIP3   OH2 9806   6.468   1.910   1.360  0.3120 -0.2422 -0.3215
 3281TIP3    H1 9807   6.457   1.860   1.441 -0.5697  2.7639  1.5573
 3281TIP3    H2 9808   6.563   1.921   1.351  0.3776  0.5028  1.0810
 3282TIP3   OH2 9809   0.174   6.192   5.453  0.0111  0.1886 -0.5492
 3282TIP3    H1 9810   0.214   6.123   5.400 -0.8299 -0.3776 -0.4593
 3282TIP3    H2 9811   0.180   6.160   5.543 -0.8238  0.0055 -0.5560
 3283TIP3   OH2 9812   2.764   2.135   2.546 -0.1159  0.0768 -0.1402
 3283TIP3    H1 9813   2.809   2.135   2.630 -0.0313 -1.3498 -0.1591
 3283TIP3    H2 9814   2.725   2.222   2.539  2.0714  1.1535  0.1677
 3284TIP3   OH2 9815   2.652   4.245   1.113  0.7192  0.0526 -0.0281
 3284TIP3    H1 9816   2.565   4.284   1.121  0.3468 -0.6622 -0.5028
 3284TIP3    H2 9817   2.705   4.290   1.179  0.0648  0.6916  0.0677
 3285TIP3   OH2 9818   2.249   6.661   2.091 -0.3390 -0.3826  0.0939
 3285TIP3    H1 9819   2.215   6.714   2.164 -0.4193 -1.3386  0.7655
 3285TIP3    H2 9820   2.270   6.577   2.130  0.7342 -0.5403 -0.7637
 3286TIP3   OH2 9821   3.149   0.700   5.314 -0.0330  0.2618  0.5758
 3286TIP3    H1 9822   3.055   0.713   5.298 -0.4275 -1.1115  1.5939
 3286TIP3    H2 9823   3.163   0.607   5.297  1.0266  0.3263  1.0233
 3287TIP3   OH2 9824   1.929   5.566   1.796 -0.1120 -0.0896  0.7895
 3287TIP3    H1 9825   1.982   5.609   1.863  1.1724 -0.3112 -0.0388
 3287TIP3    H2 9826   1.957   5.475   1.798  0.1425 -0.0468 -0.1968
 3288TIP3   OH2 9827   0.654   4.570   1.447  0.5575 -0.3478 -0.1451
 3288TIP3    H1 9828   0.608   4.489   1.425  0.1514  0.4507 -2.5595
 3288TIP3    H2 9829   0.745   4.554   1.422  0.4474 -0.0348 -0.7722
 3289TIP3   OH2 9830   2.892   1.282   0.953  0.2933 -0.1885  0.2115
 3289TIP3    H1 9831   2.828   1.326   1.009 -0.0866  0.8093 -0.9682
 3289TIP3    H2 9832   2.975   1.291   1.000 -0.2295 -0.5741  1.2574
 3290TIP3   OH2 9833   5.515   5.861   4.756 -0.2078 -0.0600  0.3992
 3290TIP3    H1 9834   5.561   5.893   4.679 -0.5953  0.6768  0.4644
 3290TIP3    H2 9835   5.562   5.899   4.831 -1.5932  1.7293  0.4460
 3291TIP3   OH2 9836   1.574   1.082   3.879 -0.2727  0.8591 -0.0973
 3291TIP3    H1 9837   1.580   1.054   3.788  1.6502 -1.9484  0.7393
 3291TIP3    H2 9838   1.499   1.035   3.914 -0.6397  1.4539 -0.0735
 3292TIP3   OH2 9839   2.048   2.000   4.232 -0.2772  0.4823  0.0233
 3292TIP3    H1 9840   2.027   2.065   4.299 -1.9804  0.2563 -0.2567
 3292TIP3    H2 9841   2.052   2.049   4.150 -2.6604  0.1571 -0.3661
 3293TIP3   OH2 9842   1.842   3.071   5.595  0.6529  0.6542  0.3852
 3293TIP3    H1 9843   1.791   3.141   5.555  1.1112  0.0926 -1.2505
 3293TIP3    H2 9844   1.898   3.038   5.524  0.2526 -1.5552  1.0124
 3294TIP3   OH2 9845   2.865   5.558   5.456  0.1969 -0.4109  0.3313
 3294TIP3    H1 9846   2.886   5.567   5.363 -0.2842 -0.2777  0.2298
 3294TIP3    H2 9847   2.831   5.469   5.464  1.0668 -0.7359  0.5519
 3295TIP3   OH2 9848   2.925   0.571   4.023  0.6806 -0.5804  0.4856
 3295TIP3    H1 9849   2.903   0.620   3.943 -0.3056 -2.3740 -0.4105
 3295TIP3    H2 9850   3.020   0.571   4.026  0.7134  0.5818  0.0132
 3296TIP3   OH2 9851   0.046   0.606   3.339  0.0712 -0.5531 -0.0691
 3296TIP3    H1 9852  -0.017   0.551   3.386  0.9928 -0.2319  1.6006
 3296TIP3    H2 9853   0.130   0.585   3.378  0.9751 -0.6326 -1.9552
 3297TIP3   OH2 9854   3.975   3.786   4.711 -0.0057 -0.1399  0.3881
 3297TIP3    H1 9855   4.004   3.736   4.634 -1.8128 -1.1928  0.3333
 3297TIP3    H2 9856   3.908   3.732   4.751  0.3581  0.7390  2.3185
 3298TIP3   OH2 9857   3.286   5.564   0.235 -0.1725 -0.7551  0.0590
 3298TIP3    H1 9858   3.255   5.650   0.207 -0.7594 -0.7521  0.6768
 3298TIP3    H2 9859   3.381   5.576   0.248 -0.1422 -0.3780 -0.4605
 3299TIP3   OH2 9860   5.314   6.063   5.640 -0.3867  0.2205  0.1931
 3299TIP3    H1 9861   5.228   6.040   5.608  0.0957  0.5341 -1.4133
 3299TIP3    H2 9862   5.362   5.980   5.646 -0.9021 -0.0092  1.5124
 3300TIP3   OH2 9863   7.156   1.891   3.537 -0.8094 -0.0310  0.4263
 3300TIP3    H1 9864   7.170   1.929   3.624 -1.7678  0.5359  0.3438
 3300TIP3    H2 9865   7.232   1.834   3.523  0.9225  2.1722  0.3578
 3301TIP3   OH2 9866   3.802   1.802   3.198  0.5263 -0.5168  0.4249
 3301TIP3    H1 9867   3.838   1.847   3.122  1.3177 -0.7069  0.6717
 3301TIP3    H2 9868   3.715   1.775   3.172 -0.1412  1.4913  0.3881
 3302TIP3   OH2 9869   4.617   6.773   0.280  0.1604  0.4924 -0.3955
 3302TIP3    H1 9870   4.632   6.844   0.217 -0.2872  1.9004  1.0388
 3302TIP3    H2 9871   4.522   6.774   0.295 -0.3379 -2.3766 -2.5355
 3303TIP3   OH2 9872   4.269   5.110   0.331 -0.0077  0.5467  0.0126
 3303TIP3    H1 9873   4.218   5.173   0.382  0.5485 -0.8916  2.5071
 3303TIP3    H2 9874   4.208   5.039   0.311  0.1473  0.4205 -0.0156
 3304TIP3   OH2 9875   3.697   5.500   1.215 -0.1023 -0.0597  0.0072
 3304TIP3    H1 9876   3.664   5.411   1.204  1.0785 -0.4286 -0.6843
 3304TIP3    H2 9877   3.706   5.533   1.126  2.6145 -0.4590  0.0526
 3305TIP3   OH2 9878   1.963   0.656   2.406 -0.1623  0.0041  0.6627
 3305TIP3    H1 9879   1.904   0.721   2.368 -0.1082 -1.0566 -1.3516
 3305TIP3    H2 9880   2.004   0.701   2.480  0.1119  2.3927 -0.8455
 3306TIP3   OH2 9881   2.683   1.290   0.747 -0.2175  0.1703  0.1722
 3306TIP3    H1 9882   2.698   1.343   0.669  0.4932  1.6219  1.2426
 3306TIP3    H2 9883   2.763   1.239   0.758  0.3226  1.1086  0.7715
 3307TIP3   OH2 9884   3.220   4.824   0.379 -0.4202 -0.1987 -0.1216
 3307TIP3    H1 9885   3.239   4.880   0.454 -1.6838 -0.5096  0.4553
 3307TIP3    H2 9886   3.188   4.885   0.312 -0.3162 -0.0439 -0.0307
 3308TIP3   OH2 9887   0.488   2.310   3.377 -0.3040  0.1764 -0.6102
 3308TIP3    H1 9888   0.535   2.227   3.386  1.9631  1.4674 -0.0474
 3308TIP3    H2 9889   0.431   2.313   3.454 -0.7823 -1.0275 -0.8785
 3309TIP3   OH2 9890   6.969   0.060   4.193  0.0393 -0.2341  0.2223
 3309TIP3    H1 9891   6.972   0.155   4.210  2.8976 -0.0722 -0.5308
 3309TIP3    H2 9892   7.024   0.022   4.262  1.6444 -0.9069 -1.3346
 3310TIP3   OH2 9893   0.669   2.883   2.917 -0.0773  0.1966 -0.6820
 3310TIP3    H1 9894   0.592   2.909   2.867  0.3253  1.7038 -0.5881
 3310TIP3    H2 9895   0.707   2.966   2.947  1.5289 -0.5001 -0.6661
 3311TIP3   OH2 9896   2.102   0.649   3.221 -0.2029 -0.2322 -0.1525
 3311TIP3    H1 9897   2.189   0.614   3.203  1.1461  1.2617  2.7699
 3311TIP3    H2 9898   2.049   0.571   3.241  0.7580 -1.0712 -0.7800
 3312TIP3   OH2 9899   1.620   4.593   0.540  0.0628 -0.5022  0.6455
 3312TIP3    H1 9900   1.691   4.655   0.522  0.4502 -1.1565 -0.1359
 3312TIP3    H2 9901   1.665   4.512   0.562 -0.4331 -1.2254 -0.9021
 3313TIP3   OH2 9902   1.856   3.409   4.595 -0.3605  0.5759  0.2512
 3313TIP3    H1 9903   1.779   3.405   4.538 -0.1211 -1.1825  0.0049
 3313TIP3    H2 9904   1.879   3.318   4.612  0.0130  1.0264  2.6037
 3314TIP3   OH2 9905   1.954   0.497   1.117  0.0249  0.4311 -0.1589
 3314TIP3    H1 9906   2.026   0.560   1.112 -0.8237  1.2931 -2.1609
 3314TIP3    H2 9907   1.936   0.474   1.027 -1.1042 -1.0982  0.4196
 3315TIP3   OH2 9908   6.296   3.591   3.342  0.6425  0.1065  0.0741
 3315TIP3    H1 9909   6.343   3.564   3.421  3.0830  1.1396 -0.9136
 3315TIP3    H2 9910   6.347   3.665   3.309 -3.4895  3.6097  0.6057
 3316TIP3   OH2 9911   6.414   1.371   4.151 -0.2914  0.0080  0.0382
 3316TIP3    H1 9912   6.353   1.325   4.209  0.6911  1.5029  2.4444
 3316TIP3    H2 9913   6.500   1.352   4.188  0.6120 -0.6448 -2.2402
 3317TIP3   OH2 9914   1.391   1.595   5.131 -0.3977 -0.5650 -0.0319
 3317TIP3    H1 9915   1.460   1.657   5.154 -0.0564 -0.6442 -0.8158
 3317TIP3    H2 9916   1.396   1.588   5.035 -1.9831  0.0207 -0.1980
 3318TIP3   OH2 9917   4.650   5.233   4.638 -0.1509 -0.1526  0.1421
 3318TIP3    H1 9918   4.689   5.184   4.710  0.5171  1.6131  1.0497
 3318TIP3    H2 9919   4.723   5.252   4.579 -0.5118 -0.7325 -0.5045
 3319TIP3   OH2 9920   6.510   0.433   0.103 -0.1168 -0.1258  0.2116
 3319TIP3    H1 9921   6.511   0.525   0.079  1.2046 -0.0139  0.6048
 3319TIP3    H2 9922   6.555   0.429   0.187  1.3854 -1.3018 -0.5829
 3320TIP3   OH2 9923   2.767   3.226   3.659 -1.0958 -0.1072 -0.3906
 3320TIP3    H1 9924   2.733   3.310   3.627 -0.8335  0.1145 -0.0865
 3320TIP3    H2 9925   2.774   3.172   3.580  0.4168  0.7333 -0.8718
 3321TIP3   OH2 9926   0.998   6.461   1.191 -0.3923 -0.1180 -0.7946
 3321TIP3    H1 9927   0.924   6.435   1.136 -0.8978 -0.8716  0.1982
 3321TIP3    H2 9928   1.066   6.488   1.130 -0.5572 -1.9328 -1.8504
 3322TIP3   OH2 9929   6.701   4.368   1.644  0.0618  0.1883 -0.0368
 3322TIP3    H1 9930   6.749   4.422   1.706  2.1305 -0.0165 -1.3770
 3322TIP3    H2 9931   6.627   4.422   1.617  0.6410  1.3134  0.5879
 3323TIP3   OH2 9932   6.709   6.516   1.873 -0.0856 -0.0703  0.4762
 3323TIP3    H1 9933   6.675   6.459   1.941 -0.9978  1.2742  1.1769
 3323TIP3    H2 9934   6.748   6.456   1.809  0.0884 -1.3971  1.7772
 3324TIP3   OH2 9935   6.725   0.871   0.660 -0.0808  0.1128  0.0005
 3324TIP3    H1 9936   6.674   0.947   0.632  0.2520  0.0196 -0.9042
 3324TIP3    H2 9937   6.803   0.909   0.701  0.2181  0.2741 -0.6984
 3325TIP3   OH2 9938   4.193   1.903   3.822  0.0315  0.2890  0.6990
 3325TIP3    H1 9939   4.288   1.890   3.817  0.1944  1.5269  0.2848
 3325TIP3    H2 9940   4.157   1.839   3.760  0.5685 -0.3833  1.0687
 3326TIP3   OH2 9941   5.589   5.886   3.863 -0.5502 -0.3355 -0.4402
 3326TIP3    H1 9942   5.542   5.910   3.943 -1.7618 -3.8183  0.0750
 3326TIP3    H2 9943   5.681   5.907   3.881 -1.1440  1.3580  0.7843
 3327TIP3   OH2 9944   6.080   5.564   2.845  0.2839 -0.0478 -0.5668
 3327TIP3    H1 9945   6.135   5.491   2.872  0.0003  0.4514  1.5860
 3327TIP3    H2 9946   6.002   5.557   2.901 -0.9249  0.4266 -2.1247
 3328TIP3   OH2 9947   0.292   5.398   0.139 -0.3337 -0.2511  0.4218
 3328TIP3    H1 9948   0.289   5.316   0.190 -1.6515  0.2522  1.2057
 3328TIP3    H2 9949   0.379   5.433   0.157  0.2931 -1.5252 -0.0080
 3329TIP3   OH2 9950   0.858   2.880   5.836 -0.6136  0.1795  0.0364
 3329TIP3    H1 9951   0.880   2.906   5.747 -2.0157  0.5552 -0.2281
 3329TIP3    H2 9952   0.810   2.955   5.872 -0.5526 -0.1860  0.9185
 3330TIP3   OH2 9953   4.808   5.701   0.206  0.1611 -0.2046 -0.5283
 3330TIP3    H1 9954   4.753   5.644   0.152 -0.3350  0.8142 -1.1317
 3330TIP3    H2 9955   4.896   5.665   0.195 -0.4084 -2.1726  0.8723
 3331TIP3   OH2 9956   5.098   6.461   0.974  0.4771 -0.7064 -0.5576
 3331TIP3    H1 9957   5.042   6.489   0.902 -0.9143 -1.9511 -0.0123
 3331TIP3    H2 9958   5.171   6.523   0.973 -1.0724  1.2269 -1.0571
 3332TIP3   OH2 9959   6.602   1.627   0.269  0.1296 -0.0476  0.2365
 3332TIP3    H1 9960   6.536   1.620   0.200  0.2015  0.7184  0.0795
 3332TIP3    H2 9961   6.563   1.584   0.345  0.0382 -0.8729 -0.2686
 3333TIP3   OH2 9962   3.619   2.467   1.825 -0.4525  0.2973  0.6465
 3333TIP3    H1 9963   3.571   2.483   1.743  0.7304 -0.3840 -0.2108
 3333TIP3    H2 9964   3.562   2.410   1.876  0.7759 -3.5239 -1.8388
 3334TIP3   OH2 9965   6.232   0.652   3.563  0.2225  0.8740  0.1594
 3334TIP3    H1 9966   6.264   0.675   3.476  0.3847  0.1490  0.0267
 3334TIP3    H2 9967   6.151   0.604   3.547  1.9253 -2.2059  0.2259
 3335TIP3   OH2 9968   2.963   2.857   0.917  0.0137 -0.6319  0.7215
 3335TIP3    H1 9969   3.054   2.874   0.939  0.1072  0.0355 -0.1660
 3335TIP3    H2 9970   2.929   2.942   0.889 -0.0232 -1.4803 -1.9927
 3336TIP3   OH2 9971   3.070   3.173   2.161 -0.1634  0.0737  0.2002
 3336TIP3    H1 9972   2.980   3.144   2.143 -0.0108 -1.6643  1.9417
 3336TIP3    H2 9973   3.068   3.199   2.253  1.7754 -3.0598  1.2786
 3337TIP3   OH2 9974   4.663   2.350   5.571 -0.6625  0.4402  0.0390
 3337TIP3    H1 9975   4.645   2.319   5.483  0.2758  0.0250 -0.0215
 3337TIP3    H2 9976   4.736   2.411   5.560  2.6111 -2.9730  0.9716
 3338TIP3   OH2 9977   4.912   2.627   1.004  0.5215  0.6601 -0.3614
 3338TIP3    H1 9978   4.970   2.643   1.079 -0.5873 -0.1746  0.7028
 3338TIP3    H2 9979   4.867   2.711   0.990  0.0425  0.5605  0.5227
 3339TIP3   OH2 9980   0.461   4.011   4.146  0.0040 -0.1643 -0.2111
 3339TIP3    H1 9981   0.499   3.957   4.076  0.8786  0.5290 -0.2819
 3339TIP3    H2 9982   0.376   3.970   4.163  0.5818 -1.4914 -0.3523
 3340TIP3   OH2 9983   6.429   5.644   2.756  0.6685  0.1844  0.1676
 3340TIP3    H1 9984   6.393   5.579   2.694 -0.0417  0.8166 -0.1069
 3340TIP3    H2 9985   6.523   5.627   2.757  0.5530 -0.5249 -0.2860
 3341TIP3   OH2 9986   6.455   1.842   5.641 -0.6332  0.0651  0.1709
 3341TIP3    H1 9987   6.402   1.913   5.605 -1.3509  0.6791  2.2908
 3341TIP3    H2 9988   6.401   1.764   5.633 -0.6772  0.1412 -0.2905
 3342TIP3   OH2 9989   7.213   6.076   5.730 -0.4332 -0.3151  0.2980
 3342TIP3    H1 9990   7.305   6.096   5.710 -0.4461 -1.0349 -0.5245
 3342TIP3    H2 9991   7.163   6.129   5.667 -0.6202  0.5607  1.1553
 3343TIP3   OH2 9992   0.154   1.589   1.903  0.2259  0.1646  0.2157
 3343TIP3    H1 9993   0.079   1.591   1.843  0.7406  2.3694 -0.4378
 3343TIP3    H2 9994   0.129   1.526   1.971 -1.0045 -1.2908 -1.4873
 3344TIP3   OH2 9995   6.593   5.187   1.692 -0.3987  0.1832 -0.0593
 3344TIP3    H1 9996   6.520   5.166   1.633 -0.6214  1.1740 -0.1558
 3344TIP3    H2 9997   6.553   5.239   1.762  0.4008  1.9305 -0.8181
 3345TIP3   OH2 9998   5.596   6.250   4.056 -0.4985 -0.1331  0.0605
 3345TIP3    H1 9999   5.684   6.278   4.081 -0.0815 -0.4501 -0.9968
 3345TIP3    H210000   5.594   6.259   3.961 -1.4611 -0.5714  0.0252
 3346TIP3   OH210001   2.369   1.436   3.755 -0.4284 -0.4988 -0.3760
 3346TIP3    H110002   2.388   1.451   3.847 -2.7825 -0.4414  0.1774
 3346TIP3    H210003   2.392   1.519   3.712 -0.4181 -0.1120  0.3602
 3347TIP3   OH210004   0.637   5.540   0.966  0.0820  0.0342 -0.0564
 3347TIP3    H110005   0.599   5.484   1.035  0.9098 -0.2888  0.1469
 3347TIP3    H210006   0.731   5.525   0.973  0.0957 -1.5569 -2.5605
 3348TIP3   OH210007   1.515   6.466   5.085  0.1260 -0.2347 -0.2365
 3348TIP3    H110008   1.533   6.485   4.993 -1.5466 -0.8793 -0.7213
 3348TIP3    H210009   1.423   6.487   5.097  0.5808  0.9967  1.6236
 3349TIP3   OH210010   5.846   3.702   1.772  0.4639  0.0199 -0.1563
 3349TIP3    H110011   5.812   3.711   1.861 -1.0361  1.5666 -0.8360
 3349TIP3    H210012   5.935   3.738   1.777  0.0335  1.0384  0.5249
 3350TIP3   OH210013   2.294   4.588   5.812  0.3457 -0.6866 -0.0181
 3350TIP3    H110014   2.236   4.564   5.884  0.0406  1.8158  0.6482
 3350TIP3    H210015   2.366   4.525   5.818 -0.4059 -1.4629  1.5110
 3351TIP3   OH210016   5.726   1.727   0.249  0.4993 -0.5371  0.2318
 3351TIP3    H110017   5.682   1.646   0.274  0.2400 -0.6042 -0.4145
 3351TIP3    H210018   5.816   1.716   0.279  0.2588 -0.7020  0.9155
 3352TIP3   OH210019   1.947   1.213   0.521 -0.0221  0.2222 -0.1930
 3352TIP3    H110020   1.946   1.204   0.426  1.8299  0.4108 -0.2734
 3352TIP3    H210021   1.936   1.124   0.554  1.8230 -0.2337 -0.6688
 3353TIP3   OH210022   7.165   1.795   3.285 -0.1168 -0.3243  0.6009
 3353TIP3    H110023   7.163   1.860   3.355  1.1676 -0.0107  0.3889
 3353TIP3    H210024   7.191   1.845   3.207  2.4318 -1.2683  0.7452
 3354TIP3   OH210025   2.999   3.415   5.239  0.1252  0.1772  0.3449
 3354TIP3    H110026   3.000   3.438   5.146 -1.5998  1.5968  0.6269
 3354TIP3    H210027   2.930   3.350   5.248 -0.1706  0.5423  0.7405
 3355TIP3   OH210028   4.167   4.058   2.749  0.3761  0.7341 -0.0806
 3355TIP3    H110029   4.257   4.062   2.715  0.2129  2.9617 -0.4133
 3355TIP3    H210030   4.135   4.148   2.742 -1.2263  0.3827  1.8734
 3356TIP3   OH210031   6.285   6.681   4.524  0.4775  0.2080 -0.7959
 3356TIP3    H110032   6.203   6.663   4.478  0.4369 -0.7218 -0.3652
 3356TIP3    H210033   6.262   6.744   4.592 -0.4068 -1.8356  0.9022
 3357TIP3   OH210034   4.002   4.429   0.389  0.3712 -0.2796  0.2309
 3357TIP3    H110035   4.077   4.416   0.331 -0.4887  0.5159 -1.0765
 3357TIP3    H210036   3.930   4.383   0.347 -0.0615 -0.4679  1.1416
 3358TIP3   OH210037   6.291   0.498   5.126  0.0434  0.0465 -0.4046
 3358TIP3    H110038   6.232   0.494   5.051 -0.4613 -1.2335  0.0306
 3358TIP3    H210039   6.368   0.450   5.098  0.2267  0.3466 -0.4160
 3359TIP3   OH210040   7.223   0.713   4.100 -0.4999  0.2518 -0.3489
 3359TIP3    H110041   7.215   0.663   4.018 -0.0366  0.1358 -0.3283
 3359TIP3    H210042   7.165   0.788   4.088 -1.3698 -0.3925 -0.2965
 3360TIP3   OH210043   4.895   4.756   0.209  0.5092  0.6553 -0.6854
 3360TIP3    H110044   4.922   4.837   0.252 -0.0694  0.1504  0.7181
 3360TIP3    H210045   4.857   4.784   0.126  2.4781  1.6021 -1.3171
 3361TIP3   OH210046   0.669   0.035   5.159 -0.0052 -0.1381 -0.1044
 3361TIP3    H110047   0.732   0.086   5.108  0.5226 -0.3073  0.3645
 3361TIP3    H210048   0.612   0.101   5.198  0.3879  0.0752  0.1207
 3362TIP3   OH210049   5.477   6.578   5.284 -0.7287  0.0283 -0.4089
 3362TIP3    H110050   5.476   6.659   5.233  1.6302  0.6523  0.4382
 3362TIP3    H210051   5.416   6.595   5.356 -0.9371  0.6954 -0.7315
 3363TIP3   OH210052   5.466   3.962   2.975  0.7113 -0.2165  0.1378
 3363TIP3    H110053   5.447   3.891   3.035 -0.1893  0.1902  0.3537
 3363TIP3    H210054   5.501   3.919   2.897 -0.1097 -0.9367  0.1433
 3364TIP3   OH210055   6.138   1.013   5.313  0.5960  0.2524 -0.1526
 3364TIP3    H110056   6.218   1.065   5.323  0.0434  0.9073  1.2606
 3364TIP3    H210057   6.068   1.074   5.336 -0.1976 -0.6864 -0.0373
 3365TIP3   OH210058   5.693   4.272   3.222  0.5725  0.4373 -0.4383
 3365TIP3    H110059   5.724   4.334   3.288 -3.8286  2.1618  0.3472
 3365TIP3    H210060   5.688   4.189   3.268  0.2509  0.9970  0.5631
 3366TIP3   OH210061   0.086   0.695   5.195  0.1811 -0.2613 -0.0105
 3366TIP3    H110062   0.141   0.673   5.120 -1.6578 -1.2204 -1.1419
 3366TIP3    H210063   0.054   0.783   5.177  0.8585  0.0719  0.3712
 3367TIP3   OH210064   1.803   3.967   0.391 -0.5979 -0.1123 -0.1130
 3367TIP3    H110065   1.818   4.060   0.404 -0.5493 -0.1467  0.0865
 3367TIP3    H210066   1.890   3.928   0.391 -0.6518 -0.2554  0.6028
 3368TIP3   OH210067   1.500   1.984   1.432  0.4699  0.5293 -0.4697
 3368TIP3    H110068   1.520   2.073   1.463 -2.2196  0.0958  3.1308
 3368TIP3    H210069   1.424   1.995   1.375  0.1003  0.5669  0.0230
 3369TIP3   OH210070   2.845   1.849   0.688 -0.4545  0.1187 -0.3212
 3369TIP3    H110071   2.908   1.832   0.618 -0.7634  0.3780 -0.6653
 3369TIP3    H210072   2.769   1.886   0.644 -1.4754 -1.6111 -0.1122
 3370TIP3   OH210073   5.718   0.078   3.223  0.1422  0.1720  0.2433
 3370TIP3    H110074   5.651   0.112   3.282 -0.6038  0.3233 -0.6488
 3370TIP3    H210075   5.754   0.156   3.180 -1.1504 -0.0411 -1.3640
 3371TIP3   OH210076   4.020   4.736   4.098  0.3157 -0.2132 -0.0223
 3371TIP3    H110077   4.053   4.647   4.112 -0.1934 -0.7283 -1.7470
 3371TIP3    H210078   4.034   4.781   4.181  0.0325 -2.0798  1.0795
 3372TIP3   OH210079   4.233   4.203   0.524 -0.3464 -0.4882 -0.1735
 3372TIP3    H110080   4.206   4.288   0.488  2.7857 -0.6582 -3.4851
 3372TIP3    H210081   4.172   4.140   0.485 -2.7501  0.0496  2.3774
 3373TIP3   OH210082   2.895   2.221   5.361 -0.4156 -0.1432  0.0789
 3373TIP3    H110083   2.907   2.246   5.453  2.8831 -1.6722  0.2163
 3373TIP3    H210084   2.840   2.290   5.325 -0.4341  1.4387  2.8099
 3374TIP3   OH210085   2.406   1.626   0.586  0.2228  0.2485  0.6231
 3374TIP3    H110086   2.396   1.601   0.494 -1.4004  3.5624 -0.2428
 3374TIP3    H210087   2.482   1.576   0.615 -0.4890 -2.6116 -1.8110
 3375TIP3   OH210088   6.282   0.961   1.996  0.5314  0.5356  0.3368
 3375TIP3    H110089   6.342   1.028   1.963  0.0864  0.7136 -0.1313
 3375TIP3    H210090   6.273   0.899   1.924  0.4538  0.3029  0.5442
 3376TIP3   OH210091   5.188   2.816   0.441  0.6263  0.2058 -0.0628
 3376TIP3    H110092   5.163   2.729   0.412 -0.5707  0.6432 -0.4188
 3376TIP3    H210093   5.263   2.840   0.386 -0.4623  0.2875 -1.5646
 3377TIP3   OH210094   6.927   6.317   2.032 -0.3775 -0.1682 -0.3988
 3377TIP3    H110095   6.959   6.245   2.087  0.2454  0.5999  0.2753
 3377TIP3    H210096   6.904   6.386   2.094 -0.9967  0.2105 -1.0351
 3378TIP3   OH210097   0.471   0.358   4.906 -0.6825  0.5649 -0.3936
 3378TIP3    H110098   0.547   0.330   4.856 -0.0528  1.6043 -0.0538
 3378TIP3    H210099   0.433   0.430   4.854 -2.8510 -1.4328 -1.7685
 3379TIP3   OH210100   4.516   0.277   3.533  0.1199  0.3046  0.0718
 3379TIP3    H110101   4.501   0.195   3.579  0.6001  0.3882  0.3957
 3379TIP3    H210102   4.579   0.324   3.589  1.6822 -0.1095 -1.2475
 3380TIP3   OH210103   6.687   2.720   2.180  0.0110 -0.4184 -0.3211
 3380TIP3    H110104   6.602   2.683   2.205  0.0052  0.4670  1.1222
 3380TIP3    H210105   6.751   2.671   2.231 -0.0370  1.7173  1.9880
 3381TIP3   OH210106   5.803   2.563   0.482 -0.5178 -0.3413 -0.0705
 3381TIP3    H110107   5.770   2.503   0.416 -1.3456  0.5446 -0.4970
 3381TIP3    H210108   5.810   2.647   0.436 -0.5935  0.1684  0.8205
 3382TIP3   OH210109   2.937   3.774   3.665  0.4147  0.0971  0.0437
 3382TIP3    H110110   2.980   3.766   3.580  2.4095 -1.1219  1.0823
 3382TIP3    H210111   2.858   3.825   3.647  1.2778  0.7577 -2.3412
 3383TIP3   OH210112   3.363   0.288   5.277  0.2172 -0.1382 -0.6587
 3383TIP3    H110113   3.277   0.330   5.270  0.2544  0.5786  2.0696
 3383TIP3    H210114   3.424   0.361   5.291  0.9763 -0.7689 -0.6314
 3384TIP3   OH210115   0.064   5.090   0.145 -0.1619  0.3995  0.0556
 3384TIP3    H110116   0.150   5.064   0.179  1.5536  2.7418 -2.1695
 3384TIP3    H210117   0.038   5.017   0.088  0.4372 -0.2166  0.5505
 3385TIP3   OH210118   3.589   1.689   2.187 -0.1565  0.3623  0.2670
 3385TIP3    H110119   3.663   1.692   2.126  0.4091  0.3407  0.9292
 3385TIP3    H210120   3.601   1.765   2.244 -0.1640 -0.0956  0.9055
 3386TIP3   OH210121   6.665   2.548   1.745 -0.1852  0.3675 -0.4989
 3386TIP3    H110122   6.750   2.522   1.712  0.0301 -1.0347  1.0331
 3386TIP3    H210123   6.684   2.608   1.817 -0.5032  0.2862 -0.3428
 3387TIP3   OH210124   3.194   2.012   3.665  0.4855  0.2134  0.4818
 3387TIP3    H110125   3.178   1.919   3.674  0.0178  0.3321  0.8746
 3387TIP3    H210126   3.180   2.048   3.752 -0.0598  0.7597  0.1746
 3388TIP3   OH210127   5.934   1.219   1.850  0.0393  0.1487  0.1869
 3388TIP3    H110128   5.858   1.252   1.801 -1.6452 -0.1410  2.4353
 3388TIP3    H210129   5.974   1.297   1.888  0.0533  0.1799  0.1084
 3389TIP3   OH210130   4.979   1.117   3.514  0.5177 -0.2532  0.5928
 3389TIP3    H110131   4.950   1.026   3.508  0.8578 -0.4677  1.9726
 3389TIP3    H210132   5.037   1.129   3.439 -0.2372 -0.8996 -0.1095
 3390TIP3   OH210133   1.297   6.348   0.989  0.1294  0.1710  0.5575
 3390TIP3    H110134   1.233   6.381   0.926 -0.6011 -0.6842  0.8484
 3390TIP3    H210135   1.368   6.312   0.934 -0.8335 -1.2383  0.1821
 3391TIP3   OH210136   4.638   2.118   0.270  0.2579 -0.2672 -0.0690
 3391TIP3    H110137   4.706   2.089   0.208 -0.6593 -1.2199 -0.6475
 3391TIP3    H210138   4.622   2.209   0.246 -0.6463 -0.8443 -1.7944
 3392TIP3   OH210139   2.830   5.615   3.818  0.2169  0.0046  0.8519
 3392TIP3    H110140   2.913   5.570   3.805 -0.1739 -1.1251  2.0058
 3392TIP3    H210141   2.765   5.558   3.775  0.0418  0.9814 -0.2294
 3393TIP3   OH210142   5.124   1.959   2.536  0.2710  0.0903 -0.9044
 3393TIP3    H110143   5.036   1.953   2.574 -0.0144 -0.0779 -1.5721
 3393TIP3    H210144   5.125   2.044   2.493 -0.1660 -0.5758 -2.3115
 3394TIP3   OH210145   3.060   4.042   4.560 -0.7148 -0.4250  0.2763
 3394TIP3    H110146   3.005   3.966   4.581 -0.2015 -0.9335 -0.1997
 3394TIP3    H210147   3.038   4.063   4.469  0.9621 -1.5875 -0.4416
 3395TIP3   OH210148   3.100   3.404   5.687  0.1907 -0.0751 -0.0949
 3395TIP3    H110149   3.049   3.324   5.693  0.0176  0.0933  0.6524
 3395TIP3    H210150   3.070   3.459   5.759  1.6966 -0.1399  0.6179
 3396TIP3   OH210151   1.782   6.267   3.189 -0.2935 -0.0323 -0.2816
 3396TIP3    H110152   1.857   6.277   3.131 -0.2435 -0.4413 -0.2903
 3396TIP3    H210153   1.752   6.356   3.206 -0.2077  0.0954 -0.8048
 3397TIP3   OH210154   6.428   1.262   3.894  0.3202  0.2687 -0.2207
 3397TIP3    H110155   6.438   1.302   3.981 -0.4133  1.5104 -0.6928
 3397TIP3    H210156   6.413   1.169   3.913  0.0956  0.5269  0.9841
 3398TIP3   OH210157   6.324   0.359   1.949  0.0598 -0.1350  0.1125
 3398TIP3    H110158   6.306   0.399   2.033  1.0095  1.4129 -0.3800
 3398TIP3    H210159   6.396   0.410   1.912  0.4911 -1.5273 -1.1194
 3399TIP3   OH210160   1.161   3.790   0.157 -0.0762  0.4642  0.2830
 3399TIP3    H110161   1.152   3.758   0.247 -0.5326  0.3821  0.2068
 3399TIP3    H210162   1.073   3.817   0.132  0.1827  1.1786  0.1171
 3400TIP3   OH210163   5.321   6.441   4.972 -0.0313 -0.0886  0.0385
 3400TIP3    H110164   5.413   6.418   4.981  0.0025 -0.0315 -0.1738
 3400TIP3    H210165   5.319   6.536   4.969  0.0452 -0.1179 -1.5277
 3401TIP3   OH210166   0.070   5.161   5.469  0.1417  0.3641  0.6846
 3401TIP3    H110167  -0.023   5.173   5.489  0.1466  3.2825 -0.5367
 3401TIP3    H210168   0.108   5.248   5.477  1.9676  0.0170 -2.4924
 3402TIP3   OH210169   3.193   0.546   2.614  0.5571  0.0366 -0.1232
 3402TIP3    H110170   3.133   0.564   2.542 -0.0336  0.3583  0.4390
 3402TIP3    H210171   3.143   0.570   2.693  1.5070  0.5342  0.3382
 3403TIP3   OH210172   5.928   3.797   0.123  0.2722 -0.0655  0.2386
 3403TIP3    H110173   5.931   3.755   0.037  0.4837  1.2124 -0.4049
 3403TIP3    H210174   5.863   3.866   0.114 -0.4355 -0.5373  1.4249
 3404TIP3   OH210175   1.199   0.395   5.021 -0.1035 -0.5195  0.1814
 3404TIP3    H110176   1.289   0.380   5.047 -0.3785  0.4781  1.8983
 3404TIP3    H210177   1.166   0.309   4.996  1.2553 -0.9216 -0.3190
 3405TIP3   OH210178   2.491   4.622   1.221 -0.9103 -0.0298 -0.3244
 3405TIP3    H110179   2.564   4.669   1.180 -1.5055 -0.4829 -2.0166
 3405TIP3    H210180   2.449   4.688   1.277 -0.0318  0.6282 -0.4149
 3406TIP3   OH210181   4.112   6.519   2.067 -0.0491 -0.1734 -0.3019
 3406TIP3    H110182   4.198   6.485   2.043  0.4683 -0.5135  1.7642
 3406TIP3    H210183   4.124   6.613   2.074  0.5055 -0.3133  1.0541
 3407TIP3   OH210184   0.283   0.151   3.805  0.3864 -0.5415  0.1836
 3407TIP3    H110185   0.201   0.102   3.815  0.8448 -1.1589  0.9955
 3407TIP3    H210186   0.309   0.174   3.894 -0.5784  2.5292 -0.2126
 3408TIP3   OH210187   3.689   2.356   3.676  0.0400  0.3919 -0.6903
 3408TIP3    H110188   3.677   2.266   3.704  1.1325  0.5362  0.2871
 3408TIP3    H210189   3.656   2.409   3.748 -1.9313  0.8149 -1.8409
 3409TIP3   OH210190   5.850   3.253   3.771  0.0542 -0.3288  0.8693
 3409TIP3    H110191   5.897   3.320   3.821 -1.0985  0.9539  0.2910
 3409TIP3    H210192   5.759   3.283   3.771 -0.0889 -0.5788 -1.4634
 3410TIP3   OH210193   1.399   6.491   1.598  0.1934 -0.1368 -0.3167
 3410TIP3    H110194   1.332   6.436   1.558 -1.5121 -0.1501  2.3233
 3410TIP3    H210195   1.456   6.429   1.645 -0.5274  0.1417  0.9721
 3411TIP3   OH210196   2.005   4.063   3.028 -0.7069  0.1063 -0.2911
 3411TIP3    H110197   2.015   4.146   3.074 -0.0657  0.5972 -1.3024
 3411TIP3    H210198   1.997   4.087   2.936 -1.8084 -0.8722 -0.4750
 3412TIP3   OH210199   5.724   0.833   4.436 -0.1010  0.5802 -0.1207
 3412TIP3    H110200   5.811   0.804   4.463 -0.6731 -0.5379  0.5880
 3412TIP3    H210201   5.741   0.899   4.368  1.2694 -0.1797 -0.5560
 3413TIP3   OH210202   3.562   1.024   3.524  0.3333 -0.3672  0.2112
 3413TIP3    H110203   3.651   0.991   3.512  0.1212 -0.3312 -1.8643
 3413TIP3    H210204   3.574   1.113   3.556  1.1166  0.0480 -1.1522
 3414TIP3   OH210205   2.736   1.990   5.625  0.0286 -0.2291 -0.0715
 3414TIP3    H110206   2.649   2.014   5.593  0.1102  0.6983  0.3528
 3414TIP3    H210207   2.727   1.900   5.654 -1.1211  0.1983  1.0363
 3415TIP3   OH210208   6.271   2.420   2.208  0.1313  0.1287  0.3345
 3415TIP3    H110209   6.203   2.440   2.143  0.1822 -1.8205 -0.3770
 3415TIP3    H210210   6.296   2.329   2.190  2.8554  0.7186  0.6605
 3416TIP3   OH210211   1.409   2.906   3.976 -0.0008 -0.0825  0.5571
 3416TIP3    H110212   1.444   2.976   4.032 -2.8387  1.3392  0.7326
 3416TIP3    H210213   1.368   2.845   4.038 -1.4985  0.5265  0.2171
 3417TIP3   OH210214   4.475   6.237   2.799 -0.2810  0.0067 -0.0805
 3417TIP3    H110215   4.454   6.223   2.891  0.3283  1.1238  0.2494
 3417TIP3    H210216   4.390   6.253   2.757 -0.5734 -0.6401  0.2565
 3418TIP3   OH210217   4.368   3.766   2.200 -0.0658 -0.0179  0.1895
 3418TIP3    H110218   4.311   3.823   2.147  0.3778  0.6058  0.3773
 3418TIP3    H210219   4.354   3.679   2.164  0.5057  0.4454 -1.2358
 3419TIP3   OH210220   3.594   5.288   4.743  0.5051 -0.4275 -0.0137
 3419TIP3    H110221   3.650   5.294   4.666  0.4958  1.3247  0.0765
 3419TIP3    H210222   3.604   5.198   4.774  1.4460 -0.8000 -1.3457
 3420TIP3   OH210223   5.805   3.593   2.067 -0.3940  0.8050  0.3242
 3420TIP3    H110224   5.762   3.508   2.067  0.5732  0.2917  1.1565
 3420TIP3    H210225   5.897   3.573   2.087 -0.3634  2.1345  1.6848
 3421TIP3   OH210226   2.153   2.100   1.403  0.1491 -0.0708 -0.6059
 3421TIP3    H110227   2.089   2.098   1.474  1.9798  2.1701  1.2639
 3421TIP3    H210228   2.123   2.170   1.346  1.7653  2.2620  1.2572
 3422TIP3   OH210229   4.036   0.631   4.408 -0.3490  0.3432  0.3051
 3422TIP3    H110230   4.041   0.719   4.445 -3.3455  0.8864 -0.3327
 3422TIP3    H210231   4.087   0.636   4.327 -0.4486  1.4927  0.2982
 3423TIP3   OH210232   5.648   6.167   0.580 -0.1101 -0.1313 -0.2053
 3423TIP3    H110233   5.676   6.253   0.549  1.9315 -0.7644 -0.2782
 3423TIP3    H210234   5.630   6.117   0.501 -0.2190 -0.0993 -0.2004
 3424TIP3   OH210235   2.984   0.020   1.117 -0.1947 -0.1113  0.2642
 3424TIP3    H110236   2.902  -0.023   1.140 -0.2118  1.1920  3.0592
 3424TIP3    H210237   2.959   0.111   1.099  0.4390 -0.1105 -0.6605
 3425TIP3   OH210238   4.616   1.713   3.338  0.1927  0.2872 -0.6168
 3425TIP3    H110239   4.674   1.711   3.262  0.1474  0.9755 -0.6806
 3425TIP3    H210240   4.671   1.685   3.411  0.2038 -0.4949 -0.9138
 3426TIP3   OH210241   1.156   5.075   5.858 -0.2078 -0.6602  0.2032
 3426TIP3    H110242   1.115   5.155   5.892 -0.5679 -0.2133 -1.2031
 3426TIP3    H210243   1.088   5.035   5.803 -1.2169 -3.6454  3.2576
 3427TIP3   OH210244   2.302   6.315   1.811 -0.2163  0.3001 -0.4538
 3427TIP3    H110245   2.290   6.232   1.765  1.7804 -0.5658  0.4820
 3427TIP3    H210246   2.317   6.379   1.741 -0.6782 -0.3228 -1.1427
 3428TIP3   OH210247   4.913   3.607   1.330  0.6269 -0.1000  0.2920
 3428TIP3    H110248   4.882   3.620   1.420  0.2851  2.3060 -0.1095
 3428TIP3    H210249   4.984   3.670   1.320  0.4811 -0.1537 -1.2087
 3429TIP3   OH210250  -0.002   0.736   2.521 -0.1832 -0.3080 -0.1205
 3429TIP3    H110251  -0.027   0.690   2.440 -0.1028  1.3964 -1.1650
 3429TIP3    H210252   0.094   0.741   2.516 -0.3055  2.6238 -1.6465
 3430TIP3   OH210253   5.620   4.168   4.019  0.3435  0.0043  0.2822
 3430TIP3    H110254   5.528   4.149   4.037  0.4941 -1.6559 -0.5378
 3430TIP3    H210255   5.618   4.246   3.963 -0.6314 -0.6332 -0.5994
 3431TIP3   OH210256   3.193   6.442   1.411 -0.0567  0.0890 -0.3033
 3431TIP3    H110257   3.104   6.414   1.389 -0.6462  0.5338  1.4220
 3431TIP3    H210258   3.229   6.371   1.463  0.6164 -0.0900 -0.9961
 3432TIP3   OH210259   3.131   5.049   4.306  0.5437  0.1882  0.1950
 3432TIP3    H110260   3.037   5.062   4.312  0.4052 -0.9640  0.8010
 3432TIP3    H210261   3.168   5.138   4.309 -0.5731  0.7917 -2.0554
 3433TIP3   OH210262   0.762   2.231   4.985  0.3483  0.3478  0.4950
 3433TIP3    H110263   0.851   2.203   5.007  0.8774  1.7707  0.2963
 3433TIP3    H210264   0.728   2.160   4.931  0.9772 -0.6933  1.4088
 3434TIP3   OH210265   6.841   0.347   5.799 -0.0068  0.5522  0.0898
 3434TIP3    H110266   6.773   0.365   5.734  0.7887  1.0082 -0.6313
 3434TIP3    H210267   6.826   0.257   5.825  0.6814 -0.2396 -2.0092
 3435TIP3   OH210268   3.451   6.532   4.566 -0.0019  0.0202  0.0391
 3435TIP3    H110269   3.509   6.492   4.630 -1.0540 -0.2299  0.8625
 3435TIP3    H210270   3.471   6.488   4.484  0.5725 -0.4539  0.4282
 3436TIP3   OH210271   2.937   1.658   4.411 -0.1794  0.2956  0.7731
 3436TIP3    H110272   2.980   1.727   4.460  0.3238  2.3760 -2.3204
 3436TIP3    H210273   2.859   1.699   4.374 -1.5841 -1.7158  1.3254
 3437TIP3   OH210274   5.759   5.301   3.432 -0.1742  0.2989  0.4009
 3437TIP3    H110275   5.831   5.363   3.424 -0.3794  0.5563  0.5407
 3437TIP3    H210276   5.709   5.331   3.508 -1.7777  1.5112 -1.0678
 3438TIP3   OH210277   4.162   6.498   0.852 -0.6516 -0.4030 -0.4847
 3438TIP3    H110278   4.092   6.466   0.908 -1.1162 -0.6590 -1.2099
 3438TIP3    H210279   4.183   6.585   0.887 -1.0258 -0.5061  0.0000
 3439TIP3   OH210280   0.398   6.776   1.702  0.2630 -0.1184  0.4470
 3439TIP3    H110281   0.317   6.825   1.715 -0.1571 -0.7715  0.3148
 3439TIP3    H210282   0.436   6.770   1.790  1.0598  1.6627  0.2806
 3440TIP3   OH210283   4.723   2.995   4.355  0.0998  0.2553 -0.4773
 3440TIP3    H110284   4.692   2.914   4.395  0.6007  0.1381 -0.3199
 3440TIP3    H210285   4.666   3.008   4.279  1.7386 -1.7174 -2.1662
 3441TIP3   OH210286   4.506   3.597   0.191  0.2552 -0.0646 -0.2699
 3441TIP3    H110287   4.451   3.547   0.250 -0.1712 -0.4430 -0.9699
 3441TIP3    H210288   4.529   3.676   0.240  1.7620 -1.3593  1.2227
 3442TIP3   OH210289   0.780   4.137   1.173 -0.1274  0.4283  0.0165
 3442TIP3    H110290   0.793   4.093   1.089  0.9406 -0.7510  0.7568
 3442TIP3    H210291   0.852   4.199   1.179  1.6171 -1.5917  1.3131
 3443TIP3   OH210292   0.531   3.077   4.914  0.6295 -0.7695  0.0204
 3443TIP3    H110293   0.578   3.141   4.861  0.9610 -0.8060  0.2627
 3443TIP3    H210294   0.599   3.036   4.967  0.3161 -0.7893  0.4148
 3444TIP3   OH210295   0.760   1.627   2.663  0.5969  0.0779  0.5208
 3444TIP3    H110296   0.686   1.586   2.619  1.9597 -0.4121 -1.4321
 3444TIP3    H210297   0.721   1.700   2.711 -1.6467 -2.3633  2.7064
 3445TIP3   OH210298   2.617   0.653   1.372 -0.1033  0.0224 -0.1956
 3445TIP3    H110299   2.681   0.656   1.301  1.3245 -2.1668  0.8960
 3445TIP3    H210300   2.561   0.729   1.357  2.1530  1.4938 -1.7460
 3446TIP3   OH210301   0.956   0.593   2.288  0.0326 -0.2772  0.1227
 3446TIP3    H110302   0.972   0.633   2.203 -0.2535  0.0610  0.2282
 3446TIP3    H210303   0.937   0.501   2.268 -1.0377  0.0185 -0.2708
 3447TIP3   OH210304   1.880   0.667   5.123  0.1658 -0.4110 -0.3922
 3447TIP3    H110305   1.935   0.731   5.077  0.0350 -1.2868 -1.8311
 3447TIP3    H210306   1.828   0.626   5.054 -1.3609 -0.5388  0.7735
 3448TIP3   OH210307   3.149   0.048   5.785  0.0469 -0.1991 -0.2009
 3448TIP3    H110308   3.129   0.141   5.794 -0.5197 -0.3682  0.3480
 3448TIP3    H210309   3.223   0.033   5.843 -0.2108 -0.1981  0.1314
 3449TIP3   OH210310   4.406   5.577   0.058  0.0262 -0.4025  0.0154
 3449TIP3    H110311   4.414   5.568  -0.037  0.7618 -1.9860  0.1925
 3449TIP3    H210312   4.485   5.623   0.085  1.2144 -2.4242  0.1268
 3450TIP3   OH210313   3.353   0.333   2.542 -0.7279 -0.3666 -0.7620
 3450TIP3    H110314   3.343   0.242   2.570 -0.6655  0.0062  0.5341
 3450TIP3    H210315   3.281   0.380   2.583 -0.3100  0.3029 -0.7660
 3451TIP3   OH210316   0.268   4.870   1.764  0.4730 -0.3729  0.2849
 3451TIP3    H110317   0.328   4.891   1.836  1.8178 -0.0117 -0.8775
 3451TIP3    H210318   0.191   4.832   1.806  1.3689 -0.5059  1.8758
 3452TIP3   OH210319   3.686   1.540   5.190  0.0711 -0.2390 -0.0289
 3452TIP3    H110320   3.648   1.452   5.198 -0.4564 -0.0762 -0.6408
 3452TIP3    H210321   3.612   1.599   5.202  0.3147  0.1042 -0.2130
 3453TIP3   OH210322   4.471   1.640   0.768  0.2960  0.2701 -0.7545
 3453TIP3    H110323   4.463   1.668   0.859 -0.6143 -3.6362  0.5609
 3453TIP3    H210324   4.381   1.627   0.739  0.6423 -0.8969 -1.3371
 3454TIP3   OH210325   2.267   5.392   0.079  0.0762 -0.1341  0.6301
 3454TIP3    H110326   2.360   5.412   0.069 -0.1649  0.2062 -1.5100
 3454TIP3    H210327   2.243   5.428   0.165  1.7565  0.3956  0.9016
 3455TIP3   OH210328   3.500   0.295   0.864  1.1928 -0.4052 -0.0101
 3455TIP3    H110329   3.595   0.304   0.859  1.3537 -1.6616  0.5180
 3455TIP3    H210330   3.480   0.218   0.810  0.7052 -1.3235  1.4148
 3456TIP3   OH210331   2.227   3.149   5.326  0.3698 -0.3360  0.4967
 3456TIP3    H110332   2.199   3.223   5.380  1.1931  0.2696  0.1161
 3456TIP3    H210333   2.292   3.103   5.379  0.4142 -0.3457  0.4349
 3457TIP3   OH210334   6.982   2.845   0.713 -0.3692  0.0648 -0.2471
 3457TIP3    H110335   6.965   2.761   0.670  1.3625 -0.3630 -0.1864
 3457TIP3    H210336   6.982   2.824   0.806  1.2527 -0.1595 -0.2659
 3458TIP3   OH210337   0.043   1.561   0.863 -0.0798 -0.2955 -0.2958
 3458TIP3    H110338   0.083   1.488   0.816  0.8617  0.3437 -0.5088
 3458TIP3    H210339   0.117   1.610   0.900 -0.7642 -0.3874  1.2770
 3459TIP3   OH210340   1.750   0.493   4.189  0.7052 -0.3088  0.3691
 3459TIP3    H110341   1.806   0.499   4.111  1.0168  0.4127  0.6422
 3459TIP3    H210342   1.718   0.582   4.202 -6.0158 -1.4366 -3.7554
 3460TIP3   OH210343   3.593   1.587   0.295 -1.3407  0.4230 -0.5329
 3460TIP3    H110344   3.669   1.646   0.297 -0.9890 -0.0035 -1.0209
 3460TIP3    H210345   3.551   1.600   0.380 -1.7495  1.9862 -0.9275
 3461TIP3   OH210346   0.029   1.063   5.310 -0.2908  0.0923 -0.3159
 3461TIP3    H110347   0.114   1.054   5.352 -0.3628  0.2509 -0.1392
 3461TIP3    H210348  -0.033   1.026   5.372 -0.4771  0.9224  0.0071
 3462TIP3   OH210349   6.803   5.686   2.778 -0.0900  0.4616  0.2817
 3462TIP3    H110350   6.842   5.740   2.709 -0.1482 -1.4576 -1.3631
 3462TIP3    H210351   6.763   5.613   2.730 -1.1129 -0.3734  2.3052
 3463TIP3   OH210352   5.881   3.789   2.484  0.1318 -0.3363  0.3540
 3463TIP3    H110353   5.834   3.791   2.401  1.1629  1.0964 -0.2505
 3463TIP3    H210354   5.813   3.788   2.551 -0.7244 -0.6955 -0.5025
 3464TIP3   OH210355   0.376   4.300   4.191  0.1543 -0.1865  0.1986
 3464TIP3    H110356   0.462   4.332   4.218  1.4714 -2.5438 -0.9561
 3464TIP3    H210357   0.353   4.234   4.255 -0.5735  0.0414  0.1855
 3465TIP3   OH210358   4.250   1.658   1.345  0.5337 -0.0135 -0.2260
 3465TIP3    H110359   4.290   1.733   1.301 -1.5999  2.0617  1.1206
 3465TIP3    H210360   4.157   1.680   1.351 -0.4794 -3.3844 -0.8661
 3466TIP3   OH210361   4.738   1.964   3.677 -0.3148 -0.0309  0.0415
 3466TIP3    H110362   4.828   1.997   3.674 -0.3429  0.0848  0.4536
 3466TIP3    H210363   4.700   1.992   3.593  0.7545 -2.1974 -1.2666
 3467TIP3   OH210364   6.226   3.724   2.482  0.2005  0.0465  0.0190
 3467TIP3    H110365   6.273   3.804   2.506  0.8080 -0.4098  0.4147
 3467TIP3    H210366   6.285   3.680   2.419  0.1755 -0.3918  0.2963
 3468TIP3   OH210367   4.349   2.851   0.924  0.8335  0.6855 -0.0055
 3468TIP3    H110368   4.269   2.891   0.892  0.3638 -0.4302 -0.2787
 3468TIP3    H210369   4.363   2.775   0.867  0.8817 -0.3947  1.3747
 3469TIP3   OH210370   5.127   4.993   0.735  0.5819  0.7398 -0.4876
 3469TIP3    H110371   5.101   4.926   0.672 -0.2337  1.9729 -1.4971
 3469TIP3    H210372   5.063   4.986   0.806  0.7989  0.1332 -0.3465
 3470TIP3   OH210373   5.300   2.254   4.762  0.1901  0.1466  1.1818
 3470TIP3    H110374   5.335   2.313   4.828  1.3501 -3.2179  3.9174
 3470TIP3    H210375   5.210   2.236   4.791 -0.0443  0.3283  0.5729
 3471TIP3   OH210376   2.133   3.823   3.098 -0.2115  0.3633 -0.4100
 3471TIP3    H110377   2.204   3.823   3.034 -0.6108  0.8667 -0.8709
 3471TIP3    H210378   2.088   3.906   3.083 -2.5353 -1.0486 -2.0100
 3472TIP3   OH210379   2.766   0.322   1.988  0.0963 -0.6427 -0.1889
 3472TIP3    H110380   2.706   0.272   2.042 -1.9297 -0.4885 -2.1543
 3472TIP3    H210381   2.711   0.363   1.922  1.9539  2.3195 -0.0955
 3473TIP3   OH210382   4.157   6.689   5.432  0.6326  0.4508  0.3253
 3473TIP3    H110383   4.134   6.767   5.482  1.2549  0.7483  0.1671
 3473TIP3    H210384   4.100   6.691   5.355  1.3869  1.3462 -0.2255
 3474TIP3   OH210385   6.057   2.752   4.677 -0.0899  0.0273  0.1977
 3474TIP3    H110386   6.004   2.819   4.720 -1.0047  0.2753 -1.2520
 3474TIP3    H210387   6.131   2.800   4.640 -0.9934  0.3729 -1.2574
 3475TIP3   OH210388   4.248   5.769   1.751  0.3882  0.5291 -0.6340
 3475TIP3    H110389   4.220   5.686   1.712  0.3557  0.7884 -1.1717
 3475TIP3    H210390   4.204   5.772   1.836  0.5432 -0.0926 -0.5307
 3476TIP3   OH210391   1.229   5.578   1.671  0.6837 -0.4331 -0.0970
 3476TIP3    H110392   1.304   5.548   1.722  0.7403 -0.3231 -0.1148
 3476TIP3    H210393   1.155   5.571   1.730  0.8855  0.5478  0.3033
 3477TIP3   OH210394   6.938   1.533   2.810 -0.3325 -0.0734 -0.2193
 3477TIP3    H110395   6.980   1.594   2.749 -1.7054 -0.7958 -1.9851
 3477TIP3    H210396   6.846   1.557   2.807 -0.6884 -1.3537  0.1139
 3478TIP3   OH210397   1.366   2.051   2.663  0.0391  0.2549  0.1674
 3478TIP3    H110398   1.271   2.061   2.669  0.1502  0.8244  1.0846
 3478TIP3    H210399   1.392   2.111   2.592 -0.6040 -2.1922 -2.3377
 3479TIP3   OH210400   3.951   0.896   0.934 -0.7112 -0.3782  0.0602
 3479TIP3    H110401   3.870   0.903   0.883  1.4068 -0.2253 -3.6225
 3479TIP3    H210402   3.992   0.982   0.925  0.0010 -0.4955  1.7500
 3480TIP3   OH210403   6.657   0.209   2.523 -0.0655 -0.7012  0.3108
 3480TIP3    H110404   6.670   0.137   2.461  0.4376 -0.1575 -0.2251
 3480TIP3    H210405   6.565   0.234   2.511 -0.0835 -0.8688  0.0859
 3481TIP3   OH210406   2.576   1.122   5.557 -0.0481  0.0103 -0.0466
 3481TIP3    H110407   2.627   1.068   5.497 -0.8642  1.3613 -2.0474
 3481TIP3    H210408   2.577   1.209   5.518 -2.1937  0.5233  0.9102
 3482TIP3   OH210409   1.444   1.018   5.466 -0.1297 -0.0586  0.2388
 3482TIP3    H110410   1.392   1.085   5.420 -3.1560  0.2065  3.6413
 3482TIP3    H210411   1.492   1.067   5.533  1.6546 -0.8222 -0.4152
 3483TIP3   OH210412   0.373   0.636   4.480  0.1822 -0.1589  0.8276
 3483TIP3    H110413   0.341   0.672   4.397  0.5013 -1.2023  0.2342
 3483TIP3    H210414   0.333   0.691   4.547 -0.8084  0.1496  0.0096
 3484TIP3   OH210415   1.446   6.515   3.428 -0.1791  0.7924 -0.0024
 3484TIP3    H110416   1.458   6.435   3.377  0.6845  1.3226 -0.6697
 3484TIP3    H210417   1.430   6.485   3.517 -0.2809 -0.1293 -0.3224
 3485TIP3   OH210418   1.179   1.743   4.917  0.5617 -0.1632  0.2561
 3485TIP3    H110419   1.194   1.737   4.823 -0.3633 -1.2470  0.1534
 3485TIP3    H210420   1.196   1.835   4.938  1.4111 -0.0485 -0.8417
 3486TIP3   OH210421   5.813   2.607   1.069  0.1801  0.0075 -0.1731
 3486TIP3    H110422   5.850   2.541   1.011 -0.0849 -0.5957  0.3280
 3486TIP3    H210423   5.757   2.660   1.013 -1.3017 -1.5256 -0.2035
 3487TIP3   OH210424   0.504   6.049   1.795 -0.0159  0.1547  0.0811
 3487TIP3    H110425   0.520   6.034   1.701  2.5710  0.1634  0.4514
 3487TIP3    H210426   0.507   5.961   1.833  1.8030  0.3598  0.4903
 3488TIP3   OH210427   5.377   2.109   0.200  0.6630 -0.1111 -0.1655
 3488TIP3    H110428   5.378   2.182   0.261  0.2071 -0.0274 -0.2575
 3488TIP3    H210429   5.458   2.061   0.219  0.7348  0.1540  0.2091
 3489TIP3   OH210430   3.313   6.201   1.540 -0.1050  0.0232  0.4534
 3489TIP3    H110431   3.407   6.189   1.534  0.1081  1.5911  0.1179
 3489TIP3    H210432   3.276   6.114   1.527  1.2798 -0.5657  0.3160
 3490TIP3   OH210433   2.253   0.412   2.460 -0.5482  0.2860  0.5632
 3490TIP3    H110434   2.297   0.345   2.409  0.2101  0.4150  1.0245
 3490TIP3    H210435   2.216   0.472   2.395  0.8346  0.7328  0.1430
 3491TIP3   OH210436   3.200   6.506   4.396 -0.6346 -0.0212 -0.1871
 3491TIP3    H110437   3.290   6.494   4.426 -0.2824 -0.5201 -1.3712
 3491TIP3    H210438   3.147   6.492   4.474  0.3374  1.2125  0.7407
 3492TIP3   OH210439   6.922   2.450   1.644  0.4949 -0.1530 -0.2091
 3492TIP3    H110440   6.872   2.402   1.578  1.6583 -0.2802 -1.0284
 3492TIP3    H210441   6.915   2.396   1.723  0.3194 -0.7596 -0.6322
 3493TIP3   OH210442   3.669   3.162   3.542 -0.1000  0.0668 -0.2299
 3493TIP3    H110443   3.597   3.192   3.486 -2.0757 -0.9127  1.6358
 3493TIP3    H210444   3.748   3.196   3.499 -1.6448  1.3847 -2.2630
 3494TIP3   OH210445   6.537   1.786   3.142  0.1999  0.2604 -0.1792
 3494TIP3    H110446   6.544   1.768   3.235 -0.0756  0.6670 -0.0748
 3494TIP3    H210447   6.529   1.882   3.137 -3.4298  0.0844 -0.3558
 3495TIP3   OH210448   3.574   1.870   0.382  0.0852  0.4602  0.0470
 3495TIP3    H110449   3.616   1.909   0.306  0.6015 -0.8860 -0.3895
 3495TIP3    H210450   3.487   1.910   0.386  1.2428  3.1192  0.8136
 3496TIP3   OH210451   2.620   1.745   4.621  0.5794 -0.2438  0.0237
 3496TIP3    H110452   2.660   1.721   4.705  1.9802 -1.2881 -0.8767
 3496TIP3    H210453   2.636   1.838   4.612  0.3062 -0.0965  0.9607
 3497TIP3   OH210454   5.919   1.717   2.308 -0.0534  0.4607 -0.3432
 3497TIP3    H110455   5.865   1.763   2.371  0.8503  1.7582 -0.4748
 3497TIP3    H210456   5.871   1.723   2.225 -0.6161 -0.1141 -0.0699
 3498TIP3   OH210457   5.883   1.707   1.375  0.3286  0.1090  0.0168
 3498TIP3    H110458   5.863   1.743   1.462 -1.3255  0.6864 -0.5465
 3498TIP3    H210459   5.845   1.771   1.314  1.5023 -0.2586 -1.1452
 3499TIP3   OH210460   1.663   1.430   3.265  0.0800 -0.0208  0.2053
 3499TIP3    H110461   1.686   1.505   3.211  1.3447  0.5189  1.4445
 3499TIP3    H210462   1.665   1.462   3.354  1.4120 -1.6713  0.8353
 3500TIP3   OH210463   0.497   4.479   5.411  0.4864  0.7292  0.4845
 3500TIP3    H110464   0.458   4.462   5.497 -1.6098  0.5583 -0.4327
 3500TIP3    H210465   0.445   4.551   5.375  0.1096 -0.4180 -1.3790
 3501TIP3   OH210466   1.796   4.382   0.788 -0.1609  0.1576  0.1128
 3501TIP3    H110467   1.721   4.442   0.793 -1.0780 -0.9240 -0.0871
 3501TIP3    H210468   1.796   4.337   0.872 -0.3055 -0.4832 -0.2202
 3502TIP3   OH210469   2.430   3.031   0.094  0.5092 -0.2444 -0.0707
 3502TIP3    H110470   2.474   3.001   0.173 -1.2756 -1.4292  0.5558
 3502TIP3    H210471   2.375   3.103   0.123 -0.5833 -1.0447 -0.0617
 3503TIP3   OH210472   6.489   6.565   5.667  0.3077  0.3902 -0.0948
 3503TIP3    H110473   6.566   6.537   5.616  1.0194 -0.6005  1.4508
 3503TIP3    H210474   6.470   6.652   5.634  2.3311  0.8164 -0.2896
 3504TIP3   OH210475   3.627   5.491   5.752  0.1579  0.4100  0.8326
 3504TIP3    H110476   3.562   5.434   5.792 -0.0752  0.7134  0.8860
 3504TIP3    H210477   3.702   5.487   5.811 -0.0566  0.5845  1.1199
 3505TIP3   OH210478   1.706   2.213   5.827  0.2638  0.1448  0.7309
 3505TIP3    H110479   1.681   2.254   5.745 -0.1507 -1.6270 -0.0862
 3505TIP3    H210480   1.714   2.285   5.890  0.8796  1.5774 -0.9143
 3506TIP3   OH210481   3.483   2.805   1.487 -0.1504 -0.1025  0.1721
 3506TIP3    H110482   3.493   2.784   1.580  0.2421 -1.6163 -0.1797
 3506TIP3    H210483   3.428   2.735   1.453 -1.1924  1.0281 -0.5417
 3507TIP3   OH210484   4.563   2.243   0.845 -0.4037 -0.1216  0.1785
 3507TIP3    H110485   4.599   2.170   0.896  0.6301  0.0074 -0.3293
 3507TIP3    H210486   4.479   2.263   0.887  0.6455  0.3620  2.1870
 3508TIP3   OH210487   2.172   2.418   5.367  0.0150 -0.0190 -0.2026
 3508TIP3    H110488   2.141   2.330   5.385 -0.4094  0.1575 -0.0617
 3508TIP3    H210489   2.180   2.460   5.452  0.8065 -0.1103 -0.2220
 3509TIP3   OH210490   2.232   1.249   1.149 -0.2521 -0.4859  0.0109
 3509TIP3    H110491   2.279   1.253   1.066 -0.8205  2.0624 -0.2890
 3509TIP3    H210492   2.249   1.335   1.189 -2.1568 -0.6504  1.2852
 3510TIP3   OH210493   2.737   6.726   0.576 -0.3512 -0.3784 -0.3219
 3510TIP3    H110494   2.695   6.787   0.638 -1.5942 -0.6088 -0.9104
 3510TIP3    H210495   2.718   6.763   0.490  1.1830 -0.1804 -0.6084
 3511TIP3   OH210496   0.052   4.335   4.565  0.1636 -0.2302 -0.4443
 3511TIP3    H110497   0.071   4.302   4.653  0.6800 -0.8835 -0.7898
 3511TIP3    H210498   0.008   4.419   4.579  0.2945 -0.3046  0.4325
 3512TIP3   OH210499   3.022   4.139   0.599  0.3755 -0.8445  0.4052
 3512TIP3    H110500   3.040   4.109   0.688  1.2260 -0.4855  0.3603
 3512TIP3    H210501   3.105   4.175   0.568 -0.1050 -0.2724 -0.2614
 3513TIP3   OH210502   6.149   6.459   4.893 -0.3966  0.4169  0.0154
 3513TIP3    H110503   6.093   6.392   4.853 -0.0266  0.8757 -1.3277
 3513TIP3    H210504   6.103   6.485   4.972 -1.0844 -0.6405 -0.0157
 3514TIP3   OH210505   5.498   5.721   3.664 -0.6014 -0.2221  0.1289
 3514TIP3    H110506   5.429   5.692   3.724 -0.4710  1.5298  1.2006
 3514TIP3    H210507   5.559   5.769   3.720 -0.6733  1.8146 -1.4521
 3515TIP3   OH210508   7.116   1.118   3.513  0.3338  0.6003  0.8738
 3515TIP3    H110509   7.091   1.027   3.530 -1.9476  1.1637  0.7740
 3515TIP3    H210510   7.097   1.132   3.420  2.0013  0.8230  0.5259
 3516TIP3   OH210511   4.879   5.521   4.843 -0.1306 -0.0990  0.3979
 3516TIP3    H110512   4.973   5.533   4.836 -0.1848 -0.4893 -1.3781
 3516TIP3    H210513   4.868   5.432   4.876  0.1235 -0.2061  0.1979
 3517TIP3   OH210514   1.812   3.767   2.444  1.1146  0.9573 -0.1978
 3517TIP3    H110515   1.879   3.706   2.474 -0.0154 -0.3504 -0.2558
 3517TIP3    H210516   1.840   3.792   2.355  0.8266 -0.6658 -0.7714
 3518TIP3   OH210517   6.747   4.063   5.343  0.0183  0.0252 -0.2351
 3518TIP3    H110518   6.757   4.081   5.436 -2.1198 -1.4266  0.3387
 3518TIP3    H210519   6.819   4.110   5.301 -1.1145  3.8789  1.7518
 3519TIP3   OH210520   0.755   5.010   1.031  0.3737  0.7746 -0.0543
 3519TIP3    H110521   0.671   4.986   0.992  0.3779 -1.3746  1.1139
 3519TIP3    H210522   0.820   4.964   0.979  0.3794 -2.1099  2.2377
 3520TIP3   OH210523   2.530   3.485   0.096  0.0734  0.3722  0.0120
 3520TIP3    H110524   2.536   3.450   0.185  0.8443 -0.1159 -0.2255
 3520TIP3    H210525   2.570   3.418   0.041  0.5664  1.1347 -0.5853
 3521TIP3   OH210526   4.234   4.047   3.281  0.0456  0.4214  0.2517
 3521TIP3    H110527   4.178   4.008   3.347  0.8112  1.3872  1.5047
 3521TIP3    H210528   4.224   3.990   3.204  0.9250 -2.1239  1.9081
 3522TIP3   OH210529   2.130   2.862   4.072  0.3200  0.1497  0.2636
 3522TIP3    H110530   2.050   2.911   4.051 -0.0744 -1.0047 -1.0410
 3522TIP3    H210531   2.201   2.921   4.047 -0.1220  0.7229  0.3262
 3523TIP3   OH210532   0.766   4.512   4.429  0.2635  0.3850 -0.0890
 3523TIP3    H110533   0.822   4.448   4.472  0.6171  1.1716  0.6476
 3523TIP3    H210534   0.811   4.532   4.347 -0.0900 -0.6423 -0.5528
 3524TIP3   OH210535   0.571   2.346   0.234  0.3264  1.0143  0.4620
 3524TIP3    H110536   0.521   2.426   0.249 -1.2431  0.0250  0.7031
 3524TIP3    H210537   0.510   2.275   0.253  1.6714 -0.2585  0.2372
 3525TIP3   OH210538   6.969   5.302   2.682  0.6289 -0.6071 -0.1559
 3525TIP3    H110539   7.034   5.234   2.703 -0.8694 -1.4034  2.3983
 3525TIP3    H210540   6.919   5.265   2.610  0.2034 -2.0177  0.8176
 3526TIP3   OH210541   2.263   2.463   1.551 -0.0848 -0.3075 -0.2635
 3526TIP3    H110542   2.308   2.379   1.552 -1.1121 -0.9023  1.6241
 3526TIP3    H210543   2.322   2.522   1.598 -0.5143 -0.6789  0.7757
 3527TIP3   OH210544   4.625   4.300   5.451 -0.4279 -0.0296  0.1479
 3527TIP3    H110545   4.550   4.338   5.405 -0.0419 -0.3012 -0.7245
 3527TIP3    H210546   4.599   4.209   5.466  0.6690 -0.8556 -2.4062
 3528TIP3   OH210547   4.835   5.053   2.662  0.5032 -0.4387 -0.0921
 3528TIP3    H110548   4.896   5.042   2.589 -0.5678  0.5514 -1.2017
 3528TIP3    H210549   4.884   5.101   2.728  1.5626 -1.5388 -0.0498
 3529TIP3   OH210550   4.809   0.891   1.410  0.4557 -0.4693 -0.8282
 3529TIP3    H110551   4.719   0.915   1.388  0.5021 -0.3939 -0.9391
 3529TIP3    H210552   4.860   0.968   1.385  0.3553  0.1676  0.8117
 3530TIP3   OH210553   6.042   3.696   3.518  0.5895 -0.5437  0.5318
 3530TIP3    H110554   5.981   3.660   3.454 -0.1033 -0.3723  1.0846
 3530TIP3    H210555   6.097   3.622   3.544  0.2819 -0.8113  0.4090
 3531TIP3   OH210556   5.325   4.623   5.006 -0.5967  0.8098 -0.6661
 3531TIP3    H110557   5.376   4.700   4.984  1.9625 -0.9347 -1.2369
 3531TIP3    H210558   5.291   4.641   5.094  0.1609  2.4460 -0.6797
 3532TIP3   OH210559   3.771   1.668   2.635 -1.0022 -0.3267  0.3731
 3532TIP3    H110560   3.828   1.712   2.572 -3.0879  1.4997 -0.3863
 3532TIP3    H210561   3.797   1.576   2.631  2.1186  0.4152  0.4193
 3533TIP3   OH210562   3.165   3.350   4.435  0.0622  0.5267 -0.0486
 3533TIP3    H110563   3.165   3.319   4.344  0.6958  1.3661 -0.3429
 3533TIP3    H210564   3.171   3.270   4.487 -0.2558  0.0358 -0.7427
 3534TIP3   OH210565   0.168   2.278   0.531 -0.4103 -0.7804 -0.1326
 3534TIP3    H110566   0.122   2.267   0.448 -0.4268 -1.5951 -0.0237
 3534TIP3    H210567   0.212   2.194   0.545  0.4697 -0.2861  0.1506
 3535TIP3   OH210568   0.578   0.334   0.620  0.1073  0.3440 -0.4613
 3535TIP3    H110569   0.565   0.325   0.715 -1.4881 -0.2369 -0.6943
 3535TIP3    H210570   0.665   0.296   0.604  0.7755  1.2324  0.8589
 3536TIP3   OH210571   6.684   6.615   0.153 -0.1669 -0.1680 -0.6279
 3536TIP3    H110572   6.755   6.617   0.089  0.5860 -0.9556  0.1486
 3536TIP3    H210573   6.608   6.584   0.104  0.7456 -2.1629 -0.8692
 3537TIP3   OH210574   6.242   4.645   4.082 -0.6446  0.2076 -0.0217
 3537TIP3    H110575   6.192   4.577   4.126 -0.2835 -0.3061 -0.4008
 3537TIP3    H210576   6.266   4.707   4.151 -1.2144  0.1014  0.2752
 3538TIP3   OH210577   3.896   5.977   3.857  0.0243  0.4467 -0.8393
 3538TIP3    H110578   3.948   5.965   3.936  0.1999  0.7820 -0.9033
 3538TIP3    H210579   3.806   5.954   3.883 -0.3292  2.6408  0.0452
 3539TIP3   OH210580   4.625   3.246   1.219 -0.3353 -0.6924 -0.2893
 3539TIP3    H110581   4.561   3.219   1.285 -0.2441  1.0062  0.5239
 3539TIP3    H210582   4.589   3.213   1.137 -2.1833  0.0822  0.1761
 3540TIP3   OH210583   1.629   3.282   0.549  0.8096 -0.5912  0.4077
 3540TIP3    H110584   1.563   3.288   0.618  1.0981  0.7607  0.5890
 3540TIP3    H210585   1.686   3.211   0.577 -0.1973 -1.3630  0.5594
 3541TIP3   OH210586   3.398   5.850   4.965 -0.1451  0.2205  0.2396
 3541TIP3    H110587   3.322   5.894   5.004 -0.7658 -0.8149  0.2502
 3541TIP3    H210588   3.402   5.882   4.875 -0.5262  0.3684  0.2756
 3542TIP3   OH210589   0.790   6.537   4.386  0.3914  0.1229 -0.3636
 3542TIP3    H110590   0.886   6.527   4.383  0.4058  0.0872  0.1668
 3542TIP3    H210591   0.767   6.521   4.478 -0.1573 -0.1659 -0.5485
 3543TIP3   OH210592   5.240   0.745   4.552 -0.2594 -0.3248 -0.1923
 3543TIP3    H110593   5.333   0.756   4.568  0.2681 -1.6304 -2.0776
 3543TIP3    H210594   5.222   0.653   4.573 -1.3111  0.0791  0.8420
 3544TIP3   OH210595   2.425   3.158   3.391  0.2092 -0.3920  0.7373
 3544TIP3    H110596   2.344   3.114   3.418  0.6404 -1.3452  0.5127
 3544TIP3    H210597   2.492   3.090   3.399  1.3941  0.9127  2.9627
 3545TIP3   OH210598   0.392   5.290   2.013  0.5405  0.2900 -0.4349
 3545TIP3    H110599   0.387   5.321   1.923  0.4628  0.2397 -0.4475
 3545TIP3    H210600   0.314   5.326   2.056  0.5183  0.2196 -0.4164
 3546TIP3   OH210601   0.185   3.100   0.788 -0.3254  0.5471 -0.1810
 3546TIP3    H110602   0.253   3.145   0.739 -0.2451 -0.6567 -1.2486
 3546TIP3    H210603   0.127   3.064   0.720 -0.7226 -0.4026  0.6300
 3547TIP3   OH210604   6.564   5.236   3.968 -0.2098  0.5882  0.2905
 3547TIP3    H110605   6.651   5.277   3.969 -0.4319  1.0868  1.3618
 3547TIP3    H210606   6.563   5.184   3.888  2.0273 -1.4508  1.4312
 3548TIP3   OH210607   4.171   4.299   0.010 -0.0198  0.0614  0.0818
 3548TIP3    H110608   4.082   4.327   0.032  0.3983  1.5232 -0.0525
 3548TIP3    H210609   4.195   4.238   0.080 -0.6396  0.6624  0.8288
 3549TIP3   OH210610   1.088   5.926   2.706 -0.1219 -0.3939 -0.2252
 3549TIP3    H110611   1.120   6.012   2.681 -0.5965  0.7423  2.6714
 3549TIP3    H210612   1.133   5.907   2.789  0.1215 -3.0543 -0.8818
 3550TIP3   OH210613   6.426   4.027   3.826  0.1361  0.0769 -0.1878
 3550TIP3    H110614   6.489   4.100   3.827  0.7552 -0.4465  0.6424
 3550TIP3    H210615   6.465   3.963   3.767  0.3102 -0.1680  0.1826
 3551TIP3   OH210616   5.521   1.560   5.596 -0.1769 -0.4453  0.2277
 3551TIP3    H110617   5.455   1.510   5.644 -2.6041  0.1538 -2.2367
 3551TIP3    H210618   5.565   1.495   5.541 -2.3333 -0.2939 -1.8824
 3552TIP3   OH210619   5.726   3.382   0.534 -0.1568  0.1173 -0.3869
 3552TIP3    H110620   5.717   3.368   0.628 -0.1518  0.8710 -0.2679
 3552TIP3    H210621   5.657   3.329   0.495  0.0486 -0.4565  0.0165
 3553TIP3   OH210622   1.767   4.911   2.533  0.6331 -0.0127 -0.2963
 3553TIP3    H110623   1.850   4.959   2.526  0.2663  0.6588 -0.1094
 3553TIP3    H210624   1.776   4.839   2.470  1.7507 -0.5438  0.4335
 3554TIP3   OH210625   2.440   2.288   3.286 -0.1054  0.2208  0.3103
 3554TIP3    H110626   2.454   2.294   3.380 -1.4326 -1.2999  0.6471
 3554TIP3    H210627   2.361   2.236   3.277  0.0009  0.3302 -1.6611
 3555TIP3   OH210628   0.854   5.726   5.681 -0.2152  0.5563  0.0289
 3555TIP3    H110629   0.771   5.679   5.681 -0.4389  0.6816 -3.6637
 3555TIP3    H210630   0.916   5.666   5.723 -1.2004 -1.6600 -1.5093
 3556TIP3   OH210631   5.188   2.273   1.151 -0.2017  0.1901  0.0501
 3556TIP3    H110632   5.173   2.183   1.122  0.7515 -0.0709  0.3402
 3556TIP3    H210633   5.198   2.323   1.071  2.1072 -0.4689 -0.1482
 3557TIP3   OH210634   6.875   4.744   1.742 -0.0723 -0.5387  0.1626
 3557TIP3    H110635   6.870   4.834   1.774 -0.2783 -0.3829 -0.3030
 3557TIP3    H210636   6.824   4.693   1.805  1.7073 -0.6712  1.6067
 3558TIP3   OH210637   2.218   4.823   5.169  0.2408 -0.1882  0.5484
 3558TIP3    H110638   2.220   4.727   5.175 -1.6512 -0.3085  0.0683
 3558TIP3    H210639   2.157   4.850   5.237  0.3352  0.6235  0.3204
 3559TIP3   OH210640   2.074   1.507   4.816 -0.4337  0.4286 -0.0007
 3559TIP3    H110641   2.014   1.572   4.779  1.4932  1.0145 -2.3253
 3559TIP3    H210642   2.095   1.449   4.743  1.1862 -0.2445  0.9444
 3560TIP3   OH210643   3.993   1.704   5.414  0.3767 -0.4914  0.3063
 3560TIP3    H110644   4.003   1.639   5.344 -1.8062 -1.7231  1.0202
 3560TIP3    H210645   4.007   1.654   5.495 -0.9454 -0.0325  0.8560
 3561TIP3   OH210646   1.768   3.538   3.943 -0.2587 -0.0441  0.0837
 3561TIP3    H110647   1.801   3.626   3.960 -0.1550  0.0571 -0.6106
 3561TIP3    H210648   1.812   3.483   4.007  0.8919  0.1649 -0.4929
 3562TIP3   OH210649   5.406   6.445   5.656 -0.4802 -0.5976 -0.1336
 3562TIP3    H110650   5.466   6.375   5.630 -0.6523 -0.8013  0.0133
 3562TIP3    H210651   5.409   6.445   5.751 -0.2845 -0.2310 -0.1384
 3563TIP3   OH210652   3.920   0.676   1.295  0.1482 -0.1333 -0.1726
 3563TIP3    H110653   3.939   0.584   1.274  1.8249 -0.7813  3.4381
 3563TIP3    H210654   3.827   0.677   1.317 -0.0189 -0.8125 -0.8053
 3564TIP3   OH210655   0.467   1.783   5.288 -0.4820 -0.2373 -0.3999
 3564TIP3    H110656   0.472   1.862   5.342  0.8461 -1.6004  1.6220
 3564TIP3    H210657   0.376   1.753   5.297 -0.6393  0.3194 -0.0864
 3565TIP3   OH210658   1.856   4.548   5.212  0.4955 -0.3012  0.1983
 3565TIP3    H110659   1.768   4.558   5.247 -0.2029 -0.5378 -1.3965
 3565TIP3    H210660   1.871   4.627   5.160  1.0433 -0.4780  0.0747
 3566TIP3   OH210661   1.104   6.321   4.375  0.3909 -0.2451  0.0140
 3566TIP3    H110662   1.082   6.413   4.358 -1.1091 -0.6825 -0.5977
 3566TIP3    H210663   1.072   6.304   4.464  0.0083 -0.3597 -0.1432
 3567TIP3   OH210664   0.525   0.389   5.574 -0.4906 -0.2188  0.6011
 3567TIP3    H110665   0.440   0.429   5.555  0.0916  1.4446  1.2580
 3567TIP3    H210666   0.513   0.296   5.555 -2.1438  0.1398 -0.3165
 3568TIP3   OH210667   6.806   3.627   0.989 -0.3233 -0.3487  0.4852
 3568TIP3    H110668   6.886   3.596   1.030  1.2157  1.2577 -1.1702
 3568TIP3    H210669   6.801   3.580   0.906  0.6077  1.7231 -0.8141
 3569TIP3   OH210670   1.729   0.946   4.489  0.1577  0.0700  0.1123
 3569TIP3    H110671   1.687   0.983   4.411 -1.2436 -0.5148  0.5395
 3569TIP3    H210672   1.702   1.005   4.560 -0.8561 -0.8874  0.5560
 3570TIP3   OH210673   0.394   0.834   1.695 -0.1617 -0.5513 -0.1988
 3570TIP3    H110674   0.380   0.869   1.783  0.8138  0.7361 -0.5244
 3570TIP3    H210675   0.398   0.911   1.639  1.3503 -1.2208 -1.0658
 3571TIP3   OH210676   7.200   2.644   2.081 -0.3750  0.2390 -0.2438
 3571TIP3    H110677   7.253   2.578   2.126  0.2744 -0.2494 -1.6594
 3571TIP3    H210678   7.117   2.644   2.129  0.6950  0.6850  1.7267
 3572TIP3   OH210679   3.262   4.432   5.753 -0.0639  0.4033  0.1312
 3572TIP3    H110680   3.349   4.443   5.715 -1.2458 -1.1369 -3.4083
 3572TIP3    H210681   3.265   4.347   5.795  0.0765  0.2138 -0.2542
 3573TIP3   OH210682   1.432   5.858   0.359 -0.4505  0.6728  0.0152
 3573TIP3    H110683   1.492   5.810   0.416 -0.6485 -0.1337 -0.4370
 3573TIP3    H210684   1.351   5.806   0.361 -0.8102  1.2264 -0.1407
 3574TIP3   OH210685   2.035   3.085   2.333 -0.3737 -0.5187  0.3129
 3574TIP3    H110686   1.958   3.029   2.343 -1.9740  1.5943  0.3930
 3574TIP3    H210687   2.054   3.116   2.422 -0.2252 -0.0072  0.1067
 3575TIP3   OH210688   1.473   6.187   4.371 -0.5538 -0.6692 -0.0337
 3575TIP3    H110689   1.470   6.213   4.278  1.0127 -0.5260 -0.0697
 3575TIP3    H210690   1.435   6.261   4.417 -1.2032 -0.6707 -0.5504
 3576TIP3   OH210691   3.333   5.463   2.915 -0.0454 -0.2011  0.2757
 3576TIP3    H110692   3.327   5.368   2.926  1.2167 -0.2458  0.6701
 3576TIP3    H210693   3.306   5.478   2.824 -1.7395 -0.7588  0.6538
 3577TIP3   OH210694   3.182   1.388   1.731 -0.8633 -0.4145  0.0922
 3577TIP3    H110695   3.255   1.393   1.793  0.2286 -2.1382 -0.9699
 3577TIP3    H210696   3.142   1.303   1.749 -0.8449 -0.7085 -1.1949
 3578TIP3   OH210697   6.044   3.722   0.506 -0.3260  0.2430 -0.0951
 3578TIP3    H110698   5.990   3.799   0.488  0.8294  1.0779 -0.0805
 3578TIP3    H210699   6.095   3.709   0.426  0.7485  0.5685  0.5143
 3579TIP3   OH210700   5.169   3.628   5.029  0.1794  0.2594  0.1170
 3579TIP3    H110701   5.197   3.692   4.963  0.0021  0.8624  0.6167
 3579TIP3    H210702   5.230   3.642   5.102 -0.6090  0.6941  0.7037
 3580TIP3   OH210703   1.493   0.098   4.297  0.2039 -0.6898  0.4242
 3580TIP3    H110704   1.513   0.054   4.380  0.7241  2.1543  1.9265
 3580TIP3    H210705   1.577   0.131   4.267 -0.3639  0.6692  0.2555
 3581TIP3   OH210706   4.161   3.242   1.212  0.4115 -0.3074  0.7372
 3581TIP3    H110707   4.124   3.211   1.294 -0.0261 -2.1363 -0.1116
 3581TIP3    H210708   4.111   3.197   1.144  0.1535  1.8359 -0.5993
 3582TIP3   OH210709   3.921   5.609   1.304  0.5146 -0.0792  0.1088
 3582TIP3    H110710   3.946   5.665   1.231  0.8649 -0.6031 -0.1764
 3582TIP3    H210711   3.833   5.579   1.282 -1.4587  3.4944  2.1220
 3583TIP3   OH210712   1.548   3.870   3.326 -0.0177  0.8761 -0.0369
 3583TIP3    H110713   1.458   3.901   3.319  0.0891  1.5860  1.3370
 3583TIP3    H210714   1.545   3.803   3.394  0.5744  1.3651  0.4917
 3584TIP3   OH210715   5.802   0.536   5.525 -0.2744  0.2608 -0.3397
 3584TIP3    H110716   5.832   0.558   5.437  1.1023  2.4564  0.5842
 3584TIP3    H210717   5.707   0.550   5.523 -0.0843  1.5678 -1.1637
 3585TIP3   OH210718   0.299   1.422   5.281 -0.1275  0.7061 -0.2349
 3585TIP3    H110719   0.289   1.343   5.334 -1.0263 -0.8964 -2.6137
 3585TIP3    H210720   0.382   1.459   5.309 -0.0820 -0.5974  1.5456
 3586TIP3   OH210721   2.044   6.490   2.840 -0.7792 -0.2274 -0.4773
 3586TIP3    H110722   2.124   6.440   2.828 -1.7758 -1.8508 -0.5832
 3586TIP3    H210723   2.043   6.552   2.766  0.9545  0.6881  0.2063
 3587TIP3   OH210724   6.886   6.131   2.446  0.2735 -0.3680  0.6035
 3587TIP3    H110725   6.955   6.122   2.513  0.5860 -0.7923  0.2379
 3587TIP3    H210726   6.833   6.204   2.476  0.0926 -0.8863  1.5996
 3588TIP3   OH210727   1.688   0.569   5.296  0.0751  0.6938 -0.2247
 3588TIP3    H110728   1.679   0.484   5.254  1.7456  0.4133 -0.1177
 3588TIP3    H210729   1.768   0.606   5.257 -0.8404  2.4116 -0.5824
 3589TIP3   OH210730   1.301   1.013   1.602 -0.2156  0.0644 -0.5266
 3589TIP3    H110731   1.339   0.954   1.667  0.1784  0.3539 -0.4859
 3589TIP3    H210732   1.360   1.006   1.526  1.3863  2.3209  0.3799
 3590TIP3   OH210733   0.316   2.221   0.244 -0.3325 -0.0456 -0.1786
 3590TIP3    H110734   0.348   2.149   0.297 -0.5382 -0.5874 -0.7792
 3590TIP3    H210735   0.232   2.244   0.284 -1.0080 -1.1736 -0.9079
 3591TIP3   OH210736   0.542   0.365   1.151 -0.1188 -0.0346  0.0990
 3591TIP3    H110737   0.545   0.455   1.184 -1.9247 -1.0764  3.5363
 3591TIP3    H210738   0.592   0.314   1.215  0.3556 -1.6348 -1.4514
 3592TIP3   OH210739   4.003   5.701   5.669 -0.2920 -0.0980  0.3385
 3592TIP3    H110740   4.097   5.685   5.674 -0.4104 -0.5866  1.2898
 3592TIP3    H210741   3.978   5.725   5.759 -1.1746 -0.5633  0.2280
 3593TIP3   OH210742   1.513   2.243   2.481  0.1614  0.3581  0.4719
 3593TIP3    H110743   1.551   2.217   2.397  2.3697  2.4638  0.7091
 3593TIP3    H210744   1.559   2.324   2.504 -0.0938 -0.3196  3.8803
 3594TIP3   OH210745   3.314   1.875   2.592  0.1495  0.2488 -0.1089
 3594TIP3    H110746   3.229   1.840   2.567  0.5824  0.0074 -1.2951
 3594TIP3    H210747   3.370   1.861   2.516  1.4885 -0.3811  0.9328
 3595TIP3   OH210748   1.179   1.772   1.031  0.5464 -0.1819  0.1342
 3595TIP3    H110749   1.199   1.850   1.083  0.2153 -1.2859  2.0559
 3595TIP3    H210750   1.261   1.723   1.029  0.1587 -0.9153  1.0871
 3596TIP3   OH210751   7.116   4.032   5.543 -0.0241  0.3044 -0.0855
 3596TIP3    H110752   7.143   3.978   5.617 -0.0763  0.8324  0.3225
 3596TIP3    H210753   7.136   3.978   5.466 -1.1614 -0.7764  0.3430
 3597TIP3   OH210754   1.577   3.635   1.325 -0.2133 -0.3001 -0.2348
 3597TIP3    H110755   1.509   3.648   1.259 -0.1235 -0.9906 -0.4741
 3597TIP3    H210756   1.619   3.720   1.334  0.6018 -0.4733 -1.9809
 3598TIP3   OH210757   3.024   5.170   3.253 -0.1070  0.5709  0.1960
 3598TIP3    H110758   3.006   5.254   3.213 -0.5606  0.6743  0.6153
 3598TIP3    H210759   3.116   5.175   3.280 -0.2989  1.1508  0.7527
 3599TIP3   OH210760   0.236   4.271   0.594 -0.1583  0.1219 -0.5317
 3599TIP3    H110761   0.212   4.336   0.528 -0.2440  2.2762  1.4919
 3599TIP3    H210762   0.154   4.229   0.618 -0.5767  1.3065  0.1629
 3600TIP3   OH210763   6.144   0.152   1.235  0.3708  0.5002 -0.1840
 3600TIP3    H110764   6.084   0.220   1.266 -0.8666  0.2998 -1.9449
 3600TIP3    H210765   6.150   0.168   1.140  0.4466 -1.5223 -0.5533
 3601TIP3   OH210766   6.887   6.611   1.461  0.6761 -0.3606 -0.1219
 3601TIP3    H110767   6.972   6.574   1.485  1.3267  1.1486 -0.0134
 3601TIP3    H210768   6.896   6.632   1.368  0.7377  0.5999  0.0940
 3602TIP3   OH210769   6.992   1.849   0.096 -0.6714  0.5449  0.5092
 3602TIP3    H110770   7.015   1.781   0.033 -1.0721  0.5076  0.4046
 3602TIP3    H210771   7.075   1.893   0.114 -0.7122  1.2264 -0.8259
 3603TIP3   OH210772   2.572   2.559   3.926  0.0079 -0.1807 -0.0061
 3603TIP3    H110773   2.660   2.549   3.891  1.0751  0.8632  2.2108
 3603TIP3    H210774   2.532   2.472   3.915  1.9272 -1.1858  0.5581
 3604TIP3   OH210775   3.891   1.026   0.492  0.1558 -0.6359 -0.0740
 3604TIP3    H110776   3.832   1.085   0.539 -0.8217 -2.6559  1.3879
 3604TIP3    H210777   3.892   1.060   0.402  1.8261  3.1570  1.1905
 3605TIP3   OH210778   6.033   4.395   2.826  0.9273  1.1429  0.1188
 3605TIP3    H110779   5.997   4.474   2.866 -0.9063 -0.4610  1.8367
 3605TIP3    H210780   5.961   4.359   2.774  0.5122 -1.0999  2.0534
 3606TIP3   OH210781   6.208   2.516   4.641 -0.3424  0.4956  0.8401
 3606TIP3    H110782   6.268   2.543   4.571  0.9166  2.8616  2.6861
 3606TIP3    H210783   6.156   2.594   4.659 -3.6635 -1.3058 -0.2336
 3607TIP3   OH210784   0.514   1.532   2.581  0.5266  0.3197 -0.3035
 3607TIP3    H110785   0.476   1.607   2.535 -2.4250 -0.5018  0.5713
 3607TIP3    H210786   0.450   1.462   2.571  1.6003 -1.0668  1.7042
 3608TIP3   OH210787   0.225   1.414   0.709 -0.0995  0.2255  0.6083
 3608TIP3    H110788   0.180   1.436   0.628  1.6943  2.4879  0.1164
 3608TIP3    H210789   0.275   1.335   0.688 -0.9893 -0.2177  0.0872
 3609TIP3   OH210790   6.414   2.143   2.943 -0.2919 -0.1196  0.2625
 3609TIP3    H110791   6.334   2.093   2.954 -0.3868  0.1339  0.7449
 3609TIP3    H210792   6.398   2.226   2.989 -0.8776  1.2083 -2.1665
 3610TIP3   OH210793   2.838   0.328   2.692 -0.1631 -0.0589 -0.5554
 3610TIP3    H110794   2.745   0.324   2.667 -0.2231  0.5493 -0.4348
 3610TIP3    H210795   2.840   0.393   2.763  0.5958  1.0917 -1.6052
 3611TIP3   OH210796   2.188   1.398   0.583  0.4164  0.3315 -0.7669
 3611TIP3    H110797   2.214   1.311   0.551 -2.4524 -0.8566 -0.1601
 3611TIP3    H210798   2.096   1.406   0.561 -0.1167  2.0619  1.6276
 3612TIP3   OH210799   5.403   4.454   0.353 -0.1074 -0.4724 -0.6552
 3612TIP3    H110800   5.413   4.547   0.370 -0.3242 -0.4789 -0.4808
 3612TIP3    H210801   5.312   4.444   0.323 -0.9046 -0.9437  1.6909
 3613TIP3   OH210802   5.800   3.406   3.327  0.3083  0.2285 -0.2866
 3613TIP3    H110803   5.830   3.318   3.351  2.1331  0.6203 -0.9667
 3613TIP3    H210804   5.810   3.409   3.232 -0.7573  0.8281 -0.3932
 3614TIP3   OH210805   1.722   1.540   4.348  0.0430 -0.2063 -0.1157
 3614TIP3    H110806   1.683   1.620   4.381 -0.8292 -1.2801  1.6690
 3614TIP3    H210807   1.663   1.470   4.378  1.8696 -1.6654  0.2882
 3615TIP3   OH210808   5.951   1.927   2.963 -0.4015 -0.4425  0.0048
 3615TIP3    H110809   5.971   2.012   2.923  0.8194  0.3332  2.0715
 3615TIP3    H210810   5.918   1.874   2.891 -0.9793  1.6977 -1.4132
 3616TIP3   OH210811   2.701   5.042   4.586 -0.3834  0.5566  0.2263
 3616TIP3    H110812   2.619   5.016   4.544  0.3449 -0.6519 -0.5246
 3616TIP3    H210813   2.723   4.969   4.644  0.6400  0.4071 -0.3222
 3617TIP3   OH210814   1.164   4.873   5.509  0.2313  0.5135 -0.4459
 3617TIP3    H110815   1.115   4.879   5.427 -0.3924 -0.8889 -0.2038
 3617TIP3    H210816   1.113   4.925   5.572  0.7387  1.6335 -0.9250
 3618TIP3   OH210817   0.832   3.041   4.092 -0.1195 -0.1486 -0.0844
 3618TIP3    H110818   0.879   3.117   4.128 -1.2864  0.7768 -0.4488
 3618TIP3    H210819   0.893   2.968   4.103  0.9311  0.7835  0.5309
 3619TIP3   OH210820   7.127   4.134   1.621  0.6301 -0.4510 -0.3787
 3619TIP3    H110821   7.094   4.109   1.535 -0.5460  1.0018 -0.4025
 3619TIP3    H210822   7.051   4.126   1.679  1.1437 -0.4064  0.3153
 3620TIP3   OH210823   6.640   4.221   3.520 -0.6961 -0.3642  0.5169
 3620TIP3    H110824   6.696   4.166   3.574  0.5202 -0.5245 -0.8499
 3620TIP3    H210825   6.562   4.167   3.504  0.0751 -1.3644 -0.0354
 3621TIP3   OH210826   5.421   6.758   1.393  0.5085  0.6444 -0.2963
 3621TIP3    H110827   5.445   6.668   1.372 -0.1111  0.0382  1.4138
 3621TIP3    H210828   5.343   6.775   1.340  0.2939 -0.0447 -0.2192
 3622TIP3   OH210829   1.884   4.730   2.360 -0.4641  0.2084  0.1234
 3622TIP3    H110830   1.910   4.650   2.315  1.5031  1.6694 -1.5274
 3622TIP3    H210831   1.959   4.752   2.415 -1.1912  0.6524  0.9554
 3623TIP3   OH210832   6.940   2.594   3.466  0.1139  0.5207  0.4354
 3623TIP3    H110833   6.881   2.540   3.413  0.6238 -0.1303  0.5224
 3623TIP3    H210834   6.996   2.638   3.401 -1.2751  2.1468  0.2728
 3624TIP3   OH210835   2.168   4.537   3.311 -0.0704 -0.4450  0.5365
 3624TIP3    H110836   2.138   4.510   3.224 -1.8981 -1.4423  1.4134
 3624TIP3    H210837   2.128   4.623   3.325 -1.4603 -1.1572  1.1422
 3625TIP3   OH210838   3.064   5.619   2.529 -0.4356  0.7967 -0.4639
 3625TIP3    H110839   3.091   5.688   2.590  0.6329  1.6195 -1.8182
 3625TIP3    H210840   3.129   5.550   2.541 -0.2291  0.9557 -0.6587
 3626TIP3   OH210841   4.486   1.165   0.737  0.0846  0.2071 -0.3928
 3626TIP3    H110842   4.430   1.099   0.778  1.6327 -0.4262  0.8378
 3626TIP3    H210843   4.427   1.218   0.683 -1.4868 -1.0675  0.0106
 3627TIP3   OH210844   5.909   0.578   3.539  0.4453  0.1974 -0.0075
 3627TIP3    H110845   5.908   0.482   3.535  0.1465  0.0948  1.7329
 3627TIP3    H210846   5.831   0.601   3.589  1.5597  1.2276  1.3424
 3628TIP3   OH210847   7.090   2.055   5.345  0.0593  0.1010 -0.6528
 3628TIP3    H110848   7.103   2.145   5.374  0.0066  0.0836 -0.5723
 3628TIP3    H210849   7.055   2.062   5.257  0.0116  0.1607 -0.6290
 3629TIP3   OH210850   3.760   5.306   0.348  0.0861 -0.0772 -0.1724
 3629TIP3    H110851   3.687   5.314   0.409  0.5708  1.4846  0.2666
 3629TIP3    H210852   3.731   5.241   0.284 -1.2484 -0.2721  0.5924
 3630TIP3   OH210853   0.913   1.963   2.444 -0.4846 -0.0216  0.8196
 3630TIP3    H110854   0.955   1.887   2.403 -3.0314 -1.5358  0.8010
 3630TIP3    H210855   0.854   1.997   2.377  1.0012  2.4061  0.6325
 3631TIP3   OH210856   6.336   5.757   5.130  0.3007  0.3375 -0.1886
 3631TIP3    H110857   6.274   5.696   5.089  2.5067 -2.0197 -0.2424
 3631TIP3    H210858   6.384   5.795   5.056  0.2011  0.7277 -0.0555
 3632TIP3   OH210859   4.184   6.118   3.438 -0.2195 -0.2458  0.3690
 3632TIP3    H110860   4.177   6.187   3.373  2.2731  1.1819  1.4254
 3632TIP3    H210861   4.129   6.047   3.406  1.1498  0.2282 -3.4542
 3633TIP3   OH210862   0.038   0.854   1.858 -1.0181 -0.2652 -0.4189
 3633TIP3    H110863   0.061   0.765   1.829 -0.7634 -0.2237 -0.3471
 3633TIP3    H210864   0.122   0.899   1.866 -0.7371 -1.1455  3.3618
 3634TIP3   OH210865   3.452   1.861   3.928  0.5324 -0.3553 -0.1554
 3634TIP3    H110866   3.486   1.873   3.840  2.0089  1.2127  0.5627
 3634TIP3    H210867   3.454   1.949   3.967 -0.7250 -0.8947  1.2202
 3635TIP3   OH210868   1.848   6.443   1.194  0.5369 -0.6929 -0.0177
 3635TIP3    H110869   1.910   6.516   1.194 -1.2213  0.8729 -0.3467
 3635TIP3    H210870   1.845   6.414   1.285  0.4697  0.3843  0.3411
 3636TIP3   OH210871   2.616   0.064   0.660 -0.1086  0.0780  0.3125
 3636TIP3    H110872   2.679  -0.009   0.662  1.1122  0.9476 -2.4340
 3636TIP3    H210873   2.608   0.087   0.568 -1.6598  2.4498  0.9441
 3637TIP3   OH210874   6.334   6.302   1.239 -0.3111 -0.7375 -0.3269
 3637TIP3    H110875   6.310   6.392   1.259  0.4124 -0.8142  1.0007
 3637TIP3    H210876   6.250   6.258   1.223 -0.9692 -0.4901  1.9793
 3638TIP3   OH210877   5.500   2.767   2.142  0.3969 -0.1866  0.2135
 3638TIP3    H110878   5.436   2.740   2.075  1.9973 -0.4665 -1.2824
 3638TIP3    H210879   5.470   2.853   2.170  0.7775  0.9417 -2.4784
 3639TIP3   OH210880   5.978   2.609   5.861 -0.0372  0.0876 -0.0717
 3639TIP3    H110881   6.019   2.585   5.777  1.5644  1.7565  0.1754
 3639TIP3    H210882   5.906   2.667   5.837 -0.3367 -0.3872 -0.3414
 3640TIP3   OH210883   1.661   2.736   1.402 -0.1448 -0.3882  0.4199
 3640TIP3    H110884   1.598   2.665   1.407 -1.7316  0.7055 -2.2148
 3640TIP3    H210885   1.619   2.810   1.446  0.0841 -0.1715  0.2845
 3641TIP3   OH210886   5.674   4.249   0.035  0.7604 -0.2701 -0.4428
 3641TIP3    H110887   5.760   4.234  -0.006 -0.2551  0.1557 -2.9298
 3641TIP3    H210888   5.616   4.186  -0.008 -0.4268  0.3096  0.2728
 3642TIP3   OH210889   3.231   1.666   1.121  0.8375 -0.3002  0.6847
 3642TIP3    H110890   3.227   1.601   1.191  0.4933 -0.5018  0.4864
 3642TIP3    H210891   3.230   1.750   1.166  1.2969 -0.4304  0.9454
 3643TIP3   OH210892   1.076   0.114   3.117  0.0590 -0.1013 -0.6780
 3643TIP3    H110893   1.028   0.186   3.077 -1.8098 -0.6740  0.4254
 3643TIP3    H210894   1.059   0.039   3.060 -0.3468 -0.2904 -0.3188
 3644TIP3   OH210895   4.629   4.042   4.430 -0.1403  0.4241  0.5334
 3644TIP3    H110896   4.608   3.976   4.496 -2.4452 -0.6383 -1.0852
 3644TIP3    H210897   4.713   4.013   4.393  0.0548 -0.2330  1.4575
 3645TIP3   OH210898   4.763   2.580   2.286 -0.3207  0.0409  0.3267
 3645TIP3    H110899   4.852   2.545   2.293 -1.2052 -2.5676 -0.4746
 3645TIP3    H210900   4.720   2.554   2.367 -0.7617  0.0461  0.1002
 3646TIP3   OH210901   3.817   1.345   2.017 -0.8039 -0.1188 -0.5157
 3646TIP3    H110902   3.782   1.433   2.001  0.5153  0.3416 -0.9764
 3646TIP3    H210903   3.823   1.305   1.930 -0.6248 -0.3547 -0.3955
 3647TIP3   OH210904   0.913   4.380   1.683  0.2809  0.1614 -0.1342
 3647TIP3    H110905   0.996   4.416   1.652 -0.8213  1.5847 -1.5858
 3647TIP3    H210906   0.888   4.316   1.617  0.2006 -0.2559  0.2912
 3648TIP3   OH210907   2.581   4.862   2.957 -0.0338  0.1332  0.5305
 3648TIP3    H110908   2.533   4.884   2.877 -1.2155 -0.2806  1.1086
 3648TIP3    H210909   2.630   4.783   2.935  0.8214  0.8564 -0.2262
 3649TIP3   OH210910   3.336   3.449   3.632 -0.3626  0.2056  0.8624
 3649TIP3    H110911   3.368   3.538   3.621 -0.3872  0.0231 -0.9248
 3649TIP3    H210912   3.412   3.399   3.661  0.4212  0.2586 -0.9804
 3650TIP3   OH210913   1.273   0.276   2.148  0.1809  0.0259  0.3474
 3650TIP3    H110914   1.291   0.313   2.234 -0.4803  0.3747  0.3397
 3650TIP3    H210915   1.220   0.342   2.103 -2.0462 -1.3886  0.7655
 3651TIP3   OH210916   5.710   4.372   4.791  0.4246 -0.4583  0.5613
 3651TIP3    H110917   5.799   4.339   4.802  0.2041 -1.2149  0.1411
 3651TIP3    H210918   5.680   4.334   4.708 -0.5712 -0.8439  1.0870
 3652TIP3   OH210919   6.914   4.293   0.025 -0.4973 -0.3092  0.2880
 3652TIP3    H110920   6.995   4.329  -0.009  0.3243  1.2831  3.5525
 3652TIP3    H210921   6.940   4.241   0.101 -2.4201 -1.3131  0.3507
 3653TIP3   OH210922   4.026   5.352   1.312  0.0428  0.2779 -0.6281
 3653TIP3    H110923   3.972   5.386   1.383  1.8074 -1.1144  1.5114
 3653TIP3    H210924   4.029   5.423   1.248  0.5015  2.6873  1.8737
 3654TIP3   OH210925   1.317   5.257   1.886  0.1091  0.3551  0.2193
 3654TIP3    H110926   1.371   5.249   1.808 -1.7117 -1.0204 -0.9954
 3654TIP3    H210927   1.303   5.351   1.896  1.7249  0.6589 -0.0874
 3655TIP3   OH210928   2.719   0.208   4.330  0.1234  0.2239  0.4938
 3655TIP3    H110929   2.746   0.153   4.404 -0.2473  0.8021  1.0723
 3655TIP3    H210930   2.796   0.212   4.274  0.7668  0.6284  1.3687
 3656TIP3   OH210931   1.219   2.114   4.199 -0.4379 -0.1746  0.3556
 3656TIP3    H110932   1.159   2.097   4.272 -0.3473  1.9166  1.0027
 3656TIP3    H210933   1.304   2.080   4.229 -0.4426  0.4986  1.1785
 3657TIP3   OH210934   5.096   5.633   0.116 -0.5998 -0.2226  0.3853
 3657TIP3    H110935   5.042   5.595   0.047 -0.1889 -1.1940  0.5913
 3657TIP3    H210936   5.143   5.559   0.154  0.8881  0.5998  0.2108
 3658TIP3   OH210937   3.359   0.864   4.515  0.1842 -0.0720  0.1037
 3658TIP3    H110938   3.395   0.943   4.555  0.1641 -0.5478  1.0849
 3658TIP3    H210939   3.346   0.804   4.588 -0.0491 -0.8898 -0.5952
 3659TIP3   OH210940   6.006   6.378   4.153  0.1473 -0.6116  0.1924
 3659TIP3    H110941   5.954   6.444   4.107 -0.1844 -1.2327 -0.3398
 3659TIP3    H210942   6.080   6.426   4.189  0.3994 -0.0971 -0.9688
 3660TIP3   OH210943   6.974   6.704   4.449  0.4386  0.0519 -0.2853
 3660TIP3    H110944   7.047   6.765   4.467  0.8669 -0.4474 -0.3123
 3660TIP3    H210945   6.896   6.751   4.479  0.8940  0.1120  0.8616
 3661TIP3   OH210946   6.956   2.717   0.086 -0.0844  0.1538  0.0903
 3661TIP3    H110947   7.003   2.793   0.053 -1.8946  1.0267 -0.6192
 3661TIP3    H210948   6.956   2.655   0.014  1.3955 -0.5828  0.6704
 3662TIP3   OH210949   4.732   0.492   4.084 -0.1607 -0.4090 -0.1402
 3662TIP3    H110950   4.753   0.399   4.071  0.4837 -0.2013 -0.6189
 3662TIP3    H210951   4.641   0.492   4.113 -0.4288 -1.1401 -0.9360
 3663TIP3   OH210952   2.259   5.880   1.201 -0.1278  0.4628  0.0138
 3663TIP3    H110953   2.354   5.866   1.208 -0.3585 -0.4933  1.7976
 3663TIP3    H210954   2.221   5.792   1.208 -1.0964  0.1921 -4.7968
 3664TIP3   OH210955   2.280   5.738   2.803 -0.2178  0.7774  0.1820
 3664TIP3    H110956   2.235   5.779   2.877  0.9885  0.7981  0.9221
 3664TIP3    H210957   2.357   5.696   2.842 -0.7579 -1.1622 -0.7170
 3665TIP3   OH210958   7.062   2.953   1.935 -0.2563 -0.7828 -0.4660
 3665TIP3    H110959   7.001   2.946   2.009 -1.3103 -0.3652 -1.2746
 3665TIP3    H210960   7.067   3.047   1.916 -0.4667 -0.9400 -1.3142
 3666TIP3   OH210961   6.674   0.617   2.474  0.2610  0.3545  0.4340
 3666TIP3    H110962   6.750   0.598   2.529  0.4838 -1.0189 -0.3209
 3666TIP3    H210963   6.598   0.593   2.528  0.4740 -0.9203  0.1818
 3667TIP3   OH210964   4.228   2.084   3.287 -0.6092 -0.4650 -0.4096
 3667TIP3    H110965   4.188   2.030   3.355  0.2737  1.3820  1.7148
 3667TIP3    H210966   4.314   2.108   3.323  0.9055 -1.2566 -3.1874
 3668TIP3   OH210967   1.113   2.620   4.583 -0.3118  0.1150 -0.1316
 3668TIP3    H110968   1.069   2.645   4.664  1.1508  0.8064  0.4702
 3668TIP3    H210969   1.055   2.653   4.514 -2.0747 -1.3284  0.5517
 3669TIP3   OH210970   6.213   2.322   5.404  0.2099  0.0649 -0.4118
 3669TIP3    H110971   6.282   2.317   5.470 -0.1376  0.5543 -0.0007
 3669TIP3    H210972   6.260   2.339   5.322  0.7058 -1.3780 -0.4445
 3670TIP3   OH210973   6.146   4.183   3.531 -0.1757 -0.2222  0.6571
 3670TIP3    H110974   6.125   4.229   3.449  1.0253  0.3720  0.6594
 3670TIP3    H210975   6.155   4.091   3.505 -0.5833 -0.1581  0.2726
 3671TIP3   OH210976   7.166   3.912   5.299 -0.2425  0.0531  0.1930
 3671TIP3    H110977   7.156   3.869   5.214  0.7609 -1.8762  0.9835
 3671TIP3    H210978   7.129   3.850   5.362  1.3665  0.2452  1.4071
 3672TIP3   OH210979   4.699   4.670   5.110  0.3108 -0.0426 -0.6902
 3672TIP3    H110980   4.794   4.675   5.121  0.3641  0.4342 -1.2970
 3672TIP3    H210981   4.681   4.577   5.097  0.7462 -0.0913 -0.9771
 3673TIP3   OH210982   1.561   4.081   3.783  0.3316  0.0893  0.3185
 3673TIP3    H110983   1.631   4.017   3.770  0.5099  0.5150 -0.9601
 3673TIP3    H210984   1.505   4.070   3.706 -0.0221  0.9882  0.4421
 3674TIP3   OH210985   2.217   6.425   4.267  0.2305  0.0753  0.2121
 3674TIP3    H110986   2.269   6.368   4.210  0.5447 -0.7098  1.2499
 3674TIP3    H210987   2.260   6.510   4.262  2.5579 -0.8791  2.1386
 3675TIP3   OH210988   0.316   0.423   4.628 -0.0448  0.2987  0.2894
 3675TIP3    H110989   0.338   0.506   4.584  1.0617  0.2865  0.7904
 3675TIP3    H210990   0.339   0.356   4.564 -1.3732  0.3713 -0.2962
 3676TIP3   OH210991   3.292   6.450   2.273  1.0628 -0.2320  0.3280
 3676TIP3    H110992   3.338   6.418   2.195 -1.1162  1.7349 -1.9414
 3676TIP3    H210993   3.258   6.371   2.315  0.2625 -1.2706 -2.1083
 3677TIP3   OH210994   7.168   3.869   1.403  0.0288 -0.5269 -0.7676
 3677TIP3    H110995   7.249   3.817   1.399  0.8693  0.6333  0.2791
 3677TIP3    H210996   7.168   3.919   1.322  1.6214  1.1914  0.2237
 3678TIP3   OH210997   6.294   4.712   3.811 -0.4458 -0.4429 -0.2589
 3678TIP3    H110998   6.211   4.670   3.789 -0.0164 -1.6532  0.3774
 3678TIP3    H210999   6.318   4.674   3.895  1.3216 -0.9626 -0.9670
 3679TIP3   OH211000   0.142   2.629   4.256 -0.1595  0.2461 -0.0685
 3679TIP3    H111001   0.235   2.652   4.257  0.3825 -1.7432  1.5512
 3679TIP3    H211002   0.122   2.610   4.164  1.7580 -1.8693 -0.1281
 3680TIP3   OH211003   2.452   1.995   5.476 -0.4407  0.4743 -0.4591
 3680TIP3    H111004   2.395   1.922   5.453  1.6948 -1.4929  0.0791
 3680TIP3    H211005   2.494   2.019   5.394  1.9610 -1.8440 -0.0589
 3681TIP3   OH211006   1.356   3.782   0.645 -0.3582  0.4338  0.1713
 3681TIP3    H111007   1.326   3.813   0.559 -0.6985 -0.0973  0.0950
 3681TIP3    H211008   1.399   3.699   0.627 -1.4744 -0.2736  0.6559
 3682TIP3   OH211009   6.379   0.143   3.097  0.2965  0.2944  0.3153
 3682TIP3    H111010   6.296   0.095   3.105 -1.4092  3.1048  1.0400
 3682TIP3    H211011   6.372   0.186   3.011  1.8505 -0.7628 -0.3874
 3683TIP3   OH211012   4.078   2.227   3.680  0.4483  0.2275 -0.1141
 3683TIP3    H111013   4.072   2.280   3.600 -0.2786  1.0918  0.4830
 3683TIP3    H211014   4.136   2.277   3.737 -1.6035  1.3653  1.1282
 3684TIP3   OH211015   1.030   3.907   3.144 -0.5347  0.5033  0.5216
 3684TIP3    H111016   0.944   3.903   3.185 -1.0369  1.0169 -0.4434
 3684TIP3    H211017   1.055   3.999   3.148 -0.4164  0.4944  0.0468
 3685TIP3   OH211018   4.368   3.153   3.413 -0.4186 -0.0784 -0.3256
 3685TIP3    H111019   4.352   3.098   3.336 -1.7733 -0.1161 -0.0405
 3685TIP3    H211020   4.332   3.103   3.486 -0.6018  0.6787  0.1085
 3686TIP3   OH211021   6.027   2.123   5.245  0.2647 -0.4494 -0.3836
 3686TIP3    H111022   6.101   2.086   5.294  0.8567 -0.8027 -1.5259
 3686TIP3    H211023   5.961   2.141   5.312  1.4214 -0.0229  0.6826
 3687TIP3   OH211024   0.012   2.050   3.229  0.1927 -1.2317  0.8111
 3687TIP3    H111025  -0.034   2.110   3.288  0.8609  1.4316 -1.1684
 3687TIP3    H211026   0.103   2.052   3.259  0.7709  1.0275 -0.7949
 3688TIP3   OH211027   4.937   4.599   4.579  0.1469 -0.1769 -0.5356
 3688TIP3    H111028   4.971   4.686   4.598 -1.5295  0.6989 -1.4378
 3688TIP3    H211029   4.904   4.567   4.663  0.0202  0.3925 -0.3667
 3689TIP3   OH211030   0.273   5.530   4.119  0.5045 -0.7125 -0.5294
 3689TIP3    H111031   0.240   5.457   4.066 -0.1745  0.2181 -1.4240
 3689TIP3    H211032   0.244   5.509   4.208 -0.6412 -1.0141 -0.9499
 3690TIP3   OH211033   6.022   2.788   1.934 -0.2445 -0.0156  0.1260
 3690TIP3    H111034   6.025   2.883   1.939  0.6408 -0.0775  1.1442
 3690TIP3    H211035   6.114   2.761   1.937 -0.4709 -0.9000 -0.4322
 3691TIP3   OH211036   4.073   3.215   3.439  0.5367 -0.7598  0.1041
 3691TIP3    H111037   4.116   3.269   3.373  0.4857 -0.3128  0.4281
 3691TIP3    H211038   4.076   3.268   3.519 -0.4278 -0.8090  0.1809
 3692TIP3   OH211039   2.823   0.423   4.654  0.3610  0.5549 -0.5711
 3692TIP3    H111040   2.880   0.469   4.593 -0.2970  1.7941 -0.2789
 3692TIP3    H211041   2.736   0.461   4.640 -0.0122  0.1022  0.3749
 3693TIP3   OH211042   6.405   0.485   1.336  0.5635  0.5931 -0.9536
 3693TIP3    H111043   6.346   0.434   1.392  0.3928  1.1201 -0.6511
 3693TIP3    H211044   6.402   0.440   1.252  0.7462 -0.1538 -0.5767
 3694TIP3   OH211045   5.441   2.743   4.861  0.4124 -0.4188 -0.0769
 3694TIP3    H111046   5.405   2.817   4.813 -1.0392 -1.0157  0.0351
 3694TIP3    H211047   5.428   2.765   4.954 -1.6006 -1.4917 -0.0461
 3695TIP3   OH211048   6.809   3.228   2.151 -0.4327 -0.1181 -0.3754
 3695TIP3    H111049   6.714   3.238   2.157 -0.6355 -2.3085  1.1131
 3695TIP3    H211050   6.823   3.133   2.147  1.7033  0.1489 -0.2704
 3696TIP3   OH211051   6.229   1.285   2.717  0.3293 -0.0045 -0.2989
 3696TIP3    H111052   6.270   1.200   2.702  1.6775  0.2678  1.4685
 3696TIP3    H211053   6.144   1.265   2.755  0.2562 -0.5704 -0.7550
 3697TIP3   OH211054   4.811   2.170   4.016 -0.2218  0.0284  0.0617
 3697TIP3    H111055   4.747   2.099   4.013 -1.2757  0.8026  2.2475
 3697TIP3    H211056   4.864   2.151   4.094  2.1830 -0.4942 -1.5948
 3698TIP3   OH211057   1.772   4.648   2.836  0.1104 -0.1894  0.3749
 3698TIP3    H111058   1.716   4.571   2.836 -0.8878  0.5075 -0.8217
 3698TIP3    H211059   1.823   4.641   2.917 -1.7138 -0.8275  1.5153
 3699TIP3   OH211060   5.696   4.638   4.655  0.0767  0.4603  0.0364
 3699TIP3    H111061   5.615   4.588   4.641 -0.8971  1.0109  2.8860
 3699TIP3    H211062   5.757   4.574   4.692  0.4161  0.4101 -0.5942
 3700TIP3   OH211063   3.615   5.365   0.574 -0.4388 -0.6731  0.0664
 3700TIP3    H111064   3.683   5.411   0.623 -1.8307  1.8233 -0.1449
 3700TIP3    H211065   3.562   5.321   0.641 -2.1046  2.3949  0.9521
 3701TIP3   OH211066   1.988   3.714   5.654 -0.2939  0.0368  0.0727
 3701TIP3    H111067   1.917   3.778   5.656 -0.2140  0.1113  1.7408
 3701TIP3    H211068   2.068   3.767   5.640 -0.4984 -0.0387 -1.6965
 3702TIP3   OH211069   5.556   0.883   2.046  0.3513 -0.6779 -0.0647
 3702TIP3    H111070   5.553   0.909   1.955  2.1047 -0.9489 -0.2434
 3702TIP3    H211071   5.627   0.818   2.050  0.7163 -0.2310  1.5785
 3703TIP3   OH211072   1.210   0.273   3.805 -0.1652 -0.0428 -0.2167
 3703TIP3    H111073   1.209   0.338   3.875 -0.7796 -0.9374  0.6404
 3703TIP3    H211074   1.302   0.251   3.794  0.1978  1.8700 -1.4128
 3704TIP3   OH211075   3.946   1.364   3.407  0.0799  0.5195 -0.3294
 3704TIP3    H111076   3.887   1.401   3.341  0.9868  1.1859 -0.8037
 3704TIP3    H211077   4.010   1.314   3.355 -0.8025 -1.2866  0.2651
 3705TIP3   OH211078   2.691   0.600   2.862 -0.0391  0.4125 -0.7023
 3705TIP3    H111079   2.746   0.524   2.884 -0.5562  0.6735  1.7760
 3705TIP3    H211080   2.603   0.574   2.887 -0.4750  1.2858 -1.2973
 3706TIP3   OH211081   6.554   4.423   2.741  0.2216 -0.0286  0.3884
 3706TIP3    H111082   6.613   4.481   2.787 -0.0454  1.1646 -0.7188
 3706TIP3    H211083   6.570   4.440   2.648  0.9104 -2.5171 -0.0431
 3707TIP3   OH211084   3.299   2.059   1.570 -0.1312  0.0563 -0.6367
 3707TIP3    H111085   3.247   2.080   1.648  2.1452  0.8507  0.7814
 3707TIP3    H211086   3.338   1.974   1.590 -0.5471 -0.3572 -1.5156
 3708TIP3   OH211087   2.316   1.739   4.900 -0.4993 -0.0442 -0.3879
 3708TIP3    H111088   2.360   1.770   4.821 -1.8647 -0.2718 -1.2654
 3708TIP3    H211089   2.234   1.701   4.869 -0.9453 -0.3862  1.1161
 3709TIP3   OH211090   5.365   5.171   1.969 -0.2149  0.4089 -0.2454
 3709TIP3    H111091   5.389   5.102   1.908  1.3177  2.0983 -1.6763
 3709TIP3    H211092   5.344   5.246   1.913 -1.4865  1.2336  1.2555
 3710TIP3   OH211093   0.849   6.648   5.402  0.7232 -0.0948  0.0883
 3710TIP3    H111094   0.911   6.595   5.451 -0.0187 -0.0355  1.1141
 3710TIP3    H211095   0.833   6.597   5.322 -1.1150 -2.2378  1.6978
 3711TIP3   OH211096   4.049   3.098   5.422  0.0988  0.1519 -0.8665
 3711TIP3    H111097   3.999   3.175   5.449  2.2696  0.4715  2.9734
 3711TIP3    H211098   3.998   3.024   5.454  0.0438  0.2368 -0.7551
 3712TIP3   OH211099   1.065   5.162   4.901 -0.3061  0.7998 -0.4899
 3712TIP3    H111100   1.039   5.124   4.985  0.3717 -0.3333 -0.7744
 3712TIP3    H211101   1.049   5.256   4.911 -0.7593  0.6077  0.7039
 3713TIP3   OH211102   4.969   1.520   1.077  0.4718 -0.0083 -0.0038
 3713TIP3    H111103   5.019   1.552   1.002 -0.3237  0.1483 -0.4777
 3713TIP3    H211104   4.948   1.429   1.054  0.9918 -0.2504  0.4405
 3714TIP3   OH211105   4.769   0.274   2.602 -0.1980  0.2308 -0.3677
 3714TIP3    H111106   4.782   0.251   2.694 -0.8150 -0.1960 -0.3777
 3714TIP3    H211107   4.691   0.225   2.576 -1.5402  2.2206 -0.4077
 3715TIP3   OH211108   4.543   1.022   0.266 -0.6579  0.2509 -0.0283
 3715TIP3    H111109   4.587   0.962   0.325 -0.0320  1.7824  1.1436
 3715TIP3    H211110   4.540   1.105   0.314 -0.5154  1.4500 -1.9717
 3716TIP3   OH211111   7.042   4.147   2.819 -0.5135 -0.3792 -0.5748
 3716TIP3    H111112   7.072   4.237   2.836 -2.2203  0.0938  0.1085
 3716TIP3    H211113   7.057   4.101   2.902 -0.2541 -0.5573 -0.7197
 3717TIP3   OH211114   4.899   4.315   2.720 -0.0131  0.1126 -0.0170
 3717TIP3    H111115   4.974   4.255   2.707  0.4711  0.8761 -0.8543
 3717TIP3    H211116   4.824   4.267   2.683  0.0400 -0.6838  0.8778
 3718TIP3   OH211117   4.048   3.273   4.057 -0.4267  0.2261 -0.1468
 3718TIP3    H111118   4.026   3.355   4.102  1.1566  0.1853  0.7534
 3718TIP3    H211119   3.993   3.208   4.100  1.0032  0.2012  1.7841
 3719TIP3   OH211120   2.306   4.104   3.164 -0.3407  0.2881 -0.1137
 3719TIP3    H111121   2.245   4.170   3.131  0.6871  0.7439 -1.1740
 3719TIP3    H211122   2.307   4.036   3.097 -0.6431 -0.3467  0.5096
 3720TIP3   OH211123   4.002   5.096   4.804 -0.3811  0.2137  0.1635
 3720TIP3    H111124   3.993   5.157   4.877 -0.7812  0.7689 -0.3385
 3720TIP3    H211125   3.995   5.009   4.844  2.1746  0.3833  1.1884
 3721TIP3   OH211126   4.249   4.363   0.281  1.0021  0.2488 -0.0724
 3721TIP3    H111127   4.312   4.432   0.302  2.5978 -1.0680 -0.3488
 3721TIP3    H211128   4.296   4.306   0.221 -0.9069 -0.1328 -1.2741
 3722TIP3   OH211129   0.997   1.787   1.445 -0.0093  0.1770  0.4114
 3722TIP3    H111130   1.023   1.876   1.471  0.4488  0.4841 -1.0065
 3722TIP3    H211131   1.000   1.788   1.349  1.6759 -1.8719  0.3776
 3723TIP3   OH211132   3.510   4.047   0.640  0.1637  0.0338 -0.7853
 3723TIP3    H111133   3.438   3.993   0.672 -1.1814  0.9363 -2.1590
 3723TIP3    H211134   3.583   4.028   0.700 -1.2860 -0.6826  0.8330
 3724TIP3   OH211135   2.060   4.970   2.687 -0.3246 -0.2320 -0.6309
 3724TIP3    H111136   2.127   5.038   2.698 -1.1726  0.2840  2.1467
 3724TIP3    H211137   2.097   4.911   2.622  1.0262  2.1651 -2.2111
 3725TIP3   OH211138   0.745   1.489   0.981  0.4748  0.0676 -0.0621
 3725TIP3    H111139   0.824   1.503   1.032 -0.3284  2.0975  0.7052
 3725TIP3    H211140   0.679   1.461   1.045 -0.0559  0.7987 -0.2755
 3726TIP3   OH211141   0.696   1.510   4.452 -0.4105 -0.2009  0.2460
 3726TIP3    H111142   0.659   1.510   4.364 -0.4507 -0.3171  0.2626
 3726TIP3    H211143   0.622   1.485   4.508 -0.1507 -1.0886  0.2143
 3727TIP3   OH211144   5.755   1.859   2.456 -0.2929  0.1247 -0.1744
 3727TIP3    H111145   5.667   1.868   2.491 -0.9752  1.1726 -2.0245
 3727TIP3    H211146   5.812   1.863   2.532 -1.7976  0.0886  0.9972
 3728TIP3   OH211147   2.491   1.996   3.870 -0.8099 -0.0486  0.2039
 3728TIP3    H111148   2.534   2.017   3.953 -0.8957 -0.3213  0.3170
 3728TIP3    H211149   2.420   1.937   3.894 -0.9507  0.0212 -0.0419
 3729TIP3   OH211150   0.251   2.760   3.028 -0.4001  0.7025  0.1169
 3729TIP3    H111151   0.346   2.748   3.031 -0.4013  0.4326 -0.7243
 3729TIP3    H211152   0.220   2.729   3.113  0.2332  0.5213  0.2867
 3730TIP3   OH211153   2.449   6.503   0.766 -0.4370 -0.5396 -0.1278
 3730TIP3    H111154   2.391   6.452   0.823 -0.8761  0.3588  0.2592
 3730TIP3    H211155   2.398   6.518   0.687 -0.2141 -0.9146 -0.3425
 3731TIP3   OH211156   5.431   5.809   5.562  0.5531  0.6741  0.4489
 3731TIP3    H111157   5.435   5.731   5.618 -0.2826  0.6662  0.5086
 3731TIP3    H211158   5.368   5.786   5.494  2.3064  0.2936 -1.1320
 3732TIP3   OH211159   3.496   0.758   3.595  0.4212 -0.1369 -0.2848
 3732TIP3    H111160   3.516   0.849   3.571 -0.8351  0.3740  0.5194
 3732TIP3    H211161   3.471   0.716   3.513 -0.6057  0.7005 -0.4176
 3733TIP3   OH211162   0.487   0.983   0.318 -0.0356  0.2426 -0.1019
 3733TIP3    H111163   0.568   1.031   0.336 -0.3631  0.2811  1.3875
 3733TIP3    H211164   0.417   1.044   0.342 -0.4667 -0.4907  0.5888
 3734TIP3   OH211165   3.296   0.541   3.497  0.3232  0.0312  0.0441
 3734TIP3    H111166   3.210   0.500   3.499  0.7688 -0.9580 -0.0916
 3734TIP3    H211167   3.332   0.516   3.412  0.4919  0.9805 -0.1690
 3735TIP3   OH211168   5.131   6.079   4.980 -0.3943 -1.0059  0.1802
 3735TIP3    H111169   5.206   6.115   5.028 -0.8865  0.9528 -0.4459
 3735TIP3    H211170   5.170   6.030   4.908  0.3166  0.2203 -0.2999
 3736TIP3   OH211171   5.092   5.072   5.674  0.4099  0.1881 -0.0371
 3736TIP3    H111172   5.156   5.127   5.630  1.1162  0.1634  0.9344
 3736TIP3    H211173   5.074   5.002   5.612  0.5396  0.7615 -0.7314
 3737TIP3   OH211174   6.839   6.532   3.433  0.1931  0.0715  0.0843
 3737TIP3    H111175   6.751   6.561   3.405  0.3495  0.4918  0.0103
 3737TIP3    H211176   6.828   6.505   3.524  0.1213  0.7874  0.2973
 3738TIP3   OH211177   7.192   0.652   4.846 -0.2440  0.1513  0.7420
 3738TIP3    H111178   7.240   0.704   4.782  1.1590 -3.7381 -1.7507
 3738TIP3    H211179   7.104   0.691   4.848  0.4983  2.1428 -1.3700
 3739TIP3   OH211180   4.493   2.196   4.699  0.1767 -0.1789  0.1690
 3739TIP3    H111181   4.499   2.116   4.751  0.3893  1.1984  2.3976
 3739TIP3    H211182   4.427   2.249   4.745 -0.2194  0.7988 -1.4521
 3740TIP3   OH211183   5.153   4.632   1.519  0.4333 -0.0331  0.0938
 3740TIP3    H111184   5.222   4.665   1.462 -0.7537  1.6999 -0.4153
 3740TIP3    H211185   5.101   4.709   1.543 -2.4988 -1.4435 -1.1340
 3741TIP3   OH211186   1.503   5.201   0.465 -0.0198  0.0389  0.2499
 3741TIP3    H111187   1.478   5.193   0.557 -1.1376 -0.8325 -0.1069
 3741TIP3    H211188   1.548   5.286   0.459 -0.9356  0.6194  1.3663
 3742TIP3   OH211189   4.481   3.117   5.382 -0.0217  0.3816  0.1743
 3742TIP3    H111190   4.537   3.078   5.449  0.9659  0.3674 -0.6359
 3742TIP3    H211191   4.426   3.180   5.430 -0.1843 -0.4880  1.1673
 3743TIP3   OH211192   2.576   2.838   2.031 -0.3982  0.6333 -0.0050
 3743TIP3    H111193   2.528   2.893   2.092  0.7221  0.0956  1.4092
 3743TIP3    H211194   2.658   2.817   2.076 -0.3835 -1.4170 -0.8651
 3744TIP3   OH211195   1.293   1.034   3.398  0.1522 -0.1609  0.0521
 3744TIP3    H111196   1.206   0.995   3.396 -0.0145  0.1636  0.7509
 3744TIP3    H211197   1.290   1.104   3.332 -0.9610  1.5684  1.8391
 3745TIP3   OH211198   6.872   2.397   3.699  0.0502  0.0177 -0.2855
 3745TIP3    H111199   6.870   2.331   3.769 -0.4086 -0.6970 -0.9494
 3745TIP3    H211200   6.782   2.401   3.668  0.5204 -0.9110 -1.9339
 3746TIP3   OH211201   4.634   0.826   1.950  0.1810  0.0355 -0.0244
 3746TIP3    H111202   4.693   0.750   1.943  1.4210  0.9808 -0.1464
 3746TIP3    H211203   4.632   0.863   1.862 -2.1607 -1.0564 -0.5182
 3747TIP3   OH211204   1.577   3.878   5.650  0.4389  0.8026 -0.0611
 3747TIP3    H111205   1.598   3.886   5.743 -2.1485 -0.0417  0.6559
 3747TIP3    H211206   1.555   3.967   5.623  1.0159  1.0161  0.1432
 3748TIP3   OH211207   5.162   0.714   0.158  0.4733 -0.1457 -0.3812
 3748TIP3    H111208   5.251   0.698   0.191  0.1832  1.1571  1.1731
 3748TIP3    H211209   5.110   0.728   0.237 -0.7948  0.6641 -1.3259
 3749TIP3   OH211210   1.855   3.486   2.787 -0.2134  0.3536  0.2064
 3749TIP3    H111211   1.892   3.563   2.743  0.0654  0.5313  0.7403
 3749TIP3    H211212   1.915   3.469   2.860 -0.9798  0.4311  0.8759
 3750TIP3   OH211213   3.379   3.905   5.656  0.6605 -0.3321  0.2132
 3750TIP3    H111214   3.300   3.857   5.681  0.4715 -1.4560 -2.2696
 3750TIP3    H211215   3.448   3.867   5.711 -0.0131 -1.4063  0.3481
 3751TIP3   OH211216   4.526   1.761   1.876 -0.1643 -0.7693  0.2369
 3751TIP3    H111217   4.609   1.807   1.867 -0.6469 -0.0029 -0.5306
 3751TIP3    H211218   4.517   1.712   1.794 -1.2300  0.4857 -0.4367
 3752TIP3   OH211219   1.808   0.857   2.597 -0.1777 -0.6763 -0.1421
 3752TIP3    H111220   1.891   0.887   2.634  0.5850 -2.2409 -0.4800
 3752TIP3    H211221   1.747   0.861   2.670 -0.2223  1.8616 -0.2371
 3753TIP3   OH211222   6.161   6.135   3.685  0.1689  0.2950 -0.1208
 3753TIP3    H111223   6.211   6.206   3.723  1.0217 -0.2433 -0.2138
 3753TIP3    H211224   6.075   6.173   3.667  0.3163  1.0344  0.6846
 3754TIP3   OH211225   5.986   6.379   1.590  0.3528 -0.0499 -0.0280
 3754TIP3    H111226   5.944   6.466   1.587  1.6788  0.5944 -0.4844
 3754TIP3    H211227   5.913   6.318   1.581 -0.4426  1.0569 -1.6788
 3755TIP3   OH211228   1.679   5.969   0.639  0.8228  0.4462 -0.6653
 3755TIP3    H111229   1.622   5.905   0.596  0.3514 -1.8472  2.9687
 3755TIP3    H211230   1.767   5.932   0.630  1.0186  1.0353 -1.3185
 3756TIP3   OH211231   2.976   1.886   5.492  0.1571  0.0907  0.0797
 3756TIP3    H111232   2.899   1.930   5.529 -0.7759 -0.3616 -1.2472
 3756TIP3    H211233   2.972   1.906   5.398  0.3539 -1.8239 -0.3836
 3757TIP3   OH211234   4.929   1.397   5.703  0.1839  0.5119 -0.4139
 3757TIP3    H111235   4.863   1.382   5.636  0.3242  0.4253 -0.5329
 3757TIP3    H211236   4.889   1.460   5.763 -0.8469 -1.1472  0.7149
 3758TIP3   OH211237   6.828   4.843   0.575 -0.1647  0.4755 -0.0418
 3758TIP3    H111238   6.780   4.880   0.500 -1.8086 -0.2854  0.5777
 3758TIP3    H211239   6.889   4.912   0.601 -2.4944  2.4791  0.5114
 3759TIP3   OH211240   0.087   0.901   0.596  0.2803 -0.2235 -0.3350
 3759TIP3    H111241   0.009   0.847   0.608 -0.6596  1.1979  0.2431
 3759TIP3    H211242   0.159   0.839   0.590 -0.3876 -1.5208  3.0386
 3760TIP3   OH211243   0.305   5.754   3.966  0.1634 -0.4399  0.2541
 3760TIP3    H111244   0.308   5.689   4.036  0.8971  0.8276  1.4413
 3760TIP3    H211245   0.211   5.772   3.955 -0.1288 -2.2637 -0.6920
 3761TIP3   OH211246   5.616   2.769   0.328  0.1537  0.5257  0.2712
 3761TIP3    H111247   5.558   2.826   0.277 -1.4923  0.2846  1.7506
 3761TIP3    H211248   5.579   2.771   0.417 -0.5696 -3.4568  0.2654
 3762TIP3   OH211249   2.261   4.733   2.274  0.0605 -0.1189  0.0564
 3762TIP3    H111250   2.279   4.815   2.227 -0.1573  1.1495  2.0884
 3762TIP3    H211251   2.223   4.676   2.207 -1.4432  2.0293 -1.0657
 3763TIP3   OH211252   7.107   5.833   2.344  0.3346  0.4655 -0.0160
 3763TIP3    H111253   7.109   5.913   2.397  1.2330  0.7703 -0.4880
 3763TIP3    H211254   7.199   5.805   2.339 -0.0485 -1.0398  0.7879
 3764TIP3   OH211255   2.584   0.482   1.116 -0.1602 -0.3386  0.3477
 3764TIP3    H111256   2.670   0.474   1.076  0.2754  0.2577  1.1403
 3764TIP3    H211257   2.590   0.430   1.197 -0.5532 -0.3368  0.3799
 3765TIP3   OH211258   7.163   1.788   4.976 -0.7378 -0.4690 -0.2540
 3765TIP3    H111259   7.252   1.756   4.992 -1.4534 -0.9605  4.0416
 3765TIP3    H211260   7.175   1.882   4.960  0.5773 -0.1283  2.1277
 3766TIP3   OH211261   5.782   4.456   2.500  0.1711  0.1905 -0.2620
 3766TIP3    H111262   5.804   4.489   2.587 -1.9528 -0.3289  0.5411
 3766TIP3    H211263   5.731   4.376   2.517 -1.7121  0.9555 -1.8882
 3767TIP3   OH211264   3.769   4.128   2.712  0.3401  0.0002 -0.6823
 3767TIP3    H111265   3.731   4.207   2.751  0.6057  0.0434 -0.5078
 3767TIP3    H211266   3.699   4.093   2.657 -0.2005 -0.3015  0.1741
 3768TIP3   OH211267   0.277   6.747   5.879 -0.0058 -0.4225 -0.3298
 3768TIP3    H111268   0.182   6.747   5.871 -0.3377  0.6819  2.4238
 3768TIP3    H211269   0.301   6.840   5.884  0.5860 -0.6243  3.6123
 3769TIP3   OH211270   0.457   6.426   0.710 -0.0743  0.3453 -0.1136
 3769TIP3    H111271   0.476   6.385   0.626  0.3199  1.6549 -0.6802
 3769TIP3    H211272   0.371   6.466   0.699  0.5373  1.6481 -0.3549
 3770TIP3   OH211273   2.778   6.724   4.468  0.0411  0.2229 -0.9120
 3770TIP3    H111274   2.801   6.651   4.525 -1.1532  0.9587  0.5711
 3770TIP3    H211275   2.792   6.802   4.522  0.9447  1.0981 -2.3452
 3771TIP3   OH211276   3.836   3.473   1.149  0.3971  1.0449 -0.1611
 3771TIP3    H111277   3.756   3.455   1.198  2.3859  0.1225  3.0306
 3771TIP3    H211278   3.836   3.568   1.137 -0.7136  1.1607  0.6328
 3772TIP3   OH211279   0.497   2.643   0.295  0.3863 -0.0076 -0.3442
 3772TIP3    H111280   0.422   2.631   0.354  1.1829 -0.5797  0.5974
 3772TIP3    H211281   0.572   2.612   0.346  1.4610  1.7614 -0.7856
 3773TIP3   OH211282   0.259   5.555   2.815  0.0979 -0.0482 -0.0699
 3773TIP3    H111283   0.224   5.528   2.900  0.1870 -0.2714 -0.1030
 3773TIP3    H211284   0.183   5.555   2.757  0.5332 -3.0154 -0.7576
 3774TIP3   OH211285   4.499   6.455   4.157  0.1847  0.2392 -0.2240
 3774TIP3    H111286   4.464   6.423   4.074 -1.0187  0.0247  0.3499
 3774TIP3    H211287   4.501   6.378   4.213 -0.4522  0.6743  0.4128
 3775TIP3   OH211288   0.420   2.390   2.207  0.4932  0.2048 -0.7564
 3775TIP3    H111289   0.508   2.423   2.228  0.1765  0.9361 -0.5482
 3775TIP3    H211290   0.362   2.464   2.227  0.0479  0.5795 -3.1168
 3776TIP3   OH211291   2.054   1.303   3.916  0.1282 -0.1238  0.9807
 3776TIP3    H111292   1.964   1.283   3.889  0.3660 -0.4964  0.4537
 3776TIP3    H211293   2.083   1.370   3.855  1.2713 -2.2004 -0.8647
 3777TIP3   OH211294   6.701   5.488   4.211 -0.6242  0.0889 -0.0478
 3777TIP3    H111295   6.695   5.534   4.295 -0.3410 -0.9999  0.5821
 3777TIP3    H211296   6.701   5.396   4.234  0.6031 -0.2193 -1.1637
 3778TIP3   OH211297   3.246   0.885   3.377 -0.4965 -0.0813  0.7705
 3778TIP3    H111298   3.246   0.790   3.392  2.1883  0.0653  2.5948
 3778TIP3    H211299   3.226   0.922   3.463  0.3194  0.9498  0.5387
 3779TIP3   OH211300   0.078   3.960   1.108 -0.5074  0.0312 -0.1768
 3779TIP3    H111301   0.076   3.899   1.035 -0.9643 -0.9044  0.5934
 3779TIP3    H211302  -0.014   3.981   1.125 -0.5105 -0.8564  1.0036
 3780TIP3   OH211303   2.560   0.852   1.656  0.5368  0.2841 -0.0900
 3780TIP3    H111304   2.502   0.872   1.730  1.6553  1.5662  0.4957
 3780TIP3    H211305   2.501   0.824   1.586 -0.5260 -1.3167  1.3661
 3781TIP3   OH211306   3.627   1.093   5.440  0.2972 -0.3112  0.2432
 3781TIP3    H111307   3.667   1.103   5.527  2.2230 -0.7941 -0.5556
 3781TIP3    H211308   3.603   1.000   5.436  1.6641 -0.6589 -0.3160
 3782TIP3   OH211309   0.806   0.839   1.833  0.1707  0.1059 -0.5192
 3782TIP3    H111310   0.855   0.766   1.797  1.4718  0.6528  0.0536
 3782TIP3    H211311   0.847   0.917   1.794  0.7525  0.6389  1.0752
 3783TIP3   OH211312   0.437   1.441   2.957  0.5394  0.0770  0.4190
 3783TIP3    H111313   0.519   1.485   2.936  0.0920  0.7156 -0.0680
 3783TIP3    H211314   0.415   1.393   2.877  0.2275  0.2602  0.3917
 3784TIP3   OH211315   0.854   4.149   1.994 -0.4590 -0.6246 -0.1817
 3784TIP3    H111316   0.822   4.068   1.955 -0.1936 -1.7610  1.8547
 3784TIP3    H211317   0.861   4.130   2.087 -0.3455  1.7384  0.3521
 3785TIP3   OH211318   2.827   2.820   2.480  0.4451 -0.4423 -0.2388
 3785TIP3    H111319   2.833   2.912   2.458  1.5232 -0.9612 -2.3021
 3785TIP3    H211320   2.902   2.803   2.537 -1.2526  0.4623  2.4802
 3786TIP3   OH211321   3.068   4.806   2.274  0.1381 -0.0435 -0.3728
 3786TIP3    H111322   3.071   4.898   2.247  0.0948  0.1360  0.2245
 3786TIP3    H211323   3.128   4.762   2.214 -2.9512 -0.4045 -3.5338
 3787TIP3   OH211324   3.460   1.993   5.723 -0.1209 -0.6221  0.4131
 3787TIP3    H111325   3.367   2.017   5.723  0.1117  0.3072 -0.1130
 3787TIP3    H211326   3.477   1.964   5.633  0.0726 -0.9417  0.5503
 3788TIP3   OH211327   5.918   0.582   3.140 -0.6317 -0.3041 -0.2305
 3788TIP3    H111328   6.007   0.609   3.119  0.0381 -2.5592 -0.5427
 3788TIP3    H211329   5.874   0.663   3.166  1.1846  1.0355 -1.1068
 3789TIP3   OH211330   5.463   4.849   4.576 -0.1391  0.1917  0.1623
 3789TIP3    H111331   5.505   4.926   4.538 -1.2637  0.7026 -0.0677
 3789TIP3    H211332   5.531   4.810   4.631  0.9408  0.4450 -0.9486
 3790TIP3   OH211333   1.868   6.642   2.396 -0.3353 -0.2971  0.1101
 3790TIP3    H111334   1.932   6.577   2.425  0.0509 -0.0189 -0.1193
 3790TIP3    H211335   1.792   6.628   2.453 -0.0147 -0.5253  0.4837
 3791TIP3   OH211336   6.521   3.753   2.087  0.0440  0.1544  0.6645
 3791TIP3    H111337   6.444   3.805   2.107  1.5089  2.6967  0.1511
 3791TIP3    H211338   6.497   3.701   2.010 -0.1574  3.6509 -1.8646
 3792TIP3   OH211339   4.013   6.079   2.424 -0.0110 -0.3800 -0.7673
 3792TIP3    H111340   4.066   6.135   2.481  0.1670 -0.8293 -0.4856
 3792TIP3    H211341   4.006   6.128   2.342  1.0407 -0.4126 -0.8908
 3793TIP3   OH211342   5.112   4.552   3.546 -0.3232 -0.1497  0.0622
 3793TIP3    H111343   5.185   4.492   3.528 -1.7773 -2.3635  1.0796
 3793TIP3    H211344   5.049   4.535   3.476 -0.1859  1.2885 -0.4477
 3794TIP3   OH211345   2.110   6.265   3.506  0.1963 -0.2850 -0.2854
 3794TIP3    H111346   2.056   6.186   3.497 -1.9275  0.8923  1.1149
 3794TIP3    H211347   2.096   6.312   3.424 -0.1924 -0.4238 -0.3041
 3795TIP3   OH211348   4.709   2.525   2.971  0.4547  0.0753 -0.2962
 3795TIP3    H111349   4.700   2.495   2.881  0.7369 -0.2508 -0.2188
 3795TIP3    H211350   4.762   2.457   3.014  1.7187  1.0135 -0.2893
 3796TIP3   OH211351   2.591   3.058   3.054  0.0640  0.0440  0.6881
 3796TIP3    H111352   2.572   3.020   2.968  0.9896 -0.4554  0.6950
 3796TIP3    H211353   2.619   2.984   3.108 -1.6415  0.1335  1.8042
 3797TIP3   OH211354   3.365   5.599   4.109  0.2997 -0.2301  0.1162
 3797TIP3    H111355   3.355   5.538   4.035 -1.7661 -0.0629  0.1838
 3797TIP3    H211356   3.277   5.602   4.148  1.2159  0.1234  2.2395
 3798TIP3   OH211357   2.430   6.556   4.702  0.0668 -0.2221  0.8134
 3798TIP3    H111358   2.356   6.532   4.758  0.3766 -2.2853  0.4169
 3798TIP3    H211359   2.401   6.635   4.656 -2.1638 -1.3137  0.1877
 3799TIP3   OH211360   1.860   6.836   3.960 -0.1494 -0.3219  0.7338
 3799TIP3    H111361   1.886   6.749   3.989 -0.7816 -0.9966 -0.5956
 3799TIP3    H211362   1.774   6.823   3.920 -0.9278  1.1827  1.8070
 3800TIP3   OH211363   4.072   6.814   2.823  0.1030  0.1128 -0.1380
 3800TIP3    H111364   4.143   6.805   2.886 -0.5280 -2.0849  0.3600
 3800TIP3    H211365   4.103   6.768   2.745  0.0691  1.0495 -0.7264
 3801TIP3   OH211366   3.690   6.283   5.081  0.1686 -0.1611 -0.1036
 3801TIP3    H111367   3.769   6.336   5.070 -0.0522  0.4171  0.9665
 3801TIP3    H211368   3.723   6.195   5.100  0.5708  0.1201  0.5362
 3802TIP3   OH211369   3.227   3.452   1.026 -0.0567 -0.4209 -0.5715
 3802TIP3    H111370   3.199   3.515   1.093  1.4082 -2.1114  1.7590
 3802TIP3    H211371   3.162   3.382   1.031  0.1127 -0.5957 -0.8761
 3803TIP3   OH211372   6.853   5.950   5.171  0.2010  0.1807 -0.2878
 3803TIP3    H111373   6.930   5.970   5.119 -0.4649  0.7234 -1.0863
 3803TIP3    H211374   6.779   5.963   5.112 -0.4565 -1.5751  0.0802
 3804TIP3   OH211375   5.209   3.592   0.217  0.2357 -0.0938  0.3095
 3804TIP3    H111376   5.295   3.630   0.236  0.1938  0.0245  0.2618
 3804TIP3    H211377   5.211   3.574   0.123 -0.2939  1.1764  0.0432
 3805TIP3   OH211378   4.564   0.049   3.100  0.0086 -0.7712 -0.6547
 3805TIP3    H111379   4.490   0.089   3.146  1.7886  2.4998 -0.3342
 3805TIP3    H211380   4.547   0.068   3.007  0.0337 -0.7346 -0.6520
 3806TIP3   OH211381   4.728   0.546   2.591 -0.0113  0.1506  0.4416
 3806TIP3    H111382   4.789   0.545   2.665  2.8885  0.1886 -1.7805
 3806TIP3    H211383   4.726   0.455   2.560 -0.2749  0.3397 -0.1170
 3807TIP3   OH211384   6.140   6.144   4.860 -0.1342 -0.1872 -0.0410
 3807TIP3    H111385   6.099   6.163   4.775 -1.4785  1.4417  0.9155
 3807TIP3    H211386   6.232   6.166   4.847 -0.6095  1.6901 -0.6540
 3808TIP3   OH211387   5.535   3.225   3.090 -0.1022  0.0429  0.3412
 3808TIP3    H111388   5.620   3.182   3.100 -0.0729 -0.3135 -1.1466
 3808TIP3    H211389   5.472   3.154   3.083 -0.3546  0.2813  0.1755
 3809TIP3   OH211390   1.357   0.288   3.557 -0.0336  0.3665 -0.3374
 3809TIP3    H111391   1.270   0.251   3.572 -1.3073  3.0870 -0.3780
 3809TIP3    H211392   1.376   0.269   3.466 -0.5296 -0.3992 -0.2869
 3810TIP3   OH211393   4.195   2.141   4.452 -0.4837  0.2986  0.6088
 3810TIP3    H111394   4.289   2.156   4.444 -0.5353  1.1155  1.4104
 3810TIP3    H211395   4.154   2.217   4.411 -0.8435 -0.8719 -1.3339
 3811TIP3   OH211396   3.121   1.540   2.284  0.0839 -0.4206 -0.3513
 3811TIP3    H111397   3.107   1.447   2.268  0.5787 -0.6544  0.5422
 3811TIP3    H211398   3.120   1.549   2.379 -0.9430  0.6475 -0.4439
 3812TIP3   OH211399   7.047   3.981   1.165  0.1545  0.3947  0.2309
 3812TIP3    H111400   6.992   4.037   1.220  0.7723  3.3004 -1.8316
 3812TIP3    H211401   6.989   3.951   1.095  0.2199 -0.0516  0.3711
 3813TIP3   OH211402   6.332   5.907   4.047  0.3842 -0.0368  0.0062
 3813TIP3    H111403   6.373   5.878   3.966 -0.7581 -2.0393  0.0950
 3813TIP3    H211404   6.242   5.930   4.022  0.7318  1.8496  0.2848
 3814TIP3   OH211405   2.368   5.374   2.995  0.2143  0.1191 -0.7315
 3814TIP3    H111406   2.305   5.382   2.924  0.8314 -0.0036 -1.3059
 3814TIP3    H211407   2.317   5.347   3.071 -0.3215 -0.5751 -1.3396
 3815TIP3   OH211408   5.771   3.840   5.832  0.6123  0.2731  0.2729
 3815TIP3    H111409   5.754   3.879   5.918  1.0375  0.7540  0.1419
 3815TIP3    H211410   5.856   3.876   5.806  1.8201 -1.9345  0.8453
 3816TIP3   OH211411   6.605   1.779   4.186  0.0039 -0.2504 -0.3310
 3816TIP3    H111412   6.516   1.791   4.155  0.0761  0.4411 -0.2893
 3816TIP3    H211413   6.644   1.716   4.124 -0.6150 -0.8490 -0.1238
 3817TIP3   OH211414   7.228   1.204   1.258 -0.3378  0.4654  0.4128
 3817TIP3    H111415   7.140   1.188   1.292 -0.4520  2.0820  0.9546
 3817TIP3    H211416   7.239   1.299   1.263  0.6445  0.5176 -1.6502
 3818TIP3   OH211417   5.980   5.531   5.522  0.1706 -0.4708 -0.2892
 3818TIP3    H111418   5.958   5.446   5.560  0.0094  0.4557  1.8144
 3818TIP3    H211419   5.896   5.575   5.511  0.3810  0.2283  0.7212
 3819TIP3   OH211420   3.154   5.658   1.672 -0.3916  0.2860  0.1328
 3819TIP3    H111421   3.235   5.687   1.630  0.6810  0.5134  2.1972
 3819TIP3    H211422   3.143   5.717   1.747 -0.9059 -1.4631  1.5176
 3820TIP3   OH211423   4.482   4.625   1.413  0.2513  0.1416  0.1088
 3820TIP3    H111424   4.534   4.545   1.419  1.1991  0.7885  0.8348
 3820TIP3    H211425   4.529   4.681   1.351  0.2435  0.5937  0.5007
 3821TIP3   OH211426   4.321   1.347   0.588  0.4509  0.2965 -0.3360
 3821TIP3    H111427   4.295   1.438   0.601 -0.0810 -0.0154  0.8494
 3821TIP3    H211428   4.262   1.314   0.520 -0.7041  0.2829  0.6377
 3822TIP3   OH211429   2.837   6.310   0.717 -0.9534 -0.7243 -0.7036
 3822TIP3    H111430   2.818   6.398   0.685  0.2849 -0.6350 -1.2455
 3822TIP3    H211431   2.774   6.296   0.787  0.0132  1.3431  0.6891
 3823TIP3   OH211432   5.304   1.155   5.628 -0.3347 -0.0316 -0.4784
 3823TIP3    H111433   5.270   1.244   5.624  0.0208  0.1674  0.6008
 3823TIP3    H211434   5.282   1.125   5.716  1.8866 -0.0436  0.1097
 3824TIP3   OH211435   1.748   1.468   3.579 -0.0976 -0.1349  0.5474
 3824TIP3    H111436   1.731   1.380   3.613 -1.8570 -0.2399 -0.4618
 3824TIP3    H211437   1.682   1.523   3.622 -1.3784 -0.0051 -1.4714
 3825TIP3   OH211438   5.814   5.034   5.494  0.0971  0.0965 -0.1972
 3825TIP3    H111439   5.777   4.982   5.565  0.8678 -0.4508 -0.1915
 3825TIP3    H211440   5.761   5.010   5.417  0.2070 -0.4148 -0.1152
 3826TIP3   OH211441   1.437   2.861   4.661 -0.6311  0.4431 -0.7789
 3826TIP3    H111442   1.501   2.900   4.601 -0.7966 -0.7424 -1.7612
 3826TIP3    H211443   1.434   2.922   4.735  3.1709 -0.4141  0.3221
 3827TIP3   OH211444   2.086   6.456   1.912  1.3077 -0.6956 -0.3200
 3827TIP3    H111445   2.169   6.411   1.897  2.6813  0.9111  1.8518
 3827TIP3    H211446   2.106   6.524   1.976 -1.2007  1.3959 -1.5584
 3828TIP3   OH211447   2.880   4.754   3.442  0.2473  0.5351  0.2136
 3828TIP3    H111448   2.836   4.676   3.476  0.1069 -0.0056 -1.1796
 3828TIP3    H211449   2.973   4.736   3.454  0.2949 -0.5518 -1.5258
 3829TIP3   OH211450   2.934   2.746   1.536 -0.1511 -0.1320  0.2919
 3829TIP3    H111451   3.007   2.684   1.547 -2.7907 -3.5142  0.2493
 3829TIP3    H211452   2.886   2.740   1.619 -1.9891 -0.2763 -0.7545
 3830TIP3   OH211453   4.496   1.867   0.255 -0.4495 -0.2288 -0.5225
 3830TIP3    H111454   4.544   1.787   0.276 -2.2360 -1.4356 -0.7241
 3830TIP3    H211455   4.560   1.937   0.262  1.2375 -1.7064 -0.5630
 3831TIP3   OH211456   1.174   1.932   2.266  0.1027  0.1458 -0.0052
 3831TIP3    H111457   1.177   1.920   2.361  1.3817 -1.0342 -0.1713
 3831TIP3    H211458   1.229   1.863   2.231  0.4295  1.1512 -1.5734
 3832TIP3   OH211459   5.089   4.717   2.697 -0.3196 -0.3031 -0.0171
 3832TIP3    H111460   5.128   4.773   2.765  0.0365 -1.1585  0.5030
 3832TIP3    H211461   5.029   4.660   2.744 -0.4661 -0.5538 -0.5000
 3833TIP3   OH211462   6.185   2.753   0.075  0.8319 -0.0880 -0.0077
 3833TIP3    H111463   6.267   2.709   0.053  1.1160  0.9138 -1.0511
 3833TIP3    H211464   6.154   2.790  -0.008 -0.6337 -0.3517  0.3850
 3834TIP3   OH211465   7.084   4.670   5.147 -0.2787 -0.3344 -0.0498
 3834TIP3    H111466   7.005   4.653   5.096 -1.0205  0.5963  0.7532
 3834TIP3    H211467   7.139   4.593   5.133 -1.0419 -0.7046 -1.1437
 3835TIP3   OH211468   2.614   4.002   2.046 -0.1284 -0.0341  0.2484
 3835TIP3    H111469   2.626   3.948   2.124  1.9737  0.5046  0.3431
 3835TIP3    H211470   2.597   4.090   2.080 -1.2641 -0.1606  0.0704
 3836TIP3   OH211471   4.764   2.320   3.754 -0.0403  0.0598 -0.1705
 3836TIP3    H111472   4.749   2.357   3.667 -1.1465 -0.7853 -0.3676
 3836TIP3    H211473   4.677   2.318   3.795  0.5430  1.0278  1.2121
 3837TIP3   OH211474   1.706   3.091   1.400 -0.4795  0.1509  0.1050
 3837TIP3    H111475   1.666   3.165   1.353 -0.0641 -0.3070 -0.9975
 3837TIP3    H211476   1.635   3.027   1.407 -0.1513 -0.3904 -1.2606
 3838TIP3   OH211477   2.630   5.076   3.745  0.1680  0.5302 -0.7954
 3838TIP3    H111478   2.639   5.019   3.669 -0.1115 -0.9872  0.2496
 3838TIP3    H211479   2.562   5.034   3.798  0.3847  1.5182  0.2925
 3839TIP3   OH211480   0.232   3.639   4.918  0.1685  0.0256 -0.4129
 3839TIP3    H111481   0.159   3.641   4.856 -0.6590 -0.1327  0.5312
 3839TIP3    H211482   0.206   3.574   4.983  0.5187  0.9747  0.7002
 3840TIP3   OH211483   1.305   0.871   1.157  0.2734  0.3439 -0.1173
 3840TIP3    H111484   1.361   0.947   1.141  2.8062 -1.1643  0.9012
 3840TIP3    H211485   1.308   0.821   1.075 -0.1638  0.6222 -0.3008
 3841TIP3   OH211486   3.110   2.590   5.284 -0.1835  0.0371 -0.2662
 3841TIP3    H111487   3.152   2.618   5.366  0.9979 -0.5216 -0.6562
 3841TIP3    H211488   3.130   2.661   5.222  1.6479 -0.9449 -0.8882
 3842TIP3   OH211489   4.859   6.349   4.533  0.2497 -0.0397  0.1240
 3842TIP3    H111490   4.805   6.281   4.492  0.9621 -1.3536  1.3141
 3842TIP3    H211491   4.856   6.329   4.626  1.1505  1.0860  0.4093
 3843TIP3   OH211492   0.382   5.751   2.695  0.1196 -0.2033  0.3199
 3843TIP3    H111493   0.329   5.684   2.738  0.5765  1.0813  3.0888
 3843TIP3    H211494   0.435   5.703   2.631 -0.5162 -2.2703  1.2710
 3844TIP3   OH211495   1.094   6.567   1.628 -0.8033 -0.6776 -0.1132
 3844TIP3    H111496   1.106   6.659   1.604 -1.5992 -0.2135  1.1598
 3844TIP3    H211497   1.118   6.519   1.550 -1.6456  0.6766 -1.2675
 3845TIP3   OH211498   7.175   5.502   4.699 -0.1777 -0.0607  0.5705
 3845TIP3    H111499   7.185   5.587   4.743  0.5253 -0.2510  0.7866
 3845TIP3    H211500   7.259   5.458   4.713  0.6774  0.4739 -2.2191
 3846TIP3   OH211501   3.295   5.111   3.354  0.1463 -0.0560 -0.4849
 3846TIP3    H111502   3.384   5.146   3.351 -0.0123  0.3088 -1.5178
 3846TIP3    H211503   3.305   5.017   3.344  0.3550  0.1305 -2.6049
 3847TIP3   OH211504   2.969   4.077   1.265  0.4325  0.0697  0.6296
 3847TIP3    H111505   2.947   3.987   1.240  0.9373  0.4792 -1.3906
 3847TIP3    H211506   2.900   4.101   1.327 -1.3838 -0.7453 -0.9613
 3848TIP3   OH211507   7.146   1.133   2.493  0.2214 -0.1004  0.1305
 3848TIP3    H111508   7.202   1.082   2.552  1.5362 -0.5475 -1.4123
 3848TIP3    H211509   7.201   1.206   2.465  0.2903 -0.8403 -1.8309
 3849TIP3   OH211510   1.230   4.288   3.331  0.1250  0.1372 -0.5517
 3849TIP3    H111511   1.163   4.282   3.399  0.6172  0.3536 -0.0322
 3849TIP3    H211512   1.261   4.379   3.337  0.2612  0.1209 -0.9812
 3850TIP3   OH211513   3.982   6.346   0.268 -0.1545  0.2778  0.1620
 3850TIP3    H111514   3.997   6.432   0.308 -0.1540 -0.4338  1.7382
 3850TIP3    H211515   3.891   6.325   0.290 -0.3402  0.1199 -0.7195
 3851TIP3   OH211516   1.828   2.359   2.244  0.0833  0.1058 -0.0580
 3851TIP3    H111517   1.921   2.347   2.225 -0.2095  0.0939 -1.5708
 3851TIP3    H211518   1.801   2.431   2.188 -0.6091  0.8122  1.1287
 3852TIP3   OH211519   1.130   4.959   0.325  0.5604 -0.2836  0.2180
 3852TIP3    H111520   1.210   4.942   0.375  0.3739  2.3969  1.5884
 3852TIP3    H211521   1.161   5.001   0.244  0.5865  2.1279  1.3869
 3853TIP3   OH211522   4.023   1.816   2.666 -0.2645  0.1802  0.4100
 3853TIP3    H111523   4.018   1.764   2.746 -1.7783 -0.9064 -0.3357
 3853TIP3    H211524   4.064   1.757   2.602 -0.8938  0.3156 -0.1306
 3854TIP3   OH211525   1.990   1.438   1.478 -0.6502  0.3043 -0.1028
 3854TIP3    H111526   1.962   1.380   1.408  0.4792  0.8548 -1.0441
 3854TIP3    H211527   1.912   1.452   1.531 -1.3197 -0.7847 -0.7687
 3855TIP3   OH211528   1.576   3.290   3.966  0.3089  0.2565 -0.1382
 3855TIP3    H111529   1.482   3.274   3.965  0.3000  0.2834  0.0860
 3855TIP3    H211530   1.594   3.340   3.887  0.0744  0.5845  0.0156
 3856TIP3   OH211531   2.466   3.015   5.409  0.4286 -0.3476 -0.3541
 3856TIP3    H111532   2.547   3.032   5.360  1.0553 -1.9300  0.0889
 3856TIP3    H211533   2.430   2.936   5.371 -1.7024  1.0634 -1.4637
 3857TIP3   OH211534   4.577   5.239   2.772 -0.1715  0.3922 -0.3254
 3857TIP3    H111535   4.531   5.310   2.818  0.5030  0.4633  0.2566
 3857TIP3    H211536   4.639   5.205   2.837 -0.0448 -0.3081 -0.8081
 3858TIP3   OH211537   1.872   0.148   3.954  0.0620 -0.4872  0.0512
 3858TIP3    H111538   1.831   0.179   3.873  1.2355 -0.8102 -0.6822
 3858TIP3    H211539   1.911   0.064   3.930 -1.3517 -1.6288  1.4989
 3859TIP3   OH211540   3.656   2.473   2.658 -0.1283  0.0108 -0.3803
 3859TIP3    H111541   3.662   2.423   2.739 -2.0683 -0.4958 -0.4889
 3859TIP3    H211542   3.684   2.561   2.681  0.0711 -0.3126  0.6521
 3860TIP3   OH211543   5.115   5.230   0.268  0.0122 -0.5472  0.0698
 3860TIP3    H111544   5.107   5.248   0.362 -1.9856 -0.7810 -0.0187
 3860TIP3    H211545   5.159   5.307   0.232 -0.2735  0.0683  1.0132
 3861TIP3   OH211546   0.045   1.757   4.157  0.4981 -0.1492 -0.0033
 3861TIP3    H111547   0.017   1.827   4.097 -0.9848  1.5764  2.4970
 3861TIP3    H211548   0.003   1.678   4.123  1.1764  0.3736 -2.2082
 3862TIP3   OH211549   3.601   0.165   3.363  0.3517  0.4219  0.2339
 3862TIP3    H111550   3.593   0.224   3.288  0.8651  2.5628  1.7974
 3862TIP3    H211551   3.689   0.180   3.397  1.0317 -2.3034 -0.0966
 3863TIP3   OH211552   6.967   5.746   5.691  0.0441 -0.1793 -0.0575
 3863TIP3    H111553   7.056   5.761   5.724 -0.8481  0.8893  2.0957
 3863TIP3    H211554   6.955   5.812   5.623  0.1492  1.2709  1.2761
 3864TIP3   OH211555   3.788   1.153   2.819  1.1561  0.0797 -0.4716
 3864TIP3    H111556   3.727   1.080   2.822 -0.5603  1.3221 -2.1647
 3864TIP3    H211557   3.870   1.118   2.853 -0.5658 -1.5615  2.3894
 3865TIP3   OH211558   5.488   0.555   5.841 -0.1719  0.0656  0.2890
 3865TIP3    H111559   5.522   0.472   5.873 -0.2162  0.4780  1.4822
 3865TIP3    H211560   5.491   0.613   5.918  1.0314  1.5342 -0.8161
 3866TIP3   OH211561   5.346   5.766   2.480  0.0624  0.5358 -0.3580
 3866TIP3    H111562   5.320   5.837   2.538 -1.7352  0.7701 -1.3721
 3866TIP3    H211563   5.376   5.809   2.400  0.1867  0.1638 -0.5171
 3867TIP3   OH211564   6.725   1.444   3.219 -0.2445  0.1349 -0.1290
 3867TIP3    H111565   6.810   1.425   3.180 -0.2680 -0.9224  0.3063
 3867TIP3    H211566   6.674   1.481   3.147  1.3476  3.2899  0.2068
 3868TIP3   OH211567   3.632   3.422   3.128  0.5493 -0.3116 -0.5589
 3868TIP3    H111568   3.543   3.388   3.124  1.1667 -2.1655  0.5573
 3868TIP3    H211569   3.681   3.371   3.064  1.3297 -1.1038  0.6173
 3869TIP3   OH211570   5.605   2.296   2.416 -0.0241  0.3877 -0.1384
 3869TIP3    H111571   5.585   2.390   2.411 -0.7286  0.2111 -0.7281
 3869TIP3    H211572   5.681   2.285   2.359 -0.0983  0.5608 -0.2729
 3870TIP3   OH211573   0.312   4.872   4.140 -0.0680  0.0879 -0.0719
 3870TIP3    H111574   0.355   4.892   4.056 -2.0536  2.1125 -0.6879
 3870TIP3    H211575   0.277   4.784   4.128 -1.2849  0.7461 -1.8782
 3871TIP3   OH211576   3.636   1.073   2.405  0.2817  0.0409 -0.0479
 3871TIP3    H111577   3.610   1.156   2.364  1.2941  0.3230 -0.1562
 3871TIP3    H211578   3.555   1.037   2.441 -0.2886  0.7420 -0.6066
 3872TIP3   OH211579   4.635   2.283   0.591  0.0736  0.5738  0.7907
 3872TIP3    H111580   4.632   2.282   0.687  0.2450  0.0655  0.7992
 3872TIP3    H211581   4.606   2.195   0.566 -0.9884  1.0427  0.3373
 3873TIP3   OH211582   4.787   3.848   1.675  0.2083 -0.2405 -0.5018
 3873TIP3    H111583   4.844   3.771   1.674 -2.2422 -2.2114 -0.0141
 3873TIP3    H211584   4.795   3.885   1.587  0.8404 -1.5524 -1.0259
 3874TIP3   OH211585   4.747   2.296   4.635 -0.1493 -0.1598 -0.3551
 3874TIP3    H111586   4.741   2.353   4.558 -1.7054  1.5157  0.9279
 3874TIP3    H211587   4.663   2.250   4.638 -0.2788  0.1109  0.5549
 3875TIP3   OH211588   5.963   5.719   2.249 -0.2835 -0.3465  0.2117
 3875TIP3    H111589   6.029   5.756   2.190 -1.0308  0.4365 -0.1543
 3875TIP3    H211590   5.908   5.664   2.193 -0.4719 -0.2921  0.3423
 3876TIP3   OH211591   5.056   3.454   3.160 -0.3400 -0.2664  0.3542
 3876TIP3    H111592   5.079   3.547   3.164 -1.6561  0.0433  1.9508
 3876TIP3    H211593   4.982   3.450   3.100  0.8627 -0.5951 -1.1692
 3877TIP3   OH211594   6.563   6.297   3.435  0.3601  0.3096 -0.1579
 3877TIP3    H111595   6.556   6.220   3.378  2.3197 -0.8306  1.0487
 3877TIP3    H211596   6.473   6.326   3.446 -0.1721  0.2409 -3.3256
 3878TIP3   OH211597   2.168   0.146   5.633 -0.1482 -0.0057 -0.3104
 3878TIP3    H111598   2.117   0.155   5.714  1.2250  0.4341  0.5263
 3878TIP3    H211599   2.101   0.138   5.564 -1.3896 -2.1512  1.0078
 3879TIP3   OH211600   3.606   1.965   4.907  0.4361 -0.3460 -0.2741
 3879TIP3    H111601   3.686   1.948   4.855 -0.3226 -0.6416 -1.3844
 3879TIP3    H211602   3.630   1.938   4.996  1.5104 -0.6371 -0.6267
 3880TIP3   OH211603   5.979   5.231   3.151  0.5530  0.0124  0.6093
 3880TIP3    H111604   6.066   5.193   3.165 -0.0975 -2.1962 -0.7819
 3880TIP3    H211605   5.937   5.227   3.237  1.4431  0.1232  1.0635
 3881TIP3   OH211606   2.216   2.647   2.174  0.2885  0.1360  0.3350
 3881TIP3    H111607   2.294   2.694   2.203  0.5476 -0.3296  0.3881
 3881TIP3    H211608   2.203   2.579   2.241 -0.3573  0.4282  0.5145
 3882TIP3   OH211609   5.362   1.740   4.428 -0.4860  0.1965 -0.3114
 3882TIP3    H111610   5.326   1.672   4.484 -0.8052  0.8349  0.2706
 3882TIP3    H211611   5.379   1.696   4.344 -1.2900 -0.4364 -0.1486
 3883TIP3   OH211612   2.358   6.068   0.994 -0.1305 -0.5806  0.2628
 3883TIP3    H111613   2.314   6.011   1.057 -2.4620  1.9625  1.1589
 3883TIP3    H211614   2.411   6.127   1.049  0.5842 -0.5539 -0.4485
 3884TIP3   OH211615   1.900   5.288   5.773  0.0564  0.5035 -0.0114
 3884TIP3    H111616   1.941   5.267   5.689  0.1709  2.6987 -0.5666
 3884TIP3    H211617   1.940   5.227   5.835  1.1926 -0.0635 -1.2523
 3885TIP3   OH211618   7.073   3.076   3.759  0.1396  0.2187 -0.0381
 3885TIP3    H111619   7.087   3.029   3.676 -2.2201 -0.7276  0.0010
 3885TIP3    H211620   7.131   3.032   3.821  0.7777 -0.1160 -0.8461
 3886TIP3   OH211621   4.641   6.590   3.961 -0.6391 -0.8648 -0.3039
 3886TIP3    H111622   4.562   6.583   4.014 -1.7456 -1.0854 -1.8993
 3886TIP3    H211623   4.681   6.503   3.965 -1.1035 -1.0834 -0.4035
 3887TIP3   OH211624   1.499   0.618   5.589 -0.0554 -0.0670 -0.6596
 3887TIP3    H111625   1.506   0.526   5.563  0.6527 -1.0076  2.4652
 3887TIP3    H211626   1.586   0.642   5.617 -0.6876  0.8832  0.5654
 3888TIP3   OH211627   4.546   0.047   3.766  0.3130  0.1055 -0.2180
 3888TIP3    H111628   4.473   0.010   3.815  1.0180 -0.6746  0.2811
 3888TIP3    H211629   4.555  -0.011   3.690 -0.9939  1.5057 -1.4966
 3889TIP3   OH211630   5.505   4.515   5.844 -0.2083  0.5390 -0.5839
 3889TIP3    H111631   5.514   4.605   5.812  0.5503  0.4425 -0.6641
 3889TIP3    H211632   5.551   4.514   5.928 -0.3270  0.2578 -0.5203
 3890TIP3   OH211633   3.309   5.717   3.424  0.1082 -0.1536 -0.0257
 3890TIP3    H111634   3.389   5.688   3.466  0.8269 -0.5899 -1.6001
 3890TIP3    H211635   3.249   5.643   3.430  0.4231 -0.4319 -0.2782
 3891TIP3   OH211636   5.947   0.074   0.051 -0.6619  0.2993 -0.0104
 3891TIP3    H111637   5.949   0.153   0.105 -0.1948  1.3335 -1.4704
 3891TIP3    H211638   5.977   0.103  -0.035  0.8902 -1.7693 -0.2418
 3892TIP3   OH211639   7.215   1.297   1.658 -0.2993 -0.2635 -0.3941
 3892TIP3    H111640   7.228   1.375   1.712 -2.0274 -0.5372  0.4701
 3892TIP3    H211641   7.195   1.330   1.571 -0.8433  0.2525 -0.0738
 3893TIP3   OH211642   3.658   4.785   3.970  0.4058  0.0771 -0.1836
 3893TIP3    H111643   3.627   4.708   4.017 -1.0646 -0.1354 -1.4342
 3893TIP3    H211644   3.716   4.749   3.902  0.2976  0.1279 -0.3033
 3894TIP3   OH211645   1.788   1.449   0.514 -0.1132  0.0024  0.3854
 3894TIP3    H111646   1.864   1.407   0.554 -0.7376 -1.2938  0.2740
 3894TIP3    H211647   1.714   1.394   0.541 -1.1384  1.6812  1.1569
 3895TIP3   OH211648   5.529   0.935   2.606 -0.3451  0.2450 -0.3652
 3895TIP3    H111649   5.556   0.901   2.521  1.7522  1.4998 -0.2740
 3895TIP3    H211650   5.610   0.967   2.646 -1.2635 -0.3121  2.1367
 3896TIP3   OH211651   5.705   0.336   3.774  0.7265 -0.0307 -0.4944
 3896TIP3    H111652   5.799   0.326   3.791  0.8836 -2.1781 -2.1105
 3896TIP3    H211653   5.664   0.267   3.826  0.1146  0.4149 -0.3766
 3897TIP3   OH211654   5.742   3.493   5.285 -0.7942  0.2840  0.0621
 3897TIP3    H111655   5.798   3.423   5.318 -0.6697  0.9287  1.2904
 3897TIP3    H211656   5.773   3.510   5.196  0.4379  0.0820  0.4371
 3898TIP3   OH211657   7.214   3.206   4.999 -0.4836 -0.0051  0.3014
 3898TIP3    H111658   7.212   3.124   4.950 -0.9215  0.9461 -1.3594
 3898TIP3    H211659   7.148   3.261   4.957 -0.4888  1.0711  1.6333
 3899TIP3   OH211660   5.224   4.952   3.480 -0.6454 -0.3093 -0.0958
 3899TIP3    H111661   5.171   5.014   3.531 -1.1949 -0.6745 -0.2174
 3899TIP3    H211662   5.230   4.875   3.536  0.2650 -0.0568  0.1697
 3900TIP3   OH211663   1.967   3.311   0.163  0.3671 -0.5624 -0.2385
 3900TIP3    H111664   1.887   3.274   0.126  0.0200 -0.2711  0.2180
 3900TIP3    H211665   1.940   3.350   0.246  0.6777  0.8951 -0.7902
 3901TIP3   OH211666   3.314   4.747   2.430 -0.3206 -0.1716 -0.5251
 3901TIP3    H111667   3.219   4.748   2.428 -0.3421  1.8402 -0.1118
 3901TIP3    H211668   3.340   4.772   2.341 -0.2595  2.0404  0.0569
 3902TIP3   OH211669   6.883   4.684   5.631 -0.1396  0.3438 -0.1427
 3902TIP3    H111670   6.892   4.593   5.659 -1.1964  0.1330 -0.4388
 3902TIP3    H211671   6.790   4.693   5.609 -0.5136  2.0502  1.8380
 3903TIP3   OH211672   7.144   1.683   5.637  0.3584 -0.0523  0.1452
 3903TIP3    H111673   7.132   1.778   5.642  0.0313 -0.1048  0.4413
 3903TIP3    H211674   7.218   1.671   5.578  0.4811  0.3933  0.2046
 3904TIP3   OH211675   0.841   4.749   0.066  0.2312 -0.0686  0.8982
 3904TIP3    H111676   0.772   4.803   0.104  0.4829  0.1378  1.0706
 3904TIP3    H211677   0.894   4.811   0.015  0.5502 -0.1388  1.1367
 3905TIP3   OH211678   1.891   2.689   4.809 -0.5285 -0.3897 -0.3329
 3905TIP3    H111679   1.811   2.645   4.841 -0.1742  0.1685  1.4001
 3905TIP3    H211680   1.962   2.647   4.857  0.0364  0.4740 -0.4012
 3906TIP3   OH211681   6.127   6.246   3.054  0.1600  0.2736 -0.1760
 3906TIP3    H111682   6.100   6.154   3.053 -0.2702  0.3321  1.6487
 3906TIP3    H211683   6.048   6.295   3.034 -0.1009  0.2891  0.8226
 3907TIP3   OH211684   1.571   2.923   5.524 -0.3553 -0.0842 -0.3116
 3907TIP3    H111685   1.643   2.939   5.584 -0.5512  1.3822 -0.4211
 3907TIP3    H211686   1.497   2.900   5.580 -0.4463  0.9279  0.0084
 3908TIP3   OH211687   1.843   2.151   2.404 -0.6477  0.3596  0.1009
 3908TIP3    H111688   1.892   2.203   2.467 -0.9013 -0.0097  0.6065
 3908TIP3    H211689   1.828   2.211   2.330  0.0074  0.6657  0.2050
 3909TIP3   OH211690   5.704   6.761   5.756  0.3611  0.6752 -0.5332
 3909TIP3    H111691   5.609   6.748   5.750  0.3522  0.3095  0.3104
 3909TIP3    H211692   5.725   6.816   5.680 -0.5576  0.9432 -0.6074
 3910TIP3   OH211693   0.265   5.809   5.852 -0.4124 -0.6585 -0.0940
 3910TIP3    H111694   0.309   5.793   5.768  1.5178 -0.1641  0.7528
 3910TIP3    H211695   0.287   5.900   5.873 -1.5232 -0.5400  0.5876
 3911TIP3   OH211696   4.578   3.764   0.594  0.1283 -0.1204  0.1306
 3911TIP3    H111697   4.617   3.833   0.647  0.8302 -0.9071  0.6545
 3911TIP3    H211698   4.487   3.758   0.625 -0.5166  1.8194 -1.2039
 3912TIP3   OH211699   2.671   6.401   4.767 -0.0905  0.1263 -0.0232
 3912TIP3    H111700   2.637   6.312   4.778 -0.3054  0.2398  0.2487
 3912TIP3    H211701   2.594   6.452   4.740  0.4133 -0.1571 -2.2065
 3913TIP3   OH211702   2.381   1.085   4.305  0.0582 -0.4011 -0.4906
 3913TIP3    H111703   2.419   1.172   4.304  0.4253 -0.4646  2.0016
 3913TIP3    H211704   2.294   1.096   4.267 -0.1741  1.1878  0.4313
 3914TIP3   OH211705   6.395   3.160   5.298 -0.6660  0.1056  0.3963
 3914TIP3    H111706   6.330   3.090   5.303 -1.6555  0.7384 -2.0142
 3914TIP3    H211707   6.402   3.193   5.388 -1.9846 -1.4681  1.1292
 3915TIP3   OH211708   2.838   4.073   4.838 -0.4326 -0.6341 -0.3310
 3915TIP3    H111709   2.852   4.145   4.776 -0.3718 -0.1018  0.2929
 3915TIP3    H211710   2.926   4.043   4.861 -0.4233 -0.1282  0.3066
 3916TIP3   OH211711   1.892   6.202   1.687  0.3883  0.0547  0.1516
 3916TIP3    H111712   1.889   6.221   1.781 -1.4016  0.3451  0.0798
 3916TIP3    H211713   1.804   6.170   1.667  1.8611 -4.0886 -0.6350
 3917TIP3   OH211714   5.497   6.125   3.708  0.2862 -0.1703 -0.0539
 3917TIP3    H111715   5.578   6.139   3.658 -0.2623  1.5135 -0.5391
 3917TIP3    H211716   5.510   6.041   3.751  1.8701 -0.4274 -0.9485
 3918TIP3   OH211717   1.426   5.595   4.187 -0.0792 -0.2629  0.0069
 3918TIP3    H111718   1.347   5.584   4.136 -0.8159  1.0432  0.8012
 3918TIP3    H211719   1.483   5.649   4.132 -0.4330  0.2264  0.1142
 3919TIP3   OH211720   2.559   6.322   3.640  0.5409 -0.3608  0.1577
 3919TIP3    H111721   2.574   6.371   3.721  0.1114 -0.7058  0.4537
 3919TIP3    H211722   2.583   6.232   3.662 -0.8015 -0.7060  0.3012
 3920TIP3   OH211723   2.077   0.682   0.825 -0.4008 -0.0936  0.6056
 3920TIP3    H111724   2.162   0.715   0.797  0.0197 -0.7053  1.1012
 3920TIP3    H211725   2.081   0.588   0.808 -0.8439 -0.1831  0.9501
 3921TIP3   OH211726   5.322   2.877   5.368  0.2380  0.3849  0.0621
 3921TIP3    H111727   5.292   2.870   5.458 -0.3254 -0.7297 -0.1917
 3921TIP3    H211728   5.249   2.919   5.321  0.3696  0.6058  0.0569
 3922TIP3   OH211729   4.943   3.878   2.080 -0.3572  0.0831  0.2861
 3922TIP3    H111730   4.879   3.950   2.074  0.0110  0.3044 -1.7075
 3922TIP3    H211731   5.011   3.911   2.139 -0.6665  0.9812  0.1590
 3923TIP3   OH211732   4.886   2.292   5.229 -0.4870 -0.0939 -0.3466
 3923TIP3    H111733   4.800   2.324   5.259 -1.4575 -3.7547  1.4624
 3923TIP3    H211734   4.935   2.278   5.310  0.2699 -1.7488 -1.0467
 3924TIP3   OH211735   4.011   5.264   2.338  0.1452 -0.0717 -0.2449
 3924TIP3    H111736   4.074   5.204   2.296 -1.1178 -1.8286  0.2273
 3924TIP3    H211737   3.995   5.225   2.424 -0.2831  1.3188  0.3336
 3925TIP3   OH211738   7.075   6.587   2.812 -0.0884 -0.0515  0.1675
 3925TIP3    H111739   7.160   6.546   2.831 -0.4415 -0.8619  0.0471
 3925TIP3    H211740   7.048   6.626   2.895 -0.1842 -0.8938  0.5413
 3926TIP3   OH211741   5.096   0.377   3.016 -0.1054 -0.0446  0.2380
 3926TIP3    H111742   5.192   0.376   3.008 -0.0955  1.0695  0.0686
 3926TIP3    H211743   5.069   0.290   2.988  0.6305  0.6041 -2.8161
 3927TIP3   OH211744   5.121   3.775   1.283 -0.3503 -0.1477  0.4069
 3927TIP3    H111745   5.158   3.858   1.253  0.3301 -0.4305  0.4445
 3927TIP3    H211746   5.188   3.710   1.262 -0.9477 -0.7170  0.2140
 3928TIP3   OH211747   2.433   3.521   5.654  0.0210 -0.6083  0.1348
 3928TIP3    H111748   2.341   3.519   5.681  0.2036  0.8386  0.9572
 3928TIP3    H211749   2.482   3.491   5.731  0.4145  1.7553  0.8985
 3929TIP3   OH211750   6.387   0.770   2.161  0.5083 -0.2405 -0.3938
 3929TIP3    H111751   6.366   0.855   2.123 -1.4980 -0.8591 -0.7683
 3929TIP3    H211752   6.453   0.790   2.228 -0.2747  1.6658 -0.1282
 3930TIP3   OH211753   5.622   2.751   1.480  0.1076 -0.2551  0.2199
 3930TIP3    H111754   5.692   2.690   1.500 -0.7653 -0.8222  1.7407
 3930TIP3    H211755   5.552   2.697   1.443 -0.4126 -0.0960  0.9400
 3931TIP3   OH211756   4.156   1.285   2.299 -0.3849 -0.3349 -0.0936
 3931TIP3    H111757   4.233   1.341   2.302 -0.3096 -0.4414 -0.0329
 3931TIP3    H211758   4.129   1.275   2.390 -0.3098 -0.5180 -0.0910
 3932TIP3   OH211759   6.160   3.050   2.068 -0.7493 -0.2283  0.9744
 3932TIP3    H111760   6.089   3.068   2.007 -1.5525  0.7169  2.1336
 3932TIP3    H211761   6.216   3.128   2.063  0.6740 -1.2988 -0.5129
 3933TIP3   OH211762   2.188   5.827   0.790  0.4604 -0.0814  0.0632
 3933TIP3    H111763   2.144   5.902   0.830  0.1413  0.0448 -0.5250
 3933TIP3    H211764   2.197   5.850   0.698 -0.5016 -1.1612 -0.3236
 3934TIP3   OH211765   0.677   2.244   5.737 -0.0420  0.1047  0.3625
 3934TIP3    H111766   0.715   2.332   5.739  1.5179 -0.4075 -2.0632
 3934TIP3    H211767   0.636   2.238   5.651  0.6821 -1.8126  0.1009
 3935TIP3   OH211768   3.723   0.127   1.847  0.5674 -0.0690 -0.3131
 3935TIP3    H111769   3.744   0.040   1.815 -1.4440 -0.6929 -0.0837
 3935TIP3    H211770   3.633   0.120   1.881  0.6816  1.8521  0.5802
 3936TIP3   OH211771   2.068   6.527   5.680  0.2327 -0.6720 -0.5203
 3936TIP3    H111772   2.011   6.563   5.748  0.8290 -2.9304  1.3091
 3936TIP3    H211773   2.017   6.533   5.599 -1.5482 -0.2782  0.5922
 3937TIP3   OH211774   2.007   1.808   5.890  0.6636  0.7872  0.0718
 3937TIP3    H111775   1.960   1.751   5.830  0.3827  1.5056 -0.4132
 3937TIP3    H211776   2.100   1.791   5.873  0.6578  2.3417 -1.9953
 3938TIP3   OH211777   5.037   0.072   3.850  1.3211  0.4062  0.3016
 3938TIP3    H111778   4.948   0.107   3.851  1.8584  1.9036 -0.4618
 3938TIP3    H211779   5.026  -0.023   3.843 -0.2036  0.4518  1.4759
 3939TIP3   OH211780   6.453   6.194   0.918 -0.5640 -0.5015 -0.1606
 3939TIP3    H111781   6.411   6.131   0.859 -0.3068 -0.7963 -0.0297
 3939TIP3    H211782   6.383   6.254   0.942 -0.2248  0.9735 -2.5152
 3940TIP3   OH211783   5.948   3.203   1.721 -0.4038 -0.1652 -0.2035
 3940TIP3    H111784   5.926   3.183   1.813 -1.7909 -0.0276 -0.4718
 3940TIP3    H211785   5.906   3.287   1.705  0.0508 -0.0703 -0.8953
 3941TIP3   OH211786   6.329   4.278   1.232 -0.5167 -0.0607  0.2531
 3941TIP3    H111787   6.351   4.333   1.307 -1.4002 -0.6283  0.9530
 3941TIP3    H211788   6.294   4.339   1.167  1.6869  0.6547 -0.3317
 3942TIP3   OH211789   6.429   3.017   0.469  0.0958 -0.2053  0.2207
 3942TIP3    H111790   6.420   2.986   0.379 -0.4417 -0.2151  0.2762
 3942TIP3    H211791   6.360   3.082   0.479  0.1336 -0.2271  0.6363
 3943TIP3   OH211792   2.290   0.515   0.738  0.1956  0.1460 -0.0621
 3943TIP3    H111793   2.376   0.556   0.728 -0.5100  2.2871  1.8621
 3943TIP3    H211794   2.290   0.482   0.828  0.0468 -2.6169 -0.9815
 3944TIP3   OH211795   1.458   1.878   1.973 -0.5274  0.2267  0.2955
 3944TIP3    H111796   1.452   1.814   2.044  0.6040 -1.0982 -0.7564
 3944TIP3    H211797   1.462   1.963   2.018 -1.0599 -0.4953  1.7598
 3945TIP3   OH211798   4.360   3.182   3.012 -0.2011 -0.1133  0.1537
 3945TIP3    H111799   4.328   3.112   3.069  1.0188 -1.1239 -0.3451
 3945TIP3    H211800   4.447   3.153   2.985  0.4797  1.7827  0.1940
 3946TIP3   OH211801   6.572   4.649   3.679  0.7159  0.0231 -0.2911
 3946TIP3    H111802   6.615   4.602   3.608 -0.6051  0.7191 -1.5990
 3946TIP3    H211803   6.489   4.679   3.642 -0.1162  0.2373  1.6153
 3947TIP3   OH211804   5.658   5.175   2.737  0.4006 -0.1100  0.7367
 3947TIP3    H111805   5.706   5.138   2.812  0.4911  0.0560  0.7624
 3947TIP3    H211806   5.724   5.228   2.691  0.2629  0.0515  0.7248
 3948TIP3   OH211807   4.493   2.792   0.218 -0.3708  0.4468 -0.2925
 3948TIP3    H111808   4.574   2.796   0.166  0.5336  0.4182  1.0800
 3948TIP3    H211809   4.499   2.867   0.277  0.1604 -1.2903  1.9534
 3949TIP3   OH211810   7.204   5.184   1.002  0.0343  0.4265  0.7702
 3949TIP3    H111811   7.253   5.254   0.959 -1.6246  1.0472 -0.2007
 3949TIP3    H211812   7.185   5.217   1.089  0.6989  0.4732  0.9018
 3950TIP3   OH211813   1.620   0.947   3.632 -0.0812 -0.2394 -0.4899
 3950TIP3    H111814   1.573   0.871   3.666 -0.7608 -0.2458 -1.4343
 3950TIP3    H211815   1.696   0.910   3.588 -0.4902 -0.3843 -1.0770
 3951TIP3   OH211816   5.981   2.724   4.254 -0.4697 -0.1527 -0.0247
 3951TIP3    H111817   5.936   2.795   4.301  0.9266  0.7180  0.0733
 3951TIP3    H211818   5.925   2.647   4.267 -1.0183  0.4695  1.5724
 3952TIP3   OH211819   5.839   4.791   4.486  0.5599  0.4482  0.0080
 3952TIP3    H111820   5.824   4.871   4.535  0.8604  0.6519 -0.2260
 3952TIP3    H211821   5.797   4.722   4.538  2.8513  0.2878  1.7901
 3953TIP3   OH211822   0.815   4.454   3.499 -0.1952 -0.5147 -0.0416
 3953TIP3    H111823   0.787   4.469   3.589 -0.0962 -0.3096 -0.0430
 3953TIP3    H211824   0.738   4.419   3.455 -0.9861  1.5522 -0.4460
 3954TIP3   OH211825   2.498   5.226   0.468  0.2751 -0.2060  0.1749
 3954TIP3    H111826   2.483   5.189   0.554 -0.0078  3.3262  1.8197
 3954TIP3    H211827   2.411   5.251   0.436  0.5858  0.7035 -0.0017
 3955TIP3   OH211828   2.879   6.101   2.956 -0.1258  0.1305  0.0148
 3955TIP3    H111829   2.825   6.082   2.879 -0.5305  1.1173  0.0430
 3955TIP3    H211830   2.847   6.040   3.022  0.1151 -0.6164 -0.5339
 3956TIP3   OH211831   4.661   5.630   3.528 -0.3647 -0.0475  0.2265
 3956TIP3    H111832   4.705   5.602   3.448 -0.1197  0.1272  0.3007
 3956TIP3    H211833   4.591   5.688   3.497 -1.1855 -1.1103  0.0354
 3957TIP3   OH211834   1.330   2.385   5.621  0.3350  0.2651 -0.1041
 3957TIP3    H111835   1.324   2.454   5.555 -0.3977 -0.9436 -1.3486
 3957TIP3    H211836   1.239   2.360   5.637  0.5892 -0.3385  0.4083
 3958TIP3   OH211837   0.570   5.265   3.452  0.2764  0.0998 -0.0040
 3958TIP3    H111838   0.660   5.285   3.480 -0.0337  1.4533  0.0921
 3958TIP3    H211839   0.516   5.290   3.526 -0.4029  1.9589 -1.0715
 3959TIP3   OH211840   5.745   2.706   5.669  0.2055 -0.3396  0.0324
 3959TIP3    H111841   5.681   2.662   5.725 -2.5050  2.5325 -0.5262
 3959TIP3    H211842   5.702   2.711   5.583  1.9885  0.1177 -0.8914
 3960TIP3   OH211843   1.476   3.605   0.249 -0.2202 -0.4410 -0.0893
 3960TIP3    H111844   1.455   3.606   0.155 -0.5116 -0.3327 -0.0254
 3960TIP3    H211845   1.392   3.585   0.292 -0.1664 -0.1302  0.1666
 3961TIP3   OH211846   5.018   4.338   1.119 -0.3576  0.5201 -0.2256
 3961TIP3    H111847   4.957   4.302   1.184  0.7039 -2.6662 -0.8339
 3961TIP3    H211848   5.078   4.392   1.171 -0.1039 -1.1890  1.3906
 3962TIP3   OH211849   3.548   0.108   0.409  0.4362 -0.3128 -0.2770
 3962TIP3    H111850   3.601   0.029   0.416 -0.4940 -0.8829  0.6425
 3962TIP3    H211851   3.530   0.116   0.315  2.0613 -0.1390 -0.5961
 3963TIP3   OH211852   4.390   6.220   5.368  0.0421 -0.1203 -0.2829
 3963TIP3    H111853   4.352   6.271   5.297  2.0805  2.5750  0.4021
 3963TIP3    H211854   4.370   6.271   5.447  1.4429 -0.8163  0.5522
 3964TIP3   OH211855   3.771   2.228   4.789  0.1818 -0.3689 -0.6149
 3964TIP3    H111856   3.859   2.228   4.752  0.3099  0.5635 -0.3271
 3964TIP3    H211857   3.770   2.153   4.848  0.2222 -1.4067 -1.8908
 3965TIP3   OH211858   4.925   2.987   5.696 -0.0136 -0.7279 -0.3311
 3965TIP3    H111859   4.989   3.057   5.693 -0.7270 -0.0513 -3.9335
 3965TIP3    H211860   4.874   3.005   5.776  0.4043  2.3443 -0.6309
 3966TIP3   OH211861   6.059   2.935   5.032 -0.5721 -0.0202  0.2883
 3966TIP3    H111862   6.025   3.014   4.991 -0.2387 -0.4561 -0.8773
 3966TIP3    H211863   6.086   2.962   5.120 -2.2960  0.7081  0.6203
 3967TIP3   OH211864   4.663   6.347   5.210  0.3028  0.6029  0.3034
 3967TIP3    H111865   4.633   6.274   5.265  0.4103  0.9760  0.8630
 3967TIP3    H211866   4.596   6.354   5.142 -0.3036  0.7012  0.8962
 3968TIP3   OH211867   6.650   6.714   5.844 -0.0165 -0.6348 -0.6257
 3968TIP3    H111868   6.591   6.641   5.828  2.1424 -2.6933  0.2939
 3968TIP3    H211869   6.688   6.734   5.758 -0.4809 -0.6641 -0.8434
 3969TIP3   OH211870   5.706   2.934   4.896 -0.0042  0.2894  0.2460
 3969TIP3    H111871   5.712   2.843   4.869  0.2543  0.7076 -1.1932
 3969TIP3    H211872   5.622   2.964   4.861 -1.6087 -0.1611  3.3263
 3970TIP3   OH211873   3.490   1.118   0.491  0.2357 -0.2712 -0.1561
 3970TIP3    H111874   3.467   1.043   0.546  1.0508  0.0376  0.6324
 3970TIP3    H211875   3.525   1.183   0.552  0.7667  0.2481 -0.9882
 3971TIP3   OH211876   1.710   3.912   2.176  0.1552 -0.3487 -0.1178
 3971TIP3    H111877   1.703   3.900   2.081 -1.5600 -0.3571 -0.0197
 3971TIP3    H211878   1.620   3.905   2.208  0.5319  0.9677  1.3642
 3972TIP3   OH211879   5.745   0.041   4.078 -0.0878  0.0360 -0.1728
 3972TIP3    H111880   5.706  -0.009   4.006  0.7090  0.4836 -0.9428
 3972TIP3    H211881   5.690   0.021   4.154 -1.6967  0.5115 -1.1593
 3973TIP3   OH211882   4.384   1.854   4.391 -0.3717  0.1059  0.4308
 3973TIP3    H111883   4.406   1.789   4.324 -2.2916  0.9035 -1.0812
 3973TIP3    H211884   4.383   1.804   4.473  3.9945 -0.5283  0.3436
 3974TIP3   OH211885   6.620   5.302   2.424  0.3714  0.5809  0.1916
 3974TIP3    H111886   6.670   5.351   2.358  0.9930  0.6697  0.7203
 3974TIP3    H211887   6.537   5.281   2.381  2.2959 -3.1302 -2.3239
 3975TIP3   OH211888   1.712   1.849   4.667  0.2156 -0.4646 -0.3897
 3975TIP3    H111889   1.712   1.938   4.704  1.1667 -0.1243 -1.1824
 3975TIP3    H211890   1.635   1.808   4.706  1.0580 -0.0711  1.8602
 3976TIP3   OH211891   5.512   3.166   3.693 -0.4768 -0.9084 -0.1306
 3976TIP3    H111892   5.435   3.223   3.695 -1.4263 -2.1606  0.5246
 3976TIP3    H211893   5.563   3.196   3.618 -0.8313  0.9244  0.3221
 3977TIP3   OH211894   5.540   4.650   3.415 -0.4346 -0.4993 -0.3267
 3977TIP3    H111895   5.562   4.612   3.330 -0.3271  0.6205 -0.8168
 3977TIP3    H211896   5.534   4.744   3.399  1.2858 -0.0413  1.2282
 3978TIP3   OH211897   2.356   3.321   2.140 -0.4483 -0.1181  0.0262
 3978TIP3    H111898   2.286   3.342   2.202 -0.6475 -0.0793 -0.2058
 3978TIP3    H211899   2.430   3.374   2.168 -0.3379 -0.5642  0.5989
 3979TIP3   OH211900   6.768   6.079   1.523 -0.1090 -0.0068 -0.1832
 3979TIP3    H111901   6.813   6.075   1.438  1.4033 -0.4873  0.5872
 3979TIP3    H211902   6.800   6.002   1.570 -1.5466 -0.1955  0.5424
 3980TIP3   OH211903   2.062   3.139   4.437 -0.3905 -0.1202  0.4232
 3980TIP3    H111904   2.108   3.055   4.444  0.0799  0.2320  1.9798
 3980TIP3    H211905   2.124   3.196   4.391  0.4502  0.1168  1.7762
 3981TIP3   OH211906   0.932   4.549   4.227 -0.1056 -0.3383  0.2003
 3981TIP3    H111907   0.957   4.635   4.261 -1.8584  1.0270 -1.6957
 3981TIP3    H211908   0.937   4.559   4.132  0.3339 -2.5894 -0.0567
 3982TIP3   OH211909   4.003   6.501   4.247  0.0199 -0.3024  0.1706
 3982TIP3    H111910   4.022   6.411   4.219  0.8973  0.1126 -0.6415
 3982TIP3    H211911   4.087   6.546   4.239 -0.2647  0.4421  1.1898
 3983TIP3   OH211912   5.227   1.328   5.333 -0.0190  0.7169  1.0077
 3983TIP3    H111913   5.170   1.251   5.332 -0.2220  0.8102  2.7038
 3983TIP3    H211914   5.221   1.361   5.422  1.4591  1.6741  0.7845
 3984TIP3   OH211915   6.495   3.968   5.545  0.1169 -0.0817 -0.2329
 3984TIP3    H111916   6.490   4.052   5.501 -0.9005 -0.2927 -0.5391
 3984TIP3    H211917   6.571   3.976   5.602 -0.2469  1.2223  0.1103
 3985TIP3   OH211918   5.956   0.092   0.608 -0.7651 -0.1667 -0.0700
 3985TIP3    H111919   5.922   0.135   0.686 -0.7686 -2.2105  1.1292
 3985TIP3    H211920   5.878   0.072   0.555 -0.8338  0.4919 -0.2293
 3986TIP3   OH211921   5.705   3.905   3.199 -0.6983  0.1425 -0.2305
 3986TIP3    H111922   5.695   3.939   3.288 -0.9140  0.5857 -0.4174
 3986TIP3    H211923   5.683   3.812   3.205 -1.7959  0.3996 -0.0248
 3987TIP3   OH211924   1.492   3.491   3.688 -0.3382  0.2528  0.0902
 3987TIP3    H111925   1.449   3.501   3.773  1.3156  0.6833  0.9343
 3987TIP3    H211926   1.466   3.405   3.658 -2.1500  0.6793  0.3086
 3988TIP3   OH211927   3.195   5.541   1.117  0.8794 -0.1285 -0.2037
 3988TIP3    H111928   3.249   5.595   1.059  1.4387 -1.5657 -1.0700
 3988TIP3    H211929   3.133   5.498   1.058  2.5776 -2.9898 -0.0883
 3989TIP3   OH211930   3.043   0.164   3.022  0.0694  0.0168  0.6128
 3989TIP3    H111931   3.108   0.234   3.033  3.6000 -2.7978 -0.3141
 3989TIP3    H211932   3.029   0.130   3.110  1.5462 -0.6736  0.6045
 3990TIP3   OH211933   0.786   1.059   3.532 -0.2839 -0.3573 -0.3790
 3990TIP3    H111934   0.697   1.033   3.556 -0.9044  0.7044 -1.4350
 3990TIP3    H211935   0.779   1.086   3.441  0.7850  1.3261 -0.0026
 3991TIP3   OH211936   2.269   0.958   5.516  0.2077  0.0544  0.4326
 3991TIP3    H111937   2.203   0.890   5.530 -1.1094  0.8130 -1.5306
 3991TIP3    H211938   2.352   0.918   5.541 -0.7939 -1.5011  1.4072
 3992TIP3   OH211939   6.446   4.914   2.435  0.1242 -0.2370  0.4650
 3992TIP3    H111940   6.456   4.884   2.344 -0.0216  1.5315 -0.1741
 3992TIP3    H211941   6.376   4.979   2.431 -0.0383 -0.3014  1.8996
 3993TIP3   OH211942   6.972   5.252   1.654 -0.2393 -0.2570 -0.3589
 3993TIP3    H111943   6.981   5.167   1.610 -0.5477 -0.6591  0.3286
 3993TIP3    H211944   6.878   5.270   1.651 -0.2379 -0.1945 -0.0339
 3994TIP3   OH211945   2.936   1.102   3.512 -0.0112  0.6215 -0.5936
 3994TIP3    H111946   3.009   1.158   3.484  0.6872  0.1927  0.2949
 3994TIP3    H211947   2.897   1.070   3.431  0.0166  1.8351 -1.1057
 3995TIP3   OH211948   0.640   2.918   3.201  0.2435 -0.3115  0.1773
 3995TIP3    H111949   0.683   2.880   3.277  0.6042  2.3572  1.4292
 3995TIP3    H211950   0.711   2.939   3.140  0.4890  1.4360  1.0006
 3996TIP3   OH211951   0.113   0.404   3.786  0.1370  0.3160  0.4351
 3996TIP3    H111952   0.192   0.355   3.810 -0.6079 -0.8040  0.7111
 3996TIP3    H211953   0.069   0.348   3.722  0.9737  2.2450 -1.9844
 3997TIP3   OH211954   1.657   5.261   1.743  0.1585 -0.4101  0.5641
 3997TIP3    H111955   1.717   5.220   1.681  0.1802  0.3754  0.0504
 3997TIP3    H211956   1.603   5.319   1.689 -2.2387 -2.3196  0.6858
 3998TIP3   OH211957   3.039   4.833   0.056  0.4106 -0.3066 -0.4763
 3998TIP3    H111958   2.986   4.871  -0.014 -1.1260  0.3112  0.9506
 3998TIP3    H211959   3.074   4.752   0.019 -0.1050  0.1607 -2.0513
 3999TIP3   OH211960   4.191   1.859   1.719 -0.2767 -0.1878 -0.0357
 3999TIP3    H111961   4.219   1.933   1.664 -1.1594  0.1286 -0.0729
 3999TIP3    H211962   4.134   1.899   1.785 -2.3407 -1.0582 -1.2053
 4000TIP3   OH211963   5.705   4.883   1.013  0.3697 -0.0381 -0.2488
 4000TIP3    H111964   5.764   4.924   1.075 -1.0651  0.4629  0.8443
 4000TIP3    H211965   5.761   4.829   0.958  1.5698 -1.3734  2.1594
 4001TIP3   OH211966   3.252   4.904   2.946 -0.0907  0.0909 -0.2108
 4001TIP3    H111967   3.325   4.850   2.917  0.2524  1.2683 -1.6638
 4001TIP3    H211968   3.285   4.949   3.024  0.5075  0.1316 -0.4868
 4002TIP3   OH211969   4.533   0.342   1.076  0.0746 -0.4733  0.6163
 4002TIP3    H111970   4.518   0.436   1.078 -0.5237 -0.5191 -0.5305
 4002TIP3    H211971   4.460   0.305   1.125  1.3754 -0.2694  2.7952
 4003TIP3   OH211972   0.985   3.338   1.665  0.0124  0.1603 -0.0625
 4003TIP3    H111973   1.023   3.296   1.742  0.8045  1.8532  0.5375
 4003TIP3    H211974   1.056   3.339   1.601 -0.7678 -1.6146 -1.0239
 4004TIP3   OH211975   1.065   3.184   2.715 -0.4130  0.7692  0.3995
 4004TIP3    H111976   1.146   3.199   2.763  0.2840 -0.1315 -0.4603
 4004TIP3    H211977   1.084   3.111   2.656 -1.5178  1.2401 -0.5989
 4005TIP3   OH211978   0.532   1.453   3.243  0.1235 -0.4235 -0.3504
 4005TIP3    H111979   0.534   1.437   3.338  2.0856  0.8278 -0.1101
 4005TIP3    H211980   0.440   1.443   3.219 -0.8502  1.4348  2.1080
 4006TIP3   OH211981   1.688   6.618   0.478  0.1588  0.9054 -0.1719
 4006TIP3    H111982   1.619   6.578   0.532  1.2720 -0.3781  0.3584
 4006TIP3    H211983   1.686   6.710   0.502 -1.4800  0.9380 -0.3025
 4007TIP3   OH211984   2.850   6.630   2.450 -0.2194 -0.1911 -0.1086
 4007TIP3    H111985   2.796   6.709   2.442  0.3103  0.1787 -0.1322
 4007TIP3    H211986   2.929   6.660   2.494  1.0588 -0.1709 -2.2490
 4008TIP3   OH211987   2.752   3.797   2.717 -0.5024 -0.0252 -0.6434
 4008TIP3    H111988   2.845   3.801   2.699 -0.8505  0.5485 -2.4941
 4008TIP3    H211989   2.723   3.888   2.713 -0.8299  0.0723  2.0066
 4009TIP3   OH211990   6.246   3.789   5.602 -0.6246 -0.1527  0.0273
 4009TIP3    H111991   6.329   3.833   5.584 -1.7267  0.4762 -4.8946
 4009TIP3    H211992   6.269   3.697   5.612  0.6922  0.0213 -1.1515
 4010TIP3   OH211993   1.887   4.704   1.459 -0.0563  0.5853 -0.2177
 4010TIP3    H111994   1.872   4.621   1.505  0.8228  0.3298 -0.3773
 4010TIP3    H211995   1.826   4.702   1.385  0.2868 -0.1391 -0.4917
 4011TIP3   OH211996   3.024   4.051   5.153  0.0379 -0.2262 -0.3174
 4011TIP3    H111997   3.059   4.025   5.238 -1.5864 -0.0422  0.4551
 4011TIP3    H211998   2.938   4.009   5.148 -1.0433  1.8417 -0.6658
 4012TIP3   OH211999   6.301   3.726   4.344  0.3393 -0.0344  0.6257
 4012TIP3    H112000   6.368   3.669   4.307 -0.5076 -1.5246  1.2811
 4012TIP3    H212001   6.251   3.756   4.268  0.0365 -1.1945  0.3425
 4013TIP3   OH212002   2.575   3.666   0.414  0.1244 -0.7967  0.0792
 4013TIP3    H112003   2.557   3.743   0.361 -0.4851 -1.0238 -0.0401
 4013TIP3    H212004   2.666   3.678   0.442 -0.9294  1.7659  2.9814
 4014TIP3   OH212005   6.482   5.034   5.422 -0.0215  0.3777 -0.4412
 4014TIP3    H112006   6.464   5.124   5.394  0.8447  0.1374 -1.8350
 4014TIP3    H212007   6.573   5.019   5.397  0.0248 -0.7052  0.3170
 4015TIP3   OH212008   4.437   6.247   3.075 -0.0505 -0.0120  0.1489
 4015TIP3    H112009   4.499   6.185   3.114  0.6286  0.3730 -0.3027
 4015TIP3    H212010   4.359   6.240   3.130  0.0249 -1.2263  0.1385
 4016TIP3   OH212011   3.079   5.896   0.148  0.3378 -0.0957  0.3838
 4016TIP3    H112012   3.166   5.858   0.133 -0.7908 -2.3113 -0.9160
 4016TIP3    H212013   3.062   5.948   0.070  1.1887  1.9545  1.4567
 4017TIP3   OH212014   2.375   2.544   4.430 -0.0857  0.3147  0.4659
 4017TIP3    H112015   2.402   2.528   4.340  0.4261 -0.6944  0.7883
 4017TIP3    H212016   2.443   2.504   4.483 -0.3765  0.9154  1.3101
 4018TIP3   OH212017   0.535   3.042   3.602 -0.0392 -0.2980  0.5180
 4018TIP3    H112018   0.597   3.099   3.557 -1.0344 -1.1320 -2.0777
 4018TIP3    H212019   0.564   2.953   3.580 -0.3226 -0.7640  1.9271
 4019TIP3   OH212020   5.799   3.274   5.770 -0.1482 -0.0275 -0.0477
 4019TIP3    H112021   5.812   3.193   5.820 -0.5703  0.3390  0.6825
 4019TIP3    H212022   5.885   3.315   5.769 -0.7878  1.8575  3.8234
 4020TIP3   OH212023   2.475   0.101   1.438  0.2114 -0.8523 -0.2398
 4020TIP3    H112024   2.525   0.046   1.499 -0.3703 -1.0077  0.1080
 4020TIP3    H212025   2.442   0.040   1.372 -0.7162 -0.9933  0.3324
 4021TIP3   OH212026   3.274   3.835   5.130  0.0477  0.4652 -0.1397
 4021TIP3    H112027   3.264   3.741   5.145 -0.7623  0.5079 -0.3655
 4021TIP3    H212028   3.369   3.848   5.122  0.1494 -0.3775 -0.4253
 4022TIP3   OH212029   7.199   0.129   2.679 -0.2629 -0.9221 -0.4799
 4022TIP3    H112030   7.155   0.155   2.598  0.1856 -2.4155 -1.2417
 4022TIP3    H212031   7.164   0.042   2.698 -0.8750 -0.3263  1.3357
 4023TIP3   OH212032   5.834   6.062   4.726  0.0573 -0.1539  0.1315
 4023TIP3    H112033   5.840   6.157   4.711 -1.6056  0.0241  0.3218
 4023TIP3    H212034   5.786   6.029   4.650  0.3830 -0.7982  0.2018
 4024TIP3   OH212035   6.140   2.633   0.860 -0.2193  0.1792 -0.0722
 4024TIP3    H112036   6.080   2.705   0.841  0.3544  0.5851 -0.3754
 4024TIP3    H212037   6.099   2.556   0.821 -0.5041  0.4703 -0.3457
 4025TIP3   OH212038   6.916   2.591   4.728  0.3857 -0.5944 -0.0476
 4025TIP3    H112039   6.854   2.559   4.793 -0.3430 -0.4336 -0.6525
 4025TIP3    H212040   6.900   2.537   4.650  1.4250 -0.9566 -0.0233
 4026TIP3   OH212041   2.395   4.823   1.376  0.2567  0.1958  0.3260
 4026TIP3    H112042   2.426   4.840   1.464  1.7095  0.1064 -0.1449
 4026TIP3    H212043   2.394   4.908   1.333 -0.7972  0.2936  0.5184
 4027TIP3   OH212044   2.660   6.343   4.248 -0.6037  0.2298  0.3044
 4027TIP3    H112045   2.730   6.404   4.225 -0.0132 -0.9740 -1.2871
 4027TIP3    H212046   2.620   6.381   4.326  1.6086  1.1469  1.0897
 4028TIP3   OH212047   3.381   2.150   0.575 -0.5618  0.3625 -0.1045
 4028TIP3    H112048   3.337   2.175   0.656 -0.9520 -1.1495  0.1887
 4028TIP3    H212049   3.463   2.110   0.603 -1.6909 -2.2316 -0.2548
 4029TIP3   OH212050   3.364   1.720   1.443  0.2313 -0.3200  0.6021
 4029TIP3    H112051   3.307   1.659   1.397  0.8603  0.2828 -1.0663
 4029TIP3    H212052   3.430   1.745   1.378 -0.2310  2.4310  1.0508
 4030TIP3   OH212053   3.054   0.173   2.746 -0.3954 -0.0960  0.9324
 4030TIP3    H112054   3.072   0.179   2.840 -1.2017  0.0407  1.0897
 4030TIP3    H212055   2.988   0.241   2.731  0.6703  0.7747  0.0170
 4031TIP3   OH212056   5.735   4.838   4.925 -0.3565  0.3131  0.4899
 4031TIP3    H112057   5.819   4.878   4.905 -0.5836 -0.5021 -2.6753
 4031TIP3    H212058   5.749   4.744   4.910 -2.0577  0.2861 -1.3012
 4032TIP3   OH212059   3.962   4.858   2.242  0.2575  0.2441  0.0344
 4032TIP3    H112060   3.870   4.869   2.218  0.7862 -0.9219 -2.8989
 4032TIP3    H212061   3.968   4.767   2.272  0.5985  0.0789 -0.5293
 4033TIP3   OH212062   1.081   0.470   4.434  0.3611 -0.1814 -0.5330
 4033TIP3    H112063   1.104   0.468   4.527  0.5267  2.0318 -0.4780
 4033TIP3    H212064   1.052   0.559   4.418 -0.8920 -0.8512 -2.3547
 4034TIP3   OH212065   0.548   5.063   1.542 -0.1915  0.3882 -0.2495
 4034TIP3    H112066   0.581   5.130   1.601 -1.2009  1.9848 -1.4067
 4034TIP3    H212067   0.552   5.103   1.455  1.6968 -2.0329 -1.4248
 4035TIP3   OH212068   1.941   2.216   1.075  0.0290  0.0343  0.3360
 4035TIP3    H112069   2.032   2.211   1.048  0.4051  0.7219  1.4085
 4035TIP3    H212070   1.891   2.187   0.998  1.1555 -0.7398 -0.1251
 4036TIP3   OH212071   5.835   2.172   2.000  0.2841  0.2788  0.0297
 4036TIP3    H112072   5.857   2.191   1.909  1.7726  2.2389  0.7127
 4036TIP3    H212073   5.896   2.104   2.027 -0.4489 -0.6181 -0.5268
 4037TIP3   OH212074   4.069   5.671   2.624  0.0657  0.6839 -0.5552
 4037TIP3    H112075   4.038   5.618   2.698 -1.4517  0.3149 -1.4166
 4037TIP3    H212076   4.070   5.761   2.657  0.7174  0.3729  0.3093
 4038TIP3   OH212077   6.117   5.268   2.613 -0.6159  0.2329  0.2505
 4038TIP3    H112078   6.061   5.345   2.606  0.7082  1.1638 -0.6161
 4038TIP3    H212079   6.073   5.212   2.677 -2.7116  0.7343 -0.6633
 4039TIP3   OH212080   4.418   5.652   2.602  0.0979  0.6808  0.6444
 4039TIP3    H112081   4.338   5.683   2.559  0.3227 -0.2153 -0.4624
 4039TIP3    H212082   4.488   5.674   2.540  0.5222  0.0563  0.8959
 4040TIP3   OH212083   1.870   1.511   2.372 -0.8190  0.1665  0.4390
 4040TIP3    H112084   1.906   1.584   2.322  1.8325 -0.7214  0.9089
 4040TIP3    H212085   1.883   1.535   2.464 -0.6795 -0.5449  0.6136
 4041TIP3   OH212086   2.390   6.476   3.456 -0.1540 -0.2056  0.1384
 4041TIP3    H112087   2.436   6.543   3.506 -2.3447  0.3914  1.5273
 4041TIP3    H212088   2.404   6.395   3.505 -2.2325  0.3645  1.8599
 4042TIP3   OH212089   3.482   5.904   1.699  0.0265  0.0647 -0.9048
 4042TIP3    H112090   3.442   5.860   1.624 -0.9297  0.3670 -0.5990
 4042TIP3    H212091   3.407   5.944   1.745  0.7143  0.8128 -0.4087
 4043TIP3   OH212092   5.768   0.297   2.468 -0.0904  0.3011 -0.1079
 4043TIP3    H112093   5.805   0.362   2.409  0.7745 -0.4689 -0.4229
 4043TIP3    H212094   5.720   0.237   2.411 -0.0785  0.1106  0.0809
 4044TIP3   OH212095   4.147   4.866   0.226 -0.0172 -0.8024 -0.1827
 4044TIP3    H112096   4.156   4.783   0.272 -0.9455 -1.4897 -1.1785
 4044TIP3    H212097   4.201   4.856   0.148 -0.2070 -0.5209 -0.3537
 4045TIP3   OH212098   2.764   1.645   3.012  0.3593 -0.1665 -0.2205
 4045TIP3    H112099   2.804   1.680   3.092  1.3031  0.4367 -0.9341
 4045TIP3    H212100   2.695   1.707   2.991  0.4288 -0.0608 -0.1383
 4046TIP3   OH212101   1.430   1.088   1.035  0.2510 -0.3496 -0.1175
 4046TIP3    H112102   1.487   1.057   0.964 -0.4193  0.6160 -1.1258
 4046TIP3    H212103   1.462   1.177   1.053  0.1085 -0.4144  0.4625
 4047TIP3   OH212104   3.986   0.868   1.994  0.6535 -0.2435  0.1360
 4047TIP3    H112105   3.927   0.825   2.055  0.1301  0.0273 -0.1728
 4047TIP3    H212106   4.000   0.955   2.031  0.5403 -0.1677  0.0001
 4048TIP3   OH212107   0.772   0.509   0.214  0.0357  0.5881 -0.1929
 4048TIP3    H112108   0.784   0.589   0.164 -0.2323  0.1806 -0.9214
 4048TIP3    H212109   0.739   0.539   0.299 -0.4224  1.2245 -0.5840
 4049TIP3   OH212110   6.168   5.210   5.027 -0.1470  0.0737  0.5987
 4049TIP3    H112111   6.120   5.140   5.071 -2.5670  0.8625 -0.5917
 4049TIP3    H212112   6.205   5.168   4.950 -0.7708 -0.1229  0.3978
 4050TIP3   OH212113   4.139   2.961   3.957 -0.2001 -0.2307 -0.1918
 4050TIP3    H112114   4.191   2.881   3.949  1.7802  1.1490 -2.0721
 4050TIP3    H212115   4.108   2.978   3.868  0.6145  1.8130 -0.1338
 4051TIP3   OH212116   6.101   2.720   2.970 -0.0873  0.1016 -1.2362
 4051TIP3    H112117   6.052   2.662   2.910 -0.1389  0.1596 -1.2501
 4051TIP3    H212118   6.034   2.758   3.027  0.0216 -0.3441 -0.8091
 4052TIP3   OH212119   5.490   1.244   1.531  0.3357  0.1203  0.3475
 4052TIP3    H112120   5.484   1.247   1.436 -0.3896 -1.2883  0.3233
 4052TIP3    H212121   5.400   1.252   1.561  0.6461  1.6330  0.9929
 4053TIP3   OH212122   1.580   6.487   4.828 -0.0653  0.1178  0.2492
 4053TIP3    H112123   1.589   6.422   4.758 -1.6741 -0.3467  0.4493
 4053TIP3    H212124   1.561   6.569   4.782  0.6248  0.1809  0.0667
 4054TIP3   OH212125   4.815   6.243   3.341 -0.0887  0.3363  0.1206
 4054TIP3    H112126   4.818   6.292   3.258 -0.5897  2.4572  1.2875
 4054TIP3    H212127   4.906   6.244   3.372 -0.1020  0.5364  0.1525
 4055TIP3   OH212128   6.193   4.559   5.126 -0.0590  0.3676 -0.5305
 4055TIP3    H112129   6.286   4.546   5.146  0.3081  1.8414 -1.1602
 4055TIP3    H212130   6.191   4.639   5.072 -1.6680  0.2269 -0.7211
 4056TIP3   OH212131   7.141   4.202   3.909 -0.0398 -0.1057 -0.0011
 4056TIP3    H112132   7.215   4.223   3.967 -1.3378 -0.0337  1.6832
 4056TIP3    H212133   7.167   4.120   3.867  1.4612  0.4799 -0.3076
 4057TIP3   OH212134   5.029   1.529   4.705  0.2055  0.0145 -0.2976
 4057TIP3    H112135   4.989   1.442   4.702  1.0603 -0.3742 -0.8188
 4057TIP3    H212136   4.958   1.589   4.682 -0.7788 -0.3834  1.5020
 4058TIP3   OH212137   4.956   1.273   4.743  0.4728  0.1446 -0.3562
 4058TIP3    H112138   5.025   1.212   4.716 -1.2385 -1.4351 -1.4565
 4058TIP3    H212139   4.917   1.232   4.821 -0.3825  0.0321 -0.8245
 4059TIP3   OH212140   2.724   3.288   2.274 -0.2914  0.2008  0.3950
 4059TIP3    H112141   2.729   3.271   2.180  0.4900 -2.0515  0.8022
 4059TIP3    H212142   2.800   3.342   2.293 -0.9501  1.4552 -0.3812
 4060TIP3   OH212143   1.941   5.436   4.649  0.2026  0.1317 -1.0423
 4060TIP3    H112144   1.902   5.521   4.630  0.4677  0.1919 -1.3255
 4060TIP3    H212145   2.007   5.423   4.580  1.6050  0.6339  0.1503
 4061TIP3   OH212146   6.609   1.578   1.886  0.2036  0.1706  0.5582
 4061TIP3    H112147   6.529   1.526   1.879 -0.0876  0.7240 -0.4604
 4061TIP3    H212148   6.579   1.669   1.880  1.0322  0.3746 -1.9704
 4062TIP3   OH212149   7.235   4.292   3.361 -0.0967 -0.1682 -0.5905
 4062TIP3    H112150   7.186   4.222   3.404  0.0864 -0.4098 -0.7700
 4062TIP3    H212151   7.201   4.372   3.399 -2.4068 -0.1634 -2.4632
 4063TIP3   OH212152   3.955   5.974   1.663 -0.1379 -0.3360 -0.0741
 4063TIP3    H112153   3.913   6.040   1.608  0.4589  0.8346  0.8487
 4063TIP3    H212154   3.978   5.903   1.602 -0.7923  0.2927 -1.0726
 4064TIP3   OH212155   3.501   2.155   3.581 -0.0301 -0.3662  0.0340
 4064TIP3    H112156   3.481   2.211   3.657  1.9071  0.9214 -0.3457
 4064TIP3    H212157   3.456   2.197   3.508  1.9108  1.1414 -0.3671
 4065TIP3   OH212158   6.822   2.877   4.058 -0.0670  0.0480  0.0844
 4065TIP3    H112159   6.836   2.791   4.018  0.0836 -0.1508  0.5596
 4065TIP3    H212160   6.803   2.935   3.984 -0.1785 -0.3948 -0.2361
 4066TIP3   OH212161   3.366   0.372   4.994  0.0332  0.1374  0.3239
 4066TIP3    H112162   3.405   0.294   5.034  1.3632  1.5318  1.9312
 4066TIP3    H212163   3.320   0.415   5.065  2.3014  2.6040  0.4609
 4067TIP3   OH212164   3.391   0.743   5.149 -0.6212 -0.3482 -0.3032
 4067TIP3    H112165   3.434   0.800   5.213 -0.4885  1.1941 -1.6855
 4067TIP3    H212166   3.335   0.686   5.202  0.5360 -0.1001  1.2674
 4068TIP3   OH212167   6.762   0.386   3.429 -0.0468  0.0952  0.0226
 4068TIP3    H112168   6.750   0.397   3.335  0.4441 -0.2461 -0.0867
 4068TIP3    H212169   6.755   0.291   3.443 -1.0184  0.2200  0.4677
 4069TIP3   OH212170   5.533   3.307   3.449 -0.0231 -0.4481  0.5047
 4069TIP3    H112171   5.482   3.388   3.453 -0.3242 -0.6516  0.7898
 4069TIP3    H212172   5.610   3.331   3.398 -0.3275 -0.0966  0.1922
 4070TIP3   OH212173   2.541   4.059   5.614  0.6734 -0.0712  0.0486
 4070TIP3    H112174   2.635   4.069   5.627  1.1104 -0.1639 -2.4647
 4070TIP3    H212175   2.519   4.126   5.550 -0.7396 -0.8020 -0.2659
 4071TIP3   OH212176   2.089   1.817   1.693  0.4601  0.2929 -0.4639
 4071TIP3    H112177   2.034   1.884   1.654 -1.8157 -1.6439 -0.8162
 4071TIP3    H212178   2.136   1.778   1.619  2.8243  2.2349 -0.1174
 4072TIP3   OH212179   1.487   0.099   2.015  0.7707 -0.0733  0.6495
 4072TIP3    H112180   1.499   0.006   2.001  0.5479 -0.2196  1.3693
 4072TIP3    H212181   1.448   0.105   2.103  0.1217  0.6533  0.3212
 4073TIP3   OH212182   4.628   0.158   1.642 -0.0221 -0.4173  0.5367
 4073TIP3    H112183   4.640   0.150   1.548  2.5089 -0.3670  0.7733
 4073TIP3    H212184   4.534   0.149   1.656 -0.4850 -0.1277 -2.0023
 4074TIP3   OH212185   5.088   3.694   1.556  0.3093  0.2169  0.4171
 4074TIP3    H112186   5.164   3.740   1.590  0.5264  0.4535 -0.3772
 4074TIP3    H212187   5.079   3.724   1.465  0.0300 -0.7594  0.1037
 4075TIP3   OH212188   4.411   2.449   1.994  0.3039 -0.0946 -0.1406
 4075TIP3    H112189   4.413   2.545   1.985  1.8881 -0.1749 -1.2480
 4075TIP3    H212190   4.379   2.418   1.909 -0.6635 -0.5520  0.3777
 4076TIP3   OH212191   1.009   3.381   1.186  0.2648 -0.5557 -0.2596
 4076TIP3    H112192   0.936   3.320   1.193  0.1424 -0.5943 -1.6226
 4076TIP3    H212193   1.086   3.325   1.174  0.3506 -0.4844 -0.0403
 4077TIP3   OH212194   5.997   0.449   1.132 -0.0663  0.0888 -0.0410
 4077TIP3    H112195   5.924   0.450   1.194 -0.5630  0.3822 -0.6286
 4077TIP3    H212196   6.002   0.358   1.102  1.2995 -0.4792  1.7271
 4078TIP3   OH212197   6.038   5.790   2.493  0.2203  0.4053  0.4551
 4078TIP3    H112198   5.990   5.780   2.411  0.9731  0.1999  0.0245
 4078TIP3    H212199   5.991   5.858   2.541 -1.3459 -0.7729  0.6908
 4079TIP3   OH212200   6.423   4.096   4.308 -0.0516  0.0485  0.1928
 4079TIP3    H112201   6.389   4.086   4.219  1.0969 -0.3855 -0.2182
 4079TIP3    H212202   6.410   4.189   4.328 -0.4162  0.1292 -0.3797
 4080TIP3   OH212203   2.858   6.282   0.095 -0.3037  0.1787  0.2116
 4080TIP3    H112204   2.804   6.228   0.037  0.6184  0.7616 -1.2364
 4080TIP3    H212205   2.800   6.302   0.169 -1.5049 -0.6190 -0.4693
 4081TIP3   OH212206   0.777   1.563   1.946  0.2356  0.0299 -0.5273
 4081TIP3    H112207   0.799   1.552   1.854  2.3039  1.2927 -0.2430
 4081TIP3    H212208   0.835   1.633   1.977  0.0319 -0.7612  1.8814
 4082TIP3   OH212209   2.109   2.032   3.926 -0.0336  0.9272 -0.1959
 4082TIP3    H112210   2.147   2.115   3.896  1.5205  0.6241  0.8282
 4082TIP3    H212211   2.181   1.969   3.921 -1.0830 -0.2806 -0.5460
 4083TIP3   OH212212   3.012   3.134   1.574 -0.0412  0.1833 -0.3038
 4083TIP3    H112213   2.934   3.114   1.627  1.5293  0.0829  2.1438
 4083TIP3    H212214   2.980   3.134   1.484 -2.5334 -1.5125  0.4571
 4084TIP3   OH212215   2.368   5.713   0.016  0.3883 -0.3932 -0.0250
 4084TIP3    H112216   2.350   5.806   0.005  0.4262 -0.4792 -0.8439
 4084TIP3    H212217   2.424   5.709   0.094 -0.3330  0.1806  0.5421
 4085TIP3   OH212218   5.111   5.319   3.341 -0.5047  0.1583  0.2038
 4085TIP3    H112219   5.075   5.254   3.280  0.6370 -0.9237  0.6283
 4085TIP3    H212220   5.076   5.293   3.427 -0.6695  0.5981  0.2749
 4086TIP3   OH212221   6.915   2.619   0.587 -0.1187 -0.4799  0.1476
 4086TIP3    H112222   6.895   2.587   0.499 -1.6556  0.3322  0.1693
 4086TIP3    H212223   6.833   2.611   0.634  0.3174  0.4360  1.0930
 4087TIP3   OH212224   4.820   2.238   2.641 -0.3403  0.4586 -0.2636
 4087TIP3    H112225   4.770   2.284   2.708  2.3019  0.3913  1.9628
 4087TIP3    H212226   4.893   2.298   2.621  0.3648 -0.6361 -1.0958
 4088TIP3   OH212227   4.727   3.232   0.866 -0.0704 -0.4664  0.1500
 4088TIP3    H112228   4.725   3.317   0.822  0.6551 -0.1423  0.7359
 4088TIP3    H212229   4.641   3.225   0.907  0.7859  1.2340  2.3969
 4089TIP3   OH212230   6.453   3.659   2.658 -0.4095 -0.2533 -0.7436
 4089TIP3    H112231   6.377   3.640   2.712  0.1717  1.1422  0.6439
 4089TIP3    H212232   6.512   3.585   2.673 -0.5937 -0.2758 -0.0848
 4090TIP3   OH212233   5.638   4.502   4.319  0.1805 -0.5947  0.2528
 4090TIP3    H112234   5.614   4.410   4.331 -0.6947 -0.4618 -0.3423
 4090TIP3    H212235   5.601   4.547   4.395  0.8485 -0.7682  0.6866
 4091TIP3   OH212236   0.080   3.328   0.134  0.5698  0.3238 -0.3762
 4091TIP3    H112237   0.165   3.343   0.092  0.3988 -0.7241 -1.1331
 4091TIP3    H212238   0.025   3.290   0.065  0.8888 -3.4727  1.1861
 4092TIP3   OH212239   0.686   5.115   2.788  0.2611  0.2119  0.1740
 4092TIP3    H112240   0.662   5.111   2.880  0.4786  0.9356  0.2678
 4092TIP3    H212241   0.627   5.180   2.750  0.0819 -0.1806 -0.2282
 4093TIP3   OH212242   3.262   3.034   3.438 -0.7008  0.0416  0.3152
 4093TIP3    H112243   3.247   3.056   3.530 -0.4007 -0.3030  0.4487
 4093TIP3    H212244   3.188   2.979   3.413 -1.5841  1.3566 -0.0870
 4094TIP3   OH212245   6.124   2.258   0.005 -0.0236  0.1104 -0.2386
 4094TIP3    H112246   6.185   2.205  -0.048 -0.5921 -0.5459 -0.2505
 4094TIP3    H212247   6.180   2.299   0.071  0.6816  0.8402 -1.2455
 4095TIP3   OH212248   2.536   3.312   3.151 -0.0292  0.4548  0.2829
 4095TIP3    H112249   2.471   3.285   3.216 -1.2814  1.4313 -0.5204
 4095TIP3    H212250   2.551   3.234   3.098  0.6798 -0.2270  1.4530
 4096TIP3   OH212251   1.063   1.275   0.157 -0.1893  0.4189 -0.1404
 4096TIP3    H112252   1.007   1.326   0.098 -0.7477 -0.2361 -0.1898
 4096TIP3    H212253   1.119   1.224   0.099 -1.1817 -0.7203 -0.1521
 4097TIP3   OH212254   1.184   5.285   4.387 -0.3026  0.3974 -0.5154
 4097TIP3    H112255   1.191   5.379   4.370  0.7311  0.4534  0.1312
 4097TIP3    H212256   1.103   5.259   4.344  0.1493  1.3034 -2.0159
 4098TIP3   OH212257   1.204   4.362   1.827  0.5030 -0.1896 -0.5137
 4098TIP3    H112258   1.194   4.450   1.865 -0.2719 -1.2220  1.8315
 4098TIP3    H212259   1.298   4.352   1.815  0.7554  0.3416  0.8118
 4099TIP3   OH212260   2.638   4.689   5.639  0.5139 -0.4967 -0.9865
 4099TIP3    H112261   2.634   4.785   5.635 -1.4780 -0.5724 -4.3054
 4099TIP3    H212262   2.731   4.669   5.636  0.9486  1.3429 -0.9584
 4100TIP3   OH212263   5.638   0.767   2.391  0.2510  0.1213 -0.3755
 4100TIP3    H112264   5.705   0.780   2.324  0.8205  1.0416  0.3598
 4100TIP3    H212265   5.672   0.696   2.446  0.3765  0.2232 -0.3208
 4101TIP3   OH212266   5.994   2.736   0.265  1.0536 -0.0121  0.0786
 4101TIP3    H112267   6.040   2.743   0.182  0.0479 -0.2628 -0.5194
 4101TIP3    H212268   6.011   2.647   0.295  1.7680  0.2137  0.3686
 4102TIP3   OH212269   1.285   3.912   2.702 -0.2078  0.3978  0.5841
 4102TIP3    H112270   1.366   3.872   2.734 -0.6562 -1.0536 -0.0085
 4102TIP3    H212271   1.296   4.005   2.720  1.3062  0.1507  1.1249
 4103TIP3   OH212272   3.138   5.225   3.569 -0.6073  0.5831 -0.3059
 4103TIP3    H112273   3.210   5.194   3.513 -0.0988  0.5127  0.3640
 4103TIP3    H212274   3.080   5.149   3.577  0.4446 -0.1427  1.0235
 4104TIP3   OH212275   4.571   0.792   5.534 -0.2552  0.2836 -0.3260
 4104TIP3    H112276   4.616   0.874   5.555  1.5015 -1.0282  1.4232
 4104TIP3    H212277   4.490   0.795   5.586  0.0520  0.6946  0.1389
 4105TIP3   OH212278   2.763   2.285   1.955 -0.2424 -0.3807 -0.1731
 4105TIP3    H112279   2.769   2.257   2.046 -2.6208 -0.9887 -0.1326
 4105TIP3    H212280   2.719   2.370   1.958  0.4643  0.0154 -0.7137
 4106TIP3   OH212281   0.992   6.250   1.935  0.1576  0.2008 -0.3602
 4106TIP3    H112282   0.978   6.235   2.029 -0.8689 -0.4116 -0.5914
 4106TIP3    H212283   1.011   6.344   1.928  1.3467  0.0658  0.5627
 4107TIP3   OH212284   6.654   3.238   3.685 -0.2342  0.0524 -0.2494
 4107TIP3    H112285   6.643   3.235   3.590 -0.0176 -1.4704 -0.2627
 4107TIP3    H212286   6.564   3.236   3.720 -0.2946 -0.2418 -0.4199
 4108TIP3   OH212287   1.761   5.257   2.850  0.3601  0.1533 -0.3149
 4108TIP3    H112288   1.690   5.292   2.796  0.4628 -1.1982 -1.3865
 4108TIP3    H212289   1.745   5.163   2.851  0.8761  0.0642  1.3086
 4109TIP3   OH212290   5.811   6.559   4.567 -0.1494  0.1494  0.3655
 4109TIP3    H112291   5.762   6.477   4.564 -0.1291  0.1757 -1.2830
 4109TIP3    H212292   5.751   6.625   4.531  1.4213 -0.0585 -3.0039
 4110TIP3   OH212293   5.811   2.507   3.541 -0.2576  0.1992 -0.1733
 4110TIP3    H112294   5.781   2.416   3.542  0.4874 -0.1545  3.1009
 4110TIP3    H212295   5.734   2.558   3.516 -1.6971 -1.1379  1.2756
 4111TIP3   OH212296   4.521   0.126   4.762  0.1266  0.1097  0.1559
 4111TIP3    H112297   4.615   0.137   4.776  0.2532  3.6414 -2.0816
 4111TIP3    H212298   4.481   0.191   4.821 -0.7772 -0.2089 -0.0917
 4112TIP3   OH212299   1.697   4.545   2.016 -0.5750  0.5830  0.0508
 4112TIP3    H112300   1.735   4.527   1.930  0.4824  2.8888 -0.0564
 4112TIP3    H212301   1.656   4.631   2.006 -1.2329  0.4668  1.6021
 4113TIP3   OH212302   5.131   3.200   3.229 -0.2064  0.0857 -0.2825
 4113TIP3    H112303   5.080   3.167   3.155  0.2849 -0.4032 -0.4072
 4113TIP3    H212304   5.139   3.294   3.211 -0.2544  0.0070 -0.7517
 4114TIP3   OH212305   6.135   1.941   5.917 -0.6424  0.6084  0.3038
 4114TIP3    H112306   6.172   2.027   5.933 -0.3027  0.5861 -0.3240
 4114TIP3    H212307   6.104   1.945   5.826  2.3363 -0.9387 -0.9289
 4115TIP3   OH212308   0.163   4.603   0.847  0.2824 -0.0735  0.7160
 4115TIP3    H112309   0.094   4.538   0.861  0.3334 -0.4366 -0.6016
 4115TIP3    H212310   0.125   4.685   0.878  0.5218 -0.8203  3.2345
 4116TIP3   OH212311   2.174   5.227   0.374 -0.1374  0.1919 -0.3800
 4116TIP3    H112312   2.138   5.270   0.451  2.4262 -0.2548  1.1903
 4116TIP3    H212313   2.129   5.143   0.369 -0.6501  0.4207  0.3562
 4117TIP3   OH212314   0.996   2.715   4.811  0.0577  0.0765 -0.1432
 4117TIP3    H112315   1.047   2.738   4.889 -0.6277 -1.6635  0.8669
 4117TIP3    H212316   0.909   2.692   4.845 -0.5436  0.1933 -1.5294
 4118TIP3   OH212317   7.068   0.489   5.105  0.3953 -0.1237 -0.2224
 4118TIP3    H112318   7.142   0.474   5.046  0.9094  1.7286 -0.0993
 4118TIP3    H212319   7.090   0.570   5.151 -0.5633 -0.8814  1.6595
 4119TIP3   OH212320   1.279   6.692   0.460  0.3464 -0.0946 -0.2644
 4119TIP3    H112321   1.236   6.616   0.497  0.7536 -0.2687 -0.1422
 4119TIP3    H212322   1.370   6.686   0.490 -0.0800  1.6171  1.6083
 4120TIP3   OH212323   6.818   2.927   1.723  0.4425  0.5932 -0.0783
 4120TIP3    H112324   6.821   3.018   1.753 -3.3278  1.0249 -0.4509
 4120TIP3    H212325   6.772   2.880   1.792  0.4039 -0.5336 -0.8418
 4121TIP3   OH212326   1.229   5.982   2.969 -0.0668  0.7690 -0.5703
 4121TIP3    H112327   1.295   5.914   2.981  0.1906  1.2532  1.0382
 4121TIP3    H212328   1.278   6.055   2.930 -0.0256  0.5259 -0.9721
 4122TIP3   OH212329   2.363   2.120   0.569  0.3470 -0.3260 -0.0051
 4122TIP3    H112330   2.413   2.194   0.536  0.2542 -1.4475 -2.9702
 4122TIP3    H212331   2.429   2.060   0.603  1.1162 -1.4584 -3.1800
 4123TIP3   OH212332   4.692   2.398   3.512  0.0515 -0.1537 -0.1386
 4123TIP3    H112333   4.744   2.328   3.474 -0.7331 -0.0904 -1.4010
 4123TIP3    H212334   4.641   2.432   3.439 -0.2046  1.1811  0.6203
 4124TIP3   OH212335   0.653   0.064   1.087 -0.3783 -0.1261 -0.1178
 4124TIP3    H112336   0.663   0.123   1.162  1.0102 -1.2783  0.6337
 4124TIP3    H212337   0.558   0.059   1.073 -0.6272  0.5044  1.2250
 4125TIP3   OH212338   4.251   4.270   1.465  0.8280 -0.0999  0.4393
 4125TIP3    H112339   4.173   4.221   1.491  1.3099 -0.3149  1.5201
 4125TIP3    H212340   4.227   4.362   1.476  0.5413 -0.1437  0.1998
 4126TIP3   OH212341   2.848   0.689   5.904  0.0726  0.6249 -0.9388
 4126TIP3    H112342   2.891   0.741   5.836  0.7680  2.1512  0.5818
 4126TIP3    H212343   2.919   0.638   5.944 -0.6609 -1.9938 -2.7003
 4127TIP3   OH212344   2.897   3.136   0.902 -0.2933 -0.3093  0.1295
 4127TIP3    H112345   2.809   3.107   0.925 -0.3022  0.2030  0.7524
 4127TIP3    H212346   2.900   3.128   0.806 -0.9295 -0.5575  0.1236
 4128TIP3   OH212347   5.753   2.276   2.670  0.0960  0.0429  0.5266
 4128TIP3    H112348   5.680   2.286   2.609  0.3572 -0.2586  0.1607
 4128TIP3    H212349   5.831   2.278   2.615  0.5683  3.0010  1.1579
 4129TIP3   OH212350   5.975   5.528   0.377  0.2006  0.4857  0.5413
 4129TIP3    H112351   5.999   5.442   0.412  2.2580  1.2332  1.0867
 4129TIP3    H212352   5.947   5.578   0.454  0.5420  0.7940  0.4660
 4130TIP3   OH212353   5.661   3.591   0.349 -0.6558 -0.2180 -0.1702
 4130TIP3    H112354   5.722   3.664   0.354 -1.6124  0.6562 -0.7231
 4130TIP3    H212355   5.688   3.533   0.420 -1.5054  2.0003  2.1622
 4131TIP3   OH212356   5.328   1.370   0.524  0.0609  0.1557 -0.5018
 4131TIP3    H112357   5.350   1.284   0.486  0.7421 -0.2478  0.7655
 4131TIP3    H212358   5.250   1.397   0.476  0.9124 -0.2831 -2.2506
 4132TIP3   OH212359   5.180   5.360   5.429 -0.4413  0.3916 -0.4640
 4132TIP3    H112360   5.095   5.322   5.449 -0.4025  0.8232  0.5818
 4132TIP3    H212361   5.163   5.421   5.358 -0.7177 -0.6627 -1.3186
 4133TIP3   OH212362   2.083   3.981   1.297 -0.0491  0.0069  0.4851
 4133TIP3    H112363   2.063   4.037   1.222  0.9769 -0.2193  0.0199
 4133TIP3    H212364   2.085   4.040   1.371 -1.0247  0.2446  0.3374
 4134TIP3   OH212365   1.505   3.791   2.825 -0.0020  0.1892 -0.3601
 4134TIP3    H112366   1.564   3.837   2.765 -0.6019  1.7023  0.1822
 4134TIP3    H212367   1.530   3.822   2.911  0.6902 -1.7870  0.2154
 4135TIP3   OH212368   3.343   0.764   0.922  0.0077 -0.4006  0.3866
 4135TIP3    H112369   3.320   0.731   1.009 -0.9913 -0.0103  0.2805
 4135TIP3    H212370   3.378   0.688   0.876 -2.9882 -1.5701 -0.1237
 4136TIP3   OH212371   4.101   2.409   3.457 -0.5183  0.2403  0.2137
 4136TIP3    H112372   4.036   2.399   3.388  0.9386  2.0419 -1.5536
 4136TIP3    H212373   4.110   2.504   3.467  1.3502  0.0397  0.8449
 4137TIP3   OH212374   2.387   4.253   5.481  0.2662 -0.2432 -0.7116
 4137TIP3    H112375   2.337   4.209   5.550  0.5311 -2.0141 -1.5893
 4137TIP3    H212376   2.396   4.343   5.511 -2.1508 -0.2346  0.1676
 4138TIP3   OH212377   6.970   6.473   5.579  0.1458  0.2986  0.7237
 4138TIP3    H112378   6.981   6.483   5.673  0.7155 -1.0865  0.8245
 4138TIP3    H212379   7.055   6.439   5.548 -0.4930 -0.6574 -0.0513
 4139TIP3   OH212380   1.927   2.406   5.660 -0.1977 -0.0481 -0.1868
 4139TIP3    H112381   1.956   2.315   5.672  2.1473  0.8935  2.2346
 4139TIP3    H212382   1.950   2.450   5.741 -1.1533  2.8061 -1.3196
 4140TIP3   OH212383   0.853   5.370   2.255 -0.0454 -0.2364 -0.3979
 4140TIP3    H112384   0.932   5.420   2.278  0.7627 -2.0905  1.1249
 4140TIP3    H212385   0.880   5.316   2.181  0.4872 -1.6008  0.7435
 4141TIP3   OH212386   7.196   1.873   0.509  0.3775  0.7840 -0.2633
 4141TIP3    H112387   7.116   1.925   0.506  0.1651  0.6081  1.2921
 4141TIP3    H212388   7.212   1.860   0.603  0.6116 -1.6333 -0.5703
 4142TIP3   OH212389   4.401   2.039   4.194 -0.3701 -0.0928 -0.3517
 4142TIP3    H112390   4.432   2.113   4.246  0.0656 -0.0937 -0.6094
 4142TIP3    H212391   4.397   1.966   4.256 -1.8345  0.3806  0.1674
 4143TIP3   OH212392   4.110   3.717   3.144 -0.1109 -0.2945  0.5208
 4143TIP3    H112393   4.025   3.687   3.113 -0.3383 -0.9086  1.6803
 4143TIP3    H212394   4.092   3.758   3.228  0.6957 -0.1365  0.6282
 4144TIP3   OH212395   5.909   3.492   3.925  0.2742  0.1983  0.1175
 4144TIP3    H112396   5.991   3.483   3.973 -1.2697  0.4994  3.0347
 4144TIP3    H212397   5.894   3.587   3.920  0.7688  0.2151 -1.7205
 4145TIP3   OH212398   4.442   5.063   4.711  0.0993  0.1437  0.2537
 4145TIP3    H112399   4.358   5.046   4.670 -0.1901 -0.5159  1.0874
 4145TIP3    H212400   4.494   5.107   4.644 -0.7585  0.1587 -0.4076
 4146TIP3   OH212401   7.107   0.385   4.015 -0.3130 -0.1697  0.0555
 4146TIP3    H112402   7.074   0.386   4.105  0.2706  1.8414  0.3048
 4146TIP3    H212403   7.196   0.349   4.022 -1.0458 -2.1583 -0.1010
 4147TIP3   OH212404   0.153   3.253   1.164 -0.1015  0.4215  0.2908
 4147TIP3    H112405   0.115   3.296   1.087  0.2005  2.6912  1.3150
 4147TIP3    H212406   0.247   3.270   1.157  0.2175 -1.3597  0.0035
 4148TIP3   OH212407   2.215   6.747   1.800  0.6678  0.1832 -0.2493
 4148TIP3    H112408   2.234   6.829   1.754  0.7881  0.1225 -0.3067
 4148TIP3    H212409   2.151   6.772   1.867  0.9225  0.3797 -0.0771
 4149TIP3   OH212410   2.177   2.262   3.049  0.0519 -0.6541  0.0550
 4149TIP3    H112411   2.086   2.248   3.024 -0.1847  0.3076  0.3556
 4149TIP3    H212412   2.181   2.234   3.141 -0.3301  0.8171  0.5369
 4150TIP3   OH212413   5.448   2.423   3.604 -0.3619  0.2899  0.0241
 4150TIP3    H112414   5.528   2.385   3.568 -0.7667  0.7640 -1.4284
 4150TIP3    H212415   5.443   2.388   3.693  0.4149 -1.3035 -0.5209
 4151TIP3   OH212416   5.753   3.476   0.094 -0.5413 -0.4289  0.4701
 4151TIP3    H112417   5.690   3.504   0.161 -0.8796 -2.0627  0.8759
 4151TIP3    H212418   5.772   3.384   0.115  2.4440  0.1400  0.6910
 4152TIP3   OH212419   2.219   3.172   3.145  0.1659 -0.1921  0.2511
 4152TIP3    H112420   2.257   3.189   3.058 -0.6098 -1.3305 -0.3498
 4152TIP3    H212421   2.240   3.250   3.196 -1.8445  1.8724 -1.8073
 4153TIP3   OH212422   0.908   3.819   2.194  0.0039  0.3792  0.3957
 4153TIP3    H112423   0.957   3.762   2.252 -0.0319 -2.0268 -1.7468
 4153TIP3    H212424   0.971   3.886   2.167  0.8771 -0.2233  0.8889
 4154TIP3   OH212425   3.470   5.241   0.754 -0.0250 -0.3273 -0.2323
 4154TIP3    H112426   3.395   5.195   0.717  1.2008 -1.8135 -1.0042
 4154TIP3    H212427   3.529   5.171   0.783  0.4683  0.8010  1.6352
 4155TIP3   OH212428   1.151   3.142   3.178 -0.2188  0.2206  0.8382
 4155TIP3    H112429   1.161   3.105   3.091 -0.9778 -0.0844  0.8776
 4155TIP3    H212430   1.170   3.235   3.167  0.6734  0.0133  0.5437
 4156TIP3   OH212431   7.180   4.256   0.595  0.0043 -0.3435 -0.1129
 4156TIP3    H112432   7.172   4.166   0.629 -1.2087 -0.0094  0.5526
 4156TIP3    H212433   7.113   4.305   0.643 -1.1156  0.3833 -2.2758
 4157TIP3   OH212434   1.314   5.398   3.840 -0.9111 -0.0856 -0.0487
 4157TIP3    H112435   1.247   5.330   3.831 -0.1047 -0.9954  0.6283
 4157TIP3    H212436   1.278   5.457   3.906 -0.8349 -0.8690  0.7212
 4158TIP3   OH212437   5.950   0.512   5.763 -0.0348  0.5745  0.5400
 4158TIP3    H112438   5.890   0.510   5.689 -1.1405  0.5630  1.4198
 4158TIP3    H212439   6.037   0.521   5.723 -0.6536  1.1391 -0.7266
 4159TIP3   OH212440   6.743   6.229   2.717  0.1243 -0.0037 -0.7886
 4159TIP3    H112441   6.735   6.276   2.800  1.0473  1.4558 -1.4764
 4159TIP3    H212442   6.831   6.250   2.686 -1.1801  2.0544 -3.5972
 4160TIP3   OH212443   2.529   1.787   2.994 -0.0749  0.4153 -0.6579
 4160TIP3    H112444   2.478   1.730   3.051 -1.2111  2.4824  0.5138
 4160TIP3    H212445   2.581   1.841   3.053  0.7894  0.7978 -1.7157
 4161TIP3   OH212446   3.956   5.598   2.395 -0.0278  0.5086 -0.4919
 4161TIP3    H112447   3.953   5.667   2.329  0.0383 -0.0030 -1.0355
 4161TIP3    H212448   4.009   5.635   2.466  0.4018  0.8479 -0.9805
 4162TIP3   OH212449   5.269   6.321   3.356 -0.0914  0.0014 -0.3318
 4162TIP3    H112450   5.354   6.277   3.353  0.7143  1.5063 -0.3022
 4162TIP3    H212451   5.209   6.253   3.386  1.2414 -0.8693  0.5043
 4163TIP3   OH212452   3.258   6.504   0.451  0.0909 -0.4862 -0.0827
 4163TIP3    H112453   3.196   6.438   0.420 -1.3414  0.1924  1.2232
 4163TIP3    H212454   3.218   6.588   0.427  0.8910 -0.0480  0.0800
 4164TIP3   OH212455   6.685   1.498   3.951  0.4751  0.2670 -0.0730
 4164TIP3    H112456   6.651   1.410   3.939 -0.0375  0.3646  0.6441
 4164TIP3    H212457   6.777   1.492   3.925  0.4794 -0.5049  0.1016
 4165TIP3   OH212458   5.527   0.739   4.619 -0.0598  0.3661 -0.3638
 4165TIP3    H112459   5.602   0.779   4.576 -0.2222 -0.3089 -1.3141
 4165TIP3    H212460   5.559   0.654   4.650  0.1217  0.9378  1.1017
 4166TIP3   OH212461   1.790   2.945   0.988 -0.2085  0.4710 -0.0410
 4166TIP3    H112462   1.824   2.893   1.061 -2.1527 -1.3116 -0.3296
 4166TIP3    H212463   1.793   2.886   0.913 -0.7945  1.3767 -0.7940
 4167TIP3   OH212464   5.943   2.531   2.050 -0.1775  0.0492 -0.2482
 4167TIP3    H112465   5.966   2.598   2.115  1.8264 -1.7323  1.0042
 4167TIP3    H212466   5.848   2.523   2.057  0.0155 -0.7806  3.2832
 4168TIP3   OH212467   6.002   3.875   3.219  0.2380  0.2207 -0.9565
 4168TIP3    H112468   5.980   3.783   3.232  0.0443  0.5466  1.6597
 4168TIP3    H212469   5.919   3.918   3.199  0.4296 -0.2157 -2.8772
 4169TIP3   OH212470   3.777   6.210   3.024  0.4510  0.3093 -0.0185
 4169TIP3    H112471   3.769   6.174   3.112  0.0770 -0.1338 -0.2254
 4169TIP3    H212472   3.729   6.293   3.028 -0.1655 -0.0394  0.0219
 4170TIP3   OH212473   3.792   2.332   0.471 -0.1242  0.3343  0.1769
 4170TIP3    H112474   3.783   2.304   0.562 -0.0210  1.4498  0.5404
 4170TIP3    H212475   3.887   2.332   0.455 -0.1470  0.0484  0.0381
 4171TIP3   OH212476   2.960   0.972   1.280  0.1037 -0.1975  0.0361
 4171TIP3    H112477   2.891   1.013   1.331 -0.6553 -2.3157  0.8491
 4171TIP3    H212478   3.029   0.954   1.344  0.5899  0.1621 -0.3826
 4172TIP3   OH212479   2.448   5.774   0.295  0.4366 -0.6313 -0.4222
 4172TIP3    H112480   2.364   5.729   0.300 -0.3638  0.8725  0.5175
 4172TIP3    H212481   2.503   5.731   0.361 -0.5776  0.2114  1.0344
 4173TIP3   OH212482   4.438   0.110   2.856 -0.1926 -0.3059  0.3527
 4173TIP3    H112483   4.427   0.193   2.811 -1.5351  0.0248  1.2361
 4173TIP3    H212484   4.350   0.072   2.859  0.0742 -0.8971  1.5610
 4174TIP3   OH212485   3.714   5.743   0.665 -0.3663 -0.2106 -0.3718
 4174TIP3    H112486   3.752   5.667   0.620 -1.5437 -0.8414 -0.3377
 4174TIP3    H212487   3.751   5.818   0.619 -0.0531 -0.8151 -1.1431
 4175TIP3   OH212488   6.737   5.653   5.515 -0.1592  0.6771 -0.1286
 4175TIP3    H112489   6.808   5.673   5.576 -0.0365 -0.1511  0.0140
 4175TIP3    H212490   6.673   5.722   5.530  0.7926  1.6905 -0.5710
 4176TIP3   OH212491   5.854   2.943   3.863 -0.1310  0.4243 -0.0277
 4176TIP3    H112492   5.862   2.963   3.956 -2.2873  0.0798  0.2953
 4176TIP3    H212493   5.833   3.027   3.822 -3.2063  0.0380  0.4660
 4177TIP3   OH212494   3.709   5.422   2.861 -0.0773 -0.1084  0.2381
 4177TIP3    H112495   3.763   5.456   2.789  0.7118  0.1340  0.9260
 4177TIP3    H212496   3.737   5.330   2.870 -1.2326 -0.5856 -0.7162
 4178TIP3   OH212497   4.246   0.541   5.494  0.2340  0.0382 -0.0162
 4178TIP3    H112498   4.266   0.614   5.553  0.8414  1.0785 -1.4525
 4178TIP3    H212499   4.312   0.548   5.424  0.0609 -1.6628 -0.3866
 4179TIP3   OH212500   5.664   0.318   2.865  0.1177 -0.1474  0.9156
 4179TIP3    H112501   5.610   0.351   2.937  0.7730 -0.7170  1.6898
 4179TIP3    H212502   5.746   0.368   2.872 -0.2189  0.5742 -0.1259
 4180TIP3   OH212503   4.776   4.037   2.572  0.0083  0.1771 -0.0531
 4180TIP3    H112504   4.814   3.984   2.503  0.6709 -0.9021  1.1045
 4180TIP3    H212505   4.762   3.976   2.645 -1.0031  1.2022  0.6551
 4181TIP3   OH212506   2.356   2.449   4.981 -0.2559 -0.5034  0.5971
 4181TIP3    H112507   2.437   2.464   5.030  0.4288 -1.2374 -0.2491
 4181TIP3    H212508   2.357   2.355   4.964 -0.5400 -0.2909 -0.6731
 4182TIP3   OH212509   6.136   0.683   1.142  0.4953  0.1801  0.0113
 4182TIP3    H112510   6.086   0.603   1.124  1.3465 -0.5549  0.8251
 4182TIP3    H212511   6.072   0.742   1.182 -0.4552  0.4068 -1.7339
 4183TIP3   OH212512   2.738   6.719   1.827 -0.0531  0.0363 -0.0540
 4183TIP3    H112513   2.653   6.760   1.810  0.6789  2.0637  0.8679
 4183TIP3    H212514   2.792   6.790   1.862  1.4661 -1.6345  1.1403
 4184TIP3   OH212515   1.554   1.497   5.334 -0.0256  0.2679 -0.5073
 4184TIP3    H112516   1.580   1.444   5.259 -1.4606 -2.7625  0.9667
 4184TIP3    H212517   1.477   1.546   5.304  1.0673  1.3061 -1.7619
 4185TIP3   OH212518   5.667   3.281   4.840  0.3142 -0.7159  0.0126
 4185TIP3    H112519   5.628   3.265   4.754 -0.0077  1.3646 -0.2935
 4185TIP3    H212520   5.602   3.334   4.886  0.7321 -1.3144  1.3483
 4186TIP3   OH212521   6.158   3.386   5.489 -0.2319 -0.3310 -0.0614
 4186TIP3    H112522   6.088   3.322   5.482  0.8004 -1.3607 -1.5592
 4186TIP3    H212523   6.182   3.405   5.398  3.0982 -1.9264  0.3506
 4187TIP3   OH212524   1.626   5.808   5.450 -0.4631  0.4413  0.1223
 4187TIP3    H112525   1.685   5.753   5.501  0.2640 -0.3957 -1.5493
 4187TIP3    H212526   1.620   5.890   5.500 -0.5724 -0.6628  2.0237
 4188TIP3   OH212527   4.868   0.991   2.006  0.1881  0.5064  0.2573
 4188TIP3    H112528   4.894   1.048   1.934  0.3424 -0.0605 -0.1441
 4188TIP3    H212529   4.814   0.923   1.964 -1.2216  1.1618  0.9359
 4189TIP3   OH212530   0.121   3.060   2.593  0.0054 -0.1698 -0.2243
 4189TIP3    H112531   0.124   3.026   2.683  2.1550 -1.4385 -0.6997
 4189TIP3    H212532   0.206   3.101   2.581 -0.2330 -0.0909 -1.7182
 4190TIP3   OH212533   4.172   0.384   4.167 -0.2117  0.2274 -0.3490
 4190TIP3    H112534   4.218   0.466   4.186  1.5102 -0.4298 -1.4367
 4190TIP3    H212535   4.220   0.347   4.093 -0.2310 -2.3257  0.8281
 4191TIP3   OH212536   0.752   3.267   4.956  0.6972 -0.5757 -0.3538
 4191TIP3    H112537   0.827   3.320   4.983 -0.1893 -0.1070  1.3547
 4191TIP3    H212538   0.711   3.240   5.038 -0.3308 -1.8289 -1.2257
 4192TIP3   OH212539   7.035   5.072   3.875 -0.3134  0.3333  0.2197
 4192TIP3    H112540   7.051   5.111   3.789 -0.9578 -1.1037 -0.5766
 4192TIP3    H212541   6.993   4.988   3.857  1.9518 -1.2883  1.7957
 4193TIP3   OH212542   4.926   6.627   3.307 -0.5331 -0.0803  0.3795
 4193TIP3    H112543   4.966   6.638   3.221  1.2205 -1.4211  0.9485
 4193TIP3    H212544   4.871   6.549   3.298  1.5595 -1.7253  1.0143
 4194TIP3   OH212545   0.514   5.507   0.276  0.8308  0.6426  0.5064
 4194TIP3    H112546   0.588   5.460   0.238 -0.2881  1.3034 -2.8672
 4194TIP3    H212547   0.549   5.594   0.297  1.7553 -0.1016  2.1575
 4195TIP3   OH212548   1.396   5.738   0.633 -0.2339  0.6584  0.0754
 4195TIP3    H112549   1.462   5.674   0.660  1.3050  1.7299 -0.9927
 4195TIP3    H212550   1.335   5.743   0.708  2.2367  1.3752  2.1901
 4196TIP3   OH212551   2.745   1.692   4.110  0.1699 -0.1391 -0.7296
 4196TIP3    H112552   2.718   1.740   4.188  1.5578  0.5363 -0.6333
 4196TIP3    H212553   2.761   1.760   4.044 -0.9425 -0.6953 -1.6165
 4197TIP3   OH212554   4.517   2.922   2.127 -0.1005  0.2749  0.5368
 4197TIP3    H112555   4.440   2.961   2.086 -0.8946 -0.2440  1.5066
 4197TIP3    H212556   4.487   2.895   2.214  1.1872  0.0964  0.9391
 4198TIP3   OH212557   4.051   4.601   2.378 -0.4441  0.7084 -0.4773
 4198TIP3    H112558   4.135   4.630   2.342 -0.7460  0.4472 -1.4133
 4198TIP3    H212559   4.053   4.631   2.469  0.9996 -0.0020 -0.2471
 4199TIP3   OH212560   5.431   5.808   2.033  0.0784  0.0445  1.0433
 4199TIP3    H112561   5.498   5.783   2.098  1.4355 -0.2039 -0.3834
 4199TIP3    H212562   5.449   5.900   2.015  0.5432 -0.2270  0.0901
 4200TIP3   OH212563   3.700   1.350   3.517  0.1619 -0.2900 -1.1802
 4200TIP3    H112564   3.693   1.403   3.596 -0.9205 -1.2827 -0.5874
 4200TIP3    H212565   3.794   1.346   3.500  0.3163  1.0904 -0.7541
 4201TIP3   OH212566   5.197   5.544   2.447  0.2150  0.5129 -0.2432
 4201TIP3    H112567   5.251   5.623   2.451  0.9990  0.1406 -2.2405
 4201TIP3    H212568   5.114   5.573   2.409 -0.1219  0.6524  0.5794
 4202TIP3   OH212569   5.978   0.175   4.011  0.2561 -0.2164  0.3934
 4202TIP3    H112570   6.045   0.116   4.045 -0.1922 -1.3373 -0.5981
 4202TIP3    H212571   5.896   0.142   4.048  0.1701  0.7807  1.1207
 4203TIP3   OH212572   1.469   0.401   1.623  0.0255 -0.2249  0.1722
 4203TIP3    H112573   1.518   0.330   1.664  1.5609 -0.6467 -2.1845
 4203TIP3    H212574   1.400   0.423   1.686  1.0972 -2.0229  2.0791
 4204TIP3   OH212575   5.199   2.619   2.814 -0.1423 -0.4027  0.3877
 4204TIP3    H112576   5.285   2.657   2.800 -0.7956  1.4115  1.0591
 4204TIP3    H212577   5.192   2.609   2.909 -1.1482  0.7094  0.4545
 4205TIP3   OH212578   2.489   5.767   1.265  0.4105 -0.4497  0.5666
 4205TIP3    H112579   2.575   5.778   1.306  0.8954 -1.6315 -0.0894
 4205TIP3    H212580   2.503   5.701   1.197 -0.2298  1.6360 -1.7904
 4206TIP3   OH212581   6.838   3.152   4.168 -0.2332  0.9748 -0.0813
 4206TIP3    H112582   6.781   3.223   4.196 -0.5361  0.8453 -0.3665
 4206TIP3    H212583   6.786   3.103   4.104 -0.2792  0.0980  0.6103
 4207TIP3   OH212584   1.133   0.411   0.801  0.0530 -0.1092  0.1316
 4207TIP3    H112585   1.130   0.350   0.727  1.9741 -0.9700  0.7059
 4207TIP3    H212586   1.049   0.399   0.846 -1.6070  1.1476 -2.3888
 4208TIP3   OH212587   5.649   2.551   4.532 -0.7332 -0.0491  0.2851
 4208TIP3    H112588   5.632   2.488   4.602 -0.0416 -2.3338 -1.4622
 4208TIP3    H212589   5.743   2.565   4.536 -0.7495  0.1163  0.0697
 4209TIP3   OH212590   1.603   1.752   1.768 -0.5093 -0.2634 -0.1038
 4209TIP3    H112591   1.698   1.764   1.778 -0.3504 -1.1126 -0.4319
 4209TIP3    H212592   1.566   1.788   1.848  0.1721 -0.7045  0.4287
 4210TIP3   OH212593   5.207   1.658   5.453 -0.1567 -0.3608 -0.0916
 4210TIP3    H112594   5.276   1.695   5.508  1.7310 -1.5616 -1.4997
 4210TIP3    H212595   5.199   1.719   5.380 -1.8407  0.6372  0.8701
 4211TIP3   OH212596   4.149   6.000   4.766  0.2932  0.9511  0.2066
 4211TIP3    H112597   4.208   5.956   4.705  0.2999  1.5981 -0.2679
 4211TIP3    H212598   4.205   6.060   4.816  0.3299  0.2510  1.0343
 4212TIP3   OH212599   0.659   6.781   0.857  0.0274  0.3664 -0.4335
 4212TIP3    H112600   0.571   6.773   0.820 -0.0034  0.9470 -0.4962
 4212TIP3    H212601   0.645   6.798   0.950  0.0846 -0.0494 -0.3479
 4213TIP3   OH212602   0.951   3.284   3.901 -0.6705  0.0293  0.0700
 4213TIP3    H112603   0.860   3.315   3.900 -1.0473 -0.9877 -1.6341
 4213TIP3    H212604   0.946   3.195   3.936 -0.2222  0.1897  0.5649
 4214TIP3   OH212605   0.589   4.976   0.531  0.1144  0.4488  0.7104
 4214TIP3    H112606   0.615   4.890   0.499  0.6016  0.9085 -0.1599
 4214TIP3    H212607   0.569   4.963   0.623 -0.3084 -0.6998  0.4711
 4215TIP3   OH212608   6.742   4.975   0.994  0.1029 -0.3203  0.2820
 4215TIP3    H112609   6.760   5.024   1.074 -0.5253 -1.0544  0.8805
 4215TIP3    H212610   6.738   5.043   0.926  1.8778  0.1951  0.6206
 4216TIP3   OH212611   0.150   3.502   2.178  0.1895  0.2372 -0.2310
 4216TIP3    H112612   0.246   3.503   2.178  0.1993 -0.5106 -0.1891
 4216TIP3    H212613   0.127   3.423   2.227 -0.4520  0.4202 -0.2319
 4217TIP3   OH212614   4.473   1.448   4.569  0.3476  0.1495 -0.1784
 4217TIP3    H112615   4.475   1.363   4.614 -1.4786 -0.0329 -0.3449
 4217TIP3    H212616   4.455   1.511   4.638  2.0639  0.4995  0.0027
 4218TIP3   OH212617   3.860   6.055   3.545  0.2811 -0.6430  0.4765
 4218TIP3    H112618   3.901   6.053   3.632 -2.0598 -0.9890  1.6684
 4218TIP3    H212619   3.829   5.965   3.532  3.7962 -1.6842 -2.5101
 4219TIP3   OH212620   5.661   1.779   3.814 -0.1081  0.1162  0.2165
 4219TIP3    H112621   5.667   1.856   3.757  0.6185  1.1697  1.6669
 4219TIP3    H212622   5.681   1.705   3.756 -1.8635  0.8603 -1.4598
 4220TIP3   OH212623   1.230   2.562   0.928  0.5620  0.5614  0.3656
 4220TIP3    H112624   1.220   2.613   0.848 -1.2351 -1.3059 -0.6737
 4220TIP3    H212625   1.154   2.585   0.981 -0.3707 -1.0566 -0.1893
 4221TIP3   OH212626   0.485   5.373   4.707 -0.0249  0.0943 -0.1970
 4221TIP3    H112627   0.422   5.315   4.749 -1.0371  1.5009  0.3387
 4221TIP3    H212628   0.463   5.369   4.614  1.7225 -2.4385 -0.5801
 4222TIP3   OH212629   4.373   0.184   3.282 -0.2290 -0.3516  0.3532
 4222TIP3    H112630   4.280   0.186   3.306 -0.1938  1.7444  0.4912
 4222TIP3    H212631   4.418   0.220   3.358  0.9467 -2.8570  0.9699
 4223TIP3   OH212632   3.201   2.840   1.359  0.0293  0.0342 -0.0152
 4223TIP3    H112633   3.178   2.761   1.408  0.1419 -1.1891 -1.8565
 4223TIP3    H212634   3.124   2.859   1.307  1.0373 -0.6704 -1.8466
 4224TIP3   OH212635   1.394   3.195   3.402  0.4514 -0.6439  0.2035
 4224TIP3    H112636   1.313   3.239   3.376  1.2690  0.3029 -0.8168
 4224TIP3    H212637   1.402   3.121   3.342 -0.0451 -1.2120  0.8190
 4225TIP3   OH212638   1.782   1.173   3.703 -0.9489 -0.0959  0.1787
 4225TIP3    H112639   1.842   1.132   3.766  2.4692  1.6042 -1.6719
 4225TIP3    H212640   1.726   1.102   3.673  1.0426 -2.1621  1.0701
 4226TIP3   OH212641   6.520   3.984   0.291  0.5723 -0.2212 -0.4303
 4226TIP3    H112642   6.570   4.019   0.365 -0.2993 -0.3735  0.2516
 4226TIP3    H212643   6.584   3.975   0.220  1.4007  0.0372  0.2710
 4227TIP3   OH212644   0.222   6.513   0.195 -0.1180 -0.3853 -0.7225
 4227TIP3    H112645   0.142   6.480   0.154  0.4513 -1.7311 -0.8276
 4227TIP3    H212646   0.192   6.564   0.269 -1.0832 -1.4946 -0.3119
 4228TIP3   OH212647   4.666   5.371   2.523 -0.0463  0.2259  0.9478
 4228TIP3    H112648   4.667   5.445   2.585 -3.0146 -0.1994  1.6876
 4228TIP3    H212649   4.657   5.294   2.578 -1.3341 -0.2828  0.0725
 4229TIP3   OH212650   3.890   6.308   3.352 -0.0924  0.3608  0.1385
 4229TIP3    H112651   3.884   6.335   3.260 -0.3446 -0.4723 -0.0959
 4229TIP3    H212652   3.881   6.213   3.350 -0.6542  0.3758  1.0729
 4230TIP3   OH212653   6.578   0.039   1.506  0.0313 -0.0544  0.6373
 4230TIP3    H112654   6.657  -0.013   1.493 -0.0315  0.3048 -1.7076
 4230TIP3    H212655   6.529   0.029   1.424 -0.7450  2.3873  0.7219
 4231TIP3   OH212656   7.102   5.456   4.162 -0.2385  0.3992 -0.8311
 4231TIP3    H112657   7.067   5.532   4.115 -1.6110  0.3535  0.0261
 4231TIP3    H212658   7.024   5.409   4.190  0.5020  0.3079  1.2565
 4232TIP3   OH212659   7.175   1.578   1.714  0.5402 -0.1529 -0.0214
 4232TIP3    H112660   7.080   1.582   1.723  0.3556 -0.8822 -1.4159
 4232TIP3    H212661   7.195   1.637   1.641  0.7629 -2.4761 -1.9456
 4233TIP3   OH212662   5.503   4.525   1.886 -0.3210 -0.0388  0.0933
 4233TIP3    H112663   5.455   4.580   1.824  1.7413  0.7725 -0.8983
 4233TIP3    H212664   5.574   4.488   1.834  0.5205 -0.6681  1.6215
 4234TIP3   OH212665   3.737   4.612   3.789 -0.4855  0.6421  0.3952
 4234TIP3    H112666   3.806   4.648   3.734 -0.4470  0.7962  0.5446
 4234TIP3    H212667   3.761   4.520   3.800 -0.4344  0.6375  0.2459
 4235TIP3   OH212668   7.084   5.083   5.804 -0.4583  0.0561 -0.0016
 4235TIP3    H112669   7.134   5.155   5.766  0.4630 -0.4863  0.1335
 4235TIP3    H212670   7.112   5.080   5.896  1.8499 -2.3210 -0.6621
 4236TIP3   OH212671   5.075   0.823   5.767  0.4076 -0.3353  0.4201
 4236TIP3    H112672   5.084   0.781   5.681 -0.9905 -1.2693  0.6988
 4236TIP3    H212673   5.055   0.914   5.746 -0.2559 -0.6229 -0.2638
 4237TIP3   OH212674   0.439   2.991   2.781 -0.1942 -0.0395  0.1539
 4237TIP3    H112675   0.466   3.076   2.745  0.6149 -0.4991 -0.3530
 4237TIP3    H212676   0.364   3.011   2.837 -0.4628  0.9126 -0.5314
 4238TIP3   OH212677   4.289   5.953   1.011  0.3990 -0.4101 -0.0696
 4238TIP3    H112678   4.296   5.918   1.100 -0.2799 -0.5680 -0.0743
 4238TIP3    H212679   4.344   5.896   0.958  0.8100 -0.3125  0.2464
 4239TIP3   OH212680   1.174   1.404   1.410  0.6934  0.0481 -0.3804
 4239TIP3    H112681   1.234   1.478   1.411 -1.0561  1.5614  1.5619
 4239TIP3    H212682   1.211   1.342   1.474  0.6943  0.5501  0.1110
 4240TIP3   OH212683   3.657   4.967   0.535  0.1071 -0.3732  0.0412
 4240TIP3    H112684   3.726   5.033   0.536 -1.5426  1.4604 -0.3858
 4240TIP3    H212685   3.689   4.898   0.593  1.7316  0.9922  0.8581
 4241TIP3   OH212686   6.995   0.046   1.952 -0.1994 -0.5044 -0.2857
 4241TIP3    H112687   7.054   0.106   1.907  0.2917 -0.4214  0.4598
 4241TIP3    H212688   6.919   0.039   1.893 -0.7219  1.6349  0.0699
 4242TIP3   OH212689   4.208   5.369   0.952  0.5643  0.2428 -0.2155
 4242TIP3    H112690   4.292   5.395   0.914  0.1864 -0.4360 -1.5649
 4242TIP3    H212691   4.194   5.280   0.922 -0.5361  0.2641  0.1929
 4243TIP3   OH212692   0.533   0.266   0.879 -0.3419 -0.2168  0.0191
 4243TIP3    H112693   0.461   0.204   0.889 -1.3612  0.7758 -0.8713
 4243TIP3    H212694   0.547   0.300   0.968 -1.0008 -0.4044  0.2039
 4244TIP3   OH212695   1.055   0.988   5.749  0.3808 -0.8889  0.2193
 4244TIP3    H112696   1.080   0.896   5.756 -0.4653 -1.0913  0.6821
 4244TIP3    H212697   0.960   0.987   5.734  0.4110 -0.1023 -0.1154
 4245TIP3   OH212698   5.991   1.677   4.471  0.5749  0.1709 -0.0365
 4245TIP3    H112699   5.923   1.667   4.404 -3.0947  0.3417  3.3106
 4245TIP3    H212700   6.036   1.757   4.446 -1.9382  1.3074 -1.3597
 4246TIP3   OH212701   5.342   0.294   2.210 -0.1675 -0.2344  0.1679
 4246TIP3    H112702   5.390   0.213   2.192 -0.5972 -0.3033 -0.7725
 4246TIP3    H212703   5.252   0.274   2.182 -0.7187 -0.0605  1.7525
 4247TIP3   OH212704   5.936   5.051   4.895 -1.1658  0.6109  0.5338
 4247TIP3    H112705   5.890   5.061   4.812 -0.8839 -0.2022  0.2783
 4247TIP3    H212706   5.960   5.141   4.919 -2.3121  0.9763  0.3560
 4248TIP3   OH212707   0.791   3.851   3.484 -0.3062 -0.0932 -0.3321
 4248TIP3    H112708   0.821   3.933   3.523 -2.5990  1.1519 -0.9574
 4248TIP3    H212709   0.786   3.789   3.557 -1.3672  1.2182  0.7480
 4249TIP3   OH212710   4.709   0.912   2.403 -0.2632  0.1423 -0.1381
 4249TIP3    H112711   4.641   0.904   2.335  0.1499  0.3652 -0.5851
 4249TIP3    H212712   4.786   0.945   2.356  0.0212  0.3288  0.4485
 4250TIP3   OH212713   6.772   0.031   0.984  0.4850 -0.2244  0.5749
 4250TIP3    H112714   6.714  -0.010   1.049 -1.0163  1.1798  0.1804
 4250TIP3    H212715   6.720   0.033   0.904  1.3836  0.3837 -0.0087
 4251TIP3   OH212716   0.612   0.871   0.554 -0.0415 -0.4774 -0.1451
 4251TIP3    H112717   0.572   0.929   0.490 -0.1606  0.8597  1.0814
 4251TIP3    H212718   0.701   0.905   0.565  0.2617 -1.2301 -0.2495
 4252TIP3   OH212719   2.551   1.990   2.380 -0.0485 -0.8594  0.1482
 4252TIP3    H112720   2.580   2.019   2.467 -0.7281 -0.3026  0.1959
 4252TIP3    H212721   2.574   1.897   2.378  0.2587 -0.8076  0.8048
 4253TIP3   OH212722   2.313   6.801   0.541  0.1984  0.6772  0.1124
 4253TIP3    H112723   2.281   6.803   0.451  0.7396  0.1720 -0.0974
 4253TIP3    H212724   2.312   6.708   0.564  1.6826  0.6234  0.0360
 4254TIP3   OH212725   4.000   4.950   4.581  0.1083  0.1564  0.1139
 4254TIP3    H112726   3.986   5.012   4.653  1.3207  0.5826  0.0069
 4254TIP3    H212727   4.019   4.867   4.624 -0.7864  0.0257  0.2662
 4255TIP3   OH212728   6.102   5.830   5.265  0.3315 -0.3266 -0.2876
 4255TIP3    H112729   6.096   5.925   5.264 -1.2669 -0.4085 -0.2746
 4255TIP3    H212730   6.177   5.810   5.209 -1.1203  0.8187 -2.7592
 4256TIP3   OH212731   0.260   5.056   0.489  0.0391  0.7189 -0.1086
 4256TIP3    H112732   0.287   5.144   0.516  1.5237  0.8619 -1.9213
 4256TIP3    H212733   0.276   5.053   0.395  0.1324 -1.5310 -0.0765
 4257TIP3   OH212734   6.255   2.492   0.538 -0.1007 -0.5881  0.1709
 4257TIP3    H112735   6.274   2.405   0.503 -1.2135 -2.0291  2.8224
 4257TIP3    H212736   6.164   2.488   0.566  0.3319  0.7607  2.0361
 4258TIP3   OH212737   1.467   2.549   1.341  0.1615 -0.1452 -0.2556
 4258TIP3    H112738   1.373   2.549   1.362  0.1997 -3.0423  0.1921
 4258TIP3    H212739   1.471   2.580   1.250 -1.4130 -1.6120 -0.8639
 4259TIP3   OH212740   2.732   2.214   4.740  0.4138 -0.0528 -0.1945
 4259TIP3    H112741   2.710   2.212   4.833  2.1854  1.7111  0.3447
 4259TIP3    H212742   2.689   2.294   4.708 -1.3601 -1.3825 -1.2726
 4260TIP3   OH212743   1.810   3.456   2.029 -0.3035  0.9022  0.1964
 4260TIP3    H112744   1.763   3.471   2.111  0.0492 -1.6838  0.9607
 4260TIP3    H212745   1.745   3.471   1.961 -1.4243  0.3700  1.1025
 4261TIP3   OH212746   6.176   1.932   2.662 -0.0958 -0.2401 -0.0537
 4261TIP3    H112747   6.164   1.881   2.583  0.4697 -1.2698  0.5000
 4261TIP3    H212748   6.213   2.015   2.632 -0.0677 -0.5478 -0.8820
 4262TIP3   OH212749   4.964   1.792   1.196 -0.0678  0.2069 -0.4970
 4262TIP3    H112750   4.957   1.714   1.141 -0.2522  1.0155 -1.6550
 4262TIP3    H212751   4.903   1.777   1.268 -0.1308 -0.6957 -0.7350
 4263TIP3   OH212752   1.031   4.623   0.848  0.3135 -0.2029  0.5495
 4263TIP3    H112753   0.998   4.668   0.926 -0.1545 -0.1054  0.3025
 4263TIP3    H212754   1.102   4.679   0.817 -0.0867  0.2393  0.3994
 4264TIP3   OH212755   0.047   4.895   4.264 -0.0412  0.4477  0.1201
 4264TIP3    H112756   0.090   4.923   4.183  0.6819  2.0736  1.0412
 4264TIP3    H212757  -0.036   4.943   4.264 -1.1978 -1.4082 -0.8123
 4265TIP3   OH212758   6.772   2.331   0.516  0.2461 -0.5670 -0.3228
 4265TIP3    H112759   6.828   2.318   0.439 -0.5578 -1.0353 -0.8530
 4265TIP3    H212760   6.803   2.267   0.579  2.1119  1.0396  0.4755
 4266TIP3   OH212761   4.935   4.820   0.911 -0.7783 -0.2786 -0.4090
 4266TIP3    H112762   4.842   4.842   0.910 -0.7152 -0.0276 -0.6210
 4266TIP3    H212763   4.938   4.730   0.945 -0.9394  0.5259  1.8787
 4267TIP3   OH212764   5.892   4.040   4.485 -0.2159 -0.1996 -0.1535
 4267TIP3    H112765   5.939   4.060   4.404  1.2622 -1.0462  0.4664
 4267TIP3    H212766   5.928   4.101   4.549 -0.5502 -0.3230  0.1526
 4268TIP3   OH212767   6.340   3.632   1.559  0.1136 -0.2878 -0.3285
 4268TIP3    H112768   6.393   3.691   1.613 -0.1099 -0.1882 -0.2148
 4268TIP3    H212769   6.282   3.690   1.509  1.0871 -0.3080 -1.5270
 4269TIP3   OH212770   4.994   4.072   5.536 -0.1650 -0.0576  0.7019
 4269TIP3    H112771   5.060   4.115   5.482 -1.8277  2.3194  0.3978
 4269TIP3    H212772   5.044   4.016   5.596  2.0600  1.3115  0.2292
 4270TIP3   OH212773   7.022   1.306   0.896  0.8329  0.0582  0.5056
 4270TIP3    H112774   7.108   1.267   0.908  0.8962  0.6022  1.9642
 4270TIP3    H212775   7.026   1.388   0.946  0.7037  1.9775 -2.3718
 4271TIP3   OH212776   5.705   1.140   0.219 -0.7566 -0.8178 -0.5481
 4271TIP3    H112777   5.730   1.207   0.156 -0.3723  0.7116  1.1524
 4271TIP3    H212778   5.732   1.175   0.304  1.0093 -3.8404  0.2990
 4272TIP3   OH212779   6.632   4.557   3.157 -0.2650 -0.3984 -0.2367
 4272TIP3    H112780   6.601   4.637   3.200 -0.7054 -0.0077 -1.2340
 4272TIP3    H212781   6.602   4.486   3.214  0.6852  0.1500  1.0011
 4273TIP3   OH212782   6.264   2.202   2.665 -0.5760 -0.1151  0.1706
 4273TIP3    H112783   6.355   2.187   2.690 -0.7214  0.6337  1.2117
 4273TIP3    H212784   6.269   2.276   2.603 -0.3794 -0.8733 -0.7475
 4274TIP3   OH212785   4.415   2.473   0.593 -0.0967  0.6228  0.5959
 4274TIP3    H112786   4.485   2.411   0.575 -1.1965 -0.6983  0.6641
 4274TIP3    H212787   4.440   2.514   0.676 -0.9034 -2.2042  2.3765
 4275TIP3   OH212788   7.186   5.487   5.079 -0.1627 -0.6466 -0.5182
 4275TIP3    H112789   7.180   5.582   5.084  0.1231 -0.6822  1.7517
 4275TIP3    H212790   7.098   5.455   5.098  0.6557 -0.7865  4.3761
 4276TIP3   OH212791   7.043   3.430   2.166 -0.3461 -0.3565  0.2565
 4276TIP3    H112792   7.113   3.372   2.195  0.8960  0.6004 -0.6618
 4276TIP3    H212793   6.962   3.384   2.187  0.5762 -2.2869 -0.1988
 4277TIP3   OH212794   5.052   1.889   1.758  0.4350 -0.6845 -0.1058
 4277TIP3    H112795   5.079   1.799   1.779 -0.2911 -1.0748 -0.7500
 4277TIP3    H212796   5.107   1.944   1.812  1.5833 -1.4868 -0.4098
 4278TIP3   OH212797   3.687   6.037   0.660  0.4862 -0.0149 -0.2680
 4278TIP3    H112798   3.605   6.084   0.668  0.4181 -0.2054  0.1474
 4278TIP3    H212799   3.695   6.019   0.566  1.4140  2.4241 -0.7310
 4279TIP3   OH212800   6.296   4.476   0.085 -0.2496 -0.1857 -0.0346
 4279TIP3    H112801   6.252   4.561   0.079 -3.2280 -1.1949  3.4416
 4279TIP3    H212802   6.343   4.480   0.168 -1.5157 -2.2566  0.8680
 4280TIP3   OH212803   5.183   4.611   2.327 -0.6444 -0.4878  0.2663
 4280TIP3    H112804   5.220   4.561   2.254 -3.0312 -0.2385 -1.2336
 4280TIP3    H212805   5.226   4.696   2.322  1.9549 -1.6349  1.5711
 4281TIP3   OH212806   5.884   5.441   1.269 -0.7414  0.2542 -0.3203
 4281TIP3    H112807   5.836   5.384   1.209  0.4034  0.6578 -1.6643
 4281TIP3    H212808   5.957   5.386   1.300 -1.7110 -0.1935  1.3246
 4282TIP3   OH212809   0.409   3.934   2.971 -0.7416 -0.4192  1.0352
 4282TIP3    H112810   0.329   3.945   3.022  1.2025  1.3411  4.0129
 4282TIP3    H212811   0.451   3.856   3.007 -0.8816 -1.0821 -0.1980
 4283TIP3   OH212812   6.195   6.105   5.248  0.1906 -0.2970  0.4652
 4283TIP3    H112813   6.139   6.138   5.178 -0.8809 -1.6789  0.6384
 4283TIP3    H212814   6.279   6.088   5.205 -0.3315 -0.7355 -0.4178
 4284TIP3   OH212815   3.728   2.680   2.869  0.6215 -0.0481 -0.0385
 4284TIP3    H112816   3.655   2.741   2.880 -0.8767 -1.6254 -0.5944
 4284TIP3    H212817   3.802   2.734   2.842 -0.4374  1.5732  0.1754
 4285TIP3   OH212818   3.043   2.852   0.462  0.9500 -0.4433 -0.3913
 4285TIP3    H112819   2.972   2.837   0.525 -0.2705  1.1234 -1.3102
 4285TIP3    H212820   2.998   2.860   0.377  2.3354 -0.3298 -1.1392
 4286TIP3   OH212821   3.969   4.940   2.704 -0.1458 -0.6074 -0.3211
 4286TIP3    H112822   4.024   4.949   2.626 -0.7418  0.3795 -0.6455
 4286TIP3    H212823   3.881   4.961   2.674 -0.4678 -0.7283  0.5119
 4287TIP3   OH212824   5.701   1.091   3.214 -0.0375 -0.4257  0.0919
 4287TIP3    H112825   5.684   1.178   3.177  2.5123  0.5684  1.0474
 4287TIP3    H212826   5.702   1.105   3.308  1.9369 -1.1233  0.2103
 4288TIP3   OH212827   1.254   1.079   4.400  0.5428  0.2912  0.1016
 4288TIP3    H112828   1.193   1.139   4.356  0.3349 -0.4177 -0.6033
 4288TIP3    H212829   1.220   1.072   4.489  0.1113  0.6005 -0.0340
 4289TIP3   OH212830   0.430   5.844   2.128 -0.0957  0.3687  0.5180
 4289TIP3    H112831   0.385   5.760   2.139  1.6644 -0.4548  1.8812
 4289TIP3    H212832   0.383   5.904   2.186 -0.8947  0.1561  0.1089
 4290TIP3   OH212833   4.913   5.553   1.786 -0.0285 -0.2296 -0.0014
 4290TIP3    H112834   4.821   5.533   1.802 -0.2802  0.2712 -0.7643
 4290TIP3    H212835   4.912   5.612   1.710  0.7546  1.7347  1.4335
 4291TIP3   OH212836   3.941   3.921   2.093  0.0361 -0.1209 -0.0901
 4291TIP3    H112837   3.912   3.994   2.038 -0.0085 -0.1697 -0.1305
 4291TIP3    H212838   3.876   3.853   2.080  0.1845 -0.2417 -0.2051
 4292TIP3   OH212839   2.035   1.081   0.027 -0.0411  0.2527 -0.8342
 4292TIP3    H112840   2.058   1.044  -0.058  0.9902 -1.5536  0.1512
 4292TIP3    H212841   2.107   1.053   0.085 -1.1946  0.5936  0.8327
 4293TIP3   OH212842   4.784   5.343   0.420  0.0972  0.5772  0.1737
 4293TIP3    H112843   4.773   5.254   0.386  4.1900 -0.8731  2.0456
 4293TIP3    H212844   4.790   5.398   0.342 -1.8106 -0.8123 -1.0422
 4294TIP3   OH212845   1.381   5.323   3.534 -0.3531 -0.2068 -0.4286
 4294TIP3    H112846   1.318   5.257   3.505 -0.0138 -0.6972 -0.0782
 4294TIP3    H212847   1.447   5.326   3.465 -0.9443  0.5695 -0.9681
 4295TIP3   OH212848   5.724   1.906   5.272  0.4120  0.0595 -0.3889
 4295TIP3    H112849   5.727   1.851   5.350  1.4083 -0.3545 -0.7073
 4295TIP3    H212850   5.689   1.990   5.303 -4.6514 -1.6710 -0.5125
 4296TIP3   OH212851   5.322   1.371   2.576  0.5806 -0.4627 -0.5000
 4296TIP3    H112852   5.318   1.276   2.589  1.9520 -0.5382 -0.4163
 4296TIP3    H212853   5.380   1.383   2.501  0.2580  0.3073 -0.6411
 4297TIP3   OH212854   1.631   5.716   1.342 -0.4057 -0.4418 -1.0131
 4297TIP3    H112855   1.706   5.751   1.294 -0.4875  1.4268  0.1077
 4297TIP3    H212856   1.669   5.672   1.418 -0.3896  1.0215 -0.1208
 4298TIP3   OH212857   5.263   4.202   4.587 -0.2052 -0.5087 -0.0743
 4298TIP3    H112858   5.304   4.171   4.506  0.8149  2.0707 -0.6666
 4298TIP3    H212859   5.184   4.247   4.557  0.3693  0.7838  0.2540
 4299TIP3   OH212860   5.636   1.946   0.912 -0.2901 -0.2608  0.3402
 4299TIP3    H112861   5.686   2.028   0.911 -1.6871  0.6378  0.7311
 4299TIP3    H212862   5.617   1.928   0.820 -1.1988  0.6682  0.3233
 4300TIP3   OH212863   3.424   2.711   0.609  0.4049 -0.4652 -0.9612
 4300TIP3    H112864   3.496   2.710   0.672 -1.1385 -2.1232  0.9033
 4300TIP3    H212865   3.385   2.624   0.616 -2.7641  0.8525 -0.6823
 4301TIP3   OH212866   6.721   1.011   1.638  0.1518  0.1006 -0.2130
 4301TIP3    H112867   6.808   1.037   1.670 -0.7661  2.3471  0.6543
 4301TIP3    H212868   6.736   0.928   1.593  2.8096  0.6030 -0.4270
 4302TIP3   OH212869   5.517   0.176   1.140  0.0283 -0.0915 -0.4079
 4302TIP3    H112870   5.610   0.157   1.153 -0.1629  0.2220  1.9189
 4302TIP3    H212871   5.482   0.097   1.099  1.7748  0.8649 -4.1500
 4303TIP3   OH212872   5.342   0.158   2.499 -0.0088 -0.1489  0.9223
 4303TIP3    H112873   5.367   0.216   2.427 -2.4474 -0.7212 -0.5165
 4303TIP3    H212874   5.321   0.217   2.571 -1.4818  0.7917 -0.1980
 4304TIP3   OH212875   3.100   3.147   5.205 -0.2085  1.0731 -0.6606
 4304TIP3    H112876   3.115   3.078   5.270 -2.5417  0.8726 -0.2685
 4304TIP3    H212877   3.160   3.218   5.231 -0.6009  0.7364  1.3245
 4305TIP3   OH212878   1.365   6.340   4.109  0.2807  0.2317  0.0573
 4305TIP3    H112879   1.424   6.327   4.035 -0.7898  1.6258 -1.0933
 4305TIP3    H212880   1.288   6.287   4.087  0.8005 -1.1043  1.2683
 4306TIP3   OH212881   5.272   2.940   2.215 -0.2055 -0.4093 -0.1227
 4306TIP3    H112882   5.202   2.922   2.277 -0.4084  0.8522  0.0307
 4306TIP3    H212883   5.228   2.955   2.132 -0.1992  1.0794  0.1182
 4307TIP3   OH212884   1.625   6.144   1.567 -0.4487  0.0089 -0.4602
 4307TIP3    H112885   1.593   6.064   1.609 -1.8892  1.6240  1.6850
 4307TIP3    H212886   1.556   6.167   1.505 -0.1917 -0.2106 -0.8313
 4308TIP3   OH212887   3.404   1.798   4.533 -0.3027  0.3534  0.2208
 4308TIP3    H112888   3.417   1.704   4.532 -1.7204  0.1278  0.0729
 4308TIP3    H212889   3.415   1.824   4.624  1.4962  0.2954  0.0514
 4309TIP3   OH212890   7.078   0.772   0.803  0.3368  1.2776 -0.2006
 4309TIP3    H112891   7.014   0.701   0.803  0.9929  0.6619  0.4870
 4309TIP3    H212892   7.026   0.852   0.803 -0.4209  0.8427 -2.2230
 4310TIP3   OH212893   6.478   5.490   5.065  0.4451 -0.1986  0.4886
 4310TIP3    H112894   6.502   5.507   5.156  0.5150  0.1513  0.4061
 4310TIP3    H212895   6.384   5.507   5.061  0.7459  1.6693  0.0800
 4311TIP3   OH212896   7.203   5.005   3.231  0.0481  0.1478  0.0098
 4311TIP3    H112897   7.174   5.020   3.141 -0.8572 -3.2063 -0.3842
 4311TIP3    H212898   7.298   5.014   3.227  0.0314 -0.0274 -1.3206
 4312TIP3   OH212899   3.493   0.033   3.583  0.2179  0.3016 -0.4818
 4312TIP3    H112900   3.549   0.064   3.512 -0.0101 -2.1588 -1.8387
 4312TIP3    H212901   3.430  -0.026   3.541  0.2855 -1.5526  1.7732
 4313TIP3   OH212902   5.058   5.203   4.614  0.0431  0.0971  0.4576
 4313TIP3    H112903   5.134   5.247   4.576 -0.0319 -0.2499 -0.1150
 4313TIP3    H212904   4.992   5.205   4.544 -0.0885 -0.5849  0.5519
 4314TIP3   OH212905   3.265   2.894   3.204  0.3018  0.3915  0.0320
 4314TIP3    H112906   3.299   2.933   3.284  2.4265 -0.6908 -0.2588
 4314TIP3    H212907   3.305   2.807   3.201 -2.1283 -0.7846 -0.6871
 4315TIP3   OH212908   0.464   4.620   4.770 -0.2745 -0.2088  0.1264
 4315TIP3    H112909   0.537   4.668   4.730  0.1706 -0.7955  0.2291
 4315TIP3    H212910   0.443   4.551   4.707 -0.5143 -0.2561  0.2558
 4316TIP3   OH212911   0.521   1.678   5.041 -1.0926 -0.1016  0.1246
 4316TIP3    H112912   0.615   1.694   5.045 -0.7751 -1.9602  2.8072
 4316TIP3    H212913   0.487   1.716   5.123 -2.5189 -0.3229 -0.3357
 4317TIP3   OH212914   3.070   3.833   3.411  0.0339  0.0039  0.0819
 4317TIP3    H112915   3.064   3.924   3.384  2.0539  0.3351  0.5749
 4317TIP3    H212916   3.145   3.798   3.363 -0.9024 -1.5175 -0.3550
 4318TIP3   OH212917   3.709   1.522   4.494 -0.2932 -0.2966 -0.2960
 4318TIP3    H112918   3.729   1.612   4.516  0.0018 -0.6110  0.7790
 4318TIP3    H212919   3.628   1.502   4.542  0.6719 -1.1660  1.0581
 4319TIP3   OH212920   4.756   1.347   3.167  0.1447 -0.1835 -0.2900
 4319TIP3    H112921   4.749   1.334   3.073 -0.1334  1.1620 -0.4713
 4319TIP3    H212922   4.840   1.393   3.179  0.6143 -1.1376  0.2163
 4320TIP3   OH212923   0.358   0.451   0.285 -0.2894 -0.0108  0.1505
 4320TIP3    H112924   0.354   0.392   0.360  0.4317 -0.1766  0.0601
 4320TIP3    H212925   0.376   0.537   0.323  1.0734 -0.2596  0.1031
 4321TIP3   OH212926   2.900   2.877   4.244  0.0277 -0.3801 -0.3250
 4321TIP3    H112927   2.995   2.872   4.256 -0.2110 -2.0048  1.4164
 4321TIP3    H212928   2.868   2.918   4.324 -0.9083 -2.4993  0.4729
 4322TIP3   OH212929   7.129   5.406   1.824  0.0538  0.5633  0.0458
 4322TIP3    H112930   7.068   5.470   1.861  0.6062 -0.2530  2.5634
 4322TIP3    H212931   7.073   5.343   1.778 -0.8234  0.8256  0.7348
 4323TIP3   OH212932   0.394   3.492   2.405  0.0081 -0.1371  0.0509
 4323TIP3    H112933   0.433   3.489   2.318  1.3358  1.1864  0.5575
 4323TIP3    H212934   0.454   3.546   2.457 -1.9173  1.0606  1.1719
 4324TIP3   OH212935   5.891   3.369   0.339 -0.6382 -0.0778 -0.1781
 4324TIP3    H112936   5.884   3.460   0.311  0.2034  0.7463  2.0416
 4324TIP3    H212937   5.863   3.369   0.430  0.3098 -1.8551  0.1757
 4325TIP3   OH212938   1.844   0.348   5.183 -0.2568 -0.1409 -0.1107
 4325TIP3    H112939   1.896   0.363   5.104  0.5472 -0.2636  0.3906
 4325TIP3    H212940   1.882   0.405   5.249  0.2544 -1.3800  0.6896
 4326TIP3   OH212941   1.875   2.520   1.496 -0.1631 -0.2792  0.1716
 4326TIP3    H112942   1.800   2.580   1.498 -0.7715 -1.0367  0.8585
 4326TIP3    H212943   1.857   2.462   1.422  0.3443  0.2659 -0.3915
 4327TIP3   OH212944   3.510   4.371   4.422  0.3521  0.1295 -0.2397
 4327TIP3    H112945   3.572   4.349   4.492 -0.3538  0.7321  0.5886
 4327TIP3    H212946   3.533   4.461   4.398  0.2061  0.1283 -0.3811
 4328TIP3   OH212947   4.878   6.237   1.754  0.2765 -0.2330 -0.1380
 4328TIP3    H112948   4.895   6.317   1.803 -0.6222  0.1326 -0.4160
 4328TIP3    H212949   4.832   6.266   1.675 -0.2048 -1.0413 -0.1659
 4329TIP3   OH212950   6.484   6.473   0.492 -0.0439  0.7404  0.5288
 4329TIP3    H112951   6.399   6.440   0.464 -0.8983  1.5829  1.9792
 4329TIP3    H212952   6.522   6.513   0.413 -0.5657 -0.4454 -0.3479
 4330TIP3   OH212953   0.043   5.628   3.021  0.4896  0.4300  0.0341
 4330TIP3    H112954   0.030   5.722   3.027  0.3486  0.5481 -1.7201
 4330TIP3    H212955  -0.028   5.597   2.965  0.4130 -0.7716  0.7385
 4331TIP3   OH212956   1.027   5.152   1.762  0.3094 -0.0340 -0.3255
 4331TIP3    H112957   1.116   5.179   1.741  0.0706  0.8745 -0.1921
 4331TIP3    H212958   0.988   5.227   1.806 -0.4976 -0.4542 -0.2905
 4332TIP3   OH212959   1.909   3.563   4.989 -0.2293 -0.3721  0.3498
 4332TIP3    H112960   1.983   3.622   4.998  0.3206 -1.1211  0.8122
 4332TIP3    H212961   1.921   3.497   5.058 -1.8765  0.0806  1.1266
 4333TIP3   OH212962   0.045   6.314   2.223  0.1409 -0.8145  0.0019
 4333TIP3    H112963   0.104   6.311   2.147  0.3459 -0.6407  0.1526
 4333TIP3    H212964  -0.001   6.231   2.221  0.2773 -0.8851 -0.2123
 4334TIP3   OH212965   2.167   0.667   1.135  0.1593  1.0411 -0.4769
 4334TIP3    H112966   2.115   0.695   1.210  1.2504 -1.2016  1.2683
 4334TIP3    H212967   2.213   0.746   1.106  0.7887  1.7350  2.1574
 4335TIP3   OH212968   2.073   6.609   5.059  0.0443 -0.4709  0.7178
 4335TIP3    H112969   2.000   6.671   5.063 -1.1749 -1.9062  1.3717
 4335TIP3    H212970   2.139   6.646   5.117 -0.1098  0.8828  0.0686
 4336TIP3   OH212971   5.643   0.089   0.837 -0.1874 -0.3628  0.3751
 4336TIP3    H112972   5.716   0.030   0.821 -0.3304 -0.4508  0.0377
 4336TIP3    H212973   5.565   0.035   0.825 -0.3893  0.4130 -2.2553
 4337TIP3   OH212974   2.137   5.955   3.768 -0.0046  0.2060 -0.1371
 4337TIP3    H112975   2.162   6.047   3.777  0.3462  0.0875  0.1892
 4337TIP3    H212976   2.044   5.956   3.747  0.4194  0.6910 -2.1365
 4338TIP3   OH212977   1.166   4.252   5.455  0.0589 -0.1359  0.3436
 4338TIP3    H112978   1.206   4.278   5.372  0.0655 -0.4754  0.2362
 4338TIP3    H212979   1.140   4.161   5.441 -2.1101  0.5017 -0.0967
 4339TIP3   OH212980   1.064   1.249   5.806 -0.3211  0.1704 -0.1736
 4339TIP3    H112981   1.068   1.155   5.790  0.3379  0.2220 -0.3205
 4339TIP3    H212982   0.989   1.279   5.755  0.4796 -0.0038 -1.4717
 4340TIP3   OH212983   3.403   5.044   4.519  0.1789 -1.1809  0.3744
 4340TIP3    H112984   3.480   4.989   4.536  0.4327 -0.5608  1.3252
 4340TIP3    H212985   3.420   5.083   4.434  0.1298 -2.3348 -0.1849
 4341TIP3   OH212986   0.163   1.000   1.260 -0.4560  0.1198 -0.3131
 4341TIP3    H112987   0.096   1.065   1.283 -0.3704  0.7509 -1.7526
 4341TIP3    H212988   0.114   0.918   1.249 -0.4925 -0.2457  2.0619
 4342TIP3   OH212989   6.477   5.321   1.873 -0.1278  0.1536 -0.7000
 4342TIP3    H112990   6.544   5.389   1.884 -0.2267  0.2800 -0.8682
 4342TIP3    H212991   6.400   5.358   1.916 -0.1874  0.1564 -0.8102
 4343TIP3   OH212992   2.055   2.204   1.831  0.1590 -0.3543 -0.0473
 4343TIP3    H112993   2.013   2.216   1.916 -0.1852 -1.9745  0.0519
 4343TIP3    H212994   2.038   2.286   1.784 -0.4716  0.1949  1.0973
 4344TIP3   OH212995   0.856   5.754   0.870  0.1882 -0.1362 -0.2185
 4344TIP3    H112996   0.789   5.822   0.862  1.2139  0.9065 -0.2199
 4344TIP3    H212997   0.817   5.677   0.830 -1.1526  0.3354  0.1183
 4345TIP3   OH212998   2.316   3.032   0.470 -0.5480  0.3545  0.6418
 4345TIP3    H112999   2.315   2.939   0.446  0.9253  1.0327 -2.6548
 4345TIP3    H213000   2.373   3.037   0.546 -1.5940 -1.5112  1.6332
 4346TIP3   OH213001   6.748   2.113   2.370  0.2731 -0.1046 -0.4919
 4346TIP3    H113002   6.730   2.062   2.449  0.0321 -0.8351 -0.9989
 4346TIP3    H213003   6.805   2.183   2.399  1.7728 -1.4660  0.0088
 4347TIP3   OH213004   2.285   3.835   3.580  0.5978 -0.1359  0.1796
 4347TIP3    H113005   2.331   3.863   3.659 -0.1109  0.1331  0.5076
 4347TIP3    H213006   2.294   3.908   3.519 -1.4179  0.9859  1.1023
 4348TIP3   OH213007   3.314   4.739   1.826  0.3650  0.6264 -0.6868
 4348TIP3    H113008   3.393   4.702   1.787  0.5017  0.1456  0.0396
 4348TIP3    H213009   3.295   4.816   1.771  2.0103  1.4496 -0.1866
 4349TIP3   OH213010   0.737   6.312   5.516 -0.0470  0.1006 -0.4512
 4349TIP3    H113011   0.755   6.237   5.459 -0.2044  0.7657 -1.3991
 4349TIP3    H213012   0.671   6.362   5.469 -1.1370  0.0085  0.9243
 4350TIP3   OH213013   6.976   2.279   0.320 -0.3356 -0.2201 -0.4776
 4350TIP3    H113014   7.007   2.204   0.370  2.8649  1.2342 -0.0112
 4350TIP3    H213015   6.971   2.247   0.229  1.3351 -0.9581 -0.3471
 4351TIP3   OH213016   5.419   3.836   2.367 -0.2651 -0.2782  0.4162
 4351TIP3    H113017   5.361   3.760   2.377  1.4062 -1.6046  0.4902
 4351TIP3    H213018   5.476   3.812   2.294 -0.3086  1.3374 -0.1822
 4352TIP3   OH213019   1.820   0.246   3.714  0.3016 -0.1672 -0.7041
 4352TIP3    H113020   1.854   0.196   3.640  0.0395  0.6750 -1.4063
 4352TIP3    H213021   1.743   0.291   3.680  0.6045  0.8123 -0.1282
 4353TIP3   OH213022   5.678   1.544   1.630  0.2289  0.1681  0.2468
 4353TIP3    H113023   5.755   1.601   1.624  0.5301 -0.4041 -2.3647
 4353TIP3    H213024   5.671   1.503   1.544 -2.3694 -0.6573  0.7493
 4354TIP3   OH213025   3.295   1.070   4.986 -0.4421 -0.0450 -0.0817
 4354TIP3    H113026   3.308   1.138   4.920  0.9585  0.0182  0.2445
 4354TIP3    H213027   3.382   1.054   5.022 -1.1046 -0.4411  1.4056
 4355TIP3   OH213028   5.378   6.408   1.256  0.2170  0.2915  0.0263
 4355TIP3    H113029   5.455   6.428   1.308  0.9840 -0.2877 -0.8521
 4355TIP3    H213030   5.327   6.347   1.310  0.2802  0.8094  0.6808
 4356TIP3   OH213031   5.122   3.563   4.302  0.4404  0.3701  0.5363
 4356TIP3    H113032   5.148   3.649   4.336 -0.2029  0.6082  0.4306
 4356TIP3    H213033   5.171   3.501   4.356  0.8113  0.7953  0.7000
 4357TIP3   OH213034   2.863   5.620   3.453  0.2169 -0.0295 -0.3541
 4357TIP3    H113035   2.937   5.623   3.391 -0.3989  1.3576 -1.0783
 4357TIP3    H213036   2.797   5.566   3.410 -0.6938  1.9192 -1.5474
 4358TIP3   OH213037   4.215   6.787   3.756 -0.5390  0.2493  0.0113
 4358TIP3    H113038   4.230   6.696   3.729 -0.5054  0.7305 -1.7484
 4358TIP3    H213039   4.154   6.781   3.829 -0.9430 -1.1854 -0.4096
 4359TIP3   OH213040   3.625   3.792   1.915 -0.1210  0.5493  0.3403
 4359TIP3    H113041   3.665   3.751   1.991  3.0214 -1.5746 -2.1753
 4359TIP3    H213042   3.570   3.724   1.876 -0.8625  1.2521  0.1313
 4360TIP3   OH213043   4.085   2.484   3.061  0.4286  0.2911 -0.0203
 4360TIP3    H113044   4.178   2.474   3.080  0.8975  0.8468 -1.8054
 4360TIP3    H213045   4.043   2.411   3.105  1.8467 -0.6198 -0.1253
 4361TIP3   OH213046   0.181   1.399   4.251 -0.8908  0.0303  0.1528
 4361TIP3    H113047   0.168   1.491   4.277 -1.8820 -0.3944  1.2702
 4361TIP3    H213048   0.120   1.386   4.178 -0.3733  0.3880 -0.3515
 4362TIP3   OH213049   7.186   3.404   2.831  0.0282  0.8735  0.2317
 4362TIP3    H113050   7.210   3.493   2.856 -0.5828  1.3598 -0.8194
 4362TIP3    H213051   7.197   3.402   2.736 -2.6165  0.7155 -0.1614
 4363TIP3   OH213052   1.080   2.353   0.182  0.7629 -0.5699 -0.2430
 4363TIP3    H113053   1.061   2.331   0.091  1.1434 -3.2629  0.2468
 4363TIP3    H213054   0.995   2.349   0.227  0.4303  1.6484 -0.5837
 4364TIP3   OH213055   5.084   0.299   4.429 -0.6759  0.1824 -0.4172
 4364TIP3    H113056   5.013   0.357   4.402 -0.1432  0.5879 -0.9751
 4364TIP3    H213057   5.080   0.226   4.367  0.2528  0.8864 -1.3508
 4365TIP3   OH213058   7.142   3.578   2.390 -0.0152 -0.3099  0.7101
 4365TIP3    H113059   7.130   3.562   2.296  1.6291 -1.1145  0.5968
 4365TIP3    H213060   7.114   3.668   2.403 -1.3598 -0.5427 -0.3215
 4366TIP3   OH213061   5.961   1.467   1.252 -0.1786  0.9836 -0.1726
 4366TIP3    H113062   5.968   1.551   1.296  2.3677  1.1537 -0.7566
 4366TIP3    H213063   5.899   1.481   1.181 -1.4185  1.7245  1.0014
 4367TIP3   OH213064   3.042   1.288   0.410 -0.6906  0.3367  0.0332
 4367TIP3    H113065   3.003   1.362   0.457 -1.7014 -0.5228  0.6014
 4367TIP3    H213066   3.009   1.296   0.321  1.3018  2.0236 -0.6225
 4368TIP3   OH213067   4.698   0.468   2.189  0.0787 -0.0006 -0.5670
 4368TIP3    H113068   4.742   0.426   2.263  2.1303 -2.1423 -2.7932
 4368TIP3    H213069   4.759   0.536   2.160  0.5637 -0.9362 -1.8271
 4369TIP3   OH213070   1.298   2.899   3.449 -0.4895  0.0736  0.2314
 4369TIP3    H113071   1.373   2.869   3.499 -0.0986  2.6352  1.3601
 4369TIP3    H213072   1.336   2.947   3.375 -1.0650 -1.0437 -0.8216
 4370TIP3   OH213073   5.863   0.799   0.313 -0.2867  0.0877 -0.3552
 4370TIP3    H113074   5.936   0.821   0.255  0.4227  2.0538  1.1821
 4370TIP3    H213075   5.879   0.708   0.339  0.8318  0.0415 -1.1445
 4371TIP3   OH213076   1.912   1.739   1.420 -0.7103  0.8818 -0.3398
 4371TIP3    H113077   1.957   1.659   1.447  0.2304  1.4389 -0.1930
 4371TIP3    H213078   1.976   1.785   1.365 -0.9326  1.9019  0.2352
 4372TIP3   OH213079   5.057   1.457   2.562  0.3247 -0.4703  0.1302
 4372TIP3    H113080   5.153   1.457   2.562  0.3682  0.9363 -1.1919
 4372TIP3    H213081   5.033   1.368   2.587  1.9508 -0.6473  1.2428
 4373TIP3   OH213082   6.939   5.184   4.938 -0.8581 -0.0902  0.0616
 4373TIP3    H113083   6.900   5.236   4.867  0.4798  1.0964  0.1610
 4373TIP3    H213084   6.959   5.247   5.007  0.1521 -0.8297  0.4808
 4374TIP3   OH213085   3.491   4.282   4.150  0.6632  0.1195  0.2139
 4374TIP3    H113086   3.453   4.297   4.237  1.2193  0.7141  0.3652
 4374TIP3    H213087   3.555   4.212   4.164 -1.4694 -2.0730 -0.3628
 4375TIP3   OH213088   1.525   5.331   2.687  0.0931  0.2601 -0.2457
 4375TIP3    H113089   1.497   5.363   2.602 -0.9982 -1.5659 -0.6432
 4375TIP3    H213090   1.461   5.367   2.749 -1.1565 -1.0707 -0.6916
 4376TIP3   OH213091   4.087   1.294   4.016 -0.3643 -0.5158 -0.1874
 4376TIP3    H113092   4.150   1.335   4.076  0.3058 -1.4322 -0.2433
 4376TIP3    H213093   4.008   1.347   4.025  1.0661  2.1642 -1.8318
 4377TIP3   OH213094   2.356   3.889   1.917  0.4954  0.3534 -0.1569
 4377TIP3    H113095   2.371   3.855   2.005  0.7276  0.8989  0.0154
 4377TIP3    H213096   2.439   3.874   1.871  0.9253  1.5090  0.1943
 4378TIP3   OH213097   0.680   4.514   0.029  0.1100  0.4608  0.8230
 4378TIP3    H113098   0.734   4.592   0.042  1.8977 -0.8095  1.4119
 4378TIP3    H213099   0.740   4.450  -0.009 -0.5410 -1.4950  2.8973
 4379TIP3   OH213100   1.177   2.685   5.604  0.7185  0.1140  0.6606
 4379TIP3    H113101   1.130   2.664   5.684  0.3404 -0.1421  0.3779
 4379TIP3    H213102   1.123   2.754   5.563  1.4940  1.0440  1.1625
 4380TIP3   OH213103   3.880   0.548   0.330  0.4577  0.2771 -0.2529
 4380TIP3    H113104   3.972   0.528   0.316  0.5890  0.1902  0.7041
 4380TIP3    H213105   3.833   0.475   0.289  0.8242  0.0694 -0.3045
 4381TIP3   OH213106   2.104   3.167   0.604 -0.1229 -0.1197 -0.0123
 4381TIP3    H113107   2.027   3.131   0.559  0.4416 -1.4136  0.0138
 4381TIP3    H213108   2.177   3.145   0.546  0.3852 -0.1495  0.6340
 4382TIP3   OH213109   4.594   2.408   2.748  0.2460  0.0769 -0.5383
 4382TIP3    H113110   4.588   2.478   2.684  1.5644  0.3329 -0.3983
 4382TIP3    H213111   4.573   2.328   2.699 -0.1036  0.4206 -0.9557
 4383TIP3   OH213112   6.353   5.416   2.627  0.2723  0.0044  0.6472
 4383TIP3    H113113   6.345   5.462   2.543  1.7907 -0.6428  0.1097
 4383TIP3    H213114   6.286   5.348   2.622  2.2653 -1.9978 -1.4419
 4384TIP3   OH213115   0.945   5.598   4.544 -0.1805 -0.7308  0.3860
 4384TIP3    H113116   0.888   5.673   4.531  1.5066  0.7353  1.0338
 4384TIP3    H213117   0.928   5.541   4.469 -0.4107  1.0120 -0.9342
 4385TIP3   OH213118   2.366   0.420   3.582 -0.0867  0.2070  0.1744
 4385TIP3    H113119   2.428   0.397   3.651 -0.0508 -1.6791 -0.4194
 4385TIP3    H213120   2.343   0.511   3.599  1.0074  0.2126  1.8167
 4386TIP3   OH213121   6.377   2.668   0.730 -0.2424  0.7217  0.2418
 4386TIP3    H113122   6.311   2.680   0.798  1.9865  1.2995  2.4477
 4386TIP3    H213123   6.344   2.597   0.676 -0.5267 -2.3752  4.1125
 4387TIP3   OH213124   5.152   4.542   4.298 -1.1667  0.2178  0.7779
 4387TIP3    H113125   5.208   4.467   4.319 -1.0612 -0.4193 -1.5460
 4387TIP3    H213126   5.189   4.614   4.349 -0.1309 -0.8768  1.6474
 4388TIP3   OH213127   1.669   6.237   1.073 -0.0651  0.6306 -0.2861
 4388TIP3    H113128   1.591   6.231   1.128  0.7546 -1.7176  0.7524
 4388TIP3    H213129   1.730   6.292   1.122 -0.2321  0.5517  0.0120
 4389TIP3   OH213130   1.873   3.794   0.681 -0.2118  0.0778  0.4805
 4389TIP3    H113131   1.791   3.789   0.631 -0.2910 -0.6308  0.6627
 4389TIP3    H213132   1.942   3.798   0.615 -0.2513 -1.8499  0.2592
 4390TIP3   OH213133   6.698   4.997   5.672  0.5944  0.1055 -0.0539
 4390TIP3    H113134   6.755   5.006   5.749  0.3177  0.5863  0.1001
 4390TIP3    H213135   6.633   4.932   5.698  2.0163 -1.7161 -0.8122
 4391TIP3   OH213136   6.261   6.508   4.191 -0.2069  0.0450 -0.4985
 4391TIP3    H113137   6.299   6.520   4.104  1.3347  2.2445  0.3848
 4391TIP3    H213138   6.332   6.472   4.244 -0.7764 -0.1718  0.1370
 4392TIP3   OH213139   7.082   3.937   0.379 -0.0256 -0.0836  0.1019
 4392TIP3    H113140   7.178   3.940   0.384 -0.0399  1.4440 -0.0065
 4392TIP3    H213141   7.058   4.021   0.339 -1.3825 -0.7235 -0.4799
 4393TIP3   OH213142   6.191   2.332   1.254  0.1752 -0.0864  0.0286
 4393TIP3    H113143   6.259   2.279   1.295 -0.1204 -2.2285 -2.0234
 4393TIP3    H213144   6.240   2.400   1.207  0.8744 -0.9824 -0.5818
 4394TIP3   OH213145   6.944   6.374   2.597 -0.2102  0.0708 -0.0408
 4394TIP3    H113146   7.036   6.361   2.573 -0.0959 -1.0976  0.9395
 4394TIP3    H213147   6.930   6.468   2.586  1.6700  0.6244  1.6565
 4395TIP3   OH213148   3.782   2.708   5.048  0.0352  0.2017  0.3893
 4395TIP3    H113149   3.832   2.635   5.085 -0.4013 -0.5227 -0.4177
 4395TIP3    H213150   3.803   2.706   4.955  0.9470  1.8691  0.5205
 4396TIP3   OH213151   2.044   3.732   1.855  0.1599 -0.6083 -0.1295
 4396TIP3    H113152   1.958   3.746   1.894  0.0485  0.1684 -0.6393
 4396TIP3    H213153   2.047   3.792   1.781  1.2878 -0.3442  0.1155
 4397TIP3   OH213154   5.919   5.670   4.945 -0.4598 -0.0273  0.1037
 4397TIP3    H113155   5.886   5.753   4.980 -0.6836  0.2446 -0.7173
 4397TIP3    H213156   5.931   5.614   5.021  0.2191  0.9406  0.7293
 4398TIP3   OH213157   0.998   4.476   2.046  0.0897  0.0290  0.7162
 4398TIP3    H113158   0.986   4.570   2.030 -0.4810 -0.1920 -0.2669
 4398TIP3    H213159   1.041   4.471   2.132  0.4186  1.1933  0.6332
 4399TIP3   OH213160   4.250   3.322   2.575  0.2262 -0.2033  0.4274
 4399TIP3    H113161   4.286   3.292   2.492 -2.2368  0.1410 -0.8502
 4399TIP3    H213162   4.212   3.408   2.557  0.0852  0.1192  2.0375
 4400TIP3   OH213163   1.695   2.170   4.133 -0.2747 -0.2955  0.4310
 4400TIP3    H113164   1.786   2.182   4.159 -0.4509  0.6427  0.6433
 4400TIP3    H213165   1.695   2.182   4.038 -0.5195  2.0042  0.6843
 4401TIP3   OH213166   4.466   5.890   1.999 -0.3679  0.0119 -0.0735
 4401TIP3    H113167   4.416   5.958   1.953 -0.2695 -0.2045 -0.5068
 4401TIP3    H213168   4.468   5.920   2.090  0.1773  0.8931 -0.3627
 4402TIP3   OH213169   0.874   0.948   0.639  0.5260 -0.0639  0.2078
 4402TIP3    H113170   0.919   0.910   0.563 -0.4081  1.6150 -1.2605
 4402TIP3    H213171   0.932   0.929   0.712  1.2424 -2.1639 -0.8104
 4403TIP3   OH213172   6.860   2.960   5.045  0.0725 -0.3402 -0.2852
 4403TIP3    H113173   6.936   2.946   4.988 -0.0234 -1.9244 -0.0691
 4403TIP3    H213174   6.884   3.035   5.099  1.5496 -0.8973 -0.1316
 4404TIP3   OH213175   1.531   6.011   3.165 -0.7005  0.3248  0.4174
 4404TIP3    H113176   1.538   6.075   3.094 -1.3333 -0.0130  0.0345
 4404TIP3    H213177   1.483   5.937   3.126 -0.1538 -0.3025  0.9052
 4405TIP3   OH213178   4.433   6.618   4.378  0.4666 -0.1035 -0.1292
 4405TIP3    H113179   4.353   6.658   4.343  0.0901 -1.3244 -0.6913
 4405TIP3    H213180   4.467   6.566   4.306  1.3392 -0.2451  0.3762
 4406TIP3   OH213181   1.583  -0.014   5.560  0.4116 -0.4075 -0.3436
 4406TIP3    H113182   1.608   0.045   5.631  0.9278 -0.8332 -0.1711
 4406TIP3    H213183   1.555   0.044   5.489 -0.9493  0.0212  0.4990
 4407TIP3   OH213184   5.831   3.453   3.036 -0.0610  0.2638  0.6809
 4407TIP3    H113185   5.841   3.379   2.976 -0.4820  0.8432 -0.1226
 4407TIP3    H213186   5.887   3.521   2.998  1.3178 -0.0264  2.0999
 4408TIP3   OH213187   6.408   1.987   3.463  0.5173 -0.8166  0.1246
 4408TIP3    H113188   6.463   1.996   3.386 -0.0909  0.6430 -0.1685
 4408TIP3    H213189   6.324   2.025   3.438  0.8883  1.5833  2.0504
 4409TIP3   OH213190   3.728   6.217   4.490  0.3847 -0.5413  0.6192
 4409TIP3    H113191   3.791   6.203   4.419  0.7762 -0.6392  0.9784
 4409TIP3    H213192   3.782   6.240   4.565 -0.0938  0.7041  0.6056
 4410TIP3   OH213193   1.681   6.633   2.606  0.3599  0.4751 -0.7471
 4410TIP3    H113194   1.675   6.631   2.702 -2.1242 -0.4891 -0.8610
 4410TIP3    H213195   1.647   6.720   2.582 -1.0046 -0.0443 -0.7976
 4411TIP3   OH213196   5.371   4.102   2.070  0.1006  0.0535 -0.7193
 4411TIP3    H113197   5.397   4.030   2.014  2.0598 -0.4248  0.6976
 4411TIP3    H213198   5.438   4.169   2.057 -0.7376  0.9357 -0.7179
 4412TIP3   OH213199   2.146   5.536   5.884  0.0818 -0.0271  0.4151
 4412TIP3    H113200   2.170   5.524   5.792  0.3316  1.2323  0.2901
 4412TIP3    H213201   2.125   5.448   5.916  0.9775 -0.6133 -0.5639
 4413TIP3   OH213202   0.545   2.109   5.173  0.2890  0.3651 -0.1146
 4413TIP3    H113203   0.630   2.148   5.152  0.7023  0.2253  1.1793
 4413TIP3    H213204   0.504   2.093   5.089  1.7987 -0.1295 -0.7871
 4414TIP3   OH213205   4.021   3.516   4.168  0.5450 -0.5110  0.0988
 4414TIP3    H113206   3.998   3.592   4.115  0.3899 -0.3591  0.3848
 4414TIP3    H213207   4.111   3.531   4.195  0.5453 -0.4758  0.0768
 4415TIP3   OH213208   3.020   4.151   1.753 -0.2456 -0.3087  0.0923
 4415TIP3    H113209   2.969   4.223   1.716 -1.9818 -0.1955  2.4325
 4415TIP3    H213210   3.105   4.190   1.773  0.3327 -0.0940 -2.5074
 4416TIP3   OH213211   1.415   0.248   0.177  0.3322  0.2688 -0.3111
 4416TIP3    H113212   1.438   0.201   0.097 -1.2999  0.0834 -0.7020
 4416TIP3    H213213   1.332   0.209   0.205  2.3917 -2.0522  3.4020
 4417TIP3   OH213214   1.095   1.047   1.940 -0.5060  0.1700 -0.0532
 4417TIP3    H113215   1.034   1.118   1.921 -0.5876  0.4787  1.2367
 4417TIP3    H213216   1.099   0.996   1.859 -2.5649  0.0654 -0.1486
 4418TIP3   OH213217   6.449   6.497   2.223  0.4087 -0.2761  0.3600
 4418TIP3    H113218   6.513   6.454   2.166  1.7145  0.5794  1.1208
 4418TIP3    H213219   6.450   6.588   2.195 -1.1824 -0.3989 -0.2066
 4419TIP3   OH213220   6.108   4.802   5.316  0.5383 -0.0075  0.2486
 4419TIP3    H113221   6.081   4.827   5.227  0.6642 -1.3336 -0.1855
 4419TIP3    H213222   6.048   4.731   5.340  0.0294  0.8329  1.5329
 4420TIP3   OH213223   3.586   3.727   1.162 -0.3898  0.3658  0.9306
 4420TIP3    H113224   3.561   3.645   1.120 -0.5981  1.0934 -0.4251
 4420TIP3    H213225   3.682   3.723   1.166 -0.4610 -0.4946  2.0672
 4421TIP3   OH213226   4.640   0.526   0.874 -0.4202 -0.1609 -0.3091
 4421TIP3    H113227   4.573   0.519   0.806 -1.9564 -2.5436  1.3042
 4421TIP3    H213228   4.645   0.439   0.912  4.2508 -0.3977 -0.8069
 4422TIP3   OH213229   5.093   0.105   5.253 -0.3660 -0.2135 -0.0656
 4422TIP3    H113230   5.100   0.128   5.345  1.2317 -0.5441 -0.0618
 4422TIP3    H213231   5.016   0.151   5.222 -2.9239 -2.6318  2.1517
 4423TIP3   OH213232   1.805   2.490   3.321  0.0249 -0.2157  0.1240
 4423TIP3    H113233   1.852   2.573   3.312 -0.1162 -0.1534 -0.0431
 4423TIP3    H213234   1.868   2.431   3.363  1.3746 -1.0309 -2.7319
 4424TIP3   OH213235   6.460   3.534   3.582  0.0542  0.4761  0.0540
 4424TIP3    H113236   6.553   3.557   3.589  0.7466 -0.8249 -3.0541
 4424TIP3    H213237   6.456   3.441   3.602 -0.1157 -0.0086 -1.9832
 4425TIP3   OH213238   0.928   5.215   0.947  0.3216 -0.3120 -0.2240
 4425TIP3    H113239   0.928   5.125   0.915 -2.5304 -1.0039  1.3642
 4425TIP3    H213240   0.842   5.227   0.986  0.9223  2.8525  0.4423
 4426TIP3   OH213241   2.783   5.897   3.129  0.1583 -0.5284  0.1096
 4426TIP3    H113242   2.775   5.847   3.048  1.5176  0.3832 -0.6116
 4426TIP3    H213243   2.694   5.900   3.164 -0.6487 -0.0261 -1.8936
 4427TIP3   OH213244   3.557   5.879   0.881 -0.0080  0.5095 -0.3715
 4427TIP3    H113245   3.639   5.865   0.834 -0.8142  0.0280 -1.6715
 4427TIP3    H213246   3.529   5.967   0.855  0.1559  0.7390  0.1963
 4428TIP3   OH213247   2.267   5.597   0.616  0.2785 -0.4150 -0.1783
 4428TIP3    H113248   2.281   5.692   0.619  0.3969 -0.4424  0.1357
 4428TIP3    H213249   2.189   5.587   0.562  0.9547 -0.2119 -1.2277
 4429TIP3   OH213250   5.555   0.806   3.531  0.6149 -0.1674 -0.1591
 4429TIP3    H113251   5.583   0.733   3.586  1.4063  0.3529  0.1374
 4429TIP3    H213252   5.463   0.817   3.552  0.9514  0.1559  1.2242
 4430TIP3   OH213253   6.323   5.950   1.835 -1.0347 -0.3313 -0.4162
 4430TIP3    H113254   6.265   5.991   1.771 -0.0777  0.9515 -0.5063
 4430TIP3    H213255   6.382   6.020   1.862  0.8579 -1.7070 -0.7856
 4431TIP3   OH213256   1.218   0.424   4.059  0.2078  0.2724  0.0975
 4431TIP3    H113257   1.302   0.441   4.102 -0.1237 -0.1688  0.9452
 4431TIP3    H213258   1.175   0.359   4.115  1.1891 -3.0552 -2.6378
 4432TIP3   OH213259   4.411   3.881   2.467  0.3205 -0.5768  0.5979
 4432TIP3    H113260   4.401   3.832   2.385  2.4282 -0.2091  0.0587
 4432TIP3    H213261   4.424   3.814   2.534  0.2245 -0.8499  0.3447
 4433TIP3   OH213262   4.552   4.404   5.679  0.2083 -0.5245  0.7697
 4433TIP3    H113263   4.547   4.363   5.593 -0.2843 -1.6594  1.3169
 4433TIP3    H213264   4.616   4.474   5.668  1.5779 -1.8467 -0.0537
 4434TIP3   OH213265   2.922   5.559   5.149  0.5402 -0.0415  0.5150
 4434TIP3    H113266   2.905   5.511   5.068 -0.3067  0.3991  0.4226
 4434TIP3    H213267   3.014   5.584   5.144 -0.0615  2.0543 -1.4466
 4435TIP3   OH213268   5.673   3.164   2.133 -0.1843  0.4464 -0.2581
 4435TIP3    H113269   5.609   3.181   2.063 -1.0067  0.5382  0.5016
 4435TIP3    H213270   5.620   3.140   2.209  0.6826  0.6252  0.4202
 4436TIP3   OH213271   0.807   6.775   1.523  0.2865 -0.1026  0.1406
 4436TIP3    H113272   0.888   6.809   1.486  0.2730  0.2751  0.4440
 4436TIP3    H213273   0.821   6.779   1.618 -0.4279  0.8560  0.2310
 4437TIP3   OH213274   3.567   2.396   4.079 -0.0246  0.0573 -0.2575
 4437TIP3    H113275   3.527   2.480   4.100  1.0809  0.3124  0.9716
 4437TIP3    H213276   3.626   2.378   4.152  1.9866 -0.3834 -1.8848
 4438TIP3   OH213277   1.664   0.685   1.693  0.1784 -0.6177  0.1728
 4438TIP3    H113278   1.708   0.767   1.674  0.9692 -0.8399  0.9385
 4438TIP3    H213279   1.716   0.646   1.763 -0.6080 -1.4246  0.3310
 4439TIP3   OH213280   2.208   0.290   3.886 -0.0361 -0.3025 -0.1599
 4439TIP3    H113281   2.273   0.220   3.892  1.4575  1.0977  0.8688
 4439TIP3    H213282   2.239   0.357   3.948 -2.9405  0.0594  1.0398
 4440TIP3   OH213283   0.850   0.795   3.790  0.2125 -0.5199 -0.2203
 4440TIP3    H113284   0.794   0.835   3.724  0.6856 -0.5875 -0.6710
 4440TIP3    H213285   0.802   0.806   3.873 -1.6565 -2.7749 -0.9064
 4441TIP3   OH213286   1.517   5.585   1.052 -0.1730 -0.4459  0.4607
 4441TIP3    H113287   1.495   5.645   0.982  3.6502 -0.4385 -0.9500
 4441TIP3    H213288   1.527   5.640   1.130 -0.4085  0.1690  0.0579
 4442TIP3   OH213289   2.425   0.847   1.366  0.3998 -0.4131 -0.3672
 4442TIP3    H113290   2.382   0.898   1.297 -0.0816  0.4035  0.4989
 4442TIP3    H213291   2.392   0.886   1.447  2.1624 -0.3054  0.3320
 4443TIP3   OH213292   3.150   1.532   1.364  0.1862 -0.4845  0.1335
 4443TIP3    H113293   3.104   1.601   1.412 -0.3506 -1.2498  0.7502
 4443TIP3    H213294   3.122   1.450   1.406  2.8425 -0.9612  1.2285
 4444TIP3   OH213295   3.611   5.466   0.105  0.0742 -0.5157  0.2813
 4444TIP3    H113296   3.707   5.463   0.102  0.0696 -0.3188 -0.3589
 4444TIP3    H213297   3.587   5.401   0.171  0.6039 -1.5675 -0.5199
 4445TIP3   OH213298   5.695   1.191   4.703  0.0183  0.4116 -0.4233
 4445TIP3    H113299   5.628   1.210   4.637 -1.0741  1.4011  0.9256
 4445TIP3    H213300   5.703   1.272   4.754  0.5329 -0.4561  0.9239
 4446TIP3   OH213301   3.964   2.642   2.684  0.3867  0.0865  0.5460
 4446TIP3    H113302   3.972   2.578   2.755 -1.6403  0.0318  0.7935
 4446TIP3    H213303   3.955   2.589   2.605 -2.4026 -0.0848  0.8673
 4447TIP3   OH213304  -0.003   2.500   4.457 -0.0255 -0.2139  0.4237
 4447TIP3    H113305   0.006   2.539   4.370 -3.4363 -0.8816 -0.3367
 4447TIP3    H213306   0.049   2.558   4.513 -0.4717  2.2447 -1.4892
 4448TIP3   OH213307   0.969   2.847   2.953 -0.3216  0.0322 -0.3397
 4448TIP3    H113308   0.912   2.921   2.976 -1.5537 -0.8355 -0.4727
 4448TIP3    H213309   0.947   2.829   2.861 -2.2301 -2.3334  0.4991
 4449TIP3   OH213310   4.036   6.169   1.386  0.0712 -0.0277  0.0887
 4449TIP3    H113311   3.986   6.103   1.340 -0.3917 -0.1554  0.7583
 4449TIP3    H213312   3.972   6.214   1.442  0.5430  0.3771  0.3199
 4450TIP3   OH213313   2.773   5.645   2.154 -0.1835  0.1365 -0.4296
 4450TIP3    H113314   2.790   5.579   2.086 -0.4764 -0.1865 -0.1889
 4450TIP3    H213315   2.856   5.652   2.201 -0.4969 -0.9612  0.3258
 4451TIP3   OH213316   3.105   2.833   2.287  0.1417 -0.5182 -0.1569
 4451TIP3    H113317   3.035   2.894   2.306 -0.0871 -0.5495 -0.8910
 4451TIP3    H213318   3.062   2.756   2.250  0.7015  0.2933 -2.6702
 4452TIP3   OH213319   5.075   5.007   1.063  0.3215  0.0107  0.4847
 4452TIP3    H113320   5.032   4.936   1.015  0.6294 -0.8024  1.3751
 4452TIP3    H213321   5.015   5.026   1.135 -0.3869  1.5735 -0.4740
 4453TIP3   OH213322   1.901   6.130   3.383 -0.1215 -0.0341  0.8702
 4453TIP3    H113323   1.850   6.194   3.334  0.3090  0.1162  0.6150
 4453TIP3    H213324   1.860   6.046   3.362  1.7556 -0.3936 -2.1501
 4454TIP3   OH213325   0.570   2.653   5.590 -0.7072  0.1959 -0.1084
 4454TIP3    H113326   0.525   2.725   5.547 -0.4435  0.5900  0.2686
 4454TIP3    H213327   0.570   2.676   5.683  0.1878  0.1717 -0.0889
 4455TIP3   OH213328   3.616   3.898   2.282  0.6672 -0.1955  0.1986
 4455TIP3    H113329   3.660   3.836   2.224  0.5948  0.0833 -0.1556
 4455TIP3    H213330   3.523   3.888   2.262  0.7258  0.8662 -0.7172
 4456TIP3   OH213331   2.706   4.605   2.885 -0.0530  0.3236 -0.0630
 4456TIP3    H113332   2.764   4.533   2.861 -0.9513 -0.4264 -0.0304
 4456TIP3    H213333   2.746   4.643   2.964  0.3717 -0.2082 -0.0188
 4457TIP3   OH213334   2.445   2.272   3.852 -0.1690 -0.0402  0.1243
 4457TIP3    H113335   2.365   2.286   3.903  0.5296  1.3107  0.8949
 4457TIP3    H213336   2.469   2.181   3.870 -0.9037 -0.1063  0.8086
 4458TIP3   OH213337   4.470   3.898   1.556 -0.6830 -0.0569 -0.5740
 4458TIP3    H113338   4.411   3.827   1.528  0.3196 -0.2532 -2.3683
 4458TIP3    H213339   4.501   3.872   1.642 -1.5785 -0.9995 -0.5197
 4459TIP3   OH213340   0.521   2.225   0.600 -0.5238  0.1688  0.4261
 4459TIP3    H113341   0.578   2.290   0.639 -1.2197  0.9823  0.1314
 4459TIP3    H213342   0.452   2.211   0.665  0.2556 -1.2086  1.0137
 4460TIP3   OH213343   1.920   0.624   0.238  0.2018  0.5077  0.0544
 4460TIP3    H113344   1.852   0.557   0.231  0.6270  0.1475 -0.6868
 4460TIP3    H213345   1.886   0.697   0.185  0.6229  0.1254 -0.7571
 4461TIP3   OH213346   3.324   5.867   3.028 -0.5530  0.6507 -0.2591
 4461TIP3    H113347   3.415   5.895   3.024 -0.2949  0.1821  1.4740
 4461TIP3    H213348   3.273   5.946   3.009  0.1753  0.6660 -2.3855
 4462TIP3   OH213349   6.005   3.133   0.342  0.3693  0.0001 -0.4164
 4462TIP3    H113350   5.931   3.073   0.330  1.0896 -0.5920 -2.0461
 4462TIP3    H213351   5.970   3.219   0.317  0.1299 -0.2183 -0.8453
 4463TIP3   OH213352   5.427   3.707   5.221 -0.5188  0.5516 -0.0626
 4463TIP3    H113353   5.409   3.726   5.313  0.2910 -1.3607  0.5251
 4463TIP3    H213354   5.520   3.728   5.211 -0.2933 -0.4527 -0.1054
 4464TIP3   OH213355   1.361   5.524   2.112  0.0739 -0.1015 -0.1584
 4464TIP3    H113356   1.388   5.436   2.136 -2.2530 -0.6286  0.8328
 4464TIP3    H213357   1.424   5.582   2.156  0.6415 -1.2483  0.5688
 4465TIP3   OH213358   4.798   4.505   5.330  0.1627  0.5352  0.1293
 4465TIP3    H113359   4.807   4.585   5.382 -0.4317 -0.2384  1.4564
 4465TIP3    H213360   4.719   4.463   5.363  0.5890 -0.7333 -0.3931
 4466TIP3   OH213361   3.316   2.522   4.406 -0.6447  0.1855  0.3363
 4466TIP3    H113362   3.349   2.433   4.413 -0.8027  0.2223  2.0203
 4466TIP3    H213363   3.227   2.513   4.373 -0.5159 -0.2417  0.1010
 4467TIP3   OH213364   1.428   2.262   3.711  0.0542  0.0592 -0.1718
 4467TIP3    H113365   1.430   2.337   3.770  0.0425  1.2575 -1.6507
 4467TIP3    H213366   1.382   2.194   3.760 -0.6911  1.2886  0.8822
 4468TIP3   OH213367   2.333   6.221   4.079 -0.2146  0.4082 -0.1629
 4468TIP3    H113368   2.417   6.176   4.072 -1.5329 -2.0736 -1.0767
 4468TIP3    H213369   2.343   6.300   4.027  1.7267  0.4950  0.2750
 4469TIP3   OH213370   3.765   5.731   1.726  0.2347 -0.1028 -0.0576
 4469TIP3    H113371   3.789   5.796   1.661  0.8691  0.2762  0.5359
 4469TIP3    H213372   3.770   5.647   1.680  0.7443  0.1520 -0.4706
 4470TIP3   OH213373   1.779   4.247   0.362 -0.3273  0.1389 -0.0347
 4470TIP3    H113374   1.703   4.271   0.415 -1.7126 -0.3797 -1.6814
 4470TIP3    H213375   1.746   4.246   0.272  2.3308  2.7417 -1.1968
 4471TIP3   OH213376   2.060   3.744   3.437  0.2879 -0.0812 -0.1867
 4471TIP3    H113377   2.000   3.816   3.422 -1.0510 -0.9941  0.5762
 4471TIP3    H213378   2.127   3.780   3.496 -0.2185  0.6037 -0.0233
 4472TIP3   OH213379   6.716   2.048   1.278 -0.0409  0.2712  0.1956
 4472TIP3    H113380   6.723   2.055   1.183 -1.0187  0.5797  0.1344
 4472TIP3    H213381   6.783   1.985   1.303  0.4623  0.4591 -0.6595
 4473TIP3   OH213382   0.915   2.697   2.286 -0.6595  0.0791 -0.5622
 4473TIP3    H113383   0.908   2.760   2.214  0.7894 -0.7667 -1.5019
 4473TIP3    H213384   0.998   2.653   2.271 -0.6148 -0.5648  1.3058
 4474TIP3   OH213385   1.394   2.823   1.936 -0.0998  0.7069 -0.1330
 4474TIP3    H113386   1.427   2.738   1.909  1.1375  1.5463 -1.4059
 4474TIP3    H213387   1.415   2.882   1.864 -1.3456  2.0165  0.5010
 4475TIP3   OH213388   0.571   6.436   2.710  0.3082 -0.2580  0.0240
 4475TIP3    H113389   0.507   6.439   2.638  1.7741 -0.5689 -1.3502
 4475TIP3    H213390   0.607   6.525   2.713  1.2799 -0.6138 -0.6304
 4476TIP3   OH213391   5.701   6.705   1.290  0.1613  0.1540 -0.4797
 4476TIP3    H113392   5.677   6.720   1.199 -2.1619  0.9494  0.2118
 4476TIP3    H213393   5.720   6.792   1.325 -0.0919 -0.0165  0.0934
 4477TIP3   OH213394   2.991   0.660   3.377 -0.4086 -0.1706  0.9353
 4477TIP3    H113395   2.911   0.610   3.392 -0.2665 -0.8474 -0.4138
 4477TIP3    H213396   3.015   0.693   3.463 -0.9917 -1.6993  1.7297
 4478TIP3   OH213397   0.095   3.346   1.541  0.2831  0.0381  0.7802
 4478TIP3    H113398   0.029   3.279   1.561 -1.4655  1.6606  0.7575
 4478TIP3    H213399   0.097   3.400   1.620 -0.9665  1.9783 -0.4452
 4479TIP3   OH213400   0.231   2.302   1.960 -0.0249 -0.3413 -0.1413
 4479TIP3    H113401   0.222   2.231   2.025  1.5419  0.8496  1.4504
 4479TIP3    H213402   0.150   2.296   1.908 -0.2243 -2.8873  0.3199
 4480TIP3   OH213403   4.225   2.010   2.589  0.2576  0.0501 -0.6399
 4480TIP3    H113404   4.172   1.936   2.619  1.7139 -0.4644  0.8404
 4480TIP3    H213405   4.315   1.985   2.612  0.7928  2.2706 -0.1228
 4481TIP3   OH213406   3.051   0.120   4.626  0.4896  0.1281 -0.6932
 4481TIP3    H113407   3.041   0.052   4.692  1.2243 -1.1468 -1.8258
 4481TIP3    H213408   3.074   0.199   4.675  0.3184 -0.6096  0.6066
 4482TIP3   OH213409   3.838   2.788   1.027 -0.1519  0.2856  0.2611
 4482TIP3    H113410   3.784   2.710   1.016 -0.3866  0.4363  0.3416
 4482TIP3    H213411   3.778   2.855   1.057  0.2917  0.1325  1.5659
 4483TIP3   OH213412   3.967   3.772   4.006  0.0616  0.5462 -0.3694
 4483TIP3    H113413   3.971   3.751   3.912  0.6713 -2.4124  0.2167
 4483TIP3    H213414   3.876   3.757   4.030 -0.9545  4.5295 -0.9922
 4484TIP3   OH213415   2.003   5.933   4.362  0.1895 -0.6984 -0.1965
 4484TIP3    H113416   1.937   5.917   4.295  0.6029 -0.8695 -0.5620
 4484TIP3    H213417   2.065   5.993   4.321  0.7756 -1.2851 -0.1817
 4485TIP3   OH213418   3.084   5.248   0.798  0.0762  0.9026  0.6318
 4485TIP3    H113419   3.085   5.216   0.888 -0.3159  0.6204  0.5354
 4485TIP3    H213420   3.098   5.342   0.806  0.0710  0.8754  0.9844
 4486TIP3   OH213421   5.084   5.584   3.441  0.2840  0.4662  0.1321
 4486TIP3    H113422   5.081   5.502   3.392 -2.5370  1.7012 -2.0912
 4486TIP3    H213423   5.173   5.617   3.426  0.5297 -0.7632 -1.4983
 4487TIP3   OH213424   0.617   5.515   2.077 -0.8048  0.1808  0.2434
 4487TIP3    H113425   0.670   5.541   2.151 -0.8765  0.2971  0.2537
 4487TIP3    H213426   0.576   5.433   2.105  1.4168 -1.3574 -0.7381
 4488TIP3   OH213427   2.956   3.429   2.061 -0.1786 -0.1904 -0.4494
 4488TIP3    H113428   2.968   3.405   2.153 -0.3563  1.4063  0.0275
 4488TIP3    H213429   2.863   3.449   2.054 -0.0750  0.1658 -0.8529
 4489TIP3   OH213430   2.853   3.171   3.199 -0.0145 -0.8058 -0.1317
 4489TIP3    H113431   2.800   3.211   3.131 -1.1999 -1.9682  0.0632
 4489TIP3    H213432   2.915   3.115   3.152 -0.4249 -1.1353 -0.2797
 4490TIP3   OH213433   1.656   0.971   3.205  0.0353  0.4889  0.2132
 4490TIP3    H113434   1.717   0.898   3.207 -1.8391 -1.1440  1.5795
 4490TIP3    H213435   1.575   0.934   3.169 -1.2442  1.5969  1.7932
 4491TIP3   OH213436   3.463   0.693   3.311 -0.2222 -0.2327  0.2563
 4491TIP3    H113437   3.443   0.776   3.266  0.5472 -0.0648  0.2150
 4491TIP3    H213438   3.397   0.632   3.278  0.8261 -0.3521 -1.7679
 4492TIP3   OH213439   5.987   2.461   5.285  0.1512 -0.4019  0.9299
 4492TIP3    H113440   5.936   2.425   5.358  0.7679 -3.6662 -0.0797
 4492TIP3    H213441   6.076   2.428   5.299  0.7818  0.7547 -0.1338
 4493TIP3   OH213442   2.070   3.775   4.863 -0.1955  0.4029 -0.1883
 4493TIP3    H113443   2.077   3.854   4.810 -0.7962  1.1411  0.7863
 4493TIP3    H213444   2.083   3.703   4.801  2.6418  1.2600 -0.7411
 4494TIP3   OH213445   6.295   5.648   1.266 -0.0642  0.5685  0.2706
 4494TIP3    H113446   6.367   5.624   1.208 -0.4765  1.6998 -0.7619
 4494TIP3    H213447   6.221   5.664   1.206 -0.6610  1.1953  1.1572
 4495TIP3   OH213448   0.069   5.303   3.528  0.1770  0.3288  0.2138
 4495TIP3    H113449   0.102   5.265   3.447  0.5883  0.4115  0.3392
 4495TIP3    H213450   0.043   5.392   3.504 -1.0197 -0.1053 -0.1349
 4496TIP3   OH213451   2.161   4.050   4.166  0.4274  0.3337  0.3787
 4496TIP3    H113452   2.232   4.074   4.105  0.1610  1.5255  0.5105
 4496TIP3    H213453   2.177   3.958   4.186  3.0211  0.9825  1.7916
 4497TIP3   OH213454   6.284   0.774   3.313  0.1743 -0.3800 -0.0507
 4497TIP3    H113455   6.372   0.740   3.329  0.6433  0.8669  0.1479
 4497TIP3    H213456   6.260   0.740   3.227  0.8041 -0.8199 -0.0557
 4498TIP3   OH213457   3.784   3.428   5.016  0.4478 -0.2166 -0.0143
 4498TIP3    H113458   3.873   3.399   4.993 -0.0882 -1.1364 -1.0299
 4498TIP3    H213459   3.797   3.497   5.082  1.9576  0.3768 -0.8792
 4499TIP3   OH213460   0.317   1.989   4.010 -0.2706 -0.2002 -0.7094
 4499TIP3    H113461   0.240   1.975   3.955 -0.1838 -1.8013 -0.4589
 4499TIP3    H213462   0.372   1.912   3.996  0.4369  0.0464  0.5068
 4500TIP3   OH213463   7.015   5.089   1.285 -0.3502 -0.1851  0.1101
 4500TIP3    H113464   6.923   5.093   1.259 -0.3066 -1.2603 -0.2524
 4500TIP3    H213465   7.055   5.028   1.222  0.9740  1.5338 -0.7903
 4501TIP3   OH213466   2.733   4.033   0.804 -0.3717  0.0110  0.2505
 4501TIP3    H113467   2.641   4.051   0.783 -0.2710  0.6274  0.3309
 4501TIP3    H213468   2.735   3.938   0.819 -1.0216  0.0097  0.3875
 4502TIP3   OH213469   3.698   3.885   3.107 -0.2600  0.5344 -0.2401
 4502TIP3    H113470   3.624   3.945   3.100 -2.8912 -2.5653 -2.4522
 4502TIP3    H213471   3.741   3.888   3.022  0.0525 -0.1071 -0.1160
 4503TIP3   OH213472   7.117   5.474   0.446  0.1965 -0.0037 -0.2702
 4503TIP3    H113473   7.116   5.408   0.377  1.9527 -0.4648  0.0829
 4503TIP3    H213474   7.135   5.425   0.526  1.3462  0.8374  0.0180
 4504TIP3   OH213475   6.757   6.630   2.935  0.3496  0.0814  0.0430
 4504TIP3    H113476   6.728   6.626   2.843  0.7021 -2.1765 -0.0361
 4504TIP3    H213477   6.805   6.712   2.941 -1.5343  1.3624 -1.1969
 4505TIP3   OH213478   6.067   0.185   3.276  0.1331  0.2684  0.0940
 4505TIP3    H113479   6.018   0.122   3.329  2.9033 -0.2613  2.2604
 4505TIP3    H213480   6.043   0.270   3.312 -0.1707  0.1105  0.2673
 4506TIP3   OH213481   0.732   4.588   0.311 -0.0763  0.5217 -0.1271
 4506TIP3    H113482   0.651   4.637   0.298  0.1724  1.0330  0.2564
 4506TIP3    H213483   0.764   4.570   0.223 -1.8736 -1.8395 -0.4120
 4507TIP3   OH213484   1.650   5.149   2.406 -0.1687  0.0052  0.0794
 4507TIP3    H113485   1.657   5.145   2.311 -0.6791  1.4214 -0.0385
 4507TIP3    H213486   1.730   5.193   2.434 -0.5809  0.6997  0.1889
 4508TIP3   OH213487   1.088   2.042   2.646 -0.4409  0.0988  0.2362
 4508TIP3    H113488   1.028   2.018   2.576  1.1905 -2.7659 -0.3150
 4508TIP3    H213489   1.047   2.008   2.726  0.2242 -1.5087 -0.0865
 4509TIP3   OH213490   0.012   5.000   2.856  0.4108  0.1910  0.0935
 4509TIP3    H113491  -0.048   4.977   2.786 -1.1240 -0.9549  1.6898
 4509TIP3    H213492   0.057   4.917   2.876  0.5742  0.4172  0.6767
 4510TIP3   OH213493   4.213   3.359   3.242  0.1665 -0.1607  0.4598
 4510TIP3    H113494   4.304   3.380   3.259  0.6670 -2.8289  1.5941
 4510TIP3    H213495   4.177   3.438   3.202  3.5379  0.2191 -2.2847
 4511TIP3   OH213496   6.979   3.318   0.195 -0.4529  0.0119 -0.5190
 4511TIP3    H113497   6.977   3.272   0.111 -0.1354 -0.8493 -0.0614
 4511TIP3    H213498   7.042   3.390   0.180 -0.6534  0.0731 -1.1121
 4512TIP3   OH213499   3.426   3.628   2.378  0.8046  0.0698 -0.6036
 4512TIP3    H113500   3.379   3.636   2.295  0.9352  1.5533 -0.5638
 4512TIP3    H213501   3.477   3.548   2.370 -0.4514 -0.6827 -1.2971
 4513TIP3   OH213502   4.834   2.413   3.183 -0.3896  0.2829 -0.3191
 4513TIP3    H113503   4.853   2.326   3.215 -1.3398  0.1038 -0.2166
 4513TIP3    H213504   4.862   2.472   3.253  0.1275  0.0598 -0.3355
 4514TIP3   OH213505   3.098   1.633   1.634 -0.3220  0.1105 -0.2529
 4514TIP3    H113506   3.144   1.702   1.683 -0.1782  0.0339 -0.2793
 4514TIP3    H213507   3.151   1.554   1.648 -0.0558  0.1750 -0.8637
 4515TIP3   OH213508   6.106   5.469   4.606 -0.0218 -0.2158 -0.7042
 4515TIP3    H113509   6.170   5.441   4.671  0.4752 -1.4337 -1.6873
 4515TIP3    H213510   6.155   5.472   4.524 -0.8720  0.3101 -1.2068
 4516TIP3   OH213511   0.793   0.096   4.605 -0.2437  0.2909  0.3252
 4516TIP3    H113512   0.800   0.168   4.542  1.8860  1.1887  1.4898
 4516TIP3    H213513   0.795   0.017   4.551  2.4539  1.0053 -0.7775
 4517TIP3   OH213514   4.109   2.896   4.772  0.3462  0.1088 -0.1341
 4517TIP3    H113515   4.126   2.988   4.794  0.0695  0.1609 -0.1303
 4517TIP3    H213516   4.142   2.847   4.847  0.6268  0.1948 -0.1982
 4518TIP3   OH213517   2.672   1.654   0.375 -0.0802 -0.3050 -0.0968
 4518TIP3    H113518   2.665   1.728   0.434  0.0704 -0.2249 -0.1800
 4518TIP3    H213519   2.661   1.691   0.288  2.7948  0.0836 -0.3895
 4519TIP3   OH213520   1.412   2.552   5.175  0.1428 -0.5116  0.0107
 4519TIP3    H113521   1.453   2.589   5.253  0.3198 -0.4474 -0.1106
 4519TIP3    H213522   1.415   2.623   5.111  0.3955 -0.7047 -0.1924
 4520TIP3   OH213523   0.131   1.958   1.626  0.3015  0.1549  0.0249
 4520TIP3    H113524   0.223   1.951   1.600  0.0382 -2.6168 -0.4465
 4520TIP3    H213525   0.101   2.040   1.586  2.2852  0.5602 -0.7321
 4521TIP3   OH213526   5.162   1.351   4.426 -0.4056  0.3176 -0.0214
 4521TIP3    H113527   5.121   1.265   4.436 -1.4664  0.7213 -0.6438
 4521TIP3    H213528   5.229   1.338   4.359  0.0244 -0.2122  0.5083
 4522TIP3   OH213529   0.104   2.481   0.010  0.1522  0.1810  0.2012
 4522TIP3    H113530   0.020   2.443   0.035 -0.9139  2.5661  0.6108
 4522TIP3    H213531   0.086   2.575   0.004  2.4910  0.6171 -1.0441
 4523TIP3   OH213532   6.236   4.031   1.197 -0.2750  0.2847  0.1164
 4523TIP3    H113533   6.257   4.121   1.224  0.8243  0.3898 -1.0033
 4523TIP3    H213534   6.181   4.042   1.120  0.2924  0.0040 -0.3316
 4524TIP3   OH213535   5.706   6.051   3.535 -0.5384 -0.3976  0.2780
 4524TIP3    H113536   5.723   5.962   3.567 -0.6657 -0.9989 -1.2415
 4524TIP3    H213537   5.689   6.040   3.442 -0.1115  1.2913 -0.0314
 4525TIP3   OH213538   1.203   1.151   2.193  0.3718  0.5044 -0.4708
 4525TIP3    H113539   1.155   1.115   2.268  0.2245  1.8527  0.1058
 4525TIP3    H213540   1.149   1.127   2.117  0.8069 -1.3553 -0.2433
 4526TIP3   OH213541   3.398   3.111   0.965 -0.4253 -0.6067 -0.0696
 4526TIP3    H113542   3.456   3.082   0.895  1.0954 -0.7190  1.2065
 4526TIP3    H213543   3.371   3.031   1.009  0.6741 -0.4014  1.0342
 4527TIP3   OH213544   4.162   5.311   0.031  0.2499 -0.0418  0.8524
 4527TIP3    H113545   4.100   5.265   0.087  1.1534 -1.5071  0.6881
 4527TIP3    H213546   4.244   5.263   0.041  0.6658  0.2089 -1.0227
 4528TIP3   OH213547   0.107   0.668   5.486  0.2493 -0.4669 -0.1175
 4528TIP3    H113548   0.148   0.652   5.401  0.1881  2.7697 -0.8855
 4528TIP3    H213549   0.163   0.621   5.549 -0.3891 -3.9681 -1.8861
 4529TIP3   OH213550   6.379   4.134   0.092 -0.3106 -0.8186  0.0642
 4529TIP3    H113551   6.400   4.126   0.185 -1.3669 -0.6051  0.3444
 4529TIP3    H213552   6.404   4.223   0.068 -0.8032 -0.5903  0.3736
 4530TIP3   OH213553   2.943   2.099   0.967 -0.1789  0.0950 -0.3962
 4530TIP3    H113554   2.966   2.084   0.876  1.3947  0.6843 -0.1298
 4530TIP3    H213555   2.924   2.012   1.002  3.2633 -0.7558 -0.2979
 4531TIP3   OH213556   0.855   0.724   3.371 -0.1766 -0.3469  0.1884
 4531TIP3    H113557   0.777   0.680   3.338 -0.4791  1.3081 -1.4950
 4531TIP3    H213558   0.925   0.659   3.363 -0.8049 -0.8762 -1.2414
 4532TIP3   OH213559   1.723   6.170   5.772 -0.1040 -0.4631 -0.3216
 4532TIP3    H113560   1.801   6.199   5.820 -0.7366 -1.1709  1.2005
 4532TIP3    H213561   1.713   6.234   5.702  2.6286 -1.1134 -1.4534
 4533TIP3   OH213562   6.438   6.826   0.865  0.0778  0.1003 -0.2092
 4533TIP3    H113563   6.451   6.746   0.814 -0.1591 -1.0174  1.3754
 4533TIP3    H213564   6.355   6.862   0.834 -0.1482 -0.6555 -0.5051
 4534TIP3   OH213565   6.868   1.534   0.315  0.3462 -0.3970  0.3807
 4534TIP3    H113566   6.907   1.536   0.402  0.7483 -0.8299  0.2161
 4534TIP3    H213567   6.784   1.579   0.325  0.0058 -1.1765  1.1760
 4535TIP3   OH213568   2.755   6.089   4.574 -0.3524  0.2486  0.2874
 4535TIP3    H113569   2.834   6.041   4.549 -2.6110 -3.1615 -0.9768
 4535TIP3    H213570   2.707   6.100   4.493 -1.7249  1.2171  1.1919
 4536TIP3   OH213571   1.072   3.626   2.322  0.3040  0.3355 -0.2034
 4536TIP3    H113572   1.095   3.556   2.383  1.0213  1.0960  0.4234
 4536TIP3    H213573   1.101   3.594   2.237  2.1558  0.5326  0.3084
 4537TIP3   OH213574   2.132   1.561   0.262 -0.0912 -1.1606 -0.2157
 4537TIP3    H113575   2.120   1.648   0.299  0.8323 -0.9020 -0.5072
 4537TIP3    H213576   2.226   1.546   0.265 -0.1478 -1.7622 -1.0251
 4538TIP3   OH213577   0.401   4.028   3.648 -0.0748  0.1538 -0.5908
 4538TIP3    H113578   0.306   4.023   3.636 -0.1546  2.6705 -1.7254
 4538TIP3    H213579   0.436   4.041   3.560  1.4589 -1.6288 -0.3047
 4539TIP3   OH213580   4.743   1.335   4.363  0.3605  0.0748  0.0618
 4539TIP3    H113581   4.815   1.339   4.427  0.9458 -3.1246 -0.1837
 4539TIP3    H213582   4.787   1.345   4.278  0.2458  0.0511  0.0005
 4540TIP3   OH213583   4.231   1.948   5.394  0.1165 -0.3722  0.0137
 4540TIP3    H113584   4.326   1.944   5.404 -0.0208 -2.6440  0.8902
 4540TIP3    H213585   4.200   1.988   5.476  0.2341 -0.6996  0.2165
 4541TIP3   OH213586   5.014   4.819   5.161 -0.6363  0.5781 -1.1807
 4541TIP3    H113587   5.041   4.728   5.171  2.1092  1.1911 -2.0787
 4541TIP3    H213588   5.086   4.869   5.200 -2.4164  2.4040 -0.0113
 4542TIP3   OH213589   6.282   4.373   5.381  0.7464 -0.2455  0.4879
 4542TIP3    H113590   6.332   4.292   5.388  0.0560 -0.7643 -0.3610
 4542TIP3    H213591   6.349   4.441   5.370  1.2919 -1.0802 -2.0310
 4543TIP3   OH213592   4.838   6.804   0.021 -0.3513 -0.1789 -0.4114
 4543TIP3    H113593   4.787   6.726   0.045  0.3697 -0.7895 -0.8109
 4543TIP3    H213594   4.849   6.852   0.103 -2.3279  0.4382 -0.4624
 4544TIP3   OH213595   6.374   5.849   2.318 -0.3739 -0.4485  0.0972
 4544TIP3    H113596   6.375   5.852   2.222 -0.4944  0.9784  0.1288
 4544TIP3    H213597   6.308   5.914   2.343  1.5086  1.1208  1.2075
 4545TIP3   OH213598   4.612   0.465   4.722 -0.0730  0.0090  0.7434
 4545TIP3    H113599   4.625   0.560   4.721  0.7110 -0.0966  0.4165
 4545TIP3    H213600   4.532   0.452   4.773 -0.1774  0.8453  0.7984
 4546TIP3   OH213601   2.553   1.874   1.063  0.6778  0.1274  0.7185
 4546TIP3    H113602   2.646   1.861   1.049  0.3506 -0.0384 -1.9922
 4546TIP3    H213603   2.515   1.786   1.056  0.0709  0.4934 -1.4348
 4547TIP3   OH213604   2.575   0.310   4.724  0.6094 -0.2151  0.1649
 4547TIP3    H113605   2.508   0.257   4.681 -0.3206  2.2614 -1.7333
 4547TIP3    H213606   2.607   0.368   4.655  3.7384 -0.2913  1.3699
 4548TIP3   OH213607   4.420   2.873   3.914 -0.4885  0.3354 -0.2067
 4548TIP3    H113608   4.459   2.879   4.001  1.8554 -0.2215 -1.1480
 4548TIP3    H213609   4.410   2.963   3.886  1.2290  0.5185 -0.3490
 4549TIP3   OH213610   0.134   4.277   2.839  0.2049 -0.0002 -0.0621
 4549TIP3    H113611   0.223   4.310   2.842  0.1206  0.2176  0.0565
 4549TIP3    H213612   0.090   4.319   2.913  0.5554 -1.7097  1.1847
 4550TIP3   OH213613   3.150   1.709   3.670 -0.3854 -0.1485 -0.1821
 4550TIP3    H113614   3.179   1.707   3.761 -1.3216 -0.7599  0.1112
 4550TIP3    H213615   3.175   1.624   3.635 -1.2456 -0.4402 -0.1042
 4551TIP3   OH213616   3.793   6.628   4.367  0.1526  0.5732  0.4159
 4551TIP3    H113617   3.880   6.617   4.329 -0.3322  0.5071 -0.7280
 4551TIP3    H213618   3.751   6.543   4.355 -0.3096  0.8122  0.2966
 4552TIP3   OH213619   6.164   4.694   0.207  0.2044  0.3544 -0.0708
 4552TIP3    H113620   6.243   4.748   0.201  1.5251 -1.3832  0.9106
 4552TIP3    H213621   6.113   4.718   0.129  2.6064  0.1373 -1.8207
 4553TIP3   OH213622   5.979   4.487   1.468  0.7158 -0.0762 -0.2966
 4553TIP3    H113623   5.973   4.538   1.549 -1.3301 -1.4180  0.4850
 4553TIP3    H213624   5.898   4.506   1.422 -0.3600 -2.9001  0.2656
 4554TIP3   OH213625   1.993   4.969   1.030  0.0836  0.3925  0.4099
 4554TIP3    H113626   2.036   4.889   1.060  0.8532  1.2266  1.6205
 4554TIP3    H213627   1.914   4.976   1.084 -1.8354 -1.2498 -1.9517
 4555TIP3   OH213628   0.946   2.167   5.481  0.0322 -0.0903  0.2582
 4555TIP3    H113629   0.910   2.241   5.433 -1.1937 -1.3277 -0.8257
 4555TIP3    H213630   0.984   2.205   5.559  1.1514  1.8894 -1.1622
 4556TIP3   OH213631   3.634   1.496   3.765 -0.2558 -0.1881  0.1806
 4556TIP3    H113632   3.681   1.577   3.745  1.0695 -0.7509  0.9348
 4556TIP3    H213633   3.578   1.519   3.839 -0.0517  0.0943  0.2489
 4557TIP3   OH213634   1.245   3.828   4.302  0.2497 -0.1152 -0.9035
 4557TIP3    H113635   1.215   3.756   4.358 -0.1505 -0.6842 -1.8347
 4557TIP3    H213636   1.340   3.829   4.315  0.1435 -0.0698 -0.0238
 4558TIP3   OH213637   6.740   1.006   2.111 -0.2553 -0.0148  0.0303
 4558TIP3    H113638   6.676   1.075   2.097  0.2074  0.2531 -0.8436
 4558TIP3    H213639   6.717   0.968   2.196 -3.1163 -1.6050 -1.3090
 4559TIP3   OH213640   1.387   4.054   2.938 -0.4727 -0.0218 -0.5790
 4559TIP3    H113641   1.337   4.064   3.019 -0.8135 -2.5461 -0.3984
 4559TIP3    H213642   1.456   3.992   2.960 -0.0628 -0.1125 -2.0231
 4560TIP3   OH213643   4.174   3.527   2.415 -0.1215  0.3438 -0.3823
 4560TIP3    H113644   4.191   3.558   2.326 -1.7992  0.1087 -0.8243
 4560TIP3    H213645   4.131   3.601   2.458  1.8820  0.9426  0.7063
 4561TIP3   OH213646   5.962   1.896   5.013 -0.7108 -0.2666  0.0384
 4561TIP3    H113647   5.877   1.853   5.011 -1.0977  0.4742  0.3998
 4561TIP3    H213648   5.955   1.962   5.081  0.7203 -1.3399  1.3071
 4562TIP3   OH213649   1.138   6.390   0.751  0.5539  0.8369 -0.3436
 4562TIP3    H113650   1.115   6.411   0.660 -0.7217 -0.4542 -0.3586
 4562TIP3    H213651   1.075   6.441   0.803  0.1468  0.2435 -0.2508
 4563TIP3   OH213652   3.809   0.207   1.555  0.0493  0.3122 -0.2675
 4563TIP3    H113653   3.792   0.126   1.506 -1.4588 -0.1339  0.9141
 4563TIP3    H213654   3.743   0.208   1.624  1.6500  1.2599  1.3584
 4564TIP3   OH213655   6.186   6.574   2.383  0.4436  0.0431 -0.7366
 4564TIP3    H113656   6.161   6.531   2.301 -0.3841  1.1669 -1.1068
 4564TIP3    H213657   6.184   6.667   2.362  0.5159  0.3299  0.4851
 4565TIP3   OH213658   6.808   3.008   5.534  0.2397  0.8575  0.4196
 4565TIP3    H113659   6.770   3.058   5.462  0.3552  1.8730  1.0408
 4565TIP3    H213660   6.766   3.042   5.613 -0.7372 -1.0450  0.7672
 4566TIP3   OH213661   2.855   3.690   2.008 -0.9390 -0.6345 -0.0696
 4566TIP3    H113662   2.804   3.701   1.927  0.4714  2.3138 -0.6985
 4566TIP3    H213663   2.834   3.767   2.060 -0.3193 -1.5176  1.5348
 4567TIP3   OH213664   7.004  -0.013   5.197  0.0099 -0.0323 -0.1575
 4567TIP3    H113665   6.982   0.066   5.246  1.3398 -0.4610  1.1855
 4567TIP3    H213666   7.092   0.002   5.163  1.3393 -1.8136  2.1881
 4568TIP3   OH213667   1.596   0.408   2.445 -0.3713 -0.7240  0.1044
 4568TIP3    H113668   1.501   0.418   2.438 -0.5242 -0.7288  1.7135
 4568TIP3    H213669   1.626   0.491   2.482  0.2083 -0.8749 -0.0140
 4569TIP3   OH213670   0.573   2.512   3.619  0.6307 -0.2761 -0.0024
 4569TIP3    H113671   0.641   2.467   3.570  0.3809 -0.8202  0.1333
 4569TIP3    H213672   0.497   2.453   3.613 -0.2159  0.8699 -1.1825
 4570TIP3   OH213673   4.555   2.476   1.197 -0.0522  0.5081 -0.0003
 4570TIP3    H113674   4.642   2.462   1.160 -0.1016 -0.0173  0.0601
 4570TIP3    H213675   4.568   2.541   1.266  0.3631  0.1896  0.2331
 4571TIP3   OH213676   6.537   6.104   3.214  0.5236 -0.3194 -0.1413
 4571TIP3    H113677   6.619   6.056   3.226  2.2688  1.9707 -1.9875
 4571TIP3    H213678   6.513   6.087   3.123 -0.4257 -0.0324  0.0467
 4572TIP3   OH213679   2.500   2.545   5.246  0.3915 -0.3737 -0.0188
 4572TIP3    H113680   2.555   2.498   5.183 -0.2623 -2.0074  0.5825
 4572TIP3    H213681   2.442   2.478   5.282 -0.3633  0.8490  1.1246
 4573TIP3   OH213682   0.538   2.616   0.794  0.3065  0.0848  0.2546
 4573TIP3    H113683   0.576   2.534   0.765 -0.0668  0.1631 -0.4827
 4573TIP3    H213684   0.448   2.615   0.760 -0.1601  0.1811  1.4133
 4574TIP3   OH213685   4.916   2.801   3.983 -0.1692  0.5733  0.0219
 4574TIP3    H113686   4.932   2.888   3.947  2.0444  0.5502  0.7858
 4574TIP3    H213687   4.914   2.815   4.078  1.3629 -0.3195  0.2166
 4575TIP3   OH213688   2.774   0.192   5.853  0.1698  0.0775  0.1928
 4575TIP3    H113689   2.848   0.214   5.796 -1.0569 -2.1336 -2.4380
 4575TIP3    H213690   2.714   0.267   5.845 -1.3712 -1.3567 -4.0641
 4576TIP3   OH213691   7.053   4.642   3.831 -0.0204 -0.5496 -0.4394
 4576TIP3    H113692   7.121   4.581   3.801  2.2175  1.3447  0.3927
 4576TIP3    H213693   6.976   4.587   3.845  0.0643 -2.2692 -5.0092
 4577TIP3   OH213694   3.812   0.220   1.129  0.4486  0.2719  0.0841
 4577TIP3    H113695   3.745   0.165   1.090 -0.2357 -0.1860  1.7804
 4577TIP3    H213696   3.832   0.286   1.063 -0.9294 -0.2001 -0.8415
 4578TIP3   OH213697   1.699   2.087   5.083 -0.4705  0.0744 -0.4685
 4578TIP3    H113698   1.721   1.996   5.102  0.3175  0.4678  0.6304
 4578TIP3    H213699   1.678   2.088   4.990 -0.4521 -1.2146 -0.5039
 4579TIP3   OH213700   0.277   0.442   5.332 -0.0572  0.1313 -0.5259
 4579TIP3    H113701   0.284   0.486   5.247  0.4815  0.4842 -0.2991
 4579TIP3    H213702   0.192   0.398   5.329 -0.8640  1.6382 -0.5328
 4580TIP3   OH213703   0.729   2.708   5.265  0.0462  0.4186  0.1735
 4580TIP3    H113704   0.800   2.731   5.204 -1.0016  0.9012 -0.9160
 4580TIP3    H213705   0.690   2.629   5.228 -0.2705  0.4139  0.5144
 4581TIP3   OH213706   3.041   0.590   0.796  0.5356  0.1642 -0.2299
 4581TIP3    H113707   3.117   0.639   0.764  0.5740 -0.2464 -0.7738
 4581TIP3    H213708   3.013   0.537   0.721  0.0934 -0.1549  0.1560
 4582TIP3   OH213709   5.144   2.011   3.092  0.7440 -0.3252 -0.1850
 4582TIP3    H113710   5.182   2.025   3.005  1.2312 -1.8414 -0.2315
 4582TIP3    H213711   5.085   1.937   3.081 -1.1864  1.0937  0.2190
 4583TIP3   OH213712   5.024   5.153   2.393 -0.0575 -0.4712 -0.2428
 4583TIP3    H113713   5.097   5.185   2.339  0.5894 -1.2833  0.1311
 4583TIP3    H213714   5.028   5.207   2.472 -1.6473  1.4404 -1.3699
 4584TIP3   OH213715   5.383   1.452   5.794  0.2332 -0.2291 -0.3164
 4584TIP3    H113716   5.410   1.442   5.885  0.4665  0.0404 -0.3509
 4584TIP3    H213717   5.287   1.446   5.796  0.2379 -0.2280 -0.0546
 4585TIP3   OH213718   6.800   5.594   0.936  0.1394 -0.5612  0.2955
 4585TIP3    H113719   6.831   5.685   0.929 -0.1032 -0.3876  1.2904
 4585TIP3    H213720   6.706   5.602   0.954  0.2195 -0.9844  0.9544
 4586TIP3   OH213721   4.372   2.487   1.503  0.1712  0.5771 -0.1321
 4586TIP3    H113722   4.291   2.465   1.458 -0.7463  2.5598  0.4134
 4586TIP3    H213723   4.353   2.472   1.596  1.4921 -1.8537 -0.1679
 4587TIP3   OH213724   0.051   0.216   0.435  0.0614 -0.2234  0.2392
 4587TIP3    H113725   0.134   0.183   0.402  0.2679 -1.2272  1.6819
 4587TIP3    H213726   0.073   0.299   0.477  0.2544 -0.2689  0.2288
 4588TIP3   OH213727   6.601   4.995   0.689 -0.3373 -0.4161  0.1919
 4588TIP3    H113728   6.560   4.939   0.624  0.4303 -1.7117  0.7842
 4588TIP3    H213729   6.692   5.004   0.659 -0.5422  0.8608 -0.1039
 4589TIP3   OH213730   3.552   0.670   4.066  0.4166 -0.1091  0.1346
 4589TIP3    H113731   3.562   0.646   3.973 -1.9594 -1.9902  0.2698
 4589TIP3    H213732   3.633   0.640   4.107  2.2637  2.2348 -1.4912
 4590TIP3   OH213733   0.920   3.294   2.482 -0.1087  0.0304  0.5824
 4590TIP3    H113734   0.988   3.284   2.549 -0.2348  2.3420  1.1384
 4590TIP3    H213735   0.860   3.358   2.519 -0.0291  1.6115 -1.8280
 4591TIP3   OH213736   1.728   2.098   1.743  0.3330  0.6388 -0.0379
 4591TIP3    H113737   1.690   2.126   1.660 -0.8569 -0.1838  0.2035
 4591TIP3    H213738   1.675   2.141   1.810 -0.5481 -0.9109  0.3107
 4592TIP3   OH213739   5.996   4.076   2.095 -0.6009 -0.3259 -0.9923
 4592TIP3    H113740   6.008   4.050   2.186  1.8078  2.0550 -0.5313
 4592TIP3    H213741   6.063   4.027   2.047 -0.1944  0.3020 -1.0757
 4593TIP3   OH213742   5.441   0.996   0.946 -0.6475  0.2989 -0.1840
 4593TIP3    H113743   5.355   0.959   0.966  0.1931 -0.8338  1.6146
 4593TIP3    H213744   5.494   0.921   0.919  0.8604  0.1657  2.7156
 4594TIP3   OH213745   0.947   3.275   0.381  0.6138 -0.3256 -0.6740
 4594TIP3    H113746   0.911   3.208   0.439  1.9899 -0.7688 -0.2690
 4594TIP3    H213747   0.917   3.250   0.294  1.9653 -2.1474 -0.6898
 4595TIP3   OH213748   2.586   0.507   4.545  0.0645 -0.4188  0.4826
 4595TIP3    H113749   2.612   0.578   4.487  1.7558  0.8119  2.5880
 4595TIP3    H213750   2.493   0.521   4.561  0.4032  1.4687  0.9864
 4596TIP3   OH213751   4.219   6.623   4.138  0.4869  0.1429  0.5938
 4596TIP3    H113752   4.145   6.676   4.108  0.1289  0.2623  1.6433
 4596TIP3    H213753   4.289   6.643   4.077  0.4674  2.0981  1.1457
 4597TIP3   OH213754   0.426   6.256   3.455 -0.3420 -0.1486  0.6262
 4597TIP3    H113755   0.423   6.341   3.499  2.0752  2.1394 -3.0422
 4597TIP3    H213756   0.476   6.200   3.515  2.9179  2.7657  1.0117
 4598TIP3   OH213757   1.889   6.647   5.889  0.1072 -0.0791 -0.3234
 4598TIP3    H113758   1.837   6.595   5.950  1.4290 -0.2155  0.7151
 4598TIP3    H213759   1.824   6.693   5.835 -1.0838 -0.3330  0.8625
 4599TIP3   OH213760   6.504   1.239   3.311 -0.4080  0.3078 -0.3490
 4599TIP3    H113761   6.590   1.280   3.305 -0.8391  1.0793 -1.5218
 4599TIP3    H213762   6.451   1.284   3.246 -1.4009 -0.9229 -0.4339
 4600TIP3   OH213763   1.085   4.639   3.135  0.2927  0.6116  0.6674
 4600TIP3    H113764   1.175   4.674   3.137  0.0171  1.3424  0.7842
 4600TIP3    H213765   1.062   4.641   3.042  0.7430 -0.5075  0.5244
 4601TIP3   OH213766   1.633   3.059   0.751 -0.1364 -0.4172  0.4126
 4601TIP3    H113767   1.543   3.090   0.766  0.0394 -0.4617  1.6498
 4601TIP3    H213768   1.663   3.031   0.837  0.5773 -1.7426 -0.2467
 4602TIP3   OH213769   5.610   1.112   0.617  0.0365 -0.4340  0.0057
 4602TIP3    H113770   5.541   1.134   0.679  0.9145  2.2976  0.1455
 4602TIP3    H213771   5.678   1.071   0.671 -1.0475 -2.3608  0.0009
 4603TIP3   OH213772   5.270   6.188   5.186 -0.4599  0.5684 -0.2657
 4603TIP3    H113773   5.187   6.159   5.224 -0.7937  1.5019 -0.2614
 4603TIP3    H213774   5.261   6.283   5.179  1.3527  0.9296  1.5279
 4604TIP3   OH213775   5.877   3.767   3.940  0.1122  0.5305  0.4893
 4604TIP3    H113776   5.832   3.844   3.906  0.0938 -0.2301 -1.3570
 4604TIP3    H213777   5.966   3.795   3.956  1.2107  0.1747 -3.8254
 4605TIP3   OH213778   2.733   2.502   4.768  0.7022  0.0455 -0.2970
 4605TIP3    H113779   2.724   2.508   4.863  0.8765 -0.2502 -0.2593
 4605TIP3    H213780   2.758   2.591   4.740  4.1295 -0.5682  0.3447
 4606TIP3   OH213781   3.575   4.142   3.803 -0.3510 -0.6688 -0.3021
 4606TIP3    H113782   3.583   4.235   3.824  1.4010 -0.6972 -0.7145
 4606TIP3    H213783   3.595   4.097   3.885 -1.3505 -0.7190 -0.0614
 4607TIP3   OH213784   6.221   3.633   4.944 -0.8842 -0.0643  0.1582
 4607TIP3    H113785   6.308   3.615   4.978 -0.8081  0.9676  0.5699
 4607TIP3    H213786   6.171   3.662   5.021 -1.4087 -0.0228 -0.1884
 4608TIP3   OH213787   3.682   1.739   0.026  0.3475 -0.2682 -0.1227
 4608TIP3    H113788   3.725   1.729  -0.059  0.5525 -1.4020  0.0927
 4608TIP3    H213789   3.751   1.768   0.085  0.2430  0.3538 -0.3031
 4609TIP3   OH213790   6.754   6.402   3.690  0.1186 -0.0270 -0.3383
 4609TIP3    H113791   6.792   6.386   3.777  1.1626  0.2042 -0.7255
 4609TIP3    H213792   6.686   6.336   3.680 -1.7551  1.4890  1.6586
 4610TIP3   OH213793   6.189   3.674   3.792  0.5778 -0.1357 -0.5890
 4610TIP3    H113794   6.150   3.761   3.784  0.8581 -0.0523 -1.1033
 4610TIP3    H213795   6.143   3.621   3.727 -0.3631 -0.6683  0.4732
 4611TIP3   OH213796   2.859   1.396   2.614 -0.7093  1.0931 -0.0622
 4611TIP3    H113797   2.871   1.314   2.661 -1.5250  1.0280  0.0464
 4611TIP3    H213798   2.944   1.441   2.621 -0.2569  0.2589 -0.1435
 4612TIP3   OH213799   1.900   5.223   3.339  0.2194 -0.2787 -0.2822
 4612TIP3    H113800   1.988   5.216   3.375  1.2596  1.4360 -2.2433
 4612TIP3    H213801   1.882   5.137   3.302  1.4268 -0.4274 -0.5690
 4613TIP3   OH213802   2.848   4.446   3.285 -0.0962 -0.1147 -0.1288
 4613TIP3    H113803   2.909   4.375   3.266  0.6255  0.9576 -2.0923
 4613TIP3    H213804   2.767   4.402   3.311  0.4430 -1.6535 -0.9319
 4614TIP3   OH213805   2.445   0.020   1.159  0.2401  0.0443  0.2865
 4614TIP3    H113806   2.499  -0.057   1.140 -0.4848 -0.6551  0.9902
 4614TIP3    H213807   2.478   0.088   1.100  1.8684 -0.3652  0.6980
 4615TIP3   OH213808   6.777   0.428   2.807  0.6945 -0.1008 -0.6345
 4615TIP3    H113809   6.733   0.504   2.768 -0.0407  0.5702  1.3531
 4615TIP3    H213810   6.864   0.460   2.831  0.5680 -0.0296 -0.2651
 4616TIP3   OH213811   3.563   6.307   0.540 -0.1051 -0.0515  0.3461
 4616TIP3    H113812   3.519   6.392   0.539 -1.6441 -0.8059 -0.4375
 4616TIP3    H213813   3.491   6.244   0.534  1.1099 -1.3594 -1.0340
 4617TIP3   OH213814   4.467   3.100   0.631  0.5069 -0.0724  0.0298
 4617TIP3    H113815   4.429   3.187   0.618  0.8009  0.0183 -0.2281
 4617TIP3    H213816   4.398   3.039   0.603 -0.1263  0.0427  1.2646
 4618TIP3   OH213817   0.661   3.657   1.568  0.1996  0.2371 -0.0351
 4618TIP3    H113818   0.696   3.587   1.514 -1.6841  0.2087 -1.2897
 4618TIP3    H213819   0.712   3.652   1.649  1.5180 -1.2037 -0.8993
 4619TIP3   OH213820   5.273   0.713   2.429 -0.2516 -0.2721 -0.4503
 4619TIP3    H113821   5.180   0.705   2.447 -0.2854 -0.6434 -0.7734
 4619TIP3    H213822   5.316   0.684   2.509 -0.4032 -1.2046 -0.6977
 4620TIP3   OH213823   7.065   1.739   2.714  0.9547  0.0889 -0.5431
 4620TIP3    H113824   7.069   1.798   2.639 -0.5902 -0.1322 -0.8286
 4620TIP3    H213825   7.072   1.797   2.790  1.1480  0.4616 -0.8441
 4621TIP3   OH213826   5.096   0.937   4.659  0.3245  0.3098 -0.1589
 4621TIP3    H113827   5.125   0.859   4.613 -0.6545 -0.0717 -0.1543
 4621TIP3    H213828   5.032   0.905   4.723  0.9529  0.9421  0.8234
 4622TIP3   OH213829   1.131   4.057   3.842  0.1419  0.6033 -0.0193
 4622TIP3    H113830   1.188   4.045   3.766  0.9296 -1.0580  0.7796
 4622TIP3    H213831   1.128   4.152   3.855 -0.4146  0.9706 -2.3870
 4623TIP3   OH213832   3.212   3.845   0.471  0.5326  0.5363  0.7598
 4623TIP3    H113833   3.135   3.899   0.453  0.5773  0.2077 -0.5398
 4623TIP3    H213834   3.200   3.768   0.415  2.5430  1.1927 -0.6793
 4624TIP3   OH213835   5.567   5.588   0.938  0.4205 -0.3134 -0.6431
 4624TIP3    H113836   5.557   5.682   0.949  2.6546 -0.2676  2.8630
 4624TIP3    H213837   5.647   5.578   0.887  0.1904 -0.3199 -1.0044
 4625TIP3   OH213838   1.646   5.484   3.000 -0.0649  0.7191 -0.2079
 4625TIP3    H113839   1.694   5.416   2.952 -1.4094  0.4560 -1.2311
 4625TIP3    H213840   1.710   5.518   3.062  1.0244 -0.5980 -0.5426
 4626TIP3   OH213841   5.842   1.163   4.994  0.0789  0.2696 -0.0256
 4626TIP3    H113842   5.805   1.096   4.937 -0.7203  0.1541  0.6138
 4626TIP3    H213843   5.926   1.184   4.953 -0.2726 -0.1190 -1.0004
 4627TIP3   OH213844   3.458   2.483   5.006 -0.0080 -0.2148  0.5985
 4627TIP3    H113845   3.438   2.475   4.913 -2.2956  2.0754  0.8006
 4627TIP3    H213846   3.396   2.425   5.050  0.9739 -1.1867  0.7406
 4628TIP3   OH213847   2.292   4.974   2.121  0.7615  0.7619  0.4471
 4628TIP3    H113848   2.249   5.049   2.079  2.6451  1.0772 -1.0738
 4628TIP3    H213849   2.385   4.999   2.125  1.2042 -0.8860  1.2973
 4629TIP3   OH213850   2.451   4.528   3.101  0.0327  0.7436 -1.2696
 4629TIP3    H113851   2.402   4.490   3.028 -1.4154 -1.4575  0.6978
 4629TIP3    H213852   2.440   4.623   3.090 -0.8735  0.4514 -3.3910
 4630TIP3   OH213853   5.236   2.062   0.521  0.1710  0.6644  0.5966
 4630TIP3    H113854   5.296   1.988   0.509  0.3292  0.8930 -0.0892
 4630TIP3    H213855   5.292   2.139   0.518 -0.1485  0.8810 -0.0466
 4631TIP3   OH213856   4.761   3.629   0.099  0.1545 -0.1949  0.5684
 4631TIP3    H113857   4.668   3.635   0.123  0.3372  0.4071  1.1526
 4631TIP3    H213858   4.806   3.613   0.182  0.5124 -1.3147  0.1810
 4632TIP3   OH213859   6.399   1.091   5.316  0.3046 -0.3744  0.1226
 4632TIP3    H113860   6.476   1.127   5.359 -0.0228  1.1122 -0.4891
 4632TIP3    H213861   6.421   1.092   5.222 -0.1580 -0.6922  0.0049
 4633TIP3   OH213862   1.904   1.103   4.737  0.3500 -0.3969  0.2518
 4633TIP3    H113863   1.815   1.116   4.704  1.4023 -0.0996 -2.8655
 4633TIP3    H213864   1.896   1.033   4.801 -2.3322  0.8314  1.4100
 4634TIP3   OH213865   5.564   0.170   5.356 -0.5523 -0.1290  0.3305
 4634TIP3    H113866   5.540   0.190   5.447  1.2685 -1.1531  1.0857
 4634TIP3    H213867   5.480   0.150   5.314 -1.6577  2.0844  1.2745
 4635TIP3   OH213868   1.386   4.005   0.078 -0.0312  0.4149  0.3403
 4635TIP3    H113869   1.394   4.066   0.151 -0.2241  0.6876  0.1323
 4635TIP3    H213870   1.292   4.000   0.060  0.1347  1.8721 -1.1627
 4636TIP3   OH213871   4.309   4.994   5.763 -0.1383  0.0310 -0.1272
 4636TIP3    H113872   4.326   4.915   5.815 -0.9857 -0.9152 -1.2502
 4636TIP3    H213873   4.308   5.065   5.828 -0.6351 -1.0417  1.0908
 4637TIP3   OH213874   4.628   4.964   2.181  0.5191 -0.3125  0.3707
 4637TIP3    H113875   4.621   5.053   2.216  0.7336 -0.3121  0.4181
 4637TIP3    H213876   4.708   4.929   2.221  0.8522 -0.2581 -0.2306
 4638TIP3   OH213877   3.546   1.753   3.132 -0.6053  0.5321 -0.2218
 4638TIP3    H113878   3.455   1.736   3.158  0.0598 -1.1638  1.1173
 4638TIP3    H213879   3.543   1.752   3.036 -2.0594  0.9308 -0.2138
 4639TIP3   OH213880   1.483   5.862   2.492  0.1612  0.9010 -0.2079
 4639TIP3    H113881   1.563   5.817   2.464  0.5021  1.1051  0.4233
 4639TIP3    H213882   1.497   5.954   2.470 -0.8042  0.6454 -2.1021
 4640TIP3   OH213883   5.821   2.824   5.371  0.4201 -0.1059  0.1232
 4640TIP3    H113884   5.750   2.867   5.324 -0.3654  0.3551  1.6666
 4640TIP3    H213885   5.800   2.731   5.367  0.3590 -0.0703 -0.4260
 4641TIP3   OH213886   1.935   0.436   3.136  0.0453  0.1113 -0.1806
 4641TIP3    H113887   1.915   0.430   3.229  0.4931  1.1536  0.0058
 4641TIP3    H213888   1.962   0.348   3.111  2.0227  0.2740  1.1877
 4642TIP3   OH213889   3.166   6.661   4.936  0.3175 -0.4290  0.3629
 4642TIP3    H113890   3.131   6.651   5.025  1.3746 -1.1294  0.7332
 4642TIP3    H213891   3.238   6.597   4.932  0.2372 -0.4630 -1.0303
 4643TIP3   OH213892   0.688   1.987   2.271  0.0267  0.3500 -0.2253
 4643TIP3    H113893   0.599   2.002   2.239 -0.7091 -0.5379  1.2728
 4643TIP3    H213894   0.741   1.979   2.192 -1.6447 -1.5403 -1.2375
 4644TIP3   OH213895   5.457   3.274   0.123 -0.3620  0.1467 -0.0748
 4644TIP3    H113896   5.513   3.264   0.046  0.6088  0.0133  0.6341
 4644TIP3    H213897   5.370   3.292   0.087  0.0947  0.1850 -1.1966
 4645TIP3   OH213898   5.605   5.251   5.552  0.0757 -0.3752 -0.0836
 4645TIP3    H113899   5.617   5.289   5.639 -0.0621  1.4831 -0.8344
 4645TIP3    H213900   5.687   5.206   5.534  0.0554 -0.8957  1.0468
 4646TIP3   OH213901   4.841   5.751   2.968  0.2984 -0.3416 -0.0382
 4646TIP3    H113902   4.749   5.758   2.993  0.4474 -2.2641  1.2473
 4646TIP3    H213903   4.844   5.676   2.909  0.8537  0.6470 -1.3187
 4647TIP3   OH213904   6.442   3.212   1.722 -0.0489  0.5199 -0.1282
 4647TIP3    H113905   6.352   3.244   1.720  0.4082  1.8643 -0.7872
 4647TIP3    H213906   6.459   3.183   1.632  0.5816  1.5653 -0.3711
 4648TIP3   OH213907   4.870   0.381   4.917  0.3403  0.0946  0.1549
 4648TIP3    H113908   4.842   0.289   4.914 -0.5975  0.3131  1.4146
 4648TIP3    H213909   4.795   0.428   4.952  0.4850  1.5096 -1.2882
 4649TIP3   OH213910   1.144   2.880   0.137 -0.3700  0.3426 -0.3987
 4649TIP3    H113911   1.136   2.947   0.069  0.5869  0.1364 -0.7307
 4649TIP3    H213912   1.187   2.807   0.093  0.4436  0.2797  0.4762
 4650TIP3   OH213913   2.386   6.559   1.719  0.2970  0.3686  0.0997
 4650TIP3    H113914   2.318   6.616   1.755  0.4662  0.3386  0.4771
 4650TIP3    H213915   2.466   6.611   1.724 -0.0514  1.3182 -2.5461
 4651TIP3   OH213916   0.193   0.072   2.489 -0.5697  0.6476 -0.1224
 4651TIP3    H113917   0.255   0.139   2.460 -0.6716  0.7911 -0.0103
 4651TIP3    H213918   0.144   0.115   2.560 -1.7424  0.9959 -1.1268
 4652TIP3   OH213919   2.293   1.762   0.016  0.2015  0.2832 -0.2492
 4652TIP3    H113920   2.256   1.823   0.080  1.0028  0.8886 -0.3388
 4652TIP3    H213921   2.381   1.796  -0.000  1.4438 -1.9994  1.1903
 4653TIP3   OH213922   0.862   0.185   5.026 -0.9811  0.5574 -0.2026
 4653TIP3    H113923   0.927   0.237   5.074 -1.8391  0.7309  0.8127
 4653TIP3    H213924   0.813   0.250   4.975 -2.2873  0.8606  1.3387
 4654TIP3   OH213925   4.229   5.935   5.470 -0.1302  0.3880  0.2066
 4654TIP3    H113926   4.271   6.018   5.451 -1.0011  0.4454 -1.7274
 4654TIP3    H213927   4.193   5.906   5.386 -0.1709 -1.7699  0.8969
 4655TIP3   OH213928   0.769   3.228   1.527 -0.7146 -0.3053  0.0687
 4655TIP3    H113929   0.843   3.253   1.583 -0.5141  1.3853 -0.8819
 4655TIP3    H213930   0.797   3.147   1.484  0.5627  0.2456 -0.1897
 4656TIP3   OH213931   1.095   2.331   1.505 -0.1338 -0.6791 -0.1435
 4656TIP3    H113932   1.156   2.360   1.573 -0.6807 -2.4371  1.1812
 4656TIP3    H213933   1.026   2.397   1.503  0.4404 -0.0600  0.2419
 4657TIP3   OH213934   3.478   0.648   5.825 -0.1654 -0.0517  0.1391
 4657TIP3    H113935   3.561   0.688   5.852 -1.5547  1.7018  2.2122
 4657TIP3    H213936   3.497   0.607   5.741  2.5541  1.1347  0.0685
 4658TIP3   OH213937   6.898   3.223   2.563 -0.0057 -0.0711 -0.3756
 4658TIP3    H113938   6.938   3.309   2.571  0.3156 -0.2881  0.5891
 4658TIP3    H213939   6.951   3.167   2.619  0.5011 -1.1637 -1.8725
 4659TIP3   OH213940   1.953   2.026   1.582  0.1613 -0.7251 -0.1350
 4659TIP3    H113941   1.892   2.053   1.514 -0.2856 -1.1224  0.1004
 4659TIP3    H213942   1.908   2.046   1.664  0.1654 -1.4101  0.0428
 4660TIP3   OH213943   4.085   2.904   1.176 -0.8053  0.5050 -0.3552
 4660TIP3    H113944   4.033   2.930   1.100  0.2888  0.3180 -1.1977
 4660TIP3    H213945   4.022   2.896   1.248 -1.9085  0.3617 -1.3228
 4661TIP3   OH213946   1.828   2.274   0.810 -0.4026 -0.7366  0.0496
 4661TIP3    H113947   1.919   2.292   0.789 -0.7418 -0.2764 -1.0641
 4661TIP3    H213948   1.800   2.211   0.744 -1.1882 -0.0751 -0.2591
 4662TIP3   OH213949   4.125   6.510   1.749 -0.1498 -0.4774 -0.3018
 4662TIP3    H113950   4.099   6.518   1.657 -1.3804  0.2164  0.0844
 4662TIP3    H213951   4.043   6.501   1.797  0.4925 -1.2181  0.7108
 4663TIP3   OH213952   3.823   4.357   0.871  0.2350  0.7727 -0.5824
 4663TIP3    H113953   3.905   4.360   0.822  0.5516  0.4754 -0.0844
 4663TIP3    H213954   3.756   4.385   0.809  0.5824  0.0874 -1.2833
 4664TIP3   OH213955   6.170   1.080   0.903 -0.1069 -0.0448 -0.0757
 4664TIP3    H113956   6.152   1.058   0.811  2.9037 -2.6026 -0.2294
 4664TIP3    H213957   6.229   1.155   0.898 -0.4816  0.2517 -0.1542
 4665TIP3   OH213958   5.821   4.381   3.439  0.4755 -0.2210  0.3856
 4665TIP3    H113959   5.905   4.357   3.399  1.1959  1.1511  0.9952
 4665TIP3    H213960   5.828   4.475   3.454 -0.9366 -0.1930  1.0324
 4666TIP3   OH213961   3.668   2.964   2.404  0.2684  0.4784  0.4375
 4666TIP3    H113962   3.754   2.994   2.373  0.3287  0.0441  0.1721
 4666TIP3    H213963   3.668   2.984   2.498  0.5845  0.6592  0.4004
 4667TIP3   OH213964   4.346   1.823   3.506  0.5096  0.3519  0.3830
 4667TIP3    H113965   4.304   1.749   3.461 -0.6941  0.8192  0.6944
 4667TIP3    H213966   4.276   1.888   3.514  1.0427  0.7753  1.7917
 4668TIP3   OH213967   5.147   1.053   0.643  0.1136 -0.3214  0.6584
 4668TIP3    H113968   5.240   1.033   0.649  0.1856 -0.0649  0.4215
 4668TIP3    H213969   5.133   1.074   0.550 -0.1736 -0.3290  0.6989
 4669TIP3   OH213970   0.562   5.773   0.265  0.0982 -0.1419  0.2270
 4669TIP3    H113971   0.516   5.787   0.182 -0.8269  0.4263  0.8154
 4669TIP3    H213972   0.653   5.796   0.246 -0.1774  0.3799 -0.5277
 4670TIP3   OH213973   1.498   4.602   5.649  0.9876 -0.0513  0.1066
 4670TIP3    H113974   1.529   4.693   5.651  0.8732 -0.0211  1.0567
 4670TIP3    H213975   1.527   4.565   5.733  1.4601 -1.0426 -0.4780
 4671TIP3   OH213976   6.839   1.413   4.521  0.0796 -0.4708 -0.4397
 4671TIP3    H113977   6.885   1.373   4.594 -0.0312 -3.4689 -1.8623
 4671TIP3    H213978   6.908   1.455   4.469  0.4934 -0.5057  0.0763
 4672TIP3   OH213979   5.996   0.380   0.796 -0.3067  0.4924  0.2469
 4672TIP3    H113980   6.060   0.434   0.844  1.3686 -0.5498 -0.7394
 4672TIP3    H213981   6.001   0.294   0.838  0.6479 -0.2315 -1.2606
 4673TIP3   OH213982   2.428   4.965   3.898  0.3239  0.1581 -0.2869
 4673TIP3    H113983   2.341   4.934   3.873  0.3834  0.9238 -1.5551
 4673TIP3    H213984   2.465   4.895   3.952 -0.9217 -0.3378 -0.0567
 4674TIP3   OH213985   1.225   3.063   5.477  0.2543 -0.0899  0.2284
 4674TIP3    H113986   1.248   3.141   5.527 -0.9645  1.0242 -0.8699
 4674TIP3    H213987   1.152   3.023   5.525  0.2574 -0.0180  0.2916
 4675TIP3   OH213988   0.927   2.704   4.388  0.1524  0.0892 -0.3500
 4675TIP3    H113989   0.907   2.619   4.349 -0.1429 -0.1594  0.3405
 4675TIP3    H213990   0.865   2.764   4.346  0.9597  0.1438 -1.5039
 4676TIP3   OH213991   6.780   6.269   0.201  0.1499  0.3431  0.0091
 4676TIP3    H113992   6.717   6.222   0.255  0.2905 -0.1642 -0.2579
 4676TIP3    H213993   6.846   6.204   0.179  0.1581  0.5700 -0.6706
 4677TIP3   OH213994   4.415   1.673   1.065  0.0706  0.6681  0.8010
 4677TIP3    H113995   4.329   1.636   1.044  1.4759 -2.1788 -0.5397
 4677TIP3    H213996   4.396   1.756   1.109 -3.3410 -0.1427  1.1144
 4678TIP3   OH213997   2.863   0.744   3.823  0.5148 -0.4740 -0.1510
 4678TIP3    H113998   2.873   0.825   3.773 -0.0985 -1.0862 -1.3120
 4678TIP3    H213999   2.776   0.752   3.863  0.9977  0.0072  0.8433
 4679TIP3   OH214000   1.293   4.131   4.191  0.0858 -0.2179  0.1589
 4679TIP3    H114001   1.269   4.106   4.280  1.2751  0.4530  0.7017
 4679TIP3    H214002   1.212   4.164   4.153 -0.2942  0.1949  1.2625
 4680TIP3   OH214003   2.398   5.214   4.695 -0.1325  0.0567  0.2834
 4680TIP3    H114004   2.419   5.247   4.607 -0.0574  0.0078  0.2834
 4680TIP3    H214005   2.406   5.119   4.688  2.0040  0.1407  0.8846
 4681TIP3   OH214006   1.827   4.688   0.198 -0.5632  0.3068  0.2100
 4681TIP3    H114007   1.811   4.776   0.233 -0.1199  1.1811 -1.6361
 4681TIP3    H214008   1.750   4.670   0.144  0.4506  0.6646 -1.4193
 4682TIP3   OH214009   3.159   1.182   2.414  0.1002 -0.5115  0.2718
 4682TIP3    H114010   3.218   1.257   2.424  0.6388 -0.8401 -0.4021
 4682TIP3    H214011   3.188   1.139   2.334  1.9573 -3.3402  2.2608
 4683TIP3   OH214012   2.149   6.418   3.294  0.0007  0.4573 -0.0490
 4683TIP3    H114013   2.240   6.444   3.310  0.7834 -0.5436 -2.3631
 4683TIP3    H214014   2.110   6.496   3.254 -0.7445  1.5030  2.5520
 4684TIP3   OH214015   4.308   0.440   3.662  0.1284 -0.1368 -0.3618
 4684TIP3    H114016   4.384   0.478   3.706  0.6530 -0.2818 -1.1308
 4684TIP3    H214017   4.344   0.370   3.608 -0.7415 -1.2782  0.4753
 4685TIP3   OH214018   4.910   3.927   3.941  0.3505  0.0849 -0.0686
 4685TIP3    H114019   4.980   3.869   3.914 -0.6752 -1.9941  1.4761
 4685TIP3    H214020   4.832   3.873   3.941 -0.6831  1.4781  1.3411
 4686TIP3   OH214021   1.075   4.261   4.077  0.0610 -0.0330 -0.0822
 4686TIP3    H114022   1.117   4.344   4.054  1.3316 -0.2624  1.1869
 4686TIP3    H214023   0.983   4.282   4.088  0.5062  1.4453  1.1316
 4687TIP3   OH214024   0.281   3.730   0.600 -0.1338  0.2449 -0.1863
 4687TIP3    H114025   0.211   3.665   0.599  0.3754 -0.3130 -0.8159
 4687TIP3    H214026   0.316   3.728   0.689  0.3361 -0.8587 -0.3775
 4688TIP3   OH214027   3.596   4.216   1.724 -0.3533 -0.6120 -0.0328
 4688TIP3    H114028   3.509   4.252   1.744 -0.0666 -0.8816  1.8012
 4688TIP3    H214029   3.657   4.281   1.758  0.1687 -1.2007  0.1658
 4689TIP3   OH214030   3.521   6.519   5.890  0.3258 -0.1152 -0.0696
 4689TIP3    H114031   3.450   6.550   5.946 -1.3468 -0.3376 -1.9218
 4689TIP3    H214032   3.496   6.549   5.802  2.4638 -0.3657 -0.8175
 4690TIP3   OH214033   1.265   2.002   1.317 -0.4053  0.2413  0.3344
 4690TIP3    H114034   1.201   2.056   1.363 -0.1823  1.2070 -0.4510
 4690TIP3    H214035   1.245   2.015   1.224  2.1024  2.1459 -0.0553
 4691TIP3   OH214036   5.259   4.515   2.595 -0.0119  0.2958  0.3704
 4691TIP3    H114037   5.188   4.575   2.619 -0.7843  0.0535 -1.1663
 4691TIP3    H214038   5.272   4.531   2.501  2.7169  1.0953  0.7931
 4692TIP3   OH214039   1.006   1.887   0.450 -0.7803 -0.0132 -0.9597
 4692TIP3    H114040   1.025   1.978   0.471  1.3457  0.2361 -3.4168
 4692TIP3    H214041   1.075   1.837   0.495  0.5236  0.0407 -2.7896
 4693TIP3   OH214042   1.719   1.095   2.414  0.3608 -0.1911  0.0981
 4693TIP3    H114043   1.633   1.129   2.392  0.2699 -0.3850  0.1572
 4693TIP3    H214044   1.717   1.082   2.509  2.0160  4.3794  1.0289
 4694TIP3   OH214045   0.461   1.716   0.176 -0.5502  0.1791 -0.4741
 4694TIP3    H114046   0.467   1.736   0.269  2.7683  0.7935 -0.6935
 4694TIP3    H214047   0.521   1.643   0.162 -0.0829  0.8308 -2.2761
 4695TIP3   OH214048   3.657   6.092   5.643  0.9473  0.4076 -0.8279
 4695TIP3    H114049   3.726   6.033   5.611  0.0546 -0.5810 -0.9863
 4695TIP3    H214050   3.639   6.150   5.569  0.0461 -0.7997 -1.5767
 4696TIP3   OH214051   4.033   2.402   2.798 -0.0121  0.2730 -0.4923
 4696TIP3    H114052   4.042   2.310   2.772 -0.2683  0.1886 -0.2908
 4696TIP3    H214053   4.042   2.402   2.893 -1.8225  0.1930 -0.2801
 4697TIP3   OH214054   4.247   5.448   2.017  0.1967  0.4418 -0.8709
 4697TIP3    H114055   4.290   5.363   2.015 -0.9173 -0.1143 -1.8304
 4697TIP3    H214056   4.320   5.511   2.016  1.0369 -0.4654  0.1744
 4698TIP3   OH214057   4.730   0.807   0.334 -0.4559  0.5073 -0.2672
 4698TIP3    H114058   4.685   0.733   0.376 -0.3368  0.8170  0.4240
 4698TIP3    H214059   4.774   0.769   0.258  1.2443 -0.5257  1.1672
 4699TIP3   OH214060   0.029   5.568   5.633 -0.7931  0.1894  0.0939
 4699TIP3    H114061   0.124   5.577   5.635 -0.4899 -2.3334  1.5374
 4699TIP3    H214062  -0.003   5.637   5.692  0.1097  1.1365 -0.5088
 4700TIP3   OH214063   3.796   5.875   2.266 -0.1399  0.4812  0.1006
 4700TIP3    H114064   3.771   5.946   2.208  1.9755 -0.0803 -1.6163
 4700TIP3    H214065   3.736   5.803   2.243 -0.7298  0.9370  0.1797
 4701TIP3   OH214066   2.418   3.004   2.171 -0.1405 -0.1771  0.5278
 4701TIP3    H114067   2.400   3.081   2.224 -0.1568 -0.4527  0.9290
 4701TIP3    H214068   2.347   3.001   2.108  0.8885  1.2363 -0.7776
 4702TIP3   OH214069   2.547   5.434   0.730 -0.4105 -0.1150  0.5293
 4702TIP3    H114070   2.544   5.401   0.820 -0.3771 -0.8186  0.2823
 4702TIP3    H214071   2.480   5.384   0.684 -1.5205  1.3528  0.4979
 4703TIP3   OH214072   5.105   3.235   5.741  0.2814 -0.0704 -0.1314
 4703TIP3    H114073   5.135   3.262   5.828 -0.8986  0.1976  0.1993
 4703TIP3    H214074   5.171   3.271   5.682 -0.9828  3.3663  0.3032
 4704TIP3   OH214075   2.824   3.019   2.163 -0.4147 -0.4109 -0.5952
 4704TIP3    H114076   2.860   2.967   2.092  1.8775  0.7332 -0.3560
 4704TIP3    H214077   2.742   3.055   2.127 -0.3969 -1.5757 -1.8637
 4705TIP3   OH214078   5.232   0.812   1.000 -0.1916 -0.3113 -0.0988
 4705TIP3    H114079   5.137   0.805   1.010 -0.0925 -0.6060  0.6963
 4705TIP3    H214080   5.266   0.727   1.026  0.4493  0.4915  1.9098
 4706TIP3   OH214081   2.626   6.179   5.569  0.0689  0.3820  0.1150
 4706TIP3    H114082   2.679   6.229   5.507 -0.1802 -2.1202 -2.2955
 4706TIP3    H214083   2.677   6.101   5.587 -1.2654 -0.4421  0.5022
 4707TIP3   OH214084   4.018   6.192   4.382 -0.4610 -0.7781  0.4480
 4707TIP3    H114085   4.072   6.222   4.308 -0.5391 -1.3860  0.1318
 4707TIP3    H214086   4.042   6.100   4.392 -1.4283 -1.0472  0.3173
 4708TIP3   OH214087   6.484   5.841   0.854  0.2331 -0.1876 -0.1213
 4708TIP3    H114088   6.554   5.828   0.790  0.5726 -1.4726  0.4682
 4708TIP3    H214089   6.492   5.765   0.913  0.4083  1.3136  1.8842
 4709TIP3   OH214090   2.026   0.913   5.209 -0.2855  0.1537  0.3351
 4709TIP3    H114091   2.078   0.990   5.188 -0.0823 -0.2973 -0.9037
 4709TIP3    H214092   1.952   0.917   5.148 -0.4240 -0.4688  0.4552
 4710TIP3   OH214093   5.099   0.073   4.258  0.3076  0.1015 -0.0761
 4710TIP3    H114094   5.081   0.011   4.188  0.3658 -0.1335  0.1160
 4710TIP3    H214095   5.095   0.021   4.338 -1.8208  0.7532  0.3011
 4711TIP3   OH214096   1.366   0.800   2.309  0.1377  0.0988  0.1676
 4711TIP3    H114097   1.386   0.861   2.238 -0.0242 -0.5048 -0.4035
 4711TIP3    H214098   1.371   0.854   2.388 -2.0273  1.3554 -0.4667
 4712TIP3   OH214099   3.023   6.107   4.519 -0.5272  0.1752  0.6505
 4712TIP3    H114100   3.055   6.045   4.584  0.1508 -1.8515 -1.4791
 4712TIP3    H214101   3.058   6.075   4.436 -3.4168  1.1302 -1.0885
 4713TIP3   OH214102   3.595   3.058   1.355 -0.6239 -0.2111 -0.0739
 4713TIP3    H114103   3.582   2.963   1.344 -2.2173 -0.2237  1.4611
 4713TIP3    H214104   3.621   3.068   1.446 -4.2518  1.0361  1.0062
 4714TIP3   OH214105   0.409   5.513   3.662  0.4803  0.0151  0.2175
 4714TIP3    H114106   0.357   5.586   3.628 -0.3629 -0.3920  0.5987
 4714TIP3    H214107   0.349   5.468   3.722  0.6044 -1.6589 -0.8520
 4715TIP3   OH214108   7.084   4.111   3.501  0.3478 -0.3614 -0.1674
 4715TIP3    H114109   7.115   4.116   3.591  1.3307 -1.9314 -0.3791
 4715TIP3    H214110   6.990   4.125   3.506  0.4793  0.1711  1.0202
 4716TIP3   OH214111   4.526   0.497   1.618 -0.2501 -0.2060  0.1016
 4716TIP3    H114112   4.577   0.546   1.682 -0.1999 -0.0332 -0.0719
 4716TIP3    H214113   4.480   0.431   1.670  0.1501 -0.3634  0.2547
 4717TIP3   OH214114  -0.036   1.660   3.870 -0.0377  0.1909 -0.2764
 4717TIP3    H114115   0.001   1.747   3.852 -0.1307  0.9697  2.7077
 4717TIP3    H214116   0.040   1.604   3.887 -0.0273  0.1429 -0.4845
 4718TIP3   OH214117   4.922   2.535   4.498 -0.5057  0.7353  0.1348
 4718TIP3    H114118   4.965   2.485   4.430 -1.0683  0.7541 -0.2397
 4718TIP3    H214119   4.939   2.486   4.579 -0.5811  0.2435 -0.1447
 4719TIP3   OH214120   5.014   4.882   2.484 -0.3324  0.3592  0.5473
 4719TIP3    H114121   5.082   4.943   2.513 -0.6738  0.4369  1.2220
 4719TIP3    H214122   5.024   4.806   2.542 -1.6229  0.8946  1.5440
 4720TIP3   OH214123   2.838   2.563   3.865 -0.1079  0.7380  0.5763
 4720TIP3    H114124   2.887   2.515   3.799 -1.6774  0.6378 -0.5594
 4720TIP3    H214125   2.881   2.649   3.869  1.9577 -0.2664  1.7611
 4721TIP3   OH214126   1.095   6.013   4.982 -0.5186 -0.3574  0.1118
 4721TIP3    H114127   1.079   5.969   5.066  0.0288  0.0655  0.4389
 4721TIP3    H214128   1.190   6.012   4.972 -0.3789  1.8801  0.7438
 4722TIP3   OH214129   5.108   1.939   4.052  0.4645  0.0457 -0.1609
 4722TIP3    H114130   5.128   1.908   4.140 -0.6768 -0.2241  0.0208
 4722TIP3    H214131   5.083   1.860   4.004 -2.8532  0.6256  0.4042
 4723TIP3   OH214132   1.480   1.898   3.921  0.0250  0.1783 -0.7343
 4723TIP3    H114133   1.459   1.805   3.911 -0.2198  0.3706 -2.1318
 4723TIP3    H214134   1.548   1.900   3.988  0.3211 -1.0446 -0.9850
 4724TIP3   OH214135   5.170   2.445   1.403 -0.2591  0.1106  0.3396
 4724TIP3    H114136   5.130   2.396   1.332 -0.4700  1.3061 -0.3941
 4724TIP3    H214137   5.186   2.380   1.471  1.2721 -1.3495 -1.3198
 4725TIP3   OH214138   7.209   2.149   2.389  0.2851  0.3975 -0.1116
 4725TIP3    H114139   7.167   2.167   2.473  1.2273 -1.0290  0.7142
 4725TIP3    H214140   7.160   2.075   2.353 -1.5221  2.3451 -1.9322
 4726TIP3   OH214141   0.063   1.064   2.171 -1.0995 -0.2731  0.0386
 4726TIP3    H114142   0.156   1.086   2.180 -1.3745  0.1221  3.1220
 4726TIP3    H214143   0.030   1.126   2.107  0.2368  1.5193  0.9880
 4727TIP3   OH214144   2.891   1.020   2.853  0.2834  0.5646 -0.0936
 4727TIP3    H114145   2.850   0.953   2.798 -0.0279  1.8380 -1.4785
 4727TIP3    H214146   2.924   1.085   2.791  1.3558  1.2843  1.1652
 4728TIP3   OH214147   5.744   1.473   3.958  0.1903  0.3563 -0.3072
 4728TIP3    H114148   5.766   1.544   3.898  0.3100  2.0642  1.6632
 4728TIP3    H214149   5.659   1.441   3.927  0.1808  1.2806 -1.2878
 4729TIP3   OH214150   5.596   2.406   0.956 -0.9704 -0.0226 -0.2742
 4729TIP3    H114151   5.573   2.490   0.996  0.5399 -0.0188  0.6631
 4729TIP3    H214152   5.666   2.427   0.894 -0.1525 -0.6472  0.4104
 4730TIP3   OH214153   6.318   0.155   3.447  0.0789 -0.1598  0.0001
 4730TIP3    H114154   6.272   0.171   3.365 -1.9044  2.2731  1.4764
 4730TIP3    H214155   6.273   0.209   3.511  1.7345 -1.7561  2.6808
 4731TIP3   OH214156   6.743   5.286   1.485 -0.7778  0.5472  0.3520
 4731TIP3    H114157   6.680   5.267   1.554 -0.0895  1.5274  1.2823
 4731TIP3    H214158   6.726   5.220   1.418 -0.7857 -1.0752  1.8797
 4732TIP3   OH214159   2.844   2.502   5.435 -0.0718  0.6959 -0.4347
 4732TIP3    H114160   2.905   2.508   5.362 -0.5333  1.6954 -0.7473
 4732TIP3    H214161   2.890   2.544   5.508  0.3069 -0.1232 -0.1833
 4733TIP3   OH214162   4.246   1.086   5.540 -0.0053 -0.2644  0.7442
 4733TIP3    H114163   4.178   1.042   5.592 -0.3984  0.9485  1.2859
 4733TIP3    H214164   4.213   1.083   5.450 -0.7576  0.2493  0.9944
 4734TIP3   OH214165   0.429   2.313   3.106  0.0346 -0.2183 -0.5519
 4734TIP3    H114166   0.517   2.352   3.103 -0.2850  0.7479  1.2114
 4734TIP3    H214167   0.416   2.292   3.199 -0.3339 -3.4547 -1.2259
 4735TIP3   OH214168   3.412   0.449   2.174 -0.4465 -0.3778 -0.1455
 4735TIP3    H114169   3.381   0.509   2.242 -2.5708 -0.1599 -1.2067
 4735TIP3    H214170   3.468   0.503   2.118 -2.5110  0.8031 -1.2211
 4736TIP3   OH214171   1.003   0.709   1.519  0.2133 -0.0496  0.3542
 4736TIP3    H114172   1.084   0.697   1.469  0.7245 -0.0399  1.1737
 4736TIP3    H214173   0.943   0.751   1.457  0.9994  0.4205 -0.1023
 4737TIP3   OH214174   6.635   3.657   2.319  0.1931  0.2426  0.1311
 4737TIP3    H114175   6.719   3.637   2.277 -0.7097 -0.8683 -1.2397
 4737TIP3    H214176   6.580   3.692   2.249 -0.6107  0.6274  0.9274
 4738TIP3   OH214177   4.336   0.422   4.561  0.6147  0.4748 -0.9863
 4738TIP3    H114178   4.255   0.444   4.516 -1.0962 -2.0076  0.6239
 4738TIP3    H214179   4.313   0.420   4.654  2.2559 -1.1388 -0.5389
 4739TIP3   OH214180   1.385   3.650   1.745 -0.6258 -0.3719  0.6844
 4739TIP3    H114181   1.393   3.675   1.837 -0.4870  0.7934  0.3734
 4739TIP3    H214182   1.310   3.702   1.714  0.5337  0.7570 -0.3321
 4740TIP3   OH214183   4.681   4.040   5.571 -0.1359 -0.1404 -0.1943
 4740TIP3    H114184   4.659   3.950   5.544 -0.6451  0.3254 -1.4412
 4740TIP3    H214185   4.773   4.050   5.548 -0.1441 -0.2653 -0.2856
 4741TIP3   OH214186   2.652   5.356   0.089 -0.0106  0.1943 -0.0059
 4741TIP3    H114187   2.665   5.448   0.064  0.3664 -0.3114 -1.7988
 4741TIP3    H214188   2.711   5.343   0.164  1.4699  0.8921 -1.0095
 4742TIP3   OH214189   1.914   0.977   3.817  0.2682 -0.5956  0.4744
 4742TIP3    H114190   1.989   0.927   3.851  1.0190  0.7860  0.9443
 4742TIP3    H214191   1.895   0.938   3.732  0.3027 -2.1867  1.1721
 4743TIP3   OH214192   0.473   4.718   0.408  0.5553  0.2224 -0.4137
 4743TIP3    H114193   0.381   4.731   0.430  1.1107  1.5217  1.3367
 4743TIP3    H214194   0.507   4.661   0.477  1.6630  2.0229  0.6229
 4744TIP3   OH214195   5.366   1.277   4.270  0.2132 -0.5149 -0.1500
 4744TIP3    H114196   5.441   1.217   4.272  0.3064 -0.4571 -1.2240
 4744TIP3    H214197   5.336   1.274   4.179  0.2672  1.1243 -0.2450
 4745TIP3   OH214198   3.890   2.320   4.110 -0.2707 -0.1476 -0.4994
 4745TIP3    H114199   3.862   2.357   4.193 -0.6793  1.2120 -1.2044
 4745TIP3    H214200   3.903   2.396   4.053  1.2736 -0.9600 -1.2990
 4746TIP3   OH214201   6.607   0.989   5.773 -0.0861  0.0362  0.3421
 4746TIP3    H114202   6.576   1.065   5.724  3.1403  1.3248  0.0534
 4746TIP3    H214203   6.657   0.938   5.710  1.1688 -0.1695  1.4642
 4747TIP3   OH214204   0.092   1.346   2.421 -0.2175  0.1555  0.0848
 4747TIP3    H114205   0.104   1.362   2.327  1.3824 -0.2775  0.1919
 4747TIP3    H214206   0.076   1.432   2.458 -3.0966  0.1300 -0.8305
 4748TIP3   OH214207   3.144   4.489   5.341 -0.0718  0.1697 -0.5134
 4748TIP3    H114208   3.226   4.443   5.325 -1.0065 -1.1400 -1.9100
 4748TIP3    H214209   3.117   4.461   5.429 -0.3298 -1.5685 -1.1058
 4749TIP3   OH214210   5.582   6.207   5.856  0.4883 -0.2469 -0.7366
 4749TIP3    H114211   5.627   6.224   5.773  0.4131 -0.0901 -0.7457
 4749TIP3    H214212   5.618   6.123   5.886 -0.3747 -0.9208 -1.5385
 4750TIP3   OH214213   1.032   4.852   1.801  0.1918  0.0237 -0.3841
 4750TIP3    H114214   0.945   4.815   1.815  0.6135 -0.3976  1.5053
 4750TIP3    H214215   1.018   4.947   1.796 -0.2859  0.0498  1.0443
 4751TIP3   OH214216   4.566   0.350   5.353  0.0616 -0.0296  0.4203
 4751TIP3    H114217   4.658   0.365   5.372  0.1677  0.1178 -0.1887
 4751TIP3    H214218   4.524   0.435   5.367 -0.0758 -0.2134  1.1900
 4752TIP3   OH214219   4.988   3.636   2.387  0.4203 -0.2542 -0.3241
 4752TIP3    H114220   4.920   3.681   2.337  0.0836  0.2595  0.5686
 4752TIP3    H214221   4.951   3.551   2.408 -0.7945  0.7125  1.8208
 4753TIP3   OH214222   7.074   6.429   4.369  0.0054  0.4272 -0.1584
 4753TIP3    H114223   7.014   6.434   4.443 -0.8290  0.0948 -0.7973
 4753TIP3    H214224   7.111   6.517   4.362  1.3873  0.0470  1.6756
 4754TIP3   OH214225   3.363   1.639   4.271 -0.2481  0.1563  0.4943
 4754TIP3    H114226   3.397   1.726   4.291  0.6547 -0.4221  1.6069
 4754TIP3    H214227   3.438   1.592   4.234 -0.8742  0.0069 -0.6166
 4755TIP3   OH214228   2.261   4.354   4.895  0.2257  0.1644 -1.0079
 4755TIP3    H114229   2.287   4.428   4.950  1.3832  0.8720 -2.4428
 4755TIP3    H214230   2.329   4.288   4.910 -0.3203 -0.2821 -0.4163
 4756TIP3   OH214231   3.960   0.757   1.605 -0.2419 -0.0521 -0.2766
 4756TIP3    H114232   4.043   0.784   1.564 -0.9195  2.5694 -0.1190
 4756TIP3    H214233   3.903   0.734   1.532 -0.2104  0.7756 -0.5693
 4757TIP3   OH214234   2.022   5.815   1.495  0.0188  0.6299  0.7468
 4757TIP3    H114235   2.082   5.881   1.460  0.0719 -0.3068 -1.0546
 4757TIP3    H214236   1.960   5.800   1.424 -0.8014 -0.2923  1.6290
 4758TIP3   OH214237   4.646   5.469   0.142  0.0244 -0.1739  0.1457
 4758TIP3    H114238   4.590   5.428   0.209  0.5431 -0.1721  0.5860
 4758TIP3    H214239   4.670   5.397   0.084  1.1519 -0.5701  1.0692
 4759TIP3   OH214240   6.328   5.414   2.907 -1.1151  0.0592  0.0555
 4759TIP3    H114241   6.390   5.456   2.847  2.0248  1.1580  3.6905
 4759TIP3    H214242   6.373   5.336   2.937 -1.9392  0.2868  1.9872
 4760TIP3   OH214243   2.521   3.399   0.359  0.0592 -0.3236 -0.3893
 4760TIP3    H114244   2.509   3.486   0.396 -1.8099 -0.6716 -0.0908
 4760TIP3    H214245   2.616   3.389   0.352  0.3361  1.3603  0.4328
 4761TIP3   OH214246   4.262   4.843   3.915 -0.8469  0.2773  0.1866
 4761TIP3    H114247   4.243   4.817   4.005 -1.2732  2.0141  0.6308
 4761TIP3    H214248   4.191   4.902   3.891 -0.7658 -0.2091 -1.3190
 4762TIP3   OH214249   4.449   0.594   2.129 -0.2697 -0.1586  0.5296
 4762TIP3    H114250   4.534   0.588   2.171  0.4144  1.1312 -0.5636
 4762TIP3    H214251   4.405   0.667   2.174 -0.0250  0.4112 -0.1286
 4763TIP3   OH214252   2.996   1.991   4.405 -0.0594 -0.1561  0.1506
 4763TIP3    H114253   3.054   2.054   4.449  0.5872 -0.0386 -0.8381
 4763TIP3    H214254   2.925   1.977   4.467 -0.2968  1.6565  0.3442
 4764TIP3   OH214255   5.366   5.013   1.526 -0.3742 -0.2251  0.2213
 4764TIP3    H114256   5.290   5.063   1.557 -1.0166 -1.8819  1.4827
 4764TIP3    H214257   5.406   4.978   1.605  1.4289  0.1709 -0.4716
 4765TIP3   OH214258   6.409   6.166   4.793 -0.5800  0.0140  0.0050
 4765TIP3    H114259   6.468   6.097   4.824 -1.0322 -1.0605 -1.3840
 4765TIP3    H214260   6.458   6.247   4.804  1.1507 -0.8357 -1.0366
 4766TIP3   OH214261   5.693   4.874   2.815 -0.1959 -0.0542  0.0754
 4766TIP3    H114262   5.604   4.840   2.819 -0.6374  0.9203 -0.7859
 4766TIP3    H214263   5.689   4.958   2.861  0.0811  0.3654 -0.6479
 4767TIP3   OH214264   5.461   5.646   1.596 -0.1344 -0.0379 -0.0610
 4767TIP3    H114265   5.372   5.627   1.564  0.0827 -0.1090 -0.6363
 4767TIP3    H214266   5.488   5.724   1.548  0.9280 -1.2333 -1.5296
 4768TIP3   OH214267   1.216   1.388   3.804  0.3191 -0.3647  0.1935
 4768TIP3    H114268   1.159   1.459   3.776  1.2336 -0.1672 -1.2673
 4768TIP3    H214269   1.202   1.318   3.740  2.3813  0.0485 -0.8063
 4769TIP3   OH214270   0.310   2.355   5.737 -0.0415  0.6734  0.2236
 4769TIP3    H114271   0.358   2.350   5.654  1.4931  1.1185  1.0516
 4769TIP3    H214272   0.218   2.345   5.712  0.3889  0.7750 -1.5234
 4770TIP3   OH214273   3.325   3.522   3.989 -0.0890  0.1245 -0.0394
 4770TIP3    H114274   3.403   3.471   4.009  0.6022  1.7638  1.7725
 4770TIP3    H214275   3.358   3.608   3.964 -1.2800  0.4641 -0.5325
 4771TIP3   OH214276   1.977   3.784   2.191  0.0593  0.4721 -0.0439
 4771TIP3    H114277   1.908   3.831   2.146 -0.5129 -0.3852 -0.0862
 4771TIP3    H214278   1.995   3.708   2.136 -0.1539 -0.2141  0.8054
 4772TIP3   OH214279   1.586   4.206   4.995  0.0839 -0.4878 -0.3458
 4772TIP3    H114280   1.636   4.260   4.933  0.8085 -0.8061 -0.0463
 4772TIP3    H214281   1.643   4.199   5.071  0.1264 -1.9257 -0.4930
 4773TIP3   OH214282   3.880   1.321   1.509 -0.0306 -0.1691 -0.0377
 4773TIP3    H114283   3.842   1.304   1.596 -1.9562  0.5832 -0.6926
 4773TIP3    H214284   3.974   1.306   1.522 -0.2873 -0.3579  2.1028
 4774TIP3   OH214285   0.357   1.085   1.516  0.3351  0.0615  0.1953
 4774TIP3    H114286   0.452   1.073   1.510  0.6488  2.5183 -0.7745
 4774TIP3    H214287   0.330   1.105   1.426 -0.6027  2.4229  0.9420
 4775TIP3   OH214288   4.597   6.131  -0.012 -0.0103  0.6087 -0.0690
 4775TIP3    H114289   4.623   6.147   0.079 -0.1247  1.3631 -0.1668
 4775TIP3    H214290   4.677   6.100  -0.055  0.2481  1.0558  0.0899
 4776TIP3   OH214291   0.844   4.195   5.847 -0.4958  0.1300  0.6941
 4776TIP3    H114292   0.903   4.262   5.812  1.4912 -0.8568  1.9913
 4776TIP3    H214293   0.781   4.243   5.901 -0.9376  1.2040 -0.7213
 4777TIP3   OH214294   2.921   1.750   3.226  0.0583  0.1898  0.0638
 4777TIP3    H114295   2.993   1.688   3.240 -0.3628 -0.1518  0.7386
 4777TIP3    H214296   2.899   1.781   3.313  0.6968  1.8008 -0.3067
 4778TIP3   OH214297   4.903   2.121   4.295  0.0555  0.1293  0.1774
 4778TIP3    H114298   4.988   2.090   4.325  0.9663 -0.3491 -2.5717
 4778TIP3    H214299   4.840   2.060   4.334  1.2132 -1.0779  0.2260
 4779TIP3   OH214300   1.533   0.586   3.257  0.4852  0.1391  0.1107
 4779TIP3    H114301   1.507   0.502   3.219  1.1671 -1.1078  2.2248
 4779TIP3    H214302   1.617   0.606   3.216  0.0950  0.0340 -0.7522
 4780TIP3   OH214303   1.694   3.938   1.541  0.0572 -0.0550 -0.0141
 4780TIP3    H114304   1.629   3.981   1.596 -0.4848 -0.0224 -0.6709
 4780TIP3    H214305   1.675   3.969   1.452  0.7399 -0.3244 -0.2584
 4781TIP3   OH214306   4.295   6.245   2.096 -0.1584  0.2327  0.2052
 4781TIP3    H114307   4.327   6.331   2.069  2.1143 -0.6516 -0.0829
 4781TIP3    H214308   4.328   6.185   2.029  0.9716 -1.2665  2.0305
 4782TIP3   OH214309   4.045   0.816   0.596 -0.4502 -0.4261  0.1035
 4782TIP3    H114310   4.067   0.813   0.503  0.5255 -1.4642  0.3324
 4782TIP3    H214311   3.980   0.886   0.604 -0.9266 -0.6605 -1.4220
 4783TIP3   OH214312   6.926   2.281   2.476 -0.2299  0.2109 -0.3737
 4783TIP3    H114313   6.986   2.246   2.542 -0.5332 -1.0466 -0.7397
 4783TIP3    H214314   6.892   2.362   2.515  2.3720  1.4969 -0.5261
 4784TIP3   OH214315   1.834   4.155   4.506  0.3284 -0.1365 -0.2457
 4784TIP3    H114316   1.869   4.147   4.594  0.7291  0.6088 -0.3330
 4784TIP3    H214317   1.908   4.135   4.448  0.1055 -0.4803 -0.4191
 4785TIP3   OH214318   1.447   1.017   2.147  0.1275 -0.5069 -0.1195
 4785TIP3    H114319   1.361   1.055   2.126 -0.0989 -0.5268  0.7178
 4785TIP3    H214320   1.489   1.084   2.201  0.4864 -0.6580 -0.2123
 4786TIP3   OH214321   4.010   5.422   0.253  0.5667  0.0563 -0.0624
 4786TIP3    H114322   4.027   5.389   0.341  0.7962  0.8773  0.2132
 4786TIP3    H214323   3.916   5.408   0.239  0.3995  0.5128  0.5737
 4787TIP3   OH214324   1.980   2.823   0.696  0.4339 -0.2477  0.2394
 4787TIP3    H114325   2.019   2.807   0.610 -0.2432 -1.8290  0.1891
 4787TIP3    H214326   1.886   2.809   0.683  0.1347  0.9012  0.9448
 4788TIP3   OH214327   4.015   4.430   4.872  0.4272 -0.1642 -0.2659
 4788TIP3    H114328   4.035   4.418   4.964  0.8774 -0.8152 -0.4386
 4788TIP3    H214329   3.934   4.380   4.858  1.4130 -1.7474 -0.6276
 4789TIP3   OH214330   0.564   1.900   4.635  0.3771  0.4137 -0.2527
 4789TIP3    H114331   0.518   1.854   4.706 -0.1647  1.1063 -0.1519
 4789TIP3    H214332   0.502   1.899   4.562  0.8313 -0.0593 -0.6470
 4790TIP3   OH214333   3.845   2.434   4.476  0.4865 -0.9528 -0.1366
 4790TIP3    H114334   3.773   2.391   4.430  0.4509 -0.5580 -0.4539
 4790TIP3    H214335   3.919   2.374   4.466  0.0164 -1.7312  0.8424
 4791TIP3   OH214336   0.301   0.903   2.974  0.5068  0.3082  0.1828
 4791TIP3    H114337   0.305   0.987   3.019  0.8073 -0.3538  1.4466
 4791TIP3    H214338   0.304   0.838   3.044  1.3641 -0.7767 -0.8138
 4792TIP3   OH214339   3.482   1.713   4.830 -0.4798  0.9652 -0.1540
 4792TIP3    H114340   3.533   1.781   4.875  0.2681 -0.6956  1.6918
 4792TIP3    H214341   3.430   1.673   4.900 -0.2988 -0.8621 -1.0147
 4793TIP3   OH214342   4.612   3.543   1.143 -0.3266  0.3711 -0.4627
 4793TIP3    H114343   4.560   3.597   1.202 -0.3462 -0.5764  0.4202
 4793TIP3    H214344   4.552   3.520   1.072 -0.7172  0.3726 -0.1351
 4794TIP3   OH214345   6.598   5.243   4.345 -0.2231  0.4577  0.4667
 4794TIP3    H114346   6.621   5.184   4.417  1.3067  0.2951 -0.1155
 4794TIP3    H214347   6.536   5.194   4.292  0.9434 -0.6076  0.0504
 4795TIP3   OH214348   5.550   6.196   5.210 -0.6942  0.7777 -0.2698
 4795TIP3    H114349   5.456   6.178   5.208 -0.6502  0.5494 -0.3081
 4795TIP3    H214350   5.585   6.134   5.274 -0.3384 -0.2465 -1.4120
 4796TIP3   OH214351   1.793   6.155   2.297  0.0506  0.0551 -0.3163
 4796TIP3    H114352   1.833   6.186   2.215  1.4844  2.7654  1.2718
 4796TIP3    H214353   1.702   6.182   2.291 -0.1745 -0.8860 -1.5049
 4797TIP3   OH214354   0.140   5.166   1.307  0.5548 -0.1908 -0.4250
 4797TIP3    H114355   0.225   5.203   1.328  1.0204 -1.5963  0.3033
 4797TIP3    H214356   0.078   5.215   1.361  0.4628  2.5645 -2.7411
 4798TIP3   OH214357   2.385   5.573   1.444 -0.3411  0.0449  0.2068
 4798TIP3    H114358   2.307   5.568   1.388 -0.0695  0.9855 -0.2729
 4798TIP3    H214359   2.429   5.653   1.417  1.9002 -1.4980 -0.9513
 4799TIP3   OH214360   6.429   5.876   5.804  0.3329  0.0783 -0.3472
 4799TIP3    H114361   6.502   5.896   5.863 -0.2422 -0.6841  0.6605
 4799TIP3    H214362   6.367   5.948   5.816  0.0954 -0.2139  0.1908
 4800TIP3   OH214363   2.503   0.770   5.024 -0.5490  0.7184 -0.2038
 4800TIP3    H114364   2.504   0.674   5.020 -1.5364  0.7388 -1.3165
 4800TIP3    H214365   2.534   0.790   5.112  1.0038 -0.5778 -0.3950
 4801TIP3   OH214366   2.810   4.601   0.108  0.2048  0.1750  0.1109
 4801TIP3    H114367   2.883   4.660   0.092  0.3727  0.4478  1.6713
 4801TIP3    H214368   2.820   4.531   0.044  0.1758  1.6459 -1.5938
 4802TIP3   OH214369   4.202   3.866   2.014  0.0200 -0.1210  0.0024
 4802TIP3    H114370   4.123   3.901   2.056 -1.5954 -0.5842 -2.4481
 4802TIP3    H214371   4.176   3.780   1.982  0.8150  0.5148 -2.5901
 4803TIP3   OH214372   6.480   5.440   3.373  0.2152 -0.7726 -0.1733
 4803TIP3    H114373   6.554   5.470   3.321 -0.2051 -0.5951 -0.6701
 4803TIP3    H214374   6.411   5.504   3.357  0.7294  0.5052  2.2518
 4804TIP3   OH214375   4.614   2.278   5.323 -0.1670 -0.3510 -0.1130
 4804TIP3    H114376   4.545   2.325   5.277 -0.2514  0.3642  0.7238
 4804TIP3    H214377   4.602   2.186   5.298 -0.9733 -0.1323 -0.5323
 4805TIP3   OH214378   1.746   3.650   4.743 -0.0124  0.1384  0.0788
 4805TIP3    H114379   1.781   3.653   4.832  1.6249  0.7214 -0.5430
 4805TIP3    H214380   1.789   3.574   4.703 -0.1695  0.3135 -0.4216
 4806TIP3   OH214381   6.958   6.760   2.658 -0.3812 -0.5109  0.1824
 4806TIP3    H114382   6.942   6.819   2.732 -0.8571  0.4531 -0.6645
 4806TIP3    H214383   7.007   6.687   2.696 -1.1308 -0.3345  1.5705
 4807TIP3   OH214384   1.305   1.233   5.378 -0.2864  0.0114  0.4839
 4807TIP3    H114385   1.352   1.244   5.295 -0.5797 -0.5351  0.2398
 4807TIP3    H214386   1.286   1.322   5.407 -0.6221  0.2023 -0.2933
 4808TIP3   OH214387   1.909   3.273   5.377 -0.2500  0.2137  0.7305
 4808TIP3    H114388   1.960   3.281   5.458 -2.3128  1.7793  1.9633
 4808TIP3    H214389   1.849   3.348   5.378 -0.3353  0.3244 -2.3029
 4809TIP3   OH214390   5.263   1.850   2.851  0.3759 -0.3292  0.0745
 4809TIP3    H114391   5.265   1.800   2.770  2.0578 -1.8327  0.9895
 4809TIP3    H214392   5.269   1.785   2.920 -0.2329  0.9710  1.4087
 4810TIP3   OH214393   6.081   0.020   5.630 -0.4661  0.1419 -0.6838
 4810TIP3    H114394   6.163   0.069   5.628 -1.1388  1.3486 -0.2836
 4810TIP3    H214395   6.017   0.083   5.664 -1.8789 -0.2681 -2.4475
 4811TIP3   OH214396   0.756   1.346   3.945 -0.3027  0.0510 -0.0336
 4811TIP3    H114397   0.740   1.310   3.858  0.3275  0.3332 -0.2657
 4811TIP3    H214398   0.700   1.293   4.003 -1.4567  0.4842 -0.7194
 4812TIP3   OH214399   0.086   4.877   5.496 -0.0811 -0.4794 -0.9923
 4812TIP3    H114400   0.004   4.837   5.471 -0.5661 -1.3500  1.6361
 4812TIP3    H214401   0.068   4.971   5.497 -0.3651 -0.5017 -2.5472
 4813TIP3   OH214402   1.696   2.496   0.690 -0.6313  0.4849 -0.0430
 4813TIP3    H114403   1.707   2.416   0.742  2.8535 -0.9148 -2.5422
 4813TIP3    H214404   1.644   2.469   0.615 -1.9606  1.3941  0.5166
 4814TIP3   OH214405   1.701   6.296   4.141 -0.6620  0.2141 -0.0160
 4814TIP3    H114406   1.621   6.244   4.129 -0.2384 -0.6375  0.6666
 4814TIP3    H214407   1.748   6.287   4.058 -1.5336  1.2205 -0.6435
 4815TIP3   OH214408   5.822   5.810   4.093  0.5695 -0.2439  0.1894
 4815TIP3    H114409   5.762   5.737   4.077  0.2674  0.2986 -1.2876
 4815TIP3    H214410   5.770   5.873   4.142  0.5623 -0.6322  0.6886
 4816TIP3   OH214411   6.432   5.077   0.982 -0.1771 -0.6174 -0.0777
 4816TIP3    H114412   6.348   5.109   0.949 -0.0596  0.5624  0.6982
 4816TIP3    H214413   6.410   5.021   1.057 -0.3050 -1.0751 -0.4518
 4817TIP3   OH214414   3.187   3.162   3.040  0.1410  0.4243 -0.2572
 4817TIP3    H114415   3.154   3.142   2.952  1.1651 -1.2990 -0.2933
 4817TIP3    H214416   3.207   3.076   3.078 -0.3927  1.1229  1.7185
 4818TIP3   OH214417   1.857   0.711   2.012 -0.1529 -0.1052  0.0870
 4818TIP3    H114418   1.783   0.697   2.071 -0.9413 -0.3829 -0.9516
 4818TIP3    H214419   1.930   0.664   2.054 -0.7166 -0.3610  0.7975
 4819TIP3   OH214420   1.415   4.889   5.614 -0.0606  0.4280  0.0114
 4819TIP3    H114421   1.347   4.867   5.550  0.1502 -1.9851  0.4963
 4819TIP3    H214422   1.372   4.877   5.699  0.3946  0.9557  0.3191
 4820TIP3   OH214423   3.450   6.120   0.777  0.1335  0.3759  0.0716
 4820TIP3    H114424   3.432   6.131   0.870  0.7311 -0.6817  0.3316
 4820TIP3    H214425   3.366   6.135   0.734 -0.4860 -0.5593  0.9064
 4821TIP3   OH214426   3.736   1.487   5.523 -0.1468  0.0091 -0.4874
 4821TIP3    H114427   3.793   1.430   5.471  1.3864  1.7101 -0.7634
 4821TIP3    H214428   3.785   1.568   5.533 -2.8763  1.9652 -1.5649
 4822TIP3   OH214429   1.543   1.911   2.308 -0.6724  0.1910 -0.1677
 4822TIP3    H114430   1.521   1.819   2.320 -1.3351  0.4281  0.4963
 4822TIP3    H214431   1.574   1.940   2.393 -0.8677  0.6900 -0.2623
 4823TIP3   OH214432   2.609   2.500   1.595  0.0292 -0.0897 -0.1753
 4823TIP3    H114433   2.690   2.495   1.646 -0.7793 -0.3294  1.1421
 4823TIP3    H214434   2.581   2.408   1.587  0.5083 -0.1311 -1.7052
 4824TIP3   OH214435   5.405   6.455   0.372  0.3576 -0.0742  0.4003
 4824TIP3    H114436   5.385   6.362   0.358  1.0001 -0.0620 -0.7879
 4824TIP3    H214437   5.352   6.480   0.448 -0.7207 -1.1165  0.0351
 4825TIP3   OH214438   0.752   3.999   4.667 -0.0428  0.0699 -0.5313
 4825TIP3    H114439   0.784   4.016   4.756 -0.5742 -0.4183 -0.2465
 4825TIP3    H214440   0.823   4.031   4.610  1.2826 -1.6197  0.0921
 4826TIP3   OH214441   4.487   2.193   3.317 -0.0093 -0.1787  0.2878
 4826TIP3    H114442   4.449   2.267   3.364  1.5253  0.1822  1.0187
 4826TIP3    H214443   4.551   2.156   3.378 -1.3121 -2.6556  0.2915
 4827TIP3   OH214444   4.964   6.286   2.727 -0.0184 -0.4398  0.3818
 4827TIP3    H114445   4.901   6.218   2.752  0.7347 -0.8585  1.1780
 4827TIP3    H214446   4.916   6.368   2.739 -1.2373 -0.8178 -1.4387
 4828TIP3   OH214447   0.146   1.306   0.136  0.2901  0.1453 -0.0798
 4828TIP3    H114448   0.191   1.382   0.100 -0.0283  0.8795  1.0358
 4828TIP3    H214449   0.076   1.342   0.190  0.4369 -0.9212  0.8702
 4829TIP3   OH214450   3.427   6.596   5.199  0.1822 -0.6952  0.7037
 4829TIP3    H114451   3.380   6.515   5.175  0.9257 -0.8521 -0.2581
 4829TIP3    H214452   3.447   6.638   5.116  1.5162 -0.4905  1.1140
 4830TIP3   OH214453   4.729   2.627   0.640 -0.1739 -0.2756 -0.2673
 4830TIP3    H114454   4.738   2.624   0.545 -0.4761  0.1968 -0.3176
 4830TIP3    H214455   4.700   2.717   0.658 -0.3022 -0.4181  0.2535
 4831TIP3   OH214456   3.259   1.057   3.942 -0.8122 -0.3394  0.3031
 4831TIP3    H114457   3.174   1.080   3.904 -1.0896 -1.1998  0.3744
 4831TIP3    H214458   3.244   1.057   4.036 -1.0669 -1.6603  0.2841
 4832TIP3   OH214459   6.213   6.705   2.823 -0.4038 -0.7425 -0.7016
 4832TIP3    H114460   6.121   6.728   2.813 -0.0749  0.7191 -0.6512
 4832TIP3    H214461   6.228   6.707   2.917  0.0046  0.4993 -0.7748
 4833TIP3   OH214462   6.848   2.953   3.502 -0.3509  0.0456 -0.2255
 4833TIP3    H114463   6.920   3.014   3.513 -1.5644  1.8551 -1.6347
 4833TIP3    H214464   6.828   2.923   3.590  1.0243  0.8010  0.3771
 4834TIP3   OH214465   1.964   1.271   1.257  0.3472 -0.6105  0.0313
 4834TIP3    H114466   2.045   1.253   1.208  0.3134 -1.7708  0.3841
 4834TIP3    H214467   1.896   1.222   1.211  0.3913 -2.1020  1.4669
 4835TIP3   OH214468   6.293   3.700   2.924  0.6004  0.5394  0.2517
 4835TIP3    H114469   6.235   3.770   2.954  0.0579  0.2750 -0.1509
 4835TIP3    H214470   6.246   3.660   2.851  1.5097  0.6141 -0.3911
 4836TIP3   OH214471   6.023   5.895   3.737  0.1919 -0.6859 -0.2281
 4836TIP3    H114472   6.065   5.981   3.734 -0.0318 -0.5898 -0.5473
 4836TIP3    H214473   6.061   5.854   3.815  0.3413 -0.3225 -0.1039
 4837TIP3   OH214474   6.792   1.164   3.427 -0.0026 -0.2762  0.5048
 4837TIP3    H114475   6.841   1.228   3.479  1.1575 -0.1132 -0.7347
 4837TIP3    H214476   6.763   1.099   3.491 -0.6339  1.1126  1.6963
 4838TIP3   OH214477   0.567   1.957   3.669 -0.1313 -0.4815  0.4740
 4838TIP3    H114478   0.619   1.918   3.598  1.0383  3.2647 -0.9746
 4838TIP3    H214479   0.584   1.901   3.745  1.1537 -2.8361 -1.4045
 4839TIP3   OH214480   2.741   0.990   2.317 -0.7269  0.0973  0.4608
 4839TIP3    H114481   2.787   1.065   2.354 -0.2056  0.2193 -0.3997
 4839TIP3    H214482   2.805   0.918   2.322  0.0727  0.5498 -1.8406
 4840TIP3   OH214483   4.997   3.744   2.917 -0.1869  0.0243 -0.3604
 4840TIP3    H114484   5.003   3.744   3.012 -3.1056  1.5496 -0.0580
 4840TIP3    H214485   5.046   3.821   2.890 -0.5428  0.3981  0.0503
 4841TIP3   OH214486   0.750   6.188   3.040  0.2953  0.1953 -0.2040
 4841TIP3    H114487   0.811   6.246   2.995  0.9643  0.2751  0.7747
 4841TIP3    H214488   0.805   6.120   3.080 -0.0525  1.0778  1.9220
 4842TIP3   OH214489   1.044   6.619   1.965  0.1816  0.2076  0.2264
 4842TIP3    H114490   0.979   6.682   1.998  0.2884  0.7391 -0.5621
 4842TIP3    H214491   1.011   6.593   1.879  0.4902 -0.3123  0.2582
 4843TIP3   OH214492   6.509   5.720   2.076 -0.0524  0.2319  0.0620
 4843TIP3    H114493   6.531   5.794   2.019  0.1553  0.8271  0.8861
 4843TIP3    H214494   6.449   5.667   2.025  0.5915  0.4272 -0.9348
 4844TIP3   OH214495   3.779   4.968   0.264  0.7548 -0.2210  0.1120
 4844TIP3    H114496   3.706   4.931   0.313  0.1717  0.9296  0.1371
 4844TIP3    H214497   3.802   4.900   0.200 -0.5410 -0.4743 -0.1080
 4845TIP3   OH214498   4.793   5.585   2.258  0.5937 -0.4729  0.7100
 4845TIP3    H114499   4.858   5.517   2.240 -0.5060 -1.2008 -0.7886
 4845TIP3    H214500   4.781   5.629   2.174  1.4069  1.7289  1.6939
 4846TIP3   OH214501   0.094   1.359   5.559  0.5288  0.4102  0.5225
 4846TIP3    H114502   0.165   1.299   5.535  0.9398  1.5065 -1.1925
 4846TIP3    H214503   0.014   1.305   5.553  1.0331 -0.3632  0.6190
 4847TIP3   OH214504   1.756   3.127   0.095 -0.2200 -0.3592 -0.1976
 4847TIP3    H114505   1.805   3.131   0.012  0.3174 -1.0290  0.0807
 4847TIP3    H214506   1.671   3.090   0.070  0.4506 -1.9510 -0.2429
 4848TIP3   OH214507   2.573   5.595   5.126 -0.2664  0.2608  0.2935
 4848TIP3    H114508   2.592   5.546   5.046 -0.0693 -0.5673  0.8424
 4848TIP3    H214509   2.596   5.685   5.104  1.2659 -0.1989 -0.0967
 4849TIP3   OH214510   1.666   4.398   1.490 -0.7713 -0.2534 -0.5099
 4849TIP3    H114511   1.697   4.436   1.407 -0.0720 -1.2717 -0.7266
 4849TIP3    H214512   1.729   4.330   1.511 -0.7262  0.2361  1.0761
 4850TIP3   OH214513   2.963   5.881   0.606 -0.1285  0.4142  0.1733
 4850TIP3    H114514   3.006   5.796   0.606 -0.9164  0.0087 -0.4743
 4850TIP3    H214515   2.958   5.906   0.514  1.4102  1.8602  0.4184
 4851TIP3   OH214516   3.092   1.160   1.835  0.3255 -0.5630 -0.1916
 4851TIP3    H114517   3.044   1.189   1.913 -0.9315  0.0949 -1.1561
 4851TIP3    H214518   3.069   1.067   1.827  0.5385 -0.6601  0.2628
 4852TIP3   OH214519   3.265  -0.016   0.666 -0.0532 -0.2311  0.2801
 4852TIP3    H114520   3.246   0.064   0.616  1.7446  0.0372 -0.0634
 4852TIP3    H214521   3.221  -0.003   0.750  1.1091  1.6866  0.6653
 4853TIP3   OH214522   4.908   1.238   2.199  0.8525  0.0183 -0.0235
 4853TIP3    H114523   4.955   1.194   2.269  0.9078  0.3319  0.1388
 4853TIP3    H214524   4.888   1.169   2.136 -0.7415 -0.6103  1.1105
 4854TIP3   OH214525   3.621   5.824   4.414  0.1161  0.0191  0.0490
 4854TIP3    H114526   3.598   5.844   4.324 -1.1801 -0.4649  0.2423
 4854TIP3    H214527   3.716   5.814   4.414  0.2689  1.2836 -0.9913
 4855TIP3   OH214528   3.482   2.349   2.481 -0.0474  0.1667 -0.2529
 4855TIP3    H114529   3.435   2.419   2.436 -0.0235 -1.1260 -2.4508
 4855TIP3    H214530   3.553   2.393   2.528  1.7131  1.4963 -3.7809
 4856TIP3   OH214531   4.112   3.985   0.465  0.7701  0.2689  0.3298
 4856TIP3    H114532   4.113   3.920   0.535 -0.1734 -0.4991 -0.3583
 4856TIP3    H214533   4.152   3.941   0.390 -1.2829 -0.1096 -0.6148
 4857TIP3   OH214534   5.944   3.069   4.368 -0.0773 -0.3755  0.8496
 4857TIP3    H114535   5.935   3.164   4.368 -1.6651 -0.4844 -0.0988
 4857TIP3    H214536   6.034   3.053   4.396  1.2564  1.5073 -1.9315
 4858TIP3   OH214537   5.754   6.339   0.408  0.4834  0.2871  0.4359
 4858TIP3    H114538   5.834   6.290   0.395 -0.2232 -1.0502  0.9614
 4858TIP3    H214539   5.714   6.344   0.321  1.2859  1.2727  0.1061
 4859TIP3   OH214540   1.283   6.348   5.774  0.9765  0.3322  0.1560
 4859TIP3    H114541   1.232   6.358   5.694 -1.6752  0.9191  1.7990
 4859TIP3    H214542   1.336   6.428   5.780  1.3020  0.2234 -1.0187
 4860TIP3   OH214543   4.026   5.315   4.642 -0.8084  0.0940  0.5601
 4860TIP3    H114544   3.982   5.369   4.707  0.9916  0.4993  1.5013
 4860TIP3    H214545   4.037   5.230   4.685  1.2040  0.6294  1.2075
 4861TIP3   OH214546   3.177   3.194   3.667  0.7182  0.7147 -0.2589
 4861TIP3    H114547   3.210   3.271   3.620 -0.8302  1.3073 -0.4621
 4861TIP3    H214548   3.134   3.230   3.744  2.0145 -0.1524  0.8930
 4862TIP3   OH214549   4.366   6.220   4.768  0.6028  0.4453 -0.1885
 4862TIP3    H114550   4.395   6.284   4.703  3.0253 -0.2861  0.0906
 4862TIP3    H214551   4.431   6.150   4.765 -0.8572 -1.0584  0.9518
 4863TIP3   OH214552   4.843   0.451   4.375 -0.0449  0.5814  0.4169
 4863TIP3    H114553   4.749   0.470   4.381 -0.3762 -0.4990 -0.7165
 4863TIP3    H214554   4.882   0.532   4.342 -0.9030  0.4004 -1.1169
 4864TIP3   OH214555   7.075   3.553   5.010 -0.2009 -0.4359  0.7945
 4864TIP3    H114556   7.095   3.646   4.993  0.3603 -0.2649  2.2446
 4864TIP3    H214557   7.026   3.554   5.092  0.8375 -1.5013  1.4650
 4865TIP3   OH214558   3.656   6.618   3.817 -0.5452 -0.4979  0.3770
 4865TIP3    H114559   3.715   6.545   3.835  0.1839 -0.5989 -2.0615
 4865TIP3    H214560   3.715   6.689   3.790 -1.4615 -0.3364 -1.2995
 4866TIP3   OH214561   0.772   0.766   0.109 -0.1900  0.4342 -0.2001
 4866TIP3    H114562   0.769   0.802   0.197 -1.1111  1.0729 -0.4841
 4866TIP3    H214563   0.859   0.791   0.076  0.7765 -1.0973  1.0334
 4867TIP3   OH214564   3.698   6.413   4.200  0.5356 -0.1070 -0.2645
 4867TIP3    H114565   3.682   6.359   4.123  0.5608 -1.7552  0.8449
 4867TIP3    H214566   3.787   6.446   4.188  0.6572 -0.6099 -0.7892
 4868TIP3   OH214567   7.141   1.040   5.556 -0.0602 -0.2538  0.4523
 4868TIP3    H114568   7.095   1.094   5.620  0.0531 -0.3859  0.6470
 4868TIP3    H214569   7.128   0.950   5.587  1.4330 -0.2235  1.2644
 4869TIP3   OH214570   5.136   2.963   2.899  0.5691 -0.2378  0.4745
 4869TIP3    H114571   5.133   2.894   2.965  0.3176  0.0598  0.7831
 4869TIP3    H214572   5.223   2.956   2.860  0.4260 -0.9419  0.2692
 4870TIP3   OH214573   6.848   0.368   5.065  0.2684  0.0214  0.0479
 4870TIP3    H114574   6.920   0.429   5.081  0.4659  0.4356 -2.0484
 4870TIP3    H214575   6.870   0.327   4.981 -2.2366  0.6783 -1.0244
 4871TIP3   OH214576   6.400   3.937   2.447  0.4011  0.0929 -0.8718
 4871TIP3    H114577   6.481   3.903   2.409  0.2506 -0.6271 -0.5649
 4871TIP3    H214578   6.381   4.016   2.396  1.2854  0.2616 -0.9572
 4872TIP3   OH214579   1.452   1.305   0.839 -0.1471 -0.0176 -0.1547
 4872TIP3    H114580   1.481   1.310   0.748 -0.7965 -0.9719 -0.4361
 4872TIP3    H214581   1.533   1.304   0.889  0.4666 -3.0185 -0.9445
 4873TIP3   OH214582   4.588   0.483   4.419  0.5213  0.1123 -0.5336
 4873TIP3    H114583   4.507   0.463   4.372  1.6162 -1.1089 -2.0090
 4873TIP3    H214584   4.572   0.454   4.509 -0.1464 -1.6294 -1.1750
 4874TIP3   OH214585   1.177   3.428   1.443 -0.4005  1.0740  0.0244
 4874TIP3    H114586   1.150   3.407   1.354 -0.6368  0.4590  0.2309
 4874TIP3    H214587   1.202   3.520   1.440 -0.6270  1.1184 -0.6235
 4875TIP3   OH214588   2.167   2.108   4.634  0.0299 -0.4312 -0.0889
 4875TIP3    H114589   2.083   2.116   4.590 -0.2681 -4.0867 -0.4749
 4875TIP3    H214590   2.150   2.050   4.709  2.0588 -0.8060  0.1481
 4876TIP3   OH214591   4.733   1.576   3.536 -0.2167 -0.2977  0.1312
 4876TIP3    H114592   4.818   1.609   3.565  0.1493 -1.8583  0.9496
 4876TIP3    H214593   4.754   1.494   3.491 -1.1423  0.2233 -1.3002
 4877TIP3   OH214594   5.702   3.329   4.029  0.8479 -0.1807  0.3361
 4877TIP3    H114595   5.751   3.252   4.056  1.0484 -0.5605 -1.0053
 4877TIP3    H214596   5.768   3.389   3.995  0.6333  0.3660  0.8650
 4878TIP3   OH214597   0.399   2.877   5.567 -0.5341  0.3132  0.1847
 4878TIP3    H114598   0.389   2.867   5.662 -0.1039  2.3960  0.5004
 4878TIP3    H214599   0.344   2.953   5.545  0.3427  0.6364 -1.0098
 4879TIP3   OH214600   6.160   0.274   5.544  0.3842  0.1361  0.7443
 4879TIP3    H114601   6.103   0.235   5.478  1.5226  0.6993 -0.6125
 4879TIP3    H214602   6.235   0.214   5.549  1.1119  0.9813  0.2355
 4880TIP3   OH214603   6.641   6.340   2.078 -0.2049  0.3602 -0.0910
 4880TIP3    H114604   6.729   6.309   2.058  0.2882  1.5057  0.2260
 4880TIP3    H214605   6.606   6.275   2.140 -0.1599 -0.9002 -1.3422
 4881TIP3   OH214606   0.924   3.924   0.066 -0.0156 -0.0487 -0.4988
 4881TIP3    H114607   0.987   3.926  -0.006  0.6013  0.6104  0.0395
 4881TIP3    H214608   0.872   4.003   0.054  0.3353  0.2613 -0.0173
 4882TIP3   OH214609   0.598   0.083   0.356 -0.1418  1.0019 -0.4026
 4882TIP3    H114610   0.607   0.142   0.282 -0.5956  0.5677 -0.8064
 4882TIP3    H214611   0.661   0.116   0.421  1.3285  0.5375 -1.5300
 4883TIP3   OH214612   7.121   5.522   0.898 -0.3850 -0.3712  0.3247
 4883TIP3    H114613   7.098   5.567   0.979 -0.3258  2.4255 -1.0942
 4883TIP3    H214614   7.038   5.513   0.851 -0.4367 -2.0688  0.6937
 4884TIP3   OH214615   2.004   6.712   0.596  0.1244  0.0899 -0.1941
 4884TIP3    H114616   1.978   6.804   0.591  0.2839  0.2837  1.7453
 4884TIP3    H214617   1.948   6.675   0.665 -0.4971 -1.4850 -1.4944
 4885TIP3   OH214618   2.138   0.280   3.551  0.3072  0.1479  0.1415
 4885TIP3    H114619   2.212   0.340   3.545  1.1216 -0.8319  0.1641
 4885TIP3    H214620   2.162   0.219   3.621  0.0557 -0.9502 -0.7109
 4886TIP3   OH214621   0.525   3.761   5.592  0.3129 -0.3996 -0.4188
 4886TIP3    H114622   0.579   3.793   5.520  1.3311 -0.2646  0.3856
 4886TIP3    H214623   0.454   3.825   5.599 -0.4233 -1.0031 -1.9960
 4887TIP3   OH214624   6.973   5.918   5.436  0.4646 -0.3239 -0.0485
 4887TIP3    H114625   6.922   5.991   5.471  0.8997 -0.1424  0.2096
 4887TIP3    H214626   6.925   5.892   5.357 -0.6942 -0.9429  0.8436
 4888TIP3   OH214627   6.176   2.026   1.158 -0.3967  0.7798 -0.4925
 4888TIP3    H114628   6.209   2.034   1.069 -0.0962  0.1504 -0.4399
 4888TIP3    H214629   6.202   2.108   1.201 -1.9190  1.8019 -1.4087
 4889TIP3   OH214630   0.381   1.838   3.145  0.3573 -0.0312 -0.5423
 4889TIP3    H114631   0.477   1.834   3.154  0.5123 -1.0548 -2.1886
 4889TIP3    H214632   0.348   1.816   3.232  1.6036  1.2449  0.3085
 4890TIP3   OH214633   7.059   5.361   1.256  0.2018 -0.3264  0.3753
 4890TIP3    H114634   7.057   5.268   1.277  0.0759 -0.0428  1.7300
 4890TIP3    H214635   6.996   5.371   1.185  0.0146 -1.2354  0.4036
 4891TIP3   OH214636   4.626   0.511   2.927  0.0662 -0.3719  0.1765
 4891TIP3    H114637   4.694   0.491   2.863 -0.1906 -0.8206  0.0398
 4891TIP3    H214638   4.646   0.455   3.002 -1.4047 -2.1887 -0.7034
 4892TIP3   OH214639   0.422   4.560   1.040 -0.3524 -0.0358  0.1027
 4892TIP3    H114640   0.337   4.577   1.082 -0.8116 -1.6874 -0.0490
 4892TIP3    H214641   0.399   4.533   0.951  0.4544  1.0088 -0.4385
 4893TIP3   OH214642   4.928   5.174   1.945  0.8542 -0.4433  0.0857
 4893TIP3    H114643   4.928   5.270   1.939  1.4095 -0.5059 -1.2948
 4893TIP3    H214644   4.999   5.154   2.005  2.0091 -0.0239 -1.0810
 4894TIP3   OH214645   5.817   2.427   5.508 -0.0261 -0.3192 -0.0708
 4894TIP3    H114646   5.724   2.422   5.528  0.1112 -1.2688  0.3698
 4894TIP3    H214647   5.853   2.487   5.574 -0.1212 -0.9048  0.5181
 4895TIP3   OH214648   4.632   6.100   5.351 -0.1048  0.5354  0.1937
 4895TIP3    H114649   4.540   6.123   5.342  0.1944  1.9258  0.4379
 4895TIP3    H214650   4.642   6.079   5.444  0.0658  1.5576  0.4119
 4896TIP3   OH214651   2.889   1.282   2.002  0.3393  0.1242 -0.3013
 4896TIP3    H114652   2.871   1.364   1.955 -0.7450  1.4571  2.2432
 4896TIP3    H214653   2.813   1.227   1.984 -0.4536  0.9316  0.4555
 4897TIP3   OH214654   6.992   6.086   0.221  0.3972 -0.1048  0.1808
 4897TIP3    H114655   7.059   6.149   0.193  0.0227 -0.4432 -1.5954
 4897TIP3    H214656   7.031   6.041   0.296  0.8943  1.8343  1.1429
 4898TIP3   OH214657   0.569   6.200   2.013 -0.2398 -0.4242 -0.1344
 4898TIP3    H114658   0.580   6.152   1.931  0.7103  2.6341 -1.9397
 4898TIP3    H214659   0.477   6.229   2.012  0.1737  0.9368 -0.9634
 4899TIP3   OH214660   6.053   3.582   2.250 -0.4359 -0.8966  0.0643
 4899TIP3    H114661   6.038   3.629   2.331 -0.6410 -0.3787 -0.2695
 4899TIP3    H214662   6.148   3.587   2.236 -0.4372 -0.7293  0.1173
 4900TIP3   OH214663   7.195   3.998   0.694  0.0177  0.0714  0.4654
 4900TIP3    H114664   7.238   3.957   0.769  1.7816 -0.8894 -0.9800
 4900TIP3    H214665   7.249   3.973   0.619 -1.5408  1.1833 -1.1117
 4901TIP3   OH214666   4.413   4.313   2.009 -0.4965  0.3751  0.3808
 4901TIP3    H114667   4.368   4.317   2.093  0.4063 -0.2994  0.9071
 4901TIP3    H214668   4.377   4.235   1.966 -0.9642  0.7249  0.1293
 4902TIP3   OH214669   1.210   6.135   2.533 -0.2538  0.0416 -0.7566
 4902TIP3    H114670   1.299   6.156   2.504  0.0306 -0.8324 -0.5644
 4902TIP3    H214671   1.166   6.219   2.539  0.3565  0.4275 -1.5310
 4903TIP3   OH214672   0.277   4.484   3.743  0.1491  0.4840 -0.1963
 4903TIP3    H114673   0.334   4.440   3.807 -0.3146 -0.7405 -0.5910
 4903TIP3    H214674   0.278   4.426   3.667 -3.1535 -0.6792  0.4723
 4904TIP3   OH214675   0.760   0.145   0.564 -0.3055  0.1823 -0.2451
 4904TIP3    H114676   0.730   0.054   0.566 -1.5456  0.4309  4.3114
 4904TIP3    H214677   0.855   0.140   0.555 -0.2138 -1.7217  1.2418
 4905TIP3   OH214678   3.011   4.249   0.089  0.1073 -0.4260  0.2281
 4905TIP3    H114679   2.975   4.263   0.177  0.2124 -2.0073  0.5488
 4905TIP3    H214680   3.094   4.204   0.104 -0.5270 -2.0029 -0.7025
 4906TIP3   OH214681   3.009   5.431   3.688 -0.3198  0.0635 -0.5285
 4906TIP3    H114682   3.041   5.345   3.662 -2.0953 -0.6399 -0.4746
 4906TIP3    H214683   2.964   5.465   3.610 -0.2546  0.6449 -0.3212
 4907TIP3   OH214684   2.104   2.669   5.235  0.3427  0.2092  0.1922
 4907TIP3    H114685   2.028   2.657   5.292 -0.2951  0.6702 -0.5314
 4907TIP3    H214686   2.172   2.613   5.272 -0.3306 -0.1547  0.8947
 4908TIP3   OH214687   1.194   0.511   2.025 -0.1171  0.2159  0.6454
 4908TIP3    H114688   1.280   0.548   2.006 -0.7924  0.5981 -2.1836
 4908TIP3    H214689   1.135   0.587   2.029 -0.4686 -0.1008  1.5910
 4909TIP3   OH214690   3.422   6.703   0.868 -0.5188  0.4223 -0.3836
 4909TIP3    H114691   3.359   6.685   0.938  0.9917 -1.9142  0.4649
 4909TIP3    H214692   3.480   6.770   0.905  0.4487 -1.0093  0.7664
 4910TIP3   OH214693   2.585   4.141   3.170  0.2969 -0.1953 -0.3923
 4910TIP3    H114694   2.590   4.222   3.119  0.7053 -0.3227 -0.5612
 4910TIP3    H214695   2.492   4.131   3.191  0.3210  0.6892  0.2273
 4911TIP3   OH214696   5.288   4.971   5.174  0.0946  0.3645 -0.2024
 4911TIP3    H114697   5.339   4.943   5.098 -0.8222 -1.7264 -0.1102
 4911TIP3    H214698   5.299   4.899   5.237 -2.4715  0.1204  0.0428
 4912TIP3   OH214699   2.344   2.055   1.147  0.2361  0.6073  0.2959
 4912TIP3    H114700   2.416   1.998   1.120 -1.4180 -1.6497  0.2898
 4912TIP3    H214701   2.329   2.033   1.239 -0.0925  1.4243  0.4409
 4913TIP3   OH214702   6.038   4.896   1.818  0.5201 -0.3267 -0.3480
 4913TIP3    H114703   6.037   4.953   1.741 -0.5698  0.0225 -0.0942
 4913TIP3    H214704   6.126   4.904   1.853  0.5460  0.7636 -0.6443
 4914TIP3   OH214705   4.651   1.648   5.067 -0.2392 -0.1187 -0.8281
 4914TIP3    H114706   4.577   1.695   5.105  1.8206  2.4706  0.3091
 4914TIP3    H214707   4.666   1.574   5.125 -0.4943  0.6915  0.2898
 4915TIP3   OH214708   0.899   2.139   1.112 -0.1373  0.5613 -0.0903
 4915TIP3    H114709   0.967   2.193   1.153  0.1816  1.1546 -1.3513
 4915TIP3    H214710   0.817   2.182   1.134 -0.2484 -0.7359  2.3297
 4916TIP3   OH214711   4.163   0.353   3.195 -0.1676  0.2709  0.0184
 4916TIP3    H114712   4.186   0.311   3.112 -0.2663 -0.6780  0.4559
 4916TIP3    H214713   4.072   0.379   3.185 -0.9234 -1.9208  0.6118
 4917TIP3   OH214714   6.945   4.328   5.022  0.2546  0.0549 -0.7853
 4917TIP3    H114715   7.026   4.376   5.005  0.1324  0.4980 -0.1696
 4917TIP3    H214716   6.887   4.353   4.950  0.8069 -0.6358 -1.4961
 4918TIP3   OH214717   5.992   1.824   3.903 -0.5242 -0.5537 -0.1897
 4918TIP3    H114718   5.958   1.894   3.847 -0.1654 -0.9779 -0.9698
 4918TIP3    H214719   6.069   1.791   3.855  0.5359 -0.1062  1.1594
 4919TIP3   OH214720   2.130   5.793   3.381 -0.1408  0.4783 -0.1637
 4919TIP3    H114721   2.164   5.860   3.441 -0.6331  1.5230 -1.0197
 4919TIP3    H214722   2.063   5.838   3.330  1.1495  0.0143 -2.4013
 4920TIP3   OH214723   3.234   4.433   1.480  0.2932 -0.0696 -1.0234
 4920TIP3    H114724   3.229   4.529   1.482 -1.2660 -0.1055  1.9457
 4920TIP3    H214725   3.253   4.412   1.388 -1.0186  3.0006 -2.1198
 4921TIP3   OH214726   5.469   1.837   1.813  0.0826 -0.1615  0.1243
 4921TIP3    H114727   5.443   1.755   1.769  1.4673  0.2580 -1.6061
 4921TIP3    H214728   5.552   1.860   1.772  2.2098 -0.3513  3.8799
 4922TIP3   OH214729   2.648   5.496   3.374  0.1981 -0.1622 -0.4391
 4922TIP3    H114730   2.651   5.525   3.283  0.2020  0.2593 -0.3111
 4922TIP3    H214731   2.682   5.407   3.373 -0.0037 -0.2341 -0.8787
 4923TIP3   OH214732   5.863   4.691   0.860 -0.1875  0.0742 -0.1962
 4923TIP3    H114733   5.824   4.607   0.884  0.4807 -0.2048 -0.0695
 4923TIP3    H214734   5.867   4.688   0.764 -3.5588  1.5007 -0.5169
 4924TIP3   OH214735   5.299   1.125   0.390  0.4496  0.5752 -0.0469
 4924TIP3    H114736   5.239   1.105   0.318  0.7523 -0.1646 -0.1071
 4924TIP3    H214737   5.363   1.053   0.388  0.0839  0.1736  1.3651
 4925TIP3   OH214738   6.046   4.858   0.964  0.0165  0.0268 -0.4578
 4925TIP3    H114739   5.987   4.800   0.917  0.7453  0.1913 -1.6212
 4925TIP3    H214740   6.052   4.936   0.909  1.0247  0.1615 -0.1857
 4926TIP3   OH214741   1.416   1.561   0.729 -0.3666 -0.0683 -0.4934
 4926TIP3    H114742   1.493   1.555   0.785 -0.4703  0.8250 -0.2386
 4926TIP3    H214743   1.364   1.484   0.752 -0.7231  0.6138  1.1528
 4927TIP3   OH214744   1.387   1.280   2.563 -0.4488 -0.1815  0.2415
 4927TIP3    H114745   1.443   1.204   2.582  0.4085  0.3418 -0.1078
 4927TIP3    H214746   1.299   1.251   2.585 -0.0683 -1.1061  0.6105
 4928TIP3   OH214747   2.774   0.583   4.265  0.1427 -0.2661  0.1000
 4928TIP3    H114748   2.815   0.575   4.179 -0.6763  0.1153 -0.3338
 4928TIP3    H214749   2.689   0.540   4.256 -0.3163  0.5325  0.4492
 4929TIP3   OH214750   1.435   3.011   3.196 -0.5241 -0.1238 -0.0338
 4929TIP3    H114751   1.378   2.970   3.131  0.0737 -1.0595  0.0118
 4929TIP3    H214752   1.515   2.959   3.195 -0.2631  0.2176  1.0042
 4930TIP3   OH214753   0.301   1.748   0.437  0.1162 -0.2096 -0.8129
 4930TIP3    H114754   0.384   1.702   0.448 -0.1208 -0.2596  1.1229
 4930TIP3    H214755   0.235   1.678   0.440 -0.1296  0.0569  0.2248
 4931TIP3   OH214756   4.867   1.497   3.873 -0.1892 -0.2078  0.0665
 4931TIP3    H114757   4.876   1.416   3.824  0.9758 -0.3010  0.3935
 4931TIP3    H214758   4.950   1.542   3.860 -0.0486  0.0118  1.5029
 4932TIP3   OH214759   3.356   1.356   2.501 -0.3522  0.5542  0.4903
 4932TIP3    H114760   3.406   1.428   2.462  0.5762 -0.5256 -0.4141
 4932TIP3    H214761   3.410   1.327   2.574 -0.3548  0.3149  0.3984
 4933TIP3   OH214762   4.430   6.739   1.497  0.0847  0.2347  0.2899
 4933TIP3    H114763   4.407   6.682   1.571  0.5756  0.0048  0.2728
 4933TIP3    H214764   4.471   6.680   1.434 -1.1476  0.2582 -0.5660
 4934TIP3   OH214765   6.864   0.068   5.873  0.0509  0.4009 -0.2770
 4934TIP3    H114766   6.884  -0.002   5.811  0.6503  0.8990 -0.6635
 4934TIP3    H214767   6.856   0.024   5.958 -0.5063 -0.2521 -0.6589
 4935TIP3   OH214768   2.777   1.268   2.349 -0.1142 -0.4052 -0.0732
 4935TIP3    H114769   2.730   1.324   2.288 -1.0317 -0.3191  0.6826
 4935TIP3    H214770   2.824   1.328   2.406 -2.3588 -0.2527  1.7541
 4936TIP3   OH214771   3.603   2.028   1.666 -0.1645  0.6428  0.5145
 4936TIP3    H114772   3.545   2.055   1.738 -3.6293 -1.6624 -1.1834
 4936TIP3    H214773   3.611   1.933   1.675 -0.0592  0.3962 -1.6931
 4937TIP3   OH214774   1.406   2.141   5.337  0.4601 -0.2382 -0.0505
 4937TIP3    H114775   1.370   2.107   5.255  2.1429  1.4767 -1.5690
 4937TIP3    H214776   1.463   2.213   5.311  1.0309  0.3938  2.6488
 4938TIP3   OH214777   1.132   2.369   4.123 -0.6999 -0.2910  0.2552
 4938TIP3    H114778   1.167   2.427   4.190 -1.9353  1.1567 -0.2915
 4938TIP3    H214779   1.147   2.281   4.157  0.9805  0.3295  1.2379
 4939TIP3   OH214780   0.119   2.882   4.332 -0.5443 -0.2559 -0.1576
 4939TIP3    H114781   0.059   2.906   4.261 -1.9436 -1.3723  0.6109
 4939TIP3    H214782   0.160   2.801   4.303  0.1676  0.1816 -0.4106
 4940TIP3   OH214783   4.277   0.936   0.738 -0.4884  0.8370  0.1687
 4940TIP3    H114784   4.192   0.968   0.766 -0.7018 -0.4238  1.0779
 4940TIP3    H214785   4.258   0.880   0.662 -0.4187  0.8995  0.1049
 4941TIP3   OH214786   2.270   1.974   2.272 -0.2405 -0.2805 -0.1344
 4941TIP3    H114787   2.200   2.002   2.213 -0.1262 -0.2311 -0.2470
 4941TIP3    H214788   2.330   1.923   2.217  0.3640  0.5580 -0.2861
 4942TIP3   OH214789   0.813   3.190   0.835  0.0862  0.2653  0.0135
 4942TIP3    H114790   0.863   3.111   0.852 -0.6248 -0.3690 -0.7437
 4942TIP3    H214791   0.878   3.255   0.808  0.6085 -0.2387  0.0443
 4943TIP3   OH214792   2.350   6.653   0.066  0.0437  0.3888 -0.0582
 4943TIP3    H114793   2.327   6.725   0.008 -0.4811  2.7609  2.8231
 4943TIP3    H214794   2.441   6.632   0.043  0.2943  2.1683 -0.8506
 4944TIP3   OH214795   0.759   4.625   5.359 -0.2398 -0.2840  0.0936
 4944TIP3    H114796   0.801   4.562   5.300  0.6779 -0.1841  0.6247
 4944TIP3    H214797   0.672   4.588   5.375 -0.2787 -0.6268 -0.8248
 4945TIP3   OH214798   7.076   3.068   2.692  0.0182 -0.2326 -0.1340
 4945TIP3    H114799   7.156   3.029   2.657 -0.4084 -0.2193 -1.1365
 4945TIP3    H214800   7.105   3.114   2.771  0.7004 -1.6858  0.4916
 4946TIP3   OH214801   6.580   6.385   2.544  0.3120 -0.3987  0.0197
 4946TIP3    H114802   6.578   6.293   2.519  1.1577 -0.7374  1.1162
 4946TIP3    H214803   6.654   6.392   2.604  0.4225  1.0515 -0.2431
 4947TIP3   OH214804   6.177   3.136   4.459  0.2244  0.5786  0.7782
 4947TIP3    H114805   6.125   3.200   4.507  0.4100  2.1748 -1.0034
 4947TIP3    H214806   6.263   3.177   4.448  0.7917 -0.5641  0.7379
 4948TIP3   OH214807   0.490   2.064   2.863  0.1146 -0.1379  0.3394
 4948TIP3    H114808   0.480   2.121   2.787  0.1018  1.6576  1.6260
 4948TIP3    H214809   0.408   2.074   2.912 -0.2745 -2.0193  0.1366
 4949TIP3   OH214810   0.408   6.154   0.211 -0.1947  0.0898 -0.4433
 4949TIP3    H114811   0.329   6.102   0.203  0.0873 -0.5624  0.7101
 4949TIP3    H214812   0.393   6.230   0.155 -1.2121 -0.5141 -1.0175
 4950TIP3   OH214813   5.432   6.193   2.777 -0.1697  0.3571 -0.1759
 4950TIP3    H114814   5.471   6.277   2.756  1.0888  0.3843  1.9283
 4950TIP3    H214815   5.346   6.215   2.814  0.0229  0.6981  0.0741
 4951TIP3   OH214816   1.863   0.885   3.558 -0.4015  0.2203  0.1416
 4951TIP3    H114817   1.914   0.916   3.483  2.1447 -0.6547  1.3773
 4951TIP3    H214818   1.882   0.791   3.562  1.5608  0.6338  3.2317
 4952TIP3   OH214819   2.607   3.914   4.835  0.5090 -0.0026  0.6526
 4952TIP3    H114820   2.690   3.961   4.832  0.9932 -0.7488  1.7017
 4952TIP3    H214821   2.567   3.940   4.918 -0.2009  0.1647  0.2671
 4953TIP3   OH214822   4.589   3.431   4.936 -0.1429 -0.1645 -0.4310
 4953TIP3    H114823   4.621   3.406   5.022 -0.4632 -1.6221 -0.7083
 4953TIP3    H214824   4.630   3.516   4.919 -1.7390  1.2101  2.0316
 4954TIP3   OH214825   0.599   2.895   0.266 -0.1254  0.1651 -0.0851
 4954TIP3    H114826   0.598   2.800   0.256 -0.0021  0.1112  0.4239
 4954TIP3    H214827   0.632   2.910   0.354 -1.0146  0.6539  0.1768
 4955TIP3   OH214828   6.227   3.408   1.707 -0.2205  0.1911 -0.1008
 4955TIP3    H114829   6.263   3.484   1.661  0.5245  0.3265  0.6623
 4955TIP3    H214830   6.182   3.357   1.640 -0.4217  1.1210 -0.6926
 4956TIP3   OH214831   5.398   1.230   3.137  0.3807 -0.4311 -0.2378
 4956TIP3    H114832   5.433   1.248   3.050 -1.6120  1.4330 -0.7411
 4956TIP3    H214833   5.305   1.215   3.122 -0.7518  3.3530  1.8290
 4957TIP3   OH214834   5.578   5.365   4.869 -0.9666  0.1856 -0.0191
 4957TIP3    H114835   5.613   5.454   4.860 -0.3019 -0.1766 -1.2426
 4957TIP3    H214836   5.486   5.378   4.890 -0.5840  1.1599  1.2236
 4958TIP3   OH214837   0.916   4.200   2.514 -0.5939  0.1605  0.4647
 4958TIP3    H114838   0.932   4.262   2.584  1.1375 -1.8802  2.0049
 4958TIP3    H214839   0.996   4.201   2.462 -1.0224  0.0801 -0.2083
 4959TIP3   OH214840   6.412   4.879   4.753  0.0322 -0.5276 -0.2390
 4959TIP3    H114841   6.432   4.803   4.699  0.1626 -0.3103 -0.4986
 4959TIP3    H214842   6.449   4.858   4.839 -2.3268 -1.9773  0.5400
 4960TIP3   OH214843   1.896   0.367   3.405  0.0503 -0.1399  0.0624
 4960TIP3    H114844   1.862   0.280   3.384  2.5822 -1.0825 -0.4805
 4960TIP3    H214845   1.973   0.351   3.460 -0.2088  1.8453  1.1129
 4961TIP3   OH214846   2.600   1.106   5.174  0.2287  0.1683  0.3304
 4961TIP3    H114847   2.676   1.101   5.116 -0.0423 -0.0954 -0.0045
 4961TIP3    H214848   2.583   1.016   5.201  1.4331  0.4504  2.2659
 4962TIP3   OH214849   5.406   0.589   0.211 -0.0854 -0.5591 -0.0939
 4962TIP3    H114850   5.481   0.648   0.215  0.0950 -0.8713  1.9873
 4962TIP3    H214851   5.405   0.545   0.296 -3.6867  0.7576  0.6866
 4963TIP3   OH214852   3.505   1.166   2.077  0.2126  0.0374  0.1680
 4963TIP3    H114853   3.532   1.196   2.163 -0.1830 -1.4140  0.8151
 4963TIP3    H214854   3.572   1.104   2.050  0.1003  0.1468 -0.3863
 4964TIP3   OH214855   1.103   3.993   2.108  0.6576  0.2643  0.3063
 4964TIP3    H114856   1.150   4.074   2.127  1.1898  0.1355 -0.3954
 4964TIP3    H214857   1.090   3.994   2.013  0.7616 -0.5188  0.2732
 4965TIP3   OH214858   5.593   6.683   4.440 -0.0875  0.3362  0.7426
 4965TIP3    H114859   5.507   6.649   4.463  0.8352 -1.8398  1.2738
 4965TIP3    H214860   5.598   6.673   4.345  0.1980 -1.2806  0.8871
 4966TIP3   OH214861   5.110   5.358   0.500 -0.2547  0.7679 -0.3773
 4966TIP3    H114862   5.155   5.313   0.572 -0.9366 -0.1054 -0.4708
 4966TIP3    H214863   5.074   5.437   0.540 -1.2639 -0.0658  0.4615
 4967TIP3   OH214864   2.965   0.119   1.911 -0.0245 -0.0018 -0.3913
 4967TIP3    H114865   2.901   0.189   1.902  1.1417  1.2465  0.5071
 4967TIP3    H214866   2.961   0.094   2.003  0.7145  0.0526 -0.3362
 4968TIP3   OH214867   2.618   3.764   4.568  0.6498  0.0633  0.1582
 4968TIP3    H114868   2.547   3.700   4.574  0.4347  0.2036 -0.7034
 4968TIP3    H214869   2.611   3.815   4.648 -1.4999  1.3636 -0.7484
 4969TIP3   OH214870   1.154   0.833   0.493  0.1394  0.2803  0.0530
 4969TIP3    H114871   1.204   0.909   0.524  1.6427 -0.0874 -1.3564
 4969TIP3    H214872   1.185   0.760   0.547 -0.5362  0.4638  0.6968
 4970TIP3   OH214873   0.646   5.208   0.448  0.0694  0.5000  0.3937
 4970TIP3    H114874   0.689   5.190   0.365 -0.5218  0.6098  0.0613
 4970TIP3    H214875   0.640   5.123   0.491 -0.3319  0.3115 -0.0227
 4971TIP3   OH214876   6.500   4.148   2.740  0.2357  0.9815  0.5082
 4971TIP3    H114877   6.546   4.158   2.824  0.9011  2.7124 -0.0251
 4971TIP3    H214878   6.508   4.233   2.698  1.2221 -0.2469 -1.9965
 4972TIP3   OH214879   5.207   2.816   1.621  0.2382  0.1658 -0.8077
 4972TIP3    H114880   5.263   2.743   1.647 -0.1060  0.3789  0.5821
 4972TIP3    H214881   5.121   2.796   1.658  0.3421  1.6614  0.3585
 4973TIP3   OH214882   1.799   0.725   0.900 -0.7024  0.5024 -0.4556
 4973TIP3    H114883   1.893   0.720   0.884 -0.7306  0.1250 -0.5074
 4973TIP3    H214884   1.789   0.694   0.990 -0.8674 -0.3166 -0.7457
 4974TIP3   OH214885   2.154   5.043   0.822  0.1991  0.2907 -0.2258
 4974TIP3    H114886   2.084   4.997   0.775  0.4241 -1.0670  0.7016
 4974TIP3    H214887   2.158   4.999   0.907  0.9418  1.5729  0.4377
 4975TIP3   OH214888   7.124   1.891   2.936  0.3995  0.1187 -0.1751
 4975TIP3    H114889   7.126   1.986   2.927 -0.4388  0.2065  0.4349
 4975TIP3    H214890   7.211   1.868   2.967  0.7533  0.6369 -0.7660
 4976TIP3   OH214891   0.516   2.400   1.699 -0.6310 -0.5921 -0.5768
 4976TIP3    H114892   0.503   2.361   1.785 -1.0732 -0.2301 -0.4755
 4976TIP3    H214893   0.607   2.381   1.677  0.3977  1.7049  1.2064
 4977TIP3   OH214894   2.580   3.225   1.067  0.4174  0.0919 -0.1020
 4977TIP3    H114895   2.595   3.320   1.065 -1.7623  0.4851 -0.0745
 4977TIP3    H214896   2.536   3.206   0.984 -0.9444 -0.5460  0.7468
 4978TIP3   OH214897   2.861   5.607   1.742  0.1796  0.2714 -0.5636
 4978TIP3    H114898   2.940   5.634   1.697  1.3539 -0.6442  0.8607
 4978TIP3    H214899   2.815   5.689   1.761 -0.2521  0.7092 -3.0823
 4979TIP3   OH214900   1.971   5.336   2.727  0.0649 -0.2190 -0.4014
 4979TIP3    H114901   1.904   5.336   2.796  0.1385 -1.1606 -0.3208
 4979TIP3    H214902   1.951   5.259   2.674  1.7912 -1.2113  0.3221
 4980TIP3   OH214903   4.996   0.508   0.123 -0.0128 -0.7309  0.5019
 4980TIP3    H114904   5.066   0.573   0.129 -0.1099 -0.3054 -1.8891
 4980TIP3    H214905   5.042   0.424   0.134  0.5485 -0.3717  0.9563
 4981TIP3   OH214906   0.398   0.048   1.222 -0.0433  0.2164 -0.5760
 4981TIP3    H114907   0.334  -0.022   1.233  0.3870 -0.1020 -0.0502
 4981TIP3    H214908   0.359   0.123   1.266  0.1380 -0.1027  0.1410
 4982TIP3   OH214909   6.693   5.826   0.107  0.1093 -0.2221 -0.0949
 4982TIP3    H114910   6.751   5.843   0.033 -0.2533 -0.0519 -0.3456
 4982TIP3    H214911   6.627   5.766   0.072  0.1123 -0.3849  0.1761
 4983TIP3   OH214912   0.186   1.900   1.922  0.2323 -0.2326 -0.0517
 4983TIP3    H114913   0.183   1.949   1.840  0.8792  0.9018  0.5820
 4983TIP3    H214914   0.188   1.808   1.896 -1.3418  0.0409 -1.2666
 4984TIP3   OH214915   5.905   2.412   0.894 -0.1659 -0.0623  0.3118
 4984TIP3    H114916   5.926   2.418   0.800  0.9026 -2.2740  0.3464
 4984TIP3    H214917   5.967   2.347   0.928 -0.6044  0.6096  2.5572
 4985TIP3   OH214918   0.462   0.872   0.805  0.0469 -0.0459  0.1401
 4985TIP3    H114919   0.487   0.785   0.837  1.6916 -0.0466 -1.0067
 4985TIP3    H214920   0.513   0.883   0.724 -1.3323  1.3531 -0.5751
 4986TIP3   OH214921   6.549   4.433   0.603  0.1803  0.2813 -0.1544
 4986TIP3    H114922   6.570   4.410   0.693  0.8856  0.4523 -0.2710
 4986TIP3    H214923   6.477   4.374   0.580  1.3398 -1.2161 -0.1432
 4987TIP3   OH214924   5.327   2.473   4.904 -0.2240 -0.1085  0.1456
 4987TIP3    H114925   5.271   2.546   4.878  1.1975  1.0237  0.1337
 4987TIP3    H214926   5.339   2.485   4.999 -1.2907 -1.2879  0.4521
 4988TIP3   OH214927   0.180   3.011   3.220  0.0993  0.4139 -0.0695
 4988TIP3    H114928   0.172   2.916   3.208  0.7588 -0.1146  3.0022
 4988TIP3    H214929   0.270   3.031   3.191  0.0494  0.0861 -0.4688
 4989TIP3   OH214930   4.862   2.122   2.953 -0.1196 -0.0884  0.3344
 4989TIP3    H114931   4.938   2.121   2.895 -1.1314 -0.4496 -1.0188
 4989TIP3    H214932   4.830   2.032   2.953  0.3012 -0.2742  2.0879
 4990TIP3   OH214933   6.487   0.338   3.841 -0.7055 -0.3274 -0.0090
 4990TIP3    H114934   6.550   0.370   3.776 -1.5700 -0.9851 -1.2246
 4990TIP3    H214935   6.541   0.308   3.914  0.4570 -1.2871 -1.1943
 4991TIP3   OH214936   5.218   6.491   0.600  0.3199  0.2668 -0.3652
 4991TIP3    H114937   5.251   6.577   0.626  1.7615 -0.3695 -0.0334
 4991TIP3    H214938   5.155   6.511   0.530  0.3556  1.6124 -0.0481
 4992TIP3   OH214939   5.554   2.937   1.710  0.5543 -0.1080 -0.2593
 4992TIP3    H114940   5.588   2.889   1.634  0.1413 -0.6256 -0.1256
 4992TIP3    H214941   5.569   2.878   1.784 -1.5733 -0.8158 -0.3441
 4993TIP3   OH214942   0.538   6.531   3.075  0.1966 -0.3162  1.1242
 4993TIP3    H114943   0.492   6.483   3.006  0.2363  0.9957  0.1419
 4993TIP3    H214944   0.586   6.464   3.124  1.8696 -1.1076 -1.4202
 4994TIP3   OH214945   2.625   1.358   5.452 -0.2606  0.2562 -0.4890
 4994TIP3    H114946   2.557   1.361   5.385 -2.8517  0.4947  1.9577
 4994TIP3    H214947   2.624   1.446   5.490  0.9077  0.0340  0.0814
 4995TIP3   OH214948   3.353   5.360   3.949 -0.0415 -0.0893 -0.6062
 4995TIP3    H114949   3.324   5.275   3.981  0.8929 -0.3764 -0.4857
 4995TIP3    H214950   3.439   5.342   3.909 -0.3239  0.5989 -1.5568
 4996TIP3   OH214951   5.692   5.601   4.825  0.3022 -0.1033 -0.3862
 4996TIP3    H114952   5.777   5.609   4.868 -0.3035 -0.8881  1.0113
 4996TIP3    H214953   5.643   5.677   4.854  0.4647  0.2912 -1.1072
 4997TIP3   OH214954   5.103   5.113   1.685  0.6945 -0.7168 -1.1302
 4997TIP3    H114955   5.050   5.148   1.757  0.8155 -0.1769 -1.3043
 4997TIP3    H214956   5.127   5.189   1.633  0.9251 -1.0626 -1.5362
 4998TIP3   OH214957   7.221   5.750   4.338  0.7203  0.1601  0.6550
 4998TIP3    H114958   7.153   5.697   4.380  2.0343 -0.8553  1.5885
 4998TIP3    H214959   7.177   5.791   4.264 -0.9043 -0.4728  1.2199
 4999TIP3   OH214960   5.142   3.381   1.557  0.2883 -0.2175 -0.6192
 4999TIP3    H114961   5.234   3.365   1.538  0.1123 -0.0513 -1.6425
 4999TIP3    H214962   5.139   3.471   1.589  0.2117  0.6010 -2.7565
 5000TIP3   OH214963   4.389   4.123   4.308 -0.3409  0.1661 -0.0809
 5000TIP3    H114964   4.478   4.108   4.340 -0.9909 -0.6540  1.4274
 5000TIP3    H214965   4.396   4.202   4.255  1.4111 -0.2727 -0.5603
 5001TIP3   OH214966   3.309   0.218   3.511 -0.8810 -0.0090 -0.0885
 5001TIP3    H114967   3.403   0.201   3.501 -1.1529 -1.0874 -1.0225
 5001TIP3    H214968   3.305   0.308   3.542  0.4717 -0.0277  0.2270
 5002TIP3   OH214969   6.622   1.966   2.866 -0.1806  0.1899  0.0377
 5002TIP3    H114970   6.584   2.043   2.909 -2.1650 -0.0598 -1.1456
 5002TIP3    H214971   6.558   1.896   2.881  0.9088 -0.8718 -0.1250
 5003TIP3   OH214972   4.218   3.515   0.592  0.2516 -0.0076  0.1690
 5003TIP3    H114973   4.236   3.592   0.647  1.9393 -1.1347  1.2859
 5003TIP3    H214974   4.139   3.476   0.631  1.0660 -0.4369  1.4660
 5004TIP3   OH214975   1.227   1.023   4.678 -0.1394 -0.5405 -0.1214
 5004TIP3    H114976   1.185   0.937   4.670  1.0720 -1.6223  3.2029
 5004TIP3    H214977   1.320   1.002   4.693  0.7856  1.5550 -2.3782
 5005TIP3   OH214978   4.853   0.773   5.423 -0.5549  0.0871  0.2747
 5005TIP3    H114979   4.925   0.833   5.445 -1.0593  0.6890  0.3002
 5005TIP3    H214980   4.783   0.796   5.484 -0.5751 -0.8889  0.6373
 5006TIP3   OH214981   6.174   4.836   3.368 -0.2287  0.0080 -0.0572
 5006TIP3    H114982   6.209   4.830   3.279 -0.0546 -1.5422  0.0864
 5006TIP3    H214983   6.250   4.854   3.423  0.5073 -3.3454  0.2562
 5007TIP3   OH214984   6.994   5.149   1.973 -0.7203  0.1340 -0.3802
 5007TIP3    H114985   7.013   5.097   2.050  2.5447 -1.0547 -1.8160
 5007TIP3    H214986   7.076   5.192   1.952 -1.7476  1.1586 -2.6633
 5008TIP3   OH214987   6.202   5.062   3.101  0.3615 -0.3360  0.4607
 5008TIP3    H114988   6.184   4.968   3.102  0.7742 -0.4143  0.6049
 5008TIP3    H214989   6.297   5.069   3.111  0.4780  0.0596 -0.7490
 5009TIP3   OH214990   6.690   3.492   4.698 -0.2420 -0.2266 -0.3226
 5009TIP3    H114991   6.755   3.428   4.728  0.2416  0.9401  1.2740
 5009TIP3    H214992   6.736   3.543   4.631 -0.3213 -0.9557 -0.9331
 5010TIP3   OH214993   2.547   4.332   0.799 -0.0228  0.2730 -0.4061
 5010TIP3    H114994   2.493   4.397   0.844 -2.0842 -2.0456  0.6246
 5010TIP3    H214995   2.528   4.346   0.706 -2.4533 -0.4653 -0.0710
 5011TIP3   OH214996   2.286   6.231   2.418 -0.1158  0.0990 -0.2744
 5011TIP3    H114997   2.278   6.288   2.495 -1.3617  3.6312 -2.7805
 5011TIP3    H214998   2.226   6.159   2.435  0.9523 -0.2452  2.7302
 5012TIP3   OH214999   3.464   0.504   2.976 -0.6235  0.2616  0.1340
 5012TIP3    H115000   3.506   0.497   2.890 -0.7338  2.1416 -0.1205
 5012TIP3    H215001   3.530   0.546   3.031 -1.5141  1.6361  0.1981
 5013TIP3   OH215002   6.448   5.761   1.531 -0.0987  0.3391 -0.6826
 5013TIP3    H115003   6.523   5.702   1.544 -1.8167 -1.8461  0.0116
 5013TIP3    H215004   6.422   5.747   1.441  0.0965  0.8542 -0.8244
 5014TIP3   OH215005   7.152   5.938   1.590 -0.8302 -0.0258 -0.0757
 5014TIP3    H115006   7.244   5.961   1.576 -1.0342 -0.2143 -2.1177
 5014TIP3    H215007   7.110   5.961   1.507 -2.0707 -2.5997 -0.2454
 5015TIP3   OH215008   5.283   1.557   4.592 -0.7400 -0.3727 -0.1325
 5015TIP3    H115009   5.203   1.592   4.630 -0.5097 -0.0886  0.0894
 5015TIP3    H215010   5.254   1.480   4.543 -1.1571 -0.2326 -0.1103
 5016TIP3   OH215011   5.452   6.387   3.776  0.4966  0.0648  0.2939
 5016TIP3    H115012   5.501   6.427   3.704 -0.3799 -0.5112 -0.6643
 5016TIP3    H215013   5.456   6.293   3.758 -2.2759  0.0430 -0.7836
 5017TIP3   OH215014   3.788   3.341   3.338 -0.7361 -0.2942 -0.1654
 5017TIP3    H115015   3.706   3.331   3.289 -0.7008 -1.7303  0.0031
 5017TIP3    H215016   3.852   3.291   3.286 -0.6434 -1.6228  1.1582
 5018TIP3   OH215017   2.966   2.141   3.066 -0.6928 -0.9063  0.0443
 5018TIP3    H115018   3.049   2.175   3.033  0.6633 -1.8460  2.2357
 5018TIP3    H215019   2.970   2.155   3.161 -3.8439  0.5966  0.0811
 5019TIP3   OH215020   1.909   0.869   5.458 -0.1985  0.3682 -0.0947
 5019TIP3    H115021   1.966   0.902   5.390 -0.5835 -1.1715 -1.2292
 5019TIP3    H215022   1.860   0.797   5.416 -1.0617 -0.0732  1.5545
 5020TIP3   OH215023   5.304   5.990   1.111  0.3438  0.0817  0.0198
 5020TIP3    H115024   5.379   6.008   1.167 -0.9698  0.7798  1.6389
 5020TIP3    H215025   5.289   6.071   1.062  1.5830 -0.5756 -1.5267
 5021TIP3   OH215026   1.867   1.950   2.809 -0.1454  0.7358  0.0376
 5021TIP3    H115027   1.830   1.921   2.893 -1.3417  0.5352 -0.5406
 5021TIP3    H215028   1.876   1.870   2.757  0.7774  0.8333  0.0170
 5022TIP3   OH215029   0.849   2.811   3.393 -0.3478 -0.4844 -0.4607
 5022TIP3    H115030   0.888   2.859   3.467  0.7246 -3.4368  1.0391
 5022TIP3    H215031   0.920   2.801   3.331 -0.2060 -1.2240 -0.1825
 5023TIP3   OH215032   3.033   2.381   4.994 -0.3466  0.2602 -0.1758
 5023TIP3    H115033   2.995   2.467   4.977  2.7510  1.2511 -3.1795
 5023TIP3    H215034   3.098   2.397   5.063  0.3139  0.4012 -0.8186
 5024TIP3   OH215035   5.697   4.822   5.673  0.5516 -0.3732 -0.0165
 5024TIP3    H115036   5.765   4.767   5.711  0.3977 -0.9634 -0.5882
 5024TIP3    H215037   5.636   4.838   5.745  1.0817 -0.1740  0.3917
 5025TIP3   OH215038  -0.014   6.552   1.272  0.0179  0.1142  0.8429
 5025TIP3    H115039  -0.023   6.554   1.368 -0.5498  1.1082  0.7744
 5025TIP3    H215040   0.079   6.538   1.258  0.1274  0.0705  1.5421
 5026TIP3   OH215041   0.556   0.270   3.933  0.4137 -0.1473 -0.0792
 5026TIP3    H115042   0.565   0.341   3.869 -0.2549 -0.0693 -0.0866
 5026TIP3    H215043   0.468   0.280   3.968 -0.5788 -2.3485 -1.7304
 5027TIP3   OH215044   2.195   0.418   1.897 -0.0417 -0.2707  0.6763
 5027TIP3    H115045   2.122   0.443   1.841  0.2926 -1.9861 -0.6064
 5027TIP3    H215046   2.155   0.398   1.982 -1.2298 -1.9760 -0.2334
 5028TIP3   OH215047   2.975   2.324   1.231  0.3165  0.1423  0.2405
 5028TIP3    H115048   3.007   2.405   1.191  0.2985  0.1740  0.2898
 5028TIP3    H215049   2.990   2.337   1.325  1.0209 -0.2255  0.1829
 5029TIP3   OH215050   4.951   3.296   4.170  0.1333  0.4137 -0.1551
 5029TIP3    H115051   4.870   3.283   4.121 -0.0833 -0.8909  0.5096
 5029TIP3    H215052   4.932   3.370   4.228 -0.8275 -0.2565  0.4274
 5030TIP3   OH215053   4.409   3.587   5.177  0.3739  0.5816  0.2484
 5030TIP3    H115054   4.470   3.658   5.155 -0.3843  1.6825  1.5672
 5030TIP3    H215055   4.453   3.537   5.245  0.5245  0.3073 -0.0442
 5031TIP3   OH215056   2.467   1.943   0.756 -0.7417  0.4969 -0.0663
 5031TIP3    H115057   2.521   1.910   0.828  0.6569 -3.8378 -2.7294
 5031TIP3    H215058   2.377   1.935   0.789 -0.2712 -2.9529  0.8509
 5032TIP3   OH215059   3.115   1.166   2.960  0.0936 -0.1213  0.3512
 5032TIP3    H115060   3.098   1.180   2.867  0.6905  1.5656  0.4541
 5032TIP3    H215061   3.029   1.152   2.999 -0.1757 -0.6863 -0.4305
 5033TIP3   OH215062   5.816   1.796   2.045 -0.5924  0.0265  0.3240
 5033TIP3    H115063   5.825   1.826   1.955  0.5947 -1.0793  0.0525
 5033TIP3    H215064   5.722   1.784   2.057 -0.6438 -1.5058 -1.3440
 5034TIP3   OH215065   3.187   6.146   3.464  0.2041 -0.2051 -0.6413
 5034TIP3    H115066   3.255   6.213   3.453  0.4708 -0.4334 -0.3804
 5034TIP3    H215067   3.131   6.156   3.386 -0.3163  0.9579 -0.1499
 5035TIP3   OH215068   2.869   3.395   1.289 -0.1516  0.1329 -0.4333
 5035TIP3    H115069   2.897   3.305   1.306 -1.7212 -0.0581  1.4267
 5035TIP3    H215070   2.777   3.397   1.313 -0.7010  1.7735 -2.3402
 5036TIP3   OH215071   1.430   1.451   2.771 -0.6992  0.0833  0.6753
 5036TIP3    H115072   1.493   1.517   2.742  0.3264  0.1017  2.7724
 5036TIP3    H215073   1.422   1.391   2.696  1.0763  0.6048  0.0255
 5037TIP3   OH215074   6.698   1.850   1.044  0.1515  0.2534  0.1523
 5037TIP3    H115075   6.711   1.787   1.115  0.1417  1.6667  1.4770
 5037TIP3    H215076   6.603   1.851   1.030  0.3837 -2.8714 -2.6791
 5038TIP3   OH215077   5.238   2.949   4.700 -0.2577  0.3503 -0.0097
 5038TIP3    H115078   5.212   3.027   4.749 -1.7929 -0.5022  0.6054
 5038TIP3    H215079   5.184   2.952   4.620 -0.0156  0.1325 -0.1826
 5039TIP3   OH215080   0.571   3.374   1.905  0.1112 -0.3497  0.3441
 5039TIP3    H115081   0.655   3.330   1.919 -0.0096 -1.1762 -1.2518
 5039TIP3    H215082   0.527   3.321   1.839 -0.8350  1.1568 -0.2899
 5040TIP3   OH215083   0.738   5.749   0.535  0.1868  0.4914  0.5856
 5040TIP3    H115084   0.677   5.764   0.463  1.9481  2.9431 -0.5649
 5040TIP3    H215085   0.747   5.654   0.540 -2.4252  0.1287 -0.2436
 5041TIP3   OH215086   0.550   4.043   2.185 -0.0224 -0.3240  1.0375
 5041TIP3    H115087   0.533   3.953   2.211  0.1952 -0.2429  1.4652
 5041TIP3    H215088   0.638   4.062   2.217  1.3829 -1.0580 -2.0222
 5042TIP3   OH215089   4.091   4.997   1.482 -0.5243  0.1601  0.1507
 5042TIP3    H115090   4.185   5.012   1.493 -0.2211 -1.5851  0.1560
 5042TIP3    H215091   4.058   4.988   1.571 -0.6046  0.2337  0.1286
 5043TIP3   OH215092   5.080   2.684   3.714  0.0761 -0.1335  0.2064
 5043TIP3    H115093   5.014   2.651   3.653 -0.8952  1.7757  0.1487
 5043TIP3    H215094   5.116   2.762   3.672  1.2633 -0.2436  0.9440
 5044TIP3   OH215095   2.193   4.841   5.721  0.0357  0.1213  0.2114
 5044TIP3    H115096   2.250   4.767   5.742 -1.2114 -0.7738  0.5526
 5044TIP3    H215097   2.107   4.814   5.752 -0.3441  1.9768  0.9111
 5045TIP3   OH215098   4.983   0.746   1.201 -0.6602  0.1008 -0.0327
 5045TIP3    H115099   4.898   0.735   1.243 -0.0988 -2.2943  0.6270
 5045TIP3    H215100   5.046   0.715   1.266  1.0289  3.7636  0.3801
 5046TIP3   OH215101   3.416   1.249   0.961 -0.1416  0.4336  0.2784
 5046TIP3    H115102   3.418   1.154   0.978  0.1727  0.5979  1.2441
 5046TIP3    H215103   3.506   1.271   0.941 -0.4945  0.2578 -1.7070
 5047TIP3   OH215104   6.726   1.874   0.591  0.1121  0.5087  0.3269
 5047TIP3    H115105   6.656   1.926   0.551  0.2633  0.0113 -0.6131
 5047TIP3    H215106   6.786   1.856   0.519 -0.6993 -2.2678  0.2361
 5048TIP3   OH215107   6.728   2.160   3.390  0.2476  0.4963  0.0272
 5048TIP3    H115108   6.730   2.120   3.302  0.5504  0.7708 -0.0927
 5048TIP3    H215109   6.749   2.087   3.449 -1.9495 -0.1695  0.0686
 5049TIP3   OH215110   3.964   4.930   5.529  0.1523 -0.4022  0.4219
 5049TIP3    H115111   3.925   5.014   5.551 -0.6739 -0.4068 -0.8908
 5049TIP3    H215112   3.967   4.929   5.433  0.5634 -1.6755  0.4226
 5050TIP3   OH215113   2.374   5.185   3.682 -0.1196 -0.1857  0.0584
 5050TIP3    H115114   2.408   5.249   3.619  0.1930 -1.0786 -0.7087
 5050TIP3    H215115   2.450   5.133   3.707 -0.0553  0.7486  1.9337
 5051TIP3   OH215116   4.792   3.279   5.621  0.6712 -0.0259  0.1008
 5051TIP3    H115117   4.703   3.253   5.647 -0.3929  2.8992 -0.2392
 5051TIP3    H215118   4.829   3.320   5.699  1.2984 -0.1810 -0.1101
 5052TIP3   OH215119   1.999   1.005   3.337  0.3200  0.6520  0.1693
 5052TIP3    H115120   1.987   1.100   3.333 -0.5261  0.5195 -0.9283
 5052TIP3    H215121   1.976   0.974   3.249  0.3490 -0.5966  0.5758
 5053TIP3   OH215122   4.378   6.112   1.861 -0.1975  0.0755 -0.0439
 5053TIP3    H115123   4.344   6.068   1.783 -1.5249  0.4628  0.2951
 5053TIP3    H215124   4.442   6.174   1.827 -0.2206 -0.2745 -0.7527
 5054TIP3   OH215125   5.171   6.538   2.595 -0.0676 -0.5839  0.1393
 5054TIP3    H115126   5.083   6.565   2.622 -0.2844  0.0978 -1.1643
 5054TIP3    H215127   5.226   6.559   2.670 -1.0058 -1.0718  1.0017
 5055TIP3   OH215128   3.926   0.290   5.212 -0.5355 -0.1441  0.2626
 5055TIP3    H115129   3.854   0.290   5.274  0.4091 -2.3598  1.4443
 5055TIP3    H215130   4.003   0.268   5.264  0.5203 -0.7002 -1.4563
 5056TIP3   OH215131   2.592   3.146   0.471  0.0696 -0.1770  0.0136
 5056TIP3    H115132   2.670   3.198   0.489  0.6404 -0.3232 -1.8231
 5056TIP3    H215133   2.525   3.209   0.446 -0.8150  0.0542  2.6390
 5057TIP3   OH215134   5.163   4.398   1.643  0.7069  0.4087  0.0545
 5057TIP3    H115135   5.256   4.378   1.650  0.7701  1.0416  1.5415
 5057TIP3    H215136   5.161   4.491   1.619  0.5061  0.7420  1.2550
 5058TIP3   OH215137   2.361   6.756   3.251  0.1413  0.3241 -0.0908
 5058TIP3    H115138   2.386   6.835   3.298 -0.2165 -0.1630  0.9652
 5058TIP3    H215139   2.280   6.779   3.205  0.7664  0.9559 -0.8970
 5059TIP3   OH215140   0.047   5.046   5.189  0.0160 -0.4259  0.0940
 5059TIP3    H115141   0.035   5.080   5.278  0.6819  0.3581 -0.1001
 5059TIP3    H215142   0.097   4.965   5.200  0.8263  0.0972  0.3922
 5060TIP3   OH215143   7.083   4.876   3.467 -0.3294 -0.1850  0.4038
 5060TIP3    H115144   6.999   4.839   3.438  0.0733 -0.3078 -0.6342
 5060TIP3    H215145   7.123   4.910   3.387  0.9463 -0.7826  0.7720
 5061TIP3   OH215146   5.133   2.418   0.360 -0.3527  0.4226 -0.0321
 5061TIP3    H115147   5.213   2.378   0.395 -0.5517  0.5952  0.6301
 5061TIP3    H215148   5.068   2.406   0.429 -1.5134 -1.5885 -1.3586
 5062TIP3   OH215149   6.527   4.292   0.840  0.0903  0.2152 -0.1326
 5062TIP3    H115150   6.522   4.247   0.925 -2.5843 -0.8973 -0.7956
 5062TIP3    H215151   6.441   4.332   0.829  1.3443  2.8840 -1.0541
 5063TIP3   OH215152   2.166   2.478   2.395  0.4101  1.0543 -0.0064
 5063TIP3    H115153   2.126   2.392   2.378  0.2167  1.5095 -2.0891
 5063TIP3    H215154   2.189   2.475   2.488 -0.6012 -0.8270  0.2436
 5064TIP3   OH215155   0.773   4.611   2.599  0.1687 -0.0111 -0.2869
 5064TIP3    H115156   0.702   4.576   2.545 -0.0793 -1.3555  0.8382
 5064TIP3    H215157   0.736   4.690   2.639  0.4581  1.1780 -2.2433
 5065TIP3   OH215158   5.584   4.541   3.126  0.1948 -0.0631 -0.5526
 5065TIP3    H115159   5.519   4.474   3.149 -1.4411  2.0358  1.3611
 5065TIP3    H215160   5.571   4.556   3.033 -2.0193  0.1649 -0.2589
 5066TIP3   OH215161   0.415   4.540   0.012  0.0453  0.1596  0.3024
 5066TIP3    H115162   0.508   4.520   0.011 -0.3975 -2.2422 -0.7590
 5066TIP3    H215163   0.382   4.499   0.092 -0.4589 -1.2520 -0.5834
 5067TIP3   OH215164   4.372   3.659   1.501  0.2522 -0.4796 -1.0480
 5067TIP3    H115165   4.294   3.605   1.512 -0.0231 -0.0951 -1.1146
 5067TIP3    H215166   4.438   3.617   1.556 -0.5767  0.3758  0.6555
 5068TIP3   OH215167   3.964   0.584   3.823  0.1817  0.0616  0.1559
 5068TIP3    H115168   3.960   0.613   3.914  0.1451 -1.6429  0.7354
 5068TIP3    H215169   4.000   0.495   3.828 -2.0397 -1.0057 -1.2768
 5069TIP3   OH215170   0.653   0.380   1.882 -0.0503 -0.2564  0.0266
 5069TIP3    H115171   0.654   0.412   1.972  2.4984 -0.0608 -0.0031
 5069TIP3    H215172   0.625   0.455   1.830 -1.5283 -0.3658  0.6260
 5070TIP3   OH215173   1.913   0.391   2.460 -0.6836  0.6011 -0.8865
 5070TIP3    H115174   1.918   0.403   2.555  2.2883  0.3890 -0.9255
 5070TIP3    H215175   1.912   0.480   2.425 -0.2309  0.6829 -0.6936
 5071TIP3   OH215176   4.697   2.794   5.826 -0.1365 -0.5013  0.4284
 5071TIP3    H115177   4.613   2.768   5.788  0.1601  2.3235 -2.6371
 5071TIP3    H215178   4.760   2.733   5.787 -0.5355 -1.7606  1.6698
 5072TIP3   OH215179   1.089   6.460   0.431  0.1621  0.4715 -0.6104
 5072TIP3    H115180   1.077   6.460   0.336  0.7651 -0.4313 -0.6972
 5072TIP3    H215181   1.001   6.455   0.467 -0.0707  0.8839 -1.1208
 5073TIP3   OH215182   1.605   5.408   0.299 -0.5287 -0.5254 -0.7480
 5073TIP3    H115183   1.644   5.407   0.212  0.5122 -1.4583 -0.2927
 5073TIP3    H215184   1.516   5.440   0.285 -0.8847 -2.0782 -2.3613
 5074TIP3   OH215185   5.429   3.602   1.016 -0.1729  0.2799 -0.3069
 5074TIP3    H115186   5.390   3.650   1.089 -0.0653  0.2758 -0.2453
 5074TIP3    H215187   5.434   3.511   1.047  0.4857  0.3905 -0.0575
 5075TIP3   OH215188   2.385   0.039   4.498 -0.2094 -0.5433  0.4961
 5075TIP3    H115189   2.417   0.123   4.467 -0.4873 -0.7028 -0.2307
 5075TIP3    H215190   2.438   0.020   4.576  0.9614 -0.4559 -0.2518
 5076TIP3   OH215191   0.808   0.536   2.862 -0.1626  0.3732  0.4402
 5076TIP3    H115192   0.834   0.456   2.907  1.4482  0.4454 -0.3181
 5076TIP3    H215193   0.887   0.567   2.819 -0.7824  2.3039  0.5789
 5077TIP3   OH215194   2.897   0.158   4.937 -0.1912  0.3897 -0.1531
 5077TIP3    H115195   2.857   0.245   4.927  0.9231  0.8057 -1.2358
 5077TIP3    H215196   2.878   0.114   4.854  0.9256  0.3179 -0.3792
 5078TIP3   OH215197   3.790   5.619   5.095 -0.4960 -0.1102  0.1445
 5078TIP3    H115198   3.754   5.650   5.011  1.3419  1.4812 -0.1340
 5078TIP3    H215199   3.730   5.550   5.123 -2.1979  0.5820 -1.5703
 5079TIP3   OH215200   4.301   5.034   3.083  0.2216 -0.1481  0.6623
 5079TIP3    H115201   4.230   4.971   3.070  1.2124 -1.0312 -0.7848
 5079TIP3    H215202   4.380   4.986   3.057  1.3499  0.8421  2.0896
 5080TIP3   OH215203   0.365   3.229   2.453 -0.0023  0.0115 -0.1021
 5080TIP3    H115204   0.388   3.319   2.429  0.6265  0.0177  0.5008
 5080TIP3    H215205   0.396   3.220   2.543  3.6879 -2.0897 -1.3989
 5081TIP3   OH215206   3.384   0.484   0.451  0.3297 -0.0177 -0.0764
 5081TIP3    H115207   3.457   0.538   0.420  1.7438 -2.0800 -0.6023
 5081TIP3    H215208   3.353   0.529   0.529  1.8234  1.2368 -0.1438
 5082TIP3   OH215209   3.459   1.779   5.137 -0.1996 -0.0093  0.2072
 5082TIP3    H115210   3.374   1.797   5.178  0.0782  0.5813  0.5415
 5082TIP3    H215211   3.515   1.851   5.166  0.3508 -0.2636 -0.2067
 5083TIP3   OH215212   5.284   5.683   2.824 -0.2247 -0.2054 -0.1274
 5083TIP3    H115213   5.352   5.653   2.764  0.8742 -0.5821  1.2433
 5083TIP3    H215214   5.325   5.754   2.873 -1.2177  0.3517 -0.0824
 5084TIP3   OH215215   0.493   6.229   3.186  0.3724 -0.0244  0.0976
 5084TIP3    H115216   0.577   6.192   3.161  0.4483  0.3053 -0.1485
 5084TIP3    H215217   0.497   6.238   3.281  0.4847 -0.3183  0.1222
 5085TIP3   OH215218   3.601   4.859   0.836  0.1722 -0.2270  0.2367
 5085TIP3    H115219   3.657   4.795   0.792 -0.6700  0.4628 -1.9557
 5085TIP3    H215220   3.645   4.943   0.821 -0.6843  0.1455 -0.2436
 5086TIP3   OH215221   3.653   4.102   4.270 -0.3409 -0.0945  0.2063
 5086TIP3    H115222   3.643   4.031   4.333  1.7782 -0.8541 -0.2219
 5086TIP3    H215223   3.747   4.104   4.251 -0.2689  2.9741  0.3510
 5087TIP3   OH215224   0.589   4.858   0.183  0.2279 -0.2566  0.2898
 5087TIP3    H115225   0.539   4.833   0.260 -1.2278  3.3311  0.7072
 5087TIP3    H215226   0.623   4.946   0.203  2.2761 -0.3771 -2.0654
 5088TIP3   OH215227   1.006   0.401   0.318  0.1473 -0.2073 -0.1688
 5088TIP3    H115228   0.952   0.458   0.263  0.4862 -0.7477 -1.0705
 5088TIP3    H215229   1.007   0.445   0.403 -0.6027  0.5020 -0.5106
 5089TIP3   OH215230   4.813  -0.002   4.601  0.4368  0.3242 -0.8110
 5089TIP3    H115231   4.904  -0.028   4.614  0.8256  1.0612 -1.9409
 5089TIP3    H215232   4.811   0.090   4.627 -0.3208 -0.0588  0.5737
 5090TIP3   OH215233   3.380   1.757   3.489  1.1341  0.0327 -0.1045
 5090TIP3    H115234   3.317   1.731   3.556  1.4657 -1.1285 -0.2219
 5090TIP3    H215235   3.341   1.727   3.407  0.7404  1.4240 -0.4622
 5091TIP3   OH215236   2.946   5.164   2.410  0.2377  0.1860  0.7758
 5091TIP3    H115237   2.922   5.256   2.420 -1.1622 -0.1963  1.2410
 5091TIP3    H215238   2.863   5.117   2.418  0.5483 -0.9752 -1.8940
 5092TIP3   OH215239   1.019   1.409   0.574 -0.4392  0.2189 -0.8421
 5092TIP3    H115240   0.985   1.343   0.635  0.2237  2.2760  1.9579
 5092TIP3    H215241   0.964   1.486   0.590  0.7689  1.2998 -1.7046
 5093TIP3   OH215242   6.133   0.417   2.751 -0.5671 -0.1992 -0.3752
 5093TIP3    H115243   6.048   0.420   2.794 -0.5545  0.9971 -0.4013
 5093TIP3    H215244   6.193   0.459   2.813 -0.2715  0.2336 -0.9501
 5094TIP3   OH215245   5.870   2.160   5.468 -0.2114  0.7352 -0.7904
 5094TIP3    H115246   5.777   2.142   5.452 -0.4392  0.8334  0.2914
 5094TIP3    H215247   5.873   2.254   5.487  0.1607  0.7986 -1.1666
 5095TIP3   OH215248   0.215   3.821   4.166  0.3268 -0.1570  0.3608
 5095TIP3    H115249   0.140   3.771   4.200  0.9274 -0.2080  1.7060
 5095TIP3    H215250   0.291   3.780   4.206  1.0108  0.4558 -0.2780
 5096TIP3   OH215251   6.442   6.691   2.490  0.6273  0.9738  0.2956
 5096TIP3    H115252   6.383   6.765   2.506 -0.0869  0.4659  0.0783
 5096TIP3    H215253   6.485   6.713   2.408  0.2995  1.0889  0.1498
 5097TIP3   OH215254   1.227   1.645   5.653 -0.7707 -0.4599  0.1301
 5097TIP3    H115255   1.154   1.684   5.701 -0.8016 -1.4540  0.9138
 5097TIP3    H215256   1.290   1.716   5.643 -1.1210 -0.0243  0.9304
 5098TIP3   OH215257   7.046   1.931   4.080  0.1040 -0.2643 -0.2872
 5098TIP3    H115258   7.010   1.843   4.091  1.7963 -0.9469  0.0424
 5098TIP3    H215259   6.975   1.981   4.040 -1.3808 -1.3908  0.8311
 5099TIP3   OH215260   0.011   0.775   2.212 -0.5463  0.2638  0.1589
 5099TIP3    H115261   0.020   0.865   2.181  0.8621 -0.1293 -0.6934
 5099TIP3    H215262   0.091   0.731   2.181 -0.1672 -0.7580  2.4172
 5100TIP3   OH215263   1.005   4.286   1.130 -0.3974 -0.6646  0.3232
 5100TIP3    H115264   1.089   4.323   1.156 -1.0533  0.3926  0.9797
 5100TIP3    H215265   1.017   4.260   1.038  0.4342  0.0908  0.2139
 5101TIP3   OH215266   6.559   3.261   0.833  0.3460  0.2651 -0.5230
 5101TIP3    H115267   6.499   3.186   0.827  0.6258  0.0918 -1.2812
 5101TIP3    H215268   6.607   3.260   0.750  0.3036  1.3357 -0.5694
 5102TIP3   OH215269   6.496   6.388   5.037 -0.0258  1.1215  0.7883
 5102TIP3    H115270   6.503   6.377   5.132  2.4478 -0.7936  0.4819
 5102TIP3    H215271   6.413   6.345   5.014 -0.1052  0.6174  1.9480
 5103TIP3   OH215272   6.427   5.180   3.630 -0.7651 -0.2739 -0.0600
 5103TIP3    H115273   6.511   5.223   3.649 -1.3058  0.7095  0.1913
 5103TIP3    H215274   6.379   5.183   3.713 -1.4197  0.0492 -0.4413
 5104TIP3   OH215275   2.320   5.984   1.706 -0.7264  0.1801 -0.4564
 5104TIP3    H115276   2.252   6.047   1.682 -2.2148 -1.4846 -0.8069
 5104TIP3    H215277   2.279   5.898   1.694  1.3181 -0.8856 -0.2658
 5105TIP3   OH215278   6.329   4.714   0.878  0.1356 -0.1578 -0.5814
 5105TIP3    H115279   6.401   4.749   0.930  0.2764 -2.6456  1.0438
 5105TIP3    H215280   6.268   4.788   0.869 -0.0024  0.4398  3.3680
 5106TIP3   OH215281   1.937   6.079   4.059  0.5308 -0.2806  0.1133
 5106TIP3    H115282   2.018   6.034   4.082  1.0706  0.0955 -1.0335
 5106TIP3    H215283   1.871   6.039   4.117  0.9034 -2.8150 -1.0650
 5107TIP3   OH215284   1.033   1.159   2.927 -0.1064 -0.0076 -0.0359
 5107TIP3    H115285   0.981   1.239   2.927 -0.3953 -0.1932  0.9488
 5107TIP3    H215286   1.078   1.158   3.012 -0.3446 -1.0420  0.0972
 5108TIP3   OH215287   3.957   5.710   5.288  0.1679 -0.5777 -0.1239
 5108TIP3    H115288   3.906   5.692   5.209  0.8785 -1.1550 -0.4620
 5108TIP3    H215289   4.014   5.783   5.264  0.5230 -0.8820 -0.2053
 5109TIP3   OH215290   5.414   2.328   4.073 -0.3106  0.0527  0.2892
 5109TIP3    H115291   5.377   2.405   4.115  2.4223  1.3530  0.5504
 5109TIP3    H215292   5.407   2.259   4.139 -0.6013  0.7365  0.9886
 5110TIP3   OH215293   3.858   3.561   5.302 -0.0283  0.2884 -0.7417
 5110TIP3    H115294   3.948   3.555   5.272 -0.0049  0.4702 -0.7124
 5110TIP3    H215295   3.843   3.481   5.352  0.8084  1.2438  1.1403
 5111TIP3   OH215296   0.498   3.481   0.730  0.0229  0.7837  0.1985
 5111TIP3    H115297   0.571   3.529   0.691  0.9722  0.5803  1.6774
 5111TIP3    H215298   0.495   3.399   0.680 -0.2665  1.4598 -0.9441
 5112TIP3   OH215299   0.880   5.486   0.871 -1.1324 -0.3478  0.0896
 5112TIP3    H115300   0.937   5.505   0.796 -1.9771  0.7099 -0.3001
 5112TIP3    H215301   0.926   5.417   0.919  1.0353  1.2492  0.4208
 5113TIP3   OH215302   2.021   5.050   0.090 -0.0758 -0.0717 -0.6050
 5113TIP3    H115303   1.979   5.030   0.006 -2.2156  1.7406 -0.0416
 5113TIP3    H215304   2.002   4.974   0.145 -1.2734  0.0334 -0.8581
 5114TIP3   OH215305   3.817   3.325   0.382  0.5213 -0.1213  0.3003
 5114TIP3    H115306   3.873   3.261   0.337  1.0901  2.0856 -2.3649
 5114TIP3    H215307   3.875   3.399   0.400 -0.6866  0.6823  0.9628
 5115TIP3   OH215308   4.685   4.528   3.070 -0.4591  0.9249  0.2840
 5115TIP3    H115309   4.668   4.444   3.114 -0.0964  1.7096  2.0173
 5115TIP3    H215310   4.750   4.507   3.003  0.3288 -0.0549  1.2988
 5116TIP3   OH215311   6.724   4.508   1.882 -0.3578  0.5191  0.3760
 5116TIP3    H115312   6.785   4.524   1.953 -0.1260  2.9573 -0.2878
 5116TIP3    H215313   6.639   4.498   1.925  0.1164 -0.4609  1.1241
 5117TIP3   OH215314   1.089   0.922   5.283  0.6427  0.5581 -0.0538
 5117TIP3    H115315   1.157   0.880   5.336  0.5015  2.0580  1.3787
 5117TIP3    H215316   1.087   1.012   5.313 -1.9871  0.5797 -0.0467
 5118TIP3   OH215317   5.923   3.343   4.351  0.2394  0.2460  0.1367
 5118TIP3    H115318   5.994   3.407   4.352  0.2362  0.3066 -1.3110
 5118TIP3    H215319   5.847   3.391   4.320  0.0224 -0.2475 -0.1184
 5119TIP3   OH215320   2.028   6.362   4.074 -0.5100  0.7716  0.7204
 5119TIP3    H115321   1.992   6.274   4.059 -0.5227  0.9745 -0.5537
 5119TIP3    H215322   2.058   6.361   4.165  0.7373 -1.0108  0.3448
 5120TIP3   OH215323   1.780   0.944   0.388 -0.0966  0.3917 -0.1574
 5120TIP3    H115324   1.844   0.879   0.417 -0.0831  0.4364 -0.0882
 5120TIP3    H215325   1.829   0.998   0.325  0.3786  1.3738  1.0255
 5121TIP3   OH215326   3.513   3.586   1.557  0.0883  0.5662  0.3296
 5121TIP3    H115327   3.496   3.500   1.597  0.8868  0.7028  0.9830
 5121TIP3    H215328   3.453   3.590   1.483  0.0167 -0.5491  0.3115
 5122TIP3   OH215329   2.873   1.941   2.925  0.2489 -0.2949 -0.3944
 5122TIP3    H115330   2.923   2.003   2.977  1.6537 -2.1416  0.5847
 5122TIP3    H215331   2.798   1.918   2.981  1.0626 -1.3009  0.3207
 5123TIP3   OH215332   5.948   6.347   2.176 -0.0331  0.1268  0.5472
 5123TIP3    H115333   6.036   6.374   2.150  0.4246 -0.7636  1.1072
 5123TIP3    H215334   5.894   6.361   2.098 -0.0701  3.4613  1.0051
 5124TIP3   OH215335   0.406   6.134   1.051 -0.1202  0.0265  0.1786
 5124TIP3    H115336   0.466   6.129   1.125 -1.3000  1.6406  1.3310
 5124TIP3    H215337   0.386   6.043   1.030  1.5039 -0.5035  0.7676
 5125TIP3   OH215338   3.603   2.735   0.856  0.6246 -0.4062 -0.3179
 5125TIP3    H115339   3.539   2.695   0.915  0.5312  1.1180  0.7002
 5125TIP3    H215340   3.591   2.829   0.870  3.2364 -0.0595  0.0726
 5126TIP3   OH215341   3.479   2.720   1.756 -0.3561 -0.6637 -0.1794
 5126TIP3    H115342   3.471   2.669   1.837 -1.5960 -1.3961 -0.7441
 5126TIP3    H215343   3.541   2.789   1.778 -1.7441  0.0317  1.8808
 5127TIP3   OH215344   6.785   0.799   4.230 -0.5278 -0.4698 -0.5978
 5127TIP3    H115345   6.875   0.830   4.236 -0.7055 -0.0101 -0.1660
 5127TIP3    H215346   6.766   0.763   4.317 -1.2344  0.8031 -0.2013
 5128TIP3   OH215347   5.390   5.810   4.471 -0.0052  0.1156 -0.2303
 5128TIP3    H115348   5.406   5.717   4.458  1.0929  0.2542  0.0230
 5128TIP3    H215349   5.322   5.832   4.407  0.2333 -0.7023 -0.7748
 5129TIP3   OH215350   0.880   1.079   4.127  0.1545 -0.0705 -0.3711
 5129TIP3    H115351   0.795   1.043   4.102  1.0189 -2.1319 -0.5093
 5129TIP3    H215352   0.882   1.075   4.222  1.0668 -2.6279 -0.4058
 5130TIP3   OH215353   4.560   6.312   1.686  0.3799  0.3938  0.2988
 5130TIP3    H115354   4.629   6.326   1.622 -0.1991  0.4372 -0.3187
 5130TIP3    H215355   4.599   6.340   1.769  0.4865  2.2240 -0.3262
 5131TIP3   OH215356   5.360   4.834   0.835 -0.1741 -0.3375  0.3251
 5131TIP3    H115357   5.420   4.906   0.821  0.2248 -1.1122 -2.5034
 5131TIP3    H215358   5.274   4.868   0.809  0.0865 -0.9267 -1.4574
 5132TIP3   OH215359   4.938   0.921   2.254  0.1323  0.3313 -0.9082
 5132TIP3    H115360   4.994   0.990   2.290 -0.2801  0.5457 -0.6788
 5132TIP3    H215361   4.946   0.931   2.159  0.9704 -0.0354 -0.8901
 5133TIP3   OH215362   2.453   5.335   2.462  0.0281  0.4127  0.0318
 5133TIP3    H115363   2.486   5.369   2.545 -0.8951  1.4469  0.0006
 5133TIP3    H215364   2.532   5.323   2.408  0.6794 -0.6922  1.1782
 5134TIP3   OH215365   3.251   4.244   1.001  0.0738  0.3691 -0.2382
 5134TIP3    H115366   3.232   4.337   0.991  0.3197  0.3685 -0.7198
 5134TIP3    H215367   3.343   4.235   0.978  0.0897  0.0262 -0.0516
 5135TIP3   OH215368   6.358   2.056   4.361 -0.1935 -0.2617 -0.1342
 5135TIP3    H115369   6.306   2.103   4.295 -0.4582 -0.5071 -0.1015
 5135TIP3    H215370   6.436   2.110   4.372 -1.1792  1.0139  1.0192
 5136TIP3   OH215371   5.667   0.518   4.695  0.0294 -0.5886  0.0796
 5136TIP3    H115372   5.725   0.511   4.619  0.0180 -2.7204  0.1875
 5136TIP3    H215373   5.719   0.485   4.768 -0.4616 -0.0285  0.6894
 5137TIP3   OH215374   2.792   5.410   4.911 -0.6050 -0.5092  0.8602
 5137TIP3    H115375   2.781   5.349   4.839  1.2148  1.7428 -1.5128
 5137TIP3    H215376   2.753   5.492   4.880 -0.1625  0.4358  2.6251
 5138TIP3   OH215377   0.760   1.085   1.060 -0.2194  0.3836 -0.3031
 5138TIP3    H115378   0.839   1.111   1.014 -0.4782  0.8408 -0.5013
 5138TIP3    H215379   0.688   1.115   1.004 -0.5382 -0.3645 -0.3187
 5139TIP3   OH215380   1.305   2.304   2.897 -0.3322 -0.7895 -0.3161
 5139TIP3    H115381   1.372   2.294   2.829 -1.0038 -0.0385 -1.1167
 5139TIP3    H215382   1.309   2.397   2.921 -0.8298 -0.8210 -0.1006
 5140TIP3   OH215383   4.780   0.178   3.877  0.1319  0.2643 -0.3219
 5140TIP3    H115384   4.802   0.163   3.969  1.1358 -0.7458 -0.7161
 5140TIP3    H215385   4.721   0.106   3.854 -0.7379  0.9398 -0.2806
 5141TIP3   OH215386   2.390   2.648   4.752 -0.1075  0.3961 -0.0378
 5141TIP3    H115387   2.420   2.689   4.833 -0.4579  0.0504  0.2663
 5141TIP3    H215388   2.351   2.566   4.779  1.7048 -0.7696 -0.7624
 5142TIP3   OH215389   0.691   1.666   2.252  0.2592 -0.4642 -0.2254
 5142TIP3    H115390   0.616   1.668   2.313  0.6601 -0.0371  0.2635
 5142TIP3    H215391   0.656   1.702   2.170  0.0713  0.3201  0.1813
 5143TIP3   OH215392   0.047   5.065   2.443  0.0446 -0.4019  0.6471
 5143TIP3    H115393   0.022   5.140   2.389 -1.1685  0.0656  1.8143
 5143TIP3    H215394   0.074   4.999   2.380 -1.2651  0.1430 -0.5398
 5144TIP3   OH215395   1.609   1.954   0.964 -0.1105  0.0243  0.5417
 5144TIP3    H115396   1.592   2.014   1.037  0.5311  2.2089 -1.0002
 5144TIP3    H215397   1.703   1.938   0.969 -0.0416  0.2961  0.1265
 5145TIP3   OH215398   0.714   0.361   2.537  0.0425  1.1464  0.2985
 5145TIP3    H115399   0.774   0.332   2.467  0.5123 -0.1775  1.2052
 5145TIP3    H215400   0.751   0.324   2.617 -1.7955  0.5903  0.9406
 5146TIP3   OH215401   2.293   2.462   0.390  0.3579  0.4329 -0.3821
 5146TIP3    H115402   2.213   2.435   0.345 -0.4793  1.5277  0.4015
 5146TIP3    H215403   2.287   2.422   0.477 -0.9593  3.0434  0.8418
 5147TIP3   OH215404   7.175   4.442   2.169  0.5977  0.0319  1.0711
 5147TIP3    H115405   7.223   4.370   2.129  0.5588  0.6385 -0.1213
 5147TIP3    H215406   7.086   4.409   2.179  0.9612 -0.6605  2.1245
 5148TIP3   OH215407   7.113   4.582   2.684 -0.3193 -0.3757 -0.3451
 5148TIP3    H115408   7.160   4.527   2.621 -1.4348 -1.0981 -0.5862
 5148TIP3    H215409   7.097   4.525   2.759  0.4312  0.2912  0.3420
 5149TIP3   OH215410   7.004   2.881   5.702 -0.0081  0.1301 -0.0178
 5149TIP3    H115411   7.033   2.940   5.771 -1.4217  0.7873  0.0626
 5149TIP3    H215412   6.938   2.931   5.653 -0.2733 -0.9134 -0.7834
 5150TIP3   OH215413   4.753   3.321   0.238  0.1822 -0.0606 -0.0415
 5150TIP3    H115414   4.760   3.289   0.148 -0.4633 -1.9464  0.5423
 5150TIP3    H215415   4.668   3.364   0.242 -0.0544 -0.5126 -0.1800
 5151TIP3   OH215416   0.943   0.461   1.142  0.3155 -0.0492  1.2152
 5151TIP3    H115417   0.901   0.474   1.227  0.0885 -0.9428  1.2487
 5151TIP3    H215418   1.033   0.438   1.162  0.6371  1.0761  1.1624
 5152TIP3   OH215419   1.497   4.162   1.468 -0.2165  0.1046  0.0183
 5152TIP3    H115420   1.514   4.095   1.401 -2.3649  0.6882 -1.2151
 5152TIP3    H215421   1.577   4.215   1.469  1.5505 -2.3478  1.0135
 5153TIP3   OH215422   1.329   2.873   2.747 -0.1276  0.3733 -0.3619
 5153TIP3    H115423   1.349   2.820   2.670 -0.9616 -0.5886  0.0574
 5153TIP3    H215424   1.403   2.934   2.754 -0.8869  1.7333 -2.9467
 5154TIP3   OH215425   4.818   2.197   3.387  0.3756 -0.0581  0.0140
 5154TIP3    H115426   4.911   2.173   3.390  0.7184  0.9385 -1.5623
 5154TIP3    H215427   4.772   2.114   3.376  1.0130 -0.6283  1.4403
 5155TIP3   OH215428   0.474   0.985   1.099 -0.3269 -0.0074  0.1394
 5155TIP3    H115429   0.466   0.973   1.004  1.9303  1.4745 -0.3147
 5155TIP3    H215430   0.418   1.060   1.118  1.7185  1.8452 -0.6887
 5156TIP3   OH215431   5.127   0.658   2.015  0.1470  0.6178 -0.2308
 5156TIP3    H115432   5.189   0.609   2.068  0.2911  1.9830  0.9356
 5156TIP3    H215433   5.164   0.746   2.010 -1.1611  1.1857 -0.4084
 5157TIP3   OH215434   3.247   0.893   1.636 -0.4410  0.2054 -0.0976
 5157TIP3    H115435   3.258   0.907   1.730 -0.6080  3.9857 -0.4718
 5157TIP3    H215436   3.206   0.807   1.629  1.0475 -0.9361  3.1232
 5158TIP3   OH215437   0.808   3.312   2.005  0.1082 -0.1803 -0.4242
 5158TIP3    H115438   0.875   3.381   2.010 -2.2068  2.2139 -0.1875
 5158TIP3    H215439   0.777   3.302   2.095  0.0291 -1.1618 -0.5508
 5159TIP3   OH215440   4.512   2.514   3.271 -0.4250  0.1499 -0.2083
 5159TIP3    H115441   4.584   2.544   3.215 -0.4260  0.0142 -0.2829
 5159TIP3    H215442   4.442   2.490   3.210 -0.4771  0.1350 -0.1430
 5160TIP3   OH215443   3.654   4.603   0.348  0.0961 -0.3612  0.1161
 5160TIP3    H115444   3.711   4.668   0.307  1.0135 -0.9128  0.4807
 5160TIP3    H215445   3.686   4.519   0.316 -0.6682 -0.6749  0.1525
 5161TIP3   OH215446   1.162   0.190   0.260  0.1365 -0.2256  0.2625
 5161TIP3    H115447   1.120   0.273   0.283 -0.5004  0.1453 -2.0043
 5161TIP3    H215448   1.091   0.126   0.264  0.5613 -0.6427  1.6967
 5162TIP3   OH215449   4.121   5.880   0.686 -0.1814  0.9308 -0.2905
 5162TIP3    H115450   4.092   5.947   0.749 -1.1454  1.1273 -0.9228
 5162TIP3    H215451   4.213   5.902   0.669 -0.7744  2.8794 -1.3998
 5163TIP3   OH215452   5.076   1.698   0.444 -0.1574 -0.0280  0.2827
 5163TIP3    H115453   5.081   1.758   0.369 -0.9379  1.2154  1.1914
 5163TIP3    H215454   5.107   1.614   0.409 -0.6963  0.4573 -1.4889
 5164TIP3   OH215455   3.365   1.343   1.939  0.4803 -0.4380  0.7503
 5164TIP3    H115456   3.405   1.264   1.977  0.9157 -0.9013 -0.6099
 5164TIP3    H215457   3.305   1.373   2.006  1.3655 -1.0997  1.8930
 5165TIP3   OH215458   4.639   5.020   3.599 -0.0823 -0.4228 -0.1100
 5165TIP3    H115459   4.629   5.115   3.602  0.7225 -0.3095 -0.4586
 5165TIP3    H215460   4.673   4.996   3.685 -1.1431 -0.5169  0.2887
 5166TIP3   OH215461   5.841   6.810   0.511 -0.0462  0.1946  0.0311
 5166TIP3    H115462   5.844   6.732   0.566  1.7613  0.4008  0.3123
 5166TIP3    H215463   5.838   6.775   0.421 -1.9159 -0.1455  0.1981
 5167TIP3   OH215464   4.077   4.226   4.554  0.7617 -0.2254  0.0744
 5167TIP3    H115465   4.107   4.186   4.473  0.4361 -0.2821 -0.0203
 5167TIP3    H215466   3.982   4.216   4.552  0.7287  0.0105  0.3363
 5168TIP3   OH215467   0.415   6.804   0.419 -0.1421  0.7084 -0.0145
 5168TIP3    H115468   0.480   6.801   0.349 -0.1290  2.0484 -0.0860
 5168TIP3    H215469   0.437   6.729   0.474 -1.0949 -1.3079 -2.2170
 5169TIP3   OH215470   1.447   3.889   4.974  0.5403  0.0790  0.1722
 5169TIP3    H115471   1.397   3.945   5.033 -2.5045  0.5282 -2.5717
 5169TIP3    H215472   1.498   3.950   4.920  2.1415 -0.2460  1.2505
 5170TIP3   OH215473   4.819   2.864   5.500  0.3976 -0.1130  0.0266
 5170TIP3    H115474   4.871   2.869   5.420 -1.2132  0.3659 -1.0386
 5170TIP3    H215475   4.854   2.933   5.557  3.4728 -2.2544  1.0262
 5171TIP3   OH215476   6.616   1.645   3.403 -0.4880  0.3042 -0.4793
 5171TIP3    H115477   6.697   1.626   3.356 -0.9614 -1.0534 -0.7838
 5171TIP3    H215478   6.599   1.567   3.456 -0.4737  1.4376  1.2646
 5172TIP3   OH215479   6.633   5.845   2.970 -0.1440  0.2744  0.2526
 5172TIP3    H115480   6.692   5.796   2.913 -1.3414  0.5566 -1.3017
 5172TIP3    H215481   6.581   5.779   3.014  0.1028  0.0757  0.2454
 5173TIP3   OH215482   2.160   2.382   4.421 -0.4839  0.5947 -0.1599
 5173TIP3    H115483   2.226   2.451   4.427  0.3129 -0.2430  1.1011
 5173TIP3    H215484   2.130   2.369   4.511 -1.0767 -0.2869 -0.4694
 5174TIP3   OH215485   0.970   2.069   5.869  0.5316  0.1619  0.0151
 5174TIP3    H115486   1.062   2.059   5.893  0.0652 -1.1315  1.3514
 5174TIP3    H215487   0.959   2.164   5.855  1.8409  0.4313  0.7199
 5175TIP3   OH215488   1.771   1.227   4.005 -0.8227  0.0189 -0.0577
 5175TIP3    H115489   1.704   1.175   3.960 -0.7778  0.3233 -0.4894
 5175TIP3    H215490   1.759   1.316   3.971 -2.9900  1.0587  2.9699
 5176TIP3   OH215491   4.994   4.125   4.716 -0.4754  0.0089  0.1244
 5176TIP3    H115492   4.905   4.130   4.680 -0.3736 -2.2689 -0.6553
 5176TIP3    H215493   5.036   4.206   4.689 -2.5397  1.5446  1.2531
 5177TIP3   OH215494   4.537   5.763   1.647 -0.0822  0.1111 -0.0404
 5177TIP3    H115495   4.455   5.806   1.668 -0.3390  0.0828 -0.9528
 5177TIP3    H215496   4.513   5.693   1.587  0.6975  0.5944 -0.9426
 5178TIP3   OH215497   5.221   3.923   0.677 -0.0581 -0.1907 -0.9950
 5178TIP3    H115498   5.145   3.865   0.671 -0.1865 -0.2950  1.0165
 5178TIP3    H215499   5.287   3.871   0.723 -0.1838  1.2063  0.8661
 5179TIP3   OH215500   3.278   2.846   4.038 -0.4379 -0.0317  0.0103
 5179TIP3    H115501   3.190   2.830   4.074  0.0344  1.4458  1.9996
 5179TIP3    H215502   3.262   2.881   3.950 -1.7636 -1.2788 -0.2724
 5180TIP3   OH215503   0.807   4.512   5.042  0.1709  0.1861 -0.5007
 5180TIP3    H115504   0.885   4.519   4.987 -0.4087 -0.8203 -1.4965
 5180TIP3    H215505   0.776   4.423   5.028  0.5080 -0.4404  2.2148
 5181TIP3   OH215506   2.001   1.252   5.224  0.3993 -0.4683  0.1369
 5181TIP3    H115507   1.943   1.248   5.300  0.5057  1.2564  0.3658
 5181TIP3    H215508   2.084   1.215   5.254  0.1915 -0.5422  0.6215
 5182TIP3   OH215509   3.687   5.647   2.164  0.4678 -0.3863 -0.2023
 5182TIP3    H115510   3.675   5.566   2.213 -0.7881 -0.3839 -0.4522
 5182TIP3    H215511   3.760   5.630   2.105  0.6283 -1.1076  0.2042
 5183TIP3   OH215512   3.488   3.869   1.651  0.1604 -0.3242  0.4594
 5183TIP3    H115513   3.522   3.908   1.570 -2.7720  0.2533 -0.6330
 5183TIP3    H215514   3.484   3.775   1.632 -2.9984  0.0181 -1.2678
 5184TIP3   OH215515   0.701   2.213   2.993 -0.2346 -0.1815 -0.2280
 5184TIP3    H115516   0.676   2.292   2.946 -1.2644  0.3104  1.0778
 5184TIP3    H215517   0.627   2.154   2.982  0.1689 -0.6540 -0.4811
 5185TIP3   OH215518   0.996   4.557   4.847  0.0722  0.2933 -0.3273
 5185TIP3    H115519   1.065   4.490   4.848 -0.2978 -0.0984 -0.6274
 5185TIP3    H215520   1.031   4.627   4.793  1.0667  1.0064  1.1675
 5186TIP3   OH215521   2.332   4.503   0.918 -0.2150  0.3964  0.4327
 5186TIP3    H115522   2.251   4.464   0.887 -0.4819  0.4176  1.0756
 5186TIP3    H215523   2.351   4.456   1.000  1.0746 -0.4588 -0.3092
 5187TIP3   OH215524   5.734   6.643   3.795 -0.4981  0.1228 -0.7619
 5187TIP3    H115525   5.685   6.725   3.802 -0.3199  0.1041  1.0883
 5187TIP3    H215526   5.756   6.637   3.702 -1.6215  1.5096 -1.1644
 5188TIP3   OH215527   2.380   2.189   5.636 -0.2460 -0.0059 -0.6696
 5188TIP3    H115528   2.411   2.123   5.573 -0.0756 -1.4081  0.8359
 5188TIP3    H215529   2.427   2.269   5.611  1.1511 -0.9614 -1.2547
 5189TIP3   OH215530   0.384   5.316   0.411 -0.1911  0.1856 -0.5604
 5189TIP3    H115531   0.453   5.258   0.442 -1.9080 -1.5387  0.2542
 5189TIP3    H215532   0.427   5.400   0.398  1.6871 -0.3358  1.6182
 5190TIP3   OH215533   1.184   2.714   3.794  0.4112  0.1910  0.2430
 5190TIP3    H115534   1.263   2.662   3.785  1.4879  1.7940  0.0975
 5190TIP3    H215535   1.141   2.709   3.709  0.5449 -0.3818  0.2113
 5191TIP3   OH215536   3.273   1.494   5.227 -0.6186 -0.3851  0.2899
 5191TIP3    H115537   3.225   1.413   5.242  1.0399 -1.1478  1.8648
 5191TIP3    H215538   3.330   1.503   5.303  1.0922  0.9060 -1.0507
 5192TIP3   OH215539   6.877   5.486   5.804  0.0818 -0.2707  0.2638
 5192TIP3    H115540   6.874   5.442   5.719  1.1730 -0.9669  0.5697
 5192TIP3    H215541   6.913   5.572   5.784  0.1181 -0.3473 -0.0131
 5193TIP3   OH215542   0.530   3.481   4.585  0.1011  0.0837  0.5769
 5193TIP3    H115543   0.550   3.572   4.607  1.4469 -0.1149  0.3073
 5193TIP3    H215544   0.615   3.436   4.593 -0.5184 -1.1162  0.5723
 5194TIP3   OH215545   1.170   4.784   3.547  0.6372 -0.0575 -0.2668
 5194TIP3    H115546   1.119   4.727   3.490  0.9583  0.6399 -1.2933
 5194TIP3    H215547   1.134   4.770   3.634 -2.7871  1.8835 -1.1695
 5195TIP3   OH215548   1.104   5.945   0.270 -0.4583  0.1021 -0.0199
 5195TIP3    H115549   1.127   5.975   0.182 -0.7567  0.8098  0.1356
 5195TIP3    H215550   1.102   6.025   0.323  2.1921 -0.5281  1.2293
 5196TIP3   OH215551   3.747   0.202   4.495  0.0442 -0.3239  0.2804
 5196TIP3    H115552   3.695   0.281   4.480 -1.6132 -1.3238  0.5987
 5196TIP3    H215553   3.829   0.235   4.534 -0.0500  1.3291 -0.7906
 5197TIP3   OH215554   6.894   3.944   0.920  0.1278 -0.3808 -0.3788
 5197TIP3    H115555   6.844   3.864   0.908 -0.0332 -0.6604  1.7584
 5197TIP3    H215556   6.836   4.013   0.888 -0.5380 -0.9514 -0.4292
 5198TIP3   OH215557   0.283   5.625   2.064 -0.1051 -0.1332  0.4429
 5198TIP3    H115558   0.258   5.557   2.126  2.7183 -1.2054  0.5411
 5198TIP3    H215559   0.247   5.594   1.980 -0.3560 -0.8317  0.7960
 5199TIP3   OH215560   3.580   3.259   4.889  0.5722 -0.1024  0.2799
 5199TIP3    H115561   3.558   3.219   4.973  0.2676  0.4726  0.4747
 5199TIP3    H215562   3.656   3.315   4.909  0.4315  0.1190  0.2008
 5200TIP3   OH215563   1.840   6.773   3.547  0.0042 -0.0691 -0.3547
 5200TIP3    H115564   1.902   6.741   3.612  1.3316  1.2458 -0.9000
 5200TIP3    H215565   1.886   6.760   3.463 -0.0184  1.8199 -0.6910
 5201TIP3   OH215566   4.941   0.404   2.396  0.2825  0.3666  0.4009
 5201TIP3    H115567   4.946   0.319   2.441  2.6996  0.9020  1.2845
 5201TIP3    H215568   4.984   0.389   2.312 -0.8921  0.3152 -0.2165
 5202TIP3   OH215569   1.971   3.185   4.699 -0.1661  0.0148  0.1267
 5202TIP3    H115570   1.970   3.090   4.695  2.4067 -0.1227  0.8189
 5202TIP3    H215571   1.990   3.213   4.610 -0.6962 -0.0998 -0.0288
 5203TIP3   OH215572   5.212   3.569   0.526 -0.2229  0.0478 -0.4204
 5203TIP3    H115573   5.224   3.474   0.522 -0.1130  0.0828 -1.0003
 5203TIP3    H215574   5.263   3.603   0.453  0.5631  0.6421  0.3811
 5204TIP3   OH215575   1.232   3.497   0.303  0.1945 -0.1418  0.8410
 5204TIP3    H115576   1.156   3.496   0.244 -1.0211 -0.2722  2.3381
 5204TIP3    H215577   1.272   3.411   0.293 -0.1149 -0.2279  0.3465
 5205TIP3   OH215578   3.637   3.899   4.740  0.1208  0.3205  0.0206
 5205TIP3    H115579   3.664   3.807   4.752  0.6411  0.4313 -0.2730
 5205TIP3    H215580   3.719   3.948   4.743  0.1275  0.5515 -2.1743
 5206TIP3   OH215581   2.459   4.438   2.406 -0.1548 -0.6256  0.1038
 5206TIP3    H115582   2.525   4.463   2.470 -1.3556  2.9393  0.1475
 5206TIP3    H215583   2.478   4.491   2.329 -3.4002  1.3429  0.4723
 5207TIP3   OH215584   7.126   3.671   1.607 -0.0613 -0.2841 -0.1371
 5207TIP3    H115585   7.203   3.704   1.654 -0.6610  1.2028 -0.1446
 5207TIP3    H215586   7.116   3.730   1.533 -1.3491 -0.3058  0.0021
 5208TIP3   OH215587   0.128   2.452   5.481  0.3495  1.0331  0.1404
 5208TIP3    H115588   0.117   2.375   5.537  1.1599  0.1691 -0.8503
 5208TIP3    H215589   0.105   2.526   5.537 -0.6511  0.0658  1.0550
 5209TIP3   OH215590   2.211   1.501   0.879 -0.2907 -0.6748  0.0999
 5209TIP3    H115591   2.213   1.491   0.784 -0.5360 -0.4494  0.0690
 5209TIP3    H215592   2.267   1.431   0.912 -2.0280 -2.2269 -0.0904
 5210TIP3   OH215593   3.130   3.570   0.338 -0.5253  0.5413 -0.0023
 5210TIP3    H115594   3.211   3.536   0.300 -0.2156 -0.0252  1.1176
 5210TIP3    H215595   3.073   3.587   0.263 -0.3131 -1.4786 -0.6633
 5211TIP3   OH215596   4.038   2.937   3.428  0.3331 -0.0071 -0.2643
 5211TIP3    H115597   4.020   3.030   3.442  1.1971  0.4917 -2.0809
 5211TIP3    H215598   4.005   2.920   3.340  0.4252 -1.3634 -0.0515
 5212TIP3   OH215599   1.129   3.836   1.714 -0.2720 -0.8636  0.6537
 5212TIP3    H115600   1.100   3.823   1.624 -3.0520 -0.4737  1.3935
 5212TIP3    H215601   1.106   3.928   1.733  0.0205 -1.0176  1.8345
 5213TIP3   OH215602   0.576   4.781   1.026  0.6028 -0.0418  0.7396
 5213TIP3    H115603   0.524   4.702   1.010  2.7047 -1.3868  0.2214
 5213TIP3    H215604   0.547   4.811   1.112 -0.4960 -1.1379  0.7840
 5214TIP3   OH215605   4.124   2.520   1.368 -0.4449  0.5913 -0.1041
 5214TIP3    H115606   4.137   2.507   1.274 -0.5534 -1.4036  0.1007
 5214TIP3    H215607   4.030   2.508   1.381 -0.2096 -0.8872  0.4414
 5215TIP3   OH215608   7.207   3.579   2.006  0.0397  0.0828  0.4613
 5215TIP3    H115609   7.284   3.557   2.059  0.0241 -1.4188 -0.0878
 5215TIP3    H215610   7.134   3.534   2.049 -0.5278  1.3661  0.8857
 5216TIP3   OH215611   4.184   5.777   0.124 -0.0572 -0.2873 -0.1103
 5216TIP3    H115612   4.245   5.839   0.084 -1.1424  0.9566  0.0626
 5216TIP3    H215613   4.167   5.813   0.212 -0.9045 -0.6851 -0.0966
 5217TIP3   OH215614   3.314   0.119   5.530 -0.0137  0.0600  0.3608
 5217TIP3    H115615   3.312   0.150   5.439 -0.5004 -0.6390  0.1229
 5217TIP3    H215616   3.226   0.137   5.563 -0.9380 -2.6323 -0.3461
 5218TIP3   OH215617   7.063   0.741   5.511  0.4126 -0.5016  0.5922
 5218TIP3    H115618   7.148   0.702   5.496 -0.4723 -2.2748 -0.0943
 5218TIP3    H215619   7.012   0.720   5.433 -1.3135 -1.4346  1.8910
 5219TIP3   OH215620   1.362   2.025   1.748 -0.6527 -0.1256  0.4377
 5219TIP3    H115621   1.383   1.961   1.816 -0.1272  0.6458  1.0088
 5219TIP3    H215622   1.332   1.971   1.674  0.1313 -1.0573  0.7727
 5220TIP3   OH215623   1.134   3.410   5.566  0.6723 -0.0151 -0.1855
 5220TIP3    H115624   1.198   3.367   5.622  0.8988 -0.4097 -0.7408
 5220TIP3    H215625   1.187   3.451   5.497  0.4501  1.0158  0.2414
 5221TIP3   OH215626   3.740   1.418   3.228  0.1765  0.1841 -0.0574
 5221TIP3    H115627   3.708   1.383   3.144  0.4872 -3.3067  1.0969
 5221TIP3    H215628   3.661   1.450   3.272 -0.7463 -1.9501 -0.0339
 5222TIP3   OH215629   1.164   6.036   1.451 -0.2784 -0.2525 -0.7434
 5222TIP3    H115630   1.192   5.972   1.386  2.5944  1.4074 -1.3077
 5222TIP3    H215631   1.194   6.001   1.535  0.1768 -0.2622 -0.9056
 5223TIP3   OH215632   5.422   4.288   5.623  0.2651  0.2913 -1.0122
 5223TIP3    H115633   5.377   4.355   5.675  1.6030  0.4520 -0.0269
 5223TIP3    H215634   5.432   4.327   5.537  1.5318  1.6327 -0.3065
 5224TIP3   OH215635   1.366   2.002   5.086 -0.3492 -0.0570  0.0216
 5224TIP3    H115636   1.420   2.081   5.075  1.8579 -1.5218 -0.1948
 5224TIP3    H215637   1.296   2.012   5.020 -0.2450  1.7838  0.1411
 5225TIP3   OH215638   3.477   4.065   1.967 -0.2554  0.2891  0.0586
 5225TIP3    H115639   3.525   4.140   2.001 -0.1700  0.3471 -0.1864
 5225TIP3    H215640   3.447   4.018   2.045  1.9542 -0.8848  0.2727
 5226TIP3   OH215641   4.490   4.112   0.400 -0.2900 -0.1174  0.2101
 5226TIP3    H115642   4.534   4.116   0.485 -0.3288  0.0810  0.2224
 5226TIP3    H215643   4.396   4.117   0.421 -0.3586 -1.2744  0.2338
 5227TIP3   OH215644   4.668   4.295   2.120 -0.7586  0.6869  0.7874
 5227TIP3    H115645   4.612   4.363   2.082 -1.2351  0.2235  0.6559
 5227TIP3    H215646   4.682   4.323   2.210  0.0639  1.5977  0.4130
 5228TIP3   OH215647   5.628   4.416   3.868 -0.9655 -0.8918  0.4331
 5228TIP3    H115648   5.681   4.487   3.830  1.0224 -1.4463  1.9873
 5228TIP3    H215649   5.538   4.445   3.854 -0.2722  2.3788  1.6476
 5229TIP3   OH215650   6.215   0.421   2.486 -0.2154 -0.4192 -0.2501
 5229TIP3    H115651   6.281   0.490   2.497  0.1017 -0.3038 -2.4979
 5229TIP3    H215652   6.179   0.409   2.574  0.7487  1.5622  0.4837
 5230TIP3   OH215653   3.723   0.208   0.031  0.0552  0.1510  0.5224
 5230TIP3    H115654   3.693   0.217  -0.059  0.6584 -1.0635  0.1724
 5230TIP3    H215655   3.794   0.272   0.039 -0.3006  0.5808  0.2847
 5231TIP3   OH215656   4.523   3.829   4.106  0.0992  0.0269  0.2971
 5231TIP3    H115657   4.609   3.819   4.146  0.9563 -2.7906 -1.9290
 5231TIP3    H215658   4.477   3.748   4.126 -0.8484  0.1762 -1.1084
 5232TIP3   OH215659   1.491   5.638   2.772  0.1066  0.7771 -0.0015
 5232TIP3    H115660   1.568   5.591   2.804  0.0675 -0.0219 -1.0143
 5232TIP3    H215661   1.422   5.571   2.769  0.1658  0.7345 -1.9087
 5233TIP3   OH215662   4.995   6.697   1.203 -0.0688 -0.4634 -0.1396
 5233TIP3    H115663   5.015   6.621   1.258  1.4212 -0.1261 -0.1755
 5233TIP3    H215664   4.918   6.736   1.243  1.0344 -0.1670  1.8218
 5234TIP3   OH215665   0.571   5.413   4.999  0.2955 -0.3386 -0.0955
 5234TIP3    H115666   0.545   5.401   4.907  0.0533 -0.7830  0.0282
 5234TIP3    H215667   0.620   5.495   4.999  1.5245 -1.0404 -0.8722
 5235TIP3   OH215668   6.060   2.471   3.948 -0.6243 -0.7785 -0.1996
 5235TIP3    H115669   6.155   2.462   3.955 -0.5418  0.0645 -0.1855
 5235TIP3    H215670   6.044   2.565   3.956 -1.4212 -0.8676 -0.6812
 5236TIP3   OH215671   3.317   4.240   2.336  0.2605 -0.4924 -0.1035
 5236TIP3    H115672   3.291   4.149   2.320 -1.4596  0.0595 -0.6262
 5236TIP3    H215673   3.256   4.270   2.404  0.3934  0.4562 -0.3981
 5237TIP3   OH215674   3.042   0.634   0.004  0.7120 -0.0938  0.2565
 5237TIP3    H115675   3.099   0.693  -0.046  0.1736  0.6530  0.5010
 5237TIP3    H215676   3.101   0.590   0.065  1.1517  0.0784 -0.0422
 5238TIP3   OH215677   3.490   4.726   2.895  0.1340  0.1295  0.3655
 5238TIP3    H115678   3.457   4.665   2.961  0.0756  1.0394  1.2065
 5238TIP3    H215679   3.484   4.678   2.813  1.3092 -1.4479  1.1568
 5239TIP3   OH215680   6.527   4.276   3.971 -0.1754 -0.3476  0.0353
 5239TIP3    H115681   6.610   4.249   4.010  0.3350  0.8535 -0.1649
 5239TIP3    H215682   6.532   4.372   3.968 -0.8421 -0.3365 -1.5684
 5240TIP3   OH215683   7.104   5.000   0.366 -0.0572  0.0965 -0.4426
 5240TIP3    H115684   7.122   5.094   0.360 -1.4001  0.4053  0.0550
 5240TIP3    H215685   7.012   4.991   0.340 -1.4227 -0.4321  3.7600
 5241TIP3   OH215686   5.849   0.965   2.672  0.2036 -0.5554  0.3903
 5241TIP3    H115687   5.937   0.934   2.694  0.9134  1.7771  1.1713
 5241TIP3    H215688   5.863   1.020   2.594 -0.5740 -0.2161  0.4891
 5242TIP3   OH215689   6.252   4.012   0.365 -0.1647 -0.1200 -0.3146
 5242TIP3    H115690   6.345   4.001   0.345 -0.1049  0.8360 -0.5973
 5242TIP3    H215691   6.237   4.106   0.362 -0.9076 -0.1812  0.8431
 5243TIP3   OH215692   0.957   0.449   5.151 -0.1301  0.5343  0.3466
 5243TIP3    H115693   0.956   0.458   5.247  0.5923 -0.5406  0.4732
 5243TIP3    H215694   1.047   0.471   5.127 -0.3003  0.7608 -0.0872
 5244TIP3   OH215695   0.239   6.771   3.367  0.5420  1.0786 -0.4646
 5244TIP3    H115696   0.256   6.761   3.273  2.7273 -1.7780  0.0714
 5244TIP3    H215697   0.182   6.698   3.388  1.8342  0.3612  0.7305
 5245TIP3   OH215698   1.032   4.256   3.564 -0.6367  0.1170 -0.0166
 5245TIP3    H115699   1.082   4.288   3.639 -1.2909  0.8814  0.1029
 5245TIP3    H215700   0.975   4.329   3.539 -2.2191 -0.9447  0.3006
 5246TIP3   OH215701   4.925   6.802   3.526  0.1727  0.3071 -0.1033
 5246TIP3    H115702   4.938   6.747   3.603  0.1158 -0.8212 -0.8726
 5246TIP3    H215703   4.907   6.741   3.455 -1.4017  1.3846 -0.7074
 5247TIP3   OH215704   4.784   1.082   4.928 -0.8068  0.4775 -0.3573
 5247TIP3    H115705   4.833   1.003   4.952 -0.8024  0.7310  0.4969
 5247TIP3    H215706   4.727   1.054   4.856 -1.5372 -0.5718  0.5966
 5248TIP3   OH215707   0.006   3.342   4.666  0.0830 -0.3197  0.8229
 5248TIP3    H115708   0.101   3.355   4.671  0.1819 -0.9827  0.8481
 5248TIP3    H215709  -0.004   3.267   4.608 -0.3912 -0.6447  1.3135
 5249TIP3   OH215710   1.644   6.029   5.110 -0.1632 -0.4201 -0.1676
 5249TIP3    H115711   1.738   6.015   5.119  0.1385  0.3140 -1.7999
 5249TIP3    H215712   1.612   5.949   5.067 -0.5801 -1.3160  1.6948
 5250TIP3   OH215713   0.716   2.180   1.497 -0.0023  0.2436 -0.1343
 5250TIP3    H115714   0.755   2.220   1.575 -0.4232 -0.4416  0.4344
 5250TIP3    H215715   0.755   2.093   1.492 -0.1589  0.1973 -0.5535
 5251TIP3   OH215716   4.395   3.141   2.332 -0.3102 -0.1043  0.2293
 5251TIP3    H115717   4.303   3.116   2.324 -0.3936  0.2393  0.0896
 5251TIP3    H215718   4.420   3.112   2.420 -0.5658 -0.1544  0.2860
 5252TIP3   OH215719   6.372   4.104   5.037 -0.8225  0.1067 -0.9197
 5252TIP3    H115720   6.393   4.042   5.107 -1.3332  2.4395  1.4752
 5252TIP3    H215721   6.276   4.109   5.036 -0.8348 -0.0570 -1.9745
 5253TIP3   OH215722   6.321   1.890   4.739 -0.2010 -0.3359  0.0155
 5253TIP3    H115723   6.334   1.983   4.760 -1.2065 -0.2275  0.1922
 5253TIP3    H215724   6.330   1.845   4.823  0.5177 -0.4306 -0.1073
 5254TIP3   OH215725   5.713   1.781   5.041 -0.2455 -0.0346  0.5513
 5254TIP3    H115726   5.715   1.821   5.128  0.7322 -0.5329  0.7650
 5254TIP3    H215727   5.722   1.687   5.057  0.8791 -0.0620 -0.1282
 5255TIP3   OH215728   4.656   1.917   4.058 -0.4004  0.0860 -0.6426
 5255TIP3    H115729   4.565   1.928   4.088  0.4817  1.7372  1.8035
 5255TIP3    H215730   4.689   1.844   4.109  0.3434  1.1494  0.4398
 5256TIP3   OH215731   5.061   3.457   2.811 -0.5921 -0.7185 -0.1045
 5256TIP3    H115732   5.150   3.491   2.816 -0.8177  0.2687 -1.7582
 5256TIP3    H215733   5.011   3.512   2.872 -0.1982 -0.7889  0.2809
 5257TIP3   OH215734   0.361   1.696   4.021  0.8706  0.0323 -0.1871
 5257TIP3    H115735   0.303   1.628   3.986 -0.7147  2.3866 -2.5154
 5257TIP3    H215736   0.324   1.715   4.108  1.2445 -1.8518  0.4420
 5258TIP3   OH215737   6.910   0.035   4.771 -0.2895  0.1475 -0.0972
 5258TIP3    H115738   6.939   0.121   4.801 -2.5060  0.4922  1.3111
 5258TIP3    H215739   6.875   0.051   4.683 -0.4366  0.6521  0.0472
 5259TIP3   OH215740   5.080   2.978   5.233 -0.0940 -0.2122  0.0127
 5259TIP3    H115741   5.000   2.997   5.282 -1.2016  0.7585 -2.0275
 5259TIP3    H215742   5.111   3.064   5.204  0.8944 -0.6928 -0.3917
 5260TIP3   OH215743   1.582   3.985   5.255 -0.1132  0.2037  0.5861
 5260TIP3    H115744   1.641   3.931   5.204 -1.3327 -3.2615  2.4927
 5260TIP3    H215745   1.614   4.074   5.243  3.4714 -1.1146 -0.9862
 5261TIP3   OH215746   5.071   2.412   1.795  0.3213  1.1223 -0.6239
 5261TIP3    H115747   5.105   2.357   1.725 -0.9354  0.7554 -0.9744
 5261TIP3    H215748   5.005   2.357   1.838  2.6173  0.4458  2.3647
 5262TIP3   OH215749   3.259   0.926   2.978 -0.4311  0.3540  0.2596
 5262TIP3    H115750   3.220   0.866   3.042  0.1043  0.4000  0.6410
 5262TIP3    H215751   3.197   0.999   2.973 -1.5937 -0.6791 -0.9688
 5263TIP3   OH215752   3.625   4.559   5.799  0.6690 -1.0795  0.0658
 5263TIP3    H115753   3.578   4.571   5.717  0.5692 -0.8433  0.1586
 5263TIP3    H215754   3.645   4.465   5.801  0.2342 -1.1763  0.0120
 5264TIP3   OH215755   1.308   5.216   1.253  0.8075  0.3891 -0.5287
 5264TIP3    H115756   1.252   5.276   1.301  2.1707  0.6124  0.8510
 5264TIP3    H215757   1.346   5.270   1.183  0.4106  0.5992 -0.5822
 5265TIP3   OH215758   0.894   2.796   3.654  0.3402  0.2323 -0.1188
 5265TIP3    H115759   0.867   2.726   3.714 -0.0528  0.8735  0.4745
 5265TIP3    H215760   0.942   2.752   3.585 -1.3340 -0.8417 -0.6687
 5266TIP3   OH215761   1.649   4.335   3.825  0.2531  0.0897 -0.0778
 5266TIP3    H115762   1.572   4.388   3.804  0.6437  0.1073 -1.5473
 5266TIP3    H215763   1.621   4.245   3.810  0.0918 -0.0239  0.8249
 5267TIP3   OH215764   7.038   1.214   5.717  0.0169 -0.1084 -0.5153
 5267TIP3    H115765   7.025   1.301   5.678 -0.5106 -0.0287 -0.1705
 5267TIP3    H215766   6.975   1.210   5.788  0.7898 -0.3562  0.1699
 5268TIP3   OH215767   4.038   2.282   4.694  0.0245  0.2682 -0.0122
 5268TIP3    H115768   4.095   2.335   4.751  0.4715  1.6386 -1.6322
 5268TIP3    H215769   4.097   2.242   4.631 -0.3838 -1.8007  0.8469
 5269TIP3   OH215770   6.800   1.938   3.959 -0.4171  0.1676 -0.3789
 5269TIP3    H115771   6.705   1.952   3.964 -0.5573 -0.9340  0.3642
 5269TIP3    H215772   6.810   1.864   3.898 -0.1546 -0.6896  0.6770
 5270TIP3   OH215773   4.679   4.646   2.108 -0.0345  0.0173 -0.1361
 5270TIP3    H115774   4.706   4.729   2.146  1.3644  0.1303 -1.2842
 5270TIP3    H215775   4.757   4.591   2.112  0.4222  0.2293 -3.2442
 5271TIP3   OH215776   6.791   2.649   4.427  0.4139 -0.1148 -0.1538
 5271TIP3    H115777   6.707   2.604   4.432  0.6864 -0.8078 -1.4858
 5271TIP3    H215778   6.856   2.581   4.444  0.7189  0.5691  1.6581
 5272TIP3   OH215779   4.175   6.702   1.133  0.0676 -0.3832 -0.0266
 5272TIP3    H115780   4.122   6.779   1.151  1.0523  0.4865 -0.7108
 5272TIP3    H215781   4.136   6.633   1.186 -0.7197  0.6285  0.7570
 5273TIP3   OH215782   6.139   1.395   3.938 -0.3098 -0.8398 -0.1987
 5273TIP3    H115783   6.086   1.462   3.982 -0.2416 -1.2318  0.4922
 5273TIP3    H215784   6.223   1.398   3.984 -0.0176 -0.8141 -0.7258
 5274TIP3   OH215785   4.577   5.780   5.518  0.1711  0.1581  0.8357
 5274TIP3    H115786   4.650   5.803   5.575 -0.4180  0.3248  1.5524
 5274TIP3    H215787   4.590   5.688   5.497  0.3031  0.0420  1.4031
 5275TIP3   OH215788   6.841   6.032   3.696 -0.1681 -0.0147 -0.1853
 5275TIP3    H115789   6.852   5.989   3.611  0.8505 -0.7608  0.3088
 5275TIP3    H215790   6.750   6.063   3.695  0.3694  1.7652 -2.3497
 5276TIP3   OH215791   6.891   4.176   2.040  0.2109 -0.2859 -0.3920
 5276TIP3    H115792   6.835   4.250   2.061  1.2037  0.5431 -0.5899
 5276TIP3    H215793   6.831   4.102   2.032 -0.5908  0.0473  1.8522
 5277TIP3   OH215794   6.798   1.142   1.381 -0.0642 -0.1875  0.3566
 5277TIP3    H115795   6.890   1.115   1.381  1.1237  3.3078 -0.9215
 5277TIP3    H215796   6.779   1.160   1.473  1.1538  0.6833  0.4718
 5278TIP3   OH215797   2.877   6.552   4.634  1.3109  0.1829 -0.3557
 5278TIP3    H115798   2.807   6.502   4.676  0.7245  0.4071 -1.0314
 5278TIP3    H215799   2.949   6.491   4.625  0.7560 -0.4256 -0.7700
 5279TIP3   OH215800   2.059   3.920   5.862  0.1025  0.1021 -0.1445
 5279TIP3    H115801   1.993   3.980   5.896  0.9475  1.9220 -1.5222
 5279TIP3    H215802   2.122   3.911   5.933 -1.0596 -0.8057  0.7978
 5280TIP3   OH215803   6.497   4.029   1.388 -0.0486 -0.4713 -0.4702
 5280TIP3    H115804   6.534   4.061   1.470 -2.6966 -0.5526  0.8727
 5280TIP3    H215805   6.445   4.103   1.355 -1.9045 -1.5611 -0.1337
 5281TIP3   OH215806   3.823   6.031   5.305 -0.2482 -0.4821 -0.2374
 5281TIP3    H115807   3.913   5.998   5.300 -0.4800 -1.3296  0.9142
 5281TIP3    H215808   3.791   6.001   5.390 -2.3840 -2.2235 -1.5432
 5282TIP3   OH215809   3.663   4.985   3.697  0.8902 -0.0931 -0.1553
 5282TIP3    H115810   3.662   4.911   3.758  0.2316  0.1016  0.0818
 5282TIP3    H215811   3.748   4.980   3.654  0.4285 -1.6486 -0.9595
 5283TIP3   OH215812   3.994   1.471   3.135 -0.1498  0.1979  0.0090
 5283TIP3    H115813   4.028   1.390   3.098 -0.3946 -1.3966  2.9851
 5283TIP3    H215814   3.900   1.456   3.144 -0.5665  1.6937 -1.3142
 5284TIP3   OH215815   1.046   1.272   4.316 -0.1010  0.2054  0.3119
 5284TIP3    H115816   0.992   1.198   4.289  1.9461 -1.0816 -0.4017
 5284TIP3    H215817   0.998   1.349   4.285 -1.4023 -0.8972 -0.4929
 5285TIP3   OH215818   4.345   2.376   3.091  0.4487 -0.0729  0.1683
 5285TIP3    H115819   4.364   2.351   3.001 -1.8555 -0.1589 -0.3510
 5285TIP3    H215820   4.313   2.296   3.132 -1.7011  0.6910  0.0742
 5286TIP3   OH215821   6.368   4.912   5.621 -0.5249  0.2379  0.6987
 5286TIP3    H115822   6.393   4.954   5.539  0.6830  0.2138  1.0280
 5286TIP3    H215823   6.297   4.965   5.656 -0.1981  0.9823  0.2467
 5287TIP3   OH215824   4.669   4.016   2.105  0.2999 -0.2890 -0.2459
 5287TIP3    H115825   4.638   4.102   2.134 -0.1599  0.0807 -1.7173
 5287TIP3    H215826   4.692   3.970   2.186  0.6593  1.2446  0.5666
 5288TIP3   OH215827   0.970   4.869   5.319  0.4199  0.0388 -0.2764
 5288TIP3    H115828   0.925   4.936   5.267 -0.0020 -0.9299 -1.1844
 5288TIP3    H215829   0.913   4.858   5.396  0.6509  0.9258  0.0388
 5289TIP3   OH215830   4.258   5.402   5.391 -0.0322  0.3380 -0.0538
 5289TIP3    H115831   4.281   5.341   5.461  0.4981 -0.6641 -1.0706
 5289TIP3    H215832   4.178   5.367   5.353  1.0904 -0.6585 -1.6406
 5290TIP3   OH215833   1.037   0.925   3.414 -0.0229 -0.2159 -0.2739
 5290TIP3    H115834   1.001   1.004   3.455  0.1126  0.2624 -1.0659
 5290TIP3    H215835   0.962   0.865   3.409 -0.4492  0.3641 -0.9013
 5291TIP3   OH215836   4.603   2.201   1.287  0.7059 -0.0173  0.6322
 5291TIP3    H115837   4.684   2.190   1.337  0.2266 -1.2136  1.1535
 5291TIP3    H215838   4.602   2.295   1.266  2.4535 -0.0419  0.2119
 5292TIP3   OH215839   4.397   5.912   0.676  0.5325 -0.2476  0.0835
 5292TIP3    H115840   4.461   5.854   0.718  1.1691  0.2283 -0.2160
 5292TIP3    H215841   4.423   5.913   0.584  0.2213  0.1278 -0.0018
 5293TIP3   OH215842   4.940   1.301   3.693  0.7014  0.1200 -0.2255
 5293TIP3    H115843   4.949   1.231   3.629  1.9544 -0.9908  1.0827
 5293TIP3    H215844   4.946   1.382   3.642  1.5641 -0.7178 -1.5206
 5294TIP3   OH215845   4.678   2.489   4.816  0.1201  0.0325  0.0446
 5294TIP3    H115846   4.750   2.502   4.877 -0.0239  1.5314 -0.0795
 5294TIP3    H215847   4.692   2.400   4.782  0.3867 -0.7032  1.9641
 5295TIP3   OH215848   3.011   4.531   3.877  0.0624  0.3128 -0.3308
 5295TIP3    H115849   2.942   4.544   3.942 -0.2055  2.3370 -0.9541
 5295TIP3    H215850   2.979   4.576   3.799  1.6821  0.4858 -0.9247
 5296TIP3   OH215851   1.015   3.029   0.721  0.0177  0.0497 -0.0714
 5296TIP3    H115852   0.998   2.961   0.656 -2.1954  1.5345 -1.1527
 5296TIP3    H215853   1.056   3.100   0.672 -0.4478  0.6705  0.4219
 5297TIP3   OH215854   6.967   2.451   4.196 -0.2401 -0.5509  0.3254
 5297TIP3    H115855   7.011   2.367   4.192  0.1570 -0.3951  1.2992
 5297TIP3    H215856   6.935   2.459   4.286 -0.7858  0.0835  0.0945
 5298TIP3   OH215857   2.814   1.229   3.280  0.2473  0.3682  0.0036
 5298TIP3    H115858   2.860   1.272   3.352  2.1895  1.0636 -1.5720
 5298TIP3    H215859   2.877   1.165   3.246 -0.6431  0.0303 -1.0650
 5299TIP3   OH215860   4.632   1.712   2.765  0.0156 -0.2114  0.6451
 5299TIP3    H115861   4.608   1.708   2.857 -0.9470 -2.9082  0.3730
 5299TIP3    H215862   4.629   1.621   2.735 -2.1016  0.7188 -2.5988
 5300TIP3   OH215863   2.980   4.758   4.529 -0.5505 -0.0199 -0.0150
 5300TIP3    H115864   2.918   4.778   4.599 -0.0051  0.5449  0.3153
 5300TIP3    H215865   3.055   4.815   4.546  0.0826 -0.7265 -0.3835
 5301TIP3   OH215866   5.954   3.637   2.891 -0.1455 -0.3919  0.0957
 5301TIP3    H115867   5.932   3.730   2.889  1.2683 -0.0301  0.3430
 5301TIP3    H215868   5.991   3.618   2.805  3.5237  0.3659  1.3169
 5302TIP3   OH215869   3.872   1.216   0.267 -0.4418 -0.4152 -0.3321
 5302TIP3    H115870   3.785   1.249   0.244  0.3527  0.6658 -1.9677
 5302TIP3    H215871   3.891   1.149   0.202 -0.6157 -1.7356  0.9169
 5303TIP3   OH215872   3.298   3.967   0.035  0.3533  0.6392 -0.6625
 5303TIP3    H115873   3.277   4.025   0.109 -0.3742  0.1075 -0.4356
 5303TIP3    H215874   3.221   3.973  -0.021  0.6255  0.5173 -1.0468
 5304TIP3   OH215875   2.546   1.432   1.708  0.5415 -0.6737 -0.1292
 5304TIP3    H115876   2.635   1.418   1.742  0.5470 -0.9536 -0.2526
 5304TIP3    H215877   2.556   1.420   1.613  0.8172  1.4857 -0.4327
 5305TIP3   OH215878   4.710   2.710   4.434  0.4687  0.7219 -0.4476
 5305TIP3    H115879   4.729   2.749   4.520 -0.4513  0.8757 -0.3036
 5305TIP3    H215880   4.773   2.638   4.426  1.7737  1.8313 -0.4501
 5306TIP3   OH215881   6.636   4.848   2.131 -0.2523  0.8155  0.1884
 5306TIP3    H115882   6.552   4.822   2.093  0.2791 -0.3087 -0.2709
 5306TIP3    H215883   6.650   4.937   2.100 -0.5024  0.4226 -1.1337
 5307TIP3   OH215884   6.486   2.483   2.686 -0.8183 -0.3849  0.2278
 5307TIP3    H115885   6.500   2.520   2.599  0.8017 -0.4969  0.4135
 5307TIP3    H215886   6.496   2.388   2.674 -1.5604 -0.4970  0.3854
 5308TIP3   OH215887   2.648   5.471   2.318 -0.2986 -0.1178 -0.6844
 5308TIP3    H115888   2.670   5.533   2.248  0.2011 -0.3288 -0.7151
 5308TIP3    H215889   2.729   5.463   2.369 -0.5534 -0.2479 -0.2978
 5309TIP3   OH215890   3.302   1.934   0.435  0.0354 -0.1015  0.8104
 5309TIP3    H115891   3.321   2.019   0.475 -0.5850  0.7362 -0.6063
 5309TIP3    H215892   3.287   1.954   0.343 -0.8962 -1.6471  0.6025
 5310TIP3   OH215893   2.116   5.094   4.047 -0.2625 -0.2191  0.1178
 5310TIP3    H115894   2.059   5.122   4.118 -0.3442  1.5176 -0.5986
 5310TIP3    H215895   2.080   5.009   4.020 -2.2261  0.6024 -0.0103
 5311TIP3   OH215896   6.550   1.569   0.709 -0.2915 -0.0404  0.1920
 5311TIP3    H115897   6.538   1.554   0.802  1.1436 -0.6121  0.3139
 5311TIP3    H215898   6.603   1.649   0.704  1.0688 -0.9234 -0.0376
 5312TIP3   OH215899   2.589   2.942   0.299 -0.5062  0.0365 -0.0987
 5312TIP3    H115900   2.572   2.864   0.353 -0.2412  1.3468  1.9683
 5312TIP3    H215901   2.577   3.016   0.359 -0.5716  1.6039 -1.9642
 5313TIP3   OH215902   0.711   1.720   3.540 -0.4835  0.4365  0.3241
 5313TIP3    H115903   0.788   1.666   3.555 -0.2711  0.6763  0.1282
 5313TIP3    H215904   0.637   1.669   3.573 -0.0656  0.8887  2.0482
 5314TIP3   OH215905   1.696   5.994   4.387  0.1800 -0.0146 -0.0813
 5314TIP3    H115906   1.696   5.931   4.314  0.1955 -1.8188  1.4162
 5314TIP3    H215907   1.620   6.050   4.369 -1.7582 -2.4146  0.0913
 5315TIP3   OH215908   3.079   0.754   3.617 -0.4785 -0.0912 -0.4072
 5315TIP3    H115909   3.144   0.821   3.638  0.6028 -1.0737 -0.4916
 5315TIP3    H215910   3.034   0.738   3.700 -0.1468  0.1289 -0.1770
 5316TIP3   OH215911   0.222   6.235   1.227 -0.0332 -0.4613 -0.3043
 5316TIP3    H115912   0.148   6.175   1.216  1.4359 -2.3328 -0.6046
 5316TIP3    H215913   0.289   6.201   1.167  0.9855  1.3531 -0.2688
 5317TIP3   OH215914   0.388   3.270   1.716  0.2994 -0.3014  0.0951
 5317TIP3    H115915   0.307   3.236   1.752 -0.7460  1.4471 -0.4747
 5317TIP3    H215916   0.362   3.349   1.668  2.4032  0.6414  0.3756
 5318TIP3   OH215917   6.645   0.622   3.955 -0.0128 -0.3053 -0.4679
 5318TIP3    H115918   6.703   0.557   3.915  0.2471 -0.1109 -0.4166
 5318TIP3    H215919   6.574   0.633   3.892  0.5813  0.2685 -1.0638
 5319TIP3   OH215920   2.315   2.699   0.248 -0.1790  0.2825 -0.1192
 5319TIP3    H115921   2.409   2.690   0.231 -0.5869 -1.9006 -1.6454
 5319TIP3    H215922   2.300   2.642   0.324 -0.1658  1.2980  0.6658
 5320TIP3   OH215923   1.817   4.198   1.435 -0.0761 -0.5307  0.4938
 5320TIP3    H115924   1.815   4.124   1.374 -0.1463 -0.5607  0.5319
 5320TIP3    H215925   1.897   4.184   1.486 -0.9889 -1.5770  1.7119
 5321TIP3   OH215926   3.175   0.606   2.015 -0.2601 -0.4397  0.0258
 5321TIP3    H115927   3.259   0.646   2.035 -0.8619  1.9406 -1.7223
 5321TIP3    H215928   3.125   0.611   2.096 -0.1892  2.2301 -0.0205
 5322TIP3   OH215929   5.626   6.692   4.167  0.0518  0.1557 -0.5894
 5322TIP3    H115930   5.552   6.635   4.149 -1.2002  1.0600  1.4035
 5322TIP3    H215931   5.615   6.767   4.109  0.3479 -0.4631 -1.4615
 5323TIP3   OH215932   3.368   5.404   5.884 -0.1880  0.3766 -1.3086
 5323TIP3    H115933   3.325   5.368   5.962 -0.6189 -0.4751 -1.9225
 5323TIP3    H215934   3.296   5.427   5.825  0.1637 -0.4142 -2.0685
 5324TIP3   OH215935   2.871   2.935   5.259  0.2659  0.3007 -0.0175
 5324TIP3    H115936   2.800   2.881   5.225 -0.9602  1.2178  1.0178
 5324TIP3    H215937   2.874   3.011   5.200  0.3953  0.2801 -0.0400
 5325TIP3   OH215938   4.490   1.640   5.908  0.3034 -0.3560 -0.0100
 5325TIP3    H115939   4.483   1.733   5.929  1.1161 -0.2540 -0.1700
 5325TIP3    H215940   4.441   1.631   5.826  2.4460  0.4753 -1.4870
 5326TIP3   OH215941   6.428   0.712   1.193  0.1885 -0.4704 -0.1714
 5326TIP3    H115942   6.335   0.703   1.174  0.1291 -3.4513  0.9458
 5326TIP3    H215943   6.446   0.645   1.259  2.3210  2.7544  2.8816
 5327TIP3   OH215944   5.041   3.705   5.488 -0.2840  0.3095 -0.5134
 5327TIP3    H115945   4.997   3.757   5.421  0.6286 -0.6222 -1.8953
 5327TIP3    H215946   5.120   3.755   5.509 -0.4332  0.4696 -0.3310
 5328TIP3   OH215947   5.181   1.197   1.549  0.4034 -0.0290 -0.0273
 5328TIP3    H115948   5.117   1.233   1.488 -0.1655  0.6615  0.9367
 5328TIP3    H215949   5.171   1.251   1.628  2.7011  0.5984 -0.1033
 5329TIP3   OH215950   5.777   1.648   0.703 -0.4743 -0.0592 -0.3880
 5329TIP3    H115951   5.718   1.721   0.682 -0.3881 -0.4047 -1.9613
 5329TIP3    H215952   5.719   1.575   0.721 -0.5459  0.2023  0.5170
 5330TIP3   OH215953   5.987   6.809   5.786  0.2799  0.0172 -0.2110
 5330TIP3    H115954   5.973   6.792   5.879  1.1393  2.0267  0.3396
 5330TIP3    H215955   5.904   6.786   5.745 -0.5634  0.3329  1.2446
 5331TIP3   OH215956   0.487   3.143   3.854  0.0436 -0.2116  0.3854
 5331TIP3    H115957   0.520   3.117   3.768  0.4723 -0.5304  0.6395
 5331TIP3    H215958   0.448   3.064   3.890  0.7368 -0.3483  0.8783
 5332TIP3   OH215959   7.108   5.707   1.757  0.0126 -0.1514 -0.0160
 5332TIP3    H115960   7.049   5.698   1.682  1.3260 -2.7771 -0.8682
 5332TIP3    H215961   7.182   5.758   1.723 -1.0297  1.9109  0.6502
 5333TIP3   OH215962   3.673   5.746   5.732  0.3105  0.6195 -0.2802
 5333TIP3    H115963   3.666   5.785   5.645  1.9663  1.3248 -0.1367
 5333TIP3    H215964   3.678   5.652   5.716  2.9768  0.8257 -1.2051
 5334TIP3   OH215965   3.003   6.453   2.039  0.2163 -0.0416  0.5916
 5334TIP3    H115966   2.993   6.435   2.132 -1.1033 -1.8210  0.1553
 5334TIP3    H215967   2.914   6.466   2.007  0.7412  2.4193 -0.1493
 5335TIP3   OH215968   2.302   6.614   5.836  0.5678 -0.4360 -0.0620
 5335TIP3    H115969   2.361   6.555   5.789 -0.3210 -2.4780  1.2691
 5335TIP3    H215970   2.221   6.614   5.785  1.3372  1.7446 -1.4510
 5336TIP3   OH215971   0.269   0.343   1.105  0.1887  0.0260  0.2100
 5336TIP3    H115972   0.213   0.376   1.176  1.2289 -1.8304  2.0075
 5336TIP3    H215973   0.358   0.351   1.139  0.7927 -0.2146 -1.2360
 5337TIP3   OH215974   6.584   0.911   4.073 -0.8797 -0.1566 -0.2351
 5337TIP3    H115975   6.590   0.895   3.979  0.0654  0.9230 -0.3877
 5337TIP3    H215976   6.671   0.889   4.106 -0.9298  0.3442  0.2372
 5338TIP3   OH215977   5.688   0.980   5.573  0.1777  0.0927  0.3591
 5338TIP3    H115978   5.662   1.059   5.620 -0.4562  0.4341 -0.5310
 5338TIP3    H215979   5.756   0.940   5.628 -1.6146 -0.3874  2.3332
 5339TIP3   OH215980   3.585   2.808   3.403 -0.2986  0.5356 -0.5114
 5339TIP3    H115981   3.603   2.716   3.423 -0.1010  0.4024 -1.2365
 5339TIP3    H215982   3.577   2.851   3.488  0.6458  0.0420 -0.1588
 5340TIP3   OH215983   1.967   1.393   2.911  0.3588 -0.4946 -0.2537
 5340TIP3    H115984   2.013   1.426   2.988 -0.4762 -1.5498  0.7357
 5340TIP3    H215985   2.025   1.413   2.838  2.4585 -1.8252  0.9263
 5341TIP3   OH215986   4.322   0.028   2.199 -0.5621 -0.0120 -0.4724
 5341TIP3    H115987   4.307  -0.038   2.268  1.1170  1.0018  0.9651
 5341TIP3    H215988   4.256   0.095   2.216 -1.8332 -0.9614 -1.5128
 5342TIP3   OH215989   1.940   2.172   2.931 -0.4364 -0.4840  0.3629
 5342TIP3    H115990   1.948   2.257   2.888 -0.3846  0.3328  1.9046
 5342TIP3    H215991   1.926   2.110   2.860  0.4636  0.6815 -0.8842
 5343TIP3   OH215992   2.657   4.881   0.299  0.4663 -0.0320  0.3335
 5343TIP3    H115993   2.671   4.842   0.213  0.9783 -0.3882  0.5731
 5343TIP3    H215994   2.720   4.953   0.303  4.1516 -3.0436  2.3125
 5344TIP3   OH215995   6.773   1.300   0.222  0.3137 -0.2195 -0.3539
 5344TIP3    H115996   6.817   1.379   0.254  0.4772 -0.0417 -0.9902
 5344TIP3    H215997   6.837   1.230   0.232 -0.5520 -0.7534  2.2441
 5345TIP3   OH215998   1.525   2.893   2.199  0.0401 -0.0424 -0.5303
 5345TIP3    H115999   1.596   2.955   2.181  0.8234 -0.7027  0.1994
 5345TIP3    H216000   1.489   2.872   2.113 -1.8249  3.2058 -0.6904
 5346TIP3   OH216001   2.628   3.205   1.984 -0.0725 -0.0300  0.1462
 5346TIP3    H116002   2.648   3.296   1.962  1.0862 -0.5896 -1.2613
 5346TIP3    H216003   2.536   3.194   1.959 -0.0639  0.6139 -0.1975
 5347TIP3   OH216004   3.662   0.139   2.558 -0.7755  0.1508 -0.6058
 5347TIP3    H116005   3.660   0.098   2.471  2.0995 -1.1174 -0.1880
 5347TIP3    H216006   3.698   0.071   2.615 -1.0240  1.5253  1.2691
 5348TIP3   OH216007   0.692   3.449   1.383 -0.0038 -0.0282 -0.0414
 5348TIP3    H116008   0.703   3.414   1.294  0.2695 -0.1520  0.0414
 5348TIP3    H216009   0.722   3.379   1.440 -1.2781 -0.4088  0.1980
 5349TIP3   OH216010   1.907   2.273   4.867  0.3147 -0.1330  0.4343
 5349TIP3    H116011   1.876   2.301   4.953  0.0960  0.2082  0.2459
 5349TIP3    H216012   1.864   2.332   4.805  0.4815 -0.3667  0.0904
 5350TIP3   OH216013   6.043   2.661   3.608  0.0290  0.6223 -0.5161
 5350TIP3    H116014   5.975   2.599   3.584 -0.0787  0.1963  0.7864
 5350TIP3    H216015   6.025   2.739   3.556 -0.8540  0.1631 -0.9126
 5351TIP3   OH216016   4.026   5.122   0.147  0.0813  0.4493 -0.0303
 5351TIP3    H116017   3.934   5.131   0.171  0.0544 -0.0804  0.0651
 5351TIP3    H216018   4.045   5.029   0.157  0.4905  0.4712 -0.5421
 5352TIP3   OH216019   3.775   3.372   2.038  0.5196 -0.3310  0.3298
 5352TIP3    H116020   3.777   3.314   2.114  0.0486 -0.3331  0.3443
 5352TIP3    H216021   3.685   3.367   2.007  0.6673 -0.1952 -0.1245
 5353TIP3   OH216022   4.165   4.295   5.170 -0.3093 -0.1682 -0.4619
 5353TIP3    H116023   4.160   4.205   5.200  1.6026  0.0677  0.7795
 5353TIP3    H216024   4.075   4.326   5.169 -0.9857 -2.0451 -0.8308
 5354TIP3   OH216025   5.684   0.418   5.044 -0.2604 -0.2146 -0.3090
 5354TIP3    H116026   5.716   0.365   5.118 -1.5565 -0.2922  0.2140
 5354TIP3    H216027   5.755   0.413   4.979  0.0321 -1.8456  0.0884
 5355TIP3   OH216028   3.136   1.131   0.825 -0.2093  0.6127 -0.8417
 5355TIP3    H116029   3.161   1.216   0.861 -0.0688  1.0767 -1.9767
 5355TIP3    H216030   3.139   1.071   0.899 -1.2819  1.7844  0.2112
 5356TIP3   OH216031   2.401   4.713   0.767  0.2517  0.3497 -0.2023
 5356TIP3    H116032   2.388   4.631   0.814 -1.3491  0.3725 -0.5424
 5356TIP3    H216033   2.378   4.694   0.676 -2.3553  1.6160  0.0769
 5357TIP3   OH216034   2.904   6.279   1.742 -0.1543  0.3826  0.1997
 5357TIP3    H116035   2.895   6.351   1.680  0.3614  0.7703  0.5679
 5357TIP3    H216036   2.992   6.245   1.726 -0.4239 -0.2305 -0.0307
 5358TIP3   OH216037   4.351   6.525   5.520 -0.4248  0.2783  0.5763
 5358TIP3    H116038   4.428   6.538   5.464 -0.2323  0.9812  0.9991
 5358TIP3    H216039   4.281   6.575   5.478 -0.2701  0.8382  0.9739
 5359TIP3   OH216040   2.435   4.382   0.570 -0.1144  0.4162 -0.4944
 5359TIP3    H116041   2.458   4.342   0.486 -0.0025  0.0862 -0.3110
 5359TIP3    H216042   2.408   4.471   0.549 -2.0765 -0.2896 -1.1310
 5360TIP3   OH216043   0.002   3.784   0.918  0.1523  0.1439  0.2281
 5360TIP3    H116044   0.056   3.709   0.943  1.5053  1.3290  1.0206
 5360TIP3    H216045  -0.051   3.752   0.844  1.9112 -1.0780 -0.5655
 5361TIP3   OH216046   1.899   0.860   4.857  0.1193  0.2608 -0.3003
 5361TIP3    H116047   1.832   0.792   4.854  1.0196 -0.6607 -0.2141
 5361TIP3    H216048   1.977   0.818   4.820  1.0508  0.8250  0.9570
 5362TIP3   OH216049   1.549   2.228   3.371 -0.8387  0.0451  0.1530
 5362TIP3    H116050   1.527   2.311   3.329  0.0053 -0.0907 -0.5726
 5362TIP3    H216051   1.472   2.207   3.424 -0.8229  1.5847  0.8239
 5363TIP3   OH216052   3.222   3.428   5.397  0.3175  0.0101 -0.3990
 5363TIP3    H116053   3.198   3.442   5.488  0.5066  0.6244 -0.4427
 5363TIP3    H216054   3.140   3.429   5.349  0.2766  0.3578 -0.3213
 5364TIP3   OH216055   7.144   2.289   0.652  0.4352  0.6653  0.5314
 5364TIP3    H116056   7.181   2.361   0.600  0.0739 -0.7025 -1.7232
 5364TIP3    H216057   7.150   2.321   0.742 -0.8056  4.0446 -0.4097
 5365TIP3   OH216058   5.934   1.310   2.732 -0.5892 -0.1271 -0.5018
 5365TIP3    H116059   5.848   1.340   2.703  0.2009  3.2619  0.3324
 5365TIP3    H216060   5.922   1.287   2.824 -0.5631  0.5503 -0.3283
 5366TIP3   OH216061   0.635   0.585   3.299  0.0078 -0.1754  0.2529
 5366TIP3    H116062   0.607   0.499   3.269 -1.0832  0.5025 -0.7866
 5366TIP3    H216063   0.561   0.616   3.353  0.8337 -0.2969  1.4955
 5367TIP3   OH216064   3.482   1.509   1.290 -0.2108 -0.0102 -0.2813
 5367TIP3    H116065   3.542   1.549   1.352 -1.3810  0.4951  0.5654
 5367TIP3    H216066   3.422   1.457   1.345 -1.1325  0.2653 -0.9976
 5368TIP3   OH216067   1.678   0.549   2.774  0.3044  0.7934 -0.6318
 5368TIP3    H116068   1.656   0.603   2.698  1.1209  1.1449 -0.6291
 5368TIP3    H216069   1.764   0.512   2.753 -0.6748 -1.4052 -1.1192
 5369TIP3   OH216070   2.942   3.861   4.308 -0.2338  0.1640 -0.1803
 5369TIP3    H116071   3.006   3.928   4.284  3.1816 -0.8456  4.6067
 5369TIP3    H216072   2.962   3.787   4.252  1.8037  0.4495  0.0952
 5370TIP3   OH216073   4.244   5.730   3.725 -0.3187 -0.0900  0.0023
 5370TIP3    H116074   4.149   5.729   3.717 -0.1893  0.3230 -2.5394
 5370TIP3    H216075   4.272   5.800   3.665  1.5999 -0.2790  0.5980
 5371TIP3   OH216076   4.603   2.635   1.433 -0.0294 -0.4378 -0.3166
 5371TIP3    H116077   4.521   2.597   1.464 -0.6438 -1.1649 -2.6532
 5371TIP3    H216078   4.670   2.591   1.486 -1.0480 -0.7102  0.8055
 5372TIP3   OH216079   2.370   2.298   2.068  0.5083 -0.4524 -0.4305
 5372TIP3    H116080   2.427   2.368   2.036 -0.2194  0.2098 -0.3060
 5372TIP3    H216081   2.376   2.304   2.163 -1.2045  0.8628 -0.3625
 5373TIP3   OH216082   3.842   6.772   0.572 -0.0974 -0.2857 -0.3989
 5373TIP3    H116083   3.775   6.840   0.579 -0.6170 -0.8473  0.2776
 5373TIP3    H216084   3.801   6.704   0.519  0.1704 -0.3502 -0.5201
 5374TIP3   OH216085   5.368   5.361   1.782 -0.3660  0.2939  0.2903
 5374TIP3    H116086   5.409   5.320   1.706 -0.6697  0.6737 -0.0802
 5374TIP3    H216087   5.429   5.430   1.808 -0.6115  0.6453 -0.0611
 5375TIP3   OH216088   2.323   1.726   2.119 -0.4376 -0.3907  0.4815
 5375TIP3    H116089   2.395   1.674   2.155 -1.5209 -1.0098  1.8411
 5375TIP3    H216090   2.337   1.724   2.025  0.3413 -1.9721  0.5926
 5376TIP3   OH216091   2.016   4.464   0.194 -0.5885  0.7735 -0.1279
 5376TIP3    H116092   1.929   4.436   0.222 -0.4471  0.3645 -0.0951
 5376TIP3    H216093   2.057   4.386   0.157  0.5839  0.3858  1.8342
 5377TIP3   OH216094   3.267   1.069   2.183 -0.5125  0.1764 -0.1568
 5377TIP3    H116095   3.240   0.978   2.192 -0.3866  0.0390 -1.0764
 5377TIP3    H216096   3.363   1.067   2.191 -0.6309  0.6374  2.8930
 5378TIP3   OH216097   6.478   0.125   4.147 -0.2492 -0.5405 -0.0949
 5378TIP3    H116098   6.456   0.054   4.087 -1.0158 -0.5695  0.2049
 5378TIP3    H216099   6.556   0.165   4.109 -0.3056 -1.0020 -0.7244
 5379TIP3   OH216100   0.846   1.009   4.401 -0.2253 -0.5216 -0.4073
 5379TIP3    H116101   0.869   1.039   4.489 -1.0297  1.0654 -0.6981
 5379TIP3    H216102   0.777   0.945   4.414 -1.1531  0.5516  0.0940
 5380TIP3   OH216103   2.680   5.335   5.738 -0.0696 -0.2199 -0.1744
 5380TIP3    H116104   2.698   5.425   5.711  0.5052 -0.1870  0.2878
 5380TIP3    H216105   2.688   5.283   5.659 -0.3550  0.1253 -0.4339
 5381TIP3   OH216106   3.498   3.567   0.578 -0.5457  0.3612 -0.3060
 5381TIP3    H116107   3.511   3.547   0.670  1.4374  0.7906 -0.4346
 5381TIP3    H216108   3.456   3.489   0.541  0.3438 -0.5708  0.6086
 5382TIP3   OH216109   0.689   5.580   4.703  0.3390 -0.0696  0.5273
 5382TIP3    H116110   0.751   5.529   4.652  0.3856 -0.2518  0.7613
 5382TIP3    H216111   0.615   5.520   4.717 -0.0185  0.2449 -0.0043
 5383TIP3   OH216112   0.448   3.818   0.127  0.1921  0.0624 -0.0812
 5383TIP3    H116113   0.465   3.768   0.207  2.1320  0.5494 -0.1446
 5383TIP3    H216114   0.429   3.907   0.158  0.6475  0.1819 -0.1417
 5384TIP3   OH216115   2.435   2.755   1.391  0.1035 -0.7504 -0.0629
 5384TIP3    H116116   2.371   2.691   1.359  0.4041 -1.7184  1.1939
 5384TIP3    H216117   2.507   2.751   1.328  0.0966 -1.6427 -0.0326
 5385TIP3   OH216118   1.841   3.447   0.378 -0.3858  0.3055  0.2426
 5385TIP3    H116119   1.766   3.460   0.435 -0.2391 -2.4513  1.2103
 5385TIP3    H216120   1.917   3.458   0.435 -0.0767  1.4803 -0.3680
 5386TIP3   OH216121   4.939   4.467   4.856  0.0568  0.3468 -0.5959
 5386TIP3    H116122   4.849   4.457   4.887  0.2619 -0.2395 -0.1792
 5386TIP3    H216123   4.987   4.500   4.932  0.8700 -2.4818  0.2513
 5387TIP3   OH216124   6.563   5.199   5.105 -0.1155  0.2388  0.1109
 5387TIP3    H116125   6.633   5.222   5.165 -1.1203  0.8782  1.0685
 5387TIP3    H216126   6.500   5.271   5.112 -1.0320 -0.4801 -0.4688
 5388TIP3   OH216127   1.548   6.127   2.486 -0.2967 -0.3809  0.2156
 5388TIP3    H116128   1.544   6.215   2.524 -0.9391  0.8544 -2.4519
 5388TIP3    H216129   1.642   6.113   2.469 -0.2569  0.0853  0.0389
 5389TIP3   OH216130   0.394   5.254   5.469 -0.1228  0.0674 -0.0026
 5389TIP3    H116131   0.438   5.182   5.514  1.6198  0.7862 -0.4895
 5389TIP3    H216132   0.436   5.333   5.503 -0.0670  0.7142 -1.4981
 5390TIP3   OH216133   0.568   6.569   1.415 -0.2749 -0.4562 -0.0276
 5390TIP3    H116134   0.527   6.655   1.428  1.1511  0.3045 -0.4156
 5390TIP3    H216135   0.653   6.576   1.458 -0.3026 -1.8293  0.3031
 5391TIP3   OH216136   4.381   3.375   3.579 -0.4169 -0.3996 -0.0540
 5391TIP3    H116137   4.455   3.426   3.545 -0.6375  0.7479  1.1209
 5391TIP3    H216138   4.378   3.298   3.522  1.6477 -0.4688 -0.1577
 5392TIP3   OH216139   1.562   1.076   5.833 -0.0042 -1.0739  0.0922
 5392TIP3    H116140   1.636   1.041   5.784  0.3744 -0.6085  0.3204
 5392TIP3    H216141   1.495   1.008   5.828  0.6081 -1.7015  0.2782
 5393TIP3   OH216142   0.048   0.397   2.466 -0.3858  0.2586 -0.0559
 5393TIP3    H116143  -0.018   0.404   2.398  0.4325  0.0452 -0.8896
 5393TIP3    H216144   0.122   0.353   2.424  0.2835  0.4662  0.8620
 5394TIP3   OH216145   5.833   5.324   2.580  0.4782 -0.0584  0.5687
 5394TIP3    H116146   5.765   5.345   2.515  0.3539 -0.4094  0.5823
 5394TIP3    H216147   5.886   5.403   2.585  1.2935 -0.4696 -0.9476
 5395TIP3   OH216148   6.943   3.720   3.036  0.9914 -0.0983 -0.3078
 5395TIP3    H116149   6.922   3.810   3.061  1.4064 -0.1678  0.3082
 5395TIP3    H216150   6.862   3.671   3.052  0.1182  0.4917 -2.4933
 5396TIP3   OH216151   2.081   2.273   2.203 -0.2387 -0.0662  0.2860
 5396TIP3    H116152   2.159   2.291   2.150 -0.0011 -1.4845  0.1123
 5396TIP3    H216153   2.070   2.179   2.197 -2.3728  0.1714 -0.2284
 5397TIP3   OH216154   6.626   4.087   1.671 -0.0159 -0.1759 -0.3496
 5397TIP3    H116155   6.662   4.176   1.668 -0.3093 -0.0125  0.6509
 5397TIP3    H216156   6.553   4.093   1.732  0.0719 -1.1545 -0.1338
 5398TIP3   OH216157   4.699   5.850   1.845  0.0796  0.1374 -0.0254
 5398TIP3    H116158   4.627   5.851   1.908  1.4666 -2.0774  1.7223
 5398TIP3    H216159   4.657   5.827   1.762 -1.4095  0.4937  0.5930
 5399TIP3   OH216160   3.133   6.241   3.770  0.5492 -0.6405  0.6584
 5399TIP3    H116161   3.171   6.220   3.684  1.3048 -4.3404  1.7074
 5399TIP3    H216162   3.147   6.162   3.822 -1.1339  0.9474  3.8029
 5400TIP3   OH216163   6.458   1.680   2.223 -0.1297 -0.4892  0.5779
 5400TIP3    H116164   6.462   1.694   2.317 -0.0786  0.1894  0.4761
 5400TIP3    H216165   6.524   1.738   2.186  0.9765 -1.9051  0.2324
 5401TIP3   OH216166   2.587   3.063   5.124  0.2803 -0.8047 -0.2635
 5401TIP3    H116167   2.494   3.087   5.123  0.2049 -1.0270  0.3658
 5401TIP3    H216168   2.620   3.087   5.038 -0.5076 -1.2773 -0.7082
 5402TIP3   OH216169   4.353   6.293   3.630 -0.4193 -0.1749 -0.0069
 5402TIP3    H116170   4.280   6.247   3.590 -0.8985  0.1691  0.4606
 5402TIP3    H216171   4.417   6.304   3.559 -0.7672 -0.5766 -0.3870
 5403TIP3   OH216172   3.061   1.312   1.505  0.4166 -0.5209 -0.0648
 5403TIP3    H116173   3.133   1.333   1.564 -0.5618  0.7568  0.7031
 5403TIP3    H216174   3.009   1.247   1.552 -0.7829  1.0541  0.8457
 5404TIP3   OH216175   5.875   0.649   5.290  0.2599 -0.1107 -0.1366
 5404TIP3    H116176   5.819   0.657   5.213  0.4972 -1.4459 -0.4608
 5404TIP3    H216177   5.962   0.675   5.260  0.0387  1.0482  0.1389
 5405TIP3   OH216178   2.495   6.459   4.449  0.1752  0.1571  0.3541
 5405TIP3    H116179   2.484   6.491   4.538 -0.4046 -0.0903  0.3733
 5405TIP3    H216180   2.427   6.393   4.438  0.0599  0.3878 -0.3665
 5406TIP3   OH216181   3.217   4.328   1.895 -0.3191 -0.0597 -0.3328
 5406TIP3    H116182   3.281   4.354   1.828  0.2650 -0.1629  0.1775
 5406TIP3    H216183   3.255   4.251   1.936 -1.5101 -1.0807 -1.0598
 5407TIP3   OH216184   4.283   0.780   0.989 -0.4865 -0.2798  0.4222
 5407TIP3    H116185   4.359   0.837   0.998  0.5926 -1.4584 -0.6818
 5407TIP3    H216186   4.232   0.819   0.918 -0.8958  0.4670  1.1091
 5408TIP3   OH216187   6.348   6.617   3.951 -0.3000  1.0007  0.4436
 5408TIP3    H116188   6.296   6.693   3.974  1.6771  2.2035  1.2215
 5408TIP3    H216189   6.404   6.647   3.879 -0.3755 -0.1283 -0.1156
 5409TIP3   OH216190   0.592   3.306   0.084 -0.0078  0.0804 -0.6096
 5409TIP3    H116191   0.597   3.397   0.111  2.2469  0.1091 -0.9880
 5409TIP3    H216192   0.598   3.309  -0.012 -1.0464 -0.4383 -0.7181
 5410TIP3   OH216193   2.999   2.941   3.165 -0.4619  0.3026 -0.0624
 5410TIP3    H116194   2.953   2.880   3.223 -1.2653  1.0800  0.1544
 5410TIP3    H216195   3.091   2.928   3.186 -0.7684  1.8755  2.8533
 5411TIP3   OH216196   4.029   6.430   0.030 -0.0475 -0.0775  0.0545
 5411TIP3    H116197   4.029   6.393   0.118  0.3599 -0.0232  0.0818
 5411TIP3    H216198   4.074   6.364  -0.023  1.4110  0.7129  0.2551
 5412TIP3   OH216199   3.139   0.938   0.357  0.3344 -0.1136 -0.0432
 5412TIP3    H116200   3.187   0.971   0.433  0.1439 -1.4305  0.6901
 5412TIP3    H216201   3.104   0.853   0.386 -1.7422  0.4121 -0.8263
 5413TIP3   OH216202   2.028   4.162   2.506  0.7238 -0.2045 -0.0855
 5413TIP3    H116203   2.115   4.200   2.500  1.1063 -0.9271  0.6822
 5413TIP3    H216204   1.990   4.173   2.418 -0.4481  4.8065  0.7297
 5414TIP3   OH216205   1.524   1.586   2.005  0.5096  0.0896  0.2738
 5414TIP3    H116206   1.541   1.492   1.998 -1.2339 -0.2613  0.5150
 5414TIP3    H216207   1.462   1.604   1.934  0.1162  0.8742  0.8112
 5415TIP3   OH216208   5.853   6.569   4.056  0.0505 -0.9606 -0.3131
 5415TIP3    H116209   5.786   6.573   4.125  0.7802 -0.2975  0.3744
 5415TIP3    H216210   5.815   6.617   3.983 -1.4598 -3.1104 -1.0693
 5416TIP3   OH216211   1.573   2.342   5.298  0.3186  0.0841 -0.2468
 5416TIP3    H116212   1.521   2.420   5.275  0.2061  0.5149  1.3078
 5416TIP3    H216213   1.629   2.327   5.222  0.3454  1.6906 -0.5864
 5417TIP3   OH216214   2.723   2.702   2.224  0.6687 -0.8492  0.6756
 5417TIP3    H116215   2.732   2.752   2.306  0.2733  1.0268 -0.3578
 5417TIP3    H216216   2.802   2.648   2.220  0.3418 -1.5631  2.6443
 5418TIP3   OH216217   4.086   3.639   1.822  0.4410 -0.1826  0.2321
 5418TIP3    H116218   4.026   3.573   1.859 -0.2868  0.1369 -0.3610
 5418TIP3    H216219   4.117   3.600   1.740 -0.1267  0.2796 -0.2070
 5419TIP3   OH216220   3.643   3.921   0.206  0.1370  0.5344 -0.1168
 5419TIP3    H116221   3.601   3.843   0.243  0.7414  1.1345  1.9532
 5419TIP3    H216222   3.720   3.887   0.161 -1.8905 -0.4785 -3.1321
 5420TIP3   OH216223   4.887   4.395   1.573 -0.2430  0.1938 -0.2943
 5420TIP3    H116224   4.975   4.399   1.612  0.1006  0.2625 -1.0534
 5420TIP3    H216225   4.840   4.331   1.626  0.1564  0.4143  0.3367
 5421TIP3   OH216226   0.194   3.741   1.671  0.4447 -0.1877 -0.0197
 5421TIP3    H116227   0.221   3.677   1.737 -0.3760  1.6634  2.2140
 5421TIP3    H216228   0.245   3.717   1.593  1.9765 -2.0421  1.4447
 5422TIP3   OH216229   2.849   2.831   0.236 -0.1270  0.2781 -0.1406
 5422TIP3    H116230   2.760   2.828   0.270 -0.6762  0.5592 -1.5000
 5422TIP3    H216231   2.868   2.740   0.211 -0.4634  0.4017 -0.8785
 5423TIP3   OH216232   7.142   1.511   0.239  0.2345  0.2789 -0.5030
 5423TIP3    H116233   7.049   1.507   0.258  0.2702  1.2380 -0.0973
 5423TIP3    H216234   7.153   1.590   0.186  0.6556 -0.4689 -1.5750
 5424TIP3   OH216235   5.216   1.081   2.892 -0.5799 -0.0237  0.2323
 5424TIP3    H116236   5.308   1.054   2.895 -0.0385  1.1997 -2.4162
 5424TIP3    H216237   5.168   1.006   2.928  1.3739 -0.9445  1.0865
 5425TIP3   OH216238   0.215   6.353   0.429  0.1479  0.3966  0.2152
 5425TIP3    H116239   0.140   6.412   0.418 -0.8322 -0.9369 -0.6620
 5425TIP3    H216240   0.237   6.326   0.340 -0.6565 -1.9838  0.6759
 5426TIP3   OH216241   0.248   4.853   1.348 -0.4877 -0.6897  0.1145
 5426TIP3    H116242   0.246   4.935   1.397  2.9663 -0.8230  0.7513
 5426TIP3    H216243   0.226   4.877   1.258  1.5748  1.2161  0.0437
 5427TIP3   OH216244   4.386   0.281   4.018 -0.0149 -0.0520  0.0925
 5427TIP3    H116245   4.363   0.191   3.994 -2.2173  0.1113  1.2532
 5427TIP3    H216246   4.444   0.272   4.093  0.0241 -0.5197  0.0082
 5428TIP3   OH216247   3.906   1.602   0.849 -0.5720 -0.1762 -0.9771
 5428TIP3    H116248   3.969   1.645   0.907 -0.1054 -1.4107 -0.5185
 5428TIP3    H216249   3.832   1.662   0.844  0.0861  0.6976 -0.4373
 5429TIP3   OH216250   5.471   1.856   4.032  0.0325 -0.0180  1.1623
 5429TIP3    H116251   5.507   1.824   4.115  0.9482 -1.0217  0.4156
 5429TIP3    H216252   5.547   1.863   3.975 -0.7160 -0.2807  0.1150
 5430TIP3   OH216253   5.369   5.639   3.441  0.6895 -0.2017 -0.3808
 5430TIP3    H116254   5.372   5.714   3.382  3.0004 -0.3061 -0.4642
 5430TIP3    H216255   5.398   5.674   3.525 -0.4699 -0.5282  0.1717
 5431TIP3   OH216256   1.860   1.869   0.993 -0.2233 -0.2214  0.1222
 5431TIP3    H116257   1.859   1.803   0.924 -2.6247 -2.2090  1.8786
 5431TIP3    H216258   1.939   1.850   1.043 -0.5934 -1.4568  0.2774
 5432TIP3   OH216259   0.852   4.319   0.414  0.4475 -0.4702  0.3263
 5432TIP3    H116260   0.808   4.400   0.387  2.5544  1.2875  1.8647
 5432TIP3    H216261   0.824   4.306   0.505  0.7251 -1.0532  0.3323
 5433TIP3   OH216262   4.252   5.573   5.635  0.0226 -0.4085  0.5008
 5433TIP3    H116263   4.209   5.514   5.697 -0.3986 -0.0007  0.6080
 5433TIP3    H216264   4.214   5.551   5.550 -0.4971  0.0270  0.6113
 5434TIP3   OH216265   2.612   2.129   1.276 -0.0690 -0.3258 -0.7429
 5434TIP3    H116266   2.535   2.076   1.297 -0.3515  0.9277  1.7572
 5434TIP3    H216267   2.582   2.186   1.205 -1.0287 -0.7352 -0.6883
 5435TIP3   OH216268   0.474   3.853   1.466  0.4513  0.1426 -0.0327
 5435TIP3    H116269   0.541   3.915   1.435  0.9092  1.5110  3.1957
 5435TIP3    H216270   0.524   3.788   1.516 -0.4381  0.2651  1.0592
 5436TIP3   OH216271   6.940   5.461   3.071 -0.1994  0.2245  0.2355
 5436TIP3    H116272   6.846   5.462   3.050 -0.2344  1.3674  0.3974
 5436TIP3    H216273   6.981   5.511   3.000  0.3396 -0.6060 -0.0438
 5437TIP3   OH216274   5.380   0.598   1.071 -0.0562 -0.1034  0.2737
 5437TIP3    H116275   5.416   0.555   0.994  1.2293  2.0005 -0.3555
 5437TIP3    H216276   5.453   0.603   1.132 -0.4444  0.3737  0.7065
 5438TIP3   OH216277   3.826   3.827   0.012  0.3498 -0.0862 -0.3459
 5438TIP3    H116278   3.897   3.796   0.068  0.7965 -0.6299 -1.1993
 5438TIP3    H216279   3.808   3.754  -0.047 -1.4584 -0.2591  0.3440
 5439TIP3   OH216280   5.398   0.875   5.180 -0.0364  0.1814  0.1651
 5439TIP3    H116281   5.333   0.881   5.110 -0.2170 -0.3054  0.2903
 5439TIP3    H216282   5.349   0.847   5.257  0.4355 -0.8700  0.0946
 5440TIP3   OH216283   0.732   3.042   1.964 -0.1411 -0.4160  0.2035
 5440TIP3    H116284   0.681   3.039   1.882  2.5936 -1.0126 -1.6222
 5440TIP3    H216285   0.773   3.129   1.963  0.6724 -0.7845  0.4062
 5441TIP3   OH216286   6.720   5.464   4.952  0.0242  0.5892 -0.1608
 5441TIP3    H116287   6.655   5.480   5.020 -0.7289  0.6829 -0.8986
 5441TIP3    H216288   6.675   5.409   4.888 -0.2248  2.8144 -2.0156
 5442TIP3   OH216289   2.587   6.719   3.121 -0.1953 -0.4346 -0.1473
 5442TIP3    H116290   2.494   6.709   3.143  0.3227 -1.3591  1.8039
 5442TIP3    H216291   2.633   6.673   3.190  1.7815  0.8575 -0.5339
 5443TIP3   OH216292   2.251   0.289   5.322 -0.1848  0.8588 -0.4492
 5443TIP3    H116293   2.239   0.311   5.414 -0.4694 -1.5153  0.1632
 5443TIP3    H216294   2.247   0.373   5.276 -2.4435  1.8936  1.4359
 5444TIP3   OH216295   5.781   1.611   2.763 -0.0827 -0.0031  0.1967
 5444TIP3    H116296   5.853   1.566   2.808 -0.7342 -1.3951 -0.0922
 5444TIP3    H216297   5.819   1.692   2.731  0.7683  0.3697  2.0260
 5445TIP3   OH216298   5.478   0.617   4.364 -0.0146 -0.0591 -0.4918
 5445TIP3    H116299   5.462   0.693   4.308  1.7086 -0.3895 -1.4923
 5445TIP3    H216300   5.480   0.652   4.453 -1.1087  0.7428 -0.7593
 5446TIP3   OH216301   4.933   4.555   2.837  0.5302  0.1558  0.3621
 5446TIP3    H116302   4.928   4.475   2.785  2.2509  1.3805 -1.8144
 5446TIP3    H216303   4.936   4.524   2.928  0.4893 -2.1971 -0.3793
 5447TIP3   OH216304   0.532   4.984   4.794 -0.5158  0.3783  0.1927
 5447TIP3    H116305   0.508   5.032   4.872 -1.5472  0.6006 -0.2394
 5447TIP3    H216306   0.449   4.966   4.750 -0.0686 -0.8190 -0.2259
 5448TIP3   OH216307   6.010   1.401   2.132  0.4212 -0.0896  0.1756
 5448TIP3    H116308   5.968   1.427   2.215 -0.4495 -1.0883  0.0667
 5448TIP3    H216309   5.943   1.417   2.066  0.9596  0.2701 -0.2882
 5449TIP3   OH216310   7.081   3.726   5.497  0.0881  0.6095 -0.2109
 5449TIP3    H116311   7.019   3.665   5.456  0.6108  0.8915 -1.4752
 5449TIP3    H216312   7.065   3.717   5.591 -0.9311 -0.3112 -0.4492
 5450TIP3   OH216313   1.564   3.500   1.573  0.1378 -0.4171 -0.0597
 5450TIP3    H116314   1.571   3.514   1.478 -1.2961  0.0269 -0.1235
 5450TIP3    H216315   1.502   3.567   1.602  0.3618 -0.7217  1.1564
 5451TIP3   OH216316   0.790   0.060   3.702  0.0982  0.4514  0.1017
 5451TIP3    H116317   0.841   0.140   3.685 -1.4152  1.0202 -2.1279
 5451TIP3    H216318   0.753   0.036   3.617 -2.1764 -0.7341  1.3312
 5452TIP3   OH216319   6.361   1.096   0.044  0.0531 -0.5225  0.6133
 5452TIP3    H116320   6.302   1.096   0.120 -1.6133  1.4125 -0.5617
 5452TIP3    H216321   6.431   1.156   0.068  0.3420 -1.0809  1.1779
 5453TIP3   OH216322   1.001   4.940   2.469  0.7652  0.5541  0.5226
 5453TIP3    H116323   0.917   4.909   2.434  0.6194 -2.0838  2.8953
 5453TIP3    H216324   0.978   5.015   2.523  0.2393  1.0015 -0.2867
 5454TIP3   OH216325   3.053   2.497   4.259 -0.0090  0.2337 -0.5653
 5454TIP3    H116326   2.982   2.432   4.261 -0.5046  0.7644  0.4740
 5454TIP3    H216327   3.053   2.530   4.170  1.6641 -2.6599 -1.7623
 5455TIP3   OH216328   0.296   0.185   5.033 -0.2498 -0.1786  0.6186
 5455TIP3    H116329   0.225   0.191   4.970  0.5206 -1.1959 -0.4094
 5455TIP3    H216330   0.364   0.242   4.998 -0.6459  1.0401  1.7613
 5456TIP3   OH216331   5.625   3.761   4.621  0.3916  0.2427  0.0280
 5456TIP3    H116332   5.659   3.672   4.623  0.5660  0.3108  1.7014
 5456TIP3    H216333   5.538   3.753   4.581 -0.6900 -1.1253  2.4456
 5457TIP3   OH216334   6.451   4.094   3.160 -0.7135  0.1503  0.0008
 5457TIP3    H116335   6.524   4.120   3.104 -1.3016  0.6377 -0.5443
 5457TIP3    H216336   6.378   4.149   3.132 -1.1436  0.0650  0.9251
 5458TIP3   OH216337   6.593   0.198   3.304 -0.1547  0.3914 -0.3839
 5458TIP3    H116338   6.545   0.176   3.224  2.0915 -1.3671 -1.3708
 5458TIP3    H216339   6.571   0.128   3.365 -0.5493  0.7910 -0.0689
 5459TIP3   OH216340   6.490   0.627   3.381 -0.6441 -0.1413  0.3773
 5459TIP3    H116341   6.507   0.563   3.312  1.1295  0.0429  0.6083
 5459TIP3    H216342   6.455   0.575   3.453 -0.8655 -0.5831 -0.0381
 5460TIP3   OH216343   7.201   6.440   0.043  0.4874  0.2355 -0.9186
 5460TIP3    H116344   7.147   6.368   0.011 -0.4749  1.4841 -2.3128
 5460TIP3    H216345   7.137   6.508   0.066  1.3135  0.3512  1.2302
 5461TIP3   OH216346   0.389   2.957   0.585  0.1478 -0.2298 -0.1055
 5461TIP3    H116347   0.352   2.960   0.497  1.0707 -0.6559 -0.5217
 5461TIP3    H216348   0.326   2.905   0.635 -0.5036  0.2124 -0.4400
 5462TIP3   OH216349   3.338   6.439   2.636 -0.6020  0.5176 -0.3793
 5462TIP3    H116350   3.331   6.523   2.592  0.2085  0.9360  0.2760
 5462TIP3    H216351   3.429   6.413   2.625 -1.0242 -0.6886 -1.2974
 5463TIP3   OH216352   0.811   3.154   5.921  0.1747 -0.0704  0.4203
 5463TIP3    H116353   0.838   3.208   5.847 -1.8139  2.0471  1.1124
 5463TIP3    H216354   0.720   3.131   5.903  0.3022 -1.3330  1.2329
 5464TIP3   OH216355   0.091   0.864   3.841  0.3652 -0.8319  0.1115
 5464TIP3    H116356   0.056   0.775   3.837 -0.3488 -0.5256 -0.8944
 5464TIP3    H216357   0.030   0.912   3.898  0.6877 -0.9414  0.5623
 5465TIP3   OH216358   5.208   0.108   4.644  0.0080 -0.0308  0.2178
 5465TIP3    H116359   5.172   0.136   4.728 -0.8237 -1.5692  0.4278
 5465TIP3    H216360   5.172   0.169   4.580  1.5837  1.8735  1.0719
 5466TIP3   OH216361   2.882   6.481   5.092 -0.1249 -0.3906 -0.1905
 5466TIP3    H116362   2.850   6.572   5.097  2.0807  0.4353 -0.1949
 5466TIP3    H216363   2.900   6.467   5.000 -0.1296 -0.7200 -0.1406
 5467TIP3   OH216364   4.736   6.337   0.486  0.1728  0.0822  0.5406
 5467TIP3    H116365   4.690   6.288   0.418 -0.9000  0.2189  1.1362
 5467TIP3    H216366   4.676   6.336   0.561  0.9899  0.5983  1.2268
 5468TIP3   OH216367   3.339   6.305   3.126 -0.1134 -0.2603  0.2432
 5468TIP3    H116368   3.296   6.231   3.082  0.9269 -0.4133 -0.5385
 5468TIP3    H216369   3.268   6.350   3.171 -0.9095 -1.2056 -0.0263
 5469TIP3   OH216370   3.252   0.787   4.925  0.4549 -0.2417 -0.5308
 5469TIP3    H116371   3.291   0.794   5.012  0.5008  2.1733 -0.6806
 5469TIP3    H216372   3.250   0.877   4.892 -1.3961 -0.8213 -2.2292
 5470TIP3   OH216373   5.038   6.761   4.175  0.1703  0.9880  0.1102
 5470TIP3    H116374   5.128   6.728   4.172 -0.3134 -0.5138  1.0602
 5470TIP3    H216375   4.990   6.706   4.114 -0.1769  1.6217 -0.2003
 5471TIP3   OH216376   5.799   3.086   0.664 -0.5024 -0.1849  0.3696
 5471TIP3    H116377   5.866   3.131   0.716  0.8674 -1.9252  0.2111
 5471TIP3    H216378   5.838   3.078   0.577 -1.2138 -0.6253  0.0814
 5472TIP3   OH216379   2.081   2.297   3.748  0.3397 -0.1682  0.6816
 5472TIP3    H116380   2.016   2.357   3.711  0.0072 -0.4136  0.8625
 5472TIP3    H216381   2.160   2.312   3.696 -0.2068 -0.7286 -0.3349
 5473TIP3   OH216382   1.957   1.250   2.570 -0.1813 -0.1128 -0.8327
 5473TIP3    H116383   2.012   1.314   2.616 -0.2206  0.2737 -1.3190
 5473TIP3    H216384   1.867   1.276   2.591 -0.1881 -0.4515 -0.4348
 5474TIP3   OH216385   4.873   1.754   4.948  0.3658  0.1667  0.1212
 5474TIP3    H116386   4.948   1.702   4.977 -1.1997 -0.9020  2.6430
 5474TIP3    H216387   4.803   1.729   5.008 -1.5000  2.5311 -0.9235
 5475TIP3   OH216388   1.897   4.363   3.967 -0.4060  0.3745  0.3631
 5475TIP3    H116389   1.811   4.365   3.926 -0.5667 -0.4846  0.6345
 5475TIP3    H216390   1.903   4.275   4.005  2.2609 -1.2631 -3.2447
 5476TIP3   OH216391   5.446   4.746   0.099 -0.2554  0.2771  0.5103
 5476TIP3    H116392   5.517   4.810   0.097 -1.3655  1.5590 -0.0465
 5476TIP3    H216393   5.480   4.670   0.052  1.3026  0.2011  1.6806
 5477TIP3   OH216394   6.118   6.140   1.163 -0.4847 -0.4417 -0.5167
 5477TIP3    H116395   6.131   6.104   1.076 -1.6280 -3.2170  0.3615
 5477TIP3    H216396   6.028   6.171   1.163 -1.2513 -2.4785  0.2405
 5478TIP3   OH216397   1.618   2.653   2.850  0.1427 -0.2882  0.2013
 5478TIP3    H116398   1.693   2.602   2.881 -0.0475 -0.2588  0.7282
 5478TIP3    H216399   1.656   2.716   2.789  0.4802 -0.5800  0.1009
 5479TIP3   OH216400   0.142   4.671   3.978 -0.2174  0.2952  0.1100
 5479TIP3    H116401   0.105   4.745   3.930 -0.1145  0.4443  0.2591
 5479TIP3    H216402   0.141   4.599   3.915  1.2437  0.8461 -0.5994
 5480TIP3   OH216403   0.397   2.103   2.272  0.3361 -0.1314 -0.1340
 5480TIP3    H116404   0.441   2.183   2.244  0.1848  0.0314  0.0912
 5480TIP3    H216405   0.324   2.093   2.211  0.7044 -0.4289 -0.5395
 5481TIP3   OH216406   6.874   4.225   1.452 -0.0059  0.0721  0.2443
 5481TIP3    H116407   6.804   4.286   1.476  0.7317  1.4300 -0.8934
 5481TIP3    H216408   6.878   4.163   1.524 -1.2937  0.9242  1.0914
 5482TIP3   OH216409   4.964   5.535   5.710  0.0742 -0.4633 -0.9301
 5482TIP3    H116410   5.033   5.588   5.749 -0.0382  0.5747 -2.0959
 5482TIP3    H216411   4.883   5.582   5.731  0.0290  0.2525 -2.5563
 5483TIP3   OH216412   4.937   5.678   3.661 -0.0694  0.4027  0.1390
 5483TIP3    H116413   4.995   5.659   3.587 -0.0392  0.4448  0.1517
 5483TIP3    H216414   4.853   5.641   3.636  0.3962 -1.2389  0.8666
 5484TIP3   OH216415   2.397   6.165   3.194  0.4110  0.2416  0.3299
 5484TIP3    H116416   2.376   6.107   3.267  0.2695 -0.7175 -0.4615
 5484TIP3    H216417   2.479   6.131   3.159  0.0489  0.1901 -0.4751
 5485TIP3   OH216418   5.259   2.590   0.645  0.4441 -0.3384 -0.7556
 5485TIP3    H116419   5.166   2.601   0.662  0.8821  1.4504  0.7698
 5485TIP3    H216420   5.266   2.504   0.603 -1.8972 -0.3722 -1.1905
 5486TIP3   OH216421   2.629   6.588   1.583 -0.0569 -0.1161  0.2417
 5486TIP3    H116422   2.655   6.677   1.561 -1.5458 -0.0222 -1.3262
 5486TIP3    H216423   2.709   6.547   1.614  1.2621  1.0345 -1.4376
 5487TIP3   OH216424   4.834   0.150   3.421  0.0273 -0.0407 -0.0547
 5487TIP3    H116425   4.848   0.235   3.463  1.0905 -0.1461 -0.1797
 5487TIP3    H216426   4.921   0.121   3.395 -0.4047 -0.8646 -0.6223
 5488TIP3   OH216427   4.130   2.677   3.534  0.2328 -0.6021  0.4756
 5488TIP3    H116428   4.063   2.668   3.601  1.2676  1.9510  1.9981
 5488TIP3    H216429   4.113   2.763   3.494  1.5323 -0.6823 -0.3202
 5489TIP3   OH216430   5.314   2.140   5.555 -0.1673  0.1355  0.4396
 5489TIP3    H116431   5.365   2.217   5.581  1.1240 -0.8875  1.0561
 5489TIP3    H216432   5.309   2.087   5.634  0.1702 -1.0494 -0.3043
 5490TIP3   OH216433   2.557   1.108   2.714  0.5926  0.4740  0.5312
 5490TIP3    H116434   2.477   1.133   2.667  0.8212  1.7961  0.8098
 5490TIP3    H216435   2.576   1.019   2.684 -0.7773  0.2773  0.1869
 5491TIP3   OH216436   3.983   3.388   1.878 -0.4403 -0.3938 -0.1855
 5491TIP3    H116437   4.067   3.354   1.908 -0.7189 -1.9069 -0.9928
 5491TIP3    H216438   3.923   3.370   1.949 -0.2075  0.1892  0.1685
 5492TIP3   OH216439   6.721   6.356   1.356 -0.1669 -0.1289  0.4703
 5492TIP3    H116440   6.719   6.434   1.301 -1.7526 -0.3173  0.1985
 5492TIP3    H216441   6.814   6.332   1.361  0.3640  1.8453  0.7096
 5493TIP3   OH216442   4.993   6.546   4.012  0.4307  0.1491  0.3661
 5493TIP3    H116443   4.942   6.475   4.052 -0.4554 -0.6433 -2.0056
 5493TIP3    H216444   5.075   6.505   3.986  0.6334  0.4431  0.5307
 5494TIP3   OH216445   7.163   2.993   0.206  0.0452  0.2593  0.2613
 5494TIP3    H116446   7.079   3.020   0.170 -0.2076 -1.7011 -0.7640
 5494TIP3    H216447   7.141   2.925   0.270  0.7986  0.2803  0.5507
 5495TIP3   OH216448   5.584   4.647   0.664 -0.2342 -0.1964 -0.3357
 5495TIP3    H116449   5.507   4.594   0.681 -1.0911  1.1279  0.0867
 5495TIP3    H216450   5.654   4.607   0.716 -1.0919 -0.3437  0.7161
 5496TIP3   OH216451   1.419   5.888   4.488 -0.7714  0.4761  0.0992
 5496TIP3    H116452   1.330   5.918   4.467 -0.1835  0.8695 -2.0454
 5496TIP3    H216453   1.474   5.965   4.477  0.4805 -0.7187 -3.5136
 5497TIP3   OH216454   5.472   0.063   4.536  0.4724  0.0972 -0.1448
 5497TIP3    H116455   5.525   0.012   4.597  2.0167  0.2464 -1.3102
 5497TIP3    H216456   5.392   0.084   4.585 -0.1411 -3.2044  0.4913
 5498TIP3   OH216457   3.069   5.686   2.242 -0.2823  0.0169 -0.3176
 5498TIP3    H116458   3.137   5.639   2.193  0.7823  1.2127 -0.0630
 5498TIP3    H216459   3.099   5.681   2.333 -1.9294 -1.6754  0.1819
 5499TIP3   OH216460   5.292   5.433   2.675  0.2806 -0.3103 -0.3481
 5499TIP3    H116461   5.252   5.466   2.594  1.0965 -0.1886 -0.7048
 5499TIP3    H216462   5.254   5.487   2.744 -2.6193 -2.2076 -0.2611
 5500TIP3   OH216463   3.182   1.254   5.760  0.2772 -0.3411  0.0787
 5500TIP3    H116464   3.099   1.263   5.713  1.2579  0.2272 -1.6440
 5500TIP3    H216465   3.220   1.173   5.726  0.8189 -0.1333  0.1874
 5501TIP3   OH216466   5.148   1.687   5.762  0.3227 -0.0095 -0.0211
 5501TIP3    H116467   5.228   1.726   5.725 -0.1726 -1.0680 -2.4302
 5501TIP3    H216468   5.079   1.714   5.702 -0.9775  0.0117  1.4462
 5502TIP3   OH216469   3.985   4.334   1.092  0.4562  0.0596  0.3191
 5502TIP3    H116470   3.910   4.339   1.033  0.9689  1.5828 -0.2621
 5502TIP3    H216471   3.968   4.400   1.159  1.0129  0.0311  0.4951
 5503TIP3   OH216472   5.690   1.962   1.706  0.0247  0.3374  0.0307
 5503TIP3    H116473   5.751   2.035   1.692  1.8364 -1.1062 -0.0295
 5503TIP3    H216474   5.624   1.973   1.639  0.1451  2.0125  0.1331
 5504TIP3   OH216475   4.952   4.636   1.117 -0.0886 -0.3578  0.3621
 5504TIP3    H116476   5.001   4.702   1.166  1.1097  0.6539 -2.0588
 5504TIP3    H216477   4.998   4.554   1.135  1.9548  0.4072 -1.0108
 5505TIP3   OH216478   3.329   2.388   1.247 -0.3559 -0.4408 -0.2514
 5505TIP3    H116479   3.289   2.453   1.304  2.0769 -0.2548  1.4291
 5505TIP3    H216480   3.350   2.435   1.167  1.6045  1.0573  1.0263
 5506TIP3   OH216481   2.561   3.141   1.455  0.1945 -0.1487  0.0553
 5506TIP3    H116482   2.557   3.234   1.431 -0.7301  0.3467  1.9268
 5506TIP3    H216483   2.635   3.135   1.515  0.3579 -0.6648 -0.1933
 5507TIP3   OH216484   0.877   1.637   1.662  0.0121  0.0539 -0.4456
 5507TIP3    H116485   0.880   1.697   1.588 -0.7083 -0.3857 -0.8440
 5507TIP3    H216486   0.820   1.565   1.632  1.5892 -1.2900 -0.3287
 5508TIP3   OH216487   3.286   4.835   4.291 -0.6482  0.0899 -0.4572
 5508TIP3    H116488   3.239   4.772   4.236  0.6882  0.3029 -1.9187
 5508TIP3    H216489   3.231   4.914   4.289 -0.7406  0.0128 -1.3039
 5509TIP3   OH216490   4.772   2.879   2.214  0.1550 -0.1482 -0.3233
 5509TIP3    H116491   4.799   2.792   2.183 -0.8678  0.0847 -1.9426
 5509TIP3    H216492   4.689   2.896   2.171 -0.2515  1.1547  0.9011
 5510TIP3   OH216493   6.226   1.749   0.718 -0.0837  0.1236 -0.2445
 5510TIP3    H116494   6.263   1.731   0.804  0.1321  1.2745 -0.0871
 5510TIP3    H216495   6.299   1.783   0.667 -0.4784  0.5470 -0.5334
 5511TIP3   OH216496   3.287   6.732   3.567  0.1099  0.3985  0.1827
 5511TIP3    H116497   3.222   6.754   3.634 -0.8040  0.7785 -0.8103
 5511TIP3    H216498   3.315   6.643   3.590 -0.5853  0.3177  0.7586
 5512TIP3   OH216499   3.840   6.441   3.904 -0.5275 -0.6074 -0.2352
 5512TIP3    H116500   3.780   6.379   3.945  0.8478 -1.7723  0.0782
 5512TIP3    H216501   3.862   6.402   3.820  0.0957 -0.3823 -0.1787
 5513TIP3   OH216502   1.597   4.232   3.292  0.2243 -0.0188 -0.3715
 5513TIP3    H116503   1.564   4.168   3.230  1.7198  0.0576 -1.2935
 5513TIP3    H216504   1.637   4.300   3.238  1.1450  0.2769  0.6440
 5514TIP3   OH216505   2.696   2.216   3.220 -0.0657 -0.4227  0.6288
 5514TIP3    H116506   2.730   2.283   3.160 -0.2560  0.6027  1.6313
 5514TIP3    H216507   2.610   2.250   3.246  0.0705 -0.7841  1.5817
 5515TIP3   OH216508   2.229   5.983   2.597  0.0931 -0.0034 -0.4406
 5515TIP3    H116509   2.137   6.003   2.580 -0.2359  0.0761  1.2693
 5515TIP3    H216510   2.227   5.905   2.652  1.1697 -1.4638 -2.3813
 5516TIP3   OH216511   6.351   3.320   0.102 -0.5098  0.0908  0.3069
 5516TIP3    H116512   6.324   3.382   0.035 -0.8176 -0.6746 -0.2952
 5516TIP3    H216513   6.308   3.351   0.182  0.8649  1.7410  0.4682
 5517TIP3   OH216514   5.674   3.800   3.618  0.1475 -0.1868  0.0991
 5517TIP3    H116515   5.761   3.763   3.609  0.2398  0.0430  0.0406
 5517TIP3    H216516   5.677   3.848   3.701  0.3354  0.5156 -0.3037
 5518TIP3   OH216517   5.427   3.750   0.765 -0.4289 -0.2008 -0.5013
 5518TIP3    H116518   5.426   3.698   0.845 -0.2717  0.6554  0.0798
 5518TIP3    H216519   5.515   3.737   0.729 -0.5292 -0.6568 -0.5805
 5519TIP3   OH216520   6.529   3.165   2.324  0.0693  0.3722 -0.2263
 5519TIP3    H116521   6.548   3.256   2.346 -1.6786  0.8050 -0.3886
 5519TIP3    H216522   6.460   3.170   2.258  0.9770 -1.0485 -1.3593
 5520TIP3   OH216523   2.215   1.138   5.311 -0.2740  0.0297 -0.2724
 5520TIP3    H116524   2.220   1.053   5.355 -0.4902 -0.2006 -0.6848
 5520TIP3    H216525   2.303   1.174   5.316 -0.1999 -0.1895 -0.0319
 5521TIP3   OH216526   2.715   1.615   1.237 -0.3617  0.1965 -0.0876
 5521TIP3    H116527   2.784   1.626   1.172  0.3507  0.9588  0.7746
 5521TIP3    H216528   2.759   1.578   1.314 -1.0107  0.1767  0.2825
 5522TIP3   OH216529   0.790   3.552   0.665 -0.1063 -0.3873 -0.2774
 5522TIP3    H116530   0.822   3.471   0.704 -1.7565 -1.3295 -0.7950
 5522TIP3    H216531   0.853   3.572   0.596  1.1601 -0.3558  0.8410
 5523TIP3   OH216532   0.503   1.406   1.135 -0.2795  0.1472  0.0251
 5523TIP3    H116533   0.453   1.324   1.133 -3.3979  1.7495  2.2388
 5523TIP3    H216534   0.553   1.401   1.216 -1.6856  0.9350  0.9978
 5524TIP3   OH216535   6.008   5.047   4.218  0.0948  0.1774 -0.2587
 5524TIP3    H116536   5.913   5.049   4.226  0.2343  1.4349  1.6257
 5524TIP3    H216537   6.028   5.113   4.151 -0.3088  0.6642  0.0976
 5525TIP3   OH216538   0.840   4.406   0.837  0.5648  0.5574  0.4614
 5525TIP3    H116539   0.791   4.402   0.920  1.4250  0.3771  0.9729
 5525TIP3    H216540   0.902   4.478   0.850  0.4181  0.8100 -0.1966
 5526TIP3   OH216541   5.699   4.562   5.578  0.1301  0.0427  0.1651
 5526TIP3    H116542   5.717   4.577   5.671  1.0646  0.8378 -0.1267
 5526TIP3    H216543   5.634   4.628   5.555  1.2014  1.0127 -0.1466
 5527TIP3   OH216544   0.225   2.345   1.334 -0.0169  0.3416  0.1786
 5527TIP3    H116545   0.171   2.266   1.343 -0.0556  0.4408  0.9417
 5527TIP3    H216546   0.308   2.322   1.376  0.1589  0.5351 -0.0603
 5528TIP3   OH216547   4.144   5.357   3.557 -0.1602  0.4627  0.2675
 5528TIP3    H116548   4.180   5.389   3.475  0.9913 -0.1854  0.5015
 5528TIP3    H216549   4.090   5.282   3.531  1.2028 -0.5330  0.1871
 5529TIP3   OH216550   4.797   5.589   5.230  0.3990  0.1805 -0.1822
 5529TIP3    H116551   4.838   5.669   5.263 -1.7343  1.7243 -1.0297
 5529TIP3    H216552   4.731   5.566   5.295  1.9533 -1.8224  0.7921
 5530TIP3   OH216553   2.036   6.457   2.502  0.0985 -0.0948  0.2063
 5530TIP3    H116554   2.114   6.494   2.543  0.6731  0.3928 -1.2468
 5530TIP3    H216555   2.030   6.368   2.537  2.3441 -0.7713 -0.9315
 5531TIP3   OH216556   0.436   6.451   0.990  0.3272 -0.3278 -0.4428
 5531TIP3    H116557   0.502   6.428   1.055  0.4859  2.7422  0.6093
 5531TIP3    H216558   0.485   6.463   0.909  0.7399 -0.0643 -0.1542
 5532TIP3   OH216559   0.191   1.484   3.911  0.6261  0.1775 -0.2751
 5532TIP3    H116560   0.231   1.445   3.834  1.6016  1.4193 -0.4334
 5532TIP3    H216561   0.137   1.414   3.948 -0.7391 -0.1550 -2.6623
 5533TIP3   OH216562   5.259   6.216   4.570  0.0838 -0.0113  0.1403
 5533TIP3    H116563   5.189   6.264   4.612 -0.6606  0.0868 -1.1518
 5533TIP3    H216564   5.257   6.129   4.609 -0.3005  0.2046  0.6001
 5534TIP3   OH216565   5.118   4.275   3.936  0.4158 -0.2542 -0.4445
 5534TIP3    H116566   5.069   4.327   3.873 -0.3242 -1.3768 -0.8129
 5534TIP3    H216567   5.054   4.251   4.003  1.0558  0.4173  0.4410
 5535TIP3   OH216568   6.992   3.347   3.796 -0.0207 -0.2677 -0.3807
 5535TIP3    H116569   6.986   3.419   3.733 -1.2153 -0.9229 -1.0463
 5535TIP3    H216570   7.048   3.282   3.752 -1.3908 -1.0128 -1.1120
 5536TIP3   OH216571   1.619   2.836   3.108  0.4220 -0.2249 -0.2667
 5536TIP3    H116572   1.580   2.768   3.164  1.2306 -0.2892  0.2385
 5536TIP3    H216573   1.713   2.823   3.118  0.5811  0.7690 -0.4304
 5537TIP3   OH216574   4.020   4.576   2.934  0.6327  0.2641 -0.3100
 5537TIP3    H116575   3.953   4.603   2.997  1.0465 -1.4170  0.9149
 5537TIP3    H216576   4.095   4.553   2.988  0.6522 -2.2407 -1.2820
 5538TIP3   OH216577   7.123   4.909   2.627  0.0165 -0.5346  0.4146
 5538TIP3    H116578   7.178   4.832   2.643  0.0794 -0.3398  1.1831
 5538TIP3    H216579   7.179   4.968   2.576  0.6123 -0.2431  1.3859
 5539TIP3   OH216580   0.612   1.039   1.572  0.1840 -0.8003 -0.2363
 5539TIP3    H116581   0.675   1.028   1.501 -0.0320 -0.8316 -0.4229
 5539TIP3    H216582   0.666   1.047   1.651  0.4418 -0.2390 -0.4689
 5540TIP3   OH216583   2.501   3.489   1.027 -0.2255  0.0121 -0.2013
 5540TIP3    H116584   2.543   3.570   1.058  1.1359 -0.8384  0.2369
 5540TIP3    H216585   2.407   3.506   1.037  0.0339  1.4586  0.0799
 5541TIP3   OH216586   3.611   1.505   4.226 -0.4602  0.4877  0.0191
 5541TIP3    H116587   3.657   1.500   4.310  0.5586  0.5453 -0.5271
 5541TIP3    H216588   3.593   1.414   4.203 -0.1733  0.4351 -0.0039
 5542TIP3   OH216589   5.903   6.432   2.988 -0.4739  0.3441  0.0446
 5542TIP3    H116590   5.845   6.394   2.921  0.1389  0.6277 -0.6600
 5542TIP3    H216591   5.918   6.522   2.959 -1.1154  0.8355  1.1829
 5543TIP3   OH216592   4.946   4.700   1.902  0.3069 -0.6572  0.0202
 5543TIP3    H116593   4.924   4.627   1.960  0.5618 -0.2475  0.6489
 5543TIP3    H216594   4.874   4.762   1.914  0.6160 -0.3463  0.2923
 5544TIP3   OH216595   2.868   1.149   1.581 -0.5599  0.0006  0.0224
 5544TIP3    H116596   2.867   1.100   1.663 -0.3685 -0.9970 -0.5535
 5544TIP3    H216597   2.803   1.106   1.526 -0.5992  0.5788 -0.3930
 5545TIP3   OH216598   6.783   0.698   1.145 -0.0510 -0.5255 -0.1237
 5545TIP3    H116599   6.847   0.644   1.099  0.6050 -0.5138  0.7467
 5545TIP3    H216600   6.835   0.760   1.195 -0.7949  1.0454 -1.2130
 5546TIP3   OH216601   5.257   4.594   4.031  0.2525 -0.4802  0.0830
 5546TIP3    H116602   5.188   4.617   3.968 -0.1003 -1.7746 -0.0441
 5546TIP3    H216603   5.211   4.584   4.114  1.0151  3.3819  1.1587
 5547TIP3   OH216604   3.028   2.348   1.492  0.1469  0.3112  0.0762
 5547TIP3    H116605   2.953   2.372   1.545  1.1033  1.1677  1.0987
 5547TIP3    H216606   3.063   2.269   1.534 -0.7780 -0.7142 -1.0298
 5548TIP3   OH216607   0.677   5.589   2.371 -0.0181  0.1310 -0.2798
 5548TIP3    H116608   0.750   5.527   2.367  1.1605  1.4822 -0.0349
 5548TIP3    H216609   0.710   5.668   2.328 -1.6222  0.5023 -0.9090
 5549TIP3   OH216610   2.944   3.936   0.413  0.1273  0.0699  0.1437
 5549TIP3    H116611   2.938   3.958   0.320 -0.9895 -0.4710  0.0722
 5549TIP3    H216612   2.918   4.016   0.458 -0.9721 -0.1484 -0.0617
 5550TIP3   OH216613   5.396   3.327   1.586 -0.8122 -0.1521 -0.0846
 5550TIP3    H116614   5.474   3.383   1.594 -1.7224  1.3600 -1.1247
 5550TIP3    H216615   5.431   3.238   1.585  0.7104  0.3558  1.5875
 5551TIP3   OH216616   2.593   0.118   0.135  0.3557  0.1465  0.0614
 5551TIP3    H116617   2.657   0.059   0.095 -0.5752  0.3448 -1.8806
 5551TIP3    H216618   2.632   0.205   0.126  0.2054  0.1765 -0.3309
 5552TIP3   OH216619   2.552   0.188   4.976 -0.7179 -0.1416  0.5693
 5552TIP3    H116620   2.577   0.096   4.986  1.8281  0.4693  0.5023
 5552TIP3    H216621   2.591   0.214   4.893 -2.8211  0.6444 -0.2543
 5553TIP3   OH216622   2.874   1.757   1.897 -0.4290  0.1235  0.4266
 5553TIP3    H116623   2.857   1.843   1.859  0.6079  0.5050  0.7712
 5553TIP3    H216624   2.881   1.773   1.991  1.1560 -0.0564  0.3811
 5554TIP3   OH216625   4.689   1.794   5.415 -0.2493  0.2511  0.5704
 5554TIP3    H116626   4.607   1.756   5.448  0.2367 -0.0780  1.4115
 5554TIP3    H216627   4.735   1.720   5.375 -0.6467  0.5649 -0.5232
 5555TIP3   OH216628   0.755   0.617   2.485 -0.3854 -0.4312 -0.2885
 5555TIP3    H116629   0.707   0.535   2.473  1.2822 -1.4078 -0.6608
 5555TIP3    H216630   0.804   0.628   2.403 -1.3248  1.4776 -0.6363
 5556TIP3   OH216631   6.497   3.208   3.121  0.1288  0.1547  0.6236
 5556TIP3    H116632   6.432   3.221   3.189 -0.1504 -2.1916  0.8992
 5556TIP3    H216633   6.487   3.283   3.063 -2.1845  0.3214  1.1463
 5557TIP3   OH216634   3.746   3.149   3.865  0.2068 -0.0719 -0.7657
 5557TIP3    H116635   3.782   3.082   3.806 -0.8873 -0.7575 -0.6817
 5557TIP3    H216636   3.805   3.224   3.854  1.9727 -1.3036 -0.2276
 5558TIP3   OH216637   7.025   4.065   4.705  0.1796 -0.1688 -0.1132
 5558TIP3    H116638   7.077   4.051   4.626 -0.6020 -1.3479 -0.4560
 5558TIP3    H216639   7.048   4.153   4.734  0.8612  0.0907 -1.3689
 5559TIP3   OH216640   3.936   3.802   5.451 -0.1885  0.1737 -0.5641
 5559TIP3    H116641   3.987   3.738   5.501  1.2900  0.7302 -1.2813
 5559TIP3    H216642   3.846   3.791   5.482  0.4210 -0.5652  1.0790
 5560TIP3   OH216643   6.427   2.650   4.992  0.1473  0.4861  0.1137
 5560TIP3    H116644   6.405   2.685   4.906  0.3471  0.8456  0.2084
 5560TIP3    H216645   6.510   2.693   5.015  0.3466  0.0271  0.2705
 5561TIP3   OH216646   1.469   2.769   3.609 -0.1445  0.0069 -0.0246
 5561TIP3    H116647   1.420   2.818   3.674  0.5529  0.6131  0.0639
 5561TIP3    H216648   1.487   2.685   3.650  0.9451  0.6562  0.8999
 5562TIP3   OH216649   6.851   3.209   0.913 -0.0039  0.1209 -0.4193
 5562TIP3    H116650   6.810   3.137   0.961  1.2047 -0.8187 -0.7457
 5562TIP3    H216651   6.782   3.239   0.853 -0.9042  0.0393  0.5486
 5563TIP3   OH216652   3.347   2.494   4.735 -0.6276  0.1889  0.5870
 5563TIP3    H116653   3.279   2.432   4.762 -0.5105 -0.3723 -0.3592
 5563TIP3    H216654   3.339   2.499   4.640  0.7188  0.0349  0.4414
 5564TIP3   OH216655   4.445   0.734   1.436  0.8563  0.1153  0.3994
 5564TIP3    H116656   4.447   0.702   1.345 -0.6639  0.5294  0.1981
 5564TIP3    H216657   4.470   0.658   1.488  1.3512 -0.2432 -0.3323
 5565TIP3   OH216658   0.430   3.874   1.823 -0.0806 -0.5651  0.2822
 5565TIP3    H116659   0.365   3.901   1.759 -0.4932 -0.4278  0.7528
 5565TIP3    H216660   0.453   3.784   1.798 -0.3041 -0.5454  0.0027
 5566TIP3   OH216661   6.960   3.633   4.394  0.1074  0.3639  0.5003
 5566TIP3    H116662   6.957   3.717   4.348 -1.3708 -0.4639 -1.0164
 5566TIP3    H216663   6.900   3.645   4.468  0.1493  0.7606  0.4734
 5567TIP3   OH216664   2.184   6.277   5.701  0.1710 -0.3141 -0.3165
 5567TIP3    H116665   2.253   6.336   5.734  1.0934 -1.2416 -0.5350
 5567TIP3    H216666   2.125   6.335   5.653  0.5973  0.5649  0.1802
 5568TIP3   OH216667   0.981   5.517   0.598  0.1591  0.0973  0.5338
 5568TIP3    H116668   0.994   5.589   0.537  0.5892  0.1035  0.6283
 5568TIP3    H216669   0.891   5.487   0.582  0.4707 -0.2888 -0.5058
 5569TIP3   OH216670   4.733   5.709   5.776  0.5196 -0.5519 -0.3113
 5569TIP3    H116671   4.780   5.762   5.711  0.9578  1.4874  1.5737
 5569TIP3    H216672   4.759   5.745   5.860 -1.0690 -2.2554  0.9848
 5570TIP3   OH216673   1.954   1.779   4.837 -0.0867  0.7800  0.2400
 5570TIP3    H116674   1.873   1.778   4.888  0.3553 -0.0277  0.9511
 5570TIP3    H216675   2.009   1.846   4.880  0.1042  0.4315  0.5461
 5571TIP3   OH216676   2.543   0.741   3.092  0.1354  0.2184 -0.3070
 5571TIP3    H116677   2.480   0.812   3.080 -0.3416  0.3050  2.2361
 5571TIP3    H216678   2.489   0.666   3.117  0.7863 -0.6575 -1.4187
 5572TIP3   OH216679   5.426   2.248   3.811 -0.2813  0.5106  0.2251
 5572TIP3    H116680   5.368   2.172   3.817  1.0499 -0.4487  2.4806
 5572TIP3    H216681   5.431   2.281   3.901  1.3753  1.5309 -0.1953
 5573TIP3   OH216682   2.545   2.392   4.598  0.1656 -0.3767 -0.1861
 5573TIP3    H116683   2.589   2.421   4.677 -1.3715  0.2801  0.4573
 5573TIP3    H216684   2.478   2.330   4.628 -1.6625  1.2445 -0.7242
 5574TIP3   OH216685   3.931   4.152   0.605  0.4451 -0.1052  0.1453
 5574TIP3    H116686   4.000   4.146   0.671  1.6333 -0.5258 -1.0844
 5574TIP3    H216687   3.963   4.100   0.532 -1.9742 -1.7765  0.1618
 5575TIP3   OH216688   7.053   2.559   5.166 -0.6054  0.2026 -0.0522
 5575TIP3    H116689   6.960   2.574   5.153 -0.3648  1.0870 -0.8267
 5575TIP3    H216690   7.095   2.596   5.088  0.3958 -0.0880  0.3338
 5576TIP3   OH216691   6.609   1.220   2.942 -0.4151 -0.2986  0.0688
 5576TIP3    H116692   6.641   1.201   3.030 -0.6027  0.2061  0.2480
 5576TIP3    H216693   6.688   1.237   2.891 -0.2276 -1.7316 -0.1451
 5577TIP3   OH216694   4.066   4.828   4.847  0.7019  0.0018  0.0152
 5577TIP3    H116695   4.132   4.767   4.814  0.7024 -0.8918  1.5610
 5577TIP3    H216696   4.004   4.772   4.894  0.3993  1.1351  1.0137
 5578TIP3   OH216697   7.027   6.152   3.850 -0.5401 -0.2751 -0.1082
 5578TIP3    H116698   7.086   6.188   3.784 -1.1110 -0.0981 -0.5331
 5578TIP3    H216699   6.961   6.104   3.800  0.0181 -1.6465  0.4291
 5579TIP3   OH216700   0.798   4.288   4.099 -0.1883 -0.1986  0.2651
 5579TIP3    H116701   0.735   4.235   4.148  0.4176  0.4630  1.8195
 5579TIP3    H216702   0.778   4.378   4.123  2.0596 -0.0149  1.7753
 5580TIP3   OH216703   3.921   3.378   3.815 -0.3604 -0.0572 -0.6334
 5580TIP3    H116704   3.976   3.379   3.893 -0.7915 -0.2954 -0.3248
 5580TIP3    H216705   3.984   3.379   3.742  0.1293 -1.9138 -0.3021
 5581TIP3   OH216706   5.954   4.066   2.543  0.1896  0.5125 -0.1629
 5581TIP3    H116707   5.950   3.971   2.554 -0.3253  0.5863  0.3209
 5581TIP3    H216708   5.944   4.101   2.632 -3.5235  1.1258 -0.6654
 5582TIP3   OH216709   4.167   5.407   5.833  0.4380 -0.5064 -0.2519
 5582TIP3    H116710   4.095   5.396   5.895  0.5743 -0.7149 -0.1298
 5582TIP3    H216711   4.231   5.340   5.858  0.7721 -0.1794 -0.2180
 5583TIP3   OH216712   1.211   6.789   2.345  0.0658 -0.0314  0.0482
 5583TIP3    H116713   1.148   6.857   2.320  1.0350  0.8224 -0.1347
 5583TIP3    H216714   1.209   6.727   2.272  1.4504  1.4426 -1.3348
 5584TIP3   OH216715   2.500   0.553   4.271 -0.7142  0.3105 -0.4922
 5584TIP3    H116716   2.430   0.573   4.333 -0.8570  0.7896 -0.8048
 5584TIP3    H216717   2.462   0.567   4.185 -0.7266 -1.0397 -0.7273
 5585TIP3   OH216718   5.184   4.518   4.696  0.5721 -0.0159 -0.1932
 5585TIP3    H116719   5.114   4.513   4.630  0.7410 -1.4490 -0.2956
 5585TIP3    H216720   5.156   4.458   4.765  1.9771 -1.1275 -0.5327
 5586TIP3   OH216721   1.808   0.039   3.545  0.1392 -0.0884  0.2137
 5586TIP3    H116722   1.788  -0.049   3.513  0.3526  0.3333 -1.1304
 5586TIP3    H216723   1.826   0.026   3.638 -1.8567 -1.1534  0.5116
 5587TIP3   OH216724   1.642   4.594   0.927  0.5378 -0.0592 -0.1968
 5587TIP3    H116725   1.555   4.573   0.962 -0.1226 -0.7470 -2.1093
 5587TIP3    H216726   1.641   4.689   0.916 -0.3289 -0.1431 -1.0062
 5588TIP3   OH216727   2.439   1.208   3.257  0.7991  0.8533 -0.6919
 5588TIP3    H116728   2.513   1.244   3.209  0.8705 -1.1527 -2.2328
 5588TIP3    H216729   2.478   1.142   3.315  0.3339  0.4013 -0.8814
 5589TIP3   OH216730   3.140   5.805   1.893 -0.4603  0.5336 -0.1917
 5589TIP3    H116731   3.078   5.827   1.962  0.2070  4.0361 -0.5379
 5589TIP3    H216732   3.223   5.792   1.939 -0.7595 -1.2265 -0.0411
 5590TIP3   OH216733   2.618   1.353   3.116 -0.1061  0.3505 -0.1736
 5590TIP3    H116734   2.691   1.337   3.175 -0.4168  0.1756  0.1737
 5590TIP3    H216735   2.637   1.301   3.038  0.4386  0.7923 -0.3409
 5591TIP3   OH216736   1.103   1.112   1.219  0.5640 -0.1452 -0.3593
 5591TIP3    H116737   1.186   1.151   1.192 -0.5032  1.1832 -1.9057
 5591TIP3    H216738   1.065   1.175   1.279 -0.7606  0.8702 -2.1711
 5592TIP3   OH216739   4.676   3.882   2.791 -0.2264  0.6373 -0.5868
 5592TIP3    H116740   4.581   3.894   2.797 -0.4190 -0.8961 -0.0846
 5592TIP3    H216741   4.689   3.788   2.805  1.1019  0.1693 -4.0665
 5593TIP3   OH216742   6.760   1.151   3.154 -0.6148  0.1655 -0.1038
 5593TIP3    H116743   6.845   1.177   3.120 -1.1748  1.5882 -0.5136
 5593TIP3    H216744   6.770   1.153   3.249 -0.2515  0.6079 -0.1473
 5594TIP3   OH216745   3.016   2.785   3.777 -0.4660 -0.1142  0.2777
 5594TIP3    H116746   3.107   2.765   3.795 -0.0020  1.5304 -0.0911
 5594TIP3    H216747   2.993   2.852   3.842 -1.1972 -0.0194 -0.0649
 5595TIP3   OH216748   1.813   5.843   3.875 -0.0893  0.0164 -0.1943
 5595TIP3    H116749   1.906   5.865   3.878 -0.0455 -0.1259 -0.4209
 5595TIP3    H216750   1.785   5.840   3.966 -0.4672  2.4874 -0.1779
 5596TIP3   OH216751   2.615   3.062   4.843 -0.4417  0.4259 -0.4543
 5596TIP3    H116752   2.694   3.101   4.805  0.0381 -1.3034 -1.3356
 5596TIP3    H216753   2.593   2.990   4.784 -1.7188 -0.1569  0.6874
 5597TIP3   OH216754   4.002   3.152   1.397  0.2591 -0.0003  0.4899
 5597TIP3    H116755   4.014   3.058   1.410 -0.1129 -0.3060 -1.1403
 5597TIP3    H216756   3.980   3.185   1.484 -0.2715 -1.5312  0.9826
 5598TIP3   OH216757   2.359   5.250   1.262  0.4128  0.3090  0.0900
 5598TIP3    H116758   2.325   5.303   1.191  2.0276  0.1411 -0.8417
 5598TIP3    H216759   2.364   5.161   1.226 -1.4912 -0.3874  1.3699
 5599TIP3   OH216760   3.823   6.496   4.714 -0.2611  0.5873 -0.0111
 5599TIP3    H116761   3.832   6.590   4.731  1.1575  0.7021 -1.2843
 5599TIP3    H216762   3.883   6.478   4.642 -1.4132 -1.0774 -0.6235
 5600TIP3   OH216763   1.365   6.064   5.034  0.2386 -0.6239 -0.0288
 5600TIP3    H116764   1.389   6.101   4.950  0.2284  0.1672  0.3119
 5600TIP3    H216765   1.438   6.007   5.057  0.1164 -1.0616 -0.6918
 5601TIP3   OH216766   0.971   1.162   0.398  0.2246 -0.7500 -0.2442
 5601TIP3    H116767   0.988   1.233   0.460  0.5629 -1.3510  0.3648
 5601TIP3    H216768   1.025   1.183   0.322  0.7158 -0.6158  0.1369
 5602TIP3   OH216769   2.885   4.722   5.338 -0.3462  0.5619  0.4037
 5602TIP3    H116770   2.970   4.706   5.298 -1.0115  0.1547 -0.9206
 5602TIP3    H216771   2.887   4.674   5.421 -0.2037 -1.6676 -0.8236
 5603TIP3   OH216772   1.189   1.576   3.218 -0.1248 -0.1482 -0.0844
 5603TIP3    H116773   1.226   1.643   3.275  0.0020 -0.0796 -0.2496
 5603TIP3    H216774   1.191   1.614   3.130  0.3964 -0.5536 -0.2533
 5604TIP3   OH216775   0.175   5.777   5.004 -0.4151 -0.1185  0.1356
 5604TIP3    H116776   0.088   5.786   4.965  0.0951  0.5613 -0.8840
 5604TIP3    H216777   0.232   5.755   4.931  0.3887  0.1656  0.6657
 5605TIP3   OH216778   2.870   4.476   0.351 -0.2425  0.0067 -0.2039
 5605TIP3    H116779   2.951   4.506   0.392 -0.0058 -0.2215 -0.5026
 5605TIP3    H216780   2.848   4.546   0.288  1.1624 -1.1244 -2.0558
 5606TIP3   OH216781   0.989   4.444   5.558  0.1309  0.2707 -0.4885
 5606TIP3    H116782   1.060   4.409   5.504  0.5623  2.4565 -1.4638
 5606TIP3    H216783   0.912   4.437   5.502  0.1307  0.4198 -0.5081
 5607TIP3   OH216784   4.657   4.143   4.790  0.5578 -0.3010  0.4139
 5607TIP3    H116785   4.613   4.206   4.733 -0.5824 -1.9896 -0.6455
 5607TIP3    H216786   4.608   4.147   4.872  1.5695  1.3827  1.0081
 5608TIP3   OH216787   1.177   0.624   2.445 -0.0816  0.1635  0.0759
 5608TIP3    H116788   1.238   0.688   2.408  1.1537 -0.9397  0.1255
 5608TIP3    H216789   1.118   0.604   2.372  0.9077 -0.2836 -0.6326
 5609TIP3   OH216790   0.410   0.337   1.755 -0.2510  0.2436  0.0574
 5609TIP3    H116791   0.485   0.362   1.809 -0.3208 -1.3466  0.9610
 5609TIP3    H216792   0.378   0.420   1.719  2.3254  0.9187 -0.9251
 5610TIP3   OH216793   4.281   6.229   1.301 -0.2767 -0.7185  0.2561
 5610TIP3    H116794   4.270   6.244   1.208 -0.6161 -0.1381  0.3840
 5610TIP3    H216795   4.203   6.180   1.327 -0.5712 -0.1925  0.3800
 5611TIP3   OH216796   0.424   1.882   0.709  0.1074 -0.2256 -0.3979
 5611TIP3    H116797   0.337   1.916   0.685 -0.3612 -0.5366  0.7557
 5611TIP3    H216798   0.408   1.792   0.735  0.6751 -0.1244  0.3438
 5612TIP3   OH216799   3.858   3.277   1.640 -0.0481 -0.0257  0.0229
 5612TIP3    H116800   3.889   3.315   1.722 -3.2533  2.0037  0.4626
 5612TIP3    H216801   3.878   3.343   1.574  1.6432 -1.2339 -0.7426
 5613TIP3   OH216802   6.569   1.750   3.904  0.0918 -0.3431  0.3108
 5613TIP3    H116803   6.551   1.759   3.811 -0.5631 -0.9570  0.3694
 5613TIP3    H216804   6.596   1.659   3.916 -0.6662 -0.5128  0.8373
 5614TIP3   OH216805   4.026   0.650   0.848 -0.1838 -0.1104 -0.6409
 5614TIP3    H116806   4.025   0.740   0.881 -0.3760 -0.1756 -0.4674
 5614TIP3    H216807   4.004   0.659   0.755  0.2595  0.0638 -0.7344
 5615TIP3   OH216808   2.018   3.373   5.164 -0.5287  0.3709  0.2954
 5615TIP3    H116809   1.993   3.320   5.239  2.1627 -2.8330 -0.8330
 5615TIP3    H216810   2.010   3.314   5.089 -0.2607  2.5143 -1.5205
 5616TIP3   OH216811   2.441   6.377   5.709  0.3665 -0.0631  0.2303
 5616TIP3    H116812   2.454   6.282   5.709  1.3385  0.0066 -2.0026
 5616TIP3    H216813   2.530   6.413   5.709  0.0242  0.8048 -0.4205
 5617TIP3   OH216814   5.873   3.479   2.656  0.1144 -0.3752 -0.1842
 5617TIP3    H116815   5.960   3.519   2.665  0.4045 -1.3726  2.2078
 5617TIP3    H216816   5.812   3.551   2.672  0.4864  0.2328 -1.4007
 5618TIP3   OH216817   3.138   1.390   0.021 -0.2106 -0.6671  0.5667
 5618TIP3    H116818   3.077   1.463   0.032 -0.4781 -0.2486 -2.6418
 5618TIP3    H216819   3.207   1.406   0.085 -0.8418  1.7868  0.7335
 5619TIP3   OH216820   4.462   1.356   0.135 -0.1144 -0.2328 -0.1082
 5619TIP3    H116821   4.457   1.452   0.131  0.4905 -0.2293 -1.1914
 5619TIP3    H216822   4.375   1.327   0.107 -0.3047  0.0057  0.2360
 5620TIP3   OH216823   4.520   2.214   5.926 -0.5546 -0.4610 -0.1116
 5620TIP3    H116824   4.480   2.275   5.865 -0.8070 -2.5209 -2.1445
 5620TIP3    H216825   4.614   2.222   5.911 -0.5419 -0.0551  0.1738
 5621TIP3   OH216826   2.253   0.880   3.159 -1.0679 -0.1081 -0.8800
 5621TIP3    H116827   2.188   0.840   3.217  0.6593 -0.4407  0.9596
 5621TIP3    H216828   2.242   0.974   3.172  0.9418 -0.1396  2.1604
 5622TIP3   OH216829   4.695   2.932   5.233 -0.2627  0.0180 -0.4696
 5622TIP3    H116830   4.705   2.971   5.146 -1.0232 -0.5478 -0.8255
 5622TIP3    H216831   4.728   2.999   5.293  1.1876  0.0299 -1.2431
 5623TIP3   OH216832   6.957   4.083   4.306 -0.2241 -0.1475 -0.1526
 5623TIP3    H116833   6.892   4.074   4.377  0.2762  0.3452  0.3782
 5623TIP3    H216834   7.030   4.129   4.347  0.2812 -0.3108 -0.8676
 5624TIP3   OH216835   2.806   0.819   3.061 -0.2989 -0.1186  0.0483
 5624TIP3    H116836   2.722   0.773   3.072 -0.2880  0.0622  1.0048
 5624TIP3    H216837   2.788   0.887   2.997 -0.8160 -0.2581  0.0404
 5625TIP3   OH216838   2.267   5.788   5.404  0.0024 -0.2909 -0.0950
 5625TIP3    H116839   2.230   5.700   5.410 -0.7898  0.1310  2.4884
 5625TIP3    H216840   2.361   5.775   5.412  0.3236 -1.1176 -3.5937
 5626TIP3   OH216841   2.055   5.602   2.964  0.0907 -0.5423  0.8179
 5626TIP3    H116842   2.012   5.657   2.899  1.9410 -0.6064 -0.5470
 5626TIP3    H216843   1.983   5.563   3.014 -1.3603  0.2894 -0.5293
 5627TIP3   OH216844   5.192   0.678   5.527  0.0594 -0.6891 -0.0963
 5627TIP3    H116845   5.282   0.679   5.560  0.0514  2.6506  0.0926
 5627TIP3    H216846   5.196   0.723   5.443 -1.6140  0.9261  0.6240
 5628TIP3   OH216847   5.566   6.040   2.011  0.0370 -1.0303 -0.3788
 5628TIP3    H116848   5.609   6.063   2.094  2.4673 -1.7614 -1.3538
 5628TIP3    H216849   5.499   6.107   1.999  0.2674 -0.3636  1.6945
 5629TIP3   OH216850   4.475   4.128   3.629 -0.0056  0.3021  0.6577
 5629TIP3    H116851   4.505   4.218   3.645  0.5012  0.0740  1.0046
 5629TIP3    H216852   4.492   4.082   3.710  0.0971 -0.2087  0.3512
 5630TIP3   OH216853   4.119   3.579   1.250  0.0345 -0.0191  0.5117
 5630TIP3    H116854   4.072   3.501   1.279  0.1582  0.7435  3.0134
 5630TIP3    H216855   4.098   3.586   1.157 -0.7324 -2.4812  0.4115
 5631TIP3   OH216856   4.275   2.993   1.946 -0.3829 -0.2643  0.5719
 5631TIP3    H116857   4.209   3.058   1.969  0.1228  1.8556 -3.1180
 5631TIP3    H216858   4.233   2.939   1.879  0.9488 -0.1164 -0.4267
 5632TIP3   OH216859   6.753   6.566   4.919  0.0590  0.4463  0.2891
 5632TIP3    H116860   6.749   6.631   4.849 -1.3172  0.8940  0.7526
 5632TIP3    H216861   6.773   6.616   4.998  0.1551  0.1376  0.4656
 5633TIP3   OH216862   3.287   1.696   3.229  0.6247  0.3584 -0.2729
 5633TIP3    H116863   3.235   1.622   3.197  0.0530  0.3248  0.7023
 5633TIP3    H216864   3.241   1.774   3.197 -0.2144  0.3361  0.8434
 5634TIP3   OH216865   1.579   6.278   2.718  0.0393  0.3252 -0.6364
 5634TIP3    H116866   1.576   6.205   2.780  1.1968 -1.2839 -2.3825
 5634TIP3    H216867   1.670   6.308   2.721  0.0004  0.5125 -1.2582
 5635TIP3   OH216868   1.939   6.738   4.712 -0.2692 -0.1260  0.2359
 5635TIP3    H116869   2.012   6.798   4.728 -2.2778  2.3750  0.7395
 5635TIP3    H216870   1.916   6.705   4.799 -1.7276  1.7124  0.6246
 5636TIP3   OH216871   0.264   0.684   0.635 -0.4492 -0.9272 -0.0372
 5636TIP3    H116872   0.326   0.682   0.562  0.5561 -0.1590  0.7570
 5636TIP3    H216873   0.287   0.608   0.688 -0.4061 -0.8450  0.0645
 5637TIP3   OH216874   4.285   4.673   3.061  0.4118 -0.6681 -0.1684
 5637TIP3    H116875   4.273   4.712   2.974  0.9224 -0.1910 -0.0256
 5637TIP3    H216876   4.373   4.700   3.088  0.9742 -2.3041 -0.2730
 5638TIP3   OH216877   0.434   2.741   2.675  0.1014  0.2681 -0.1166
 5638TIP3    H116878   0.429   2.825   2.721 -1.4568  0.0349  0.1773
 5638TIP3    H216879   0.357   2.740   2.618  0.5413 -0.6304 -0.7188
 5639TIP3   OH216880   3.843   2.513   4.835  0.2957  0.2680  0.1843
 5639TIP3    H116881   3.889   2.439   4.796  1.0097  0.5788  0.4352
 5639TIP3    H216882   3.755   2.508   4.798  0.3424 -0.6867  0.1744
 5640TIP3   OH216883   4.449   1.808   5.149 -0.4092 -0.0575  0.1787
 5640TIP3    H116884   4.457   1.888   5.097 -0.0925 -0.1575  0.0711
 5640TIP3    H216885   4.355   1.798   5.162 -0.5865 -0.6234 -1.3046
 5641TIP3   OH216886   4.357   5.452   1.207 -0.3011  0.4468  0.2186
 5641TIP3    H116887   4.305   5.383   1.167  1.5935 -0.0424 -1.5364
 5641TIP3    H216888   4.425   5.472   1.143  1.4036  1.3803  2.1963
 5642TIP3   OH216889   6.002   2.948   3.556  0.6491 -0.0934  0.2565
 5642TIP3    H116890   5.966   2.926   3.470 -0.2769 -1.2004  0.8900
 5642TIP3    H216891   5.929   2.987   3.603  0.7618 -0.7562  0.9909
 5643TIP3   OH216892   4.770   6.677   2.034  0.0892  0.2985  0.1037
 5643TIP3    H116893   4.716   6.738   1.983 -1.0418  0.1079  1.0326
 5643TIP3    H216894   4.768   6.713   2.123 -0.7653 -1.1957  0.7092
 5644TIP3   OH216895   1.341   1.028   0.566  0.2778  0.2693 -0.4238
 5644TIP3    H116896   1.330   1.112   0.520  0.1132 -0.0781 -1.0376
 5644TIP3    H216897   1.434   1.008   0.557  0.3861  0.5504  0.0262
 5645TIP3   OH216898   1.524   5.063   2.700  0.2228  0.3399 -0.3625
 5645TIP3    H116899   1.469   5.082   2.775  0.2390  1.8065 -0.7047
 5645TIP3    H216900   1.537   5.147   2.656  2.0941 -0.0896 -0.7407
 5646TIP3   OH216901   3.765   2.127   3.808 -0.6336  0.4032  0.4774
 5646TIP3    H116902   3.838   2.187   3.790 -1.1918  0.6293 -1.2251
 5646TIP3    H216903   3.807   2.047   3.840  0.1219  1.6596  2.8576
 5647TIP3   OH216904   0.159   1.794   2.939 -0.6753  0.2488 -0.9198
 5647TIP3    H116905   0.252   1.801   2.964 -0.7817  0.5506 -0.6009
 5647TIP3    H216906   0.158   1.729   2.870 -0.2298  0.1870 -0.8724
 5648TIP3   OH216907   2.787   6.360   3.437  0.4723  0.3986  0.2402
 5648TIP3    H116908   2.706   6.350   3.486  0.0176 -1.2000 -0.7776
 5648TIP3    H216909   2.803   6.274   3.399  1.3910  1.2984 -1.5027
 5649TIP3   OH216910   5.885   6.502   1.250  0.0513 -0.4433 -0.3916
 5649TIP3    H116911   5.820   6.568   1.274 -0.1322 -0.4967 -0.7367
 5649TIP3    H216912   5.963   6.527   1.299 -0.5153 -0.9638  0.8186
 5650TIP3   OH216913   4.402   0.784   3.701  0.0118  0.0395  0.1148
 5650TIP3    H116914   4.317   0.786   3.658  0.8599  0.6132 -1.6600
 5650TIP3    H216915   4.463   0.761   3.631  1.0517 -3.0777  1.8567
 5651TIP3   OH216916   2.084   5.673   4.295  0.0245 -0.0497 -0.3584
 5651TIP3    H116917   2.007   5.627   4.263  0.7796 -0.8657 -1.0410
 5651TIP3    H216918   2.049   5.742   4.351 -1.1207 -1.7915  1.1777
 5652TIP3   OH216919   6.531   5.083   4.565 -0.5686  0.2157 -0.3545
 5652TIP3    H116920   6.570   5.119   4.645 -0.4541  1.9260 -1.1466
 5652TIP3    H216921   6.446   5.049   4.593  0.0206 -0.4114  0.7300
 5653TIP3   OH216922   4.194   3.219   1.635  0.4607  0.4349 -0.4751
 5653TIP3    H116923   4.235   3.272   1.703  1.6626  0.5801 -1.2726
 5653TIP3    H216924   4.158   3.144   1.681  0.5958  0.8978  0.4049
 5654TIP3   OH216925   0.424   5.839   5.648 -0.1662 -0.5829  0.2166
 5654TIP3    H116926   0.491   5.905   5.667 -0.4253 -0.1061 -0.4499
 5654TIP3    H216927   0.463   5.785   5.579 -0.6396  0.0188 -0.5534
 5655TIP3   OH216928   6.252   2.814   3.362 -0.2422 -0.1566  0.2087
 5655TIP3    H116929   6.269   2.875   3.290  0.2552 -2.1255 -1.4199
 5655TIP3    H216930   6.201   2.743   3.323  0.9979 -1.8534  1.5226
 5656TIP3   OH216931   6.763   5.738   3.666  0.3396  0.3385  0.2862
 5656TIP3    H116932   6.797   5.649   3.658  0.5592  0.4757 -0.4066
 5656TIP3    H216933   6.774   5.775   3.578  0.3406  1.0795  0.5956
 5657TIP3   OH216934   4.920   1.433   0.042  0.1275 -0.4171  0.0772
 5657TIP3    H116935   4.848   1.404  -0.013 -0.5372  0.4196  0.4792
 5657TIP3    H216936   4.888   1.422   0.131  0.2972  0.4260  0.2502
 5658TIP3   OH216937   3.282   4.232   0.542  0.0627 -0.2912  0.0109
 5658TIP3    H116938   3.320   4.302   0.488 -1.8644  0.8391  0.0381
 5658TIP3    H216939   3.358   4.187   0.580  1.4019  0.4266 -1.6938
 5659TIP3   OH216940   5.303   1.138   1.815 -0.1726 -0.0651 -0.3153
 5659TIP3    H116941   5.320   1.176   1.729 -1.0833 -0.8746 -0.8763
 5659TIP3    H216942   5.232   1.191   1.852 -1.4977 -1.1996 -1.1313
 5660TIP3   OH216943   4.531   5.755   4.495 -0.0875  0.5762  0.4468
 5660TIP3    H116944   4.598   5.772   4.562  2.9516 -1.5124 -1.7642
 5660TIP3    H216945   4.531   5.660   4.486 -1.1132  0.7458 -1.8103
 5661TIP3   OH216946   2.507   2.044   0.149  0.7569  0.0171 -0.2069
 5661TIP3    H116947   2.538   2.122   0.102  0.8331  0.1325  0.0285
 5661TIP3    H216948   2.585   1.990   0.160  0.3690 -0.9824 -2.0105
 5662TIP3   OH216949   3.228   2.076   2.830 -0.0267 -0.2884 -0.1270
 5662TIP3    H116950   3.208   1.983   2.816  1.1129 -0.2737 -2.1881
 5662TIP3    H216951   3.281   2.101   2.755 -1.2389  2.3404 -0.2162
 5663TIP3   OH216952   0.149   6.649   1.565  0.2020  0.1124 -0.0551
 5663TIP3    H116953   0.130   6.704   1.641  0.8574  1.1802 -0.6412
 5663TIP3    H216954   0.244   6.643   1.563  0.1255 -2.6857  1.1044
 5664TIP3   OH216955   2.410   3.136   0.862 -0.1226 -0.2082 -0.4169
 5664TIP3    H116956   2.424   3.215   0.809  1.5720 -0.6813 -0.7244
 5664TIP3    H216957   2.315   3.123   0.860 -0.2788  0.8763 -1.7414
 5665TIP3   OH216958   2.873   4.294   4.672  0.3431 -0.8050  0.0426
 5665TIP3    H116959   2.907   4.305   4.583 -2.5098  0.0537 -1.0335
 5665TIP3    H216960   2.907   4.370   4.720 -1.4124  1.0468 -1.4906
 5666TIP3   OH216961   3.529   6.530   5.439 -0.2722  0.3399  0.5835
 5666TIP3    H116962   3.479   6.562   5.363 -0.1460 -0.6577  0.0630
 5666TIP3    H216963   3.528   6.435   5.429  0.5930  0.2477  1.3074
 5667TIP3   OH216964   5.786   5.541   2.100 -0.0715  0.1315 -0.0908
 5667TIP3    H116965   5.819   5.551   2.011 -0.6577  1.0988 -0.2180
 5667TIP3    H216966   5.708   5.486   2.091  1.5799 -2.4467  0.2514
 5668TIP3   OH216967   2.719   5.725   4.496 -0.0631 -0.1800  0.2335
 5668TIP3    H116968   2.642   5.770   4.533  0.5433  0.3661  0.8576
 5668TIP3    H216969   2.683   5.671   4.426 -0.9116  0.6916 -0.0277
 5669TIP3   OH216970   1.580   0.590   3.856  0.9904 -0.1823  0.1023
 5669TIP3    H116971   1.618   0.525   3.796 -0.1092  1.2036 -2.2454
 5669TIP3    H216972   1.487   0.568   3.858  1.0921 -0.5711  1.8626
 5670TIP3   OH216973   4.464   0.153   0.875  0.0334  0.2907 -0.0296
 5670TIP3    H116974   4.534   0.091   0.899 -1.4545 -1.1990  0.7097
 5670TIP3    H216975   4.481   0.231   0.928  0.4500 -0.5325  1.0871
 5671TIP3   OH216976   1.111   4.230   0.400  0.0320 -0.2227  0.2389
 5671TIP3    H116977   1.120   4.205   0.308  0.5364  2.6142 -0.6077
 5671TIP3    H216978   1.020   4.259   0.408  0.3024  0.6772  0.2518
 5672TIP3   OH216979   3.674   0.328   3.928 -0.7233 -0.1028 -0.5065
 5672TIP3    H116980   3.740   0.347   3.993  0.2812 -2.6893 -0.6381
 5672TIP3    H216981   3.665   0.408   3.877  0.0590  1.2524  1.4074
 5673TIP3   OH216982   2.441   4.535   1.510  0.3206  0.3711  0.6649
 5673TIP3    H116983   2.407   4.596   1.575 -0.4773  1.7760 -0.9903
 5673TIP3    H216984   2.394   4.556   1.429  3.7687  1.2827 -1.3624
 5674TIP3   OH216985   3.049   5.975   2.242  0.1719 -0.1503  0.4585
 5674TIP3    H116986   3.062   6.017   2.157  0.4064  0.7563  0.9256
 5674TIP3    H216987   3.078   5.885   2.229  1.6334  0.3613 -0.0442
 5675TIP3   OH216988   0.289   0.744   1.104 -0.1975 -0.8045 -0.7461
 5675TIP3    H116989   0.314   0.816   1.162  0.1703 -1.7961  0.3684
 5675TIP3    H216990   0.193   0.742   1.108 -0.2932  0.3994 -1.7873
 5676TIP3   OH216991   7.201   6.625   0.322  0.5502 -0.3461 -0.1336
 5676TIP3    H116992   7.147   6.635   0.243 -1.0337  0.7091  1.0219
 5676TIP3    H216993   7.209   6.713   0.357  1.2693 -0.7879  0.8531
 5677TIP3   OH216994   5.537   5.249   3.630 -0.2877 -0.6978 -0.1361
 5677TIP3    H116995   5.500   5.247   3.542  1.0724 -1.3573 -0.7111
 5677TIP3    H216996   5.567   5.340   3.641 -1.0694 -0.4366 -0.0691
 5678TIP3   OH216997   5.921   6.175   5.658 -0.4884 -0.4271 -0.3070
 5678TIP3    H116998   5.898   6.267   5.671  2.1694  0.2501  0.1138
 5678TIP3    H216999   5.959   6.171   5.571 -0.5147 -1.1248 -0.2936
 5679TIP3   OH217000   6.960   3.270   0.508  0.6109  0.1638  0.1521
 5679TIP3    H117001   7.001   3.286   0.423 -3.7310 -1.7565 -2.6481
 5679TIP3    H217002   6.904   3.347   0.522 -0.5141 -0.5955 -0.0296
 5680TIP3   OH217003   3.391   6.159   0.358 -0.1116  0.5741  0.0253
 5680TIP3    H117004   3.414   6.241   0.313  0.2380  1.0045  0.9708
 5680TIP3    H217005   3.298   6.147   0.338 -0.2378  1.3524  0.1079
 5681TIP3   OH217006   3.998   3.723   0.240 -0.0768  0.0750  0.6453
 5681TIP3    H117007   3.984   3.704   0.333  3.9412  3.5920  2.2969
 5681TIP3    H217008   4.063   3.659   0.212  0.9216  0.8249  1.2018
 5682TIP3   OH217009   5.121   5.647   4.054  0.2462 -0.4188  0.5290
 5682TIP3    H117010   5.147   5.558   4.030 -1.0590 -0.5582 -0.4678
 5682TIP3    H217011   5.031   5.637   4.086  1.0306  0.1542  3.1413
 5683TIP3   OH217012   2.781   0.910   0.632 -0.1933 -0.6784  0.6654
 5683TIP3    H117013   2.817   0.868   0.710 -0.8070 -0.0891  1.2669
 5683TIP3    H217014   2.804   1.002   0.640 -0.8236 -0.4960  0.4800
 5684TIP3   OH217015   0.202   2.607   2.273 -0.5714 -0.1135  0.0279
 5684TIP3    H117016   0.246   2.637   2.193 -0.0909  0.3971  0.4718
 5684TIP3    H217017   0.246   2.655   2.343 -1.0085 -0.5377  0.5963
 5685TIP3   OH217018   5.984   5.111   2.867 -0.2049  0.2939 -0.1859
 5685TIP3    H117019   6.062   5.124   2.920  1.1939  1.1537 -2.2965
 5685TIP3    H217020   5.911   5.135   2.924  1.2323  1.6351  1.1832
 5686TIP3   OH217021   4.516   4.889   2.962  0.1491  0.3010 -0.2349
 5686TIP3    H117022   4.603   4.862   2.932 -0.3041 -0.0226 -1.3015
 5686TIP3    H217023   4.457   4.865   2.890 -0.5398  2.5325 -0.4968
 5687TIP3   OH217024   5.211   1.783   5.208  0.1864 -0.1474  0.6352
 5687TIP3    H117025   5.226   1.875   5.185 -0.3537 -0.0471  0.6641
 5687TIP3    H217026   5.179   1.743   5.127 -0.3932 -0.1124  0.8439
 5688TIP3   OH217027   1.341   1.929   3.540 -0.0429 -0.2171 -0.4366
 5688TIP3    H117028   1.377   1.933   3.452  1.2050 -1.8333 -0.0357
 5688TIP3    H217029   1.416   1.943   3.598 -0.9917  1.8254  0.4243
 5689TIP3   OH217030   5.202   2.713   3.963  0.2601 -0.1956 -0.3592
 5689TIP3    H117031   5.125   2.725   4.019  0.2467 -1.2691 -0.1248
 5689TIP3    H217032   5.169   2.723   3.874  0.0599  0.4037 -0.2212
 5690TIP3   OH217033   0.650   3.670   4.894 -0.6787  0.3021  0.0745
 5690TIP3    H117034   0.642   3.736   4.963  0.0314 -1.2083  1.6809
 5690TIP3    H217035   0.703   3.600   4.933  0.3639 -0.3126 -2.2648
 5691TIP3   OH217036   5.854   4.192   4.225  0.2539 -0.3543  0.5366
 5691TIP3    H117037   5.946   4.189   4.252  0.5510  0.0868 -0.4045
 5691TIP3    H217038   5.857   4.195   4.130 -0.7557 -0.7772  0.4815
 5692TIP3   OH217039   5.572   1.850   0.675 -0.6649 -0.0612 -0.1184
 5692TIP3    H117040   5.575   1.925   0.615  1.5396  0.0565  0.0556
 5692TIP3    H217041   5.483   1.816   0.666 -1.6700  2.4068 -0.3825
 5693TIP3   OH217042   4.469   0.671   2.490 -0.4396  0.2805  0.0837
 5693TIP3    H117043   4.440   0.697   2.577  1.1007  1.3145  0.3171
 5693TIP3    H217044   4.564   0.669   2.495 -0.3539 -0.8842 -1.2448
 5694TIP3   OH217045   2.615   6.629   1.197  0.1885 -1.4753 -0.0461
 5694TIP3    H117046   2.656   6.714   1.205 -1.3925 -0.7753  1.2501
 5694TIP3    H217047   2.687   6.566   1.202  1.1852 -0.2864  1.0997
 5695TIP3   OH217048   3.565   1.914   5.460 -0.0093  0.0064 -0.4274
 5695TIP3    H117049   3.656   1.910   5.489  0.5600 -1.7042 -2.2178
 5695TIP3    H217050   3.566   1.972   5.384 -0.6087  0.7080  0.0819
 5696TIP3   OH217051   2.116   1.823   0.366  0.1475 -0.1894  0.2573
 5696TIP3    H117052   2.033   1.868   0.349  0.0736 -0.3639  0.1440
 5696TIP3    H217053   2.177   1.860   0.303  0.0082 -0.4606 -0.0445
 5697TIP3   OH217054   1.260   6.581   2.138  0.0008  0.1258 -0.2630
 5697TIP3    H117055   1.304   6.496   2.125 -1.4424 -0.4587 -1.6560
 5697TIP3    H217056   1.182   6.575   2.084  0.2379  2.6441 -0.9723
 5698TIP3   OH217057   6.511   4.584   1.244 -0.6356 -0.2951 -0.1944
 5698TIP3    H117058   6.430   4.542   1.216 -1.0013  1.2146 -1.5135
 5698TIP3    H217059   6.545   4.627   1.166  2.9195 -3.0310 -0.4118
 5699TIP3   OH217060   5.031   4.006   5.865 -0.3094 -0.3221 -0.3139
 5699TIP3    H117061   4.940   4.034   5.854 -0.6284 -1.3347 -0.3378
 5699TIP3    H217062   5.031   3.913   5.840  0.8050 -0.2370 -0.6709
 5700TIP3   OH217063   0.151   2.424   0.927  0.3592 -0.2793 -0.4860
 5700TIP3    H117064   0.147   2.465   1.013  2.5599 -0.3046 -0.3379
 5700TIP3    H217065   0.123   2.493   0.866 -0.3635 -0.0019  0.1337
 5701TIP3   OH217066   1.872   5.457   1.182 -0.0773 -0.0322  0.2703
 5701TIP3    H117067   1.817   5.512   1.125  0.0529  1.9150  1.9134
 5701TIP3    H217068   1.882   5.375   1.133 -3.8882 -0.2682 -0.4143
 5702TIP3   OH217069   2.248   5.724   3.147 -0.2189 -0.1098  0.7500
 5702TIP3    H117070   2.207   5.726   3.233  0.4897 -1.1155  1.1260
 5702TIP3    H217071   2.206   5.652   3.101 -0.6837  0.5013  0.1904
 5703TIP3   OH217072   1.959   3.271   3.874 -0.1365  0.0761  0.0544
 5703TIP3    H117073   2.038   3.219   3.861  0.5413  0.5946  1.8809
 5703TIP3    H217074   1.968   3.345   3.814  0.8415  0.2004  0.3368
 5704TIP3   OH217075   6.972   5.864   4.457 -0.2111 -0.0252  0.0918
 5704TIP3    H117076   6.887   5.909   4.456  0.7029  1.8453  1.6289
 5704TIP3    H217077   6.949   5.771   4.461 -2.1607  0.2926 -1.6987
 5705TIP3   OH217078   3.560   0.014   4.195 -0.1795  0.2138 -0.0774
 5705TIP3    H117079   3.540   0.106   4.208  0.4881  0.4967 -0.9838
 5705TIP3    H217080   3.517  -0.008   4.112  0.9155  0.1101 -0.6339
 5706TIP3   OH217081   4.996   0.496   5.632 -0.5915 -0.5457  0.6765
 5706TIP3    H117082   5.021   0.503   5.724 -1.7302  2.2118  0.8797
 5706TIP3    H217083   5.063   0.545   5.584 -1.4685  0.4132  0.3887
 5707TIP3   OH217084   3.292   1.341   3.116 -0.0065 -0.3480 -0.1628
 5707TIP3    H117085   3.253   1.265   3.072 -0.3828 -0.5444  0.5110
 5707TIP3    H217086   3.361   1.369   3.056  2.2909 -3.1208  0.9491
 5708TIP3   OH217087   5.636   5.609   5.106  0.3405 -0.3487  0.5331
 5708TIP3    H117088   5.601   5.698   5.100  1.5905  0.1381 -0.0406
 5708TIP3    H217089   5.570   5.560   5.153 -0.1600  1.0062  1.3016
 5709TIP3   OH217090   4.887   6.318   1.065  0.1952  0.3085  0.4665
 5709TIP3    H117091   4.969   6.366   1.052  1.3608 -0.6831  3.4227
 5709TIP3    H217092   4.906   6.230   1.034  1.1720 -0.5852  3.3362
 5710TIP3   OH217093   3.558   0.512   5.252 -0.0596  0.3382 -0.0312
 5710TIP3    H117094   3.559   0.563   5.171 -0.2935  1.2623  0.5390
 5710TIP3    H217095   3.571   0.576   5.322  1.3681 -0.5753  0.6118
 5711TIP3   OH217096   4.860   5.970   3.418 -0.0566  0.1696  0.4284
 5711TIP3    H117097   4.922   5.908   3.381 -0.3047  0.2563 -0.1337
 5711TIP3    H217098   4.894   6.056   3.393  0.5611  0.2943  1.6277
 5712TIP3   OH217099   2.924   0.909   4.787  0.9214 -0.0709 -0.3642
 5712TIP3    H117100   2.913   0.951   4.872  0.3441  1.1323 -1.0040
 5712TIP3    H217101   2.937   0.982   4.726  2.5539 -0.9669 -1.1405
 5713TIP3   OH217102   6.820   4.430   4.782 -0.0794  0.2632 -0.4231
 5713TIP3    H117103   6.751   4.371   4.751  0.3519 -0.0840 -0.7369
 5713TIP3    H217104   6.791   4.517   4.757 -2.1558  0.5702  2.5807
 5714TIP3   OH217105   2.596   5.832   2.039 -0.4247  0.0754 -0.0722
 5714TIP3    H117106   2.510   5.791   2.037 -0.4259  0.0809 -0.1266
 5714TIP3    H217107   2.651   5.770   2.087  0.0849 -0.9621 -1.8935
 5715TIP3   OH217108   2.575   6.807   5.025  0.3133  0.4503 -1.1340
 5715TIP3    H117109   2.653   6.771   4.982  1.0354  0.6686 -0.0357
 5715TIP3    H217110   2.604   6.828   5.113 -1.5156 -1.3479 -0.0335
 5716TIP3   OH217111   0.199   3.664   3.451 -0.8314  0.0900 -0.0268
 5716TIP3    H117112   0.223   3.586   3.400 -1.9048  0.8228 -1.7488
 5716TIP3    H217113   0.190   3.632   3.541 -0.1852 -1.5464 -0.5120
 5717TIP3   OH217114   4.741   2.771   0.060 -0.1503  0.0016 -0.5835
 5717TIP3    H117115   4.722   2.863   0.039 -0.1085 -0.1870 -1.4701
 5717TIP3    H217116   4.795   2.741  -0.012 -0.1815 -0.7339 -0.3047
 5718TIP3   OH217117   3.272   4.720   0.655  0.4991 -0.1362 -0.3870
 5718TIP3    H117118   3.356   4.677   0.638  0.3297 -0.2894 -0.8424
 5718TIP3    H217119   3.284   4.810   0.624  0.4375 -0.2036 -0.6018
 5719TIP3   OH217120   2.766   2.300   1.044 -0.3610 -0.1287  0.1481
 5719TIP3    H117121   2.811   2.233   0.992  0.4615  1.5080 -1.3280
 5719TIP3    H217122   2.829   2.324   1.112  0.4825  1.0839 -1.0092
 5720TIP3   OH217123   6.312   6.256   2.399 -0.6850 -0.2950  0.3552
 5720TIP3    H117124   6.387   6.219   2.351 -0.2818 -1.4191  1.7760
 5720TIP3    H217125   6.237   6.205   2.368 -0.2542 -1.8131  1.6824
 5721TIP3   OH217126   4.089   4.478   3.192 -0.1714 -0.3297 -0.1856
 5721TIP3    H117127   4.128   4.562   3.216 -0.5924 -0.2806  0.3512
 5721TIP3    H217128   4.004   4.477   3.236  0.6385 -1.8740  1.5018
 5722TIP3   OH217129   6.928   5.413   5.128 -0.5933 -0.2162  0.8448
 5722TIP3    H117130   6.895   5.458   5.206 -1.5351 -0.4415  0.5901
 5722TIP3    H217131   6.864   5.433   5.060 -1.1576 -2.1057  0.7707
 5723TIP3   OH217132   3.334   3.854   1.122  0.4524  0.7269  0.5319
 5723TIP3    H117133   3.424   3.822   1.130  0.4555  0.7763  0.6935
 5723TIP3    H217134   3.310   3.836   1.031  0.8377  1.2705  0.3191
 5724TIP3   OH217135   0.051   1.195   2.868  0.0692 -0.1833  0.2759
 5724TIP3    H117136   0.128   1.183   2.924  0.2909 -1.2599 -0.2509
 5724TIP3    H217137   0.058   1.127   2.801 -1.3388 -0.3031  0.2128
 5725TIP3   OH217138   3.575   6.410   4.809  0.2465  0.5160 -0.4656
 5725TIP3    H117139   3.603   6.321   4.830 -0.1527  0.7384  1.0944
 5725TIP3    H217140   3.655   6.453   4.778  0.6621 -0.0934 -0.2624
 5726TIP3   OH217141   4.232   4.491   1.238 -0.2434 -0.1114  0.0205
 5726TIP3    H117142   4.262   4.486   1.329 -0.8507 -0.0534  0.2286
 5726TIP3    H217143   4.297   4.546   1.194  1.2942 -1.9270 -0.1107
 5727TIP3   OH217144   0.224   6.169   3.284  0.4264  0.2549  0.3698
 5727TIP3    H117145   0.238   6.147   3.192 -0.7019  0.7119  0.0801
 5727TIP3    H217146   0.297   6.227   3.307  1.5087 -0.9791  0.1834
 5728TIP3   OH217147   2.326   4.261   1.070 -0.1381 -0.5190 -0.2935
 5728TIP3    H117148   2.289   4.252   1.158  0.1631  1.5969  0.1001
 5728TIP3    H217149   2.271   4.205   1.015  0.4703 -2.9329  1.4040
 5729TIP3   OH217150   5.832   2.935   0.382 -0.1070 -0.1563 -0.1162
 5729TIP3    H117151   5.908   2.882   0.355 -0.1667 -0.3575  0.1001
 5729TIP3    H217152   5.761   2.905   0.326  0.4045  1.3967 -1.6925
 5730TIP3   OH217153   1.161   5.238   3.373 -0.0973  0.7393 -0.0963
 5730TIP3    H117154   1.103   5.162   3.365  0.4407  0.3815 -0.7260
 5730TIP3    H217155   1.195   5.251   3.284  0.0369  1.5434  0.0645
 5731TIP3   OH217156   5.137   4.158   3.430  0.2086  0.0169  0.5768
 5731TIP3    H117157   5.139   4.099   3.506 -1.3255 -0.5758  0.1988
 5731TIP3    H217158   5.214   4.214   3.441  0.4882 -0.6158  2.1127
 5732TIP3   OH217159   6.831   1.558   0.836  0.1598  0.4266  0.4021
 5732TIP3    H117160   6.815   1.498   0.908 -0.3131  0.3385  0.2271
 5732TIP3    H217161   6.913   1.602   0.859  1.4127 -1.4322 -0.2339
 5733TIP3   OH217162   4.358   4.060   4.966  0.3366 -0.0869  0.4119
 5733TIP3    H117163   4.359   4.113   4.887 -0.6942  0.4750  0.7603
 5733TIP3    H217164   4.351   3.969   4.935  1.5562 -0.0039 -0.1666
 5734TIP3   OH217165   2.469   4.333   0.304 -0.6709 -0.0764  0.6839
 5734TIP3    H117166   2.471   4.420   0.264 -0.0141 -0.5564 -0.3487
 5734TIP3    H217167   2.407   4.283   0.252  0.1593 -0.6933  0.2575
 5735TIP3   OH217168   4.044   0.916   2.354  0.4150  0.9000 -0.0584
 5735TIP3    H117169   4.126   0.874   2.328  0.4829  2.3264 -2.4158
 5735TIP3    H217170   3.978   0.880   2.294 -0.3242  1.1188  0.6050
 5736TIP3   OH217171   3.392   5.084   5.297  0.3409  0.0061 -0.0740
 5736TIP3    H117172   3.414   5.003   5.342 -1.5191 -0.3698  0.2442
 5736TIP3    H217173   3.378   5.058   5.206  1.6946  0.3448 -0.4020
 5737TIP3   OH217174   6.732   3.660   1.615 -0.3975  0.4568  0.7507
 5737TIP3    H117175   6.764   3.676   1.526 -0.4825  0.4247  0.7138
 5737TIP3    H217176   6.809   3.630   1.663 -0.6224 -0.8444  0.3409
 5738TIP3   OH217177   2.445   2.292   5.318  0.0492  0.5061  0.0296
 5738TIP3    H117178   2.354   2.267   5.335  0.6303 -0.5025  1.8782
 5738TIP3    H217179   2.480   2.219   5.266 -0.2307  1.0183 -0.9125
 5739TIP3   OH217180   7.189   4.269   5.354  0.6419  0.6938 -0.1237
 5739TIP3    H117181   7.145   4.285   5.438 -0.3209  1.4930 -0.7621
 5739TIP3    H217182   7.281   4.255   5.378  0.2949  0.3396  1.1138
 5740TIP3   OH217183   4.167   1.395   4.824  0.1415 -0.0257 -0.0914
 5740TIP3    H117184   4.199   1.422   4.910 -1.2895 -0.8800  0.7502
 5740TIP3    H217185   4.206   1.458   4.763  2.2960 -0.2291  0.9922
 5741TIP3   OH217186   5.364   0.404   4.139  0.7572 -0.2773  0.2268
 5741TIP3    H117187   5.403   0.439   4.220  1.7283 -0.5872 -0.0980
 5741TIP3    H217188   5.381   0.310   4.143 -2.0178 -0.8391  1.1967
 5742TIP3   OH217189   3.438   6.102   1.100 -0.1781 -0.3684 -0.5735
 5742TIP3    H117190   3.355   6.097   1.053  0.5557 -2.1008 -1.7716
 5742TIP3    H217191   3.445   6.195   1.124 -2.9422 -0.3422  0.5703
 5743TIP3   OH217192   6.558   1.106   0.613  0.0227 -0.0774  0.0947
 5743TIP3    H117193   6.617   1.175   0.584 -0.0081 -0.0275  0.1491
 5743TIP3    H217194   6.534   1.132   0.702  0.2078 -0.2890  0.2074
 5744TIP3   OH217195   0.189   6.562   0.664  0.3538  0.2973 -0.0987
 5744TIP3    H117196   0.180   6.487   0.723 -1.1090  0.3276 -0.2494
 5744TIP3    H217197   0.104   6.605   0.667  1.2393  2.1246  0.1995
 5745TIP3   OH217198   3.880   5.548   5.495 -0.1740 -0.1414 -0.1193
 5745TIP3    H117199   3.900   5.593   5.413  0.2148 -0.0173  0.0409
 5745TIP3    H217200   3.898   5.614   5.563 -2.3650  0.4312 -0.0098
 5746TIP3   OH217201   1.794   5.599   5.550  0.5087 -0.1573  0.0790
 5746TIP3    H117202   1.783   5.553   5.633 -0.6963  0.9009  0.5428
 5746TIP3    H217203   1.779   5.533   5.483 -0.3643 -0.6179  0.7170
 5747TIP3   OH217204   6.060   5.804   5.539  0.1887  0.0028 -0.6716
 5747TIP3    H117205   6.085   5.822   5.448  1.7875  0.1609 -0.2210
 5747TIP3    H217206   6.054   5.709   5.544  1.2185 -0.0722 -0.6758
 5748TIP3   OH217207   4.463   1.509   3.560 -0.4291  0.4131  0.0301
 5748TIP3    H117208   4.475   1.592   3.606 -1.7131  0.0030  1.1804
 5748TIP3    H217209   4.552   1.478   3.543  0.0677  1.5037  0.5415
 5749TIP3   OH217210   3.419   6.391   1.201 -0.4301  0.1433 -0.0557
 5749TIP3    H117211   3.431   6.436   1.284  2.0024 -0.8666  0.2370
 5749TIP3    H217212   3.467   6.444   1.137  0.4893 -0.7638 -0.1472
 5750TIP3   OH217213   5.600   0.440   2.620 -0.0479 -0.5140 -0.5294
 5750TIP3    H117214   5.620   0.402   2.706 -1.3167 -0.1371 -0.0363
 5750TIP3    H217215   5.657   0.394   2.559  0.5834 -1.0838  0.4617
 5751TIP3   OH217216   0.904   5.057   5.127  0.0400 -0.1296  0.0728
 5751TIP3    H117217   0.858   4.999   5.067 -0.3170  0.3912 -0.1674
 5751TIP3    H217218   0.839   5.123   5.152  0.4737  0.2559  0.2138
 5752TIP3   OH217219   2.165   5.229   5.293 -0.2426  0.6308  0.2351
 5752TIP3    H117220   2.159   5.240   5.198  0.4748 -0.8311 -0.0213
 5752TIP3    H217221   2.247   5.272   5.317 -0.1728  0.5718  0.1032
 5753TIP3   OH217222   1.288   6.611   5.115 -0.2640  0.6558  0.0482
 5753TIP3    H117223   1.294   6.701   5.148 -2.3560  0.5566  0.9007
 5753TIP3    H217224   1.196   6.602   5.088  0.5249 -0.4344 -2.5064
 5754TIP3   OH217225   5.069   1.771   2.326 -0.0874  0.1185  0.0250
 5754TIP3    H117226   5.050   1.820   2.406 -0.5272  1.6549 -0.9724
 5754TIP3    H217227   4.984   1.738   2.298 -0.1691  0.7664 -0.5248
 5755TIP3   OH217228   4.014   3.962   2.962 -0.1702 -0.3678  0.1176
 5755TIP3    H117229   4.064   3.989   2.885  0.0846 -0.9657  0.0654
 5755TIP3    H217230   3.935   3.923   2.926  0.1473 -1.0464  0.1339
 5756TIP3   OH217231   4.149   0.676   1.873 -0.0980 -0.1799 -0.0611
 5756TIP3    H117232   4.101   0.652   1.794 -2.0395 -2.6075  1.6934
 5756TIP3    H217233   4.093   0.742   1.915 -0.0198 -0.2840  0.2068
 5757TIP3   OH217234   3.583   4.973   2.342  0.2497  0.2237 -0.1028
 5757TIP3    H117235   3.531   4.938   2.414 -1.1609  1.8441 -0.2681
 5757TIP3    H217236   3.523   4.973   2.267  2.0471 -2.6059 -1.7024
 5758TIP3   OH217237   6.048   1.695   1.868  0.0158  0.3154  0.1385
 5758TIP3    H117238   6.074   1.614   1.824  1.1413  0.6837  0.0840
 5758TIP3    H217239   6.087   1.688   1.956 -0.1314  0.6611  0.2332
 5759TIP3   OH217240   3.143   2.626   3.534  0.2306  0.2937  0.0441
 5759TIP3    H117241   3.089   2.630   3.612 -0.6997 -2.0998 -0.3854
 5759TIP3    H217242   3.111   2.698   3.479 -1.8005 -0.3793  0.2608
 5760TIP3   OH217243   5.615   0.772   0.884 -0.5508 -0.2726 -0.1930
 5760TIP3    H117244   5.588   0.748   0.795  0.3928 -0.9043 -0.3268
 5760TIP3    H217245   5.693   0.720   0.900  0.3029  1.1115  0.3597
 5761TIP3   OH217246   5.185   2.928   3.631 -0.2716 -0.0406 -0.3469
 5761TIP3    H117247   5.187   2.974   3.548 -2.1183 -1.4362 -1.2405
 5761TIP3    H217248   5.273   2.941   3.668  0.3687  1.1764 -2.1626
 5762TIP3   OH217249   3.736  -0.035   0.779  0.5964  0.5861 -0.5303
 5762TIP3    H117250   3.653  -0.016   0.737  0.5594  0.0050 -0.7247
 5762TIP3    H217251   3.779   0.051   0.787  0.5918  0.7041 -1.7176
 5763TIP3   OH217252   6.075   2.755   3.883  0.2225 -0.0103  0.2556
 5763TIP3    H117253   6.005   2.819   3.870  1.4585  1.3946  0.2445
 5763TIP3    H217254   6.092   2.719   3.796 -1.4490 -1.4981  0.4676
 5764TIP3   OH217255   4.966   2.631   3.295 -0.1831  0.6099  0.0216
 5764TIP3    H117256   4.935   2.653   3.382 -3.4754 -2.2456 -0.1817
 5764TIP3    H217257   4.907   2.679   3.236 -0.9070 -0.8217 -0.4787
 5765TIP3   OH217258   2.551   6.042   0.215 -0.1199  0.5287  0.3104
 5765TIP3    H117259   2.535   6.029   0.121  0.5220  0.8019  0.1529
 5765TIP3    H217260   2.508   5.969   0.258 -1.2433  0.9200 -0.1232
 5766TIP3   OH217261   6.176   3.583   1.231  0.1457 -0.6263  0.0276
 5766TIP3    H117262   6.259   3.535   1.226  0.1899 -0.7513  1.4773
 5766TIP3    H217263   6.143   3.582   1.141  1.5921 -0.7725 -0.5380
 5767TIP3   OH217264   4.649   2.871   2.472 -0.0255 -0.1629 -0.4156
 5767TIP3    H117265   4.714   2.904   2.409  0.0602 -1.2028 -0.8793
 5767TIP3    H217266   4.676   2.911   2.555  1.0252 -0.3088 -0.6625
 5768TIP3   OH217267   3.309   3.531   1.386  0.4320 -0.1701  0.2381
 5768TIP3    H117268   3.218   3.559   1.379  0.3209 -0.8041 -1.0753
 5768TIP3    H217269   3.306   3.436   1.371  1.3225 -0.1836  0.0952
 5769TIP3   OH217270   2.291   0.030   3.653  0.2954 -0.8485 -0.1520
 5769TIP3    H117271   2.265  -0.033   3.720  0.6788 -0.4132  0.4253
 5769TIP3    H217272   2.375   0.064   3.685 -0.9213  1.5975  0.7422
 5770TIP3   OH217273   6.110   6.401   1.048 -0.3879 -0.0835  0.1430
 5770TIP3    H117274   6.079   6.315   1.074 -0.3078  0.1339  0.9975
 5770TIP3    H217275   6.047   6.462   1.086  1.1182  0.3671  2.0556
 5771TIP3   OH217276   5.104   4.111   4.968 -0.3360  1.0076 -0.3936
 5771TIP3    H117277   5.078   4.088   4.879  0.3046 -0.7179 -0.1868
 5771TIP3    H217278   5.149   4.194   4.960  0.5533  0.4280 -1.8400
 5772TIP3   OH217279   3.083   6.374   4.639  0.3057  0.1049 -0.4924
 5772TIP3    H117280   3.056   6.295   4.594 -2.9384  0.1223  1.1280
 5772TIP3    H217281   3.140   6.343   4.710 -0.7286 -0.7756 -0.0239
 5773TIP3   OH217282   3.358   4.492   3.507 -0.3530 -0.7168 -0.5736
 5773TIP3    H117283   3.417   4.546   3.455  0.2384 -1.6362 -0.8798
 5773TIP3    H217284   3.407   4.471   3.586 -1.4041  1.0390  0.6095
 5774TIP3   OH217285   6.111   6.747   5.255 -0.1324  0.4130 -0.4216
 5774TIP3    H117286   6.191   6.788   5.289  1.1681  0.2925 -3.0363
 5774TIP3    H217287   6.093   6.675   5.315  0.9101  1.2858  0.9988
 5775TIP3   OH217288   6.564   6.253   3.959 -0.0216  0.3154  0.1000
 5775TIP3    H117289   6.628   6.317   3.989 -0.1318  1.1226 -1.2937
 5775TIP3    H217290   6.578   6.177   4.015  0.6760  1.2568  1.2428
 5776TIP3   OH217291   4.528   1.022   1.428  0.2575  0.1731 -0.3828
 5776TIP3    H117292   4.505   1.078   1.502  0.8669  0.2899 -0.2755
 5776TIP3    H217293   4.503   0.934   1.456  1.0888  0.1210  0.2395
 5777TIP3   OH217294   1.310   1.331   0.521 -0.3037  0.6250  0.0136
 5777TIP3    H117295   1.215   1.346   0.527 -0.2786  0.8259 -0.0597
 5777TIP3    H217296   1.334   1.371   0.437 -0.0542  1.1234  0.3157
 5778TIP3   OH217297   0.682   1.431   1.589 -0.5225  0.6016  0.5026
 5778TIP3    H117298   0.703   1.343   1.620  0.2985  0.3507 -0.6936
 5778TIP3    H217299   0.669   1.421   1.495 -0.4907  1.7435  0.3600
 5779TIP3   OH217300   1.740   3.803   1.887 -0.9767  0.0873  0.3748
 5779TIP3    H117301   1.652   3.770   1.907 -0.9836 -0.4125 -0.4234
 5779TIP3    H217302   1.750   3.789   1.793 -0.1588  0.4372  0.3997
 5780TIP3   OH217303   3.960   3.884   0.752 -0.2406 -0.3529  0.3083
 5780TIP3    H117304   3.868   3.864   0.733 -0.0459  0.2546 -1.3955
 5780TIP3    H217305   3.957   3.928   0.837 -1.6036  0.1786  0.0218
 5781TIP3   OH217306   6.598   4.559   5.759  0.3296 -0.2935  0.0748
 5781TIP3    H117307   6.628   4.481   5.805 -0.7612 -0.2532  0.9133
 5781TIP3    H217308   6.504   4.563   5.778 -0.2525 -0.4851 -2.5122
 5782TIP3   OH217309   4.893   5.943   2.094  0.1993 -0.2643 -0.3184
 5782TIP3    H117310   4.980   5.979   2.075  0.5835 -1.2726 -0.5394
 5782TIP3    H217311   4.883   5.871   2.031 -1.2701  0.5465 -1.0574
 5783TIP3   OH217312   3.231   2.170   3.428 -0.4424  0.3603 -0.3972
 5783TIP3    H117313   3.174   2.247   3.420 -1.1998 -0.2942 -1.5213
 5783TIP3    H217314   3.191   2.119   3.499  0.9170  1.6614  1.4226
 5784TIP3   OH217315   6.235   6.682   3.111 -0.1936  0.2338 -0.1691
 5784TIP3    H117316   6.263   6.591   3.104  0.3754  0.4961 -1.6595
 5784TIP3    H217317   6.143   6.681   3.086  0.4396  0.3728 -2.7613
 5785TIP3   OH217318   2.685   3.728   0.033  0.9093 -0.2659 -0.3904
 5785TIP3    H117319   2.604   3.677   0.032 -0.2419  1.4483 -0.5975
 5785TIP3    H217320   2.696   3.757  -0.058  0.5364  1.2617  0.0177
 5786TIP3   OH217321   3.783   4.721   0.703  0.3513 -0.6878 -0.0984
 5786TIP3    H117322   3.876   4.742   0.692  0.2849  1.3850  2.3161
 5786TIP3    H217323   3.779   4.626   0.694  2.0012 -0.5798 -4.0949
 5787TIP3   OH217324   6.221   6.448   5.655  0.1797  0.0136  0.3378
 5787TIP3    H117325   6.313   6.445   5.680  0.4950  2.0627 -0.3679
 5787TIP3    H217326   6.178   6.492   5.728  0.2899  1.6380 -0.5253
 5788TIP3   OH217327   0.769   3.854   3.210 -0.5118 -0.0672  0.5218
 5788TIP3    H117328   0.743   3.888   3.295  1.2268 -0.1883  1.1390
 5788TIP3    H217329   0.786   3.761   3.225  0.3366  0.0255  0.1828
 5789TIP3   OH217330   1.755   6.666   4.218 -0.4462  0.5033 -0.5353
 5789TIP3    H117331   1.830   6.615   4.249 -1.1843 -0.8449 -0.9323
 5789TIP3    H217332   1.778   6.757   4.240 -0.1081 -0.1766  2.2371
 5790TIP3   OH217333   6.685   1.411   5.414  0.6217  0.5222 -0.5339
 5790TIP3    H117334   6.631   1.422   5.336 -0.2713 -1.5565 -0.2748
 5790TIP3    H217335   6.629   1.440   5.486 -0.0180 -1.1222 -0.3222
 5791TIP3   OH217336   5.773   5.797   0.469  0.0578  0.4752  0.0707
 5791TIP3    H117337   5.847   5.797   0.531  0.0088 -0.3022  0.1401
 5791TIP3    H217338   5.770   5.707   0.435 -0.0366  0.8470 -0.9259
 5792TIP3   OH217339   4.337   4.027   0.706 -0.7149  0.0877  0.6742
 5792TIP3    H117340   4.324   4.101   0.647  1.2867 -1.3514 -1.7315
 5792TIP3    H217341   4.387   4.064   0.780 -0.0533  1.2293 -0.3054
 5793TIP3   OH217342   0.533   0.126   5.553  0.3727 -0.1751 -0.3838
 5793TIP3    H117343   0.449   0.084   5.568  0.3870  0.3687  1.4670
 5793TIP3    H217344   0.542   0.130   5.458 -1.8254  0.0367 -0.6172
 5794TIP3   OH217345   6.852   5.286   3.917 -0.3935  0.4654  0.1763
 5794TIP3    H117346   6.888   5.360   3.867 -1.7139  0.9803 -0.0834
 5794TIP3    H217347   6.902   5.210   3.887 -1.1759  0.7375 -2.0415
 5795TIP3   OH217348   2.621   3.777   3.492 -0.4596  0.2503  0.2559
 5795TIP3    H117349   2.673   3.748   3.417  1.2242  0.6760  1.2129
 5795TIP3    H217350   2.547   3.716   3.494  0.4289 -0.9216 -0.6523
 5796TIP3   OH217351   0.530   4.575   5.041 -0.4931 -0.1526  0.1376
 5796TIP3    H117352   0.516   4.587   4.947 -0.6504  0.3395  0.2216
 5796TIP3    H217353   0.623   4.553   5.049 -0.0566  1.4933  0.0079
 5797TIP3   OH217354   4.452   5.317   0.249  0.0169 -0.1329 -0.1618
 5797TIP3    H117355   4.417   5.280   0.168 -1.4626  1.7309 -0.4402
 5797TIP3    H217356   4.419   5.259   0.317 -0.5262 -0.5235 -0.7410
 5798TIP3   OH217357   3.423   1.400   5.712  0.4596  0.0449 -0.1006
 5798TIP3    H117358   3.440   1.367   5.624  0.1990  2.4313 -1.1166
 5798TIP3    H217359   3.328   1.393   5.722  0.1333  2.2738 -1.1492
 5799TIP3   OH217360   6.776   1.143   1.110  0.2416  0.2796 -0.2703
 5799TIP3    H117361   6.785   1.129   1.204 -1.6842  2.1973  0.2855
 5799TIP3    H217362   6.810   1.232   1.095  1.1973 -0.2552 -1.5553
 5800TIP3   OH217363   2.856   3.640   4.816 -0.4934  0.4410  0.8230
 5800TIP3    H117364   2.894   3.711   4.765  1.2597 -0.1992  1.1778
 5800TIP3    H217365   2.777   3.616   4.767  1.0749 -0.1188 -1.6352
 5801TIP3   OH217366   1.897   3.924   1.032 -0.2209 -0.8024  0.7024
 5801TIP3    H117367   1.862   3.916   0.944 -2.1866  0.1698  1.3546
 5801TIP3    H217368   1.821   3.936   1.088  1.1176  2.5784  2.0729
 5802TIP3   OH217369   3.219   5.286   0.080 -0.2571 -0.1187  0.0377
 5802TIP3    H117370   3.274   5.343   0.025 -0.6067 -0.5611 -0.7832
 5802TIP3    H217371   3.202   5.339   0.158 -0.1488  0.7154 -0.4819
 5803TIP3   OH217372   1.083   3.833   0.989 -0.3701 -0.0083  0.1046
 5803TIP3    H117373   1.031   3.806   1.065 -0.6611  2.0141  0.6877
 5803TIP3    H217374   1.057   3.924   0.974  0.1146 -0.1811 -2.0783
 5804TIP3   OH217375   3.207   0.605   4.052 -0.5547  0.7351 -0.1318
 5804TIP3    H117376   3.291   0.605   4.007 -0.4624 -1.5093 -0.0741
 5804TIP3    H217377   3.221   0.660   4.129  1.6644 -1.4131  1.1407
 5805TIP3   OH217378   6.534   1.523   5.604 -0.1527 -0.1100 -0.0269
 5805TIP3    H117379   6.595   1.549   5.673 -0.8495 -1.7877  1.2892
 5805TIP3    H217380   6.448   1.553   5.635 -0.3598 -0.0668 -0.6168
 5806TIP3   OH217381   0.354   4.783   4.581 -0.3953 -0.6939  0.1791
 5806TIP3    H117382   0.338   4.784   4.676 -0.0167 -1.2864  0.2536
 5806TIP3    H217383   0.281   4.733   4.545 -0.8770  0.0599  0.0847
 5807TIP3   OH217384   2.339   1.672   1.850 -0.2889  0.1392 -0.4447
 5807TIP3    H117385   2.272   1.685   1.783 -0.0362  1.0373 -0.5261
 5807TIP3    H217386   2.420   1.701   1.809  0.1942 -1.0935 -0.4026
 5808TIP3   OH217387   4.079   1.655   2.899  0.0084  0.1312  0.1710
 5808TIP3    H117388   4.169   1.686   2.896  0.4917 -1.2133  0.1728
 5808TIP3    H217389   4.069   1.619   2.987 -0.6268  0.5074  0.2640
 5809TIP3   OH217390   0.555   6.332   5.312  0.5494 -0.6559 -0.1395
 5809TIP3    H117391   0.530   6.289   5.230 -0.2456  1.5041 -1.1183
 5809TIP3    H217392   0.476   6.329   5.366  0.7898 -1.2441  0.1926
 5810TIP3   OH217393   2.934   5.188   2.922 -0.2223 -0.2294  0.3657
 5810TIP3    H117394   2.961   5.220   2.836  0.7876 -1.0345  0.3767
 5810TIP3    H217395   2.948   5.262   2.980  0.7110 -0.2233  0.1369
 5811TIP3   OH217396   4.720   4.834   2.509 -0.1264 -0.9509  0.7546
 5811TIP3    H117397   4.735   4.918   2.551 -2.0041  0.1046 -0.5498
 5811TIP3    H217398   4.808   4.801   2.489  0.6391  0.9157  0.8750
 5812TIP3   OH217399   3.710   0.749   2.917 -0.0702  0.4557  0.4337
 5812TIP3    H117400   3.726   0.659   2.947 -0.4932  0.3466  0.3453
 5812TIP3    H217401   3.656   0.788   2.987 -1.3658  0.0895 -0.3260
 5813TIP3   OH217402   3.789   3.457   2.504 -0.3480 -0.0304  0.7014
 5813TIP3    H117403   3.824   3.539   2.472 -1.4618  0.4843  0.7468
 5813TIP3    H217404   3.703   3.449   2.462 -0.1529 -1.2931  0.4970
 5814TIP3   OH217405   4.402   5.589   0.630 -0.3214 -0.8424 -0.0818
 5814TIP3    H117406   4.418   5.625   0.717  0.9106 -1.4451 -0.0420
 5814TIP3    H217407   4.489   5.581   0.591 -0.4852 -3.7859 -0.0666
 5815TIP3   OH217408   5.953   5.058   0.793 -0.1443  0.1576  0.6665
 5815TIP3    H117409   5.944   5.007   0.713  1.7725 -0.3559  0.7325
 5815TIP3    H217410   5.891   5.130   0.783 -1.7250 -1.2514 -0.1417
 5816TIP3   OH217411   6.667   2.684   0.118  0.4087  0.0043  0.4736
 5816TIP3    H117412   6.655   2.736   0.197  0.0394  1.5175 -0.5250
 5816TIP3    H217413   6.762   2.675   0.108  0.5118  1.1739  0.2621
 5817TIP3   OH217414   1.606   4.102   4.341 -1.0677 -0.0242 -0.4429
 5817TIP3    H117415   1.611   4.023   4.395  1.0921 -0.0315 -0.5543
 5817TIP3    H217416   1.565   4.072   4.260 -0.7986 -0.9244 -0.2645
 5818TIP3   OH217417   5.095   2.105   2.779  0.0311 -0.1661 -0.0596
 5818TIP3    H117418   5.174   2.056   2.758  0.6456 -0.1128  1.9163
 5818TIP3    H217419   5.093   2.177   2.716  1.0364 -0.7021 -0.7251
 5819TIP3   OH217420   6.517   4.552   3.937  0.2103 -0.3633  0.0880
 5819TIP3    H117421   6.511   4.576   3.844 -1.6105 -0.7099  0.0799
 5819TIP3    H217422   6.524   4.636   3.983 -2.4720  0.0789 -0.1691
 5820TIP3   OH217423   4.504   4.116   3.353  0.1695  0.3912  0.2431
 5820TIP3    H117424   4.516   4.095   3.445  2.5839 -1.4547 -0.3563
 5820TIP3    H217425   4.414   4.090   3.334  0.2284 -1.0279  1.6792
 5821TIP3   OH217426   5.615   5.060   5.833  0.0364 -0.0299 -0.3515
 5821TIP3    H117427   5.602   5.145   5.874 -0.4362 -0.0713 -0.4113
 5821TIP3    H217428   5.704   5.034   5.859  0.4565  0.7935 -0.9231
 5822TIP3   OH217429   0.655   5.599   5.808 -0.3588  0.4013  0.2371
 5822TIP3    H117430   0.657   5.654   5.887 -2.5253  0.3234  0.3853
 5822TIP3    H217431   0.725   5.535   5.822 -0.7916  0.2975  2.1928
 5823TIP3   OH217432   6.077   3.557   4.356 -0.0923 -0.1192  0.3333
 5823TIP3    H117433   6.162   3.599   4.365 -0.4970  1.1356 -1.1345
 5823TIP3    H217434   6.020   3.604   4.417 -0.1459  0.3709 -0.0768
 5824TIP3   OH217435   6.188   0.574   0.819  0.4514  0.0251 -0.2087
 5824TIP3    H117436   6.206   0.656   0.864 -2.1313  0.6695 -0.2225
 5824TIP3    H217437   6.179   0.599   0.727  0.4128 -0.3936 -0.3192
 5825TIP3   OH217438   6.428   1.167   4.488 -0.2509 -0.5208 -0.7260
 5825TIP3    H117439   6.399   1.233   4.550  0.1091 -0.1774 -0.9248
 5825TIP3    H217440   6.355   1.160   4.426 -0.2563 -0.2574 -0.7495
 5826TIP3   OH217441   6.031   5.236   3.989  0.3861  0.2553 -1.0915
 5826TIP3    H117442   6.107   5.241   3.931 -0.4570  2.7355 -2.1151
 5826TIP3    H217443   5.991   5.322   3.984 -1.0063 -0.1214  1.5258
 5827TIP3   OH217444   3.975   6.191   5.517  0.0021  0.0597 -0.1313
 5827TIP3    H117445   3.926   6.269   5.541  2.1780  1.3777  0.3029
 5827TIP3    H217446   4.015   6.212   5.433  1.3272 -0.1730  0.4062
 5828TIP3   OH217447   5.137   3.930   2.287  0.6929 -0.4775  0.1783
 5828TIP3    H117448   5.226   3.957   2.307  1.2199 -1.8336 -0.2788
 5828TIP3    H217449   5.095   3.922   2.373  0.5538  1.5406  0.3435
 5829TIP3   OH217450   4.401   6.154   4.188 -0.7006 -0.0353  0.1921
 5829TIP3    H117451   4.452   6.095   4.132  2.0111  0.6788  1.7033
 5829TIP3    H217452   4.416   6.121   4.277 -0.3837  1.9927  0.9318
 5830TIP3   OH217453   3.788   2.251   1.105 -0.1687  0.4291  0.3567
 5830TIP3    H117454   3.720   2.303   1.063 -0.6418 -0.1364  0.4097
 5830TIP3    H217455   3.863   2.257   1.045  0.0498  1.8024  0.7500
 5831TIP3   OH217456   1.439   2.916   0.953  0.1336 -0.1877 -0.1053
 5831TIP3    H117457   1.358   2.881   0.915  0.5897  0.2539 -1.5430
 5831TIP3    H217458   1.493   2.839   0.968 -0.2448 -0.4171  0.1138
 5832TIP3   OH217459   0.148   5.576   1.818  0.4050  0.6397 -0.1295
 5832TIP3    H117460   0.133   5.669   1.797  1.3000  0.9056  0.3745
 5832TIP3    H217461   0.061   5.536   1.809 -0.1769  1.6925  0.5202
 5833TIP3   OH217462   2.808   3.264   3.942 -0.6105  0.3606  0.3923
 5833TIP3    H117463   2.767   3.194   3.994  1.1151 -0.8799  0.1695
 5833TIP3    H217464   2.806   3.232   3.852  0.8209  0.2455  0.3789
 5834TIP3   OH217465   1.144   0.806   3.772 -0.0378 -0.3034 -0.2241
 5834TIP3    H117466   1.050   0.811   3.752  0.0940 -0.0753 -0.7834
 5834TIP3    H217467   1.148   0.752   3.851 -0.6113 -0.6365 -0.4141
 5835TIP3   OH217468   1.206   6.238   1.705  0.1171  0.3027  0.1710
 5835TIP3    H117469   1.239   6.215   1.618 -1.0693 -1.4601  0.1530
 5835TIP3    H217470   1.115   6.262   1.691  0.3569  1.6260  0.7237
 5836TIP3   OH217471   4.905   0.074   1.703 -0.0847  0.5794  0.0055
 5836TIP3    H117472   4.833   0.102   1.646 -0.3656  2.0778  1.0447
 5836TIP3    H217473   4.980   0.067   1.645 -1.2146 -2.0048 -1.3057
 5837TIP3   OH217474   0.624   4.598   3.703  0.5876 -0.1054 -0.4148
 5837TIP3    H117475   0.664   4.649   3.774  0.7608 -0.2892 -0.3787
 5837TIP3    H217476   0.581   4.525   3.748 -0.4361  0.4937 -0.3863
 5838TIP3   OH217477   5.318   0.326   2.733 -0.2568 -0.3762  1.0604
 5838TIP3    H117478   5.354   0.339   2.821  1.5712  0.1907  0.2785
 5838TIP3    H217479   5.278   0.409   2.710  0.4624 -0.0893  0.8396
 5839TIP3   OH217480   4.498   1.604   1.660  0.0925 -0.0257  0.0372
 5839TIP3    H117481   4.566   1.537   1.646 -0.7888 -0.9756  0.2311
 5839TIP3    H217482   4.416   1.558   1.646 -0.5284  1.0905 -0.0596
 5840TIP3   OH217483   1.483   1.143   0.067 -0.3397 -0.0424 -0.3563
 5840TIP3    H117484   1.549   1.205   0.035 -0.2682  0.3111  0.4546
 5840TIP3    H217485   1.420   1.137  -0.004 -1.3209  2.3623  0.2065
 5841TIP3   OH217486   2.277   1.102   4.563 -0.6973 -0.3379 -0.3851
 5841TIP3    H117487   2.200   1.046   4.547 -0.0691 -1.0759 -0.8923
 5841TIP3    H217488   2.321   1.107   4.478 -0.7206  0.9281 -0.3472
 5842TIP3   OH217489   2.893   2.607   5.000  0.3422  0.6238 -0.6184
 5842TIP3    H117490   2.948   2.668   5.049 -1.2391  0.5109  1.4307
 5842TIP3    H217491   2.870   2.654   4.920  1.6066  1.5036 -0.4902
 5843TIP3   OH217492   0.364   5.039   4.361 -0.3066 -0.1274  0.0031
 5843TIP3    H117493   0.327   5.021   4.447 -1.7592  0.8697 -0.3765
 5843TIP3    H217494   0.328   4.971   4.304 -0.2917 -0.0844 -0.0588
 5844TIP3   OH217495   6.839   4.658   2.098  0.0562  0.3480  0.3484
 5844TIP3    H117496   6.923   4.671   2.142  0.3309  0.8019 -0.2903
 5844TIP3    H217497   6.783   4.728   2.131 -0.2248 -0.2303  1.1229
 5845TIP3   OH217498   5.456   3.112   2.619 -0.4328 -0.1389  0.0341
 5845TIP3    H117499   5.522   3.179   2.634 -0.1336 -0.3209 -0.4225
 5845TIP3    H217500   5.482   3.071   2.536  0.7232 -2.3505  1.3807
 5846TIP3   OH217501   6.436   1.402   2.201 -0.0378  0.3420  0.6410
 5846TIP3    H117502   6.453   1.495   2.193 -2.0068  0.7181  0.1338
 5846TIP3    H217503   6.370   1.383   2.134  1.3970 -1.7573 -0.2984
 5847TIP3   OH217504   0.372   4.029   0.307 -0.0105  0.1493  0.4546
 5847TIP3    H117505   0.307   4.076   0.255  0.9789  0.2696 -0.7248
 5847TIP3    H217506   0.420   4.097   0.354 -0.4445  0.0945  0.9802
 5848TIP3   OH217507   4.424   2.448   3.785  0.1510  0.2967 -0.0281
 5848TIP3    H117508   4.345   2.457   3.839  1.1749 -1.3398  1.8398
 5848TIP3    H217509   4.482   2.393   3.836  1.7035 -0.3022 -2.3079
 5849TIP3   OH217510   1.052   5.572   5.820  0.0766  0.5855  0.4164
 5849TIP3    H117511   1.008   5.594   5.903  1.5185 -0.8013  1.6075
 5849TIP3    H217512   1.140   5.609   5.828  0.1600  0.6526 -0.6290
 5850TIP3   OH217513   2.508   5.141   2.193  0.0199  0.0685 -0.2573
 5850TIP3    H117514   2.562   5.132   2.271  0.7300  1.1053 -0.6023
 5850TIP3    H217515   2.557   5.201   2.137 -1.4496  1.0250 -0.5970
 5851TIP3   OH217516   2.092   5.535   5.608 -0.1045  0.0401  0.9581
 5851TIP3    H117517   2.059   5.624   5.597  0.4171  0.2084  0.7233
 5851TIP3    H217518   2.075   5.492   5.524 -0.4715 -0.1236  1.1136
 5852TIP3   OH217519   0.006   4.439   5.111 -0.1062 -0.3426  0.9054
 5852TIP3    H117520   0.101   4.442   5.126  0.3897 -2.6816 -1.1392
 5852TIP3    H217521  -0.027   4.380   5.179 -0.0527  0.1446  1.3622
 5853TIP3   OH217522   3.107   6.285   5.497 -0.1759 -0.1580  0.3687
 5853TIP3    H117523   3.094   6.297   5.403  1.1792 -1.4071 -0.0057
 5853TIP3    H217524   3.183   6.227   5.504 -1.1262 -1.2609  2.2101
 5854TIP3   OH217525   6.817   2.677   2.515 -0.8206  0.0589  0.1549
 5854TIP3    H117526   6.845   2.757   2.559 -3.0821  0.6731  0.5693
 5854TIP3    H217527   6.844   2.607   2.573 -2.0351  0.7511  1.6211
 5855TIP3   OH217528   6.279   6.435   0.843 -0.3119  0.2643 -0.2444
 5855TIP3    H117529   6.226   6.453   0.921 -0.8808 -0.8782 -0.3413
 5855TIP3    H217530   6.215   6.426   0.772  0.2158  1.5761 -0.9274
 5856TIP3   OH217531   3.631   6.577   3.357  0.1110  0.2370  0.2140
 5856TIP3    H117532   3.636   6.495   3.407  1.6497 -0.5437 -1.1465
 5856TIP3    H217533   3.620   6.549   3.266 -0.9499  1.6035 -0.1083
 5857TIP3   OH217534   6.706   5.877   1.096 -0.7161 -0.1485  0.2088
 5857TIP3    H117535   6.779   5.877   1.033 -1.0827 -1.3496 -0.2360
 5857TIP3    H217536   6.642   5.816   1.059 -1.7257  0.4776  0.8660
 5858TIP3   OH217537   6.414   4.299   1.507  0.0225 -0.5608  0.4540
 5858TIP3    H117538   6.412   4.280   1.601 -0.0080 -1.2242  0.3249
 5858TIP3    H217539   6.371   4.385   1.499 -0.8026 -0.9182  0.9518
 5859TIP3   OH217540   4.754   0.988   4.311 -0.5932 -0.1714 -0.2288
 5859TIP3    H117541   4.753   1.017   4.219 -0.4246 -1.2480 -0.5906
 5859TIP3    H217542   4.665   1.006   4.342 -1.3445 -1.7286 -1.2807
 5860TIP3   OH217543   5.405   0.170   5.582 -0.1331  0.1006  0.4486
 5860TIP3    H117544   5.399   0.265   5.582 -0.1333  0.1221 -0.7979
 5860TIP3    H217545   5.389   0.144   5.673 -2.1364  1.1591  0.4497
 5861TIP3   OH217546   3.119   6.443   3.213 -0.1685  0.0852  0.3918
 5861TIP3    H117547   3.062   6.487   3.150 -1.5098 -0.7929  0.9617
 5861TIP3    H217548   3.174   6.513   3.248 -0.3519  0.8192 -0.7302
 5862TIP3   OH217549   3.872   1.931   4.800 -0.8325  0.0526 -0.3988
 5862TIP3    H117550   3.934   1.950   4.730 -1.3096  0.3354 -0.7463
 5862TIP3    H217551   3.913   1.860   4.850  0.7928  1.6541  0.6856
 5863TIP3   OH217552   3.817   3.907   1.713 -0.2632 -0.4173 -0.0117
 5863TIP3    H117553   3.896   3.960   1.720  0.0927 -1.0491  0.9547
 5863TIP3    H217554   3.846   3.827   1.669 -0.3922 -0.5848  0.2045
 5864TIP3   OH217555   5.597   4.233   4.559 -0.4114  0.3391  0.0248
 5864TIP3    H117556   5.580   4.257   4.467  2.4279  2.1259 -0.1709
 5864TIP3    H217557   5.607   4.138   4.557  2.3924  0.5236 -2.2061
 5865TIP3   OH217558   2.739   1.012   3.704  0.5819 -0.1021  0.4461
 5865TIP3    H117559   2.819   1.042   3.661  0.6559 -0.2107  0.5072
 5865TIP3    H217560   2.702   1.090   3.744  0.1291  0.1498 -0.4267
 5866TIP3   OH217561   1.034   5.745   2.148  0.1243 -0.4299 -0.3807
 5866TIP3    H117562   1.060   5.792   2.227  0.0899 -1.5559  0.3267
 5866TIP3    H217563   0.945   5.775   2.130 -0.2100 -0.8427  0.5476
 5867TIP3   OH217564   0.983   0.655   2.674  0.3463 -0.6745  0.1877
 5867TIP3    H117565   0.901   0.648   2.624  1.3907 -3.4503 -1.3646
 5867TIP3    H217566   1.049   0.676   2.608  1.3397 -1.6231  0.8487
 5868TIP3   OH217567   2.191   1.861   3.448  0.0403 -0.0419  0.1488
 5868TIP3    H117568   2.165   1.953   3.449  0.1031 -0.0136  1.6471
 5868TIP3    H217569   2.165   1.830   3.361  1.4423  1.7742 -1.0024
 5869TIP3   OH217570   2.271   6.314   2.838 -0.3576 -0.3434  0.0545
 5869TIP3    H117571   2.211   6.283   2.906 -1.7000 -0.0966 -0.9827
 5869TIP3    H217572   2.324   6.238   2.816 -1.9026 -1.2450 -0.6799
 5870TIP3   OH217573   6.543   3.754   0.517 -0.0786 -0.0460  0.2926
 5870TIP3    H117574   6.517   3.802   0.438  2.4260 -0.3040 -0.7824
 5870TIP3    H217575   6.533   3.662   0.493  0.9490 -0.1305  0.1541
 5871TIP3   OH217576   5.686   5.291   0.424  0.1285  0.4638 -0.0533
 5871TIP3    H117577   5.675   5.285   0.519  1.1608 -2.3848 -0.0236
 5871TIP3    H217578   5.780   5.286   0.410 -0.0372  0.4006 -1.2459
 5872TIP3   OH217579   6.430   0.892   1.598 -0.1679 -0.5191 -0.1944
 5872TIP3    H117580   6.497   0.914   1.662 -0.3820  0.6294 -0.3343
 5872TIP3    H217581   6.467   0.920   1.514 -0.1096 -1.5074 -0.5118
 5873TIP3   OH217582   6.028   4.327   0.090 -0.0307  0.2604  0.2825
 5873TIP3    H117583   6.098   4.331   0.155  0.3792 -3.9694  0.4148
 5873TIP3    H217584   6.061   4.267   0.023 -2.1039  1.1284 -1.6532
 5874TIP3   OH217585   5.122   1.653   4.954  0.2002 -0.5060  0.6527
 5874TIP3    H117586   5.082   1.629   4.870  0.8907 -1.2019  0.5183
 5874TIP3    H217587   5.213   1.625   4.947  0.5716  0.4864  1.2007
 5875TIP3   OH217588   3.628   5.808   3.831  0.8438  0.2035 -0.1380
 5875TIP3    H117589   3.603   5.771   3.747  0.8700 -1.6658  0.6259
 5875TIP3    H217590   3.545   5.836   3.871  0.7309  0.2329 -0.3944
 5876TIP3   OH217591   1.927   5.957   2.015  0.2535 -0.3091  0.2004
 5876TIP3    H117592   1.896   5.960   1.925  1.6845  0.3102 -0.3021
 5876TIP3    H217593   1.902   6.041   2.053 -3.9522 -1.9813  1.7383
 5877TIP3   OH217594   5.420   1.234   0.784  0.5462 -0.2186  0.1195
 5877TIP3    H117595   5.410   1.230   0.879  2.9673  1.6525  0.5330
 5877TIP3    H217596   5.359   1.303   0.756 -1.3463 -1.8316  0.0105
 5878TIP3   OH217597   6.033   0.043   4.349  0.2264  0.0979  0.2533
 5878TIP3    H117598   6.069  -0.040   4.381 -0.4157 -0.4813 -0.4589
 5878TIP3    H217599   6.107   0.086   4.306  0.4504 -0.3466  0.1857
 5879TIP3   OH217600   6.842   2.209   5.822 -0.2347 -0.0818 -0.9855
 5879TIP3    H117601   6.895   2.252   5.754  2.9516 -0.4886  1.0564
 5879TIP3    H217602   6.873   2.246   5.904 -1.9771 -1.6342  0.4631
 5880TIP3   OH217603   1.113   6.190   0.422  0.2000 -0.5558  0.4058
 5880TIP3    H117604   1.023   6.209   0.448  0.4615  0.2779  0.7298
 5880TIP3    H217605   1.151   6.275   0.400  0.4506 -1.0574 -1.2688
 5881TIP3   OH217606   7.232   4.062   0.084  0.0193  0.1222 -0.3390
 5881TIP3    H117607   7.150   4.032   0.046 -1.0497  2.9855 -0.5212
 5881TIP3    H217608   7.299   4.005   0.046 -1.3618  0.5930 -3.7843
 5882TIP3   OH217609   6.738   0.435   5.373  0.3410  0.8516 -0.1695
 5882TIP3    H117610   6.786   0.517   5.367  1.8339  0.0318 -0.0573
 5882TIP3    H217611   6.697   0.436   5.460 -1.1135  2.1942 -0.8187
 5883TIP3   OH217612   5.930   2.189   3.861  0.1358 -0.1917 -0.1991
 5883TIP3    H117613   5.971   2.141   3.790 -1.4722 -2.5478  0.3296
 5883TIP3    H217614   5.974   2.157   3.940 -0.6484 -0.4679  0.1334
 5884TIP3   OH217615   0.216   5.662   0.692  0.0252 -0.2748 -0.0163
 5884TIP3    H117616   0.138   5.673   0.638 -1.1812  0.8003  1.8610
 5884TIP3    H217617   0.192   5.596   0.756  0.4808  0.3809  0.8525
 5885TIP3   OH217618   3.775   4.443   1.770 -0.1472 -0.0937  0.1568
 5885TIP3    H117619   3.809   4.517   1.720  0.0313 -1.0802 -1.2530
 5885TIP3    H217620   3.835   4.434   1.844 -0.3539  1.3367  0.5155
 5886TIP3   OH217621   5.141   4.031   3.678  0.8551  0.5109 -0.3922
 5886TIP3    H117622   5.092   4.032   3.760  1.0069  1.3720 -0.3007
 5886TIP3    H217623   5.223   3.987   3.701  0.2464 -0.7158 -0.4895
 5887TIP3   OH217624   2.192   5.236   2.390 -0.1255 -0.0827  0.1355
 5887TIP3    H117625   2.280   5.273   2.392 -0.6882  1.5007 -1.3887
 5887TIP3    H217626   2.179   5.210   2.299 -0.6373 -1.9327  0.6913
 5888TIP3   OH217627   2.844   2.361   0.541 -0.1382 -0.1318 -0.1699
 5888TIP3    H117628   2.814   2.392   0.626 -0.4931  0.1734 -0.4051
 5888TIP3    H217629   2.848   2.265   0.551 -2.7545 -0.3605 -0.5911
 5889TIP3   OH217630   4.017   2.237   1.623 -0.1642 -0.0869  0.7250
 5889TIP3    H117631   3.969   2.194   1.694 -0.7728 -0.4222  0.1264
 5889TIP3    H217632   3.965   2.217   1.545 -0.8778  2.3160  0.5079
 5890TIP3   OH217633   2.219   1.999   0.166  0.0647  0.1969  0.0806
 5890TIP3    H117634   2.188   2.080   0.206  0.9645  0.2245  0.7461
 5890TIP3    H217635   2.314   2.008   0.163  0.0674 -0.0586 -1.5500
 5891TIP3   OH217636   0.579   3.447   3.119  1.1350  0.4474  0.4613
 5891TIP3    H117637   0.521   3.394   3.175 -0.1565  0.2893 -0.9526
 5891TIP3    H217638   0.665   3.437   3.158  0.4554 -0.4950  1.8188
 5892TIP3   OH217639   5.149   3.776   3.888  0.1378  0.0879  0.4269
 5892TIP3    H117640   5.084   3.749   3.823  0.6416 -1.2769  0.4526
 5892TIP3    H217641   5.228   3.727   3.864  0.9038  1.0577  0.9107
 5893TIP3   OH217642   2.839   0.980   5.056 -0.2196  0.2730 -0.1288
 5893TIP3    H117643   2.860   1.061   5.011 -0.2779  0.8963  0.9397
 5893TIP3    H217644   2.901   0.975   5.129  1.7638 -2.1246 -1.7826
 5894TIP3   OH217645   6.970   2.601   5.651 -0.1142 -0.4621  0.6659
 5894TIP3    H117646   6.997   2.608   5.560 -1.3122 -3.4139 -0.0494
 5894TIP3    H217647   6.957   2.691   5.680  2.8942  0.7008 -1.1819
 5895TIP3   OH217648   4.687   0.392   3.726 -0.0830  0.0662  0.0369
 5895TIP3    H117649   4.772   0.436   3.720 -0.1254  0.1760  0.2387
 5895TIP3    H217650   4.703   0.316   3.782 -0.8137  1.8277  2.8261
 5896TIP3   OH217651   2.585   2.812   2.848 -0.5442 -0.0764 -0.4805
 5896TIP3    H117652   2.665   2.760   2.850 -0.6492 -0.2245  0.7276
 5896TIP3    H217653   2.587   2.857   2.764  1.7059  1.3352  0.2666
 5897TIP3   OH217654   3.376   2.484   3.494 -0.1372 -0.3329 -0.2950
 5897TIP3    H117655   3.360   2.427   3.569  1.7276 -0.6856 -0.1190
 5897TIP3    H217656   3.300   2.543   3.491 -0.5035 -0.6735  1.5147
 5898TIP3   OH217657   6.096   5.706   1.073 -0.0961  0.3632  0.9139
 5898TIP3    H117658   6.124   5.752   0.994 -0.9710 -0.9074 -0.1785
 5898TIP3    H217659   6.031   5.765   1.113 -1.9446 -0.2569 -0.9827
 5899TIP3   OH217660   2.109   4.390   1.942  0.2035  0.0079  0.5642
 5899TIP3    H117661   2.140   4.304   1.913  0.1501  0.0116  0.4967
 5899TIP3    H217662   2.165   4.411   2.017  1.7552  0.9420 -0.8029
 5900TIP3   OH217663   5.083   4.114   0.451 -0.3186 -0.1792  0.3104
 5900TIP3    H117664   5.043   4.036   0.491  0.2500 -1.4563 -1.4659
 5900TIP3    H217665   5.161   4.131   0.504 -1.7453  0.7832  2.2488
 5901TIP3   OH217666   1.106   6.734   4.624  0.2996  0.1115 -0.0566
 5901TIP3    H117667   1.110   6.665   4.691  1.5625  0.1911 -0.0201
 5901TIP3    H217668   1.086   6.813   4.673 -2.0764 -0.3323 -0.2077
 5902TIP3   OH217669   3.112   4.765   4.873  0.5520  0.4269  0.7974
 5902TIP3    H117670   3.051   4.774   4.946 -0.1738  0.4640  0.1953
 5902TIP3    H217671   3.103   4.847   4.824  0.8209  0.2850  0.5068
 5903TIP3   OH217672   5.964   5.472   3.353 -0.0941 -0.7082 -0.2465
 5903TIP3    H117673   6.050   5.515   3.351 -1.2410  1.8449 -3.0405
 5903TIP3    H217674   5.903   5.541   3.379 -1.4005 -2.3949  1.3986
 5904TIP3   OH217675   4.755   4.942   1.459 -0.5745 -0.0571  0.5765
 5904TIP3    H117676   4.834   4.951   1.511 -0.2270  1.2520 -0.1280
 5904TIP3    H217677   4.687   4.914   1.521  0.0470  0.5011  1.5269
 5905TIP3   OH217678   0.004   1.810   0.266 -0.2286  0.0524 -0.0835
 5905TIP3    H117679  -0.020   1.848   0.351  2.1381  0.6234  0.4020
 5905TIP3    H217680   0.040   1.883   0.216 -0.1337 -0.6004 -0.9860
 5906TIP3   OH217681   0.003   4.295   4.846 -0.4370 -0.4684  0.0892
 5906TIP3    H117682  -0.017   4.240   4.923  0.0822 -1.2083 -0.2955
 5906TIP3    H217683   0.064   4.361   4.879 -0.9760 -0.1843  0.5309
 5907TIP3   OH217684   0.806   3.061   2.531  0.4669 -0.4729  0.1170
 5907TIP3    H117685   0.738   3.054   2.464 -0.1236 -0.6562  0.7231
 5907TIP3    H217686   0.864   3.129   2.499 -1.2266  1.3088  0.6269
 5908TIP3   OH217687   2.033   2.463   0.726  0.2026 -0.1226  0.5852
 5908TIP3    H117688   1.996   2.451   0.638  1.2717  0.8304 -0.0159
 5908TIP3    H217689   1.964   2.507   0.775  0.2647  1.0161 -0.3153
 5909TIP3   OH217690   4.065   5.548   2.919 -0.1474  0.6503 -0.1743
 5909TIP3    H117691   3.988   5.573   2.972 -3.0210  0.7251 -3.9698
 5909TIP3    H217692   4.051   5.456   2.898  0.4140  0.8476 -1.5028
 5910TIP3   OH217693   5.054   6.369   0.207 -0.0268 -0.3351 -0.0151
 5910TIP3    H117694   5.074   6.329   0.291  0.6368 -0.1264 -0.0704
 5910TIP3    H217695   4.965   6.340   0.187 -0.8372  0.9269  1.5363
 5911TIP3   OH217696   0.868   6.508   1.433 -0.2482  0.1773  0.3858
 5911TIP3    H117697   0.837   6.598   1.438 -0.1507  0.2363  0.0169
 5911TIP3    H217698   0.929   6.508   1.359  0.0659 -0.0986  0.6439
 5912TIP3   OH217699   6.849   6.365   3.932  0.7095  0.0641 -0.3663
 5912TIP3    H117700   6.912   6.294   3.943 -1.9918 -2.2815  1.6075
 5912TIP3    H217701   6.845   6.407   4.018  0.1643  0.6745 -0.6833
 5913TIP3   OH217702   1.994   4.559   4.115 -0.0799  0.4123 -0.6455
 5913TIP3    H117703   2.051   4.502   4.167  1.2491  1.9416 -0.3613
 5913TIP3    H217704   1.964   4.503   4.043 -0.1031 -1.0824  0.4607
 5914TIP3   OH217705   4.577   3.906   1.850  0.1671  0.1509  0.3480
 5914TIP3    H117706   4.620   3.931   1.932  2.5522  0.0029 -0.7494
 5914TIP3    H217707   4.650   3.886   1.791 -1.4899 -0.5380 -1.5644
 5915TIP3   OH217708   5.156   0.352   3.956 -0.1143 -0.3115  0.0570
 5915TIP3    H117709   5.221   0.362   4.026  0.0533 -1.3628  0.0697
 5915TIP3    H217710   5.137   0.258   3.954 -2.1857  0.0595  0.5309
 5916TIP3   OH217711   6.566   6.123   1.729  0.9128 -0.1333 -0.0534
 5916TIP3    H117712   6.505   6.070   1.679  0.8506  0.1511 -0.2817
 5916TIP3    H217713   6.615   6.173   1.664  0.4328  0.6691  0.1851
 5917TIP3   OH217714   2.848   1.950   5.253  0.4869  0.2418 -0.2694
 5917TIP3    H117715   2.753   1.958   5.250  0.4557 -0.0823 -0.1518
 5917TIP3    H217716   2.879   2.040   5.252  0.1978  0.3399 -0.8540
 5918TIP3   OH217717   2.995   1.127   3.875 -0.0664  0.1625  0.0047
 5918TIP3    H117718   3.020   1.215   3.903  2.3114 -0.8273  1.2438
 5918TIP3    H217719   2.994   1.132   3.779  2.7941  0.9124 -0.0598
 5919TIP3   OH217720   2.813   6.290   3.860 -0.1621 -0.0813  0.4054
 5919TIP3    H117721   2.908   6.293   3.870 -0.0048 -1.3149 -0.4152
 5919TIP3    H217722   2.790   6.372   3.818  0.2712  1.1060  2.3763
 5920TIP3   OH217723   7.091   5.780   3.455 -0.3089 -0.0443  0.2392
 5920TIP3    H117724   6.997   5.794   3.450 -0.4223 -0.5566  0.9087
 5920TIP3    H217725   7.128   5.847   3.397 -1.0045  1.0792  1.0472
 5921TIP3   OH217726   0.971   1.394   4.839 -0.5698 -0.5696  0.3962
 5921TIP3    H117727   1.063   1.419   4.833  0.3505 -3.5400  0.6140
 5921TIP3    H217728   0.934   1.452   4.905  1.2306  0.4323  0.5712
 5922TIP3   OH217729   3.925   6.648   0.220  0.0438  0.2789 -0.4396
 5922TIP3    H117730   4.008   6.662   0.266 -0.6049 -0.3396  0.9572
 5922TIP3    H217731   3.863   6.625   0.288 -0.8981 -0.9648 -1.6622
 5923TIP3   OH217732   1.634   1.706   3.439  0.3084  0.1186  0.0309
 5923TIP3    H117733   1.551   1.683   3.482 -0.0855 -0.7457 -1.1288
 5923TIP3    H217734   1.617   1.792   3.401 -0.9420 -1.0434 -2.2419
 5924TIP3   OH217735   6.383   0.900   0.607  0.6405  0.1934  0.5789
 5924TIP3    H117736   6.432   0.981   0.598  1.4344 -0.3328  0.0501
 5924TIP3    H217737   6.392   0.876   0.699  0.2421  0.7874  0.7831
 5925TIP3   OH217738   1.369   6.449   2.483 -0.1188 -0.2431 -0.1384
 5925TIP3    H117739   1.335   6.433   2.395  0.3920 -0.8548 -0.2343
 5925TIP3    H217740   1.463   6.434   2.475 -0.1441 -0.9102  0.6425
 5926TIP3   OH217741   6.424   2.814   4.309 -0.1442  0.3256 -0.1553
 5926TIP3    H117742   6.517   2.831   4.299  0.5445 -2.1582  1.2704
 5926TIP3    H217743   6.383   2.857   4.234  2.0990  1.6439 -0.6911
 5927TIP3   OH217744   0.265   6.500   4.135  0.1526 -0.1309 -0.1343
 5927TIP3    H117745   0.219   6.583   4.147  1.9242  0.8033  0.4507
 5927TIP3    H217746   0.305   6.506   4.049 -1.7844 -1.4776 -1.2093
 5928TIP3   OH217747   2.755   4.872   5.904  0.3110 -0.2684 -0.7128
 5928TIP3    H117748   2.836   4.909   5.937  0.2516  0.4843 -1.3780
 5928TIP3    H217749   2.780   4.828   5.823 -0.0245  0.4796 -1.2402
 5929TIP3   OH217750   5.097   0.122   0.243 -0.0811  0.0032  0.1587
 5929TIP3    H117751   5.097   0.029   0.223 -1.1285 -0.1714  0.9110
 5929TIP3    H217752   5.144   0.163   0.170  0.4691 -1.1102 -0.1265
 5930TIP3   OH217753   6.437   3.746   1.205  0.4501 -0.0361  0.5291
 5930TIP3    H117754   6.355   3.717   1.164  0.2401 -0.5341  1.2820
 5930TIP3    H217755   6.410   3.814   1.267  0.9384  1.8583 -1.2275
 5931TIP3   OH217756   0.954   4.543   3.945 -0.2587 -0.6095 -0.0742
 5931TIP3    H117757   0.898   4.620   3.952 -0.1722 -0.5071 -0.4740
 5931TIP3    H217758   0.909   4.485   3.884  0.3720 -0.2518 -0.8971
 5932TIP3   OH217759   4.011   5.388   5.224 -0.7090  0.5170  0.2109
 5932TIP3    H117760   3.993   5.480   5.244 -1.2421  0.0848  1.9055
 5932TIP3    H217761   3.929   5.342   5.245 -0.1577 -0.4547  0.3161
 5933TIP3   OH217762  -0.006   5.802   5.791  0.8846  0.3363 -0.5475
 5933TIP3    H117763  -0.025   5.892   5.765  0.5065  0.5813  0.5310
 5933TIP3    H217764   0.077   5.808   5.838  0.0775  0.3920  0.9146
 5934TIP3   OH217765   4.522   5.518   2.244  0.1885  0.1636  0.2095
 5934TIP3    H117766   4.612   5.527   2.277  0.2850 -2.8280  0.9805
 5934TIP3    H217767   4.469   5.566   2.308  1.2129  3.0006 -0.8739
 5935TIP3   OH217768   6.880   2.965   2.187  0.2375  0.0945 -1.0033
 5935TIP3    H117769   6.901   2.874   2.209  1.2706  0.5745  0.1233
 5935TIP3    H217770   6.824   2.994   2.260  0.0002  0.3914 -1.3043
 5936TIP3   OH217771   0.699   1.201   3.267  0.2875 -0.2318 -0.1049
 5936TIP3    H117772   0.710   1.251   3.186  0.2661 -0.3574 -0.1853
 5936TIP3    H217773   0.628   1.140   3.248 -0.1959  0.2190  0.2445
 5937TIP3   OH217774   0.524   4.775   1.307  0.1057  0.2951 -0.4821
 5937TIP3    H117775   0.551   4.706   1.368  1.2424  0.5425 -0.6739
 5937TIP3    H217776   0.428   4.772   1.307  0.1081 -0.1446  0.8039
 5938TIP3   OH217777   0.689   1.825   0.648 -0.3286  0.0898 -0.6151
 5938TIP3    H117778   0.737   1.744   0.664 -0.7900 -0.0759 -0.0004
 5938TIP3    H217779   0.600   1.807   0.679 -0.2767  1.0327  0.1638
 5939TIP3   OH217780   5.038   5.134   2.838  0.1189  0.0244  0.2029
 5939TIP3    H117781   5.093   5.184   2.777 -1.2434  0.1441 -0.9644
 5939TIP3    H217782   5.081   5.049   2.844 -0.4076 -0.4705 -2.0271
 5940TIP3   OH217783   5.291   3.828   1.679  0.3939  0.3775  0.2190
 5940TIP3    H117784   5.347   3.889   1.727  0.3706 -0.3141  1.1590
 5940TIP3    H217785   5.227   3.799   1.744  0.3534 -0.5865 -0.2436
 5941TIP3   OH217786   2.749   5.407   1.466  0.1509  0.0185  0.5475
 5941TIP3    H117787   2.751   5.389   1.372  2.8936 -2.8750  0.9795
 5941TIP3    H217788   2.841   5.423   1.489 -0.3478 -0.0824  2.8644
 5942TIP3   OH217789   1.693   6.775   5.718 -0.1234 -0.2306 -0.3548
 5942TIP3    H117790   1.627   6.840   5.694 -1.7990 -2.8110 -3.6799
 5942TIP3    H217791   1.777   6.816   5.695 -1.0181  1.2651 -1.0740
 5943TIP3   OH217792   0.396   6.276   2.938 -0.0354 -0.0057  0.0533
 5943TIP3    H117793   0.413   6.242   3.026 -0.3792  1.5278  0.7523
 5943TIP3    H217794   0.463   6.236   2.883  0.3111 -0.8304  1.0510
 5944TIP3   OH217795   6.835   2.756   5.418 -0.1676  0.3037  0.0603
 5944TIP3    H117796   6.817   2.838   5.465  0.7647  0.9132 -0.6039
 5944TIP3    H217797   6.928   2.762   5.395  0.2116 -1.4311  0.9216
 5945TIP3   OH217798   1.881   1.853   2.424  0.6358 -0.2508  0.1122
 5945TIP3    H117799   1.880   1.949   2.417 -0.4195 -0.0730  2.0487
 5945TIP3    H217800   1.812   1.833   2.487  0.1754 -2.3839 -0.9914
 5946TIP3   OH217801   6.892   0.501   4.623  0.0092  0.1821  0.0153
 5946TIP3    H117802   6.909   0.419   4.577  3.1431 -0.3938  1.9096
 5946TIP3    H217803   6.873   0.564   4.553 -1.8869 -1.9331 -1.5226
 5947TIP3   OH217804   0.154   4.964   1.077  0.0015 -0.2680  0.3465
 5947TIP3    H117805   0.153   5.048   1.124 -0.6527 -0.3596  0.5006
 5947TIP3    H217806   0.165   4.987   0.985 -2.0103  0.0991  0.1700
 5948TIP3   OH217807   2.131   1.417   4.149  0.6521  0.0975  0.1999
 5948TIP3    H117808   2.119   1.352   4.218  0.5770  1.4433  1.5063
 5948TIP3    H217809   2.102   1.374   4.069 -0.9240 -0.9311  1.2865
 5949TIP3   OH217810   2.201   6.063   5.473 -0.4399  0.3831  0.1370
 5949TIP3    H117811   2.228   5.972   5.466  0.0627  0.6060 -1.0841
 5949TIP3    H217812   2.123   6.070   5.418 -2.5962 -0.0518  2.9354
 5950TIP3   OH217813   0.441   2.581   3.352  0.2659  0.3018  0.2152
 5950TIP3    H117814   0.438   2.486   3.348  1.1279  0.2842  0.0069
 5950TIP3    H217815   0.475   2.601   3.439 -2.8044  0.4903  1.5276
 5951TIP3   OH217816   3.176   6.106   5.108 -0.3722 -0.1816 -0.1787
 5951TIP3    H117817   3.218   6.030   5.149  2.9180  1.4277 -0.2512
 5951TIP3    H217818   3.165   6.081   5.016  0.9349 -0.5122 -0.2596
 5952TIP3   OH217819   7.044   3.849   2.362  0.0069 -0.3475 -0.0806
 5952TIP3    H117820   7.028   3.911   2.434  1.7901 -0.5715  0.5614
 5952TIP3    H217821   7.051   3.905   2.284 -0.8009  0.0122  0.0952
 5953TIP3   OH217822   4.309   0.414   2.424 -0.3033  0.3602  0.0550
 5953TIP3    H117823   4.367   0.489   2.434  0.2923 -0.1432  0.4613
 5953TIP3    H217824   4.249   0.439   2.354 -0.6662  1.5545  0.7668
 5954TIP3   OH217825   2.838   3.086   2.437  0.2803 -0.0229  0.0431
 5954TIP3    H117826   2.797   3.113   2.355 -1.2988  1.5225  1.2478
 5954TIP3    H217827   2.923   3.130   2.438  1.5766 -2.2818 -1.9436
 5955TIP3   OH217828   5.676   4.050   3.429  0.1776 -0.3455  0.5357
 5955TIP3    H117829   5.610   4.097   3.480  0.3080 -0.2523  0.6193
 5955TIP3    H217830   5.757   4.058   3.480  0.5223  0.5124 -0.1120
 5956TIP3   OH217831   1.488   0.184   3.888  0.2906  0.0362  0.4250
 5956TIP3    H117832   1.462   0.104   3.934  1.0710 -1.1023 -1.0269
 5956TIP3    H217833   1.560   0.219   3.939 -0.7147  0.3983  1.6388
 5957TIP3   OH217834   0.963   2.595   1.503 -0.0440  0.3260 -0.1002
 5957TIP3    H117835   0.961   2.655   1.577  1.8154 -0.1163  0.3504
 5957TIP3    H217836   0.887   2.620   1.450 -0.2027  2.0208  0.8672
 5958TIP3   OH217837   6.520   6.096   2.947 -0.4992  0.1449 -0.4643
 5958TIP3    H117838   6.541   6.004   2.931 -0.7948  0.3922 -2.6784
 5958TIP3    H217839   6.598   6.143   2.917 -0.2068  0.6228  0.9953
 5959TIP3   OH217840   3.699   2.271   4.291  0.3424  0.1484  0.1326
 5959TIP3    H117841   3.772   2.225   4.250 -0.8548  0.1071 -2.0671
 5959TIP3    H217842   3.634   2.203   4.309 -0.3905  0.5936 -0.7673
 5960TIP3   OH217843   3.587   3.355   1.315 -0.6520  0.4770  0.8958
 5960TIP3    H117844   3.501   3.386   1.343 -1.4668 -1.0506  0.2108
 5960TIP3    H217845   3.583   3.260   1.326 -1.0477 -0.3365 -4.0739
 5961TIP3   OH217846   0.205   0.458   1.333 -0.3245 -0.2384 -0.1404
 5961TIP3    H117847   0.139   0.523   1.308  0.8440  0.9402 -0.2775
 5961TIP3    H217848   0.223   0.476   1.425 -1.3359 -1.6395  0.3867
 5962TIP3   OH217849   3.243   5.004   1.795  0.5721  0.5396  0.8977
 5962TIP3    H117850   3.278   5.064   1.729  1.8038  0.6691  1.6380
 5962TIP3    H217851   3.224   5.061   1.870 -1.7544  0.5532  0.3570
 5963TIP3   OH217852   3.077   1.139   2.677  0.1848  0.1062 -0.3208
 5963TIP3    H117853   3.128   1.060   2.694  0.5361  0.5343  0.6875
 5963TIP3    H217854   3.116   1.177   2.599  2.8570  1.5479  1.5644
 5964TIP3   OH217855   3.878   0.423   4.099  0.1000  0.0353  0.4937
 5964TIP3    H117856   3.837   0.473   4.170  0.4805  0.0811  0.6813
 5964TIP3    H217857   3.971   0.420   4.122  0.3322  0.5897 -0.3257
 5965TIP3   OH217858   0.358   0.855   0.103  0.0672  0.4500 -0.3568
 5965TIP3    H117859   0.412   0.915   0.155  0.9808 -0.5096 -0.1476
 5965TIP3    H217860   0.392   0.862   0.014  2.3685 -1.9886  0.1844
 5966TIP3   OH217861   4.034   4.435   1.902  0.2154  0.2276  0.5662
 5966TIP3    H117862   4.077   4.379   1.837 -1.3525  0.7286 -1.0001
 5966TIP3    H217863   4.054   4.395   1.986  0.6848 -1.5980 -0.3686
 5967TIP3   OH217864   2.639   5.078   3.244  0.2217 -0.3808 -0.1586
 5967TIP3    H117865   2.708   5.060   3.180 -0.1221 -0.8184 -0.4138
 5967TIP3    H217866   2.586   5.147   3.205 -0.5726 -1.3339 -0.8056
 5968TIP3   OH217867   6.058   1.551   2.784  0.2361 -0.2058  0.9162
 5968TIP3    H117868   6.143   1.583   2.755 -0.0523  0.5329  0.8591
 5968TIP3    H217869   6.036   1.482   2.722  0.7319 -0.3073  0.8521
 5969TIP3   OH217870   5.736   5.539   2.386 -0.2920 -0.4905  0.8230
 5969TIP3    H117871   5.676   5.465   2.395 -0.9676 -0.1077 -0.2543
 5969TIP3    H217872   5.796   5.514   2.317 -1.9507  0.8053 -1.2186
 5970TIP3   OH217873   1.024   4.696   0.336 -0.1290 -0.5043  0.3291
 5970TIP3    H117874   1.011   4.682   0.430  1.5372  0.9352  0.8284
 5970TIP3    H217875   1.066   4.782   0.330  0.0605 -0.6818 -1.7288
 5971TIP3   OH217876   1.648   1.285   5.134  0.1882  0.0443  0.3054
 5971TIP3    H117877   1.702   1.311   5.059 -0.0283 -1.7908 -0.5490
 5971TIP3    H217878   1.658   1.190   5.138 -2.0942 -0.2342  0.7919
 5972TIP3   OH217879   1.848   1.639   5.661  0.0727 -0.6882 -0.1168
 5972TIP3    H117880   1.770   1.694   5.666  1.2650  1.0189  0.6126
 5972TIP3    H217881   1.858   1.619   5.568  0.6471  1.9842 -0.7112
 5973TIP3   OH217882   4.314   4.212   5.694  0.2956  0.3434 -0.1244
 5973TIP3    H117883   4.269   4.266   5.629 -0.2690  1.5997  1.2780
 5973TIP3    H217884   4.297   4.122   5.665 -1.0770  0.8414 -0.9786
 5974TIP3   OH217885   1.374   5.878   3.588 -0.1788 -0.2693 -0.1949
 5974TIP3    H117886   1.308   5.882   3.519  0.4177 -2.3234 -0.9630
 5974TIP3    H217887   1.341   5.811   3.648  1.3070 -1.5582 -0.7608
 5975TIP3   OH217888   1.834   2.775   1.202  0.3405 -0.0231  0.0314
 5975TIP3    H117889   1.772   2.785   1.274 -0.3853  0.6861 -0.6660
 5975TIP3    H217890   1.914   2.820   1.232 -0.3513  1.3127 -0.0525
 5976TIP3   OH217891   5.056   1.200   2.685  0.7463 -0.4697 -0.3017
 5976TIP3    H117892   5.133   1.168   2.732  0.4602  0.4925  0.9016
 5976TIP3    H217893   4.982   1.167   2.735  0.4133 -0.0014 -0.4732
 5977TIP3   OH217894   4.561   4.957   4.131 -0.0119 -0.0664  0.0011
 5977TIP3    H117895   4.585   4.962   4.223  1.0075 -1.3157 -0.1764
 5977TIP3    H217896   4.479   4.908   4.130 -0.8204  1.2196  0.3301
 5978TIP3   OH217897   5.510   3.045   5.564  0.0792 -0.0706 -0.5656
 5978TIP3    H117898   5.599   3.077   5.579  0.4126 -0.8441 -0.8140
 5978TIP3    H217899   5.518   2.990   5.486 -0.6716  0.0649 -0.7413
 5979TIP3   OH217900   2.301   5.166   2.682 -0.0812  0.2971 -0.1275
 5979TIP3    H117901   2.292   5.250   2.728  0.3324  0.2849 -0.0172
 5979TIP3    H217902   2.307   5.190   2.590 -0.3374  0.3612 -0.1290
 5980TIP3   OH217903   3.124   1.663   2.032 -0.4482 -0.2611 -0.3261
 5980TIP3    H117904   3.059   1.629   1.970 -0.5003 -2.4019  0.7862
 5980TIP3    H217905   3.110   1.611   2.112  0.2580  1.7272  1.1807
 5981TIP3   OH217906   4.076   3.768   2.595 -0.4259 -0.9836  0.1268
 5981TIP3    H117907   4.092   3.856   2.630  0.8071 -1.0763 -0.1832
 5981TIP3    H217908   4.083   3.710   2.670 -2.3594 -0.7328  0.5493
 5982TIP3   OH217909   0.802   1.111   2.433 -0.0227  0.1269 -0.7828
 5982TIP3    H117910   0.744   1.137   2.362  0.9795  0.9833 -1.3326
 5982TIP3    H217911   0.767   1.028   2.465 -1.7117  0.7717 -0.8625
 5983TIP3   OH217912   0.631   3.746   0.572  0.3057  0.2735 -0.2433
 5983TIP3    H117913   0.685   3.677   0.608 -2.1667 -1.0705  1.1602
 5983TIP3    H217914   0.588   3.707   0.496 -0.2409  0.6290 -0.1282
 5984TIP3   OH217915   3.467   5.214   0.329  0.4624 -0.0823  0.3007
 5984TIP3    H117916   3.498   5.300   0.357  0.8417 -0.0623 -0.1592
 5984TIP3    H217917   3.387   5.199   0.379 -0.0094  0.8658 -0.1462
 5985TIP3   OH217918   5.946   6.576   1.955 -0.3207  0.2537 -0.1668
 5985TIP3    H117919   5.996   6.582   1.873  0.9630 -1.5394  0.4198
 5985TIP3    H217920   5.964   6.658   2.000  2.0814 -0.2614 -0.0415
 5986TIP3   OH217921   6.687   3.148   5.737  0.1841  0.2797  0.1776
 5986TIP3    H117922   6.762   3.207   5.743 -0.9881  2.0511 -1.5648
 5986TIP3    H217923   6.690   3.097   5.818  1.9722  1.8487  1.1749
 5987TIP3   OH217924   3.669   1.214   4.801  0.0168  0.1367  0.0567
 5987TIP3    H117925   3.676   1.158   4.878 -0.7813  0.6149  0.4908
 5987TIP3    H217926   3.735   1.180   4.741  0.6400 -0.2561  0.9393
 5988TIP3   OH217927   5.982   6.150   3.994 -0.5277  0.2074  0.0189
 5988TIP3    H117928   5.919   6.202   3.944 -0.8594 -0.8209 -0.6545
 5988TIP3    H217929   6.022   6.213   4.054  0.1147  1.5493 -1.7279
 5989TIP3   OH217930   5.695   0.719   5.744  0.1673  0.0216 -0.6319
 5989TIP3    H117931   5.644   0.751   5.668 -1.0813  2.4252  1.0670
 5989TIP3    H217932   5.637   0.657   5.787  0.2207 -0.1360 -0.7888
 5990TIP3   OH217933   3.921   0.811   4.056  0.0884  0.0083  0.2197
 5990TIP3    H117934   3.937   0.885   4.115 -0.4785 -0.7078  1.3028
 5990TIP3    H217935   3.833   0.827   4.021  0.5525  0.5991 -0.6933
 5991TIP3   OH217936   1.385   1.256   5.103 -0.2905  0.3533 -0.1217
 5991TIP3    H117937   1.371   1.169   5.067  0.5740  0.6494 -1.2473
 5991TIP3    H217938   1.480   1.267   5.102 -0.2396  0.5489  1.9113
 5992TIP3   OH217939   3.848   6.530   2.008  0.0779 -0.3191  0.3766
 5992TIP3    H117940   3.872   6.465   1.942  1.9415  0.6415  0.0326
 5992TIP3    H217941   3.927   6.540   2.061  0.1351  2.2086 -0.0796
 5993TIP3   OH217942   2.949   0.980   3.245  0.2681 -0.2859 -0.4248
 5993TIP3    H117943   2.888   0.928   3.193 -0.5053 -0.7682  0.9085
 5993TIP3    H217944   3.014   0.916   3.275  0.6652 -0.0278 -0.7347
 5994TIP3   OH217945   3.552   3.299   4.351 -0.0183 -0.3534  0.1479
 5994TIP3    H117946   3.626   3.359   4.338  0.0784 -0.0764  1.7652
 5994TIP3    H217947   3.502   3.338   4.423 -1.7204 -0.5750 -0.8529
 5995TIP3   OH217948   3.120   6.015   3.951  0.2227 -0.4446  0.3080
 5995TIP3    H117949   3.037   5.968   3.941 -0.4610  0.8822 -0.5990
 5995TIP3    H217950   3.186   5.951   3.925 -0.8422 -0.1931 -3.8252
 5996TIP3   OH217951   6.707   6.183   0.831  0.5599 -1.1620  0.1571
 5996TIP3    H117952   6.687   6.101   0.785 -0.8165 -0.9379  0.3101
 5996TIP3    H217953   6.622   6.213   0.864  1.1188  0.0833  0.5165
 5997TIP3   OH217954   0.121   5.342   0.559  0.2868 -0.4455 -0.2607
 5997TIP3    H117955   0.154   5.376   0.476 -0.0815  1.8168  0.4481
 5997TIP3    H217956   0.198   5.334   0.614  0.4699 -1.5058 -0.6515
 5998TIP3   OH217957   5.228   1.805   1.418 -0.3025  0.0861  0.3758
 5998TIP3    H117958   5.187   1.881   1.458 -0.3184  0.2631  0.0227
 5998TIP3    H217959   5.163   1.735   1.429 -0.3229  0.1426  0.6240
 5999TIP3   OH217960   2.930   1.450   5.438  0.7817 -0.3797 -0.0043
 5999TIP3    H117961   2.956   1.511   5.370 -0.4488  0.2449  0.0705
 5999TIP3    H217962   2.841   1.474   5.461  0.8495 -1.1430  1.2083
 6000TIP3   OH217963   0.589   6.594   0.469 -0.2170  0.4210 -0.5864
 6000TIP3    H117964   0.527   6.531   0.432 -1.1873 -0.0261  1.6388
 6000TIP3    H217965   0.646   6.617   0.395 -0.3195 -2.4411 -1.6922
 6001TIP3   OH217966   4.158   1.218   1.769  0.3222  0.1099  0.2455
 6001TIP3    H117967   4.094   1.264   1.824  0.2748 -0.5109  0.7124
 6001TIP3    H217968   4.107   1.188   1.693  0.1076 -0.2006  0.5128
 6002TIP3   OH217969   1.488   5.549   3.208 -0.1955  0.3837  0.0827
 6002TIP3    H117970   1.494   5.467   3.258 -0.4486  1.0992  1.3429
 6002TIP3    H217971   1.494   5.522   3.116 -1.2132 -1.1449  0.4265
 6003TIP3   OH217972   0.815   5.363   3.541  0.1506 -0.1270  0.0453
 6003TIP3    H117973   0.852   5.280   3.571 -0.3162 -0.3790 -0.0735
 6003TIP3    H217974   0.891   5.415   3.515  0.6435  0.2685  2.0581
 6004TIP3   OH217975   2.425   2.238   2.342  0.3277  0.5055  0.1599
 6004TIP3    H117976   2.431   2.275   2.430 -2.8097 -0.8138  1.0591
 6004TIP3    H217977   2.438   2.144   2.354  1.2111  0.4571 -1.0137
 6005TIP3   OH217978   2.609   5.409   1.204  0.1719 -0.0158 -0.1662
 6005TIP3    H117979   2.536   5.403   1.266  0.5594  0.3126  0.3258
 6005TIP3    H217980   2.581   5.476   1.141 -0.4561 -0.7381 -0.6730
 6006TIP3   OH217981   1.597   2.126   1.190 -0.0073 -0.7495 -0.0929
 6006TIP3    H117982   1.596   2.118   1.285  1.8730 -1.6958 -0.1236
 6006TIP3    H217983   1.605   2.221   1.174  0.3649 -0.6460  0.6945
 6007TIP3   OH217984   1.292   3.543   3.872  0.4082 -0.0844 -0.1265
 6007TIP3    H117985   1.243   3.541   3.790  1.6337  0.2835 -0.9057
 6007TIP3    H217986   1.240   3.599   3.930 -0.6429 -0.6239 -0.5235
 6008TIP3   OH217987   0.496   5.149   2.383 -0.0018  0.1782  0.1270
 6008TIP3    H117988   0.590   5.164   2.373 -0.4006  2.2803 -1.0465
 6008TIP3    H217989   0.489   5.058   2.414  2.2992 -0.7200 -1.6958
 6009TIP3   OH217990   2.145   4.839   0.270  0.4371 -0.2289 -0.3346
 6009TIP3    H117991   2.102   4.758   0.241  0.7616  0.2913 -2.4348
 6009TIP3    H217992   2.197   4.812   0.345  1.9478 -2.4397 -2.0081
 6010TIP3   OH217993   5.002   5.444   2.180 -0.2897  0.2396  0.9480
 6010TIP3    H117994   5.041   5.429   2.094 -0.5655 -1.6607  1.1197
 6010TIP3    H217995   5.071   5.421   2.242 -0.4495  0.5335  1.2386
 6011TIP3   OH217996   0.410   2.711   4.744 -0.0508 -0.3487  0.6640
 6011TIP3    H117997   0.434   2.625   4.778 -1.1694 -0.5124  1.0558
 6011TIP3    H217998   0.417   2.770   4.819  0.3917 -0.1439  0.4710
 6012TIP3   OH217999   5.829   3.670   3.316  0.1717 -0.1023 -0.2734
 6012TIP3    H118000   5.810   3.577   3.309  1.7138 -0.5331  0.9207
 6012TIP3    H218001   5.750   3.707   3.357 -0.3702 -0.8843 -0.5853
 6013TIP3   OH218002   3.620   2.839   2.160 -0.0651  0.6870 -0.2962
 6013TIP3    H118003   3.585   2.891   2.087  1.0519  0.0594 -1.3207
 6013TIP3    H218004   3.649   2.904   2.224  0.1271  1.2978 -0.9866
 6014TIP3   OH218005   7.230   6.048   2.191 -0.1275 -0.7046  0.7527
 6014TIP3    H118006   7.273   6.013   2.112 -0.2284  2.2271 -0.7214
 6014TIP3    H218007   7.140   6.015   2.185  0.0463 -1.0786  0.0042
 6015TIP3   OH218008   6.552   5.527   1.621 -0.0150 -0.3551 -0.3037
 6015TIP3    H118009   6.571   5.503   1.711  0.0173  0.5231 -0.0720
 6015TIP3    H218010   6.616   5.478   1.569  0.7536  0.0600  0.2347
 6016TIP3   OH218011   6.210   0.551   5.681  0.0990  0.0258 -0.6766
 6016TIP3    H118012   6.201   0.632   5.631 -2.4626 -1.3191 -2.6259
 6016TIP3    H218013   6.224   0.483   5.615 -1.7272 -1.6005  0.4921
 6017TIP3   OH218014   0.279   6.294   2.049  0.2866  0.3533 -0.1107
 6017TIP3    H118015   0.221   6.251   1.986 -2.0098  1.0636  1.4018
 6017TIP3    H218016   0.328   6.357   1.997  0.2547 -0.7747 -1.5683
 6018TIP3   OH218017   4.947   4.025   3.277  0.0862  0.1711  0.1201
 6018TIP3    H118018   5.015   4.045   3.340 -0.3257 -1.7071  1.2355
 6018TIP3    H218019   4.871   4.001   3.330 -0.5617 -0.5445 -1.0874
 6019TIP3   OH218020   2.236   2.248   0.974 -0.8282  0.0911  0.1357
 6019TIP3    H118021   2.287   2.195   1.036  0.8976  0.0562 -1.2389
 6019TIP3    H218022   2.225   2.332   1.018 -0.7100 -0.3312  0.9879
 6020TIP3   OH218023   6.654   2.022   4.278  0.3802 -0.5280  0.1229
 6020TIP3    H118024   6.695   2.010   4.364 -1.3686  0.2036  1.1058
 6020TIP3    H218025   6.636   1.934   4.247  2.8927 -0.9067 -0.4984
 6021TIP3   OH218026   4.892   3.958   4.310  0.1733  0.2106 -0.4296
 6021TIP3    H118027   4.851   3.879   4.277 -0.6591  0.8539 -0.9518
 6021TIP3    H218028   4.941   3.929   4.387 -3.2954 -0.1966  1.8214
 6022TIP3   OH218029   2.869   0.831   0.882  0.4730  0.3545 -0.3705
 6022TIP3    H118030   2.947   0.853   0.934 -0.2359 -0.0989  0.9205
 6022TIP3    H218031   2.885   0.741   0.853  0.3947  0.2291 -0.0290
 6023TIP3   OH218032   6.120   0.967   2.709  0.2086 -0.3186  0.3402
 6023TIP3    H118033   6.210   0.998   2.694 -0.1652  0.8831  0.4744
 6023TIP3    H218034   6.108   0.976   2.804 -0.1606 -0.1442  0.2793
 6024TIP3   OH218035   5.501   0.650   0.628 -0.1239  0.4110 -0.2178
 6024TIP3    H118036   5.472   0.731   0.585  0.8956 -0.4784 -2.8009
 6024TIP3    H218037   5.425   0.592   0.625 -0.7498  1.1095  1.3223
 6025TIP3   OH218038   1.117   0.470  -0.006 -0.9021  0.5884 -0.1386
 6025TIP3    H118039   1.157   0.395   0.038 -1.8377 -0.7657 -1.4983
 6025TIP3    H218040   1.101   0.533   0.064  0.2214 -0.3317  0.9889
 6026TIP3   OH218041   6.959   6.753   4.149 -0.1740 -0.5219  0.2230
 6026TIP3    H118042   7.034   6.721   4.199  1.0819  0.1220 -1.1719
 6026TIP3    H218043   6.908   6.803   4.213  1.7498  0.8936  0.7587
 6027TIP3   OH218044   0.769   1.748   0.377 -0.3454  0.1979  0.2429
 6027TIP3    H118045   0.818   1.792   0.447  0.1342 -0.9104  0.6272
 6027TIP3    H218046   0.757   1.816   0.311  2.4108  0.3635 -0.2263
 6028TIP3   OH218047   2.942   6.417   2.314 -0.0048 -0.1656  0.4644
 6028TIP3    H118048   2.928   6.495   2.366  0.6728  0.0833  0.2878
 6028TIP3    H218049   2.860   6.368   2.320 -0.7246  0.9448 -0.0822
 6029TIP3   OH218050   5.365   6.581   4.613  0.2927 -0.3574 -0.3590
 6029TIP3    H118051   5.429   6.534   4.666 -1.4275 -0.0817  2.1643
 6029TIP3    H218052   5.373   6.672   4.641 -0.8089 -0.2393 -0.3838
 6030TIP3   OH218053   4.242   6.423   5.270 -0.1203  0.3100 -0.3038
 6030TIP3    H118054   4.277   6.482   5.204 -1.8655  0.7076 -0.9143
 6030TIP3    H218055   4.177   6.475   5.318  1.3528  0.1516  2.0182
 6031TIP3   OH218056   0.417   3.208   0.668 -0.1395 -0.1241 -0.3151
 6031TIP3    H118057   0.431   3.201   0.763  2.6296 -0.5221 -0.6718
 6031TIP3    H218058   0.427   3.119   0.636 -1.6769 -0.0949 -0.9786
 6032TIP3   OH218059   4.784   4.098   0.933 -0.2639 -0.3689 -0.7566
 6032TIP3    H118060   4.825   4.034   0.992 -0.1785 -2.1539 -2.6584
 6032TIP3    H218061   4.742   4.160   0.992  1.8369 -0.6788  1.2286
 6033TIP3   OH218062   2.775   3.568   5.611 -0.2590 -0.3597  0.4780
 6033TIP3    H118063   2.853   3.513   5.616  0.4231  0.4765 -0.4178
 6033TIP3    H218064   2.708   3.520   5.659  0.9432 -0.8540  1.7202
 6034TIP3   OH218065   5.221   0.908   4.944 -0.1493  0.6492 -0.1714
 6034TIP3    H118066   5.192   0.999   4.948 -0.5639  0.5082  0.0264
 6034TIP3    H218067   5.280   0.905   4.868  1.2447  1.4765  0.8176
 6035TIP3   OH218068   2.796   5.788   2.829 -0.2189  0.3160  0.0036
 6035TIP3    H118069   2.771   5.869   2.786 -0.6696 -1.4412 -3.4074
 6035TIP3    H218070   2.891   5.783   2.818 -0.0818  0.6904  0.9076
 6036TIP3   OH218071   3.071   0.382   0.297 -0.3709  0.2417  0.2629
 6036TIP3    H118072   3.023   0.377   0.215  1.1476 -0.4753 -0.6175
 6036TIP3    H218073   3.117   0.298   0.304  1.5498  1.2503  0.5299
 6037TIP3   OH218074   1.489   5.565   5.568  0.1401  0.2586 -0.4241
 6037TIP3    H118075   1.561   5.620   5.598  0.6730  0.2192 -1.5944
 6037TIP3    H218076   1.531   5.485   5.535 -0.4034  0.2959 -1.2486
 6038TIP3   OH218077   0.615   6.189   3.664 -0.5246 -0.7848 -0.6277
 6038TIP3    H118078   0.684   6.230   3.716  1.7047 -2.0813 -2.3950
 6038TIP3    H218079   0.533   6.223   3.702  1.0178  0.5255  1.8064
 6039TIP3   OH218080   0.424   2.457   2.719 -0.3340  0.5247 -0.3042
 6039TIP3    H118081   0.482   2.449   2.795 -0.1982  0.1047 -0.4540
 6039TIP3    H218082   0.429   2.550   2.696 -1.9684  1.1096  1.4550
 6040TIP3   OH218083   3.992   0.061   2.563 -0.0113 -0.0475  0.1876
 6040TIP3    H118084   3.942   0.111   2.498 -1.6195  0.2492  1.6002
 6040TIP3    H218085   3.973   0.105   2.646  1.9143 -0.4884  0.9004
 6041TIP3   OH218086   2.023   6.625   4.030  0.7338 -0.1226  0.2526
 6041TIP3    H118087   2.032   6.533   4.007  0.2201 -0.1131 -0.0118
 6041TIP3    H218088   1.979   6.624   4.115  1.3209 -0.1309  0.5600
 6042TIP3   OH218089   4.960   5.956   1.772  0.2559 -0.2418  0.5011
 6042TIP3    H118090   4.894   5.894   1.741 -0.0188  0.4592 -0.3956
 6042TIP3    H218091   4.911   6.037   1.787  0.8372  0.1746  0.1990
 6043TIP3   OH218092   4.474   4.624   3.449 -0.2058  0.1261 -0.1813
 6043TIP3    H118093   4.461   4.702   3.503  0.9341  0.9644 -1.0613
 6043TIP3    H218094   4.509   4.658   3.367  0.1365 -1.3132 -0.6517
 6044TIP3   OH218095   6.058   5.273   0.227  0.4900 -0.1383  0.3089
 6044TIP3    H118096   6.057   5.231   0.313 -0.0524 -0.0002  0.3739
 6044TIP3    H218097   5.966   5.292   0.209  0.6405  0.1719 -0.1373
 6045TIP3   OH218098   3.942   1.381   4.453  0.2511  0.4269 -0.9952
 6045TIP3    H118099   3.857   1.420   4.472  0.5859  1.2185 -1.0638
 6045TIP3    H218100   3.975   1.430   4.378  0.1144 -0.8887 -1.9407
 6046TIP3   OH218101   3.517   0.868   3.057 -0.2502  0.2916  0.1945
 6046TIP3    H118102   3.517   0.929   3.130  0.9349  0.4916  0.0431
 6046TIP3    H218103   3.434   0.884   3.012 -0.0592  1.6248  0.2925
 6047TIP3   OH218104   0.869   5.474   4.294 -0.6690  0.6050  0.1935
 6047TIP3    H118105   0.775   5.483   4.310 -1.1034  1.2278 -2.3376
 6047TIP3    H218106   0.877   5.397   4.238  0.0236  1.9665 -1.6699
 6048TIP3   OH218107   1.365   4.979   0.747  0.2034  0.1926 -0.2888
 6048TIP3    H118108   1.435   5.037   0.778 -0.0603  0.6581 -0.5567
 6048TIP3    H218109   1.286   5.013   0.788 -0.1988  0.9857 -1.6509
 6049TIP3   OH218110   1.296   5.279   0.946  0.0627 -0.2053  0.5172
 6049TIP3    H118111   1.269   5.346   1.008  0.3045 -0.5593  1.0101
 6049TIP3    H218112   1.392   5.283   0.947  0.0793 -0.6361  0.6301
 6050TIP3   OH218113   0.602   0.630   1.772  0.2672 -0.6799 -0.3358
 6050TIP3    H118114   0.533   0.669   1.719  0.5175 -1.0828 -0.9678
 6050TIP3    H218115   0.667   0.700   1.782 -0.1448 -0.3514  0.1266
 6051TIP3   OH218116   0.538   4.571   0.628  0.1028  0.1948 -0.2910
 6051TIP3    H118117   0.455   4.603   0.664  0.0128 -0.5193  0.1505
 6051TIP3    H218118   0.538   4.477   0.646  1.5830  0.3725  0.8908
 6052TIP3   OH218119   5.684   4.904   0.110 -0.0264  0.3535 -0.0532
 6052TIP3    H118120   5.749   4.954   0.060  0.4845 -0.9396 -0.7386
 6052TIP3    H218121   5.720   4.900   0.199  1.2641 -1.0040 -0.5955
 6053TIP3   OH218122   5.121   2.516   3.055  0.8205  0.4965  0.0863
 6053TIP3    H118123   5.154   2.433   3.088  0.9014  0.4003 -0.2363
 6053TIP3    H218124   5.026   2.507   3.058  0.8290  0.3483 -0.0548
 6054TIP3   OH218125   7.081   1.235   5.168  0.1520 -0.2098  1.0973
 6054TIP3    H118126   7.105   1.296   5.099 -1.1084  0.1148  0.9287
 6054TIP3    H218127   7.165   1.203   5.202  0.8189 -1.4074 -1.4535
 6055TIP3   OH218128   1.955   3.457   4.331 -0.2887  0.7341  0.2885
 6055TIP3    H118129   1.906   3.399   4.273 -0.0192  1.4867 -0.7179
 6055TIP3    H218130   1.938   3.423   4.419 -1.7515  0.3419 -0.1201
 6056TIP3   OH218131   1.744   0.920   1.517  0.0992  0.2638 -0.0424
 6056TIP3    H118132   1.810   0.898   1.583 -0.1733 -0.4999 -0.0078
 6056TIP3    H218133   1.789   0.910   1.434  0.1502  0.1756 -0.0049
 6057TIP3   OH218134   6.783   4.039   5.027 -0.3940  0.1158 -0.1965
 6057TIP3    H118135   6.839   4.071   5.098 -0.8074  0.6017 -0.0851
 6057TIP3    H218136   6.786   3.944   5.036 -1.0191  0.1793  0.9461
 6058TIP3   OH218137   3.168   6.510   1.786 -0.0672 -0.3815 -0.2602
 6058TIP3    H118138   3.114   6.536   1.860  1.7137 -1.5490  1.5750
 6058TIP3    H218139   3.239   6.574   1.785  0.6541 -1.1543 -0.0491
 6059TIP3   OH218140   5.129   5.448   1.912  0.5459  1.0116 -0.2841
 6059TIP3    H118141   5.067   5.497   1.858 -3.3551 -2.0278  0.9578
 6059TIP3    H218142   5.176   5.392   1.851 -0.4367  0.9554 -1.0195
 6060TIP3   OH218143   0.922   4.992   0.785  0.4563  0.3469 -0.3390
 6060TIP3    H118144   0.850   4.930   0.777  1.3448 -0.8080  0.2270
 6060TIP3    H218145   0.955   5.003   0.696  0.7313 -0.5715 -0.3651
 6061TIP3   OH218146   0.192   6.217   2.774  0.0371 -0.2087  0.0658
 6061TIP3    H118147   0.264   6.240   2.833  0.4571 -1.6898  0.1774
 6061TIP3    H218148   0.114   6.250   2.817  0.3716 -0.9930  1.3283
 6062TIP3   OH218149   4.141   6.766   0.828 -0.0755  0.3167  0.6899
 6062TIP3    H118150   4.045   6.759   0.830 -0.3275  2.3454 -0.8541
 6062TIP3    H218151   4.165   6.738   0.739  0.7354  0.1063  0.9714
 6063TIP3   OH218152   1.924   3.013   2.750 -0.4004  0.0335  0.2174
 6063TIP3    H118153   1.916   3.016   2.846 -2.7355 -1.4091  0.1512
 6063TIP3    H218154   1.951   2.923   2.732  1.4501  0.6897 -0.4659
 6064TIP3   OH218155   0.998   4.073   4.523  0.2601  0.5491  0.5992
 6064TIP3    H118156   1.047   4.005   4.569 -0.6759  0.6700  1.8286
 6064TIP3    H218157   0.992   4.041   4.433  0.1311 -0.8431  1.0710
 6065TIP3   OH218158   3.110   1.067   5.224 -0.2936 -0.3235 -0.2940
 6065TIP3    H118159   3.146   1.083   5.136  0.5781  0.6860  0.2308
 6065TIP3    H218160   3.150   0.985   5.252  1.8789  0.8891  0.3743
 6066TIP3   OH218161   0.813   5.402   5.483 -0.1512 -0.6560 -0.1762
 6066TIP3    H118162   0.816   5.417   5.388 -0.6274  1.0419  0.0418
 6066TIP3    H218163   0.899   5.428   5.515 -0.4360  0.0868  0.0081
 6067TIP3   OH218164   1.861   3.833   2.842  0.1513  0.3751  0.0830
 6067TIP3    H118165   1.934   3.894   2.834 -0.8300  1.4426 -1.0241
 6067TIP3    H218166   1.788   3.876   2.797 -0.9687 -0.9761  0.5394
 6068TIP3   OH218167   0.252   2.977   5.790 -0.6660  0.0618  0.5590
 6068TIP3    H118168   0.160   2.963   5.766 -1.0853  0.1935  2.0060
 6068TIP3    H218169   0.256   3.069   5.818  0.5333  0.9150 -2.0956
 6069TIP3   OH218170   6.150   0.515   3.920  0.6565 -0.1083  0.3043
 6069TIP3    H118171   6.146   0.610   3.930 -0.0716 -0.2146  1.0534
 6069TIP3    H218172   6.210   0.486   3.989 -1.0514 -0.4192  1.7131
 6070TIP3   OH218173   6.506   2.666   4.046 -0.2556 -0.2725  0.5672
 6070TIP3    H118174   6.564   2.594   4.021  0.3546  0.2623  0.4182
 6070TIP3    H218175   6.513   2.729   3.974  0.8535  0.8974  1.6459
 6071TIP3   OH218176   1.822   4.912   5.525  0.8101  0.6352 -0.0149
 6071TIP3    H118177   1.776   4.863   5.457  1.1916  2.0250 -1.3406
 6071TIP3    H218178   1.914   4.890   5.512  0.8863  0.9175  0.0417
 6072TIP3   OH218179   6.452   1.420   5.241  0.0055 -0.0324 -0.1338
 6072TIP3    H118180   6.387   1.438   5.309 -0.3287  1.5578 -0.8400
 6072TIP3    H218181   6.404   1.372   5.173  0.1159 -0.7739  0.2946
 6073TIP3   OH218182   6.932   4.254   3.156  0.0822  0.0141 -0.2635
 6073TIP3    H118183   7.018   4.221   3.130 -0.0318  0.3960 -1.1613
 6073TIP3    H218184   6.930   4.345   3.124 -0.0747  0.5035  1.0965
 6074TIP3   OH218185   1.086   5.018   4.028  0.0397 -0.4543 -0.5284
 6074TIP3    H118186   1.160   4.979   4.074 -0.6444 -1.0519  0.1089
 6074TIP3    H218187   1.049   4.947   3.976 -1.5764 -0.9052  1.0970
 6075TIP3   OH218188   1.916   5.970   2.719 -0.2412  1.1573 -0.0125
 6075TIP3    H118189   1.905   5.876   2.735  1.0876  0.7769 -1.1142
 6075TIP3    H218190   1.843   6.011   2.766 -1.0823 -0.4460  0.1622
 6076TIP3   OH218191   5.949   2.557   2.477  0.5456 -0.1355 -0.0338
 6076TIP3    H118192   5.965   2.465   2.455  0.3509  0.1550 -1.4649
 6076TIP3    H218193   5.952   2.602   2.393 -1.5870  0.8490  0.3726
 6077TIP3   OH218194   0.146   2.407   4.777  0.0344 -0.5226  0.3622
 6077TIP3    H118195   0.075   2.466   4.801  0.4324 -0.3095  1.0699
 6077TIP3    H218196   0.196   2.455   4.711  0.3635 -0.0385  0.9441
 6078TIP3   OH218197   4.509   2.055   0.501 -0.6788 -0.1958  0.4854
 6078TIP3    H118198   4.488   1.962   0.507  3.2677 -1.1680  2.1642
 6078TIP3    H218199   4.560   2.063   0.420  1.0978 -0.0592  1.5795
 6079TIP3   OH218200   1.443   4.997   4.148 -0.3765  0.5650  0.1192
 6079TIP3    H118201   1.415   4.965   4.233 -0.8063  1.1800  0.2131
 6079TIP3    H218202   1.396   5.080   4.136 -0.4777  0.3916 -0.7986
 6080TIP3   OH218203   3.164   3.246   4.179  0.1572 -0.3915 -0.4665
 6080TIP3    H118204   3.253   3.215   4.196  0.6807  0.5273 -1.4252
 6080TIP3    H218205   3.156   3.248   4.084  0.0213  1.9551 -0.4728
 6081TIP3   OH218206   7.052   0.831   2.713  0.1220 -0.5221  0.4386
 6081TIP3    H118207   7.095   0.791   2.637 -0.7130  0.7420 -0.7566
 6081TIP3    H218208   7.027   0.758   2.769  1.2074 -1.4502 -0.2538
 6082TIP3   OH218209   4.902   4.457   2.041 -0.0043  0.3242  0.0051
 6082TIP3    H118210   4.816   4.415   2.048 -0.1412  0.5753 -0.1516
 6082TIP3    H218211   4.964   4.385   2.036 -0.1825  0.1400  0.3949
 6083TIP3   OH218212   5.512   0.916   1.782  0.2437 -0.6551 -0.1585
 6083TIP3    H118213   5.437   0.976   1.783  0.3989 -0.4676  0.2794
 6083TIP3    H218214   5.526   0.898   1.690  1.6903  1.8430 -0.5202
 6084TIP3   OH218215   1.079   6.408   3.630  0.2384 -0.7318 -0.4278
 6084TIP3    H118216   1.148   6.473   3.645 -0.1296 -0.5224  0.4475
 6084TIP3    H218217   1.093   6.377   3.541  1.6904 -0.9676 -0.1277
 6085TIP3   OH218218   6.964   6.726   5.861  0.0943 -0.3372 -0.2006
 6085TIP3    H118219   6.895   6.765   5.807  0.6506  2.0915  0.6942
 6085TIP3    H218220   6.933   6.637   5.879 -2.0534  0.1626 -1.0866
 6086TIP3   OH218221   5.633   3.189   1.407  0.0915 -0.4379 -0.2107
 6086TIP3    H118222   5.709   3.133   1.422 -0.7669 -1.5915 -0.0307
 6086TIP3    H218223   5.578   3.140   1.346  1.2513  2.0430 -3.5327
 6087TIP3   OH218224   1.220   4.428   1.233 -0.4839  0.5595 -0.3240
 6087TIP3    H118225   1.295   4.454   1.179 -1.9724  1.7406 -1.9386
 6087TIP3    H218226   1.181   4.511   1.260 -1.6929 -0.0295 -0.2171
 6088TIP3   OH218227   0.071   4.959   3.854 -0.3890  0.4305  0.0390
 6088TIP3    H118228   0.129   5.036   3.854 -1.9238  1.6633  1.0200
 6088TIP3    H218229  -0.008   4.990   3.898 -0.6528 -2.0372  1.4721
 6089TIP3   OH218230   4.337   5.455   3.708  0.2965 -0.0041  0.3958
 6089TIP3    H118231   4.271   5.421   3.649  1.1219 -0.6469 -0.1903
 6089TIP3    H218232   4.309   5.544   3.728 -0.8120 -0.3202  0.2908
 6090TIP3   OH218233  -0.026   2.646   2.424 -0.2011 -0.0437  0.5820
 6090TIP3    H118234   0.014   2.702   2.491 -0.5194  0.1856  0.5865
 6090TIP3    H218235   0.046   2.620   2.367 -0.2067  1.2175 -0.0275
 6091TIP3   OH218236   2.667   5.356   3.793 -0.2859  0.0022 -0.5161
 6091TIP3    H118237   2.580   5.386   3.764  0.1186  0.1920 -1.5686
 6091TIP3    H218238   2.663   5.261   3.785 -0.0034  0.0801 -1.7515
 6092TIP3   OH218239   3.986   0.274   2.743 -0.0720  0.3570  0.1637
 6092TIP3    H118240   4.066   0.323   2.723 -0.9766  1.7276 -0.2360
 6092TIP3    H218241   3.960   0.305   2.830 -0.0517 -0.2413  0.3840
 6093TIP3   OH218242   6.685   2.598   0.752 -0.3248 -0.0671  0.4373
 6093TIP3    H118243   6.679   2.639   0.838 -1.3538  0.4743  0.1295
 6093TIP3    H218244   6.594   2.581   0.728 -0.1580  0.9152 -1.0561
 6094TIP3   OH218245   3.530   3.581   5.350  0.3686 -0.3965  0.0504
 6094TIP3    H118246   3.561   3.496   5.319  0.7341  0.2123 -1.3294
 6094TIP3    H218247   3.435   3.578   5.339  0.3595 -0.7029  0.2082
 6095TIP3   OH218248   5.617   6.787   2.970 -0.1572  0.1250  0.1037
 6095TIP3    H118249   5.564   6.773   2.892  0.4260  1.6427 -0.5960
 6095TIP3    H218250   5.695   6.733   2.957 -1.2863 -1.8001  0.9543
 6096TIP3   OH218251   1.335   4.587   5.045  0.2276  0.6725  0.2329
 6096TIP3    H118252   1.318   4.498   5.074  0.4311  0.7026  0.4462
 6096TIP3    H218253   1.249   4.629   5.045 -0.4089 -0.3918 -2.8935
 6097TIP3   OH218254   0.563   1.981   1.941  0.0517  0.1434  0.3528
 6097TIP3    H118255   0.629   1.943   1.882 -1.5698 -0.3196 -1.2567
 6097TIP3    H218256   0.570   2.075   1.927 -0.4512  0.0264 -0.7606
 6098TIP3   OH218257   4.304   6.779   2.372 -0.2446  0.6161  0.3594
 6098TIP3    H118258   4.320   6.687   2.351 -1.4329  0.2247  1.0302
 6098TIP3    H218259   4.320   6.825   2.290  2.6921  0.1591  0.5935
 6099TIP3   OH218260   5.448   2.793   5.134  0.2507 -0.5879  0.2343
 6099TIP3    H118261   5.391   2.800   5.210 -0.2398 -2.7660  0.1236
 6099TIP3    H218262   5.536   2.781   5.171 -0.1155 -2.6828  0.5412
 6100TIP3   OH218263   1.814   3.311   4.091 -0.7703  0.0192 -0.3752
 6100TIP3    H118264   1.882   3.303   4.024  0.3013  1.0773  0.5303
 6100TIP3    H218265   1.732   3.299   4.044  0.0240 -1.5701 -1.4736
 6101TIP3   OH218266   2.273   5.869   0.534 -0.5081 -0.3290 -0.1692
 6101TIP3    H118267   2.242   5.892   0.446  2.1452  0.2674 -1.0350
 6101TIP3    H218268   2.366   5.891   0.533 -0.0184 -1.9222  2.2439
 6102TIP3   OH218269   2.266   3.634   5.414 -0.5556 -0.0267 -0.4409
 6102TIP3    H118270   2.358   3.657   5.403 -0.4796 -0.4659 -0.7783
 6102TIP3    H218271   2.248   3.648   5.507 -0.0162 -0.3957 -0.2741
 6103TIP3   OH218272   2.164   0.648   5.267 -0.1343 -0.5738 -0.8075
 6103TIP3    H118273   2.249   0.653   5.312 -1.7457  0.8490  2.3812
 6103TIP3    H218274   2.131   0.738   5.269 -1.9526 -1.1898 -1.4439
 6104TIP3   OH218275   4.057   1.849   0.710 -0.0128  0.5006 -0.0564
 6104TIP3    H118276   4.135   1.872   0.659 -0.3326  1.9537  0.0740
 6104TIP3    H218277   3.984   1.865   0.651 -0.2937  0.5997  0.3164
 6105TIP3   OH218278   7.122   5.968   1.313  0.3130  0.1966 -0.2926
 6105TIP3    H118279   7.035   6.004   1.293  0.1383 -0.1865 -0.2262
 6105TIP3    H218280   7.169   5.971   1.229 -0.3529 -1.2300 -0.7347
 6106TIP3   OH218281   0.661   2.332   1.130 -0.0739 -0.0972  0.1775
 6106TIP3    H118282   0.586   2.369   1.177  1.1558  0.7356  1.5909
 6106TIP3    H218283   0.723   2.405   1.122 -0.5845  0.0850 -3.7425
 6107TIP3   OH218284   3.321   2.887   4.873 -0.0226 -0.2235 -0.4601
 6107TIP3    H118285   3.315   2.983   4.877  0.4505 -0.1235 -1.7081
 6107TIP3    H218286   3.339   2.868   4.781 -0.1390 -1.5243 -0.2314
 6108TIP3   OH218287   4.702   6.452   3.217  0.3506 -0.5183  0.4698
 6108TIP3    H118288   4.659   6.467   3.133  0.7142 -0.6449  0.2582
 6108TIP3    H218289   4.631   6.444   3.280 -0.1191 -3.3333 -0.2748
 6109TIP3   OH218290   6.421   2.324   3.179  0.1361 -0.5153  0.3106
 6109TIP3    H118291   6.367   2.316   3.257 -1.2347 -0.7863 -0.6170
 6109TIP3    H218292   6.367   2.373   3.117  1.1594 -0.3505 -0.4854
 6110TIP3   OH218293   0.671   6.133   4.626 -0.2236 -0.0190  0.0507
 6110TIP3    H118294   0.581   6.163   4.617 -0.6728 -1.1255  0.7194
 6110TIP3    H218295   0.689   6.086   4.545 -0.0699  0.6015 -0.2870
 6111TIP3   OH218296   1.353   2.604   2.986 -0.1970  0.3127  0.5182
 6111TIP3    H118297   1.280   2.665   2.977 -0.7722 -0.5373 -0.9243
 6111TIP3    H218298   1.415   2.631   2.919 -0.8940 -1.2214 -0.8173
 6112TIP3   OH218299   3.509   0.310   4.148 -0.7039  0.4947 -0.3018
 6112TIP3    H118300   3.533   0.337   4.060 -1.0983 -0.0680 -0.5830
 6112TIP3    H218301   3.444   0.375   4.177 -1.2318  0.1685 -0.7580
 6113TIP3   OH218302   1.233   3.855   2.402 -0.5887  0.0004  0.1494
 6113TIP3    H118303   1.233   3.841   2.497 -0.6727  1.4790  0.3946
 6113TIP3    H218304   1.175   3.787   2.368  0.2943 -1.2412  1.0230
 6114TIP3   OH218305   1.894   5.868   5.091  0.0666 -0.5178 -0.0810
 6114TIP3    H118306   1.890   5.835   5.181 -1.4730  1.1259  0.5123
 6114TIP3    H218307   1.861   5.795   5.038 -1.5809 -0.6044  0.9896
 6115TIP3   OH218308   1.323   0.048   2.325 -0.1793  0.2906  0.1253
 6115TIP3    H118309   1.324   0.135   2.285  1.3125  0.1222 -0.2667
 6115TIP3    H218310   1.348   0.063   2.416 -0.4912  0.3226  0.2085
 6116TIP3   OH218311   0.011   1.520   3.346 -0.2979 -0.3198  0.2254
 6116TIP3    H118312   0.101   1.505   3.315  1.4292  2.0860  3.4764
 6116TIP3    H218313  -0.016   1.601   3.301  0.2024  0.3590  1.1239
 6117TIP3   OH218314   2.641   5.147   1.472 -0.7310  0.4256  0.0211
 6117TIP3    H118315   2.713   5.208   1.491  0.8132 -1.5691  0.9382
 6117TIP3    H218316   2.564   5.203   1.465  0.7760  2.5818 -0.2537
 6118TIP3   OH218317   5.307   3.611   3.732  0.1186 -0.0083 -0.5077
 6118TIP3    H118318   5.363   3.534   3.718 -0.5376 -0.4095 -0.9945
 6118TIP3    H218319   5.360   3.685   3.704  0.8732 -0.2420  0.2503
 6119TIP3   OH218320   1.504   1.739   4.435 -0.2517  0.5887 -0.0884
 6119TIP3    H118321   1.440   1.738   4.364  0.1968 -1.7504 -0.5635
 6119TIP3    H218322   1.452   1.740   4.515 -0.9061 -0.6580 -0.4672
 6120TIP3   OH218323   2.870   4.613   4.147 -0.0860 -0.6866 -0.6092
 6120TIP3    H118324   2.942   4.673   4.128 -0.2808 -0.4282 -0.5385
 6120TIP3    H218325   2.907   4.552   4.211 -0.1319 -0.1430 -0.0598
 6121TIP3   OH218326   4.685   3.289   4.058  0.3489  0.4755 -0.4562
 6121TIP3    H118327   4.609   3.337   4.091  1.4499  1.9403  0.0215
 6121TIP3    H218328   4.671   3.285   3.964 -0.3558  0.6672 -0.3681
 6122TIP3   OH218329   3.674   4.453   1.121 -0.4806  0.1237  0.2487
 6122TIP3    H118330   3.671   4.445   1.025  0.5771  0.4740  0.1806
 6122TIP3    H218331   3.584   4.438   1.148 -0.7272 -0.3705 -0.7763
 6123TIP3   OH218332   0.416   5.661   2.407  0.2759 -0.0686 -0.6319
 6123TIP3    H118333   0.498   5.635   2.364  0.7212  0.2209  0.0216
 6123TIP3    H218334   0.361   5.583   2.404  1.4770 -1.0600  1.0172
 6124TIP3   OH218335   1.424   3.061   1.740  0.0092 -0.6988 -0.1655
 6124TIP3    H118336   1.347   3.079   1.793  0.3510 -0.0669  0.1347
 6124TIP3    H218337   1.412   3.114   1.661  0.2808 -0.3560  0.0213
 6125TIP3   OH218338   1.058   1.232   3.616  0.5971 -0.1661  0.1665
 6125TIP3    H118339   1.107   1.178   3.555  0.8845  0.9133 -0.5910
 6125TIP3    H218340   1.041   1.175   3.691  1.9962 -0.9084 -0.0521
 6126TIP3   OH218341   3.723   3.041   5.544 -0.0383  0.5017 -0.2699
 6126TIP3    H118342   3.770   2.971   5.500 -0.6577  0.3429 -0.7000
 6126TIP3    H218343   3.646   3.056   5.489 -1.1527 -0.1192  1.0415
 6127TIP3   OH218344   3.331   1.365   3.923  0.7406 -0.3301  0.4787
 6127TIP3    H118345   3.236   1.362   3.937  0.3110 -3.0175 -1.9546
 6127TIP3    H218346   3.359   1.446   3.965 -2.9013  1.4971 -0.1821
 6128TIP3   OH218347   4.701   0.719   4.792  0.5849 -0.9592  0.5622
 6128TIP3    H118348   4.627   0.699   4.850 -0.6092 -1.6285 -1.1109
 6128TIP3    H218349   4.675   0.798   4.745  2.0097  0.2203  1.6344
 6129TIP3   OH218350   0.950   3.827   4.027 -0.4194  0.0456 -0.5564
 6129TIP3    H118351   1.041   3.807   4.005 -0.2136  0.5135 -0.1470
 6129TIP3    H218352   0.935   3.914   3.990 -0.9068 -0.3049 -1.1937
 6130TIP3   OH218353   3.903   3.480   1.441 -0.5084  0.2074 -0.2657
 6130TIP3    H118354   3.848   3.446   1.370 -0.8895 -1.4142  0.7630
 6130TIP3    H218355   3.861   3.561   1.467 -0.7480  0.4832 -1.4290
 6131TIP3   OH218356   7.141   0.226   4.582 -0.1323 -0.0546 -0.5724
 6131TIP3    H118357   7.191   0.265   4.511  0.5266 -0.7415 -0.5032
 6131TIP3    H218358   7.092   0.155   4.541 -1.6800  1.0785 -0.7843
 6132TIP3   OH218359   1.542   2.897   0.083 -0.0885 -0.4545 -0.1108
 6132TIP3    H118360   1.489   2.823   0.052 -0.2329 -1.4176  2.2161
 6132TIP3    H218361   1.543   2.886   0.178  2.1633  1.0227  0.0843
 6133TIP3   OH218362   5.719   4.830   1.937 -0.1057 -0.2152  0.2645
 6133TIP3    H118363   5.745   4.833   1.845  0.4874  1.2085  0.4528
 6133TIP3    H218364   5.624   4.816   1.935 -0.0241 -0.6939 -0.5428
 6134TIP3   OH218365   5.395   3.235   2.024  0.1528  0.3063  0.5243
 6134TIP3    H118366   5.320   3.246   1.965 -0.4741 -1.1835  0.9963
 6134TIP3    H218367   5.469   3.220   1.965 -0.6934 -2.5669  0.0110
 6135TIP3   OH218368   6.311   2.426   2.929  0.5732 -0.2650  0.1175
 6135TIP3    H118369   6.225   2.465   2.917  1.5233  2.0059  0.1192
 6135TIP3    H218370   6.357   2.442   2.846  1.6975  0.6002  0.8724
 6136TIP3   OH218371   3.826   3.786   3.562 -0.0142  0.1198 -0.4428
 6136TIP3    H118372   3.768   3.745   3.626  0.5115 -1.0606 -0.6906
 6136TIP3    H218373   3.894   3.829   3.615  0.6405 -1.1852 -0.1755
 6137TIP3   OH218374   4.228   3.640   4.276 -0.2709  0.0705  0.0911
 6137TIP3    H118375   4.322   3.625   4.267 -0.2311  0.1428  0.4022
 6137TIP3    H218376   4.221   3.731   4.303 -0.4065 -0.0991  0.6268
 6138TIP3   OH218377   0.167   2.711   4.565  0.1544 -0.4358  0.2268
 6138TIP3    H118378   0.149   2.763   4.486  0.4403  0.9469  1.0443
 6138TIP3    H218379   0.262   2.711   4.572  0.2166 -2.0107 -0.3521
 6139TIP3   OH218380   4.867   1.539   1.318 -0.5812 -0.2675 -0.0344
 6139TIP3    H118381   4.907   1.545   1.232  0.5751 -0.6604  0.4476
 6139TIP3    H218382   4.776   1.564   1.305 -0.6260 -1.0809 -1.5106
 6140TIP3   OH218383   4.078   0.057   0.601  0.3425  0.6532 -0.0460
 6140TIP3    H118384   4.047   0.145   0.623  1.6294  1.0366  0.3159
 6140TIP3    H218385   4.122   0.026   0.680  0.5574 -0.0183 -0.4196
 6141TIP3   OH218386   5.648   0.773   5.105  0.0340  0.1335  0.0824
 6141TIP3    H118387   5.583   0.805   5.168  2.1154 -0.8708  2.9741
 6141TIP3    H218388   5.620   0.683   5.085 -0.1089  0.1111  0.3813
 6142TIP3   OH218389   0.575   5.810   1.871 -0.0004  0.3195 -0.1898
 6142TIP3    H118390   0.666   5.783   1.884 -0.1283 -0.4909 -0.9217
 6142TIP3    H218391   0.532   5.790   1.954  0.6514  1.4583  0.4469
 6143TIP3   OH218392   1.425   0.560   4.441 -0.0652 -0.4382 -0.2242
 6143TIP3    H118393   1.462   0.642   4.408  0.0428 -0.7295 -0.8416
 6143TIP3    H218394   1.425   0.502   4.365  0.7932 -1.3320  0.4478
 6144TIP3   OH218395   7.063   4.429   2.922  0.3808  0.0699  0.0107
 6144TIP3    H118396   7.143   4.413   2.972 -0.1440  0.7718  1.1457
 6144TIP3    H218397   7.018   4.498   2.972 -0.0560  1.0031 -1.5974
 6145TIP3   OH218398   3.833   1.703   4.975 -0.0658  0.3750 -0.0424
 6145TIP3    H118399   3.868   1.630   4.923  1.2801  0.6278  0.4747
 6145TIP3    H218400   3.812   1.664   5.059 -0.1798  0.4071 -0.0557
 6146TIP3   OH218401   6.854   5.388   2.057 -0.0980  0.0149  0.3335
 6146TIP3    H118402   6.883   5.302   2.025  0.0372 -0.0469  0.6237
 6146TIP3    H218403   6.909   5.406   2.133 -1.0170 -0.2438  1.0799
 6147TIP3   OH218404   6.654   3.092   2.653 -0.1192  0.1017 -0.6864
 6147TIP3    H118405   6.720   3.030   2.684 -0.4034 -0.3407 -0.9495
 6147TIP3    H218406   6.705   3.164   2.616  0.2290  0.6247  0.7445
 6148TIP3   OH218407   4.592   0.523   5.908  0.1764  0.4103 -0.1016
 6148TIP3    H118408   4.619   0.549   5.820 -2.5535 -1.2582 -1.5865
 6148TIP3    H218409   4.624   0.434   5.918  0.0845  0.4326  0.4070
 6149TIP3   OH218410   3.537   4.073   2.535 -0.1393  0.4446 -0.0574
 6149TIP3    H118411   3.496   4.117   2.609 -0.4264 -3.1863  2.2058
 6149TIP3    H218412   3.480   3.998   2.517  2.2078 -1.2543 -0.9769
 6150TIP3   OH218413   4.689   0.964   1.706 -0.7604 -0.2709 -0.3458
 6150TIP3    H118414   4.702   0.939   1.615  1.8864  1.2772 -0.4661
 6150TIP3    H218415   4.705   1.058   1.709 -1.4666 -0.1532  1.6121
 6151TIP3   OH218416   1.681   5.150   2.094  0.1456 -0.5389 -0.0766
 6151TIP3    H118417   1.713   5.239   2.081 -0.8457  0.0716  1.5542
 6151TIP3    H218418   1.705   5.105   2.013  1.6233  0.9070 -0.4954
 6152TIP3   OH218419   1.763   1.733   0.281 -0.1486  0.2949  0.6745
 6152TIP3    H118420   1.713   1.813   0.297  0.5553  0.5672  1.6190
 6152TIP3    H218421   1.809   1.717   0.364  1.2390 -0.0057 -0.1310
 6153TIP3   OH218422   1.365   2.917   5.282  0.4215  0.6619 -0.6159
 6153TIP3    H118423   1.315   2.840   5.311  2.4277 -1.0527 -1.3997
 6153TIP3    H218424   1.341   2.986   5.344 -0.5683 -0.9340  0.8803
 6154TIP3   OH218425   6.373   5.887   2.608  0.4564 -0.0084  0.2949
 6154TIP3    H118426   6.348   5.827   2.538  0.0287 -1.5211  1.6846
 6154TIP3    H218427   6.396   5.830   2.681  0.3186  1.5320  1.5877
 6155TIP3   OH218428   2.278   3.577   0.107 -0.3080 -0.0653 -0.5224
 6155TIP3    H118429   2.363   3.534   0.104  0.2053  0.9568 -1.2935
 6155TIP3    H218430   2.215   3.506   0.097  0.5006 -0.7124 -1.1818
 6156TIP3   OH218431   5.952   0.164   1.931  0.2238  0.8319 -0.0905
 6156TIP3    H118432   5.879   0.123   1.885  0.8238  1.1725 -1.4103
 6156TIP3    H218433   6.024   0.101   1.924  0.2722  0.8075  0.5621
 6157TIP3   OH218434   2.826   3.168   4.702  0.3407 -0.4447  0.3937
 6157TIP3    H118435   2.812   3.261   4.719  0.9236 -0.2192 -0.3087
 6157TIP3    H218436   2.900   3.144   4.757  0.0701 -0.5444  0.7180
 6158TIP3   OH218437   0.595   4.712   3.171 -0.1580 -0.4210  0.3046
 6158TIP3    H118438   0.564   4.626   3.201  2.7890 -0.7322  3.0223
 6158TIP3    H218439   0.567   4.773   3.240  3.0557 -0.3775  1.7221
 6159TIP3   OH218440   3.696   2.862   5.272 -0.3595  0.1752  0.0183
 6159TIP3    H118441   3.707   2.819   5.187  0.4574 -1.1884  0.7842
 6159TIP3    H218442   3.616   2.823   5.307  0.6360 -1.1318  0.9185
 6160TIP3   OH218443   5.558   2.395   4.725 -0.4237 -0.1064  0.1980
 6160TIP3    H118444   5.536   2.302   4.716  1.8043 -0.7985  1.0905
 6160TIP3    H218445   5.532   2.417   4.814  1.0806 -0.5503  0.7797
 6161TIP3   OH218446   4.828   1.970   2.558 -0.1787  0.4274 -0.1780
 6161TIP3    H118447   4.807   2.062   2.574  1.9471  0.9909 -0.2930
 6161TIP3    H218448   4.841   1.932   2.645  0.2269  0.5844 -0.1670
 6162TIP3   OH218449   4.622   6.645   2.498  1.1520 -0.1211  0.0654
 6162TIP3    H118450   4.582   6.559   2.513  0.4045  0.4529  1.5513
 6162TIP3    H218451   4.602   6.665   2.406  1.9932 -1.8335 -0.5370
 6163TIP3   OH218452   5.086   0.871   2.646 -0.3147  0.6551  0.0068
 6163TIP3    H118453   5.112   0.958   2.615  0.6604  0.5884  0.5742
 6163TIP3    H218454   5.047   0.829   2.570  1.0730  0.8633 -0.8685
 6164TIP3   OH218455   1.796   0.222   4.736 -0.1099 -0.2430  0.4391
 6164TIP3    H118456   1.739   0.255   4.666 -0.7591 -1.4844  0.3553
 6164TIP3    H218457   1.873   0.278   4.732 -0.7291  0.5847 -0.3689
 6165TIP3   OH218458   6.106   5.115   4.468  0.1932 -0.1620  0.3735
 6165TIP3    H118459   6.057   5.196   4.477  2.3817  1.2361  0.5845
 6165TIP3    H218460   6.062   5.068   4.397 -0.7450  1.5347 -0.2291
 6166TIP3   OH218461   3.049   2.551   0.248 -0.0683 -1.0460 -0.3478
 6166TIP3    H118462   3.121   2.488   0.246  0.6961 -0.1833 -1.3487
 6166TIP3    H218463   3.030   2.563   0.341 -1.0392 -3.5839 -0.1325
 6167TIP3   OH218464   1.526   4.710   1.684 -0.0629 -0.5198 -0.4777
 6167TIP3    H118465   1.571   4.791   1.661 -1.3436 -0.1216 -1.7628
 6167TIP3    H218466   1.534   4.704   1.779  2.1910 -0.2070 -0.6036
 6168TIP3   OH218467   0.213   0.439   5.649  0.0980  0.3245  0.6816
 6168TIP3    H118468   0.148   0.439   5.720  0.0192 -1.1425  0.6526
 6168TIP3    H218469   0.167   0.400   5.575  0.7891 -0.0545  0.4413
 6169TIP3   OH218470   5.454   5.477   3.820  0.4018  0.0220 -0.5864
 6169TIP3    H118471   5.378   5.530   3.792  0.4394 -0.1540 -1.0239
 6169TIP3    H218472   5.419   5.389   3.832  0.4940 -0.0131 -0.5735
 6170TIP3   OH218473   0.103   3.155   4.428  0.1061 -0.0078 -0.2660
 6170TIP3    H118474   0.078   3.075   4.475  1.1188  0.0688  0.4511
 6170TIP3    H218475   0.109   3.128   4.337 -0.0596 -0.6309 -0.1004
 6171TIP3   OH218476   3.716   0.923   3.902  0.3545  0.3122 -0.1566
 6171TIP3    H118477   3.635   0.973   3.901  0.6067  0.7615  0.8683
 6171TIP3    H218478   3.735   0.907   3.809 -1.5372 -0.8820 -0.3878
 6172TIP3   OH218479   6.948   1.130   4.491 -0.2078  0.0919  0.3891
 6172TIP3    H118480   6.946   1.217   4.533  0.9263  0.4501 -0.2551
 6172TIP3    H218481   6.940   1.148   4.398  0.6858 -0.4383  0.1982
 6173TIP3   OH218482   5.910   1.351   0.781 -0.3609 -0.2498 -0.8906
 6173TIP3    H118483   5.815   1.357   0.772 -0.2202 -0.4899 -2.8980
 6173TIP3    H218484   5.944   1.428   0.736  0.4122  0.0563  0.1607
 6174TIP3   OH218485   4.922   5.723   1.561  0.2839 -0.0656  0.0803
 6174TIP3    H118486   4.845   5.740   1.507  0.8462  0.6450 -0.5114
 6174TIP3    H218487   4.996   5.722   1.499  0.6965 -1.3690  0.5403
 6175TIP3   OH218488   0.927   2.734   4.040 -0.9233 -0.1612 -0.0656
 6175TIP3    H118489   0.898   2.685   3.964 -0.2382 -0.1047 -0.3746
 6175TIP3    H218490   1.022   2.720   4.043 -0.9494 -0.2647  0.8496
 6176TIP3   OH218491   2.372   6.415   3.901 -0.0004 -0.1561  0.2237
 6176TIP3    H118492   2.450   6.466   3.883 -0.0464 -0.3843 -0.6601
 6176TIP3    H218493   2.306   6.450   3.841 -0.3392 -0.5186  0.3775
 6177TIP3   OH218494   0.932   2.848   2.666  0.0449  0.8262  0.3167
 6177TIP3    H118495   1.011   2.831   2.614  0.5725  4.3682 -0.3372
 6177TIP3    H218496   0.881   2.910   2.612 -0.3443  3.1101  3.0693
 6178TIP3   OH218497   0.322   5.507   1.131  0.5872  0.3426  0.0914
 6178TIP3    H118498   0.370   5.424   1.131 -0.6406 -0.4028 -0.0845
 6178TIP3    H218499   0.318   5.533   1.223  0.8821  0.1528  0.1590
 6179TIP3   OH218500   0.449   0.643   3.061 -0.0251  0.1499  0.4381
 6179TIP3    H118501   0.482   0.660   3.149  0.5640  0.6851  0.1220
 6179TIP3    H218502   0.527   0.644   3.005 -0.6292  2.8323 -0.5275
 6180TIP3   OH218503   2.305   0.489   4.609 -0.2789  0.0485  0.7746
 6180TIP3    H118504   2.255   0.568   4.593 -0.0385 -0.1929 -1.4238
 6180TIP3    H218505   2.242   0.418   4.597  0.0996 -0.1755  0.0502
 6181TIP3   OH218506   1.516   1.039   1.424 -0.4362 -0.1486 -0.2325
 6181TIP3    H118507   1.598   0.991   1.438 -0.4125  0.0177  0.1874
 6181TIP3    H218508   1.512   1.102   1.496 -0.1405  0.9313 -1.1245
 6182TIP3   OH218509   2.991   5.400   3.086  0.7566  0.0836 -0.2007
 6182TIP3    H118510   3.084   5.399   3.108  0.3836 -0.6224  1.5036
 6182TIP3    H218511   2.969   5.494   3.081  1.1430  0.2981  1.4607
 6183TIP3   OH218512   3.118   2.072   0.230 -0.2617 -0.0467 -0.0117
 6183TIP3    H118513   3.130   1.980   0.206 -0.6753 -0.1411  0.1406
 6183TIP3    H218514   3.046   2.102   0.174 -0.6396 -0.0256  0.4818
 6184TIP3   OH218515   1.101   3.019   1.659 -0.2890 -0.7310 -0.5398
 6184TIP3    H118516   1.020   2.971   1.646 -1.2301  0.6598 -0.0438
 6184TIP3    H218517   1.079   3.086   1.723  1.4583 -0.7892  0.1731
 6185TIP3   OH218518   1.237   4.432   0.806  0.2049 -0.4763  0.3196
 6185TIP3    H118519   1.159   4.485   0.825  1.3308  0.9915  1.1119
 6185TIP3    H218520   1.267   4.463   0.720  1.0651  0.4810  0.9392
 6186TIP3   OH218521   6.476   3.791   3.112  0.0442 -0.3659  0.4291
 6186TIP3    H118522   6.434   3.869   3.148  0.5707 -0.4682  1.2668
 6186TIP3    H218523   6.406   3.746   3.065 -0.4132  0.2739  0.4888
 6187TIP3   OH218524   1.853   0.794   3.186 -0.2486 -0.1531  0.4931
 6187TIP3    H118525   1.797   0.732   3.140 -1.5945  1.7985 -0.6620
 6187TIP3    H218526   1.936   0.748   3.198 -0.7592 -1.7174 -1.4706
 6188TIP3   OH218527   0.235   2.406   5.038 -0.3966 -0.0574 -0.2404
 6188TIP3    H118528   0.208   2.422   4.947  2.5762 -0.2207 -1.2524
 6188TIP3    H218529   0.228   2.312   5.049 -1.0521 -0.0073 -0.1712
 6189TIP3   OH218530   3.310   4.331   4.982 -0.5499 -0.1400 -0.0960
 6189TIP3    H118531   3.315   4.417   4.941  1.2518  1.0867  2.4246
 6189TIP3    H218532   3.232   4.334   5.037  0.7947  0.9077  1.8796
 6190TIP3   OH218533   4.372   6.128   0.822  0.1481 -0.4905 -0.1428
 6190TIP3    H118534   4.314   6.091   0.889 -1.2308 -1.9385 -2.0357
 6190TIP3    H218535   4.405   6.052   0.775  1.2789  0.4811 -0.9722
 6191TIP3   OH218536   1.868   1.434   0.236 -0.5192 -0.4990  0.5369
 6191TIP3    H118537   1.957   1.469   0.229 -0.4354 -0.7883  0.0613
 6191TIP3    H218538   1.813   1.509   0.257 -0.4832  0.0915 -1.3653
 6192TIP3   OH218539   0.403   0.657   3.394 -0.0622  0.1357  0.2489
 6192TIP3    H118540   0.379   0.565   3.394 -0.4150  0.2092 -0.8568
 6192TIP3    H218541   0.383   0.688   3.483  0.8481 -1.0331  0.8817
 6193TIP3   OH218542   3.990   1.732   1.301 -0.2489 -0.3515  0.4469
 6193TIP3    H118543   3.912   1.677   1.302  0.0063 -0.7341 -0.1244
 6193TIP3    H218544   3.973   1.799   1.368 -1.0237 -0.4782  0.3886
 6194TIP3   OH218545   5.687   1.086   3.492  0.2410 -0.6014  0.8161
 6194TIP3    H118546   5.741   1.075   3.571 -0.5745  0.9717  1.6405
 6194TIP3    H218547   5.632   1.008   3.491  1.1451 -1.2621  1.0771
 6195TIP3   OH218548   0.044   1.160   0.493 -0.2854 -0.7588 -0.9661
 6195TIP3    H118549  -0.044   1.188   0.517 -0.9931 -2.4730 -1.4273
 6195TIP3    H218550   0.060   1.083   0.547  1.4639  0.2364  0.0300
 6196TIP3   OH218551   5.463   1.588   0.382 -0.3689  0.0590 -0.2088
 6196TIP3    H118552   5.401   1.545   0.442  0.9732 -3.2342 -0.9757
 6196TIP3    H218553   5.549   1.568   0.419  0.3615  1.5209 -1.0495
 6197TIP3   OH218554   5.990   3.100   3.001  1.0623  0.5726 -0.2609
 6197TIP3    H118555   6.012   3.007   3.011 -3.8625 -0.6087  3.2618
 6197TIP3    H218556   5.947   3.106   2.916 -0.1656 -0.9110  0.2129
 6198TIP3   OH218557   0.768   3.942   5.388 -0.3349  0.3358  0.1666
 6198TIP3    H118558   0.793   4.010   5.326 -2.1842  0.5435 -0.3899
 6198TIP3    H218559   0.746   3.990   5.468  1.3867  0.1170  0.8168
 6199TIP3   OH218560   3.632   0.023   5.268  0.0605 -0.6200  0.2581
 6199TIP3    H118561   3.640  -0.050   5.329  0.4983 -0.7709  0.0283
 6199TIP3    H218562   3.665   0.098   5.315 -0.4123 -0.5625  0.5039
 6200TIP3   OH218563   5.498   0.119   4.884 -1.1271  0.1203  0.5201
 6200TIP3    H118564   5.503   0.036   4.932  0.1311  0.1690  0.4976
 6200TIP3    H218565   5.584   0.129   4.843 -1.3335  1.3286  0.3399
 6201TIP3   OH218566   2.947   1.191   4.922  0.5886  0.2454  0.0473
 6201TIP3    H118567   2.988   1.208   4.837  1.2174  0.6107  0.4201
 6201TIP3    H218568   2.968   1.267   4.975  0.4488 -0.1116  0.6297
 6202TIP3   OH218569   5.483   5.313   1.522 -0.2329 -0.0473 -0.4269
 6202TIP3    H118570   5.553   5.252   1.498  2.4493  1.5799  2.3700
 6202TIP3    H218571   5.499   5.390   1.467 -0.2843  0.0574 -0.2955
 6203TIP3   OH218572   1.334   4.191   2.619 -0.0289  0.4542 -0.4640
 6203TIP3    H118573   1.406   4.254   2.622  0.1810  0.3509 -2.2815
 6203TIP3    H218574   1.374   4.110   2.586 -0.9452  0.3691 -1.3982
 6204TIP3   OH218575   3.747   5.097   4.364 -0.0119 -1.0141 -0.4560
 6204TIP3    H118576   3.738   5.033   4.435 -0.9128 -0.5635 -0.1380
 6204TIP3    H218577   3.660   5.099   4.323  0.2295 -0.5646 -0.9610
 6205TIP3   OH218578   7.120   1.617   0.489 -0.4844  0.3531 -0.2239
 6205TIP3    H118579   7.144   1.707   0.470  1.6169  0.2157  1.3334
 6205TIP3    H218580   7.134   1.570   0.407  0.2647  1.1156 -0.5472
 6206TIP3   OH218581   4.548   6.747   3.191 -0.3484  0.7716 -0.1642
 6206TIP3    H118582   4.622   6.797   3.225  0.3532 -0.5508  0.3711
 6206TIP3    H218583   4.587   6.687   3.127 -1.0032  0.2828 -0.1181
 6207TIP3   OH218584   4.284   1.271   5.151 -0.4685 -0.2630 -0.2993
 6207TIP3    H118585   4.276   1.366   5.151  0.9763 -0.1018  1.2057
 6207TIP3    H218586   4.315   1.249   5.063 -1.0885  0.6038 -0.7491
 6208TIP3   OH218587   6.586   0.276   1.173 -0.2663 -0.3919 -0.5435
 6208TIP3    H118588   6.677   0.246   1.168  0.1713  0.9203 -0.9603
 6208TIP3    H218589   6.577   0.337   1.100 -0.7462  1.3731  0.9234
 6209TIP3   OH218590   6.141   6.690   1.714  0.1678  0.4058 -0.5460
 6209TIP3    H118591   6.201   6.726   1.648 -1.2531 -0.5981 -2.4571
 6209TIP3    H218592   6.061   6.741   1.704  0.4801  1.4584  1.7057
 6210TIP3   OH218593   4.696   2.025   5.159  0.5933  0.6440  0.0628
 6210TIP3    H118594   4.785   2.054   5.140  0.5949 -0.2156 -1.4183
 6210TIP3    H218595   4.708   1.946   5.213  0.6382  1.8464  1.8989
 6211TIP3   OH218596   2.870   3.948   5.508 -0.0579 -0.7863 -0.1195
 6211TIP3    H118597   2.941   3.917   5.452 -0.0688  1.8483 -1.7817
 6211TIP3    H218598   2.795   3.894   5.485 -0.3249  0.7809 -3.5521
 6212TIP3   OH218599   3.565   5.604   2.994 -0.4959  0.3073  0.3656
 6212TIP3    H118600   3.622   5.565   2.928 -0.4150 -1.9461  1.6737
 6212TIP3    H218601   3.476   5.577   2.968 -0.8001  1.9674 -0.4494
 6213TIP3   OH218602   0.453   4.872   2.180  0.1297 -1.1815 -0.0565
 6213TIP3    H118603   0.453   4.813   2.105 -0.8013 -1.5857  0.2456
 6213TIP3    H218604   0.362   4.902   2.187  0.7665  1.0978 -0.8189
 6214TIP3   OH218605   0.691   1.336   1.337 -0.2994 -0.1673  0.4317
 6214TIP3    H118606   0.783   1.348   1.316 -0.6311 -0.0220 -1.0104
 6214TIP3    H218607   0.678   1.241   1.338 -0.1666 -0.1844  0.5334
 6215TIP3   OH218608   0.488   5.979   2.585 -0.4165 -0.4137 -0.3462
 6215TIP3    H118609   0.542   6.029   2.647 -1.0400 -0.2329  0.0698
 6215TIP3    H218610   0.476   5.894   2.628  2.3462 -1.7439 -1.9597
 6216TIP3   OH218611   1.953   4.423   2.748 -0.1320 -0.2016 -0.3904
 6216TIP3    H118612   1.912   4.509   2.760 -2.5436 -1.2064 -0.9280
 6216TIP3    H218613   2.031   4.441   2.696 -1.2678  1.5487 -1.5938
 6217TIP3   OH218614   4.525   1.419   3.865  0.6681 -0.2247 -0.0617
 6217TIP3    H118615   4.606   1.463   3.839  0.6016  0.6786  1.1735
 6217TIP3    H218616   4.513   1.350   3.800  1.7633  0.4232 -0.9806
 6218TIP3   OH218617   5.948   3.450   1.311  0.0928  0.1667  0.3907
 6218TIP3    H118618   6.041   3.468   1.301  0.2631 -1.2225 -0.7888
 6218TIP3    H218619   5.942   3.355   1.314 -1.2429  0.2538  0.9659
 6219TIP3   OH218620   2.844   3.842   1.234  0.1318  0.1552 -0.5022
 6219TIP3    H118621   2.875   3.816   1.147  0.1705 -0.5881 -0.2746
 6219TIP3    H218622   2.749   3.842   1.227  0.1413  0.5454 -0.6669
 6220TIP3   OH218623   4.136   3.278   2.329  0.2742  0.0428  0.3171
 6220TIP3    H118624   4.125   3.370   2.355  0.2874  0.3148 -0.5937
 6220TIP3    H218625   4.085   3.229   2.393  0.4794  0.6643  0.9728
 6221TIP3   OH218626   2.480   1.692   4.301  0.1473 -0.0221  0.2262
 6221TIP3    H118627   2.421   1.762   4.327 -1.9904 -1.9085  0.6915
 6221TIP3    H218628   2.431   1.641   4.237  1.1523 -1.8514  0.8573
 6222TIP3   OH218629   5.149   6.308   4.812  0.3942 -0.1854 -0.3148
 6222TIP3    H118630   5.103   6.237   4.857 -1.1762  0.8035 -0.2772
 6222TIP3    H218631   5.183   6.363   4.882 -0.4361  0.3588 -0.3380
 6223TIP3   OH218632   0.752   3.904   2.679  0.6350 -0.6835 -0.0504
 6223TIP3    H118633   0.836   3.887   2.637  0.4340 -0.7669 -0.4161
 6223TIP3    H218634   0.768   3.886   2.772  0.5240 -2.5087 -0.3664
 6224TIP3   OH218635   6.216   4.036   1.622 -0.0116  0.4744 -0.2850
 6224TIP3    H118636   6.290   4.087   1.655 -0.3761  2.4447 -2.3084
 6224TIP3    H218637   6.139   4.090   1.642 -0.6496 -0.3355 -0.4948
 6225TIP3   OH218638   2.570   0.006   2.536  0.1093 -0.4371  0.1094
 6225TIP3    H118639   2.567   0.073   2.604  0.0079 -1.9957  1.7188
 6225TIP3    H218640   2.480  -0.000   2.504  0.1225  0.1963 -0.0608
 6226TIP3   OH218641   4.347   2.363   0.954  0.1633 -0.3428 -0.4978
 6226TIP3    H118642   4.369   2.374   1.047  0.2147 -0.9216 -0.4375
 6226TIP3    H218643   4.320   2.451   0.926 -0.4954 -0.2918  0.2300
 6227TIP3   OH218644   4.719   3.962   1.417  0.2020  0.1083 -0.0620
 6227TIP3    H118645   4.669   3.989   1.340 -0.4998 -0.4815  0.1764
 6227TIP3    H218646   4.654   3.955   1.487  0.9866  1.8101  0.9215
 6228TIP3   OH218647   4.887   0.671   2.157  0.5128  0.5699 -0.1446
 6228TIP3    H118648   4.974   0.672   2.117 -0.0253 -1.4660 -1.5329
 6228TIP3    H218649   4.874   0.760   2.190  3.4376  0.7105  0.8645
 6229TIP3   OH218650   2.956   2.712   3.303 -0.1703 -0.3251  0.2509
 6229TIP3    H118651   2.888   2.678   3.361 -1.1501 -1.5128 -1.4945
 6229TIP3    H218652   2.982   2.637   3.250  0.3030  0.8092 -1.2056
 6230TIP3   OH218653   4.895   2.529   5.001  0.3098  0.1475 -0.6056
 6230TIP3    H118654   4.941   2.449   5.026 -0.5606  0.2625  1.5634
 6230TIP3    H218655   4.868   2.568   5.084  0.5138  2.5926 -1.6256
 6231TIP3   OH218656   7.052   1.087   1.422 -0.3779  0.4178  0.0234
 6231TIP3    H118657   7.144   1.075   1.447 -0.6266  1.0846  1.3703
 6231TIP3    H218658   7.016   1.143   1.491 -1.4345  1.3862 -1.2852
 6232TIP3   OH218659   0.023   6.069   1.076 -0.4357 -0.0626  0.0060
 6232TIP3    H118660   0.084   6.071   1.001 -1.9314 -2.9777 -1.4297
 6232TIP3    H218661  -0.059   6.104   1.040  0.1247  3.7288  1.8930
 6233TIP3   OH218662   5.291   3.025   0.598 -0.8543 -0.1016  0.1069
 6233TIP3    H118663   5.377   3.049   0.632 -1.8619 -0.6612  3.3836
 6233TIP3    H218664   5.307   2.943   0.550  0.4057 -0.3681  0.9306
 6234TIP3   OH218665   6.597   1.104   0.907  0.4552 -0.3837 -0.0026
 6234TIP3    H118666   6.575   1.014   0.932 -0.1775 -0.7437 -1.6940
 6234TIP3    H218667   6.664   1.131   0.970 -1.5392 -0.9050  2.5061
 6235TIP3   OH218668   6.416   1.393   1.857  0.0647 -0.1710  0.0344
 6235TIP3    H118669   6.360   1.447   1.801 -0.0612 -1.5496 -1.2110
 6235TIP3    H218670   6.354   1.347   1.914  0.1411  0.5384  0.7124
 6236TIP3   OH218671   4.843   0.315   0.966 -0.0598 -0.5653  0.0680
 6236TIP3    H118672   4.759   0.304   1.011 -0.7282  0.7061 -0.7841
 6236TIP3    H218673   4.853   0.235   0.915 -1.8998  0.1426 -1.5485
 6237TIP3   OH218674   5.537   5.880   0.101  0.2139 -0.1417  0.1246
 6237TIP3    H118675   5.614   5.910   0.148 -0.4088  0.5597  0.7395
 6237TIP3    H218676   5.496   5.960   0.068 -0.3471 -0.4841 -0.0360
 6238TIP3   OH218677   1.967   6.022   4.849 -0.1986 -0.4631 -0.3521
 6238TIP3    H118678   1.965   5.960   4.776 -1.2636 -0.2703 -0.5075
 6238TIP3    H218679   1.924   5.975   4.921  1.1541 -0.7807  0.2809
 6239TIP3   OH218680   4.948   4.126   0.042  0.1891  0.1955 -0.3058
 6239TIP3    H118681   4.893   4.052   0.068 -1.0817  1.0368 -0.4744
 6239TIP3    H218682   5.037   4.099   0.063 -0.2889 -1.1991  0.0427
 6240TIP3   OH218683   1.116   4.212   2.784 -0.0855 -0.2598 -0.1162
 6240TIP3    H118684   1.203   4.216   2.744  1.1439 -0.3882  2.3971
 6240TIP3    H218685   1.075   4.295   2.760  0.8689 -0.0115 -0.9747
 6241TIP3   OH218686   4.110   3.137   3.112 -0.0612  0.0873  0.3248
 6241TIP3    H118687   4.140   3.227   3.125  0.4323  0.1571 -1.1209
 6241TIP3    H218688   4.157   3.086   3.178 -0.4303  0.8914  1.2322
 6242TIP3   OH218689   6.338   5.358   4.727 -0.0914  0.2105  0.0973
 6242TIP3    H118690   6.335   5.267   4.760  1.6270 -0.6560 -1.9614
 6242TIP3    H218691   6.383   5.352   4.643  0.5729  3.0876  0.1539
 6243TIP3   OH218692   2.412   1.945   1.404  0.0108  0.2011 -0.1577
 6243TIP3    H118693   2.439   1.854   1.391  1.7645  0.7791 -0.8036
 6243TIP3    H218694   2.441   1.966   1.493  1.3024  0.6536 -0.6573
 6244TIP3   OH218695   4.376   6.559   1.695 -0.7854  0.1540  0.0819
 6244TIP3    H118696   4.403   6.469   1.678  0.7051  0.5441  0.2275
 6244TIP3    H218697   4.287   6.551   1.730 -0.1520 -1.3931  1.5154
 6245TIP3   OH218698   3.998   6.777   4.840  0.1372  0.3223 -0.3681
 6245TIP3    H118699   3.962   6.769   4.752 -0.0666 -1.7415 -0.1557
 6245TIP3    H218700   4.082   6.731   4.836  0.2776  0.4923  0.4178
 6246TIP3   OH218701   1.583   6.280   4.663  0.3112 -0.0714  0.1443
 6246TIP3    H118702   1.513   6.297   4.599 -0.7498 -0.0294  1.2744
 6246TIP3    H218703   1.588   6.185   4.668 -0.4180 -0.0892  0.8180
 6247TIP3   OH218704   4.436   3.261   2.067 -0.1942 -0.6634 -0.1177
 6247TIP3    H118705   4.455   3.222   2.152  0.2976  1.5783  0.8871
 6247TIP3    H218706   4.506   3.231   2.010 -0.2244 -1.7628  0.4018
 6248TIP3   OH218707   3.249   5.882   5.258  0.4233  0.2635  0.1187
 6248TIP3    H118708   3.332   5.837   5.273 -0.0148 -0.1428  1.4453
 6248TIP3    H218709   3.191   5.850   5.326 -0.2334  2.0164  0.4540
 6249TIP3   OH218710   2.925   6.793   3.280 -0.6498 -0.0668 -0.0699
 6249TIP3    H118711   2.977   6.872   3.293  1.8303 -1.5772 -0.0806
 6249TIP3    H218712   2.954   6.759   3.195  0.6921 -2.5371  1.2462
 6250TIP3   OH218713   4.872   4.905   4.174 -0.1858  0.6304  0.3198
 6250TIP3    H118714   4.919   4.824   4.152 -0.1484 -0.0594  2.5954
 6250TIP3    H218715   4.801   4.876   4.232  1.1948  2.3480  3.1227
 6251TIP3   OH218716   0.695   5.496   1.266  0.2192 -0.2232  0.1996
 6251TIP3    H118717   0.618   5.517   1.319 -0.6501 -0.7686 -0.8132
 6251TIP3    H218718   0.700   5.401   1.267 -2.6175 -0.7190 -4.3467
 6252TIP3   OH218719   6.934   5.310   4.423 -0.2028 -0.2106 -0.2326
 6252TIP3    H118720   7.022   5.277   4.439 -0.7440 -1.0662  1.1399
 6252TIP3    H218721   6.882   5.232   4.402 -0.7282  0.2286 -0.5992
 6253TIP3   OH218722   4.182   5.168   5.521  0.4784 -0.5758  0.8159
 6253TIP3    H118723   4.108   5.217   5.556  1.0455 -1.1166  2.9262
 6253TIP3    H218724   4.149   5.078   5.512  0.7671 -0.7412  1.3991
 6254TIP3   OH218725   4.455   1.637   5.455 -0.1533 -0.0484 -0.5551
 6254TIP3    H118726   4.418   1.579   5.389 -1.0458 -0.4154  0.2319
 6254TIP3    H218727   4.407   1.616   5.535 -0.2819  1.5470 -0.1690
 6255TIP3   OH218728   4.836   4.892   3.139  0.1866  0.1178  0.0105
 6255TIP3    H118729   4.808   4.880   3.048  1.1067  0.3178 -0.3082
 6255TIP3    H218730   4.890   4.816   3.158 -0.1652 -0.0238  0.4623
 6256TIP3   OH218731   7.042   4.989   0.879 -0.0611 -0.4526  0.5145
 6256TIP3    H118732   6.951   5.009   0.859 -0.1630 -1.7893 -0.4971
 6256TIP3    H218733   7.078   5.072   0.912 -1.1141  0.6302 -0.9335
 6257TIP3   OH218734   3.185   1.918   1.937 -0.2184 -0.4338 -0.6349
 6257TIP3    H118735   3.160   1.828   1.959  0.2889 -0.2221  0.8996
 6257TIP3    H218736   3.263   1.935   1.990  0.5996  0.4147 -2.0452
 6258TIP3   OH218737   6.118   4.686   4.873  0.1266  0.3162 -0.1428
 6258TIP3    H118738   6.207   4.668   4.842  0.7202  2.2099  0.3191
 6258TIP3    H218739   6.066   4.697   4.793  0.3053 -0.7417 -0.4149
 6259TIP3   OH218740   1.840   4.955   2.858 -0.5306 -0.1471  0.4108
 6259TIP3    H118741   1.787   4.943   2.779  0.2229 -0.7539 -0.0078
 6259TIP3    H218742   1.930   4.949   2.828 -0.1616  1.9958  0.9252
 6260TIP3   OH218743   5.336   3.802   5.915  0.5362  0.2181 -0.1452
 6260TIP3    H118744   5.352   3.893   5.890 -0.8555  0.3517 -0.6138
 6260TIP3    H218745   5.389   3.751   5.853 -1.5962  0.6066 -2.4748
 6261TIP3   OH218746   6.140   3.590   2.700  0.2463  0.5421 -0.1582
 6261TIP3    H118747   6.179   3.640   2.629  0.8382 -0.3562 -0.4977
 6261TIP3    H218748   6.187   3.506   2.698  0.1992  0.4608  1.2195
 6262TIP3   OH218749   3.963   3.965   4.436  0.8226 -0.0368  0.1845
 6262TIP3    H118750   3.892   3.920   4.481  0.2654  0.8660  0.2126
 6262TIP3    H218751   4.043   3.925   4.472  0.3700 -0.0335  1.2173
 6263TIP3   OH218752   1.919   4.684   3.467 -0.3819  0.6910  0.5259
 6263TIP3    H118753   1.857   4.619   3.433 -0.1833  0.8971 -0.2315
 6263TIP3    H218754   1.966   4.638   3.537  1.7437 -0.9235 -1.8237
 6264TIP3   OH218755   0.218   4.633   0.573 -1.0428 -0.2633  0.8582
 6264TIP3    H118756   0.210   4.626   0.668  1.4206  0.6343  1.2017
 6264TIP3    H218757   0.159   4.704   0.549 -0.2517  0.8384  2.0245
 6265TIP3   OH218758   5.553   3.446   2.937  0.1885  0.7346  0.2666
 6265TIP3    H118759   5.635   3.481   2.973  0.0111  1.5290 -0.0901
 6265TIP3    H218760   5.549   3.356   2.970  0.7411  0.9881  1.0483
 6266TIP3   OH218761   5.754   0.036   1.178 -0.0322 -0.2518 -0.6194
 6266TIP3    H118762   5.845   0.047   1.150  0.5381 -0.2587  1.1420
 6266TIP3    H218763   5.759  -0.024   1.253 -1.2174  1.5567  0.9965
 6267TIP3   OH218764   3.386   0.959   2.442  0.1306 -0.1945  0.1441
 6267TIP3    H118765   3.312   0.908   2.412  0.0876 -1.3062  1.9934
 6267TIP3    H218766   3.372   0.969   2.536  1.1223  1.6266  0.1506
 6268TIP3   OH218767   3.569   1.856   1.327 -0.2115 -0.0396  0.6558
 6268TIP3    H118768   3.526   1.935   1.361  0.6511  0.3102  0.9606
 6268TIP3    H218769   3.613   1.885   1.248 -2.8355 -1.0083 -1.3201
 6269TIP3   OH218770   3.812   0.811   5.547  1.0745 -0.2428 -0.1629
 6269TIP3    H118771   3.734   0.800   5.493  1.5991 -0.5067 -0.8798
 6269TIP3    H218772   3.885   0.808   5.485  1.6017  1.2446  0.3348
 6270TIP3   OH218773   6.887   3.315   5.722 -0.4146  0.1639 -0.3964
 6270TIP3    H118774   6.971   3.301   5.678 -0.0495  0.7314  0.1118
 6270TIP3    H218775   6.834   3.361   5.657  0.6374  2.3962  0.2444
 6271TIP3   OH218776   5.530   3.383   5.846 -0.8840  0.0879 -1.0870
 6271TIP3    H118777   5.625   3.373   5.833 -0.7668  1.1091 -1.0344
 6271TIP3    H218778   5.514   3.476   5.835 -1.9191 -0.1062 -1.2650
 6272TIP3   OH218779   6.205   4.982   1.192  0.3341  0.0865 -0.2564
 6272TIP3    H118780   6.206   4.932   1.273 -2.0863 -0.0861 -0.2759
 6272TIP3    H218781   6.174   4.920   1.126 -3.0620  1.5224 -0.2172
 6273TIP3   OH218782   1.396   1.347   3.565  0.3130 -0.5817 -0.3759
 6273TIP3    H118783   1.383   1.267   3.616  2.0459 -2.4225 -2.6207
 6273TIP3    H218784   1.354   1.328   3.481 -1.5122  1.9329 -0.1257
 6274TIP3   OH218785   4.634   1.856   4.791  0.1166  0.1290 -0.0997
 6274TIP3    H118786   4.616   1.769   4.756 -2.0011 -0.5364  2.2993
 6274TIP3    H218787   4.722   1.850   4.828  0.4709 -0.5874 -1.0192
 6275TIP3   OH218788   4.521   4.950   0.444  0.1155 -0.1133 -0.1196
 6275TIP3    H118789   4.563   5.020   0.393 -1.8461  0.8836 -0.4449
 6275TIP3    H218790   4.429   4.955   0.420 -0.1641 -2.5425  0.2174
 6276TIP3   OH218791   1.901   0.844   1.746 -0.2063  0.3985  0.2380
 6276TIP3    H118792   1.984   0.891   1.749  0.0404 -0.0848  1.6802
 6276TIP3    H218793   1.871   0.842   1.837 -0.1552 -2.3398  0.2618
 6277TIP3   OH218794   6.637   3.222   0.576 -0.2500 -0.2735  0.2554
 6277TIP3    H118795   6.599   3.142   0.613  0.1672 -0.1953  0.8752
 6277TIP3    H218796   6.715   3.192   0.528  1.2765 -0.0536  2.4282
 6278TIP3   OH218797   3.907   0.407   0.072  0.4049  0.3714 -0.0319
 6278TIP3    H118798   3.905   0.446  -0.015  0.7909 -1.5671 -0.9802
 6278TIP3    H218799   3.983   0.444   0.115  0.2651  1.2754 -0.5549
 6279TIP3   OH218800   1.603   0.388   2.053 -0.2981 -0.0280 -0.4867
 6279TIP3    H118801   1.663   0.328   2.098  0.3167 -0.1236 -1.4124
 6279TIP3    H218802   1.516   0.351   2.070 -0.2403  0.6953  1.7590
 6280TIP3   OH218803   5.675   4.099   0.670 -0.1963 -0.4004 -0.2707
 6280TIP3    H118804   5.681   4.179   0.618 -0.6220 -0.6175 -0.6544
 6280TIP3    H218805   5.600   4.112   0.727 -0.2583 -0.5204 -0.3237
 6281TIP3   OH218806   2.725   4.184   1.720 -0.5818  0.0997  0.0591
 6281TIP3    H118807   2.747   4.277   1.715 -1.1209  0.1605 -1.5740
 6281TIP3    H218808   2.634   4.183   1.749 -0.2962  0.0302  0.9941
 6282TIP3   OH218809   4.614   6.533   0.887  0.1650 -0.0363  0.3855
 6282TIP3    H118810   4.602   6.501   0.798 -1.7182  0.6976  0.3269
 6282TIP3    H218811   4.599   6.457   0.943  0.4807 -0.3034  0.1105
 6283TIP3   OH218812   1.518   5.901   1.645 -0.3784 -0.1904 -0.4696
 6283TIP3    H118813   1.531   5.812   1.678  0.6465 -0.4686 -1.5678
 6283TIP3    H218814   1.442   5.934   1.693  0.6349 -0.8058  1.6762
 6284TIP3   OH218815   2.409   0.800   0.080  0.1721  0.5467  0.0193
 6284TIP3    H118816   2.325   0.793   0.034  1.1910 -2.2365 -1.6195
 6284TIP3    H218817   2.386   0.796   0.172 -1.4753 -1.4269 -0.4127
 6285TIP3   OH218818   4.588   3.809   5.168  0.2651 -0.3448  0.0053
 6285TIP3    H118819   4.568   3.842   5.256  0.1902  1.3855 -0.6317
 6285TIP3    H218820   4.671   3.851   5.145 -0.0516 -0.2517 -1.0181
 6286TIP3   OH218821   6.798   6.123   5.536 -0.0889  0.0824 -0.3314
 6286TIP3    H118822   6.703   6.128   5.544 -0.4321 -0.7495 -2.9967
 6286TIP3    H218823   6.825   6.213   5.519 -0.0436  0.7275  2.5646
 6287TIP3   OH218824   4.106   1.641   4.557  0.0564  0.3588  0.1767
 6287TIP3    H118825   4.029   1.698   4.558 -0.7787 -0.7148 -0.3994
 6287TIP3    H218826   4.072   1.555   4.531  1.4889 -0.0949 -0.3065
 6288TIP3   OH218827   5.541   6.622   2.181 -0.2936  0.3723 -0.0397
 6288TIP3    H118828   5.472   6.606   2.118 -0.8662  1.3901  0.3001
 6288TIP3    H218829   5.496   6.632   2.265  0.2864  0.7838  0.2361
 6289TIP3   OH218830   4.358   2.350   3.517 -0.1132 -0.2124  0.4362
 6289TIP3    H118831   4.275   2.394   3.501 -1.3358 -2.0782  1.2682
 6289TIP3    H218832   4.384   2.380   3.604 -0.5262 -0.4918  0.6615
 6290TIP3   OH218833   2.330   1.839   5.882 -0.3937 -0.0123 -0.3812
 6290TIP3    H118834   2.401   1.776   5.872 -0.8735 -0.3944 -1.5555
 6290TIP3    H218835   2.281   1.834   5.799 -1.2340  0.9186  0.0338
 6291TIP3   OH218836   6.723   4.136   3.278  0.1378 -0.0472 -0.6988
 6291TIP3    H118837   6.798   4.184   3.241  0.8716 -0.8250 -0.2571
 6291TIP3    H218838   6.729   4.152   3.372 -0.4326  0.1265 -0.6905
 6292TIP3   OH218839   0.142   0.155   1.998 -0.3270  0.2597 -0.1528
 6292TIP3    H118840   0.208   0.151   2.067 -0.8519  0.7424  0.3853
 6292TIP3    H218841   0.116   0.247   1.995 -0.9632  0.0761 -0.3669
 6293TIP3   OH218842   5.022   4.676   3.910  0.1654  0.1105  0.1910
 6293TIP3    H118843   4.936   4.687   3.870  0.4647 -0.5413 -0.6494
 6293TIP3    H218844   5.004   4.661   4.003 -0.6417 -0.3506 -0.0385
 6294TIP3   OH218845   6.181   3.235   1.226 -0.1131  0.0117  0.5869
 6294TIP3    H118846   6.236   3.252   1.150  1.5703 -1.8515  1.2962
 6294TIP3    H218847   6.095   3.214   1.188 -0.4044  2.7948 -0.5365
 6295TIP3   OH218848   4.061   0.104   2.016  0.2334  0.7207  0.0846
 6295TIP3    H118849   4.138   0.119   1.962  0.5838  0.4907  0.5207
 6295TIP3    H218850   4.033   0.015   1.993  1.6040 -0.2071  1.7678
 6296TIP3   OH218851   3.126   0.346   4.798 -0.5430 -0.7643 -0.0707
 6296TIP3    H118852   3.098   0.395   4.875  1.6771  0.4778  0.0210
 6296TIP3    H218853   3.140   0.414   4.731 -0.1886 -1.5872 -0.8470
 6297TIP3   OH218854   0.840   0.967   2.986  0.6600 -0.3297 -0.0649
 6297TIP3    H118855   0.779   1.040   2.989 -0.5200 -1.2941  0.5686
 6297TIP3    H218856   0.925   1.007   2.967  0.1064  1.2127  0.5512
 6298TIP3   OH218857   0.882   4.042   4.908 -0.6738  0.1753  0.0425
 6298TIP3    H118858   0.844   4.128   4.922 -0.8839 -0.2253  2.3027
 6298TIP3    H218859   0.938   4.027   4.985  0.0407 -1.3499 -0.7128
 6299TIP3   OH218860   0.397   1.620   1.376 -0.5160  0.4092 -0.1709
 6299TIP3    H118861   0.451   1.657   1.306  2.3122 -2.5139  0.2186
 6299TIP3    H218862   0.447   1.638   1.456 -1.3612 -0.3078  0.5425
 6300TIP3   OH218863   0.909   3.707   3.776  0.2710  0.0571 -0.1837
 6300TIP3    H118864   0.937   3.738   3.862  0.4353  0.5038 -0.3945
 6300TIP3    H218865   0.979   3.648   3.747 -0.1910 -0.7744  0.3527
 6301TIP3   OH218866   6.862   0.177   2.739 -0.0520 -0.0875  0.2876
 6301TIP3    H118867   6.813   0.161   2.658 -0.5502  0.2371  0.5227
 6301TIP3    H218868   6.848   0.270   2.758  1.2313  0.1881 -0.0185
 6302TIP3   OH218869   4.779   1.871   1.467 -0.4858  0.3907  0.0130
 6302TIP3    H118870   4.690   1.840   1.451 -0.1776 -0.4701 -0.0785
 6302TIP3    H218871   4.782   1.892   1.560 -0.4781 -0.6237  0.2505
 6303TIP3   OH218872   4.902   6.111   5.593 -0.9985 -0.3937  0.2845
 6303TIP3    H118873   4.946   6.168   5.530 -0.5311 -1.1202 -0.0519
 6303TIP3    H218874   4.903   6.161   5.675 -0.6840  0.1210 -0.0253
 6304TIP3   OH218875   0.035   1.608   2.440  0.2480 -0.2206 -0.0252
 6304TIP3    H118876   0.091   1.668   2.488  1.3193 -0.9554 -0.3242
 6304TIP3    H218877   0.015   1.653   2.358 -1.9626  1.2392  1.1946
 6305TIP3   OH218878   1.711   2.711   5.059  0.1717  0.6758 -0.5597
 6305TIP3    H118879   1.617   2.723   5.043 -0.0966  1.3077  1.2247
 6305TIP3    H218880   1.731   2.772   5.131  1.1940 -1.7938  1.4152
 6306TIP3   OH218881   6.131   3.465   4.080  0.4188  0.1921 -0.3342
 6306TIP3    H118882   6.086   3.486   4.162  0.7019  1.4238 -0.4738
 6306TIP3    H218883   6.169   3.379   4.094 -1.2292 -0.4988  0.1099
 6307TIP3   OH218884   5.334   1.041   4.557  0.0988  0.3880 -0.2521
 6307TIP3    H118885   5.259   1.000   4.599  1.0394 -2.1269 -0.8734
 6307TIP3    H218886   5.325   1.021   4.464  1.1048  0.7743 -0.4465
 6308TIP3   OH218887   0.640   5.802   3.082  0.4991  0.1546 -0.5200
 6308TIP3    H118888   0.590   5.848   3.014 -0.6522 -0.0522  0.1603
 6308TIP3    H218889   0.602   5.715   3.085 -1.2368  0.8614  2.0524
 6309TIP3   OH218890   4.190   1.912   2.939 -0.2309 -0.0260 -0.1585
 6309TIP3    H118891   4.256   1.843   2.928  0.0345 -0.0995  1.5956
 6309TIP3    H218892   4.225   1.968   3.007 -0.7016  1.5735 -1.1892
 6310TIP3   OH218893   1.731   4.684   4.120  0.2029  0.0560 -0.5335
 6310TIP3    H118894   1.758   4.773   4.143 -0.5089 -0.0756  0.9256
 6310TIP3    H218895   1.811   4.641   4.090  0.9387  0.6261  0.5622
 6311TIP3   OH218896   1.270   2.213   2.140 -0.2122  0.2276 -0.1462
 6311TIP3    H118897   1.196   2.178   2.091  0.9799 -2.7576 -0.0354
 6311TIP3    H218898   1.237   2.222   2.229 -1.0416  1.1249 -0.5225
 6312TIP3   OH218899   5.488   3.029   4.785 -0.6531  0.2682  0.0662
 6312TIP3    H118900   5.446   3.085   4.850 -1.2099  2.0163 -1.7220
 6312TIP3    H218901   5.417   2.996   4.731 -0.1836 -1.0092  0.1942
 6313TIP3   OH218902   5.105   0.692   5.032  0.4013 -0.2553 -0.7260
 6313TIP3    H118903   5.144   0.776   5.007  0.0751 -0.7127 -2.9988
 6313TIP3    H218904   5.118   0.636   4.956 -0.8382 -1.7705  0.1152
 6314TIP3   OH218905   0.410   3.281   1.173 -0.4831 -0.1412  0.1571
 6314TIP3    H118906   0.475   3.348   1.191 -1.2316  0.2778  1.3944
 6314TIP3    H218907   0.449   3.229   1.102  1.5467 -0.3895  1.3772
 6315TIP3   OH218908   6.302   2.151   4.084 -0.1737 -0.0883  0.4107
 6315TIP3    H118909   6.350   2.069   4.090 -0.0970  0.0173  1.5455
 6315TIP3    H218910   6.344   2.199   4.012 -0.2918 -1.0708 -0.3220
 6316TIP3   OH218911   5.033   6.031   1.285 -0.2432  0.7567 -0.4593
 6316TIP3    H118912   5.094   5.963   1.315  0.4861 -0.1416 -3.5947
 6316TIP3    H218913   4.951   6.010   1.328  0.5041 -0.8505  0.2835
 6317TIP3   OH218914   5.823   4.372   0.681 -0.7288  0.3562 -0.1314
 6317TIP3    H118915   5.787   4.365   0.769  1.3565 -0.1876  0.7330
 6317TIP3    H218916   5.747   4.369   0.624 -2.0701 -0.1506  1.5981
 6318TIP3   OH218917   4.473   6.337   3.905 -0.1128 -0.4192 -0.3806
 6318TIP3    H118918   4.465   6.248   3.939  2.7409 -0.9393 -0.8322
 6318TIP3    H218919   4.459   6.328   3.810 -2.2085  0.0731 -0.1688
 6319TIP3   OH218920   6.446   5.433   5.550  0.3214 -0.5139 -0.4769
 6319TIP3    H118921   6.407   5.361   5.501  0.5016  0.5379 -2.2771
 6319TIP3    H218922   6.523   5.395   5.592 -1.0998 -1.9802  0.9168
 6320TIP3   OH218923   4.726   4.380   4.193 -0.0104 -0.0740  0.0681
 6320TIP3    H118924   4.740   4.474   4.204 -0.9228  0.1105 -0.2477
 6320TIP3    H218925   4.805   4.349   4.147  1.3813  0.0938  2.2175
 6321TIP3   OH218926   5.885   6.209   2.390  0.5880 -0.3618  0.3519
 6321TIP3    H118927   5.896   6.264   2.313 -0.5248 -0.3181  0.1965
 6321TIP3    H218928   5.965   6.220   2.441  1.0777  0.0707 -0.5114
 6322TIP3   OH218929   3.075   3.799   1.642 -0.3743 -0.4778  0.0340
 6322TIP3    H118930   3.114   3.711   1.643  1.2039  0.1790  1.1853
 6322TIP3    H218931   3.048   3.812   1.551 -0.0835 -1.9262 -0.2874
 6323TIP3   OH218932   3.757   5.919   0.421 -0.3058 -0.0619  0.0502
 6323TIP3    H118933   3.791   5.832   0.403  1.1114  0.4960 -0.1191
 6323TIP3    H218934   3.816   5.978   0.373  0.7287  1.1817  2.6302
 6324TIP3   OH218935   6.245   2.793   1.101 -0.1258  0.5993 -0.1598
 6324TIP3    H118936   6.184   2.754   1.164 -0.7342  1.2756 -0.3264
 6324TIP3    H218937   6.218   2.759   1.016  0.9187 -0.5968 -0.0333
 6325TIP3   OH218938   3.268   1.521   4.931  0.4029 -0.2367 -0.0593
 6325TIP3    H118939   3.275   1.519   5.026 -0.0447  0.9338  0.0148
 6325TIP3    H218940   3.317   1.444   4.901 -0.1093 -1.0552  1.1451
 6326TIP3   OH218941   1.420   5.243   2.145  0.2566 -0.0218 -0.0981
 6326TIP3    H118942   1.385   5.234   2.057  0.2308 -2.1890  0.0846
 6326TIP3    H218943   1.505   5.197   2.142 -0.4773 -1.6051  1.3596
 6327TIP3   OH218944   2.673   2.855   1.502  0.1662 -0.4183 -0.1296
 6327TIP3    H118945   2.718   2.932   1.535 -0.4378 -0.9140  1.9946
 6327TIP3    H218946   2.739   2.786   1.502  0.7451  0.0561 -2.1657
 6328TIP3   OH218947   1.331   1.096   3.683  0.2251 -0.5001  0.1703
 6328TIP3    H118948   1.308   1.053   3.601 -1.3290  0.8090 -0.1413
 6328TIP3    H218949   1.314   1.030   3.750 -0.1105 -1.0440 -0.4345
 6329TIP3   OH218950   6.690   4.060   0.549  0.1963 -0.1493  0.0142
 6329TIP3    H118951   6.772   4.015   0.526 -0.0532 -0.7319  0.2433
 6329TIP3    H218952   6.707   4.098   0.635  1.0808  1.9059 -0.9861
 6330TIP3   OH218953   5.396   1.369   3.374  0.3166 -0.2049  0.6733
 6330TIP3    H118954   5.487   1.357   3.400  0.3134  0.1819  0.8664
 6330TIP3    H218955   5.393   1.339   3.283  0.2065 -2.0839  1.2603
 6331TIP3   OH218956   2.189   1.524   1.247 -0.4540  0.4419 -0.6996
 6331TIP3    H118957   2.146   1.538   1.332  2.5559  0.2390  0.9877
 6331TIP3    H218958   2.171   1.604   1.198 -1.8733  0.7619  0.2810
 6332TIP3   OH218959   4.445   4.467   5.337  0.1289 -0.0103 -0.1314
 6332TIP3    H118960   4.477   4.542   5.387 -0.0392 -0.8356  1.2690
 6332TIP3    H218961   4.355   4.490   5.314 -0.3091 -0.2133  1.2720
 6333TIP3   OH218962   7.039   5.940   4.206 -0.0795  0.3944 -0.1504
 6333TIP3    H118963   7.057   6.032   4.189  1.0242  0.2152  0.0095
 6333TIP3    H218964   7.024   5.936   4.300  0.0607  0.3800 -0.1286
 6334TIP3   OH218965   1.652   2.234   1.455 -0.3262  0.0156 -0.2344
 6334TIP3    H118966   1.668   2.307   1.514 -1.7279 -0.2900  0.5669
 6334TIP3    H218967   1.719   2.243   1.387  0.9207  0.7563  1.0286
 6335TIP3   OH218968   4.543   1.007   2.698  0.5176 -0.2420 -0.1445
 6335TIP3    H118969   4.554   0.928   2.752 -0.2945 -1.1096 -1.2003
 6335TIP3    H218970   4.607   0.996   2.627 -0.0772 -0.3036 -0.6774
 6336TIP3   OH218971   7.074   4.739   2.280  0.2026 -0.1021  0.5048
 6336TIP3    H118972   7.142   4.677   2.253 -0.7983 -1.3507  0.7128
 6336TIP3    H218973   7.044   4.707   2.365 -0.4235  0.6085  0.5644
 6337TIP3   OH218974   0.297   3.713   2.810 -0.3297 -0.6580 -0.7565
 6337TIP3    H118975   0.386   3.729   2.777 -0.2845  0.1736 -0.2620
 6337TIP3    H218976   0.242   3.775   2.763 -0.4884 -0.4716 -0.3349
 6338TIP3   OH218977   1.375   6.060   0.111  0.3329 -0.2893  0.7542
 6338TIP3    H118978   1.359   5.996   0.181  1.0521 -0.1667  1.0337
 6338TIP3    H218979   1.295   6.058   0.058  0.2477 -1.2230  0.9104
 6339TIP3   OH218980   3.748   6.136   5.895 -0.9697  0.1961  0.7198
 6339TIP3    H118981   3.727   6.046   5.921  1.6468 -0.4481  0.8160
 6339TIP3    H218982   3.732   6.138   5.801  0.5765 -0.9333  0.3883
 6340TIP3   OH218983   1.216   1.550   0.333  0.3284 -0.1276  0.5230
 6340TIP3    H118984   1.190   1.472   0.283  0.2912  1.1437 -1.5699
 6340TIP3    H218985   1.305   1.568   0.303  0.0273  1.1077  0.3441
 6341TIP3   OH218986   0.838   6.723   1.184 -0.2610  0.0660 -0.3022
 6341TIP3    H118987   0.845   6.656   1.116 -1.7081  0.5080 -0.9201
 6341TIP3    H218988   0.748   6.754   1.178 -0.3155  0.3657  1.5964
 6342TIP3   OH218989   0.602   3.760   4.649 -0.0180 -0.1527  0.1043
 6342TIP3    H118990   0.623   3.746   4.741 -0.3160 -2.2347 -0.1144
 6342TIP3    H218991   0.665   3.827   4.621  0.6279 -0.0889  1.5866
 6343TIP3   OH218992   4.434   4.356   4.179 -0.4633 -0.1466 -0.0224
 6343TIP3    H118993   4.529   4.353   4.165 -0.4066  0.6831  0.1426
 6343TIP3    H218994   4.399   4.386   4.095 -0.5374  0.0087  0.0646
 6344TIP3   OH218995   1.562   4.223   2.812  0.0684  0.0228 -0.5791
 6344TIP3    H118996   1.477   4.189   2.842  0.2440  0.8993  1.0682
 6344TIP3    H218997   1.627   4.168   2.856  0.3345  0.7436 -0.0430
 6345TIP3   OH218998   4.455   4.471   0.074  0.4868  0.0389 -0.3091
 6345TIP3    H118999   4.513   4.395   0.067 -0.6316 -1.1553  2.0730
 6345TIP3    H219000   4.371   4.439   0.042  0.1923  0.5412 -0.0429
 6346TIP3   OH219001   2.341   1.762   4.605 -0.3978 -0.0061 -0.3430
 6346TIP3    H119002   2.425   1.736   4.568 -1.0868 -2.7280 -0.2343
 6346TIP3    H219003   2.302   1.819   4.538  0.8073 -0.1300 -1.1843
 6347TIP3   OH219004   4.943   2.228   0.897  0.2419 -0.1719  0.7231
 6347TIP3    H119005   4.997   2.167   0.946 -0.6478 -1.5958  0.0005
 6347TIP3    H219006   4.979   2.227   0.808  0.1399  0.2578  0.6721
 6348TIP3   OH219007   5.545   1.794   2.102  0.1210 -0.7622  0.1453
 6348TIP3    H119008   5.507   1.790   2.015 -1.4523  0.1275  0.7548
 6348TIP3    H219009   5.472   1.817   2.159  1.7495  2.2082  1.2546
 6349TIP3   OH219010   1.864   5.629   4.948  0.5262  0.1284  0.5714
 6349TIP3    H119011   1.947   5.632   4.899 -0.0628  1.1030 -0.4000
 6349TIP3    H219012   1.855   5.537   4.974  2.2928  0.1388  1.3876
 6350TIP3   OH219013   5.138   1.158   2.067 -0.4915  0.2816  0.0141
 6350TIP3    H119014   5.069   1.205   2.115 -1.3396 -0.4903 -0.4363
 6350TIP3    H219015   5.217   1.210   2.083 -0.8649  0.3825  1.7535
 6351TIP3   OH219016   5.316   2.723   1.926  0.1697  0.2049  0.3554
 6351TIP3    H119017   5.354   2.666   1.859  0.8923 -0.2596  1.1237
 6351TIP3    H219018   5.225   2.736   1.899  0.9551  1.7208 -1.7933
 6352TIP3   OH219019   1.974   0.885   1.245  0.2507 -0.1887  0.1553
 6352TIP3    H119020   1.917   0.949   1.203 -0.2835 -0.3629  0.5951
 6352TIP3    H219021   2.048   0.876   1.186 -1.0831 -1.3901 -1.4441
 6353TIP3   OH219022   6.410   6.361   1.839  0.2992 -0.6190 -0.3096
 6353TIP3    H119023   6.468   6.298   1.797  1.0216 -0.0821 -0.1448
 6353TIP3    H219024   6.412   6.338   1.932 -0.6703 -1.3102 -0.4436
 6354TIP3   OH219025   2.003   3.195   2.579 -0.2342  0.2456 -0.0209
 6354TIP3    H119026   2.076   3.249   2.608  0.7354 -1.0043 -0.0103
 6354TIP3    H219027   1.994   3.128   2.648 -0.0937 -0.7639 -0.9505
 6355TIP3   OH219028   6.274   2.811   2.096  0.0143 -0.2420  0.3847
 6355TIP3    H119029   6.323   2.841   2.019 -1.1113  1.5685  0.3019
 6355TIP3    H219030   6.240   2.892   2.135  0.6296 -1.1109  2.8666
 6356TIP3   OH219031   4.765   3.961   0.145  0.1821 -0.3712 -0.2236
 6356TIP3    H119032   4.730   3.887   0.096 -0.9873  0.3385 -0.4942
 6356TIP3    H219033   4.729   3.950   0.234 -1.2866  0.6561 -0.6367
 6357TIP3   OH219034   1.090   4.728   5.091  0.5337 -0.2039  0.1791
 6357TIP3    H119035   1.065   4.775   5.011  0.3164  0.8284  0.8323
 6357TIP3    H219036   1.037   4.768   5.160  1.4537 -0.3825  1.0090
 6358TIP3   OH219037   0.915   2.484   1.167 -0.9861  0.2535 -0.1473
 6358TIP3    H119038   0.874   2.534   1.238  0.0363  0.5688  0.2479
 6358TIP3    H219039   0.958   2.550   1.113  0.5241 -0.1818  0.4757
 6359TIP3   OH219040   7.093   4.034   2.175  0.1827  0.1822  0.2808
 6359TIP3    H119041   7.016   4.075   2.136  0.2269  1.3655  1.3733
 6359TIP3    H219042   7.137   3.991   2.102 -2.9761 -3.0689 -0.0158
 6360TIP3   OH219043   5.911   3.097   1.969 -0.3135  0.9399 -0.0741
 6360TIP3    H119044   5.918   3.151   2.048 -1.1969 -0.2386  0.8640
 6360TIP3    H219045   5.833   3.044   1.984  0.6566 -0.7879 -0.8101
 6361TIP3   OH219046   3.257   0.934   0.658  0.3798  0.1792  0.0741
 6361TIP3    H119047   3.198   0.997   0.700 -0.2349  0.2121 -0.8248
 6361TIP3    H219048   3.297   0.888   0.732 -0.2598  0.6188  0.7203
 6362TIP3   OH219049   0.036   0.097   5.685  0.3290  0.0944 -0.4869
 6362TIP3    H119050  -0.011   0.154   5.624  1.3404  0.1702 -1.2240
 6362TIP3    H219051   0.056   0.153   5.760 -1.2109 -0.0863  0.0801
 6363TIP3   OH219052   5.303   2.232   3.457 -0.4871 -0.1607  0.1997
 6363TIP3    H119053   5.355   2.152   3.468 -1.8898 -0.9136  1.8983
 6363TIP3    H219054   5.347   2.297   3.511 -0.7425 -0.5181  0.8484
 6364TIP3   OH219055   0.266   4.672   3.137  0.4214  0.1869  0.3290
 6364TIP3    H119056   0.326   4.597   3.147  0.2521 -0.0986 -0.6421
 6364TIP3    H219057   0.314   4.746   3.173  1.1289 -0.1572  0.1177
 6365TIP3   OH219058   0.990   6.337   4.621 -0.2528  0.0726  0.0487
 6365TIP3    H119059   1.036   6.396   4.681 -0.5289  0.4706 -0.1265
 6365TIP3    H219060   0.898   6.361   4.630 -0.4531 -0.8214  0.5147
 6366TIP3   OH219061   0.886   0.221   4.104 -0.4092  0.3288 -0.2930
 6366TIP3    H119062   0.977   0.199   4.125 -0.8885  0.2244  1.9481
 6366TIP3    H219063   0.863   0.162   4.032  1.3273  0.5001 -1.0586
 6367TIP3   OH219064   4.638   4.390   5.077 -0.3022  0.4976 -0.1313
 6367TIP3    H119065   4.671   4.320   5.133 -1.6159 -0.2986 -0.2989
 6367TIP3    H219066   4.544   4.394   5.097 -0.5424  1.1226 -1.2820
 6368TIP3   OH219067   1.383   0.433   1.362  0.4805  0.9129  0.2438
 6368TIP3    H119068   1.396   0.461   1.452 -0.3028 -0.8393  0.9584
 6368TIP3    H219069   1.442   0.358   1.351  0.7357  1.2412 -0.7777
 6369TIP3   OH219070   5.034   1.132   2.423  0.2469 -0.4639  0.0714
 6369TIP3    H119071   5.012   1.158   2.513 -0.6587 -1.7913  0.2572
 6369TIP3    H219072   5.129   1.127   2.423  0.3167  0.4361  0.6876
 6370TIP3   OH219073   4.996   3.427   3.436  0.9184  0.1612 -0.0000
 6370TIP3    H119074   4.941   3.505   3.429 -2.6763 -2.2337 -1.2555
 6370TIP3    H219075   5.039   3.420   3.351  1.3955  0.8041  0.1767
 6371TIP3   OH219076   4.059   0.327   3.788 -0.3307  0.3092 -0.3544
 6371TIP3    H119077   4.146   0.353   3.759  0.3146  0.4394  1.5950
 6371TIP3    H219078   4.065   0.234   3.807 -0.6969  0.2565 -0.4768
 6372TIP3   OH219079   4.574   0.093   5.501  1.0398  0.2637 -0.6059
 6372TIP3    H119080   4.658   0.049   5.493  1.8636  1.7773 -0.6062
 6372TIP3    H219081   4.577   0.163   5.435 -0.0360  0.6228 -0.2958
 6373TIP3   OH219082   0.559   5.054   5.611 -0.1585 -0.0579  0.3304
 6373TIP3    H119083   0.502   5.043   5.687  0.3282 -1.5892  0.5066
 6373TIP3    H219084   0.550   4.972   5.563  0.9050  0.1983 -0.3326
 6374TIP3   OH219085   4.546   5.804   4.777 -0.4577  0.6094 -0.1218
 6374TIP3    H119086   4.482   5.737   4.756  0.5741  0.1643 -2.1693
 6374TIP3    H219087   4.603   5.763   4.843 -1.4980  0.5645  0.7796
 6375TIP3   OH219088   6.319   5.011   2.180  0.1288 -0.6301 -0.2431
 6375TIP3    H119089   6.262   5.020   2.256  2.1566 -0.7197  1.3895
 6375TIP3    H219090   6.372   5.091   2.180  0.8158 -1.0675 -0.9879
 6376TIP3   OH219091   2.253   6.798   0.267 -0.1853 -0.0827  0.0821
 6376TIP3    H119092   2.161   6.780   0.246 -0.6990  1.1807  1.0677
 6376TIP3    H219093   2.303   6.757   0.196 -1.5774  0.2425 -1.1422
 6377TIP3   OH219094   0.488   6.607   5.221  0.8243  0.2952 -0.1655
 6377TIP3    H119095   0.466   6.526   5.268 -1.4674 -1.2603 -3.5285
 6377TIP3    H219096   0.420   6.669   5.248 -0.5718 -0.6350 -1.3496
 6378TIP3   OH219097   0.849   5.160   1.286 -0.2734  0.3300 -0.0109
 6378TIP3    H119098   0.838   5.139   1.378 -1.7037 -0.1015 -0.2478
 6378TIP3    H219099   0.783   5.107   1.241  1.6652 -0.9561 -1.5092
 6379TIP3   OH219100   3.651   2.109   0.130  0.3107 -0.0095 -0.2661
 6379TIP3    H119101   3.654   2.131   0.037 -0.4806 -1.7876 -0.7638
 6379TIP3    H219102   3.607   2.183   0.171  0.7755  0.8526 -1.2731
 6380TIP3   OH219103   2.776   0.150   4.612  0.0642 -0.3618 -0.0492
 6380TIP3    H119104   2.869   0.156   4.590 -0.1344  2.8494 -0.4799
 6380TIP3    H219105   2.758   0.229   4.663 -2.4046 -0.9956  0.1879
 6381TIP3   OH219106   6.198   6.799   4.090  0.4224  0.1632 -0.1099
 6381TIP3    H119107   6.188   6.710   4.125  1.6915 -0.3188 -0.9107
 6381TIP3    H219108   6.252   6.844   4.155 -1.0107  0.6764  0.7769
 6382TIP3   OH219109   3.563   2.027   2.744 -0.0292  0.1796  0.2229
 6382TIP3    H119110   3.636   2.071   2.789  0.9547  0.9726 -2.0377
 6382TIP3    H219111   3.499   2.097   2.729  1.1171  0.7407 -2.5117
 6383TIP3   OH219112   1.651   5.311   3.399  0.4676 -0.7714 -0.4108
 6383TIP3    H119113   1.742   5.285   3.384  0.3344 -2.0079  0.6618
 6383TIP3    H219114   1.652   5.354   3.485  0.3900  1.3688 -1.4218
 6384TIP3   OH219115   1.657   3.295   5.582 -0.5536 -0.2919  0.3154
 6384TIP3    H119116   1.715   3.355   5.536 -0.8311 -1.2602 -1.4005
 6384TIP3    H219117   1.651   3.329   5.671  0.0634  1.6319 -0.3506
 6385TIP3   OH219118   5.985   6.327   4.708  0.0228 -0.1256 -0.3731
 6385TIP3    H119119   5.949   6.403   4.661  0.3406  0.5096  0.3740
 6385TIP3    H219120   6.030   6.277   4.641  0.1926  0.5951 -0.8125
 6386TIP3   OH219121   5.397   0.386   3.002 -0.3482  0.4094 -0.0880
 6386TIP3    H119122   5.462   0.454   2.985  0.1111  0.1561  0.5991
 6386TIP3    H219123   5.408   0.364   3.095  0.0445 -1.1469 -0.4711
 6387TIP3   OH219124   1.363   5.403   5.818 -0.3616 -0.2693 -0.3060
 6387TIP3    H119125   1.428   5.450   5.766 -0.1097 -0.0517  0.1987
 6387TIP3    H219126   1.376   5.311   5.795  0.4614 -0.2767  0.1663
 6388TIP3   OH219127   3.053   0.242   5.416 -0.1610  0.3363 -0.0513
 6388TIP3    H119128   3.043   0.175   5.348 -0.5545  0.8639 -0.5266
 6388TIP3    H219129   2.963   0.262   5.443 -0.0058  0.1121  0.6488
 6389TIP3   OH219130   0.025   4.835   0.803 -0.2478 -0.6989 -0.1257
 6389TIP3    H119131   0.045   4.824   0.710 -0.7901 -0.7335 -0.2410
 6389TIP3    H219132  -0.059   4.880   0.804 -0.1666 -0.5535  0.3519
 6390TIP3   OH219133   4.669   0.403   5.103  0.1628  0.1195 -0.3482
 6390TIP3    H119134   4.589   0.401   5.154  0.3123 -1.4728 -0.1286
 6390TIP3    H219135   4.711   0.485   5.127 -0.4481  0.0497  1.0208
 6391TIP3   OH219136   0.253   6.327   1.686 -0.2620  0.3569 -0.3102
 6391TIP3    H119137   0.205   6.359   1.610 -0.6542 -0.9128 -0.6145
 6391TIP3    H219138   0.345   6.332   1.661 -0.3096  1.1594 -0.3682
 6392TIP3   OH219139   6.063   4.336   0.847  0.2434 -0.1229  0.3772
 6392TIP3    H119140   6.131   4.383   0.799  0.9658 -1.6206 -0.1043
 6392TIP3    H219141   5.995   4.319   0.781  0.9488 -1.6145  0.0041
 6393TIP3   OH219142   1.775   2.855   4.285 -0.4875 -0.3877 -0.3232
 6393TIP3    H119143   1.862   2.829   4.317 -0.7519  1.5186  2.2237
 6393TIP3    H219144   1.715   2.824   4.353 -1.5364  0.4871 -0.8364
 6394TIP3   OH219145   2.187   1.189   5.626  0.0866 -0.3200 -0.0175
 6394TIP3    H119146   2.108   1.217   5.579  0.2695 -1.6405 -1.1643
 6394TIP3    H219147   2.215   1.109   5.581  0.9912 -0.9434  1.5769
 6395TIP3   OH219148   0.725   2.459   0.651 -0.1868 -0.0106  0.6546
 6395TIP3    H119149   0.708   2.509   0.571 -0.1229 -0.7794  0.1554
 6395TIP3    H219150   0.818   2.437   0.647 -0.8093 -2.7189 -0.6416
 6396TIP3   OH219151   3.453   4.809   3.622 -0.4849  0.2613  0.7093
 6396TIP3    H119152   3.475   4.769   3.538 -1.4262  0.2962  0.4282
 6396TIP3    H219153   3.512   4.883   3.630  0.0144 -0.0979  0.3582
 6397TIP3   OH219154   0.381   5.670   3.275  0.3069  0.2618 -0.0983
 6397TIP3    H119155   0.461   5.691   3.323  0.6743 -0.9060 -0.1658
 6397TIP3    H219156   0.322   5.635   3.342  0.2110  0.2112 -0.2089
 6398TIP3   OH219157   4.186   1.841   5.766 -0.0285  0.2741  0.4851
 6398TIP3    H119158   4.100   1.883   5.773 -0.7915 -1.0158 -0.7434
 6398TIP3    H219159   4.249   1.914   5.773 -1.2577  1.4346 -0.0871
 6399TIP3   OH219160   5.925   0.207   5.744 -0.1978  0.0840  0.5359
 6399TIP3    H119161   5.978   0.284   5.728  0.9237 -0.9586 -1.0762
 6399TIP3    H219162   5.834   0.239   5.742  0.2618  1.4413  0.5899
 6400TIP3   OH219163   2.027   2.761   2.720 -0.3992 -0.2239 -0.1833
 6400TIP3    H119164   2.087   2.700   2.763  0.2583 -0.7274 -1.7663
 6400TIP3    H219165   2.048   2.755   2.627 -1.7533  0.8676 -0.5991
 6401TIP3   OH219166   2.739   3.117   1.656  0.4749  0.2478  0.3780
 6401TIP3    H119167   2.700   3.068   1.729  2.6060 -0.7239  0.9170
 6401TIP3    H219168   2.726   3.209   1.680  0.7567 -0.0546  1.7779
 6402TIP3   OH219169   4.027   3.802   3.736 -0.1521  0.4150 -0.2050
 6402TIP3    H119170   4.105   3.748   3.724  0.2507  0.5528  1.5578
 6402TIP3    H219171   4.057   3.892   3.723  0.1183  0.5075  0.9753
 6403TIP3   OH219172   6.483   6.362   1.537 -0.0481 -0.1555 -0.2504
 6403TIP3    H119173   6.409   6.395   1.587 -0.6335 -1.9732  0.1483
 6403TIP3    H219174   6.557   6.368   1.598 -0.2136  0.0576 -0.0659
 6404TIP3   OH219175   6.886   1.819   4.776 -0.0613  0.5207 -0.1521
 6404TIP3    H119176   6.939   1.835   4.854  1.2718  1.5761 -1.2222
 6404TIP3    H219177   6.798   1.802   4.810  1.0028 -1.9032  1.7245
 6405TIP3   OH219178   3.648   3.907   4.454  0.5091 -0.1219 -0.4095
 6405TIP3    H119179   3.622   3.816   4.438  0.9899 -0.1727 -0.9192
 6405TIP3    H219180   3.644   3.916   4.550  2.2703 -1.2434 -0.1876
 6406TIP3   OH219181   1.449   4.318   5.790 -0.3027  0.0980 -0.4291
 6406TIP3    H119182   1.363   4.360   5.785 -0.1864  0.2024 -1.8141
 6406TIP3    H219183   1.504   4.381   5.836 -1.5695 -1.0824  3.0880
 6407TIP3   OH219184   7.187   1.932   4.379  0.1944 -0.3867 -0.2555
 6407TIP3    H119185   7.235   1.990   4.320 -2.1319  0.4750 -1.3955
 6407TIP3    H219186   7.179   1.850   4.331 -0.5060 -0.1308 -0.5869
 6408TIP3   OH219187   3.286   0.738   1.209  0.4061  0.1299 -0.6882
 6408TIP3    H119188   3.274   0.816   1.264 -2.0264 -0.2914 -0.4989
 6408TIP3    H219189   3.239   0.668   1.256  0.8727 -0.9700 -1.8054
 6409TIP3   OH219190   0.629   2.731   3.947 -0.3128 -0.4605  0.4930
 6409TIP3    H119191   0.572   2.793   3.902  0.2028  0.0237  0.4873
 6409TIP3    H219192   0.656   2.777   4.026 -0.9514 -1.1795  1.1444
 6410TIP3   OH219193   2.928   6.766   5.439 -0.5002 -0.1302  0.1250
 6410TIP3    H119194   2.953   6.782   5.348  0.4782  1.4780  0.6496
 6410TIP3    H219195   2.947   6.847   5.484  1.1018 -1.5823  2.2356
 6411TIP3   OH219196   1.548   4.554   4.286 -0.2441  0.2217 -0.2465
 6411TIP3    H119197   1.588   4.598   4.211  1.9172  0.8334  1.1728
 6411TIP3    H219198   1.597   4.472   4.294  1.0454  1.0859  1.6578
 6412TIP3   OH219199   0.293   6.636   1.118 -0.1189 -0.3320 -0.0353
 6412TIP3    H119200   0.295   6.628   1.213  0.5108  0.9790  0.0806
 6412TIP3    H219201   0.351   6.567   1.087 -0.1073 -0.5871  0.5444
 6413TIP3   OH219202   4.776   4.902   0.533  0.0349 -0.2881 -0.8110
 6413TIP3    H119203   4.688   4.918   0.501 -0.2114 -0.4571 -0.2232
 6413TIP3    H219204   4.833   4.922   0.458 -0.4244  0.8358 -0.8700
 6414TIP3   OH219205   6.555   3.430   2.037  0.6103  0.2398  0.7724
 6414TIP3    H119206   6.498   3.486   1.984  0.6305 -1.0585 -0.6914
 6414TIP3    H219207   6.635   3.421   1.985  0.3027 -1.7701  0.5678
 6415TIP3   OH219208   2.714   6.093   3.689  0.2585 -0.4355  0.2745
 6415TIP3    H119209   2.763   6.095   3.607 -1.6257  0.4961 -0.9038
 6415TIP3    H219210   2.777   6.122   3.755  1.5355 -0.1830 -0.9963
 6416TIP3   OH219211   1.440   0.549   2.897  0.3510 -0.1942  0.3109
 6416TIP3    H119212   1.516   0.504   2.860 -0.5565 -1.3022 -0.2658
 6416TIP3    H219213   1.364   0.506   2.856 -0.5647  1.8625 -0.2499
 6417TIP3   OH219214   2.099   2.403   3.449  0.1843  0.1018  0.3338
 6417TIP3    H119215   2.038   2.420   3.520 -0.4257 -0.5220 -0.0293
 6417TIP3    H219216   2.136   2.489   3.428 -0.0947  0.3850  0.9828
 6418TIP3   OH219217   3.484   3.592   3.362 -0.3496 -0.1914  0.0265
 6418TIP3    H119218   3.531   3.554   3.287 -1.1079  0.8118 -0.9972
 6418TIP3    H219219   3.459   3.516   3.415  2.3213 -0.7695  0.6043
 6419TIP3   OH219220   6.408   5.434   0.512  0.1617  0.1719 -0.3294
 6419TIP3    H119221   6.387   5.340   0.513 -0.8721  0.3928  1.0363
 6419TIP3    H219222   6.459   5.448   0.591 -0.3427  0.8967 -0.1261
 6420TIP3   OH219223   3.699   4.290   5.821  0.3413 -0.4246 -0.5650
 6420TIP3    H119224   3.790   4.285   5.848  0.2313 -3.1201 -0.4002
 6420TIP3    H219225   3.691   4.223   5.752 -1.1152  1.0009 -1.8526
 6421TIP3   OH219226   4.243   6.520   1.341  0.0351 -0.2854 -0.3203
 6421TIP3    H119227   4.247   6.424   1.340  1.7899 -0.4600  3.7920
 6421TIP3    H219228   4.327   6.548   1.305 -0.7999 -0.1215 -2.3159
 6422TIP3   OH219229   0.624   2.202   0.889  0.0224  0.0033 -0.6820
 6422TIP3    H119230   0.537   2.235   0.867 -0.4450 -0.3965  0.4509
 6422TIP3    H219231   0.646   2.246   0.971  0.4367 -0.6734 -0.4214
 6423TIP3   OH219232   4.124   2.131   5.157  0.5088  0.0727  0.0651
 6423TIP3    H119233   4.122   2.043   5.197  1.0755  0.1344  0.2345
 6423TIP3    H219234   4.124   2.114   5.063 -0.0123 -0.0918  0.0883
 6424TIP3   OH219235   5.832   5.132   2.230 -0.2047 -0.3986  0.7244
 6424TIP3    H119236   5.894   5.125   2.157 -1.4716  0.7055 -0.5168
 6424TIP3    H219237   5.753   5.168   2.190 -0.3355  2.0444  2.9951
 6425TIP3   OH219238   1.864   4.718   4.539  0.1084  0.7641 -0.5781
 6425TIP3    H119239   1.781   4.676   4.521  0.0239 -0.4391  2.1095
 6425TIP3    H219240   1.931   4.654   4.513  0.1056  0.6796 -0.3804
 6426TIP3   OH219241   3.163   1.944   5.720  0.0384 -0.1344  0.3800
 6426TIP3    H119242   3.143   1.872   5.780 -1.1204  1.4603  2.0204
 6426TIP3    H219243   3.103   1.931   5.647 -0.5899 -0.5249  0.9434
 6427TIP3   OH219244   7.171   5.918   2.917  0.5635  0.1013 -0.5359
 6427TIP3    H119245   7.152   5.865   2.840  0.7538 -1.2135  0.2964
 6427TIP3    H219246   7.266   5.917   2.924  0.6220  1.1989 -0.9304
 6428TIP3   OH219247   2.697   1.028   1.362  0.0826 -0.2756  0.2961
 6428TIP3    H119248   2.677   1.064   1.276 -0.6240 -0.0706  0.5389
 6428TIP3    H219249   2.614   0.989   1.392  0.4721 -0.8616  0.6358
 6429TIP3   OH219250   0.178   4.924   2.200  0.0953  0.7017 -0.1940
 6429TIP3    H119251   0.144   4.835   2.212 -1.5040  1.5714  2.3234
 6429TIP3    H219252   0.124   4.960   2.129 -2.1796  0.9626  1.5563
 6430TIP3   OH219253   3.712   2.273   1.375 -0.1690  0.2983 -0.2805
 6430TIP3    H119254   3.738   2.259   1.284  0.0074  0.3392 -0.2370
 6430TIP3    H219255   3.629   2.226   1.384 -0.5430  0.8700 -0.6553
 6431TIP3   OH219256   0.315   4.771   0.076  0.3232  0.1919  0.2694
 6431TIP3    H119257   0.229   4.736   0.100  0.4281  1.1151  2.2177
 6431TIP3    H219258   0.371   4.694   0.066 -0.4835 -0.3706  0.0662
 6432TIP3   OH219259   1.021   2.062   1.528  0.5226  0.5394  0.3818
 6432TIP3    H119260   0.968   2.067   1.608  0.0739  2.4512  0.0311
 6432TIP3    H219261   1.034   2.154   1.503  0.5722 -0.0164 -1.7950
 6433TIP3   OH219262   1.332   3.202   2.500  0.3385  0.0079  0.2632
 6433TIP3    H119263   1.273   3.127   2.501 -0.9794  0.9929  1.9168
 6433TIP3    H219264   1.367   3.206   2.589  0.1610  1.4787  0.2970
 6434TIP3   OH219265   5.304   3.237   5.577 -0.1018 -0.0728  0.4766
 6434TIP3    H119266   5.359   3.308   5.609  0.8313 -0.2803 -0.5998
 6434TIP3    H219267   5.356   3.158   5.590  0.1036 -0.2192 -0.9910
 6435TIP3   OH219268   5.143   6.039   0.577 -0.0042 -0.7830 -0.6153
 6435TIP3    H119269   5.229   6.013   0.545  0.0993 -1.1254 -0.0644
 6435TIP3    H219270   5.094   5.957   0.584 -0.6773 -0.4926 -1.7970
 6436TIP3   OH219271   6.898   6.674   5.330 -0.4182  0.1951  0.1218
 6436TIP3    H119272   6.983   6.716   5.318 -0.1632 -0.6887 -1.4467
 6436TIP3    H219273   6.919   6.583   5.353 -0.9242 -0.0494 -0.3562
 6437TIP3   OH219274   2.862   3.871   5.797 -0.0646  0.0729  0.1871
 6437TIP3    H119275   2.884   3.877   5.704  0.0891  0.0977  0.2243
 6437TIP3    H219276   2.816   3.788   5.806  0.8949 -0.4622  0.2817
 6438TIP3   OH219277   6.459   6.688   5.165  0.2241  0.2700  0.0873
 6438TIP3    H119278   6.415   6.646   5.238 -1.1156 -0.6631 -1.1938
 6438TIP3    H219279   6.435   6.635   5.089  0.4762  1.9575 -1.2302
 6439TIP3   OH219280   4.154   1.830   5.121  0.3243  0.5069 -0.3753
 6439TIP3    H119281   4.139   1.860   5.211  2.0002  0.2216  0.0310
 6439TIP3    H219282   4.098   1.886   5.067 -1.1366  0.3160  0.8731
 6440TIP3   OH219283   4.696   1.446   2.677  0.4696  0.2048  0.3413
 6440TIP3    H119284   4.629   1.386   2.644  1.4033  0.3368 -1.9968
 6440TIP3    H219285   4.771   1.432   2.619  0.9798  3.0670  0.1906
 6441TIP3   OH219286   2.009   2.746   4.357 -0.4469  0.3314 -0.0000
 6441TIP3    H119287   2.074   2.816   4.352  0.9107 -0.9508 -2.8203
 6441TIP3    H219288   2.033   2.696   4.435  1.0082  0.7956 -0.1214
 6442TIP3   OH219289   2.108   0.731   5.604  0.3645 -0.0001  0.4282
 6442TIP3    H119290   2.092   0.683   5.685 -0.1713  0.2157  0.4567
 6442TIP3    H219291   2.021   0.740   5.564  0.4135  1.1733  0.5552
 6443TIP3   OH219292   3.081   4.602   0.472  0.5670 -0.2859  0.2638
 6443TIP3    H119293   3.159   4.555   0.442  1.7223  0.3925  2.0589
 6443TIP3    H219294   3.100   4.694   0.455  0.5708 -0.0347  1.5303
 6444TIP3   OH219295   4.612   3.249   3.470  0.0499  0.4099  0.3039
 6444TIP3    H119296   4.695   3.205   3.450  1.1421  2.9090 -1.2572
 6444TIP3    H219297   4.546   3.197   3.425  1.1829 -0.0500 -0.9172
 6445TIP3   OH219298   0.628   6.397   1.166  0.0451 -0.5266 -0.0950
 6445TIP3    H119299   0.627   6.314   1.214 -2.4678  0.1649  1.2756
 6445TIP3    H219300   0.616   6.464   1.234 -0.9165  0.7117 -1.4151
 6446TIP3   OH219301   3.295   1.963   4.172  0.0790 -0.1481  0.1503
 6446TIP3    H119302   3.208   1.921   4.169  0.4866 -1.1944  1.6631
 6446TIP3    H219303   3.294   2.025   4.100 -1.4657 -1.0624 -0.6774
 6447TIP3   OH219304   3.995   4.067   5.698 -0.4329 -0.5471 -0.2357
 6447TIP3    H119305   3.983   4.147   5.749 -2.3104  1.3355 -3.3051
 6447TIP3    H219306   3.920   4.012   5.721  0.0643 -0.8380  0.7729
 6448TIP3   OH219307   7.046   5.240   3.628  0.5146 -0.7891 -0.5415
 6448TIP3    H119308   7.138   5.239   3.605  0.5819  0.4804 -0.3694
 6448TIP3    H219309   7.000   5.229   3.545  0.7945  1.3305 -1.0369
 6449TIP3   OH219310   6.851   2.879   2.725  0.5615  0.1606  0.1265
 6449TIP3    H119311   6.878   2.819   2.794  0.8746 -1.1256 -1.0883
 6449TIP3    H219312   6.927   2.934   2.709  0.6057  0.2230  0.5442
 6450TIP3   OH219313   5.015   2.862   0.063 -0.1846  0.7250 -0.1929
 6450TIP3    H119314   4.959   2.824   0.130 -0.7805  1.9455  0.0413
 6450TIP3    H219315   5.069   2.925   0.110  1.5438 -0.5537 -0.3896
 6451TIP3   OH219316   4.679   2.000   4.446 -0.1621  0.0187  0.1191
 6451TIP3    H119317   4.596   1.953   4.448 -0.1424 -0.0202  0.0209
 6451TIP3    H219318   4.654   2.093   4.450 -0.2416  0.0309 -0.6177
 6452TIP3   OH219319   6.052   6.332   4.412 -0.1530  0.1708  0.5021
 6452TIP3    H119320   6.107   6.259   4.440 -1.3101 -0.6445  0.7378
 6452TIP3    H219321   6.031   6.313   4.321 -0.4307  0.2223  0.5548
 6453TIP3   OH219322   4.485   6.093   4.506  0.2938  0.6418 -0.1281
 6453TIP3    H119323   4.524   6.070   4.590  0.0396  0.6191 -0.0140
 6453TIP3    H219324   4.409   6.035   4.499  0.4224  0.5109 -0.4596
 6454TIP3   OH219325   0.195   3.850   0.025 -0.4184 -0.2924  0.1591
 6454TIP3    H119326   0.151   3.766   0.013  0.1420 -0.4054 -1.3482
 6454TIP3    H219327   0.287   3.826   0.041 -0.0241  0.0161 -1.4378
 6455TIP3   OH219328   1.080   0.129   5.284 -0.1710  0.3935 -0.7742
 6455TIP3    H119329   1.168   0.093   5.293  0.5933  1.8201 -2.2510
 6455TIP3    H219330   1.088   0.221   5.311 -0.9739  0.8096 -1.8778
 6456TIP3   OH219331   0.577   5.125   2.103  0.3753 -0.2174 -0.4804
 6456TIP3    H119332   0.525   5.084   2.173  1.0698  2.6632  1.9100
 6456TIP3    H219333   0.521   5.195   2.071  0.4778 -0.8861 -2.2333
 6457TIP3   OH219334   5.292   3.903   4.938  0.1771 -0.3170  0.4922
 6457TIP3    H119335   5.225   3.968   4.962  1.7134  2.5009 -2.1140
 6457TIP3    H219336   5.373   3.936   4.977  1.5593  1.1627 -3.2087
 6458TIP3   OH219337   4.068   5.923   2.769  0.3941  0.4478 -0.2522
 6458TIP3    H119338   4.078   6.018   2.765 -0.3279  0.5717  0.6369
 6458TIP3    H219339   4.107   5.898   2.853  1.1652 -0.1260 -0.7697
 6459TIP3   OH219340   0.428   3.106   0.219  0.0339  0.1011  0.3114
 6459TIP3    H119341   0.477   3.164   0.161 -0.5240 -0.3746 -0.6578
 6459TIP3    H219342   0.485   3.030   0.230 -0.3790 -0.3542 -0.6347
 6460TIP3   OH219343   4.048   6.407   5.755 -0.6301  0.0090  0.1946
 6460TIP3    H119344   4.000   6.369   5.828 -0.4075  0.1009  0.3926
 6460TIP3    H219345   3.983   6.420   5.687 -0.8811  0.1279  0.4572
 6461TIP3   OH219346   2.148   6.164   1.642 -0.2161  0.3479  0.5569
 6461TIP3    H119347   2.055   6.183   1.660  0.0024  2.1130  0.0644
 6461TIP3    H219348   2.150   6.143   1.549 -0.3904 -1.9228  1.0133
 6462TIP3   OH219349   1.720   2.430   5.032  0.1048  0.7269  0.1299
 6462TIP3    H119350   1.678   2.407   4.949 -1.9830 -0.0564  1.3123
 6462TIP3    H219351   1.709   2.524   5.040  1.9521  1.1132 -1.2708
 6463TIP3   OH219352   6.738   4.512   3.508 -0.3239 -0.4690  0.2656
 6463TIP3    H119353   6.685   4.432   3.511 -1.8369  0.4293 -0.8149
 6463TIP3    H219354   6.798   4.504   3.582 -1.4102 -1.9462  1.0489
 6464TIP3   OH219355   6.622   3.931   4.387 -0.1774 -0.0796 -0.1756
 6464TIP3    H119356   6.659   4.010   4.426 -0.9731 -0.3469  1.1870
 6464TIP3    H219357   6.535   3.957   4.357 -0.9699 -0.7334  1.4797
 6465TIP3   OH219358   4.803   3.538   5.493  0.1020 -0.2806 -0.5782
 6465TIP3    H119359   4.831   3.477   5.561  1.4578  0.3397 -0.5320
 6465TIP3    H219360   4.881   3.591   5.475 -0.8804  1.1070 -0.9630
 6466TIP3   OH219361   0.973   1.935   2.062  0.4326 -0.2053  0.0858
 6466TIP3    H119362   1.040   1.965   2.123  0.4021  0.0460 -0.0040
 6466TIP3    H219363   0.997   1.844   2.043  0.1767 -0.4400  0.8346
 6467TIP3   OH219364   6.294   3.831   4.600 -0.0550 -0.0712 -0.1710
 6467TIP3    H119365   6.267   3.923   4.605 -0.5767 -0.1905 -0.7155
 6467TIP3    H219366   6.306   3.814   4.507  0.1121 -0.5416 -0.0683
 6468TIP3   OH219367   2.425   1.693   5.178  0.2368  0.4965  0.1598
 6468TIP3    H119368   2.459   1.776   5.146  0.4319  0.0805 -0.7450
 6468TIP3    H219369   2.344   1.679   5.129 -0.9038  1.1330  1.7898
 6469TIP3   OH219370   7.176   2.933   3.516 -0.4048 -0.2768  0.6078
 6469TIP3    H119371   7.109   2.922   3.448  0.7355 -1.2142 -0.3995
 6469TIP3    H219372   7.201   3.025   3.509  0.2547 -0.5435 -0.8008
 6470TIP3   OH219373   2.571   1.446   5.827  0.4817  0.0632 -0.0908
 6470TIP3    H119374   2.651   1.406   5.793 -0.0612 -0.2496 -1.0200
 6470TIP3    H219375   2.505   1.377   5.821  0.3704 -0.0293  1.6789
 6471TIP3   OH219376   1.301   4.942   1.960  0.5854  0.2363  0.2002
 6471TIP3    H119377   1.276   5.033   1.941  0.4381 -0.0157 -0.9100
 6471TIP3    H219378   1.243   4.915   2.031  1.1112  1.2236  1.0401
 6472TIP3   OH219379   2.066   2.558   4.981 -0.7845 -0.2845 -0.6673
 6472TIP3    H119380   2.036   2.563   5.072  0.0830 -2.1416 -0.2259
 6472TIP3    H219381   2.161   2.553   4.987 -0.4782  2.4999 -1.8863
 6473TIP3   OH219382   1.743   6.526   5.563 -0.0950 -0.0658  0.2110
 6473TIP3    H119383   1.761   6.620   5.574  1.0705 -0.3368  0.7536
 6473TIP3    H219384   1.777   6.505   5.476  0.0803 -0.0911  0.2864
 6474TIP3   OH219385   0.873   6.537   0.953  0.0065  0.3415  0.6154
 6474TIP3    H119386   0.841   6.448   0.943 -2.8721  1.3226 -0.0345
 6474TIP3    H219387   0.833   6.586   0.881  1.4474  2.1863  0.9689
 6475TIP3   OH219388   1.783   3.035   3.725  0.0787 -0.3978  0.0445
 6475TIP3    H119389   1.759   2.962   3.782 -1.4457  0.5356  0.6526
 6475TIP3    H219390   1.831   3.095   3.783 -0.4679  0.0241  0.0625
 6476TIP3   OH219391   0.235   5.467   5.103 -0.1214 -0.1698 -0.1767
 6476TIP3    H119392   0.227   5.483   5.009  0.5381 -0.9504 -0.3795
 6476TIP3    H219393   0.145   5.464   5.135 -0.5973 -3.4493 -1.4458
 6477TIP3   OH219394   0.995   3.899   1.459  0.0247 -0.2218 -0.4184
 6477TIP3    H119395   0.909   3.902   1.501  1.2667  1.8534  2.2622
 6477TIP3    H219396   1.014   3.989   1.435  2.1051 -0.3525  0.5375
 6478TIP3   OH219397   3.314   2.320   3.744 -0.0063  0.0129 -0.3029
 6478TIP3    H119398   3.310   2.229   3.713  0.1281 -0.0104 -0.2531
 6478TIP3    H219399   3.223   2.342   3.765  0.0736 -0.4043  0.5207
 6479TIP3   OH219400   1.192   2.206   2.405 -0.3179  0.2248  0.2184
 6479TIP3    H119401   1.160   2.263   2.475  0.2233 -0.9982  1.5105
 6479TIP3    H219402   1.150   2.122   2.421 -0.9715  0.1723 -1.5644
 6480TIP3   OH219403   4.629   0.556   0.411  0.1720  0.0338  0.8170
 6480TIP3    H119404   4.554   0.501   0.386  0.3849  0.4036 -0.7698
 6480TIP3    H219405   4.671   0.508   0.482 -0.6940 -0.9492  0.6923
 6481TIP3   OH219406   5.484   2.321   1.945 -0.3891 -0.1472 -0.0404
 6481TIP3    H119407   5.536   2.254   1.989 -0.3083  0.4176  0.7404
 6481TIP3    H219408   5.488   2.298   1.852 -1.9499 -2.3378  0.3558
 6482TIP3   OH219409   2.979   4.790   5.754  0.3948 -0.0232 -0.1137
 6482TIP3    H119410   2.979   4.878   5.715  1.1352  0.5248  1.0514
 6482TIP3    H219411   3.070   4.774   5.778  0.1117 -0.7215  0.5348
 6483TIP3   OH219412   6.864   1.469   4.937 -0.5668  0.4606 -0.0322
 6483TIP3    H119413   6.857   1.558   4.972 -1.0066  0.4405 -0.0629
 6483TIP3    H219414   6.781   1.454   4.892 -0.2136  0.2954 -0.6479
 6484TIP3   OH219415   5.592   4.329   3.615 -0.0255  0.4831 -0.2127
 6484TIP3    H119416   5.674   4.336   3.566 -0.4207  2.4487 -0.6478
 6484TIP3    H219417   5.619   4.335   3.707  0.2775  1.8451 -0.3773
 6485TIP3   OH219418   3.311   1.814   2.202 -0.2635  0.3658  0.4014
 6485TIP3    H119419   3.258   1.756   2.147 -1.7969  0.5047  1.6796
 6485TIP3    H219420   3.395   1.768   2.210 -0.9864 -1.0463  0.2904
 6486TIP3   OH219421   6.518   3.462   0.512  0.0399  0.2228 -0.1026
 6486TIP3    H119422   6.547   3.451   0.422 -0.3021  1.1162 -0.3363
 6486TIP3    H219423   6.551   3.385   0.558 -0.2281 -0.5035 -1.0940
 6487TIP3   OH219424   4.698   5.004   5.428  0.9173  0.3619  0.0987
 6487TIP3    H119425   4.638   5.067   5.467  0.1467 -0.7012  0.6825
 6487TIP3    H219426   4.653   4.973   5.349  0.0600 -1.3895  1.2147
 6488TIP3   OH219427   0.732   3.182   3.478 -0.2546 -0.0605 -0.5672
 6488TIP3    H119428   0.782   3.163   3.398  0.3783 -0.6274 -0.0513
 6488TIP3    H219429   0.799   3.198   3.544 -0.7672 -0.0926 -0.0350
 6489TIP3   OH219430   7.160   6.484   1.601 -0.1116 -0.3586  0.0159
 6489TIP3    H119431   7.237   6.534   1.577 -0.3518  0.1956  0.3892
 6489TIP3    H219432   7.137   6.515   1.688  0.2496 -1.7365  0.6377
 6490TIP3   OH219433   0.767   1.328   5.400  0.7379  0.2885 -0.1039
 6490TIP3    H119434   0.814   1.402   5.361  2.2009 -1.0656 -1.0073
 6490TIP3    H219435   0.799   1.251   5.354 -0.8549 -0.9305  0.7116
 6491TIP3   OH219436   1.598   0.672   2.532 -0.2787 -0.2218 -0.1557
 6491TIP3    H119437   1.524   0.729   2.509  1.3191  1.1212 -2.2896
 6491TIP3    H219438   1.675   0.728   2.524  1.2459 -2.3328 -0.9779
 6492TIP3   OH219439   0.507   3.264   2.690  0.0068  0.4245 -0.3843
 6492TIP3    H119440   0.581   3.252   2.749 -0.2109 -1.4488 -0.4538
 6492TIP3    H219441   0.458   3.338   2.727  0.1376 -0.4014  1.4961
 6493TIP3   OH219442   0.873   0.445   1.404  0.0790  0.2860 -0.5363
 6493TIP3    H119443   0.841   0.485   1.485  0.6513 -1.1652  0.4587
 6493TIP3    H219444   0.968   0.437   1.418 -0.0194 -1.5097 -0.5955
 6494TIP3   OH219445   2.945   4.215   1.000  0.1123 -0.3608  0.0403
 6494TIP3    H119446   2.968   4.197   1.091 -0.9008 -1.0165  0.1887
 6494TIP3    H219447   2.981   4.141   0.951  0.6047 -0.0388 -0.0926
 6495TIP3   OH219448   5.318   4.676   1.734 -0.2815 -0.4719 -0.0455
 6495TIP3    H119449   5.283   4.731   1.805 -0.5685  0.8419 -1.1623
 6495TIP3    H219450   5.259   4.691   1.661  0.4421 -1.2177 -0.7958
 6496TIP3   OH219451   0.794   1.274   0.032 -0.6514 -0.0325  0.1842
 6496TIP3    H119452   0.777   1.190  -0.012 -1.1725 -0.6504  1.5257
 6496TIP3    H219453   0.807   1.251   0.124 -2.4238  1.5085  0.8758
 6497TIP3   OH219454   2.395   0.023   5.292 -0.3770  0.6677  0.4452
 6497TIP3    H119455   2.404   0.076   5.371 -0.0440  0.6138  0.4440
 6497TIP3    H219456   2.369   0.085   5.224 -0.2080  0.7885  0.4922
 6498TIP3   OH219457   0.682   4.483   2.092  0.1004  0.5619  0.6040
 6498TIP3    H119458   0.716   4.559   2.139 -0.7773  0.0273  2.1863
 6498TIP3    H219459   0.587   4.493   2.096 -0.0167  0.3986 -0.9602
 6499TIP3   OH219460   6.992   6.730   1.217 -0.1607 -0.0707 -0.0243
 6499TIP3    H119461   7.077   6.752   1.180  0.4667  1.8131  2.3302
 6499TIP3    H219462   6.933   6.798   1.184 -0.5213 -0.6839 -0.6842
 6500TIP3   OH219463   2.415  -0.008   5.841  0.5472  0.3339 -0.2442
 6500TIP3    H119464   2.324  -0.038   5.844  0.6423 -0.0489 -1.0404
 6500TIP3    H219465   2.417   0.071   5.895 -0.5680  1.1706 -1.3808
 6501TIP3   OH219466   6.907   1.602   1.715 -0.0686  0.4441 -0.1148
 6501TIP3    H119467   6.836   1.550   1.677 -0.7512  0.6339  0.8407
 6501TIP3    H219468   6.896   1.689   1.677  0.5036  0.1392 -1.0057
 6502TIP3   OH219469   0.578   3.636   5.834 -0.2844 -0.9221 -0.4687
 6502TIP3    H119470   0.584   3.673   5.746  0.9507  0.9967  0.3411
 6502TIP3    H219471   0.667   3.604   5.852 -0.0972  0.1412  0.6154
 6503TIP3   OH219472   1.479   4.437   1.714  0.1527  0.1202  0.1162
 6503TIP3    H119473   1.461   4.531   1.718 -0.8108  0.0463 -1.6017
 6503TIP3    H219474   1.495   4.419   1.622  0.9813 -1.3110  0.5074
 6504TIP3   OH219475   3.081   3.226   0.297 -0.4167  0.2189 -0.1051
 6504TIP3    H119476   3.130   3.301   0.264 -0.4514  0.0633 -0.5198
 6504TIP3    H219477   3.049   3.182   0.218 -0.5368 -0.1364  0.1392
 6505TIP3   OH219478   5.752   2.250   5.870  1.0204 -0.2317  0.2583
 6505TIP3    H119479   5.695   2.288   5.803  0.3965 -0.5285  0.6158
 6505TIP3    H219480   5.816   2.199   5.821 -0.3658 -1.7345 -0.0567
 6506TIP3   OH219481   3.623   3.393   3.694  0.0040  0.1745  0.4081
 6506TIP3    H119482   3.628   3.306   3.656 -0.7281  0.6967 -0.9928
 6506TIP3    H219483   3.711   3.429   3.683 -0.2993  0.4829 -1.3195
 6507TIP3   OH219484   6.569   6.131   2.250 -0.4411  0.1632 -0.0708
 6507TIP3    H119485   6.616   6.080   2.184 -2.3319  0.2094 -1.5094
 6507TIP3    H219486   6.607   6.102   2.333  0.6945 -1.2767 -1.0331
 6508TIP3   OH219487   1.638   1.339   1.931  0.0786  0.1397  0.4604
 6508TIP3    H119488   1.683   1.288   1.999 -1.0670 -1.4047  0.1196
 6508TIP3    H219489   1.706   1.360   1.868  0.8287  0.1424  1.2504
 6509TIP3   OH219490   5.613   5.318   2.076  0.2847 -0.9267 -0.0387
 6509TIP3    H119491   5.519   5.297   2.074  0.6056 -2.7531  1.3894
 6509TIP3    H219492   5.647   5.280   1.995  0.1009 -2.0881  0.4051
 6510TIP3   OH219493   5.785   1.500   1.055  0.3674  0.0095 -0.6095
 6510TIP3    H119494   5.701   1.459   1.034  0.4422 -0.3811 -0.1626
 6510TIP3    H219495   5.767   1.594   1.052 -0.1038 -0.0731 -0.4439
 6511TIP3   OH219496   6.032   1.943   2.027 -0.3486 -0.2256 -0.0131
 6511TIP3    H119497   5.968   1.875   2.007 -0.9033  0.4460 -0.5627
 6511TIP3    H219498   6.109   1.894   2.058 -0.3767 -1.1615 -1.3408
 6512TIP3   OH219499   6.162   3.129   4.817  0.2968  0.1271 -0.3245
 6512TIP3    H119500   6.215   3.184   4.759  2.5688 -1.9016 -0.3617
 6512TIP3    H219501   6.087   3.102   4.763  0.7707  0.7076 -1.2959
 6513TIP3   OH219502   1.971   1.296   0.840 -0.1130  0.1101 -0.1004
 6513TIP3    H119503   1.992   1.243   0.763  1.3498  0.6404 -0.0970
 6513TIP3    H219504   2.027   1.374   0.832 -0.8877  0.7964  0.8292
 6514TIP3   OH219505   5.229   1.461   2.853 -0.0082  0.2318  0.1454
 6514TIP3    H119506   5.251   1.368   2.862  1.0198  0.5085  0.6991
 6514TIP3    H219507   5.276   1.489   2.775  0.5977  0.5276  0.6025
 6515TIP3   OH219508   4.252   4.555   1.511  0.4542 -0.3814 -0.0206
 6515TIP3    H119509   4.331   4.587   1.466 -0.3544 -0.8476 -1.8712
 6515TIP3    H219510   4.284   4.520   1.594  1.8657  1.6843  0.3926
 6516TIP3   OH219511   5.275   4.731   4.434 -0.1940 -0.3332 -0.1828
 6516TIP3    H119512   5.356   4.774   4.463  0.9027 -0.1596 -3.1512
 6516TIP3    H219513   5.205   4.776   4.482  1.3677 -0.0995  2.0516
 6517TIP3   OH219514   1.823   3.088   0.546 -0.1296  0.0114  0.0439
 6517TIP3    H119515   1.814   3.031   0.469 -1.1182 -0.3069  0.3668
 6517TIP3    H219516   1.759   3.052   0.609  0.0439  0.7958  0.6780
 6518TIP3   OH219517   7.221   1.775   2.244  0.0085  0.4710  0.4177
 6518TIP3    H119518   7.288   1.828   2.201 -0.7456  1.1981  0.1213
 6518TIP3    H219519   7.144   1.783   2.187  0.0776 -1.5135 -0.0059
 6519TIP3   OH219520   0.379   2.970   4.425  0.2444 -0.3233 -0.4098
 6519TIP3    H119521   0.285   2.979   4.407 -0.1383  1.1588  1.9020
 6519TIP3    H219522   0.390   3.007   4.512  2.9246 -0.9798 -0.3900
 6520TIP3   OH219523   3.727   3.707   4.105  0.1716  0.2632 -0.1255
 6520TIP3    H119524   3.703   3.720   4.196  1.4607  0.5801  0.1885
 6520TIP3    H219525   3.708   3.615   4.087  0.3813  0.0750  0.6106
 6521TIP3   OH219526   3.163   6.237   5.765 -0.4836  0.0793  0.3625
 6521TIP3    H119527   3.146   6.263   5.675  0.4218  1.6054  0.5938
 6521TIP3    H219528   3.257   6.247   5.776 -0.2681 -2.0326  0.9353
 6522TIP3   OH219529   3.722   3.633   5.554  0.0421 -0.3876 -0.8780
 6522TIP3    H119530   3.708   3.541   5.579 -0.7538 -0.5460 -1.7899
 6522TIP3    H219531   3.666   3.644   5.476  0.8440  0.6127 -1.3277
 6523TIP3   OH219532   3.441   0.677   1.978 -0.3634 -0.2998 -0.1933
 6523TIP3    H119533   3.520   0.732   1.972 -1.6209  1.4549 -2.1326
 6523TIP3    H219534   3.459   0.604   1.919  0.4401 -0.8168  0.6637
 6524TIP3   OH219535   1.977   2.833   5.753  0.2499  0.6814 -0.4946
 6524TIP3    H119536   2.011   2.916   5.720 -0.4465  1.2135  0.0953
 6524TIP3    H219537   2.055   2.782   5.775  0.7681  0.3042 -2.8604
 6525TIP3   OH219538   6.311   5.070   3.399 -0.9933  0.8396 -0.6998
 6525TIP3    H119539   6.343   5.145   3.449 -0.4496  1.8434 -2.4592
 6525TIP3    H219540   6.220   5.059   3.426 -1.0252  2.0219 -0.2754
 6526TIP3   OH219541   0.675   4.251   4.982 -0.2799 -0.0468  0.5284
 6526TIP3    H119542   0.660   4.213   5.069 -1.7761  2.4761  1.4794
 6526TIP3    H219543   0.589   4.253   4.941 -0.1078  1.4217  0.1768
 6527TIP3   OH219544   2.643   5.568   4.768  0.2208 -0.3699  0.2642
 6527TIP3    H119545   2.610   5.509   4.700 -1.1450  0.7362 -0.0870
 6527TIP3    H219546   2.635   5.655   4.729 -0.9105  0.3287  1.9448
 6528TIP3   OH219547   3.292   3.000   2.170  0.0307 -0.0172 -0.2617
 6528TIP3    H119548   3.231   3.068   2.200  0.1962  0.6025 -1.2928
 6528TIP3    H219549   3.261   2.920   2.213  0.6950  0.9210  2.1449
 6529TIP3   OH219550   1.676   5.413   3.669  0.5239  0.5246  0.3060
 6529TIP3    H119551   1.700   5.498   3.706  1.6763  0.1092  0.5523
 6529TIP3    H219552   1.760   5.370   3.652  0.0775  0.6651 -2.7493
 6530TIP3   OH219553   4.817   3.520   0.750  0.4332  0.1098 -0.2261
 6530TIP3    H119554   4.806   3.593   0.689 -1.8115  0.3219  0.3301
 6530TIP3    H219555   4.817   3.561   0.836  0.4484 -0.4266  0.0345
 6531TIP3   OH219556   4.276   6.333   3.285 -0.0761 -0.1473  0.2480
 6531TIP3    H119557   4.347   6.337   3.349 -0.1613  0.2098  0.3193
 6531TIP3    H219558   4.220   6.408   3.305  0.1971  0.2896 -0.5989
 6532TIP3   OH219559   3.546   4.525   0.882  0.5502  0.4227  0.0416
 6532TIP3    H119560   3.519   4.522   0.790 -0.8377 -0.8728  0.4641
 6532TIP3    H219561   3.505   4.604   0.916  1.0022  0.8657 -0.4224
 6533TIP3   OH219562   4.424   4.202   0.909 -0.4480 -0.0075 -0.2156
 6533TIP3    H119563   4.357   4.266   0.932  0.3901  0.7642  0.1440
 6533TIP3    H219564   4.507   4.243   0.936  0.3529 -0.1351 -2.3151
 6534TIP3   OH219565   7.043   0.307   1.026 -0.4757 -0.1073 -0.5854
 6534TIP3    H119566   7.077   0.225   0.991 -1.1822 -0.9598  0.6784
 6534TIP3    H219567   7.119   0.347   1.070  0.0048  0.2039 -1.6600
 6535TIP3   OH219568   6.589   2.201   5.398  0.2320  0.1730  0.7749
 6535TIP3    H119569   6.542   2.270   5.350  1.3446  0.6578  0.3468
 6535TIP3    H219570   6.535   2.123   5.388 -0.0552  0.5109 -0.4383
 6536TIP3   OH219571   6.749   4.131   4.126  0.3679 -0.0414 -0.6700
 6536TIP3    H119572   6.693   4.054   4.132 -0.2494  0.3148 -1.5587
 6536TIP3    H219573   6.831   4.105   4.167 -1.3081  0.3173  3.4091
 6537TIP3   OH219574   5.914   3.375   4.778 -0.2318  0.1352  0.3805
 6537TIP3    H119575   5.929   3.399   4.870 -1.9775  0.7543  0.5449
 6537TIP3    H219576   5.841   3.313   4.781 -0.6538  0.5649 -0.6304
 6538TIP3   OH219577   2.608   2.563   1.971 -0.5950  0.0025  0.5338
 6538TIP3    H119578   2.628   2.624   2.042 -0.8596 -0.5434  1.0887
 6538TIP3    H219579   2.514   2.572   1.958 -0.6294 -0.2609  0.5985
 6539TIP3   OH219580   1.985   4.211   3.354  1.2108 -0.1088 -0.1700
 6539TIP3    H119581   1.942   4.282   3.402  0.8443 -0.3051 -0.2103
 6539TIP3    H219582   1.944   4.131   3.386  1.8710 -0.3315  0.1329
 6540TIP3   OH219583   7.083   3.172   1.092  0.1993  0.1643  0.2219
 6540TIP3    H119584   7.010   3.133   1.044 -0.8192  1.4268  0.6983
 6540TIP3    H219585   7.161   3.138   1.048 -0.6621 -1.0280 -0.4507
 6541TIP3   OH219586   1.613   3.837   0.953  0.4998  0.1973  0.3135
 6541TIP3    H119587   1.612   3.866   1.045 -1.5636 -0.6470  0.6140
 6541TIP3    H219588   1.521   3.829   0.930  0.9930 -0.1147 -1.6926
 6542TIP3   OH219589   3.202   4.057   1.517  0.4433  0.7419  0.4140
 6542TIP3    H119590   3.211   4.024   1.606  1.0607  0.4309  0.2430
 6542TIP3    H219591   3.113   4.092   1.513 -0.7722 -2.1143  0.1882
 6543TIP3   OH219592   7.222   5.287   1.494  0.2473 -0.3512  0.0670
 6543TIP3    H119593   7.267   5.246   1.567  1.4855  0.4773 -0.2058
 6543TIP3    H219594   7.147   5.332   1.535 -1.6679 -3.4663  0.2739
 6544TIP3   OH219595   4.537   5.511   5.825  0.1826 -0.3565  0.0196
 6544TIP3    H119596   4.586   5.473   5.897  0.1892  0.4019  0.4269
 6544TIP3    H219597   4.592   5.583   5.793 -0.3134  0.0198 -0.0085
 6545TIP3   OH219598   1.479   3.527   0.870  0.6042  0.2207 -0.0037
 6545TIP3    H119599   1.473   3.553   0.778 -0.7281  0.2987  0.0863
 6545TIP3    H219600   1.572   3.535   0.891  0.8465  0.7327 -1.1875
 6546TIP3   OH219601   6.600   1.778   1.574  0.0820  0.1283  0.5454
 6546TIP3    H119602   6.608   1.684   1.591  3.4617 -0.6132 -3.5539
 6546TIP3    H219603   6.679   1.816   1.612 -0.8786  1.2893  1.4776
 6547TIP3   OH219604   6.506   5.585   4.765  0.2766  0.0787  0.4496
 6547TIP3    H119605   6.474   5.495   4.763  1.5302 -0.3761  0.0025
 6547TIP3    H219606   6.495   5.612   4.856 -1.5805  0.0517  0.2675
 6548TIP3   OH219607   4.564   6.465   2.952 -0.6373  0.2655 -0.1191
 6548TIP3    H119608   4.489   6.407   2.959 -0.5909  0.1854 -0.2750
 6548TIP3    H219609   4.536   6.533   2.890 -0.9731  0.8532  0.6652
 6549TIP3   OH219610   4.846   6.793   5.084  0.4006  0.3245  0.2140
 6549TIP3    H119611   4.853   6.876   5.037  3.0815  0.7442  1.1338
 6549TIP3    H219612   4.866   6.726   5.019 -1.8000  0.3573 -0.5396
 6550TIP3   OH219613   1.749   3.200   2.334  0.2868 -0.2268  0.2553
 6550TIP3    H119614   1.825   3.145   2.315  1.5095  0.8132  1.8556
 6550TIP3    H219615   1.736   3.191   2.429  0.0379  1.5860  0.4319
 6551TIP3   OH219616   1.947   2.362   0.485  0.3301  0.0273 -0.0451
 6551TIP3    H119617   1.866   2.314   0.503 -0.0505  1.6040  3.1507
 6551TIP3    H219618   1.925   2.420   0.413 -0.1958 -2.0776 -1.6846
 6552TIP3   OH219619   0.245   6.105   1.845  0.0553  0.4455 -0.6034
 6552TIP3    H119620   0.226   6.162   1.770 -0.2559 -1.1656 -1.8010
 6552TIP3    H219621   0.339   6.090   1.841  0.4750  2.3468  0.8509
 6553TIP3   OH219622   4.139   6.292   3.862 -0.0128  0.1672 -0.2025
 6553TIP3    H119623   4.070   6.329   3.807  0.9167  0.9460 -0.8715
 6553TIP3    H219624   4.219   6.333   3.830  1.1189 -2.5479 -1.1370
 6554TIP3   OH219625   6.965   6.036   0.637 -0.3198 -0.6047  0.0461
 6554TIP3    H119626   6.875   6.054   0.608 -0.6065 -0.2703  1.0941
 6554TIP3    H219627   7.000   5.976   0.571 -1.2738 -0.6427 -0.4440
 6555TIP3   OH219628   3.310   2.459   5.628 -0.2135 -0.0771 -0.1364
 6555TIP3    H119629   3.265   2.374   5.628 -0.2475 -0.0587  0.0731
 6555TIP3    H219630   3.370   2.455   5.702 -0.3854  0.1715  0.0189
 6556TIP3   OH219631   0.920   2.449   4.271 -0.1788  0.4724  0.6945
 6556TIP3    H119632   0.927   2.375   4.332 -3.4787 -0.4803  0.0860
 6556TIP3    H219633   0.989   2.432   4.206  0.2602 -1.1210  1.5278
 6557TIP3   OH219634   0.595   2.797   3.510  0.6605  0.1345 -0.0464
 6557TIP3    H119635   0.582   2.714   3.556  1.9793 -0.0972 -0.0384
 6557TIP3    H219636   0.685   2.792   3.476 -0.4571  0.0079 -3.2998
 6558TIP3   OH219637   5.495   5.859   0.934  0.2391 -0.0893  0.5108
 6558TIP3    H119638   5.519   5.936   0.882  0.5281 -0.2830  0.3518
 6558TIP3    H219639   5.435   5.893   1.001  0.8374  0.3819  0.8196
 6559TIP3   OH219640   0.536   5.830   3.870 -0.0582 -0.5403  0.3280
 6559TIP3    H119641   0.557   5.839   3.777 -0.0259 -1.0079  0.2843
 6559TIP3    H219642   0.441   5.821   3.873 -0.2139  0.9028  0.4692
 6560TIP3   OH219643   4.490   0.349   0.326 -0.0954  0.1577 -0.0692
 6560TIP3    H119644   4.484   0.305   0.241 -0.0829  0.8239 -0.4227
 6560TIP3    H219645   4.485   0.278   0.390 -1.6033 -0.2305 -0.5742
 6561TIP3   OH219646   5.677   4.473   0.924 -0.3631 -0.5111  0.5215
 6561TIP3    H119647   5.689   4.382   0.951 -0.3539 -0.7725 -0.3330
 6561TIP3    H219648   5.587   4.494   0.951  0.0147 -0.3945  1.7441
 6562TIP3   OH219649   6.183   2.942   4.152 -0.3354  0.5380 -0.1819
 6562TIP3    H119650   6.185   2.903   4.065  0.6073 -0.5695  0.3189
 6562TIP3    H219651   6.131   2.882   4.205 -1.2814  1.4298 -0.0605
 6563TIP3   OH219652   6.908   1.718   5.071  0.3808 -0.3485  0.3008
 6563TIP3    H119653   6.985   1.741   5.020 -0.0778 -0.0944 -0.2890
 6563TIP3    H219654   6.938   1.717   5.162  1.0396 -0.1153  0.0854
 6564TIP3   OH219655   6.054   6.059   0.894 -0.2694  0.5038  0.1732
 6564TIP3    H119656   6.085   6.081   0.806  0.1548  0.7787  0.3876
 6564TIP3    H219657   6.029   5.967   0.889 -2.6799  1.1393 -0.9265
 6565TIP3   OH219658   5.974   1.341   4.505 -0.0625  0.3174  0.2954
 6565TIP3    H119659   5.899   1.398   4.488  1.2730  2.9514  2.4675
 6565TIP3    H219660   5.980   1.338   4.600  2.3792 -0.0993  0.1728
 6566TIP3   OH219661   6.055   5.018   1.547 -0.2913  0.4298  0.1396
 6566TIP3    H119662   6.108   5.095   1.525  1.2572 -0.2939  1.2254
 6566TIP3    H219663   5.967   5.041   1.517  0.2061  2.4800  0.1149
 6567TIP3   OH219664   0.896   1.586   5.525 -0.0188 -0.2898 -0.1360
 6567TIP3    H119665   0.876   1.569   5.433 -0.0984 -2.5403  0.2383
 6567TIP3    H219666   0.965   1.652   5.523  0.5663 -0.9013 -1.8596
 6568TIP3   OH219667   5.833   5.680   4.392  0.6450  0.2306 -0.5651
 6568TIP3    H119668   5.863   5.660   4.304  0.0065 -1.1974 -0.4901
 6568TIP3    H219669   5.822   5.594   4.434  1.3308  0.8808  1.0443
 6569TIP3   OH219670   6.011   3.914   5.700 -0.4624 -0.3512 -0.7721
 6569TIP3    H119671   5.991   3.977   5.630  1.3375  0.9939 -0.1711
 6569TIP3    H219672   6.092   3.872   5.672  0.8728  0.9593  0.8939
 6570TIP3   OH219673   4.873   2.778   4.896  0.6295 -0.1954 -0.3154
 6570TIP3    H119674   4.873   2.692   4.937 -0.6923 -0.1322 -0.1307
 6570TIP3    H219675   4.936   2.830   4.946  0.7441 -0.7869  0.1524
 6571TIP3   OH219676   4.555   3.441   5.369 -0.0038  0.2030  0.0915
 6571TIP3    H119677   4.587   3.386   5.298 -1.3317  1.2198 -1.3685
 6571TIP3    H219678   4.634   3.481   5.406  0.7227 -0.4321 -0.7379
 6572TIP3   OH219679   1.411   4.368   4.484 -0.2959 -0.1498  0.2413
 6572TIP3    H119680   1.346   4.343   4.418 -2.5409 -0.4406  2.4073
 6572TIP3    H219681   1.380   4.452   4.518 -0.2931 -0.8664  2.1615
 6573TIP3   OH219682   0.439   0.709   3.812 -0.2880  0.2840 -0.3564
 6573TIP3    H119683   0.492   0.633   3.788 -0.1347 -0.0997  1.1348
 6573TIP3    H219684   0.367   0.709   3.748  0.5167 -0.2233 -1.2923
 6574TIP3   OH219685   2.568   4.429   3.347  0.6213  0.6890 -0.9283
 6574TIP3    H119686   2.511   4.449   3.273 -0.1012  1.4830 -0.1827
 6574TIP3    H219687   2.511   4.434   3.424  1.3599 -0.0920 -0.3031
 6575TIP3   OH219688   2.141   3.366   0.982 -0.3733  0.1532 -0.2939
 6575TIP3    H119689   2.143   3.286   0.930  0.4231  0.2331 -0.4067
 6575TIP3    H219690   2.094   3.429   0.928 -0.8750 -0.1909 -0.2660
 6576TIP3   OH219691   5.380   4.027   3.319  0.0249 -0.0157  0.2977
 6576TIP3    H119692   5.406   3.982   3.239  1.1841  0.9628  0.1031
 6576TIP3    H219693   5.291   4.056   3.302  1.2868  2.9807 -1.9694
 6577TIP3   OH219694   6.659   1.650   2.950  0.3139  0.0594  0.5931
 6577TIP3    H119695   6.610   1.719   2.994  1.4204  1.1016  0.2491
 6577TIP3    H219696   6.592   1.598   2.904 -0.5603  0.7340  1.0716
 6578TIP3   OH219697   2.023   5.444   2.423  0.1005 -0.4960 -0.0601
 6578TIP3    H119698   2.094   5.380   2.429  0.3269 -0.1013  2.3951
 6578TIP3    H219699   2.058   5.522   2.467 -1.9734 -0.4085  1.5217
 6579TIP3   OH219700   5.785   0.859   1.514  0.7327  0.5478 -0.3841
 6579TIP3    H119701   5.692   0.867   1.489  0.6357  1.3448  0.1954
 6579TIP3    H219702   5.788   0.780   1.568  0.6490 -0.2582 -1.5101
 6580TIP3   OH219703   6.961   6.400   0.390  0.6168  0.1556 -0.1183
 6580TIP3    H119704   6.905   6.370   0.319  2.3163 -0.6703 -1.1791
 6580TIP3    H219705   6.924   6.360   0.469  1.1048 -2.4125 -1.1112
 6581TIP3   OH219706   3.988   6.189   2.128 -0.0683 -0.2442 -0.6059
 6581TIP3    H119707   3.965   6.114   2.074 -0.4687 -0.9183  0.4879
 6581TIP3    H219708   4.083   6.198   2.117  0.1739 -1.6628  0.1884
 6582TIP3   OH219709   1.262   6.064   5.553  0.2919 -0.0903  0.6644
 6582TIP3    H119710   1.175   6.104   5.548  0.3797 -0.0069 -0.5930
 6582TIP3    H219711   1.323   6.138   5.554  0.3981 -0.1463 -0.2590
 6583TIP3   OH219712   6.283   4.441   4.600  0.2077  0.4868 -0.4022
 6583TIP3    H119713   6.347   4.370   4.606 -1.0724 -0.6123  0.7287
 6583TIP3    H219714   6.308   4.503   4.669 -0.3950 -0.3443  0.5852
 6584TIP3   OH219715   6.534   2.177   2.689  0.1330 -0.3165  0.5127
 6584TIP3    H119716   6.577   2.093   2.673 -0.3408 -0.5151  0.2845
 6584TIP3    H219717   6.517   2.177   2.783 -0.5081 -0.7854  0.3993
 6585TIP3   OH219718   6.144   4.685   2.193 -0.0477 -0.2532 -0.3785
 6585TIP3    H119719   6.139   4.735   2.275  0.1441 -0.9464  0.0722
 6585TIP3    H219720   6.060   4.700   2.151  0.9659  2.5927 -1.5763
 6586TIP3   OH219721   3.881   6.596   2.869  0.2262  0.5001  0.5461
 6586TIP3    H119722   3.862   6.688   2.883  0.1567  0.4719  0.6369
 6586TIP3    H219723   3.952   6.595   2.804  1.0375  0.6495  1.4001
 6587TIP3   OH219724   6.109   3.455   3.640  0.5590 -0.4660  0.1403
 6587TIP3    H119725   6.168   3.420   3.707  0.9837  1.0793  0.6073
 6587TIP3    H219726   6.087   3.379   3.586  0.8885 -1.5814  1.5078
 6588TIP3   OH219727   3.550   5.146   5.745  0.2460  0.1502 -0.2104
 6588TIP3    H119728   3.490   5.146   5.820  0.0213 -1.9058 -0.3404
 6588TIP3    H219729   3.508   5.089   5.681  2.0356 -0.8293 -0.5476
 6589TIP3   OH219730   3.829   3.976   3.364  0.2817 -0.2351  0.1507
 6589TIP3    H119731   3.790   3.937   3.286 -1.8044 -0.2913  1.1530
 6589TIP3    H219732   3.812   3.912   3.433  3.0927 -0.7278  0.5087
 6590TIP3   OH219733   6.442   1.836   1.033  0.6214 -0.3478  0.0148
 6590TIP3    H119734   6.420   1.881   0.952 -3.4950 -1.0544  0.5136
 6590TIP3    H219735   6.416   1.897   1.102  0.9668 -1.0336  0.7653
 6591TIP3   OH219736   0.455   5.376   3.220 -0.0035 -0.6714  0.5623
 6591TIP3    H119737   0.410   5.458   3.241  0.0538 -0.3966 -0.3414
 6591TIP3    H219738   0.472   5.335   3.305 -1.2584 -0.4077  0.9546
 6592TIP3   OH219739   3.172   2.004   4.790  0.4012  0.0452  0.3798
 6592TIP3    H119740   3.254   2.049   4.808  0.1805  0.9674 -0.7948
 6592TIP3    H219741   3.195   1.939   4.723 -0.1676  1.6959 -1.5081
 6593TIP3   OH219742   2.965   5.011   0.650  0.2852 -0.5089  0.0965
 6593TIP3    H119743   3.009   5.090   0.680  1.6575 -1.1819 -0.0701
 6593TIP3    H219744   3.016   4.939   0.686  0.3347 -1.3342 -1.5034
 6594TIP3   OH219745   2.198   5.994   4.157 -0.0629  0.1522  0.6631
 6594TIP3    H119746   2.273   5.963   4.208  0.3205  1.2754  0.7942
 6594TIP3    H219747   2.231   6.069   4.108 -0.6789 -0.3204 -0.5244
 6595TIP3   OH219748   4.757   6.012   4.084  0.3521 -0.7715 -0.3194
 6595TIP3    H119749   4.696   6.075   4.046 -0.6200 -1.0338  0.7633
 6595TIP3    H219750   4.702   5.947   4.126  1.3452 -2.1662 -1.0914
 6596TIP3   OH219751   1.278   3.022   3.756 -0.0995 -0.2914 -0.1044
 6596TIP3    H119752   1.326   2.977   3.825 -1.9354  0.9266  2.1373
 6596TIP3    H219753   1.190   2.984   3.759 -0.6129  0.7846 -0.7461
 6597TIP3   OH219754   2.453   1.319   5.246 -0.3786 -0.1518  0.5256
 6597TIP3    H119755   2.388   1.330   5.177  0.0830 -0.1759  0.0849
 6597TIP3    H219756   2.504   1.243   5.219 -0.1138 -0.0823  0.8305
 6598TIP3   OH219757   6.564   5.534   5.309  1.1862  0.2311 -0.9701
 6598TIP3    H119758   6.592   5.624   5.292  3.2428  0.0517  0.9533
 6598TIP3    H219759   6.534   5.534   5.400 -0.0201 -0.7776 -1.3433
 6599TIP3   OH219760   4.858   3.061   0.334 -0.7744 -0.3958 -0.2390
 6599TIP3    H119761   4.871   3.072   0.428 -0.4973 -2.5777  0.0392
 6599TIP3    H219762   4.832   3.148   0.303  0.0244  0.5932  1.6783
 6600TIP3   OH219763   2.534   4.605   0.223 -0.9354 -0.1632  0.0779
 6600TIP3    H119764   2.494   4.612   0.136 -1.2790 -1.2742  0.1405
 6600TIP3    H219765   2.628   4.612   0.206 -1.0194  0.0589 -0.3256
 6601TIP3   OH219766   5.093   0.779   3.747  0.1168  0.1879 -0.6710
 6601TIP3    H119767   5.037   0.763   3.823  1.0728 -0.6583 -0.1085
 6601TIP3    H219768   5.100   0.874   3.741 -0.6741  0.2781 -0.2275
 6602TIP3   OH219769   2.511   5.931   1.519 -0.7514  0.3039  0.5128
 6602TIP3    H119770   2.447   5.904   1.453 -1.2580  1.9847  0.2597
 6602TIP3    H219771   2.464   5.994   1.574  0.4597  1.0173  0.7765
 6603TIP3   OH219772   0.627   6.743   5.516 -0.3673 -0.0853 -0.6169
 6603TIP3    H119773   0.659   6.775   5.600 -0.0653 -0.5208 -0.5605
 6603TIP3    H219774   0.706   6.711   5.471 -0.8498 -2.5714  0.1323
 6604TIP3   OH219775   5.123   5.782   0.544  0.5302  0.0031 -0.4626
 6604TIP3    H119776   5.157   5.803   0.458  2.0230  0.2731  0.1740
 6604TIP3    H219777   5.189   5.725   0.583  0.2740  0.5536  0.8190
 6605TIP3   OH219778   6.156   3.915   3.008  0.0390 -0.2299 -0.1467
 6605TIP3    H119779   6.109   3.971   2.946  0.1845 -0.8051 -0.7862
 6605TIP3    H219780   6.097   3.906   3.082  0.3539  1.4948  0.3783
 6606TIP3   OH219781   4.101   6.436   2.340 -0.0901  0.5430  0.2965
 6606TIP3    H119782   4.052   6.516   2.355  1.2250  1.4863 -0.2475
 6606TIP3    H219783   4.094   6.420   2.246 -0.7567 -0.2877  0.4661
 6607TIP3   OH219784   1.292   0.916   0.839 -0.3717 -0.4113 -0.5631
 6607TIP3    H119785   1.319   0.981   0.904  1.2354 -1.4828 -0.0784
 6607TIP3    H219786   1.320   0.952   0.755 -2.0612  0.7805 -0.6597
 6608TIP3   OH219787   4.923   3.277   1.420  0.0768 -0.0354 -0.1903
 6608TIP3    H119788   4.953   3.193   1.384 -0.2778 -0.3303  0.1852
 6608TIP3    H219789   4.998   3.311   1.468  0.3295  0.0245 -0.6273
 6609TIP3   OH219790   5.593   2.936   3.552 -0.4648  0.0399 -0.4566
 6609TIP3    H119791   5.532   3.002   3.582  0.6406  1.9302 -2.0929
 6609TIP3    H219792   5.562   2.854   3.590 -1.8875  1.4815  1.6483
 6610TIP3   OH219793   5.736   3.206   0.037 -0.2546 -0.7678  0.3543
 6610TIP3    H119794   5.795   3.132   0.052 -1.7783 -2.1055  0.0866
 6610TIP3    H219795   5.763   3.240  -0.048  1.5564  0.1013  1.2366
 6611TIP3   OH219796   5.824   0.331   3.113 -0.3809  0.2910  0.0324
 6611TIP3    H119797   5.868   0.416   3.109 -0.0687  0.0993 -0.6699
 6611TIP3    H219798   5.887   0.269   3.079 -1.2660  0.0499 -1.2212
 6612TIP3   OH219799   6.282   4.342   2.646 -0.2682  0.6728 -0.0794
 6612TIP3    H119800   6.199   4.389   2.655  0.5905  2.1062  0.7544
 6612TIP3    H219801   6.349   4.409   2.659  1.0374 -0.4070 -0.9541
 6613TIP3   OH219802   1.608   0.240   2.685  0.6351  0.2029 -0.3071
 6613TIP3    H119803   1.703   0.254   2.686  0.8219 -0.8092 -1.8559
 6613TIP3    H219804   1.575   0.298   2.616  0.0235  0.9253  0.5528
 6614TIP3   OH219805   5.859   3.938   0.954  0.4893 -0.0370  0.4083
 6614TIP3    H119806   5.876   3.930   1.048  3.1494 -0.5897 -0.0514
 6614TIP3    H219807   5.902   3.862   0.915 -1.2701 -0.2577 -1.2225
 6615TIP3   OH219808   4.771   6.278   2.421 -0.5334  0.0685  0.3868
 6615TIP3    H119809   4.685   6.270   2.462  0.3954 -1.3737  2.2118
 6615TIP3    H219810   4.832   6.281   2.494  1.0398  0.3554 -0.8846
 6616TIP3   OH219811   4.647   3.182   1.648  0.3352 -0.1289 -0.1275
 6616TIP3    H119812   4.731   3.198   1.605  0.0943 -1.6535 -1.2584
 6616TIP3    H219813   4.666   3.189   1.742  1.5881  0.0908 -0.3839
 6617TIP3   OH219814   0.304   4.499   5.689  0.0431 -0.6969 -0.3309
 6617TIP3    H119815   0.256   4.454   5.759 -1.3482 -0.2989 -0.9857
 6617TIP3    H219816   0.295   4.592   5.709  0.5789 -0.6154 -0.4480
 6618TIP3   OH219817   5.821   5.703   3.377 -0.2089 -0.3879 -0.1762
 6618TIP3    H119818   5.849   5.791   3.350 -1.1099  0.0015  0.0987
 6618TIP3    H219819   5.784   5.716   3.464 -1.1242 -0.8802 -0.4766
 6619TIP3   OH219820   4.932   6.543   0.757  0.2927  0.0175 -0.0722
 6619TIP3    H119821   4.922   6.492   0.676  0.0474  0.1867 -0.1498
 6619TIP3    H219822   4.930   6.634   0.727  0.6273  0.0773  0.0775
 6620TIP3   OH219823   5.044   5.551   1.053 -0.3978  0.1028  0.2373
 6620TIP3    H119824   5.083   5.637   1.035  0.2994 -0.2187  0.1730
 6620TIP3    H219825   5.113   5.489   1.030 -1.4378 -0.5531 -1.2280
 6621TIP3   OH219826   6.985   0.685   2.331 -0.1875  0.0992  0.1887
 6621TIP3    H119827   6.952   0.764   2.373 -1.0119  0.3384 -0.8639
 6621TIP3    H219828   7.063   0.714   2.283  2.3947 -0.6604  3.5200
 6622TIP3   OH219829   3.908   2.001   0.541 -0.3277 -0.3667 -0.3109
 6622TIP3    H119830   3.888   1.993   0.447  1.0549 -2.6132 -0.5012
 6622TIP3    H219831   3.990   2.051   0.544  0.1025 -1.0415 -0.4095
 6623TIP3   OH219832   5.465   3.671   2.608 -0.2556  0.3383 -0.4758
 6623TIP3    H119833   5.412   3.628   2.540 -0.2853  0.7002 -0.6828
 6623TIP3    H219834   5.465   3.764   2.584  0.2900  0.3743 -0.3560
 6624TIP3   OH219835   6.622   2.691   2.831 -0.3402 -0.6533  0.2365
 6624TIP3    H119836   6.653   2.733   2.751 -0.3376 -0.3257  0.4077
 6624TIP3    H219837   6.573   2.615   2.801  0.6158 -1.1736 -0.0388
 6625TIP3   OH219838   1.589   3.738   3.584 -0.0165  0.1560 -0.7201
 6625TIP3    H119839   1.670   3.772   3.623  0.7577  0.2999 -2.3324
 6625TIP3    H219840   1.571   3.657   3.632  0.3069  0.8179  0.5730
 6626TIP3   OH219841   1.098   6.618   4.376 -0.5573  0.1215 -0.2979
 6626TIP3    H119842   1.086   6.649   4.466 -1.6147 -0.5242 -0.2017
 6626TIP3    H219843   1.131   6.694   4.329 -1.5809  0.9491  0.2786
 6627TIP3   OH219844   1.866   2.435   4.546  0.3893 -0.3486  0.2475
 6627TIP3    H119845   1.912   2.509   4.506 -0.0113 -0.1185  0.2025
 6627TIP3    H219846   1.873   2.365   4.481 -0.8601  0.2327 -0.5696
 6628TIP3   OH219847   7.120   2.576   3.687 -0.6922 -0.2441 -0.3265
 6628TIP3    H119848   7.094   2.561   3.596  0.9003 -1.7166 -0.6086
 6628TIP3    H219849   7.105   2.492   3.730  1.1777 -0.4237  0.0555
 6629TIP3   OH219850   4.761   2.490   4.119  0.5746  0.1404 -0.1029
 6629TIP3    H119851   4.843   2.498   4.069  0.6885  1.3904  0.2369
 6629TIP3    H219852   4.701   2.550   4.075  0.1810  0.0479  0.3082
 6630TIP3   OH219853   3.455   1.320   3.449  0.2780 -0.1328  0.7779
 6630TIP3    H119854   3.540   1.344   3.487  0.0904 -0.6712  1.5739
 6630TIP3    H219855   3.475   1.296   3.359  1.4019 -2.6741  1.6270
 6631TIP3   OH219856   7.118   0.353   3.121  0.2249  0.1485  0.0925
 6631TIP3    H119857   7.084   0.292   3.055  0.2328  0.3000 -0.0521
 6631TIP3    H219858   7.067   0.433   3.107  0.5895  0.3510 -0.0763
 6632TIP3   OH219859   4.292   6.504   2.754 -0.1427  0.0804 -0.0674
 6632TIP3    H119860   4.246   6.574   2.706 -1.9750 -0.7223  0.4194
 6632TIP3    H219861   4.270   6.520   2.846 -2.1488 -2.1018 -0.0622
 6633TIP3   OH219862   5.243   5.909   3.899 -0.3473  0.0333 -0.2985
 6633TIP3    H119863   5.304   5.941   3.966 -0.4032 -0.8757  0.1903
 6633TIP3    H219864   5.156   5.919   3.938 -0.2618 -2.8690  0.8386
 6634TIP3   OH219865   2.418   1.201   5.778  0.6723  0.1045  0.0323
 6634TIP3    H119866   2.488   1.156   5.731  0.8382  0.7699 -0.3809
 6634TIP3    H219867   2.345   1.204   5.716  0.3828 -0.3205  0.3526
 6635TIP3   OH219868   1.513   4.114   5.540 -0.0383  0.1593  0.4097
 6635TIP3    H119869   1.535   4.186   5.599 -0.6855  0.0392  0.8064
 6635TIP3    H219870   1.523   4.152   5.452  1.4971  0.1688  0.5639
 6636TIP3   OH219871   5.010   4.122   0.742  0.1267  0.3879  0.1390
 6636TIP3    H119872   4.945   4.075   0.794  0.8466  1.0590  1.7252
 6636TIP3    H219873   4.973   4.126   0.654 -1.4982 -0.1086  0.7696
 6637TIP3   OH219874   6.620   5.819   5.210 -0.0760 -0.0405 -0.0106
 6637TIP3    H119875   6.705   5.864   5.217 -0.2236  0.4340 -1.0821
 6637TIP3    H219876   6.556   5.888   5.226 -0.2718 -0.4799  1.1978
 6638TIP3   OH219877   6.977   2.321   5.632  0.4201 -0.0100 -0.3334
 6638TIP3    H119878   7.032   2.325   5.554 -0.9249  1.7354 -1.2611
 6638TIP3    H219879   6.960   2.413   5.655 -0.7233 -0.4944  0.9249
 6639TIP3   OH219880   3.883   5.102   0.480  0.5272 -0.1218 -0.0354
 6639TIP3    H119881   3.875   5.193   0.452 -0.1608  0.3126  1.4581
 6639TIP3    H219882   3.850   5.051   0.406 -0.9408  0.9582 -0.1640
 6640TIP3   OH219883   1.055   0.336   1.818 -0.9210 -0.3815 -0.2681
 6640TIP3    H119884   1.082   0.244   1.826  0.9786  0.1229 -0.5028
 6640TIP3    H219885   1.099   0.380   1.891  0.1209  0.7464 -1.5548
 6641TIP3   OH219886   0.054   5.294   2.233 -0.4263 -0.2977 -1.1418
 6641TIP3    H119887  -0.013   5.361   2.247  0.1705 -0.2350  2.2685
 6641TIP3    H219888   0.053   5.278   2.138 -2.8316  2.1465 -1.6462
 6642TIP3   OH219889   4.022   4.002   2.351 -1.0097  0.7853 -0.5439
 6642TIP3    H119890   3.993   3.965   2.267  0.1427  0.9733 -1.0458
 6642TIP3    H219891   3.954   4.066   2.374 -2.1618 -0.4048 -0.5100
 6643TIP3   OH219892   0.936   0.605   1.766  0.2519 -0.4350  0.2402
 6643TIP3    H119893   1.000   0.545   1.805  1.3047  1.9976  2.5802
 6643TIP3    H219894   0.963   0.612   1.675  0.9094 -2.4455  0.2275
 6644TIP3   OH219895   5.986   0.454   1.655 -0.4252  0.4471 -0.2792
 6644TIP3    H119896   6.011   0.378   1.707  0.5188  0.9843  0.0735
 6644TIP3    H219897   6.030   0.528   1.697 -1.0996  1.1578 -0.7795
 6645TIP3   OH219898   3.465   3.736   0.363 -0.0195  0.0110 -0.4436
 6645TIP3    H119899   3.382   3.774   0.391  0.8085  0.5482  1.4310
 6645TIP3    H219900   3.493   3.683   0.437  1.9055  0.8395 -0.5191
 6646TIP3   OH219901   3.121   2.888   5.367  0.1651 -0.7165  0.5395
 6646TIP3    H119902   3.144   2.814   5.423 -2.2197 -2.6923 -0.8690
 6646TIP3    H219903   3.026   2.893   5.372  0.2004  1.7472 -0.0975
 6647TIP3   OH219904   6.662   5.743   0.676 -0.0111 -0.3992 -0.5572
 6647TIP3    H119905   6.614   5.783   0.603  0.0853 -0.0305 -0.4195
 6647TIP3    H219906   6.744   5.712   0.637  0.6970  1.1124 -0.3292
 6648TIP3   OH219907   6.507   3.594   4.216 -0.1011 -0.0050  0.7441
 6648TIP3    H119908   6.512   3.558   4.304 -0.5214  0.2919  0.8915
 6648TIP3    H219909   6.501   3.517   4.159 -1.3601 -0.1896  1.0794
 6649TIP3   OH219910   6.151   2.835   0.566 -0.0241  0.1224 -0.2102
 6649TIP3    H119911   6.181   2.792   0.486 -0.6289  0.9492 -0.8982
 6649TIP3    H219912   6.184   2.925   0.558  0.9358 -0.0997  1.0435
 6650TIP3   OH219913   3.986   2.998   2.355 -0.1190 -0.4164  0.3348
 6650TIP3    H119914   4.002   3.010   2.449 -1.1270 -1.1245  0.6213
 6650TIP3    H219915   4.011   2.907   2.338  0.2021 -0.2474 -0.1259
 6651TIP3   OH219916   2.273   4.657   5.477 -0.2928 -0.1693  1.0127
 6651TIP3    H119917   2.208   4.634   5.410  2.1605 -0.7853 -1.3511
 6651TIP3    H219918   2.337   4.586   5.472  1.7177  1.5218  1.5982
 6652TIP3   OH219919   0.469   0.330   2.818  0.5718 -0.4738  0.0792
 6652TIP3    H119920   0.498   0.421   2.813  0.0424 -0.2490  0.8668
 6652TIP3    H219921   0.382   0.334   2.859  1.9128 -1.5290  3.4447
 6653TIP3   OH219922   0.264   4.777   5.710  0.8242  0.0556  0.7034
 6653TIP3    H119923   0.235   4.810   5.795 -0.2169 -1.1702  0.8629
 6653TIP3    H219924   0.198   4.807   5.648 -0.1485 -1.6280  0.8548
 6654TIP3   OH219925   3.687   2.685   1.333 -0.1091 -0.2566  0.0350
 6654TIP3    H119926   3.762   2.743   1.348  0.5610 -1.5059  1.7023
 6654TIP3    H219927   3.614   2.730   1.375 -0.4946  1.2424 -2.0766
 6655TIP3   OH219928   2.381   6.129   3.770 -0.0288 -0.6880  0.0272
 6655TIP3    H119929   2.438   6.090   3.836  1.9985 -1.6734 -2.1407
 6655TIP3    H219930   2.365   6.218   3.801  1.7422 -0.7670  1.3254
 6656TIP3   OH219931   0.410   0.016   2.680 -0.0691  0.1818  0.1585
 6656TIP3    H119932   0.363   0.042   2.759  0.0510  0.8198  0.0265
 6656TIP3    H219933   0.341   0.005   2.614 -0.2951 -1.4839  0.6211
 6657TIP3   OH219934   1.291   4.422   0.306 -0.6215  0.4653  0.1752
 6657TIP3    H119935   1.235   4.363   0.356  1.2299 -0.3466  1.3657
 6657TIP3    H219936   1.319   4.488   0.368 -0.1177  0.7664 -0.3569
 6658TIP3   OH219937   0.714   2.876   4.317  0.3350  0.7041  0.3818
 6658TIP3    H119938   0.619   2.874   4.328  0.2343 -2.0938 -0.2175
 6658TIP3    H219939   0.729   2.933   4.242 -1.2837 -1.8907 -2.0716
 6659TIP3   OH219940   3.926   0.826   3.078 -0.5032 -0.4321 -0.5904
 6659TIP3    H119941   3.970   0.743   3.057 -1.4074 -1.0219 -0.2243
 6659TIP3    H219942   3.845   0.823   3.027 -0.6309  0.1503 -0.4245
 6660TIP3   OH219943   6.603   4.217   5.113 -0.0405 -0.4764  0.4741
 6660TIP3    H119944   6.519   4.188   5.076  0.5808 -0.2651 -1.1965
 6660TIP3    H219945   6.658   4.139   5.113 -0.8099 -1.1598  3.5743
 6661TIP3   OH219946   1.803   4.396   2.504 -0.1130 -0.1356  0.1429
 6661TIP3    H119947   1.848   4.447   2.571  1.3888 -0.6556 -0.4146
 6661TIP3    H219948   1.776   4.316   2.549  1.3130 -0.6997  0.0727
 6662TIP3   OH219949   1.085   4.112   0.905  0.6508  0.0479 -0.0043
 6662TIP3    H119950   1.126   4.095   0.820  1.5636  0.1516  0.3940
 6662TIP3    H219951   0.992   4.099   0.890  0.6478  1.3370 -1.3361
 6663TIP3   OH219952   4.082   6.388   4.561 -0.4363  0.1877 -0.3446
 6663TIP3    H119953   4.169   6.375   4.524  0.2648 -1.2553  1.6188
 6663TIP3    H219954   4.029   6.319   4.522 -0.1310 -0.2578  0.0096
 6664TIP3   OH219955   2.533   2.967   1.779 -0.5122 -0.1695  0.7505
 6664TIP3    H119956   2.481   3.040   1.812 -0.9696  0.2487 -0.7913
 6664TIP3    H219957   2.527   2.900   1.847 -1.3826  0.6375  1.4966
 6665TIP3   OH219958   2.313   1.435   3.352 -0.0049  0.3027  0.1808
 6665TIP3    H119959   2.232   1.428   3.402  1.2364 -0.1786  2.2792
 6665TIP3    H219960   2.344   1.345   3.344  0.6500  0.5376 -0.0082
 6666TIP3   OH219961   1.457   4.767   2.595  0.1912 -0.4568  0.2119
 6666TIP3    H119962   1.376   4.716   2.595 -1.4599  1.9949  0.0349
 6666TIP3    H219963   1.470   4.791   2.687  0.7055 -0.8274  0.2356
 6667TIP3   OH219964   1.809   4.183   5.643 -0.6071  0.6624  0.3716
 6667TIP3    H119965   1.804   4.120   5.570 -0.3248  0.1817  0.7643
 6667TIP3    H219966   1.798   4.268   5.601  0.1258  0.4355 -0.3190
 6668TIP3   OH219967   6.387   3.156   2.561  0.2615 -0.7133  0.0750
 6668TIP3    H119968   6.452   3.126   2.624  0.8250  0.5302  0.1181
 6668TIP3    H219969   6.428   3.140   2.476  0.4256 -0.3722  0.0891
 6669TIP3   OH219970   1.762   4.405   1.229  0.0176  0.4706 -0.2898
 6669TIP3    H119971   1.780   4.369   1.142  1.9380 -0.1800  0.3200
 6669TIP3    H219972   1.778   4.332   1.289 -0.4835  1.1237  0.6639
 6670TIP3   OH219973   2.591   0.109   1.743  0.2589  0.1042 -0.0417
 6670TIP3    H119974   2.502   0.110   1.778 -0.1591  1.2338 -1.0564
 6670TIP3    H219975   2.613   0.202   1.733  0.9922 -0.1744 -1.1392
 6671TIP3   OH219976   2.195   1.016   1.958  0.1070  0.1225 -0.0915
 6671TIP3    H119977   2.199   1.009   1.862  1.7560  1.5694 -0.1818
 6671TIP3    H219978   2.102   1.019   1.978 -0.2677  0.0353 -1.6667
 6672TIP3   OH219979   2.548   1.196   4.894  0.4113  0.4741  0.4954
 6672TIP3    H119980   2.473   1.164   4.945 -0.8251  1.5707 -0.5553
 6672TIP3    H219981   2.549   1.290   4.908 -0.7160  1.0181 -2.3162
 6673TIP3   OH219982   3.274   2.547   0.021 -0.9390  0.1699  0.5434
 6673TIP3    H119983   3.234   2.467   0.055 -0.1537 -0.6088 -0.3281
 6673TIP3    H219984   3.360   2.520  -0.011 -0.9615  1.2021 -0.4661
 6674TIP3   OH219985   1.062   6.431  -0.011 -0.6210  0.0473  0.0296
 6674TIP3    H119986   1.146   6.420   0.035 -1.2070  1.3715  1.5030
 6674TIP3    H219987   1.018   6.347   0.001 -0.4832  0.1378  1.3804
 6675TIP3   OH219988   2.507   1.157   2.275 -0.1289 -0.9090 -0.4526
 6675TIP3    H119989   2.596   1.123   2.271 -0.0594 -0.6852 -0.8917
 6675TIP3    H219990   2.511   1.239   2.225 -0.6926 -1.1578 -0.9221
 6676TIP3   OH219991   2.613   2.424   5.049 -0.0755 -0.1073  0.3401
 6676TIP3    H119992   2.607   2.329   5.038 -1.4466 -0.4476  3.1816
 6676TIP3    H219993   2.704   2.440   5.075 -0.1592 -0.8364  1.1320
 6677TIP3   OH219994   4.457   6.224   5.042  0.4099  0.1215 -0.6081
 6677TIP3    H119995   4.451   6.219   4.947  1.5121 -0.3242 -0.6681
 6677TIP3    H219996   4.439   6.134   5.072  0.1915  0.2315 -0.4074
 6678TIP3   OH219997   0.110   1.614   0.052 -0.3267  0.0856 -0.5750
 6678TIP3    H119998   0.139   1.695   0.092 -1.6888  0.2351  0.1574
 6678TIP3    H219999   0.190   1.561   0.044  0.1844  0.5352  1.2015
 6679TIP3   OH220000   7.093   5.498   2.212  0.8712 -0.6059 -0.7048
 6679TIP3    H120001   7.086   5.574   2.153 -1.4004 -0.5938 -0.5117
 6679TIP3    H220002   7.090   5.535   2.300  2.5038 -0.7624 -0.5472
 6680TIP3   OH220003   2.593   5.728   5.481  0.6939  0.2324  0.4074
 6680TIP3    H120004   2.636   5.736   5.396 -1.9393  1.6264 -0.8974
 6680TIP3    H220005   2.583   5.634   5.494  0.6067  0.0017 -1.1373
 6681TIP3   OH220006   1.574   3.269   0.285 -0.3162  0.0331  0.2342
 6681TIP3    H120007   1.602   3.300   0.371 -1.0035 -1.2060  0.9459
 6681TIP3    H220008   1.656   3.244   0.241 -0.0515 -0.9277  1.2088
 6682TIP3   OH220009   4.762   3.622   4.883 -0.3272 -0.3096  0.1493
 6682TIP3    H120010   4.805   3.659   4.959  1.1712 -0.3477 -0.6499
 6682TIP3    H220011   4.769   3.689   4.815  1.3193 -1.5102 -0.9396
 6683TIP3   OH220012   6.295   2.142   4.840  0.2375  0.5703 -0.0843
 6683TIP3    H120013   6.222   2.165   4.899  0.8625  1.1421  0.4872
 6683TIP3    H220014   6.357   2.214   4.851  1.0002 -0.0402 -0.3743
 6684TIP3   OH220015   4.009   1.163   4.733 -0.0613  0.5102 -0.3482
 6684TIP3    H120016   4.071   1.234   4.749  0.2648  0.4914 -1.4303
 6684TIP3    H220017   4.047   1.087   4.775 -1.2001  1.2742  2.2692
 6685TIP3   OH220018   7.205   0.415   5.435  1.2111  0.1673  0.6263
 6685TIP3    H120019   7.154   0.450   5.507  0.5388  0.9302 -0.2047
 6685TIP3    H220020   7.166   0.453   5.356  2.6397  0.2586 -0.0737
 6686TIP3   OH220021   3.773   1.249   5.680 -0.0201  0.4702  0.7877
 6686TIP3    H120022   3.754   1.332   5.637  0.6650  0.1828 -0.1196
 6686TIP3    H220023   3.718   1.249   5.758 -0.6042  1.4337  0.4009
 6687TIP3   OH220024   2.532   0.367   3.831  0.0759 -0.6971 -0.0361
 6687TIP3    H120025   2.499   0.403   3.913  1.2010  0.9090 -0.2460
 6687TIP3    H220026   2.620   0.336   3.851 -0.1012 -1.4485 -0.3637
 6688TIP3   OH220027   6.192   3.145   0.553 -0.2362  0.0567 -0.1168
 6688TIP3    H120028   6.124   3.123   0.489 -0.2158 -1.1737  0.2656
 6688TIP3    H220029   6.179   3.239   0.569 -2.0414 -0.1984  0.1725
 6689TIP3   OH220030   0.709   0.850   2.094 -0.5387 -0.3425 -0.2536
 6689TIP3    H120031   0.666   0.935   2.103 -0.1088  0.1019 -1.9906
 6689TIP3    H220032   0.743   0.850   2.005  0.9802 -1.6501  0.2827
 6690TIP3   OH220033   3.765   3.151   5.249 -0.1176 -0.3534 -0.0455
 6690TIP3    H120034   3.727   3.064   5.232  2.2183 -1.9737  2.2621
 6690TIP3    H220035   3.853   3.146   5.211  0.8966  0.0902  2.1247
 6691TIP3   OH220036   0.596   1.649   5.547  1.0937  0.2807 -0.0599
 6691TIP3    H120037   0.565   1.638   5.457  1.8793  0.2706 -0.3364
 6691TIP3    H220038   0.691   1.639   5.541  1.0998 -0.3534  0.8711
 6692TIP3   OH220039   3.861   5.603   1.969 -0.1110 -0.4467 -0.3493
 6692TIP3    H120040   3.872   5.511   1.945 -1.0070 -0.4523 -0.7543
 6692TIP3    H220041   3.819   5.643   1.893 -0.5363  0.1014  0.1682
 6693TIP3   OH220042   3.090   2.086   1.738  0.0490  0.2171 -0.3403
 6693TIP3    H120043   3.000   2.055   1.726  0.5051 -1.1915 -0.3903
 6693TIP3    H220044   3.122   2.036   1.814 -0.2689  3.1766  1.8916
 6694TIP3   OH220045   1.280   4.542   2.536 -0.0145  0.0307  0.7823
 6694TIP3    H120046   1.190   4.575   2.538 -0.6758 -1.2294 -2.2172
 6694TIP3    H220047   1.271   4.449   2.553  0.2794 -0.6087 -2.0709
 6695TIP3   OH220048   6.004   4.948   0.234  0.2655  0.1259  0.4932
 6695TIP3    H120049   6.061   4.993   0.296  0.7812  0.8041 -0.4634
 6695TIP3    H220050   5.999   4.858   0.268 -1.2707  0.9744  2.7738
 6696TIP3   OH220051   6.683   2.675   1.175 -0.3989  0.1016 -0.1299
 6696TIP3    H120052   6.774   2.659   1.199  0.0249  0.8811 -1.1503
 6696TIP3    H220053   6.632   2.618   1.234  0.7411 -0.4643  0.3365
 6697TIP3   OH220054   0.512   2.653   1.869 -0.2230 -0.2000 -0.5740
 6697TIP3    H120055   0.438   2.628   1.924 -0.2488  0.1020 -0.4744
 6697TIP3    H220056   0.536   2.571   1.825  0.7362 -0.7981  0.9771
 6698TIP3   OH220057   0.524   5.679   5.449  0.4305  0.3088 -0.3001
 6698TIP3    H120058   0.620   5.682   5.447  0.4854  0.1591  1.0846
 6698TIP3    H220059   0.502   5.598   5.402  0.9179  0.8861 -1.5463
 6699TIP3   OH220060   1.207   6.047   0.887 -0.4253 -0.0581 -0.2320
 6699TIP3    H120061   1.207   6.039   0.791  0.0665  1.0642 -0.3498
 6699TIP3    H220062   1.207   6.141   0.903  0.6102 -0.2065  0.8580
 6700TIP3   OH220063   5.398   3.312   1.053  0.2056  0.6142  0.2714
 6700TIP3    H120064   5.488   3.282   1.040  0.0861 -0.0557  0.9382
 6700TIP3    H220065   5.377   3.286   1.142 -0.3171  1.6563  0.4630
 6701TIP3   OH220066   2.133   3.724   3.916  0.0667  0.6005 -0.3415
 6701TIP3    H120067   2.146   3.704   4.009  0.2592  0.5535 -0.3792
 6701TIP3    H220068   2.212   3.771   3.890  1.7709 -2.5754 -1.4221
 6702TIP3   OH220069   4.947   5.145   5.221  0.0009  0.4682 -0.4777
 6702TIP3    H120070   4.976   5.224   5.175  0.4893  1.4339  1.3732
 6702TIP3    H220071   4.889   5.178   5.290 -1.2672 -0.9836 -0.7965
 6703TIP3   OH220072   0.969   2.234   4.430  0.1498  0.0367  0.1707
 6703TIP3    H120073   0.899   2.169   4.436 -0.5035  0.7909  0.9044
 6703TIP3    H220074   0.984   2.261   4.521  0.9425  0.3595 -0.0491
 6704TIP3   OH220075   5.075   1.089   0.250  0.3438  0.1783  0.2901
 6704TIP3    H120076   5.073   0.993   0.254 -0.5555  0.2227  1.2092
 6704TIP3    H220077   5.013   1.111   0.181  0.2855  0.1119  0.3213
 6705TIP3   OH220078   1.418   3.227   4.691 -1.1341  0.0879 -0.1442
 6705TIP3    H120079   1.453   3.288   4.626 -0.0963 -0.8494 -0.4991
 6705TIP3    H220080   1.325   3.250   4.698 -0.6261  2.2265  0.3471
 6706TIP3   OH220081   2.291   6.518   1.477 -0.1182 -0.2946  0.1956
 6706TIP3    H120082   2.324   6.432   1.449 -0.8985 -0.7600  0.6824
 6706TIP3    H220083   2.350   6.544   1.548  1.5225  0.6323 -1.4044
 6707TIP3   OH220084   6.014   6.586   5.470 -0.2484  0.2454 -0.0672
 6707TIP3    H120085   6.079   6.558   5.535 -0.5417 -0.3699 -0.0339
 6707TIP3    H220086   5.947   6.518   5.472 -0.3400  0.2984 -0.9059
 6708TIP3   OH220087   3.765   5.310   4.545  0.5742 -0.0936  0.1061
 6708TIP3    H120088   3.859   5.319   4.559  0.4640  0.3208  0.6293
 6708TIP3    H220089   3.757   5.247   4.474  1.2296 -0.9379  0.7546
 6709TIP3   OH220090   2.269   4.277   1.321 -0.4037  0.0944  0.3548
 6709TIP3    H120091   2.276   4.285   1.416 -0.4004 -1.8385  0.5516
 6709TIP3    H220092   2.201   4.340   1.297 -1.3617 -0.3335  1.8242
 6710TIP3   OH220093   4.071   0.870   3.812  0.1061 -0.0820  0.3158
 6710TIP3    H120094   4.108   0.953   3.843  0.5341 -0.7764  1.7370
 6710TIP3    H220095   4.002   0.850   3.876 -1.8607  0.5034 -1.5188
 6711TIP3   OH220096   5.865   5.258   4.401 -0.1827  0.4757 -0.1906
 6711TIP3    H120097   5.838   5.331   4.457 -1.7533  0.5798 -1.0143
 6711TIP3    H220098   5.838   5.284   4.313  3.8901  1.1638 -1.4610
 6712TIP3   OH220099   6.287   0.302   0.693 -0.2863 -0.0697 -0.1441
 6712TIP3    H120100   6.197   0.325   0.719 -0.4048  1.7038 -1.8614
 6712TIP3    H220101   6.341   0.374   0.725  0.1570  0.0427 -1.0965
 6713TIP3   OH220102   2.610   4.882   2.018  0.4222  0.2864  0.1428
 6713TIP3    H120103   2.696   4.920   2.034  0.7252 -1.1111  2.2759
 6713TIP3    H220104   2.594   4.896   1.924  3.1459  0.1969 -0.4066
 6714TIP3   OH220105   4.587   0.152   1.374 -0.2156  0.2106  0.3462
 6714TIP3    H120106   4.507   0.149   1.321 -0.3753 -2.4436  0.5942
 6714TIP3    H220107   4.653   0.108   1.321 -0.1341 -1.6466  1.8880
 6715TIP3   OH220108   1.399   3.211   0.666  0.2179 -0.1060  0.6770
 6715TIP3    H120109   1.329   3.197   0.603 -0.3916 -0.9793  1.5270
 6715TIP3    H220110   1.355   3.244   0.744  0.6486 -1.2177  1.4205
 6716TIP3   OH220111   6.157   5.059   5.369  0.1842 -0.1694 -0.4152
 6716TIP3    H120112   6.160   4.963   5.369  0.3940 -0.1859 -1.7291
 6716TIP3    H220113   6.091   5.081   5.304  0.8036  0.5802 -0.8041
 6717TIP3   OH220114   6.979   4.319   2.325 -0.0874 -0.3309  0.4773
 6717TIP3    H120115   6.920   4.245   2.311  0.3902 -0.6362  0.0821
 6717TIP3    H220116   6.923   4.386   2.364 -0.2611 -1.3193  2.0306
 6718TIP3   OH220117   4.476   4.572   4.784 -0.5336  0.1829 -0.5510
 6718TIP3    H120118   4.550   4.627   4.812 -1.3098  1.3151 -0.6477
 6718TIP3    H220119   4.459   4.514   4.859 -0.0745  0.4795 -0.2111
 6719TIP3   OH220120   6.220   2.436   1.722  0.5061 -0.3742 -0.0561
 6719TIP3    H120121   6.215   2.497   1.649  1.1954 -1.0128 -0.6514
 6719TIP3    H220122   6.312   2.410   1.726  0.6356  0.2490  1.5462
 6720TIP3   OH220123   4.477   3.166   0.957  0.9428  0.3490  0.3036
 6720TIP3    H120124   4.440   3.080   0.937  2.7621 -0.4443  0.1364
 6720TIP3    H220125   4.401   3.222   0.973 -0.4094 -0.6307 -2.1246
 6721TIP3   OH220126   0.851   2.075   3.849 -0.2242  0.1225 -0.3389
 6721TIP3    H120127   0.857   2.057   3.755 -1.4487  0.4849 -0.5031
 6721TIP3    H220128   0.911   2.149   3.863  0.3781 -0.2844 -0.7238
 6722TIP3   OH220129   2.396   6.423   5.134  0.3502 -0.2283  0.0993
 6722TIP3    H120130   2.317   6.415   5.080 -0.9775  3.7152  1.1584
 6722TIP3    H220131   2.468   6.422   5.070 -0.8827  0.5307 -1.3762
 6723TIP3   OH220132   1.837   6.487   1.789 -0.1365  1.0314  0.1780
 6723TIP3    H120133   1.887   6.486   1.707  0.1460 -0.3919  0.3436
 6723TIP3    H220134   1.900   6.461   1.856 -1.4832 -3.3679  0.0612
 6724TIP3   OH220135   0.819   4.230   1.481  0.2842 -0.0606 -0.0675
 6724TIP3    H120136   0.744   4.254   1.427  1.4002  2.9439 -0.4697
 6724TIP3    H220137   0.891   4.219   1.419  1.0030  0.8997  0.5609
 6725TIP3   OH220138   6.965   1.734   1.195  0.4244  0.5638 -0.2480
 6725TIP3    H120139   6.953   1.762   1.286  2.5026  0.4208  0.1138
 6725TIP3    H220140   7.010   1.807   1.153  1.8377 -0.4023 -0.4596
 6726TIP3   OH220141   3.693   2.399   2.951 -0.4529 -0.3406 -0.1614
 6726TIP3    H120142   3.731   2.486   2.965  2.1464 -1.4749  0.3934
 6726TIP3    H220143   3.642   2.382   3.031 -1.5115  0.8768 -0.5452
 6727TIP3   OH220144   0.348   0.599   1.592  0.7204  0.1622 -0.1842
 6727TIP3    H120145   0.331   0.692   1.606 -0.6125  0.0075 -0.6335
 6727TIP3    H220146   0.399   0.595   1.511  0.3347  0.4771 -0.4469
 6728TIP3   OH220147   0.083   5.324   4.014 -0.0281  0.1169  0.1463
 6728TIP3    H120148   0.145   5.279   4.072 -0.6016 -1.6583 -0.5617
 6728TIP3    H220149   0.010   5.348   4.071  0.5444  0.7332  0.6485
 6729TIP3   OH220150   2.271   3.502   1.205  0.8076  0.1084  0.8259
 6729TIP3    H120151   2.231   3.504   1.118 -0.9350 -0.0900  1.5801
 6729TIP3    H220152   2.266   3.410   1.232  1.1529  0.1986  1.2066
 6730TIP3   OH220153   3.584   6.123   4.825 -0.6869  0.3596 -0.3107
 6730TIP3    H120154   3.604   6.047   4.770  1.8991 -0.3551  1.4300
 6730TIP3    H220155   3.577   6.087   4.913 -2.4885  1.7778  0.1745
 6731TIP3   OH220156   4.830   5.691   2.008 -0.0937  0.1398  0.2664
 6731TIP3    H120157   4.755   5.731   1.965 -1.6365 -0.4869  2.2125
 6731TIP3    H220158   4.880   5.651   1.937 -1.2216  1.1430 -1.1572
 6732TIP3   OH220159   1.974   3.241   2.011  0.1127  0.5219 -0.5613
 6732TIP3    H120160   1.940   3.331   2.015  1.8826  1.1897  0.8104
 6732TIP3    H220161   1.971   3.218   1.918 -2.6940  1.0241 -0.6873
 6733TIP3   OH220162   4.655   5.549   1.794 -0.1355 -0.2960  0.1238
 6733TIP3    H120163   4.603   5.561   1.874  0.8485  1.9688  0.5209
 6733TIP3    H220164   4.631   5.623   1.739  0.5106 -0.8482 -0.9238
 6734TIP3   OH220165   1.375   5.274   5.012 -0.4578 -0.3995 -0.0164
 6734TIP3    H120166   1.399   5.341   4.948  1.7757 -0.1310  1.0099
 6734TIP3    H220167   1.333   5.323   5.083 -1.1073 -0.4392 -0.3645
 6735TIP3   OH220168   2.282   3.356   4.837 -0.6385 -0.3805  0.3218
 6735TIP3    H120169   2.255   3.334   4.926 -1.6403 -0.4126  0.0230
 6735TIP3    H220170   2.334   3.281   4.808  0.6295  0.1098  1.2594
 6736TIP3   OH220171   4.858   6.296   5.770  0.3233 -0.1008 -0.2902
 6736TIP3    H120172   4.820   6.356   5.705  2.7464 -0.0517 -1.7728
 6736TIP3    H220173   4.844   6.340   5.854  1.2819  2.2144 -1.2570
 6737TIP3   OH220174   2.390   0.602   1.654  0.1352 -0.2533  0.0517
 6737TIP3    H120175   2.344   0.607   1.570  1.1705 -1.9107 -0.6780
 6737TIP3    H220176   2.323   0.620   1.719 -1.1286 -0.7578 -1.0639
 6738TIP3   OH220177   2.797   0.491   3.633  0.5587  0.0023  0.4631
 6738TIP3    H120178   2.745   0.523   3.560 -0.2523 -1.5200  0.3485
 6738TIP3    H220179   2.800   0.565   3.694 -3.3858 -0.3706  1.3689
 6739TIP3   OH220180   5.395   6.562   2.439 -0.2829  0.0651  0.1413
 6739TIP3    H120181   5.418   6.470   2.431  1.4245  0.5681 -1.6014
 6739TIP3    H220182   5.316   6.563   2.492  0.5987 -2.2602  1.6553
 6740TIP3   OH220183   5.065   3.856  -0.026 -0.4445 -0.6620 -0.0685
 6740TIP3    H120184   5.060   3.833   0.067  1.5637 -0.7371  0.0448
 6740TIP3    H220185   5.105   3.943  -0.028  2.0540 -1.7658 -0.9374
 6741TIP3   OH220186   3.136   3.132   5.901 -0.0738  0.1201  0.3596
 6741TIP3    H120187   3.072   3.153   5.833 -0.3092 -0.1044  0.5136
 6741TIP3    H220188   3.173   3.218   5.925 -0.2378  0.2378  0.1976
 6742TIP3   OH220189   7.054   2.493   1.072  0.2523  0.3825  0.3453
 6742TIP3    H120190   7.139   2.502   1.115  0.6165 -1.0178 -0.0579
 6742TIP3    H220191   7.008   2.428   1.125  0.2274 -0.4068 -0.6374
 6743TIP3   OH220192   1.157   0.722   4.040 -0.0438  0.1032  0.1240
 6743TIP3    H120193   1.177   0.760   4.125 -0.1240  3.7637 -1.3148
 6743TIP3    H220194   1.192   0.633   4.044 -0.0201  0.1536  3.8968
 6744TIP3   OH220195   1.348   5.226   1.609  0.3530  0.1328  0.0003
 6744TIP3    H120196   1.267   5.250   1.563  0.1478 -2.1257 -0.9289
 6744TIP3    H220197   1.417   5.274   1.563 -0.3258  1.4129  0.2618
 6745TIP3   OH220198   3.573   4.621   2.202 -0.1095  0.4523  0.3597
 6745TIP3    H120199   3.614   4.565   2.269  0.3016  0.2457 -0.0598
 6745TIP3    H220200   3.646   4.671   2.165 -0.2742  0.2626 -0.2225
 6746TIP3   OH220201   4.588   4.132   5.814 -0.1055  0.1934 -0.1226
 6746TIP3    H120202   4.633   4.097   5.737  0.3665 -0.1485  0.3111
 6746TIP3    H220203   4.515   4.182   5.777  0.2785  0.2627 -0.8045
 6747TIP3   OH220204   4.677   4.612   1.076 -0.1183 -0.1626  0.5826
 6747TIP3    H120205   4.665   4.689   1.131 -0.1149  1.0322 -1.0436
 6747TIP3    H220206   4.771   4.595   1.079  0.2539  1.3887 -0.9471
 6748TIP3   OH220207   7.063   2.828   1.644 -0.4749  0.1063 -0.5299
 6748TIP3    H120208   7.127   2.899   1.631 -0.9132  0.4196 -1.0366
 6748TIP3    H220209   6.992   2.869   1.693 -0.2624 -0.2619  0.0940
 6749TIP3   OH220210   5.475   4.837   3.775  0.1040  0.0582 -0.7735
 6749TIP3    H120211   5.552   4.797   3.735 -0.2109 -1.2261 -0.1356
 6749TIP3    H220212   5.401   4.788   3.740 -0.3026  0.1189 -0.0299
 6750TIP3   OH220213   5.635   5.117   4.778  0.8199  0.2435  0.1987
 6750TIP3    H120214   5.610   5.201   4.816 -2.6482 -1.3501  1.9059
 6750TIP3    H220215   5.616   5.053   4.846  0.1026 -2.2347 -2.1343
 6751TIP3   OH220216   3.655   4.897   2.729 -0.0609  0.3383 -0.4989
 6751TIP3    H120217   3.579   4.864   2.778  0.2138 -2.5545 -1.7820
 6751TIP3    H220218   3.619   4.929   2.647 -0.1573  1.7072  0.0673
 6752TIP3   OH220219   1.653   3.295   5.845  0.3011 -0.2618 -0.1299
 6752TIP3    H120220   1.639   3.204   5.820 -1.8839 -0.4530  1.4350
 6752TIP3    H220221   1.603   3.305   5.926 -1.5691  2.9074 -1.4991
 6753TIP3   OH220222   5.920   3.718   4.541 -0.3763  0.0387 -0.6412
 6753TIP3    H120223   5.925   3.792   4.601 -1.2391  0.8153 -1.4940
 6753TIP3    H220224   5.827   3.708   4.522 -0.2567 -1.1584 -0.6876
 6754TIP3   OH220225   3.073   5.636   0.585 -0.0620 -0.4899 -0.0968
 6754TIP3    H120226   3.025   5.594   0.514 -0.2709 -0.9163  0.2971
 6754TIP3    H220227   3.136   5.570   0.615  0.6440 -0.0095 -0.4737
 6755TIP3   OH220228   1.755   0.658   1.189 -0.3724  0.2623  0.1564
 6755TIP3    H120229   1.723   0.666   1.279  1.7957  0.7417  0.9661
 6755TIP3    H220230   1.815   0.583   1.192  1.1180  1.3746 -0.3926
 6756TIP3   OH220231   1.745   2.750   4.537 -0.3962  0.4553 -0.1249
 6756TIP3    H120232   1.815   2.714   4.592  0.8086 -0.0498 -1.8565
 6756TIP3    H220233   1.749   2.844   4.552  0.7956  0.4551 -0.2763
 6757TIP3   OH220234   0.484   2.664   1.483  0.0787  0.0681 -0.4855
 6757TIP3    H120235   0.487   2.679   1.577 -2.4493 -0.1213 -0.2986
 6757TIP3    H220236   0.522   2.743   1.444  0.8062  0.3023  0.6640
 6758TIP3   OH220237   4.305   1.594   5.676 -0.6146  0.5257 -0.3287
 6758TIP3    H120238   4.250   1.525   5.714 -0.4318  0.8772  0.6112
 6758TIP3    H220239   4.264   1.675   5.705 -0.0068  0.7943 -0.2142
 6759TIP3   OH220240   0.774   6.503   5.174  0.2100  0.0550  0.1200
 6759TIP3    H120241   0.812   6.436   5.231 -1.8898  0.1551  1.7636
 6759TIP3    H220242   0.679   6.493   5.185 -0.2699  1.0241 -2.3273
 6760TIP3   OH220243   4.351   5.487   4.251 -0.1066 -0.5180 -0.4764
 6760TIP3    H120244   4.266   5.458   4.217 -1.1405  1.5442  0.2137
 6760TIP3    H220245   4.352   5.456   4.342 -0.5805  0.3059 -0.1801
 6761TIP3   OH220246   4.069   4.136   1.814  0.1616  0.2227 -0.2433
 6761TIP3    H120247   4.159   4.131   1.846  0.2930 -0.6622 -0.7345
 6761TIP3    H220248   4.078   4.140   1.719 -0.3339 -0.2662 -0.3122
 6762TIP3   OH220249   3.063   5.799   2.808  0.0082 -0.8447 -0.2026
 6762TIP3    H120250   3.147   5.783   2.765  0.3423 -0.3672  0.2598
 6762TIP3    H220251   3.081   5.786   2.901 -0.0554  0.7004  0.0552
 6763TIP3   OH220252   4.868   2.648   3.562 -0.0373 -0.5252  0.2288
 6763TIP3    H120253   4.819   2.718   3.607 -0.9533  0.1451 -1.6825
 6763TIP3    H220254   4.806   2.575   3.559 -0.1410 -0.4203 -0.2828
 6764TIP3   OH220255   2.042   4.903   3.619 -0.4476 -0.3396 -0.1834
 6764TIP3    H120256   1.988   4.981   3.631  0.7098  0.3276  0.9333
 6764TIP3    H220257   1.998   4.854   3.550 -1.5462  0.9855 -0.4708
 6765TIP3   OH220258   7.112   6.720   3.394 -0.3554 -0.4204  0.1385
 6765TIP3    H120259   7.025   6.681   3.405 -0.9868  0.9241  0.1657
 6765TIP3    H220260   7.132   6.757   3.480 -0.2445  0.2077 -0.1518
 6766TIP3   OH220261   1.299   2.503   2.363  0.2654 -0.0967 -0.4938
 6766TIP3    H120262   1.317   2.428   2.307  0.2121  0.0234 -0.6733
 6766TIP3    H220263   1.271   2.465   2.446 -1.9484 -0.3075 -1.2602
 6767TIP3   OH220264   0.088   3.189   4.139 -0.0451  0.2129 -0.4998
 6767TIP3    H120265   0.156   3.208   4.074  0.1335 -0.3537 -0.4762
 6767TIP3    H220266   0.013   3.243   4.110  0.4426  0.9336 -0.4519
 6768TIP3   OH220267   1.036   1.706   1.925  0.3300  0.6654  0.3983
 6768TIP3    H120268   1.097   1.633   1.913  0.0516  0.5598 -0.4088
 6768TIP3    H220269   0.992   1.715   1.841  1.0032  2.3639  0.1869
 6769TIP3   OH220270   3.605   4.562   5.297  0.3298  0.6074 -0.1457
 6769TIP3    H120271   3.668   4.506   5.343 -0.0100  1.4791  1.4658
 6769TIP3    H220272   3.655   4.639   5.273  0.5507  0.0792 -1.4730
 6770TIP3   OH220273   0.509   4.147   1.562 -0.3854  0.5849  0.1538
 6770TIP3    H120274   0.517   4.058   1.596  1.9604  0.7245  0.1369
 6770TIP3    H220275   0.482   4.199   1.638 -0.0890  0.1157  0.5906
 6771TIP3   OH220276   3.507   0.287   5.619 -0.1579  0.5959  0.6430
 6771TIP3    H120277   3.439   0.237   5.575  0.6671  0.5967 -0.6895
 6771TIP3    H220278   3.493   0.377   5.591  2.4189  0.1758 -2.5621
 6772TIP3   OH220279   2.588   5.511   3.097  0.4239  0.0557  0.2683
 6772TIP3    H120280   2.655   5.461   3.051  0.2298 -0.8903  0.9859
 6772TIP3    H220281   2.506   5.482   3.058  0.1786 -1.4689  1.7991
 6773TIP3   OH220282   6.147   5.086   0.460  0.1200  0.2677  0.5834
 6773TIP3    H120283   6.168   5.038   0.540  0.5698  2.6219  1.9711
 6773TIP3    H220284   6.229   5.127   0.434 -0.4985  1.3396  0.2318
 6774TIP3   OH220285   2.704   4.345   5.685 -0.3773  0.1700 -0.2731
 6774TIP3    H120286   2.727   4.311   5.599  0.2582  1.9655 -0.8681
 6774TIP3    H220287   2.781   4.395   5.712 -0.6675 -0.1473  1.2366
 6775TIP3   OH220288   5.456   4.350   1.625 -0.2599  0.3372  0.0252
 6775TIP3    H120289   5.535   4.400   1.644  0.3530 -0.8115  0.5936
 6775TIP3    H220290   5.449   4.352   1.529  2.1377 -1.9699 -0.3001
 6776TIP3   OH220291   3.727   2.796   1.786 -0.7376  0.0200  0.6578
 6776TIP3    H120292   3.739   2.701   1.786  1.4705  0.1841 -1.6859
 6776TIP3    H220293   3.809   2.830   1.751 -1.7972  2.7557  0.6049
 6777TIP3   OH220294   6.801   1.788   3.733  0.0015  0.0982 -1.0363
 6777TIP3    H120295   6.845   1.712   3.695  0.7038  0.1126 -0.2839
 6777TIP3    H220296   6.711   1.783   3.701  0.1004 -0.9229 -1.1716
 6778TIP3   OH220297   0.617   6.306   2.385  0.3067  0.2826 -0.5579
 6778TIP3    H120298   0.656   6.391   2.366  0.7931  0.4233  0.9553
 6778TIP3    H220299   0.526   6.314   2.356  1.2233 -0.0148 -4.0189
 6779TIP3   OH220300   1.085   0.131   3.424 -0.2305 -0.2387 -0.4373
 6779TIP3    H120301   1.076   0.157   3.332 -2.5592 -0.4238 -0.3257
 6779TIP3    H220302   1.026   0.190   3.471  0.6654 -0.3757  0.9236
 6780TIP3   OH220303   3.326   5.210   1.628 -0.8384  0.0990  0.2395
 6780TIP3    H120304   3.395   5.273   1.649 -1.2198  0.5904  0.0389
 6780TIP3    H220305   3.337   5.192   1.535 -0.1477 -0.8535  0.4977
 6781TIP3   OH220306   5.631   1.334   2.650  0.3865  0.0178 -0.3376
 6781TIP3    H120307   5.655   1.297   2.565  0.7476  1.0180 -0.6941
 6781TIP3    H220308   5.596   1.421   2.629  1.0441  0.5252  0.5704
 6782TIP3   OH220309   3.821   4.460   3.329 -0.1098 -0.1011 -0.2746
 6782TIP3    H120310   3.842   4.495   3.415  1.4807  1.1286 -1.0866
 6782TIP3    H220311   3.795   4.370   3.345  1.0959 -0.2025  1.4204
 6783TIP3   OH220312   5.874   4.379   3.980  0.2468 -0.2284  0.4236
 6783TIP3    H120313   5.784   4.395   3.952  0.0316  0.3058  1.3531
 6783TIP3    H220314   5.909   4.467   3.996  0.9833 -0.4266 -0.0586
 6784TIP3   OH220315   5.262   0.897   2.019 -0.2932 -0.2558  0.0883
 6784TIP3    H120316   5.232   0.987   2.032  0.9488  0.2747 -0.5380
 6784TIP3    H220317   5.352   0.897   2.052 -0.3011 -1.2971  0.1491
 6785TIP3   OH220318   3.841   5.625   3.087 -0.3599 -0.3223 -0.3192
 6785TIP3    H120319   3.757   5.601   3.046  0.0962 -1.2709 -0.7405
 6785TIP3    H220320   3.864   5.548   3.139  1.2114 -0.9327 -1.8031
 6786TIP3   OH220321   2.764   0.369   3.971  0.0028  0.0880 -0.7091
 6786TIP3    H120322   2.778   0.290   4.023 -0.0815 -0.5566 -1.6395
 6786TIP3    H220323   2.844   0.421   3.984 -0.7210  0.7615  1.4130
 6787TIP3   OH220324   0.580   5.448   5.602  0.0057 -0.2402  0.5394
 6787TIP3    H120325   0.665   5.435   5.559  0.8492 -0.8683  2.3226
 6787TIP3    H220326   0.599   5.510   5.673 -1.3639  0.8023  0.0427
 6788TIP3   OH220327   0.830   3.486   5.457 -0.3835  0.1621  0.5264
 6788TIP3    H120328   0.874   3.563   5.494 -1.3746  0.7852  0.4401
 6788TIP3    H220329   0.874   3.473   5.373 -1.5202  1.9033 -0.4103
 6789TIP3   OH220330   4.808   0.461   0.600  0.2613 -0.0634  0.2633
 6789TIP3    H120331   4.857   0.379   0.593  1.7733  0.2080  4.6122
 6789TIP3    H220332   4.857   0.513   0.664 -3.5495  1.8998  1.9480
 6790TIP3   OH220333   3.910   1.940   5.321 -0.4489 -0.1435 -0.4706
 6790TIP3    H120334   3.942   1.856   5.354 -1.1719  0.0891  0.8988
 6790TIP3    H220335   3.970   2.005   5.357 -0.4531  0.0125 -0.7403
 6791TIP3   OH220336   0.545   5.273   3.963  0.4840 -0.0412  0.4271
 6791TIP3    H120337   0.553   5.198   3.904  0.2421 -0.7841  1.3121
 6791TIP3    H220338   0.587   5.345   3.916 -2.1964  0.1553 -1.8978
 6792TIP3   OH220339   5.978   4.657   1.692  0.0974 -0.2661 -0.0671
 6792TIP3    H120340   6.029   4.592   1.740 -1.0788 -0.3791  1.1014
 6792TIP3    H220341   5.987   4.737   1.742  0.1959  0.0566 -0.5914
 6793TIP3   OH220342   5.458   3.838   1.445  0.3944  0.8783  0.1921
 6793TIP3    H120343   5.543   3.795   1.458 -0.4849 -0.9943 -0.0267
 6793TIP3    H220344   5.432   3.865   1.533  1.4711  2.0503  0.1885
 6794TIP3   OH220345   5.407   1.555   4.215 -0.6234 -0.5271 -0.2379
 6794TIP3    H120346   5.487   1.542   4.164 -0.7178 -0.2019 -0.4750
 6794TIP3    H220347   5.392   1.471   4.258 -0.8680 -1.0053 -1.2169
 6795TIP3   OH220348   2.467   0.849   4.195  0.0353  0.4426  0.3930
 6795TIP3    H120349   2.501   0.792   4.265  1.3674 -0.0595 -0.6152
 6795TIP3    H220350   2.425   0.921   4.241  0.6429 -0.0190  1.7173
 6796TIP3   OH220351   1.286   3.522   3.447 -0.0156  0.4257 -0.1978
 6796TIP3    H120352   1.305   3.547   3.357  0.5379  1.8707  0.2978
 6796TIP3    H220353   1.355   3.563   3.499 -0.5726 -0.0224  0.9389
 6797TIP3   OH220354   5.346   5.619   0.468  0.1821 -0.8038 -0.1144
 6797TIP3    H120355   5.345   5.588   0.378  0.5452 -0.0516 -0.3831
 6797TIP3    H220356   5.366   5.540   0.520  0.4094 -1.1556 -0.7215
 6798TIP3   OH220357   4.398   2.816   2.364  0.5646  0.0586 -0.2444
 6798TIP3    H120358   4.484   2.847   2.390  0.6662 -0.6451  0.3011
 6798TIP3    H220359   4.349   2.809   2.447  0.4889 -1.0207 -0.3648
 6799TIP3   OH220360   1.421   1.469   5.763  0.3174 -1.1938 -0.1330
 6799TIP3    H120361   1.353   1.530   5.734  1.4932  0.3542  0.2266
 6799TIP3    H220362   1.384   1.427   5.840  0.3129  0.8114  1.0259
 6800TIP3   OH220363   0.253   2.127   2.997  0.2473  0.1795  0.1946
 6800TIP3    H120364   0.304   2.182   3.058  0.9389 -0.7913  0.5261
 6800TIP3    H220365   0.203   2.069   3.054 -0.2700  0.2766 -0.1564
 6801TIP3   OH220366   1.539   5.091   3.019  0.1044  0.2429  0.0542
 6801TIP3    H120367   1.573   5.061   3.104  0.6074 -0.5339 -0.4128
 6801TIP3    H220368   1.521   5.184   3.033  0.5382  0.2159  0.9020
 6802TIP3   OH220369   4.679   2.750   4.722  0.0229  0.1802 -0.0456
 6802TIP3    H120370   4.657   2.658   4.736 -1.3317 -0.0499 -2.9852
 6802TIP3    H220371   4.755   2.766   4.778 -0.1749 -2.4853  1.1155
 6803TIP3   OH220372   1.515   0.764   0.288  0.0166  0.7900 -0.5838
 6803TIP3    H120373   1.490   0.714   0.365  2.1887 -1.4180 -1.2130
 6803TIP3    H220374   1.592   0.813   0.315  0.0854  0.9243 -1.0201
 6804TIP3   OH220375   4.527   5.447   2.978  0.4702  0.1460  0.0177
 6804TIP3    H120376   4.489   5.379   3.033 -1.6750  0.4760 -0.9427
 6804TIP3    H220377   4.583   5.497   3.037 -2.6566  1.2561  2.3526
 6805TIP3   OH220378   6.700   6.172   5.066  0.0409  0.1682  0.2420
 6805TIP3    H120379   6.652   6.245   5.105 -0.4374  0.0152 -0.0467
 6805TIP3    H220380   6.756   6.212   4.999 -1.0762  0.1710 -0.7323
 6806TIP3   OH220381   5.084   4.174   2.086  0.1453  0.2521  0.2219
 6806TIP3    H120382   5.169   4.131   2.075 -0.0298 -0.1289  0.3502
 6806TIP3    H220383   5.083   4.202   2.177  0.5963  1.2686 -0.0616
 6807TIP3   OH220384   3.857   1.044   4.222 -0.2422 -0.0731  0.5585
 6807TIP3    H120385   3.835   1.046   4.315 -0.5941  1.1647  0.4682
 6807TIP3    H220386   3.797   1.108   4.182  0.7988  0.3867 -0.3086
 6808TIP3   OH220387   1.889   0.113   0.185 -0.5124  0.1133 -0.4716
 6808TIP3    H120388   1.932   0.107   0.100  1.8830 -0.6633  0.7140
 6808TIP3    H220389   1.949   0.162   0.241 -2.0379  0.6556  0.7962
 6809TIP3   OH220390   3.297   5.072   4.020  0.0354 -0.0987  0.7068
 6809TIP3    H120391   3.211   5.101   3.991  0.2872 -0.0665 -0.0183
 6809TIP3    H220392   3.314   4.993   3.969  0.5064 -0.0086  0.7168
 6810TIP3   OH220393   0.766   0.544   4.966 -0.2220 -0.1384  0.5998
 6810TIP3    H120394   0.734   0.472   4.912 -1.3342  1.8625 -1.6192
 6810TIP3    H220395   0.834   0.505   5.020 -1.2150 -2.9636  0.0033
 6811TIP3   OH220396   6.267   0.690   2.759  0.0909 -0.3242  0.2118
 6811TIP3    H120397   6.336   0.716   2.819  0.1705  1.0043 -0.4351
 6811TIP3    H220398   6.312   0.667   2.678 -0.1595 -0.2563  0.0513
 6812TIP3   OH220399   3.244   0.494   5.833 -0.1801  0.0307 -0.2966
 6812TIP3    H120400   3.332   0.532   5.829 -0.1094 -0.2282 -2.0595
 6812TIP3    H220401   3.186   0.564   5.801 -0.3501 -0.4601 -1.0993
 6813TIP3   OH220402   4.513   1.225   3.664 -0.0930  0.3601  0.5704
 6813TIP3    H120403   4.445   1.181   3.613  1.5731 -0.5809 -0.9515
 6813TIP3    H220404   4.564   1.273   3.599 -0.1238  2.2412  1.8589
 6814TIP3   OH220405   6.327   1.358   4.668  0.3624  0.7073 -0.2000
 6814TIP3    H120406   6.342   1.408   4.748 -0.1414  0.2933  0.1567
 6814TIP3    H220407   6.290   1.421   4.607 -0.3114  0.7632  0.2608
 6815TIP3   OH220408   5.605   0.401   1.540  0.1834  0.6205 -0.3061
 6815TIP3    H120409   5.659   0.324   1.554 -1.6830 -0.6065  0.5654
 6815TIP3    H220410   5.546   0.377   1.468  0.6811  1.8871 -1.1743
 6816TIP3   OH220411   6.757   4.973   5.417 -0.3716 -0.3149  0.0123
 6816TIP3    H120412   6.759   4.968   5.513  1.0803  2.0548  0.2043
 6816TIP3    H220413   6.806   4.896   5.388  0.0154 -0.5466  1.2222
 6817TIP3   OH220414   4.214   3.812   4.892  0.4297 -0.5256  0.2540
 6817TIP3    H120415   4.164   3.857   4.961  0.6218 -2.1927  1.5527
 6817TIP3    H220416   4.147   3.779   4.832  0.2707  1.1529 -0.5299
 6818TIP3   OH220417   0.704   5.916   4.423  0.6595 -0.0836  0.0546
 6818TIP3    H120418   0.721   5.916   4.329  1.0441  0.2941  0.1205
 6818TIP3    H220419   0.611   5.894   4.431  0.6558 -0.2430 -0.4037
 6819TIP3   OH220420   5.538   1.577   2.984 -0.2596  0.6882 -0.1968
 6819TIP3    H120421   5.599   1.546   2.916 -0.6288 -0.5613  0.0030
 6819TIP3    H220422   5.551   1.671   2.986  3.4226  0.3383  1.4953
 6820TIP3   OH220423   1.059   5.942   1.925 -0.2012 -0.1905  0.4989
 6820TIP3    H120424   1.009   6.004   1.977 -0.0784  0.7177 -0.4209
 6820TIP3    H220425   1.113   5.895   1.988 -1.4632 -0.4883  1.3931
 6821TIP3   OH220426   4.738   4.288   3.583 -0.9921 -0.0155 -0.4338
 6821TIP3    H120427   4.758   4.325   3.497 -1.1701 -1.1403 -0.9717
 6821TIP3    H220428   4.815   4.309   3.636  0.1418 -1.2666 -1.5094
 6822TIP3   OH220429   4.706   1.228   4.623  0.2264 -0.3784 -0.0090
 6822TIP3    H120430   4.789   1.268   4.647 -0.4358  0.5491  0.7976
 6822TIP3    H220431   4.692   1.255   4.532  0.1735  0.6087  0.2740
 6823TIP3   OH220432   5.754   2.921   2.627 -0.2038 -0.4355  0.2852
 6823TIP3    H120433   5.844   2.895   2.605 -0.2007 -0.8945  0.7927
 6823TIP3    H220434   5.733   2.991   2.566  1.3041  1.2609  1.6043
 6824TIP3   OH220435   5.524   3.955   2.685  0.4724 -0.8025  0.0777
 6824TIP3    H120436   5.478   4.038   2.680  1.4350 -0.2732 -0.1952
 6824TIP3    H220437   5.570   3.947   2.601  1.6719 -0.8333  0.7061
 6825TIP3   OH220438   5.332   5.533   5.641 -0.1624 -0.1695  0.7588
 6825TIP3    H120439   5.251   5.542   5.592  0.1950 -1.4125 -0.0900
 6825TIP3    H220440   5.397   5.506   5.577  0.3050 -1.9000  1.8820
 6826TIP3   OH220441   1.302   5.538   4.421 -0.0568 -0.4563 -0.3387
 6826TIP3    H120442   1.336   5.553   4.332  1.1380  0.7437  0.2746
 6826TIP3    H220443   1.232   5.603   4.431 -0.1777 -0.5779 -0.3991
 6827TIP3   OH220444   7.097   0.438   2.720 -0.7862 -0.0544 -0.1566
 6827TIP3    H120445   7.167   0.401   2.666 -1.4119 -1.5765  0.0262
 6827TIP3    H220446   7.019   0.435   2.665 -1.4958 -1.9076  0.8572
 6828TIP3   OH220447   5.082   0.261   2.178  0.1274 -0.2334 -0.5144
 6828TIP3    H120448   5.068   0.271   2.083  0.7276  0.2903 -0.5557
 6828TIP3    H220449   5.018   0.195   2.205 -0.6269  0.2195 -1.1408
 6829TIP3   OH220450   4.543   4.688   4.519 -0.0210 -0.0734 -0.3187
 6829TIP3    H120451   4.468   4.635   4.491 -2.2060  2.5575  0.2157
 6829TIP3    H220452   4.527   4.705   4.611 -0.3849  2.9339 -0.8576
 6830TIP3   OH220453   5.831   0.754   2.206  0.8094 -0.0410  0.7344
 6830TIP3    H120454   5.803   0.719   2.122 -1.6581  1.5947  0.7458
 6830TIP3    H220455   5.916   0.794   2.189  1.1198 -1.1918 -0.5491
 6831TIP3   OH220456   5.325   5.465   0.921 -0.4699 -0.2122 -0.1070
 6831TIP3    H120457   5.319   5.465   0.825  0.5852 -1.9431 -0.2042
 6831TIP3    H220458   5.407   5.511   0.940 -0.7272  0.2157 -0.0193
 6832TIP3   OH220459   3.103   0.221   1.391  0.7931  0.2318  0.1393
 6832TIP3    H120460   3.128   0.133   1.419 -1.1634 -0.0605  1.1826
 6832TIP3    H220461   3.008   0.216   1.381  0.9124  1.5919 -2.2240
 6833TIP3   OH220462   5.953   4.195   1.518 -0.1863 -0.2223  0.0547
 6833TIP3    H120463   5.863   4.168   1.501 -0.4607  0.7410 -0.0686
 6833TIP3    H220464   5.951   4.290   1.516  0.8386 -0.1832  0.0583
 6834TIP3   OH220465   3.038   6.312   5.259 -0.6003  0.0628  0.1440
 6834TIP3    H120466   2.983   6.353   5.192  0.6933 -0.5749 -1.4042
 6834TIP3    H220467   3.084   6.242   5.212  0.4044 -0.3796  1.7125
 6835TIP3   OH220468   1.444   2.690   2.551 -0.2010  0.2071  0.1002
 6835TIP3    H120469   1.406   2.608   2.521 -0.8095  0.4404  0.2285
 6835TIP3    H220470   1.535   2.667   2.572 -0.5782 -0.6332  0.9334
 6836TIP3   OH220471   6.467   2.625   3.238  0.1243  0.2322  0.7220
 6836TIP3    H120472   6.523   2.695   3.205 -0.1422  0.3901  0.6032
 6836TIP3    H220473   6.527   2.552   3.253  0.3418  0.3556  0.4650
 6837TIP3   OH220474   2.829   2.685   1.802  0.4959  0.0949  0.5264
 6837TIP3    H120475   2.742   2.651   1.820 -0.6879  2.3641 -0.4455
 6837TIP3    H220476   2.889   2.628   1.850 -1.4473 -1.9829  0.6057
 6838TIP3   OH220477   3.986   5.144   4.180  0.0243  0.1292  0.1476
 6838TIP3    H120478   3.944   5.184   4.104  0.8548  1.9720  0.5894
 6838TIP3    H220479   3.929   5.165   4.254  0.1048 -0.1244  0.2834
 6839TIP3   OH220480   4.588   6.699   3.711  0.2302  1.0834 -0.5288
 6839TIP3    H120481   4.596   6.654   3.795  1.3312 -0.3561 -1.3659
 6839TIP3    H220482   4.596   6.792   3.733 -0.7659  0.8210  1.0914
 6840TIP3   OH220483   4.937   5.559   4.338 -1.0691  0.3413 -0.2854
 6840TIP3    H120484   4.932   5.645   4.379  0.6885 -0.0170  0.8102
 6840TIP3    H220485   4.912   5.574   4.247 -0.4322  2.0978 -0.2011
 6841TIP3   OH220486   5.618   2.150   5.402 -0.1197 -0.8499 -0.5265
 6841TIP3    H120487   5.596   2.202   5.479  1.3217  0.0939 -0.6985
 6841TIP3    H220488   5.549   2.170   5.339  0.0542  0.3761 -0.3559
 6842TIP3   OH220489   4.955   1.658   5.343 -0.0632  0.4054 -0.2365
 6842TIP3    H120490   5.029   1.613   5.383 -0.1369  0.0629 -0.4855
 6842TIP3    H220491   4.994   1.722   5.283  0.0270  0.1682 -0.4292
 6843TIP3   OH220492   2.156   4.976   4.935 -0.2871 -0.1767 -0.0316
 6843TIP3    H120493   2.061   4.977   4.949 -0.2789 -0.6935  0.0813
 6843TIP3    H220494   2.187   4.903   4.989 -0.2357 -2.2118 -2.6610
 6844TIP3   OH220495   5.068   3.723   3.204  0.0146 -0.3106 -0.7219
 6844TIP3    H120496   5.125   3.755   3.274 -0.9278  1.5650 -0.7510
 6844TIP3    H220497   4.991   3.779   3.209 -0.8428 -1.3132 -2.1330
 6845TIP3   OH220498   2.140   5.995   5.753  0.5853 -0.7159 -0.3641
 6845TIP3    H120499   2.165   6.079   5.715 -2.1769 -0.1315 -1.0604
 6845TIP3    H220500   2.077   5.958   5.692 -1.5991 -1.2228  2.0011
 6846TIP3   OH220501   6.332   6.281   2.844 -0.6868  0.2433  0.2783
 6846TIP3    H120502   6.272   6.216   2.807 -1.0192  0.4596  0.4256
 6846TIP3    H220503   6.400   6.230   2.886  1.4131 -0.0822 -3.1693
 6847TIP3   OH220504   0.635   5.915   4.121  0.7525 -1.1081 -0.7096
 6847TIP3    H120505   0.609   5.836   4.168 -1.3602 -0.4551 -0.6882
 6847TIP3    H220506   0.607   5.898   4.030  0.2738 -0.4063 -0.7007
 6848TIP3   OH220507   2.638   4.499   2.591 -0.1095  0.1641 -0.5443
 6848TIP3    H120508   2.679   4.583   2.613 -0.6507  0.1809  0.4296
 6848TIP3    H220509   2.691   4.434   2.638 -1.0626  0.1712  0.5790
 6849TIP3   OH220510   3.639   0.240   3.101  0.4369 -0.1312  0.0450
 6849TIP3    H120511   3.572   0.289   3.054 -1.2062 -1.1179  1.2189
 6849TIP3    H220512   3.721   0.260   3.055 -0.8619 -0.0874 -2.4322
 6850TIP3   OH220513   0.150   6.446   0.909 -0.0633  0.3118 -0.1994
 6850TIP3    H120514   0.068   6.486   0.939  0.1380  1.6291 -1.3299
 6850TIP3    H220515   0.216   6.476   0.971 -0.0247  1.2475 -0.6835
 6851TIP3   OH220516   5.508   0.809   1.506  0.1169 -0.5041 -0.3604
 6851TIP3    H120517   5.474   0.847   1.426 -1.2556 -1.7168 -0.3801
 6851TIP3    H220518   5.460   0.727   1.517  0.5752 -0.5776  1.4704
 6852TIP3   OH220519   3.012   6.310   0.488 -0.4189 -0.1636 -0.2606
 6852TIP3    H120520   2.996   6.322   0.582  0.4350  0.9560 -0.2369
 6852TIP3    H220521   2.952   6.239   0.463 -2.2359  0.9602  0.6699
 6853TIP3   OH220522   3.966   6.371   5.059  0.0510  0.2853  0.6229
 6853TIP3    H120523   3.968   6.464   5.081 -1.8528  0.2258  1.1946
 6853TIP3    H220524   4.019   6.365   4.979 -0.6023  2.0295  0.0063
 6854TIP3   OH220525   0.695   0.905   2.578 -0.1505 -0.0016  0.2019
 6854TIP3    H120526   0.700   0.821   2.533 -0.5327 -0.0649  0.2704
 6854TIP3    H220527   0.681   0.883   2.670  1.7911  0.1029  0.5674
 6855TIP3   OH220528   4.878   5.614   1.274  0.1314  0.3229 -0.2946
 6855TIP3    H120529   4.947   5.569   1.225  0.5386  0.9030 -0.2622
 6855TIP3    H220530   4.820   5.543   1.303  0.5936 -0.1526 -0.4998
 6856TIP3   OH220531   2.764   4.148   1.441 -0.5958 -0.3098 -0.1918
 6856TIP3    H120532   2.749   4.165   1.534 -0.8513 -0.4168 -0.2134
 6856TIP3    H220533   2.688   4.187   1.397 -0.0756  0.4644 -0.4250
 6857TIP3   OH220534   5.066   5.264   0.922 -0.6556 -0.4210  0.1468
 6857TIP3    H120535   5.072   5.170   0.905  1.2544 -0.2685 -0.3486
 6857TIP3    H220536   5.107   5.276   1.008  3.1538  0.2982 -1.5327
 6858TIP3   OH220537   1.476   4.243   3.567 -0.2341 -0.1153  0.1005
 6858TIP3    H120538   1.458   4.337   3.567 -2.3226 -0.4657  0.4170
 6858TIP3    H220539   1.460   4.215   3.477  0.7189 -0.1144 -0.0711
 6859TIP3   OH220540   1.783   3.908   5.463 -0.2832 -0.1686 -0.2622
 6859TIP3    H120541   1.716   3.885   5.528 -0.2847 -0.3764 -0.3348
 6859TIP3    H220542   1.738   3.902   5.379 -0.2757  0.0827 -0.2818
 6860TIP3   OH220543   1.479   6.592   0.640 -0.0008 -0.0777  0.1013
 6860TIP3    H120544   1.417   6.644   0.692  0.2117 -0.8008  1.1255
 6860TIP3    H220545   1.522   6.537   0.705  1.8508  0.5253 -0.5524
 6861TIP3   OH220546   5.450   3.937   0.100  0.3113  0.5324 -0.4644
 6861TIP3    H120547   5.422   3.862   0.152  0.4465  0.4018 -0.5798
 6861TIP3    H220548   5.533   3.910   0.062  1.4292  1.5162  1.1872
 6862TIP3   OH220549   0.151   6.793   4.673 -0.0241  0.2801 -0.1973
 6862TIP3    H120550   0.234   6.841   4.670 -0.6219  1.3152 -0.8797
 6862TIP3    H220551   0.163   6.727   4.741  0.7026  1.6750  1.0643
 6863TIP3   OH220552   2.787   0.414   3.236 -0.6983  0.4944 -0.4101
 6863TIP3    H120553   2.718   0.460   3.284 -1.7841 -1.7652  0.3476
 6863TIP3    H220554   2.800   0.333   3.285  2.5961  0.8372 -0.4940
 6864TIP3   OH220555   0.330   0.865   2.693  0.2181 -0.5264 -0.0201
 6864TIP3    H120556   0.311   0.886   2.784 -0.3373  0.4071 -0.3345
 6864TIP3    H220557   0.323   0.770   2.688 -2.9361 -0.4245  0.2628
 6865TIP3   OH220558   4.485   5.737   3.904 -0.5999  0.1218 -0.2698
 6865TIP3    H120559   4.410   5.751   3.846 -1.2603  3.2836  1.1039
 6865TIP3    H220560   4.560   5.771   3.854 -0.9879  1.8010  0.2274
 6866TIP3   OH220561   0.591   4.266   0.931 -0.0087 -0.4418  0.2409
 6866TIP3    H120562   0.670   4.212   0.933 -0.8237 -1.7154 -0.5636
 6866TIP3    H220563   0.601   4.325   1.006  1.5903 -0.7144  0.2887
 6867TIP3   OH220564   6.161   0.475   0.334  0.6175  0.2501  0.2224
 6867TIP3    H120565   6.175   0.568   0.321  0.3553  0.3357  0.5344
 6867TIP3    H220566   6.080   0.470   0.384  0.4441 -0.1590 -0.0909
 6868TIP3   OH220567   0.225   2.567   5.241  0.7547 -0.4175  0.0690
 6868TIP3    H120568   0.191   2.515   5.314 -1.7116 -0.4832 -1.0085
 6868TIP3    H220569   0.242   2.503   5.172 -0.4598 -0.0403 -0.6137
 6869TIP3   OH220570   1.987   2.699   5.467 -0.0099 -0.5289  0.1284
 6869TIP3    H120571   1.968   2.787   5.501  1.3518 -0.2201  0.1471
 6869TIP3    H220572   2.036   2.657   5.538  2.2350 -0.1331 -1.1000
 6870TIP3   OH220573   3.705   5.020   4.844 -0.2262  0.2058  0.2474
 6870TIP3    H120574   3.638   4.980   4.900  1.9739 -1.7254  1.6749
 6870TIP3    H220575   3.765   5.063   4.905  1.2387 -0.3468 -0.7609
 6871TIP3   OH220576   2.351   2.777   5.233  0.0137  0.3355 -0.5435
 6871TIP3    H120577   2.399   2.695   5.244 -0.0947  0.5925  2.9076
 6871TIP3    H220578   2.259   2.752   5.240 -0.1168  0.5685 -1.3046
 6872TIP3   OH220579   3.928   6.174   4.707  0.2560 -0.0670 -0.1314
 6872TIP3    H120580   3.907   6.229   4.783  0.7821  1.5296 -1.0775
 6872TIP3    H220581   4.005   6.124   4.734  1.0383  1.2051  0.1022
 6873TIP3   OH220582   0.437   3.638   0.372 -0.1735  0.3644  0.1101
 6873TIP3    H120583   0.396   3.669   0.453 -0.2425  0.2344  0.1267
 6873TIP3    H220584   0.384   3.562   0.347 -1.0392  1.2451 -0.8301
 6874TIP3   OH220585   0.374   4.258   1.202 -0.3461  0.7917  0.3415
 6874TIP3    H120586   0.294   4.239   1.251  0.4916  1.6987  2.1732
 6874TIP3    H220587   0.360   4.345   1.165 -1.3955 -0.3199 -2.0201
 6875TIP3   OH220588   3.192   2.311   3.026 -0.0624  0.2200 -0.3967
 6875TIP3    H120589   3.239   2.261   2.960  0.1332  2.2411 -1.8954
 6875TIP3    H220590   3.256   2.327   3.095  0.4697  0.1283 -0.8631
 6876TIP3   OH220591   5.542   6.220   5.569  0.2441  0.6134 -0.1439
 6876TIP3    H120592   5.463   6.174   5.597  0.3629  1.1114  1.0651
 6876TIP3    H220593   5.596   6.152   5.528  0.1507 -0.2283  1.0534
 6877TIP3   OH220594   6.094   4.186   5.328 -0.1876 -0.1081 -0.5448
 6877TIP3    H120595   6.153   4.254   5.360 -1.1751 -0.1814  1.6033
 6877TIP3    H220596   6.075   4.212   5.237  1.7267  0.8488 -0.7304
 6878TIP3   OH220597   6.805   3.021   1.387 -0.0836 -0.0938  0.0143
 6878TIP3    H120598   6.712   3.040   1.375  0.0091  1.8289  1.8090
 6878TIP3    H220599   6.816   3.010   1.481  1.2987 -1.7514 -0.2884
 6879TIP3   OH220600   5.984   0.781   5.869 -0.1551 -0.0203  0.0175
 6879TIP3    H120601   5.991   0.864   5.822 -0.3621 -0.0883 -0.1355
 6879TIP3    H220602   5.959   0.717   5.802 -0.8506 -0.0415  0.2818
 6880TIP3   OH220603   5.941   1.633   4.745 -0.6289  0.2339 -0.0366
 6880TIP3    H120604   5.932   1.637   4.650 -1.0208  2.5141  0.0353
 6880TIP3    H220605   5.923   1.722   4.774  0.6288 -0.1332  2.0818
 6881TIP3   OH220606   1.569   4.658   0.102  0.2084  0.1338  0.8005
 6881TIP3    H120607   1.516   4.686   0.176 -2.7928  0.7860 -1.4138
 6881TIP3    H220608   1.534   4.572   0.079  0.0711  0.5692 -0.7041
 6882TIP3   OH220609   1.085   4.699   1.260 -0.5543 -0.0083 -0.0911
 6882TIP3    H120610   1.084   4.769   1.325 -0.6412 -0.8771  0.8727
 6882TIP3    H220611   1.089   4.744   1.176  1.9416  1.1118  0.5533
 6883TIP3   OH220612   3.005   5.562   1.444  0.4077 -0.3492  0.1262
 6883TIP3    H120613   3.060   5.499   1.398  0.7601 -0.3340  0.5159
 6883TIP3    H220614   3.064   5.603   1.507  0.1664  0.3323 -0.0869
 6884TIP3   OH220615   5.529   3.086   0.698  0.1222 -0.0183  0.1412
 6884TIP3    H120616   5.524   3.075   0.793 -0.5139  1.5706  0.3181
 6884TIP3    H220617   5.623   3.082   0.679  0.3162  0.3725  0.9485
 6885TIP3   OH220618   2.136   1.688   0.633 -0.1947  0.0909  0.2733
 6885TIP3    H120619   2.195   1.613   0.624 -1.1730 -0.6832  0.1262
 6885TIP3    H220620   2.150   1.740   0.554 -0.7383 -0.8388 -0.4489
 6886TIP3   OH220621   2.754   3.955   2.472  0.2021  0.0759 -0.2707
 6886TIP3    H120622   2.840   3.941   2.512 -0.5580  1.9815  2.3041
 6886TIP3    H220623   2.754   4.048   2.447 -0.7320 -0.1792 -1.3316
 6887TIP3   OH220624   5.651   1.360   3.479 -0.5390  0.0806  0.1584
 6887TIP3    H120625   5.667   1.271   3.449  0.0557  0.0041  0.6977
 6887TIP3    H220626   5.666   1.357   3.574  1.2004  1.1214 -0.0470
 6888TIP3   OH220627   5.795   5.201   1.607 -0.0775  0.0712 -0.1225
 6888TIP3    H120628   5.776   5.223   1.516 -0.4120  0.8072  0.1252
 6888TIP3    H220629   5.872   5.253   1.629 -2.1778  2.8476  1.1582
 6889TIP3   OH220630   5.349   3.313   4.695 -0.1474 -0.5459  0.0701
 6889TIP3    H120631   5.360   3.352   4.782 -1.8844 -0.3974  0.2610
 6889TIP3    H220632   5.284   3.244   4.708  0.8468 -1.7055 -0.7997
 6890TIP3   OH220633   2.227   4.057   3.431  0.4304 -0.2325 -0.1599
 6890TIP3    H120634   2.259   4.070   3.341  1.3683 -1.7190 -0.0667
 6890TIP3    H220635   2.144   4.104   3.433 -0.7888 -2.0583 -2.5441
 6891TIP3   OH220636   6.953   2.353   2.217 -0.3884 -0.0297  0.0303
 6891TIP3    H120637   6.976   2.272   2.263 -1.3836 -0.1291  0.3874
 6891TIP3    H220638   7.000   2.422   2.264  0.1512 -0.3554 -0.0305
 6892TIP3   OH220639   2.519   5.824   4.664  0.5265  0.1594  0.2296
 6892TIP3    H120640   2.450   5.801   4.727  0.9963 -0.4964  0.5089
 6892TIP3    H220641   2.504   5.917   4.646  0.9373  0.6306  2.0387
 6893TIP3   OH220642   1.699   2.110   4.761 -0.6000  0.8255 -0.6735
 6893TIP3    H120643   1.789   2.139   4.773  0.4353 -2.1607 -0.3234
 6893TIP3    H220644   1.671   2.149   4.679  2.0907 -0.4542 -2.3035
 6894TIP3   OH220645   3.840   0.933   1.318 -1.0547 -0.4670  0.0016
 6894TIP3    H120646   3.888   0.870   1.265 -1.3228  1.3153 -2.4988
 6894TIP3    H220647   3.902   1.004   1.335 -1.3388 -0.4552  1.1192
 6895TIP3   OH220648   4.027   4.654   2.671 -0.3998  0.2563 -0.0222
 6895TIP3    H120649   4.037   4.749   2.675  0.0708  0.2743 -1.3496
 6895TIP3    H220650   4.030   4.626   2.763  0.9214  1.3663  0.3091
 6896TIP3   OH220651   3.527   5.632   3.631  0.1879  0.5712  0.3319
 6896TIP3    H120652   3.560   5.555   3.586  1.1879  1.1289  0.0872
 6896TIP3    H220653   3.460   5.598   3.690  2.6208 -0.9389  2.4405
 6897TIP3   OH220654   6.169   1.764   2.446 -0.2118  0.2678  0.4266
 6897TIP3    H120655   6.150   1.672   2.463  0.9669  0.0658  0.7617
 6897TIP3    H220656   6.120   1.784   2.366 -0.4221 -0.6742  0.3079
 6898TIP3   OH220657   0.634   3.868   3.955 -0.2427 -0.3094 -0.4009
 6898TIP3    H120658   0.652   3.959   3.931 -1.6202 -0.3118 -1.5603
 6898TIP3    H220659   0.712   3.820   3.927  0.3071  0.4291 -0.1904
 6899TIP3   OH220660   0.609   1.493   0.144 -0.4707 -0.8088 -0.0712
 6899TIP3    H120661   0.691   1.538   0.124 -1.7373  1.8173  0.0627
 6899TIP3    H220662   0.620   1.405   0.108  2.6531 -0.8332  0.6735
 6900TIP3   OH220663   3.481   1.529   4.633  0.1728  0.0657  0.0198
 6900TIP3    H120664   3.470   1.576   4.715 -1.5847  1.4423 -0.9334
 6900TIP3    H220665   3.413   1.462   4.634 -0.4819  0.6970 -0.6826
 6901TIP3   OH220666   0.198   6.173   0.885 -0.0077 -0.3229  0.7212
 6901TIP3    H120667   0.170   6.263   0.902  0.6764  0.1150 -0.3739
 6901TIP3    H220668   0.289   6.170   0.913  0.1342 -0.5143  0.2527
 6902TIP3   OH220669   1.732   2.255   3.879  0.3008 -0.2679 -0.4696
 6902TIP3    H120670   1.777   2.172   3.862  0.3322  0.0368 -2.0336
 6902TIP3    H220671   1.719   2.293   3.792 -0.1437  1.1480  0.1939
 6903TIP3   OH220672   6.172   2.697   5.108 -0.2085  0.1415 -0.1155
 6903TIP3    H120673   6.264   2.699   5.084 -0.6495  0.1441 -1.9841
 6903TIP3    H220674   6.134   2.771   5.060 -1.1074  0.4040  0.9673
 6904TIP3   OH220675   3.122   6.718   5.205 -0.2981  0.0981  0.2223
 6904TIP3    H120676   3.094   6.654   5.271  0.8581 -0.7419 -0.0794
 6904TIP3    H220677   3.196   6.763   5.244 -0.5447  0.6463  0.0738
 6905TIP3   OH220678   6.171   6.159   1.510  0.2274  0.7700  0.0590
 6905TIP3    H120679   6.120   6.078   1.507  0.5923  0.5494 -0.2979
 6905TIP3    H220680   6.129   6.211   1.578  1.4420 -0.7150  2.0608
 6906TIP3   OH220681   4.691   2.830   3.651  0.2055  0.5070  0.0662
 6906TIP3    H120682   4.693   2.801   3.742  1.3142  0.9147  0.1875
 6906TIP3    H220683   4.598   2.834   3.629 -0.0612 -3.1433  0.0097
 6907TIP3   OH220684   3.171   6.106   2.950 -0.3457  0.1060 -0.0862
 6907TIP3    H120685   3.081   6.080   2.932 -0.0651 -0.3444 -0.8951
 6907TIP3    H220686   3.202   6.142   2.867  0.0429  0.7772  0.3479
 6908TIP3   OH220687   1.753   0.679   5.707 -0.6960 -0.1442  0.0065
 6908TIP3    H120688   1.789   0.607   5.757  0.8104  0.4608 -0.1438
 6908TIP3    H220689   1.791   0.758   5.747  2.3099  0.3024 -3.2499
 6909TIP3   OH220690   4.876   0.747   1.719  0.1533  0.1157 -0.3691
 6909TIP3    H120691   4.957   0.797   1.724 -0.7279  1.5893 -0.4118
 6909TIP3    H220692   4.810   0.809   1.687 -1.2876 -0.6722  0.9117
 6910TIP3   OH220693   4.704   4.286   1.757 -0.3647 -0.1975  0.4016
 6910TIP3    H120694   4.644   4.230   1.708 -0.7223  0.6605 -0.1741
 6910TIP3    H220695   4.717   4.240   1.840  0.2137 -1.6532 -0.4557
 6911TIP3   OH220696   4.953   5.780   3.247  0.0201  0.3112 -0.0381
 6911TIP3    H120697   4.951   5.689   3.277  0.6246  0.2603 -0.1367
 6911TIP3    H220698   4.929   5.775   3.155  0.6039  0.1767 -0.1916
 6912TIP3   OH220699   0.103   3.259   2.320  0.1772  0.8449 -0.3658
 6912TIP3    H120700   0.179   3.201   2.323  1.4509  2.4108 -0.8125
 6912TIP3    H220701   0.028   3.201   2.330  1.4414 -0.7064  0.5919
 6913TIP3   OH220702   5.639   5.612   4.004 -0.7670 -0.1637  0.2484
 6913TIP3    H120703   5.610   5.628   3.915 -1.6609 -1.9667  0.1741
 6913TIP3    H220704   5.565   5.569   4.047  0.0474 -0.3536  1.5345
 6914TIP3   OH220705   0.144   5.958   0.049  0.4851 -0.0603 -0.3379
 6914TIP3    H120706   0.192   6.026   0.003  0.1817 -0.7178 -1.6567
 6914TIP3    H220707   0.182   5.958   0.137  0.4731  1.8058 -0.2947
 6915TIP3   OH220708   4.541   2.832   1.108 -0.1729 -0.2090  0.2141
 6915TIP3    H120709   4.469   2.829   1.045 -0.0372 -1.5941  0.0972
 6915TIP3    H220710   4.508   2.888   1.179 -1.1737 -0.4116 -0.0774
 6916TIP3   OH220711   2.400   2.936   3.959  0.3905 -0.1326  0.5594
 6916TIP3    H120712   2.423   3.028   3.965  0.9387 -0.1181 -1.1064
 6916TIP3    H220713   2.474   2.890   4.000  1.0746  0.1202 -0.3445
 6917TIP3   OH220714   1.371   4.334   5.169 -0.1936 -0.0335  0.0535
 6917TIP3    H120715   1.438   4.385   5.215  0.3012 -1.1132  0.5662
 6917TIP3    H220716   1.421   4.277   5.110 -0.7894  0.8585 -1.3555
 6918TIP3   OH220717   1.974   0.362   0.454 -0.3954 -0.2107  0.3773
 6918TIP3    H120718   1.918   0.433   0.484  0.5401 -0.1852  2.1747
 6918TIP3    H220719   1.939   0.283   0.497 -0.1210 -0.4781  0.1184
 6919TIP3   OH220720   1.516   5.418   1.510  0.5203  0.1105  0.1656
 6919TIP3    H120721   1.587   5.479   1.491  0.7684 -0.3476 -0.4098
 6919TIP3    H220722   1.443   5.449   1.457  0.3325  0.4870  0.6353
 6920TIP3   OH220723   5.709   6.438   2.049 -0.7881  0.1828 -0.4362
 6920TIP3    H120724   5.792   6.480   2.025 -1.1111  0.9003 -0.3117
 6920TIP3    H220725   5.661   6.505   2.097 -1.2580 -0.3765 -0.1160
 6921TIP3   OH220726   3.922   0.241   3.384 -0.4627  0.2978  0.5946
 6921TIP3    H120727   3.960   0.274   3.302 -2.6534 -1.2676 -1.2013
 6921TIP3    H220728   3.917   0.317   3.441  0.6934  1.5595 -0.8910
 6922TIP3   OH220729   2.397   2.614   0.823  0.5474  0.0058 -0.1867
 6922TIP3    H120730   2.368   2.570   0.743  1.3486  2.2847 -1.8658
 6922TIP3    H220731   2.344   2.694   0.826  0.6733  0.0544  1.4864
 6923TIP3   OH220732   6.159   6.081   2.266 -0.4519  0.5538  0.0241
 6923TIP3    H120733   6.131   6.077   2.174  1.0709 -0.2022 -0.4504
 6923TIP3    H220734   6.083   6.051   2.316 -0.3853 -2.0238 -1.2321
 6924TIP3   OH220735   0.207   5.667   3.560  0.0415 -0.0865 -0.8800
 6924TIP3    H120736   0.161   5.655   3.643  0.8169  2.4124  0.0075
 6924TIP3    H220737   0.142   5.643   3.494 -0.8817 -1.3108  0.3964
 6925TIP3   OH220738   2.674   5.080   2.422  0.5979  0.1334  0.0032
 6925TIP3    H120739   2.651   4.988   2.410  2.8960 -0.7666  1.6711
 6925TIP3    H220740   2.665   5.094   2.517 -2.6581  2.6006 -0.5018
 6926TIP3   OH220741   2.533   0.827   4.746 -0.3991 -0.2122  0.2309
 6926TIP3    H120742   2.605   0.772   4.717  0.2234  0.2946  0.7895
 6926TIP3    H220743   2.498   0.782   4.822  0.9563  0.7874  1.5032
 6927TIP3   OH220744   5.054   0.964   1.752  0.1725 -0.1013 -0.5517
 6927TIP3    H120745   5.128   0.965   1.813 -0.8503  1.2223  0.7583
 6927TIP3    H220746   5.085   1.012   1.675  1.0810 -0.6915 -0.5654
 6928TIP3   OH220747   1.031   1.277   5.226  0.7067  0.6044 -0.2360
 6928TIP3    H120748   1.050   1.367   5.200  3.0846  0.2704  0.0764
 6928TIP3    H220749   1.115   1.243   5.256 -0.0974 -1.7872 -0.4893
 6929TIP3   OH220750   5.973   5.103   1.998 -0.6822  0.1142  0.0750
 6929TIP3    H120751   5.983   5.026   1.942  1.2142  0.4102 -0.0618
 6929TIP3    H220752   6.022   5.172   1.953 -1.2588  1.0499  0.8415
 6930TIP3   OH220753   5.576   3.871   1.201  0.3219  0.3188 -0.1061
 6930TIP3    H120754   5.505   3.869   1.137  0.7803 -0.3518 -0.6194
 6930TIP3    H220755   5.535   3.850   1.284 -0.1024  0.0586 -0.3782
 6931TIP3   OH220756   0.689   3.343   3.930 -0.3520 -0.1469 -0.4625
 6931TIP3    H120757   0.630   3.273   3.900  2.2658 -3.0284  0.5640
 6931TIP3    H220758   0.690   3.333   4.025  1.5930 -0.0533 -0.4486
 6932TIP3   OH220759   4.886   1.629   1.742 -0.2136 -0.1176 -0.1021
 6932TIP3    H120760   4.839   1.711   1.725  2.1566  1.0939 -1.2117
 6932TIP3    H220761   4.854   1.601   1.828 -1.3649  1.7436  0.1333
 6933TIP3   OH220762   2.218   3.430   3.246  0.0273  0.2816  0.1341
 6933TIP3    H120763   2.275   3.507   3.238  0.3357  0.0804  0.4152
 6933TIP3    H220764   2.142   3.462   3.294 -0.4970  0.7639 -0.9645
 6934TIP3   OH220765   4.252  -0.014   5.028 -0.6003 -0.5514  0.2440
 6934TIP3    H120766   4.271   0.064   5.080  0.2513 -0.9198  0.5063
 6934TIP3    H220767   4.161  -0.036   5.051 -1.2963  1.0730 -0.8107
 6935TIP3   OH220768   3.598   4.194   2.986 -0.2361  0.4847  0.2582
 6935TIP3    H120769   3.565   4.277   2.952 -1.5003 -0.3929 -0.7605
 6935TIP3    H220770   3.633   4.216   3.072 -1.4781  1.9005  0.4432
 6936TIP3   OH220771   4.759   1.508   4.599 -0.0898  0.0958  0.0051
 6936TIP3    H120772   4.741   1.600   4.578 -0.8783  0.3422  1.6005
 6936TIP3    H220773   4.680   1.478   4.643  0.6307 -0.9996  0.5932
 6937TIP3   OH220774   2.270   1.334   5.029  0.4401 -0.2894 -0.4041
 6937TIP3    H120775   2.216   1.409   5.004 -0.0587 -0.6371 -0.3783
 6937TIP3    H220776   2.208   1.263   5.046  0.9692 -1.4304 -2.7657
 6938TIP3   OH220777   6.559   3.839   4.728  0.2261 -0.4176  0.1130
 6938TIP3    H120778   6.477   3.866   4.687  0.2347  0.9518  0.9418
 6938TIP3    H220779   6.533   3.802   4.812  0.5099  1.3555  1.0268
 6939TIP3   OH220780   5.470   4.959   1.788  0.1340 -0.1092  0.9736
 6939TIP3    H120781   5.535   5.019   1.824  0.1361 -1.0609  2.6480
 6939TIP3    H220782   5.520   4.899   1.732  0.4603  0.0551  1.0908
 6940TIP3   OH220783   5.683   6.720   0.991  0.2720  0.5040 -0.0969
 6940TIP3    H120784   5.608   6.779   1.001  0.9330  1.3223  0.1665
 6940TIP3    H220785   5.748   6.772   0.944  2.4415  1.5103  3.6186
 6941TIP3   OH220786   1.338   5.794   0.954 -0.5687  0.0235  0.4629
 6941TIP3    H120787   1.266   5.746   0.913 -0.7989 -0.4056  1.3489
 6941TIP3    H220788   1.312   5.886   0.949 -0.6410 -0.0318 -0.2468
 6942TIP3   OH220789   3.464   0.202   2.315  0.4435  0.3732  0.7617
 6942TIP3    H120790   3.438   0.228   2.404 -1.1996 -1.2255  0.8212
 6942TIP3    H220791   3.447   0.280   2.262 -3.1043  0.0360  1.1261
 6943TIP3   OH220792   5.998   1.612   4.083  0.7003  0.1998 -0.1383
 6943TIP3    H120793   5.915   1.632   4.127  1.8782  0.3251  2.1839
 6943TIP3    H220794   6.008   1.682   4.018  0.2936  1.8142  1.4560
 6944TIP3   OH220795   5.116   1.842   0.205  0.3757  0.1912  0.3298
 6944TIP3    H120796   5.092   1.904   0.136  0.4492  1.2436  1.2177
 6944TIP3    H220797   5.194   1.797   0.172 -0.1244  0.0195 -0.6484
 6945TIP3   OH220798   4.191   4.609   4.758  0.0161  0.0823 -1.1248
 6945TIP3    H120799   4.161   4.540   4.817 -0.3682  0.7692 -0.5086
 6945TIP3    H220800   4.286   4.600   4.758  0.0881  0.5925  0.2643
 6946TIP3   OH220801   6.826   4.918   2.720 -0.0583  0.1708  0.0546
 6946TIP3    H120802   6.912   4.916   2.679  0.3011  0.7062  0.7704
 6946TIP3    H220803   6.766   4.885   2.652  0.1208  3.4052 -1.8830
 6947TIP3   OH220804   5.610   2.586   2.370  0.0477 -0.6663 -0.0292
 6947TIP3    H120805   5.595   2.677   2.346  2.9909  0.3141  1.2969
 6947TIP3    H220806   5.683   2.558   2.315 -0.1129 -1.8715  0.3269
 6948TIP3   OH220807   0.721   1.958   0.191  0.3147 -0.0573 -0.2145
 6948TIP3    H120808   0.675   1.973   0.274 -0.4127 -1.2190 -0.3905
 6948TIP3    H220809   0.657   1.913   0.136  1.0305  0.0634 -1.1586
 6949TIP3   OH220810   0.279  -0.005   5.575 -0.5637  0.4751 -0.2901
 6949TIP3    H120811   0.227  -0.010   5.494 -2.4046  2.8843  0.6129
 6949TIP3    H220812   0.221   0.039   5.637  1.2403 -0.2449  2.0042
 6950TIP3   OH220813   1.485   2.006   3.060  0.3280  0.0050 -0.3590
 6950TIP3    H120814   1.394   2.015   3.030 -0.0233 -0.3237  0.5756
 6950TIP3    H220815   1.525   2.091   3.044 -0.6571  0.7308  0.8932
 6951TIP3   OH220816   6.857   0.226   0.736 -0.1250 -0.1031  0.0264
 6951TIP3    H120817   6.876   0.175   0.815  1.9899  0.4772 -0.0427
 6951TIP3    H220818   6.901   0.178   0.666  1.1044  1.2832 -0.1838
 6952TIP3   OH220819   6.748   3.738   4.532 -0.3984  0.1868 -0.0681
 6952TIP3    H120820   6.710   3.763   4.616  1.7171  2.0366  0.4411
 6952TIP3    H220821   6.709   3.799   4.469  0.3259  0.9201  0.1626
 6953TIP3   OH220822   1.588   1.594   2.263 -0.4251  0.0680  0.2571
 6953TIP3    H120823   1.677   1.560   2.268 -0.1684  0.6239 -0.4174
 6953TIP3    H220824   1.567   1.592   2.169 -0.6314  1.2005  0.2710
 6954TIP3   OH220825   0.844   1.563   5.267  0.2510  0.2862  0.0761
 6954TIP3    H120826   0.826   1.526   5.180  0.2069 -0.0456  0.2264
 6954TIP3    H220827   0.888   1.646   5.248  1.6001 -0.4797 -0.2586
 6955TIP3   OH220828   5.663   2.094   4.785  0.1139 -0.3437  0.5268
 6955TIP3    H120829   5.670   2.040   4.707 -0.7966  0.8044 -0.3921
 6955TIP3    H220830   5.744   2.145   4.787  0.1458 -0.3868  0.3455
 6956TIP3   OH220831   6.782   4.579   1.192  0.4144 -0.9396  0.1278
 6956TIP3    H120832   6.830   4.659   1.170 -0.8682 -0.3822 -0.7589
 6956TIP3    H220833   6.718   4.607   1.257 -0.0443 -1.2274 -0.1948
 6957TIP3   OH220834   2.827   2.083   0.491  0.0763 -0.3705 -0.1544
 6957TIP3    H120835   2.761   2.072   0.422 -0.5212 -0.0978  0.3651
 6957TIP3    H220836   2.887   2.010   0.478 -0.4191 -0.7184 -0.5339
 6958TIP3   OH220837   4.730   3.997   0.696 -0.1891  0.1275 -0.3153
 6958TIP3    H120838   4.718   4.072   0.638 -0.9578  0.5446  0.3590
 6958TIP3    H220839   4.732   4.035   0.784 -0.1856 -0.6021  0.0088
 6959TIP3   OH220840   4.184   0.133   4.284  0.1580  1.1034  0.4264
 6959TIP3    H120841   4.099   0.117   4.324  0.1977  0.4058  0.2363
 6959TIP3    H220842   4.169   0.208   4.226  0.3179  2.7293  2.3865
 6960TIP3   OH220843   6.448   0.693   2.979 -0.9542 -0.1635  0.2335
 6960TIP3    H120844   6.490   0.627   3.035  1.0330  0.3740 -0.5300
 6960TIP3    H220845   6.476   0.777   3.016 -1.8521  0.2365  0.0291
 6961TIP3   OH220846   4.733   0.589   5.680  0.0813 -0.0253 -0.1125
 6961TIP3    H120847   4.691   0.648   5.618  2.1070  3.2787  1.3640
 6961TIP3    H220848   4.798   0.541   5.629  0.5016  1.3088 -0.8598
 6962TIP3   OH220849   7.099   0.036   1.629  0.5373 -0.0631 -0.0059
 6962TIP3    H120850   7.010   0.058   1.601  1.0590 -0.0004 -1.7225
 6962TIP3    H220851   7.131  -0.025   1.563  1.8475  0.0736  0.4662
 6963TIP3   OH220852   6.057   3.287   5.827  0.3809  0.4482  0.0587
 6963TIP3    H120853   6.085   3.243   5.907 -0.2832  0.5284  0.3420
 6963TIP3    H220854   6.124   3.354   5.812  0.6076  0.3110  0.4486
 6964TIP3   OH220855   3.807   1.964   2.557 -0.0710 -0.3327 -0.0479
 6964TIP3    H120856   3.746   2.000   2.622 -1.6151 -1.1271 -1.0028
 6964TIP3    H220857   3.871   1.915   2.608  0.2269  1.1148  1.0361
 6965TIP3   OH220858   6.590   2.945   3.373 -0.4781 -0.4790  0.6955
 6965TIP3    H120859   6.680   2.949   3.405 -0.0772 -2.2734 -0.0598
 6965TIP3    H220860   6.558   3.034   3.381  1.6313  0.3961  0.2799
 6966TIP3   OH220861   1.558   1.317   1.561 -0.0606  0.0777  0.5662
 6966TIP3    H120862   1.643   1.354   1.583 -0.3319 -0.2763  2.3332
 6966TIP3    H220863   1.511   1.389   1.519  1.2648  0.1156 -0.9722
 6967TIP3   OH220864   1.334   3.892   0.413  0.4877  0.0035  0.2367
 6967TIP3    H120865   1.240   3.880   0.396  0.6491  0.2283 -0.9422
 6967TIP3    H220866   1.371   3.909   0.326  1.8044 -1.2658  0.5189
 6968TIP3   OH220867   2.818   0.236   0.478  0.0442  0.9979  0.0192
 6968TIP3    H120868   2.825   0.283   0.395 -0.0385 -1.6745 -1.6437
 6968TIP3    H220869   2.805   0.144   0.452 -0.8453  0.1638  3.0106
 6969TIP3   OH220870   6.679   2.236   4.107  0.6557 -0.0317  0.3113
 6969TIP3    H120871   6.650   2.326   4.122 -0.0079  0.1807 -1.8864
 6969TIP3    H220872   6.654   2.189   4.186 -2.3696  0.9627  0.0729
 6970TIP3   OH220873   6.262   5.297   3.835 -0.3888 -0.4084  0.0509
 6970TIP3    H120874   6.310   5.353   3.896  1.1312 -1.6816  0.0834
 6970TIP3    H220875   6.257   5.348   3.754 -0.8208  0.5578  0.6641
 6971TIP3   OH220876   5.725   2.029   3.073  0.6215  0.3342  0.0070
 6971TIP3    H120877   5.709   2.114   3.033  0.6510  0.0659 -0.5993
 6971TIP3    H220878   5.814   2.006   3.045  0.2448 -0.3382 -0.6864
 6972TIP3   OH220879   5.597   4.268   2.522  0.5762  0.3973  0.6879
 6972TIP3    H120880   5.503   4.281   2.512  0.7831  1.1447 -0.5179
 6972TIP3    H220881   5.614   4.182   2.483  0.5645  0.8515 -0.3596
 6973TIP3   OH220882   5.137   1.662   4.118  0.4554  0.2116  0.2561
 6973TIP3    H120883   5.222   1.634   4.151 -0.2094  0.4238  2.2993
 6973TIP3    H220884   5.081   1.664   4.195 -1.1544  1.0479 -0.8757
 6974TIP3   OH220885   3.130   3.166   1.075 -0.0178 -0.2591 -0.3994
 6974TIP3    H120886   3.061   3.154   1.010  0.2122  0.0365 -0.6997
 6974TIP3    H220887   3.209   3.181   1.024  0.8785 -3.4444 -0.1536
 6975TIP3   OH220888   0.693   2.436   2.240 -0.1154 -0.3018 -0.0692
 6975TIP3    H120889   0.699   2.502   2.309 -2.5166  0.4153 -0.4614
 6975TIP3    H220890   0.759   2.463   2.176  0.1598  0.6805  0.6067
 6976TIP3   OH220891   6.352   3.244   2.093  0.2881 -0.0654 -0.6225
 6976TIP3    H120892   6.434   3.292   2.085 -0.8721  1.9560 -1.0836
 6976TIP3    H220893   6.285   3.305   2.063 -1.8016 -0.3489  2.8702
 6977TIP3   OH220894   3.351   6.653   2.475 -0.0040  0.6058  0.3127
 6977TIP3    H120895   3.359   6.601   2.395  0.9652 -0.6205  1.1756
 6977TIP3    H220896   3.263   6.689   2.471 -0.9342 -1.5709 -0.0441
 6978TIP3   OH220897   2.583   6.495   0.508  0.0569 -0.1476  0.1041
 6978TIP3    H120898   2.652   6.555   0.535  0.7400 -1.2246  0.8362
 6978TIP3    H220899   2.562   6.446   0.587 -0.7593 -0.6064 -0.3882
 6979TIP3   OH220900   0.376   1.810   2.111  0.1296 -0.6410 -0.4797
 6979TIP3    H120901   0.294   1.837   2.070  0.0549  0.8096  0.5011
 6979TIP3    H220902   0.429   1.891   2.113 -0.0140 -0.5134  2.4793
 6980TIP3   OH220903   6.449   2.877   1.817  0.2362 -0.1497  0.1263
 6980TIP3    H120904   6.382   2.853   1.753 -1.9268  0.9484  1.8077
 6980TIP3    H220905   6.483   2.961   1.785  1.0465 -0.8239 -0.8589
 6981TIP3   OH220906   3.343   5.771   1.036  0.0703  0.0821  0.2269
 6981TIP3    H120907   3.422   5.794   0.988  0.5874 -2.7840 -0.4405
 6981TIP3    H220908   3.273   5.772   0.971 -0.2051  1.1651  0.5167
 6982TIP3   OH220909   2.974   6.508   0.292 -0.1417  0.5754  0.2360
 6982TIP3    H120910   2.998   6.420   0.264  1.5793  1.2396 -0.4859
 6982TIP3    H220911   2.946   6.498   0.383  1.4755 -0.5126  0.6483
 6983TIP3   OH220912   5.012   4.655   3.175 -0.4562 -0.5468 -0.1102
 6983TIP3    H120913   5.096   4.701   3.179 -0.3286 -0.8911  1.5595
 6983TIP3    H220914   5.032   4.567   3.206 -0.8625 -1.5758 -2.4967
 6984TIP3   OH220915   2.466   4.068   0.758 -0.1566 -0.2403  0.2795
 6984TIP3    H120916   2.427   4.152   0.783  0.6520  0.3429 -0.3442
 6984TIP3    H220917   2.451   4.062   0.663  2.4219  0.6793 -0.2603
 6985TIP3   OH220918   7.202   1.698   1.426  0.1493  0.0027 -0.6671
 6985TIP3    H120919   7.134   1.767   1.423  0.1363  0.0033 -0.3907
 6985TIP3    H220920   7.271   1.731   1.369  0.4317  0.5561 -0.0150
 6986TIP3   OH220921   1.390   3.636   1.103  0.4174  0.3013 -0.5925
 6986TIP3    H120922   1.428   3.606   1.020  0.7015 -1.4355  0.1146
 6986TIP3    H220923   1.328   3.705   1.078  1.7097  0.9887 -2.0667
 6987TIP3   OH220924   5.725   0.919   4.888 -0.2390 -0.6051 -0.0507
 6987TIP3    H120925   5.644   0.905   4.840 -0.5935  0.4666  0.1909
 6987TIP3    H220926   5.720   0.861   4.964 -1.3882  0.3592  0.6467
 6988TIP3   OH220927   5.622   6.325   0.167  0.2343 -0.1868 -0.5416
 6988TIP3    H120928   5.602   6.406   0.120 -0.1784 -1.1286 -2.0837
 6988TIP3    H220929   5.574   6.258   0.119  2.1920 -1.6515 -0.6029
 6989TIP3   OH220930   4.751   6.287   1.491  0.6260 -0.1742 -0.4087
 6989TIP3    H120931   4.750   6.372   1.447  2.1407  0.4481  0.6634
 6989TIP3    H220932   4.682   6.237   1.448  1.1907  0.8063 -2.6326
 6990TIP3   OH220933   0.417   4.283   2.855 -0.6905 -0.0645 -0.3402
 6990TIP3    H120934   0.471   4.258   2.930 -1.2033  0.7118  0.3019
 6990TIP3    H220935   0.452   4.231   2.782 -0.3638 -1.0435  0.4876
 6991TIP3   OH220936   3.345   4.995   0.560 -0.3666  0.3636 -0.0357
 6991TIP3    H120937   3.440   4.995   0.551 -0.2848 -0.4256  0.7256
 6991TIP3    H220938   3.319   5.086   0.541  0.3521  0.2082 -1.9801
 6992TIP3   OH220939   4.338   5.111   2.737  0.4047 -0.1688 -0.5183
 6992TIP3    H120940   4.310   5.117   2.645 -0.5357  0.3960 -0.2152
 6992TIP3    H220941   4.426   5.148   2.738 -0.0506  0.9893 -1.0120
 6993TIP3   OH220942   2.217   2.904   3.189  0.2176  0.2339  0.3308
 6993TIP3    H120943   2.262   2.865   3.114  0.9528  0.1755  0.7895
 6993TIP3    H220944   2.246   2.995   3.189  2.3510 -0.3535  2.0574
 6994TIP3   OH220945   6.710   0.420   2.283  0.1467  0.0397  0.6511
 6994TIP3    H120946   6.629   0.369   2.294 -0.0419  0.1042 -0.3491
 6994TIP3    H220947   6.704   0.490   2.348  0.8905 -1.7534  2.8260
 6995TIP3   OH220948   7.045   5.171   5.540  0.6890  0.3484  0.3255
 6995TIP3    H120949   6.980   5.130   5.483  0.7570 -0.0481  0.5329
 6995TIP3    H220950   7.006   5.255   5.564  0.7209  0.5906 -0.4212
 6996TIP3   OH220951   1.681   0.570   1.420 -0.4000 -0.3760  0.3880
 6996TIP3    H120952   1.711   0.480   1.430 -1.6122 -0.8174  0.3285
 6996TIP3    H220953   1.646   0.593   1.506  0.6282  0.3374  0.6278
 6997TIP3   OH220954   0.445   5.850   4.396  0.0459  0.6307  0.3252
 6997TIP3    H120955   0.355   5.879   4.406  0.0187  0.3529  0.9020
 6997TIP3    H220956   0.438   5.765   4.351  0.0041  0.5220  0.5332
 6998TIP3   OH220957   1.893   5.708   2.148  0.6451  0.0680 -0.3872
 6998TIP3    H120958   1.924   5.751   2.227 -0.5739  0.1938  0.0360
 6998TIP3    H220959   1.909   5.772   2.078 -0.8965  1.1503  0.1907
 6999TIP3   OH220960   3.457   2.157   1.357  0.0914  0.0681 -0.4055
 6999TIP3    H120961   3.413   2.225   1.306 -1.5245 -1.3409 -0.9873
 6999TIP3    H220962   3.392   2.129   1.421  0.6538 -1.0155 -0.2732
 7000TIP3   OH220963   6.213   3.435   0.317  0.2978  0.0871 -0.2921
 7000TIP3    H120964   6.124   3.407   0.338  0.0841  1.2518  0.4063
 7000TIP3    H220965   6.206   3.529   0.300  1.1532 -0.0728 -1.7187
 7001TIP3   OH220966   5.934   2.501   1.780  0.0387 -0.0599  0.4825
 7001TIP3    H120967   6.020   2.479   1.745 -0.2691 -0.4451 -0.0484
 7001TIP3    H220968   5.952   2.542   1.865  0.8170  1.0396 -0.1804
 7002TIP3   OH220969   4.335   3.340   4.332 -0.0280  0.0132 -0.0890
 7002TIP3    H120970   4.371   3.390   4.259 -0.9813 -0.1016 -0.6551
 7002TIP3    H220971   4.368   3.384   4.410 -0.2098  1.0573 -0.5813
 7003TIP3   OH220972   4.006   2.734   1.629 -0.2217  0.0655 -0.4684
 7003TIP3    H120973   3.978   2.642   1.630 -0.0699  0.0093  1.5417
 7003TIP3    H220974   4.081   2.735   1.570 -1.2643 -0.7506 -1.8814
 7004TIP3   OH220975   6.883   4.617   0.191  0.0169  0.4145  0.5299
 7004TIP3    H120976   6.866   4.525   0.173 -0.4284  0.4544  0.7270
 7004TIP3    H220977   6.800   4.661   0.176  0.5142  0.9786 -0.7251
 7005TIP3   OH220978   4.046   5.597   4.411  0.0252  0.3244 -0.4730
 7005TIP3    H120979   3.954   5.592   4.386 -0.1474  0.9248  0.0234
 7005TIP3    H220980   4.074   5.506   4.419 -0.0342  0.0907 -2.3649
 7006TIP3   OH220981   4.005   4.191   3.092 -0.0633 -0.0135 -0.1300
 7006TIP3    H120982   3.957   4.253   3.038 -2.5560 -1.2745  0.5104
 7006TIP3    H220983   3.993   4.106   3.048  1.8073 -0.3746 -0.0508
 7007TIP3   OH220984   2.164   6.143   0.116  0.0269 -0.4231  0.1907
 7007TIP3    H120985   2.077   6.107   0.133  0.3852 -0.7287  1.5156
 7007TIP3    H220986   2.148   6.231   0.081 -0.8126 -0.3216  0.8009
 7008TIP3   OH220987   5.300   5.222   5.927  0.0794 -0.1101 -0.0322
 7008TIP3    H120988   5.291   5.214   5.832  0.2159  0.7583 -0.1287
 7008TIP3    H220989   5.323   5.314   5.941  0.5845 -0.3536  0.8066
 7009TIP3   OH220990   0.505   1.927   1.257 -0.6725  0.3443 -0.0746
 7009TIP3    H120991   0.503   1.920   1.162  0.6667  2.6387 -0.3397
 7009TIP3    H220992   0.567   1.860   1.285 -0.6443  0.0288 -0.8681
 7010TIP3   OH220993   6.180   6.534   1.428 -0.1535  0.2239 -0.2979
 7010TIP3    H120994   6.170   6.624   1.460  1.2486 -0.2503  1.6820
 7010TIP3    H220995   6.130   6.481   1.491 -0.9494 -0.4013 -1.4326
 7011TIP3   OH220996   4.023   1.073   2.947 -0.1662  0.2812 -0.5560
 7011TIP3    H120997   4.108   1.051   2.909  1.4961  2.5383  1.5634
 7011TIP3    H220998   3.998   0.995   2.996  0.0717 -0.8229 -2.1084
 7012TIP3   OH220999   6.973   1.379   5.356 -0.1544  0.1259 -0.0763
 7012TIP3    H121000   6.886   1.344   5.376 -0.2432  0.4846  0.1719
 7012TIP3    H221001   7.005   1.325   5.284 -0.4933 -0.1497 -0.0198
 7013TIP3   OH221002   0.443   0.961   2.451  0.1169  0.6636  0.5113
 7013TIP3    H121003   0.521   0.967   2.506  1.6479 -0.0401 -1.4666
 7013TIP3    H221004   0.372   0.945   2.512  1.7211 -0.0681  2.2848
 7014TIP3   OH221005   5.155   4.902   2.928 -0.4953  0.0902  0.5192
 7014TIP3    H121006   5.165   4.838   2.999  1.8419  1.3928  1.4831
 7014TIP3    H221007   5.232   4.959   2.936 -1.5186  1.8946 -1.4558
 7015TIP3   OH221008   5.970   1.942   3.248 -0.2424  0.3150 -0.1288
 7015TIP3    H121009   5.965   1.938   3.153  0.0068  0.6184 -0.1566
 7015TIP3    H221010   5.929   1.861   3.278 -3.3440  1.6485 -0.3927
 7016TIP3   OH221011   1.202   3.719   4.041  0.0558 -0.1142 -0.3007
 7016TIP3    H121012   1.283   3.712   3.991 -0.0853 -1.4273 -0.3899
 7016TIP3    H221013   1.228   3.760   4.124  0.5640  0.6499 -0.8312
 7017TIP3   OH221014   0.966   2.338   3.902  0.2238 -0.2210 -0.1812
 7017TIP3    H121015   0.902   2.406   3.881 -0.8340 -1.0109  0.4082
 7017TIP3    H221016   1.013   2.372   3.978  0.7806  0.5239 -0.8400
 7018TIP3   OH221017   0.794   2.944   4.722  0.7757  0.3961 -0.4289
 7018TIP3    H121018   0.732   2.899   4.779 -0.9644  1.3674 -1.4790
 7018TIP3    H221019   0.841   3.004   4.780  0.5299 -0.1442  0.3378
 7019TIP3   OH221020   7.193  -0.001   2.280  0.2693  0.6587  0.0496
 7019TIP3    H121021   7.251   0.005   2.356 -1.0475  2.9904  0.9570
 7019TIP3    H221022   7.164   0.089   2.264 -0.4523  0.0634 -2.4885
 7020TIP3   OH221023   0.843   3.474   2.671  0.0010  0.4217 -0.0585
 7020TIP3    H121024   0.932   3.496   2.696 -0.1409  1.7120 -0.5923
 7020TIP3    H221025   0.788   3.525   2.731 -0.4540 -1.6102  1.3847
 7021TIP3   OH221026   6.735   3.306   4.903 -0.5574 -0.3281  0.2307
 7021TIP3    H121027   6.666   3.255   4.861 -1.5613  1.4052 -0.3581
 7021TIP3    H221028   6.808   3.303   4.841 -0.8192 -0.5762 -0.0681
 7022TIP3   OH221029   5.479   0.904   4.239  0.2765 -0.0171 -0.5705
 7022TIP3    H121030   5.526   0.987   4.244  0.5537  0.0010 -2.5205
 7022TIP3    H221031   5.387   0.928   4.250  0.4185  0.4676 -0.4399
 7023TIP3   OH221032   2.239   3.682   0.362 -0.4400  0.0205  0.2053
 7023TIP3    H121033   2.262   3.666   0.270  0.2442  1.3368  0.1068
 7023TIP3    H221034   2.226   3.595   0.400  1.8900 -0.7245 -0.5022
 7024TIP3   OH221035   2.001   6.102   5.314 -0.2609  0.3131  0.0060
 7024TIP3    H121036   1.908   6.111   5.337  0.0691  0.7117  1.2547
 7024TIP3    H221037   2.013   6.160   5.239 -0.6737  1.5422  0.8552
 7025TIP3   OH221038   2.754   3.669   3.232  0.5772 -0.3212  0.1355
 7025TIP3    H121039   2.759   3.576   3.210  1.1830 -0.5012  0.9576
 7025TIP3    H221040   2.833   3.685   3.283  1.2600  1.0124 -1.2886
 7026TIP3   OH221041   4.309   4.580   2.616 -0.2320 -0.4354  0.2258
 7026TIP3    H121042   4.214   4.591   2.614 -0.0919  0.8876 -0.1482
 7026TIP3    H221043   4.324   4.491   2.584 -1.2999 -0.3818 -0.4616
 7027TIP3   OH221044   5.769   0.993   0.787  0.3667 -0.4271 -0.1584
 7027TIP3    H121045   5.856   0.958   0.802  0.3222  0.5117  2.9409
 7027TIP3    H221046   5.710   0.925   0.821  0.0864  0.4414  1.1516
 7028TIP3   OH221047   2.403   3.596   3.482  0.0291 -0.5591 -0.0577
 7028TIP3    H121048   2.368   3.609   3.394  1.3677  1.1712 -0.3809
 7028TIP3    H221049   2.363   3.666   3.534  1.0115 -0.1527  0.1650
 7029TIP3   OH221050   0.188   4.483   1.149  0.7932  0.2867 -0.1711
 7029TIP3    H121051   0.190   4.494   1.244  1.6922  1.1703 -0.2704
 7029TIP3    H221052   0.096   4.465   1.129  0.5419  0.3780  0.8339
 7030TIP3   OH221053   3.277   0.772   5.546  0.1822 -0.1383  0.3469
 7030TIP3    H121054   3.210   0.732   5.491  0.4436 -0.9071  0.5826
 7030TIP3    H221055   3.358   0.765   5.495  0.3942 -0.7031  0.7539
 7031TIP3   OH221056   6.349   1.077   2.950 -0.1916 -0.0675 -0.0330
 7031TIP3    H121057   6.431   1.098   2.905  0.1363  1.4036  1.1846
 7031TIP3    H221058   6.376   1.048   3.037 -0.8570 -2.1413 -0.4652
 7032TIP3   OH221059   3.330   3.354   3.170 -0.0937  0.4600  0.1202
 7032TIP3    H121060   3.298   3.276   3.125  1.9113 -0.2153 -0.2177
 7032TIP3    H221061   3.255   3.414   3.170 -2.1976 -1.9723  1.7648
 7033TIP3   OH221062   4.566   5.754   0.847  0.5090 -0.0666  1.0712
 7033TIP3    H121063   4.580   5.820   0.916 -0.6185  0.8581  0.4501
 7033TIP3    H221064   4.646   5.758   0.794  0.6886  0.3831  1.3644
 7034TIP3   OH221065   4.376   0.722   3.336  0.2490 -0.1918  0.6781
 7034TIP3    H121066   4.358   0.656   3.269 -0.8551 -1.4749  2.1715
 7034TIP3    H221067   4.327   0.693   3.412  0.2085  2.0674  1.5885
 7035TIP3   OH221068   1.397   4.932   1.262  0.3346 -0.0833 -0.0247
 7035TIP3    H121069   1.343   5.007   1.286 -0.4631  0.3291 -2.7962
 7035TIP3    H221070   1.354   4.857   1.303 -0.9906  0.5475 -0.2145
 7036TIP3   OH221071   5.384   3.868   3.555 -0.2968  0.4214  0.1027
 7036TIP3    H121072   5.374   3.923   3.478  1.3003 -0.2363 -0.6274
 7036TIP3    H221073   5.477   3.878   3.579 -0.1672 -1.2962  0.4361
 7037TIP3   OH221074   2.945   2.797   1.194 -0.0241 -0.4755  0.4317
 7037TIP3    H121075   2.957   2.822   1.103  0.0995  0.2747  0.6413
 7037TIP3    H221076   2.858   2.831   1.217 -0.2116 -0.9822  0.4931
 7038TIP3   OH221077   6.620   2.792   3.079  0.0597  0.3361 -0.4480
 7038TIP3    H121078   6.599   2.778   2.987  0.4404 -1.8000 -0.2628
 7038TIP3    H221079   6.710   2.760   3.088 -0.1905 -0.0672  0.7829
 7039TIP3   OH221080   3.859   5.837   4.207  0.0579  0.0245 -0.0369
 7039TIP3    H121081   3.831   5.774   4.140  1.5610 -1.7683  0.9056
 7039TIP3    H221082   3.947   5.862   4.180 -0.4835  1.6920 -0.3318
 7040TIP3   OH221083   6.227   1.290   2.057 -0.2482 -0.2648 -0.1453
 7040TIP3    H121084   6.148   1.325   2.098  2.0930  0.8888  3.9346
 7040TIP3    H221085   6.207   1.197   2.042 -1.9480 -0.3610  2.2069
 7041TIP3   OH221086   2.420   4.667   4.985 -0.8799 -0.2132 -0.1249
 7041TIP3    H121087   2.471   4.617   5.049  0.9316 -0.6879 -1.8627
 7041TIP3    H221088   2.443   4.758   5.001  1.0630 -0.4498 -1.2444
 7042TIP3   OH221089   5.111   6.320   1.984 -0.6736  0.4372 -0.3347
 7042TIP3    H121090   5.045   6.377   2.023 -1.6689 -0.3189 -0.8707
 7042TIP3    H221091   5.192   6.341   2.031 -1.3680  1.1187  0.5887
 7043TIP3   OH221092   1.891   4.989   0.723 -0.2655  0.1054  0.1594
 7043TIP3    H121093   1.845   5.073   0.718 -1.1972 -0.2161  2.2498
 7043TIP3    H221094   1.847   4.942   0.793  1.1435 -1.5939 -0.0286
 7044TIP3   OH221095   1.274   1.802   1.568 -1.0069 -0.3866 -0.4413
 7044TIP3    H121096   1.195   1.829   1.522 -0.9538  0.3641 -0.0968
 7044TIP3    H221097   1.346   1.830   1.511 -0.9167  1.1429  0.3781
 7045TIP3   OH221098   4.776   3.841   4.705 -0.2455  0.0975 -0.7343
 7045TIP3    H121099   4.837   3.844   4.631 -1.1421 -0.8418 -1.5603
 7045TIP3    H221100   4.771   3.932   4.736  3.0211 -0.0829  0.6576
 7046TIP3   OH221101   6.465   4.882   0.053  0.6160 -0.1740 -0.3670
 7046TIP3    H121102   6.391   4.926   0.011  0.5637  0.9707  0.8597
 7046TIP3    H221103   6.445   4.887   0.146  0.5372 -2.9829 -0.1426
 7047TIP3   OH221104   2.113   1.776   4.369 -0.0782 -0.4381  0.2379
 7047TIP3    H121105   2.072   1.835   4.306 -0.7634 -0.8169  0.3177
 7047TIP3    H221106   2.043   1.756   4.432 -0.0409 -1.7783 -0.1199
 7048TIP3   OH221107   6.233   3.037   2.325 -0.4231  0.0332  0.3599
 7048TIP3    H121108   6.188   3.094   2.388 -1.4696 -0.3844  0.0133
 7048TIP3    H221109   6.201   3.066   2.239  1.3390  0.8988 -0.0514
 7049TIP3   OH221110   5.612   4.925   1.443 -0.5478  0.1689  0.6114
 7049TIP3    H121111   5.522   4.955   1.447 -0.2438  1.1187  0.6037
 7049TIP3    H221112   5.662   5.003   1.416  0.1160 -0.6412 -0.6020
 7050TIP3   OH221113   4.456   0.627   0.082 -0.5321 -0.5739 -0.0019
 7050TIP3    H121114   4.531   0.572   0.104  0.6305  1.0603  0.2993
 7050TIP3    H221115   4.494   0.704   0.039 -2.2005 -0.5483 -1.5513
 7051TIP3   OH221116   1.684   2.297   3.618  0.6948  0.5271  0.7904
 7051TIP3    H121117   1.597   2.286   3.655  0.3351  0.5150 -0.0294
 7051TIP3    H221118   1.678   2.255   3.531  2.2350 -1.8106  1.7098
 7052TIP3   OH221119   2.242   4.158   2.794  0.4949  0.1807 -0.1189
 7052TIP3    H121120   2.248   4.105   2.715 -0.8626 -1.3216  0.7213
 7052TIP3    H221121   2.275   4.102   2.864 -1.3555  0.2189  0.8554
 7053TIP3   OH221122   2.934   5.904   3.611  0.3572  0.6541 -0.5804
 7053TIP3    H121123   2.885   5.823   3.597 -0.3086  0.7679  0.8509
 7053TIP3    H221124   2.891   5.968   3.555 -0.1613  0.3887 -0.4936
 7054TIP3   OH221125   4.290   4.859   4.191 -0.4739 -0.2292  0.0947
 7054TIP3    H121126   4.213   4.847   4.246  0.3618 -1.7284  0.9947
 7054TIP3    H221127   4.287   4.951   4.164 -1.4936  0.2460  1.7593
 7055TIP3   OH221128   5.680   2.622   4.898  0.1211 -0.1920 -0.5053
 7055TIP3    H121129   5.682   2.542   4.846 -0.5947 -0.2606 -0.4418
 7055TIP3    H221130   5.589   2.652   4.893 -0.3161 -0.9251  1.7545
 7056TIP3   OH221131   2.327   0.482   4.056  0.2935  0.1157 -0.3884
 7056TIP3    H121132   2.300   0.574   4.053  1.3557  0.4891  0.6542
 7056TIP3    H221133   2.272   0.443   4.124 -0.6533 -0.2212 -1.3145
 7057TIP3   OH221134   5.396   5.477   5.192 -0.0612 -0.6844  0.0198
 7057TIP3    H121135   5.353   5.484   5.106 -1.5814  0.1729  0.8062
 7057TIP3    H221136   5.374   5.390   5.223  0.6133 -1.0519 -0.4983
 7058TIP3   OH221137   5.894   6.088   3.033 -0.4708  0.1166 -0.0776
 7058TIP3    H121138   5.882   5.999   2.999  1.7780 -0.3666  0.2862
 7058TIP3    H221139   5.809   6.131   3.017 -0.8213 -1.3098 -2.5268
 7059TIP3   OH221140   0.604   6.136   1.255  0.0796  0.1040 -0.4138
 7059TIP3    H121141   0.604   6.154   1.349 -1.9431 -0.5971 -0.2202
 7059TIP3    H221142   0.657   6.057   1.246  0.5983  0.3921  0.0839
 7060TIP3   OH221143   4.857   3.081   0.588 -0.4726 -0.1030 -0.8999
 7060TIP3    H121144   4.826   3.160   0.633 -0.4748 -0.2591 -0.6252
 7060TIP3    H221145   4.856   3.013   0.655 -0.4125 -0.3242 -1.1208
 7061TIP3   OH221146   0.035   1.297   4.027 -0.3315  0.0405 -0.0318
 7061TIP3    H121147   0.051   1.213   4.069  2.6129  0.2943 -0.4435
 7061TIP3    H221148  -0.038   1.280   3.967 -0.8614 -1.7653  1.0431
 7062TIP3   OH221149   0.039   0.180   4.907  0.2995 -0.2618  0.1231
 7062TIP3    H121150   0.090   0.256   4.877  0.1848 -1.0187 -2.1514
 7062TIP3    H221151  -0.025   0.165   4.837 -0.7172 -1.5216  1.2701
 7063TIP3   OH221152   0.345   5.299   0.732  0.5517 -0.5219 -0.0022
 7063TIP3    H121153   0.279   5.337   0.789 -0.5407  0.0109 -1.5643
 7063TIP3    H221154   0.401   5.373   0.707  0.9477 -0.7254  0.2870
 7064TIP3   OH221155   2.784   3.053   5.495  0.2127  0.5779 -0.3391
 7064TIP3    H121156   2.800   3.009   5.411 -0.3429 -0.2119 -0.0417
 7064TIP3    H221157   2.835   3.002   5.558  0.9323  1.3985 -0.2506
 7065TIP3   OH221158   1.436   3.037   4.888 -0.2461 -0.2701  0.1696
 7065TIP3    H121159   1.437   3.090   4.808 -1.8155  0.3677  0.5466
 7065TIP3    H221160   1.445   3.100   4.959 -1.7855 -0.5221  0.6103
 7066TIP3   OH221161   1.737   6.080   5.405  0.7031 -0.1736 -0.0336
 7066TIP3    H121162   1.694   6.012   5.354 -1.2493 -0.1035  1.3826
 7066TIP3    H221163   1.691   6.161   5.380 -1.4845 -0.3503  2.8416
 7067TIP3   OH221164   3.432   2.122   4.788  0.6755 -0.2568  0.0260
 7067TIP3    H121165   3.513   2.078   4.812  0.5641  0.2191  1.3633
 7067TIP3    H221166   3.427   2.197   4.848 -0.0365  0.5403 -0.9910
 7068TIP3   OH221167   2.487   2.105   5.872  0.4589 -0.7517 -0.3890
 7068TIP3    H121168   2.465   2.024   5.919 -0.9470  0.7008  1.6423
 7068TIP3    H221169   2.427   2.107   5.798 -2.0467  0.0295  1.5218
 7069TIP3   OH221170   0.869   6.062   5.388 -0.2245  0.1742 -0.1696
 7069TIP3    H121171   0.929   6.080   5.460 -0.3555 -2.0600  0.5637
 7069TIP3    H221172   0.832   5.976   5.408 -2.4728  0.7794 -1.4256
 7070TIP3   OH221173   2.882   6.412   1.373  0.3491  0.1340 -0.0528
 7070TIP3    H121174   2.905   6.451   1.289 -1.7755 -0.1936 -0.8299
 7070TIP3    H221175   2.858   6.322   1.352 -0.8093  0.2271  0.8048
 7071TIP3   OH221176   0.061   3.929   2.935 -0.3232  0.3896  0.1806
 7071TIP3    H121177   0.030   3.839   2.931 -2.8655  1.2282 -0.9768
 7071TIP3    H221178   0.055   3.960   2.844  0.2559  1.8053  0.5976
 7072TIP3   OH221179   3.297   4.580   0.293  0.6596  0.6514  0.0110
 7072TIP3    H121180   3.287   4.671   0.320  1.0680  0.4681  0.8103
 7072TIP3    H221181   3.288   4.582   0.197  0.5122  1.5022  0.0363
 7073TIP3   OH221182   2.321   0.549   3.086 -0.3723 -0.0667 -0.4667
 7073TIP3    H121183   2.314   0.587   2.999  0.3916  0.8524 -0.1357
 7073TIP3    H221184   2.388   0.481   3.078 -1.5055 -1.1714 -0.9785
 7074TIP3   OH221185   5.367   4.250   2.342  0.1858 -0.5358 -0.0744
 7074TIP3    H121186   5.287   4.300   2.360 -0.9832 -2.0990 -0.7088
 7074TIP3    H221187   5.358   4.222   2.251  2.3087  0.6777 -0.7289
 7075TIP3   OH221188   2.073   0.713   2.696  0.1623  0.4624 -0.2466
 7075TIP3    H121189   2.030   0.782   2.746  0.0497  0.8246 -0.8393
 7075TIP3    H221190   2.166   0.728   2.709  0.2128  1.8836 -1.8668
 7076TIP3   OH221191   3.671   1.245   4.115  0.5859  0.7079  0.3918
 7076TIP3    H121192   3.606   1.235   4.045  0.4169  0.7373  0.5453
 7076TIP3    H221193   3.748   1.279   4.071  0.2110  1.5263  0.3593
 7077TIP3   OH221194   6.769   3.217   1.714  0.4234  0.4078 -0.4261
 7077TIP3    H121195   6.720   3.249   1.639  0.5425 -1.1866 -1.2203
 7077TIP3    H221196   6.750   3.280   1.784 -3.3545 -0.4790 -0.4553
 7078TIP3   OH221197   3.848   4.152   3.602  0.3631  0.7064  0.0942
 7078TIP3    H121198   3.845   4.119   3.692 -0.0189  2.1794  0.6542
 7078TIP3    H221199   3.756   4.158   3.576  0.4690  0.3743 -0.3712
 7079TIP3   OH221200   3.690   4.366   0.588 -0.6621 -0.3586  0.4737
 7079TIP3    H121201   3.760   4.419   0.550 -1.3558 -0.9447 -1.7508
 7079TIP3    H221202   3.722   4.276   0.582 -1.1838 -0.5409  0.3758
 7080TIP3   OH221203   0.258   0.739   3.620 -0.2431 -0.1410 -0.2147
 7080TIP3    H121204   0.193   0.687   3.668 -0.4640  1.1465  0.9656
 7080TIP3    H221205   0.216   0.825   3.610  1.6432  1.0799  1.5416
 7081TIP3   OH221206   5.863   1.274   2.997 -0.1102  0.5133  0.1018
 7081TIP3    H121207   5.932   1.262   3.063 -0.4546 -0.1430  0.3540
 7081TIP3    H221208   5.783   1.285   3.049 -0.7392 -2.0907 -0.1698
 7082TIP3   OH221209   0.837   0.647   0.732 -0.0670  0.3953  0.3649
 7082TIP3    H121210   0.881   0.729   0.756 -0.6297  1.2996 -1.4884
 7082TIP3    H221211   0.769   0.636   0.798  0.5977  0.9193  1.1639
 7083TIP3   OH221212   0.936   5.182   3.079  0.9003  0.6944 -0.8825
 7083TIP3    H121213   0.855   5.167   3.128  1.0667  0.3464 -0.7102
 7083TIP3    H221214   0.928   5.272   3.047  0.1701  0.4674 -1.3786
 7084TIP3   OH221215   5.682   2.741   1.849  0.2124 -0.6628  0.6360
 7084TIP3    H121216   5.746   2.780   1.909  2.3980 -1.2787 -1.1518
 7084TIP3    H221217   5.720   2.655   1.827 -1.9074 -1.6124  0.5023
 7085TIP3   OH221218   5.997   2.009   3.686 -0.1812  0.3722 -0.0605
 7085TIP3    H121219   5.944   1.959   3.624  1.2557 -0.9248 -0.3227
 7085TIP3    H221220   6.087   1.988   3.662  0.4452  1.8276  0.8975
 7086TIP3   OH221221   5.300   2.366   5.875  0.1841  0.1699  0.0435
 7086TIP3    H121222   5.374   2.358   5.814  1.0991 -0.0784  1.1441
 7086TIP3    H221223   5.222   2.361   5.820  0.9939  0.8666 -1.1990
 7087TIP3   OH221224   3.240   6.438   3.935 -0.3661  0.1546 -0.4055
 7087TIP3    H121225   3.192   6.430   4.018 -0.6185 -0.5507 -0.6102
 7087TIP3    H221226   3.197   6.375   3.877 -0.3388  0.8082 -1.1458
 7088TIP3   OH221227   5.579   2.121   2.095  0.2386  0.5539  0.2899
 7088TIP3    H121228   5.664   2.129   2.052  0.0741 -2.2863 -0.7433
 7088TIP3    H221229   5.598   2.126   2.189  1.3822  1.0428  0.0437
 7089TIP3   OH221230   4.339   1.394   2.988  0.0131  0.3162  0.1230
 7089TIP3    H121231   4.344   1.471   3.044 -0.3685  0.2485  0.2594
 7089TIP3    H221232   4.378   1.324   3.041 -1.0259  0.0860  0.6232
 7090TIP3   OH221233   0.791   3.164   5.375 -0.4366  0.1441  0.0008
 7090TIP3    H121234   0.732   3.089   5.389 -2.9033  2.2107  1.5985
 7090TIP3    H221235   0.739   3.226   5.324  0.0336  2.3396  2.0443
 7091TIP3   OH221236   6.489   4.796   1.409 -0.3022 -0.9782  0.3990
 7091TIP3    H121237   6.483   4.735   1.335 -0.8395 -1.7088  1.0274
 7091TIP3    H221238   6.582   4.798   1.431 -0.4915 -3.1158  1.6029
 7092TIP3   OH221239   7.190   4.092   4.487 -0.0295 -0.3297 -0.0416
 7092TIP3    H121240   7.215   4.078   4.396 -3.4561  0.4587 -1.2710
 7092TIP3    H221241   7.218   4.182   4.506 -1.3251  0.3657 -1.2014
 7093TIP3   OH221242   6.132   2.315   1.962 -0.3921  0.1767 -0.1076
 7093TIP3    H121243   6.160   2.348   1.876  0.4570  1.7710  0.7171
 7093TIP3    H221244   6.039   2.337   1.966 -0.2867  0.7177 -0.3745
 7094TIP3   OH221245   1.166   2.116   3.241  0.0354  0.3459 -0.3338
 7094TIP3    H121246   1.087   2.168   3.255 -0.6460 -0.7378 -0.0593
 7094TIP3    H221247   1.229   2.151   3.304 -0.1322  1.3775 -0.7191
 7095TIP3   OH221248   4.609   5.290   3.660 -0.2216  0.5136  0.0644
 7095TIP3    H121249   4.520   5.315   3.685 -0.2735  0.2938  0.1034
 7095TIP3    H221250   4.651   5.372   3.635  0.3319  1.0070  2.3530
 7096TIP3   OH221251   5.611   4.309   2.062  0.7268 -0.0593  0.0054
 7096TIP3    H121252   5.654   4.360   2.131  1.3766 -0.0821 -0.3790
 7096TIP3    H221253   5.574   4.375   2.003  0.5631 -0.0409  0.1267
 7097TIP3   OH221254   0.525   4.179   4.650  0.1148 -0.2072 -0.6089
 7097TIP3    H121255   0.594   4.113   4.654 -0.3876 -0.8251 -1.7168
 7097TIP3    H221256   0.507   4.200   4.742  0.6445 -1.2321 -0.2533
 7098TIP3   OH221257   5.786   1.260   0.467 -0.2608  0.2670  0.2117
 7098TIP3    H121258   5.836   1.178   0.468  1.0014  1.0030 -0.1342
 7098TIP3    H221259   5.705   1.240   0.514  0.2811 -1.0187  0.6265
 7099TIP3   OH221260   0.270   5.219   4.156 -0.5867  0.8746 -0.0335
 7099TIP3    H121261   0.259   5.167   4.235 -1.5305  0.2692 -0.5577
 7099TIP3    H221262   0.354   5.190   4.120 -1.3302 -0.6718 -0.5895
 7100TIP3   OH221263   3.110   5.743   5.472  0.1500  0.0388  0.2287
 7100TIP3    H121264   3.042   5.793   5.517 -0.5170 -0.8393  0.2424
 7100TIP3    H221265   3.076   5.653   5.472  1.4187 -0.4630  0.4404
 7101TIP3   OH221266   0.769   5.084   3.873  0.1683  0.2664 -0.5601
 7101TIP3    H121267   0.777   4.990   3.892 -0.3246 -0.2211 -2.5584
 7101TIP3    H221268   0.800   5.127   3.952  0.3019 -1.5847  0.4457
 7102TIP3   OH221269   2.983   5.842   5.865  0.2080 -0.0868  0.6094
 7102TIP3    H121270   2.890   5.862   5.864  0.5130  1.6045  1.5137
 7102TIP3    H221271   2.997   5.798   5.949  0.6740  2.4034  1.9109
 7103TIP3   OH221272   6.445   1.495   1.320  0.3861 -0.2810  0.1309
 7103TIP3    H121273   6.366   1.519   1.368 -0.6551 -0.6945 -1.2913
 7103TIP3    H221274   6.452   1.400   1.331  0.5480 -0.2772  0.0623
 7104TIP3   OH221275   7.009   0.945   2.344 -0.4976  0.1458  0.2287
 7104TIP3    H121276   7.064   0.943   2.266  0.3830 -1.4492  0.8538
 7104TIP3    H221277   7.054   1.003   2.405  0.7047 -1.3770  0.8465
 7105TIP3   OH221278   3.680   3.117   4.566 -0.3337 -0.2214 -0.1358
 7105TIP3    H121279   3.741   3.060   4.518  0.2363  0.7509 -0.6193
 7105TIP3    H221280   3.709   3.113   4.657 -0.9244 -1.4676  0.0107
 7106TIP3   OH221281   4.439   6.418   4.588 -0.5025 -0.6202 -1.0592
 7106TIP3    H121282   4.520   6.461   4.615 -1.0973  0.0719 -0.3442
 7106TIP3    H221283   4.406   6.472   4.517 -1.1573  0.0208 -0.2800
 7107TIP3   OH221284   3.678   2.560   1.089  0.2723  0.0637 -0.2442
 7107TIP3    H121285   3.582   2.556   1.092  0.3246 -1.2226  2.3263
 7107TIP3    H221286   3.705   2.578   1.179  2.4892 -0.7655 -0.6711
 7108TIP3   OH221287   3.671   0.598   3.818 -0.2003 -0.2058 -0.4222
 7108TIP3    H121288   3.763   0.575   3.812 -0.5314 -1.8108  0.0866
 7108TIP3    H221289   3.657   0.663   3.749  1.0377 -0.8613 -1.3200
 7109TIP3   OH221290   2.433   4.578   2.797  0.0353  0.7219 -0.0649
 7109TIP3    H121291   2.468   4.580   2.708  0.6974  1.5399  0.1973
 7109TIP3    H221292   2.511   4.580   2.854 -0.2868 -1.6904  0.5714
 7110TIP3   OH221293   3.368   0.336   1.672  0.1851 -0.4979  0.0137
 7110TIP3    H121294   3.390   0.243   1.665  0.6929 -0.2686 -2.3443
 7110TIP3    H221295   3.286   0.337   1.721  1.2325 -1.9942  1.9277
 7111TIP3   OH221296   1.898   4.128   2.262  0.4688  0.4118 -0.2168
 7111TIP3    H121297   1.886   4.157   2.172  0.2639  0.2206 -0.2518
 7111TIP3    H221298   1.858   4.041   2.265  1.5750 -0.1148 -0.2549
 7112TIP3   OH221299   3.708   3.386   4.104 -0.3324 -0.0667 -0.4574
 7112TIP3    H121300   3.661   3.362   4.024 -1.0782  1.2138 -0.4369
 7112TIP3    H221301   3.751   3.305   4.132  0.3070 -0.4581 -2.3825
 7113TIP3   OH221302   7.208   6.199   3.665 -0.3663  0.2617 -0.2969
 7113TIP3    H121303   7.189   6.192   3.572  0.1324  0.7677 -0.4424
 7113TIP3    H221304   7.231   6.110   3.692  1.3877  0.4313 -1.0860
 7114TIP3   OH221305   4.399   3.023   5.877 -0.4275  0.0546 -0.2388
 7114TIP3    H121306   4.322   2.984   5.835 -0.7880 -0.6113  0.9803
 7114TIP3    H221307   4.394   2.992   5.968  0.4555  1.2395  0.2343
 7115TIP3   OH221308   3.938   5.424   3.229  0.2670  0.9914  0.2393
 7115TIP3    H121309   4.032   5.419   3.243  0.0258 -0.7163  1.6310
 7115TIP3    H221310   3.912   5.335   3.205 -1.0845  1.2302  0.7106
 7116TIP3   OH221311   4.848   1.771   3.172  0.2358 -0.3763  0.5716
 7116TIP3    H121312   4.905   1.768   3.095  0.0688 -1.9500  0.4741
 7116TIP3    H221313   4.909   1.779   3.246  0.5725 -1.2644  0.4154
 7117TIP3   OH221314   1.347   6.391   4.482  0.2234 -0.0769 -0.3784
 7117TIP3    H121315   1.269   6.365   4.435  0.8299 -1.3840 -0.6970
 7117TIP3    H221316   1.344   6.487   4.482 -1.5619 -0.1008 -0.0382
 7118TIP3   OH221317   6.716   3.074   3.055 -0.3645  0.3298 -0.7226
 7118TIP3    H121318   6.682   2.985   3.054 -0.6383  0.4378 -1.4706
 7118TIP3    H221319   6.642   3.128   3.082 -0.5853  0.4734 -1.5728
 7119TIP3   OH221320   5.380   5.343   3.406  0.3454 -0.0392 -0.8092
 7119TIP3    H121321   5.302   5.322   3.354 -0.3132  0.8530 -0.2161
 7119TIP3    H221322   5.369   5.435   3.429  1.1219 -0.1473  0.0542
 7120TIP3   OH221323   1.618   4.940   1.582  0.2459 -0.2915 -0.1116
 7120TIP3    H121324   1.647   5.026   1.549 -0.3899  0.3360  0.9117
 7120TIP3    H221325   1.523   4.948   1.586  0.3238  0.0034  2.7040
 7121TIP3   OH221326   1.258   1.815   4.286  0.3517  0.7074  0.2524
 7121TIP3    H121327   1.241   1.797   4.194  0.1963 -1.0600  0.6033
 7121TIP3    H221328   1.172   1.809   4.328  0.8356 -1.9917  1.0308
 7122TIP3   OH221329   1.742   0.507   4.927  0.4606 -0.0532 -0.0605
 7122TIP3    H121330   1.707   0.423   4.956  2.3692  0.5485  4.8558
 7122TIP3    H221331   1.824   0.486   4.883 -0.4711 -0.7880 -1.5455
 7123TIP3   OH221332   0.661   3.576   3.781  0.6416  0.1974 -0.1555
 7123TIP3    H121333   0.744   3.623   3.793  0.3051  0.9272 -0.6223
 7123TIP3    H221334   0.674   3.493   3.828  1.5243  0.4256  0.0335
 7124TIP3   OH221335   5.583   2.942   0.100  0.0963  0.0074 -0.4279
 7124TIP3    H121336   5.674   2.961   0.077  0.1931  2.2605  1.4950
 7124TIP3    H221337   5.534   2.956   0.018  1.0828  2.1624 -0.7225
 7125TIP3   OH221338   1.280   6.690   1.038 -0.3704  0.6624 -0.3059
 7125TIP3    H121339   1.215   6.759   1.051 -1.3165  0.0045 -1.3056
 7125TIP3    H221340   1.307   6.701   0.947 -1.7297 -1.2334 -0.9954
 7126TIP3   OH221341   6.012   3.238   3.477  0.1858  0.4520  0.3145
 7126TIP3    H121342   6.020   3.156   3.526  0.9658  1.0252  1.1744
 7126TIP3    H221343   6.049   3.218   3.391 -3.2715 -1.2290 -0.9620
 7127TIP3   OH221344   5.361   2.906   2.767  0.3532  0.0577 -0.1839
 7127TIP3    H121345   5.412   2.834   2.731 -1.0279 -0.0492 -2.0851
 7127TIP3    H221346   5.391   2.983   2.719  0.3104  0.3814  0.3004
 7128TIP3   OH221347   6.898   2.571   0.313 -0.5016 -0.0647  0.1959
 7128TIP3    H121348   6.916   2.619   0.232 -2.8730 -0.2918 -0.5515
 7128TIP3    H221349   6.932   2.483   0.296  0.3835  0.2907  0.0681
 7129TIP3   OH221350   6.547   2.092   3.894  0.0701  0.7027  0.1978
 7129TIP3    H121351   6.556   2.137   3.811  0.4980  1.0838  0.4452
 7129TIP3    H221352   6.605   2.140   3.954  0.1432  0.1364  0.5897
 7130TIP3   OH221353   5.144   4.122   1.553 -0.3126 -0.0165  0.6535
 7130TIP3    H121354   5.094   4.073   1.617 -0.8418 -0.2613  0.0561
 7130TIP3    H221355   5.126   4.214   1.574 -0.4365 -0.0936  0.8877
 7131TIP3   OH221356   7.135   4.489   5.560  0.7345 -0.2259  0.2347
 7131TIP3    H121357   7.133   4.584   5.542  1.6653 -0.6150 -2.3857
 7131TIP3    H221358   7.228   4.469   5.570  0.4761 -0.7332  1.8275
 7132TIP3   OH221359   2.017   1.364   2.033 -0.3174  0.0813 -0.1834
 7132TIP3    H121360   1.966   1.319   2.101 -0.4817 -0.2796 -0.5468
 7132TIP3    H221361   2.032   1.451   2.069 -2.0456  0.5429 -0.4867
 7133TIP3   OH221362   4.785   0.308   1.852  0.2608 -0.6177  0.1885
 7133TIP3    H121363   4.748   0.263   1.776  0.0424 -1.8861  1.0183
 7133TIP3    H221364   4.720   0.296   1.921  0.2763  0.8480  0.5068
 7134TIP3   OH221365   2.691   1.456   4.218 -0.0999  0.7592  0.5054
 7134TIP3    H121366   2.746   1.514   4.165  0.3422  0.1429  0.2718
 7134TIP3    H221367   2.715   1.476   4.308  0.8190  0.2215  0.3962
 7135TIP3   OH221368   4.916   6.751   3.836  0.2910 -0.1279 -0.2262
 7135TIP3    H121369   4.920   6.684   3.904  0.8884  0.5325  0.4118
 7135TIP3    H221370   4.824   6.755   3.812  0.3530 -1.7148 -0.8455
 7136TIP3   OH221371   1.792   4.250   2.031 -0.5408  0.5047  0.7321
 7136TIP3    H121372   1.765   4.235   1.941 -1.3066 -0.3187  1.0829
 7136TIP3    H221373   1.833   4.336   2.030 -0.1658  0.3233 -0.4779
 7137TIP3   OH221374   2.301   0.674   4.391  0.3419 -0.4110 -0.5820
 7137TIP3    H121375   2.239   0.703   4.324  1.3454 -1.2340 -1.9269
 7137TIP3    H221376   2.269   0.713   4.472  0.6032  2.9842 -1.9368
 7138TIP3   OH221377   5.059   2.955   2.001  0.1293  0.5980 -0.2882
 7138TIP3    H121378   5.029   2.871   1.966 -1.8209  0.5741  1.2831
 7138TIP3    H221379   5.120   2.988   1.935  0.5421 -1.7853 -1.1927
 7139TIP3   OH221380   4.850   2.268   1.503 -0.4174  0.0291  0.2415
 7139TIP3    H121381   4.874   2.360   1.510 -0.9806  0.3849 -1.8316
 7139TIP3    H221382   4.862   2.247   1.410  0.1615 -2.1245  0.7484
 7140TIP3   OH221383   6.110   0.936   2.994 -0.3889  0.2432  0.5669
 7140TIP3    H121384   6.161   0.857   3.008 -0.1733  0.0129 -1.2365
 7140TIP3    H221385   6.174   1.007   2.991 -0.3608  0.2066  0.2056
 7141TIP3   OH221386   1.695   4.760   3.650  0.4502  0.3535  0.2082
 7141TIP3    H121387   1.676   4.804   3.732 -0.9974 -0.5494  0.3876
 7141TIP3    H221388   1.751   4.686   3.674 -0.6673 -0.4122  0.5347
 7142TIP3   OH221389   4.002   6.058   0.271 -0.2202 -0.2982  0.0341
 7142TIP3    H121390   3.996   6.154   0.274  0.2678 -0.2830  0.8222
 7142TIP3    H221391   4.088   6.038   0.307  0.9116 -0.9188 -2.7386
 7143TIP3   OH221392   4.209   1.254   4.429  0.0993  0.0931  0.2964
 7143TIP3    H121393   4.122   1.275   4.464 -0.7778 -1.1915 -1.0149
 7143TIP3    H221394   4.191   1.202   4.351  2.0306  1.2792 -1.0029
 7144TIP3   OH221395   2.577   0.345   1.384 -0.1238 -0.0146 -0.2372
 7144TIP3    H121396   2.555   0.259   1.420  0.1577  0.8502  2.2145
 7144TIP3    H221397   2.513   0.404   1.422  0.8925  1.1486 -0.2668
 7145TIP3   OH221398   5.131   5.121   3.680 -0.3060  0.6524  0.2236
 7145TIP3    H121399   5.215   5.141   3.723 -0.2429  1.6360 -0.3183
 7145TIP3    H221400   5.074   5.194   3.705 -0.0300  1.6949 -1.9598
 7146TIP3   OH221401   2.602   6.694   3.546 -0.1478  0.7068  0.0626
 7146TIP3    H121402   2.598   6.766   3.482  0.4496 -0.1089 -0.9186
 7146TIP3    H221403   2.688   6.654   3.531  0.1956  0.7768  1.7052
 7147TIP3   OH221404   4.978   1.815   2.928 -0.7543 -0.1794  0.0891
 7147TIP3    H121405   4.950   1.730   2.893 -0.0230 -0.2219 -0.4019
 7147TIP3    H221406   5.053   1.840   2.875  1.4512 -1.0133  2.5991
 7148TIP3   OH221407   0.669   0.779   2.845  1.2539 -0.1749  0.2042
 7148TIP3    H121408   0.735   0.821   2.899  1.2808 -0.7475  0.6173
 7148TIP3    H221409   0.704   0.691   2.827  0.1327 -0.8926  1.3416
 7149TIP3   OH221410   3.427   4.407   1.211 -0.4577  0.0546 -0.5379
 7149TIP3    H121411   3.426   4.323   1.257  0.2649  0.8062  0.9469
 7149TIP3    H221412   3.343   4.412   1.166 -0.3739 -1.5895 -0.9106
 7150TIP3   OH221413   3.298   0.938   1.887 -0.3354  0.0136  0.0945
 7150TIP3    H121414   3.324   0.856   1.929 -0.7618 -1.3964 -2.2290
 7150TIP3    H221415   3.314   1.005   1.953  0.5009 -1.8729  1.9013
 7151TIP3   OH221416   3.267   6.646   3.316  0.0997  0.0122  0.2566
 7151TIP3    H121417   3.269   6.673   3.408 -1.5045 -0.7890  0.5769
 7151TIP3    H221418   3.270   6.727   3.266  2.7389  0.4151  0.9081
 7152TIP3   OH221419   0.886   4.133   2.913 -0.5970 -0.5556  0.5829
 7152TIP3    H121420   0.852   4.222   2.914 -2.0761 -1.0893  0.6577
 7152TIP3    H221421   0.969   4.139   2.866 -0.1721  1.0077  1.4827
 7153TIP3   OH221422   4.696   3.840   3.198  0.0154  0.0816 -0.4016
 7153TIP3    H121423   4.607   3.809   3.210  0.2384 -0.3721  0.1247
 7153TIP3    H221424   4.688   3.936   3.195 -0.4484  0.0581 -0.0217
 7154TIP3   OH221425   5.731   3.986   3.809  0.2717  0.3869 -0.1880
 7154TIP3    H121426   5.722   4.050   3.880  0.3026  0.3661 -0.1657
 7154TIP3    H221427   5.787   4.029   3.745 -0.5600  0.8105 -0.6592
 7155TIP3   OH221428   3.396   4.617   2.652 -0.8124  0.7028  0.0018
 7155TIP3    H121429   3.369   4.677   2.582  0.2476  0.3011 -0.7649
 7155TIP3    H221430   3.424   4.538   2.607  0.6454  0.7218  0.8206
 7156TIP3   OH221431   3.230   4.824   1.153 -0.0299 -0.6127 -0.0645
 7156TIP3    H121432   3.278   4.876   1.089 -1.7201  0.1383 -0.7830
 7156TIP3    H221433   3.260   4.857   1.238  0.5473 -0.0138 -0.4898
 7157TIP3   OH221434   3.112   4.296   1.239  0.2745 -0.3543  0.4338
 7157TIP3    H121435   3.160   4.276   1.160 -0.1771 -1.1101  0.3412
 7157TIP3    H221436   3.085   4.211   1.274  0.1551 -0.0182  1.2014
 7158TIP3   OH221437   2.384   3.604   1.788  0.1954  0.2621 -0.0789
 7158TIP3    H121438   2.314   3.665   1.812 -0.2634 -0.0392 -0.6374
 7158TIP3    H221439   2.343   3.542   1.729  0.6814 -0.5460  0.4139
 7159TIP3   OH221440   6.194   2.417   2.512  0.6482  0.1196  0.7834
 7159TIP3    H121441   6.245   2.497   2.496  0.3578  0.2388  0.4392
 7159TIP3    H221442   6.184   2.377   2.426 -0.3774  0.4270  0.7463
 7160TIP3   OH221443   4.359   0.226   5.155 -0.2535  0.0100 -0.9569
 7160TIP3    H121444   4.279   0.221   5.208  0.0299 -2.2338 -0.6334
 7160TIP3    H221445   4.429   0.244   5.218 -0.2767  0.2668 -1.0020
 7161TIP3   OH221446   6.679   3.654   5.808  0.3781  0.3983  0.1121
 7161TIP3    H121447   6.640   3.575   5.845 -1.6742  1.3365  0.0674
 7161TIP3    H221448   6.653   3.654   5.716  0.1156  1.2663  0.1794
 7162TIP3   OH221449   2.709   3.614   2.922 -0.4042  0.0348  0.0420
 7162TIP3    H121450   2.729   3.684   2.860  0.4270  0.5030  0.8172
 7162TIP3    H221451   2.788   3.560   2.925 -0.5586 -0.1792  0.4444
 7163TIP3   OH221452   1.684   3.415   2.986  0.0768  0.1136  0.2513
 7163TIP3    H121453   1.746   3.451   2.922 -1.3452 -0.3703 -1.5014
 7163TIP3    H221454   1.670   3.485   3.049 -0.5960  1.6852 -1.5773
 7164TIP3   OH221455   3.778   1.240   1.739  0.0811 -0.5245  0.0764
 7164TIP3    H121456   3.836   1.164   1.744 -1.0827 -1.3915  1.3401
 7164TIP3    H221457   3.690   1.203   1.739 -0.7196  0.7626  4.6556
 7165TIP3   OH221458   0.249   0.606   2.613  1.0205 -0.4837  0.0123
 7165TIP3    H121459   0.213   0.534   2.560  0.7671  1.0019 -1.9660
 7165TIP3    H221460   0.342   0.585   2.623  0.6674 -1.7891  0.7289
 7166TIP3   OH221461   3.478   2.445   5.864  0.3493  0.5547  0.8678
 7166TIP3    H121462   3.436   2.362   5.888 -0.9727  1.7005  2.8441
 7166TIP3    H221463   3.542   2.460   5.934  1.3136  0.7470 -0.0282
 7167TIP3   OH221464   4.249   6.535   3.625  0.4090 -0.1881 -0.6270
 7167TIP3    H121465   4.286   6.447   3.634  0.0820 -0.4987 -2.0941
 7167TIP3    H221466   4.214   6.537   3.536  0.1062  1.3195 -0.4926
 7168TIP3   OH221467   1.056   4.961   3.350 -0.0633 -0.3876 -0.1929
 7168TIP3    H121468   1.068   4.893   3.416 -0.1899 -0.2193  0.0053
 7168TIP3    H221469   0.990   4.926   3.291  0.1971 -0.6234 -0.3457
 7169TIP3   OH221470   3.160   6.765   4.296  0.2104 -0.5708  0.3186
 7169TIP3    H121471   3.153   6.677   4.333 -0.6002 -0.8517 -0.4710
 7169TIP3    H221472   3.140   6.823   4.369 -2.5318 -1.1453  0.1341
 7170TIP3   OH221473   4.127   6.657   2.609 -0.0166  0.4171  0.0250
 7170TIP3    H121474   4.058   6.610   2.562  0.8435 -0.2992 -0.5446
 7170TIP3    H221475   4.176   6.704   2.541  1.2863 -0.6954  0.1586
 7171TIP3   OH221476   0.045   4.522   4.230 -0.4643 -0.1076  0.3119
 7171TIP3    H121477   0.056   4.592   4.166 -1.6923  0.3090  0.5344
 7171TIP3    H221478   0.117   4.535   4.291 -2.1779  2.7323  1.9430
 7172TIP3   OH221479   4.163   3.555   0.098 -0.3346  0.0940  0.4046
 7172TIP3    H121480   4.157   3.471   0.144  0.3915 -0.1580  0.0592
 7172TIP3    H221481   4.157   3.532   0.006  1.2721  0.2401  0.2238
 7173TIP3   OH221482   2.066   5.337   0.615 -0.0654  0.3182 -0.1381
 7173TIP3    H121483   2.056   5.432   0.624  0.5172  0.2645  1.5281
 7173TIP3    H221484   1.979   5.302   0.634 -0.0019  0.4738  0.4682
 7174TIP3   OH221485   0.451   5.984   0.430 -0.0386 -0.6568  0.1129
 7174TIP3    H121486   0.475   5.896   0.401 -2.4175 -1.2243 -0.4248
 7174TIP3    H221487   0.447   6.035   0.349 -1.3316 -0.8123  0.0516
 7175TIP3   OH221488   1.476   0.162   5.339 -0.1856 -0.6478  0.2778
 7175TIP3    H121489   1.493   0.209   5.257  3.1889 -0.0163  1.1901
 7175TIP3    H221490   1.474   0.230   5.406  2.4211 -1.4979  1.3261
 7176TIP3   OH221491   6.908   4.351   4.510 -0.6984 -0.0371 -0.4009
 7176TIP3    H121492   6.968   4.401   4.566 -0.7108  0.9196 -1.2263
 7176TIP3    H221493   6.928   4.380   4.421 -0.8504 -1.3537 -0.8962
 7177TIP3   OH221494   0.042   2.190   1.019 -0.2511 -0.1209  0.1596
 7177TIP3    H121495   0.065   2.276   0.983 -2.1913  0.2783 -0.2318
 7177TIP3    H221496   0.098   2.129   0.970  0.9579  0.8669  0.2492
 7178TIP3   OH221497   2.572   2.888   3.270 -0.3416 -0.3486  1.0503
 7178TIP3    H121498   2.594   2.795   3.260 -0.3581 -0.3844  1.3245
 7178TIP3    H221499   2.478   2.888   3.291 -0.9848 -0.1264 -1.4876
 7179TIP3   OH221500   0.409   6.176   4.740 -0.3555  0.4644 -0.4058
 7179TIP3    H121501   0.453   6.180   4.824 -0.2835  0.0298 -0.4239
 7179TIP3    H221502   0.315   6.176   4.762 -0.3432  0.8390 -0.3471
 7180TIP3   OH221503   5.942   5.611   1.699  0.3724  0.0905  0.0842
 7180TIP3    H121504   5.881   5.648   1.636 -0.6092  0.3582  1.1712
 7180TIP3    H221505   5.954   5.520   1.670  0.6784  0.4762 -1.0226
 7181TIP3   OH221506   1.507   6.241   3.907 -0.0892 -0.3278  0.2847
 7181TIP3    H121507   1.456   6.222   3.828 -0.7367  0.4677  0.4970
 7181TIP3    H221508   1.598   6.227   3.881 -0.3023 -0.1124 -0.6002
 7182TIP3   OH221509   6.389   1.600   0.081  0.0963  0.1188 -0.5274
 7182TIP3    H121510   6.407   1.640  -0.005 -0.8362 -0.1632 -0.8704
 7182TIP3    H221511   6.313   1.544   0.065 -0.4854  0.5661  0.6377
 7183TIP3   OH221512   6.031   5.639   5.793 -0.1910  0.9507 -0.5896
 7183TIP3    H121513   6.024   5.734   5.784  1.1770  1.0203 -1.1027
 7183TIP3    H221514   6.101   5.615   5.733 -1.9271 -0.6693 -2.1178
 7184TIP3   OH221515   1.557   3.596   2.446 -0.3337  0.3381 -0.1027
 7184TIP3    H121516   1.639   3.644   2.437  0.9481 -1.2682  1.9938
 7184TIP3    H221517   1.573   3.534   2.517 -2.7026 -1.4635 -0.9943
 7185TIP3   OH221518   5.237   6.772   0.651 -0.2327 -0.5919 -0.1079
 7185TIP3    H121519   5.227   6.773   0.746  2.2997  1.6108  0.2544
 7185TIP3    H221520   5.179   6.842   0.620  0.0375 -0.3171 -0.0023
 7186TIP3   OH221521   3.751   4.808   5.251  0.2078  0.7055 -0.0612
 7186TIP3    H121522   3.828   4.865   5.255  1.4056 -0.8794  2.0270
 7186TIP3    H221523   3.710   4.818   5.336  0.3896 -1.3709  0.3244
 7187TIP3   OH221524   6.226   5.495   5.324  0.1635  0.5148 -0.0939
 7187TIP3    H121525   6.313   5.533   5.312  0.2023  0.0889 -1.2503
 7187TIP3    H221526   6.189   5.543   5.398  1.4382  0.5891  0.5210
 7188TIP3   OH221527   5.343   1.969   4.754 -0.8410 -0.4371 -0.8486
 7188TIP3    H121528   5.401   1.952   4.828 -1.2905 -1.9808 -0.8204
 7188TIP3    H221529   5.354   2.063   4.736  0.3747 -0.3443  0.2212
 7189TIP3   OH221530   3.435   3.242   4.652  0.0169  0.8340  0.1425
 7189TIP3    H121531   3.496   3.190   4.600 -0.8248  0.1569 -0.1903
 7189TIP3    H221532   3.488   3.277   4.724  0.7434  0.0608 -0.0052
 7190TIP3   OH221533   1.624   2.885   1.676 -0.4079  0.0073  0.0423
 7190TIP3    H121534   1.569   2.953   1.714  0.6265  0.0632  1.5196
 7190TIP3    H221535   1.711   2.925   1.671 -0.2401 -0.4694 -1.1518
 7191TIP3   OH221536   4.884   6.546   5.453  0.2994  0.3212 -0.1366
 7191TIP3    H121537   4.897   6.626   5.403 -2.4458 -0.6243 -2.6020
 7191TIP3    H221538   4.793   6.550   5.481  0.1009 -1.9035 -0.3038
 7192TIP3   OH221539   4.672   5.541   0.582  0.4934 -0.3582  0.0714
 7192TIP3    H121540   4.732   5.471   0.558  0.0827 -2.0600  3.4354
 7192TIP3    H221541   4.729   5.615   0.603  0.9961 -0.0281 -2.1659
 7193TIP3   OH221542   4.480   2.218   4.426 -0.1934  0.5464  0.1458
 7193TIP3    H121543   4.516   2.304   4.403  3.3678 -1.0560 -0.8823
 7193TIP3    H221544   4.489   2.213   4.521  0.1334  1.0335  0.1455
 7194TIP3   OH221545   4.266   4.113   2.373 -0.0731 -0.7166  0.0281
 7194TIP3    H121546   4.323   4.041   2.400 -0.5089 -1.4929 -1.0784
 7194TIP3    H221547   4.181   4.072   2.357  0.0633 -0.2739 -2.1769
 7195TIP3   OH221548   3.359   2.962   5.249 -0.5821 -0.3036  0.5665
 7195TIP3    H121549   3.275   2.939   5.290 -1.2458 -0.4343 -0.7917
 7195TIP3    H221550   3.399   2.878   5.228  0.7936 -0.2871  2.8701
 7196TIP3   OH221551   5.646   2.528   3.069  1.2742  0.2589  0.1052
 7196TIP3    H121552   5.669   2.616   3.041 -0.7186 -0.0868 -3.1503
 7196TIP3    H221553   5.552   2.533   3.089  1.4112 -0.8615  1.1523
 7197TIP3   OH221554   1.548   1.336   4.409  0.8767 -0.4151 -0.4344
 7197TIP3    H121555   1.506   1.306   4.329  1.8467 -3.6370  0.1169
 7197TIP3    H221556   1.476   1.359   4.468  0.1438  0.6179 -1.6955
 7198TIP3   OH221557   4.290   1.197   1.040  0.3464 -0.4952  0.8291
 7198TIP3    H121558   4.289   1.284   1.001  0.3504  0.2140  2.3295
 7198TIP3    H221559   4.380   1.185   1.072  0.0825 -0.5914  1.5645
 7199TIP3   OH221560   4.104   5.560   4.915  0.1580  0.0949  0.0083
 7199TIP3    H121561   4.037   5.603   4.861 -0.0272 -1.4118 -1.0101
 7199TIP3    H221562   4.055   5.509   4.978  0.3010 -1.2634 -0.9414
 7200TIP3   OH221563   4.202   3.146   2.782  0.3077  0.4164  0.0242
 7200TIP3    H121564   4.231   3.207   2.715 -0.5201  1.6407  0.7217
 7200TIP3    H221565   4.234   3.184   2.864  2.8045 -1.9426  0.2634
 7201TIP3   OH221566   3.167   1.954   3.248 -0.2512 -0.1697 -0.1529
 7201TIP3    H121567   3.073   1.965   3.266 -0.3266  0.2716 -0.7852
 7201TIP3    H221568   3.210   2.020   3.302 -0.4399  0.8229 -1.1961
 7202TIP3   OH221569   1.023   1.577   5.056  0.1738  0.2563 -0.5586
 7202TIP3    H121570   1.060   1.635   4.989 -1.5066  1.6227 -0.3539
 7202TIP3    H221571   1.079   1.591   5.132 -0.3476  1.8216 -0.4377
 7203TIP3   OH221572   4.679   0.667   1.185  0.3007  0.1491  0.2034
 7203TIP3    H121573   4.585   0.674   1.199  0.3014  1.0291 -0.1237
 7203TIP3    H221574   4.703   0.581   1.220 -0.6189 -0.0827  0.2873
 7204TIP3   OH221575   3.458   5.072   4.249  0.4036 -0.0372  0.0314
 7204TIP3    H121576   3.439   4.980   4.265 -1.5527  0.4248  0.6461
 7204TIP3    H221577   3.417   5.091   4.165 -0.1824  0.5321  0.4390
 7205TIP3   OH221578   2.913   3.439   1.014 -0.0040  0.1669  0.2671
 7205TIP3    H121579   2.958   3.518   1.044  1.2326 -0.1935 -0.5600
 7205TIP3    H221580   2.876   3.400   1.093  1.1127  0.4940  0.9649
 7206TIP3   OH221581   5.609   4.708   2.532  0.0169  0.3377 -0.2469
 7206TIP3    H121582   5.550   4.705   2.608 -1.4017  0.3393 -1.3038
 7206TIP3    H221583   5.653   4.623   2.533 -0.1641  0.2434  0.4486
 7207TIP3   OH221584   1.908   1.606   4.101 -0.1943 -0.6092  0.2930
 7207TIP3    H121585   1.849   1.574   4.169  0.7494 -1.9488  0.5235
 7207TIP3    H221586   1.996   1.587   4.134  0.3320  0.0271 -0.6760
 7208TIP3   OH221587   5.499   1.492   0.984 -0.5297 -0.2211 -0.4356
 7208TIP3    H121588   5.492   1.565   1.045  1.0539 -0.1045 -0.3561
 7208TIP3    H221589   5.411   1.483   0.947 -1.3810  0.0732  1.4235
 7209TIP3   OH221590   5.667   5.558   0.400 -0.4548  0.0795  0.3633
 7209TIP3    H121591   5.673   5.462   0.400 -1.8829 -0.0339  1.0783
 7209TIP3    H221592   5.644   5.581   0.490 -0.7066  1.0574  0.0617
 7210TIP3   OH221593   1.113   6.379   2.600 -0.2972  0.9393 -0.2238
 7210TIP3    H121594   1.166   6.453   2.570 -2.1724  2.1212 -0.7671
 7210TIP3    H221595   1.023   6.404   2.580 -0.9423 -1.9435 -1.3440
 7211TIP3   OH221596   6.212   4.807   1.426 -0.1775  0.6243 -0.1677
 7211TIP3    H121597   6.304   4.816   1.449  0.0220  1.5161 -1.2184
 7211TIP3    H221598   6.166   4.860   1.491  0.0887  0.6057  0.0395
 7212TIP3   OH221599   6.510   4.247   4.562 -0.4999  0.1341  0.0671
 7212TIP3    H121600   6.535   4.234   4.470 -0.7614  1.4314 -0.2030
 7212TIP3    H221601   6.582   4.206   4.612  0.7612  1.3141 -0.7126
 7213TIP3   OH221602   4.497   6.514   2.288  0.2582 -0.0363 -0.1344
 7213TIP3    H121603   4.556   6.447   2.255 -0.7316 -1.1360  0.2774
 7213TIP3    H221604   4.410   6.473   2.289 -0.5683  1.5700 -0.8593
 7214TIP3   OH221605   3.067   4.380   5.579  0.1920 -0.4859 -0.1483
 7214TIP3    H121606   3.139   4.408   5.636 -0.6275 -1.2990  1.3424
 7214TIP3    H221607   3.043   4.294   5.611 -1.9234  0.0436 -0.1547
 7215TIP3   OH221608   6.097   6.453   0.655  0.1742  0.0070 -0.2233
 7215TIP3    H121609   6.015   6.501   0.668  0.1911  0.2007 -0.8265
 7215TIP3    H221610   6.129   6.482   0.570  1.3032  0.5805  0.3662
 7216TIP3   OH221611   2.467   0.204   2.017  0.3841 -0.5459  0.3191
 7216TIP3    H121612   2.407   0.278   2.029 -0.5179 -0.5481 -3.2954
 7216TIP3    H221613   2.435   0.138   2.079 -1.6409  0.4446  0.4121
 7217TIP3   OH221614   2.344   1.936   4.353  0.0424 -0.5044 -0.6148
 7217TIP3    H121615   2.331   2.029   4.334  0.8752 -0.0075  1.0322
 7217TIP3    H221616   2.284   1.891   4.294 -0.2743  1.0653 -1.5530
 7218TIP3   OH221617   3.113   4.050   0.851  0.0395 -0.2036 -0.6267
 7218TIP3    H121618   3.162   3.983   0.803 -0.1945  0.0850 -1.2829
 7218TIP3    H221619   3.180   4.101   0.895  0.1943 -1.1473  0.2596
 7219TIP3   OH221620   5.546   5.293   4.406 -0.1452  0.0530 -0.1032
 7219TIP3    H121621   5.571   5.326   4.492 -0.7439  1.1133 -0.3237
 7219TIP3    H221622   5.565   5.199   4.410 -0.3126  0.0582  1.2355
 7220TIP3   OH221623   1.640   6.435   4.390 -0.1786 -0.4807 -0.1139
 7220TIP3    H121624   1.665   6.399   4.305  0.5682  1.0792 -0.5967
 7220TIP3    H221625   1.708   6.406   4.450 -0.0455 -0.5886 -0.3157
 7221TIP3   OH221626   0.230   5.191   3.797  0.2262 -0.5957 -0.4428
 7221TIP3    H121627   0.198   5.208   3.886  3.4457 -1.2698  1.0338
 7221TIP3    H221628   0.180   5.249   3.741 -1.4128  0.4365  1.9307
 7222TIP3   OH221629   7.226   2.645   0.317  0.0976 -0.0094  0.5655
 7222TIP3    H121630   7.155   2.698   0.352 -0.7883 -1.0279  0.3513
 7222TIP3    H221631   7.235   2.674   0.226 -1.0862 -0.8881  0.1345
 7223TIP3   OH221632   1.858   1.750   2.153 -0.2825  0.1281 -0.2297
 7223TIP3    H121633   1.835   1.776   2.242 -1.0240 -0.4002 -0.2546
 7223TIP3    H221634   1.807   1.807   2.096  0.2983  0.5617 -0.3289
 7224TIP3   OH221635   4.809   6.021   4.965  0.1146 -0.3101 -0.9655
 7224TIP3    H121636   4.905   6.018   4.974  0.2870  0.5830 -2.1521
 7224TIP3    H221637   4.787   6.113   4.978 -0.5874 -0.5134 -0.7019
 7225TIP3   OH221638   1.496   5.415   2.434 -0.5075 -0.2025  0.1525
 7225TIP3    H121639   1.493   5.329   2.392  0.1841 -0.8438  1.3675
 7225TIP3    H221640   1.578   5.453   2.405 -1.3478  0.5778 -1.3247
 7226TIP3   OH221641   6.517   5.319   1.178  0.5876  0.5204  0.7386
 7226TIP3    H121642   6.539   5.298   1.088 -1.2711  0.8405  0.1662
 7226TIP3    H221643   6.515   5.414   1.181 -0.1748  0.5058  0.8893
 7227TIP3   OH221644   5.775   3.853   2.229  0.1112  0.0492  0.3911
 7227TIP3    H121645   5.752   3.923   2.168  3.6439  2.6073  1.6518
 7227TIP3    H221646   5.812   3.784   2.174  0.7541  1.1376 -0.5753
 7228TIP3   OH221647   4.373   3.200   4.112 -0.2227 -0.0587 -0.2679
 7228TIP3    H121648   4.389   3.231   4.201  1.2336 -1.8892  0.1723
 7228TIP3    H221649   4.279   3.179   4.111 -0.3988  0.5972  0.6192
 7229TIP3   OH221650   2.958   0.679   0.270  0.7836  0.0798  0.1621
 7229TIP3    H121651   2.999   0.708   0.189  0.9069  1.0673  0.5642
 7229TIP3    H221652   2.971   0.584   0.271  0.2990 -0.0174 -1.2277
 7230TIP3   OH221653   1.640   0.456   4.626 -0.1816 -0.2267  0.3899
 7230TIP3    H121654   1.588   0.457   4.546 -0.4895 -0.2149  0.5894
 7230TIP3    H221655   1.701   0.529   4.616 -0.0329 -0.3982  0.0436
 7231TIP3   OH221656   2.464   0.269   4.335  0.6006  0.4112 -0.6386
 7231TIP3    H121657   2.552   0.233   4.349  0.1529 -0.0850  1.1964
 7231TIP3    H221658   2.474   0.363   4.354  0.3952  0.0465  1.5947
 7232TIP3   OH221659   6.555   0.511   3.140 -0.0564  0.4221 -0.5576
 7232TIP3    H121660   6.541   0.432   3.087 -2.0864 -0.7265  1.5348
 7232TIP3    H221661   6.650   0.522   3.141  0.2596 -1.7802 -1.2667
 7233TIP3   OH221662   6.568   2.064   4.901 -0.2221 -0.0054  0.6289
 7233TIP3    H121663   6.512   2.057   4.978 -1.3471  1.3497 -0.0236
 7233TIP3    H221664   6.565   2.157   4.877  0.7959 -0.2470 -0.5312
 7234TIP3   OH221665   1.900   5.028   4.974  0.4806  0.0484 -0.1006
 7234TIP3    H121666   1.867   5.087   5.041  0.7156 -0.8042  0.7912
 7234TIP3    H221667   1.852   5.052   4.895  1.1639  1.9832  0.0079
 7235TIP3   OH221668   7.215   5.554   3.418 -0.2948  0.7828 -0.6952
 7235TIP3    H121669   7.146   5.494   3.389  0.7314 -0.1883 -1.2078
 7235TIP3    H221670   7.173   5.640   3.419 -1.0377  0.5259 -2.8410
 7236TIP3   OH221671   6.943   2.431   4.486  0.5128  0.2180 -0.1037
 7236TIP3    H121672   7.038   2.431   4.482  0.5037 -1.4762 -1.2591
 7236TIP3    H221673   6.919   2.339   4.493 -1.1012  0.3039 -3.0467
 7237TIP3   OH221674   2.361   6.295   5.455  0.0331  0.2317 -0.0094
 7237TIP3    H121675   2.292   6.234   5.479  1.3252 -0.9737  0.8567
 7237TIP3    H221676   2.394   6.329   5.538  1.3950 -0.3259 -0.2812
 7238TIP3   OH221677   6.976   2.728   2.287  0.1947  0.7958 -0.3782
 7238TIP3    H121678   6.911   2.707   2.354 -0.4191 -0.4990 -1.3672
 7238TIP3    H221679   7.060   2.711   2.330 -0.1868  0.1337  0.1245
 7239TIP3   OH221680  -0.033   6.054   2.483  0.0390 -0.1660 -0.5308
 7239TIP3    H121681   0.052   6.035   2.523  0.0770  0.2176 -0.4281
 7239TIP3    H221682  -0.013   6.105   2.405 -0.0696 -0.4625 -0.7524
 7240TIP3   OH221683   0.856   5.743   1.853  0.2460  0.1255 -0.7324
 7240TIP3    H121684   0.865   5.742   1.758  1.7001  0.6927 -0.6207
 7240TIP3    H221685   0.902   5.821   1.882  1.2047 -0.8648  0.5520
 7241TIP3   OH221686   3.592   1.578   2.836 -0.1312 -0.4225 -0.1752
 7241TIP3    H121687   3.658   1.619   2.779  0.1497 -1.6013 -0.7238
 7241TIP3    H221688   3.524   1.645   2.845  0.9217  0.6639  0.0516
 7242TIP3   OH221689   1.475   2.623   1.059 -0.0546 -0.1118 -0.0849
 7242TIP3    H121690   1.541   2.646   0.994  0.3015 -1.6732 -0.3124
 7242TIP3    H221691   1.395   2.612   1.007  0.0171 -0.4368 -0.1260
 7243TIP3   OH221692   3.472   4.384   2.534  0.2370  0.1094 -0.0737
 7243TIP3    H121693   3.536   4.429   2.478  2.0482 -1.1175  0.9076
 7243TIP3    H221694   3.447   4.307   2.483  0.9819 -0.3830  0.2873
 7244TIP3   OH221695   1.248   6.631   3.698  0.3530 -0.1777 -0.4809
 7244TIP3    H121696   1.331   6.645   3.742  0.0296  0.8661 -0.1857
 7244TIP3    H221697   1.211   6.718   3.687  0.5278 -0.3401 -3.0497
 7245TIP3   OH221698   4.851   6.093   3.737 -0.3969  0.6700 -0.2072
 7245TIP3    H121699   4.758   6.075   3.721 -0.6342 -0.7993  2.3227
 7245TIP3    H221700   4.891   6.087   3.650 -2.0858 -2.4878 -0.9360
 7246TIP3   OH221701   0.848   2.950   1.542 -0.2366 -0.0391 -0.1145
 7246TIP3    H121702   0.770   2.918   1.496 -1.3474 -0.7299  2.0884
 7246TIP3    H221703   0.868   2.881   1.606  0.2341  1.5212  1.5022
 7247TIP3   OH221704   3.034   2.568   1.085 -0.3608  0.0442  0.4648
 7247TIP3    H121705   3.127   2.587   1.070 -0.1735 -1.4023 -0.3828
 7247TIP3    H221706   3.001   2.644   1.133  1.1637  0.7625  0.4165
 7248TIP3   OH221707   1.140   5.558   1.956 -0.0008 -0.2230 -0.5485
 7248TIP3    H121708   1.226   5.546   1.996 -0.2961 -1.3844 -0.2498
 7248TIP3    H221709   1.090   5.608   2.020 -1.1422 -3.7657  1.6054
 7249TIP3   OH221710   1.928   5.975   3.060  0.3441 -0.3085  0.4867
 7249TIP3    H121711   1.859   5.997   2.998  0.8514  0.9564  0.3334
 7249TIP3    H221712   1.881   5.944   3.138 -0.3325 -0.8342 -0.1213
 7250TIP3   OH221713   5.979   3.727   1.458 -0.4696 -0.1592  0.7287
 7250TIP3    H121714   6.063   3.760   1.429 -0.4690 -1.4711 -0.9900
 7250TIP3    H221715   5.964   3.649   1.404 -2.3217 -0.5361  1.6775
 7251TIP3   OH221716   0.275   1.728   4.293 -0.8052 -0.5367  0.3175
 7251TIP3    H121717   0.285   1.790   4.365  1.5585  0.0292 -0.4116
 7251TIP3    H221718   0.183   1.737   4.267 -0.8675  1.7347  1.0618
 7252TIP3   OH221719   2.344   2.792   2.964 -0.1862 -0.7096  0.3444
 7252TIP3    H121720   2.433   2.805   2.930  0.0381  0.2081  1.2536
 7252TIP3    H221721   2.316   2.708   2.925 -0.1804  0.5123 -2.6045
 7253TIP3   OH221722   1.436   4.415   0.076  0.0644  0.1337  0.3016
 7253TIP3    H121723   1.379   4.407   0.153 -0.2649 -2.2240 -0.1009
 7253TIP3    H221724   1.375   4.430   0.003  0.1147 -0.3731  0.1491
 7254TIP3   OH221725   2.732   6.570   2.855  0.4229  0.4738  0.4634
 7254TIP3    H121726   2.778   6.504   2.804  1.7170  0.2438  1.8399
 7254TIP3    H221727   2.762   6.653   2.819 -0.4419  0.3509 -0.6123
 7255TIP3   OH221728   0.063   0.400   2.048 -0.2208 -0.0147 -0.3094
 7255TIP3    H121729   0.012   0.475   2.018 -0.2334 -0.6617 -2.0294
 7255TIP3    H221730   0.146   0.438   2.079 -0.8976  0.8408  0.5071
 7256TIP3   OH221731   6.402   6.309   4.327  0.1374  0.1942  0.5204
 7256TIP3    H121732   6.346   6.246   4.281 -0.1275 -0.5383  1.7847
 7256TIP3    H221733   6.427   6.264   4.408  1.3364  1.0879  0.6807
 7257TIP3   OH221734   0.455   3.498   2.147  0.1905 -0.0346 -0.6389
 7257TIP3    H121735   0.510   3.456   2.081  0.6926 -0.3656 -0.0186
 7257TIP3    H221736   0.430   3.581   2.108  1.0653  0.0793 -0.9678
 7258TIP3   OH221737   5.961   5.300   0.519 -0.2427  0.5196  0.5767
 7258TIP3    H121738   6.028   5.235   0.541 -0.1265  0.2798 -0.4274
 7258TIP3    H221739   5.895   5.291   0.588  0.8057  0.8441  1.6471
 7259TIP3   OH221740   2.063   6.590   3.090  0.2760 -0.1814  0.1962
 7259TIP3    H121741   2.028   6.548   3.011 -0.6603  0.2967  0.3429
 7259TIP3    H221742   2.100   6.672   3.059  1.7938 -0.9235 -0.0384
 7260TIP3   OH221743   3.533   5.442   1.586  0.0186 -0.6994  0.3045
 7260TIP3    H121744   3.497   5.506   1.525  1.2769 -0.1892  0.0834
 7260TIP3    H221745   3.522   5.482   1.673 -0.3127 -0.7321  0.2806
 7261TIP3   OH221746   6.209   3.865   1.414  0.3628  0.3324  0.2239
 7261TIP3    H121747   6.196   3.909   1.330  2.1093 -0.3669 -0.4696
 7261TIP3    H221748   6.240   3.934   1.473  5.4220 -0.1034 -1.4614
 7262TIP3   OH221749   6.809   0.887   3.903 -0.1645 -0.3415  0.4756
 7262TIP3    H121750   6.793   0.810   3.958  0.8050 -0.7729  0.1810
 7262TIP3    H221751   6.898   0.914   3.925  0.9032 -1.4900 -1.9730
 7263TIP3   OH221752   5.102   3.768   1.889 -0.1895  0.1517  0.0399
 7263TIP3    H121753   5.089   3.673   1.889  0.4469 -0.0291 -2.6986
 7263TIP3    H221754   5.023   3.803   1.930 -0.7244 -1.5464  0.5358
 7264TIP3   OH221755   6.026   3.555   5.665 -0.6526 -0.6614  0.0786
 7264TIP3    H121756   6.049   3.500   5.590  0.6435  1.2603 -1.0453
 7264TIP3    H221757   5.958   3.613   5.632 -2.0654 -1.5805  1.2675
 7265TIP3   OH221758   4.884   6.647   4.575  0.1835 -0.6550  0.5265
 7265TIP3    H121759   4.890   6.554   4.556 -1.0894 -0.5504 -0.4698
 7265TIP3    H221760   4.966   6.667   4.621  0.5809 -2.1960  0.5443
 7266TIP3   OH221761   6.504   5.836   4.628 -0.7179 -0.2499 -0.8346
 7266TIP3    H121762   6.531   5.754   4.668 -0.2740  0.4762  0.3903
 7266TIP3    H221763   6.540   5.832   4.539  1.4541 -0.3385 -0.0171
 7267TIP3   OH221764   1.234   5.071   0.092 -0.3057  0.4264 -0.3259
 7267TIP3    H121765   1.293   5.123   0.037 -1.1219  0.0101 -1.6514
 7267TIP3    H221766   1.268   4.982   0.087 -0.2253  0.4341  0.0693
 7268TIP3   OH221767   2.424   2.499   4.157  0.7231 -0.2098 -0.2102
 7268TIP3    H121768   2.343   2.546   4.140  0.7762  0.0950  0.3357
 7268TIP3    H221769   2.481   2.519   4.083  1.4415  2.1587  0.8788
 7269TIP3   OH221770   0.941   5.744   3.994 -0.4636 -0.0023 -0.3306
 7269TIP3    H121771   0.870   5.681   3.995  0.1365 -0.6980  1.4429
 7269TIP3    H221772   0.969   5.752   4.085 -0.6405  2.9980 -0.4254
 7270TIP3   OH221773   6.201   3.791   5.335 -0.2364  0.3989  0.2535
 7270TIP3    H121774   6.259   3.856   5.297 -0.3450  0.3101 -0.0631
 7270TIP3    H221775   6.218   3.796   5.429  0.2718  0.3798  0.1637
 7271TIP3   OH221776   1.978   4.891   4.328  0.9593 -0.0628 -0.2927
 7271TIP3    H121777   1.937   4.863   4.410  0.3603  0.9844 -0.2215
 7271TIP3    H221778   1.904   4.913   4.270  1.3772 -0.5529 -1.0331
 7272TIP3   OH221779   1.244   4.055   5.092 -0.7405 -0.2054 -0.2524
 7272TIP3    H121780   1.261   4.108   5.170 -0.2124 -2.7467  1.4680
 7272TIP3    H221781   1.162   4.009   5.112  0.6110 -2.6741 -0.1058
 7273TIP3   OH221782   5.985   2.238   2.542 -0.3056 -0.0182  0.4150
 7273TIP3    H121783   6.063   2.292   2.549 -0.0170 -0.1753 -1.2149
 7273TIP3    H221784   6.014   2.160   2.494 -1.6201  0.2995 -0.9777
 7274TIP3   OH221785   3.896   2.048   4.135  0.1455  0.0106  0.1792
 7274TIP3    H121786   3.974   2.008   4.175  0.7507  2.4415  1.6101
 7274TIP3    H221787   3.922   2.138   4.116 -1.5565  0.1732 -1.7160
 7275TIP3   OH221788   1.722   1.740   4.981 -0.4462 -0.1985 -0.0583
 7275TIP3    H121789   1.660   1.758   5.052 -0.8336 -0.8717 -0.2193
 7275TIP3    H221790   1.671   1.691   4.917 -0.0774  0.3365 -0.7709
 7276TIP3   OH221791   1.175   5.525   4.071  0.0149 -0.4374  0.0998
 7276TIP3    H121792   1.115   5.454   4.094  0.5163 -1.3505 -1.3229
 7276TIP3    H221793   1.139   5.601   4.117 -2.0411 -1.0149 -0.4380
 7277TIP3   OH221794   0.214   3.883   3.895  0.2972 -0.1074 -0.1300
 7277TIP3    H121795   0.291   3.832   3.872  0.7551  0.8799 -0.8513
 7277TIP3    H221796   0.206   3.873   3.990  1.1593 -0.4307 -0.0872
 7278TIP3   OH221797   6.261   5.089   4.782 -0.1255 -0.2739 -0.0857
 7278TIP3    H121798   6.330   5.022   4.784 -1.6985 -1.9521  2.0413
 7278TIP3    H221799   6.190   5.048   4.733 -1.1236 -0.2365  1.2855
 7279TIP3   OH221800   4.826   4.681   3.477 -0.7854 -0.0080  0.2458
 7279TIP3    H121801   4.801   4.611   3.416  1.3669  0.1244 -0.8609
 7279TIP3    H221802   4.873   4.744   3.424 -0.0935  0.8269  1.7853
 7280TIP3   OH221803   3.075   1.520   3.144 -0.4249  0.1928 -0.2468
 7280TIP3    H121804   3.002   1.468   3.111 -0.1846 -0.7815  0.6900
 7280TIP3    H221805   3.146   1.457   3.155  0.2201  0.9269 -0.1072
 7281TIP3   OH221806   5.727   3.520   4.634 -0.2959 -0.2949 -0.6641
 7281TIP3    H121807   5.688   3.436   4.609 -0.8583 -1.3073  2.9207
 7281TIP3    H221808   5.812   3.496   4.671 -0.4226  0.6907  0.3084
 7282TIP3   OH221809   4.438   5.083   1.169 -0.3248 -0.5993  0.1333
 7282TIP3    H121810   4.504   5.152   1.169  1.3070 -2.0627 -0.7967
 7282TIP3    H221811   4.356   5.128   1.151  0.8543  0.9948 -1.6910
 7283TIP3   OH221812   1.253   0.661   0.696  0.1921  0.1767 -0.4173
 7283TIP3    H121813   1.235   0.579   0.741 -3.0170  1.2203  0.5123
 7283TIP3    H221814   1.289   0.718   0.763  1.7588 -0.1943 -0.8975
 7284TIP3   OH221815   1.207   1.349   0.993  0.3848  0.7681 -0.9824
 7284TIP3    H121816   1.283   1.331   0.937 -0.1856  0.2344 -1.6097
 7284TIP3    H221817   1.244   1.372   1.078  1.2614 -1.7877 -0.5802
 7285TIP3   OH221818   5.327   6.078   0.325 -0.1347 -0.1609  0.4094
 7285TIP3    H121819   5.379   6.008   0.365  0.1578  0.4647  1.1207
 7285TIP3    H221820   5.245   6.035   0.300  0.9092 -1.3211 -1.2930
 7286TIP3   OH221821   6.083   1.280   3.162  0.0259  0.8681  0.0097
 7286TIP3    H121822   6.087   1.281   3.258  1.0450  1.2221 -0.0276
 7286TIP3    H221823   6.174   1.294   3.134 -0.4804  2.4139 -1.0056
 7287TIP3   OH221824   6.455   5.882   4.904  0.2893 -0.2696  0.2836
 7287TIP3    H121825   6.551   5.877   4.901  0.2235 -2.5171  0.2715
 7287TIP3    H221826   6.428   5.878   4.813  0.1597 -1.4892  0.3589
 7288TIP3   OH221827   6.193   2.600   3.200  0.0875 -0.0621 -0.1360
 7288TIP3    H121828   6.193   2.614   3.106  2.6351 -1.4795 -0.4615
 7288TIP3    H221829   6.285   2.609   3.225 -0.6694  1.4076  2.4348
 7289TIP3   OH221830   2.220   0.524   0.476 -0.3159  0.1997 -0.1820
 7289TIP3    H121831   2.142   0.470   0.462  0.4150 -0.8030 -0.4681
 7289TIP3    H221832   2.237   0.518   0.570  0.4220 -1.0284 -0.3734
 7290TIP3   OH221833   1.481   5.985   2.748 -0.0321 -0.0509  0.3012
 7290TIP3    H121834   1.482   5.928   2.671 -0.2566 -0.4937  0.6186
 7290TIP3    H221835   1.421   6.055   2.725  1.0567  0.6608 -0.5060
 7291TIP3   OH221836   3.919   5.082   1.292 -0.1307  0.1880 -0.0247
 7291TIP3    H121837   3.953   5.038   1.370 -1.8233 -1.0217  0.0820
 7291TIP3    H221838   3.971   5.162   1.286 -1.7535  1.8527  4.0508
 7292TIP3   OH221839   0.246   0.477   2.983 -0.7859  0.2005  0.7663
 7292TIP3    H121840   0.336   0.508   2.994 -0.5190 -0.3972  0.3063
 7292TIP3    H221841   0.203   0.498   3.066 -0.0857  0.0314  1.1795
 7293TIP3   OH221842   6.665   5.182   0.441  0.4635  0.2511 -0.3169
 7293TIP3    H121843   6.699   5.207   0.355  0.4005  0.1386 -0.3744
 7293TIP3    H221844   6.678   5.260   0.495 -1.0517  0.9153 -0.8631
 7294TIP3   OH221845   2.365   6.179   0.741 -0.3563 -0.2105  0.1204
 7294TIP3    H121846   2.364   6.131   0.824 -0.0939  0.4818  0.5420
 7294TIP3    H221847   2.299   6.248   0.752 -2.2491 -1.7098 -1.2725
 7295TIP3   OH221848   6.234   1.845   5.099 -0.0262 -0.3189  0.3347
 7295TIP3    H121849   6.181   1.900   5.042  0.5552 -0.8917 -0.7814
 7295TIP3    H221850   6.178   1.770   5.120 -0.2382 -0.1089  0.5220
 7296TIP3   OH221851   2.827   4.635   2.292  0.0513 -0.1163  0.9285
 7296TIP3    H121852   2.896   4.701   2.285 -0.3322  0.1877 -0.2892
 7296TIP3    H221853   2.873   4.553   2.308  0.5924  0.3042  1.5661
 7297TIP3   OH221854   0.674   2.879   0.535 -0.2273 -0.1526  0.7445
 7297TIP3    H121855   0.712   2.965   0.556 -0.8930 -0.3527  3.0144
 7297TIP3    H221856   0.582   2.887   0.561 -0.4714 -1.3615  0.3031
 7298TIP3   OH221857   7.208   4.962   2.009 -0.1267  0.1518  0.0401
 7298TIP3    H121858   7.163   4.923   2.085 -0.3430  0.6470  0.1740
 7298TIP3    H221859   7.201   4.897   1.940 -2.5750  0.8627 -0.4795
 7299TIP3   OH221860   4.671   3.446   3.286 -0.0785 -0.4367 -0.0272
 7299TIP3    H121861   4.677   3.361   3.331 -2.0488 -1.2534 -1.1782
 7299TIP3    H221862   4.665   3.510   3.357 -0.4467 -1.4240  0.8702
 7300TIP3   OH221863   4.388   4.111   5.402 -0.8516 -0.7626 -0.3149
 7300TIP3    H121864   4.386   4.044   5.471 -2.2147  0.9232  1.3546
 7300TIP3    H221865   4.298   4.118   5.372 -0.5810 -0.2264 -1.0319
 7301TIP3   OH221866   5.146   2.469   3.494 -0.2167 -0.1311 -0.6793
 7301TIP3    H121867   5.111   2.513   3.415  2.0207  0.4569 -1.4028
 7301TIP3    H221868   5.212   2.409   3.460  1.1826  0.5376  0.7935
 7302TIP3   OH221869   3.654   0.576   2.222 -0.5477  0.0900  0.6135
 7302TIP3    H121870   3.636   0.605   2.311 -0.5914  1.2671  0.2311
 7302TIP3    H221871   3.694   0.490   2.233 -0.7051  0.1481  1.7583
 7303TIP3   OH221872   0.582   1.796   5.823 -0.1071  0.0379 -0.0772
 7303TIP3    H121873   0.669   1.813   5.858  0.4516 -0.3635 -1.2559
 7303TIP3    H221874   0.597   1.758   5.737 -1.4563  0.4761 -0.5302
 7304TIP3   OH221875   1.010   2.489   2.816  0.0774  0.1826  0.4468
 7304TIP3    H121876   0.955   2.566   2.807  1.1566  0.8011 -1.5722
 7304TIP3    H221877   0.959   2.418   2.777  0.3145  0.5626 -0.5840
 7305TIP3   OH221878   2.444   5.793   0.883 -0.8630  0.2397  0.1485
 7305TIP3    H121879   2.439   5.872   0.937  0.4473 -0.2832  1.0602
 7305TIP3    H221880   2.355   5.783   0.849 -1.6046  0.8767  1.7834
 7306TIP3   OH221881   1.972   1.857   5.508  0.4661  0.0122 -0.4981
 7306TIP3    H121882   1.953   1.785   5.448  0.1668 -1.1205  0.9053
 7306TIP3    H221883   1.886   1.893   5.530  0.6527  1.2373 -1.6826
 7307TIP3   OH221884   4.294   6.313   1.032  0.7985  0.6977  0.1225
 7307TIP3    H121885   4.364   6.260   0.995  0.4258  0.4258 -0.2033
 7307TIP3    H221886   4.254   6.357   0.957  1.5185  1.9703  0.4521
 7308TIP3   OH221887   0.227   2.139   4.774  0.2401  0.9813  0.2785
 7308TIP3    H121888   0.157   2.113   4.834 -1.3717  0.6203 -1.6551
 7308TIP3    H221889   0.192   2.215   4.727  1.6709  1.6056  0.1675
 7309TIP3   OH221890   4.909   1.040   1.091 -0.1546  0.3570 -0.7826
 7309TIP3    H121891   4.893   1.069   1.181  0.7495 -0.3615 -0.3780
 7309TIP3    H221892   4.919   0.945   1.098 -0.2314  0.2753 -1.6710
 7310TIP3   OH221893   5.066   2.103   3.419  0.2424 -0.6403  0.0177
 7310TIP3    H121894   5.076   2.011   3.443 -0.4675 -0.3041  1.7948
 7310TIP3    H221895   5.156   2.137   3.416  0.4409 -1.0908  0.6761
 7311TIP3   OH221896   6.283   4.269   2.976 -1.1028 -0.4884  0.3575
 7311TIP3    H121897   6.330   4.228   2.903  1.1147  0.4492  1.1582
 7311TIP3    H221898   6.196   4.287   2.941 -0.2560 -0.4490 -1.9312
 7312TIP3   OH221899   5.675   4.961   5.234  0.3867  0.1087 -0.3615
 7312TIP3    H121900   5.657   4.894   5.168  1.5053 -0.0099 -0.5640
 7312TIP3    H221901   5.630   5.039   5.203 -1.5358 -0.7073  0.2333
 7313TIP3   OH221902   2.955   6.639   3.063  0.6660  0.4317 -0.1329
 7313TIP3    H121903   3.022   6.682   3.010 -0.5770  1.9091 -0.5422
 7313TIP3    H221904   2.875   6.643   3.011  0.0592 -0.6326  0.6613
 7314TIP3   OH221905   5.633   6.354   4.557 -0.4672  0.4076  0.4768
 7314TIP3    H121906   5.570   6.283   4.556  0.7465 -0.7483 -1.4196
 7314TIP3    H221907   5.610   6.406   4.633 -3.6554  0.0277 -0.0844
 7315TIP3   OH221908   6.196   2.221   5.798  0.2051  0.6639  0.4629
 7315TIP3    H121909   6.266   2.247   5.737  1.6019 -1.7410  0.9174
 7315TIP3    H221910   6.230   2.246   5.884  0.8612 -1.0702  0.7459
 7316TIP3   OH221911   0.357   5.181   5.199  0.2235 -0.1840 -0.3946
 7316TIP3    H121912   0.291   5.244   5.171 -0.2574 -0.6476 -0.3026
 7316TIP3    H221913   0.366   5.195   5.293 -0.4961 -0.8212 -0.2240
 7317TIP3   OH221914   7.057   0.329   4.270 -0.1628 -0.1616 -0.3625
 7317TIP3    H121915   7.149   0.327   4.297 -0.4171 -0.8168  0.4877
 7317TIP3    H221916   7.027   0.417   4.294 -0.7343 -1.1035  2.8442
 7318TIP3   OH221917   6.612   4.440   5.434  0.1073  0.4709 -0.3044
 7318TIP3    H121918   6.707   4.443   5.419  0.2036 -1.6276 -0.5209
 7318TIP3    H221919   6.592   4.522   5.479  2.3426  0.2215  1.3651
 7319TIP3   OH221920   4.632   1.413   0.812 -1.0754 -0.0347  0.1467
 7319TIP3    H121921   4.561   1.350   0.827 -0.9615 -0.1340  0.2628
 7319TIP3    H221922   4.588   1.487   0.770 -1.0878 -0.4894 -0.6613
 7320TIP3   OH221923   1.443   3.738   4.738 -0.2833 -0.2988 -0.3269
 7320TIP3    H121924   1.405   3.769   4.820  0.7494 -3.4119  1.5432
 7320TIP3    H221925   1.532   3.711   4.762 -0.3423 -2.4061 -2.1443
 7321TIP3   OH221926   6.910   4.137   1.776 -0.0742 -0.4822 -0.8459
 7321TIP3    H121927   6.820   4.106   1.780 -0.3915  0.3436 -1.2706
 7321TIP3    H221928   6.938   4.144   1.867 -1.3304  1.7018 -0.5677
 7322TIP3   OH221929   1.855   6.211   4.376 -0.1867 -0.4988 -0.0842
 7322TIP3    H121930   1.825   6.237   4.289 -1.5821 -1.0994  0.1925
 7322TIP3    H221931   1.816   6.125   4.391  0.8811 -0.8770  0.7334
 7323TIP3   OH221932   2.055   3.554   2.081 -0.7770  0.3424  0.1212
 7323TIP3    H121933   2.085   3.591   1.998  1.1728  1.6735  1.3354
 7323TIP3    H221934   1.965   3.526   2.064 -1.0463  2.2089 -1.9589
 7324TIP3   OH221935   0.206   1.745   5.331  0.1529 -0.0028  0.0469
 7324TIP3    H121936   0.115   1.737   5.303  0.3777  0.9514 -1.0265
 7324TIP3    H221937   0.208   1.706   5.418 -0.9122 -1.6290 -0.6081
 7325TIP3   OH221938   0.529   0.735   5.101  0.0713 -0.4956  0.0975
 7325TIP3    H121939   0.580   0.814   5.083  1.2673 -0.5959  2.6457
 7325TIP3    H221940   0.576   0.666   5.055 -0.2170  0.0382 -1.0372
 7326TIP3   OH221941   6.183   0.708   0.580  0.3650 -0.2281 -0.2605
 7326TIP3    H121942   6.199   0.700   0.486 -1.1564  1.5535 -0.7267
 7326TIP3    H221943   6.247   0.773   0.610  0.3002 -0.1712 -0.2443
 7327TIP3   OH221944   1.820   0.817   0.063 -0.3864 -0.2925 -0.0287
 7327TIP3    H121945   1.875   0.884   0.101 -0.1425 -0.2801 -0.4001
 7327TIP3    H221946   1.853   0.806  -0.026  1.3575 -2.7868  0.7945
 7328TIP3   OH221947   0.030   3.648   4.723  0.0571 -0.7818  0.4631
 7328TIP3    H121948  -0.008   3.561   4.729 -1.7618 -0.0074  0.8737
 7328TIP3    H221949   0.115   3.635   4.680 -0.1064 -2.7469  0.6717
 7329TIP3   OH221950   4.608   2.919   1.741  0.3370 -0.3053 -0.5144
 7329TIP3    H121951   4.595   2.999   1.690 -2.6844  0.2904  0.9786
 7329TIP3    H221952   4.646   2.949   1.823 -0.1252 -0.4706 -0.2347
 7330TIP3   OH221953   5.224   6.328   1.614 -0.2174  0.3310  0.4665
 7330TIP3    H121954   5.151   6.388   1.626 -1.3442 -1.1878  1.5810
 7330TIP3    H221955   5.208   6.285   1.531  0.0424  0.8032  0.1648
 7331TIP3   OH221956   6.859   6.053   1.265  0.0182 -0.0457 -0.0079
 7331TIP3    H121957   6.794   5.997   1.223 -0.1152 -0.1185  0.2953
 7331TIP3    H221958   6.856   6.134   1.215 -1.8094  0.7343  1.2717
 7332TIP3   OH221959   3.385   2.578   3.221  0.1762 -0.4218  0.5985
 7332TIP3    H121960   3.374   2.491   3.182 -3.3586 -0.9772  2.3574
 7332TIP3    H221961   3.402   2.560   3.314 -1.5801  0.6532  1.1818
 7333TIP3   OH221962   2.633   0.609   0.232  0.4139 -0.2521  0.4747
 7333TIP3    H121963   2.633   0.621   0.137  0.0167  0.9271  0.6129
 7333TIP3    H221964   2.676   0.687   0.267 -0.5599 -0.0584  1.3187
 7334TIP3   OH221965   7.172   6.520   3.990 -0.1557 -0.3392  0.0501
 7334TIP3    H121966   7.143   6.578   4.060 -1.4921 -0.8616 -0.0353
 7334TIP3    H221967   7.221   6.451   4.034 -0.8732 -0.5936  0.4722
 7335TIP3   OH221968   5.005   0.276   0.466 -0.0304  0.4434  0.2143
 7335TIP3    H121969   5.057   0.232   0.399 -0.7420 -2.1213  1.2537
 7335TIP3    H221970   4.948   0.335   0.416 -0.0056 -0.8080 -1.3957
 7336TIP3   OH221971   0.977   2.150   0.492  0.4334  0.2964 -0.9541
 7336TIP3    H121972   0.939   2.163   0.404  2.1366  1.9801 -1.5203
 7336TIP3    H221973   0.903   2.120   0.545 -1.0886  0.9416 -2.5686
 7337TIP3   OH221974   4.570   2.018   2.804 -0.4489 -0.0897  0.3777
 7337TIP3    H121975   4.633   1.946   2.797  1.6473  1.7251 -1.2104
 7337TIP3    H221976   4.575   2.045   2.896  2.0027  0.6596  0.1023
 7338TIP3   OH221977   6.530   3.411   2.391  0.1024 -0.4438 -0.6508
 7338TIP3    H121978   6.549   3.404   2.485 -0.4959 -2.7486 -0.6538
 7338TIP3    H221979   6.567   3.496   2.366 -0.0507  0.4016  1.7297
 7339TIP3   OH221980   0.816   2.384   3.206  0.3190  0.0268 -0.6761
 7339TIP3    H121981   0.797   2.303   3.160 -0.9624 -0.1767  0.1646
 7339TIP3    H221982   0.890   2.422   3.158 -0.3567 -0.6257 -2.3113
 7340TIP3   OH221983   4.897   1.356   4.126 -0.2993  0.1872 -0.4648
 7340TIP3    H121984   4.888   1.432   4.069 -0.6225  0.4154 -0.1113
 7340TIP3    H221985   4.894   1.281   4.066 -0.8059  0.4140 -0.7331
 7341TIP3   OH221986   2.210   0.471   5.057 -0.2491 -1.2154 -0.2090
 7341TIP3    H121987   2.296   0.490   5.019 -0.4345 -1.7201 -0.8907
 7341TIP3    H221988   2.196   0.542   5.120  0.7182 -1.1943  0.0026
 7342TIP3   OH221989   7.168   5.671   5.404 -0.1225 -0.3786 -0.0426
 7342TIP3    H121990   7.172   5.623   5.487  0.2786 -0.9458 -0.3828
 7342TIP3    H221991   7.076   5.663   5.377  0.2523 -2.4156 -0.9114
 7343TIP3   OH221992   3.061   2.571   1.925 -0.2614 -0.0945  0.0488
 7343TIP3    H121993   3.087   2.491   1.881 -0.1833  0.4159 -0.8557
 7343TIP3    H221994   3.079   2.641   1.862 -1.7287  0.4966  0.2291
 7344TIP3   OH221995   2.220   6.482   3.692 -0.2978 -0.0317 -0.4807
 7344TIP3    H121996   2.179   6.411   3.641 -0.4569  0.9274 -1.7569
 7344TIP3    H221997   2.224   6.556   3.630 -0.3920  1.1581  0.8797
 7345TIP3   OH221998   2.832   0.416   4.926  0.4987  0.4323 -0.5156
 7345TIP3    H121999   2.856   0.396   4.835  1.7834  0.2733 -0.1638
 7345TIP3    H222000   2.841   0.511   4.933  1.7367  0.3142 -0.2192
 7346TIP3   OH222001   5.739   0.296   1.004 -0.4628 -0.3342 -0.4565
 7346TIP3    H122002   5.815   0.259   1.048 -0.2995  0.9854  0.4126
 7346TIP3    H222003   5.712   0.228   0.942  1.4702 -0.7826 -0.8615
 7347TIP3   OH222004   6.518   4.250   5.791  0.4187 -0.2665 -0.8092
 7347TIP3    H122005   6.558   4.196   5.722 -0.5565 -0.3092 -1.3586
 7347TIP3    H222006   6.536   4.203   5.872 -0.3307 -1.3725 -1.2714
 7348TIP3   OH222007   3.770   2.673   4.538  0.3494  0.0229  0.2316
 7348TIP3    H122008   3.697   2.673   4.600  0.4381 -1.1812  0.3661
 7348TIP3    H222009   3.786   2.580   4.521  0.4266  0.3245 -1.4916
 7349TIP3   OH222010   4.940   6.589   1.833  0.3467 -0.4290  0.3072
 7349TIP3    H122011   4.870   6.626   1.887  0.2916  0.0423 -0.0712
 7349TIP3    H222012   5.012   6.572   1.894 -0.2155 -1.2361  0.7567
 7350TIP3   OH222013   1.983   4.786   3.228 -0.0405  0.1939  0.1328
 7350TIP3    H122014   1.967   4.764   3.319  1.0716 -0.1736  0.2560
 7350TIP3    H222015   1.899   4.819   3.196 -0.6106 -0.2794  1.1045
 7351TIP3   OH222016   4.694   6.477   3.587 -0.2922 -0.3383  0.2190
 7351TIP3    H122017   4.651   6.554   3.626 -0.9694 -1.5030  1.8702
 7351TIP3    H222018   4.787   6.487   3.610 -0.4025 -0.0961  0.5591
 7352TIP3   OH222019   3.502   4.108   5.286  0.6591 -0.2549 -0.1033
 7352TIP3    H122020   3.532   4.018   5.270 -0.2450 -0.2734 -1.8797
 7352TIP3    H222021   3.499   4.115   5.382 -0.7141 -2.6271  0.1002
 7353TIP3   OH222022   3.603   1.373   5.894 -0.4936  0.3065 -0.1804
 7353TIP3    H122023   3.555   1.301   5.934  0.2167 -0.8368 -1.3220
 7353TIP3    H222024   3.547   1.403   5.822 -0.7529  0.8634  0.2438
 7354TIP3   OH222025   0.315   4.437   0.248 -0.3226 -0.1281  0.3085
 7354TIP3    H122026   0.241   4.481   0.290 -0.1288  1.4716 -0.9245
 7354TIP3    H222027   0.278   4.357   0.212 -1.5513  0.7782 -0.5331
 7355TIP3   OH222028   3.508   0.933   4.102  0.1652  0.3050 -0.7439
 7355TIP3    H122029   3.515   0.841   4.076 -0.6200 -0.4490  1.5362
 7355TIP3    H222030   3.599   0.959   4.121  0.1074 -1.1128  1.9492
 7356TIP3   OH222031   2.395   3.262   4.026  0.1427  0.4906 -0.0818
 7356TIP3    H122032   2.433   3.329   3.970 -1.1858  2.3757  1.1165
 7356TIP3    H222033   2.455   3.254   4.100 -0.1673  1.1070  0.2450
 7357TIP3   OH222034   6.234   4.783   2.845  0.0802  0.4086  0.2896
 7357TIP3    H122035   6.291   4.856   2.871 -0.3793  1.3159 -1.1253
 7357TIP3    H222036   6.283   4.737   2.778 -0.7943  1.1993 -0.9455
 7358TIP3   OH222037   3.761   4.093   2.376 -0.6226 -0.1952  0.4338
 7358TIP3    H122038   3.690   4.102   2.440 -0.3960  0.1890  0.6344
 7358TIP3    H222039   3.720   4.049   2.301 -1.2296  0.5591  0.3080
 7359TIP3   OH222040   5.769   0.508   4.452 -0.7921  0.2043  0.2964
 7359TIP3    H122041   5.749   0.559   4.374 -2.0635  0.9254  1.0466
 7359TIP3    H222042   5.712   0.432   4.448 -3.4173  1.8915  2.0725
 7360TIP3   OH222043   3.140   5.360   1.307  0.4568  0.5983 -0.0320
 7360TIP3    H122044   3.087   5.297   1.258 -0.5001  0.1073  1.5589
 7360TIP3    H222045   3.159   5.430   1.244 -0.6996 -0.0195 -1.1060
 7361TIP3   OH222046   3.504   5.432   4.288  0.1898  0.0594  0.0832
 7361TIP3    H122047   3.465   5.488   4.220  0.7894  1.5759  0.9457
 7361TIP3    H222048   3.572   5.383   4.242 -0.9664 -0.7035 -0.8841
 7362TIP3   OH222049   6.275   5.679   0.561 -0.1889 -0.0521 -0.3083
 7362TIP3    H122050   6.335   5.617   0.520  1.1079  0.4784  0.7029
 7362TIP3    H222051   6.316   5.764   0.547 -1.6973  0.5508 -1.2525
 7363TIP3   OH222052   5.805   0.514   0.668 -0.4047 -0.2919 -0.7178
 7363TIP3    H122053   5.862   0.440   0.690 -1.8371 -0.5008  3.1500
 7363TIP3    H222054   5.720   0.474   0.652 -0.4987  0.3399 -1.9150
 7364TIP3   OH222055   4.280   3.377   0.984 -0.0934  0.0926  0.2357
 7364TIP3    H122056   4.235   3.358   1.066  0.4034 -0.2914  0.4286
 7364TIP3    H222057   4.226   3.335   0.917  1.4543 -2.9774  0.7394
 7365TIP3   OH222058   0.425   5.069   3.659  0.3631  0.0344 -0.1131
 7365TIP3    H122059   0.346   5.102   3.701 -0.4934 -1.3992 -0.5144
 7365TIP3    H222060   0.448   4.991   3.710  2.4104  1.2219  0.9136
 7366TIP3   OH222061   4.008   3.665   4.459  0.2766 -0.6429 -0.3971
 7366TIP3    H122062   4.061   3.667   4.379  2.3308  0.7891  0.9026
 7366TIP3    H222063   4.051   3.598   4.513 -0.6674 -1.0924 -0.1919
 7367TIP3   OH222064   6.839   5.765   2.532 -0.0793 -0.3364 -0.3138
 7367TIP3    H122065   6.899   5.835   2.506  0.7175 -0.5513  0.8686
 7367TIP3    H222066   6.765   5.774   2.472 -0.3696  2.0271  0.3003
 7368TIP3   OH222067   0.028   2.240   0.301 -0.1549 -0.3713  0.4708
 7368TIP3    H122068   0.016   2.176   0.231 -1.7034 -0.6541  0.9352
 7368TIP3    H222069  -0.027   2.314   0.275 -0.4051 -0.3073  1.1561
 7369TIP3   OH222070   3.534   3.065   0.225 -0.6211 -0.1877 -0.1924
 7369TIP3    H122071   3.461   3.110   0.268  0.9443  1.3234  0.9928
 7369TIP3    H222072   3.526   2.974   0.253 -0.9256  0.3399  1.5445
 7370TIP3   OH222073   2.552   3.585   4.199 -0.6990  0.2112 -0.5567
 7370TIP3    H122074   2.595   3.661   4.239 -1.4464  1.5786 -2.2138
 7370TIP3    H222075   2.566   3.514   4.262  0.1853  1.6567  0.9807
 7371TIP3   OH222076   4.483   1.077   5.680 -0.0065 -0.2629 -0.1296
 7371TIP3    H122077   4.451   1.016   5.747 -1.5305  2.0854  1.4305
 7371TIP3    H222078   4.414   1.079   5.614  1.1050 -1.9159 -1.4128
 7372TIP3   OH222079   4.308   5.849   4.580  0.2226  0.1249  0.2364
 7372TIP3    H122080   4.395   5.830   4.546  0.3898  0.2882  0.5651
 7372TIP3    H222081   4.277   5.764   4.614 -1.2474 -0.8378 -3.0887
 7373TIP3   OH222082   1.818   2.352   1.281  0.3582 -0.3626  0.1396
 7373TIP3    H122083   1.858   2.295   1.215 -0.5895 -0.0952 -0.6923
 7373TIP3    H222084   1.792   2.430   1.232  1.0133  0.5000  1.1383
 7374TIP3   OH222085   1.162   4.796   4.818 -0.4612  0.8490  0.9495
 7374TIP3    H122086   1.155   4.864   4.751 -0.0578 -2.1676 -2.4542
 7374TIP3    H222087   1.254   4.797   4.844  0.6092 -0.8029 -2.1628
 7375TIP3   OH222088   2.436   2.521   3.622 -0.1310  0.4616 -0.1954
 7375TIP3    H122089   2.344   2.546   3.618  0.1950  1.7244 -0.3956
 7375TIP3    H222090   2.472   2.572   3.694  0.7672  1.2753 -1.1886
 7376TIP3   OH222091   4.818   0.349   5.449  0.0646 -0.1067  0.0287
 7376TIP3    H122092   4.873   0.281   5.411 -0.6111  0.1508 -1.4441
 7376TIP3    H222093   4.879   0.408   5.493  0.7418 -1.0926  0.4304
 7377TIP3   OH222094   4.575   0.858   3.124 -0.2923  0.2372  0.0956
 7377TIP3    H122095   4.511   0.831   3.190 -1.5015  1.9020 -0.3323
 7377TIP3    H222096   4.563   0.952   3.116  1.7888  0.4966 -0.5035
 7378TIP3   OH222097   3.818   5.823   1.456 -0.1750  0.0083 -0.4586
 7378TIP3    H122098   3.837   5.734   1.428 -1.0726 -0.2587 -0.2394
 7378TIP3    H222099   3.841   5.878   1.381  0.1621 -0.4231 -0.6721
 7379TIP3   OH222100   6.817   0.927   4.672 -0.8085 -0.1453 -0.0184
 7379TIP3    H122101   6.839   0.963   4.758 -1.3328 -0.2661  0.1671
 7379TIP3    H222102   6.845   0.995   4.610 -1.0433  0.2293  0.2821
 7380TIP3   OH222103   4.620   3.636   2.564 -0.4238  0.3543  0.3825
 7380TIP3    H122104   4.534   3.600   2.542  0.2254 -0.8930 -0.2096
 7380TIP3    H222105   4.628   3.623   2.658  0.0220 -1.6557  0.1064
 7381TIP3   OH222106   0.907   1.392   2.979 -0.3058  0.6904  0.5476
 7381TIP3    H122107   0.815   1.412   2.998 -0.3402  1.1484 -0.0741
 7381TIP3    H222108   0.919   1.420   2.888 -0.2420 -1.7373 -0.2530
 7382TIP3   OH222109   2.400   1.378   4.326  0.2709 -0.1454 -0.1020
 7382TIP3    H122110   2.469   1.411   4.383  0.0364 -0.7821  0.5768
 7382TIP3    H222111   2.321   1.423   4.355  0.3821  0.5496 -0.8478
 7383TIP3   OH222112   4.210   3.910   4.267 -0.4330 -0.1352 -0.1100
 7383TIP3    H122113   4.253   3.874   4.190  1.0725 -0.6317  0.9146
 7383TIP3    H222114   4.271   3.976   4.301 -2.0569  1.7211 -0.5703
 7384TIP3   OH222115   0.607   4.935   3.002 -0.1246  0.3683 -0.3219
 7384TIP3    H122116   0.538   4.948   3.066 -0.5480  0.0401 -0.7077
 7384TIP3    H222117   0.631   4.843   3.010 -0.6149  0.1673 -1.0592
 7385TIP3   OH222118   2.395   2.449   0.107  0.6816 -0.5487 -0.3950
 7385TIP3    H122119   2.449   2.489   0.175  0.3570  0.8612 -0.9400
 7385TIP3    H222120   2.308   2.445   0.145  1.0476 -2.5067  0.3535
 7386TIP3   OH222121   0.298   2.671   0.696 -0.7888  0.4160  0.2220
 7386TIP3    H122122   0.221   2.664   0.753 -0.4356 -0.5787  0.5840
 7386TIP3    H222123   0.261   2.679   0.608 -1.3443 -1.8547  0.1808
 7387TIP3   OH222124   3.647   1.974   0.631 -0.1716 -0.0583 -0.5793
 7387TIP3    H122125   3.617   1.936   0.548  0.4738  0.8460 -1.2577
 7387TIP3    H222126   3.739   1.996   0.615  0.1453 -0.4664  0.6102
 7388TIP3   OH222127   5.126   5.707   5.033  0.3268 -0.0019 -0.3278
 7388TIP3    H122128   5.163   5.792   5.057  1.3092 -0.3302 -0.6232
 7388TIP3    H222129   5.186   5.673   4.966  0.1582 -1.0905  0.0546
 7389TIP3   OH222130   5.193   4.640   0.078  0.3091 -0.3694  0.1481
 7389TIP3    H122131   5.288   4.642   0.074  0.3475 -1.5925  0.0551
 7389TIP3    H222132   5.169   4.720   0.125  1.4160 -0.3676  0.7336
 7390TIP3   OH222133   7.127   1.508   5.880  0.1799  0.2969 -0.2687
 7390TIP3    H122134   7.215   1.470   5.876 -0.7921 -2.0488 -1.6102
 7390TIP3    H222135   7.116   1.551   5.795  0.3042  1.3347  0.2256
 7391TIP3   OH222136   0.817   4.087   0.883  0.1717 -0.3302  0.3935
 7391TIP3    H122137   0.754   4.019   0.863 -0.4935  0.0945  1.0149
 7391TIP3    H222138   0.804   4.154   0.815 -0.7122  0.1947  1.0687
 7392TIP3   OH222139   3.707   2.298   0.750  0.1138  0.2717  0.0035
 7392TIP3    H122140   3.693   2.246   0.829 -1.6896 -2.5800 -1.9842
 7392TIP3    H222141   3.625   2.344   0.736  0.1302  0.1262 -0.6077
 7393TIP3   OH222142   2.037   3.647   5.266 -0.4658 -0.1751 -0.2709
 7393TIP3    H122143   2.112   3.665   5.322  0.8003  3.4995 -2.7625
 7393TIP3    H222144   2.041   3.553   5.248  0.4475 -1.0427  3.6094
 7394TIP3   OH222145   5.933   4.202   1.233  0.0810  0.7383  0.2169
 7394TIP3    H122146   5.968   4.188   1.321 -1.0398  0.5561  0.6490
 7394TIP3    H222147   5.917   4.114   1.199  2.0728  0.7311 -0.8541
 7395TIP3   OH222148   1.542   4.478   2.927 -0.0211 -0.1629  0.6726
 7395TIP3    H122149   1.574   4.412   2.865 -0.0578 -0.1860  0.6784
 7395TIP3    H222150   1.450   4.489   2.906  0.1749  0.4869  0.1306
 7396TIP3   OH222151   1.322   4.124   4.810  0.8148  0.4087  0.1622
 7396TIP3    H122152   1.285   4.075   4.737  1.4502  0.2457 -0.0629
 7396TIP3    H222153   1.293   4.077   4.888  1.1842 -0.1760 -0.0409
 7397TIP3   OH222154   3.557   3.681   4.311  0.2739  0.1072 -0.0717
 7397TIP3    H122155   3.498   3.643   4.376  0.7118  2.9072  2.1455
 7397TIP3    H222156   3.634   3.624   4.311  0.6319  0.4848  2.6008
 7398TIP3   OH222157   1.442   1.372   0.274  0.0365  0.2846 -0.4600
 7398TIP3    H122158   1.468   1.280   0.283 -0.5237 -0.0155 -1.6905
 7398TIP3    H222159   1.515   1.414   0.228 -0.1744  0.1960 -0.8849
 7399TIP3   OH222160   2.725   4.736   1.044 -0.3293  0.1429  0.6101
 7399TIP3    H122161   2.643   4.768   1.006 -0.5708 -1.8041 -0.6705
 7399TIP3    H222162   2.794   4.774   0.990 -0.5134 -0.0191  0.2594
 7400TIP3   OH222163   2.499   3.314   2.493 -0.1743 -0.2319  0.5730
 7400TIP3    H122164   2.494   3.408   2.507 -0.2761  0.0331 -1.0998
 7400TIP3    H222165   2.571   3.302   2.431 -2.7329 -0.8102 -2.5104
 7401TIP3   OH222166   5.327   2.591   4.590 -0.7286 -0.2815  0.1403
 7401TIP3    H122167   5.398   2.560   4.646  0.6766 -0.2920 -1.5622
 7401TIP3    H222168   5.260   2.622   4.652  0.5732 -0.6257  1.8133
 7402TIP3   OH222169   2.155   2.688   3.361 -0.1006 -0.2705 -0.2272
 7402TIP3    H122170   2.172   2.635   3.284 -4.1739 -2.2160  0.0090
 7402TIP3    H222171   2.140   2.776   3.327  0.8338 -0.4850 -1.2646
 7403TIP3   OH222172   2.013   6.607   4.311  0.0885  0.0494 -0.3303
 7403TIP3    H122173   2.048   6.685   4.354  0.3856  0.9041 -2.0324
 7403TIP3    H222174   2.075   6.537   4.334 -0.3228  0.2295  1.4233
 7404TIP3   OH222175   6.295   4.619   5.831  0.5660  0.5121 -1.1265
 7404TIP3    H122176   6.257   4.620   5.743 -1.6782  0.7973 -0.2257
 7404TIP3    H222177   6.281   4.707   5.864  2.4715  0.7598 -0.8530
 7405TIP3   OH222178   3.907   4.722   5.046 -0.3805  0.6554  0.1322
 7405TIP3    H122179   3.831   4.776   5.068 -0.1881  1.2424 -0.6053
 7405TIP3    H222180   3.944   4.697   5.131  0.3528  2.8563  0.5338
 7406TIP3   OH222181   4.337   0.555   3.120 -0.2714  0.1884 -0.1641
 7406TIP3    H122182   4.296   0.488   3.176 -1.8257  1.4100  0.2164
 7406TIP3    H222183   4.362   0.507   3.041 -1.9669 -0.7619 -0.1922
 7407TIP3   OH222184   5.765   0.992   5.862  0.4689  0.5627  0.2680
 7407TIP3    H122185   5.854   1.023   5.878  0.9431 -1.3917  1.8552
 7407TIP3    H222186   5.772   0.896   5.866 -1.4490  0.3048 -1.1384
 7408TIP3   OH222187   2.082   4.802   4.082 -0.0453  0.4612 -0.5596
 7408TIP3    H122188   2.054   4.711   4.086  0.3999  0.1413 -3.1120
 7408TIP3    H222189   2.048   4.841   4.162  0.6223 -2.1429  1.1343
 7409TIP3   OH222190   0.179   5.924   4.456  0.3470 -0.0013  0.2867
 7409TIP3    H122191   0.118   5.864   4.413  0.2539  0.4830 -0.2749
 7409TIP3    H222192   0.132   6.007   4.462 -0.2861 -0.4671  2.9109
 7410TIP3   OH222193   4.061   2.113   5.558  0.5180 -0.4831  0.2706
 7410TIP3    H122194   3.973   2.151   5.552  1.0312  1.3794  2.9103
 7410TIP3    H222195   4.062   2.069   5.643  2.8186  1.6704  1.4852
 7411TIP3   OH222196   2.195   4.301   5.246  0.1001 -0.1619  0.7757
 7411TIP3    H122197   2.283   4.333   5.224  0.4095 -1.4487  0.0342
 7411TIP3    H222198   2.211   4.229   5.307 -0.5310  0.4656  1.7052
 7412TIP3   OH222199   1.780   6.097   1.321  0.0186 -0.8687 -0.7187
 7412TIP3    H122200   1.857   6.151   1.303 -1.4231  1.6488  0.1284
 7412TIP3    H222201   1.756   6.119   1.411 -0.8714 -2.7031 -0.4669
 7413TIP3   OH222202   2.553   3.594   3.900  0.3785 -0.2991  0.1849
 7413TIP3    H122203   2.648   3.601   3.892  0.2653  1.0351 -0.3844
 7413TIP3    H222204   2.537   3.577   3.992  1.1327  1.1911  0.6207
 7414TIP3   OH222205   6.275   4.988   1.912  0.2133  0.5854 -0.0419
 7414TIP3    H122206   6.351   4.934   1.893  0.0679  0.2881  0.2123
 7414TIP3    H222207   6.274   4.995   2.008 -0.5161 -0.0511  0.0038
 7415TIP3   OH222208   4.644   3.600   2.848  0.0387  0.8667  0.4422
 7415TIP3    H122209   4.574   3.541   2.819  0.5310  0.7716 -0.6247
 7415TIP3    H222210   4.682   3.557   2.924  0.0982  0.0048 -0.0588
 7416TIP3   OH222211   5.111   5.545   3.007 -0.0815  0.5559  0.1519
 7416TIP3    H122212   5.024   5.548   2.966 -0.3425 -0.8823  0.5130
 7416TIP3    H222213   5.171   5.570   2.937 -0.3277 -3.5394 -1.8689
 7417TIP3   OH222214   0.836   5.878   4.669 -0.5877 -0.5178  0.1829
 7417TIP3    H122215   0.800   5.890   4.582  0.9594 -1.6556 -0.6528
 7417TIP3    H222216   0.760   5.884   4.727 -1.5975  0.5547 -1.1865
 7418TIP3   OH222217   3.169   2.150   1.086 -0.3917  0.0376 -0.4368
 7418TIP3    H122218   3.085   2.149   1.040 -0.2773  2.7658 -0.8368
 7418TIP3    H222219   3.165   2.227   1.143  1.9525  0.4559 -0.7323
 7419TIP3   OH222220   7.018   3.803   4.792 -0.2567  0.3490  0.1590
 7419TIP3    H122221   6.992   3.886   4.753  1.4606  0.9538  0.2099
 7419TIP3    H222222   7.064   3.757   4.722 -0.2734 -0.0944  0.4359
 7420TIP3   OH222223   7.124   0.694   3.108 -0.4562  0.3510 -0.3072
 7420TIP3    H122224   7.170   0.654   3.183 -1.0811  2.4873  1.3044
 7420TIP3    H222225   7.194   0.721   3.049  0.2213  1.0036  0.7704
 7421TIP3   OH222226   5.274   1.630   3.057 -0.0323  0.5809 -0.8787
 7421TIP3    H122227   5.367   1.608   3.057 -0.2856 -0.5815 -0.2727
 7421TIP3    H222228   5.237   1.581   2.984 -0.4333 -0.2693 -0.1264
 7422TIP3   OH222229   0.040   6.242   4.127  0.2092  0.3856 -0.4340
 7422TIP3    H122230   0.055   6.160   4.081  0.0010 -0.6355  1.2543
 7422TIP3    H222231   0.125   6.264   4.166  0.3930  1.2596 -1.2709
 7423TIP3   OH222232   2.690   2.696   3.484 -0.3278 -0.4412  0.0238
 7423TIP3    H122233   2.608   2.721   3.528 -0.8394 -1.7411 -0.1587
 7423TIP3    H222234   2.662   2.649   3.406  0.6024  0.3592 -0.8182
 7424TIP3   OH222235   0.259   6.718   1.958  0.2514  0.7051  0.0226
 7424TIP3    H122236   0.279   6.734   2.051 -2.6282  0.1818  0.8290
 7424TIP3    H222237   0.202   6.790   1.933 -1.2226 -0.5822 -0.5023
 7425TIP3   OH222238   7.137   1.885   2.475 -0.1640  0.5769 -0.6363
 7425TIP3    H122239   7.044   1.896   2.458 -0.3808  0.1766  0.2316
 7425TIP3    H222240   7.168   1.829   2.404 -1.0683 -1.1326  0.2373
 7426TIP3   OH222241   7.144   2.479   2.810 -0.5001 -0.3969  0.3200
 7426TIP3    H122242   7.142   2.489   2.905  1.0416 -2.1987  0.6165
 7426TIP3    H222243   7.231   2.442   2.792 -0.6220  0.2176 -1.8358
 7427TIP3   OH222244   6.004   5.956   4.978 -0.4015 -0.0782 -0.6722
 7427TIP3    H122245   6.021   6.043   4.942  0.4966  1.0291  2.1275
 7427TIP3    H222246   6.082   5.905   4.954  1.0351  1.1610  1.0637
 7428TIP3   OH222247   5.684   2.597   5.173 -0.3627  0.1333 -0.1499
 7428TIP3    H122248   5.739   2.519   5.175 -1.5598 -0.8041 -1.4851
 7428TIP3    H222249   5.683   2.623   5.082 -0.9166  1.0333  0.1055
 7429TIP3   OH222250   2.291   5.296   0.760 -0.5592 -0.4870  0.4178
 7429TIP3    H122251   2.240   5.331   0.687  1.5160 -0.6854 -1.2119
 7429TIP3    H222252   2.245   5.216   0.786 -1.2747 -0.4661 -0.7368
 7430TIP3   OH222253   0.189   3.586   0.992 -0.0975 -0.5994 -0.0107
 7430TIP3    H122254   0.147   3.501   0.978  1.4358 -1.4839  0.5282
 7430TIP3    H222255   0.221   3.582   1.082 -1.7123  1.3531  0.7263
 7431TIP3   OH222256   3.648   0.454   3.413  0.0999  0.7886  0.2150
 7431TIP3    H122257   3.735   0.459   3.452  0.7599 -0.0345 -1.0802
 7431TIP3    H222258   3.599   0.524   3.456  1.6351  1.8170  0.4118
 7432TIP3   OH222259   3.766   4.578   3.086 -0.4402 -0.4206 -0.0187
 7432TIP3    H122260   3.682   4.563   3.043  0.6073 -1.5423 -1.8056
 7432TIP3    H222261   3.774   4.506   3.148 -1.4571  0.5712  1.3185
 7433TIP3   OH222262   5.385   2.524   3.237 -0.3892 -0.0746  0.5253
 7433TIP3    H122263   5.346   2.612   3.230 -0.1084  0.0061 -0.0603
 7433TIP3    H222264   5.310   2.465   3.243 -0.5824  0.1923  0.7927
 7434TIP3   OH222265   5.938   6.595   0.063 -0.0718  0.3906 -0.4044
 7434TIP3    H122266   5.846   6.617   0.055 -0.2446 -0.2765 -0.3177
 7434TIP3    H222267   5.958   6.543  -0.015  0.1337  0.2334 -0.2502
 7435TIP3   OH222268   5.710   3.817   0.714  0.4641 -0.0841  0.2395
 7435TIP3    H122269   5.682   3.908   0.722 -2.0233 -0.8967  1.7930
 7435TIP3    H222270   5.747   3.797   0.800  0.2536 -0.7853  0.1665
 7436TIP3   OH222271   6.942   6.686   0.648 -0.0970  0.0982  0.1104
 7436TIP3    H122272   6.919   6.724   0.563 -2.4251 -1.7746 -0.2062
 7436TIP3    H222273   6.958   6.593   0.630  0.7804 -0.0636  1.5342
 7437TIP3   OH222274   6.841   3.781   3.461  0.0114  0.0119  0.4259
 7437TIP3    H122275   6.768   3.756   3.405  0.8596 -0.0995 -0.6675
 7437TIP3    H222276   6.842   3.715   3.530 -1.0532  0.1524  0.5991
 7438TIP3   OH222277  -0.020   6.540   2.376 -0.2190 -0.3640 -0.1378
 7438TIP3    H122278  -0.016   6.470   2.311  0.2323 -0.6200  0.1619
 7438TIP3    H222279   0.058   6.528   2.429  1.6196  2.2616 -1.9725
 7439TIP3   OH222280   6.104   3.937   3.863 -0.2610  0.2839 -0.3229
 7439TIP3    H122281   6.051   4.017   3.866 -1.0286 -0.1987 -0.5700
 7439TIP3    H222282   6.193   3.968   3.848 -0.7169  1.0431 -1.7211
 7440TIP3   OH222283   0.899   0.314   0.930  0.0306  0.2684  0.0525
 7440TIP3    H122284   0.904   0.361   1.012  0.4984 -0.9803  0.7753
 7440TIP3    H222285   0.822   0.258   0.938  1.2884 -1.4834  0.5917
 7441TIP3   OH222286   4.019   6.712   3.936  0.6800  0.6051  0.8719
 7441TIP3    H122287   4.006   6.617   3.934  1.8270  0.3522  2.5229
 7441TIP3    H222288   3.952   6.747   3.878  2.4835 -1.4116 -2.8079
 7442TIP3   OH222289   2.135   5.570   0.881  0.0996 -0.1444  0.6489
 7442TIP3    H122290   2.152   5.664   0.876  0.2198 -0.1809  0.3875
 7442TIP3    H222291   2.176   5.533   0.803 -0.3570 -0.3529  0.4981
 7443TIP3   OH222292   2.020   5.306   1.886 -0.0152  0.2361 -0.7875
 7443TIP3    H122293   2.109   5.340   1.871 -0.1841  1.1009  0.0751
 7443TIP3    H222294   2.033   5.216   1.915  0.6657  0.7797  0.6619
 7444TIP3   OH222295   0.948   3.096   1.218 -0.0262  0.4412  0.9601
 7444TIP3    H122296   1.010   3.095   1.291  0.7490 -0.9074  0.3242
 7444TIP3    H222297   0.890   3.022   1.236  0.9790 -0.7311 -0.4220
 7445TIP3   OH222298   2.071   1.627   2.063 -0.3100 -0.6781 -0.3686
 7445TIP3    H122299   2.020   1.693   2.111 -1.8171 -2.9751  1.3699
 7445TIP3    H222300   2.162   1.647   2.085 -0.7761  0.3186  0.7903
 7446TIP3   OH222301   0.843   0.986   5.163  0.3544 -0.5267 -0.0911
 7446TIP3    H122302   0.762   1.036   5.173  0.8756  0.6087 -1.2795
 7446TIP3    H222303   0.913   1.052   5.163  1.2080 -1.4043 -0.0066
 7447TIP3   OH222304   3.304   3.087   0.396  0.1442  0.1762 -0.1628
 7447TIP3    H122305   3.229   3.146   0.379 -1.7555 -1.8503  0.7026
 7447TIP3    H222306   3.292   3.016   0.333  2.3453  0.5699 -1.1141
 7448TIP3   OH222307   3.666   6.358   2.458 -0.2968 -0.0103 -0.1890
 7448TIP3    H122308   3.660   6.348   2.363 -2.0107 -0.3596 -0.0636
 7448TIP3    H222309   3.609   6.289   2.493 -1.9262  1.8578  1.0115
 7449TIP3   OH222310   0.859   6.764   2.388 -0.0788  0.1992  0.0652
 7449TIP3    H122311   0.911   6.779   2.467 -1.4891  1.0651  0.8698
 7449TIP3    H222312   0.795   6.834   2.388  0.0243  0.3566 -2.0053
 7450TIP3   OH222313   3.974   4.356   2.324  0.1428  0.1514 -0.0411
 7450TIP3    H122314   4.006   4.443   2.349  3.0339 -0.5478 -0.9373
 7450TIP3    H222315   3.974   4.306   2.405 -0.4185  0.6646  0.2799
 7451TIP3   OH222316   3.788   5.186   3.188 -0.3083 -0.0961  0.9438
 7451TIP3    H122317   3.839   5.144   3.119 -1.6765 -1.4779  0.6999
 7451TIP3    H222318   3.712   5.222   3.143  0.6692  2.4911  1.2025
 7452TIP3   OH222319   3.291   5.801   3.855 -0.1045 -0.1799 -0.2461
 7452TIP3    H122320   3.244   5.719   3.844 -0.1465 -0.2434  0.3779
 7452TIP3    H222321   3.277   5.848   3.772  0.1583 -0.9120 -0.7148
 7453TIP3   OH222322   5.948   6.622   3.221 -0.4663  0.1662  0.2638
 7453TIP3    H122323   5.939   6.636   3.127  2.1269 -1.4148 -0.3226
 7453TIP3    H222324   5.940   6.709   3.259  0.3976  1.1362 -1.6301
 7454TIP3   OH222325   4.988   4.065   2.970  0.4145 -0.2518  0.4450
 7454TIP3    H122326   4.896   4.079   2.945  0.3963 -1.4747 -0.2585
 7454TIP3    H222327   4.984   4.041   3.063 -0.0407 -0.8757  0.2690
 7455TIP3   OH222328   3.442   6.284   2.110 -0.7468 -0.0957 -0.4001
 7455TIP3    H122329   3.500   6.258   2.182  0.4469  2.2882 -0.4150
 7455TIP3    H222330   3.501   6.304   2.037 -1.8717 -1.3686 -1.7112
 7456TIP3   OH222331   3.357   5.765   1.508  0.2114 -0.1045  0.0056
 7456TIP3    H122332   3.292   5.816   1.461 -0.5091 -0.5208  0.5210
 7456TIP3    H222333   3.417   5.733   1.441 -0.1749  0.2057 -0.4892
 7457TIP3   OH222334   3.679   3.800   2.546 -0.1635 -0.5607  0.2818
 7457TIP3    H122335   3.590   3.802   2.582  0.0974  1.3852  0.9336
 7457TIP3    H222336   3.670   3.833   2.457  0.0421  0.8355  0.7583
 7458TIP3   OH222337   6.952   0.800   1.365 -0.1579  0.5059  0.0328
 7458TIP3    H122338   7.009   0.876   1.352  4.0380 -2.5906 -2.0776
 7458TIP3    H222339   6.961   0.778   1.458  0.9378  0.9830  0.0525
 7459TIP3   OH222340   3.170   2.951   4.257 -0.3357 -0.0760 -0.5023
 7459TIP3    H122341   3.257   2.927   4.225 -0.1707 -0.1985  0.0221
 7459TIP3    H222342   3.158   3.041   4.228  1.0902  0.8935  1.6474
 7460TIP3   OH222343   7.134   5.942   0.450  0.4782 -0.1841  0.1802
 7460TIP3    H122344   7.191   5.865   0.451  0.4604 -0.2040  1.6445
 7460TIP3    H222345   7.175   6.003   0.512 -0.5173  0.2134  0.4640
 7461TIP3   OH222346   5.539   5.574   1.862  0.3508  0.1864  0.7204
 7461TIP3    H122347   5.505   5.598   1.776 -1.7107  0.2013  1.4959
 7461TIP3    H222348   5.558   5.658   1.904 -0.8951  0.2702  1.1342
 7462TIP3   OH222349   2.360   3.679   0.664 -0.3168 -0.1198  0.0611
 7462TIP3    H122350   2.432   3.626   0.699 -1.5980 -2.7901 -1.0764
 7462TIP3    H222351   2.382   3.691   0.572  0.0192  1.5095  0.3354
 7463TIP3   OH222352   6.593   0.492   0.974  0.3213  0.3998  0.4892
 7463TIP3    H122353   6.617   0.582   0.996  2.6910 -0.4061  1.5344
 7463TIP3    H222354   6.633   0.476   0.889  2.6876 -0.5500  1.6750
 7464TIP3   OH222355   1.469   4.382   2.093  0.2734 -0.1398 -0.2768
 7464TIP3    H122356   1.481   4.477   2.086  1.2925 -0.1355  1.0762
 7464TIP3    H222357   1.552   4.345   2.062 -0.2525 -0.6280 -1.1593
 7465TIP3   OH222358   2.609   2.795   4.055 -0.4008  0.1644 -0.2074
 7465TIP3    H122359   2.638   2.765   4.141 -0.2646  0.6522 -0.0764
 7465TIP3    H222360   2.578   2.717   4.011  0.6746 -0.3005 -0.1728
 7466TIP3   OH222361   4.226   3.937   5.626  0.2135  0.3385  0.1089
 7466TIP3    H122362   4.153   3.998   5.639  0.8918  0.8810  1.6114
 7466TIP3    H222363   4.190   3.851   5.647 -0.2438  0.4775 -0.1055
 7467TIP3   OH222364   1.890   5.162   5.357 -0.0862 -0.0926  0.4287
 7467TIP3    H122365   1.850   5.094   5.411 -0.0228 -0.7060 -0.2806
 7467TIP3    H222366   1.982   5.163   5.382 -0.2442  0.3380  1.0447
 7468TIP3   OH222367   3.854   0.117   5.852  0.4193 -0.2246 -0.0968
 7468TIP3    H122368   3.880   0.157   5.769  1.0900  0.8763  0.6123
 7468TIP3    H222369   3.761   0.139   5.862  0.5419  0.3446 -0.1771
 7469TIP3   OH222370   6.837   1.414   1.126 -0.2092 -0.0265  0.9947
 7469TIP3    H122371   6.792   1.475   1.184 -0.0236  0.9783  0.1195
 7469TIP3    H222372   6.916   1.461   1.098  1.0310 -1.4677  1.9094
 7470TIP3   OH222373   0.139   3.942   0.468  0.3664 -0.4516 -0.6001
 7470TIP3    H122374   0.204   3.975   0.407  0.2491  1.4035  0.2190
 7470TIP3    H222375   0.188   3.883   0.526  1.3487  0.8936 -0.0129
 7471TIP3   OH222376   7.017   1.137   3.023 -0.6021 -0.3459  0.3892
 7471TIP3    H122377   7.105   1.149   2.989 -0.2295  0.5670  1.6063
 7471TIP3    H222378   6.960   1.177   2.958 -0.1303 -0.9930 -0.4318
 7472TIP3   OH222379   2.838   4.644   0.725  0.2722 -0.1612 -0.4302
 7472TIP3    H122380   2.887   4.606   0.653 -2.2120 -1.3002 -1.6166
 7472TIP3    H222381   2.796   4.570   0.768  0.2878  0.6778  1.1118
 7473TIP3   OH222382   4.748   3.983   3.509  0.1982  0.2972 -0.1795
 7473TIP3    H122383   4.719   4.073   3.525  0.5840  0.6444 -1.3516
 7473TIP3    H222384   4.698   3.931   3.571 -1.2042  1.1417 -0.5512
 7474TIP3   OH222385   3.972   6.352   3.662 -0.0358  0.2490 -0.0818
 7474TIP3    H122386   4.000   6.439   3.631 -0.6965  0.3978 -0.2637
 7474TIP3    H222387   3.966   6.300   3.582  4.4956 -1.2644  0.2465
 7475TIP3   OH222388   2.154   3.546   1.486  0.4965 -0.4456  0.0088
 7475TIP3    H122389   2.242   3.584   1.487  0.1404  0.4880 -1.0925
 7475TIP3    H222390   2.124   3.559   1.396 -1.0818 -0.0026  0.5752
 7476TIP3   OH222391   6.426   6.062   5.101  0.2499 -0.2090  0.2925
 7476TIP3    H122392   6.506   6.114   5.101 -0.0289  0.2334 -0.6855
 7476TIP3    H222393   6.434   6.005   5.025 -0.2336 -0.3643  0.3542
 7477TIP3   OH222394   6.448   2.611   2.204 -0.1576  0.7929 -0.0702
 7477TIP3    H122395   6.397   2.531   2.205  0.5873  0.3042 -0.5628
 7477TIP3    H222396   6.393   2.675   2.158 -0.8545  0.6504  0.5418
 7478TIP3   OH222397   5.096   0.677   4.322  0.4042 -0.1044 -0.4249
 7478TIP3    H122398   5.035   0.751   4.326  0.3976 -0.1585  1.7013
 7478TIP3    H222399   5.170   0.705   4.375  0.2664 -1.7036  0.6922
 7479TIP3   OH222400   3.969   4.681   3.646  0.2949  0.7386  0.1546
 7479TIP3    H122401   3.950   4.587   3.642 -0.6905  0.8181  2.1297
 7479TIP3    H222402   4.048   4.691   3.592 -0.2638 -0.9982 -1.0864
 7480TIP3   OH222403   1.667   3.422   1.056 -0.3856 -0.1836  0.5202
 7480TIP3    H122404   1.641   3.340   1.015  0.1511 -0.5645  0.9191
 7480TIP3    H222405   1.737   3.455   1.000  1.2223 -1.3315  1.7428
 7481TIP3   OH222406   0.419   3.976   5.468  0.8709  0.2005 -0.4261
 7481TIP3    H122407   0.487   4.043   5.477  1.0987 -0.0306 -0.4141
 7481TIP3    H222408   0.426   3.946   5.378 -0.1832  1.2004 -0.8741
 7482TIP3   OH222409   1.012   0.810   1.138 -0.3655 -0.3884  0.3669
 7482TIP3    H122410   1.070   0.874   1.179  0.0140  0.7703 -1.8220
 7482TIP3    H222411   1.058   0.726   1.147  0.6756  0.1773  0.4662
 7483TIP3   OH222412   3.278   2.701   3.781  0.4044  0.0956  0.1159
 7483TIP3    H122413   3.297   2.666   3.694 -1.3106 -0.2385 -0.1701
 7483TIP3    H222414   3.302   2.793   3.776 -1.0863  0.4642 -1.2455
 7484TIP3   OH222415   4.385   1.387   1.784 -0.2192  0.1654  0.2440
 7484TIP3    H122416   4.331   1.322   1.739  0.5243 -0.0391 -0.3897
 7484TIP3    H222417   4.323   1.441   1.832 -1.2159  1.1500 -1.9831
 7485TIP3   OH222418   0.755   4.868   4.946 -0.3914  0.4855  0.4362
 7485TIP3    H122419   0.803   4.790   4.918 -1.1879  0.1433  0.0160
 7485TIP3    H222420   0.679   4.872   4.888 -0.2101  1.7446  0.2496
 7486TIP3   OH222421   0.973   5.001   4.415 -0.2631 -0.8034 -0.7963
 7486TIP3    H122422   0.912   5.056   4.464  1.6603  0.5087  0.2628
 7486TIP3    H222423   0.959   5.026   4.323 -0.8370  0.0032 -0.5006
 7487TIP3   OH222424   2.357   5.576   2.372 -0.3015 -0.1785  0.1703
 7487TIP3    H122425   2.441   5.533   2.384 -0.0147  0.4707  0.5301
 7487TIP3    H222426   2.368   5.628   2.292 -0.8155 -1.1456 -0.5619
 7488TIP3   OH222427   2.377   3.201   1.883  0.4333  0.4401  0.4660
 7488TIP3    H122428   2.339   3.236   1.964  0.2846  0.4664  0.3854
 7488TIP3    H222429   2.342   3.258   1.814  0.0909  0.0581  0.3173
 7489TIP3   OH222430   3.256   5.935   5.875  0.0809 -0.2054  0.3250
 7489TIP3    H122431   3.295   5.848   5.864  0.8316  0.1614 -0.0144
 7489TIP3    H222432   3.162   5.919   5.878  0.1958 -1.0045 -0.0644
 7490TIP3   OH222433   5.233   1.565   3.520  0.0065 -0.0850  0.1434
 7490TIP3    H122434   5.277   1.502   3.463  0.3029 -1.2597  1.6063
 7490TIP3    H222435   5.291   1.574   3.596  0.3100  2.5096 -0.2870
 7491TIP3   OH222436   1.266   5.996   4.087 -0.0583 -0.1202 -0.6519
 7491TIP3    H122437   1.228   6.017   4.172 -0.7831 -2.1883 -0.4189
 7491TIP3    H222438   1.221   6.055   4.026 -1.0559 -0.0565  0.1139
 7492TIP3   OH222439   6.015   1.706   5.413  0.9440  0.3249 -0.1244
 7492TIP3    H122440   5.921   1.714   5.426  0.5828 -1.1396 -1.5245
 7492TIP3    H222441   6.025   1.657   5.332  2.9729  3.7480 -2.2039
 7493TIP3   OH222442   0.576   1.487   4.206  0.0873 -0.1770  0.0380
 7493TIP3    H122443   0.602   1.403   4.167 -0.3478 -0.2396 -0.1210
 7493TIP3    H222444   0.486   1.501   4.175 -1.1251 -1.2718  2.6993
 7494TIP3   OH222445   2.140   5.927   0.279  0.4938 -0.4960 -0.3877
 7494TIP3    H122446   2.168   5.988   0.210  0.0469 -0.1316 -0.2540
 7494TIP3    H222447   2.064   5.970   0.319  0.2641 -1.0800 -0.1940
 7495TIP3   OH222448   5.190   4.426   5.315  0.3665 -0.4122 -0.4923
 7495TIP3    H122449   5.148   4.346   5.283  0.8086 -0.6445 -0.4855
 7495TIP3    H222450   5.187   4.419   5.410  0.0103 -0.2113 -0.4842
 7496TIP3   OH222451   0.852   0.776   5.341 -0.0824  0.4915  0.7910
 7496TIP3    H122452   0.921   0.838   5.319  0.6618 -0.4147  0.5006
 7496TIP3    H222453   0.803   0.764   5.259  1.7643 -1.7288 -0.0970
 7497TIP3   OH222454   2.587   2.910   0.855  0.3325 -0.1718 -0.2009
 7497TIP3    H122455   2.521   2.844   0.873  1.1143 -1.3165 -1.3991
 7497TIP3    H222456   2.537   2.990   0.840 -0.8113 -1.0698 -1.3299
 7498TIP3   OH222457   4.653   2.238   1.999 -0.6262  0.0279  0.8312
 7498TIP3    H122458   4.684   2.252   2.089  1.1344  2.8397 -0.0795
 7498TIP3    H222459   4.583   2.301   1.987  1.0756  1.7867 -0.5463
 7499TIP3   OH222460   3.014   6.105   3.233  0.3014 -0.2674 -0.5764
 7499TIP3    H122461   3.069   6.030   3.211  0.4586 -1.0009  1.9248
 7499TIP3    H222462   3.024   6.165   3.159 -1.4190 -3.4557 -3.6970
 7500TIP3   OH222463   6.495   4.504   0.321  0.1833  0.3992 -0.0137
 7500TIP3    H122464   6.541   4.439   0.268  0.7275  1.7240 -1.1989
 7500TIP3    H222465   6.518   4.481   0.411 -1.8026 -2.6934 -0.1533
 7501TIP3   OH222466   0.837   5.880   2.610 -0.2117 -0.6282 -0.7785
 7501TIP3    H122467   0.776   5.826   2.661  0.0676  1.0673  1.4990
 7501TIP3    H222468   0.915   5.886   2.665  0.1899  1.1231 -1.4843
 7502TIP3   OH222469   4.826   3.684   1.012 -0.1900 -0.0198 -0.1296
 7502TIP3    H122470   4.769   3.626   1.063  0.7694  0.4098  1.5190
 7502TIP3    H222471   4.829   3.765   1.063  1.5025  0.1174 -0.4066
 7503TIP3   OH222472   1.768   4.365   3.479 -0.0283  0.2457 -0.2678
 7503TIP3    H122473   1.701   4.320   3.428 -0.7864  1.3468 -0.2677
 7503TIP3    H222474   1.755   4.335   3.568 -0.5036  0.4189 -0.2751
 7504TIP3   OH222475   6.963   5.438   3.340  0.7315 -0.4054 -0.3894
 7504TIP3    H122476   6.925   5.363   3.384  0.3104  0.6066  1.0366
 7504TIP3    H222477   6.956   5.417   3.247  0.6102 -2.0999 -0.0221
 7505TIP3   OH222478   0.162   2.181   4.191  0.1363  0.0347  0.1526
 7505TIP3    H122479   0.244   2.203   4.235  1.1733 -3.0937 -0.0304
 7505TIP3    H222480   0.188   2.125   4.118 -2.0659  0.2191 -0.8559
 7506TIP3   OH222481   5.767   6.437   5.681 -0.2269  0.5079  0.1889
 7506TIP3    H122482   5.723   6.418   5.598 -0.7610  1.7034  0.1713
 7506TIP3    H222483   5.794   6.529   5.673  0.4485  0.3910  1.0146
 7507TIP3   OH222484   4.121   5.935   5.213  0.5185 -0.5722  0.5549
 7507TIP3    H122485   4.111   6.030   5.208  0.0560 -0.5783  1.1581
 7507TIP3    H222486   4.143   5.908   5.124 -0.2774  0.0008  0.1680
 7508TIP3   OH222487   1.870   3.513   1.253  0.1222  0.3589 -0.4459
 7508TIP3    H122488   1.791   3.523   1.200 -0.0214  2.4156  0.0726
 7508TIP3    H222489   1.875   3.594   1.304  1.6560 -0.4544  0.7821
 7509TIP3   OH222490   6.051   1.946   0.593  0.3676 -0.0563 -0.4747
 7509TIP3    H122491   6.012   1.919   0.676  1.3797 -1.3635 -0.4009
 7509TIP3    H222492   6.144   1.927   0.602  0.4553 -0.4933 -2.0028
 7510TIP3   OH222493   1.973   1.745   3.870  0.4116 -1.3121  0.0079
 7510TIP3    H122494   2.015   1.825   3.900 -0.1410 -0.7734 -0.6358
 7510TIP3    H222495   1.951   1.698   3.950  1.6288 -1.3024  0.3745
 7511TIP3   OH222496   4.587   6.713   2.776  0.6353  0.2389 -0.2760
 7511TIP3    H122497   4.572   6.807   2.762  1.2964  0.4750  0.5657
 7511TIP3    H222498   4.585   6.676   2.687 -1.4708  0.7414 -0.5026
 7512TIP3   OH222499   3.888   2.461   3.293  0.2142  0.4388 -0.2448
 7512TIP3    H122500   3.874   2.537   3.235  1.7517 -0.0234 -1.2768
 7512TIP3    H222501   3.800   2.438   3.323 -0.2093  3.3803  1.0978
 7513TIP3   OH222502   4.382   5.791   5.761  0.0213  0.2212 -0.6434
 7513TIP3    H122503   4.357   5.740   5.838  0.8781  1.0926  0.2358
 7513TIP3    H222504   4.447   5.853   5.793  1.6272 -0.4549 -2.3840
 7514TIP3   OH222505   1.728   5.424   0.032  0.5455 -0.2015  0.3536
 7514TIP3    H122506   1.710   5.413  -0.061  0.2004 -0.5610  0.4579
 7514TIP3    H222507   1.823   5.414   0.040  0.7108  0.8672 -0.0937
 7515TIP3   OH222508   4.609   4.832   1.237 -0.3751 -0.2059  1.1517
 7515TIP3    H122509   4.664   4.892   1.288  1.3290 -1.5402  0.9910
 7515TIP3    H222510   4.549   4.889   1.189  1.9867  1.5191  0.0078
 7516TIP3   OH222511   6.368   4.396   4.325 -0.1306  0.0037 -0.1321
 7516TIP3    H122512   6.460   4.418   4.311  0.0425 -0.9267 -0.5309
 7516TIP3    H222513   6.348   4.433   4.412  0.1734  1.5207 -0.6768
 7517TIP3   OH222514   2.451   0.065   0.363  0.0430 -0.1283  0.3125
 7517TIP3    H122515   2.413   0.151   0.347 -1.0992 -0.4204  1.3516
 7517TIP3    H222516   2.512   0.052   0.290  1.0248  1.9862  0.6658
 7518TIP3   OH222517   2.568   3.469   5.051 -0.6494 -0.5756  0.7564
 7518TIP3    H122518   2.530   3.541   4.999  0.4933 -0.0340  0.6329
 7518TIP3    H222519   2.505   3.398   5.043 -1.0825 -0.0908 -0.3847
 7519TIP3   OH222520   5.189   6.680   2.006  0.2973 -0.1018  0.2824
 7519TIP3    H122521   5.174   6.756   2.061  0.3615  0.4402 -0.4319
 7519TIP3    H222522   5.266   6.703   1.954 -0.6056 -0.0101 -1.0467
 7520TIP3   OH222523   1.729   6.037   2.905  0.2156  0.3857  0.1742
 7520TIP3    H122524   1.665   5.984   2.858  1.3300  0.7798 -1.9223
 7520TIP3    H222525   1.676   6.102   2.953 -0.9802  0.6560 -1.4353
 7521TIP3   OH222526   7.048   5.544   2.520 -0.4295  0.1830 -0.0124
 7521TIP3    H122527   6.995   5.472   2.553 -1.4748  0.6951 -0.5343
 7521TIP3    H222528   6.990   5.620   2.520  1.0261  1.3720  1.7873
 7522TIP3   OH222529   5.799   2.876   3.403  0.1648  0.4700  0.3440
 7522TIP3    H122530   5.787   2.783   3.389  0.4378  0.5209 -0.2281
 7522TIP3    H222531   5.724   2.902   3.456 -0.3295  0.0785 -0.1585
 7523TIP3   OH222532   1.302   4.601   4.598 -0.2198  0.0597  0.2447
 7523TIP3    H122533   1.274   4.596   4.690 -1.7820 -2.0257 -0.2502
 7523TIP3    H222534   1.246   4.669   4.561  1.0680  1.5813  0.9946
 7524TIP3   OH222535   2.706   2.440   3.058  0.2845 -0.1274  0.1208
 7524TIP3    H122536   2.772   2.493   3.013  0.8840 -0.6484  0.3750
 7524TIP3    H222537   2.667   2.388   2.988  0.2825  0.0327 -0.0005
 7525TIP3   OH222538   0.977   5.375   1.178 -0.2441 -0.0602  0.7569
 7525TIP3    H122539   0.976   5.309   1.247  2.0975 -0.1666  0.7821
 7525TIP3    H222540   0.994   5.326   1.097 -2.1140  0.1592  0.1765
 7526TIP3   OH222541   3.290   6.392   0.796  0.4800 -0.4191  0.3622
 7526TIP3    H122542   3.386   6.403   0.796  0.4991 -0.2949 -1.2674
 7526TIP3    H222543   3.268   6.375   0.705 -1.0210 -0.9518  0.7905
 7527TIP3   OH222544   2.232   6.233   4.483  0.1998  0.1827 -0.4355
 7527TIP3    H122545   2.231   6.298   4.412  2.2784 -0.1026 -0.7813
 7527TIP3    H222546   2.249   6.149   4.439  0.1379 -0.2080  0.2618
 7528TIP3   OH222547   5.393   2.618   1.413 -0.0222  0.7444 -0.3453
 7528TIP3    H122548   5.357   2.690   1.362  0.4482  0.7769 -0.6445
 7528TIP3    H222549   5.327   2.549   1.408 -1.0446  1.5755  0.9750
 7529TIP3   OH222550   0.327   0.195   4.088 -0.1311 -0.0411  0.4037
 7529TIP3    H122551   0.355   0.249   4.163  0.8759  1.1439 -0.7819
 7529TIP3    H222552   0.285   0.119   4.128  3.3576 -1.1497  2.3080
 7530TIP3   OH222553   6.712   0.794   1.883 -0.4146 -0.7158  0.0762
 7530TIP3    H122554   6.722   0.862   1.817 -0.1389 -1.6060 -0.8244
 7530TIP3    H222555   6.781   0.811   1.947  0.0607 -0.5255 -0.4829
 7531TIP3   OH222556   2.225   5.391   1.077  0.0415  0.6578 -0.4592
 7531TIP3    H122557   2.221   5.422   0.986 -0.2493  0.6756 -0.4400
 7531TIP3    H222558   2.136   5.361   1.096  0.1533  0.4610 -0.2478
 7532TIP3   OH222559   4.252   5.678   3.185  0.0858  0.1361 -0.1395
 7532TIP3    H122560   4.173   5.732   3.184  0.1615  0.2459 -0.2456
 7532TIP3    H222561   4.298   5.702   3.105 -1.4215 -2.3357 -1.9194
 7533TIP3   OH222562   0.087   5.274   1.966  0.2287 -0.0396 -1.0552
 7533TIP3    H122563   0.109   5.195   1.918  2.6091  0.7079 -1.3528
 7533TIP3    H222564   0.025   5.321   1.909  0.7365 -0.5305 -2.0342
 7534TIP3   OH222565   6.778   5.978   3.176 -0.4109  0.0868  0.1452
 7534TIP3    H122566   6.851   6.037   3.158 -1.1046  0.5584 -1.3232
 7534TIP3    H222567   6.767   5.929   3.094 -1.3999 -0.3379  0.5196
 7535TIP3   OH222568   2.265   4.140   5.695 -0.1444 -0.3476 -0.2644
 7535TIP3    H122569   2.194   4.166   5.752 -0.3548 -0.5466 -0.4302
 7535TIP3    H222570   2.335   4.111   5.754 -0.7735 -1.6301 -0.1113
 7536TIP3   OH222571   5.568   3.661   2.202  0.2235  0.0446 -0.0258
 7536TIP3    H122572   5.510   3.677   2.128  0.8061 -1.0509 -0.7449
 7536TIP3    H222573   5.651   3.634   2.163  1.0820  1.0974  0.9917
 7537TIP3   OH222574   0.294   4.205   5.245 -0.7929  0.1006  0.5997
 7537TIP3    H122575   0.293   4.288   5.199 -0.1433 -1.0017 -1.5453
 7537TIP3    H222576   0.274   4.227   5.336 -0.1158  2.6261  0.1986
 7538TIP3   OH222577   1.340   4.832   0.043 -0.4437  0.2452 -0.3920
 7538TIP3    H122578   1.267   4.773   0.023 -0.2921  0.5327 -1.8670
 7538TIP3    H222579   1.410   4.773   0.073 -0.7025 -0.2133 -0.6707
 7539TIP3   OH222580   6.541   2.752   1.470  0.2294 -0.2801 -0.2754
 7539TIP3    H122581   6.469   2.768   1.532 -0.3592 -1.8601 -0.5085
 7539TIP3    H222582   6.591   2.834   1.470 -0.2735  0.0831  1.5976
 7540TIP3   OH222583   4.872   0.106   2.210  0.2174  0.4903 -0.0904
 7540TIP3    H122584   4.852   0.070   2.124 -1.2311  2.0264 -0.4398
 7540TIP3    H222585   4.797   0.163   2.231  1.2087  1.2777  1.5399
 7541TIP3   OH222586   3.123   6.084   4.209 -0.7139  0.1230 -0.0027
 7541TIP3    H122587   3.101   6.176   4.201  0.0987  0.3426  0.1420
 7541TIP3    H222588   3.146   6.056   4.120  2.5718  1.0323  0.4306
 7542TIP3   OH222589   4.220   4.040   3.583 -0.1118 -0.0386 -0.1279
 7542TIP3    H122590   4.173   4.078   3.657  0.9791  0.2968  0.4191
 7542TIP3    H222591   4.304   4.085   3.583  0.3972 -0.9568 -0.7888
 7543TIP3   OH222592   6.900   1.018   5.280 -0.8191 -0.3750 -0.1921
 7543TIP3    H122593   6.930   0.945   5.225  0.5021 -0.0248  0.0257
 7543TIP3    H222594   6.945   1.095   5.245 -0.8903  0.0589  0.6304
 7544TIP3   OH222595   5.938   5.909   5.762  0.0402  0.4078 -0.0381
 7544TIP3    H122596   5.897   5.989   5.731 -0.5334  0.2459  0.2967
 7544TIP3    H222597   5.990   5.878   5.687 -3.1648 -1.2570 -1.8078
 7545TIP3   OH222598   3.041   0.695   3.114 -0.1236 -0.0388  0.6825
 7545TIP3    H122599   2.948   0.702   3.089  0.0722 -1.7842 -0.7035
 7545TIP3    H222600   3.039   0.673   3.207 -1.0962 -0.0204  0.6822
 7546TIP3   OH222601   3.405   3.326   1.626 -0.0010  0.1859 -0.3950
 7546TIP3    H122602   3.338   3.302   1.689 -1.9535  2.0907 -1.5991
 7546TIP3    H222603   3.422   3.245   1.577 -0.1157 -0.7390  1.0360
 7547TIP3   OH222604   6.845   5.150   2.460 -0.1500 -0.4265 -0.5639
 7547TIP3    H122605   6.766   5.203   2.470 -0.0704 -0.6996  2.0362
 7547TIP3    H222606   6.813   5.060   2.456 -0.0115 -0.5191  0.2360
 7548TIP3   OH222607   0.254   6.462   5.055  0.3909  0.3561  0.6419
 7548TIP3    H122608   0.227   6.546   5.092  0.3189  1.4163 -1.6512
 7548TIP3    H222609   0.209   6.456   4.971  1.9339 -1.0438 -0.1682
 7549TIP3   OH222610   2.604   6.021   2.266  0.1893  0.0298  0.2895
 7549TIP3    H122611   2.623   6.000   2.174 -0.3894 -0.3793  0.2583
 7549TIP3    H222612   2.527   5.968   2.287  1.1187 -0.9156  1.4212
 7550TIP3   OH222613   2.940   1.911   2.446 -0.2971 -0.0194 -0.2293
 7550TIP3    H122614   2.958   1.861   2.525 -1.5794 -1.7929 -0.9856
 7550TIP3    H222615   2.881   1.981   2.475 -1.3177 -1.0649  0.3071
 7551TIP3   OH222616   4.420   1.870   2.206 -0.0706  0.0550 -0.1021
 7551TIP3    H122617   4.491   1.876   2.142 -0.4723 -1.0492 -0.6822
 7551TIP3    H222618   4.387   1.781   2.196 -2.4092  0.9272 -0.7940
 7552TIP3   OH222619   5.765   5.351   5.116 -0.5288 -0.5350  0.6171
 7552TIP3    H122620   5.842   5.405   5.132 -0.4644 -0.6125  0.5674
 7552TIP3    H222621   5.702   5.411   5.077 -1.2127  0.0013  2.4488
 7553TIP3   OH222622   2.201   5.928   2.975 -0.6984  0.0975 -0.3604
 7553TIP3    H122623   2.234   5.871   3.045  0.7745  2.0035  0.5849
 7553TIP3    H222624   2.111   5.949   3.003 -0.1459  0.8056  1.0045
 7554TIP3   OH222625   7.105   2.168   2.652 -0.0323  0.1236  0.1142
 7554TIP3    H122626   7.175   2.108   2.678  1.8343  1.8280 -0.7504
 7554TIP3    H222627   7.082   2.214   2.733 -0.0533 -0.3611  0.3840
 7555TIP3   OH222628   4.831   3.071   4.682 -0.8081 -0.2876  0.5396
 7555TIP3    H122629   4.859   3.082   4.591  3.1173 -0.4352  1.5252
 7555TIP3    H222630   4.848   2.978   4.701 -2.6560 -0.5332  1.1619
 7556TIP3   OH222631   5.832   4.632   5.825  0.6401 -0.6447  0.0791
 7556TIP3    H122632   5.786   4.627   5.909 -0.3775 -0.1473 -0.4308
 7556TIP3    H222633   5.917   4.593   5.843 -0.2199 -2.2708  0.8728
 7557TIP3   OH222634   3.523   6.828   3.432 -0.8673  0.5193 -0.0296
 7557TIP3    H122635   3.551   6.747   3.389  1.2311  1.2723 -0.1879
 7557TIP3    H222636   3.435   6.809   3.465 -0.5057 -1.7409 -0.2375
 7558TIP3   OH222637   1.613   0.405   3.601  0.4993  0.1444 -0.7759
 7558TIP3    H122638   1.526   0.366   3.608 -0.2415  1.9634  1.2334
 7558TIP3    H222639   1.599   0.485   3.551  1.1683  0.0492 -1.1192
 7559TIP3   OH222640   5.250   3.904   4.130 -0.1777 -0.2242  0.1877
 7559TIP3    H122641   5.295   3.822   4.153 -2.2664 -0.9208  2.1290
 7559TIP3    H222642   5.188   3.879   4.062  0.9385  0.3466 -1.0942
 7560TIP3   OH222643   3.275   5.185   2.898 -0.1397  0.0123  0.5360
 7560TIP3    H122644   3.259   5.090   2.905 -0.1724  0.0201  0.5704
 7560TIP3    H222645   3.203   5.218   2.845 -0.4988  0.1185  1.0879
 7561TIP3   OH222646   4.845   5.791   0.978  0.2227 -0.0235 -0.1132
 7561TIP3    H122647   4.939   5.811   0.980 -0.0483  1.3321  0.2299
 7561TIP3    H222648   4.812   5.826   1.061 -0.5609 -0.6485 -0.1562
 7562TIP3   OH222649   3.106   5.513   3.364  0.1198  0.1890  0.6208
 7562TIP3    H122650   3.178   5.456   3.340  1.5805  1.7325  1.1825
 7562TIP3    H222651   3.087   5.563   3.284  0.9387  1.0831  0.9715
 7563TIP3   OH222652   1.363   3.659   0.015  0.7760 -0.3177  0.2183
 7563TIP3    H122653   1.334   3.568   0.011  3.1038 -1.1480  0.2765
 7563TIP3    H222654   1.293   3.705   0.061  0.1210 -2.3527  1.3772
 7564TIP3   OH222655   6.162   4.865   5.881  0.2764 -0.0915 -0.9147
 7564TIP3    H122656   6.125   4.884   5.795  2.0582  2.3858 -1.2372
 7564TIP3    H222657   6.162   4.949   5.927  2.2133 -0.6793  0.3137
 7565TIP3   OH222658   5.361   6.598   1.044 -0.6268 -0.3271  0.3112
 7565TIP3    H122659   5.453   6.592   1.016 -0.5149  1.1586  0.2382
 7565TIP3    H222660   5.354   6.536   1.116  0.1855 -1.1433 -0.2801
 7566TIP3   OH222661   1.110   6.360   3.371 -0.7126  0.1666  0.0365
 7566TIP3    H122662   1.135   6.274   3.336 -0.8765 -0.1384  0.6701
 7566TIP3    H222663   1.123   6.420   3.297 -1.0636 -0.4776 -0.5542
 7567TIP3   OH222664   0.834   3.298   5.684  0.4350 -0.3278  0.4963
 7567TIP3    H122665   0.871   3.320   5.598  1.5711  0.3176  1.1249
 7567TIP3    H222666   0.759   3.357   5.694 -0.8155 -1.6203 -0.7803
 7568TIP3   OH222667   5.031   2.917   2.359  0.0483  0.0181 -0.7834
 7568TIP3    H122668   4.949   2.877   2.333  0.5891 -1.0203 -0.9285
 7568TIP3    H222669   5.041   2.894   2.452  1.9441 -3.1209 -1.6148
 7569TIP3   OH222670   2.402   0.271   2.824  1.1538 -0.3008  0.5430
 7569TIP3    H122671   2.421   0.231   2.909 -3.6499 -0.2018  1.9544
 7569TIP3    H222672   2.405   0.365   2.840  0.9615 -0.2724  0.4170
 7570TIP3   OH222673   3.541   5.555   1.832 -0.3531  0.5364  0.2658
 7570TIP3    H122674   3.601   5.623   1.802  0.6297 -0.7581 -0.8056
 7570TIP3    H222675   3.598   5.490   1.875 -1.0912 -0.2871  0.0227
 7571TIP3   OH222676   4.274   5.871   0.375  0.2285 -0.4057 -0.0132
 7571TIP3    H122677   4.344   5.808   0.391  1.3581  0.6322 -0.7322
 7571TIP3    H222678   4.315   5.956   0.387 -0.6553  0.2508 -1.3633
 7572TIP3   OH222679   3.928   6.605   5.190  0.1052 -0.6413  0.1885
 7572TIP3    H122680   3.859   6.627   5.126  0.9894  1.5437 -0.1072
 7572TIP3    H222681   3.885   6.615   5.275  0.3146  2.0865  0.0571
 7573TIP3   OH222682   1.229   0.581   5.245  0.3797 -0.0659  0.4566
 7573TIP3    H122683   1.228   0.668   5.283  1.5389 -0.1989  0.8343
 7573TIP3    H222684   1.300   0.583   5.181  0.0468 -0.5686  0.0576
 7574TIP3   OH222685   6.723   6.555   1.143 -0.6567  0.5159 -0.7167
 7574TIP3    H122686   6.708   6.644   1.174 -1.1471 -0.2935  1.5445
 7574TIP3    H222687   6.808   6.560   1.099  0.9391  1.5141  2.1860
 7575TIP3   OH222688   0.766   3.153   2.820  0.2327 -0.1094  0.0364
 7575TIP3    H122689   0.751   3.095   2.745 -0.4158  1.2335 -0.9316
 7575TIP3    H222690   0.838   3.209   2.792 -0.1159  0.4985  0.3452
 7576TIP3   OH222691   4.471   3.459   2.401 -0.1742 -0.2997  0.3570
 7576TIP3    H122692   4.484   3.365   2.402  2.0495 -0.0459 -0.0191
 7576TIP3    H222693   4.376   3.470   2.398 -0.7438 -2.4842  3.8143
 7577TIP3   OH222694   0.126   3.053   2.090 -0.5904 -0.0327  0.4038
 7577TIP3    H122695   0.203   3.034   2.144 -1.0617  0.7639  1.3946
 7577TIP3    H222696   0.088   2.967   2.072  0.9759 -0.4965 -0.8086
 7578TIP3   OH222697   1.668   3.839   0.127  0.0427 -0.5028  0.2492
 7578TIP3    H122698   1.729   3.766   0.130 -0.6355 -1.0572  1.9049
 7578TIP3    H222699   1.700   3.899   0.195 -0.2586  0.0169 -0.0634
 7579TIP3   OH222700   6.907   1.257   1.895 -0.2100 -0.1083 -0.0852
 7579TIP3    H122701   6.896   1.346   1.929  0.4999 -0.1332  0.2376
 7579TIP3    H222702   6.845   1.204   1.945 -0.4440  0.1643 -0.0912
 7580TIP3   OH222703   3.871   3.462   5.861  0.7761  0.3949 -0.5399
 7580TIP3    H122704   3.950   3.414   5.834  1.7809  1.6420  0.0444
 7580TIP3    H222705   3.806   3.441   5.794  1.0329 -2.0679 -0.0808
 7581TIP3   OH222706   1.090   6.830   2.880 -0.0632  0.4005 -0.3441
 7581TIP3    H122707   1.101   6.806   2.972 -0.5181 -3.8527 -1.1779
 7581TIP3    H222708   1.172   6.803   2.838 -1.6212 -2.6189 -1.8044
 7582TIP3   OH222709   4.302   5.338   0.585 -0.4654 -0.4095 -0.4230
 7582TIP3    H122710   4.334   5.428   0.594  1.4134 -0.9782 -0.8812
 7582TIP3    H222711   4.362   5.287   0.639  0.9029 -1.8444 -3.1142
 7583TIP3   OH222712   5.727   3.725   2.682  0.2617 -0.0700  0.0700
 7583TIP3    H122713   5.635   3.697   2.681  0.4406 -0.6659 -0.9572
 7583TIP3    H222714   5.736   3.773   2.764 -0.9486 -0.0702  0.2266
 7584TIP3   OH222715   7.060   4.047   3.063 -0.4136 -0.0581  0.1317
 7584TIP3    H122716   6.995   4.003   3.119 -1.8653  2.5043  0.5934
 7584TIP3    H222717   7.144   4.010   3.092 -1.3548 -0.8962  2.0225
 7585TIP3   OH222718   4.318   0.118   5.638  0.1767 -0.2632  0.1243
 7585TIP3    H122719   4.404   0.120   5.596  0.6331 -1.2879  0.9503
 7585TIP3    H222720   4.316   0.198   5.690  1.0848 -0.7199  0.9087
 7586TIP3   OH222721   0.540   4.773   4.364 -0.4169 -0.1642  1.3278
 7586TIP3    H122722   0.531   4.864   4.338 -0.9984 -0.3463  0.8633
 7586TIP3    H222723   0.468   4.758   4.426 -0.1653 -0.2346  1.6032
 7587TIP3   OH222724   1.139   4.230   2.361  0.0028 -0.1529  0.0437
 7587TIP3    H122725   1.201   4.217   2.433  0.0671  2.3710  0.5378
 7587TIP3    H222726   1.192   4.223   2.282  0.6655  0.4840  0.4112
 7588TIP3   OH222727   1.933   4.704   0.850  0.1419 -0.0936  0.2036
 7588TIP3    H122728   2.000   4.739   0.791  0.0647  2.5139  1.5564
 7588TIP3    H222729   1.851   4.737   0.815  0.0254  0.7799  1.2536
 7589TIP3   OH222730   1.487   4.051   1.735  0.0698 -0.2421  0.3938
 7589TIP3    H122731   1.403   4.097   1.741 -0.2955 -1.0479  2.1359
 7589TIP3    H222732   1.543   4.094   1.800  0.2289 -1.2351  0.9270
 7590TIP3   OH222733   2.389   5.518   3.367  0.4053  0.1452 -0.4692
 7590TIP3    H122734   2.430   5.435   3.340  2.4012  1.5812 -2.1834
 7590TIP3    H222735   2.462   5.579   3.376 -1.0847  1.9513 -0.0677
 7591TIP3   OH222736   2.419   5.228   3.388  0.1778 -0.2128 -0.5357
 7591TIP3    H122737   2.344   5.257   3.335  0.1905  0.4190 -0.2219
 7591TIP3    H222738   2.401   5.136   3.407 -0.3888 -0.1350 -0.6779
 7592TIP3   OH222739   5.170   0.812   5.293  0.1135 -0.2665 -0.4338
 7592TIP3    H122740   5.142   0.898   5.323  1.1938  0.4106 -1.2778
 7592TIP3    H222741   5.130   0.802   5.207 -1.9964 -1.6920  0.6126
 7593TIP3   OH222742   4.791   0.067   0.811 -0.3424 -0.3950 -0.1954
 7593TIP3    H122743   4.749   0.056   0.726  0.9908 -0.8209 -0.8181
 7593TIP3    H222744   4.882   0.043   0.796 -0.1238 -0.6434  1.4013
 7594TIP3   OH222745   4.424   2.698   4.424  0.0750 -0.1665 -0.5193
 7594TIP3    H122746   4.386   2.786   4.435 -0.5207 -0.6776  2.3010
 7594TIP3    H222747   4.514   2.707   4.457 -0.5032 -0.9111  1.4002
 7595TIP3   OH222748   3.821   2.234   5.527 -0.3425 -0.5169 -0.5195
 7595TIP3    H122749   3.781   2.230   5.441  0.8868  2.8815 -1.4142
 7595TIP3    H222750   3.747   2.237   5.588 -1.3369  0.1020 -1.7138
 7596TIP3   OH222751   4.800   6.406   4.147 -0.4097  0.1954  0.0333
 7596TIP3    H122752   4.714   6.446   4.162  0.4079  1.3871  1.9504
 7596TIP3    H222753   4.835   6.392   4.235  1.2378 -0.5654 -0.7057
 7597TIP3   OH222754   3.998   4.960   1.730 -0.2004  0.2854 -0.1684
 7597TIP3    H122755   3.959   5.009   1.802  0.3569  1.2666 -0.5011
 7597TIP3    H222756   3.976   4.869   1.747 -3.7619  0.8332 -1.0317
 7598TIP3   OH222757   3.343   3.905   4.277  0.1049 -0.0175  0.2578
 7598TIP3    H122758   3.398   3.832   4.247 -0.7212 -0.3978 -0.3624
 7598TIP3    H222759   3.254   3.877   4.259 -0.2304  1.1309  0.0748
 7599TIP3   OH222760   3.803   5.412   0.782  0.1190 -0.0391  0.2492
 7599TIP3    H122761   3.759   5.482   0.829 -0.5653  1.1752 -2.0909
 7599TIP3    H222762   3.894   5.441   0.776  0.1840 -0.1427  0.6939
 7600TIP3   OH222763   4.090   6.209   5.251  0.3736 -0.4347  0.0333
 7600TIP3    H122764   4.155   6.279   5.254  0.6556 -0.6199 -1.2732
 7600TIP3    H222765   4.027   6.238   5.185 -1.5624  0.2883  2.0314
 7601TIP3   OH222766   2.383   1.026   2.477 -0.0411 -0.3333  0.1843
 7601TIP3    H122767   2.418   1.077   2.404 -0.8787 -0.4791 -0.3263
 7601TIP3    H222768   2.290   1.045   2.478  0.1529  0.7770  2.1187
 7602TIP3   OH222769   6.955   0.949   1.755 -0.2754  0.2871  0.3587
 7602TIP3    H122770   6.998   0.912   1.832  0.8763 -2.1661 -1.3311
 7602TIP3    H222771   6.996   0.904   1.681 -1.0082  2.8653 -1.7541
 7603TIP3   OH222772   2.761   1.904   3.406 -0.1491  0.8422  0.4555
 7603TIP3    H122773   2.797   1.914   3.494  0.5144 -0.8386  0.4163
 7603TIP3    H222774   2.680   1.855   3.418  1.0467 -1.4152  0.0310
 7604TIP3   OH222775   3.918   0.066   4.326 -0.3407  0.5405 -0.0885
 7604TIP3    H122776   3.866   0.101   4.398  0.8824  0.8577  0.6677
 7604TIP3    H222777   3.870   0.092   4.247 -1.3852  0.7017  0.5787
 7605TIP3   OH222778   1.901   3.025   4.086 -0.0370 -0.1046 -0.3081
 7605TIP3    H122779   1.846   2.957   4.125  1.7394 -1.3358  0.1780
 7605TIP3    H222780   1.842   3.098   4.071 -1.2068 -0.1444  3.1797
 7606TIP3   OH222781   4.605   2.874   0.691  0.3082 -0.0156  0.3835
 7606TIP3    H122782   4.600   2.877   0.595 -2.0391  0.8125  0.4508
 7606TIP3    H222783   4.574   2.960   0.720 -0.3486 -0.7041  1.8749
 7607TIP3   OH222784   4.747   2.840   0.443 -0.1440 -0.2304 -0.0814
 7607TIP3    H122785   4.811   2.902   0.409  1.0319 -1.3911 -0.0553
 7607TIP3    H222786   4.755   2.764   0.386 -1.1038 -0.6128  0.2783
 7608TIP3   OH222787   1.109   2.995   2.494  0.1764 -0.4367 -0.0455
 7608TIP3    H122788   1.023   3.003   2.453 -0.4046 -2.0868  0.7612
 7608TIP3    H222789   1.163   2.953   2.428  0.2043  0.0570 -0.3401
 7609TIP3   OH222790   2.327   6.471   1.027  0.0761 -0.3527 -0.4384
 7609TIP3    H122791   2.354   6.394   1.077 -0.7152 -0.5679 -0.3312
 7609TIP3    H222792   2.333   6.544   1.090  1.3921 -0.2072 -0.6988
 7610TIP3   OH222793   7.173   2.588   5.901  0.4717  0.2343  0.0512
 7610TIP3    H122794   7.121   2.662   5.932  2.2700  1.1988  1.0014
 7610TIP3    H222795   7.193   2.608   5.810 -0.0627  0.3061 -0.0497
 7611TIP3   OH222796   6.803   3.461   1.928 -0.0664  0.4019  0.1630
 7611TIP3    H122797   6.865   3.489   1.861 -1.8762  0.3435 -1.6263
 7611TIP3    H222798   6.836   3.500   2.009  1.8302  1.0229 -0.8522
 7612TIP3   OH222799   4.195   1.035   5.261 -0.4796 -0.2276 -0.3339
 7612TIP3    H122800   4.261   1.088   5.216 -1.1339 -0.0497 -1.1034
 7612TIP3    H222801   4.112   1.061   5.221 -1.1229  0.1064  1.1407
 7613TIP3   OH222802   5.457   0.904   0.504 -0.3043  0.2902  0.0943
 7613TIP3    H122803   5.485   0.867   0.420  0.8998 -0.0320  0.6167
 7613TIP3    H222804   5.525   0.968   0.526 -0.8151  0.6554  0.6426
 7614TIP3   OH222805   4.444   4.057   2.688  0.0834 -0.0523  0.3866
 7614TIP3    H122806   4.443   3.971   2.646  1.0134 -0.2719  0.7771
 7614TIP3    H222807   4.463   4.119   2.618  0.1994 -0.2579  0.2364
 7615TIP3   OH222808   5.451   1.244   1.263 -0.2819  0.3333 -0.7094
 7615TIP3    H122809   5.517   1.277   1.202 -1.3258  1.2833 -1.3652
 7615TIP3    H222810   5.386   1.200   1.207 -0.3333 -0.3994 -0.1009
 7616TIP3   OH222811   1.453   1.879   5.624 -0.1314 -0.4517  0.5619
 7616TIP3    H122812   1.513   1.892   5.550  0.9667  0.4120  1.5657
 7616TIP3    H222813   1.493   1.810   5.676  0.2830  0.4848  1.5093
 7617TIP3   OH222814   3.384   1.718   5.512 -0.4606  0.2616  0.2075
 7617TIP3    H122815   3.436   1.797   5.497 -1.5614  0.8128 -0.9557
 7617TIP3    H222816   3.330   1.740   5.589  1.0371 -0.3534  1.4823
 7618TIP3   OH222817   4.459   4.968   0.703 -0.1077  1.0859 -0.5011
 7618TIP3    H122818   4.466   4.946   0.611 -1.6235  1.5766 -0.7659
 7618TIP3    H222819   4.495   4.892   0.749  0.0815  0.5689 -1.4774
 7619TIP3   OH222820   7.114   6.778   1.754  0.2363 -0.2734 -0.2396
 7619TIP3    H122821   7.106   6.703   1.813  1.5225 -0.9424 -0.8566
 7619TIP3    H222822   7.046   6.763   1.688 -0.0129 -0.4920  0.0611
 7620TIP3   OH222823   1.530   1.237   3.010 -0.0675  0.0617  0.1938
 7620TIP3    H122824   1.559   1.219   2.920 -1.7962  0.6781 -0.5303
 7620TIP3    H222825   1.509   1.330   3.010 -1.4229 -0.2233  0.8331
 7621TIP3   OH222826   5.290   4.686   5.269 -0.1092 -0.0939  0.2030
 7621TIP3    H122827   5.263   4.608   5.317  1.7063 -1.5752 -1.0136
 7621TIP3    H222828   5.359   4.725   5.323 -0.0123 -0.1684  0.1342
 7622TIP3   OH222829   2.035   3.224   5.767 -0.5135  0.3121  0.8858
 7622TIP3    H122830   1.979   3.169   5.712  1.5516 -0.9218 -0.0959
 7622TIP3    H222831   2.011   3.314   5.745 -0.3221 -0.1605 -1.4778
 7623TIP3   OH222832   4.332   1.144   3.434  0.0934 -0.0457 -0.4271
 7623TIP3    H122833   4.265   1.090   3.393  0.1376 -0.8271  0.4926
 7623TIP3    H222834   4.283   1.211   3.481 -0.0366 -0.3928 -0.0625
 7624TIP3   OH222835   3.284   6.222   4.799 -0.3779  0.2750 -0.1531
 7624TIP3    H122836   3.357   6.204   4.738  0.3378  0.3709  0.6551
 7624TIP3    H222837   3.247   6.136   4.817 -0.7215  0.2645 -0.8723
 7625TIP3   OH222838   1.073   5.823   5.173  0.2265  0.0188  0.6058
 7625TIP3    H122839   1.133   5.773   5.117 -2.5932 -3.2132  0.1603
 7625TIP3    H222840   1.073   5.775   5.256 -0.4732  0.9565  1.1594
 7626TIP3   OH222841   2.632   5.419   1.717 -0.7665  0.0035  0.5513
 7626TIP3    H122842   2.640   5.411   1.622 -2.3430 -1.7514  0.5096
 7626TIP3    H222843   2.695   5.487   1.740 -0.5304  0.6728 -1.7673
 7627TIP3   OH222844   5.978   4.702   1.243 -0.2935  0.5702  0.4110
 7627TIP3    H122845   6.021   4.695   1.328  0.7280  0.5844 -0.0952
 7627TIP3    H222846   6.022   4.636   1.188  0.9798  2.4250 -0.8917
 7628TIP3   OH222847   0.567   3.558   4.162  0.2233 -0.6252  0.2525
 7628TIP3    H122848   0.544   3.635   4.213  0.8168 -0.6266  0.5353
 7628TIP3    H222849   0.649   3.583   4.118  1.1913 -1.5843  1.4621
 7629TIP3   OH222850   0.531   1.435   2.008  0.5692  0.4329  0.2022
 7629TIP3    H122851   0.485   1.490   1.944  1.8299 -1.6280 -2.6820
 7629TIP3    H222852   0.623   1.458   1.996  0.8593 -0.1664  1.1812
 7630TIP3   OH222853   0.677   0.976   5.465 -0.6083 -0.3488 -0.4625
 7630TIP3    H122854   0.641   1.045   5.409 -1.7828 -0.7250 -0.2132
 7630TIP3    H222855   0.719   0.915   5.405 -0.2483  0.1777 -0.7536
 7631TIP3   OH222856   5.358   4.445   3.497  0.1617 -0.1524 -0.4307
 7631TIP3    H122857   5.429   4.414   3.554 -0.2409  0.1929  0.2678
 7631TIP3    H222858   5.387   4.530   3.466  0.7755 -0.7139 -1.4710
 7632TIP3   OH222859   3.195   2.698   1.702  0.1164 -0.0178  0.2895
 7632TIP3    H122860   3.227   2.628   1.645 -0.2122 -0.7622  0.9945
 7632TIP3    H222861   3.273   2.752   1.718  0.0648  0.6232 -1.4043
 7633TIP3   OH222862   5.874   2.154   3.383  0.6679 -0.0246  0.6965
 7633TIP3    H122863   5.883   2.218   3.312  2.9796  0.0868  1.0182
 7633TIP3    H222864   5.884   2.069   3.340 -0.6585 -0.1192  0.5297
 7634TIP3   OH222865   2.397   5.328   5.739 -0.3990  0.0265  0.4724
 7634TIP3    H122866   2.359   5.241   5.755 -0.8173  0.3620  1.3565
 7634TIP3    H222867   2.490   5.318   5.758 -0.7737  0.2553  2.6240
 7635TIP3   OH222868   5.619   4.253   5.814 -0.3492 -0.1615  0.8168
 7635TIP3    H122869   5.663   4.333   5.842  0.9518 -0.0137 -1.3988
 7635TIP3    H222870   5.557   4.283   5.747 -1.6976 -0.7471  1.7592
 7636TIP3   OH222871   4.267   5.738   1.211 -0.4404  0.5686  0.0630
 7636TIP3    H122872   4.208   5.696   1.149  0.7516 -0.2691 -0.5449
 7636TIP3    H222873   4.310   5.665   1.256  0.3173  1.1573  0.3167
 7637TIP3   OH222874   1.967   4.744   5.845  0.6457  0.3961 -0.0982
 7637TIP3    H122875   1.987   4.731   5.938  0.8236  2.6063  0.2343
 7637TIP3    H222876   1.872   4.729   5.840  0.5683  0.6205  0.5167
 7638TIP3   OH222877   4.423   5.246   1.984  0.0278  0.4234 -0.5746
 7638TIP3    H122878   4.507   5.286   2.009  0.0725 -0.4772  0.8281
 7638TIP3    H222879   4.448   5.162   1.945 -0.2378 -0.0228  0.2137
 7639TIP3   OH222880   0.577   4.484   2.446 -0.0563  0.0993  0.0030
 7639TIP3    H122881   0.533   4.400   2.434 -0.2854 -0.1750  2.2492
 7639TIP3    H222882   0.519   4.548   2.406  0.3213 -0.7846 -2.1303
 7640TIP3   OH222883   3.157   1.720   0.765  0.4611 -0.1552 -0.1087
 7640TIP3    H122884   3.198   1.672   0.693  0.6281 -0.3855  0.1344
 7640TIP3    H222885   3.133   1.652   0.828 -1.1707 -0.1321 -0.6575
 7641TIP3   OH222886   5.477   6.100   1.300  0.3611 -0.0706  0.2158
 7641TIP3    H122887   5.561   6.073   1.337 -0.4337 -1.0534  1.3689
 7641TIP3    H222888   5.500   6.169   1.238  2.2494 -1.7336 -1.0744
 7642TIP3   OH222889   2.059   4.729   1.855  0.8724  0.4507  0.7673
 7642TIP3    H122890   1.979   4.768   1.819  1.2952  1.4409  0.8820
 7642TIP3    H222891   2.029   4.646   1.894 -0.0565  0.6878  0.5892
 7643TIP3   OH222892   1.810   2.421   0.238 -0.4014  0.3305  0.0811
 7643TIP3    H122893   1.756   2.373   0.175  0.5652  0.6718 -1.0506
 7643TIP3    H222894   1.899   2.392   0.220 -0.0092  1.1722  0.6317
 7644TIP3   OH222895   5.335   2.793   3.348 -0.4127  0.4593 -0.2634
 7644TIP3    H122896   5.362   2.765   3.436 -1.2327 -0.7435 -0.3780
 7644TIP3    H222897   5.321   2.887   3.356 -1.5495  0.1909  1.1810
 7645TIP3   OH222898   2.725   6.265   5.320  0.7724 -0.0271  0.1741
 7645TIP3    H122899   2.781   6.342   5.309  0.3797  0.2012 -0.2417
 7645TIP3    H222900   2.782   6.191   5.298  0.8042  0.2341 -0.6659
 7646TIP3   OH222901   1.234   6.178   3.202  0.2168 -0.2438  0.2133
 7646TIP3    H122902   1.187   6.095   3.198 -0.5258  0.2190 -1.4123
 7646TIP3    H222903   1.292   6.169   3.278  0.7170 -2.5257 -0.3619
 7647TIP3   OH222904   0.012   3.370   5.718  0.0587  0.0817 -0.3068
 7647TIP3    H122905   0.060   3.449   5.692 -1.3543  1.2477  0.4860
 7647TIP3    H222906  -0.016   3.331   5.635  2.7517 -0.9497 -0.8274
 7648TIP3   OH222907   6.265   6.070   3.263  0.5822  0.2982  0.1671
 7648TIP3    H122908   6.357   6.094   3.259  0.8524 -0.6040  0.6268
 7648TIP3    H222909   6.225   6.116   3.190  1.7364 -0.6545 -1.1243
 7649TIP3   OH222910   3.793   5.659   0.299 -0.1564  0.0271 -0.4091
 7649TIP3    H122911   3.819   5.678   0.209 -0.7389 -3.1934 -1.3548
 7649TIP3    H222912   3.876   5.656   0.347  0.2351  0.7985 -0.9989
 7650TIP3   OH222913   3.705   2.167   5.789 -0.1233  0.5450 -0.1369
 7650TIP3    H122914   3.635   2.113   5.753  1.1057 -1.1355 -0.0978
 7650TIP3    H222915   3.691   2.165   5.883  1.0946 -1.4763  0.0446
 7651TIP3   OH222916   3.774   6.448   1.344  0.0178 -0.7033 -0.4607
 7651TIP3    H122917   3.766   6.520   1.282  0.9110 -1.6466 -1.7157
 7651TIP3    H222918   3.760   6.369   1.291 -0.6424 -1.4842  0.8179
 7652TIP3   OH222919   7.093   4.753   5.411 -0.1010  0.2385  0.3715
 7652TIP3    H122920   7.105   4.725   5.320  0.9377  0.8446  0.3054
 7652TIP3    H222921   7.000   4.739   5.428 -0.0424 -1.1752 -0.3321
 7653TIP3   OH222922   2.126   0.724   3.565  0.4978  0.2642 -0.2708
 7653TIP3    H122923   2.046   0.672   3.572 -1.0488  2.7014  2.2846
 7653TIP3    H222924   2.134   0.767   3.650  3.6101  1.4995 -1.0410
 7654TIP3   OH222925   5.669   3.507   5.609  0.3266 -0.1731  0.5460
 7654TIP3    H122926   5.706   3.430   5.565  1.2273 -0.4537  1.7517
 7654TIP3    H222927   5.698   3.581   5.554 -0.3717 -0.6503 -0.5022
 7655TIP3   OH222928   1.933   4.610   4.808 -0.2815 -0.0835 -0.5010
 7655TIP3    H122929   2.006   4.558   4.774 -0.1724  0.5769 -1.3236
 7655TIP3    H222930   1.902   4.659   4.732  0.3290  1.8912  0.4710
 7656TIP3   OH222931   3.578   6.471   3.113  0.2025  0.6498 -0.7106
 7656TIP3    H122932   3.548   6.553   3.074  0.6278  1.1897  0.0682
 7656TIP3    H222933   3.500   6.416   3.116  0.3094  0.2535 -3.0705
 7657TIP3   OH222934   2.879   1.501   1.843 -0.5414  0.5039  0.4925
 7657TIP3    H122935   2.868   1.591   1.873  0.5816  0.6291  0.5640
 7657TIP3    H222936   2.943   1.506   1.772  0.6324 -0.3745  1.4199
 7658TIP3   OH222937   2.858   3.691   0.516 -0.3475 -0.7410  0.4762
 7658TIP3    H122938   2.908   3.644   0.450 -0.4003 -1.1053  0.6963
 7658TIP3    H222939   2.881   3.783   0.501 -0.8985 -0.7469 -0.5022
 7659TIP3   OH222940   6.545  -0.012   2.050  0.4396 -0.4264  0.3179
 7659TIP3    H122941   6.459   0.022   2.075  0.1710 -2.3076  2.2657
 7659TIP3    H222942   6.608   0.043   2.096  0.3248  0.8693 -1.0048
 7660TIP3   OH222943   1.879   4.004   4.992  0.0425  0.0393  0.1694
 7660TIP3    H122944   1.957   3.953   4.967  1.1182  1.4546  0.4814
 7660TIP3    H222945   1.908   4.056   5.067 -1.6748 -0.4914  1.2601
 7661TIP3   OH222946   2.340   1.866   3.186  0.0840 -0.4133 -0.2651
 7661TIP3    H122947   2.393   1.844   3.263 -0.8766 -1.0479  0.2385
 7661TIP3    H222948   2.378   1.948   3.153  2.1625 -1.4695 -0.6785
 7662TIP3   OH222949   6.153   0.694   5.245  0.0079  0.4195 -0.0457
 7662TIP3    H122950   6.180   0.780   5.213  2.2621 -0.7858 -1.6798
 7662TIP3    H222951   6.224   0.635   5.218  0.0501 -1.5006  3.6449
 7663TIP3   OH222952  -0.017   6.665   4.270 -0.1439  0.2483  0.5148
 7663TIP3    H122953  -0.002   6.708   4.355  1.1145 -0.9744  0.9575
 7663TIP3    H222954   0.053   6.697   4.214  1.6442 -2.0726  1.2364
 7664TIP3   OH222955   6.880   3.634   1.354 -0.5213 -0.0251 -0.1130
 7664TIP3    H122956   6.971   3.622   1.326 -0.1638  0.0811  0.9417
 7664TIP3    H222957   6.851   3.712   1.307  0.1236  0.2771 -0.0283
 7665TIP3   OH222958   4.011   0.181   0.304 -0.0712  0.2113 -0.2313
 7665TIP3    H122959   4.090   0.129   0.323 -0.1677  0.3630  0.6591
 7665TIP3    H222960   3.987   0.157   0.215  0.5899 -0.3572 -0.2684
 7666TIP3   OH222961   0.641   2.937   5.370 -0.2631  0.3935  0.1347
 7666TIP3    H122962   0.565   2.928   5.428 -1.2888  0.8006 -1.0780
 7666TIP3    H222963   0.670   2.847   5.354  0.2677  0.2950  1.5372
 7667TIP3   OH222964   4.295   1.428   4.198  0.2654  0.3863 -0.1255
 7667TIP3    H122965   4.367   1.378   4.159  0.3118  0.5265 -0.2230
 7667TIP3    H222966   4.282   1.388   4.284 -1.2266 -1.2872 -1.0695
 7668TIP3   OH222967   0.635   6.351   5.757 -0.2208 -0.9060  0.1023
 7668TIP3    H122968   0.668   6.361   5.667  0.2730 -0.9237  0.2751
 7668TIP3    H222969   0.556   6.404   5.760 -0.6879 -1.5356 -0.5729
 7669TIP3   OH222970   0.273   3.414   2.763  0.4871  0.1703  0.3451
 7669TIP3    H122971   0.188   3.393   2.723  0.3723 -0.4234  0.8813
 7669TIP3    H222972   0.267   3.507   2.783 -1.2218 -0.4239  3.0706
 7670TIP3   OH222973   6.431   2.274   0.420  0.3588 -0.1273  0.4496
 7670TIP3    H122974   6.480   2.195   0.395 -0.8269 -0.7845  0.1385
 7670TIP3    H222975   6.499   2.337   0.446  1.5094 -0.3323 -1.8195
 7671TIP3   OH222976   5.649   6.179   3.020 -0.2957 -0.0661 -0.0519
 7671TIP3    H122977   5.609   6.262   2.992  0.2282  0.2902  0.2433
 7671TIP3    H222978   5.652   6.126   2.940 -0.2373  0.3599 -0.3375
 7672TIP3   OH222979   6.195   0.024   1.889 -0.6336 -0.3036  0.1670
 7672TIP3    H122980   6.209   0.012   1.983 -2.8318  1.4788  0.8054
 7672TIP3    H222981   6.281   0.006   1.849  0.2112 -1.6296  2.4226
 7673TIP3   OH222982   5.377   0.900   1.260  0.6842  0.2676  0.1390
 7673TIP3    H122983   5.406   0.815   1.228  0.2992  0.2147 -0.0675
 7673TIP3    H222984   5.312   0.929   1.196 -0.3024  0.0346  1.0212
 7674TIP3   OH222985   3.563   2.902   4.135 -0.3563  0.6762 -1.0472
 7674TIP3    H122986   3.523   2.869   4.055 -2.0116  0.3651 -0.1182
 7674TIP3    H222987   3.642   2.848   4.146 -2.4929 -2.5193 -0.0593
 7675TIP3   OH222988   4.527   1.749   1.416 -0.0993 -0.3386  0.3644
 7675TIP3    H122989   4.476   1.830   1.409 -0.6042 -0.7962 -2.2927
 7675TIP3    H222990   4.490   1.704   1.493 -0.9581  1.1682  0.8643
 7676TIP3   OH222991   6.375   0.652   2.500  0.3336 -0.2968  0.0576
 7676TIP3    H122992   6.303   0.712   2.481 -0.1088  0.0830  2.5855
 7676TIP3    H222993   6.454   0.702   2.479 -0.0716  0.3045 -0.0583
 7677TIP3   OH222994   0.887   6.256   2.223 -0.0824 -0.4076 -0.3902
 7677TIP3    H122995   0.872   6.341   2.263  0.0174 -0.2694 -0.6417
 7677TIP3    H222996   0.807   6.206   2.240 -0.9415  0.3865 -1.8814
 7678TIP3   OH222997   7.141   4.924   1.705  0.0255 -0.7261  0.2370
 7678TIP3    H122998   7.171   4.849   1.653  0.7961  0.1348 -0.6217
 7678TIP3    H222999   7.065   4.958   1.657  0.0567 -0.5926  0.2806
 7679TIP3   OH223000   5.993   4.256   4.640  0.0050  0.2352 -0.7002
 7679TIP3    H123001   5.965   4.331   4.587 -0.8759  0.8167  0.5461
 7679TIP3    H223002   6.060   4.292   4.697 -0.3567  0.0611 -0.1622
 7680TIP3   OH223003   2.586   1.908   2.058 -0.3146 -0.0432  0.0257
 7680TIP3    H123004   2.519   1.946   2.002 -1.3528  1.0281  1.8982
 7680TIP3    H223005   2.636   1.982   2.091  0.6670 -0.7005  0.0725
 7681TIP3   OH223006   1.284   2.225   3.447 -0.0279 -0.2915  0.0524
 7681TIP3    H123007   1.219   2.294   3.459  1.4717  0.9694  1.2775
 7681TIP3    H223008   1.312   2.203   3.536  1.3059 -0.7341 -0.4571
 7682TIP3   OH223009   1.193   2.904   4.964  0.1733 -0.1320  0.4877
 7682TIP3    H123010   1.281   2.868   4.956  1.3259  2.6438 -0.5760
 7682TIP3    H223011   1.206   2.994   4.994 -2.2611  0.5121 -0.1370
 7683TIP3   OH223012   2.800   3.598   2.310 -0.3035  0.2217 -0.4415
 7683TIP3    H123013   2.867   3.531   2.320 -0.4279  0.1340 -0.1785
 7683TIP3    H223014   2.732   3.575   2.374 -0.9779 -0.1559 -1.2767
 7684TIP3   OH223015   4.915   4.851   2.218 -0.9736  0.0745 -0.4757
 7684TIP3    H123016   4.942   4.933   2.178 -2.1119  0.4691 -0.4635
 7684TIP3    H223017   4.965   4.847   2.300 -0.8209  0.6962 -0.5333
 7685TIP3   OH223018   3.174   3.453   4.737  0.4200  0.0445 -0.4406
 7685TIP3    H123019   3.269   3.466   4.737  0.3735  0.4363  0.7791
 7685TIP3    H223020   3.140   3.524   4.683  0.6795  1.0903  0.7435
 7686TIP3   OH223021   5.927   4.936   3.422 -0.2225  0.3980 -0.1684
 7686TIP3    H123022   5.949   5.027   3.444 -2.3024  1.0254 -0.4821
 7686TIP3    H223023   6.008   4.888   3.436 -0.0992  1.4301  4.7590
 7687TIP3   OH223024   0.467   3.434   4.928 -0.1048 -0.1480 -0.4352
 7687TIP3    H123025   0.456   3.520   4.888 -1.1691  0.1253  0.4020
 7687TIP3    H223026   0.467   3.373   4.855 -0.3706  0.4721 -0.9664
 7688TIP3   OH223027   4.981   6.253   0.426 -0.1779  0.3131  0.0148
 7688TIP3    H123028   4.915   6.308   0.469  1.3580  1.4741  0.9993
 7688TIP3    H223029   5.027   6.211   0.498 -0.2023 -0.9508 -0.6802
 7689TIP3   OH223030   1.158   0.406   4.692  0.1931 -0.2168 -0.9799
 7689TIP3    H123031   1.186   0.441   4.776 -1.2437  1.1905 -1.0387
 7689TIP3    H223032   1.239   0.383   4.647  1.0089 -0.3993  0.5246
 7690TIP3   OH223033   7.163   0.113   0.821 -0.3274  0.0885 -0.1047
 7690TIP3    H123034   7.208   0.046   0.873  0.9710 -0.3300 -1.6889
 7690TIP3    H223035   7.184   0.090   0.730 -2.6647  0.6819 -0.8574
 7691TIP3   OH223036   4.074   1.496   2.675 -0.6815 -0.3129 -0.8240
 7691TIP3    H123037   4.089   1.536   2.761  1.0034  0.2661 -1.3395
 7691TIP3    H223038   3.990   1.451   2.684 -1.3100  1.0452  0.6265
 7692TIP3   OH223039   2.974   2.452   3.146  0.6560  0.1005  0.5277
 7692TIP3    H123040   2.881   2.432   3.138  0.0865  2.2413  1.1025
 7692TIP3    H223041   3.015   2.405   3.073 -0.9457 -0.4347 -0.0682
 7693TIP3   OH223042   2.776   6.768   2.187 -0.4268 -0.0813 -0.0007
 7693TIP3    H123043   2.741   6.816   2.263  1.0371 -0.4294  0.9389
 7693TIP3    H223044   2.734   6.682   2.193  0.3925 -0.4328  1.0028
 7694TIP3   OH223045   5.720   5.690   5.440 -0.2985 -0.2672  0.2713
 7694TIP3    H123046   5.700   5.753   5.509  0.0691 -0.9163  0.9877
 7694TIP3    H223047   5.658   5.618   5.455  0.8899 -1.1722  0.9782
 7695TIP3   OH223048   1.131   4.494   2.302  0.4846 -0.0835 -0.4668
 7695TIP3    H123049   1.058   4.533   2.351  0.6483  0.7205 -0.8609
 7695TIP3    H223050   1.129   4.401   2.328 -2.4799 -0.7663 -2.6084
 7696TIP3   OH223051   0.425   2.517   3.945 -0.4001 -0.1141 -0.0500
 7696TIP3    H123052   0.497   2.580   3.942 -1.6617  1.4642  0.7659
 7696TIP3    H223053   0.466   2.432   3.927  1.6347  0.7176  0.3711
 7697TIP3   OH223054   4.645   5.096   3.318 -0.6376 -0.2856  0.1038
 7697TIP3    H123055   4.613   5.074   3.405  0.0362  2.1084  1.0607
 7697TIP3    H223056   4.662   5.012   3.276 -4.5676 -1.6394  0.8211
 7698TIP3   OH223057   0.247   1.882   0.089 -0.0816  0.1793 -0.2407
 7698TIP3    H123058   0.261   1.907  -0.003 -0.9220  0.5457 -0.2801
 7698TIP3    H223059   0.329   1.839   0.115 -0.4121 -1.3888 -1.6315
 7699TIP3   OH223060   0.713   1.275   2.702  0.8990  0.2823  0.0964
 7699TIP3    H123061   0.730   1.366   2.727 -0.8034  0.1590  1.9746
 7699TIP3    H223062   0.768   1.261   2.625  1.2091  2.8839 -0.2579
 7700TIP3   OH223063   6.626   4.311   0.188  0.3029  0.1232 -0.2058
 7700TIP3    H123064   6.659   4.261   0.112  0.8760 -1.7808  1.2104
 7700TIP3    H223065   6.689   4.292   0.257  0.3435  2.6342  0.5164
 7701TIP3   OH223066   0.109   5.575   2.575  0.3332  0.1712 -0.2751
 7701TIP3    H123067   0.019   5.549   2.553  0.1055 -0.6959  1.4781
 7701TIP3    H223068   0.127   5.650   2.518 -0.4773 -1.3105 -2.6080
 7702TIP3   OH223069   4.649   5.281   1.164  0.2362 -0.1870  0.0313
 7702TIP3    H123070   4.654   5.323   1.250 -3.0667  1.8624 -0.6174
 7702TIP3    H223071   4.686   5.345   1.104 -0.5338 -0.1989 -0.4575
 7703TIP3   OH223072   4.351   0.489   1.888 -0.9500  0.1787  0.2153
 7703TIP3    H123073   4.369   0.519   1.977  1.0255  0.0033 -0.0902
 7703TIP3    H223074   4.282   0.547   1.857  0.1579  1.9688  0.9452
 7704TIP3   OH223075   3.382   4.755   4.635 -0.3706  0.2618  0.5990
 7704TIP3    H123076   3.464   4.804   4.627 -0.4885  0.4325  0.4144
 7704TIP3    H223077   3.318   4.820   4.663 -0.3527  0.0402  1.1605
 7705TIP3   OH223078   2.160   2.587   5.632  0.1792 -0.5074 -0.2833
 7705TIP3    H123079   2.255   2.595   5.646  0.0544 -0.2412  0.4321
 7705TIP3    H223080   2.130   2.534   5.706 -0.4617  0.7386  0.3809
 7706TIP3   OH223081   4.839   3.082   3.624  0.0121 -0.5363  0.4376
 7706TIP3    H123082   4.763   3.024   3.622  0.9776 -1.8193 -0.9817
 7706TIP3    H223083   4.893   3.049   3.696  1.2647 -2.4423 -1.2654
 7707TIP3   OH223084   3.228   2.859   0.916  0.0891  0.2151  0.0994
 7707TIP3    H123085   3.241   2.884   0.825 -0.0783  0.1805  0.0646
 7707TIP3    H223086   3.262   2.770   0.922  0.2252  0.2668  0.1039
 7708TIP3   OH223087   1.650   0.764   4.205  0.4175 -0.4857  0.4382
 7708TIP3    H123088   1.696   0.800   4.129  2.9136 -0.5981  1.7862
 7708TIP3    H223089   1.607   0.839   4.245 -1.2231 -0.4767 -1.1970
 7709TIP3   OH223090   0.383   3.972   1.147 -0.4204 -0.0903  0.6143
 7709TIP3    H123091   0.427   4.049   1.184 -0.1753  0.0674  0.0196
 7709TIP3    H223092   0.321   4.008   1.083 -0.6663 -0.3639  0.6952
 7710TIP3   OH223093   6.348   5.758   5.406  0.2146  0.2211  0.0763
 7710TIP3    H123094   6.346   5.782   5.313  2.6574 -2.1881 -0.7084
 7710TIP3    H223095   6.417   5.813   5.443 -1.0632  1.5158  0.6799
 7711TIP3   OH223096   5.697   6.072   4.304 -0.1101  0.2752  0.2548
 7711TIP3    H123097   5.606   6.050   4.321 -0.1254  0.0745 -0.0779
 7711TIP3    H223098   5.700   6.168   4.309 -0.4464  0.3152 -0.2536
 7712TIP3   OH223099   6.212   6.090   5.792 -0.1605  0.2455  0.1648
 7712TIP3    H123100   6.138   6.149   5.782  0.5439  1.3797  1.3072
 7712TIP3    H223101   6.239   6.069   5.702 -1.1118  0.7692 -0.2546
 7713TIP3   OH223102   4.191   2.358   3.922  0.3654 -0.5759 -0.3553
 7713TIP3    H123103   4.111   2.402   3.951 -0.0451 -0.7693 -1.1343
 7713TIP3    H223104   4.181   2.268   3.951  1.0225 -0.2641  0.8919
 7714TIP3   OH223105   6.629   2.450   3.897  0.0497 -0.3595 -0.1361
 7714TIP3    H123106   6.624   2.491   3.811 -1.1863  0.0594  0.1139
 7714TIP3    H223107   6.716   2.473   3.931 -0.1165  0.9215 -0.5514
 7715TIP3   OH223108   4.056   3.302   5.741 -0.3699  0.1065  0.5636
 7715TIP3    H123109   4.083   3.211   5.731  0.7941  0.4188  0.7238
 7715TIP3    H223110   4.044   3.335   5.652  1.5626  0.4565  0.3963
 7716TIP3   OH223111   3.365   6.415   4.982  0.1196 -0.6454  0.0505
 7716TIP3    H123112   3.332   6.340   4.934  1.0237 -0.1098 -1.4954
 7716TIP3    H223113   3.450   6.433   4.943  0.3981  0.5218  1.1148
 7717TIP3   OH223114   6.035   1.943   4.753  0.0330  0.1215 -0.1682
 7717TIP3    H123115   6.129   1.942   4.731  0.1451 -0.9754  0.2952
 7717TIP3    H223116   6.033   1.935   4.848 -0.5249  1.4121 -0.0501
 7718TIP3   OH223117   0.480   4.906   3.920 -0.6418  0.5217 -0.0541
 7718TIP3    H123118   0.561   4.857   3.929 -0.2637  1.1822  0.1990
 7718TIP3    H223119   0.423   4.849   3.869 -0.0851 -0.0255 -0.0719
 7719TIP3   OH223120   6.094   4.686   2.482 -0.0847 -0.1377  0.2041
 7719TIP3    H123121   6.178   4.677   2.527  0.1619 -1.2281 -0.4550
 7719TIP3    H223122   6.038   4.730   2.546  0.2328 -1.7175  1.6370
 7720TIP3   OH223123   5.387   2.764   0.832 -0.1009 -0.4332  0.0611
 7720TIP3    H123124   5.332   2.756   0.909 -0.2757 -0.9518 -0.1093
 7720TIP3    H223125   5.343   2.710   0.766 -2.4956  3.5291 -1.9251
 7721TIP3   OH223126   2.001   2.969   5.401  0.0393 -0.2001 -0.0025
 7721TIP3    H123127   2.026   2.878   5.386 -0.8837 -0.4032 -0.4411
 7721TIP3    H223128   2.072   3.021   5.364  0.8457 -0.7402  0.7708
 7722TIP3   OH223129   1.875   3.702   3.091 -0.0683  0.6390 -0.0308
 7722TIP3    H123130   1.868   3.748   3.007  0.1010  1.0879  0.1961
 7722TIP3    H223131   1.961   3.728   3.125 -0.5294  1.2240  0.7209
 7723TIP3   OH223132   4.615   4.115  -0.020  0.2277 -0.2973 -0.7136
 7723TIP3    H123133   4.648   4.204  -0.014 -2.2872  0.6825 -0.2550
 7723TIP3    H223134   4.666   4.066   0.044  0.6148  1.1558  0.1311
 7724TIP3   OH223135   4.281   3.500   2.139 -0.0987 -0.1864  0.3519
 7724TIP3    H123136   4.348   3.454   2.088 -0.1442  0.0869  0.0421
 7724TIP3    H223137   4.220   3.431   2.166 -0.6276 -0.2075 -0.8245
 7725TIP3   OH223138   6.227   1.807   1.658 -0.2456 -0.0298  0.0605
 7725TIP3    H123139   6.190   1.816   1.570  0.2548  0.0537 -0.1420
 7725TIP3    H223140   6.209   1.890   1.700 -1.7462 -0.5571  0.5262
 7726TIP3   OH223141   1.693   5.462   5.064 -0.1235  0.5203 -0.8719
 7726TIP3    H123142   1.651   5.484   5.148 -1.4469 -0.7931 -1.1551
 7726TIP3    H223143   1.630   5.489   4.998  0.2077  0.0604 -1.3848
 7727TIP3   OH223144   1.192   1.463   1.906 -0.0004  0.4716  0.0893
 7727TIP3    H123145   1.247   1.484   1.831 -0.0412 -1.5718 -0.5722
 7727TIP3    H223146   1.253   1.432   1.973 -0.1568  0.0977  0.0626
 7728TIP3   OH223147   3.467   3.558   4.774  0.1550 -0.0089  0.0732
 7728TIP3    H123148   3.530   3.626   4.797 -2.3179  1.7294  2.2545
 7728TIP3    H223149   3.462   3.502   4.852 -1.8848  0.6987  0.5235
 7729TIP3   OH223150   4.765   3.462   5.838  0.0079  0.0009 -0.3202
 7729TIP3    H123151   4.699   3.532   5.836 -0.0920 -0.1066 -1.1185
 7729TIP3    H223152   4.753   3.421   5.923 -0.3735  0.5433 -0.1059
 7730TIP3   OH223153   4.098   4.213   4.247 -0.0283  0.0584 -0.7360
 7730TIP3    H123154   4.194   4.205   4.242 -0.0545 -0.5991 -0.2526
 7730TIP3    H223155   4.066   4.124   4.235 -0.5831  0.2607 -0.7677
 7731TIP3   OH223156   1.790   4.951   4.132  0.1194 -0.0421 -0.5712
 7731TIP3    H123157   1.785   5.023   4.069 -0.6275  0.0132 -0.4567
 7731TIP3    H223158   1.730   4.977   4.202 -0.9921 -1.2563 -1.0273
 7732TIP3   OH223159   5.545   1.597   2.638 -0.0157  0.0403 -0.4338
 7732TIP3    H123160   5.535   1.689   2.612  1.2339  1.0667  2.3591
 7732TIP3    H223161   5.634   1.592   2.672 -0.4434 -1.9312  0.4943
 7733TIP3   OH223162   1.195   6.499   1.380 -0.1643  0.1693 -0.1680
 7733TIP3    H123163   1.122   6.485   1.319 -0.3561 -1.6426  0.4104
 7733TIP3    H223164   1.261   6.435   1.354  0.5073  0.6082  0.4056
 7734TIP3   OH223165   4.542   1.771   0.549 -0.2157 -0.4215  0.0155
 7734TIP3    H123166   4.634   1.794   0.540  0.0435 -0.6161  1.7820
 7734TIP3    H223167   4.541   1.701   0.615 -1.6835  0.1986  0.7004
 7735TIP3   OH223168   2.217   6.794   4.072  0.0527  0.7125  0.2004
 7735TIP3    H123169   2.275   6.741   4.126  0.9088  0.6701 -0.7217
 7735TIP3    H223170   2.143   6.737   4.052  1.1730 -0.3456 -1.1582
 7736TIP3   OH223171   2.291   5.466   4.756 -0.1555 -0.2930  0.2915
 7736TIP3    H123172   2.272   5.372   4.745 -0.1260 -0.1553 -1.1561
 7736TIP3    H223173   2.378   5.477   4.717 -0.4637  0.4533 -0.2092
 7737TIP3   OH223174   1.215   6.645   3.377  0.0295 -0.2969  0.2437
 7737TIP3    H123175   1.216   6.685   3.464  3.1506  0.1480  0.1024
 7737TIP3    H223176   1.300   6.601   3.370  0.6044  1.0612 -3.1608
 7738TIP3   OH223177   5.405   2.432   5.198  0.4541  0.7925  0.1451
 7738TIP3    H123178   5.453   2.507   5.230  0.4940  1.0169 -0.4257
 7738TIP3    H223179   5.470   2.379   5.152  0.3085  0.7166  0.0241
 7739TIP3   OH223180   1.872   6.274   4.898  0.5798  0.1906 -0.1808
 7739TIP3    H123181   1.841   6.313   4.817 -1.7585 -2.1062 -0.5382
 7739TIP3    H223182   1.913   6.192   4.872  1.1449  0.1264  0.8467
 7740TIP3   OH223183   4.974   3.743   5.765  0.1095 -0.6107  0.2170
 7740TIP3    H123184   4.942   3.656   5.789  1.2508 -0.8742  0.8718
 7740TIP3    H223185   5.015   3.730   5.680 -0.4814 -0.5153 -0.0902
 7741TIP3   OH223186   5.056   1.035   5.432  0.3451  0.0345  0.3325
 7741TIP3    H123187   5.058   1.059   5.525 -0.3255 -1.0072  0.6375
 7741TIP3    H223188   4.984   1.085   5.396 -0.0445 -0.3223  0.6084
 7742TIP3   OH223189   2.733   2.111   2.180  0.2639 -0.3200 -0.3283
 7742TIP3    H123190   2.826   2.108   2.202  0.6303 -1.3390 -1.8421
 7742TIP3    H223191   2.688   2.094   2.263  1.4641 -0.7663  0.2478
 7743TIP3   OH223192   3.889   1.277   5.401 -0.0406  0.1978  0.4391
 7743TIP3    H123193   3.877   1.221   5.325 -1.0472  0.9761  0.0050
 7743TIP3    H223194   3.938   1.223   5.464 -0.2192 -0.8418 -0.3028
 7744TIP3   OH223195   6.642   2.105   5.647 -0.1713 -0.3087 -0.2914
 7744TIP3    H123196   6.720   2.105   5.703 -0.0969  0.0564 -0.3892
 7744TIP3    H223197   6.675   2.134   5.561 -0.6669  1.4232  0.0569
 7745TIP3   OH223198   0.428   0.699   0.413  0.0873 -0.4180  0.2956
 7745TIP3    H123199   0.437   0.775   0.355  1.3081 -0.8899 -0.1749
 7745TIP3    H223200   0.512   0.695   0.460  0.1761 -1.6551  0.0649
 7746TIP3   OH223201   4.782   2.694   1.792  0.3788  0.3144 -0.2411
 7746TIP3    H123202   4.740   2.677   1.876  2.6739 -0.2572  0.8774
 7746TIP3    H223203   4.710   2.712   1.732 -1.3765 -0.0216  1.6614
 7747TIP3   OH223204   6.934   6.462   3.147 -0.2324  0.6683 -0.3568
 7747TIP3    H123205   6.887   6.532   3.102 -1.1692 -0.7833 -1.7239
 7747TIP3    H223206   6.909   6.472   3.239  0.5965  2.8140 -0.3034
 7748TIP3   OH223207   2.465   0.497   4.935 -0.0620  0.0404 -0.5986
 7748TIP3    H123208   2.479   0.509   4.841  4.2141  0.5657 -0.0618
 7748TIP3    H223209   2.506   0.413   4.955  0.7621  0.8098  1.0608
 7749TIP3   OH223210   6.310   5.613   5.703  0.0526  0.3134  0.5246
 7749TIP3    H123211   6.349   5.546   5.647  1.1316  0.7910  0.6680
 7749TIP3    H223212   6.341   5.696   5.666  0.8831  0.6388  1.8670
 7750TIP3   OH223213   3.506   4.562   0.589 -0.4264 -0.3067 -0.1512
 7750TIP3    H123214   3.572   4.593   0.527 -0.1857  1.4460  0.9117
 7750TIP3    H223215   3.515   4.467   0.589  0.2750 -0.2842 -1.9902
 7751TIP3   OH223216   5.902   0.127   2.657 -0.0646  0.4573  0.1874
 7751TIP3    H123217   5.853   0.189   2.602  0.9707 -0.2332 -1.6049
 7751TIP3    H223218   5.974   0.098   2.601 -0.4116 -2.2591  1.0149
 7752TIP3   OH223219   2.570   0.858   2.515 -0.1772  0.4857  0.7312
 7752TIP3    H123220   2.603   0.860   2.425  0.1476  0.5352  0.8498
 7752TIP3    H223221   2.492   0.912   2.512  0.1959  1.0338  0.6154
 7753TIP3   OH223222   6.251   4.522   1.455  0.0128  0.5043 -0.0707
 7753TIP3    H123223   6.249   4.616   1.439  0.3089  0.4263 -0.5935
 7753TIP3    H223224   6.159   4.499   1.468 -0.0289  0.9159  0.3863
 7754TIP3   OH223225   1.140   0.222   0.599 -0.1983 -0.3437  0.3556
 7754TIP3    H123226   1.147   0.295   0.537 -1.9093  0.0587  0.6042
 7754TIP3    H223227   1.115   0.147   0.546 -0.3093 -0.3112  0.3614
 7755TIP3   OH223228   3.268   2.417   2.127 -0.0707  0.1734 -0.2838
 7755TIP3    H123229   3.188   2.388   2.170  0.2687 -2.0075 -0.9958
 7755TIP3    H223230   3.311   2.473   2.191 -0.1917 -1.9186  1.7627
 7756TIP3   OH223231   4.305   2.567   2.827 -0.1192  0.0639 -0.6573
 7756TIP3    H123232   4.212   2.545   2.822 -0.2972  0.6025  0.1423
 7756TIP3    H223233   4.349   2.482   2.838 -0.1465 -0.6563 -4.6958
 7757TIP3   OH223234   7.087   3.558   0.805 -0.9538 -0.0814 -0.1024
 7757TIP3    H123235   7.017   3.519   0.753 -0.8997 -1.3724  0.7353
 7757TIP3    H223236   7.061   3.542   0.896 -0.0453  0.2921  0.2354
 7758TIP3   OH223237   1.984   0.496   5.387 -0.0739  0.0929  0.5968
 7758TIP3    H123238   2.029   0.491   5.471 -0.3140 -0.3895  0.7043
 7758TIP3    H223239   2.042   0.548   5.331  1.8444 -2.4675 -0.0061
 7759TIP3   OH223240   3.653   6.410   2.806 -0.1322 -0.0650  0.4230
 7759TIP3    H123241   3.573   6.390   2.855 -1.2626  0.1169 -1.2671
 7759TIP3    H223242   3.688   6.487   2.849 -1.9364  1.0157  0.0702
 7760TIP3   OH223243   1.186   3.148   5.072  0.2297 -0.3659  0.3713
 7760TIP3    H123244   1.136   3.169   5.151 -0.0154 -2.0087  0.6865
 7760TIP3    H223245   1.277   3.162   5.096  0.2418 -1.8488  1.3231
 7761TIP3   OH223246   6.197   3.454   1.973  0.2370 -0.5683 -0.3543
 7761TIP3    H123247   6.214   3.410   1.889 -0.6274 -0.1361 -0.7690
 7761TIP3    H223248   6.178   3.545   1.949  1.6473 -0.0312  0.4678
 7762TIP3   OH223249   6.470   5.460   0.237 -0.0466 -0.3817 -0.2175
 7762TIP3    H123250   6.539   5.394   0.230  0.8755  0.5958 -0.8298
 7762TIP3    H223251   6.452   5.466   0.331 -0.6753 -1.9991 -0.2153
 7763TIP3   OH223252   6.880   2.028   3.587 -0.4003  0.3341 -0.5351
 7763TIP3    H123253   6.836   1.986   3.660 -0.2236  1.2503  0.1246
 7763TIP3    H223254   6.935   1.959   3.548 -0.7429 -0.2399 -0.0066
 7764TIP3   OH223255   2.019   3.485   3.402  1.1073 -0.0898  0.4327
 7764TIP3    H123256   1.936   3.444   3.422  0.7401  0.4673  0.0791
 7764TIP3    H223257   2.003   3.579   3.412  1.8080  0.0039  0.7923
 7765TIP3   OH223258   6.891   1.814   3.057 -0.0904 -0.5309  0.4282
 7765TIP3    H123259   6.979   1.798   3.023 -0.3001  0.6673 -0.7587
 7765TIP3    H223260   6.838   1.745   3.018 -0.2140  0.4844 -1.3231
 7766TIP3   OH223261   5.680   0.527   0.102  0.0072 -0.1395 -0.0359
 7766TIP3    H123262   5.656   0.486   0.185 -0.4872 -0.0841 -0.1486
 7766TIP3    H223263   5.653   0.619   0.112 -1.8035 -0.5341 -0.9413
 7767TIP3   OH223264   4.511   6.561   1.271 -0.4152 -0.4210  0.1535
 7767TIP3    H123265   4.540   6.622   1.203 -0.3911  2.4168  2.5281
 7767TIP3    H223266   4.589   6.508   1.290  0.5988  1.0550  0.2639
 7768TIP3   OH223267   1.862   5.901   1.764  0.5075 -0.1681 -0.2347
 7768TIP3    H123268   1.795   5.967   1.744 -0.1312 -0.4424  0.8843
 7768TIP3    H223269   1.903   5.881   1.679 -0.9599 -0.1281 -0.9866
 7769TIP3   OH223270   4.415   3.721   5.592  0.1371  0.1207  0.1792
 7769TIP3    H123271   4.378   3.806   5.617 -1.4024 -0.5210  0.1595
 7769TIP3    H223272   4.347   3.657   5.615  1.7313 -1.2492  1.3170
 7770TIP3   OH223273   4.918   3.711   5.098  0.4177 -0.2208 -0.4936
 7770TIP3    H123274   4.930   3.769   5.173 -0.9596 -1.6639  0.9324
 7770TIP3    H223275   5.002   3.668   5.087  0.6380  0.0137  0.2255
 7771TIP3   OH223276   3.833   4.441   4.142  0.1734  0.2443  0.1872
 7771TIP3    H123277   3.903   4.488   4.187  0.2973  0.4511 -0.2191
 7771TIP3    H223278   3.752   4.477   4.179  0.2602 -1.2602  1.9772
 7772TIP3   OH223279   5.319   3.308   0.519  0.5288 -0.0747  0.4686
 7772TIP3    H123280   5.368   3.260   0.453  2.4035  1.0973  0.9565
 7772TIP3    H223281   5.260   3.243   0.558  0.8251 -1.2261 -0.9644
 7773TIP3   OH223282   2.207   5.503   5.108 -0.3827  0.3116 -0.5947
 7773TIP3    H123283   2.129   5.520   5.055 -0.7130  0.1330 -0.1722
 7773TIP3    H223284   2.226   5.410   5.094 -1.9547 -0.4112  1.5071
 7774TIP3   OH223285   3.556   2.899   2.948 -0.1763 -0.1242  0.2283
 7774TIP3    H123286   3.484   2.950   2.914 -1.4424 -1.8840  0.1083
 7774TIP3    H223287   3.573   2.936   3.035  0.2277  1.6519 -0.5715
 7775TIP3   OH223288   5.368   0.815   3.763  0.3715  0.8656 -0.4147
 7775TIP3    H123289   5.356   0.727   3.798  3.8564 -0.5782 -2.3363
 7775TIP3    H223290   5.296   0.827   3.701 -0.2697 -0.5117  0.0264
 7776TIP3   OH223291   4.410   2.038   1.399 -0.6686 -0.7687 -0.0127
 7776TIP3    H123292   4.380   2.047   1.490 -0.4497 -1.5766  0.1497
 7776TIP3    H223293   4.486   2.095   1.393 -0.7465 -0.6329  0.2841
 7777TIP3   OH223294   6.153   1.391   5.349  0.1520 -0.0317 -0.0503
 7777TIP3    H123295   6.082   1.335   5.319  0.6651 -0.8181  0.1738
 7777TIP3    H223296   6.162   1.370   5.442  2.0145 -1.4702 -0.4971
 7778TIP3   OH223297   2.447   0.239   3.350 -0.3664 -0.1732  0.2875
 7778TIP3    H123298   2.531   0.211   3.388  0.5132  0.5203 -1.0491
 7778TIP3    H223299   2.418   0.311   3.405  0.3901  0.1718  0.2562
 7779TIP3   OH223300   0.614   4.978   3.368  0.2012  0.5726 -0.0952
 7779TIP3    H123301   0.647   5.038   3.302 -2.3442  1.2723 -0.8273
 7779TIP3    H223302   0.577   5.035   3.436 -2.2934 -0.0600 -0.8175
 7780TIP3   OH223303   4.001   1.525   5.638  0.4279  0.2424 -0.0852
 7780TIP3    H123304   3.955   1.521   5.722  1.7467  0.2416  0.6507
 7780TIP3    H223305   4.067   1.457   5.644 -0.9993 -1.4449 -2.1060
 7781TIP3   OH223306   4.896   5.452   2.835 -0.2050 -0.5007 -0.6636
 7781TIP3    H123307   4.811   5.479   2.800  0.0815  1.0849 -0.2497
 7781TIP3    H223308   4.874   5.403   2.915 -0.7533  0.5088 -0.1586
 7782TIP3   OH223309   5.746   2.190   0.174  0.0465 -0.3197 -0.0522
 7782TIP3    H123310   5.704   2.111   0.208 -0.0883 -0.2023  0.0554
 7782TIP3    H223311   5.683   2.260   0.192 -0.0775 -0.2685 -0.6357
 7783TIP3   OH223312   3.885   6.335   1.836 -0.1360 -0.0702  0.5543
 7783TIP3    H123313   3.962   6.283   1.859 -0.2865 -1.0666 -1.0114
 7783TIP3    H223314   3.890   6.345   1.741 -1.5381  0.4882  0.5155
 7784TIP3   OH223315   1.826   3.923   3.420  0.9526 -0.1394 -0.2328
 7784TIP3    H123316   1.764   3.993   3.441  1.0360 -0.4422  1.0657
 7784TIP3    H223317   1.773   3.856   3.377  0.8536  0.6403 -1.3920
 7785TIP3   OH223318   3.705   0.709   0.731  0.2417  0.0172 -0.2304
 7785TIP3    H123319   3.674   0.797   0.753 -3.6359 -1.3195  0.4237
 7785TIP3    H223320   3.731   0.672   0.816  0.6075  0.0675 -0.3176
 7786TIP3   OH223321   1.230   6.404   5.436  0.4685 -0.4300  0.0790
 7786TIP3    H123322   1.299   6.350   5.476 -0.0892 -0.1794  1.4115
 7786TIP3    H223323   1.221   6.368   5.347  0.3832 -2.3022  0.7932
 7787TIP3   OH223324   0.133   3.237   5.235 -0.1293 -0.1511  0.0951
 7787TIP3    H123325   0.063   3.252   5.173 -2.1181  2.3928  2.7092
 7787TIP3    H223326   0.197   3.307   5.218 -0.0690 -0.2001  0.1165
 7788TIP3   OH223327   0.640   2.021   4.030 -0.1740  0.0374 -0.6390
 7788TIP3    H123328   0.709   2.037   3.965  1.9455 -1.4611  1.0610
 7788TIP3    H223329   0.616   1.929   4.018 -0.5132  0.0351 -0.0164
 7789TIP3   OH223330   5.457   4.897   4.975  0.6364 -0.3029 -0.3495
 7789TIP3    H123331   5.430   4.953   4.903  1.7191  0.4467 -0.1912
 7789TIP3    H223332   5.551   4.883   4.961  0.7390 -0.6480  0.5771
 7790TIP3   OH223333   4.246   6.466   3.030 -0.5344 -0.2948 -0.6032
 7790TIP3    H123334   4.152   6.485   3.027 -0.4772  0.1047 -0.0003
 7790TIP3    H223335   4.262   6.439   3.121  0.2409  1.2937 -0.2392
 7791TIP3   OH223336   6.901   4.894   3.248  0.1784  0.3013 -0.3791
 7791TIP3    H123337   6.809   4.893   3.273  0.1299 -0.2037 -0.5651
 7791TIP3    H223338   6.919   4.986   3.229  0.1947  0.6923  1.3657
 7792TIP3   OH223339   1.693   3.142   2.596  0.2552  0.2477  0.5501
 7792TIP3    H123340   1.666   3.058   2.560 -0.6174  1.1188 -0.9525
 7792TIP3    H223341   1.763   3.121   2.657  1.0611 -1.4328 -0.8674
 7793TIP3   OH223342   2.779   4.241   3.887 -0.5871 -0.6897 -0.2457
 7793TIP3    H123343   2.716   4.296   3.933  1.2283 -0.0257  1.5921
 7793TIP3    H223344   2.750   4.242   3.796 -2.7001  0.2766  0.3847
 7794TIP3   OH223345   1.928   5.696   2.724 -0.8204 -0.2425  0.1379
 7794TIP3    H123346   1.996   5.631   2.710 -0.8840 -0.6157  1.3678
 7794TIP3    H223347   1.878   5.697   2.643  1.5805  1.2337 -1.4421
 7795TIP3   OH223348   3.355   3.449   5.773  0.3262 -0.8200  0.1133
 7795TIP3    H123349   3.333   3.516   5.837  0.1468 -2.1072  1.4472
 7795TIP3    H223350   3.276   3.439   5.720 -0.0744 -0.8265  0.7024
 7796TIP3   OH223351   1.762   5.596   1.535  0.3886  0.0907 -0.0721
 7796TIP3    H123352   1.747   5.615   1.628 -0.2593  1.0893 -0.3715
 7796TIP3    H223353   1.843   5.544   1.535 -0.2843 -1.0193  1.1434
 7797TIP3   OH223354   3.707   4.564   4.851 -0.3780  0.5624  0.1175
 7797TIP3    H123355   3.769   4.634   4.870  0.3299  0.3053 -1.0761
 7797TIP3    H223356   3.660   4.594   4.773 -1.5292  0.5979  0.8051
 7798TIP3   OH223357   0.064   2.808   4.812  0.0617  0.3948 -0.1294
 7798TIP3    H123358   0.057   2.724   4.858 -0.4687  0.2459 -0.4727
 7798TIP3    H223359   0.108   2.787   4.730  0.6511  0.5945  0.1281
 7799TIP3   OH223360   0.144   6.431   3.717 -0.1027  1.0490  0.4911
 7799TIP3    H123361   0.079   6.360   3.712  1.0370  0.0529 -1.9615
 7799TIP3    H223362   0.167   6.436   3.810 -1.2264 -0.8616  0.9256
 7800TIP3   OH223363   6.248   5.189   0.055 -0.7030  0.3913 -0.3995
 7800TIP3    H123364   6.230   5.116  -0.003  0.9841 -2.2450  2.1374
 7800TIP3    H223365   6.169   5.196   0.109 -0.8096  0.3624 -0.5502
 7801TIP3   OH223366   0.706   1.426   5.025  1.0830  0.3855 -0.0691
 7801TIP3    H123367   0.737   1.417   4.934  0.9629 -1.4531  0.0245
 7801TIP3    H223368   0.625   1.375   5.027 -0.3040  2.5154  0.4811
 7802TIP3   OH223369   3.599   5.262   3.839  0.1211 -0.2812  0.2600
 7802TIP3    H123370   3.652   5.284   3.763 -0.7034 -1.1564 -0.6021
 7802TIP3    H223371   3.622   5.171   3.859  0.7059  0.1004  1.3941
 7803TIP3   OH223372   1.746   5.174   1.479 -0.6253 -0.3356 -0.4885
 7803TIP3    H123373   1.834   5.174   1.441  0.0407  1.7362  0.8487
 7803TIP3    H223374   1.688   5.199   1.407 -0.0569 -1.1197 -1.2375
 7804TIP3   OH223375   5.957   1.462   5.703  0.0627 -0.4420  0.1435
 7804TIP3    H123376   5.888   1.459   5.636 -1.6282 -1.9290  1.8469
 7804TIP3    H223377   5.913   1.497   5.780  1.8951  0.9302  0.6284
 7805TIP3   OH223378   5.927   2.907   5.616 -0.1032 -0.0140  0.3069
 7805TIP3    H123379   5.839   2.892   5.650 -0.4231 -1.7189 -1.1161
 7805TIP3    H223380   5.923   2.877   5.525  2.5320 -2.4443  0.8466
 7806TIP3   OH223381   2.305   1.817   3.917  1.1887  0.4982 -0.4053
 7806TIP3    H123382   2.300   1.759   3.992  1.5769  1.4097  0.3459
 7806TIP3    H223383   2.269   1.766   3.844  1.7463 -0.7583  0.1722
 7807TIP3   OH223384   4.613   1.283   5.831  0.1535 -0.2585  0.5190
 7807TIP3    H123385   4.610   1.235   5.915 -0.1917 -2.9941 -0.9225
 7807TIP3    H223386   4.557   1.231   5.773  0.8550  1.2232 -1.5814
 7808TIP3   OH223387   0.614   6.048   5.696 -0.5341 -0.3866 -0.0393
 7808TIP3    H123388   0.668   6.127   5.700  0.7604 -1.2691  3.1637
 7808TIP3    H223389   0.671   5.982   5.657  0.1116 -0.8433  1.6006
 7809TIP3   OH223390   3.619   5.372   5.531  0.3979 -0.1412 -0.4392
 7809TIP3    H123391   3.635   5.457   5.490 -0.3073 -0.3036 -1.0751
 7809TIP3    H223392   3.617   5.391   5.625 -0.9282  0.7675 -0.6227
 7810TIP3   OH223393   5.036   5.962   2.899 -0.2489 -0.3090 -0.8711
 7810TIP3    H123394   4.987   5.885   2.927  0.3515 -1.2137 -2.2083
 7810TIP3    H223395   5.041   5.954   2.803  1.4674  0.3587 -0.8775
 7811TIP3   OH223396   6.113   4.121   4.281  0.1350 -0.1667  0.4750
 7811TIP3    H123397   6.155   4.098   4.364  0.4799  2.1302  1.0184
 7811TIP3    H223398   6.179   4.101   4.215  1.2595  1.2092  1.1154
 7812TIP3   OH223399   4.203   0.962   5.796  0.3312  0.3117  0.7529
 7812TIP3    H123400   4.207   1.014   5.876  0.1869  2.2096 -0.3996
 7812TIP3    H223401   4.113   0.975   5.764  0.6379  0.2833 -0.1491
 7813TIP3   OH223402   1.513   2.923   0.348 -0.1361 -0.5109  0.2476
 7813TIP3    H123403   1.478   2.849   0.398 -1.3132  0.8107  1.4765
 7813TIP3    H223404   1.446   2.991   0.357  0.1705  0.2011 -2.1848
 7814TIP3   OH223405   6.689   6.423   5.509 -0.0322 -0.0011 -0.3083
 7814TIP3    H123406   6.730   6.442   5.424 -0.1921  0.3729 -0.3026
 7814TIP3    H223407   6.750   6.456   5.573 -0.3012  0.4859 -0.2980
 7815TIP3   OH223408   2.810   6.055   3.411  0.2153  0.3748  0.1980
 7815TIP3    H123409   2.872   6.052   3.339 -1.3031  2.6505 -1.3294
 7815TIP3    H223410   2.726   6.030   3.372 -0.9118  2.9151  0.7480
 7816TIP3   OH223411   2.828   0.272   1.410 -0.1640 -0.2913 -0.0548
 7816TIP3    H123412   2.807   0.305   1.497  0.0944 -2.0425  0.7066
 7816TIP3    H223413   2.769   0.319   1.351 -1.8756 -0.6366  1.3107
 7817TIP3   OH223414   7.056   1.934   1.753  0.0128 -0.6152  0.1834
 7817TIP3    H123415   6.997   1.927   1.678  1.2458 -1.3886 -0.7581
 7817TIP3    H223416   7.140   1.961   1.715  0.1451  1.1110  1.5618
 7818TIP3   OH223417   5.049   6.625   0.442 -0.2955  0.1870  0.9456
 7818TIP3    H123418   4.978   6.609   0.380 -0.1820 -1.0795  1.1122
 7818TIP3    H223419   5.120   6.662   0.390 -1.2087  1.8801  0.8509
 7819TIP3   OH223420   1.527   6.216   2.988  0.9911 -0.0371  0.1484
 7819TIP3    H123421   1.448   6.223   2.934  1.6561 -1.0080 -0.9912
 7819TIP3    H223422   1.524   6.293   3.045 -2.1696 -1.4150  2.1085
 7820TIP3   OH223423   3.063   4.084   3.356 -0.1665 -0.0084 -0.3269
 7820TIP3    H123424   3.066   4.153   3.290 -1.5255 -0.1614 -0.5729
 7820TIP3    H223425   3.093   4.126   3.436 -0.5136  0.7353 -0.5814
 7821TIP3   OH223426   5.711   3.775   1.530  0.0991  0.3409  0.0782
 7821TIP3    H123427   5.761   3.743   1.605  0.8823  1.6592  0.1548
 7821TIP3    H223428   5.755   3.738   1.454  2.6194  3.0902  0.0047
 7822TIP3   OH223429   6.898   5.003   2.986 -0.3119 -0.2693  0.5504
 7822TIP3    H123430   6.879   4.957   2.904 -3.9107 -0.1419  1.1452
 7822TIP3    H223431   6.879   4.938   3.054  0.0327  0.4181  1.3120
 7823TIP3   OH223432   4.808   4.648   0.667 -0.0910 -0.6272 -0.8487
 7823TIP3    H123433   4.805   4.743   0.653 -0.2914 -0.7047 -1.3607
 7823TIP3    H223434   4.866   4.616   0.599 -0.9265 -0.9957 -1.4072
 7824TIP3   OH223435   0.330   4.756   3.723  0.1183 -0.3057  0.7783
 7824TIP3    H123436   0.328   4.661   3.717  0.0584 -0.1909 -2.1553
 7824TIP3    H223437   0.247   4.785   3.684  0.8068  0.9888  0.2006
 7825TIP3   OH223438   5.465   1.879   2.523 -0.4243 -0.4532  0.2308
 7825TIP3    H123439   5.430   1.965   2.547 -0.4688 -0.4739  0.2391
 7825TIP3    H223440   5.418   1.854   2.444 -0.6362 -0.6131  0.4075
 7826TIP3   OH223441   5.062   3.275   5.262 -0.1295  0.5892 -0.1142
 7826TIP3    H123442   5.114   3.346   5.301 -0.0352  0.7323 -0.4994
 7826TIP3    H223443   5.054   3.299   5.170  0.5579 -0.2928 -0.4089
 7827TIP3   OH223444   3.241   1.333   4.479 -0.1196 -0.5519 -0.5023
 7827TIP3    H123445   3.311   1.292   4.428 -0.5857 -0.8798 -0.8897
 7827TIP3    H223446   3.207   1.401   4.420  0.2682  0.0099 -0.0845
 7828TIP3   OH223447   5.972   5.324   2.343 -0.3647 -0.1524  0.4602
 7828TIP3    H123448   5.951   5.322   2.436 -1.2219 -0.9285  0.2642
 7828TIP3    H223449   5.913   5.259   2.304  0.1773 -0.0313 -0.5814
 7829TIP3   OH223450   6.067   0.034   4.818 -0.0551 -0.4281 -0.4039
 7829TIP3    H123451   6.102  -0.022   4.749  0.1120 -1.4027  0.4500
 7829TIP3    H223452   6.141   0.048   4.877 -0.4668 -0.4810  0.1276
 7830TIP3   OH223453   1.012   4.259   5.097  0.0007 -0.4058 -0.6010
 7830TIP3    H123454   1.068   4.278   5.022  0.3057  0.0037 -0.2757
 7830TIP3    H223455   1.013   4.339   5.149 -0.7365 -0.4574 -0.4892
 7831TIP3   OH223456   5.573   1.503   4.460 -0.2000 -0.5815  0.1713
 7831TIP3    H123457   5.538   1.418   4.487 -1.0509 -1.0678 -2.2512
 7831TIP3    H223458   5.647   1.481   4.403  0.0883  0.3387  0.1708
 7832TIP3   OH223459   5.135   2.678   4.781  0.2061  0.3222  0.1580
 7832TIP3    H123460   5.145   2.739   4.854  2.0855 -0.9105  1.0215
 7832TIP3    H223461   5.048   2.640   4.794 -0.7972  2.4134 -0.1270
 7833TIP3   OH223462   1.296   5.915   2.113  0.8109 -0.4054 -0.3046
 7833TIP3    H123463   1.387   5.930   2.139  0.9094  0.3424 -1.0106
 7833TIP3    H223464   1.244   5.943   2.188  1.1285  0.3983 -0.3730
 7834TIP3   OH223465   2.364   6.067   5.094  0.5649 -0.0989  0.0868
 7834TIP3    H123466   2.309   5.994   5.122  0.1485  0.0456 -0.3282
 7834TIP3    H223467   2.316   6.105   5.020  0.8638  0.4792  0.1851
 7835TIP3   OH223468   2.202   4.441   2.215  0.2478  0.2326  0.1742
 7835TIP3    H123469   2.237   4.440   2.304 -0.8016  3.2736  0.7464
 7835TIP3    H223470   2.108   4.452   2.226 -0.2063 -1.5410 -1.3573
 7836TIP3   OH223471   3.885   6.320   0.621  0.3709 -0.5153  0.1444
 7836TIP3    H123472   3.808   6.289   0.574  1.0841  0.4858 -1.8049
 7836TIP3    H223473   3.855   6.395   0.671 -0.1404 -0.8235  0.3119
 7837TIP3   OH223474   5.766   0.678   1.957 -0.5190 -0.1583  0.0971
 7837TIP3    H123475   5.739   0.691   1.866  0.5453  2.8320  0.1062
 7837TIP3    H223476   5.804   0.590   1.957 -1.1917 -0.5333 -2.1550
 7838TIP3   OH223477   1.103   2.937   4.583  0.1523  0.5934 -0.1373
 7838TIP3    H123478   1.041   2.979   4.642  0.9614 -0.0880  1.2639
 7838TIP3    H223479   1.137   2.862   4.633  0.3964 -0.3996 -1.7198
 7839TIP3   OH223480   2.865   4.351   0.647  0.1943  0.1978 -0.0805
 7839TIP3    H123481   2.871   4.405   0.569 -0.3193  0.3082 -0.0437
 7839TIP3    H223482   2.901   4.267   0.620  1.2009  0.6106 -0.0783
 7840TIP3   OH223483   6.356   6.218   2.096  0.0494  0.4353  0.2601
 7840TIP3    H123484   6.280   6.184   2.144 -0.7552 -2.0281 -2.4095
 7840TIP3    H223485   6.432   6.177   2.137 -0.4466 -0.1917  0.5614
 7841TIP3   OH223486   6.168   6.479   0.396  0.0078  0.3404 -0.0203
 7841TIP3    H123487   6.215   6.518   0.323 -1.5387 -1.6338 -2.2354
 7841TIP3    H223488   6.128   6.400   0.359 -2.1161  0.0505  2.5866
 7842TIP3   OH223489   3.401   4.146   5.530  0.1853 -0.1501 -0.3262
 7842TIP3    H123490   3.315   4.187   5.518  0.3899  0.7330  1.0543
 7842TIP3    H223491   3.385   4.075   5.592  0.5509  0.4218  0.4356
 7843TIP3   OH223492   1.149   2.372   0.458  0.0322  0.0286  0.2960
 7843TIP3    H123493   1.106   2.287   0.466  0.5366 -0.2988 -0.3929
 7843TIP3    H223494   1.175   2.377   0.366  1.2315  0.3254  0.6395
 7844TIP3   OH223495   2.889   2.163   3.832  0.1220  0.2106  0.0198
 7844TIP3    H123496   2.824   2.189   3.898  0.8559  1.3017  0.3395
 7844TIP3    H223497   2.837   2.126   3.761 -0.7211 -0.5566  1.0035
 7845TIP3   OH223498   4.818   0.767   3.010  0.1317 -0.2149 -0.0117
 7845TIP3    H123499   4.725   0.768   3.034  0.2653  1.6691  0.6096
 7845TIP3    H223500   4.818   0.744   2.917 -1.2064  2.2651 -0.7191
 7846TIP3   OH223501   4.582   1.950   3.431  0.4151  1.1576  0.0677
 7846TIP3    H123502   4.495   1.956   3.469  0.4808 -0.5660  0.5524
 7846TIP3    H223503   4.589   1.861   3.398  1.6322  1.5647 -0.9027
 7847TIP3   OH223504   6.475   1.540   0.981 -0.1282 -0.6781  0.1695
 7847TIP3    H123505   6.450   1.505   1.067 -0.2193 -0.2737  0.3095
 7847TIP3    H223506   6.517   1.624   1.000 -0.8198 -0.2314 -0.2233
 7848TIP3   OH223507   6.030   2.189   2.876 -0.3590 -0.1706  0.1285
 7848TIP3    H123508   6.100   2.241   2.837  2.4793 -1.5078  2.9697
 7848TIP3    H223509   5.997   2.244   2.948 -2.3665  0.4378 -1.1608
 7849TIP3   OH223510   6.661   2.058   1.642  0.1655 -0.2256 -0.0466
 7849TIP3    H123511   6.569   2.060   1.614 -0.2304 -0.5846  1.1627
 7849TIP3    H223512   6.706   2.012   1.572 -0.2952  1.2693 -1.3934
 7850TIP3   OH223513   5.274   3.249   1.277  0.8688 -0.5845  0.2523
 7850TIP3    H123514   5.277   3.201   1.360  0.9357  0.9086  1.1539
 7850TIP3    H223515   5.180   3.261   1.260  0.8235 -1.7621 -0.4444
 7851TIP3   OH223516   3.829   4.827   2.979 -0.5828  0.3103  0.3362
 7851TIP3    H123517   3.788   4.745   3.007  0.6008 -0.7688 -0.8989
 7851TIP3    H223518   3.804   4.835   2.887  1.0140  0.1758 -0.1515
 7852TIP3   OH223519   3.465   3.137   5.445  0.2102  0.2893  0.2471
 7852TIP3    H123520   3.434   3.075   5.379  1.4037  0.0505 -0.1211
 7852TIP3    H223521   3.428   3.221   5.418 -1.9646 -0.3178  1.1156
 7853TIP3   OH223522   6.302   0.781   5.514  0.5034 -1.0042 -0.6077
 7853TIP3    H123523   6.293   0.877   5.512  0.0729 -1.0506 -0.9833
 7853TIP3    H223524   6.262   0.751   5.433  1.0140 -1.4797 -0.6939
 7854TIP3   OH223525   3.618   1.508   1.553  0.2041 -0.2741  0.0721
 7854TIP3    H123526   3.690   1.448   1.572  0.3051 -0.6619 -1.4503
 7854TIP3    H223527   3.563   1.504   1.632  0.5544 -1.8514  0.2831
 7855TIP3   OH223528   4.669   1.333   1.639  0.4856  0.2698  0.1366
 7855TIP3    H123529   4.643   1.327   1.548  0.8300 -0.7401  0.0957
 7855TIP3    H223530   4.587   1.331   1.688  0.2673  1.3620 -0.1604
 7856TIP3   OH223531   5.230   5.721   5.426  0.4215  0.2828  0.1537
 7856TIP3    H123532   5.224   5.799   5.370  0.1273 -0.0592 -0.3014
 7856TIP3    H223533   5.140   5.689   5.431  0.5760 -0.1637  0.1349
 7857TIP3   OH223534   3.484   3.041   1.725 -0.3537 -0.2699  0.4191
 7857TIP3    H123535   3.416   3.028   1.658 -1.5444  0.9735  1.3274
 7857TIP3    H223536   3.449   3.000   1.803  0.2367 -0.1802  0.7355
 7858TIP3   OH223537   4.117   0.451   0.262 -0.4345 -0.4580  0.4547
 7858TIP3    H123538   4.196   0.473   0.312 -1.1751  0.7623  1.1350
 7858TIP3    H223539   4.126   0.357   0.244  0.9855 -0.4274  0.8280
 7859TIP3   OH223540   3.434   3.153   4.163  0.7329  0.6035 -0.6771
 7859TIP3    H123541   3.483   3.199   4.231  3.9560  1.6752 -3.4222
 7859TIP3    H223542   3.483   3.072   4.148  0.2594  0.5027 -1.8176
 7860TIP3   OH223543   3.179   3.767   1.971  0.6723 -0.1725  0.0208
 7860TIP3    H123544   3.141   3.720   2.045  1.7602 -0.4002  0.4478
 7860TIP3    H223545   3.210   3.697   1.913 -0.2509  0.0017 -0.7081
 7861TIP3   OH223546   0.179   0.945   3.283 -0.9925  0.3210 -0.6062
 7861TIP3    H123547   0.171   0.957   3.378 -0.3565  0.2920 -0.5422
 7861TIP3    H223548   0.090   0.927   3.253 -1.2117  0.4225 -0.0274
 7862TIP3   OH223549   6.533   0.972   3.165  0.4192 -0.3823  0.0274
 7862TIP3    H123550   6.501   0.989   3.254  1.1263 -1.5671  0.5321
 7862TIP3    H223551   6.607   1.032   3.154 -0.9361  1.2308 -0.5519
 7863TIP3   OH223552   5.767   1.564   5.864 -0.2999 -0.0793 -0.2700
 7863TIP3    H123553   5.707   1.590   5.794 -2.5420  1.3294  1.9674
 7863TIP3    H223554   5.776   1.643   5.918  0.5958 -1.3250  1.5012
 7864TIP3   OH223555   1.561   6.360   1.784  0.4469  0.2727 -0.0391
 7864TIP3    H123556   1.575   6.286   1.725  0.0300  0.0424  0.1504
 7864TIP3    H223557   1.645   6.406   1.785  0.5959  0.0146 -0.4465
 7865TIP3   OH223558   1.237   2.781   0.739  0.4030 -0.0503 -0.3804
 7865TIP3    H123559   1.150   2.806   0.708  0.7172  1.5561 -0.0656
 7865TIP3    H223560   1.288   2.768   0.659  0.0956 -0.1386 -0.5634
 7866TIP3   OH223561   6.483   1.709   2.520  0.0430  0.1832  0.4720
 7866TIP3    H123562   6.453   1.678   2.605  0.7814  0.2343  0.7649
 7866TIP3    H223563   6.436   1.791   2.505  0.4733  0.5656  1.1892
 7867TIP3   OH223564   3.757   4.350   0.299 -0.2898 -0.0518 -0.2081
 7867TIP3    H123565   3.730   4.339   0.208 -0.8146  2.8123 -0.4832
 7867TIP3    H223566   3.690   4.304   0.350 -2.2445  1.5870 -1.1585
 7868TIP3   OH223567   6.262   2.397   0.221 -0.0098  0.1385 -0.4902
 7868TIP3    H123568   6.319   2.455   0.171  0.0380  0.8220  0.3375
 7868TIP3    H223569   6.319   2.358   0.287  0.2311 -1.7936 -1.7351
 7869TIP3   OH223570   7.103   5.684   1.160 -0.0651  0.8185 -0.3734
 7869TIP3    H123571   7.129   5.630   1.235 -1.7040  0.3943 -0.0758
 7869TIP3    H223572   7.081   5.769   1.198 -2.4335  0.1423 -0.0914
 7870TIP3   OH223573   6.172   1.020   3.397  0.1556 -0.2100  0.9389
 7870TIP3    H123574   6.096   0.970   3.427 -0.5313  0.1589 -0.1253
 7870TIP3    H223575   6.222   0.958   3.344 -0.9462  0.3026 -0.7822
 7871TIP3   OH223576   0.389   1.205   0.725 -0.1520 -0.2331  0.2860
 7871TIP3    H123577   0.452   1.246   0.784 -0.4372 -1.0995  1.2079
 7871TIP3    H223578   0.397   1.111   0.740  1.9426 -0.8111 -3.2422
 7872TIP3   OH223579   1.421   6.602   4.204 -0.1247 -0.1091  0.5356
 7872TIP3    H123580   1.370   6.656   4.143 -2.2925 -1.1728  1.3031
 7872TIP3    H223581   1.386   6.514   4.194  1.6283 -0.9146  1.1038
 7873TIP3   OH223582   4.886   6.072   5.274 -0.5593  0.0240 -0.1329
 7873TIP3    H123583   4.793   6.087   5.293 -1.2078 -1.5313 -1.7169
 7873TIP3    H223584   4.930   6.152   5.301 -2.1133  0.2191  2.1486
 7874TIP3   OH223585   1.045   2.989   3.500  0.3652  0.3207  0.1318
 7874TIP3    H123586   1.135   2.959   3.508  0.9417  1.6740 -0.7633
 7874TIP3    H223587   1.034   3.007   3.406 -1.2023 -0.8670  0.0541
 7875TIP3   OH223588   5.602   1.849   3.291 -0.3647 -0.3554  0.2724
 7875TIP3    H123589   5.632   1.912   3.225 -2.8120 -0.1109 -0.7065
 7875TIP3    H223590   5.656   1.771   3.275  2.6101  1.3189  1.4030
 7876TIP3   OH223591   5.633   6.601   2.613 -0.3600 -0.1261  0.4873
 7876TIP3    H123592   5.707   6.541   2.606  1.2257  1.7848  0.3107
 7876TIP3    H223593   5.574   6.573   2.542  1.2174 -0.3367 -0.8017
 7877TIP3   OH223594   6.978   2.753   2.961  0.3080  0.1231  0.0923
 7877TIP3    H123595   6.990   2.808   3.038  0.2007  0.0969  0.1289
 7877TIP3    H223596   6.973   2.664   2.996 -2.6418  0.2990  0.3935
 7878TIP3   OH223597   0.489   6.464   0.222 -0.5492 -0.1143 -0.0375
 7878TIP3    H123598   0.419   6.482   0.160  0.1042 -1.1848 -1.1194
 7878TIP3    H223599   0.567   6.453   0.168 -0.4771 -4.0350  0.5971
 7879TIP3   OH223600   1.204   3.705   1.426 -0.2109  0.3111  0.2928
 7879TIP3    H123601   1.278   3.753   1.390 -0.3779 -1.6515 -3.0934
 7879TIP3    H223602   1.130   3.764   1.416 -0.1120  0.1063 -2.2046
 7880TIP3   OH223603   5.291   5.172   0.621  0.3871 -0.0031  0.0447
 7880TIP3    H123604   5.332   5.128   0.546 -0.2503  0.1183 -0.3823
 7880TIP3    H223605   5.249   5.102   0.670 -2.2496  0.2659 -1.6494
 7881TIP3   OH223606   2.788   5.661   0.978  0.3404 -0.7387  0.0704
 7881TIP3    H123607   2.759   5.633   0.891 -3.5490 -1.1452  1.2796
 7881TIP3    H223608   2.814   5.580   1.021  0.2855 -0.8417 -0.0848
 7882TIP3   OH223609   6.324   0.422   1.036  0.1042  0.4338 -0.3245
 7882TIP3    H123610   6.407   0.463   1.013  0.5881  0.2443  1.0122
 7882TIP3    H223611   6.257   0.478   0.996  0.8661  0.4338 -1.6409
 7883TIP3   OH223612   1.616   1.151   3.437  0.1105  0.4182  0.1863
 7883TIP3    H123613   1.567   1.200   3.502  0.0674  0.6465 -0.0176
 7883TIP3    H223614   1.609   1.060   3.465 -0.3852  0.4546  0.1888
 7884TIP3   OH223615   2.202   1.092   2.861  0.2070  0.5339  0.2167
 7884TIP3    H123616   2.209   1.128   2.949 -1.1667 -1.4996  1.2212
 7884TIP3    H223617   2.227   1.165   2.803  0.8858  1.9826  2.2439
 7885TIP3   OH223618   3.266   3.601   0.801 -0.4765 -0.2721 -0.3466
 7885TIP3    H123619   3.262   3.560   0.887 -2.6046 -1.0690 -0.7742
 7885TIP3    H223620   3.260   3.528   0.739  0.7609  0.3125 -1.1876
 7886TIP3   OH223621   6.144   1.605   3.767  0.2305 -0.3303  0.2205
 7886TIP3    H123622   6.181   1.517   3.779 -0.2359 -0.7093 -0.9135
 7886TIP3    H223623   6.204   1.646   3.704 -0.3920 -0.3956 -0.4265
 7887TIP3   OH223624   6.190   2.152   2.372 -0.0764  0.1750  0.1915
 7887TIP3    H123625   6.276   2.109   2.367  0.0016  0.3934 -0.4857
 7887TIP3    H223626   6.129   2.088   2.336 -0.1679  0.1053  0.4680
 7888TIP3   OH223627   6.691   6.524   5.246 -0.3849 -0.6248  0.7669
 7888TIP3    H123628   6.613   6.565   5.209 -0.3822 -0.9563  0.3940
 7888TIP3    H223629   6.748   6.597   5.271 -0.4021 -0.4021  0.1526
 7889TIP3   OH223630   2.157   5.650   0.281 -0.5204  0.0963 -0.0769
 7889TIP3    H123631   2.070   5.615   0.302 -1.1884  1.0608 -1.1208
 7889TIP3    H223632   2.140   5.739   0.252  1.0284  0.9205  1.4224
 7890TIP3   OH223633   0.963   3.876   5.124 -0.7792  0.2921  0.3559
 7890TIP3    H123634   0.880   3.863   5.078  0.0953  1.0240 -1.5434
 7890TIP3    H223635   1.001   3.789   5.131 -1.1539  0.1077  0.1309
 7891TIP3   OH223636   4.864   3.573   1.677  0.0797  0.0234  0.1418
 7891TIP3    H123637   4.891   3.529   1.758 -0.5058  0.3734  0.5373
 7891TIP3    H223638   4.946   3.596   1.634  0.3942 -0.8067  0.2815
 7892TIP3   OH223639   1.770   5.563   5.852  0.3444  0.2050  0.1698
 7892TIP3    H123640   1.820   5.484   5.830 -0.1407  0.0309 -0.3130
 7892TIP3    H223641   1.785   5.574   5.946  3.1602  1.4605 -0.3280
 7893TIP3   OH223642   0.282   6.682   3.624 -0.0879  0.0474 -0.2661
 7893TIP3    H123643   0.318   6.746   3.562 -1.5358 -0.4094 -1.6379
 7893TIP3    H223644   0.222   6.629   3.572 -1.1010 -0.5949  1.4791
 7894TIP3   OH223645   0.810   3.869   2.942 -0.1608 -0.1154  0.8271
 7894TIP3    H123646   0.849   3.956   2.932  0.0372 -0.2978 -0.0856
 7894TIP3    H223647   0.765   3.873   3.026  0.8549  0.4754  1.3701
 7895TIP3   OH223648   3.991   4.164   1.299  0.0739 -0.8231 -0.4966
 7895TIP3    H123649   4.007   4.231   1.232 -1.0476  1.1462  1.1006
 7895TIP3    H223650   3.896   4.164   1.312  0.2791 -0.9190  1.2945
 7896TIP3   OH223651   4.502   1.254   4.225 -0.4451  0.3798 -0.4084
 7896TIP3    H123652   4.557   1.224   4.152 -1.4432  1.2926 -1.5679
 7896TIP3    H223653   4.565   1.290   4.288  0.3437  0.9344 -1.4743
 7897TIP3   OH223654   5.948   3.191   5.219  0.2942 -0.1455  0.0982
 7897TIP3    H123655   6.003   3.235   5.156 -0.4301  1.4225  0.5175
 7897TIP3    H223656   5.874   3.158   5.168  0.8309 -0.8901 -0.2129
 7898TIP3   OH223657   3.431   6.670   5.646 -0.4493 -0.0592 -0.1559
 7898TIP3    H123658   3.500   6.736   5.638 -2.8726  2.7925  0.4985
 7898TIP3    H223659   3.441   6.615   5.569  1.3168  1.4963 -1.1259
 7899TIP3   OH223660   2.090   3.057   3.494  0.4956  0.5644 -0.0383
 7899TIP3    H123661   2.125   3.146   3.490  0.7274  0.6099  2.1680
 7899TIP3    H223662   2.146   3.011   3.556 -1.0891 -0.4308  0.7164
 7900TIP3   OH223663   5.760   6.486   5.403 -0.3035 -0.4075  0.1340
 7900TIP3    H123664   5.667   6.463   5.394 -1.2260  2.4824  1.2235
 7900TIP3    H223665   5.772   6.560   5.343  0.2506  1.6813  2.6547
 7901TIP3   OH223666   4.895   1.765   4.579  0.0861 -0.2831 -0.8903
 7901TIP3    H123667   4.829   1.817   4.534 -0.2806 -0.1293 -0.1911
 7901TIP3    H223668   4.950   1.829   4.624 -0.3386 -0.4846 -0.0643
 7902TIP3   OH223669   4.778   4.014   5.114  0.3873  0.0739  0.1360
 7902TIP3    H123670   4.813   4.062   5.039  1.0191  1.2385  1.1460
 7902TIP3    H223671   4.700   4.063   5.140  0.3425 -0.1528  0.4338
 7903TIP3   OH223672   2.479   0.863   5.708 -0.3579  0.9022 -0.3540
 7903TIP3    H123673   2.510   0.805   5.777  0.7767  0.2443 -1.3767
 7903TIP3    H223674   2.534   0.941   5.716 -2.4995  2.3540  1.6247
 7904TIP3   OH223675   6.271   0.515   4.208  0.3449  0.1218 -0.4532
 7904TIP3    H123676   6.315   0.597   4.187 -0.9407  0.8159 -0.5521
 7904TIP3    H223677   6.254   0.520   4.302  1.3309 -0.5890 -0.2206
 7905TIP3   OH223678   6.608   5.173   4.833 -0.3490  0.5693 -0.6280
 7905TIP3    H123679   6.655   5.089   4.825  2.1040  1.7519  0.3559
 7905TIP3    H223680   6.579   5.175   4.924  1.9438  1.8593  0.1414
 7906TIP3   OH223681   2.158   2.390   4.726 -0.4088 -0.2410  0.0664
 7906TIP3    H123682   2.122   2.413   4.811  1.7899 -1.0878  1.3065
 7906TIP3    H223683   2.138   2.297   4.716  0.0309 -0.3316  0.0231
 7907TIP3   OH223684   6.803   3.930   3.842 -0.1787  0.3894 -0.4479
 7907TIP3    H123685   6.763   3.846   3.861 -1.4453  0.9597 -0.4794
 7907TIP3    H223686   6.821   3.969   3.928 -0.0878  0.3186 -0.4345
 7908TIP3   OH223687   5.212   0.754   0.616 -0.1218 -0.6745  0.2388
 7908TIP3    H123688   5.271   0.823   0.587 -0.2475 -0.7300 -0.1667
 7908TIP3    H223689   5.171   0.788   0.695 -0.0750 -0.3420  0.1193
 7909TIP3   OH223690   2.321   2.211   1.602  0.2892  0.7261  0.0991
 7909TIP3    H123691   2.254   2.173   1.659 -0.3122 -0.1630 -1.1501
 7909TIP3    H223692   2.307   2.169   1.517  2.3158  0.6664 -0.2569
 7910TIP3   OH223693   3.227   4.711   1.438  0.3013  0.3586 -0.5838
 7910TIP3    H123694   3.212   4.805   1.446  2.3481  0.6566  0.4051
 7910TIP3    H223695   3.319   4.703   1.414 -0.1489 -1.3864 -1.9605
 7911TIP3   OH223696   0.055   3.405   2.581  0.2445  0.5993 -0.3760
 7911TIP3    H123697   0.095   3.340   2.523  0.8270  0.0006  0.6748
 7911TIP3    H223698  -0.004   3.454   2.524 -0.3851 -0.9921 -1.1611
 7912TIP3   OH223699   3.055   2.392   3.747 -0.4384 -0.2472  0.2647
 7912TIP3    H123700   3.028   2.421   3.660  0.3978  0.1282  0.1180
 7912TIP3    H223701   3.007   2.311   3.761 -0.0921 -0.6708 -0.8393
 7913TIP3   OH223702   2.319   0.877   0.768 -0.4466 -0.1917 -0.4201
 7913TIP3    H123703   2.365   0.918   0.842 -0.5575 -1.4697  0.3868
 7913TIP3    H223704   2.389   0.852   0.708 -0.2541 -0.2467 -0.1754
 7914TIP3   OH223705   5.937   3.160   1.091  0.2893  0.6320 -0.4143
 7914TIP3    H123706   5.917   3.068   1.106 -1.6474  1.0297 -0.3725
 7914TIP3    H223707   5.968   3.163   1.000  2.0599 -0.2642  0.1009
 7915TIP3   OH223708   5.042   0.100   2.938  0.0744 -0.1700 -0.0634
 7915TIP3    H123709   5.037   0.052   3.021  0.5852  0.2215  0.1935
 7915TIP3    H223710   5.102   0.048   2.884  0.1133 -0.1688 -0.0209
 7916TIP3   OH223711   3.909   1.056   3.558  0.7054 -0.0442 -0.4729
 7916TIP3    H123712   3.966   1.113   3.611  0.8020 -0.9574  0.4326
 7916TIP3    H223713   3.905   1.100   3.473 -1.2928  2.7161  0.8992
 7917TIP3   OH223714   5.737   4.228   5.151 -0.1646  0.8093 -0.8392
 7917TIP3    H123715   5.792   4.268   5.218 -0.8076 -0.0027  0.1973
 7917TIP3    H223716   5.657   4.282   5.150 -1.6458 -1.0969  1.5561
 7918TIP3   OH223717   1.296   2.466   0.074 -0.2570  0.1253 -0.0714
 7918TIP3    H123718   1.252   2.445   0.157  2.1107 -1.1878  0.9642
 7918TIP3    H223719   1.275   2.392   0.017 -2.0526  1.1249 -0.7930
 7919TIP3   OH223720   3.511   4.904   1.265 -0.2516  0.2258 -0.2626
 7919TIP3    H123721   3.590   4.906   1.212  0.0170 -0.8457  0.0752
 7919TIP3    H223722   3.514   4.820   1.310 -1.9578 -0.1882 -0.8230
 7920TIP3   OH223723  -0.016   1.117   0.985 -0.4053 -0.1666  0.2364
 7920TIP3    H123724  -0.004   1.142   1.077 -2.6070  0.6342  0.3526
 7920TIP3    H223725   0.059   1.060   0.966  1.6529  1.8704  1.6874
 7921TIP3   OH223726   1.115   4.397   4.404  0.0240 -0.2361  0.0398
 7921TIP3    H123727   1.046   4.358   4.458  0.0885 -1.2641 -0.5936
 7921TIP3    H223728   1.075   4.477   4.369 -0.7183 -0.6126 -0.0025
 7922TIP3   OH223729   5.234   2.364   2.072 -0.0283  0.6548  0.1283
 7922TIP3    H123730   5.180   2.401   2.003  0.2080 -0.8089 -0.8717
 7922TIP3    H223731   5.320   2.351   2.032  1.3726  3.4369  1.8265
 7923TIP3   OH223732   6.502   1.242   5.737  0.0452  0.1285  0.3305
 7923TIP3    H123733   6.479   1.265   5.827 -0.5209  1.0876 -0.0519
 7923TIP3    H223734   6.518   1.326   5.694  2.4366 -0.3936  0.0746
 7924TIP3   OH223735   5.867   2.930   1.305 -0.1777 -0.7167  0.1854
 7924TIP3    H123736   5.915   2.898   1.229 -0.1270  1.0538 -0.5537
 7924TIP3    H223737   5.776   2.905   1.288 -0.5318  1.5357 -1.5490
 7925TIP3   OH223738   3.385   2.274   1.939 -0.2679 -0.0538  0.5341
 7925TIP3    H123739   3.350   2.323   2.013  0.3272  0.1349  0.6954
 7925TIP3    H223740   3.396   2.185   1.972  1.8280  0.4302  1.3113
 7926TIP3   OH223741   6.669   1.080   2.490 -0.1221 -0.3235  0.1772
 7926TIP3    H123742   6.628   1.163   2.515 -0.0703 -0.2995  0.1826
 7926TIP3    H223743   6.734   1.065   2.559 -0.0300 -0.2952  0.0949
 7927TIP3   OH223744   1.029   2.708   1.083 -0.5380  0.1493 -0.6293
 7927TIP3    H123745   1.102   2.769   1.085  0.1184 -0.6252 -0.2403
 7927TIP3    H223746   0.964   2.749   1.025 -0.1348  1.2159 -0.3410
 7928TIP3   OH223747   4.269   0.761   5.272  0.0649 -0.1383  0.0772
 7928TIP3    H123748   4.282   0.855   5.284  0.7469  0.1398 -2.2554
 7928TIP3    H223749   4.243   0.752   5.180 -0.5059 -2.1931  0.3867
 7929TIP3   OH223750   2.236   4.234   0.688 -0.3368  0.4350 -0.1708
 7929TIP3    H123751   2.270   4.289   0.617 -2.2666  0.0304 -1.4689
 7929TIP3    H223752   2.211   4.295   0.756  1.7136  0.8209  0.2969
 7930TIP3   OH223753   0.731   3.927   4.415  0.5160 -0.2994 -0.3327
 7930TIP3    H123754   0.812   3.906   4.369  0.4868 -1.4956  0.1428
 7930TIP3    H223755   0.760   3.963   4.499  0.5523  0.6613 -0.7412
 7931TIP3   OH223756   5.689   2.151   4.413 -0.0441 -0.1398  0.4575
 7931TIP3    H123757   5.729   2.095   4.479 -0.7027  0.0642  1.0499
 7931TIP3    H223758   5.636   2.213   4.463 -0.0173  0.4573 -0.2292
 7932TIP3   OH223759   1.221   2.055   2.971 -0.1553  0.2287 -0.3824
 7932TIP3    H123760   1.174   2.065   3.054 -1.3340  2.2089 -1.2075
 7932TIP3    H223761   1.241   2.145   2.944  0.7089 -0.3968 -1.9683
 7933TIP3   OH223762   0.338   1.097   4.813  0.1990 -0.2199 -0.0271
 7933TIP3    H123763   0.245   1.073   4.819 -0.2402  0.6528 -2.2822
 7933TIP3    H223764   0.360   1.085   4.720  2.6195 -1.2925  0.6212
 7934TIP3   OH223765   0.363   2.996   2.303  0.1673  0.3453 -0.4101
 7934TIP3    H123766   0.442   2.991   2.250 -0.1467  1.7863 -1.0538
 7934TIP3    H223767   0.378   3.070   2.362  0.4638 -1.1367  1.5078
 7935TIP3   OH223768   3.493   3.018   5.747  0.1691  0.0242  0.1910
 7935TIP3    H123769   3.547   2.987   5.675  1.3559  0.6529  0.7810
 7935TIP3    H223770   3.509   2.955   5.818  0.8724  0.7282  0.6718
 7936TIP3   OH223771   0.434   3.548   5.198  0.1681 -0.2546 -0.4737
 7936TIP3    H123772   0.450   3.523   5.107 -1.2476  1.1173 -1.1307
 7936TIP3    H223773   0.343   3.578   5.199  0.6790  1.3681  1.0341
 7937TIP3   OH223774   2.775   0.363   0.244  0.0502 -0.5325  0.4470
 7937TIP3    H123775   2.813   0.370   0.156  0.4949 -2.9611  0.3792
 7937TIP3    H223776   2.728   0.445   0.256  2.3228  1.0848 -0.9144
 7938TIP3   OH223777   0.656   6.694   2.688  0.0127  0.3313  0.4533
 7938TIP3    H123778   0.604   6.769   2.717 -0.1560 -0.3092  1.9481
 7938TIP3    H223779   0.723   6.684   2.756 -0.9303 -1.7875  1.1681
 7939TIP3   OH223780   6.152   1.286   1.202  0.4716  0.2707 -0.0564
 7939TIP3    H123781   6.184   1.272   1.290 -2.3951 -0.5033  0.9820
 7939TIP3    H223782   6.078   1.346   1.212 -1.7803 -2.0594 -1.4273
 7940TIP3   OH223783   2.574   4.040   4.208  0.4264 -0.0094 -0.5186
 7940TIP3    H123784   2.602   3.957   4.247 -1.2007 -0.9605 -1.2577
 7940TIP3    H223785   2.626   4.047   4.128  0.6233 -0.2928 -0.4192
 7941TIP3   OH223786   3.693   0.662   0.117  0.0545 -0.2410 -0.0985
 7941TIP3    H123787   3.725   0.611   0.192  0.3635 -0.7057 -0.5315
 7941TIP3    H223788   3.605   0.689   0.142 -0.3340 -1.4515 -0.0530
 7942TIP3   OH223789   0.267   0.332   2.315  0.2278  0.0675  0.2129
 7942TIP3    H123790   0.307   0.283   2.244 -1.6452 -1.9334  0.4176
 7942TIP3    H223791   0.332   0.331   2.385  1.1432 -0.0524 -0.6295
 7943TIP3   OH223792   0.889   3.229   0.117 -0.4890  0.1171  0.0118
 7943TIP3    H123793   0.794   3.228   0.113 -0.4613  0.4802 -1.9164
 7943TIP3    H223794   0.913   3.320   0.099  0.2271  0.2284  1.3840
 7944TIP3   OH223795   3.807   1.530   5.837  0.1754  0.4914 -0.1354
 7944TIP3    H123796   3.752   1.588   5.784  1.3899 -0.7696 -3.0311
 7944TIP3    H223797   3.746   1.470   5.879 -0.8408  0.5902 -1.3942
 7945TIP3   OH223798   6.980   6.495   1.003  0.3371  0.5194  0.1396
 7945TIP3    H123799   7.006   6.562   1.066  0.3462  0.9977 -0.3638
 7945TIP3    H223800   6.966   6.543   0.922 -0.7952  0.0750  0.0618
 7946TIP3   OH223801   6.123   0.274   4.672  0.2015 -0.4052  0.0218
 7946TIP3    H123802   6.092   0.305   4.587 -0.0699  2.0003  0.9367
 7946TIP3    H223803   6.068   0.198   4.692 -0.2442 -0.5298 -1.5876
 7947TIP3   OH223804   1.041   0.734   2.065  0.3935 -0.0799 -0.2941
 7947TIP3    H123805   1.084   0.813   2.096  1.0859  0.3381 -2.1444
 7947TIP3    H223806   0.978   0.765   2.000 -0.5364 -0.9255  0.1797
 7948TIP3   OH223807   6.328   4.011   0.765  0.4507 -0.2272  0.2162
 7948TIP3    H123808   6.403   3.991   0.821 -1.2911 -3.4895  1.6538
 7948TIP3    H223809   6.265   4.054   0.824  0.8744  2.0870 -0.8791
 7949TIP3   OH223810   1.769   0.694   4.589  0.3627 -0.2206 -0.0967
 7949TIP3    H123811   1.744   0.765   4.529 -0.1499 -1.1903 -1.0667
 7949TIP3    H223812   1.862   0.710   4.607  0.1790  0.8786 -0.0192
 7950TIP3   OH223813   3.996   5.219   3.889 -0.2547  0.3933  0.5777
 7950TIP3    H123814   4.092   5.217   3.887 -0.2538 -0.6441  1.0766
 7950TIP3    H223815   3.974   5.312   3.888  0.7154  0.6633 -1.3154
 7951TIP3   OH223816   1.691   4.882   0.912 -0.1507 -0.5282 -0.4387
 7951TIP3    H123817   1.597   4.899   0.911  0.2565  2.2763 -1.1635
 7951TIP3    H223818   1.725   4.940   0.980  1.0535 -1.6296 -0.0641
 7952TIP3   OH223819   1.213   3.487   0.614 -0.3546  0.4055 -0.0192
 7952TIP3    H123820   1.239   3.549   0.682 -1.5613  1.4302 -0.4597
 7952TIP3    H223821   1.296   3.463   0.572  0.2163  1.1512  0.6370
 7953TIP3   OH223822   4.521   4.170   1.560  0.1172  0.2489  0.4946
 7953TIP3    H123823   4.435   4.206   1.538  1.1092  0.6646 -3.3229
 7953TIP3    H223824   4.513   4.076   1.544  0.7901  0.5251 -1.6908
 7954TIP3   OH223825   0.712   6.718   3.236 -0.2796  1.2122 -0.2452
 7954TIP3    H123826   0.648   6.647   3.229  0.0537  0.4853  2.7411
 7954TIP3    H223827   0.765   6.711   3.156 -0.0905 -2.0813  0.0446
 7955TIP3   OH223828   4.936   5.806   4.476 -0.2376  0.3930  0.0266
 7955TIP3    H123829   4.976   5.892   4.464  0.0757  0.3547  0.7229
 7955TIP3    H223830   4.913   5.804   4.569 -0.9878  0.0388 -0.1560
 7956TIP3   OH223831   4.266   3.639   3.741  0.5479  0.0178  0.1783
 7956TIP3    H123832   4.324   3.633   3.666  0.4070 -0.9595  0.1289
 7956TIP3    H223833   4.270   3.552   3.782 -1.4338 -0.3504 -0.2671
 7957TIP3   OH223834   1.212   0.729   3.522  0.0339 -0.9285 -0.0631
 7957TIP3    H123835   1.166   0.803   3.482 -0.4414 -1.2080 -0.0485
 7957TIP3    H223836   1.197   0.739   3.616  1.1881 -0.2475  0.0579
 7958TIP3   OH223837   7.160   0.199   0.197  0.2369  0.2869 -0.1019
 7958TIP3    H123838   7.095   0.269   0.195  0.1898  0.2340 -1.5456
 7958TIP3    H223839   7.216   0.220   0.272 -0.0152  1.6536 -0.2677
 7959TIP3   OH223840   1.142   3.049   4.157 -0.7999 -0.3119 -0.0530
 7959TIP3    H123841   1.172   2.968   4.198  1.1653 -0.1158 -0.9920
 7959TIP3    H223842   1.128   3.109   4.230 -2.4775 -1.5246  0.6659
 7960TIP3   OH223843   0.740   3.311   4.657  0.0128 -0.6392  0.3911
 7960TIP3    H123844   0.748   3.223   4.620 -1.8100 -0.7777  0.2216
 7960TIP3    H223845   0.760   3.300   4.750 -1.7031 -1.5862  0.6933
 7961TIP3   OH223846   1.111   6.127   3.680  0.1562 -0.6733  0.2267
 7961TIP3    H123847   1.060   6.197   3.640  1.7699 -0.1438 -1.0670
 7961TIP3    H223848   1.049   6.078   3.734 -1.2158  1.1584  0.3787
 7962TIP3   OH223849   5.734   4.000   4.699  0.2077 -0.3822  0.2669
 7962TIP3    H123850   5.778   4.025   4.617 -1.8533  0.5818 -0.6127
 7962TIP3    H223851   5.687   3.920   4.677 -0.8870  0.2364  0.2666
 7963TIP3   OH223852   6.713   4.381   2.177  0.7213  0.1416 -0.1144
 7963TIP3    H123853   6.734   4.473   2.189  0.6317 -0.0928  2.1156
 7963TIP3    H223854   6.630   4.381   2.128  0.2432  1.2598  0.6743
 7964TIP3   OH223855   1.382   6.071   1.886  0.7434 -0.1533 -0.5994
 7964TIP3    H123856   1.346   6.009   1.949  2.2618 -1.9341 -1.3796
 7964TIP3    H223857   1.307   6.120   1.853 -0.1268  0.8321  2.4917
 7965TIP3   OH223858   1.859   1.131   1.731  0.2593 -0.2337  0.3924
 7965TIP3    H123859   1.786   1.092   1.683  0.5068 -0.7202  0.4116
 7965TIP3    H223860   1.935   1.118   1.674  0.3498  0.2214  0.3989
 7966TIP3   OH223861   1.487   0.805   2.870 -0.1910  0.5539  0.2593
 7966TIP3    H123862   1.413   0.821   2.812 -0.7241 -0.5181  0.6180
 7966TIP3    H223863   1.475   0.715   2.900  0.2743  0.9622  1.7433
 7967TIP3   OH223864   2.761   3.244   5.309 -0.3250 -0.1792 -0.3009
 7967TIP3    H123865   2.792   3.181   5.374 -0.8437 -1.1407 -0.9612
 7967TIP3    H223866   2.685   3.285   5.350 -1.0916 -1.2935 -0.5392
 7968TIP3   OH223867   6.604   4.324   1.166  0.5407  0.4626 -0.8473
 7968TIP3    H123868   6.512   4.327   1.192  1.0573 -1.9330  1.7938
 7968TIP3    H223869   6.631   4.415   1.162 -1.2901  1.1814  1.1371
 7969TIP3   OH223870   0.142   3.908   3.233 -0.1692  0.4221 -0.3677
 7969TIP3    H123871   0.177   3.827   3.196 -0.7514  0.6591 -1.4824
 7969TIP3    H223872   0.053   3.886   3.258  0.0431  0.4179  0.4277
 7970TIP3   OH223873   3.223   2.334   0.208  0.1853 -0.5977 -0.1300
 7970TIP3    H123874   3.184   2.252   0.238 -1.3698  0.6830  1.5832
 7970TIP3    H223875   3.290   2.353   0.273  1.2127 -0.9562 -1.0585
 7971TIP3   OH223876   3.008   4.014   2.034  0.0054 -0.3322 -0.4001
 7971TIP3    H123877   3.054   3.987   2.114  0.5781 -2.2510 -1.3290
 7971TIP3    H223878   2.970   4.099   2.056  0.2095 -0.7705  1.8902
 7972TIP3   OH223879   0.312   5.368   1.423  0.0478  0.1296  0.2248
 7972TIP3    H123880   0.277   5.369   1.512 -1.1817  0.2189 -0.2484
 7972TIP3    H223881   0.370   5.444   1.419  0.5365 -0.1872  1.1061
 7973TIP3   OH223882   0.563   1.472   5.296 -0.0083  0.2266  0.0604
 7973TIP3    H123883   0.595   1.490   5.208  0.4489 -3.3446 -0.6591
 7973TIP3    H223884   0.632   1.420   5.337 -1.9361 -1.8629  0.9105
 7974TIP3   OH223885   5.190   2.272   3.191 -0.2976 -0.3752 -0.5640
 7974TIP3    H123886   5.157   2.190   3.154  1.9076 -1.1240 -1.0288
 7974TIP3    H223887   5.204   2.253   3.284  1.7636 -1.1207 -0.9777
 7975TIP3   OH223888   5.588   1.356   5.446 -0.2238  0.3565 -0.4233
 7975TIP3    H123889   5.622   1.339   5.358  0.1706 -1.1076 -0.0106
 7975TIP3    H223890   5.497   1.325   5.443 -0.3895  0.8323 -0.4619
 7976TIP3   OH223891   3.074   4.605   1.852  0.2011  0.4157 -0.0418
 7976TIP3    H123892   3.122   4.662   1.793 -0.8180  0.1402 -1.1875
 7976TIP3    H223893   3.129   4.527   1.860 -0.7193 -0.6173 -2.6879
 7977TIP3   OH223894   5.019   3.498   1.919 -0.5213 -0.2662 -0.1822
 7977TIP3    H123895   4.975   3.473   1.999  1.2169  1.1546  1.3156
 7977TIP3    H223896   5.072   3.422   1.895 -0.1044 -0.2845  0.7563
 7978TIP3   OH223897   1.867   2.889   0.252  0.3207  0.6056 -0.3495
 7978TIP3    H123898   1.937   2.894   0.187 -0.1348  1.2724 -0.8043
 7978TIP3    H223899   1.818   2.971   0.242  0.0126  0.5576  0.5794
 7979TIP3   OH223900   5.313   3.878   1.059 -0.1273 -0.2724 -0.1765
 7979TIP3    H123901   5.240   3.836   1.013 -0.0651  0.7739 -1.2707
 7979TIP3    H223902   5.300   3.971   1.044  0.2262  0.0663  1.4836
 7980TIP3   OH223903   1.389   3.270   1.509  0.5673 -0.1644  0.0066
 7980TIP3    H123904   1.321   3.337   1.501  0.6918  0.0975  1.0177
 7980TIP3    H223905   1.469   3.314   1.481  1.1106  0.9355  2.9441
 7981TIP3   OH223906   3.465   0.541   1.510 -0.9332 -0.6903  0.9081
 7981TIP3    H123907   3.381   0.534   1.465 -0.3349 -2.1712 -0.0266
 7981TIP3    H223908   3.475   0.458   1.556  1.8829 -2.4512 -2.4229
 7982TIP3   OH223909   3.771   0.552   4.340 -0.0050  0.0381  0.1698
 7982TIP3    H123910   3.863   0.558   4.365 -0.2581  0.3865  1.0414
 7982TIP3    H223911   3.726   0.615   4.397 -0.5172  1.3565 -1.5872
 7983TIP3   OH223912   1.166   1.485   2.313 -0.0320  0.6959 -0.4298
 7983TIP3    H123913   1.081   1.517   2.283 -0.6580  0.6684  1.2296
 7983TIP3    H223914   1.154   1.467   2.406  1.3705 -0.7876 -0.4879
 7984TIP3   OH223915   4.566   4.171   1.257  0.8832 -0.0771  0.0202
 7984TIP3    H123916   4.527   4.243   1.307  2.7832  0.8013  0.3079
 7984TIP3    H223917   4.569   4.203   1.167  2.3722  0.5262  0.2615
 7985TIP3   OH223918   4.258   6.015   3.825 -0.5232 -0.4508  0.0165
 7985TIP3    H123919   4.188   6.075   3.853 -0.4007 -0.2134 -0.1830
 7985TIP3    H223920   4.245   6.006   3.731  1.3240  1.7239 -0.5354
 7986TIP3   OH223921   5.767   0.710   2.789  0.2872 -0.5986 -0.2011
 7986TIP3    H123922   5.791   0.802   2.777 -0.6750 -0.4402 -1.0759
 7986TIP3    H223923   5.798   0.667   2.709 -1.5996 -0.5192 -1.0203
 7987TIP3   OH223924   1.307   3.226   3.985  0.5703 -0.6562  0.1851
 7987TIP3    H123925   1.295   3.225   3.890  2.2223 -3.0588 -0.0923
 7987TIP3    H223926   1.231   3.179   4.020  0.3751 -0.4902 -0.0155
 7988TIP3   OH223927   2.675   4.252   3.634  0.3277  0.1272  0.3844
 7988TIP3    H123928   2.597   4.300   3.603  0.0146  0.1886  1.2305
 7988TIP3    H223929   2.720   4.226   3.554 -0.2924  0.5426 -0.1175
 7989TIP3   OH223930   5.507   3.155   4.309 -0.1117  0.7553  0.6544
 7989TIP3    H123931   5.436   3.104   4.348  0.2506  0.6099  1.1295
 7989TIP3    H223932   5.465   3.204   4.238 -0.4598 -0.2225  0.1647
 7990TIP3   OH223933   7.203   5.055   4.762 -0.0892 -0.1123 -0.1494
 7990TIP3    H123934   7.234   4.985   4.819  0.7196  0.0652 -0.3637
 7990TIP3    H223935   7.166   5.120   4.822 -1.5172 -1.0093  0.0205
 7991TIP3   OH223936   4.389   4.486   4.427 -0.2471 -1.0541  0.0913
 7991TIP3    H123937   4.390   4.442   4.343 -1.6128 -1.8202  0.4465
 7991TIP3    H223938   4.296   4.496   4.448 -0.0152  1.5542  0.2757
 7992TIP3   OH223939   4.314   1.386   5.404  0.6932  0.5141  0.0901
 7992TIP3    H123940   4.296   1.332   5.327  0.4684  1.9296 -0.8862
 7992TIP3    H223941   4.409   1.380   5.415  0.6767 -0.0469 -0.0200
 7993TIP3   OH223942   2.122   4.554   3.608 -0.0259 -0.0813  0.2089
 7993TIP3    H123943   2.209   4.586   3.634 -1.2123  4.3704 -0.5772
 7993TIP3    H223944   2.137   4.509   3.525  1.4544  1.6390 -0.5346
 7994TIP3   OH223945   2.897   6.687   1.405 -0.4163 -0.7152  0.2435
 7994TIP3    H123946   2.918   6.656   1.317  4.1251  0.5597  0.6146
 7994TIP3    H223947   2.900   6.609   1.459 -0.4493 -1.1191 -0.3238
 7995TIP3   OH223948   0.908   2.029   3.088  0.1259 -0.1576 -0.7863
 7995TIP3    H123949   0.843   2.096   3.067 -0.0341 -0.4051 -1.0993
 7995TIP3    H223950   0.919   2.036   3.183  1.2731  1.3375 -1.0018
 7996TIP3   OH223951   4.652   5.721   2.471 -0.0301  0.3052 -0.4240
 7996TIP3    H123952   4.671   5.814   2.457  1.0200  0.2564  0.5123
 7996TIP3    H223953   4.708   5.675   2.409 -0.7688  0.2944 -1.0943
 7997TIP3   OH223954   3.696   0.652   1.492 -0.3254  0.4578  0.0539
 7997TIP3    H123955   3.743   0.608   1.564 -0.0849  0.8728  0.1578
 7997TIP3    H223956   3.606   0.621   1.500 -0.0220 -0.5832 -0.3291
 7998TIP3   OH223957   6.286   3.571   4.674  0.9257 -0.2480 -0.3151
 7998TIP3    H123958   6.282   3.656   4.630 -1.3206 -0.2529 -0.2660
 7998TIP3    H223959   6.243   3.586   4.758 -2.7203 -2.0534 -1.6373
 7999TIP3   OH223960   2.201   4.831   3.826 -0.0597  0.3238  0.2039
 7999TIP3    H123961   2.164   4.813   3.913  0.3461 -1.0802  0.1097
 7999TIP3    H223962   2.125   4.852   3.771 -0.3820  0.5779  0.7390
 8000TIP3   OH223963   0.514   3.726   3.344  0.2122 -0.3218 -0.1972
 8000TIP3    H123964   0.459   3.666   3.396  0.1903 -1.0402 -1.0196
 8000TIP3    H223965   0.592   3.739   3.397 -0.3334 -0.0527  0.5641
 8001TIP3   OH223966   1.030   6.755   3.959 -0.1171 -0.4530 -0.1520
 8001TIP3    H123967   0.978   6.789   3.886 -1.2035 -0.1794  0.7157
 8001TIP3    H223968   0.966   6.706   4.012  0.6430 -0.6051  0.6409
 8002TIP3   OH223969   7.167   2.738   2.742  0.1494 -0.0289 -0.2008
 8002TIP3    H123970   7.102   2.731   2.812  0.3860 -0.3165 -0.0076
 8002TIP3    H223971   7.182   2.648   2.714  1.5178 -0.1172  0.7326
 8003TIP3   OH223972   4.204   1.337   5.644 -0.0572  0.0589 -0.2144
 8003TIP3    H123973   4.188   1.243   5.631 -1.2286  0.3832 -1.4015
 8003TIP3    H223974   4.236   1.367   5.559  1.3673  0.5466  0.4837
 8004TIP3   OH223975   2.277   3.046   1.456  0.2823  0.1907 -0.0807
 8004TIP3    H123976   2.227   3.100   1.518  1.5961  0.9005  0.4132
 8004TIP3    H223977   2.323   3.110   1.401 -0.6512 -0.4307 -1.6468
 8005TIP3   OH223978   6.555   4.053   2.250 -0.4738  0.7744  0.4456
 8005TIP3    H123979   6.506   4.018   2.176 -0.0952 -1.3983  1.1473
 8005TIP3    H223980   6.501   4.124   2.284 -1.5139  0.5987 -0.7913
 8006TIP3   OH223981   0.157   1.681   3.535 -0.1316  0.0963 -0.0308
 8006TIP3    H123982   0.204   1.611   3.580  0.4110  0.1531 -0.5010
 8006TIP3    H223983   0.087   1.637   3.488  0.2503 -0.1475 -0.3814
 8007TIP3   OH223984   6.088   6.061   2.014 -0.0038  0.0172 -0.1104
 8007TIP3    H123985   6.029   6.009   1.960 -1.1741  0.4180  0.7466
 8007TIP3    H223986   6.112   6.135   1.958 -0.9782  0.2809 -0.2005
 8008TIP3   OH223987   6.547   5.711   4.373 -0.4952  0.2431  0.7003
 8008TIP3    H123988   6.618   5.672   4.424 -0.3190 -0.1035  0.1925
 8008TIP3    H223989   6.474   5.649   4.382 -0.7935  0.6693  1.3423
 8009TIP3   OH223990   5.564   5.880   5.142  0.3179  0.1712 -0.0732
 8009TIP3    H123991   5.604   5.936   5.074  0.3847  1.0719  0.6847
 8009TIP3    H223992   5.632   5.873   5.209  0.5926 -1.4698 -0.4809
 8010TIP3   OH223993   5.561   0.643   5.457  0.2368 -0.0081  0.5951
 8010TIP3    H123994   5.554   0.618   5.365  1.9993 -0.3187  0.5141
 8010TIP3    H223995   5.491   0.707   5.469 -0.3802 -0.3697 -0.8079
 8011TIP3   OH223996   0.937   6.120   1.706 -0.2048 -0.2764 -0.1734
 8011TIP3    H123997   0.918   6.174   1.782  0.9682 -0.0045 -0.0487
 8011TIP3    H223998   1.002   6.056   1.738  0.3615 -0.1068 -0.9494
 8012TIP3   OH223999   2.108   3.591   0.779 -0.6869 -0.3682  0.0834
 8012TIP3    H124000   2.181   3.650   0.760 -0.7329 -0.0282  0.9353
 8012TIP3    H224001   2.030   3.648   0.775 -1.5195 -1.3509 -4.7618
 8013TIP3   OH224002   6.218   0.135   5.127  0.0950  0.1108 -0.5254
 8013TIP3    H124003   6.307   0.100   5.121  0.0575 -0.1502  0.2477
 8013TIP3    H224004   6.199   0.168   5.040  1.3570  1.1581 -0.4337
 8014TIP3   OH224005   1.668   6.374   2.451 -0.0358 -0.3639 -0.0930
 8014TIP3    H124006   1.735   6.361   2.384 -0.6551  1.1315 -1.0568
 8014TIP3    H224007   1.693   6.455   2.495  0.4210 -1.3863  1.6112
 8015TIP3   OH224008   0.812   4.546   3.167  0.8298 -0.8356  0.0102
 8015TIP3    H124009   0.802   4.453   3.187  0.1508 -0.5579  1.0501
 8015TIP3    H224010   0.743   4.589   3.219 -0.1126  0.0732 -1.8972
 8016TIP3   OH224011   3.597   6.796   2.423 -0.2140 -0.4226  0.2736
 8016TIP3    H124012   3.512   6.766   2.457  1.0071 -1.9492  2.1575
 8016TIP3    H224013   3.612   6.741   2.346  0.5069 -2.5260  1.8310
 8017TIP3   OH224014   6.149   3.092   2.655 -0.3082  0.6941 -0.1071
 8017TIP3    H124015   6.160   3.026   2.723  0.8153 -0.4933 -1.3690
 8017TIP3    H224016   6.237   3.105   2.620 -0.7855  1.6006 -1.0196
 8018TIP3   OH224017   2.670   3.586   0.691 -0.1013  0.3808  0.0330
 8018TIP3    H124018   2.699   3.650   0.626 -1.0511 -0.5024 -1.3059
 8018TIP3    H224019   2.743   3.526   0.700  0.4921  1.1832  0.7057
 8019TIP3   OH224020   3.020   0.276   5.728 -0.1513  0.2265  0.6035
 8019TIP3    H124021   3.071   0.356   5.712 -2.2695  1.5413 -0.0319
 8019TIP3    H224022   2.973   0.261   5.646  1.4560 -2.7336  0.0922
 8020TIP3   OH224023   4.344   4.338   2.520 -0.0982  0.2179  0.0079
 8020TIP3    H124024   4.435   4.310   2.532  0.6296  2.1378 -0.5369
 8020TIP3    H224025   4.309   4.280   2.453  0.6917 -0.6265  0.3169
 8021TIP3   OH224026   6.873   1.255   2.810  0.3212  0.5551  0.2113
 8021TIP3    H124027   6.905   1.344   2.794  0.0454  0.4952 -0.7559
 8021TIP3    H224028   6.889   1.209   2.728  0.4381 -0.2868  0.6957
 8022TIP3   OH224029   5.440   0.598   1.897  0.3487  0.3736  0.5690
 8022TIP3    H124030   5.490   0.680   1.896 -0.1493  0.6850  0.4705
 8022TIP3    H224031   5.391   0.601   1.979 -0.6242  0.7821 -0.0001
 8023TIP3   OH224032   2.788   4.239   2.478  0.6039  0.0831 -0.1839
 8023TIP3    H124033   2.751   4.327   2.488 -0.7703 -0.4117 -0.7191
 8023TIP3    H224034   2.833   4.223   2.562 -0.4019  0.7166  0.4986
 8024TIP3   OH224035   6.536   5.248   2.840  0.0442 -0.3286  0.2623
 8024TIP3    H124036   6.508   5.203   2.760  0.0314  2.7596 -1.6603
 8024TIP3    H224037   6.625   5.216   2.855 -0.7274 -2.5977  0.3901
 8025TIP3   OH224038   1.700   6.532   3.259  0.2526  0.2238 -0.6855
 8025TIP3    H124039   1.680   6.500   3.347  1.4567 -0.9733 -0.8145
 8025TIP3    H224040   1.628   6.591   3.237  0.3550  1.2176  1.4356
 8026TIP3   OH224041   0.159   6.089   1.473  0.0732  0.2259 -0.5633
 8026TIP3    H124042   0.209   6.159   1.432  0.1804  1.1268  1.0369
 8026TIP3    H224043   0.198   6.009   1.438  1.9069  0.9228 -0.2316
 8027TIP3   OH224044   1.438   6.652   5.446  0.3777 -0.2412  0.2004
 8027TIP3    H124045   1.399   6.639   5.533 -0.5730  0.8662 -0.0286
 8027TIP3    H224046   1.396   6.587   5.391  1.0412 -1.0018  0.5801
 8028TIP3   OH224047   6.378   4.989   1.614  0.0076 -0.4033  0.1425
 8028TIP3    H124048   6.429   4.913   1.643  1.1218  0.0036 -0.6862
 8028TIP3    H224049   6.303   4.991   1.673  0.6945 -1.3174  1.0890
 8029TIP3   OH224050   6.032   1.140   3.923 -0.4518 -0.2804 -0.1400
 8029TIP3    H124051   6.116   1.114   3.886 -1.0235  0.2823 -1.9151
 8029TIP3    H224052   6.040   1.235   3.936 -0.6309 -0.3106  0.2106
 8030TIP3   OH224053   4.425   4.471   1.756 -0.3811 -0.4214  0.6441
 8030TIP3    H124054   4.425   4.426   1.840  1.6984  0.9083  1.4478
 8030TIP3    H224055   4.509   4.516   1.753 -0.3221 -0.5565 -2.2523
 8031TIP3   OH224056   6.504   2.937   0.716 -0.5519 -0.3162  0.1694
 8031TIP3    H124057   6.496   2.844   0.733  0.8722 -0.6507 -0.8522
 8031TIP3    H224058   6.460   2.950   0.631  0.4384 -0.3190 -0.3562
 8032TIP3   OH224059   5.050   3.246   3.630  0.0721 -0.1929 -0.3930
 8032TIP3    H124060   5.056   3.309   3.558  1.7423  0.7019  0.4596
 8032TIP3    H224061   4.963   3.207   3.621 -0.9895  2.1514 -1.0427
 8033TIP3   OH224062   3.547   2.920   3.646 -0.4315 -0.1552 -0.1814
 8033TIP3    H124063   3.591   3.004   3.661  0.0453 -0.5815  0.9000
 8033TIP3    H224064   3.458   2.934   3.677 -0.9712  0.5681 -1.9407
 8034TIP3   OH224065   6.089   5.225   1.157  0.5134  0.5467 -0.8133
 8034TIP3    H124066   6.136   5.288   1.103  3.6101  0.5508  1.6267
 8034TIP3    H224067   6.146   5.148   1.160  1.0392  0.8801  3.0721
 8035TIP3   OH224068   1.040   3.159   4.406  0.0307  0.2521 -0.0294
 8035TIP3    H124069   0.947   3.151   4.427 -0.1349  1.2198 -0.3539
 8035TIP3    H224070   1.080   3.084   4.449 -1.2434 -1.7494 -2.0382
 8036TIP3   OH224071   2.315   6.088   3.493 -0.2788 -0.6195  0.2753
 8036TIP3    H124072   2.330   6.083   3.587  1.7997  1.4787  0.1393
 8036TIP3    H224073   2.262   6.167   3.481  0.0662 -0.4747 -0.3642
 8037TIP3   OH224074   6.109   1.602   5.160  0.0051  0.3573 -0.2356
 8037TIP3    H124075   6.071   1.562   5.082 -2.7357  1.7336  0.2451
 8037TIP3    H224076   6.140   1.529   5.213 -0.3538 -0.7514 -1.5139
 8038TIP3   OH224077   3.785   0.175   3.635  0.2364  0.7022 -0.0035
 8038TIP3    H124078   3.728   0.150   3.708  0.2043  1.7394  0.3400
 8038TIP3    H224079   3.871   0.138   3.659 -0.4801 -1.8392 -1.0609
 8039TIP3   OH224080   4.315   4.355   3.074 -0.0545  0.4621 -0.1511
 8039TIP3    H124081   4.390   4.331   3.019  0.4808  1.8860 -0.0994
 8039TIP3    H224082   4.330   4.448   3.095 -2.0378  0.8993 -0.4765
 8040TIP3   OH224083   3.104   0.176   2.404  0.3253 -0.0630 -0.0722
 8040TIP3    H124084   3.020   0.134   2.421  0.2425 -0.5056 -1.4470
 8040TIP3    H224085   3.148   0.178   2.489 -0.4577 -1.1974  0.3767
 8041TIP3   OH224086   5.252   1.892   3.522 -0.2573  0.3003  0.4044
 8041TIP3    H124087   5.262   1.803   3.556  0.4564 -0.0747 -0.7578
 8041TIP3    H224088   5.335   1.934   3.541  1.5350 -0.9115 -3.6421
 8042TIP3   OH224089   7.056   0.846   3.507  0.1012  0.0082  0.2903
 8042TIP3    H124090   6.989   0.792   3.548 -2.3284  1.7910 -1.0602
 8042TIP3    H224091   7.114   0.783   3.464 -0.4017 -1.6242  1.8961
 8043TIP3   OH224092   3.740   6.495   0.751 -0.1535  0.6776  0.4135
 8043TIP3    H124093   3.756   6.589   0.756 -3.4899  1.3608  0.2116
 8043TIP3    H224094   3.660   6.486   0.700  0.9324 -2.4421 -1.0470
 8044TIP3   OH224095   7.209   1.082   4.503 -0.2310  0.0626  0.6468
 8044TIP3    H124096   7.227   1.035   4.585 -2.5337  0.1835  1.2847
 8044TIP3    H224097   7.115   1.072   4.490 -0.0583  0.8072 -1.5478
 8045TIP3   OH224098   4.177   1.463   0.983  0.1400 -0.3190 -0.3278
 8045TIP3    H124099   4.219   1.523   0.923  1.3497 -0.5003  0.2932
 8045TIP3    H224100   4.092   1.503   1.002  0.0988  0.1674 -1.4548
 8046TIP3   OH224101   6.665   3.686   3.295  0.3748  0.1081  0.1897
 8046TIP3    H124102   6.593   3.728   3.248  1.0066  0.1613 -0.7360
 8046TIP3    H224103   6.701   3.622   3.233  1.7236  0.7330  0.2931
 8047TIP3   OH224104   3.660   0.398   0.277  0.3135  0.0573 -0.4487
 8047TIP3    H124105   3.586   0.354   0.319  1.8340 -1.0881  1.2203
 8047TIP3    H224106   3.692   0.335   0.212  0.6764 -0.0697 -0.1531
 8048TIP3   OH224107   4.068   5.847   2.283 -0.4733 -0.1823 -0.2785
 8048TIP3    H124108   3.975   5.859   2.264 -1.0803 -0.6512  2.0969
 8048TIP3    H224109   4.089   5.915   2.347  1.2988  0.9807 -1.9683
 8049TIP3   OH224110   4.703   4.419   2.377  0.3432  0.2670  0.0945
 8049TIP3    H124111   4.786   4.467   2.369 -0.2959  1.3287 -0.2439
 8049TIP3    H224112   4.642   4.482   2.413 -0.4707 -0.3604 -0.1608
 8050TIP3   OH224113   5.371   3.621   1.303  0.4118  0.0468 -0.3095
 8050TIP3    H124114   5.412   3.690   1.354 -0.4255 -1.5819  2.8497
 8050TIP3    H224115   5.409   3.540   1.337 -1.5001 -1.2283 -1.0087
 8051TIP3   OH224116   4.835   5.237   3.041  0.4813  0.2633  1.0057
 8051TIP3    H124117   4.862   5.173   2.975  1.8058  0.6906  1.1013
 8051TIP3    H224118   4.812   5.184   3.118  2.3025 -0.1082  1.3467
 8052TIP3   OH224119   0.203   5.507   4.790  0.3143 -0.0700 -0.1043
 8052TIP3    H124120   0.267   5.436   4.788  1.5698  1.0055 -0.6037
 8052TIP3    H224121   0.253   5.584   4.762 -1.3511  0.7191 -1.0884
 8053TIP3   OH224122   5.141   1.751   1.987  0.2796  0.1783 -0.3500
 8053TIP3    H124123   5.206   1.681   1.994  0.7625  0.7001  0.5978
 8053TIP3    H224124   5.060   1.711   2.021  0.2512 -0.2850 -0.9557
 8054TIP3   OH224125   5.156   4.289   5.837  0.0888 -0.3539  0.2131
 8054TIP3    H124126   5.106   4.214   5.867 -1.7843  0.6942 -0.1355
 8054TIP3    H224127   5.180   4.336   5.916 -1.7185  0.4767  0.3125
 8055TIP3   OH224128   6.016   0.731   4.478  0.4892 -0.3209  0.5719
 8055TIP3    H124129   5.991   0.705   4.389  0.1680  1.3396  0.1292
 8055TIP3    H224130   6.097   0.684   4.495  0.9494 -0.1078 -0.9124
 8056TIP3   OH224131   5.445   6.144   0.089 -0.3402 -0.6489 -0.2161
 8056TIP3    H124132   5.430   6.130   0.183 -0.7002 -1.9903 -0.4549
 8056TIP3    H224133   5.359   6.168   0.054  0.2946  2.7703  0.2210
 8057TIP3   OH224134   3.703   3.036   1.091 -0.4093 -0.4566 -0.0173
 8057TIP3    H124135   3.629   3.057   1.035 -2.0037 -1.4635  1.5995
 8057TIP3    H224136   3.676   3.062   1.179  1.4417 -0.2109  0.5323
 8058TIP3   OH224137   4.828   4.941   1.764 -0.6858 -0.9670  0.3880
 8058TIP3    H124138   4.847   5.012   1.826  0.4849 -0.6479 -0.2929
 8058TIP3    H224139   4.733   4.932   1.766 -0.7096 -0.6471  1.8716
 8059TIP3   OH224140   5.057   4.321   3.019  0.0206  0.3025  0.5398
 8059TIP3    H124141   5.017   4.236   3.000  1.0474 -0.3557  1.2117
 8059TIP3    H224142   5.136   4.322   2.966  2.7200 -1.3856  4.0995
 8060TIP3   OH224143   3.962   1.028   5.674 -0.1724 -0.1839  0.0668
 8060TIP3    H124144   3.907   0.952   5.653 -1.6428 -0.1919  3.3726
 8060TIP3    H224145   3.902   1.102   5.678  1.0664  1.0320 -1.9332
 8061TIP3   OH224146   1.600   5.672   2.130 -0.0915  0.0601 -0.1840
 8061TIP3    H124147   1.696   5.679   2.124 -0.0246 -0.3680  0.3402
 8061TIP3    H224148   1.572   5.759   2.157  0.0746  0.4204 -1.1238
 8062TIP3   OH224149   5.042   4.861   1.564  0.4323 -0.4836  0.2883
 8062TIP3    H124150   5.064   4.954   1.577  0.5404 -0.3295 -0.8252
 8062TIP3    H224151   4.972   4.843   1.626  0.0652  0.4959  0.1754
 8063TIP3   OH224152   1.977   5.230   4.243 -0.8737 -0.1886  0.3357
 8063TIP3    H124153   1.962   5.289   4.169  0.0927  0.1296  0.3740
 8063TIP3    H224154   2.043   5.274   4.296 -0.7991 -0.8881  0.8456
 8064TIP3   OH224155   6.463   2.341   1.754 -0.4300  0.0428  0.4604
 8064TIP3    H124156   6.507   2.304   1.830 -0.0040  1.1341  0.7561
 8064TIP3    H224157   6.518   2.414   1.726  0.0645 -1.0502 -1.6438
 8065TIP3   OH224158   3.799   0.815   3.628 -0.1444  0.4739 -0.0103
 8065TIP3    H124159   3.776   0.795   3.537 -1.8147  1.6344  0.1121
 8065TIP3    H224160   3.852   0.894   3.623 -0.4325  0.6724  0.0241
 8066TIP3   OH224161   0.582   3.655   2.540  0.1378 -0.1983  0.3563
 8066TIP3    H124162   0.615   3.634   2.627 -2.5742  0.7453  1.7578
 8066TIP3    H224163   0.613   3.744   2.523  0.0131 -0.0847  0.7214
 8067TIP3   OH224164   1.933   2.279   4.250 -0.0795  0.2163 -0.4352
 8067TIP3    H124165   2.016   2.295   4.295  1.1431 -1.1838 -2.1082
 8067TIP3    H224166   1.916   2.360   4.202 -0.2434  0.8747  0.6829
 8068TIP3   OH224167   6.734   4.725   1.490 -0.2523  0.0086  0.6272
 8068TIP3    H124168   6.733   4.728   1.586 -0.0298  0.4899  0.6166
 8068TIP3    H224169   6.826   4.739   1.467 -0.3600  0.2308  0.3324
 8069TIP3   OH224170   6.221   1.525   4.481 -0.3217  0.3669  0.6125
 8069TIP3    H124171   6.186   1.452   4.429 -0.0165  0.7781 -0.1783
 8069TIP3    H224172   6.161   1.597   4.463  0.8780  1.0679 -0.7176
 8070TIP3   OH224173   3.169   5.650   5.081  0.1534 -0.0575  0.2515
 8070TIP3    H124174   3.169   5.735   5.126  1.3555 -0.5353  1.1954
 8070TIP3    H224175   3.259   5.619   5.089 -0.5032 -1.9186  0.8509
 8071TIP3   OH224176   1.526   3.551   0.595 -1.0658  0.2326  0.1487
 8071TIP3    H124177   1.572   3.472   0.567 -0.4376  0.2379  1.1156
 8071TIP3    H224178   1.572   3.623   0.552  0.1712  0.2756  1.4656
 8072TIP3   OH224179   4.383   2.281   2.845  0.0604  0.2339  0.0132
 8072TIP3    H124180   4.426   2.201   2.874  0.0682  0.1467 -0.2298
 8072TIP3    H224181   4.393   2.279   2.749  0.4159  0.7273  0.0376
 8073TIP3   OH224182   3.031   3.721   0.731  0.6870  0.6047 -0.5694
 8073TIP3    H124183   3.110   3.669   0.716 -1.6556 -3.3653 -0.4511
 8073TIP3    H224184   2.989   3.727   0.645  0.6933  1.9513 -0.4894
 8074TIP3   OH224185   3.860   5.432   4.844  0.1602  0.1071  0.2079
 8074TIP3    H124186   3.784   5.417   4.788  1.7674 -0.2396 -2.0121
 8074TIP3    H224187   3.896   5.515   4.815  1.2476 -0.2520  0.4733
 8075TIP3   OH224188   2.634   0.589   1.762 -0.4458  0.5711 -0.1526
 8075TIP3    H124189   2.663   0.672   1.724 -0.0690  0.2200 -0.6356
 8075TIP3    H224190   2.551   0.571   1.718 -0.2362  0.3958 -0.4772
 8076TIP3   OH224191   6.304   2.778   1.590  0.7083  1.0624 -0.1630
 8076TIP3    H124192   6.274   2.713   1.526  0.3651  1.8190 -0.8071
 8076TIP3    H224193   6.235   2.845   1.588  1.1143  1.4990  0.3866
 8077TIP3   OH224194   5.349   0.147   5.206 -0.1653  0.2616 -0.2528
 8077TIP3    H124195   5.359   0.231   5.161 -0.3130  1.1690  1.3384
 8077TIP3    H224196   5.254   0.134   5.210 -0.4317  2.0917  2.9949
 8078TIP3   OH224197   2.769   4.243   5.183  0.1334  0.3100 -0.4123
 8078TIP3    H124198   2.799   4.163   5.142 -1.1775 -0.4830  0.1248
 8078TIP3    H224199   2.768   4.308   5.113 -0.0172 -0.4697 -1.1399
 8079TIP3   OH224200   5.575   0.693   3.240 -0.2266  0.0119  0.5780
 8079TIP3    H124201   5.609   0.736   3.319 -1.9665  1.3436  0.6432
 8079TIP3    H224202   5.497   0.743   3.217  0.6341  0.1419 -2.4562
 8080TIP3   OH224203   0.199   5.235   3.294  0.4451 -0.1188 -0.0973
 8080TIP3    H124204   0.263   5.231   3.222  1.4800  1.3241  0.7109
 8080TIP3    H224205   0.114   5.238   3.250  1.0084 -0.2812 -1.2334
 8081TIP3   OH224206   3.224   2.939   1.897 -0.1545  0.3444 -0.0912
 8081TIP3    H124207   3.235   2.993   1.975  1.3199  1.7657 -1.2105
 8081TIP3    H224208   3.287   2.868   1.908 -0.7169 -0.0772  0.4842
 8082TIP3   OH224209   5.064   3.440   3.852 -0.2783  0.3004 -0.4456
 8082TIP3    H124210   5.043   3.363   3.906 -1.1569  0.5985 -0.3461
 8082TIP3    H224211   5.055   3.409   3.762  0.1523  0.0846 -0.4203
 8083TIP3   OH224212   5.466   0.425   5.588  0.0396  0.2090  0.0661
 8083TIP3    H124213   5.495   0.453   5.675  0.1074 -0.3384  0.2286
 8083TIP3    H224214   5.501   0.491   5.529 -1.0813  1.2986  0.5631
 8084TIP3   OH224215   0.518   6.358   1.605 -0.1257 -0.0449  0.4513
 8084TIP3    H124216   0.527   6.425   1.538  0.0024  0.4318  0.9376
 8084TIP3    H224217   0.589   6.297   1.588 -0.3172 -0.1288 -0.0708
 8085TIP3   OH224218   3.443   3.785   3.938  0.3175 -0.1737  0.3221
 8085TIP3    H124219   3.511   3.840   3.975  1.2759 -0.5080 -0.8698
 8085TIP3    H224220   3.393   3.844   3.882  0.8483 -0.3241 -0.3248
 8086TIP3   OH224221   2.156  -0.020   2.968 -0.0244 -0.3685 -0.1333
 8086TIP3    H124222   2.148   0.075   2.968  1.0578 -0.2618  0.8342
 8086TIP3    H224223   2.237  -0.038   3.015  0.5513 -1.7198 -1.5385
 8087TIP3   OH224224   0.074   4.651   0.096  0.5365 -0.2854 -0.4556
 8087TIP3    H124225   0.016   4.660   0.020  0.5548 -0.6269 -0.5141
 8087TIP3    H224226   0.016   4.653   0.172  0.2357 -2.2338 -0.5710
 8088TIP3   OH224227   0.650   4.416   1.797 -0.2307  0.3479  0.3929
 8088TIP3    H124228   0.666   4.428   1.704  1.3745 -0.9633  0.4587
 8088TIP3    H224229   0.575   4.472   1.816 -0.0162  1.3344 -1.4848
 8089TIP3   OH224230   6.860   3.508   4.184 -0.3024  0.3873  0.5560
 8089TIP3    H124231   6.915   3.533   4.258  1.3312  0.5488 -0.6370
 8089TIP3    H224232   6.897   3.425   4.154  2.0145  2.3369 -2.6923
 8090TIP3   OH224233   1.985   2.522   5.895 -0.2921  0.0770  0.2951
 8090TIP3    H124234   2.004   2.616   5.899  0.0989 -0.0338  2.3117
 8090TIP3    H224235   2.071   2.480   5.909 -0.6042 -0.5744  0.2930
 8091TIP3   OH224236   4.664   2.654   2.027 -0.4062 -0.2442 -0.4332
 8091TIP3    H124237   4.577   2.692   2.040 -0.8547 -1.1677 -0.6063
 8091TIP3    H224238   4.672   2.589   2.098 -0.7347 -1.6387 -1.6142
 8092TIP3   OH224239   2.709   5.975   0.836 -0.1893  0.1035  0.4857
 8092TIP3    H124240   2.717   5.881   0.850 -0.1712  0.1998  1.1543
 8092TIP3    H224241   2.652   5.983   0.760 -1.2879 -0.4259  1.2374
 8093TIP3   OH224242   5.357   3.772   2.040 -0.1350 -0.0687 -0.5126
 8093TIP3    H124243   5.410   3.828   1.984  0.4010  1.6796  1.6172
 8093TIP3    H224244   5.269   3.777   2.004  0.1084  1.3807 -0.9384
 8094TIP3   OH224245   3.819   1.866   1.802 -0.2415  0.4097 -0.4782
 8094TIP3    H124246   3.883   1.877   1.732  0.0265 -3.3698 -1.0352
 8094TIP3    H224247   3.840   1.935   1.865  3.1002  0.5577 -1.5684
 8095TIP3   OH224248   1.928   1.073   1.983  0.8735 -0.1134 -0.4691
 8095TIP3    H124249   1.879   1.065   1.900  1.6852  0.7608 -1.0524
 8095TIP3    H224250   1.904   1.159   2.016  1.1728 -0.1385 -0.1923
 8096TIP3   OH224251   4.389   3.760   2.725 -0.1841 -0.2371 -0.1701
 8096TIP3    H124252   4.393   3.665   2.739 -0.0753 -0.4658 -1.6312
 8096TIP3    H224253   4.335   3.792   2.797  2.8883 -0.8780  2.6816
 8097TIP3   OH224254   1.881   3.821   4.525  0.5118 -0.0292 -0.7759
 8097TIP3    H124255   1.842   3.813   4.612 -0.8559 -0.0126 -1.3591
 8097TIP3    H224256   1.964   3.867   4.540  1.3382 -1.9000  0.7527
 8098TIP3   OH224257   6.346   5.528   4.020  0.0481  0.5636  0.6722
 8098TIP3    H124258   6.347   5.554   4.112 -0.4410  1.4444  0.4400
 8098TIP3    H224259   6.421   5.574   3.982  0.1185  0.3762  0.5833
 8099TIP3   OH224260   2.996   0.957   2.431 -0.5478  0.3216 -0.6265
 8099TIP3    H124261   3.033   1.044   2.416  1.0298 -0.2042 -0.0066
 8099TIP3    H224262   2.992   0.949   2.526 -0.5057 -0.3369 -0.6761
 8100TIP3   OH224263   6.543   2.507   1.347  0.4660  0.1674 -0.2832
 8100TIP3    H124264   6.530   2.581   1.405  0.2411 -0.3155  0.2900
 8100TIP3    H224265   6.596   2.445   1.397 -0.5898 -0.6954 -0.1921
 8101TIP3   OH224266   4.272   2.467   2.428  0.0996  0.3073  0.4940
 8101TIP3    H124267   4.244   2.486   2.339 -1.0300  0.2062  0.8180
 8101TIP3    H224268   4.285   2.373   2.430  0.4872  0.3544  0.3449
 8102TIP3   OH224269   4.814   2.611   5.579  0.2040  0.2608  0.1198
 8102TIP3    H124270   4.807   2.698   5.541  0.3132  0.4197  0.4629
 8102TIP3    H224271   4.905   2.585   5.562 -0.0752 -0.1670 -0.7947
 8103TIP3   OH224272   2.463   5.493   3.656 -0.6155 -0.5168 -0.3568
 8103TIP3    H124273   2.477   5.511   3.563  1.5940  0.2330  0.0488
 8103TIP3    H224274   2.442   5.579   3.694  0.6962 -0.3998  0.1510
 8104TIP3   OH224275   3.138   6.253   2.659 -0.2363  0.1774 -0.5379
 8104TIP3    H124276   3.208   6.318   2.653 -0.8695  0.9206 -0.1241
 8104TIP3    H224277   3.141   6.208   2.574  0.3377  0.6152 -0.7653
 8105TIP3   OH224278   0.816   2.489   5.741 -0.1424  0.4156  0.3665
 8105TIP3    H124279   0.751   2.559   5.751  0.9815  1.4143  0.9526
 8105TIP3    H224280   0.897   2.526   5.777  0.9740 -0.4884 -1.0884
 8106TIP3   OH224281   0.103   4.050   2.676 -0.0428  0.1147  0.6149
 8106TIP3    H124282   0.060   4.081   2.596  1.2179  1.6868  0.4998
 8106TIP3    H224283   0.111   4.129   2.731  1.6596 -0.3530  1.0803
 8107TIP3   OH224284   0.468   6.362   4.533  0.6005  0.5985  0.4284
 8107TIP3    H124285   0.421   6.336   4.612  0.5490  1.4016  0.6667
 8107TIP3    H224286   0.402   6.361   4.463  0.6958 -0.3372  0.3415
 8108TIP3   OH224287   5.127   4.806   4.820  0.2312  0.6419  0.0877
 8108TIP3    H124288   5.165   4.733   4.771 -1.0746  0.1855 -0.2870
 8108TIP3    H224289   5.135   4.780   4.912 -1.2971 -0.5567 -0.0843
 8109TIP3   OH224290   2.254   2.937   3.697 -0.3341  0.1890 -0.0994
 8109TIP3    H124291   2.199   2.859   3.711  0.6458 -0.7850 -1.4353
 8109TIP3    H224292   2.247   2.985   3.779 -1.6755 -0.8508  0.4501
 8110TIP3   OH224293   4.914   6.372   5.060 -0.0116  0.1311  0.0353
 8110TIP3    H124294   4.836   6.359   5.113 -1.0774 -1.7647 -1.8520
 8110TIP3    H224295   4.980   6.405   5.121 -2.0061  0.9577  1.8545
 8111TIP3   OH224296   1.821   0.107   2.923  0.2335 -0.3746 -0.2160
 8111TIP3    H124297   1.729   0.133   2.913  0.8606  1.8275 -0.8605
 8111TIP3    H224298   1.844   0.137   3.011  0.9935  1.5336 -1.0042
 8112TIP3   OH224299   3.249   6.036   1.790  0.2548 -0.1318 -0.0634
 8112TIP3    H124300   3.239   6.123   1.829 -1.3944  0.6770 -2.0841
 8112TIP3    H224301   3.174   5.986   1.823 -0.3325  0.1035 -1.0003
 8113TIP3   OH224302   0.070   2.252   5.651  0.0393 -0.2605 -0.1652
 8113TIP3    H124303   0.033   2.171   5.617 -0.7237  0.3041 -0.7560
 8113TIP3    H224304   0.019   2.271   5.730  0.1727 -0.3215 -0.0640
 8114TIP3   OH224305   2.207   3.353   1.688 -0.5028 -0.5549 -0.6712
 8114TIP3    H124306   2.194   3.424   1.626 -1.7381  0.6326  0.8665
 8114TIP3    H224307   2.127   3.301   1.683  0.2763 -1.7353 -1.5800
 8115TIP3   OH224308   4.790   5.413   0.966 -0.8574 -0.0917 -0.0037
 8115TIP3    H124309   4.799   5.508   0.973  0.0428 -0.1612 -0.1422
 8115TIP3    H224310   4.879   5.381   0.949 -0.6963 -1.1721  2.4148
 8116TIP3   OH224311   5.121   6.051   1.969 -0.5298  0.2856  0.6890
 8116TIP3    H124312   5.129   6.146   1.978 -0.7421  0.4579 -0.6731
 8116TIP3    H224313   5.082   6.039   1.882  0.2757 -1.0715  0.4884
 8117TIP3   OH224314   2.826  -0.005   1.383 -0.3056  0.4486 -0.3113
 8117TIP3    H124315   2.819  -0.013   1.479  3.1814  0.0464  0.0292
 8117TIP3    H224316   2.797   0.085   1.365  1.7083  1.5786  1.5615
 8118TIP3   OH224317   1.598   3.479   2.199 -0.1774  0.6540 -0.1834
 8118TIP3    H124318   1.563   3.395   2.226  0.9816  0.0318 -0.5653
 8118TIP3    H224319   1.566   3.541   2.265 -0.5065 -0.1891  0.4581
 8119TIP3   OH224320   0.180   6.038   3.767 -0.1394  0.3909  0.1041
 8119TIP3    H124321   0.212   5.998   3.687 -0.1807 -1.2961  0.8935
 8119TIP3    H224322   0.239   6.113   3.781  0.2593  0.3379 -1.1428
 8120TIP3   OH224323   5.913   5.026   1.152  0.1047  0.4232 -0.1664
 8120TIP3    H124324   5.987   5.077   1.185 -0.4999 -0.5140  3.0796
 8120TIP3    H224325   5.954   4.950   1.109  0.9750  1.4396 -1.2034
 8121TIP3   OH224326   2.502   6.664   2.623 -0.0717  0.6581  0.2099
 8121TIP3    H124327   2.510   6.730   2.554 -1.3538 -0.3416 -0.9686
 8121TIP3    H224328   2.566   6.596   2.599  0.0145  0.6542  0.4434
 8122TIP3   OH224329   1.160   2.930   1.121  0.2634 -0.6591  0.3165
 8122TIP3    H124330   1.100   2.995   1.158  1.7372 -0.2012  2.0224
 8122TIP3    H224331   1.246   2.973   1.124  0.5533 -0.6039 -3.6771
 8123TIP3   OH224332   1.723   4.994   1.870  0.2268  0.2901  0.3145
 8123TIP3    H124333   1.653   5.040   1.824 -1.8135 -4.1809 -1.7169
 8123TIP3    H224334   1.789   4.977   1.802  2.0853  2.1091  1.5758
 8124TIP3   OH224335   5.623   3.279   4.552 -0.0112 -0.0102 -0.4159
 8124TIP3    H124336   5.541   3.255   4.596 -0.0502  0.3260 -0.3019
 8124TIP3    H224337   5.605   3.266   4.459 -0.2764  0.3067 -0.4099
 8125TIP3   OH224338   4.397   2.743   1.695 -0.4319  0.9271  0.5191
 8125TIP3    H124339   4.343   2.779   1.624 -0.0910  0.5307  0.0509
 8125TIP3    H224340   4.461   2.812   1.713 -0.9978  1.3363  0.9705
 8126TIP3   OH224341   5.185   6.443   5.258 -0.2598  0.8128 -0.1557
 8126TIP3    H124342   5.235   6.494   5.195 -0.5011 -0.4645 -1.4591
 8126TIP3    H224343   5.216   6.472   5.343  0.8964  1.8056 -0.8797
 8127TIP3   OH224344   4.176   1.977   2.154  0.2769 -0.3122  0.1595
 8127TIP3    H124345   4.209   2.056   2.111  1.0813  0.3532  1.8954
 8127TIP3    H224346   4.254   1.922   2.166 -0.3509 -1.6980 -1.5437
 8128TIP3   OH224347   2.461   1.607   3.495  0.2817 -0.7295 -0.0974
 8128TIP3    H124348   2.541   1.563   3.467 -0.5665 -0.9183 -2.4013
 8128TIP3    H224349   2.390   1.550   3.465 -0.7600  0.4942 -0.0566
 8129TIP3   OH224350   3.545   6.784   1.615  0.1726 -0.1298 -0.4486
 8129TIP3    H124351   3.636   6.804   1.590 -0.2884  1.2995 -1.1231
 8129TIP3    H224352   3.553   6.734   1.696  1.5340  1.5652  0.5318
 8130TIP3   OH224353   6.149   0.814   2.461 -0.1898 -0.4396 -0.1438
 8130TIP3    H124354   6.121   0.861   2.382  0.7497  2.2417  0.9821
 8130TIP3    H224355   6.115   0.867   2.533 -0.6951 -2.5983  1.3029
 8131TIP3   OH224356   0.470   5.359   4.422 -0.3366  0.2631 -0.4987
 8131TIP3    H124357   0.533   5.292   4.395 -0.4247  0.1927 -0.5322
 8131TIP3    H224358   0.484   5.431   4.362 -1.2372 -0.2911 -1.4059
 8132TIP3   OH224359   1.177   0.675   0.222 -0.5190  0.7004  0.2008
 8132TIP3    H124360   1.163   0.706   0.312  1.3186 -1.1852  1.2313
 8132TIP3    H224361   1.270   0.652   0.219 -1.1784 -2.2650 -1.1838
 8133TIP3   OH224362   6.681   3.220   3.403 -0.2559 -0.2486 -0.3288
 8133TIP3    H124363   6.771   3.192   3.388 -0.2275  0.1550 -0.9054
 8133TIP3    H224364   6.646   3.239   3.316 -0.9684 -0.6031 -0.1316
 8134TIP3   OH224365   2.488   1.120   4.023  0.8091 -0.8381 -0.1995
 8134TIP3    H124366   2.395   1.102   4.035  1.1506 -1.8201  1.2282
 8134TIP3    H224367   2.495   1.216   4.031 -0.1322 -0.6876 -0.9405
 8135TIP3   OH224368   5.573   5.169   3.276 -0.9898 -0.3510  0.0675
 8135TIP3    H124369   5.510   5.234   3.307  0.2145  0.1668  1.5871
 8135TIP3    H224370   5.654   5.189   3.324 -0.2628 -2.2812 -0.2388
 8136TIP3   OH224371   3.429   2.885   1.152  0.3613 -0.1264  0.4986
 8136TIP3    H124372   3.404   2.809   1.099 -0.7033 -0.0809  0.9133
 8136TIP3    H224373   3.377   2.876   1.232  3.4197 -1.3402  2.5404
 8137TIP3   OH224374   2.171   4.045   1.009  0.4369  0.6427 -0.1481
 8137TIP3    H124375   2.089   4.000   1.028  0.7238  1.5733  5.0183
 8137TIP3    H224376   2.227   3.978   0.970 -1.8398 -0.8349 -1.0588
 8138TIP3   OH224377   2.193   3.503   2.598  0.2222  0.2007  0.1230
 8138TIP3    H124378   2.113   3.486   2.548  0.3849  3.1547 -1.3347
 8138TIP3    H224379   2.256   3.533   2.533  2.9902 -3.0331  1.0491
 8139TIP3   OH224380   0.219   6.483   2.527 -0.3318 -0.0839  0.1739
 8139TIP3    H124381   0.300   6.533   2.529 -0.3002 -0.1515  1.1914
 8139TIP3    H224382   0.191   6.479   2.618  0.1043 -2.6116  0.2760
 8140TIP3   OH224383   2.393   5.549   5.311  0.0077  0.3275  0.5874
 8140TIP3    H124384   2.457   5.545   5.241  0.3348  0.3343  0.8818
 8140TIP3    H224385   2.309   5.559   5.267  0.0302 -1.2474  0.1128
 8141TIP3   OH224386   7.109   4.814   1.132 -0.2771 -0.1055 -0.5354
 8141TIP3    H124387   7.104   4.800   1.037 -1.8272  1.2384 -0.6933
 8141TIP3    H224388   7.196   4.850   1.146  0.2647 -1.0383 -1.3296
 8142TIP3   OH224389   6.919   4.999   1.519 -0.2981  0.1046 -0.2011
 8142TIP3    H124390   6.838   4.969   1.479 -0.3878 -1.4366  1.0182
 8142TIP3    H224391   6.977   5.019   1.446 -0.9640 -1.1377 -1.0922
 8143TIP3   OH224392   1.763   1.419   4.926 -0.0187  0.4610  0.0175
 8143TIP3    H124393   1.693   1.482   4.911 -0.9265 -0.7390 -1.0828
 8143TIP3    H224394   1.820   1.427   4.850  0.6340  0.8900  0.5381
 8144TIP3   OH224395   2.457   5.560   1.052 -0.2070 -0.1727  0.3447
 8144TIP3    H124396   2.367   5.530   1.042  0.3450 -1.6322 -0.6485
 8144TIP3    H224397   2.472   5.617   0.976  0.3207 -1.6115 -0.6605
 8145TIP3   OH224398   0.176   2.361   3.223 -0.6157  0.4065 -0.5069
 8145TIP3    H124399   0.223   2.397   3.147  0.6101 -1.6144 -0.7663
 8145TIP3    H224400   0.084   2.379   3.204 -0.1699  2.2943 -1.1643
 8146TIP3   OH224401   5.354   3.741   4.499 -0.0699 -0.5130 -0.4570
 8146TIP3    H124402   5.381   3.763   4.410 -2.4071  1.6897 -0.7250
 8146TIP3    H224403   5.305   3.817   4.529  0.4121 -1.2831  2.6708
 8147TIP3   OH224404   5.211   6.048   3.649 -0.1648  0.1577 -0.1452
 8147TIP3    H124405   5.206   5.999   3.731 -2.2604 -1.5767 -1.1862
 8147TIP3    H224406   5.291   6.100   3.656  0.8105 -1.5053  2.1075
 8148TIP3   OH224407   6.945   2.835   1.236  0.1576 -0.3336  0.3865
 8148TIP3    H124408   6.904   2.906   1.285  3.2793  0.4003  2.1945
 8148TIP3    H224409   6.962   2.767   1.302  0.6062 -1.1643 -0.5556
 8149TIP3   OH224410   2.790   3.405   4.230 -0.1212  0.2836 -0.0217
 8149TIP3    H124411   2.836   3.321   4.219 -3.0373 -1.8636  2.3788
 8149TIP3    H224412   2.806   3.429   4.322  0.2902  2.1862 -0.5552
 8150TIP3   OH224413   4.575   4.547   0.293 -0.2477 -0.0820 -0.5714
 8150TIP3    H124414   4.527   4.522   0.215 -2.5439  1.4431  0.2628
 8150TIP3    H224415   4.609   4.635   0.274 -0.1715 -0.0113 -0.1374
 8151TIP3   OH224416   6.687   1.710   4.503 -0.2998  0.0428  0.3264
 8151TIP3    H124417   6.691   1.617   4.478 -0.4807 -0.0545  0.6598
 8151TIP3    H224418   6.594   1.731   4.500 -0.2332  0.3000 -0.0495
 8152TIP3   OH224419   0.036   4.033   4.239 -0.5505 -0.1286  0.2443
 8152TIP3    H124420   0.121   3.998   4.211 -1.2740  0.0181 -2.4778
 8152TIP3    H224421   0.025   4.112   4.186 -1.1768  1.4589  2.6254
 8153TIP3   OH224422   5.914   0.488   2.317 -0.2170 -0.4970  0.5544
 8153TIP3    H124423   5.990   0.440   2.284 -0.2910 -0.1652 -0.1257
 8153TIP3    H224424   5.902   0.559   2.253 -1.3400 -0.7822  0.4283
 8154TIP3   OH224425   5.335   4.029   4.373  0.0981  0.7221 -0.5462
 8154TIP3    H124426   5.246   4.011   4.342 -0.1139 -0.6113  0.7035
 8154TIP3    H224427   5.391   3.970   4.322 -0.0529 -0.2514  0.3824
 8155TIP3   OH224428   3.214   4.790   5.400  0.0373  0.0432  1.3200
 8155TIP3    H124429   3.214   4.707   5.353  0.7694  0.7084  0.0972
 8155TIP3    H224430   3.306   4.803   5.425  0.0334  0.7905  0.9532
 8156TIP3   OH224431   2.105   5.767   3.961 -0.1429  0.0089  0.1022
 8156TIP3    H124432   2.151   5.792   4.041 -0.1289 -0.5763  0.2837
 8156TIP3    H224433   2.137   5.828   3.895  2.3742 -1.5363 -0.2403
 8157TIP3   OH224434   2.053   5.543   3.317 -0.2563 -0.0404 -0.3657
 8157TIP3    H124435   2.095   5.482   3.377  0.5235 -1.3980 -2.1854
 8157TIP3    H224436   2.102   5.625   3.329 -0.0187 -0.3244  0.7040
 8158TIP3   OH224437   6.487   5.635   0.046  0.5026 -0.2517  0.4205
 8158TIP3    H124438   6.413   5.694   0.033  1.6187  0.8806 -1.2269
 8158TIP3    H224439   6.458   5.574   0.114 -0.1477  3.1137  3.4602
 8159TIP3   OH224440   4.035   4.906   4.303  0.1108  0.2643 -0.3299
 8159TIP3    H124441   4.007   4.934   4.390 -0.0143 -1.3295  0.1733
 8159TIP3    H224442   4.060   4.987   4.259  0.1533  1.1072  1.1718
 8160TIP3   OH224443   3.579   1.087   5.047  0.0586  0.1446  0.1562
 8160TIP3    H124444   3.641   1.031   5.092  0.4636  0.5021  0.0492
 8160TIP3    H224445   3.567   1.162   5.106 -0.3908  0.0010  0.2481
 8161TIP3   OH224446   4.980   0.810   0.785  0.4541 -0.8408 -1.1066
 8161TIP3    H124447   4.936   0.806   0.870  3.2095  0.9261  0.5639
 8161TIP3    H224448   4.967   0.900   0.756  1.0681 -0.9238 -1.6504
 8162TIP3   OH224449   0.428   0.287   3.608 -0.3559 -0.0977  0.3282
 8162TIP3    H124450   0.370   0.252   3.676 -1.3692  0.5265 -0.1763
 8162TIP3    H224451   0.438   0.215   3.546 -1.5532  0.1202 -0.1566
 8163TIP3   OH224452   3.651   4.394   2.789 -0.3952 -0.1230 -0.4907
 8163TIP3    H124453   3.601   4.416   2.868 -0.4667 -1.6651 -0.0853
 8163TIP3    H224454   3.590   4.406   2.717 -0.3520  1.2256 -0.3430
 8164TIP3   OH224455   3.272   4.984   5.081  0.1824 -0.3094 -0.9979
 8164TIP3    H124456   3.187   4.942   5.090 -0.4782  1.0104 -0.7382
 8164TIP3    H224457   3.254   5.062   5.027  0.4526  2.0216  2.0312
 8165TIP3   OH224458   3.737   5.649   4.028  0.6918 -0.3432  0.2319
 8165TIP3    H124459   3.649   5.615   4.043  0.6166  0.5099  1.9806
 8165TIP3    H224460   3.723   5.731   3.981  0.3205  1.0529  2.6335
 8166TIP3   OH224461   3.692   6.298   0.305  0.0581  0.1661  0.3986
 8166TIP3    H124462   3.607   6.309   0.262  0.4101  2.2108  0.1458
 8166TIP3    H224463   3.669   6.279   0.396 -0.6835  1.1022  0.4246
 8167TIP3   OH224464   4.041   4.764   5.883  0.1753 -0.3016  0.0379
 8167TIP3    H124465   4.010   4.792   5.797 -0.3862 -2.4542 -0.5136
 8167TIP3    H224466   4.067   4.845   5.926 -0.8306  0.9795 -1.6327
 8168TIP3   OH224467   2.952   5.705   3.212 -0.4337  0.1128  0.1801
 8168TIP3    H124468   3.022   5.762   3.243 -2.1293  1.6087  1.4941
 8168TIP3    H224469   2.882   5.764   3.186 -2.0445 -1.3173  1.0145
 8169TIP3   OH224470   4.540   6.351   2.552 -0.1633 -0.4575  0.0926
 8169TIP3    H124471   4.511   6.314   2.635 -0.2830 -1.4180 -0.3631
 8169TIP3    H224472   4.473   6.325   2.489 -0.8465  1.4832 -0.0678
 8170TIP3   OH224473   3.241   0.939   1.360  0.1302  0.1874  0.6901
 8170TIP3    H124474   3.256   1.030   1.334 -2.2027  0.9223  1.6747
 8170TIP3    H224475   3.278   0.933   1.448  0.8418 -0.0177  0.3847
 8171TIP3   OH224476   3.205   3.180   0.704 -0.4789 -0.7064  0.2425
 8171TIP3    H124477   3.276   3.208   0.761 -1.0842  0.4786  0.4549
 8171TIP3    H224478   3.236   3.099   0.664  0.6820 -0.5941  0.8818
 8172TIP3   OH224479   5.377   1.694   4.796 -0.0505  0.7350 -0.8405
 8172TIP3    H124480   5.356   1.640   4.720 -0.2525  1.9089 -1.6547
 8172TIP3    H224481   5.391   1.782   4.759  1.1950  1.0548  0.3135
 8173TIP3   OH224482   3.048   4.510   4.719  0.3083 -0.0390  0.2878
 8173TIP3    H124483   3.124   4.509   4.661  0.4038  0.3449  0.4041
 8173TIP3    H224484   3.041   4.601   4.748  0.9149 -0.4133  1.7378
 8174TIP3   OH224485   0.833   6.642   4.101  0.2094 -0.2884  0.2192
 8174TIP3    H124486   0.803   6.649   4.192  0.2710 -0.3928  0.2476
 8174TIP3    H224487   0.753   6.638   4.049  0.1731  0.0136  0.2501
 8175TIP3   OH224488   5.923   1.879   0.854 -0.6311 -0.2143  0.1413
 8175TIP3    H124489   5.993   1.821   0.884 -0.1534 -0.5083 -1.4835
 8175TIP3    H224490   5.842   1.833   0.879 -0.2618 -1.5437 -0.9797
 8176TIP3   OH224491   2.875   4.447   4.960  0.0421 -0.0604  0.7881
 8176TIP3    H124492   2.927   4.413   5.033  0.7192 -1.2518 -0.2035
 8176TIP3    H224493   2.939   4.464   4.891 -0.7230 -0.2826  0.0018
 8177TIP3   OH224494   4.908   5.361   5.468 -0.0929 -0.1504  0.3792
 8177TIP3    H124495   4.942   5.421   5.535 -0.4462  0.3809  0.0883
 8177TIP3    H224496   4.822   5.336   5.500 -0.3145  0.2034  0.0601
 8178TIP3   OH224497   1.819   6.327   2.847  0.0149  0.6755 -0.3236
 8178TIP3    H124498   1.847   6.248   2.893 -0.0197  0.7753 -0.1272
 8178TIP3    H224499   1.900   6.377   2.834 -0.0445  0.8852  0.0921
 8179TIP3   OH224500   7.138   4.479   0.928 -0.0384 -0.2044  0.0244
 8179TIP3    H124501   7.047   4.507   0.938  0.0575 -0.1333  0.8047
 8179TIP3    H224502   7.138   4.386   0.950  0.0286 -0.2763 -0.2715
 8180TIP3   OH224503   3.719   0.059   3.903 -0.0795 -0.3354 -0.0677
 8180TIP3    H124504   3.670   0.141   3.917 -1.3506 -1.3677  2.2742
 8180TIP3    H224505   3.663  -0.008   3.942  2.2823 -1.8997  0.8274
 8181TIP3   OH224506   1.762   0.365   0.658  0.0018 -0.1535  0.3321
 8181TIP3    H124507   1.763   0.270   0.648 -0.9877 -0.0968 -0.3259
 8181TIP3    H224508   1.822   0.381   0.732  1.7223 -1.1162 -0.7780
 8182TIP3   OH224509   3.361   5.479   0.567 -0.0259  0.3528  0.5629
 8182TIP3    H124510   3.444   5.436   0.588  0.4980  1.5866  1.1031
 8182TIP3    H224511   3.372   5.569   0.598 -1.1122  0.8727 -0.4947
 8183TIP3   OH224512   3.423   6.155   5.773 -0.4417 -0.4633 -0.2892
 8183TIP3    H124513   3.377   6.072   5.759  0.1248 -0.6759 -0.9087
 8183TIP3    H224514   3.507   6.145   5.729 -1.1665  1.1782 -2.2462
 8184TIP3   OH224515   2.854   3.846   4.022 -0.0150  0.3665 -0.0376
 8184TIP3    H124516   2.942   3.850   3.985  0.1185  1.0379  0.3258
 8184TIP3    H224517   2.842   3.755   4.047  0.0005 -0.0409 -1.4622
 8185TIP3   OH224518   6.006   0.943   4.708  0.2466 -0.8364  0.2528
 8185TIP3    H124519   6.007   0.868   4.649 -0.0624 -0.6440  0.0003
 8185TIP3    H224520   5.915   0.949   4.739  0.2176 -0.4409  0.1044
 8186TIP3   OH224521   1.832   3.210   0.952  0.2814 -0.0616 -0.0905
 8186TIP3    H124522   1.787   3.127   0.934 -2.1716  0.8960  1.1416
 8186TIP3    H224523   1.886   3.192   1.029 -0.0518 -0.5929  0.0233
 8187TIP3   OH224524   1.989   6.339   4.600  0.2890  0.0928  0.4416
 8187TIP3    H124525   2.076   6.309   4.570  0.6823  2.6288 -1.2307
 8187TIP3    H224526   1.927   6.291   4.545  0.7352 -0.0945  0.0947
 8188TIP3   OH224527   6.575   4.756   1.003 -0.1708 -0.0504 -0.1524
 8188TIP3    H124528   6.621   4.707   0.935  0.7176 -1.3008  1.2858
 8188TIP3    H224529   6.637   4.824   1.030 -0.3218  0.1231 -0.2400
 8189TIP3   OH224530   1.971   5.356   4.902  0.3386 -0.3699  0.3140
 8189TIP3    H124531   1.877   5.345   4.918  0.2102 -1.9107 -1.1571
 8189TIP3    H224532   1.976   5.396   4.815  1.0470  0.1159  0.5740
 8190TIP3   OH224533   5.348   4.753   1.381 -0.3507  0.4902 -0.3025
 8190TIP3    H124534   5.375   4.843   1.399 -0.0160  0.3672 -0.1772
 8190TIP3    H224535   5.369   4.740   1.288  0.2664  0.3145 -0.1449
 8191TIP3   OH224536   2.584   3.723   1.121  0.0272  0.4214 -0.1986
 8191TIP3    H124537   2.636   3.731   1.041 -0.5697 -0.0662 -0.6471
 8191TIP3    H224538   2.542   3.808   1.131  1.1502  0.9261  0.3457
 8192TIP3   OH224539   2.980   1.435   0.711 -0.0302 -0.3419  0.6703
 8192TIP3    H124540   3.060   1.448   0.763 -0.2864  0.3784  0.8972
 8192TIP3    H224541   2.919   1.391   0.771 -0.5986  1.1876  1.2627
 8193TIP3   OH224542   4.133   5.131   5.096  0.2143  0.1598  0.2223
 8193TIP3    H124543   4.073   5.205   5.103 -0.1539 -0.2148  1.1067
 8193TIP3    H224544   4.219   5.170   5.078 -0.0426  0.7742  0.3291
 8194TIP3   OH224545   3.206   5.943   3.634  0.4265 -0.5550  0.2927
 8194TIP3    H124546   3.220   6.012   3.569 -0.0296 -0.5814  0.1643
 8194TIP3    H224547   3.113   5.919   3.624 -0.4277  1.3080  2.7249
 8195TIP3   OH224548   1.091   4.964   2.118 -0.6695  0.6775 -0.1158
 8195TIP3    H124549   1.095   5.043   2.172  0.1369  2.4661 -2.5697
 8195TIP3    H224550   0.998   4.954   2.097 -0.7284  1.2909 -0.1753
 8196TIP3   OH224551   1.685   4.813   5.296 -0.0173 -0.1355  1.0388
 8196TIP3    H124552   1.704   4.789   5.205  1.3745  0.8305  1.0525
 8196TIP3    H224553   1.591   4.796   5.305 -0.1609 -0.3952 -0.5298
 8197TIP3   OH224554   4.542   3.595   3.496 -0.5337  0.2504 -0.1181
 8197TIP3    H124555   4.472   3.653   3.466 -1.5768 -0.7225  0.3675
 8197TIP3    H224556   4.597   3.651   3.551 -0.9502  1.0233 -0.4710
 8198TIP3   OH224557   3.699   4.219   3.258 -0.3741  0.5770  0.2650
 8198TIP3    H124558   3.652   4.201   3.339 -1.2164 -2.4012 -0.7464
 8198TIP3    H224559   3.755   4.142   3.245  1.8135  2.1968 -0.6508
 8199TIP3   OH224560   0.818   4.397   3.775 -0.2762 -0.1414  0.5235
 8199TIP3    H124561   0.731   4.415   3.810 -0.0085 -0.7355  1.5444
 8199TIP3    H224562   0.823   4.302   3.769 -0.6170 -0.0507 -2.0202
 8200TIP3   OH224563   4.847   4.458   5.854 -0.3051 -0.1507  0.0910
 8200TIP3    H124564   4.834   4.384   5.914 -0.9068 -1.6583 -1.7896
 8200TIP3    H224565   4.835   4.420   5.767 -4.3726  2.8416 -0.9470
 8201TIP3   OH224566   3.746   5.567   3.387 -0.1214  0.1904 -0.1391
 8201TIP3    H124567   3.818   5.514   3.352 -1.0651 -0.1792 -1.5954
 8201TIP3    H224568   3.688   5.582   3.312 -1.0886  1.2843  0.7862
 8202TIP3   OH224569   1.858   0.108   3.182  0.7666  0.4595  0.1001
 8202TIP3    H124570   1.950   0.083   3.182  0.9752  1.1053 -1.7669
 8202TIP3    H224571   1.810   0.026   3.194  1.5488 -0.1194 -0.6752
 8203TIP3   OH224572   4.583   4.224   2.527 -0.1826  0.2509 -0.4551
 8203TIP3    H124573   4.634   4.278   2.468  0.1138 -0.3868 -0.7866
 8203TIP3    H224574   4.643   4.157   2.558 -0.1724  0.8859  1.0135
 8204TIP3   OH224575   0.847   2.706   0.207 -0.8770  0.1117  0.1189
 8204TIP3    H124576   0.873   2.642   0.141  0.7366 -0.0402  0.8407
 8204TIP3    H224577   0.872   2.790   0.169  0.3234  0.0029  0.6095
 8205TIP3   OH224578   3.933   4.704   0.371 -0.0025  0.0349  0.1306
 8205TIP3    H124579   3.935   4.689   0.276  1.8252 -0.5510  0.2209
 8205TIP3    H224580   3.950   4.618   0.409 -0.2400  0.3613  0.9833
 8206TIP3   OH224581   6.574   6.191   4.555  0.9342 -0.0047  0.6236
 8206TIP3    H124582   6.605   6.275   4.589  0.5887  0.0046  0.9265
 8206TIP3    H224583   6.502   6.167   4.614  0.1721  0.1183 -0.2396
 8207TIP3   OH224584   0.816   4.754   5.590  0.1377 -0.2489 -0.1339
 8207TIP3    H124585   0.728   4.721   5.610 -0.4106  0.7815 -0.7608
 8207TIP3    H224586   0.845   4.701   5.515  0.9167 -1.9673  1.2912
 8208TIP3   OH224587   6.539   1.805   3.620 -0.3351  0.4821 -1.1424
 8208TIP3    H124588   6.573   1.758   3.544  1.2186  2.5600 -1.8225
 8208TIP3    H224589   6.497   1.883   3.583  0.2308  1.4098  0.0978
 8209TIP3   OH224590   1.022   1.893   4.422 -0.4459 -0.4071  0.4942
 8209TIP3    H124591   0.958   1.954   4.457  0.1894 -0.1204  1.1715
 8209TIP3    H224592   0.973   1.842   4.358 -0.8147  1.3234 -0.6749
 8210TIP3   OH224593   4.298   1.700   4.157 -0.3412  0.2869 -0.1526
 8210TIP3    H124594   4.332   1.690   4.068  2.2973 -0.0175  0.8290
 8210TIP3    H224595   4.292   1.611   4.191  0.2823  0.4929  0.5252
 8211TIP3   OH224596   3.808   4.363   2.101  0.0817  0.4729  0.1397
 8211TIP3    H124597   3.840   4.376   2.190 -0.1040 -0.3246  0.3386
 8211TIP3    H224598   3.713   4.370   2.109  0.0426  0.0603  0.0758
 8212TIP3   OH224599   0.743   4.125   0.162  0.0361 -0.1823  0.5116
 8212TIP3    H124600   0.757   4.220   0.161 -1.0321 -0.0077 -1.3782
 8212TIP3    H224601   0.661   4.114   0.209 -0.4195 -0.0617 -0.2433
 8213TIP3   OH224602   7.188   6.766   2.113  0.0305 -0.2862  0.2674
 8213TIP3    H124603   7.114   6.741   2.168 -1.9200  1.0788 -1.5654
 8213TIP3    H224604   7.228   6.683   2.086 -0.9577 -1.0585  1.1002
 8214TIP3   OH224605   2.029   5.861   4.634 -0.0803 -0.6011  0.4504
 8214TIP3    H124606   2.059   5.905   4.555  0.2947  1.7483  1.7802
 8214TIP3    H224607   1.967   5.795   4.603  0.8681 -0.5192 -1.8311
 8215TIP3   OH224608   4.567   5.778   3.052 -0.0961  0.3461  0.4486
 8215TIP3    H124609   4.546   5.722   3.127 -0.5414  0.1412  0.1741
 8215TIP3    H224610   4.562   5.867   3.086 -0.4124  0.2593  0.6327
 8216TIP3   OH224611   5.016   0.610   4.757  0.3996  0.1732  0.5510
 8216TIP3    H124612   4.927   0.585   4.731  0.0024  2.0259 -0.0181
 8216TIP3    H224613   5.073   0.558   4.701 -0.3107 -0.8246  0.7167
 8217TIP3   OH224614   4.795   0.270   4.599  0.0650 -0.6079  0.0148
 8217TIP3    H124615   4.731   0.315   4.653  0.7017 -0.9045  1.0403
 8217TIP3    H224616   4.820   0.335   4.533  1.2164  0.7183  1.6555
 8218TIP3   OH224617   5.095   1.103   3.258  0.1743  0.1225 -0.0234
 8218TIP3    H124618   5.067   1.162   3.188 -1.3399  0.1762  0.5977
 8218TIP3    H224619   5.135   1.030   3.213  0.4134  0.7671 -0.8833
 8219TIP3   OH224620   0.682   1.385   2.306 -0.4050 -0.4427  0.5225
 8219TIP3    H124621   0.729   1.449   2.359 -0.7747  1.8113 -1.6847
 8219TIP3    H224622   0.593   1.386   2.342 -0.3237  0.0607  0.7227
 8220TIP3   OH224623   0.251   0.869   5.054 -0.1017  0.4518  0.1020
 8220TIP3    H124624   0.323   0.810   5.030 -0.6346 -0.3790  0.4997
 8220TIP3    H224625   0.205   0.885   4.972  0.7600  1.3208 -0.2338
 8221TIP3   OH224626   0.582   0.302   0.174 -0.0039  0.5762  0.7321
 8221TIP3    H124627   0.656   0.363   0.183  0.8333 -0.0379 -1.3063
 8221TIP3    H224628   0.506   0.358   0.163  0.7774  1.3456 -1.3127
 8222TIP3   OH224629   0.722   0.431   4.104 -0.7910 -0.9055 -0.0180
 8222TIP3    H124630   0.797   0.385   4.140  0.2449 -0.8042 -1.9376
 8222TIP3    H224631   0.662   0.362   4.075 -1.0272 -0.9867  0.6377
 8223TIP3   OH224632   6.907   5.992   1.839 -0.2572 -0.4694 -0.0914
 8223TIP3    H124633   6.923   6.046   1.916 -1.2915 -1.2228  0.6874
 8223TIP3    H224634   6.986   6.003   1.785  0.4344  0.1785  1.0071
 8224TIP3   OH224635   1.522   5.429   5.289  0.0206  0.2586  0.2552
 8224TIP3    H124636   1.489   5.519   5.284 -0.5464 -0.0355 -2.5601
 8224TIP3    H224637   1.444   5.375   5.291  0.3495 -0.2459  2.5127
 8225TIP3   OH224638   0.283   4.248   1.794  0.1333  0.3249  0.7602
 8225TIP3    H124639   0.249   4.159   1.784 -1.9265  0.9146  1.9350
 8225TIP3    H224640   0.211   4.305   1.766  0.2981  1.6507  2.7857
 8226TIP3   OH224641   2.881   0.705   1.244 -0.4916  0.1911 -0.0924
 8226TIP3    H124642   2.922   0.666   1.322  2.9325  0.5986 -1.4912
 8226TIP3    H224643   2.887   0.799   1.259 -0.0963  0.2654 -0.7030
 8227TIP3   OH224644   5.238   2.017   5.077 -0.4662 -0.2556 -0.3910
 8227TIP3    H124645   5.255   2.085   5.141  0.7462 -1.5274  0.6813
 8227TIP3    H224646   5.324   1.991   5.044 -0.6386 -2.7757  0.8730
 8228TIP3   OH224647   2.424   6.081   4.679 -0.1663 -0.4535  0.0034
 8228TIP3    H124648   2.361   6.098   4.749  0.2329 -0.9651  0.4974
 8228TIP3    H224649   2.397   6.138   4.608 -0.0889  0.7042  0.8758
 8229TIP3   OH224650   1.707   2.325   1.945 -0.9321 -0.5675  0.5777
 8229TIP3    H124651   1.619   2.353   1.919 -1.1873 -3.0053 -1.6488
 8229TIP3    H224652   1.696   2.285   2.031 -1.7702  0.2040  0.8406
 8230TIP3   OH224653   5.637   0.488   0.372 -0.2756 -0.4594  0.0316
 8230TIP3    H124654   5.654   0.562   0.429 -0.2275 -0.3302 -0.1522
 8230TIP3    H224655   5.547   0.461   0.394 -0.0306 -0.8162  0.6254
 8231TIP3   OH224656   6.882   5.623   4.778  0.1918 -0.6633  0.5003
 8231TIP3    H124657   6.952   5.565   4.808  0.2373 -0.5037  0.7099
 8231TIP3    H224658   6.808   5.603   4.835  0.4029 -0.0779  0.9943
 8232TIP3   OH224659   5.137   0.334   1.600  0.4705  0.2713 -0.1449
 8232TIP3    H124660   5.226   0.363   1.621  1.1989 -1.1269 -1.1246
 8232TIP3    H224661   5.081   0.384   1.659  1.6484  3.2575 -1.3606
 8233TIP3   OH224662   2.138   2.645   4.595 -0.5870  0.3814 -0.0751
 8233TIP3    H124663   2.141   2.566   4.648 -1.4722 -0.4113 -1.1257
 8233TIP3    H224664   2.228   2.662   4.569 -0.4921 -0.8855 -0.6364
 8234TIP3   OH224665   5.117   5.030   2.120 -0.1946 -0.5148 -0.2140
 8234TIP3    H124666   5.194   5.087   2.112  1.6646 -2.3446  2.5306
 8234TIP3    H224667   5.139   4.952   2.069  0.1209 -1.3003  1.0676
 8235TIP3   OH224668   5.384   0.582   1.415 -0.5934  0.0785  0.2380
 8235TIP3    H124669   5.299   0.587   1.459 -1.3221  0.8084 -1.2055
 8235TIP3    H224670   5.405   0.489   1.414 -0.4974  0.0292  2.1785
 8236TIP3   OH224671   1.236   6.246   5.217 -0.7197 -0.5753 -0.0350
 8236TIP3    H124672   1.286   6.165   5.205  2.4130  1.1259  0.5789
 8236TIP3    H224673   1.211   6.271   5.128  0.0368 -1.1604 -0.4250
 8237TIP3   OH224674   6.869   2.241   4.712 -0.3232  0.1624  0.1236
 8237TIP3    H124675   6.898   2.154   4.687 -1.8859 -0.7307  1.2107
 8237TIP3    H224676   6.823   2.274   4.635 -0.7219 -0.4674  0.0859
 8238TIP3   OH224677   1.109   5.213   3.826 -0.0545  0.3122  0.4170
 8238TIP3    H124678   1.044   5.185   3.762 -0.2061 -0.9836  1.0986
 8238TIP3    H224679   1.106   5.146   3.894 -0.2121  1.8488  2.0110
 8239TIP3   OH224680   6.809   0.622   3.558  0.0583  0.1723  0.3717
 8239TIP3    H124681   6.729   0.674   3.569 -0.8117 -0.9351 -0.4159
 8239TIP3    H224682   6.780   0.544   3.510  1.8079  0.2137 -0.8283
 8240TIP3   OH224683   1.033   2.332   5.711 -0.2130  0.4098 -0.0466
 8240TIP3    H124684   1.072   2.347   5.798  1.5316  0.8361 -0.8651
 8240TIP3    H224685   0.964   2.398   5.705  0.0965  0.8337  0.7737
 8241TIP3   OH224686   5.657   1.708   4.651  0.2482 -0.4730  0.1075
 8241TIP3    H124687   5.613   1.659   4.582  0.9753 -0.3947 -0.4268
 8241TIP3    H224688   5.611   1.683   4.731 -2.2564  1.3666 -0.6589
 8242TIP3   OH224689   4.101   3.721   0.955  0.4466  0.5028 -0.1080
 8242TIP3    H124690   4.065   3.762   0.876  0.9258 -1.6757 -1.5445
 8242TIP3    H224691   4.176   3.776   0.978  0.2268  1.2516 -1.1085
 8243TIP3   OH224692   1.956   3.859   1.623  0.3764 -0.2044 -0.2807
 8243TIP3    H124693   1.984   3.788   1.565 -1.9302 -0.0570 -1.6718
 8243TIP3    H224694   1.874   3.890   1.586  0.7796  2.5335  0.8941
 8244TIP3   OH224695   3.783   1.745   3.731 -0.2731 -0.0009 -0.5930
 8244TIP3    H124696   3.695   1.783   3.726 -0.3782 -0.2696 -0.8741
 8244TIP3    H224697   3.831   1.802   3.791 -0.4267  0.5625 -0.9987
 8245TIP3   OH224698   5.263   3.128   3.930 -0.0973 -0.0954 -0.0023
 8245TIP3    H124699   5.284   3.218   3.903  2.5472 -1.1407 -1.8022
 8245TIP3    H224700   5.244   3.135   4.023 -2.5950  2.6787 -0.5651
 8246TIP3   OH224701   3.142   1.612   2.832 -0.0508  0.3672  0.0615
 8246TIP3    H124702   3.071   1.565   2.875 -1.2756  0.8674 -1.3162
 8246TIP3    H224703   3.150   1.694   2.880 -2.7876  1.8286 -1.7370
 8247TIP3   OH224704   1.369   2.360   3.991  0.2484 -0.0118 -0.9234
 8247TIP3    H124705   1.282   2.377   4.028  1.4358  0.9763  1.7028
 8247TIP3    H224706   1.430   2.381   4.062  2.9294  3.3675 -3.8154
 8248TIP3   OH224707   4.834   6.627   0.274  0.6185  0.0745  0.4657
 8248TIP3    H124708   4.759   6.683   0.294 -0.1604  0.4155 -2.7870
 8248TIP3    H224709   4.796   6.545   0.243  1.5162  0.1870 -1.0800
 8249TIP3   OH224710   2.308   4.299   1.585 -0.5091  0.1944  0.5115
 8249TIP3    H124711   2.375   4.366   1.576 -0.6748  0.6888  2.5376
 8249TIP3    H224712   2.356   4.216   1.590  0.0027  0.5525  2.0742
 8250TIP3   OH224713   3.863   6.352   2.643  0.6261 -0.2387 -0.3657
 8250TIP3    H124714   3.792   6.389   2.696  0.8180 -1.6275  0.9206
 8250TIP3    H224715   3.821   6.329   2.560 -0.0973  0.3070 -0.1663
 8251TIP3   OH224716   5.414   3.501   5.549  0.7534  0.3167 -0.8696
 8251TIP3    H124717   5.506   3.504   5.577  0.1941 -2.5722  1.9035
 8251TIP3    H224718   5.375   3.579   5.588  1.9790  1.6832 -2.2421
 8252TIP3   OH224719   1.257   5.336   5.253  0.3639 -0.2801 -0.4091
 8252TIP3    H124720   1.179   5.369   5.208 -0.4169 -0.4075  0.8231
 8252TIP3    H224721   1.224   5.276   5.318  1.5257 -0.5636 -0.0569
 8253TIP3   OH224722   5.987   0.901   5.085 -0.4089 -0.3970 -0.8196
 8253TIP3    H124723   6.032   0.933   5.163  1.5583 -0.6882 -1.7788
 8253TIP3    H224724   5.934   0.975   5.055 -3.0120 -0.9322  1.9492
 8254TIP3   OH224725   0.101   4.310   4.085  0.0636 -0.2269  0.0368
 8254TIP3    H124726   0.196   4.312   4.082  0.0353  1.3483 -1.7600
 8254TIP3    H224727   0.077   4.387   4.136 -0.2626 -0.7332  0.6598
 8255TIP3   OH224728   0.447   5.013   5.870  0.2743  0.0458  0.2853
 8255TIP3    H124729   0.368   5.064   5.851 -1.0136 -1.4333  1.3945
 8255TIP3    H224730   0.493   5.066   5.937 -0.3528  0.3922  0.4539
 8256TIP3   OH224731   6.417   0.626   3.761 -0.1873  0.0888  0.6203
 8256TIP3    H124732   6.417   0.539   3.803 -0.1322 -0.1366  0.1572
 8256TIP3    H224733   6.328   0.637   3.729 -0.9229  1.2869  2.8741
 8257TIP3   OH224734   4.907   0.850   4.936 -0.1131 -0.2251 -0.0770
 8257TIP3    H124735   4.988   0.801   4.944 -0.8840 -1.3750  1.0278
 8257TIP3    H224736   4.842   0.785   4.908 -0.6275  0.7067 -1.1137
 8258TIP3   OH224737   1.603   0.417   0.408 -0.0506 -0.6452 -0.1673
 8258TIP3    H124738   1.539   0.479   0.442 -1.1930 -1.5818 -0.5524
 8258TIP3    H224739   1.658   0.395   0.483 -0.9178 -0.7201  0.4608
 8259TIP3   OH224740   0.195   3.826   5.362  0.0536 -0.0643 -0.6828
 8259TIP3    H124741   0.267   3.878   5.399  0.0349 -0.4056 -0.1402
 8259TIP3    H224742   0.125   3.888   5.347 -0.6293 -0.1714  1.6581
 8260TIP3   OH224743   3.015   2.059   2.204  0.2671  0.1138 -0.5022
 8260TIP3    H124744   3.073   2.017   2.141 -2.9197 -2.1603 -2.1753
 8260TIP3    H224745   3.021   2.004   2.282  1.1757  0.5942 -0.2144
 8261TIP3   OH224746   0.918   5.118   3.622 -0.4677  0.1680 -0.2951
 8261TIP3    H124747   0.932   5.037   3.573 -1.1344 -0.3318  0.3188
 8261TIP3    H224748   0.841   5.100   3.676  0.3494  0.6469  1.0752
 8262TIP3   OH224749   3.472   3.310   1.962 -0.2020 -0.1375  0.3470
 8262TIP3    H124750   3.449   3.280   1.874  0.4113 -1.0834  0.4962
 8262TIP3    H224751   3.394   3.355   1.994 -0.3801  0.3517 -0.7346
 8263TIP3   OH224752   0.076   0.325   4.351  0.7464 -0.4074  0.1430
 8263TIP3    H124753   0.156   0.376   4.346  0.4820 -0.0673 -0.8268
 8263TIP3    H224754   0.105   0.234   4.349  1.1146 -0.2846 -0.0781
 8264TIP3   OH224755   7.034   2.097   0.517  0.4352  0.1221 -0.1002
 8264TIP3    H124756   6.955   2.104   0.571  0.3684  0.2123 -0.2085
 8264TIP3    H224757   7.095   2.160   0.555 -0.1694  1.3746 -1.0827
 8265TIP3   OH224758   1.883   4.108   4.089  0.1260  0.0590 -0.0738
 8265TIP3    H124759   1.846   4.097   4.176 -0.8068  1.8656 -0.1860
 8265TIP3    H224760   1.971   4.073   4.095  0.1429  0.3372  1.6513
 8266TIP3   OH224761   4.806   0.238   2.887 -0.0973 -0.2095 -0.0170
 8266TIP3    H124762   4.882   0.183   2.904 -0.6642 -1.2751 -0.7949
 8266TIP3    H224763   4.755   0.235   2.967 -1.0673 -2.4172 -0.6329
 8267TIP3   OH224764   3.678   4.111   0.418 -0.3617  0.0854 -0.6401
 8267TIP3    H124765   3.672   4.041   0.353  3.4012 -1.5530  0.5081
 8267TIP3    H224766   3.625   4.080   0.491  0.4090 -1.1011 -0.5609
 8268TIP3   OH224767   0.358   4.694   2.384 -0.1646 -0.1079  0.3934
 8268TIP3    H124768   0.318   4.623   2.434 -0.6521  0.4630  0.8366
 8268TIP3    H224769   0.321   4.686   2.296 -0.8690  0.0996  0.6654
 8269TIP3   OH224770   2.981   3.457   1.802  0.5072 -0.1732  0.5516
 8269TIP3    H124771   2.961   3.445   1.895  0.7823 -0.6506  0.5543
 8269TIP3    H224772   2.902   3.428   1.757  0.4782 -0.2107  0.6265
 8270TIP3   OH224773   2.755   0.684   2.282 -0.2039 -0.3412  0.1924
 8270TIP3    H124774   2.803   0.602   2.272 -1.4619 -1.1654  0.5661
 8270TIP3    H224775   2.720   0.702   2.194 -1.8670 -1.5096  0.5522
 8271TIP3   OH224776   2.392   3.550   2.978 -0.0189 -0.0996  0.0308
 8271TIP3    H124777   2.400   3.481   2.913 -0.3503  0.5764 -0.7475
 8271TIP3    H224778   2.407   3.507   3.062  0.6240 -0.9408 -0.5137
 8272TIP3   OH224779   6.965   1.466   5.614 -0.0744 -0.4886 -0.2578
 8272TIP3    H124780   6.946   1.456   5.521 -3.3626  0.1481  0.2291
 8272TIP3    H224781   7.026   1.540   5.619  0.2696 -0.6409 -1.8983
 8273TIP3   OH224782   1.402   4.831   0.989  0.3991  0.3535 -1.2045
 8273TIP3    H124783   1.324   4.873   0.953 -1.6494 -0.9474  1.3774
 8273TIP3    H224784   1.412   4.870   1.075  1.8277 -0.4440 -0.9818
 8274TIP3   OH224785   0.516   6.738   4.165  0.0856  0.5542 -0.2319
 8274TIP3    H124786   0.524   6.653   4.206  0.0536  0.6649  0.0047
 8274TIP3    H224787   0.423   6.758   4.169  0.2126  1.0444  0.6219
 8275TIP3   OH224788   1.235   6.033   0.624 -0.0799  0.1033 -0.3393
 8275TIP3    H124789   1.188   6.090   0.563  1.2217  0.9088 -0.6222
 8275TIP3    H224790   1.313   6.006   0.577  0.4140 -0.1222  0.5885
 8276TIP3   OH224791   2.495   3.076   2.654 -0.5320 -0.1586 -0.2021
 8276TIP3    H124792   2.466   3.154   2.606 -2.1969  0.9859  2.4331
 8276TIP3    H224793   2.414   3.034   2.682  0.3256 -0.3983  2.0864
 8277TIP3   OH224794   4.401   3.032   2.589 -0.4227  0.4911  0.1809
 8277TIP3    H124795   4.358   2.946   2.595 -0.9370  0.7768  0.6882
 8277TIP3    H224796   4.462   3.032   2.663 -1.2441  1.0054  0.8711
 8278TIP3   OH224797   6.732   0.711   0.102  0.1728 -0.6623 -0.5244
 8278TIP3    H124798   6.795   0.710   0.175  1.2400  0.5219 -1.3854
 8278TIP3    H224799   6.656   0.758   0.137  1.4560  1.7266 -0.7022
 8279TIP3   OH224800   3.799   6.778   1.510  0.1638 -0.2825 -0.6317
 8279TIP3    H124801   3.834   6.691   1.531 -3.0334 -1.3669  0.9070
 8279TIP3    H224802   3.826   6.793   1.419  0.6672 -2.9846 -1.0189
 8280TIP3   OH224803   4.726   6.128   1.957 -0.5476  0.0939  0.6317
 8280TIP3    H124804   4.759   6.038   1.958  1.7270  0.7969 -1.2142
 8280TIP3    H224805   4.752   6.162   1.871 -1.8512  2.3472  1.0536
 8281TIP3   OH224806   0.528   6.413   3.961  0.2375 -0.6343 -0.2407
 8281TIP3    H124807   0.566   6.403   4.048  1.4254  0.4311 -0.6027
 8281TIP3    H224808   0.597   6.455   3.909  0.1538 -2.6544 -2.1416
 8282TIP3   OH224809   1.537   4.763   1.947 -0.0217  0.2843 -0.2019
 8282TIP3    H124810   1.587   4.845   1.951  2.0111 -0.6436 -2.8749
 8282TIP3    H224811   1.447   4.790   1.934  0.8921  2.3192 -3.7560
 8283TIP3   OH224812   1.269   5.322   0.291  0.0057 -0.4945  0.2596
 8283TIP3    H124813   1.276   5.244   0.346 -2.7536 -1.3035 -0.4108
 8283TIP3    H224814   1.299   5.293   0.204 -1.1555 -0.8743 -0.0240
 8284TIP3   OH224815   2.121   2.133   0.734  0.5032 -0.1364  0.2610
 8284TIP3    H124816   2.195   2.129   0.674  1.9764  1.8478  1.8037
 8284TIP3    H224817   2.157   2.172   0.814 -1.8365 -0.7311  1.6978
 8285TIP3   OH224818   1.049   5.704   5.411 -1.1304 -0.7109  0.5781
 8285TIP3    H124819   1.027   5.625   5.462 -0.5896  0.1243  2.1761
 8285TIP3    H224820   1.132   5.733   5.448 -0.4334 -0.3513 -1.1820
 8286TIP3   OH224821   4.557   3.653   5.860 -0.2415 -0.7991 -0.1472
 8286TIP3    H124822   4.525   3.730   5.908 -0.5465 -0.7902 -0.3577
 8286TIP3    H224823   4.520   3.663   5.772 -0.5898 -1.3737 -0.0737
 8287TIP3   OH224824   4.359   5.724   5.077 -0.0061  0.5327 -0.1431
 8287TIP3    H124825   4.364   5.700   4.985 -3.6340  1.7492 -0.8154
 8287TIP3    H224826   4.428   5.790   5.088  1.2906 -0.5058 -1.6176
 8288TIP3   OH224827   0.413   4.264   4.895  0.2074 -0.4602 -0.1104
 8288TIP3    H124828   0.348   4.195   4.907 -0.8322 -0.0402 -2.6894
 8288TIP3    H224829   0.362   4.345   4.895  1.1388  0.1528  0.6937
 8289TIP3   OH224830   1.559   4.087   4.628 -0.3005 -0.4815  0.0646
 8289TIP3    H124831   1.489   4.074   4.692  0.7441  0.2399  1.4056
 8289TIP3    H224832   1.631   4.032   4.660  0.6807  0.8619  0.2307
 8290TIP3   OH224833   3.881   3.288   2.697 -0.5010  0.2682 -0.3109
 8290TIP3    H124834   3.907   3.220   2.635  0.7012 -1.0446  1.5190
 8290TIP3    H224835   3.832   3.351   2.644 -1.4011 -1.8274 -2.1600
 8291TIP3   OH224836   3.938   2.594   0.465  0.4590 -0.1094 -0.0689
 8291TIP3    H124837   4.009   2.538   0.495  1.3174  0.0221 -1.7621
 8291TIP3    H224838   3.858   2.543   0.479  1.0933 -1.1526 -0.2310
 8292TIP3   OH224839   4.991   2.465   2.373 -0.1238  0.1489  0.1189
 8292TIP3    H124840   5.048   2.513   2.313  0.8547 -0.4322  0.5519
 8292TIP3    H224841   5.046   2.395   2.408  0.0169  1.5804  3.1461
 8293TIP3   OH224842   2.096   2.418   0.174  0.7802 -0.1718 -0.1912
 8293TIP3    H124843   2.036   2.349   0.143 -0.2235  0.7902 -0.4346
 8293TIP3    H224844   2.075   2.494   0.119  0.8467  0.7707  1.0533
 8294TIP3   OH224845   6.264   3.399   3.158 -0.0728  0.1080  0.2428
 8294TIP3    H124846   6.275   3.474   3.216 -0.8386  0.6364 -0.2701
 8294TIP3    H224847   6.321   3.418   3.083 -1.7558  1.1968 -0.8325
 8295TIP3   OH224848   2.950   3.600   4.139  0.2544  0.1284 -0.1937
 8295TIP3    H124849   2.891   3.544   4.189  2.7517 -2.3809  0.1589
 8295TIP3    H224850   2.928   3.582   4.047 -0.8550  0.8233 -0.0905
 8296TIP3   OH224851   1.522   4.037   4.052  0.0769 -0.1078  0.1506
 8296TIP3    H124852   1.546   4.068   3.965  0.4011 -2.1813 -0.5527
 8296TIP3    H224853   1.438   4.078   4.071 -0.5058 -0.4295 -1.6105
 8297TIP3   OH224854   6.986   5.472   1.511 -0.6947 -0.3369  0.4089
 8297TIP3    H124855   6.970   5.385   1.547  1.3308 -0.3249  1.4653
 8297TIP3    H224856   6.976   5.460   1.416  0.8433 -2.0932  0.3900
 8298TIP3   OH224857   1.408   2.265   5.028 -0.0260 -0.1288  0.2739
 8298TIP3    H124858   1.382   2.346   5.071 -2.3017  0.8227 -2.5821
 8298TIP3    H224859   1.434   2.291   4.940 -2.6615 -2.5078 -1.4167
 8299TIP3   OH224860   2.155   0.859   2.283  0.1263 -0.0883  0.4923
 8299TIP3    H124861   2.124   0.930   2.339 -1.1056  0.0649 -0.3551
 8299TIP3    H224862   2.081   0.799   2.277  0.3055 -0.1975 -0.8080
 8300TIP3   OH224863   6.918   4.394   5.708 -0.1019 -0.0275  0.1631
 8300TIP3    H124864   6.993   4.427   5.658  0.3832 -0.9333  0.2629
 8300TIP3    H224865   6.883   4.322   5.656 -2.5975  2.0155 -1.1915
 8301TIP3   OH224866   3.669   4.145   5.599  0.5595 -0.2079 -0.3078
 8301TIP3    H124867   3.711   4.098   5.527  1.1787 -1.3625  0.7830
 8301TIP3    H224868   3.581   4.165   5.566  0.7420 -0.9390 -1.2814
 8302TIP3   OH224869   5.505   5.251   0.188  0.1961 -0.4077 -0.6416
 8302TIP3    H124870   5.569   5.287   0.249  0.2560 -2.7507  0.8212
 8302TIP3    H224871   5.556   5.231   0.110  0.6867  0.1934 -0.4827
 8303TIP3   OH224872   4.953   5.258   5.800  0.1367  0.5007  0.0726
 8303TIP3    H124873   4.990   5.181   5.757 -3.9425 -0.4245 -2.3413
 8303TIP3    H224874   4.979   5.331   5.743  1.2458  0.4708  0.5121
 8304TIP3   OH224875   2.012   0.151   5.383 -0.0747 -0.8001  0.5757
 8304TIP3    H124876   2.008   0.067   5.336  0.8208  0.0793 -1.1616
 8304TIP3    H224877   2.096   0.189   5.356 -0.0995  0.3143  1.9708
 8305TIP3   OH224878   4.768   0.830   2.666 -0.1483 -0.0837  0.6660
 8305TIP3    H124879   4.765   0.734   2.664  0.3428 -0.1341  1.6501
 8305TIP3    H224880   4.772   0.856   2.574 -0.3280 -1.0105  0.3881
 8306TIP3   OH224881   3.612   0.746   4.482  0.0548  0.0447 -0.4660
 8306TIP3    H124882   3.530   0.795   4.486  0.7800  1.4983 -2.2153
 8306TIP3    H224883   3.657   0.768   4.564 -0.6043  0.5294 -0.2262
 8307TIP3   OH224884   2.301   2.774   0.547  0.1178 -0.0836 -0.5628
 8307TIP3    H124885   2.265   2.777   0.636 -0.5582 -0.5546 -0.8039
 8307TIP3    H224886   2.224   2.759   0.492  0.0721  3.1667 -1.5597
 8308TIP3   OH224887   5.817   1.470   1.935  0.0151  0.2586 -0.2758
 8308TIP3    H124888   5.752   1.492   2.003  1.2330  1.4023  0.5598
 8308TIP3    H224889   5.785   1.514   1.856 -0.9319 -0.3261 -0.2355
 8309TIP3   OH224890   5.664   6.748   0.097  0.5055  0.1304  0.4870
 8309TIP3    H124891   5.702   6.831   0.123  0.8726 -0.0730  0.6052
 8309TIP3    H224892   5.657   6.698   0.178 -0.2809  0.2699  0.5109
 8310TIP3   OH224893   2.602   0.017   2.253 -0.0494 -0.2359  0.2235
 8310TIP3    H124894   2.615   0.035   2.347  2.0753  0.1116 -0.0794
 8310TIP3    H224895   2.508   0.026   2.240 -0.5163 -1.0990  2.4807
 8311TIP3   OH224896   6.192   3.965   1.927 -0.0859 -0.5240  0.1671
 8311TIP3    H124897   6.158   3.915   1.853 -2.2553  0.8345  0.1680
 8311TIP3    H224898   6.229   4.044   1.889  0.9509 -0.8958  0.3740
 8312TIP3   OH224899   2.715   2.669   4.276  0.1741 -0.0688 -0.3438
 8312TIP3    H124900   2.790   2.719   4.241  0.2829 -0.4167 -0.6117
 8312TIP3    H224901   2.748   2.580   4.286 -0.8861 -0.8612 -2.8999
 8313TIP3   OH224902   1.431   1.510   1.371  0.3657  0.5431 -0.1193
 8313TIP3    H124903   1.447   1.466   1.287  1.3742 -0.4514  0.5701
 8313TIP3    H224904   1.511   1.561   1.386  0.4170  0.2809  0.5009
 8314TIP3   OH224905   0.711   2.975   5.097 -0.5392 -0.3159  0.5013
 8314TIP3    H124906   0.676   2.941   5.179  0.6044 -2.2959  0.2249
 8314TIP3    H224907   0.805   2.983   5.112 -0.4463  0.2808 -0.2996
 8315TIP3   OH224908   7.175   2.385   3.893  0.1110 -0.3814 -0.5174
 8315TIP3    H124909   7.151   2.318   3.957  0.0742  1.1282  1.1157
 8315TIP3    H224910   7.257   2.421   3.925  0.2072  0.2643 -1.4404
 8316TIP3   OH224911   0.493   1.339   0.507 -0.1924  0.7011 -0.1731
 8316TIP3    H124912   0.416   1.318   0.456 -0.9247  2.8959 -0.0693
 8316TIP3    H224913   0.482   1.289   0.588 -0.1298 -1.0478 -1.1826
 8317TIP3   OH224914   0.351   4.197   2.084  0.0442 -0.1123  0.3041
 8317TIP3    H124915   0.382   4.230   2.000  1.3537 -0.3941  0.6444
 8317TIP3    H224916   0.422   4.141   2.115 -0.2748  0.2249  1.7210
 8318TIP3   OH224917   2.294   1.403   1.967 -0.0526 -0.3482  0.2138
 8318TIP3    H124918   2.294   1.495   1.940 -0.1594 -0.5302 -0.4042
 8318TIP3    H224919   2.202   1.378   1.963  0.0926 -0.7639 -0.5687
 8319TIP3   OH224920   5.951   5.916   2.725  0.4033 -0.2987 -0.2997
 8319TIP3    H124921   5.950   5.855   2.799 -1.1744 -1.9578 -1.5806
 8319TIP3    H224922   5.867   5.962   2.731  0.9667  0.7382 -0.1615
 8320TIP3   OH224923   5.619   3.174   1.850  0.1345 -0.4331  0.3175
 8320TIP3    H124924   5.601   3.108   1.783 -1.7252  1.9042 -1.7157
 8320TIP3    H224925   5.665   3.244   1.803 -0.3106  0.8384  1.6811
 8321TIP3   OH224926   4.319   3.798   3.517  0.6022  0.0295 -0.2562
 8321TIP3    H124927   4.241   3.785   3.463 -0.7932 -0.9172  1.8662
 8321TIP3    H224928   4.299   3.874   3.571  0.6424 -0.9066  1.1178
 8322TIP3   OH224929   2.369   4.028   0.467 -0.4009 -0.2838  0.0259
 8322TIP3    H124930   2.371   4.078   0.386  0.8084 -0.1296  0.1391
 8322TIP3    H224931   2.276   4.022   0.489 -0.7882 -0.7660 -1.6270
 8323TIP3   OH224932   2.124   5.677   1.937  0.1308  0.4424 -0.8383
 8323TIP3    H124933   2.183   5.736   1.984  0.0851  0.5206 -0.8795
 8323TIP3    H224934   2.155   5.678   1.846  1.7281 -1.5358 -0.4070
 8324TIP3   OH224935   1.706   0.103   1.117  0.5871  0.8461 -0.2247
 8324TIP3    H124936   1.756   0.171   1.072 -0.2925  1.2571 -0.6024
 8324TIP3    H224937   1.646   0.070   1.050  1.0548 -0.3718 -0.0765
 8325TIP3   OH224938   6.517   4.795   1.753 -0.1672 -0.4393  0.7208
 8325TIP3    H124939   6.463   4.719   1.733 -0.9902  0.5835 -1.2281
 8325TIP3    H224940   6.558   4.775   1.837 -0.8927 -2.7149  0.5770
 8326TIP3   OH224941   1.042   5.041   0.561 -0.1926  0.3109 -0.5456
 8326TIP3    H124942   1.083   5.126   0.579 -0.3002  0.8383 -2.4931
 8326TIP3    H224943   1.022   5.044   0.467 -1.6517 -1.2570 -0.3349
 8327TIP3   OH224944   1.420   6.755   1.504  0.5490 -0.0753 -0.4218
 8327TIP3    H124945   1.411   6.662   1.527  0.6732 -0.1694 -0.7446
 8327TIP3    H224946   1.502   6.782   1.545 -0.0872  0.2146  0.6956
 8328TIP3   OH224947   6.914   0.412   2.119 -0.0484  0.3252  0.4512
 8328TIP3    H124948   6.927   0.496   2.075 -0.0099  1.5109  2.5760
 8328TIP3    H224949   6.832   0.423   2.168  0.5478 -0.4378  1.6727
 8329TIP3   OH224950   3.801   0.538   1.967 -0.4329  0.3239 -0.2251
 8329TIP3    H124951   3.847   0.456   1.948 -0.5828  0.1138  0.2899
 8329TIP3    H224952   3.739   0.514   2.036  0.1577  1.0733  0.5883
 8330TIP3   OH224953   2.467   4.478   5.595 -0.0062 -0.2628 -0.4606
 8330TIP3    H124954   2.492   4.569   5.611 -1.0928  0.0709 -0.5870
 8330TIP3    H224955   2.538   4.427   5.634 -0.2123  0.6176  1.1594
 8331TIP3   OH224956   7.183   6.273   0.270  0.2334 -0.3549 -1.1144
 8331TIP3    H124957   7.209   6.346   0.213 -0.3261  0.0522 -0.8590
 8331TIP3    H224958   7.111   6.308   0.322  1.9442 -0.0871  1.2132
 8332TIP3   OH224959   0.363   0.227   4.423 -0.0772  0.6789  0.4791
 8332TIP3    H124960   0.296   0.161   4.442  0.9128 -0.4184  0.2609
 8332TIP3    H224961   0.437   0.176   4.390  0.1834  2.0374 -1.1375
 8333TIP3   OH224962   4.717   5.361   3.964 -0.8387  0.2388  0.8554
 8333TIP3    H124963   4.668   5.412   4.028 -2.1941  3.1737 -2.1874
 8333TIP3    H224964   4.673   5.275   3.963 -1.4466  0.4691  2.9829
 8334TIP3   OH224965   1.366   0.193   5.762 -0.4052  0.3452 -0.2646
 8334TIP3    H124966   1.394   0.119   5.816  0.5975  0.1770 -0.9803
 8334TIP3    H224967   1.281   0.167   5.728 -0.3178 -0.2435 -0.0533
 8335TIP3   OH224968   6.892   6.344   0.646  0.1425  0.3323  0.1945
 8335TIP3    H124969   6.955   6.272   0.651  0.1261  0.3119  0.0941
 8335TIP3    H224970   6.834   6.330   0.722  0.0034  0.1142  0.0488
 8336TIP3   OH224971   5.620   5.730   2.232 -0.3429  0.3701 -0.1128
 8336TIP3    H124972   5.683   5.802   2.226  0.3211 -0.3171 -2.6529
 8336TIP3    H224973   5.669   5.658   2.272 -0.2869  0.5800  0.2006
 8337TIP3   OH224974   7.055   5.539   2.826 -0.3092 -0.6181  0.6305
 8337TIP3    H124975   6.977   5.589   2.801 -0.2496 -0.3689  0.9450
 8337TIP3    H224976   7.051   5.460   2.771  1.5300  1.3706 -2.6502
 8338TIP3   OH224977   4.368   0.387   2.922 -0.3879  0.4168 -0.1275
 8338TIP3    H124978   4.450   0.420   2.885  0.4552 -0.9723  0.4154
 8338TIP3    H224979   4.308   0.384   2.848 -0.2790  2.3310 -0.3629
 8339TIP3   OH224980   4.781   1.898   1.820  0.1238  0.5470 -0.1159
 8339TIP3    H124981   4.875   1.915   1.813  0.2078  0.8421  1.3592
 8339TIP3    H224982   4.741   1.963   1.762  0.8619 -0.4057 -1.7439
 8340TIP3   OH224983   7.061   2.218   3.056  0.3499 -0.3838 -0.1149
 8340TIP3    H124984   7.128   2.168   3.104  0.4326 -0.2203 -0.0602
 8340TIP3    H224985   7.095   2.307   3.053  0.0928 -0.2798 -0.0108
 8341TIP3   OH224986   0.726   0.326   4.767 -0.1648  0.0975 -0.0686
 8341TIP3    H124987   0.738   0.386   4.694  1.1534 -0.3935 -0.2783
 8341TIP3    H224988   0.782   0.251   4.747  0.9545  0.3460  1.8589
 8342TIP3   OH224989   0.186   3.526   0.343  0.0957  0.3256  0.5149
 8342TIP3    H124990   0.180   3.546   0.437  0.6537 -1.9274  1.0756
 8342TIP3    H224991   0.143   3.441   0.334  2.2695 -0.7068 -0.8256
 8343TIP3   OH224992   0.137   2.712   3.704 -0.0236  0.2986  0.2134
 8343TIP3    H124993   0.052   2.682   3.672  1.0883 -1.2574 -1.4990
 8343TIP3    H224994   0.179   2.751   3.627  0.5974  1.6097  1.1839
 8344TIP3   OH224995   4.109   5.742   2.000 -0.0657 -0.3307 -0.1225
 8344TIP3    H124996   4.039   5.677   2.001  0.2279 -0.6508  0.6051
 8344TIP3    H224997   4.119   5.768   2.092  0.8955 -0.4399 -0.1771
 8345TIP3   OH224998   2.632   1.948   3.177 -0.1200 -0.0586  0.2083
 8345TIP3    H124999   2.694   1.916   3.242  0.7209 -0.9233 -0.9684
 8345TIP3    H225000   2.639   2.043   3.181  0.6191 -0.1270  0.7169
 8346TIP3   OH225001   3.785   2.186   2.791 -0.5614  0.2357 -0.1185
 8346TIP3    H125002   3.765   2.250   2.860 -0.1950  2.2219 -1.7695
 8346TIP3    H225003   3.879   2.173   2.797 -0.2913  1.5600 -1.1508
 8347TIP3   OH225004   0.347   3.500   1.532  0.0005 -0.3370 -0.7132
 8347TIP3    H125005   0.264   3.471   1.494 -1.1342  2.1609 -0.3820
 8347TIP3    H225006   0.385   3.557   1.465 -0.5214  1.6312  0.5708
 8348TIP3   OH225007   5.825   5.830   5.236  0.0402  0.8787 -0.2291
 8348TIP3    H125008   5.919   5.823   5.249  0.1474  1.6236 -0.5494
 8348TIP3    H225009   5.786   5.779   5.307  0.6955 -0.3863 -0.7568
 8349TIP3   OH225010   3.740   2.657   3.147  0.0119 -0.0480  0.1968
 8349TIP3    H125011   3.659   2.658   3.197 -0.7747 -2.1555 -0.8977
 8349TIP3    H225012   3.718   2.698   3.063 -0.0966 -1.1009 -0.3029
 8350TIP3   OH225013   3.939   1.693   2.407  0.2176 -0.1414  0.4789
 8350TIP3    H125014   4.034   1.702   2.410  0.0714  1.7754  0.7260
 8350TIP3    H225015   3.923   1.617   2.351  1.8707  0.0175 -0.2525
 8351TIP3   OH225016   1.446   2.541   3.788  0.2776 -0.2975 -0.2828
 8351TIP3    H125017   1.411   2.496   3.865  1.1063  1.6152  1.2994
 8351TIP3    H225018   1.540   2.547   3.805  0.3779  0.7311 -1.1290
 8352TIP3   OH225019   3.585   6.156   2.682 -0.2904  0.5727  0.2522
 8352TIP3    H125020   3.633   6.211   2.744 -0.1148  1.9440 -1.0443
 8352TIP3    H225021   3.619   6.068   2.698  0.9499  1.1475  0.9756
 8353TIP3   OH225022   3.272   3.081   1.530 -0.4666  0.2987  0.0945
 8353TIP3    H125023   3.279   3.003   1.476  0.0112  0.2787  0.1774
 8353TIP3    H225024   3.179   3.100   1.533 -0.5047  0.2640 -0.6799
 8354TIP3   OH225025   3.572   5.081   3.368 -0.0208  0.4569 -0.2632
 8354TIP3    H125026   3.646   5.136   3.343 -0.2182  0.4819 -0.8098
 8354TIP3    H225027   3.573   5.081   3.464  1.4518 -0.5782 -0.2475
 8355TIP3   OH225028   1.389   3.126   0.009 -0.3107 -0.0610 -0.3062
 8355TIP3    H125029   1.296   3.119  -0.013 -0.7156 -0.9435  1.4781
 8355TIP3    H225030   1.410   3.043   0.051  1.3369  0.0813 -0.7638
 8356TIP3   OH225031   2.209   5.432   2.779  0.0249  0.1294 -0.1049
 8356TIP3    H125032   2.174   5.500   2.836 -0.2689  0.1215 -0.2691
 8356TIP3    H225033   2.133   5.405   2.726 -0.2627 -1.4636  1.0689
 8357TIP3   OH225034   1.300   6.371   1.935  0.2832  0.3086 -0.1582
 8357TIP3    H125035   1.381   6.340   1.895  0.3267 -1.2209  1.0126
 8357TIP3    H225036   1.239   6.380   1.861  1.2016  0.4642 -0.9176
 8358TIP3   OH225037   4.734   1.273   2.909  0.3877 -0.0581  0.0782
 8358TIP3    H125038   4.743   1.201   2.846  0.5941 -0.8069  0.9405
 8358TIP3    H225039   4.755   1.351   2.859 -0.1541 -0.5519 -0.9695
 8359TIP3   OH225040   1.140   2.056   3.709  0.5954 -0.3045 -0.0236
 8359TIP3    H125041   1.170   1.982   3.657  1.5851  0.2490 -0.2790
 8359TIP3    H225042   1.199   2.057   3.785  0.2542 -0.0979  0.2394
 8360TIP3   OH225043   0.994   1.426   4.050  0.4571  0.0582 -0.9324
 8360TIP3    H125044   0.958   1.462   4.131 -0.3114 -0.5948 -0.9761
 8360TIP3    H225045   0.918   1.408   3.995  1.0156  2.3179 -2.6415
 8361TIP3   OH225046   5.990   2.149   1.527  0.1557  0.2453 -0.4339
 8361TIP3    H125047   5.961   2.078   1.470 -0.1742  0.5561 -0.6555
 8361TIP3    H225048   6.041   2.206   1.470  0.7892 -0.0368 -0.1582
 8362TIP3   OH225049   2.769   4.784   4.726  0.0159 -0.9419 -0.4787
 8362TIP3    H125050   2.733   4.703   4.691 -0.4535 -0.2168 -1.7594
 8362TIP3    H225051   2.759   4.777   4.821 -2.6694 -1.1676 -0.7141
 8363TIP3   OH225052   3.898   3.546   0.848  0.0542  0.3783 -0.5397
 8363TIP3    H125053   3.958   3.620   0.841  1.0368 -0.4174 -0.6685
 8363TIP3    H225054   3.902   3.521   0.940 -0.2418  0.4446 -0.5074
 8364TIP3   OH225055   2.535   3.845   1.703  0.1115 -0.0501  0.3345
 8364TIP3    H125056   2.520   3.750   1.698 -1.0178  0.1711 -1.3894
 8364TIP3    H225057   2.609   3.861   1.645 -1.3859  0.3829 -1.5706
 8365TIP3   OH225058   5.822   5.355   0.103 -0.8226  0.6435  0.3738
 8365TIP3    H125059   5.808   5.261   0.093  0.0297  0.4822  0.6170
 8365TIP3    H225060   5.863   5.382   0.021 -2.7956  1.1853 -0.4953
 8366TIP3   OH225061   2.565   2.428   1.157 -0.2999  0.1785  0.3332
 8366TIP3    H125062   2.607   2.394   1.079 -0.4677  1.2929 -0.2635
 8366TIP3    H225063   2.636   2.465   1.209 -0.3924  1.0112 -0.1246
 8367TIP3   OH225064   0.101   5.775   1.031  0.7623 -0.3485 -0.5771
 8367TIP3    H125065   0.035   5.723   1.077  0.5634  1.9373  2.0375
 8367TIP3    H225066   0.060   5.799   0.948 -1.1395 -0.2329  0.3450
 8368TIP3   OH225067   7.162   2.082   3.817  0.4080  0.0962 -0.0426
 8368TIP3    H125068   7.200   2.135   3.746 -0.6914  0.4001 -0.4330
 8368TIP3    H225069   7.074   2.119   3.829 -0.8674 -2.3082 -1.1161
 8369TIP3   OH225070   0.629   0.022   5.801 -0.6105 -0.1852 -0.2022
 8369TIP3    H125071   0.582   0.062   5.727 -0.2874 -1.6597 -1.2488
 8369TIP3    H225072   0.685   0.093   5.834  1.5838 -0.1942 -3.3796
 8370TIP3   OH225073   1.441   5.135   4.790 -0.3891  0.1877 -0.1759
 8370TIP3    H125074   1.348   5.131   4.767 -0.4741  0.3504  0.1294
 8370TIP3    H225075   1.442   5.176   4.876 -0.0460 -0.0302 -0.0783
 8371TIP3   OH225076   0.621   5.124   4.333 -0.1075 -0.2443 -0.1534
 8371TIP3    H125077   0.535   5.083   4.338 -0.4341  0.2717 -1.2717
 8371TIP3    H225078   0.679   5.055   4.300  0.0737 -0.7907  1.2294
 8372TIP3   OH225079   1.995   4.254   1.044 -0.2866 -0.1990  0.1128
 8372TIP3    H125080   2.064   4.201   1.004  0.0383  0.2902  0.0034
 8372TIP3    H225081   1.914   4.207   1.025 -0.1049 -0.1515 -0.8426
 8373TIP3   OH225082   7.003   3.216   1.902  0.1358 -0.1387 -0.0087
 8373TIP3    H125083   7.041   3.298   1.933  0.6936 -0.9938  1.6894
 8373TIP3    H225084   6.915   3.240   1.872  0.3325  1.0913  0.3502
 8374TIP3   OH225085   0.583   0.025   2.371 -0.0610  0.2701  0.6891
 8374TIP3    H125086   0.585  -0.059   2.416 -3.0083 -0.5714 -0.5045
 8374TIP3    H225087   0.574   0.090   2.441 -1.9949 -0.7834  1.4748
 8375TIP3   OH225088   5.551   6.404   3.526  0.4072  0.8337 -0.0109
 8375TIP3    H125089   5.644   6.427   3.520  0.1263  2.0596 -0.0633
 8375TIP3    H225090   5.535   6.350   3.449  0.7172  2.0405 -0.9621
 8376TIP3   OH225091   3.826   5.899   2.535 -0.2515  0.5579  0.4938
 8376TIP3    H125092   3.817   5.913   2.441 -1.0389  0.0086  0.4853
 8376TIP3    H225093   3.907   5.946   2.558 -0.6120  1.5887 -0.2640
 8377TIP3   OH225094   0.755   2.509   5.025  0.8921  0.0317 -0.3569
 8377TIP3    H125095   0.692   2.511   4.953  1.5598  0.8036 -0.9368
 8377TIP3    H225096   0.786   2.418   5.027 -1.4513 -0.8101  1.0537
 8378TIP3   OH225097   1.199   1.773   5.326  0.4956 -0.0138  0.1676
 8378TIP3    H125098   1.227   1.848   5.378  1.1529 -0.2545  0.1738
 8378TIP3    H225099   1.262   1.770   5.253  0.5662 -0.6437  0.2488
 8379TIP3   OH225100   6.921   0.699   4.810 -0.2293 -0.8524 -0.5324
 8379TIP3    H125101   6.898   0.783   4.771  0.9314 -0.2068  0.1523
 8379TIP3    H225102   6.899   0.635   4.742  0.7078  0.1559 -1.8300
 8380TIP3   OH225103   3.867   5.457   2.643 -0.1161 -0.0607 -0.0911
 8380TIP3    H125104   3.785   5.473   2.596 -0.9255 -1.8167  0.6098
 8380TIP3    H225105   3.934   5.455   2.574 -0.8936 -0.0759 -0.8645
 8381TIP3   OH225106   6.856   1.732   2.254 -0.2947  0.0288  0.0274
 8381TIP3    H125107   6.849   1.714   2.347  1.0777  2.0264  0.5825
 8381TIP3    H225108   6.840   1.648   2.212 -1.2387 -0.8467  2.0384
 8382TIP3   OH225109   6.881   6.476   5.880 -0.0276 -0.3442  0.2232
 8382TIP3    H125110   6.912   6.386   5.872  0.1692 -0.0881 -3.4269
 8382TIP3    H225111   6.787   6.471   5.865  0.2130  0.1442 -1.7171
 8383TIP3   OH225112   2.292   5.258   2.054 -0.2283  0.2177  0.4013
 8383TIP3    H125113   2.277   5.340   2.102 -0.6196 -0.5640  1.6469
 8383TIP3    H225114   2.387   5.245   2.061 -0.0557  0.9107 -0.4159
 8384TIP3   OH225115   6.380   0.760   4.175 -0.0532 -0.0994  0.0380
 8384TIP3    H125116   6.461   0.797   4.139 -1.1882  0.4371 -2.1072
 8384TIP3    H225117   6.380   0.788   4.267  0.7515  2.4840 -0.6556
 8385TIP3   OH225118   2.803   2.021   1.757 -0.1890  0.7769 -0.1388
 8385TIP3    H125119   2.771   2.082   1.823  0.6435  0.0124  1.0133
 8385TIP3    H225120   2.749   2.038   1.680 -0.0351  2.8880  0.1759
 8386TIP3   OH225121   1.671   5.714   0.430 -0.4038  0.1914  0.2041
 8386TIP3    H125122   1.679   5.723   0.335 -0.5481  1.6034  0.3113
 8386TIP3    H225123   1.736   5.647   0.453 -1.6395 -1.5493 -1.0800
 8387TIP3   OH225124   3.564   3.005   3.205  0.0969 -0.1125 -0.2052
 8387TIP3    H125125   3.573   3.085   3.257 -1.7110  0.2777 -0.4252
 8387TIP3    H225126   3.582   2.934   3.266 -1.6111  0.3525  0.8962
 8388TIP3   OH225127   5.240   2.210   5.265 -0.1993  0.4462  0.2091
 8388TIP3    H125128   5.237   2.203   5.361 -0.7553 -0.0830  0.1548
 8388TIP3    H225129   5.284   2.294   5.249 -1.3848  1.2311  0.9371
 8389TIP3   OH225130   0.109   4.659   1.878 -0.2516 -0.1598 -0.4262
 8389TIP3    H125131   0.026   4.632   1.838  0.1484 -0.4594 -1.0733
 8389TIP3    H225132   0.171   4.590   1.852 -0.0506 -0.5428  1.0026
 8390TIP3   OH225133   0.426   3.595   1.787 -0.5498 -0.2319  0.0885
 8390TIP3    H125134   0.470   3.523   1.831 -2.2201 -1.2831  0.1419
 8390TIP3    H225135   0.407   3.561   1.699 -1.6749 -0.0159  0.2333
 8391TIP3   OH225136   6.373   4.696   2.579 -0.5085  0.9133  0.4380
 8391TIP3    H125137   6.377   4.624   2.516 -0.0142  0.2488  1.2138
 8391TIP3    H225138   6.406   4.772   2.530  2.1978 -0.0768  0.5366
 8392TIP3   OH225139   3.229   4.147   4.042  0.6150  0.4759 -0.6613
 8392TIP3    H125140   3.307   4.198   4.062  0.2853  1.5170 -1.8799
 8392TIP3    H225141   3.201   4.178   3.956 -0.4406 -0.7519 -0.8031
 8393TIP3   OH225142   0.588   2.677   1.081  0.0659 -0.4645  0.3413
 8393TIP3    H125143   0.582   2.648   0.990 -0.2108 -1.1352  0.5630
 8393TIP3    H225144   0.544   2.608   1.131 -0.3014  0.1869  0.9298
 8394TIP3   OH225145   5.552   3.727   3.373  0.1244 -0.0333 -0.1935
 8394TIP3    H125146   5.491   3.660   3.401  1.7045 -1.4709 -0.0013
 8394TIP3    H225147   5.602   3.748   3.452 -0.0484  1.0606 -0.3589
 8395TIP3   OH225148   3.076   0.903   1.026 -0.1500  0.4239 -0.0815
 8395TIP3    H125149   3.031   0.919   1.109 -1.5229  1.0255 -0.9012
 8395TIP3    H225150   3.162   0.869   1.051 -1.1595 -1.0782  1.5554
 8396TIP3   OH225151   5.086   4.257   2.379 -0.0780 -0.0632  0.1056
 8396TIP3    H125152   5.016   4.322   2.379 -0.4964 -0.4987 -0.3344
 8396TIP3    H225153   5.051   4.185   2.431 -2.0937 -2.4201 -3.9517
 8397TIP3   OH225154   0.061   0.341   0.710 -0.2713 -0.0549 -0.0828
 8397TIP3    H125155  -0.026   0.315   0.740 -0.4303  1.3477  0.7617
 8397TIP3    H225156   0.120   0.277   0.750 -0.8954 -1.0123 -0.6555
 8398TIP3   OH225157   0.529   4.282   0.379 -0.9392  0.3296 -0.5623
 8398TIP3    H125158   0.547   4.298   0.472 -1.7178 -1.1774 -0.1148
 8398TIP3    H225159   0.478   4.357   0.351 -1.6376  0.2826  0.5320
 8399TIP3   OH225160   5.418   6.056   4.374  0.0264 -0.7622  0.0081
 8399TIP3    H125161   5.395   6.000   4.447 -0.6363 -0.7051 -0.1559
 8399TIP3    H225162   5.380   6.141   4.396 -2.0806 -1.2900 -1.4055
 8400TIP3   OH225163   2.736   4.216   5.453  0.1203  0.4607  0.4465
 8400TIP3    H125164   2.793   4.140   5.471  2.5769  2.0917  0.0495
 8400TIP3    H225165   2.739   4.225   5.358 -1.1908  0.3457  0.3796
 8401TIP3   OH225166   5.675   5.503   3.599  0.8317  0.4561 -0.0032
 8401TIP3    H125167   5.731   5.524   3.674  0.0832  1.4892  0.2852
 8401TIP3    H225168   5.605   5.568   3.602  1.2249  1.0472 -2.0619
 8402TIP3   OH225169   0.304   6.588   3.886 -0.0093 -0.3544 -0.1184
 8402TIP3    H125170   0.280   6.627   3.801 -0.4692 -0.9302 -0.2542
 8402TIP3    H225171   0.387   6.544   3.869 -0.0862 -0.4438 -0.2588
 8403TIP3   OH225172   2.664   6.067   4.334  0.4324  0.4160  0.1701
 8403TIP3    H125173   2.716   6.012   4.276  0.1186 -0.8182  1.0232
 8403TIP3    H225174   2.688   6.156   4.310  0.6697 -0.0597 -1.5092
 8404TIP3   OH225175   0.722   3.477   2.270 -0.0860 -0.8042 -0.0802
 8404TIP3    H125176   0.652   3.526   2.313 -0.6318 -0.6734 -1.0847
 8404TIP3    H225177   0.748   3.532   2.196  0.3339 -1.3490 -0.3474
 8405TIP3   OH225178   4.607   1.550   2.357  0.4015 -0.3352  0.1607
 8405TIP3    H125179   4.677   1.488   2.378  0.2248 -0.3064  0.8432
 8405TIP3    H225180   4.650   1.636   2.359 -0.2782  0.1035  4.0924
 8406TIP3   OH225181   4.764   0.760   0.949 -1.1739  0.6274 -0.4444
 8406TIP3    H125182   4.729   0.689   0.895 -1.8328  0.2794  0.4128
 8406TIP3    H225183   4.760   0.726   1.038 -0.8388  1.4871 -0.0938
 8407TIP3   OH225184   5.191   5.069   4.076 -0.0765  0.4752  0.0236
 8407TIP3    H125185   5.250   5.006   4.117 -1.1168 -0.3827  0.2532
 8407TIP3    H225186   5.235   5.094   3.995  0.1726 -0.8681 -0.2744
 8408TIP3   OH225187   6.907   5.466   3.684 -0.3284  0.4729  0.2410
 8408TIP3    H125188   6.983   5.521   3.699  0.4615 -1.0583  2.3453
 8408TIP3    H225189   6.943   5.383   3.653 -1.1429 -0.2318  1.1410
 8409TIP3   OH225190   0.646   1.753   4.177 -0.1047 -0.1359  0.3029
 8409TIP3    H125191   0.556   1.783   4.185  0.3947  1.2051  1.2584
 8409TIP3    H225192   0.639   1.657   4.174 -1.5487 -0.0500  0.2653
 8410TIP3   OH225193   4.754   2.368   5.881  0.2614 -0.1527  0.3312
 8410TIP3    H125194   4.767   2.419   5.801  1.9671 -0.6552  0.2505
 8410TIP3    H225195   4.794   2.420   5.950 -0.3630 -0.1645  0.7133
 8411TIP3   OH225196   1.391   0.095   0.719 -0.5009 -0.6960  0.1398
 8411TIP3    H125197   1.303   0.126   0.696  0.8048  2.8576 -0.5503
 8411TIP3    H225198   1.443   0.108   0.640  1.7271  2.0275  1.8927
 8412TIP3   OH225199   1.408   0.257   3.306  0.3303 -0.3483 -0.0977
 8412TIP3    H125200   1.493   0.301   3.295  0.4173 -0.5787 -0.3787
 8412TIP3    H225201   1.379   0.241   3.216  0.3228 -0.9090  0.0001
 8413TIP3   OH225202   5.421   1.398   0.118 -0.2889 -0.1278 -0.1220
 8413TIP3    H125203   5.450   1.456   0.188  1.0813 -0.1287 -0.6766
 8413TIP3    H225204   5.384   1.457   0.052 -1.0049 -0.0845  0.2954
 8414TIP3   OH225205   2.250   3.818   5.671 -0.4069 -0.8968 -0.0111
 8414TIP3    H125206   2.229   3.904   5.708 -0.6207 -0.8464 -0.2464
 8414TIP3    H225207   2.343   3.805   5.691 -0.6435 -1.1057  1.0131
 8415TIP3   OH225208   3.930   2.851   3.165  0.0160 -0.2007 -0.0676
 8415TIP3    H125209   3.877   2.780   3.201 -0.3062  0.1883  0.2286
 8415TIP3    H225210   3.996   2.807   3.112 -1.7832 -0.6610 -2.0773
 8416TIP3   OH225211   1.064   1.718   0.786  0.2540  0.4250 -0.3890
 8416TIP3    H125212   1.115   1.778   0.839  0.0318 -1.2954  1.9106
 8416TIP3    H225213   1.112   1.712   0.703  0.3091  3.5948 -0.6784
 8417TIP3   OH225214   5.186   4.471   1.287 -0.4267 -0.3966  0.0961
 8417TIP3    H125215   5.152   4.508   1.369 -0.9891  1.0637 -0.7543
 8417TIP3    H225216   5.278   4.453   1.305 -0.5230 -0.0084  1.0205
 8418TIP3   OH225217   7.171   5.222   4.534  0.1902  0.0413  0.0693
 8418TIP3    H125218   7.190   5.190   4.622 -0.6279 -0.7035 -0.0040
 8418TIP3    H225219   7.257   5.231   4.492  0.7296  2.1819  1.5089
 8419TIP3   OH225220   2.402   4.675   3.706  0.0697  0.3264 -0.3351
 8419TIP3    H125221   2.462   4.694   3.634  0.9639 -0.6343  0.1385
 8419TIP3    H225222   2.353   4.757   3.718  0.7683  0.8924 -1.2162
 8420TIP3   OH225223   3.736   3.785   0.655  0.1633  0.8195 -0.2213
 8420TIP3    H125224   3.720   3.857   0.594 -0.0542  0.5804 -0.4526
 8420TIP3    H225225   3.661   3.726   0.643  0.5615  0.3325 -0.3732
 8421TIP3   OH225226   1.963   5.246   0.981 -0.2126 -0.1242  0.3177
 8421TIP3    H125227   1.916   5.258   0.898  1.2133 -0.0816 -0.5324
 8421TIP3    H225228   1.995   5.156   0.978 -1.5575 -0.6866  1.6250
 8422TIP3   OH225229   5.084   0.196   5.549 -0.9251  0.4656 -0.0805
 8422TIP3    H125230   5.041   0.262   5.603 -0.8425 -1.4814  2.5879
 8422TIP3    H225231   5.137   0.146   5.610  2.1512  0.3209 -2.6260
 8423TIP3   OH225232   3.586   1.172   1.454  0.0037 -0.1682 -0.3210
 8423TIP3    H125233   3.645   1.103   1.423 -0.8415 -0.8784 -0.3902
 8423TIP3    H225234   3.627   1.253   1.425  0.3358 -0.7005 -1.4050
 8424TIP3   OH225235   1.542   3.820   4.436 -0.1822 -0.2414 -0.7796
 8424TIP3    H125236   1.520   3.819   4.529  0.7365 -0.1932 -0.5522
 8424TIP3    H225237   1.567   3.730   4.417 -1.4923 -0.5215 -1.2740
 8425TIP3   OH225238   2.776   2.249   3.520  0.7948 -0.3941  0.3444
 8425TIP3    H125239   2.716   2.284   3.455  1.3154 -0.0138  0.0604
 8425TIP3    H225240   2.727   2.178   3.562 -0.4653  0.9750  1.2977
 8426TIP3   OH225241   2.690   5.108   2.724 -0.2846  0.7093 -0.0311
 8426TIP3    H125242   2.651   5.195   2.736 -0.6681  0.4550  0.6098
 8426TIP3    H225243   2.615   5.048   2.726 -0.0803  0.4014 -1.0002
 8427TIP3   OH225244   3.418   6.516   3.731  0.2102 -0.3792  0.1740
 8427TIP3    H125245   3.365   6.509   3.810 -0.8252 -1.2061 -0.5708
 8427TIP3    H225246   3.499   6.558   3.760 -0.1378 -0.6995  1.6680
 8428TIP3   OH225247   1.931   2.539   2.535  0.3152  0.5568  0.1039
 8428TIP3    H125248   1.944   2.479   2.608 -0.3914  0.7844  0.4266
 8428TIP3    H225249   2.004   2.522   2.476  1.1327  0.6562  1.0571
 8429TIP3   OH225250   1.273   1.808   2.547 -0.0534 -0.1104  0.1687
 8429TIP3    H125251   1.354   1.763   2.524 -1.0179 -1.1270 -1.5304
 8429TIP3    H225252   1.297   1.899   2.560  1.3786 -0.4414 -0.0851
 8430TIP3   OH225253   1.420   0.057   4.730 -0.2739  0.2489 -0.5914
 8430TIP3    H125254   1.451   0.053   4.820  0.2728 -0.0162 -0.7917
 8430TIP3    H225255   1.324   0.055   4.737 -0.2595  1.3071  0.0360
 8431TIP3   OH225256   0.102   5.863   2.025  0.1496 -0.0681  0.5476
 8431TIP3    H125257   0.090   5.905   1.940 -0.8330  0.1691  0.7928
 8431TIP3    H225258   0.194   5.836   2.025 -0.2516 -1.6654 -1.3142
 8432TIP3   OH225259   5.244   4.339   2.817 -0.5422  0.4497  0.3583
 8432TIP3    H125260   5.228   4.413   2.758 -0.0589 -0.2922 -0.7290
 8432TIP3    H225261   5.280   4.271   2.761 -1.1466 -0.6865  1.3128
 8433TIP3   OH225262   6.235   6.191   0.668  0.4122 -0.8863 -0.0939
 8433TIP3    H125263   6.170   6.129   0.635 -1.0241 -0.0338  1.0129
 8433TIP3    H225264   6.199   6.277   0.646  2.5955 -0.3620 -2.0470
 8434TIP3   OH225265   1.282   0.723   4.594  0.2040  0.2769 -0.0552
 8434TIP3    H125266   1.245   0.690   4.676 -0.7774  1.1585 -0.1246
 8434TIP3    H225267   1.307   0.644   4.546 -1.0113 -0.3374  0.2779
 8435TIP3   OH225268   4.461   4.821   2.038  0.2781  0.6481  0.1795
 8435TIP3    H125269   4.506   4.879   2.098  1.9856 -0.5179  0.0838
 8435TIP3    H225270   4.506   4.737   2.046 -2.0949 -0.7308  0.3206
 8436TIP3   OH225271   2.422   3.825   0.204 -0.0107 -0.0061 -0.3823
 8436TIP3    H125272   2.379   3.783   0.278 -2.6244  0.9103 -1.2695
 8436TIP3    H225273   2.476   3.894   0.243  0.6963 -1.1555  0.7706
 8437TIP3   OH225274   1.191   4.069   0.645  0.1972  0.5533 -0.0713
 8437TIP3    H125275   1.242   4.022   0.580  0.7358  0.8430  0.1412
 8437TIP3    H225276   1.159   4.146   0.600 -1.2307 -0.3133 -0.6137
 8438TIP3   OH225277   0.424   3.123   1.438  0.4071  0.0337 -0.0276
 8438TIP3    H125278   0.439   3.169   1.356 -0.0214  0.3081  0.0479
 8438TIP3    H225279   0.392   3.190   1.498  0.2714 -0.2592  0.2298
 8439TIP3   OH225280   6.568   4.801   4.047  1.6261 -0.1582 -0.4749
 8439TIP3    H125281   6.629   4.738   4.085  1.0770 -0.2025  0.3765
 8439TIP3    H225282   6.525   4.841   4.123 -0.0550 -0.7835 -1.0337
 8440TIP3   OH225283   3.740   4.812   2.072  0.0400  0.0606 -0.1592
 8440TIP3    H125284   3.782   4.780   1.993  0.1385 -0.3465  0.0582
 8440TIP3    H225285   3.647   4.815   2.051 -0.3012 -2.6985  0.5787
 8441TIP3   OH225286   4.235   4.650   0.390 -0.6312 -0.6309 -0.3786
 8441TIP3    H125287   4.307   4.629   0.450 -2.3125 -0.5073  1.8003
 8441TIP3    H225288   4.173   4.578   0.401 -1.2117 -0.3671 -1.6907
 8442TIP3   OH225289   7.163   3.648   3.387  0.2055 -0.1406  0.0312
 8442TIP3    H125290   7.256   3.661   3.407  0.2405  0.6530 -0.5957
 8442TIP3    H225291   7.132   3.735   3.359 -0.5748 -0.5339 -0.3661
 8443TIP3   OH225292   6.428   6.041   1.506  0.3409  0.0756 -0.2726
 8443TIP3    H125293   6.419   5.948   1.529  1.3480 -0.4333 -1.7030
 8443TIP3    H225294   6.339   6.072   1.495 -0.2225  0.2327  3.4464
 8444TIP3   OH225295   6.982   0.039   0.552  0.0802  0.8161 -0.6128
 8444TIP3    H125296   6.999  -0.048   0.589  2.8436  1.6683  0.4190
 8444TIP3    H225297   7.040   0.045   0.477 -0.2190  1.7107 -0.7865
 8445TIP3   OH225298   5.198   0.506   3.369  0.1307 -0.1679  0.1135
 8445TIP3    H125299   5.182   0.425   3.416  1.2217  0.2516  1.2817
 8445TIP3    H225300   5.131   0.509   3.301 -2.3730 -0.1795  2.4358
 8446TIP3   OH225301   7.005   6.719   0.132  0.3810 -0.3726 -0.0005
 8446TIP3    H125302   6.940   6.741   0.065  2.3508  1.8071 -1.3547
 8446TIP3    H225303   6.963   6.741   0.215 -1.2666 -0.8638 -0.6688
 8447TIP3   OH225304   0.060   5.256   4.977  0.0621 -0.1786  0.4476
 8447TIP3    H125305   0.054   5.193   5.049  1.8538  0.3893  1.1521
 8447TIP3    H225306   0.020   5.336   5.012 -0.3318 -0.3060  0.2960
 8448TIP3   OH225307   2.979   2.988   3.958  0.1103  0.1371  0.5003
 8448TIP3    H125308   2.895   3.010   3.998 -0.0432 -0.0083  0.2641
 8448TIP3    H225309   3.018   3.072   3.936 -0.0384  0.2024  0.4817
 8449TIP3   OH225310   5.261   6.229   1.005 -0.5881  0.1634  0.7548
 8449TIP3    H125311   5.216   6.296   1.055  3.0919  2.7471  1.0339
 8449TIP3    H225312   5.291   6.274   0.926 -0.2236 -1.8920 -0.3615
 8450TIP3   OH225313   7.006   1.457   2.437  0.0409 -0.0411  0.1320
 8450TIP3    H125314   7.063   1.533   2.454 -1.3262  0.8988  0.6724
 8450TIP3    H225315   7.058   1.400   2.380  1.7339  0.5111  1.0489
 8451TIP3   OH225316   6.415   4.860   3.602 -0.3933  0.1510 -0.4317
 8451TIP3    H125317   6.410   4.954   3.620 -0.0504  0.7352 -3.0946
 8451TIP3    H225318   6.367   4.819   3.675 -0.1558  2.3213  1.0264
 8452TIP3   OH225319   2.644   5.736   3.587 -0.1166 -0.4542  0.0929
 8452TIP3    H125320   2.624   5.663   3.647 -0.8168 -0.0792  0.3284
 8452TIP3    H225321   2.710   5.701   3.528 -0.5651 -1.3409  0.0987
 8453TIP3   OH225322   4.101   4.128   5.372  0.0612  0.7219  0.3664
 8453TIP3    H125323   4.139   4.204   5.416  0.4251 -0.7983  2.8789
 8453TIP3    H225324   4.021   4.110   5.421  0.3502 -0.9342  0.2774
 8454TIP3   OH225325   6.738   5.100   1.256 -0.5028 -0.6118 -0.2843
 8454TIP3    H125326   6.712   5.190   1.237 -2.5364 -0.5332  2.2624
 8454TIP3    H225327   6.665   5.064   1.306 -0.4132 -4.2259 -2.4208
 8455TIP3   OH225328   2.487   3.400   0.755 -0.4790  0.4408  0.0662
 8455TIP3    H125329   2.545   3.472   0.729  0.9550 -0.0226  1.7628
 8455TIP3    H225330   2.468   3.416   0.847 -1.4862 -0.4887  0.0385
 8456TIP3   OH225331   5.605   1.881   4.300 -0.0756  0.0643  0.4025
 8456TIP3    H125332   5.614   1.970   4.333  1.5892 -0.5166  1.6652
 8456TIP3    H225333   5.545   1.838   4.361 -0.9316  0.3181 -0.2447
 8457TIP3   OH225334   0.973   6.470   5.555 -0.2167 -0.3318 -0.2284
 8457TIP3    H125335   1.050   6.422   5.523  0.1630 -0.2208  0.5007
 8457TIP3    H225336   0.903   6.404   5.558  0.3943 -0.9589  1.1315
 8458TIP3   OH225337   4.788   4.279   4.426 -0.4869  0.1875 -1.2813
 8458TIP3    H125338   4.731   4.203   4.439 -2.2123  1.0260 -3.4437
 8458TIP3    H225339   4.745   4.331   4.358  2.2637  1.4869 -2.1947
 8459TIP3   OH225340   3.610   0.657   1.182 -0.0833  0.4985 -0.4466
 8459TIP3    H125341   3.544   0.589   1.200  0.8999 -0.8061 -1.5669
 8459TIP3    H225342   3.587   0.729   1.241 -2.0353 -0.2238 -0.2551
 8460TIP3   OH225343   4.703  -0.005   5.153  0.0561  0.7435 -0.3589
 8460TIP3    H125344   4.715   0.004   5.248 -1.6423 -0.1185 -0.0167
 8460TIP3    H225345   4.790   0.011   5.116  0.3293  3.2095  1.1567
 8461TIP3   OH225346   4.743   6.116   4.397  0.3570 -0.5029 -0.3759
 8461TIP3    H125347   4.734   6.047   4.331 -1.9497 -0.1541 -0.5079
 8461TIP3    H225348   4.659   6.116   4.444 -0.0351  2.6499 -0.8380
 8462TIP3   OH225349   1.017   2.957   3.851  0.8174 -0.1842 -0.1514
 8462TIP3    H125350   0.990   2.915   3.770 -0.5837  0.7533 -0.2035
 8462TIP3    H225351   0.969   2.910   3.920 -1.8914  2.0620 -0.3171
 8463TIP3   OH225352   5.465   0.074   1.531 -0.0993 -0.5218  0.4568
 8463TIP3    H125353   5.415   0.088   1.612 -0.6563  0.1191  0.0108
 8463TIP3    H225354   5.421   0.003   1.486  0.1572 -0.8175  0.6692
 8464TIP3   OH225355   2.449   6.450   3.186  0.2544 -0.0485 -0.7738
 8464TIP3    H125356   2.410   6.363   3.177  0.0570 -0.1752  1.0220
 8464TIP3    H225357   2.452   6.466   3.280  2.1506  1.0631 -0.9678
 8465TIP3   OH225358   2.585   4.574   1.882  0.2482  0.1716  0.5696
 8465TIP3    H125359   2.513   4.609   1.828 -0.4915  0.9950  2.0362
 8465TIP3    H225360   2.653   4.641   1.877 -0.0470  0.5208  1.0870
 8466TIP3   OH225361   1.122   3.840   4.607 -0.4945 -0.4462 -0.1287
 8466TIP3    H125362   1.090   3.757   4.571  1.7802 -1.8350  0.8525
 8466TIP3    H225363   1.155   3.818   4.694  2.5933  0.8457 -0.8235
 8467TIP3   OH225364   2.462   6.149   0.495 -0.0328  0.3566 -0.3291
 8467TIP3    H125365   2.458   6.160   0.590  2.0891 -0.7936 -0.0487
 8467TIP3    H225366   2.504   6.064   0.482 -0.3095  0.4622 -2.3169
 8468TIP3   OH225367   1.566   0.213   1.332  0.1962  0.3364 -0.4802
 8468TIP3    H125368   1.628   0.230   1.402  0.2757 -1.3125 -0.1054
 8468TIP3    H225369   1.618   0.169   1.264  0.2531  2.4104 -1.8721
 8469TIP3   OH225370   6.343   0.833   0.886 -0.1301 -0.0032  0.5526
 8469TIP3    H125371   6.425   0.856   0.930 -0.6859 -0.1448  1.7044
 8469TIP3    H225372   6.288   0.910   0.897 -0.1531  0.0967 -0.2302
 8470TIP3   OH225373   6.765   2.996   1.070  0.2035 -0.2779  0.0710
 8470TIP3    H125374   6.819   2.937   1.123  0.8130 -0.6374 -0.9107
 8470TIP3    H225375   6.675   2.965   1.083  0.5023 -1.3746 -0.3403
 8471TIP3   OH225376   2.238   4.433   4.314 -0.1545  0.2210 -0.5128
 8471TIP3    H125377   2.314   4.396   4.270  0.0653 -0.5564  0.4934
 8471TIP3    H225378   2.274   4.480   4.389 -0.6088  0.5066 -0.4691
 8472TIP3   OH225379   2.962   4.527   1.226 -0.1773  0.4218  0.6070
 8472TIP3    H125380   2.876   4.505   1.261 -0.3287 -0.2332 -0.1482
 8472TIP3    H225381   3.016   4.450   1.245  0.1781  0.7357  0.8696
 8473TIP3   OH225382   4.782   2.753   3.100  0.0213  0.0198 -0.4561
 8473TIP3    H125383   4.773   2.676   3.043 -1.5260 -1.4892  1.6684
 8473TIP3    H225384   4.817   2.821   3.043  2.3161 -2.4668 -2.2668
 8474TIP3   OH225385   5.799   6.465   3.437  0.1324 -0.3802  0.7422
 8474TIP3    H125386   5.861   6.430   3.373 -0.2833 -1.6605  1.0142
 8474TIP3    H225387   5.844   6.541   3.474  0.3045  0.5044 -1.1689
 8475TIP3   OH225388   5.708   0.220   4.717  0.3852 -0.3353 -0.1991
 8475TIP3    H125389   5.768   0.285   4.752  1.3012 -2.6546  2.9498
 8475TIP3    H225390   5.762   0.170   4.655  0.4029  0.2556 -0.6761
 8476TIP3   OH225391   5.650   2.744   3.856 -0.2392 -0.1141  0.0017
 8476TIP3    H125392   5.579   2.808   3.862 -1.2817 -1.2740  0.2749
 8476TIP3    H225393   5.729   2.798   3.855 -1.0874  1.1952 -0.0133
 8477TIP3   OH225394   4.449   2.041   1.913 -0.2443  0.2109  0.9638
 8477TIP3    H125395   4.540   2.072   1.904 -0.5221  0.9802  0.7019
 8477TIP3    H225396   4.456   1.946   1.908  0.1250  0.2614 -3.4590
 8478TIP3   OH225397   1.210   0.707   1.348  0.0393 -0.5139 -0.4687
 8478TIP3    H125398   1.257   0.776   1.301 -0.5186 -0.8217 -1.4961
 8478TIP3    H225399   1.279   0.643   1.371  0.4405  0.0264 -0.1411
 8479TIP3   OH225400   1.009   3.363   0.775 -0.3057  0.3031  0.4314
 8479TIP3    H125401   1.019   3.415   0.855 -0.4484  2.0611 -0.6452
 8479TIP3    H225402   1.081   3.391   0.719  0.0242 -1.1890  0.0580
 8480TIP3   OH225403   6.904   0.784   5.098  0.1252  0.0858 -0.0304
 8480TIP3    H125404   6.987   0.830   5.086  1.4229 -2.3700 -1.2986
 8480TIP3    H225405   6.865   0.784   5.010 -0.4853 -0.0622  0.2412
 8481TIP3   OH225406   2.703   5.347   5.395  0.3890 -0.1733  0.2494
 8481TIP3    H125407   2.653   5.268   5.416  1.1531 -0.6936  0.1673
 8481TIP3    H225408   2.712   5.345   5.299  0.6875 -0.1580  0.2774
 8482TIP3   OH225409   5.919   5.961   3.353 -0.5123  0.2432  0.1997
 8482TIP3    H125410   5.907   6.016   3.275 -2.6953  0.3546  0.5684
 8482TIP3    H225411   5.969   6.017   3.413  0.4427  0.4669 -0.7496
 8483TIP3   OH225412   4.770   3.093   3.095  0.2015 -0.0299  0.0610
 8483TIP3    H125413   4.856   3.092   3.053 -0.2897  0.3928 -1.0051
 8483TIP3    H225414   4.788   3.087   3.188  1.3269 -1.4428 -0.2158
 8484TIP3   OH225415   3.404   4.951   2.605 -0.2195  0.1085  0.6394
 8484TIP3    H125416   3.367   4.866   2.582 -0.3156  0.2455  0.2693
 8484TIP3    H225417   3.347   5.014   2.561  0.0866  0.3478  0.5814
 8485TIP3   OH225418   3.564   5.730   0.059  0.2003 -0.2863 -0.1306
 8485TIP3    H125419   3.604   5.644   0.066  0.1119 -0.2125  1.7210
 8485TIP3    H225420   3.627   5.789   0.100 -0.8227  0.1393  0.8935
 8486TIP3   OH225421   2.692   2.759   5.138 -0.5663  0.0549 -0.5633
 8486TIP3    H125422   2.747   2.683   5.119  1.7012  1.2014  0.8868
 8486TIP3    H225423   2.607   2.721   5.162  0.2983 -1.9924 -0.4689
 8487TIP3   OH225424   3.901   3.711   2.370  0.0906  0.2387 -0.0541
 8487TIP3    H125425   3.838   3.750   2.430 -0.2386 -1.9840  1.1406
 8487TIP3    H225426   3.986   3.738   2.404 -0.1350  0.1838  0.5641
 8488TIP3   OH225427   0.512   2.393   5.520 -0.3983  0.2712 -0.3559
 8488TIP3    H125428   0.538   2.480   5.550 -3.1602  0.5463  1.6243
 8488TIP3    H225429   0.478   2.408   5.432  1.7358  0.6279 -1.1780
 8489TIP3   OH225430   5.022   2.882   0.694  0.3838 -0.2176 -0.0265
 8489TIP3    H125431   5.102   2.896   0.744  1.7464 -0.6021 -1.9696
 8489TIP3    H225432   5.052   2.853   0.608 -1.8908 -2.9287 -0.0746
 8490TIP3   OH225433   6.738   6.752   2.029 -0.3692  0.0457 -0.1855
 8490TIP3    H125434   6.817   6.799   2.002  0.4547 -1.3572 -0.3060
 8490TIP3    H225435   6.732   6.678   1.968 -0.0931 -1.5449  1.6273
 8491TIP3   OH225436   5.733   1.432   4.840  0.3495  0.5037  1.2713
 8491TIP3    H125437   5.771   1.504   4.789  2.2209 -0.7838  0.7581
 8491TIP3    H225438   5.666   1.474   4.894 -1.1141  2.0822 -1.5481
 8492TIP3   OH225439   5.319   4.474   3.202 -0.1193 -0.8766 -0.0517
 8492TIP3    H125440   5.363   4.455   3.284 -0.8091 -2.8141 -0.0964
 8492TIP3    H225441   5.229   4.443   3.214 -0.1978 -1.3381 -1.5583
 8493TIP3   OH225442   6.798   5.133   4.142  0.1656  0.0533 -0.6439
 8493TIP3    H125443   6.729   5.190   4.175 -0.6817 -0.9308 -0.6827
 8493TIP3    H225444   6.836   5.182   4.068  0.8714  1.4665  0.6089
 8494TIP3   OH225445   4.626   6.636   0.044  0.1891  0.7788 -0.4207
 8494TIP3    H125446   4.568   6.633  -0.032  1.1939 -0.9804 -1.1593
 8494TIP3    H225447   4.566   6.653   0.118 -1.2930 -0.7666 -1.1779
 8495TIP3   OH225448   3.094   5.507   4.650  0.5392 -0.1743  0.0576
 8495TIP3    H125449   3.108   5.567   4.723  0.4989 -1.3386  1.0391
 8495TIP3    H225450   3.183   5.484   4.621  0.6328  2.4106 -2.1249
 8496TIP3   OH225451   2.399   3.648   1.395 -0.1639 -0.0268 -0.0924
 8496TIP3    H125452   2.397   3.738   1.363 -0.7282 -0.7579 -2.3344
 8496TIP3    H225453   2.351   3.598   1.329  0.9299 -2.1162  0.5952
 8497TIP3   OH225454   2.146   4.430   5.604 -0.7281 -0.2914 -0.0441
 8497TIP3    H125455   2.190   4.515   5.597 -1.1423 -0.1291 -0.8411
 8497TIP3    H225456   2.160   4.403   5.695  0.3477  0.1073 -0.0797
 8498TIP3   OH225457   6.849   6.544   2.193  0.4893  0.0762 -0.0350
 8498TIP3    H125458   6.837   6.616   2.130  1.0881 -0.7251 -1.1056
 8498TIP3    H225459   6.787   6.563   2.263  1.2007  2.0900  0.1311
 8499TIP3   OH225460   7.042   1.231   3.854  0.5751  0.1274 -0.6197
 8499TIP3    H125461   6.955   1.206   3.824  1.1698  0.1370 -2.4358
 8499TIP3    H225462   7.069   1.159   3.911 -0.5819  0.1053 -0.0674
 8500TIP3   OH225463   3.143   0.443   5.189  0.1815 -0.3785 -0.2836
 8500TIP3    H125464   3.112   0.480   5.107  1.2258 -0.6171 -0.7993
 8500TIP3    H225465   3.092   0.363   5.201  0.2373 -0.4964 -0.8454
 8501TIP3   OH225466   3.815   2.575   0.787 -0.4444 -0.1286  0.4920
 8501TIP3    H125467   3.742   2.631   0.815  0.2648  2.8636 -2.8577
 8501TIP3    H225468   3.779   2.487   0.790 -2.7549  0.7246  2.9728
 8502TIP3   OH225469   3.991   2.487   2.429 -0.1939 -0.4156  0.0307
 8502TIP3    H125470   3.971   2.395   2.445  0.4512 -0.3316  1.4353
 8502TIP3    H225471   4.086   2.494   2.443 -0.2248  0.4548 -0.1314
 8503TIP3   OH225472   2.924   0.205   4.154 -0.2979 -0.5048  0.2938
 8503TIP3    H125473   2.992   0.257   4.198 -1.2708  0.8858  0.2305
 8503TIP3    H225474   2.950   0.114   4.169 -0.1074 -0.0987  3.0320
 8504TIP3   OH225475   4.968   6.504   2.107 -0.0076 -0.1942  0.3098
 8504TIP3    H125476   4.896   6.566   2.120  0.6303  0.5828  0.1958
 8504TIP3    H225477   5.004   6.491   2.195  0.5927  0.5129  0.1797
 8505TIP3   OH225478   6.960   3.064   4.645 -0.3475 -0.1563  0.3493
 8505TIP3    H125479   6.864   3.058   4.643 -0.2593 -1.9791  0.3888
 8505TIP3    H225480   6.982   3.112   4.565 -1.2356 -0.8936 -0.3674
 8506TIP3   OH225481   4.244   1.648   2.127 -0.3636 -0.1006  0.2403
 8506TIP3    H125482   4.161   1.607   2.150 -0.3401  0.0191  0.5422
 8506TIP3    H225483   4.239   1.661   2.032 -0.2745 -1.0037  0.1104
 8507TIP3   OH225484   2.767   6.188   2.413 -0.6291 -0.2983  0.3297
 8507TIP3    H125485   2.833   6.146   2.468 -0.2388  0.7098  0.6528
 8507TIP3    H225486   2.740   6.119   2.352 -0.4519 -1.1820  1.2217
 8508TIP3   OH225487   0.479   4.324   0.688 -0.4079  0.3410  0.2212
 8508TIP3    H125488   0.476   4.307   0.782 -2.1466  0.4180  0.2121
 8508TIP3    H225489   0.392   4.300   0.657 -0.1313  1.1376 -1.2312
 8509TIP3   OH225490   6.730   1.824   5.549 -0.6482  0.0005  0.1704
 8509TIP3    H125491   6.660   1.856   5.606 -0.4728  1.4811 -0.4219
 8509TIP3    H225492   6.786   1.900   5.534 -0.4166 -0.4712 -1.5924
 8510TIP3   OH225493   2.098   0.719   1.449  0.4748  0.4976 -0.5484
 8510TIP3    H125494   2.037   0.772   1.398 -0.9248 -0.1910  0.3704
 8510TIP3    H225495   2.043   0.670   1.509  1.9260 -0.3370  0.1422
 8511TIP3   OH225496   0.192   4.162   1.402 -0.5826 -0.1270 -0.0796
 8511TIP3    H125497   0.240   4.142   1.482 -0.1230  2.0116  0.2534
 8511TIP3    H225498   0.102   4.176   1.432 -0.8673 -1.3980 -0.2868
 8512TIP3   OH225499   1.696   4.753   5.847 -0.3559  0.5365 -0.0202
 8512TIP3    H125500   1.698   4.758   5.942 -2.2130 -1.5856  0.2315
 8512TIP3    H225501   1.657   4.836   5.819 -4.5376 -0.6488  1.5489
 8513TIP3   OH225502   5.925   0.446   1.965 -0.6016 -0.3869 -0.3617
 8513TIP3    H125503   6.006   0.494   1.951 -0.9395  0.6630  1.0890
 8513TIP3    H225504   5.948   0.355   1.947  0.7070 -0.0166 -0.6775
 8514TIP3   OH225505   4.200   4.180   3.842  0.3224 -0.0285  0.6330
 8514TIP3    H125506   4.275   4.236   3.821  2.1427 -1.6515  2.3007
 8514TIP3    H225507   4.212   4.159   3.934 -2.3533 -0.2138  0.9921
 8515TIP3   OH225508   4.787   6.472   1.269  0.2300  0.2213  0.4937
 8515TIP3    H125509   4.845   6.524   1.324 -0.6993  3.1847 -1.0764
 8515TIP3    H225510   4.843   6.440   1.198  0.3063  1.8952 -0.2599
 8516TIP3   OH225511   0.583   0.693   4.076  0.0291 -0.3503  0.3336
 8516TIP3    H125512   0.649   0.623   4.081  0.9863  0.5260  0.2840
 8516TIP3    H225513   0.516   0.657   4.018  0.1613 -1.5011  0.8583
 8517TIP3   OH225514   4.424   6.618   5.026 -0.2565  0.4543 -0.0739
 8517TIP3    H125515   4.357   6.645   4.964  0.6540 -0.3027 -1.4263
 8517TIP3    H225516   4.478   6.696   5.039 -0.7773  0.7750  0.2444
 8518TIP3   OH225517   0.440   0.646   4.816 -0.4786  0.3371 -0.4041
 8518TIP3    H125518   0.529   0.672   4.792  0.2819 -1.7611 -0.1013
 8518TIP3    H225519   0.383   0.708   4.770  1.1161  1.3833 -1.0429
 8519TIP3   OH225520   0.482   5.294   1.101  0.0268  0.1953 -0.1437
 8519TIP3    H125521   0.500   5.247   1.020  0.5647  0.4320 -0.1672
 8519TIP3    H225522   0.502   5.230   1.170  0.2146  0.2051 -0.1870
 8520TIP3   OH225523   5.342   4.546   2.110 -0.0973 -0.0748  0.5465
 8520TIP3    H125524   5.410   4.611   2.126  0.2846  0.1391 -1.6551
 8520TIP3    H225525   5.370   4.501   2.030 -2.9218  0.5922 -0.9281
 8521TIP3   OH225526   5.120   2.215   4.084 -0.4536 -0.1060 -0.2137
 8521TIP3    H125527   5.088   2.128   4.107 -2.0438  0.3073 -0.7676
 8521TIP3    H225528   5.215   2.210   4.098 -0.5591 -1.8192  0.0702
 8522TIP3   OH225529   5.195   1.312   4.034  0.2328  0.2291  0.5042
 8522TIP3    H125530   5.127   1.257   3.993  0.4047  1.3266 -1.3451
 8522TIP3    H225531   5.147   1.385   4.071  0.2938  0.4466  0.1583
 8523TIP3   OH225532   3.791   5.498   1.594  0.2567 -0.2751 -0.2378
 8523TIP3    H125533   3.704   5.482   1.559  0.2758 -0.0991 -0.3644
 8523TIP3    H225534   3.822   5.411   1.623 -0.9957 -0.0036  2.2035
 8524TIP3   OH225535   5.937   5.099   5.217  0.0406 -0.1132 -0.5042
 8524TIP3    H125536   5.857   5.137   5.181  0.0939 -0.3769 -0.9158
 8524TIP3    H225537   5.911   5.012   5.247  0.0077  0.0893  0.0612
 8525TIP3   OH225538   4.137   6.356   4.839  0.2407 -0.5635 -0.0280
 8525TIP3    H125539   4.228   6.327   4.829  0.0068 -0.9975 -1.0299
 8525TIP3    H225540   4.103   6.360   4.749 -1.0358 -1.3840  0.3947
 8526TIP3   OH225541   6.737  -0.004   2.949  0.5686 -0.3058  0.7266
 8526TIP3    H125542   6.814   0.015   3.002  1.1915  2.9889 -1.0777
 8526TIP3    H225543   6.764   0.018   2.860 -1.3853 -2.6513 -0.5591
 8527TIP3   OH225544   1.988   1.601   3.640 -0.4312 -0.1319  0.1682
 8527TIP3    H125545   1.909   1.547   3.636 -1.3432  1.1887 -0.4866
 8527TIP3    H225546   1.981   1.649   3.722 -0.6624  0.4675 -0.1911
 8528TIP3   OH225547   3.696   6.004   4.073  0.1553  0.3034  0.4819
 8528TIP3    H125548   3.753   5.966   4.139 -1.0152 -0.5375  1.0509
 8528TIP3    H225549   3.618   5.948   4.074 -0.8564  1.6640  0.0457
 8529TIP3   OH225550   3.478   2.323   3.152 -0.5145  0.0402  0.6221
 8529TIP3    H125551   3.504   2.240   3.112  1.1136  1.9515 -2.7012
 8529TIP3    H225552   3.521   2.323   3.237  0.8231 -1.8457  0.0150
 8530TIP3   OH225553   2.765   2.555   1.341 -0.0473  0.0267 -0.1388
 8530TIP3    H125554   2.692   2.555   1.403  0.2709 -0.0937  0.2405
 8530TIP3    H225555   2.832   2.608   1.384  0.1122  0.0825 -0.4582
 8531TIP3   OH225556   5.720   4.955   2.533 -0.1649  0.3275  0.5689
 8531TIP3    H125557   5.672   4.873   2.542  0.3640 -0.1697 -0.8391
 8531TIP3    H225558   5.712   4.998   2.619 -0.9597 -0.9041  1.1301
 8532TIP3   OH225559   6.175   0.659   3.037  0.8228 -0.3746 -0.1171
 8532TIP3    H125560   6.156   0.658   2.943 -0.2577 -1.7626  0.0787
 8532TIP3    H225561   6.251   0.602   3.047  0.9931 -0.1537 -0.1747
 8533TIP3   OH225562   5.584   2.592   5.844 -0.0806  0.2648  0.1124
 8533TIP3    H125563   5.565   2.510   5.798 -0.8087  0.4950 -0.0202
 8533TIP3    H225564   5.541   2.582   5.929  0.6229  0.1430  0.4574
 8534TIP3   OH225565   4.309   4.784   1.678 -0.8389  0.0282 -0.5467
 8534TIP3    H125566   4.315   4.701   1.726 -0.8640  0.0891 -0.4401
 8534TIP3    H225567   4.271   4.759   1.593  0.4082 -0.2860 -1.0404
 8535TIP3   OH225568   6.745   3.317   2.860  0.3404  0.1411 -0.3326
 8535TIP3    H125569   6.822   3.340   2.913  0.7114 -0.7737 -0.4546
 8535TIP3    H225570   6.738   3.222   2.870 -0.3318  0.1283 -0.9294
 8536TIP3   OH225571   0.433   1.058   3.262  0.0408  0.1215  0.3967
 8536TIP3    H125572   0.488   0.982   3.246 -2.1785 -1.5628  0.1932
 8536TIP3    H225573   0.343   1.025   3.252 -1.0383  2.6131  1.0054
 8537TIP3   OH225574   1.896   2.540   4.158  0.2037  0.2029  0.0975
 8537TIP3    H125575   1.921   2.620   4.205 -1.3596  0.5054  0.4593
 8537TIP3    H225576   1.831   2.569   4.094  0.0705 -0.6970 -0.1873
 8538TIP3   OH225577   1.560   5.975   2.190 -0.3608  0.3941 -0.0674
 8538TIP3    H125578   1.558   6.066   2.219  1.0783  1.3824 -2.6870
 8538TIP3    H225579   1.608   5.978   2.107 -0.7360 -2.6973 -0.5021
 8539TIP3   OH225580   0.233   1.502   3.184  0.0408  0.4712 -0.5647
 8539TIP3    H125581   0.283   1.548   3.116  1.1508 -0.3693 -0.3454
 8539TIP3    H225582   0.158   1.465   3.137  0.1530  0.9160 -1.1045
 8540TIP3   OH225583   6.497   6.180   0.586  0.3172  0.0916 -0.5523
 8540TIP3    H125584   6.501   6.274   0.602  1.5203  0.0827 -0.6963
 8540TIP3    H225585   6.404   6.161   0.577  0.0449  1.2255 -0.2803
 8541TIP3   OH225586   4.959   4.565   0.474 -0.3090 -0.0232 -0.4133
 8541TIP3    H125587   4.911   4.581   0.393  0.0484  0.5350 -0.5217
 8541TIP3    H225588   5.017   4.492   0.453  0.6192  0.8674 -1.0345
 8542TIP3   OH225589   0.750   5.258   4.137  0.4124 -0.1914 -0.1914
 8542TIP3    H125590   0.668   5.274   4.091 -0.3834  0.8783  1.4808
 8542TIP3    H225591   0.724   5.209   4.215  1.0569  1.6076  1.2365
 8543TIP3   OH225592   7.077   3.232   1.590 -0.4363 -0.1454 -0.5114
 8543TIP3    H125593   7.025   3.178   1.648  1.0607 -0.1963  0.8491
 8543TIP3    H225594   7.047   3.208   1.502 -1.5727 -1.2960  0.1517
 8544TIP3   OH225595   0.690   5.621   3.976  0.1506 -0.3169 -0.0633
 8544TIP3    H125596   0.644   5.691   3.929  0.1224 -1.0792 -1.2137
 8544TIP3    H225597   0.695   5.549   3.913  2.2597 -0.5333  0.2712
 8545TIP3   OH225598   3.945   1.827   2.149  0.0579  0.1565  0.0581
 8545TIP3    H125599   3.940   1.791   2.237 -1.8310  1.3232  0.4758
 8545TIP3    H225600   4.037   1.852   2.139  0.7387 -1.8115  0.9040
 8546TIP3   OH225601   4.844   5.833   5.566 -1.0061  0.0540  0.1650
 8546TIP3    H125602   4.884   5.832   5.479 -2.2150 -1.2015 -0.4188
 8546TIP3    H225603   4.857   5.922   5.598 -0.3194  0.4622 -1.1920
 8547TIP3   OH225604   7.238   0.359   5.827 -0.5405 -0.7167 -0.5131
 8547TIP3    H125605   7.224   0.366   5.922  1.2400  0.5053 -0.3088
 8547TIP3    H225606   7.160   0.400   5.789 -0.5337  0.2589  0.4638
 8548TIP3   OH225607   3.686   5.333   4.094 -0.6475 -0.5777 -0.2443
 8548TIP3    H125608   3.727   5.248   4.111  0.7756  0.1177  0.0506
 8548TIP3    H225609   3.660   5.330   4.002 -0.2013 -1.1841 -0.3577
 8549TIP3   OH225610   0.870   6.542   0.612 -0.2640  0.1065 -0.3470
 8549TIP3    H125611   0.775   6.555   0.610 -0.5671 -1.4102  1.4268
 8549TIP3    H225612   0.905   6.629   0.634 -1.4810  0.1365  1.7793
 8550TIP3   OH225613   6.890   1.901   4.505  0.1061 -0.3773  0.4210
 8550TIP3    H125614   6.818   1.841   4.485  0.4827 -0.8308  0.4194
 8550TIP3    H225615   6.908   1.887   4.598  1.0052 -1.1648  0.1443
 8551TIP3   OH225616   2.923   3.096   0.636  0.8909 -0.3022  0.3100
 8551TIP3    H125617   2.884   3.155   0.571 -0.3457 -0.9370  0.4417
 8551TIP3    H225618   3.017   3.105   0.623  0.7687  1.9707  0.5706
 8552TIP3   OH225619   6.834   2.083   3.139  0.2782 -0.4675  0.4284
 8552TIP3    H125620   6.896   2.151   3.110 -0.8310  0.3565 -0.0956
 8552TIP3    H225621   6.863   2.003   3.095  0.5333  0.0752 -0.4154
 8553TIP3   OH225622   1.654   5.006   5.724 -0.0682  0.5221  0.0857
 8553TIP3    H125623   1.718   4.969   5.663 -1.2244  0.7609 -1.3139
 8553TIP3    H225624   1.569   4.975   5.692 -0.9326  2.7660 -0.0236
 8554TIP3   OH225625   2.584   2.588   0.569 -0.0178 -0.1645  0.0377
 8554TIP3    H125626   2.637   2.583   0.648 -1.3828  0.0565  0.9960
 8554TIP3    H225627   2.504   2.633   0.596 -0.4182  0.1321 -1.5235
 8555TIP3   OH225628   3.969   5.660   4.706 -0.0014 -0.2002  0.0677
 8555TIP3    H125629   3.942   5.752   4.712 -1.3580 -0.4204 -1.7892
 8555TIP3    H225630   4.033   5.659   4.635  1.0799 -0.4969  1.0252
 8556TIP3   OH225631   6.881   0.226   0.104  1.2711 -0.1623 -0.2733
 8556TIP3    H125632   6.919   0.307   0.137 -0.9524 -0.3298  3.1621
 8556TIP3    H225633   6.806   0.254   0.052  0.8271  0.0121  0.4565
 8557TIP3   OH225634   4.405   1.555   3.223 -0.0512 -0.2114 -0.9379
 8557TIP3    H125635   4.330   1.610   3.246 -0.0925 -0.5907 -0.1433
 8557TIP3    H225636   4.480   1.596   3.266 -0.0971 -0.8135 -0.2682
 8558TIP3   OH225637   6.114   5.903   1.645  0.5566 -0.4309 -0.3347
 8558TIP3    H125638   6.085   5.899   1.554  1.2493 -0.6857 -0.5530
 8558TIP3    H225639   6.091   5.817   1.681  1.3864 -0.7906 -0.6264
 8559TIP3   OH225640   0.052   2.530   1.219  0.3554 -0.5063  0.4047
 8559TIP3    H125641   0.087   2.618   1.236  0.6386  0.2332 -3.2058
 8559TIP3    H225642   0.109   2.471   1.268  2.9784  1.0848 -0.5624
 8560TIP3   OH225643   2.990   3.170   4.942  0.2075  0.3522 -0.0431
 8560TIP3    H125644   2.921   3.234   4.960  1.3958  1.7855 -0.3448
 8560TIP3    H225645   3.036   3.160   5.025 -0.9007 -1.3603  0.4251
 8561TIP3   OH225646   1.739   6.643   1.035 -0.3883  0.2081  0.4994
 8561TIP3    H125647   1.651   6.664   1.067 -0.6328  0.5574 -0.3843
 8561TIP3    H225648   1.762   6.562   1.081 -0.7781  0.6247  1.4571
 8562TIP3   OH225649   2.159   0.298   2.684 -0.1658 -0.0266  0.1980
 8562TIP3    H125650   2.244   0.299   2.727 -0.7430  2.1514  1.4490
 8562TIP3    H225651   2.172   0.345   2.602  0.4504 -2.3407 -1.1230
 8563TIP3   OH225652   3.929   6.098   0.825  0.2830 -0.4456  0.3161
 8563TIP3    H125653   3.972   6.171   0.780 -1.7041  1.3487  1.1385
 8563TIP3    H225654   3.861   6.068   0.764  0.5398 -1.0672  0.3252
 8564TIP3   OH225655   2.833   1.341   0.224 -0.0189  0.1606 -0.2058
 8564TIP3    H125656   2.870   1.404   0.162 -0.0967  0.0700 -0.3447
 8564TIP3    H225657   2.739   1.349   0.214 -0.0744  1.1882  0.9487
 8565TIP3   OH225658   6.295   3.180   1.453  0.2629 -0.0146  0.3508
 8565TIP3    H125659   6.347   3.259   1.472  1.5131 -0.8198  0.3679
 8565TIP3    H225660   6.254   3.199   1.369  1.7668  0.0827 -0.4020
 8566TIP3   OH225661   0.877   0.263   4.407  0.6347  0.1466  0.4266
 8566TIP3    H125662   0.926   0.344   4.412 -1.1259  1.2373  1.3533
 8566TIP3    H225663   0.883   0.235   4.316  1.3336  1.2758  0.1178
 8567TIP3   OH225664   3.661   1.776   0.832  0.4193 -0.0699  0.1691
 8567TIP3    H125665   3.636   1.843   0.768  2.4661  1.6856  1.0810
 8567TIP3    H225666   3.588   1.775   0.894 -1.9208 -2.2641 -2.3594
 8568TIP3   OH225667   1.511   1.586   3.652 -0.1848 -0.0260 -0.8971
 8568TIP3    H125668   1.454   1.510   3.642  0.6515 -0.6427 -1.0459
 8568TIP3    H225669   1.485   1.624   3.736 -0.9112 -0.2077 -1.0316
 8569TIP3   OH225670   7.200   0.664   1.260  0.9827 -0.1237  0.2689
 8569TIP3    H125671   7.161   0.727   1.199  3.4147  2.1215  0.8737
 8569TIP3    H225672   7.155   0.681   1.343  0.6231 -0.2228  0.0985
 8570TIP3   OH225673   0.808   6.290   0.892 -0.0179 -0.3976  0.1708
 8570TIP3    H125674   0.864   6.212   0.901  1.5522  0.4924 -1.2847
 8570TIP3    H225675   0.723   6.255   0.866  1.4626 -1.6244 -3.7334
 8571TIP3   OH225676   6.973   1.312   4.735  0.0280 -0.1134  0.1350
 8571TIP3    H125677   7.054   1.288   4.780 -0.1480 -0.5658  0.2152
 8571TIP3    H225678   6.932   1.376   4.793  0.3126  0.0905  0.1114
 8572TIP3   OH225679   1.181   5.399   1.444  0.8493 -0.3028 -0.0620
 8572TIP3    H125680   1.102   5.429   1.490 -0.6683 -0.5290 -2.3683
 8572TIP3    H225681   1.242   5.472   1.452  0.1904  0.1604  1.1734
 8573TIP3   OH225682   7.205   2.587   0.691 -0.4618  0.4274 -0.1184
 8573TIP3    H125683   7.143   2.607   0.622 -1.3664  1.6435  0.9926
 8573TIP3    H225684   7.206   2.665   0.746  1.5555  0.1741  0.2802
 8574TIP3   OH225685   3.264   5.351   3.178 -0.0344 -0.0304 -0.4449
 8574TIP3    H125686   3.335   5.391   3.128  2.0526 -0.0222  2.2909
 8574TIP3    H225687   3.300   5.269   3.210 -1.1640  0.0403  1.1520
 8575TIP3   OH225688   3.294   4.274   4.695 -0.0978  0.0111  0.2247
 8575TIP3    H125689   3.315   4.333   4.768 -0.3411  1.4372 -0.8158
 8575TIP3    H225690   3.269   4.333   4.623 -1.0671 -1.3970 -0.6391
 8576TIP3   OH225691   5.515   4.737   2.146  0.9604 -0.1310  0.0734
 8576TIP3    H125692   5.514   4.827   2.178 -0.8163  0.5134 -1.5909
 8576TIP3    H225693   5.607   4.718   2.129  1.3544  1.3925  0.3780
 8577TIP3   OH225694   2.561   6.014   5.314  0.3097  0.8008 -0.0905
 8577TIP3    H125695   2.556   6.018   5.409  0.0669  0.7960 -0.1012
 8577TIP3    H225696   2.630   5.950   5.295  0.8056  1.2773  0.0818
 8578TIP3   OH225697   6.497   4.935   5.854  0.1050  0.3630  0.3008
 8578TIP3    H125698   6.451   4.901   5.777 -1.0701 -0.4785  1.3477
 8578TIP3    H225699   6.504   4.860   5.912  1.1088  0.9622  0.9687
 8579TIP3   OH225700   6.284   2.878   4.540  0.2805 -0.3565 -0.3831
 8579TIP3    H125701   6.305   2.813   4.472 -0.9795 -0.3020 -0.8548
 8579TIP3    H225702   6.259   2.956   4.491  1.0930  0.2689  0.1819
 8580TIP3   OH225703   0.241   5.172   5.753 -0.0136  0.1017 -0.6161
 8580TIP3    H125704   0.172   5.226   5.791 -0.1335  0.8231 -1.8128
 8580TIP3    H225705   0.204   5.142   5.670  0.6296 -0.5921 -0.6593
 8581TIP3   OH225706   2.006   1.013   4.512 -0.6627 -0.7771 -0.3093
 8581TIP3    H125707   2.030   0.939   4.568  2.0936  0.2228 -0.0534
 8581TIP3    H225708   1.910   1.010   4.509 -0.7481 -2.8631  1.6861
 8582TIP3   OH225709   6.723   4.614   4.187 -0.0964  0.7261  0.6456
 8582TIP3    H125710   6.818   4.621   4.197  0.0129  0.5829 -0.2061
 8582TIP3    H225711   6.703   4.525   4.214  0.3799 -0.1271 -1.5880
 8583TIP3   OH225712   5.993   2.443   0.625  0.1731 -0.3217  0.1098
 8583TIP3    H125713   5.936   2.482   0.559  0.8383  1.0970  0.3383
 8583TIP3    H225714   6.006   2.353   0.595 -1.4867 -0.4277 -0.3819
 8584TIP3   OH225715   2.739   6.487   1.981 -0.3796  0.3621 -0.3349
 8584TIP3    H125716   2.733   6.580   1.956 -0.7955  0.9608  1.7798
 8584TIP3    H225717   2.693   6.440   1.911  0.3244  1.6731 -1.7443
 8585TIP3   OH225718   1.495   5.682   0.135 -0.6087 -0.5383  0.3048
 8585TIP3    H125719   1.465   5.751   0.195  0.2877  0.4656 -0.3579
 8585TIP3    H225720   1.590   5.691   0.134 -0.5552 -1.0923 -0.6193
 8586TIP3   OH225721   1.496   0.162   0.473 -0.0979  0.1905 -0.0733
 8586TIP3    H125722   1.540   0.082   0.442  3.0944  1.4842  0.7041
 8586TIP3    H225723   1.457   0.199   0.394 -0.9122 -1.6483 -0.6029
 8587TIP3   OH225724   3.213   1.158   4.211 -0.4806 -0.1202  0.0615
 8587TIP3    H125725   3.172   1.241   4.185 -0.6024 -0.2997 -0.3295
 8587TIP3    H225726   3.139   1.098   4.222 -0.5631  0.2735  2.1073
 8588TIP3   OH225727   2.170   3.361   5.489 -0.2442  0.5224  0.2185
 8588TIP3    H125728   2.229   3.419   5.441 -1.7593  1.3097 -0.8044
 8588TIP3    H225729   2.158   3.403   5.574  1.1724 -0.0111  0.7026
 8589TIP3   OH225730   6.028   2.053   5.682 -0.0972 -0.4002  0.5805
 8589TIP3    H125731   5.955   2.093   5.636 -0.4522 -0.1003  1.3808
 8589TIP3    H225732   6.081   2.127   5.712 -0.7219 -0.5021  2.0145
 8590TIP3   OH225733   6.335   2.409   3.915 -0.0452 -0.5415 -0.0479
 8590TIP3    H125734   6.373   2.446   3.835 -0.0948  2.3456  1.1454
 8590TIP3    H225735   6.404   2.418   3.980 -0.4325 -1.6861  0.5356
 8591TIP3   OH225736   1.030   2.425   1.809  0.0008  0.2743  0.4904
 8591TIP3    H125737   1.108   2.468   1.846 -1.5916  1.7807  2.3102
 8591TIP3    H225738   1.044   2.332   1.827  0.9573  0.6149  1.6540
 8592TIP3   OH225739   1.058   0.698   5.757 -0.0842 -0.4423 -0.5044
 8592TIP3    H125740   1.151   0.678   5.763  0.3159  0.2227 -3.2090
 8592TIP3    H225741   1.021   0.663   5.838  1.9185 -4.0046 -0.9235
 8593TIP3   OH225742   3.345   4.889   0.923  0.0048 -0.9569 -0.5073
 8593TIP3    H125743   3.296   4.860   0.846  1.4882  0.6521 -2.1729
 8593TIP3    H225744   3.436   4.870   0.901  0.6783  1.6176 -0.1754
 8594TIP3   OH225745   1.149   5.833   1.244 -0.6284 -0.1144  0.0678
 8594TIP3    H125746   1.228   5.805   1.198  0.1563 -2.3115  2.5197
 8594TIP3    H225747   1.077   5.810   1.185  0.4267 -0.2230 -1.2196
 8595TIP3   OH225748   3.161   3.433   0.610 -0.0684  0.2486 -0.3549
 8595TIP3    H125749   3.183   3.341   0.620  1.6931  0.5626 -0.9525
 8595TIP3    H225750   3.138   3.443   0.517  0.7982  0.5918 -0.5435
 8596TIP3   OH225751   4.293   5.617   4.727 -0.1859 -0.1308 -0.0590
 8596TIP3    H125752   4.216   5.593   4.778 -0.5783 -0.1167 -0.6389
 8596TIP3    H225753   4.344   5.537   4.721 -0.0973 -0.1114  0.4269
 8597TIP3   OH225754   3.964   4.287   2.579 -0.2414  0.0499  0.4776
 8597TIP3    H125755   4.013   4.306   2.659 -0.0122  1.2106  0.0890
 8597TIP3    H225756   3.877   4.263   2.609 -0.5273  1.6745  1.0655
 8598TIP3   OH225757   6.361   0.827   4.483  0.3234 -0.2596 -0.2666
 8598TIP3    H125758   6.302   0.891   4.443  0.2693  0.1346  0.4334
 8598TIP3    H225759   6.414   0.878   4.544  0.4394 -0.8432  0.1226
 8599TIP3   OH225760   0.793   0.265   1.667 -0.4333 -0.0436  0.7579
 8599TIP3    H125761   0.876   0.308   1.689 -0.9710  0.2760  2.2854
 8599TIP3    H225762   0.731   0.298   1.732 -1.8361 -0.0899 -0.5013
 8600TIP3   OH225763   3.467   3.183   3.892  0.1838  0.5002 -0.1636
 8600TIP3    H125764   3.448   3.220   3.979  0.3364  1.1092 -0.3867
 8600TIP3    H225765   3.561   3.194   3.882  0.1624  0.4477 -0.4189
 8601TIP3   OH225766   1.605   3.040   4.123 -0.3550  0.0329 -0.0711
 8601TIP3    H125767   1.652   3.050   4.206  0.7804 -1.5507 -0.4717
 8601TIP3    H225768   1.622   3.121   4.075  0.1033  0.3930  0.6811
 8602TIP3   OH225769   5.955   4.652   4.034 -0.0095 -0.3134 -0.3925
 8602TIP3    H125770   6.045   4.664   4.064 -0.2444  0.0473  0.1741
 8602TIP3    H225771   5.904   4.715   4.084 -0.7790 -1.3949  0.2254
 8603TIP3   OH225772   0.302   5.240   4.867  0.2053  0.6893 -0.2260
 8603TIP3    H125773   0.211   5.225   4.893  0.3061 -0.6083 -0.5326
 8603TIP3    H225774   0.353   5.191   4.932  0.5586 -0.6710 -1.4769
 8604TIP3   OH225775   2.882   6.618   3.494  0.0449  0.1710 -0.1685
 8604TIP3    H125776   2.862   6.532   3.457  0.5938 -0.3174  0.6440
 8604TIP3    H225777   2.924   6.666   3.423 -0.9087  0.0320 -0.8509
 8605TIP3   OH225778   7.212   6.249   3.383 -0.8764 -0.1788 -0.1590
 8605TIP3    H125779   7.292   6.223   3.337 -0.6721 -0.1911  0.2017
 8605TIP3    H225780   7.157   6.289   3.315 -1.1119 -1.3495 -0.6700
 8606TIP3   OH225781   5.575   4.331   0.553  0.1836 -0.3129 -0.2940
 8606TIP3    H125782   5.500   4.273   0.540 -0.1840  0.3528 -1.1820
 8606TIP3    H225783   5.564   4.401   0.489  2.3520 -0.9778 -1.4765
 8607TIP3   OH225784   4.198   1.523   5.082  0.0289 -0.6797  0.2445
 8607TIP3    H125785   4.188   1.617   5.070  0.3920 -0.6796 -0.0716
 8607TIP3    H225786   4.133   1.500   5.149  0.8721  0.0141  1.3210
 8608TIP3   OH225787   6.526   5.487   0.778 -0.4434 -0.2815  0.1968
 8608TIP3    H125788   6.552   5.579   0.764 -0.4317 -0.1771  0.8872
 8608TIP3    H225789   6.496   5.484   0.869  0.1071 -1.0933  0.3601
 8609TIP3   OH225790   0.645   0.109   2.037 -0.1266  0.5840 -0.2043
 8609TIP3    H125791   0.645   0.171   1.964  1.8061 -0.7149 -1.4048
 8609TIP3    H225792   0.727   0.126   2.083 -0.6231  0.3677  0.7988
 8610TIP3   OH225793   6.139   0.215   2.320 -0.0691 -0.2999 -0.0222
 8610TIP3    H125794   6.110   0.139   2.370  3.4699 -1.3210  0.7741
 8610TIP3    H225795   6.151   0.284   2.385 -1.4939  0.3864 -0.4662
 8611TIP3   OH225796   5.329   3.547   2.817 -0.0822  0.3215 -0.1328
 8611TIP3    H125797   5.394   3.490   2.858 -1.0856  1.3126  3.2075
 8611TIP3    H225798   5.375   3.586   2.743  1.8767 -1.8059 -0.1568
 8612TIP3   OH225799   6.486   3.013   1.405 -0.0215 -0.4295 -0.0323
 8612TIP3    H125800   6.455   2.961   1.331 -1.0999 -0.8315  0.6810
 8612TIP3    H225801   6.411   3.067   1.430  0.7411  0.6772 -0.0595
 8613TIP3   OH225802   1.644   4.692   1.282  0.2087 -0.2932 -0.1190
 8613TIP3    H125803   1.566   4.747   1.285  1.6570  1.8507  1.3249
 8613TIP3    H225804   1.620   4.619   1.225 -2.5160  0.7405 -0.4470
 8614TIP3   OH225805   6.123   4.454   1.789  0.3181 -0.1551  0.4731
 8614TIP3    H125806   6.167   4.373   1.817 -0.8844 -0.9563  0.1021
 8614TIP3    H225807   6.030   4.432   1.790 -0.0661  1.3715  0.8021
 8615TIP3   OH225808   4.044   2.222   3.134 -0.3365 -0.4082 -0.3836
 8615TIP3    H125809   3.951   2.198   3.144 -0.6857  1.4967  1.6643
 8615TIP3    H225810   4.091   2.160   3.189 -0.4113 -1.0660 -1.0394
 8616TIP3   OH225811   6.408   4.540   1.746  0.5580  0.2163 -0.3818
 8616TIP3    H125812   6.325   4.558   1.701  0.3634  1.7792  0.5256
 8616TIP3    H225813   6.394   4.456   1.790  0.5242 -1.0012 -2.6143
 8617TIP3   OH225814   1.800   2.552   3.043  0.0282  0.2375 -0.0711
 8617TIP3    H125815   1.812   2.487   3.112 -2.0833  0.1170  0.2514
 8617TIP3    H225816   1.833   2.633   3.081  0.0218 -0.0727  0.6230
 8618TIP3   OH225817   5.312   3.775   5.577  0.0434  0.1904  0.3428
 8618TIP3    H125818   5.406   3.783   5.560  0.7675 -3.1585  1.8034
 8618TIP3    H225819   5.293   3.843   5.641  1.8263  0.1464  0.9814
 8619TIP3   OH225820   5.242   2.629   0.038 -0.0682  0.2107  0.6953
 8619TIP3    H125821   5.292   2.581   0.105  0.1141 -0.4798  0.0797
 8619TIP3    H225822   5.308   2.676  -0.012  0.1456 -1.5326 -0.7921
 8620TIP3   OH225823   6.483   3.923  -0.011 -0.0584 -0.2826 -0.5781
 8620TIP3    H125824   6.458   3.856   0.052  0.0057 -1.7782 -2.0762
 8620TIP3    H225825   6.427   3.998   0.010 -2.6814 -1.9883 -1.0084
 8621TIP3   OH225826   4.086   3.172   2.046 -0.2894  0.2385 -0.9041
 8621TIP3    H125827   4.067   3.195   2.137  1.2151 -1.1433 -0.1846
 8621TIP3    H225828   4.017   3.110   2.022 -1.6084  1.7832 -1.2804
 8622TIP3   OH225829   6.282   1.037   3.840 -0.1399  0.1056  0.4230
 8622TIP3    H125830   6.321   1.076   3.761  2.8608 -2.9086  0.2176
 8622TIP3    H225831   6.243   0.955   3.810 -1.2482  0.1072  1.7414
 8623TIP3   OH225832   2.397   5.981   4.393  0.3313  0.0721  0.2817
 8623TIP3    H125833   2.479   6.015   4.359 -0.5556  2.1199  0.0619
 8623TIP3    H225834   2.420   5.897   4.432  2.3736  0.2463 -0.4418
 8624TIP3   OH225835   5.058   4.395   3.286 -0.4778  0.5565 -0.3034
 8624TIP3    H125836   5.069   4.369   3.194 -0.1543  2.2451 -0.7821
 8624TIP3    H225837   5.089   4.319   3.336 -1.9421 -0.9357 -1.5459
 8625TIP3   OH225838   7.051   1.895   2.025 -1.1522 -0.1398 -0.2381
 8625TIP3    H125839   7.074   1.883   1.933 -0.3969 -1.3317  0.0852
 8625TIP3    H225840   7.026   1.987   2.032  2.4980  1.0765 -0.8952
 8626TIP3   OH225841   0.057   6.405   2.924  0.6113  0.1758  0.1181
 8626TIP3    H125842   0.069   6.328   2.980  0.1371  0.7605  1.0511
 8626TIP3    H225843   0.096   6.477   2.973 -0.9101  0.9325  0.2823
 8627TIP3   OH225844   5.083   3.206   4.666  0.4502  0.0510 -0.1014
 8627TIP3    H125845   5.033   3.205   4.584 -0.1794  0.5861  0.2679
 8627TIP3    H225846   5.023   3.245   4.730  0.7459 -0.8353  0.7357
 8628TIP3   OH225847   0.530   4.700   3.469  0.1435 -0.1173 -0.1269
 8628TIP3    H125848   0.557   4.666   3.554  2.2687  0.1128 -0.6562
 8628TIP3    H225849   0.473   4.775   3.491  1.4947  0.5956  1.1352
 8629TIP3   OH225850   4.122   3.811   1.443 -0.3514 -0.0692 -0.0142
 8629TIP3    H125851   4.095   3.818   1.351 -2.2804 -2.2644  0.3155
 8629TIP3    H225852   4.106   3.720   1.466 -0.4768  0.5615  2.7057
 8630TIP3   OH225853   5.952   2.816   0.754 -0.0129  0.5426  0.1186
 8630TIP3    H125854   6.017   2.847   0.691 -1.2815  2.9627 -0.1138
 8630TIP3    H225855   5.876   2.793   0.700  0.3502 -1.6508  0.4438
 8631TIP3   OH225856   5.165   3.102   0.823 -0.1295 -0.2960  0.1612
 8631TIP3    H125857   5.120   3.181   0.793  2.1461  0.8921 -0.3757
 8631TIP3    H225858   5.211   3.069   0.745  3.6132  1.2442  1.4612
 8632TIP3   OH225859   4.819   0.093   1.234 -0.4381  0.3526 -0.2032
 8632TIP3    H125860   4.909   0.121   1.251 -0.3076 -0.1992  0.0584
 8632TIP3    H225861   4.818   0.000   1.260 -0.8365  0.0965 -1.1054
 8633TIP3   OH225862   4.396   3.053   3.706  0.2655  0.0673 -0.3529
 8633TIP3    H125863   4.302   3.062   3.721  0.4897  1.4532  0.4401
 8633TIP3    H225864   4.406   2.970   3.661 -1.3541 -0.0410 -0.5524
 8634TIP3   OH225865   0.328   5.893   0.940  0.3652 -0.4125 -0.9451
 8634TIP3    H125866   0.341   5.873   0.847 -0.1455 -0.5372 -0.9921
 8634TIP3    H225867   0.256   5.835   0.967 -0.0592  0.2247 -0.6847
 8635TIP3   OH225868   7.010   0.477   0.214  0.3704 -0.0369 -0.0565
 8635TIP3    H125869   6.925   0.488   0.257  1.3780 -1.0888  2.4139
 8635TIP3    H225870   7.066   0.543   0.255  1.4866 -1.3566  0.6346
 8636TIP3   OH225871   3.473   5.034   0.100 -0.0244  0.3308 -0.5220
 8636TIP3    H125872   3.435   5.117   0.070 -0.4178 -0.0274 -1.0264
 8636TIP3    H225873   3.433   5.019   0.186 -1.6300 -0.4178 -1.3633
 8637TIP3   OH225874   1.049   2.111   0.811  0.4153  0.6481 -0.5241
 8637TIP3    H125875   1.024   2.107   0.903  1.4694 -2.4921 -0.2392
 8637TIP3    H225876   0.966   2.097   0.763  0.2432 -0.5871  0.0869
 8638TIP3   OH225877   7.141   0.811   1.583 -0.0961  0.0962  0.5489
 8638TIP3    H125878   7.187   0.892   1.563  1.6742 -1.3165 -1.5136
 8638TIP3    H225879   7.210   0.748   1.606 -1.4913 -0.5881  3.4427
 8639TIP3   OH225880   2.561   5.594   4.282 -0.3778 -0.0352  0.6450
 8639TIP3    H125881   2.628   5.565   4.220 -0.5039 -1.5471  1.1775
 8639TIP3    H225882   2.484   5.611   4.227 -0.5883 -1.6831  0.3950
 8640TIP3   OH225883   1.355   6.632   0.175 -0.0595  0.4398 -0.1374
 8640TIP3    H125884   1.375   6.541   0.198  0.4283  0.3291 -0.9930
 8640TIP3    H225885   1.306   6.665   0.251 -0.7088 -0.6933 -0.0420
 8641TIP3   OH225886   1.483   3.235   2.284 -0.1604  0.4397 -0.3163
 8641TIP3    H125887   1.573   3.202   2.293  0.2144  0.7558 -2.3591
 8641TIP3    H225888   1.446   3.228   2.372  2.1578  1.1692  0.8031
 8642TIP3   OH225889   0.453   0.270   2.514  0.5440  0.0071 -0.0509
 8642TIP3    H125890   0.444   0.260   2.609 -0.4361  0.9215 -0.0250
 8642TIP3    H225891   0.543   0.299   2.502  0.6437  0.0023  0.6119
 8643TIP3   OH225892   0.808   6.016   2.040 -0.0253 -0.3098  0.4765
 8643TIP3    H125893   0.721   5.999   2.006 -0.0171  0.5667 -0.0099
 8643TIP3    H225894   0.795   6.080   2.111  0.2178 -0.1460  0.3772
 8644TIP3   OH225895   1.687   5.058   3.864  0.2327 -0.3691  0.1749
 8644TIP3    H125896   1.636   4.978   3.851  1.5306 -1.0922 -0.6315
 8644TIP3    H225897   1.621   5.125   3.883 -1.0721 -1.1727 -1.2948
 8645TIP3   OH225898   2.156   6.475   4.785  0.6999  0.1691 -0.3995
 8645TIP3    H125899   2.116   6.541   4.842  1.5649  0.7700 -0.4696
 8645TIP3    H225900   2.089   6.458   4.719  0.2998  0.6589 -0.1363
 8646TIP3   OH225901   4.394   1.984   3.102 -0.7074  0.0027 -0.2407
 8646TIP3    H125902   4.348   2.008   3.183  2.6923 -0.2316  2.0104
 8646TIP3    H225903   4.447   2.061   3.082 -1.2797 -0.0701 -2.1445
 8647TIP3   OH225904   1.527   4.347   2.400  0.0186  0.4907  0.1048
 8647TIP3    H125905   1.616   4.385   2.405 -0.5077  1.6872  1.1417
 8647TIP3    H225906   1.489   4.386   2.321  0.6484 -0.6037 -0.7598
 8648TIP3   OH225907   0.449   3.998   5.166 -0.3231  0.3711  0.1533
 8648TIP3    H125908   0.364   3.965   5.136  0.1632  0.9612 -2.1113
 8648TIP3    H225909   0.431   4.087   5.196 -0.6489  0.1898  0.4981
 8649TIP3   OH225910   2.278   3.238   0.254 -0.4812 -1.3798 -0.7472
 8649TIP3    H125911   2.253   3.184   0.329 -2.3705  0.9755  0.4489
 8649TIP3    H225912   2.320   3.315   0.293 -2.3717  0.3678 -1.9397
 8650TIP3   OH225913   3.568   3.394   2.329 -0.2168  0.3256 -0.7460
 8650TIP3    H125914   3.608   3.352   2.252 -1.5201  0.0204 -1.2843
 8650TIP3    H225915   3.503   3.331   2.359 -0.8971  1.1784 -0.4249
 8651TIP3   OH225916   4.445   3.712   4.840  0.2496 -0.1843 -0.0512
 8651TIP3    H125917   4.360   3.735   4.876 -0.3150 -0.7185 -0.9895
 8651TIP3    H225918   4.506   3.726   4.912 -0.5841  0.4836  0.5517
 8652TIP3   OH225919   4.145   0.909   3.305  0.3793  0.8966  0.3365
 8652TIP3    H125920   4.100   0.874   3.382  0.1073  1.9137  0.6588
 8652TIP3    H225921   4.229   0.864   3.303  1.0071  1.8815  2.0851
 8653TIP3   OH225922   2.174   2.591   4.070  0.2411 -0.4638 -0.6009
 8653TIP3    H125923   2.080   2.580   4.083 -0.1619  0.5196 -2.3554
 8653TIP3    H225924   2.189   2.685   4.085  1.0715 -0.7358  0.3241
 8654TIP3   OH225925   0.213   3.661   3.116  0.1005  0.3959 -0.0256
 8654TIP3    H125926   0.291   3.674   3.062  0.0721 -3.1832 -1.2165
 8654TIP3    H225927   0.245   3.612   3.192 -0.8113 -0.1401  0.0260
 8655TIP3   OH225928   5.472   2.651   5.536  0.5326 -0.9380 -0.0196
 8655TIP3    H125929   5.410   2.621   5.469 -0.8476 -1.5125  1.4605
 8655TIP3    H225930   5.498   2.572   5.582  1.3359 -0.5293  0.2508
 8656TIP3   OH225931   1.913   1.636   0.805 -0.3951 -0.8547  0.0103
 8656TIP3    H125932   2.000   1.655   0.771  0.3734 -2.3145  1.0700
 8656TIP3    H225933   1.928   1.601   0.893 -2.1368  0.0921  0.7405
 8657TIP3   OH225934   6.735   3.409   1.456  0.2810 -0.3380  0.0678
 8657TIP3    H125935   6.822   3.418   1.416  0.0735  1.3878 -0.0595
 8657TIP3    H225936   6.732   3.476   1.524 -1.0087 -0.2620 -0.0341
 8658TIP3   OH225937   5.063   3.687   0.717  0.4532 -0.0715  0.6103
 8658TIP3    H125938   5.092   3.659   0.804 -2.3842  0.9149  2.0139
 8658TIP3    H225939   5.131   3.657   0.658  2.1340 -1.4743  3.0804
 8659TIP3   OH225940   6.160   6.248   1.799  0.2032 -0.1260  0.1806
 8659TIP3    H125941   6.113   6.308   1.741  1.2068 -1.4371 -2.0984
 8659TIP3    H225942   6.247   6.286   1.809 -0.2793  0.6448  1.7793
 8660TIP3   OH225943   3.509   4.664   1.396  0.1485  0.3753  0.3186
 8660TIP3    H125944   3.575   4.645   1.463 -0.1100 -1.0415  0.1945
 8660TIP3    H225945   3.503   4.584   1.344  1.3989  1.8823 -2.3837
 8661TIP3   OH225946   1.253   5.661   4.962  0.0926  0.4647 -0.0572
 8661TIP3    H125947   1.206   5.594   5.013  0.4275  0.6419  0.4944
 8661TIP3    H225948   1.192   5.684   4.892  0.4339 -1.2706 -0.9751
 8662TIP3   OH225949   4.551   2.986   4.643 -0.4426  0.3364  0.5969
 8662TIP3    H125950   4.619   3.051   4.626  0.0989 -0.5902 -0.9866
 8662TIP3    H225951   4.589   2.926   4.707  0.4943 -0.4820 -0.6755
 8663TIP3   OH225952   5.007   2.327   4.708 -0.2351  0.2112  0.0302
 8663TIP3    H125953   4.919   2.298   4.683  0.0050 -0.1117 -0.4689
 8663TIP3    H225954   5.024   2.282   4.791 -0.0026 -0.8395 -0.5638
 8664TIP3   OH225955   3.550   0.124   1.081 -0.5905 -0.0713 -0.6836
 8664TIP3    H125956   3.508   0.135   1.166 -1.6345 -0.7201 -1.1102
 8664TIP3    H225957   3.505   0.186   1.024 -0.5176 -0.2977 -0.9877
 8665TIP3   OH225958   5.213   6.431   3.898  0.6047 -0.5148  0.4003
 8665TIP3    H125959   5.291   6.417   3.844  0.9788  0.0175  0.7988
 8665TIP3    H225960   5.158   6.355   3.879  0.9284 -0.5655 -0.3848
 8666TIP3   OH225961   6.910   0.487   2.505  0.5658 -0.5864 -0.3951
 8666TIP3    H125962   6.933   0.533   2.424 -0.2604  0.2856 -0.1476
 8666TIP3    H225963   6.858   0.412   2.476  0.1002 -0.1616 -0.6661
 8667TIP3   OH225964   5.726   5.100   2.980  0.4769 -0.4586 -0.2378
 8667TIP3    H125965   5.727   5.028   3.042 -1.1195 -1.3162 -1.1463
 8667TIP3    H225966   5.698   5.176   3.032  1.4992 -0.6062  0.5708
 8668TIP3   OH225967   4.510   6.001   0.387 -0.4731 -0.3013  0.2617
 8668TIP3    H125968   4.539   6.079   0.339  1.9830 -0.3986  1.4005
 8668TIP3    H225969   4.582   5.982   0.447 -1.3476 -2.9774  0.6153
 8669TIP3   OH225970   5.808   4.661   3.451 -0.3055  0.1495  0.1945
 8669TIP3    H125971   5.838   4.747   3.424 -1.7313  0.4129 -0.6525
 8669TIP3    H225972   5.714   4.671   3.463 -0.0952 -0.4967  3.2568
 8670TIP3   OH225973   1.651   0.173   5.740  0.5347  0.3665 -0.3496
 8670TIP3    H125974   1.700   0.221   5.674  1.1919  0.7611  0.4174
 8670TIP3    H225975   1.634   0.237   5.809 -0.8632  0.1841 -0.4834
 8671TIP3   OH225976   4.638   5.987   3.571 -0.0906  0.0250 -0.3475
 8671TIP3    H125977   4.665   5.929   3.642 -2.1352 -1.0089 -0.3593
 8671TIP3    H225978   4.692   5.961   3.497  0.5875 -0.2970  0.2432
 8672TIP3   OH225979   5.600   1.106   2.260 -0.4642  0.0427 -0.1187
 8672TIP3    H125980   5.651   1.079   2.183 -0.4469 -2.0316  0.5392
 8672TIP3    H225981   5.543   1.031   2.278 -0.2351  0.3296  2.0710
 8673TIP3   OH225982   2.771   6.447   3.139  0.8847  0.1326  0.0519
 8673TIP3    H125983   2.789   6.413   3.227 -0.4727  1.2719  0.8156
 8673TIP3    H225984   2.858   6.458   3.100  1.5099 -0.6066  1.1720
 8674TIP3   OH225985   4.327   4.183   4.728 -0.3907  0.1303  0.4372
 8674TIP3    H125986   4.263   4.202   4.660 -1.3781 -0.2627  1.2406
 8674TIP3    H225987   4.402   4.239   4.707 -0.3696 -0.5233 -1.3836
 8675TIP3   OH225988   2.713   1.393   0.488  0.3637  0.3295  0.0141
 8675TIP3    H125989   2.756   1.329   0.431  1.1924 -0.3336  1.3395
 8675TIP3    H225990   2.700   1.470   0.432  1.8881  0.0026 -0.8389
 8676TIP3   OH225991   3.654   4.788   0.073  0.2594  0.1752  0.0320
 8676TIP3    H125992   3.598   4.865   0.085  0.9276  0.5990  0.5142
 8676TIP3    H225993   3.606   4.733   0.012 -1.1938  0.0363  1.2385
 8677TIP3   OH225994   6.039   0.342   4.436 -0.4142  0.5449 -0.1581
 8677TIP3    H125995   6.060   0.309   4.348 -1.0144 -0.3481  0.0254
 8677TIP3    H225996   5.973   0.410   4.421  1.9012  2.8795 -0.6798
 8678TIP3   OH225997   6.979   1.479   3.074  0.4531  0.6422 -0.0188
 8678TIP3    H125998   6.967   1.508   2.983  1.4195  1.3028  0.0422
 8678TIP3    H225999   7.073   1.459   3.080  0.4548  0.8809  0.9068
 8679TIP3   OH226000   0.360   5.756   4.804  0.0697 -0.1444  0.5469
 8679TIP3    H126001   0.430   5.755   4.869  0.0050  0.4097  0.6275
 8679TIP3    H226002   0.383   5.826   4.743 -0.9426  0.7863  1.1832
 8680TIP3   OH226003   1.314   5.601   2.531  0.4695 -0.5510  0.4278
 8680TIP3    H126004   1.371   5.676   2.549 -1.5208  1.2561 -0.2138
 8680TIP3    H226005   1.372   5.532   2.501  2.3589  0.9341  0.4835
 8681TIP3   OH226006   2.601   5.357   2.018  0.2764 -0.1580  0.2799
 8681TIP3    H126007   2.613   5.340   1.925  0.7770  0.6903  0.1764
 8681TIP3    H226008   2.684   5.396   2.047 -0.2121  0.5056  0.8513
 8682TIP3   OH226009   4.286   6.275   5.690 -0.3034 -0.5063 -0.5790
 8682TIP3    H126010   4.200   6.316   5.696 -0.6167 -0.7905 -2.4879
 8682TIP3    H226011   4.345   6.346   5.665  0.2450 -0.1057  1.6806
 8683TIP3   OH226012   2.061   4.214   0.092 -0.1641  0.1924  0.2744
 8683TIP3    H126013   2.055   4.118   0.097  0.8511 -0.1110 -2.5810
 8683TIP3    H226014   1.993   4.239   0.029 -0.0199  1.3041  0.5400
 8684TIP3   OH226015   5.921   6.130   0.611  0.1979  0.1227  0.0280
 8684TIP3    H126016   5.944   6.112   0.520 -0.0610  0.9834 -0.2226
 8684TIP3    H226017   5.835   6.089   0.623 -0.0708  0.5709 -0.3224
 8685TIP3   OH226018   3.697   6.097   0.078 -0.4556  0.5068  0.5158
 8685TIP3    H126019   3.700   6.166   0.145  0.1037 -0.6014  1.6792
 8685TIP3    H226020   3.788   6.089   0.049 -0.8286  1.6013 -1.0833
 8686TIP3   OH226021   0.245   6.164   5.735  0.8985 -0.5634 -0.3703
 8686TIP3    H126022   0.229   6.204   5.821 -0.1796 -1.2821 -0.2186
 8686TIP3    H226023   0.340   6.148   5.733  0.7332 -2.1879  1.4527
 8687TIP3   OH226024   6.386   0.938   0.338 -0.2927 -0.6229 -0.0803
 8687TIP3    H126025   6.376   0.911   0.430 -0.9452  1.4041  0.4833
 8687TIP3    H226026   6.481   0.948   0.327 -0.2029 -0.9660  0.3438
 8688TIP3   OH226027   5.433   3.426   4.944  0.7329  0.0814  0.1528
 8688TIP3    H126028   5.452   3.434   5.038 -1.5933 -1.7219  0.8614
 8688TIP3    H226029   5.424   3.516   4.914  1.9279  0.7126  1.5415
 8689TIP3   OH226030   6.050   6.597   4.440  0.5888  0.0506  0.1561
 8689TIP3    H126031   5.970   6.608   4.491  0.7059 -0.0344  0.3563
 8689TIP3    H226032   6.059   6.502   4.431  0.4740  0.0680 -0.1709
 8690TIP3   OH226033   0.607   1.799   3.891  0.3258  0.5918 -0.4912
 8690TIP3    H126034   0.690   1.752   3.883  0.1512  0.2547 -0.3342
 8690TIP3    H226035   0.543   1.731   3.914  0.5763  1.3073  2.7890
 8691TIP3   OH226036   4.220   1.354   3.564  0.3800  0.1833 -0.4110
 8691TIP3    H126037   4.141   1.404   3.545  0.6257  0.3244 -1.0863
 8691TIP3    H226038   4.289   1.419   3.570  0.3423  0.1370  0.9090
 8692TIP3   OH226039   5.644   4.187   2.975  0.5689  0.8621 -0.4278
 8692TIP3    H126040   5.634   4.224   3.063 -3.0790 -0.1674 -0.2565
 8692TIP3    H226041   5.583   4.113   2.973  1.8561 -0.2738 -3.3027
 8693TIP3   OH226042   4.128   4.500   4.237 -0.4354 -0.3953 -0.1434
 8693TIP3    H126043   4.120   4.505   4.332 -2.5610 -1.0606 -0.2362
 8693TIP3    H226044   4.128   4.407   4.217 -0.1656 -0.2618 -0.8183
 8694TIP3   OH226045   6.762   1.877   0.303 -0.1092 -0.0172  0.3434
 8694TIP3    H126046   6.705   1.801   0.298  0.1671 -0.2684  0.8851
 8694TIP3    H226047   6.838   1.854   0.249 -0.1521 -0.0128  0.2816
 8695TIP3   OH226048   1.551   5.142   4.541  0.1029  0.4498  0.4247
 8695TIP3    H126049   1.590   5.226   4.517 -0.0841  0.3227 -0.3675
 8695TIP3    H226050   1.508   5.158   4.625 -0.0184  1.1678  0.2330
 8696TIP3   OH226051   1.018   0.851   4.643 -0.0563  0.5789 -0.4747
 8696TIP3    H126052   0.988   0.781   4.585  0.4004 -1.0575  1.1823
 8696TIP3    H226053   0.985   0.827   4.729 -0.6800  2.9278  0.0236
 8697TIP3   OH226054   1.278   5.603   0.395 -0.3764 -0.3290  0.0549
 8697TIP3    H126055   1.337   5.625   0.467 -2.5837 -1.2275  2.3080
 8697TIP3    H226056   1.290   5.510   0.381  0.8873  0.0513 -1.6350
 8698TIP3   OH226057   5.918   1.552   3.026 -0.2158 -0.2017 -0.1550
 8698TIP3    H126058   5.906   1.457   3.033 -0.2200 -0.0975  1.9082
 8698TIP3    H226059   5.981   1.563   2.955  1.4574 -1.9074  0.9570
 8699TIP3   OH226060   4.628   1.352   1.372  0.0873  0.2340  0.6988
 8699TIP3    H126061   4.601   1.295   1.301 -0.9845  0.0081  1.2720
 8699TIP3    H226062   4.612   1.441   1.339  0.0351  0.1491  0.4959
 8700TIP3   OH226063   6.469   5.817   3.787  0.1227  0.2595 -0.7889
 8700TIP3    H126064   6.539   5.767   3.829 -0.6644 -2.3192 -2.2977
 8700TIP3    H226065   6.511   5.862   3.714  0.4770  0.0564 -0.7121
 8701TIP3   OH226066   5.788   5.632   0.040 -0.2820  0.1029 -0.1233
 8701TIP3    H126067   5.799   5.543   0.073 -1.1060 -0.2819 -0.8351
 8701TIP3    H226068   5.705   5.662   0.077  1.0679  1.4967  2.0278
 8702TIP3   OH226069   5.042   2.428   2.654 -0.3099  0.4120 -0.2570
 8702TIP3    H126070   5.004   2.472   2.578  2.9422  3.6762 -0.2596
 8702TIP3    H226071   5.067   2.500   2.713  0.1548 -1.8499  2.5123
 8703TIP3   OH226072   6.210   4.389   2.219 -0.2867  0.4499 -0.1937
 8703TIP3    H126073   6.144   4.450   2.186 -0.4486  0.8789  0.8895
 8703TIP3    H226074   6.164   4.338   2.286  0.6159  1.2012  1.0508
 8704TIP3   OH226075   6.719   5.844   4.150  0.2453  0.4687  0.7202
 8704TIP3    H126076   6.721   5.940   4.151 -1.4174  0.5539  2.7120
 8704TIP3    H226077   6.646   5.821   4.207  1.0581 -2.0219  0.8836
 8705TIP3   OH226078   2.619   6.325   0.264  0.0971  0.0065  0.2951
 8705TIP3    H126079   2.576   6.362   0.342  0.8362  0.9250  0.2807
 8705TIP3    H226080   2.583   6.237   0.257  0.0651 -0.1227  1.7220
 8706TIP3   OH226081   2.738   1.826   4.347 -0.2525  0.4233  0.2077
 8706TIP3    H126082   2.658   1.782   4.374  0.6711 -1.3460  0.2619
 8706TIP3    H226083   2.757   1.888   4.417 -2.1246  1.6850 -0.3329
 8707TIP3   OH226084   7.195   2.082   4.920 -0.7861 -0.2134  0.6039
 8707TIP3    H126085   7.131   2.136   4.965  0.0983 -0.0595  1.7345
 8707TIP3    H226086   7.178   2.096   4.827 -0.2004  2.5397  0.8181
 8708TIP3   OH226087   2.465   2.825   4.975  0.2397  0.6455 -0.5604
 8708TIP3    H126088   2.544   2.875   4.995 -0.8108  2.1224  0.0198
 8708TIP3    H226089   2.406   2.841   5.049 -0.8673  0.1306 -1.2976
 8709TIP3   OH226090   6.847   2.281   1.858  0.3835 -0.4548  0.3415
 8709TIP3    H126091   6.910   2.226   1.905  0.5144 -0.8394 -0.2708
 8709TIP3    H226092   6.762   2.243   1.879  0.3370  0.0845  1.1951
 8710TIP3   OH226093   0.560   0.009   4.730 -0.4701  0.4912 -0.8944
 8710TIP3    H126094   0.515   0.091   4.748  1.8603  1.9993 -1.5162
 8710TIP3    H226095   0.643   0.035   4.690  1.2440 -2.0658  0.6707
 8711TIP3   OH226096   1.196   0.077   4.477 -0.0457  0.7562 -0.0976
 8711TIP3    H126097   1.204  -0.018   4.468  0.3009  0.8676 -1.0833
 8711TIP3    H226098   1.144   0.089   4.557 -1.0450 -0.2885 -0.5600
 8712TIP3   OH226099   0.622   2.676   4.544  0.5971  0.4162  0.1429
 8712TIP3    H126100   0.543   2.714   4.583  0.4458  0.5777 -0.3163
 8712TIP3    H226101   0.694   2.727   4.581  0.6049 -0.6488  1.6695
 8713TIP3   OH226102   2.828   6.760   4.923  0.7907 -0.0169 -0.4162
 8713TIP3    H126103   2.865   6.761   4.835  1.5470  1.1278 -0.1113
 8713TIP3    H226104   2.874   6.830   4.969 -1.8953  1.6603 -0.0620
 8714TIP3   OH226105   2.591   2.576   0.269  0.1238 -0.2584  0.5918
 8714TIP3    H126106   2.677   2.551   0.233  0.2412 -2.7264  2.3828
 8714TIP3    H226107   2.608   2.594   0.361 -1.0083  1.1540  0.5645
 8715TIP3   OH226108   6.784   1.209   5.868  0.5461 -0.1927  0.0862
 8715TIP3    H126109   6.727   1.143   5.828  2.0501 -0.7124 -1.3266
 8715TIP3    H226110   6.779   1.191   5.962 -1.5688 -0.2139  0.0123
 8716TIP3   OH226111   0.532   1.550   3.682 -0.0535  0.6842  0.0102
 8716TIP3    H126112   0.461   1.485   3.676 -0.2901  1.0932 -2.9539
 8716TIP3    H226113   0.588   1.517   3.753 -2.4728 -0.3370  1.5997
 8717TIP3   OH226114   2.279   3.702   5.007 -0.2882 -0.7750 -0.3666
 8717TIP3    H126115   2.301   3.742   5.092  0.2473  2.0587 -1.6988
 8717TIP3    H226116   2.206   3.756   4.974  0.1999 -1.1385 -2.1298
 8718TIP3   OH226117   2.220   6.158   4.844  0.5984  0.1473  0.2517
 8718TIP3    H126118   2.134   6.118   4.826  1.2363 -1.1733  0.0425
 8718TIP3    H226119   2.204   6.252   4.838 -0.4874 -0.0997 -1.4727
 8719TIP3   OH226120   2.887   0.046   3.877  0.1966  0.1014 -0.1149
 8719TIP3    H126121   2.856   0.110   3.941  0.1704 -0.8579  0.8693
 8719TIP3    H226122   2.829  -0.029   3.889  1.1255 -0.6503 -0.2217
 8720TIP3   OH226123   6.045   4.325   2.422  0.2763  0.1114 -0.4907
 8720TIP3    H126124   5.994   4.244   2.417 -0.1591  0.3472  0.0058
 8720TIP3    H226125   5.985   4.389   2.461  0.8706  0.4656 -0.1407
 8721TIP3   OH226126   4.382   2.279   5.117  0.0435 -1.2893  0.0315
 8721TIP3    H126127   4.361   2.255   5.027 -3.0296 -0.1507  0.3326
 8721TIP3    H226128   4.310   2.245   5.169  0.6606 -0.0843  1.7762
 8722TIP3   OH226129   3.974   3.436   3.033 -0.2420  0.1713  0.5775
 8722TIP3    H126130   3.918   3.496   3.082 -0.5313  0.4403 -0.0751
 8722TIP3    H226131   3.914   3.377   2.989 -0.0019  0.2343  0.1616
 8723TIP3   OH226132   3.010   0.402   0.581 -0.5279  0.1829  0.2870
 8723TIP3    H126133   3.040   0.443   0.499 -1.7411 -0.2981 -0.4340
 8723TIP3    H226134   2.957   0.327   0.552 -0.6435 -0.2343  1.5280
 8724TIP3   OH226135   2.440   2.060   4.680  0.8332  0.0567  0.3893
 8724TIP3    H126136   2.354   2.050   4.638  0.0034 -0.7613  2.2140
 8724TIP3    H226137   2.487   1.981   4.656  0.9532  0.3299 -0.3011
 8725TIP3   OH226138   1.629   1.977   5.395  0.4912  0.1821  0.0896
 8725TIP3    H126139   1.695   2.012   5.455 -0.3219  1.6612  0.1569
 8725TIP3    H226140   1.564   2.046   5.388  0.1956 -0.2621 -1.9432
 8726TIP3   OH226141   0.843   4.076   3.659  0.6448 -0.1653 -0.1620
 8726TIP3    H126142   0.871   4.051   3.747 -0.0083 -0.2837  0.0218
 8726TIP3    H226143   0.919   4.118   3.620  1.2881 -1.0783  0.0698
 8727TIP3   OH226144   3.983   2.451   5.608 -0.3571  0.0441  0.3013
 8727TIP3    H126145   3.922   2.397   5.558 -1.3462  0.8106  0.6386
 8727TIP3    H226146   3.962   2.432   5.700 -0.0692  0.2979  0.4214
 8728TIP3   OH226147   3.107   2.423   0.557 -0.0740  0.3035 -0.5563
 8728TIP3    H126148   3.021   2.383   0.550  0.5302 -1.1043 -0.2161
 8728TIP3    H226149   3.104   2.476   0.636  0.6018 -3.0279  1.8864
 8729TIP3   OH226150   0.121   1.376   2.072  0.6240  0.6973  0.3218
 8729TIP3    H126151   0.055   1.309   2.055 -0.3340  0.7646  3.1979
 8729TIP3    H226152   0.205   1.334   2.053 -0.1117 -0.0894 -1.3443
 8730TIP3   OH226153   4.566   0.072   2.514  0.6691 -0.0255 -0.4051
 8730TIP3    H126154   4.476   0.104   2.510 -0.1687 -2.2829 -0.6372
 8730TIP3    H226155   4.598   0.079   2.424  0.8438  0.9850 -0.2838
 8731TIP3   OH226156   2.475   4.951   2.721  0.1050  0.3903  0.3711
 8731TIP3    H126157   2.417   5.027   2.714  1.3353  1.2502 -1.4458
 8731TIP3    H226158   2.441   4.890   2.656  0.3702  0.2888  0.3275
 8732TIP3   OH226159   3.369   6.309   3.551 -0.5159 -0.1763 -0.5837
 8732TIP3    H126160   3.455   6.301   3.510 -0.3084 -1.3076  0.0583
 8732TIP3    H226161   3.370   6.396   3.592  0.4881 -0.3598 -0.2037
 8733TIP3   OH226162   3.721   1.109   1.014 -0.1111 -0.4103 -0.3753
 8733TIP3    H126163   3.717   1.205   1.017 -2.4282 -0.4694 -0.0099
 8733TIP3    H226164   3.775   1.085   1.089  0.1234  0.5806 -0.2046
 8734TIP3   OH226165   5.351   1.340   2.175  0.7157  0.4203  0.1317
 8734TIP3    H126166   5.421   1.331   2.238 -0.7382  0.9306  1.8975
 8734TIP3    H226167   5.283   1.389   2.220 -0.9741 -0.4227 -1.3337
 8735TIP3   OH226168   5.906   1.048   1.311  0.0497 -0.2076 -0.4895
 8735TIP3    H126169   5.945   1.040   1.398 -0.7308  1.4702  0.0689
 8735TIP3    H226170   5.832   0.988   1.312 -0.1253  0.0113  0.1195
 8736TIP3   OH226171   0.809   5.289   4.733  0.5264  0.4598 -0.0223
 8736TIP3    H126172   0.728   5.299   4.782 -0.5796 -1.4068 -1.3637
 8736TIP3    H226173   0.808   5.198   4.703  2.4481  0.7826 -1.2348
 8737TIP3   OH226174   6.727   0.495   1.443 -0.5657  0.3891 -0.3621
 8737TIP3    H126175   6.793   0.433   1.412  0.0188  1.0559 -0.4878
 8737TIP3    H226176   6.644   0.454   1.422 -0.1949 -0.5760  0.0026
 8738TIP3   OH226177   5.855   2.947   0.058 -0.0074 -0.0661  0.0853
 8738TIP3    H126178   5.932   2.977   0.008 -0.6486  0.6935 -0.4874
 8738TIP3    H226179   5.888   2.876   0.112  0.5655 -1.5319 -2.0524
 8739TIP3   OH226180   6.240   6.091   4.254  0.3096  0.3999  0.5475
 8739TIP3    H126181   6.294   6.035   4.198  0.4986  0.6556  0.4694
 8739TIP3    H226182   6.155   6.048   4.257  0.1272  0.6683 -0.4010
 8740TIP3   OH226183   3.699   0.989   0.789  0.3030 -0.1559  0.1273
 8740TIP3    H126184   3.706   1.013   0.881  0.1805  0.0017  0.0965
 8740TIP3    H226185   3.690   1.073   0.743  1.5613 -0.1515 -0.1452
 8741TIP3   OH226186   0.335   5.396   1.693  0.2948  0.3716 -0.1103
 8741TIP3    H126187   0.359   5.488   1.683 -0.9302  0.6791 -0.3371
 8741TIP3    H226188   0.258   5.396   1.749 -1.0691 -0.3065 -1.8588
 8742TIP3   OH226189   5.138   2.133   0.052  0.3195 -0.0370 -0.5618
 8742TIP3    H126190   5.117   2.224   0.036 -0.2574 -0.1195 -0.2879
 8742TIP3    H226191   5.211   2.135   0.114  0.4083  0.2364 -0.6766
 8743TIP3   OH226192   2.318   2.201   4.257 -0.7236  0.3979 -0.2320
 8743TIP3    H126193   2.270   2.237   4.331 -0.5083 -0.8493  0.5530
 8743TIP3    H226194   2.282   2.246   4.180 -1.5022  1.1468  0.5515
 8744TIP3   OH226195   2.393   0.563   2.753  0.2197  0.3603 -0.0649
 8744TIP3    H126196   2.428   0.570   2.664  0.5879  1.0306  0.1236
 8744TIP3    H226197   2.396   0.653   2.787 -0.5404  0.2242  0.3877
 8745TIP3   OH226198   0.191   3.048   0.363  0.1628 -0.0289  0.3981
 8745TIP3    H126199   0.264   3.082   0.310 -0.8193  2.5928  0.5801
 8745TIP3    H226200   0.132   3.009   0.299 -0.0713  1.3171 -0.2408
 8746TIP3   OH226201   5.120   5.808   0.955  0.0172 -0.3497  0.5599
 8746TIP3    H126202   5.176   5.871   0.999 -1.4300  0.0537  1.9182
 8746TIP3    H226203   5.133   5.824   0.862 -0.0384  1.7011  0.8756
 8747TIP3   OH226204   5.202   4.829   3.211 -0.1218  0.5942  0.1134
 8747TIP3    H126205   5.212   4.850   3.304 -0.2873  0.7372  0.0987
 8747TIP3    H226206   5.272   4.877   3.168  1.1209 -0.8947  0.3570
 8748TIP3   OH226207   2.665   1.618   5.278  0.5191 -0.0415 -0.0337
 8748TIP3    H126208   2.714   1.606   5.197  1.0982  1.2082  0.1048
 8748TIP3    H226209   2.584   1.660   5.250  1.1546  1.3319  0.1166
 8749TIP3   OH226210   3.122   0.588   1.739  0.2841  0.0973 -0.4997
 8749TIP3    H126211   3.167   0.650   1.796 -2.2564  1.5523  0.0750
 8749TIP3    H226212   3.079   0.527   1.799  1.2644 -1.1508 -1.0260
 8750TIP3   OH226213   2.315   1.262   0.091 -0.4583  0.1215  0.3432
 8750TIP3    H126214   2.307   1.333   0.028  0.3975  0.5620  0.7237
 8750TIP3    H226215   2.347   1.187   0.040  2.6773  1.1372  0.6409
 8751TIP3   OH226216   1.626   2.927   2.811  0.0102  0.1969  0.1241
 8751TIP3    H126217   1.599   2.876   2.887  2.1104  0.1848  0.9160
 8751TIP3    H226218   1.613   3.018   2.836 -1.4075  0.1632 -0.3793
 8752TIP3   OH226219   4.889   1.043   2.809  0.5578 -0.8607 -0.3848
 8752TIP3    H126220   4.868   0.961   2.764 -0.6982 -1.2007  0.7654
 8752TIP3    H226221   4.864   1.028   2.900 -0.7526  1.1583 -0.3390
 8753TIP3   OH226222   5.063   2.683   1.843  0.3634 -0.4973 -0.3228
 8753TIP3    H126223   4.968   2.693   1.840  0.2486  0.3639  2.5997
 8753TIP3    H226224   5.078   2.589   1.840 -0.4533 -0.6024 -2.0123
 8754TIP3   OH226225   0.758   2.648   1.334 -0.3610 -0.5352  0.3907
 8754TIP3    H126226   0.759   2.738   1.304  0.0362 -0.9355 -0.8710
 8754TIP3    H226227   0.674   2.613   1.304  0.6766 -1.3789 -1.7320
 8755TIP3   OH226228   2.316   3.207   1.219 -0.6486  0.7777 -0.4246
 8755TIP3    H126229   2.241   3.176   1.167  0.1086 -1.4593 -0.3146
 8755TIP3    H226230   2.391   3.195   1.162 -0.0140 -0.0967  0.5575
 8756TIP3   OH226231   1.610   2.641   2.298  0.2299  0.1480 -0.0552
 8756TIP3    H126232   1.613   2.614   2.206 -2.9220  0.3976 -0.3412
 8756TIP3    H226233   1.601   2.736   2.295  1.4617  0.3116  0.6179
 8757TIP3   OH226234   6.873   1.277   1.611 -0.1330  0.1960 -0.8174
 8757TIP3    H126235   6.897   1.280   1.704  0.6196 -1.1988 -0.9353
 8757TIP3    H226236   6.815   1.352   1.599 -1.8701 -0.7114  1.2382
 8758TIP3   OH226237   1.287   2.071   0.687  0.4363  0.0848 -0.2360
 8758TIP3    H126238   1.195   2.096   0.699  1.0718  2.0982  0.6228
 8758TIP3    H226239   1.295   1.988   0.735 -0.1629  1.5506  2.5809
 8759TIP3   OH226240   5.870   6.452   2.639 -0.5962 -0.4012  0.0430
 8759TIP3    H126241   5.923   6.374   2.620 -2.0691 -2.0527  2.2122
 8759TIP3    H226242   5.925   6.504   2.697  0.1044 -0.1446 -0.8177
 8760TIP3   OH226243   7.079   3.094   3.136 -0.4529  0.1718 -0.1233
 8760TIP3    H126244   7.147   3.096   3.203 -0.2956 -2.9113 -0.0584
 8760TIP3    H226245   7.126   3.104   3.053 -0.4823  2.4384  0.0836
 8761TIP3   OH226246   4.612   5.861   2.777 -0.5010 -0.6874 -0.2392
 8761TIP3    H126247   4.581   5.832   2.862  0.6678 -0.9450  0.1259
 8761TIP3    H226248   4.534   5.894   2.732 -0.8056  1.4874  1.7265
 8762TIP3   OH226249   3.532   2.123   3.976 -0.1372  0.0822 -0.0222
 8762TIP3    H126250   3.612   2.108   3.925  0.2171  0.6726  0.3547
 8762TIP3    H226251   3.547   2.206   4.020 -0.1779 -0.7292  1.5689
 8763TIP3   OH226252   6.569   6.126   3.717 -0.0309 -0.4313  0.3919
 8763TIP3    H126253   6.499   6.161   3.661  0.8419  0.4376 -0.2014
 8763TIP3    H226254   6.564   6.177   3.797  0.5723  0.3660 -0.0634
 8764TIP3   OH226255   1.127   3.220   1.853  0.4452 -0.4706 -0.2479
 8764TIP3    H126256   1.217   3.248   1.873  0.7656 -1.0762 -0.7957
 8764TIP3    H226257   1.089   3.200   1.939  0.8230 -0.1740 -0.0047
 8765TIP3   OH226258   5.145   3.102   4.189  0.1521  0.2911 -0.2431
 8765TIP3    H126259   5.096   3.023   4.213  0.3852 -0.4711 -2.1075
 8765TIP3    H226260   5.078   3.168   4.175  0.0217  1.1208  3.2636
 8766TIP3   OH226261   6.477   0.056   5.076  0.3061 -0.5659  0.1367
 8766TIP3    H126262   6.569   0.032   5.085  0.1937 -0.7014  1.0255
 8766TIP3    H226263   6.447   0.010   4.998  0.5943 -1.7811  0.7333
 8767TIP3   OH226264   4.970   1.636   2.725  0.2051  0.2069 -0.7099
 8767TIP3    H126265   4.949   1.608   2.636 -1.3141  0.0463 -0.3254
 8767TIP3    H226266   5.027   1.568   2.760  0.7188  0.2173 -1.5144
 8768TIP3   OH226267   5.654   6.620   0.372  0.0498  0.3830  0.1107
 8768TIP3    H126268   5.696   6.540   0.404 -0.7506  0.3441  1.0972
 8768TIP3    H226269   5.574   6.589   0.329  0.2064  0.5882 -0.3368
 8769TIP3   OH226270   3.962   4.536   5.627  0.4920 -0.1303  0.2761
 8769TIP3    H126271   3.898   4.603   5.649  0.4902 -0.3218  0.8521
 8769TIP3    H226272   4.046   4.582   5.628  0.4128  0.0269 -0.0757
 8770TIP3   OH226273   1.587   0.903   0.594  0.3220 -0.2594  0.1856
 8770TIP3    H126274   1.670   0.924   0.550 -0.0220  1.9008  0.4789
 8770TIP3    H226275   1.569   0.813   0.568  3.1786 -1.1034  0.7803
 8771TIP3   OH226276   4.577   5.007   1.866 -0.1553 -0.5345 -0.0211
 8771TIP3    H126277   4.619   5.047   1.942 -0.0334 -2.2423  0.8648
 8771TIP3    H226278   4.534   4.929   1.901  1.1669 -2.2214 -1.9178
 8772TIP3   OH226279   2.113   4.895   5.440  0.4185  0.4634  0.4182
 8772TIP3    H126280   2.168   4.858   5.508  2.6467  1.8355 -0.5128
 8772TIP3    H226281   2.112   4.989   5.459 -0.4824  0.6326 -0.3786
 8773TIP3   OH226282   4.252   0.062   0.346 -0.8871 -0.6686  0.1561
 8773TIP3    H126283   4.270   0.136   0.403 -1.3860 -0.7555  0.4377
 8773TIP3    H226284   4.280  -0.015   0.397 -0.1703 -0.6613 -0.2209
 8774TIP3   OH226285   7.058   5.079   4.190  0.4518  0.5265 -0.5686
 8774TIP3    H126286   7.079   5.094   4.097  1.4015 -1.5428 -0.7406
 8774TIP3    H226287   6.965   5.056   4.190  0.8379 -1.1551 -1.2660
 8775TIP3   OH226288   4.899   6.773   0.621 -0.0409 -0.0138 -0.1569
 8775TIP3    H126289   4.882   6.830   0.545  0.5243  0.6237  0.1861
 8775TIP3    H226290   4.966   6.712   0.592 -1.6045 -1.4348 -0.9711
 8776TIP3   OH226291   4.457   2.770   5.055 -0.1893 -0.1112 -0.5622
 8776TIP3    H126292   4.481   2.682   5.082  0.3222  0.0601 -0.4535
 8776TIP3    H226293   4.367   2.761   5.023 -1.8783  0.1356  3.5480
 8777TIP3   OH226294   0.232   5.079   3.024 -0.0421  0.4134 -0.3193
 8777TIP3    H126295   0.288   5.149   2.990  0.0399  1.2601  1.4150
 8777TIP3    H226296   0.151   5.086   2.974  0.8739  0.0932 -1.8949
 8778TIP3   OH226297   0.325   0.253   0.490 -0.0557 -0.0125 -0.4470
 8778TIP3    H126298   0.299   0.260   0.582  0.5839 -0.4377 -0.2285
 8778TIP3    H226299   0.421   0.256   0.491 -0.0708  1.6269 -1.2520
 8779TIP3   OH226300   2.904   1.380   1.273 -0.8380  0.0123 -0.0354
 8779TIP3    H126301   2.817   1.342   1.261 -1.1287  0.5066  0.4558
 8779TIP3    H226302   2.932   1.349   1.359 -0.0944 -0.9577 -0.5995
 8780TIP3   OH226303   0.497   0.286   3.229 -0.5012  0.3382  0.8514
 8780TIP3    H126304   0.497   0.224   3.302  1.5827 -0.7113  0.0574
 8780TIP3    H226305   0.550   0.243   3.162 -1.2397  1.8500 -0.7778
 8781TIP3   OH226306   5.405   5.918   3.185  0.1438  0.7326 -0.5205
 8781TIP3    H126307   5.479   5.893   3.130  2.2027  0.2066  2.3219
 8781TIP3    H226308   5.353   5.837   3.192 -0.1338  0.7986 -1.5965
 8782TIP3   OH226309   5.835   3.717   5.524  0.4117 -0.4823 -0.3973
 8782TIP3    H126310   5.837   3.805   5.562  0.1414 -0.5673 -0.1890
 8782TIP3    H226311   5.856   3.731   5.431 -1.2983 -0.0036 -0.7353
 8783TIP3   OH226312   3.423   2.619   4.146 -0.2768 -0.3675  0.0703
 8783TIP3    H126313   3.362   2.585   4.212  1.2232  0.9922  2.3329
 8783TIP3    H226314   3.400   2.711   4.137  0.6885 -0.1072  0.1040
 8784TIP3   OH226315   6.535   1.425   3.564  0.5128 -0.2762 -0.0614
 8784TIP3    H126316   6.624   1.392   3.579  0.6553  0.2672  0.3274
 8784TIP3    H226317   6.503   1.375   3.488  0.7665 -1.1999  0.4256
 8785TIP3   OH226318   0.851   6.791   2.115  0.8924  0.3625 -0.0253
 8785TIP3    H126319   0.895   6.795   2.199  0.5225  0.6375  0.1577
 8785TIP3    H226320   0.760   6.768   2.136  1.0440 -0.7164 -0.4305
 8786TIP3   OH226321   3.551   1.895   2.418  0.0826 -0.1316  0.3831
 8786TIP3    H126322   3.541   1.972   2.362 -1.9422 -2.1134 -2.2717
 8786TIP3    H226323   3.630   1.911   2.468  0.6496  2.9142 -1.2655
 8787TIP3   OH226324   3.480   2.766   2.452 -0.1877  0.4400 -0.1948
 8787TIP3    H126325   3.439   2.844   2.489  0.8333 -0.1068  2.2664
 8787TIP3    H226326   3.570   2.792   2.432  0.2430 -0.1263  0.9024
 8788TIP3   OH226327   1.632   5.122   0.105  0.1479 -0.2866 -0.3205
 8788TIP3    H126328   1.671   5.209   0.108  1.6637 -0.8530 -2.2011
 8788TIP3    H226329   1.603   5.111   0.014 -0.4690 -1.5659  0.0010
 8789TIP3   OH226330   0.251   0.197   0.848  0.5135 -0.4867  0.0329
 8789TIP3    H126331   0.234   0.231   0.936 -0.4671  1.1555 -0.7389
 8789TIP3    H226332   0.251   0.102   0.859  0.8584 -0.3132  1.8712
 8790TIP3   OH226333   1.435   6.354   1.209 -0.8495 -0.2006 -0.3281
 8790TIP3    H126334   1.387   6.336   1.128  0.0338 -2.2203 -0.4713
 8790TIP3    H226335   1.435   6.449   1.216 -0.1932  0.1065 -3.1851
 8791TIP3   OH226336   0.587   1.987   0.449  0.3815  0.0703 -0.1736
 8791TIP3    H126337   0.531   2.047   0.499  1.2328  0.4936  0.2868
 8791TIP3    H226338   0.621   1.926   0.515  1.6062  0.7027 -0.2105
 8792TIP3   OH226339   6.187   4.517   5.600 -0.5124  0.2607  0.1704
 8792TIP3    H126340   6.252   4.456   5.564  1.3216  1.2955  1.6008
 8792TIP3    H226341   6.121   4.460   5.639 -0.2367 -0.8174 -0.8575
 8793TIP3   OH226342   4.653   3.476   1.443 -0.5978  0.1851 -0.0146
 8793TIP3    H126343   4.560   3.453   1.441 -1.0485  1.5765  1.9894
 8793TIP3    H226344   4.669   3.505   1.533  1.5046  1.0565 -0.6044
 8794TIP3   OH226345   6.064   5.507   4.222 -0.1921 -0.0192  0.5440
 8794TIP3    H126346   6.118   5.585   4.230 -0.4025  0.3377 -1.2581
 8794TIP3    H226347   6.126   5.434   4.220  0.0501  0.1574  1.2619
 8795TIP3   OH226348   5.276   0.754   3.456 -0.3762  0.1729 -0.2707
 8795TIP3    H126349   5.286   0.802   3.374  1.0291 -0.2200 -0.3593
 8795TIP3    H226350   5.246   0.668   3.430  0.2586 -0.0139 -0.4035
 8796TIP3   OH226351   3.120   3.617   4.489  0.9801 -0.3899 -0.1101
 8796TIP3    H126352   3.128   3.523   4.473  1.9452 -0.1987 -0.8454
 8796TIP3    H226353   3.139   3.658   4.405  1.2247  0.4887  0.3574
 8797TIP3   OH226354   5.329   4.168   2.631 -0.1933  0.4195 -0.0331
 8797TIP3    H126355   5.255   4.109   2.619  0.4439 -0.4594  0.2504
 8797TIP3    H226356   5.348   4.201   2.544  1.1050 -1.8624 -0.6960
 8798TIP3   OH226357   6.973   2.637   3.973 -0.4619 -0.3327 -0.3706
 8798TIP3    H126358   7.016   2.574   3.914  2.8782  1.0746  0.3042
 8798TIP3    H226359   6.984   2.599   4.060 -1.2787 -0.2664 -0.2302
 8799TIP3   OH226360   4.057   6.680   3.148  0.2118 -0.1362 -0.0729
 8799TIP3    H126361   4.033   6.764   3.109 -0.7210 -1.3624 -2.3026
 8799TIP3    H226362   4.141   6.697   3.191 -0.1850  2.0214 -0.0344
 8800TIP3   OH226363   6.013   0.381   5.094 -0.1916 -0.0723 -0.3942
 8800TIP3    H126364   5.951   0.402   5.164  0.5846  1.9860 -0.2257
 8800TIP3    H226365   6.088   0.343   5.138 -0.7408 -1.2222 -0.4326
 8801TIP3   OH226366   3.809   4.351   3.837 -0.0214 -0.0790  0.8820
 8801TIP3    H126367   3.829   4.258   3.830 -0.6600 -0.1353 -0.5111
 8801TIP3    H226368   3.838   4.375   3.925 -0.3632 -1.7123  1.4810
 8802TIP3   OH226369   3.578   5.477   5.156  0.0954  0.0707 -0.2292
 8802TIP3    H126370   3.521   5.439   5.223 -0.6011 -1.1667 -1.4519
 8802TIP3    H226371   3.524   5.480   5.077  0.6682  2.1508 -0.5948
 8803TIP3   OH226372   2.559   5.353   2.716 -0.5534 -0.2688 -0.3029
 8803TIP3    H126373   2.506   5.401   2.780  0.7493 -0.4569  0.9637
 8803TIP3    H226374   2.611   5.421   2.674  0.0278 -0.3549  0.2607
 8804TIP3   OH226375   0.098   5.136   1.703 -0.2289 -0.5066  0.3861
 8804TIP3    H126376   0.175   5.089   1.672 -0.4951 -1.1933  0.7407
 8804TIP3    H226377   0.032   5.068   1.717 -0.7624  0.0217  0.5009
 8805TIP3   OH226378   6.541   0.957   4.631 -0.2694 -0.0424 -0.0441
 8805TIP3    H126379   6.538   1.039   4.582 -1.2299 -0.2789 -0.3949
 8805TIP3    H226380   6.632   0.949   4.659  0.0143  0.7245 -0.7285
 8806TIP3   OH226381   6.768   2.286   1.473 -0.1692 -0.0512  0.4407
 8806TIP3    H126382   6.782   2.250   1.385 -2.0790  2.3451 -0.9816
 8806TIP3    H226383   6.703   2.228   1.512  0.4261 -0.9292  0.1673
 8807TIP3   OH226384   0.160   5.780   1.468  0.2110  0.2213 -0.0153
 8807TIP3    H126385   0.097   5.712   1.445 -0.0108  0.8345 -1.3352
 8807TIP3    H226386   0.218   5.785   1.392 -0.9099  2.7704 -0.8174
 8808TIP3   OH226387   3.005   6.670   5.693 -0.1525  0.2775 -0.2961
 8808TIP3    H126388   2.988   6.699   5.603  1.4192 -1.4544 -1.2073
 8808TIP3    H226389   2.972   6.581   5.697  0.2808  0.1427  0.6904
 8809TIP3   OH226390   3.412   5.288   2.040 -0.0814  0.1283 -0.7046
 8809TIP3    H126391   3.481   5.234   2.001 -2.7502 -4.2708 -0.0449
 8809TIP3    H226392   3.440   5.302   2.130  0.5321 -0.4942 -0.7934
 8810TIP3   OH226393   4.293   2.104   1.632 -1.0332 -0.3166  0.2649
 8810TIP3    H126394   4.307   2.120   1.725 -1.0733  0.2159  0.1839
 8810TIP3    H226395   4.233   2.174   1.604  1.5296  1.5581 -0.8753
 8811TIP3   OH226396   5.956   4.832   2.704  0.6148  0.0899  0.1636
 8811TIP3    H126397   5.992   4.913   2.738 -1.7886  1.8067 -1.0757
 8811TIP3    H226398   5.861   4.842   2.713  0.2238 -3.3222  1.4648
 8812TIP3   OH226399   5.511   3.945   1.877 -0.5502  0.4070  0.6459
 8812TIP3    H126400   5.599   3.953   1.914 -0.5708  0.0156  0.7860
 8812TIP3    H226401   5.521   3.973   1.786 -0.5465  1.5752  0.9965
 8813TIP3   OH226402   1.586   6.239   2.149  0.4568 -0.1737  0.2482
 8813TIP3    H126403   1.501   6.268   2.182  0.2588 -0.5492  0.0773
 8813TIP3    H226404   1.639   6.319   2.146 -0.3557  0.3607 -1.0633
 8814TIP3   OH226405   2.416   6.617   2.874 -0.0080  0.1136  0.5791
 8814TIP3    H126406   2.328   6.655   2.874 -0.2289 -0.3880  1.2772
 8814TIP3    H226407   2.450   6.637   2.787 -0.4671  1.1068  0.6065
 8815TIP3   OH226408   0.100   2.793   1.294  0.1196 -0.3722  0.3044
 8815TIP3    H126409   0.104   2.748   1.379  0.9827 -0.7091  0.1019
 8815TIP3    H226410   0.063   2.879   1.314 -1.1112 -0.9860  0.7775
 8816TIP3   OH226411   4.260   1.011   2.812  0.4933  0.5307  0.2018
 8816TIP3    H126412   4.261   1.089   2.756  0.7988 -0.5477 -1.3552
 8816TIP3    H226413   4.350   0.978   2.810 -0.2342 -1.5721 -1.7252
 8817TIP3   OH226414   1.869   4.550   3.714  0.4451  0.2167 -0.1293
 8817TIP3    H126415   1.964   4.544   3.708  0.4315  0.3978 -0.5168
 8817TIP3    H226416   1.848   4.512   3.800  0.7561 -0.9446 -0.5527
 8818TIP3   OH226417   1.928   5.115   2.424  0.2532 -0.2368  0.3642
 8818TIP3    H126418   2.011   5.162   2.428  0.1188  0.0960 -0.5358
 8818TIP3    H226419   1.912   5.102   2.330 -1.4469  1.0301  0.4355
 8819TIP3   OH226420   4.252   6.160   0.432 -0.1207  0.3013  0.1452
 8819TIP3    H126421   4.344   6.171   0.407 -0.6887 -0.2207 -2.3761
 8819TIP3    H226422   4.223   6.249   0.453  0.9497  0.4688  1.0164
 8820TIP3   OH226423   2.925   6.587   1.163 -0.0612  0.3216 -0.3985
 8820TIP3    H126424   3.002   6.644   1.158  1.1438 -1.0076  1.6164
 8820TIP3    H226425   2.932   6.530   1.087  1.1978 -0.0304 -0.0455
 8821TIP3   OH226426   4.376   0.968   4.086  0.3526  0.2200 -0.3036
 8821TIP3    H126427   4.391   1.012   4.002  0.6506 -0.0044 -0.3711
 8821TIP3    H226428   4.365   0.876   4.063  1.3907  0.0069 -0.0142
 8822TIP3   OH226429   2.899   2.880   5.663 -0.5137 -0.8902  0.3425
 8822TIP3    H126430   2.871   2.871   5.754 -2.4671 -1.2455 -0.2494
 8822TIP3    H226431   2.988   2.915   5.669 -0.5077 -1.1164  2.3785
 8823TIP3   OH226432   0.720   2.224   2.425 -0.0713  0.0146 -0.0866
 8823TIP3    H126433   0.735   2.286   2.353 -1.3300  0.7470  0.2672
 8823TIP3    H226434   0.701   2.141   2.380  3.2194 -0.6199 -0.5727
 8824TIP3   OH226435   7.123   4.734   0.302 -0.3960  0.4305 -0.0743
 8824TIP3    H126436   7.122   4.822   0.339 -0.0432  1.2888 -2.0099
 8824TIP3    H226437   7.032   4.719   0.274 -0.4397  0.1944  0.1853
 8825TIP3   OH226438   0.530   5.557   2.905  0.4675  0.4389  0.0850
 8825TIP3    H126439   0.438   5.575   2.885  0.5840  1.3285  0.2787
 8825TIP3    H226440   0.574   5.556   2.820  0.2099 -0.4832 -0.0489
 8826TIP3   OH226441   3.362   3.893   2.179  0.3126 -0.0629  0.4025
 8826TIP3    H126442   3.299   3.924   2.245  0.8053  2.3717 -0.1543
 8826TIP3    H226443   3.308   3.866   2.105 -0.1919 -1.6047  1.2995
 8827TIP3   OH226444   1.269   0.618   0.971 -0.5207 -0.6009 -0.3062
 8827TIP3    H126445   1.365   0.618   0.977 -0.5182 -2.3837  0.3735
 8827TIP3    H226446   1.247   0.527   0.951 -1.9818  0.2076 -2.7720
 8828TIP3   OH226447   1.559   4.826   3.955  0.0834 -0.0171 -0.5895
 8828TIP3    H126448   1.626   4.772   3.997  0.2291 -0.5674 -1.4943
 8828TIP3    H226449   1.534   4.890   4.022  1.0515 -0.2047 -0.0257
 8829TIP3   OH226450   4.352   3.338   5.520  0.4247  0.0059  0.0836
 8829TIP3    H126451   4.284   3.404   5.527  1.4123  0.9733  0.9661
 8829TIP3    H226452   4.421   3.380   5.469  1.4237 -0.0027  1.3860
 8830TIP3   OH226453   1.266   4.949   2.948  0.0544  0.5504 -0.2031
 8830TIP3    H126454   1.173   4.926   2.942  0.5309 -1.1578 -1.8401
 8830TIP3    H226455   1.302   4.887   3.011  0.6358 -0.9908 -1.9401
 8831TIP3   OH226456   3.967   2.238   0.077 -0.5825 -0.5903  0.0208
 8831TIP3    H126457   3.940   2.321   0.117  2.2064  0.1243  0.6343
 8831TIP3    H226458   3.936   2.244  -0.013 -1.7206  0.4303  0.4428
 8832TIP3   OH226459   6.757   6.751   5.595 -0.0028 -0.4219  0.3262
 8832TIP3    H126460   6.824   6.698   5.553  0.5793  0.2234  0.4298
 8832TIP3    H226461   6.721   6.805   5.525 -0.3966 -0.7352  0.2790
 8833TIP3   OH226462   1.275   4.551   4.219 -0.0240  0.6812  0.6545
 8833TIP3    H126463   1.360   4.563   4.262 -0.7906 -0.8390  2.7591
 8833TIP3    H226464   1.241   4.469   4.256 -1.9120  0.6590 -0.9946
 8834TIP3   OH226465   2.776   4.151   3.378  0.0133 -0.1201  0.8463
 8834TIP3    H126466   2.822   4.068   3.370  0.6451  0.2839  0.1988
 8834TIP3    H226467   2.723   4.157   3.298  0.8828  0.6455  0.3137
 8835TIP3   OH226468   6.434   3.395   1.434  0.1247  0.5533  0.0640
 8835TIP3    H126469   6.416   3.484   1.464  0.9514  0.8695 -0.3576
 8835TIP3    H226470   6.525   3.397   1.405  0.1735 -0.4481  0.1079
 8836TIP3   OH226471   7.110   0.141   5.455 -0.4901  0.0794  0.4168
 8836TIP3    H126472   7.166   0.218   5.446 -0.6032  0.0394 -0.7564
 8836TIP3    H226473   7.024   0.169   5.423 -0.9296 -0.1125  1.3835
 8837TIP3   OH226474   4.750   5.963   2.338 -0.3468  0.7193  0.2170
 8837TIP3    H126475   4.810   6.018   2.389  1.3738 -1.0904  0.2716
 8837TIP3    H226476   4.794   5.952   2.253 -1.6707  1.1173 -0.5452
 8838TIP3   OH226477   0.280   4.466   5.174  0.6757  0.6979  0.1502
 8838TIP3    H126478   0.351   4.499   5.119  0.2828  1.0536 -0.1513
 8838TIP3    H226479   0.281   4.521   5.252 -0.3783  1.8669 -0.6260
 8839TIP3   OH226480   1.715   5.320   4.170  0.2556  0.1804  0.6909
 8839TIP3    H126481   1.787   5.273   4.212  1.0883  1.8668  1.2620
 8839TIP3    H226482   1.702   5.397   4.225 -1.4799  0.3097  0.1465
 8840TIP3   OH226483   5.072   2.367   4.324  0.2787 -0.4473  0.7272
 8840TIP3    H126484   5.067   2.276   4.353  1.1636 -0.2562  1.5547
 8840TIP3    H226485   5.118   2.363   4.240  1.3940 -0.6849  1.3259
 8841TIP3   OH226486   1.712   4.207   1.028 -0.2663 -0.3922 -0.5930
 8841TIP3    H126487   1.640   4.203   0.965 -1.5432 -1.0655  0.8382
 8841TIP3    H226488   1.688   4.144   1.095  0.9928  0.3703  0.6210
 8842TIP3   OH226489   3.480   6.569   0.594 -0.5676  0.0737  0.3283
 8842TIP3    H126490   3.480   6.659   0.625 -0.1224  0.6658 -1.2608
 8842TIP3    H226491   3.397   6.559   0.547 -1.1432 -0.7302  1.4817
 8843TIP3   OH226492   5.071   4.855   4.550  0.3296 -0.0754 -0.3010
 8843TIP3    H126493   5.088   4.865   4.643  1.5213  0.2976 -0.5439
 8843TIP3    H226494   5.010   4.926   4.528  3.4345  2.7136 -0.6542
 8844TIP3   OH226495   5.480   3.092   5.901  0.7267 -0.4032  0.4443
 8844TIP3    H126496   5.530   3.053   5.830 -0.8152 -1.2461 -0.2317
 8844TIP3    H226497   5.482   3.186   5.883  0.8415 -0.5564 -0.3976
 8845TIP3   OH226498   0.633   0.953   5.002  0.4066  0.5513 -0.1968
 8845TIP3    H126499   0.726   0.932   4.993  0.8486  1.4646  1.6767
 8845TIP3    H226500   0.612   1.004   4.924  0.8482 -1.5833 -1.7933
 8846TIP3   OH226501   3.574   0.874   1.343  0.3985  0.0166 -0.2173
 8846TIP3    H126502   3.664   0.904   1.357  0.2745  0.3269 -0.0736
 8846TIP3    H226503   3.550   0.831   1.425 -0.5025  2.2743  0.8084
 8847TIP3   OH226504   3.280   0.009   3.764  0.0355 -0.1112 -0.4223
 8847TIP3    H126505   3.356   0.028   3.710  0.4300 -1.0989 -0.2387
 8847TIP3    H226506   3.233   0.092   3.770  1.3558  0.6344 -0.1351
 8848TIP3   OH226507   3.984   2.124   2.317 -0.3312 -0.3593 -0.3495
 8848TIP3    H126508   3.977   2.035   2.282 -1.3772 -0.8017  0.9320
 8848TIP3    H226509   3.924   2.126   2.391 -0.2131  1.3808 -0.2567
 8849TIP3   OH226510   5.086   5.547   0.736 -0.0159 -0.1069  0.0384
 8849TIP3    H126511   5.076   5.461   0.778 -0.8443 -0.7978 -1.4863
 8849TIP3    H226512   5.147   5.594   0.793  1.3867 -2.1292  0.3207
 8850TIP3   OH226513   0.031   4.417   3.119  0.0880 -0.2778 -0.4233
 8850TIP3    H126514   0.048   4.358   3.192  0.8083 -0.8230 -1.0062
 8850TIP3    H226515   0.028   4.504   3.158 -1.4856 -0.7182  0.5250
 8851TIP3   OH226516   1.275   5.142   2.746 -0.2531 -0.2095 -0.2704
 8851TIP3    H126517   1.270   5.066   2.803 -3.9157  0.8726  1.1317
 8851TIP3    H226518   1.272   5.107   2.657 -1.4639 -1.7437  0.3411
 8852TIP3   OH226519   2.209   1.945   5.207 -0.1490  0.2354  0.3287
 8852TIP3    H126520   2.193   1.853   5.186  1.1968 -0.0860  0.5962
 8852TIP3    H226521   2.304   1.954   5.201 -0.4252  2.3072 -2.3892
 8853TIP3   OH226522   5.979   0.839   0.719 -0.1920 -0.2655 -0.2664
 8853TIP3    H126523   6.037   0.829   0.643  1.5707  0.9752  0.8490
 8853TIP3    H226524   6.021   0.787   0.788  0.0016  1.1878  0.7467
 8854TIP3   OH226525   0.111   3.197   1.832 -0.2244  0.3604  0.0959
 8854TIP3    H126526   0.106   3.164   1.922 -0.4076  1.2839  0.4356
 8854TIP3    H226527   0.034   3.160   1.789 -0.7849  0.8478  0.6520
 8855TIP3   OH226528   5.524   5.494   5.437 -0.3682 -0.0598 -0.4838
 8855TIP3    H126529   5.558   5.406   5.454 -2.4094 -1.0787 -1.2054
 8855TIP3    H226530   5.472   5.484   5.357 -0.6424  1.8162 -0.5819
 8856TIP3   OH226531   5.709   2.641   2.618  0.0544  0.5335  0.9119
 8856TIP3    H126532   5.728   2.734   2.606 -0.3649  0.5172  0.0300
 8856TIP3    H226533   5.775   2.597   2.564 -0.6139  0.3791  0.1975
 8857TIP3   OH226534   1.502   1.838   2.818 -0.2608  0.3940  0.0446
 8857TIP3    H126535   1.452   1.883   2.750 -0.8770 -1.3238 -0.7001
 8857TIP3    H226536   1.476   1.881   2.900 -3.5680 -0.8325 -0.2190
 8858TIP3   OH226537   3.701   4.434   1.482  0.1623 -0.2879  0.9831
 8858TIP3    H126538   3.696   4.354   1.534 -1.3959  0.3343  1.8626
 8858TIP3    H226539   3.784   4.474   1.507  2.2093 -2.7834 -1.3180
 8859TIP3   OH226540   3.017   5.066   1.663  0.1063 -0.0161 -0.0137
 8859TIP3    H126541   3.036   5.159   1.679  0.9094 -0.0585 -0.6896
 8859TIP3    H226542   3.082   5.020   1.716 -1.7316 -0.2561  2.1751
 8860TIP3   OH226543   7.005   4.489   4.277  0.0908  0.0896  0.3693
 8860TIP3    H126544   7.097   4.468   4.258  0.2378  1.3813 -0.4316
 8860TIP3    H226545   7.007   4.579   4.308 -1.0004  0.4155 -0.4473
 8861TIP3   OH226546   4.538   4.744   3.198 -0.1087 -0.0987  0.1323
 8861TIP3    H126547   4.579   4.677   3.144 -0.7199 -0.0473 -0.4023
 8861TIP3    H226548   4.561   4.827   3.156  0.8664  0.0633  0.9392
 8862TIP3   OH226549   3.127   1.507   2.564 -0.2046  0.4752 -0.3629
 8862TIP3    H126550   3.202   1.452   2.540 -1.0584 -0.4454 -0.9632
 8862TIP3    H226551   3.155   1.551   2.644  0.1751 -1.5196  0.6664
 8863TIP3   OH226552   4.109   1.978   3.518  0.1654 -0.1299  0.2053
 8863TIP3    H126553   4.020   1.951   3.495 -0.1081  2.6370 -2.8285
 8863TIP3    H226554   4.098   2.064   3.558  1.4165  0.9428 -1.5776
 8864TIP3   OH226555   1.744   5.988   0.971 -0.0210  0.5800  0.9644
 8864TIP3    H126556   1.734   6.082   0.985 -0.0490  0.5877  0.8912
 8864TIP3    H226557   1.692   5.969   0.893  0.0012  0.5071  0.9667
 8865TIP3   OH226558   0.530   3.197   4.232 -0.0530 -0.0598 -0.3197
 8865TIP3    H126559   0.503   3.184   4.323 -1.2185 -1.1499 -0.7919
 8865TIP3    H226560   0.619   3.231   4.238 -0.0236 -0.3460  1.2178
 8866TIP3   OH226561   1.984   0.199   5.834  0.5537  0.7341 -0.2028
 8866TIP3    H126562   2.048   0.224   5.901 -1.7979  3.6070  1.1945
 8866TIP3    H226563   1.942   0.120   5.868  2.5033 -0.5517 -0.6313
 8867TIP3   OH226564   0.711   6.465   1.949  0.1808  0.0737  0.6009
 8867TIP3    H126565   0.789   6.459   1.894 -0.7932  2.1338 -1.1132
 8867TIP3    H226566   0.717   6.389   2.007  3.4481  0.1730  0.5554
 8868TIP3   OH226567   7.125   4.816   5.738 -0.4112 -0.1828  0.2670
 8868TIP3    H126568   7.054   4.778   5.686 -0.7326  0.8146 -0.0391
 8868TIP3    H226569   7.105   4.909   5.742  1.7784  0.4420 -1.3516
 8869TIP3   OH226570   3.926   3.040   5.738  0.2775 -0.2597  0.1962
 8869TIP3    H126571   3.853   3.044   5.677  0.6338 -0.2961 -0.2336
 8869TIP3    H226572   3.887   3.006   5.819 -0.5397  1.4397  0.5449
 8870TIP3   OH226573   4.182   2.658   3.907  0.5394  0.3085 -0.5970
 8870TIP3    H126574   4.240   2.649   3.983  1.1190  0.6323 -0.9867
 8870TIP3    H226575   4.240   2.690   3.837  0.1943 -0.7569 -1.4015
 8871TIP3   OH226576   4.843   6.011   0.349  0.0217 -0.4921  0.0552
 8871TIP3    H126577   4.899   6.080   0.384 -0.0033 -0.2486 -0.3802
 8871TIP3    H226578   4.792   5.981   0.424 -1.3460  1.2503 -0.1368
 8872TIP3   OH226579   1.798   5.382   2.032 -0.1657 -0.4219 -0.4689
 8872TIP3    H126580   1.805   5.467   1.987  1.5059 -0.2247  0.1171
 8872TIP3    H226581   1.864   5.327   1.990  0.5678 -0.6156  0.8796
 8873TIP3   OH226582   1.643   6.086   1.884 -0.6087 -0.2125  0.4178
 8873TIP3    H126583   1.630   6.171   1.925 -1.2684  0.7729 -1.7005
 8873TIP3    H226584   1.555   6.055   1.864 -0.3924 -1.5823  1.4490
 8874TIP3   OH226585   1.954   4.096   3.671  0.4725 -0.0844 -0.3569
 8874TIP3    H126586   1.921   4.119   3.758  0.1354  2.5571 -1.0788
 8874TIP3    H226587   2.047   4.119   3.674  0.2497  1.0015 -0.9348
 8875TIP3   OH226588   4.688   3.697   3.901 -0.3149  0.0420  0.1754
 8875TIP3    H126589   4.606   3.725   3.941  0.4709  1.6180  0.7433
 8875TIP3    H226590   4.729   3.640   3.966 -1.5151 -1.8332 -0.6329
 8876TIP3   OH226591   5.273   0.151   5.822 -0.0197  0.2067 -0.1063
 8876TIP3    H126592   5.247   0.060   5.807 -2.9904  1.0760 -0.8884
 8876TIP3    H226593   5.216   0.181   5.893  1.2274  1.3835  0.4598
 8877TIP3   OH226594   6.390   2.195   1.337 -0.1191 -0.4044  0.2589
 8877TIP3    H126595   6.443   2.127   1.296 -3.6338 -3.2078 -0.1737
 8877TIP3    H226596   6.368   2.160   1.423 -0.4694  1.0856  0.8059
 8878TIP3   OH226597   0.693   6.415   3.305 -0.0206  0.1323  0.1574
 8878TIP3    H126598   0.725   6.446   3.390  0.8808  1.1323 -0.5237
 8878TIP3    H226599   0.727   6.325   3.299  0.6173  0.3383  0.5060
 8879TIP3   OH226600   3.369   2.450   0.437 -0.3672  0.4440 -1.3056
 8879TIP3    H126601   3.395   2.414   0.522  2.3958  1.0038 -1.8433
 8879TIP3    H226602   3.291   2.502   0.457 -0.8611 -0.8942  0.5366
 8880TIP3   OH226603   2.708   5.467   4.049  0.1415 -0.0498  0.3738
 8880TIP3    H126604   2.744   5.539   3.997 -0.1828  0.5398  0.9461
 8880TIP3    H226605   2.711   5.391   3.991  1.2399  0.2448  0.0356
 8881TIP3   OH226606   6.176   6.751   3.634  0.4071  0.0971  0.0679
 8881TIP3    H126607   6.181   6.773   3.541 -0.2417  1.1130  0.2683
 8881TIP3    H226608   6.263   6.774   3.668  2.0930 -3.7864 -0.9536
 8882TIP3   OH226609   1.399   2.708   0.484 -1.0304  0.1408 -0.2965
 8882TIP3    H126610   1.454   2.630   0.469  0.5572  1.4662 -1.7801
 8882TIP3    H226611   1.315   2.686   0.442 -0.8513 -1.0034 -0.0994
 8883TIP3   OH226612   2.557   2.851   2.543 -0.4084 -0.3335 -0.4006
 8883TIP3    H126613   2.550   2.935   2.589 -1.5307  0.7759 -2.4971
 8883TIP3    H226614   2.650   2.842   2.524 -0.1840  0.0653  0.4484
 8884TIP3   OH226615   2.027   6.572   1.622 -0.7453  0.2559 -0.3217
 8884TIP3    H126616   2.077   6.585   1.703  0.1395  2.4849 -1.1520
 8884TIP3    H226617   2.092   6.578   1.553 -1.6241 -0.7430 -1.2671
 8885TIP3   OH226618   5.822   5.396   4.154 -0.0438 -0.0782 -0.0443
 8885TIP3    H126619   5.905   5.443   4.163  0.2750 -0.5985 -0.2218
 8885TIP3    H226620   5.768   5.453   4.099 -0.1121  0.6596  0.7752
 8886TIP3   OH226621   6.732   4.564   2.906 -0.3685 -0.9125  1.1943
 8886TIP3    H126622   6.825   4.572   2.927 -0.1303  0.0446 -0.0690
 8886TIP3    H226623   6.688   4.568   2.991  0.6868 -0.3003  1.7384
 8887TIP3   OH226624   4.394   1.184   4.628 -0.8357  0.3514  0.0326
 8887TIP3    H126625   4.338   1.125   4.678 -0.6728  1.1070  1.1650
 8887TIP3    H226626   4.333   1.236   4.575 -1.3057  1.5031  1.6136
 8888TIP3   OH226627   5.242   0.181   1.831 -0.5639 -0.0048 -0.2734
 8888TIP3    H126628   5.272   0.258   1.783 -1.7274  1.0017  0.5521
 8888TIP3    H226629   5.164   0.211   1.878 -0.9489 -1.6513  0.1965
 8889TIP3   OH226630   3.074   2.231   2.494  0.4137 -0.0168  0.1265
 8889TIP3    H126631   3.014   2.198   2.561  1.3842 -1.0574  0.5209
 8889TIP3    H226632   3.160   2.204   2.524  0.8522 -0.8467 -1.7159
 8890TIP3   OH226633   2.060   2.020   2.122 -0.1050 -0.3058 -0.2223
 8890TIP3    H126634   1.972   2.021   2.082  0.1050 -1.3454 -0.7551
 8890TIP3    H226635   2.119   2.005   2.048  0.6456  1.4790 -0.0379
 8891TIP3   OH226636   4.891   3.311   4.859 -1.1938 -0.0234 -0.3255
 8891TIP3    H126637   4.829   3.254   4.814 -1.0670 -0.2718 -0.1835
 8891TIP3    H226638   4.840   3.390   4.879 -2.0787 -1.0279  1.6612
 8892TIP3   OH226639   4.767   0.139   4.913  0.6565 -0.1154 -0.2985
 8892TIP3    H126640   4.835   0.071   4.909  0.5308 -0.2403 -0.3363
 8892TIP3    H226641   4.713   0.115   4.988  0.2628 -0.3920 -0.6684
 8893TIP3   OH226642   6.773   4.125   4.510  0.0286  0.0210  0.0054
 8893TIP3    H126643   6.837   4.195   4.520  0.2359 -0.1674 -0.0017
 8893TIP3    H226644   6.777   4.077   4.592  0.8330 -0.7729 -0.4887
 8894TIP3   OH226645   5.136   3.341   4.981  0.5296 -0.0451 -0.2776
 8894TIP3    H126646   5.167   3.431   4.982  1.1262 -0.2445 -0.3269
 8894TIP3    H226647   5.051   3.345   4.937  1.0263  0.3388 -1.2100
 8895TIP3   OH226648   6.499   2.734   3.529 -0.1191  0.1340 -0.6072
 8895TIP3    H126649   6.462   2.699   3.448 -2.1684  0.4299  0.1358
 8895TIP3    H226650   6.533   2.820   3.504  0.5526 -0.3533 -1.4281
 8896TIP3   OH226651   0.410   1.997   1.541  0.3839  0.1518 -0.7994
 8896TIP3    H126652   0.435   1.964   1.454  4.2705  0.0829  0.1465
 8896TIP3    H226653   0.413   2.093   1.532  0.1067  0.1561 -0.8705
 8897TIP3   OH226654   6.473   0.281   2.333  0.3345  0.3219  0.6422
 8897TIP3    H126655   6.433   0.244   2.255  3.1610  2.1586 -1.9021
 8897TIP3    H226656   6.418   0.356   2.355  0.4929  0.8782 -0.7670
 8898TIP3   OH226657   5.826   2.264   2.269 -0.1337 -0.6317  0.0305
 8898TIP3    H126658   5.887   2.193   2.288  1.0925  0.1355 -0.8944
 8898TIP3    H226659   5.831   2.275   2.174 -0.6948  0.3631  0.1016
 8899TIP3   OH226660   0.430   2.734   5.192 -0.2192  0.2376 -0.3044
 8899TIP3    H126661   0.391   2.762   5.109  0.6079 -0.9129 -1.1155
 8899TIP3    H226662   0.362   2.679   5.232 -0.4282  0.3636 -0.4818
 8900TIP3   OH226663   1.873   1.221   3.130  0.2900  0.0979 -0.0452
 8900TIP3    H126664   1.896   1.252   3.043 -0.9394  2.8041  0.4843
 8900TIP3    H226665   1.929   1.270   3.189 -0.2988 -0.1837  0.7775
 8901TIP3   OH226666   3.313   3.087   0.079  0.2884  0.4460  0.0626
 8901TIP3    H126667   3.406   3.071   0.095  0.0272 -1.5787 -0.1634
 8901TIP3    H226668   3.295   3.042  -0.003 -0.6802  1.7569 -0.4804
 8902TIP3   OH226669   0.854   2.006   1.765  0.0543  0.0065 -0.0850
 8902TIP3    H126670   0.780   1.963   1.723  0.2486 -0.2603 -0.1521
 8902TIP3    H226671   0.907   1.935   1.800 -0.4759  0.2418  1.2669
 8903TIP3   OH226672   5.759   6.059   1.415  0.0798 -0.2636 -0.9019
 8903TIP3    H126673   5.758   6.147   1.453  1.9618 -0.6538  0.1511
 8903TIP3    H226674   5.831   6.061   1.352 -0.5980 -0.7447 -1.7113
 8904TIP3   OH226675   6.547   0.857   2.365 -0.5060  0.4484 -0.1017
 8904TIP3    H126676   6.614   0.792   2.387 -1.1871 -0.6472 -1.1107
 8904TIP3    H226677   6.582   0.940   2.397  1.4478 -0.0546 -0.8116
 8905TIP3   OH226678   6.959   0.842   0.285 -0.3687 -0.4608  0.3901
 8905TIP3    H126679   6.966   0.810   0.375 -1.2487 -1.9886 -0.0484
 8905TIP3    H226680   7.023   0.790   0.236  1.0430  1.2527  0.3115
 8906TIP3   OH226681   4.996   3.813   4.549  0.3620  0.2357  0.2756
 8906TIP3    H126682   4.997   3.724   4.584  0.5700 -0.3186 -1.0867
 8906TIP3    H226683   5.070   3.857   4.592  0.8004 -0.5143  0.2994
 8907TIP3   OH226684   5.578   0.954   3.852  0.4611 -0.0754  0.2988
 8907TIP3    H126685   5.643   0.911   3.908  0.5280 -0.5115 -0.1065
 8907TIP3    H226686   5.516   0.885   3.831  0.1925  0.1975  0.1944
 8908TIP3   OH226687   2.681   3.811   2.237  0.1372  0.4706 -0.0828
 8908TIP3    H126688   2.739   3.740   2.263  0.0741  0.4348 -0.0382
 8908TIP3    H226689   2.678   3.870   2.313 -1.6037 -0.6333  0.7696
 8909TIP3   OH226690   4.983   6.296   5.406 -0.2220 -0.1021  0.1546
 8909TIP3    H126691   4.963   6.370   5.462  1.1962  0.2043  0.2969
 8909TIP3    H226692   5.052   6.328   5.347 -0.3940 -0.9672 -0.5436
 8910TIP3   OH226693   4.829   1.061   3.100  0.0604  0.6931 -0.0658
 8910TIP3    H126694   4.827   0.980   3.151  0.9399  2.5596  3.2503
 8910TIP3    H226695   4.737   1.086   3.091 -0.2644 -0.8922 -1.6726
 8911TIP3   OH226696   3.958   4.018   4.826 -0.0705 -0.3899 -0.0967
 8911TIP3    H126697   3.974   3.929   4.792 -0.4684 -1.5244  2.4792
 8911TIP3    H226698   4.045   4.057   4.831  0.3390 -1.3394  0.5220
 8912TIP3   OH226699   1.555   3.537   5.782  0.0326 -0.5461 -0.4221
 8912TIP3    H126700   1.629   3.481   5.805  1.3821  1.2407 -0.1765
 8912TIP3    H226701   1.516   3.560   5.867  0.1305 -0.2718 -0.4521
 8913TIP3   OH226702   6.358   2.060   0.202  0.4858 -0.6155 -0.2180
 8913TIP3    H126703   6.279   2.094   0.245  1.7090  2.4096 -0.1477
 8913TIP3    H226704   6.325   2.017   0.123 -1.3003  0.1839  0.0411
 8914TIP3   OH226705   5.320   0.349   5.012  0.0643 -0.2461  0.0758
 8914TIP3    H126706   5.247   0.342   4.951  1.0939 -0.1820 -1.2021
 8914TIP3    H226707   5.398   0.337   4.958  1.0374  0.4823  1.2702
 8915TIP3   OH226708   2.231   0.105   4.788 -0.0359 -0.3031  0.6140
 8915TIP3    H126709   2.273   0.132   4.870  1.5327  0.0002 -0.2463
 8915TIP3    H226710   2.258   0.014   4.777  0.3235 -0.1439  0.1197
 8916TIP3   OH226711   6.303   4.302   0.348  0.6814 -0.0384  0.6356
 8916TIP3    H126712   6.356   4.257   0.414  1.0647 -0.5512 -0.0100
 8916TIP3    H226713   6.342   4.389   0.341  0.3833  0.1620  1.3731
 8917TIP3   OH226714   1.515   2.662   5.414 -0.3078 -0.3902  0.3221
 8917TIP3    H126715   1.548   2.749   5.437  1.2387 -0.1127 -2.5263
 8917TIP3    H226716   1.576   2.601   5.455 -0.3138 -0.0751  0.8027
 8918TIP3   OH226717   7.116   6.637   4.730 -0.3592 -0.4619  0.3680
 8918TIP3    H126718   7.175   6.562   4.723  0.6722  0.4319 -0.8060
 8918TIP3    H226719   7.048   6.620   4.665 -2.2046 -2.1149  2.5706
 8919TIP3   OH226720   4.212   2.569   5.662 -0.5893  0.5558 -0.9230
 8919TIP3    H126721   4.129   2.523   5.650 -0.6150  0.3340  0.0013
 8919TIP3    H226722   4.187   2.654   5.698 -0.5123  1.1405 -2.1906
 8920TIP3   OH226723   4.849   5.094   1.238  0.8263  0.1026  0.2484
 8920TIP3    H126724   4.794   5.171   1.224  1.8121  0.9615  0.9357
 8920TIP3    H226725   4.818   5.057   1.321 -0.3326 -0.8891 -0.5744
 8921TIP3   OH226726   3.427   4.342   0.286  0.1015  0.1643 -0.7078
 8921TIP3    H126727   3.405   4.430   0.318 -0.4302 -0.0690 -0.4137
 8921TIP3    H226728   3.515   4.351   0.251  1.4491  0.0705  2.3418
 8922TIP3   OH226729   3.179   0.384   4.291 -0.1915 -1.0610  0.0724
 8922TIP3    H126730   3.245   0.332   4.337 -1.2573 -1.0116  1.7191
 8922TIP3    H226731   3.220   0.471   4.281 -0.1464 -0.9043  1.4669
 8923TIP3   OH226732   6.988   2.851   3.293 -0.0363 -0.3027 -0.2326
 8923TIP3    H126733   6.989   2.931   3.241  0.1507  0.9656  1.6333
 8923TIP3    H226734   6.908   2.858   3.346  0.0721 -1.2684  0.0725
 8924TIP3   OH226735   6.719   2.981   2.428 -0.2550 -0.6214 -0.3108
 8924TIP3    H126736   6.689   2.970   2.519  1.2771 -0.7860  0.2037
 8924TIP3    H226737   6.671   3.057   2.396 -3.0732 -2.3002 -0.3935
 8925TIP3   OH226738   1.578   1.692   5.770  0.0711 -0.0475 -0.6465
 8925TIP3    H126739   1.544   1.603   5.763 -0.7606  0.1831  0.3102
 8925TIP3    H226740   1.620   1.695   5.856  4.0099 -0.7928 -2.3316
 8926TIP3   OH226741   4.759   4.609   4.347  0.1823 -0.3392  0.2242
 8926TIP3    H126742   4.815   4.611   4.425 -1.6662  1.2147  1.6158
 8926TIP3    H226743   4.670   4.622   4.381 -1.0378 -2.3412 -1.9195
 8927TIP3   OH226744   1.384   5.607   1.343 -0.1598  0.1160  0.5905
 8927TIP3    H126745   1.470   5.649   1.336 -0.4188  0.6027  0.2677
 8927TIP3    H226746   1.337   5.659   1.408 -0.4156  0.2184  0.3277
 8928TIP3   OH226747   2.542   3.208   4.280  0.5102  0.5093  0.0449
 8928TIP3    H126748   2.529   3.171   4.367 -0.2183 -2.0176 -1.0501
 8928TIP3    H226749   2.635   3.194   4.262 -0.0035 -2.4019 -0.9195
 8929TIP3   OH226750   0.101   3.487   1.779  0.1355 -0.7576 -0.4298
 8929TIP3    H126751   0.107   3.396   1.810  0.9751 -0.0023  1.8302
 8929TIP3    H226752   0.063   3.535   1.853  1.4863  1.0410 -0.8408
 8930TIP3   OH226753   4.306   6.399   0.250  0.2218 -0.0546 -0.0872
 8930TIP3    H126754   4.258   6.471   0.291  1.0013  0.4786 -0.0833
 8930TIP3    H226755   4.293   6.412   0.156  2.2148  1.4845 -0.2299
 8931TIP3   OH226756   1.344   5.176   5.659  0.1998  0.6973  0.1971
 8931TIP3    H126757   1.346   5.128   5.576 -0.3571  0.1211  0.5135
 8931TIP3    H226758   1.280   5.130   5.712  2.1651 -0.3079  1.8117
 8932TIP3   OH226759   1.887   4.441   5.506  0.0650  0.4907 -0.0380
 8932TIP3    H126760   1.972   4.418   5.545 -0.5731 -1.1273  0.5055
 8932TIP3    H226761   1.906   4.513   5.446  1.6123  0.9489  0.9539
 8933TIP3   OH226762   6.281   0.311   4.896  0.0919 -0.7586  0.1078
 8933TIP3    H126763   6.372   0.287   4.878  0.8269  2.0385 -0.3042
 8933TIP3    H226764   6.240   0.319   4.810 -0.3628 -1.2284  0.2701
 8934TIP3   OH226765   3.577   0.034   1.558  0.7271 -0.2010  0.0953
 8934TIP3    H126766   3.670   0.015   1.545  0.7395 -0.5897  0.7110
 8934TIP3    H226767   3.544   0.053   1.470  1.5719  0.8162 -0.0310
 8935TIP3   OH226768   3.857   3.168   4.254  0.1321 -0.4335 -0.0927
 8935TIP3    H126769   3.916   3.205   4.320 -2.0729  0.4026  1.5303
 8935TIP3    H226770   3.846   3.077   4.281 -0.3990 -0.2152  0.4580
 8936TIP3   OH226771   4.856   4.255   1.309  0.0975  0.2426  0.0376
 8936TIP3    H126772   4.837   4.287   1.397 -0.1434 -1.1676  0.5324
 8936TIP3    H226773   4.771   4.230   1.273  0.4843 -2.6725  0.8704
 8937TIP3   OH226774   6.108   3.296   5.029  0.4280 -0.0728  0.3711
 8937TIP3    H126775   6.102   3.242   4.949 -2.3482 -1.7873  1.5771
 8937TIP3    H226776   6.200   3.290   5.055  0.2536 -5.0577  0.8102
 8938TIP3   OH226777   0.404   1.198   2.314  0.0050 -0.4475  0.1080
 8938TIP3    H126778   0.394   1.247   2.396  1.3140 -0.7512  0.4766
 8938TIP3    H226779   0.420   1.108   2.343  1.4626 -0.3853 -0.4268
 8939TIP3   OH226780   5.486   6.202   1.701 -0.0680  0.4422  0.1924
 8939TIP3    H126781   5.414   6.235   1.647 -0.7993 -1.5537 -0.1798
 8939TIP3    H226782   5.477   6.247   1.785 -1.2479  0.8347 -0.1268
 8940TIP3   OH226783   4.667   1.095   4.062  0.0351 -0.1269  0.5850
 8940TIP3    H126784   4.736   1.067   4.002  0.3015  0.5725  0.5579
 8940TIP3    H226785   4.585   1.074   4.017  0.2067 -1.4549  0.8413
 8941TIP3   OH226786   0.645   0.830   4.710  0.0004 -0.0757 -0.0713
 8941TIP3    H126787   0.629   0.924   4.709  0.0958 -0.0229 -2.1165
 8941TIP3    H226788   0.733   0.821   4.747  0.0280  0.6446  0.0524
 8942TIP3   OH226789   4.676   5.271   5.624  0.0274 -0.0189  0.3301
 8942TIP3    H126790   4.583   5.253   5.617 -0.4031  1.1939  2.1557
 8942TIP3    H226791   4.700   5.240   5.711  0.6696  2.1386  0.9911
 8943TIP3   OH226792   1.370   3.263   5.630  0.1401 -0.5593  0.6706
 8943TIP3    H126793   1.397   3.221   5.712  0.7859  2.3096  2.0714
 8943TIP3    H226794   1.450   3.303   5.596 -0.6823  0.8182  0.2699
 8944TIP3   OH226795   6.045   1.075   1.564 -0.5926  0.3719  0.2334
 8944TIP3    H126796   6.006   1.111   1.644 -2.1333 -0.0648 -0.2763
 8944TIP3    H226797   6.053   0.981   1.583  0.9883  0.5571  0.6104
 8945TIP3   OH226798   1.168   0.802   4.351 -0.5572 -0.5465 -0.0052
 8945TIP3    H126799   1.189   0.893   4.330  0.7601 -0.9606 -0.5935
 8945TIP3    H226800   1.198   0.791   4.441  0.3316 -0.6929 -0.3083
 8946TIP3   OH226801   6.003   1.945   4.132  0.0027  0.4820  0.3465
 8946TIP3    H126802   6.036   2.031   4.110  1.1393  0.0750  0.4063
 8946TIP3    H226803   6.038   1.887   4.064 -0.2534 -0.0307  0.6363
 8947TIP3   OH226804   6.041   2.230   4.119  0.1193 -0.1132  0.2138
 8947TIP3    H126805   6.136   2.233   4.112  0.1481  1.2517  0.9463
 8947TIP3    H226806   6.022   2.266   4.205 -1.0104 -1.5888  0.6320
 8948TIP3   OH226807   2.394   4.921   0.356 -0.3892 -0.3349 -0.0999
 8948TIP3    H126808   2.485   4.899   0.335  0.1055  2.3815 -1.1812
 8948TIP3    H226809   2.395   4.944   0.449 -0.0843 -0.7960  0.0130
 8949TIP3   OH226810   5.471   5.857   0.444 -0.3416 -0.6068 -0.1148
 8949TIP3    H126811   5.563   5.841   0.425 -0.1249  0.3675  0.0458
 8949TIP3    H226812   5.435   5.770   0.463  0.7064 -0.9290  0.5231
 8950TIP3   OH226813   3.442   1.201   4.319 -0.6737  0.2034 -0.5972
 8950TIP3    H126814   3.368   1.158   4.275 -0.7292  1.1248 -1.4498
 8950TIP3    H226815   3.516   1.185   4.260  0.2026 -2.0487  0.9994
 8951TIP3   OH226816   2.957   4.781   1.366 -0.3964  0.0506  1.1201
 8951TIP3    H126817   2.940   4.700   1.317  1.3387 -0.6081  1.5437
 8951TIP3    H226818   3.052   4.790   1.365 -0.5825  2.5455  0.4006
 8952TIP3   OH226819   0.314   1.200   5.469  0.4795 -0.2505  0.6693
 8952TIP3    H126820   0.398   1.199   5.516  2.1493  0.9975 -2.0698
 8952TIP3    H226821   0.306   1.111   5.433  2.0826  0.3340 -1.3034
 8953TIP3   OH226822   5.715   0.045   0.496 -0.6036  0.0476 -0.0128
 8953TIP3    H126823   5.724   0.059   0.402 -1.2702  0.3813 -0.0312
 8953TIP3    H226824   5.624   0.016   0.508 -0.0431 -1.7266  0.3312
 8954TIP3   OH226825   4.919   3.347   1.055  0.5958 -0.2011 -0.5442
 8954TIP3    H126826   4.974   3.377   0.983  1.4370  0.8581  0.5082
 8954TIP3    H226827   4.874   3.270   1.020  2.1362 -0.6249 -1.7032
 8955TIP3   OH226828   5.601   2.647   3.430  0.1050  0.0651  0.1015
 8955TIP3    H126829   5.553   2.684   3.504 -0.3360 -0.0420 -0.1284
 8955TIP3    H226830   5.536   2.640   3.360  0.4849  0.0292 -0.2497
 8956TIP3   OH226831   5.039   4.335   4.491  0.2583 -0.9119  0.0926
 8956TIP3    H126832   5.028   4.422   4.453  2.1420 -1.6165 -2.3192
 8956TIP3    H226833   4.956   4.291   4.473  0.0384 -0.2569 -0.5540
 8957TIP3   OH226834   6.515   4.350   3.295  0.9080 -0.0774 -0.0319
 8957TIP3    H126835   6.535   4.264   3.260 -0.2202 -1.1581  1.8137
 8957TIP3    H226836   6.490   4.334   3.386  0.8519  2.2292  0.4307
 8958TIP3   OH226837   1.108   2.294   1.205 -0.3588  0.2266 -0.0395
 8958TIP3    H126838   1.184   2.322   1.256 -0.6826 -0.1944  0.6827
 8958TIP3    H226839   1.050   2.371   1.204  0.9826  1.3134 -2.4310
 8959TIP3   OH226840   5.873   2.741   2.234 -0.1847  0.6241 -0.0291
 8959TIP3    H126841   5.828   2.786   2.162  0.2469  0.6591 -0.2794
 8959TIP3    H226842   5.901   2.812   2.293  2.3811  0.9342 -1.4770
 8960TIP3   OH226843   6.818   2.406   5.406  0.3491 -0.3710 -0.0054
 8960TIP3    H126844   6.731   2.367   5.420  0.3364 -0.4450 -0.3005
 8960TIP3    H226845   6.807   2.498   5.432  0.0618 -0.2676 -0.4810
 8961TIP3   OH226846   2.464   5.137   0.148  0.0447  0.3602 -0.0503
 8961TIP3    H126847   2.521   5.098   0.082 -0.4208  2.1341 -1.6022
 8961TIP3    H226848   2.498   5.226   0.159  0.3083  0.0099  2.3965
 8962TIP3   OH226849   0.228   4.201   0.136 -0.3914  0.9355 -0.0639
 8962TIP3    H126850   0.256   4.205   0.044  1.8342 -1.2283  0.4034
 8962TIP3    H226851   0.141   4.162   0.133  0.3918 -0.8196 -1.2061
 8963TIP3   OH226852   3.283   1.023   5.672  0.3412  0.2898  0.3208
 8963TIP3    H126853   3.283   0.930   5.697 -3.4440  0.0900  0.0905
 8963TIP3    H226854   3.282   1.022   5.576 -0.0182  0.5646  0.3221
 8964TIP3   OH226855   0.042   5.732   3.912  0.1464 -0.0997 -0.0787
 8964TIP3    H126856  -0.029   5.718   3.850  0.0106 -1.9266  0.4254
 8964TIP3    H226857   0.001   5.777   3.986 -0.6548 -1.6217  0.4472
 8965TIP3   OH226858   4.862   2.538   1.545  0.4667 -0.2055 -0.6035
 8965TIP3    H126859   4.955   2.545   1.522 -0.2632  2.9838 -3.3073
 8965TIP3    H226860   4.852   2.597   1.620  0.4509  0.4281 -1.0944
 8966TIP3   OH226861   2.505   2.436   5.557 -0.4265  0.0282  0.6980
 8966TIP3    H126862   2.535   2.525   5.537  1.0519 -0.4422  0.6603
 8966TIP3    H226863   2.473   2.403   5.473  1.2900 -0.2727  0.1030
 8967TIP3   OH226864   6.122   0.587   1.413 -0.1761  0.5806 -0.0789
 8967TIP3    H126865   6.139   0.518   1.477  0.4508  0.2130 -0.6319
 8967TIP3    H226866   6.186   0.572   1.343 -1.6258  0.2280 -1.3876
 8968TIP3   OH226867   2.457   1.411   4.068  0.2180 -0.2496 -0.0217
 8968TIP3    H126868   2.549   1.432   4.085  0.5458 -1.4253 -0.2490
 8968TIP3    H226869   2.419   1.400   4.155 -0.0976  1.6701  0.1353
 8969TIP3   OH226870   3.771   0.854   2.230  0.1634  0.2625  0.7966
 8969TIP3    H126871   3.703   0.834   2.166 -0.8229  0.0568  1.8638
 8969TIP3    H226872   3.736   0.927   2.280  1.2401  0.9090  0.6370
 8970TIP3   OH226873   1.900   2.774   3.151  0.1245 -0.5494  0.0191
 8970TIP3    H126874   1.905   2.833   3.226  2.2328 -0.7375  0.0995
 8970TIP3    H226875   1.947   2.819   3.082 -0.5008 -1.0339 -0.7369
 8971TIP3   OH226876   2.423   4.799   2.483 -0.1294  0.0766 -0.2103
 8971TIP3    H126877   2.360   4.768   2.418  1.5691  0.2244 -1.9821
 8971TIP3    H226878   2.498   4.829   2.433  1.3032  0.1245  1.8213
 8972TIP3   OH226879   5.590   0.662   1.218 -0.2238 -0.1431 -0.6501
 8972TIP3    H126880   5.658   0.595   1.211 -0.1228 -0.1690  0.4251
 8972TIP3    H226881   5.535   0.634   1.290  1.2014  2.0917  1.4732
 8973TIP3   OH226882   1.718   5.641   3.356 -0.2288 -0.5952 -0.2989
 8973TIP3    H126883   1.765   5.569   3.399  3.5855  1.1564 -1.1229
 8973TIP3    H226884   1.666   5.599   3.288  1.5821 -2.6730 -0.5240
 8974TIP3   OH226885   5.796   4.256   2.751  0.4519  0.1522 -0.2345
 8974TIP3    H126886   5.729   4.250   2.683 -0.8938 -0.1895  1.0801
 8974TIP3    H226887   5.755   4.220   2.829  1.7750  1.0110  0.9125
 8975TIP3   OH226888   6.456   4.394   2.054  0.5268 -0.2570  0.7484
 8975TIP3    H126889   6.371   4.401   2.096  0.0966 -1.7777  0.2216
 8975TIP3    H226890   6.452   4.311   2.005  0.7534  1.6411 -2.7860
 8976TIP3   OH226891   3.560   4.654   1.696 -0.5181  0.4883 -0.4680
 8976TIP3    H126892   3.609   4.735   1.711  0.8319 -0.3422 -0.2531
 8976TIP3    H226893   3.617   4.585   1.730 -2.4997 -0.4129  1.2234
 8977TIP3   OH226894   3.954   1.513   5.238 -0.0638  0.3821 -0.0903
 8977TIP3    H126895   3.937   1.441   5.300 -0.5776  1.6327  1.2775
 8977TIP3    H226896   3.869   1.531   5.199  0.2357 -0.3164 -1.1153
 8978TIP3   OH226897   2.421   0.598   5.376 -0.3272  0.0012  0.5195
 8978TIP3    H126898   2.479   0.533   5.336 -0.7651 -0.0286 -0.0815
 8978TIP3    H226899   2.441   0.593   5.469  0.9223  0.2685  0.2917
 8979TIP3   OH226900   4.487   2.188   2.604 -0.0929  0.5896 -0.7135
 8979TIP3    H126901   4.515   2.178   2.513  2.3287  0.2429 -0.0037
 8979TIP3    H226902   4.548   2.134   2.654  0.9294  3.4580  1.4300
 8980TIP3   OH226903   1.094   0.831   5.033 -0.2894 -0.1035 -0.1803
 8980TIP3    H126904   1.092   0.848   5.127  1.2246 -0.0005 -0.1510
 8980TIP3    H226905   1.095   0.917   4.993  1.4310 -0.0998 -0.1984
 8981TIP3   OH226906   1.998   5.225   3.028  0.3664 -0.3027  0.1439
 8981TIP3    H126907   1.964   5.153   3.082 -0.3435 -0.2750 -0.2464
 8981TIP3    H226908   1.954   5.214   2.944  1.3057 -0.2225 -0.3656
 8982TIP3   OH226909   6.607   3.703   5.520 -0.0192  0.3343  0.3942
 8982TIP3    H126910   6.672   3.716   5.451  0.2322  0.8834  0.7233
 8982TIP3    H226911   6.556   3.784   5.519  0.8948  0.9632  1.7971
 8983TIP3   OH226912   5.299   3.133   4.989  0.0441 -0.0118  0.1037
 8983TIP3    H126913   5.239   3.202   4.959  1.0781  0.3212 -1.2827
 8983TIP3    H226914   5.325   3.160   5.077  1.6171  2.2373 -0.9485
 8984TIP3   OH226915   7.244   4.458   0.362  0.2552  0.0013  0.4860
 8984TIP3    H126916   7.221   4.551   0.362 -1.5820 -0.3945 -0.2320
 8984TIP3    H226917   7.216   4.427   0.449  0.0561 -0.0432  0.4074
 8985TIP3   OH226918   3.806   6.663   1.170 -0.1227  0.0905 -0.0066
 8985TIP3    H126919   3.870   6.671   1.099  2.2969  1.7508  2.1505
 8985TIP3    H226920   3.777   6.753   1.186 -0.2719 -0.1796  1.3757
 8986TIP3   OH226921   5.007   5.888   5.805  0.2494  0.3725  0.3359
 8986TIP3    H126922   5.071   5.957   5.824  0.9194  0.6490 -2.4845
 8986TIP3    H226923   4.934   5.906   5.864  1.7364  1.5306  1.9161
 8987TIP3   OH226924   4.374   5.022   1.450 -0.1386 -0.3355 -0.0545
 8987TIP3    H126925   4.404   4.934   1.429  0.3335  0.3069 -2.2570
 8987TIP3    H226926   4.428   5.080   1.397  0.4341  1.4177  2.2952
 8988TIP3   OH226927   3.743   5.164   2.877 -0.3816  0.0593  0.1886
 8988TIP3    H126928   3.684   5.160   2.801  0.1565  0.5836 -0.2652
 8988TIP3    H226929   3.774   5.074   2.887 -1.5260 -0.2992  0.6542
 8989TIP3   OH226930   0.398   3.706   0.849  0.2836  1.2144 -0.2043
 8989TIP3    H126931   0.320   3.665   0.886 -0.4058  0.3784 -2.4135
 8989TIP3    H226932   0.449   3.634   0.813  1.6305  1.8495  0.3677
 8990TIP3   OH226933   1.522   2.111   2.103  0.2241 -0.0758 -0.5234
 8990TIP3    H126934   1.439   2.159   2.107  1.9924  3.1831  1.2125
 8990TIP3    H226935   1.518   2.050   2.176 -0.6056  0.0783 -0.4259
 8991TIP3   OH226936   4.779   2.598   0.341 -0.0319  0.0379 -0.0416
 8991TIP3    H126937   4.698   2.577   0.294 -0.3403  0.8654  0.1079
 8991TIP3    H226938   4.849   2.578   0.279 -0.3306 -0.8764 -0.1058
 8992TIP3   OH226939   6.588   0.299   1.882  0.3248  0.3081  0.5212
 8992TIP3    H126940   6.505   0.251   1.884  0.3979  0.0767 -0.7985
 8992TIP3    H226941   6.562   0.390   1.870  0.2410  0.2979  0.6302
 8993TIP3   OH226942   2.037   4.239   4.339  0.2531 -1.2092  0.5505
 8993TIP3    H126943   2.074   4.168   4.287  1.1851 -0.4788  0.1885
 8993TIP3    H226944   2.105   4.307   4.340 -0.5632 -0.3658  0.9898
 8994TIP3   OH226945   0.420   1.095   3.628  0.4105  0.8567 -0.1803
 8994TIP3    H126946   0.456   1.155   3.563  0.4088  0.3218 -0.6885
 8994TIP3    H226947   0.339   1.063   3.588 -0.3283  1.5905  0.6873
 8995TIP3   OH226948   2.193   1.879   0.824  0.0009 -0.2632 -0.0287
 8995TIP3    H126949   2.157   1.964   0.798  1.1413  0.3073  0.2124
 8995TIP3    H226950   2.159   1.818   0.759 -0.3048  0.4906 -0.5921
 8996TIP3   OH226951   0.994   6.216   2.784  0.3857 -0.0041  0.1169
 8996TIP3    H126952   0.933   6.164   2.733  0.5599 -0.2233  0.1312
 8996TIP3    H226953   1.009   6.294   2.731 -0.2246  0.2448  0.3021
 8997TIP3   OH226954   1.084   3.620   1.893 -0.5518  0.1833 -0.0317
 8997TIP3    H126955   0.995   3.594   1.871  0.0046  0.0505 -2.3640
 8997TIP3    H226956   1.100   3.699   1.842  0.2504  0.9735  1.3713
 8998TIP3   OH226957   5.532   1.544   4.976 -0.0008 -0.4677  0.4930
 8998TIP3    H126958   5.468   1.513   5.041 -0.7825  0.0500 -0.0166
 8998TIP3    H226959   5.489   1.618   4.934  1.2636  0.4062  0.6922
 8999TIP3   OH226960   2.283   0.810   2.900 -0.4344  0.1388 -0.0671
 8999TIP3    H126961   2.263   0.798   2.993  1.4780 -0.3138  0.3117
 8999TIP3    H226962   2.264   0.902   2.883  0.2534  0.4983  1.0531
 9000TIP3   OH226963   6.246   3.214   4.092 -0.3524  0.3817  0.2872
 9000TIP3    H126964   6.209   3.145   4.148 -0.3140  1.6345  1.9349
 9000TIP3    H226965   6.340   3.195   4.091 -0.6843 -1.9132 -2.6617
 9001TIP3   OH226966   5.709   1.592   3.617 -0.1851 -0.1527  0.4246
 9001TIP3    H126967   5.677   1.556   3.535  0.7123 -0.3320  0.1436
 9001TIP3    H226968   5.787   1.540   3.638  0.8809  1.2908  0.2406
 9002TIP3   OH226969   1.365   4.884   5.898  0.3876 -0.4624 -0.4941
 9002TIP3    H126970   1.289   4.943   5.898  1.6945  1.2819  0.1142
 9002TIP3    H226971   1.326   4.797   5.905 -1.5580  0.4200  0.7379
 9003TIP3   OH226972   6.635   2.558   0.396 -0.3901  0.5296 -0.6578
 9003TIP3    H126973   6.696   2.608   0.342 -1.2646 -0.2849 -2.4737
 9003TIP3    H226974   6.680   2.475   0.413 -1.0178 -0.1429 -2.1496
 9004TIP3   OH226975   5.117   0.043   1.524  0.7429  0.3530  0.6616
 9004TIP3    H126976   5.138   0.134   1.505  0.0602  0.5136  0.6698
 9004TIP3    H226977   5.159  -0.007   1.454 -0.0746  0.7848 -0.1523
 9005TIP3   OH226978   5.439   4.810   1.092  0.8015  0.2667 -0.5376
 9005TIP3    H126979   5.404   4.812   1.003  1.5749  2.2097 -0.8359
 9005TIP3    H226980   5.532   4.789   1.081  0.7829 -0.0447 -0.1337
 9006TIP3   OH226981   3.216   6.182   0.628  0.1136 -0.3290 -0.2264
 9006TIP3    H126982   3.152   6.137   0.683 -0.6301  0.9420 -0.0184
 9006TIP3    H226983   3.164   6.222   0.558  0.8001 -0.0587 -0.5944
 9007TIP3   OH226984   6.817   4.165   1.199  0.6883  0.7665 -0.1704
 9007TIP3    H126985   6.738   4.207   1.167  1.4643  0.9048 -2.0072
 9007TIP3    H226986   6.832   4.204   1.285 -0.1223  2.2087 -0.6584
 9008TIP3   OH226987   3.262   5.249   0.511  0.4307 -0.2258 -0.0901
 9008TIP3    H126988   3.294   5.336   0.534  1.5500  0.0346 -2.4239
 9008TIP3    H226989   3.177   5.265   0.469 -0.0414 -0.4169  0.7620
 9009TIP3   OH226990   5.478   6.444   4.198 -0.2208  0.0533  0.1072
 9009TIP3    H126991   5.479   6.375   4.131 -0.2503 -0.2245  0.3942
 9009TIP3    H226992   5.553   6.423   4.254  0.0112  0.4821 -0.0346
 9010TIP3   OH226993   2.254   5.054   1.561 -0.1145 -0.7782  0.0814
 9010TIP3    H126994   2.298   5.139   1.571 -0.4166 -0.5917 -0.1237
 9010TIP3    H226995   2.286   5.001   1.634 -0.2466 -0.3448  0.4605
 9011TIP3   OH226996   4.184   2.106   4.038  0.1091 -0.0274  0.1568
 9011TIP3    H126997   4.260   2.094   4.095 -0.1120 -0.6952  0.3146
 9011TIP3    H226998   4.189   2.035   3.975  0.7710  1.1338 -1.1626
 9012TIP3   OH226999   4.840   5.322   4.442  0.1426 -0.1764  0.4744
 9012TIP3    H127000   4.854   5.259   4.372 -4.5407  0.6268 -1.5871
 9012TIP3    H227001   4.885   5.401   4.413  1.5200 -0.9449  0.4205
 9013TIP3   OH227002   5.905   1.491   0.158 -0.2531 -0.0671  0.4084
 9013TIP3    H127003   5.921   1.573   0.112 -1.0800  0.3171  0.7831
 9013TIP3    H227004   5.986   1.473   0.206  0.7439 -0.6368 -1.3995
 9014TIP3   OH227005   3.584   5.168   2.659  0.9061  0.4122 -0.4935
 9014TIP3    H127006   3.510   5.127   2.614  1.4356 -2.9283  1.3763
 9014TIP3    H227007   3.554   5.257   2.677 -3.1674 -1.0190  1.0620
 9015TIP3   OH227008   1.197   0.631   4.868  0.6066 -0.3779  0.3151
 9015TIP3    H127009   1.228   0.561   4.926  0.8394 -0.6421 -0.1188
 9015TIP3    H227010   1.159   0.696   4.927  2.2628  0.1096  0.9088
 9016TIP3   OH227011   5.465   6.305   1.978 -0.4711 -0.0697  0.9230
 9016TIP3    H127012   5.399   6.349   2.031 -0.5775 -0.1272  0.8383
 9016TIP3    H227013   5.544   6.357   1.989 -0.6399  0.2370  0.6854
 9017TIP3   OH227014   5.881   6.606   0.722 -0.1140 -0.6112 -0.1535
 9017TIP3    H127015   5.823   6.530   0.732  0.7515 -1.1868  0.6151
 9017TIP3    H227016   5.867   6.657   0.801  0.5302 -0.8386  0.1162
 9018TIP3   OH227017   0.502   1.887   2.547  0.0032  0.3972 -0.5799
 9018TIP3    H127018   0.546   1.878   2.632 -0.9163 -0.1165 -0.1415
 9018TIP3    H227019   0.492   1.981   2.535  1.2252  0.5199 -0.6957
 9019TIP3   OH227020   4.906   5.824   4.761  0.1909 -0.5279  0.5449
 9019TIP3    H127021   4.870   5.748   4.808  0.0132  0.6164  2.3387
 9019TIP3    H227022   4.890   5.898   4.819  1.0338  0.7916 -0.8362
 9020TIP3   OH227023   1.433   2.367   4.772  0.0109  0.1573  0.2633
 9020TIP3    H127024   1.417   2.458   4.745 -1.1890  0.1467  0.8927
 9020TIP3    H227025   1.382   2.314   4.710  1.0185 -0.1344 -0.3489
 9021TIP3   OH227026   2.312   0.454   0.996  0.1450  0.4069  0.3671
 9021TIP3    H127027   2.398   0.456   1.038  0.2426  0.9143  0.1468
 9021TIP3    H227028   2.263   0.526   1.037 -0.8521 -1.0923  1.9120
 9022TIP3   OH227029   1.765   4.829   0.532 -0.3574 -0.1354 -0.5376
 9022TIP3    H127030   1.815   4.884   0.591 -1.6573 -0.0682  0.5425
 9022TIP3    H227031   1.789   4.860   0.444  1.0351  0.2524 -0.0553
 9023TIP3   OH227032   1.775   6.488   5.290  0.3597  0.5285 -0.3394
 9023TIP3    H127033   1.688   6.478   5.250  0.9324 -1.8514 -1.0949
 9023TIP3    H227034   1.829   6.526   5.220 -0.1650  2.6292  0.3320
 9024TIP3   OH227035   3.519   4.543   4.073 -0.7461  0.1151 -0.2885
 9024TIP3    H127036   3.521   4.447   4.078  3.0427  0.1141  0.7027
 9024TIP3    H227037   3.437   4.562   4.026 -1.2140 -3.6088 -1.3275
 9025TIP3   OH227038   4.224   4.647   5.246  0.1326 -0.4172 -0.2959
 9025TIP3    H127039   4.252   4.728   5.203  2.9129 -0.1731  1.7393
 9025TIP3    H227040   4.171   4.677   5.320 -1.0011 -0.6393 -0.9897
 9026TIP3   OH227041   1.105   3.867   5.648 -0.1779  0.6088  0.1511
 9026TIP3    H127042   1.122   3.960   5.658  1.3747  0.5134 -1.2211
 9026TIP3    H227043   1.166   3.824   5.708 -1.1123  0.4649  1.0199
 9027TIP3   OH227044   4.537   1.015   3.850  0.6148  0.1806  0.2007
 9027TIP3    H127045   4.520   0.941   3.792  2.5958 -0.5357  0.4461
 9027TIP3    H227046   4.540   1.091   3.792  1.7753 -0.4122 -0.5759
 9028TIP3   OH227047   4.222   2.083   4.896 -0.2188 -0.3150  0.0487
 9028TIP3    H127048   4.184   2.044   4.817  1.1600  0.0262 -0.8208
 9028TIP3    H227049   4.302   2.033   4.911  0.4508  0.7744  0.1847
 9029TIP3   OH227050   0.251   2.171   5.183 -0.5779 -0.0900  0.0454
 9029TIP3    H127051   0.223   2.181   5.274 -0.9746 -0.7182 -0.0004
 9029TIP3    H227052   0.346   2.167   5.187 -0.4715  1.7767  0.2391
 9030TIP3   OH227053   6.762   2.492   5.825 -0.1307  0.0149 -0.2969
 9030TIP3    H127054   6.831   2.544   5.785 -0.2470  1.3093  1.0866
 9030TIP3    H227055   6.690   2.495   5.762  0.4742  0.0689 -0.9956
 9031TIP3   OH227056   1.573   1.291   0.572  0.2353 -0.3370 -0.0376
 9031TIP3    H127057   1.577   1.224   0.504 -2.0026  0.4852 -1.0571
 9031TIP3    H227058   1.485   1.327   0.566  1.8021  4.1086 -0.9563
 9032TIP3   OH227059   4.459   3.097   5.012  0.2774 -0.2860 -0.3943
 9032TIP3    H127060   4.539   3.056   4.981 -0.8134 -2.7890 -0.1866
 9032TIP3    H227061   4.412   3.121   4.932  0.5301 -0.2805 -0.5428
 9033TIP3   OH227062   6.712   5.677   1.291 -0.1623  0.1659 -0.4849
 9033TIP3    H127063   6.710   5.751   1.230  0.5109 -0.1918 -0.9500
 9033TIP3    H227064   6.660   5.609   1.249  1.4983 -0.6021 -1.3702
 9034TIP3   OH227065   5.457   5.467   3.026  0.1796  0.2465  0.3907
 9034TIP3    H127066   5.495   5.520   3.096  1.3892 -2.0123  1.5599
 9034TIP3    H227067   5.478   5.515   2.945  0.4544  1.9249  1.4139
 9035TIP3   OH227068   2.841   3.388   4.490  0.5492 -0.1840  0.2329
 9035TIP3    H127069   2.915   3.385   4.551  1.5848 -0.2508 -0.9755
 9035TIP3    H227070   2.807   3.298   4.490  1.0405 -0.3748  0.1280
 9036TIP3   OH227071   4.046   2.760   0.264 -0.1959  0.9100 -0.1491
 9036TIP3    H127072   3.993   2.709   0.203 -0.3586  0.7132  0.1542
 9036TIP3    H227073   4.015   2.733   0.351  1.5721 -0.4868  0.0961
 9037TIP3   OH227074   0.257   0.795   4.646  0.0298 -0.1863 -0.5016
 9037TIP3    H127075   0.223   0.840   4.723  0.8015  1.9004 -1.3103
 9037TIP3    H227076   0.300   0.864   4.595 -0.9650 -1.3445 -3.0896
 9038TIP3   OH227077   2.426   4.852   5.352  0.1296  0.0382 -0.1179
 9038TIP3    H127078   2.369   4.868   5.276  0.5062 -1.0980 -0.6627
 9038TIP3    H227079   2.373   4.798   5.410  0.2607 -0.0807 -0.1095
 9039TIP3   OH227080   2.917   3.807   4.596  0.0837  0.5139  0.3324
 9039TIP3    H127081   2.962   3.729   4.564  0.0620 -0.0863  1.6941
 9039TIP3    H227082   2.847   3.823   4.532  0.2644 -0.4029 -0.1064
 9040TIP3   OH227083   3.588   0.544   5.566 -0.1430  0.1099  0.1258
 9040TIP3    H127084   3.598   0.625   5.518 -1.1318 -0.6842 -1.5118
 9040TIP3    H227085   3.674   0.527   5.604  0.4646  1.1379 -0.7547
 9041TIP3   OH227086   4.732   1.683   0.171  0.5118  0.9555 -0.4268
 9041TIP3    H127087   4.774   1.762   0.207  0.3473  0.7975  0.1169
 9041TIP3    H227088   4.769   1.611   0.222 -1.4140  0.9210  1.0126
 9042TIP3   OH227089   3.739   5.803   3.507  0.4642  0.1513  0.1211
 9042TIP3    H127090   3.648   5.809   3.537  0.1663  0.7258 -0.8270
 9042TIP3    H227091   3.743   5.718   3.463  0.8631 -0.6253  1.6248
 9043TIP3   OH227092   1.288   6.205   2.828 -0.0682 -0.0894 -0.3859
 9043TIP3    H127093   1.200   6.194   2.792  1.3386 -1.9674 -3.5970
 9043TIP3    H227094   1.320   6.286   2.789 -0.3556  0.6941  0.9269
 9044TIP3   OH227095   1.640   5.294   5.669  0.3752  0.2204 -0.2806
 9044TIP3    H127096   1.591   5.212   5.672 -0.1590  0.5412  1.7871
 9044TIP3    H227097   1.727   5.272   5.701 -0.4176  0.7601  2.5629
 9045TIP3   OH227098   0.798   5.829   2.330  0.7307  0.0498  0.2612
 9045TIP3    H127099   0.838   5.864   2.410  0.2503 -0.1231  0.5846
 9045TIP3    H227100   0.751   5.903   2.292  1.7924  0.3932 -0.4109
 9046TIP3   OH227101   2.110   4.011   0.691  0.5040  0.3127  0.2957
 9046TIP3    H127102   2.019   4.036   0.706 -0.2623 -1.9673 -0.1056
 9046TIP3    H227103   2.156   4.093   0.675 -1.2542  1.6060  1.5900
 9047TIP3   OH227104   5.306   2.828   1.266  0.0318  0.3520 -0.1844
 9047TIP3    H127105   5.299   2.911   1.219  0.3823  0.5352  0.0880
 9047TIP3    H227106   5.215   2.805   1.286 -0.0798  0.5747 -0.4236
 9048TIP3   OH227107   2.071   3.983   4.669 -0.1323 -0.5340  0.7844
 9048TIP3    H127108   2.053   4.075   4.691 -0.8105 -0.7126  1.0099
 9048TIP3    H227109   2.165   3.980   4.654 -0.3400  0.6003 -1.0866
 9049TIP3   OH227110   1.209   3.477   2.537  0.1067 -0.5765  0.1518
 9049TIP3    H127111   1.272   3.521   2.594  0.3583 -0.0149 -0.5348
 9049TIP3    H227112   1.255   3.399   2.507 -0.3574 -1.3598  1.4101
 9050TIP3   OH227113   2.815   3.704   5.376 -0.1538 -0.3582  0.1247
 9050TIP3    H127114   2.872   3.636   5.340  0.3423 -0.7718  1.5834
 9050TIP3    H227115   2.779   3.665   5.456 -3.6325 -0.6428 -1.3797
 9051TIP3   OH227116   1.119   6.107   2.259 -0.1571  0.5403 -0.1034
 9051TIP3    H127117   1.038   6.158   2.269  0.4162  1.4573 -0.0719
 9051TIP3    H227118   1.140   6.078   2.348 -0.3333  0.4754 -0.0815
 9052TIP3   OH227119   3.444   6.416   0.190  0.0564  0.3415  0.6402
 9052TIP3    H127120   3.478   6.504   0.205  0.2188  0.0552  2.1418
 9052TIP3    H227121   3.375   6.428   0.125  2.3894  1.0495 -1.8929
 9053TIP3   OH227122   0.101   6.707   5.002  0.0761  0.0183  0.0619
 9053TIP3    H127123   0.014   6.715   5.042  0.2487  1.3690  0.2183
 9053TIP3    H227124   0.091   6.637   4.938 -0.1608 -2.3948  2.5556
 9054TIP3   OH227125   4.176   3.188   3.792 -0.0058  0.2520  0.1572
 9054TIP3    H127126   4.227   3.261   3.757  1.0134 -0.5658 -0.1254
 9054TIP3    H227127   4.153   3.215   3.881  0.6500  0.7757  0.1761
 9055TIP3   OH227128   2.761   5.290   0.986 -0.3594 -0.3407  0.2615
 9055TIP3    H127129   2.716   5.215   0.947 -0.1375 -0.4236  0.1628
 9055TIP3    H227130   2.702   5.319   1.056 -0.2497 -0.8760  0.5882
 9056TIP3   OH227131   2.634   5.910   0.558  0.1420  0.0455  0.1907
 9056TIP3    H127132   2.726   5.899   0.534 -0.2920  0.9032 -2.1260
 9056TIP3    H227133   2.600   5.821   0.566  1.0429 -0.2755  0.5302
 9057TIP3   OH227134   3.342   5.035   2.233 -0.5258 -0.2210  0.3549
 9057TIP3    H127135   3.284   5.043   2.309 -2.8383 -2.5196 -0.9940
 9057TIP3    H227136   3.369   5.125   2.214  1.2625  0.3897  4.5602
 9058TIP3   OH227137   6.074   4.413   3.273 -0.0158 -0.1264  0.0443
 9058TIP3    H127138   6.119   4.392   3.191 -2.0611 -2.1982 -0.6533
 9058TIP3    H227139   6.011   4.481   3.248  1.0556  1.0996  0.5267
 9059TIP3   OH227140   6.371   4.353   3.541  0.4575 -0.2894 -0.2725
 9059TIP3    H127141   6.321   4.273   3.521 -0.2805  0.1603 -0.2672
 9059TIP3    H227142   6.308   4.424   3.528  1.0521  0.2768 -0.0774
 9060TIP3   OH227143   2.659   3.304   2.774 -0.1187 -1.2002 -0.4414
 9060TIP3    H127144   2.645   3.239   2.704 -1.1623  0.4381 -1.8248
 9060TIP3    H227145   2.571   3.333   2.798  0.3176 -0.5019  0.3689
 9061TIP3   OH227146   0.238   3.846   5.090 -0.4961  0.3259 -0.1262
 9061TIP3    H127147   0.224   3.792   5.167 -0.8388 -1.2071 -1.2045
 9061TIP3    H227148   0.251   3.783   5.019 -0.8096  1.6694 -1.4312
 9062TIP3   OH227149   2.069   0.431   5.636  0.7406 -0.6245  0.3183
 9062TIP3    H127150   1.989   0.479   5.659  1.5025  0.1170  1.5573
 9062TIP3    H227151   2.050   0.341   5.661  0.8717 -0.1619  2.2971
 9063TIP3   OH227152   0.763   3.154   0.543  0.1776  0.1183 -0.0125
 9063TIP3    H127153   0.687   3.206   0.520  1.2177  1.2815 -0.9529
 9063TIP3    H227154   0.788   3.186   0.630 -0.6968 -0.6647  0.5557
 9064TIP3   OH227155   6.344   0.471   5.390 -0.4262 -0.1194 -0.0694
 9064TIP3    H127156   6.326   0.377   5.386  0.8534 -0.3446 -1.5312
 9064TIP3    H227157   6.347   0.499   5.299  0.1345  1.1686  0.3181
 9065TIP3   OH227158   0.333   6.745   5.588 -0.2829 -0.3504  0.2893
 9065TIP3    H127159   0.338   6.732   5.682  1.9056  1.4585  0.5166
 9065TIP3    H227160   0.425   6.751   5.560 -0.9062  1.1194 -1.6275
 9066TIP3   OH227161   0.701   0.562   0.477  0.1772  0.7214  0.4806
 9066TIP3    H127162   0.645   0.501   0.526  1.4525  0.3023  1.4704
 9066TIP3    H227163   0.738   0.620   0.543 -0.0313  1.7939 -0.3119
 9067TIP3   OH227164   1.690   2.802   3.878  0.1034 -0.2444 -0.3427
 9067TIP3    H127165   1.680   2.712   3.910  0.1794 -0.1317  0.0059
 9067TIP3    H227166   1.606   2.844   3.897  0.3330 -0.0239  0.2185
 9068TIP3   OH227167   6.802   4.731   0.876  0.2721 -0.1980  0.2069
 9068TIP3    H127168   6.787   4.809   0.928 -0.5124 -0.6512  0.6799
 9068TIP3    H227169   6.803   4.762   0.785 -0.3494  0.3154  0.3722
 9069TIP3   OH227170   2.757   3.063   4.104  0.1338  0.8223  0.3096
 9069TIP3    H127171   2.804   3.025   4.178 -0.6848 -0.1534  0.3483
 9069TIP3    H227172   2.700   2.993   4.073  0.0585  1.3877 -0.9086
 9070TIP3   OH227173   4.602   6.537   4.825 -0.1176  0.0078 -0.3186
 9070TIP3    H127174   4.547   6.541   4.904 -0.6226 -0.9555 -0.5997
 9070TIP3    H227175   4.654   6.617   4.827  1.2257 -0.8293  1.9868
 9071TIP3   OH227176   5.726   5.911   4.519  0.0929  0.4114 -0.4315
 9071TIP3    H127177   5.782   5.835   4.504 -1.2685 -0.9944  1.2042
 9071TIP3    H227178   5.719   5.953   4.433  0.7637 -1.3998 -1.4267
 9072TIP3   OH227179   2.889   5.846   5.586 -0.1737  0.1228 -0.0288
 9072TIP3    H127180   2.800   5.866   5.616 -0.3215 -2.3695  1.5096
 9072TIP3    H227181   2.944   5.864   5.662  0.0144 -2.2149  0.4886
 9073TIP3   OH227182   3.927   6.450   3.098 -0.2819 -0.0624  0.3329
 9073TIP3    H127183   3.963   6.536   3.121  1.5272 -0.7228  0.1284
 9073TIP3    H227184   3.884   6.464   3.014  2.1430  0.1634 -0.9365
 9074TIP3   OH227185   5.802   2.319   3.181  0.1989  0.2323 -0.4370
 9074TIP3    H127186   5.732   2.270   3.225  0.2027  0.1917 -0.4760
 9074TIP3    H227187   5.774   2.411   3.186  1.4315  0.5586  1.9624
 9075TIP3   OH227188   6.226   5.071   2.454  0.2573  0.2708  0.2332
 9075TIP3    H127189   6.219   5.134   2.526 -0.9143  1.4868 -0.8971
 9075TIP3    H227190   6.136   5.044   2.437  0.8048 -2.8361  1.5606
 9076TIP3   OH227191   0.887   1.752   3.069  0.0588 -0.3763 -0.2118
 9076TIP3    H127192   0.904   1.846   3.077 -2.1922  0.0218  0.4743
 9076TIP3    H227193   0.974   1.714   3.055  1.3661  1.5542  1.8184
 9077TIP3   OH227194   6.119   2.363   3.328  0.2572  0.2354 -0.4149
 9077TIP3    H127195   6.110   2.392   3.419 -0.2286  0.1639 -0.4375
 9077TIP3    H227196   6.165   2.434   3.284 -1.3842  1.2334 -0.5910
 9078TIP3   OH227197   5.096   2.501   5.634  0.1665 -0.3994 -0.0563
 9078TIP3    H127198   5.126   2.587   5.666  0.5621  0.1234 -1.7347
 9078TIP3    H227199   5.056   2.460   5.711 -1.3698  1.8730  0.4818
 9079TIP3   OH227200   1.468   6.282   5.514  0.2645  0.1449 -0.0132
 9079TIP3    H127201   1.535   6.346   5.538 -0.2075  0.9985 -0.9038
 9079TIP3    H227202   1.481   6.266   5.421 -0.4549 -0.0475 -0.0895
 9080TIP3   OH227203   2.206   2.648   1.255  0.2700 -0.5259  0.1545
 9080TIP3    H127204   2.145   2.716   1.226 -0.9193 -0.4396  2.6011
 9080TIP3    H227205   2.239   2.609   1.174 -1.2096  1.0285 -1.2828
 9081TIP3   OH227206   2.638   2.024   4.126  0.1329 -0.1388  0.2007
 9081TIP3    H127207   2.732   2.038   4.119  0.3770 -1.4021  0.8289
 9081TIP3    H227208   2.616   2.045   4.216 -0.9182  3.9664 -0.7863
 9082TIP3   OH227209   0.518   0.794   5.585 -0.8306 -0.2933 -0.4142
 9082TIP3    H127210   0.576   0.856   5.541 -0.6546 -0.1877 -0.0355
 9082TIP3    H227211   0.483   0.739   5.514 -0.2202 -0.3961 -0.6394
 9083TIP3   OH227212   3.826   4.119   5.104  0.0198 -0.2046 -0.0778
 9083TIP3    H127213   3.731   4.130   5.097  0.1732  1.5109  0.0068
 9083TIP3    H227214   3.861   4.164   5.026  0.8378  1.5503  1.2203
 9084TIP3   OH227215   4.213   4.403   0.948 -0.3441  0.0436  0.0806
 9084TIP3    H127216   4.260   4.475   0.990 -0.8659  0.1993  0.4005
 9084TIP3    H227217   4.135   4.390   1.002 -0.6504 -0.2401 -0.4210
 9085TIP3   OH227218   6.069   2.108   0.234  0.0020  0.2326  0.1088
 9085TIP3    H127219   6.071   2.160   0.154  2.1189  2.4632  1.4619
 9085TIP3    H227220   5.979   2.078   0.241 -0.4297  0.6220 -2.6584
 9086TIP3   OH227221   3.074   3.452   3.200 -0.1010  0.1826  0.5576
 9086TIP3    H127222   3.017   3.457   3.123  0.6541 -1.5127 -0.1668
 9086TIP3    H227223   3.029   3.390   3.258 -0.3822  1.0197  1.2556
 9087TIP3   OH227224   4.893   2.853   2.859 -0.0568  0.2714  0.4121
 9087TIP3    H127225   4.971   2.898   2.889  0.2933  0.9801 -1.3869
 9087TIP3    H227226   4.883   2.882   2.768  0.3613 -3.5125 -1.0172
 9088TIP3   OH227227   4.300   2.496   4.585  0.0210  0.1794  0.0312
 9088TIP3    H127228   4.218   2.479   4.538 -0.2746  1.4448  0.0426
 9088TIP3    H227229   4.356   2.539   4.521  1.2794 -1.9955 -0.4275
 9089TIP3   OH227230   3.726   4.948   1.118  0.2775 -0.2453  0.5539
 9089TIP3    H127231   3.746   4.941   1.025  0.4268  1.2521  0.4418
 9089TIP3    H227232   3.797   5.001   1.154 -0.0088 -0.4393  1.4300
 9090TIP3   OH227233   4.866   4.287   0.361  0.1851 -0.2889  0.0143
 9090TIP3    H127234   4.952   4.246   0.364  1.0589  1.4690  0.3463
 9090TIP3    H227235   4.871   4.348   0.287 -0.9435 -0.5231 -0.2684
 9091TIP3   OH227236   0.840   3.567   3.240  0.5516 -0.2703 -0.5478
 9091TIP3    H127237   0.889   3.532   3.315 -0.6023 -0.5937  0.0772
 9091TIP3    H227238   0.897   3.551   3.165  0.9993 -1.5040  0.0242
 9092TIP3   OH227239   0.449   1.583   0.731  0.0407 -0.4443 -0.4247
 9092TIP3    H127240   0.481   1.597   0.642 -0.9262  1.7779 -0.4979
 9092TIP3    H227241   0.366   1.538   0.720 -0.8355  1.1860 -0.8027
 9093TIP3   OH227242   5.014   3.020   3.843  0.1024 -0.0620 -0.0190
 9093TIP3    H127243   5.087   3.079   3.860 -0.0525  0.1618 -0.1158
 9093TIP3    H227244   5.045   2.963   3.772  0.1959  0.0065 -0.0328
 9094TIP3   OH227245   1.924   4.480   2.254 -0.3279 -0.2612  0.2815
 9094TIP3    H127246   1.897   4.442   2.337 -0.6802  2.3062  1.4460
 9094TIP3    H227247   1.850   4.465   2.195 -1.2085  0.2151  1.2403
 9095TIP3   OH227248   6.410   5.109   4.162 -0.1725  0.6554  0.2527
 9095TIP3    H127249   6.477   5.136   4.099 -0.3781  1.6917  0.4598
 9095TIP3    H227250   6.339   5.073   4.108  0.0261  0.7015 -0.0433
 9096TIP3   OH227251   0.245   2.771   3.437 -0.1684 -0.2601 -0.2364
 9096TIP3    H127252   0.167   2.786   3.383 -2.1709 -1.1558  2.2205
 9096TIP3    H227253   0.296   2.707   3.386 -1.8274 -0.8762 -1.2304
 9097TIP3   OH227254   2.023   5.013   0.488 -0.2167 -0.5178 -0.2412
 9097TIP3    H127255   1.994   4.988   0.575 -0.9361 -0.3704 -0.4304
 9097TIP3    H227256   1.965   5.085   0.463  1.7662  1.3818  0.2855
 9098TIP3   OH227257   6.675   3.484   2.652  0.0652 -0.1787  0.2876
 9098TIP3    H127258   6.748   3.487   2.589  0.1541 -1.2012  0.3310
 9098TIP3    H227259   6.709   3.433   2.725 -0.8955 -1.1760  0.0490
 9099TIP3   OH227260   1.619   3.358   1.309  0.1574  0.4748 -0.4450
 9099TIP3    H127261   1.637   3.348   1.216  2.7681 -2.4705  0.2065
 9099TIP3    H227262   1.681   3.425   1.339 -1.1402  1.9175 -0.8451
 9100TIP3   OH227263   4.738   1.540   5.844 -0.6896 -0.1781  0.2557
 9100TIP3    H127264   4.660   1.595   5.855 -1.3254 -1.1933  1.0395
 9100TIP3    H227265   4.704   1.450   5.846  0.5966 -0.6711  1.6889
 9101TIP3   OH227266   4.346   1.439   2.393 -0.1274  0.2009  0.2295
 9101TIP3    H127267   4.414   1.502   2.369 -0.4235  0.4128 -0.0627
 9101TIP3    H227268   4.393   1.366   2.431  0.2988  0.1690 -0.3481
 9102TIP3   OH227269   7.127   2.692   5.427  0.3636  0.5087 -0.0966
 9102TIP3    H127270   7.133   2.787   5.423 -1.3223  0.6538  0.2101
 9102TIP3    H227271   7.155   2.662   5.341  0.3304  1.3080 -0.3913
 9103TIP3   OH227272   6.404   0.094   1.258 -0.3305  0.0293  0.3133
 9103TIP3    H127273   6.314   0.120   1.236 -0.4517  0.1593  0.9589
 9103TIP3    H227274   6.458   0.166   1.226 -0.4837  0.0939  0.1996
 9104TIP3   OH227275   6.496   4.828   4.996 -0.4528  0.0442 -0.2482
 9104TIP3    H127276   6.454   4.842   5.081 -1.5156 -2.0558 -0.3805
 9104TIP3    H227277   6.589   4.819   5.017 -0.7131 -0.5927  0.7276
 9105TIP3   OH227278   4.291   2.894   2.863 -0.2317 -0.1883  0.1021
 9105TIP3    H127279   4.261   2.977   2.827 -1.1630  0.3999  2.0897
 9105TIP3    H227280   4.374   2.915   2.906 -0.2652 -0.3706  0.2583
 9106TIP3   OH227281   0.742   6.012   0.481  0.4168  0.2787  0.7707
 9106TIP3    H127282   0.748   5.920   0.506  1.1610 -0.3265 -1.3311
 9106TIP3    H227283   0.649   6.033   0.484 -0.0476 -1.2951 -0.9605
 9107TIP3   OH227284   2.182   4.746   1.100 -0.1414 -0.3831 -0.3351
 9107TIP3    H127285   2.111   4.682   1.093  0.4298 -1.3789  1.8601
 9107TIP3    H227286   2.256   4.705   1.056 -0.6167  0.2155 -1.7413
 9108TIP3   OH227287   6.238   5.305   4.302 -0.4290 -0.0499  0.0207
 9108TIP3    H127288   6.193   5.245   4.362  0.1425  0.1042  0.6068
 9108TIP3    H227289   6.303   5.250   4.258 -1.0158 -0.2189 -0.6504
 9109TIP3   OH227290   4.682   0.429   1.376 -0.0382 -0.6295 -0.0064
 9109TIP3    H127291   4.626   0.428   1.454 -1.9301 -0.8789 -1.2819
 9109TIP3    H227292   4.666   0.344   1.334 -0.0570 -0.0080 -1.3004
 9110TIP3   OH227293   7.194   4.836   4.521 -0.4974 -0.2275 -0.6252
 9110TIP3    H127294   7.252   4.862   4.449  1.6347 -0.3042  0.9656
 9110TIP3    H227295   7.221   4.892   4.594  0.2851 -2.8720  1.2531
 9111TIP3   OH227296   5.201   0.352   0.921 -0.3441  0.1755 -0.5270
 9111TIP3    H127297   5.144   0.390   0.988  0.9998 -3.2923  2.9919
 9111TIP3    H227298   5.284   0.399   0.932 -0.2015 -0.2153  0.1363
 9112TIP3   OH227299   3.110   4.261   2.523 -0.4025 -0.1095 -0.1015
 9112TIP3    H127300   3.070   4.334   2.476  2.2198  1.4295 -0.1702
 9112TIP3    H227301   3.053   4.246   2.598 -2.0984  0.6254 -1.1936
 9113TIP3   OH227302   5.662   3.928   4.204 -0.1342 -0.1935  0.4702
 9113TIP3    H127303   5.737   3.935   4.264 -0.6694 -1.2313  1.2865
 9113TIP3    H227304   5.665   4.009   4.153  0.2772  0.7875  1.9757
 9114TIP3   OH227305   3.503   2.979   0.745 -0.0608 -0.1472  0.1100
 9114TIP3    H127306   3.425   2.968   0.690 -0.4225  1.3838  0.2622
 9114TIP3    H227307   3.549   3.054   0.706  1.5007 -1.1921 -0.1322
 9115TIP3   OH227308   5.091   2.781   5.798  0.1122  0.3727  0.0992
 9115TIP3    H127309   5.172   2.811   5.759 -0.0019  1.1777  0.4741
 9115TIP3    H227310   5.026   2.846   5.773  0.0702  1.0258  1.7542
 9116TIP3   OH227311   1.120   5.011   1.297 -0.5220 -0.1016 -0.5164
 9116TIP3    H127312   1.150   5.073   1.230 -0.2209 -0.0831 -0.3662
 9116TIP3    H227313   1.036   5.046   1.326 -0.9689 -0.4736 -1.3603
 9117TIP3   OH227314   5.387   2.032   3.190  0.4726  0.0530  0.3441
 9117TIP3    H127315   5.407   1.985   3.271 -0.3205 -0.5229  0.2185
 9117TIP3    H227316   5.297   2.007   3.169  0.1726  1.3176  0.0403
 9118TIP3   OH227317   2.251   6.526   0.582  0.1657  0.2710  1.1425
 9118TIP3    H127318   2.249   6.440   0.539  1.2814  0.1840  1.2205
 9118TIP3    H227319   2.160   6.555   0.582 -0.0157 -0.1955 -0.3134
 9119TIP3   OH227320   2.991   4.900   1.042  0.0525  0.2793  0.3312
 9119TIP3    H127321   2.997   4.885   0.948  0.3743  1.3968  0.1587
 9119TIP3    H227322   3.047   4.834   1.081  0.8579  0.5588 -0.3346
 9120TIP3   OH227323   5.696   2.860   4.258 -0.0678  0.4417 -0.7570
 9120TIP3    H127324   5.616   2.887   4.301 -0.2807  0.0388 -0.8967
 9120TIP3    H227325   5.694   2.764   4.259 -0.0213  0.4204 -1.5400
 9121TIP3   OH227326   2.111   1.721   1.026 -0.4118  0.0544  0.3697
 9121TIP3    H127327   2.153   1.642   0.992  0.0332  0.0689  0.8643
 9121TIP3    H227328   2.152   1.793   0.978 -0.5811  0.0090  0.1542
 9122TIP3   OH227329   6.610   2.083   4.550 -0.0696 -0.0901 -0.4134
 9122TIP3    H127330   6.644   2.030   4.622  0.0931  0.6490  0.0736
 9122TIP3    H227331   6.529   2.040   4.524  0.3149 -0.8531 -0.3672
 9123TIP3   OH227332   5.919   3.167   1.465  0.1469 -0.7495 -0.5898
 9123TIP3    H127333   5.944   3.154   1.557 -0.4162 -1.4173 -0.5247
 9123TIP3    H227334   5.922   3.079   1.427  1.0857 -0.3766 -1.4018
 9124TIP3   OH227335   6.977   1.506   3.845  0.3261 -0.3273  0.1277
 9124TIP3    H127336   7.052   1.566   3.849  0.4240 -0.5196  2.8361
 9124TIP3    H227337   7.016   1.419   3.851 -0.0760 -0.4566  0.9209
 9125TIP3   OH227338   3.997   1.131   3.254  0.0044 -0.5575  0.2123
 9125TIP3    H127339   3.991   1.147   3.160  0.5743  0.3687  0.3259
 9125TIP3    H227340   4.042   1.046   3.261  2.3843  0.5690 -0.3391
 9126TIP3   OH227341   6.724   3.791   0.721 -0.1251 -0.0377  0.0320
 9126TIP3    H127342   6.796   3.844   0.685 -0.7510  0.6149 -0.2930
 9126TIP3    H227343   6.660   3.787   0.649  0.1628 -1.7665 -0.1749
 9127TIP3   OH227344   0.923   5.877   1.446  0.1968  0.6235  0.2957
 9127TIP3    H127345   0.920   5.882   1.350  0.9993  1.2043  0.2809
 9127TIP3    H227346   0.987   5.944   1.470  0.7239 -0.1784  1.1751
 9128TIP3   OH227347   3.392   4.853   3.899 -0.0232  0.3658 -0.4499
 9128TIP3    H127348   3.473   4.843   3.949  0.4134 -0.4775 -1.2955
 9128TIP3    H227349   3.416   4.828   3.810 -1.5808 -1.5144 -0.4019
 9129TIP3   OH227350   6.704   5.175   3.052  0.1978  0.3161  0.1028
 9129TIP3    H127351   6.783   5.125   3.032 -0.7921 -1.2632 -0.0214
 9129TIP3    H227352   6.686   5.156   3.144  0.8702  2.0243  0.6210
 9130TIP3   OH227353   2.442   2.093   1.917 -0.0711  0.2990  0.0462
 9130TIP3    H127354   2.356   2.052   1.908  0.3201 -0.6908  0.6847
 9130TIP3    H227355   2.425   2.175   1.963 -0.8234  0.7355 -0.9652
 9131TIP3   OH227356   0.038   0.374   1.647  0.1797  0.0915  0.0102
 9131TIP3    H127357  -0.038   0.373   1.704 -0.7149 -0.1078 -1.1393
 9131TIP3    H227358   0.083   0.292   1.666  0.3852  0.4260  1.0341
 9132TIP3   OH227359   4.601   4.811   1.643  0.0357 -0.1186 -0.0164
 9132TIP3    H127360   4.509   4.824   1.669  0.2442  1.8848 -0.0975
 9132TIP3    H227361   4.619   4.720   1.665 -1.8201 -0.4206  0.4903
 9133TIP3   OH227362   3.668   3.663   3.745 -0.0248 -0.1649  0.1839
 9133TIP3    H127363   3.623   3.580   3.725  0.9890 -1.1212  1.6627
 9133TIP3    H227364   3.608   3.709   3.803 -0.2717 -0.2157 -0.0310
 9134TIP3   OH227365   0.151   3.891   5.733 -0.4128 -0.7588  0.6111
 9134TIP3    H127366   0.159   3.820   5.670 -0.0153 -0.2030  0.0267
 9134TIP3    H227367   0.179   3.853   5.816  0.0548 -1.2114  0.2523
 9135TIP3   OH227368   5.396   2.294   0.810 -0.3163  0.0649  0.3402
 9135TIP3    H127369   5.436   2.296   0.723  0.8733 -1.5591  0.7917
 9135TIP3    H227370   5.465   2.327   0.868 -0.2169 -1.1227  0.9282
 9136TIP3   OH227371   1.460   0.958   4.809 -0.2133  0.0010  0.0093
 9136TIP3    H127372   1.496   0.870   4.820 -0.7920 -0.4955 -1.7652
 9136TIP3    H227373   1.475   1.001   4.894 -0.3410 -1.9353  1.0580
 9137TIP3   OH227374   1.708   2.209   0.514  0.0472  0.0567 -0.1002
 9137TIP3    H127375   1.632   2.247   0.471 -0.5580 -0.5013  0.4588
 9137TIP3    H227376   1.674   2.173   0.596  0.6968 -1.2449 -0.3869
 9138TIP3   OH227377   2.363   4.013   4.386 -0.3424 -0.2628  0.1004
 9138TIP3    H127378   2.436   4.028   4.327  0.0904 -1.9722  0.1628
 9138TIP3    H227379   2.286   4.044   4.338  0.4896  2.7748  0.5345
 9139TIP3   OH227380   1.587   6.372   0.136  0.5287 -0.3647  0.1845
 9139TIP3    H127381   1.665   6.411   0.177  0.6024  0.2888 -0.5606
 9139TIP3    H227382   1.619   6.338   0.053  0.3906 -1.7421  0.6677
 9140TIP3   OH227383   5.535   6.144   0.847 -0.1870  0.0277 -0.2829
 9140TIP3    H127384   5.451   6.183   0.823 -0.9979 -1.3873  0.0986
 9140TIP3    H227385   5.595   6.173   0.780 -0.7324  1.8907 -0.0099
 9141TIP3   OH227386   5.496   5.913   1.527 -0.6220  0.0171 -0.1821
 9141TIP3    H127387   5.474   6.003   1.502 -0.0573  0.2334  0.0919
 9141TIP3    H227388   5.492   5.913   1.622  2.0669  0.4840 -0.0013
 9142TIP3   OH227389   6.987   6.291   1.421 -1.0061 -0.3743  0.3639
 9142TIP3    H127390   7.046   6.275   1.495 -0.5188  2.2998  0.6820
 9142TIP3    H227391   7.041   6.278   1.343 -0.4019  0.5507  0.6154
 9143TIP3   OH227392   3.762   5.861   2.796 -0.8986  0.3663  0.6939
 9143TIP3    H127393   3.853   5.869   2.825 -0.9929 -1.7802  1.7695
 9143TIP3    H227394   3.768   5.857   2.701  0.3311 -1.2138  0.7885
 9144TIP3   OH227395   3.420   6.556   2.898  0.8746  0.6451  0.2395
 9144TIP3    H127396   3.406   6.540   2.805 -0.2793  2.4043  0.0673
 9144TIP3    H227397   3.346   6.512   2.940  1.7940 -0.7980  0.4474
 9145TIP3   OH227398   4.796   4.739   5.506 -0.1540  0.0099 -0.0545
 9145TIP3    H127399   4.727   4.726   5.572  0.1101  0.7067  0.3699
 9145TIP3    H227400   4.784   4.829   5.478  0.3240 -0.0012 -0.2901
 9146TIP3   OH227401   3.223   5.638   3.115 -0.1271  0.6181 -0.4206
 9146TIP3    H127402   3.227   5.587   3.034  1.1607 -0.7884  0.4865
 9146TIP3    H227403   3.256   5.725   3.090  2.4354 -0.4322 -0.9708
 9147TIP3   OH227404   6.945   0.826   2.038  0.5262 -0.0885 -0.3311
 9147TIP3    H127405   6.945   0.921   2.048  0.4796 -0.2484  1.3393
 9147TIP3    H227406   6.917   0.793   2.123 -2.5257 -1.5086 -1.7355
 9148TIP3   OH227407   4.385   3.709   1.229  0.5470 -0.4627 -0.0318
 9148TIP3    H127408   4.395   3.697   1.324  1.2632 -1.2646 -0.2027
 9148TIP3    H227409   4.314   3.650   1.204  0.1860 -0.0643  0.0378
 9149TIP3   OH227410   0.041   1.490   4.480  0.1251 -0.7945  0.0323
 9149TIP3    H127411  -0.009   1.435   4.419 -0.0593 -1.2695  0.5986
 9149TIP3    H227412  -0.025   1.527   4.539  0.0285  1.4288 -1.3578
 9150TIP3   OH227413   6.248   4.105   4.574  0.0276 -0.3977 -0.1683
 9150TIP3    H127414   6.187   4.178   4.588 -1.2915 -1.1255 -1.7626
 9150TIP3    H227415   6.335   4.146   4.573 -0.4725  0.7910  1.3315
 9151TIP3   OH227416   6.675   2.312   0.851 -0.2121 -0.1807  0.0774
 9151TIP3    H127417   6.646   2.315   0.942 -2.4504 -0.0663 -0.5854
 9151TIP3    H227418   6.713   2.398   0.835 -2.5342  0.9230  0.1108
 9152TIP3   OH227419   3.820   5.091   5.803 -0.1259  0.5507  0.1553
 9152TIP3    H127420   3.827   5.164   5.743  0.8069  1.2407  1.0547
 9152TIP3    H227421   3.727   5.069   5.805 -0.2687  1.0118 -0.9243
 9153TIP3   OH227422   6.346   3.561   2.241  0.0203  0.1130 -0.6807
 9153TIP3    H127423   6.373   3.547   2.150 -1.4153 -2.1923 -0.8141
 9153TIP3    H227424   6.395   3.497   2.291  0.8111  1.3767  0.2278
 9154TIP3   OH227425   5.639   6.512   3.176  0.2845 -0.6869  0.3558
 9154TIP3    H127426   5.557   6.551   3.207  0.3827 -1.1101  1.1602
 9154TIP3    H227427   5.702   6.528   3.246  0.8326 -0.5880 -0.1485
 9155TIP3   OH227428   1.485   5.011   5.128 -0.5922  0.5911 -0.5615
 9155TIP3    H127429   1.577   5.037   5.132 -0.3212 -0.4330  0.7564
 9155TIP3    H227430   1.439   5.089   5.098  0.4521  1.8284  0.9012
 9156TIP3   OH227431   1.420   1.362   4.633  0.5730  0.2960  0.1898
 9156TIP3    H127432   1.464   1.434   4.678 -0.2430 -0.1095  1.7148
 9156TIP3    H227433   1.329   1.366   4.665 -0.0563  0.0104 -1.4946
 9157TIP3   OH227434   0.020   5.930   3.273 -0.1622  0.3154  0.3878
 9157TIP3    H127435   0.074   5.888   3.206  1.1024  1.9672  0.3265
 9157TIP3    H227436   0.039   6.023   3.265 -0.9601  0.6794  2.2048
 9158TIP3   OH227437   3.769   3.639   4.821 -0.4933 -0.1043  0.4056
 9158TIP3    H127438   3.777   3.546   4.842  0.8253 -0.5937 -1.8790
 9158TIP3    H227439   3.771   3.684   4.906 -1.6244 -2.1484  1.5871
 9159TIP3   OH227440   1.721   6.697   4.541 -0.4990 -0.0248 -0.0942
 9159TIP3    H127441   1.807   6.679   4.579 -0.4742 -0.4181 -0.3347
 9159TIP3    H227442   1.694   6.780   4.581 -0.4973 -0.4514  0.8399
 9160TIP3   OH227443   7.137   1.463   4.956 -0.2206  0.1648  0.2353
 9160TIP3    H127444   7.162   1.539   4.902  0.5335  1.0580  1.7723
 9160TIP3    H227445   7.041   1.463   4.954 -0.2211 -0.3215 -1.7409
 9161TIP3   OH227446   2.769   0.930   5.448  0.3470  0.1929 -0.3461
 9161TIP3    H127447   2.813   0.918   5.532  0.7235  0.3224 -0.5219
 9161TIP3    H227448   2.815   1.003   5.407  0.2215  0.0756 -0.7019
 9162TIP3   OH227449   2.522   3.382   5.411  0.9861  0.2124 -0.1262
 9162TIP3    H127450   2.450   3.396   5.351 -1.0410 -2.5655  1.4279
 9162TIP3    H227451   2.503   3.438   5.486 -0.0320 -1.0299  0.5834
 9163TIP3   OH227452   5.087   5.267   4.997  0.1118  0.4174 -0.3354
 9163TIP3    H127453   5.116   5.179   4.975 -2.9003 -1.3618  2.0620
 9163TIP3    H227454   5.125   5.283   5.084 -1.2087  0.4745  0.2482
 9164TIP3   OH227455   1.701   3.935   4.801  0.0148  0.6245 -0.0171
 9164TIP3    H127456   1.719   3.841   4.794  0.2786  0.5008  1.7621
 9164TIP3    H227457   1.753   3.964   4.876 -0.5578  2.0663 -0.1369
 9165TIP3   OH227458   2.685   2.698   5.615 -0.3348  0.6499  0.3047
 9165TIP3    H127459   2.729   2.660   5.538 -0.6479 -0.2771  0.5721
 9165TIP3    H227460   2.750   2.758   5.652  0.8785 -0.9691  0.9109
 9166TIP3   OH227461   0.144   0.435   4.822  0.0995 -0.3113 -0.0031
 9166TIP3    H127462   0.075   0.500   4.814 -0.9161 -1.4535 -0.7437
 9166TIP3    H227463   0.197   0.446   4.743  0.6529  0.4034  0.4518
 9167TIP3   OH227464   3.340   5.844   0.187  0.0892 -0.0095 -0.1667
 9167TIP3    H127465   3.380   5.930   0.169 -1.5409  0.5593 -1.3223
 9167TIP3    H227466   3.407   5.781   0.161  0.8039  0.8928 -0.6052
 9168TIP3   OH227467   6.582   6.397   4.772  0.0641  0.2485  0.8248
 9168TIP3    H127468   6.626   6.427   4.852  0.6670 -0.8264  0.9170
 9168TIP3    H227469   6.493   6.432   4.779 -0.1532 -0.5297  2.3913
 9169TIP3   OH227470   2.263   4.901   1.836  0.0170  0.7509  0.0591
 9169TIP3    H127471   2.188   4.842   1.847  0.7489 -0.3286 -0.5506
 9169TIP3    H227472   2.292   4.919   1.926  0.5721 -0.8915  0.2388
 9170TIP3   OH227473   3.470   1.467   5.428 -0.3879 -0.2191 -0.7269
 9170TIP3    H127474   3.559   1.477   5.463 -0.3221 -2.0986 -0.2387
 9170TIP3    H227475   3.429   1.552   5.442  1.1056  0.4660 -0.2920
 9171TIP3   OH227476   1.895   4.189   4.786  0.3670 -0.5181  0.2655
 9171TIP3    H127477   1.864   4.114   4.837  1.0684 -0.0257  1.4464
 9171TIP3    H227478   1.869   4.265   4.837  4.2643 -0.0448  1.9158
 9172TIP3   OH227479   0.987   6.729   5.694  0.0585  0.5791  0.2163
 9172TIP3    H127480   0.984   6.656   5.632  0.4640 -0.6679  1.6293
 9172TIP3    H227481   0.948   6.802   5.646  0.6892 -0.2400 -1.6418
 9173TIP3   OH227482   4.275   4.367   3.435 -0.6362 -0.2516  0.5156
 9173TIP3    H127483   4.292   4.454   3.401  1.4920  0.2851  2.6422
 9173TIP3    H227484   4.230   4.382   3.518 -2.6207 -1.3445 -0.3019
 9174TIP3   OH227485   5.165   6.779   0.921 -0.5225 -0.6840  1.0443
 9174TIP3    H127486   5.091   6.755   0.977 -0.0462  1.0054  2.4869
 9174TIP3    H227487   5.241   6.741   0.964 -0.2454 -0.0646  1.1100
 9175TIP3   OH227488   6.978   4.128   5.201 -0.1412 -0.6862  0.3716
 9175TIP3    H127489   6.978   4.193   5.132 -1.6467 -1.7477 -0.6869
 9175TIP3    H227490   7.071   4.112   5.219  0.2554  0.6016 -0.4279
 9176TIP3   OH227491   2.498   0.825   0.563 -0.4240  0.4084  0.2425
 9176TIP3    H127492   2.584   0.866   0.551  0.6691 -1.5710  0.9504
 9176TIP3    H227493   2.469   0.804   0.474 -0.0516  0.8180  0.0207
 9177TIP3   OH227494   6.909   4.536   2.498  0.4566  0.2198 -0.0348
 9177TIP3    H127495   6.831   4.494   2.535  0.9880 -1.3774 -0.6462
 9177TIP3    H227496   6.956   4.569   2.574 -0.4067  0.4883  0.4035
 9178TIP3   OH227497   7.111   0.600   1.937  0.2817 -0.0896  0.0445
 9178TIP3    H127498   7.102   0.688   1.975  0.9428  0.8832 -1.9431
 9178TIP3    H227499   7.042   0.596   1.871  1.3034 -0.4210 -1.0234
 9179TIP3   OH227500   0.928   1.515   4.320 -0.5164  0.1493  0.8744
 9179TIP3    H127501   0.936   1.609   4.305 -1.2603 -0.0073 -0.6758
 9179TIP3    H227502   0.843   1.505   4.362  0.6237  0.3646  3.4298
 9180TIP3   OH227503   0.591   0.593   2.098 -0.4563 -0.1369  0.2043
 9180TIP3    H127504   0.574   0.596   2.004 -0.4964 -0.0652  0.2142
 9180TIP3    H227505   0.620   0.681   2.120  1.5909 -0.6649 -0.1341
 9181TIP3   OH227506   5.353   3.369   2.250 -0.3797 -0.1011 -0.0368
 9181TIP3    H127507   5.354   3.349   2.156 -0.3429 -0.3804  0.0235
 9181TIP3    H227508   5.312   3.293   2.290  1.5621 -0.9588  0.4126
 9182TIP3   OH227509   6.579   2.455   4.229 -0.7962 -0.4978 -0.1044
 9182TIP3    H127510   6.573   2.431   4.321  1.2187  4.0788  1.5092
 9182TIP3    H227511   6.512   2.522   4.217  0.8112  1.0344 -1.0626
 9183TIP3   OH227512   4.144   2.755   3.033  0.0616 -0.0303 -0.0996
 9183TIP3    H127513   4.208   2.796   2.975  0.7096  0.6705  1.0682
 9183TIP3    H227514   4.141   2.664   3.005  0.7730  0.1678 -0.8669
 9184TIP3   OH227515   2.542   3.103   4.557 -0.2253 -0.3287  0.0206
 9184TIP3    H127516   2.562   3.183   4.604  2.7820 -0.6710 -0.5244
 9184TIP3    H227517   2.456   3.076   4.591 -0.8845  2.5512  0.8779
 9185TIP3   OH227518   3.030   3.523   1.504  0.4581  0.5503 -0.0575
 9185TIP3    H127519   3.031   3.464   1.429  0.6322 -0.3208  0.6132
 9185TIP3    H227520   3.049   3.467   1.579  1.5442  1.6091  0.4946
 9186TIP3   OH227521   2.736   0.353   1.686 -0.2006 -0.4240 -0.4552
 9186TIP3    H127522   2.686   0.433   1.705 -0.0694 -0.2816 -0.7030
 9186TIP3    H227523   2.824   0.385   1.665  0.7541 -0.8211  2.5239
 9187TIP3   OH227524   5.844   6.310   0.803  0.3919 -0.2181  0.3748
 9187TIP3    H127525   5.883   6.258   0.873 -0.9894 -1.1660  0.4812
 9187TIP3    H227526   5.864   6.263   0.723 -0.0679 -0.4241  0.3783
 9188TIP3   OH227527   2.596   6.275   2.947  0.0805  0.6066 -0.1133
 9188TIP3    H127528   2.686   6.247   2.962 -0.0733  0.5333  0.6772
 9188TIP3    H227529   2.564   6.215   2.879  0.4605  0.3036 -0.0300
 9189TIP3   OH227530   1.032   1.957   4.039  0.1723  0.6446 -0.0934
 9189TIP3    H127531   1.083   2.034   4.064 -0.9952  1.5008 -0.2679
 9189TIP3    H227532   0.977   1.987   3.966  1.0121 -0.8659 -1.4115
 9190TIP3   OH227533   2.798   0.245   5.513  0.0474  0.0616 -0.2244
 9190TIP3    H127534   2.783   0.171   5.454 -1.6543  1.7844 -2.0770
 9190TIP3    H227535   2.722   0.244   5.572  1.2475 -1.0547  1.3971
 9191TIP3   OH227536   0.367   4.097   4.428 -0.1238  0.0042  0.0046
 9191TIP3    H127537   0.385   4.144   4.510  2.8855 -0.1888 -0.4238
 9191TIP3    H227538   0.364   4.005   4.454  1.9974 -0.1615 -0.1809
 9192TIP3   OH227539   2.227   2.378   5.884  0.4999  0.3118 -0.1597
 9192TIP3    H127540   2.298   2.347   5.826 -0.2514  1.0231 -1.5183
 9192TIP3    H227541   2.270   2.396   5.967  2.1841  1.8707 -1.3000
 9193TIP3   OH227542   0.814   2.067   0.684 -0.4511  0.1266  0.0697
 9193TIP3    H127543   0.793   1.980   0.650 -1.0175 -0.2059  1.2056
 9193TIP3    H227544   0.738   2.091   0.736 -0.0738  1.0816  0.1937
 9194TIP3   OH227545   4.638   6.460   1.926 -0.4524 -0.2804  0.2002
 9194TIP3    H127546   4.692   6.535   1.950  0.2071 -0.6545 -0.1047
 9194TIP3    H227547   4.659   6.393   1.992  0.7211 -1.0115 -0.8859
 9195TIP3   OH227548   5.719   5.188   1.334  0.3783  0.0421  0.4927
 9195TIP3    H127549   5.778   5.140   1.275  1.2709 -0.0339  1.4088
 9195TIP3    H227550   5.685   5.259   1.281  1.1132 -0.0594 -0.1394
 9196TIP3   OH227551   2.703   5.045   0.798  0.3862  0.3994  0.0024
 9196TIP3    H127552   2.679   4.990   0.723  1.8488  1.2637 -1.1456
 9196TIP3    H227553   2.798   5.047   0.797  0.3878  1.9135  0.7755
 9197TIP3   OH227554   2.789   0.288   0.799 -0.7941  0.4130  0.1364
 9197TIP3    H127555   2.745   0.264   0.718  1.4228  1.4048 -1.4598
 9197TIP3    H227556   2.878   0.309   0.773 -0.5885  3.0286  2.4645
 9198TIP3   OH227557   2.833   6.547   3.759 -0.6856 -0.6738 -0.0465
 9198TIP3    H127558   2.873   6.616   3.812  0.8122 -1.8481  0.4291
 9198TIP3    H227559   2.869   6.559   3.672  0.6810 -1.6579  0.3547
 9199TIP3   OH227560   6.167   1.079   0.245 -0.4904  0.0172 -0.5573
 9199TIP3    H127561   6.175   1.151   0.307 -0.0984 -0.0651 -0.5127
 9199TIP3    H227562   6.233   1.016   0.273 -0.4605 -0.1167 -0.9274
 9200TIP3   OH227563   1.614   5.049   3.269  0.2791  0.2829  0.1618
 9200TIP3    H127564   1.520   5.041   3.287 -0.0589 -0.2153 -1.6526
 9200TIP3    H227565   1.655   5.047   3.355 -1.3678  0.5053  0.9954
 9201TIP3   OH227566   3.980   5.343   2.065 -0.0283 -0.4092  0.4589
 9201TIP3    H127567   3.963   5.336   2.160  0.9874 -0.2826  0.6534
 9201TIP3    H227568   4.062   5.391   2.059 -0.0074 -0.5594 -0.4954
 9202TIP3   OH227569   3.095   6.744   2.544 -0.0049 -0.0920 -0.5933
 9202TIP3    H127570   3.051   6.828   2.536 -1.8619 -0.7215  1.6978
 9202TIP3    H227571   3.142   6.749   2.628 -0.0797 -1.2856 -0.4575
 9203TIP3   OH227572   1.748   4.336   4.316  0.5700  0.0792  0.8552
 9203TIP3    H127573   1.705   4.251   4.319 -0.2652  0.5057  2.0764
 9203TIP3    H227574   1.842   4.316   4.322  0.3888 -0.7571  1.0373
 9204TIP3   OH227575   0.661   1.808   3.215  0.4862 -0.1354 -0.3495
 9204TIP3    H127576   0.657   1.732   3.273  0.5789 -0.3612 -0.6438
 9204TIP3    H227577   0.752   1.814   3.188  1.0402  1.4867  1.5571
 9205TIP3   OH227578   4.782   1.865   0.442  0.3294 -0.1581 -0.0771
 9205TIP3    H127579   4.814   1.795   0.498 -0.7016 -1.0229 -0.5393
 9205TIP3    H227580   4.847   1.935   0.452  0.0774 -0.1915  2.3308
 9206TIP3   OH227581   4.473   4.827   5.226 -0.3849  0.0579  0.0580
 9206TIP3    H127582   4.410   4.824   5.154 -0.2883  1.5711 -0.1148
 9206TIP3    H227583   4.556   4.803   5.186 -0.6269 -0.8315  0.0540
 9207TIP3   OH227584   0.211   5.276   4.476  0.2482 -0.7905 -0.2862
 9207TIP3    H127585   0.173   5.352   4.432 -0.2004 -0.8196  0.0428
 9207TIP3    H227586   0.305   5.294   4.478  0.2204 -0.5712 -0.8344
 9208TIP3   OH227587   6.682   3.165   5.331 -0.2641  0.2819  0.3496
 9208TIP3    H127588   6.597   3.156   5.288  0.2937 -0.0380 -0.7102
 9208TIP3    H227589   6.670   3.236   5.394 -1.9810 -1.2451  1.8878
 9209TIP3   OH227590   0.755   6.210   2.594 -0.0266  0.3207 -0.1582
 9209TIP3    H127591   0.789   6.125   2.569  0.4873  0.3633  0.3717
 9209TIP3    H227592   0.713   6.244   2.515 -0.6025 -0.5982 -0.2533
 9210TIP3   OH227593   2.972   4.487   4.384  0.2241 -0.0290 -0.0773
 9210TIP3    H127594   3.047   4.457   4.435 -0.6688  0.7247  1.7504
 9210TIP3    H227595   2.950   4.573   4.421 -1.6441 -0.3112 -0.4372
 9211TIP3   OH227596   5.531   4.422   2.846 -0.3471 -0.1742 -0.4402
 9211TIP3    H127597   5.571   4.339   2.871  0.8553  0.1169 -1.3026
 9211TIP3    H227598   5.438   4.402   2.833 -0.4139 -0.9900  1.0544
 9212TIP3   OH227599   0.047   2.997   1.023  0.0049  0.9047  0.3710
 9212TIP3    H127600   0.118   3.052   0.990 -0.7995  1.8553  0.1751
 9212TIP3    H227601   0.063   2.992   1.117 -0.1032  1.7903  0.4503
 9213TIP3   OH227602   5.477   5.425   4.140  0.1097  0.7511 -0.2540
 9213TIP3    H127603   5.490   5.407   4.233 -1.8967  0.6185  0.0473
 9213TIP3    H227604   5.486   5.339   4.098 -3.5975 -0.1732  0.4680
 9214TIP3   OH227605   4.942   2.093   0.451  0.3241  0.1280  0.2004
 9214TIP3    H127606   5.036   2.098   0.466  0.3221  0.5982  0.0961
 9214TIP3    H227607   4.909   2.179   0.479 -0.4087 -0.8126  2.4845
 9215TIP3   OH227608   0.897   1.961   2.824 -0.1896 -0.3637  0.3149
 9215TIP3    H127609   0.804   1.973   2.804  0.1361  0.3546 -0.9194
 9215TIP3    H227610   0.906   1.989   2.915 -0.8419  1.6635 -0.1842
 9216TIP3   OH227611   1.032   3.264   2.226 -0.0284  0.0520 -0.1569
 9216TIP3    H127612   1.107   3.323   2.212 -0.2318  0.3330 -0.0596
 9216TIP3    H227613   1.003   3.282   2.315  0.3984 -0.7600  0.1658
 9217TIP3   OH227614   4.128   4.483   4.506  0.0039  0.0712  0.0980
 9217TIP3    H127615   4.141   4.510   4.597  1.0626  1.1805 -0.3695
 9217TIP3    H227616   4.102   4.391   4.512  1.3481 -0.2548  1.4639
 9218TIP3   OH227617   6.582   2.063   0.370  0.0218  0.1672  0.6065
 9218TIP3    H127618   6.655   2.002   0.353  0.6391  0.9425  0.4130
 9218TIP3    H227619   6.510   2.029   0.316  0.9335  0.6717 -0.9919
 9219TIP3   OH227620   6.586   6.037   0.267  0.0945 -0.0271 -0.5311
 9219TIP3    H127621   6.618   5.964   0.213 -1.0607 -1.4473  0.6187
 9219TIP3    H227622   6.501   6.060   0.228 -0.4685 -0.6632  0.2931
 9220TIP3   OH227623   5.341   5.496   5.923 -0.1286  0.4024 -0.6174
 9220TIP3    H127624   5.362   5.517   5.832  0.3568  1.2009 -0.3291
 9220TIP3    H227625   5.276   5.562   5.948 -3.4496 -2.2208 -1.6097
 9221TIP3   OH227626   3.731   4.652   4.563  0.1643  0.7957 -0.1837
 9221TIP3    H127627   3.665   4.589   4.535  0.3976  0.3438  0.2567
 9221TIP3    H227628   3.786   4.666   4.486 -1.0987  2.0464 -0.8972
 9222TIP3   OH227629   7.023   5.599   4.483 -0.0821  0.5647 -0.5529
 9222TIP3    H127630   6.956   5.530   4.475  1.9867 -1.3862 -2.1210
 9222TIP3    H227631   7.075   5.573   4.559 -0.9163  1.9932  0.5641
 9223TIP3   OH227632   3.260   2.537   1.478  0.3946  0.4156  0.6227
 9223TIP3    H127633   3.343   2.493   1.498  0.5936 -0.4668 -1.8428
 9223TIP3    H227634   3.195   2.468   1.485  0.4445  0.1277 -1.3679
 9224TIP3   OH227635   1.989   5.341   0.060 -0.0498 -0.3150  0.5013
 9224TIP3    H127636   1.988   5.245   0.060  0.1770 -0.3221  0.9679
 9224TIP3    H227637   2.082   5.363   0.059 -0.1023 -0.0952  0.3364
 9225TIP3   OH227638   1.489   0.650   3.514 -0.5394 -0.4021 -0.7627
 9225TIP3    H127639   1.515   0.629   3.424  0.8914  0.4763 -0.5877
 9225TIP3    H227640   1.394   0.656   3.511 -0.6256 -1.7999 -1.8943
 9226TIP3   OH227641   5.410   2.551   0.278  0.1701 -0.1310  0.1025
 9226TIP3    H127642   5.475   2.618   0.298  0.2297 -0.2356  0.2643
 9226TIP3    H227643   5.392   2.510   0.363 -0.9542  0.6710  0.2773
 9227TIP3   OH227644   1.761   4.946   0.248  0.4297  0.4349 -0.6347
 9227TIP3    H127645   1.791   5.000   0.321  2.8037 -0.5467 -0.7779
 9227TIP3    H227646   1.710   5.006   0.193  0.3864  1.7107  0.7355
 9228TIP3   OH227647   4.343   0.520   0.844 -0.2639 -0.4219  0.0675
 9228TIP3    H127648   4.291   0.471   0.907  0.1961  0.7708  1.4172
 9228TIP3    H227649   4.350   0.608   0.882  1.7161 -0.2158 -0.6782
 9229TIP3   OH227650   5.089   0.836   3.056  0.2938 -0.5475  0.2645
 9229TIP3    H127651   4.994   0.837   3.048  0.3553  2.1174 -1.3735
 9229TIP3    H227652   5.117   0.765   2.998 -0.6578  0.6795 -1.8581
 9230TIP3   OH227653   2.728   5.208   4.139  0.2810 -0.2327  0.0737
 9230TIP3    H127654   2.633   5.206   4.141  0.2419 -0.5985 -1.1674
 9230TIP3    H227655   2.751   5.300   4.155 -0.2393 -0.2833  1.1489
 9231TIP3   OH227656   0.786   5.164   2.406 -0.2311 -0.3713  0.1388
 9231TIP3    H127657   0.865   5.151   2.458  0.7370 -0.3719 -1.2836
 9231TIP3    H227658   0.803   5.244   2.356 -1.0162 -0.5312 -0.3959
 9232TIP3   OH227659   0.851   6.070   4.127  0.5355 -0.0199  0.0046
 9232TIP3    H127660   0.899   6.054   4.045 -0.1690 -0.8528 -0.2589
 9232TIP3    H227661   0.772   6.017   4.119  0.9767 -1.0282  1.7102
 9233TIP3   OH227662   6.301   1.608   3.084  0.4616 -0.6535  0.5240
 9233TIP3    H127663   6.250   1.631   3.161 -0.4675 -0.4598 -0.1293
 9233TIP3    H227664   6.383   1.657   3.093 -0.6898  1.4602  0.0963
 9234TIP3   OH227665   3.141   3.954   5.363 -0.3236  0.3448 -1.1544
 9234TIP3    H127666   3.214   3.962   5.425 -1.9200 -2.1174  1.3061
 9234TIP3    H227667   3.181   3.918   5.284  1.2068 -0.7234  0.0401
 9235TIP3   OH227668   4.986   2.296   5.485 -0.1727  0.0013 -0.4606
 9235TIP3    H127669   4.966   2.242   5.562 -0.0717  0.5702 -0.0312
 9235TIP3    H227670   5.051   2.359   5.516  1.2854 -0.9371 -1.4786
 9236TIP3   OH227671   5.577   2.386   0.115 -0.1529 -0.3750  0.2952
 9236TIP3    H127672   5.617   2.467   0.084 -0.0937 -0.2851  0.6088
 9236TIP3    H227673   5.493   2.414   0.153  0.1764 -0.3729  1.0335
 9237TIP3   OH227674   5.040   4.637   5.788 -0.0402 -0.0078 -0.3380
 9237TIP3    H127675   4.962   4.595   5.825 -0.8527  1.7870  0.1109
 9237TIP3    H227676   5.037   4.615   5.695  0.9299 -2.9107  0.2030
 9238TIP3   OH227677   3.547   2.613   5.476  0.0082  0.9495  0.2678
 9238TIP3    H127678   3.456   2.582   5.478  0.0841  0.6533 -0.5810
 9238TIP3    H227679   3.585   2.570   5.400  1.6380 -1.0726  2.0657
 9239TIP3   OH227680   5.851   2.209   1.742  0.2985  0.3705  0.6515
 9239TIP3    H127681   5.905   2.205   1.663 -0.1493 -1.0871  0.3880
 9239TIP3    H227682   5.844   2.302   1.762  0.2497  0.7733 -1.1309
 9240TIP3   OH227683   2.021   5.050   1.978  0.1776 -0.2273 -0.2237
 9240TIP3    H127684   1.988   4.991   2.045 -1.0294 -0.2174 -0.7831
 9240TIP3    H227685   1.968   5.031   1.900  0.4438  0.8868 -0.7084
 9241TIP3   OH227686   1.566   4.819   3.008 -0.3165  0.5394 -0.0932
 9241TIP3    H127687   1.653   4.816   2.968 -0.3348 -1.5226 -0.1217
 9241TIP3    H227688   1.525   4.897   2.971  0.1280 -0.5256 -3.1650
 9242TIP3   OH227689   3.889   2.892   1.429 -0.0524  0.0083  0.3686
 9242TIP3    H127690   3.817   2.937   1.472 -2.1736 -1.7169 -1.1301
 9242TIP3    H227691   3.932   2.842   1.498  0.2092  1.6097  1.4117
 9243TIP3   OH227692   5.167   1.054   3.737  0.0253  0.6286  0.3748
 9243TIP3    H127693   5.102   1.082   3.672 -0.5374  1.4351  1.2574
 9243TIP3    H227694   5.251   1.077   3.697 -0.3274  1.4326  0.0707
 9244TIP3   OH227695   3.085   5.254   2.706 -0.5398 -0.0684 -0.1918
 9244TIP3    H127696   3.157   5.303   2.666 -0.1335  0.1180  0.7398
 9244TIP3    H227697   3.035   5.221   2.632  0.4464 -0.1213 -0.8540
 9245TIP3   OH227698   5.352   2.330   4.456  0.2715 -0.4294  0.1967
 9245TIP3    H127699   5.328   2.422   4.438 -0.5895 -0.6794  0.0113
 9245TIP3    H227700   5.324   2.315   4.546  1.2997 -0.2379  0.5619
 9246TIP3   OH227701   1.931   1.659   4.577 -0.3561 -0.2988  0.0007
 9246TIP3    H127702   1.877   1.584   4.601  1.2278 -1.4760  0.0950
 9246TIP3    H227703   1.884   1.735   4.612 -1.8369 -1.2646  0.2004
 9247TIP3   OH227704   2.672   1.809   4.936  0.0852 -0.0659  0.2490
 9247TIP3    H127705   2.642   1.726   4.972  1.9328 -1.0608 -0.3256
 9247TIP3    H227706   2.623   1.876   4.983 -0.8145 -1.4542  1.3512
 9248TIP3   OH227707   5.216   5.398   4.026  0.5670  0.3913 -0.1927
 9248TIP3    H127708   5.232   5.305   4.042 -0.6364  0.0789 -0.7204
 9248TIP3    H227709   5.291   5.442   4.067  0.9237 -0.7712  0.4570
 9249TIP3   OH227710   3.653   1.986   5.182  0.2727 -0.0648 -0.0789
 9249TIP3    H127711   3.666   2.075   5.214  1.5942 -1.0418  2.3263
 9249TIP3    H227712   3.733   1.939   5.205  0.0975 -1.6462 -2.3212
 9250TIP3   OH227713   0.665   2.693   5.860 -0.8139  0.5842  0.4774
 9250TIP3    H127714   0.598   2.742   5.908 -0.5643 -1.2800  2.9172
 9250TIP3    H227715   0.736   2.756   5.846 -2.9652  2.6445 -2.2730
 9251TIP3   OH227716   6.809   1.971   1.881  0.1762 -0.0829  0.3935
 9251TIP3    H127717   6.759   1.989   1.802  0.1765 -0.4517  0.3068
 9251TIP3    H227718   6.900   1.968   1.851  0.0386 -2.3626 -0.0183
 9252TIP3   OH227719   4.732   6.391   0.125 -0.1526  0.0128  0.4288
 9252TIP3    H127720   4.688   6.468   0.088  2.2285  1.4727  0.4036
 9252TIP3    H227721   4.769   6.346   0.050  0.0079 -0.0993  0.5724
 9253TIP3   OH227722   4.584   6.113   5.642 -0.3403  0.3128 -0.1162
 9253TIP3    H127723   4.511   6.092   5.700 -0.8231  0.3108 -0.7113
 9253TIP3    H227724   4.661   6.113   5.699 -0.3736 -2.3880  0.0516
 9254TIP3   OH227725   1.971   3.223   1.189  0.3269 -0.1204  0.2199
 9254TIP3    H127726   1.957   3.260   1.276 -0.4758 -0.2790  0.1635
 9254TIP3    H227727   1.978   3.299   1.131  0.3578 -0.0259  0.3463
 9255TIP3   OH227728   2.348   3.995   4.683  0.3332  0.5303 -0.8487
 9255TIP3    H127729   2.421   3.957   4.733  1.0340  2.4185 -0.3767
 9255TIP3    H227730   2.371   3.979   4.592  0.6585 -0.0814 -0.6661
 9256TIP3   OH227731   3.376   5.621   5.515  0.1477  0.2424 -0.3917
 9256TIP3    H127732   3.291   5.644   5.478 -0.3066 -1.0398 -0.2014
 9256TIP3    H227733   3.395   5.535   5.478 -0.6289 -1.4146  2.7403
 9257TIP3   OH227734   2.255   2.914   4.375  0.3991 -0.7469 -0.0900
 9257TIP3    H127735   2.274   2.982   4.311 -0.8856  0.2904  0.5991
 9257TIP3    H227736   2.340   2.873   4.392  1.0310  0.0488 -1.2171
 9258TIP3   OH227737   3.852   4.701   4.312 -0.3048 -0.4786 -0.1966
 9258TIP3    H127738   3.839   4.712   4.218  3.0894 -1.3585 -0.8727
 9258TIP3    H227739   3.926   4.758   4.333 -1.4118  0.2511  2.1630
 9259TIP3   OH227740   2.951   1.800   4.993 -0.1889  0.2889  0.6558
 9259TIP3    H127741   2.940   1.892   5.018 -3.2221 -0.4205  2.4331
 9259TIP3    H227742   2.868   1.776   4.953  0.9844 -1.4246 -0.9084
 9260TIP3   OH227743   5.013   2.838   4.249  0.3993 -0.4904 -0.0310
 9260TIP3    H127744   4.952   2.837   4.322 -0.1856  0.3522 -0.4941
 9260TIP3    H227745   5.085   2.781   4.276 -0.3585 -1.0987  0.7216
 9261TIP3   OH227746   6.617   3.485   1.203 -0.6094 -0.3560 -0.2099
 9261TIP3    H127747   6.569   3.402   1.206 -1.7924  0.3190  2.5011
 9261TIP3    H227748   6.682   3.478   1.273 -0.2010  0.6974 -0.4694
 9262TIP3   OH227749   0.246   2.574   1.956  0.1741 -0.6421  0.2006
 9262TIP3    H127750   0.270   2.482   1.966 -2.0771 -1.2240  0.6816
 9262TIP3    H227751   0.152   2.573   1.941 -0.0651  1.6484  1.2046
 9263TIP3   OH227752   5.484   0.314   3.613  0.0816  0.0984  0.4140
 9263TIP3    H127753   5.553   0.318   3.680  0.5715  1.3065 -0.1253
 9263TIP3    H227754   5.429   0.390   3.632 -0.2423 -0.0186 -0.0634
 9264TIP3   OH227755   4.301   1.904   1.178 -0.5816  0.1434 -0.1761
 9264TIP3    H127756   4.329   1.957   1.252  0.4037 -0.2418 -0.2596
 9264TIP3    H227757   4.269   1.967   1.113  0.7689  0.6785 -0.3610
 9265TIP3   OH227758   6.975   0.498   0.841  0.0554 -0.1856 -0.0178
 9265TIP3    H127759   6.973   0.451   0.925 -0.4910 -1.4589 -0.7158
 9265TIP3    H227760   6.961   0.430   0.775  0.5145  0.7902 -1.1536
 9266TIP3   OH227761   2.828   0.738   4.594  0.4276 -0.3002 -0.4868
 9266TIP3    H127762   2.872   0.798   4.654 -1.0972  2.6437 -2.1068
 9266TIP3    H227763   2.899   0.697   4.544  1.5454 -0.5843  1.2538
 9267TIP3   OH227764   4.775   5.242   2.303 -0.1527  0.4301  0.0539
 9267TIP3    H127765   4.755   5.299   2.378 -0.8406 -0.4658  0.5774
 9267TIP3    H227766   4.854   5.196   2.330 -0.9820 -0.6634  0.7097
 9268TIP3   OH227767   6.326   1.042   4.848 -0.1491 -0.0591 -0.6478
 9268TIP3    H127768   6.260   0.977   4.824  0.4489 -1.3995  1.1844
 9268TIP3    H227769   6.409   1.002   4.822  0.4278 -1.0939  2.4711
 9269TIP3   OH227770   4.483   5.982   2.266 -0.5500 -0.0883 -0.3224
 9269TIP3    H127771   4.451   6.042   2.333 -0.8744  0.3180 -0.8332
 9269TIP3    H227772   4.578   5.984   2.275 -0.6117 -0.5502  0.5630
 9270TIP3   OH227773   0.628   0.190   3.003  0.1331  0.3045  0.2569
 9270TIP3    H127774   0.555   0.203   2.942 -0.1475  0.0507  0.5374
 9270TIP3    H227775   0.684   0.125   2.960 -0.5411 -0.5823  0.6776
 9271TIP3   OH227776   6.775   0.851   3.323  0.5556 -0.1246  0.6551
 9271TIP3    H127777   6.833   0.894   3.387 -0.4518  1.0942  0.7862
 9271TIP3    H227778   6.687   0.862   3.360  0.1286 -0.9412 -0.1009
 9272TIP3   OH227779   1.366   2.346   0.811  0.5266  0.0717 -0.2074
 9272TIP3    H127780   1.341   2.421   0.865  2.4603 -0.1041  1.0377
 9272TIP3    H227781   1.444   2.310   0.855  1.3656 -0.9084 -2.3825
 9273TIP3   OH227782   1.905   2.508   1.955  0.3030 -0.4786  0.6214
 9273TIP3    H127783   1.837   2.445   1.931 -0.8029  0.2976  1.5906
 9273TIP3    H227784   1.949   2.528   1.872 -1.8305  0.3173 -0.4167
 9274TIP3   OH227785   3.364   4.129   1.310 -0.6666  0.3439  0.0388
 9274TIP3    H127786   3.299   4.127   1.381 -0.2982  0.2152  0.3759
 9274TIP3    H227787   3.319   4.088   1.236 -0.3737 -1.4301  0.7809
 9275TIP3   OH227788   6.143   0.586   1.878  0.5376 -0.1415 -0.4358
 9275TIP3    H127789   6.220   0.536   1.905  1.6574  1.3564 -0.7485
 9275TIP3    H227790   6.173   0.677   1.872 -1.6987  0.7951  1.1902
 9276TIP3   OH227791   7.228   1.479   5.281  0.0732 -0.1619 -0.0288
 9276TIP3    H127792   7.133   1.467   5.279  0.1003 -0.5273  0.5567
 9276TIP3    H227793   7.248   1.495   5.373  0.3476  2.0005 -0.3987
 9277TIP3   OH227794   0.464   5.624   1.392  0.1175  0.1592  0.2911
 9277TIP3    H127795   0.487   5.682   1.320  0.8317  0.1004  0.4654
 9277TIP3    H227796   0.460   5.681   1.469 -1.3257  0.3468  0.1075
 9278TIP3   OH227797   5.528   3.698   4.879  0.3844  0.1037  0.4079
 9278TIP3    H127798   5.614   3.668   4.906  1.1671 -0.7402 -2.6430
 9278TIP3    H227799   5.544   3.782   4.835 -0.0596 -0.7181 -1.4264
 9279TIP3   OH227800   3.177   6.654   1.109 -0.1467  0.0046 -0.3562
 9279TIP3    H127801   3.201   6.566   1.136 -1.2011 -0.1829  0.0184
 9279TIP3    H227802   3.250   6.709   1.137 -0.0690 -0.5584  0.5810
 9280TIP3   OH227803   0.650   4.557   5.690  0.2608 -0.3852 -0.0733
 9280TIP3    H127804   0.725   4.501   5.711 -0.2256 -1.4718 -1.1612
 9280TIP3    H227805   0.587   4.540   5.759  0.3412 -0.7304 -0.0863
 9281TIP3   OH227806   5.567   5.579   2.778 -0.2048 -0.6233 -0.5778
 9281TIP3    H127807   5.579   5.495   2.736 -2.7392 -1.8681  0.9160
 9281TIP3    H227808   5.608   5.642   2.719  0.8874 -2.7599 -2.2332
 9282TIP3   OH227809   2.954   6.793   2.815 -0.7626  0.5143 -0.4166
 9282TIP3    H127810   3.047   6.774   2.828 -0.8763  0.5960  0.5827
 9282TIP3    H227811   2.953   6.872   2.761 -0.2612  0.1123 -1.0266
 9283TIP3   OH227812   0.705   5.150   0.187 -0.7582 -0.0401 -0.4591
 9283TIP3    H127813   0.692   5.215   0.117  0.6592  1.2668  0.4452
 9283TIP3    H227814   0.799   5.136   0.189 -0.8459 -0.5316  0.7780
 9284TIP3   OH227815   1.620   3.503   1.847  0.0220 -0.1334 -0.3493
 9284TIP3    H127816   1.637   3.506   1.752  0.9624  0.5655 -0.1730
 9284TIP3    H227817   1.548   3.441   1.856 -0.3105  0.0454 -1.5593
 9285TIP3   OH227818   1.235   4.597   5.426 -0.0464 -0.0077 -0.3799
 9285TIP3    H127819   1.300   4.568   5.491 -0.6371 -2.1405 -0.6560
 9285TIP3    H227820   1.203   4.680   5.461  0.5339 -0.4843  1.4406
 9286TIP3   OH227821   4.782   4.899   4.638 -0.5057  0.2137 -0.2126
 9286TIP3    H127822   4.804   4.985   4.674  0.0872 -0.1968  0.4386
 9286TIP3    H227823   4.733   4.855   4.708  1.8157 -1.0973  0.7091
 9287TIP3   OH227824   1.555   0.211   2.959  0.2912  0.0453 -1.2043
 9287TIP3    H127825   1.541   0.231   2.867 -0.7401 -0.2300 -1.1285
 9287TIP3    H227826   1.466   0.198   2.994  0.6338  0.5035 -0.0947
 9288TIP3   OH227827   6.793   4.174   0.805  0.1489  0.0818 -0.0812
 9288TIP3    H127828   6.720   4.230   0.832  1.1815  1.8753 -0.8292
 9288TIP3    H227829   6.853   4.233   0.760  0.6726 -1.8901 -2.1664
 9289TIP3   OH227830   1.266   0.493   2.708  0.1221  0.1431 -0.3676
 9289TIP3    H127831   1.249   0.401   2.689  0.2830  0.3304 -1.5250
 9289TIP3    H227832   1.227   0.540   2.634 -0.0977  1.0155  0.2900
 9290TIP3   OH227833   2.700   1.198   4.313 -0.1515 -0.4235  0.2169
 9290TIP3    H127834   2.713   1.151   4.230  0.4170 -0.1920  0.1708
 9290TIP3    H227835   2.662   1.282   4.287 -0.1778 -0.4379  0.2088
 9291TIP3   OH227836   6.397   6.434   3.063 -0.0997  0.8417  0.6693
 9291TIP3    H127837   6.384   6.401   2.974 -0.7748 -0.9189  1.3768
 9291TIP3    H227838   6.349   6.374   3.118 -0.2163  2.2667  2.2051
 9292TIP3   OH227839   2.764   5.255   0.354 -0.0366  0.4508 -1.6537
 9292TIP3    H127840   2.804   5.168   0.367  0.4988  0.8531 -0.3955
 9292TIP3    H227841   2.686   5.253   0.409  1.2310  1.5397  0.3038
 9293TIP3   OH227842   3.112   0.311   2.175 -0.2960  0.6814 -0.2417
 9293TIP3    H127843   3.113   0.274   2.264  0.1251 -1.0558 -0.9197
 9293TIP3    H227844   3.204   0.316   2.151 -0.3180  2.6700 -0.0150
 9294TIP3   OH227845   2.134   4.747   2.504 -0.1326 -0.2297 -0.2551
 9294TIP3    H127846   2.194   4.727   2.433  0.9613 -2.6059  1.1992
 9294TIP3    H227847   2.147   4.676   2.567 -1.4461  1.4586  2.0722
 9295TIP3   OH227848   1.182   1.760   2.989  0.0428  0.0147 -0.1420
 9295TIP3    H127849   1.188   1.698   2.916 -0.0810 -1.2031  0.8486
 9295TIP3    H227850   1.179   1.846   2.947  2.1491 -0.5067 -1.5227
 9296TIP3   OH227851   2.220   2.873   1.690 -0.3556 -0.8509 -0.0729
 9296TIP3    H127852   2.178   2.845   1.771 -1.2396  0.1275 -0.1591
 9296TIP3    H227853   2.164   2.837   1.621  1.0247 -2.6584 -0.3187
 9297TIP3   OH227854   5.726   4.308   5.445  0.7523 -0.0821  0.2700
 9297TIP3    H127855   5.738   4.366   5.520 -0.6049 -1.7050  1.8407
 9297TIP3    H227856   5.631   4.302   5.435  0.8949 -0.9740 -0.6950
 9298TIP3   OH227857   4.144   0.541   1.112  0.0323 -0.1728  0.0213
 9298TIP3    H127858   4.105   0.597   1.044 -0.5776 -0.1728  0.3633
 9298TIP3    H227859   4.122   0.452   1.085  0.9192 -0.2547 -0.4697
 9299TIP3   OH227860   5.020   5.949   2.502  0.3062  0.1437  0.2284
 9299TIP3    H127861   4.951   5.891   2.532  0.5130 -0.0008  0.4294
 9299TIP3    H227862   5.087   5.891   2.466  0.2630  0.2911 -0.0915
 9300TIP3   OH227863   6.681   0.350   4.344 -0.1304  0.6400  0.2608
 9300TIP3    H127864   6.627   0.428   4.354 -1.2746  0.0072 -0.7031
 9300TIP3    H227865   6.747   0.375   4.279  1.4786  1.7571  2.2139
 9301TIP3   OH227866   3.414   3.711   0.095 -0.3022 -0.1817 -0.2268
 9301TIP3    H127867   3.424   3.705   0.190  0.2577 -1.1962 -0.3345
 9301TIP3    H227868   3.400   3.804   0.078  0.2070  0.0927  0.7919
 9302TIP3   OH227869   6.202   1.528   1.453  0.4781 -0.4480  0.0653
 9302TIP3    H127870   6.192   1.609   1.403 -0.2732 -1.7943 -2.1138
 9302TIP3    H227871   6.138   1.468   1.414  0.1487 -1.7441  2.4177
 9303TIP3   OH227872   1.250   2.576   1.904 -0.1950 -0.2977  0.5841
 9303TIP3    H127873   1.191   2.593   1.978  2.0270  2.6230  1.8545
 9303TIP3    H227874   1.258   2.660   1.859 -0.8691 -1.7944 -2.6870
 9304TIP3   OH227875   5.188   0.980   4.236 -0.3698  0.3524  0.0066
 9304TIP3    H127876   5.227   0.997   4.150  0.2972  1.1990  0.4555
 9304TIP3    H227877   5.113   1.039   4.240 -1.4330 -0.8957 -0.6428
 9305TIP3   OH227878   3.812   6.768   0.835 -0.0038 -0.4651  0.0104
 9305TIP3    H127879   3.829   6.780   0.742  2.0754  0.3838  0.4456
 9305TIP3    H227880   3.749   6.838   0.856  0.2930 -0.0167 -0.5555
 9306TIP3   OH227881   4.929   0.844   3.524 -0.0769 -0.0764 -0.1629
 9306TIP3    H127882   4.881   0.765   3.499  1.8179 -0.5803 -2.6902
 9306TIP3    H227883   5.006   0.811   3.571  1.5851 -0.0473 -2.6225
 9307TIP3   OH227884   4.872   2.362   0.491 -0.4406  0.5538 -0.3018
 9307TIP3    H127885   4.832   2.432   0.441 -1.4721  0.8077  0.8197
 9307TIP3    H227886   4.814   2.349   0.566  1.1345  0.3505  0.9607
 9308TIP3   OH227887   7.062   0.326   1.838  0.4803  0.5285  0.3831
 9308TIP3    H127888   6.988   0.266   1.834  1.1689 -0.3486  0.5853
 9308TIP3    H227889   7.045   0.380   1.916  0.3648 -0.0883  0.7945
 9309TIP3   OH227890   6.815   0.547   3.134  0.5542  0.6729 -0.0579
 9309TIP3    H127891   6.874   0.593   3.194  0.2434  0.6630  0.2525
 9309TIP3    H227892   6.845   0.574   3.047  2.3964 -0.9942  0.0005
 9310TIP3   OH227893   0.430   0.054   1.757  0.4228  0.4498  0.3997
 9310TIP3    H127894   0.344   0.012   1.748  0.2520  0.7014  0.8419
 9310TIP3    H227895   0.413   0.147   1.743  0.4791  0.6049  1.3221
 9311TIP3   OH227896   1.446   5.640   3.465  0.5386 -0.3160  0.5497
 9311TIP3    H127897   1.450   5.623   3.371  0.6748 -1.6474  0.7741
 9311TIP3    H227898   1.461   5.734   3.473 -1.6492  0.2147 -0.8968
 9312TIP3   OH227899   0.878   0.212   0.177  0.2182  0.5679  0.7373
 9312TIP3    H127900   0.911   0.272   0.244  1.6399  1.4866 -0.7122
 9312TIP3    H227901   0.818   0.265   0.125  3.8073  1.9336 -2.4988
 9313TIP3   OH227902   5.694   0.026   0.214 -0.8137 -0.0259  0.7493
 9313TIP3    H127903   5.636   0.046   0.140  1.1686 -2.1519 -1.5362
 9313TIP3    H227904   5.781   0.023   0.176  0.3866 -0.4921  3.3739
 9314TIP3   OH227905   2.256   4.929   4.683  0.0486  0.1818 -0.7146
 9314TIP3    H127906   2.195   4.939   4.756 -0.0124  1.5021 -0.9197
 9314TIP3    H227907   2.293   4.841   4.694 -0.0050  0.3269  0.8543
 9315TIP3   OH227908   5.889   6.194   0.004  0.5223 -0.1262 -0.3145
 9315TIP3    H127909   5.913   6.149   0.086 -1.0136 -1.1353 -0.3858
 9315TIP3    H227910   5.801   6.228   0.021  0.4929  0.3009 -1.3072
 9316TIP3   OH227911   3.955   1.986   5.806  0.2978 -0.7734 -0.8353
 9316TIP3    H127912   3.963   2.077   5.835  2.8800 -0.8917 -0.9407
 9316TIP3    H227913   3.903   1.944   5.874  0.3872  0.4588  0.0364
 9317TIP3   OH227914   6.740   0.111   4.990  0.1620  0.2475  0.1423
 9317TIP3    H127915   6.772   0.181   5.047  0.8744  0.1194 -0.0882
 9317TIP3    H227916   6.811   0.098   4.927 -0.5105  0.2295 -0.6295
 9318TIP3   OH227917   2.972   2.083   4.998 -0.0501  0.0358  0.0387
 9318TIP3    H127918   3.025   2.059   4.922  0.6948 -0.1060  0.5933
 9318TIP3    H227919   3.006   2.168   5.025  0.1491 -0.2204  0.6134
 9319TIP3   OH227920   6.774   0.458   3.788 -0.3242  0.6196 -0.2692
 9319TIP3    H127921   6.810   0.507   3.713  1.5421  0.6121  0.5664
 9319TIP3    H227922   6.766   0.368   3.756 -0.2345  0.7603 -0.6948
 9320TIP3   OH227923   6.243   3.495   5.232 -0.3977 -0.1794  0.0496
 9320TIP3    H127924   6.289   3.432   5.175 -0.3207  0.6400 -0.8101
 9320TIP3    H227925   6.301   3.571   5.235 -0.0768 -0.4577  1.7941
 9321TIP3   OH227926   0.912   3.710   1.218  0.4348 -0.1197  0.3268
 9321TIP3    H127927   0.895   3.754   1.302 -1.3092 -0.5790  0.2651
 9321TIP3    H227928   0.923   3.618   1.241  2.4584  0.0632  0.2793
 9322TIP3   OH227929   6.604   0.422   5.151 -0.4871 -0.1919 -0.1474
 9322TIP3    H127930   6.683   0.393   5.106  0.5820  2.7154 -0.3537
 9322TIP3    H227931   6.634   0.449   5.237 -1.5331 -0.3691  0.2930
 9323TIP3   OH227932   5.426   1.293   4.832 -0.2718 -0.5671  0.1705
 9323TIP3    H127933   5.492   1.362   4.832  1.0417 -1.7452  1.7283
 9323TIP3    H227934   5.467   1.220   4.879 -2.7076 -1.3057  1.3455
 9324TIP3   OH227935   6.529   6.129   5.563  0.5789  0.9666  0.0520
 9324TIP3    H127936   6.537   6.152   5.656  1.7921  2.2154 -0.3377
 9324TIP3    H227937   6.435   6.135   5.545  0.3711  1.1031  1.0934
 9325TIP3   OH227938   2.682   0.245   5.210 -0.3834 -0.0046 -0.0168
 9325TIP3    H127939   2.695   0.158   5.247 -0.3081  0.2894  0.6555
 9325TIP3    H227940   2.653   0.229   5.120 -1.6221 -0.7406  0.5020
 9326TIP3   OH227941   2.845   5.907   2.392  0.3407 -0.0455 -0.8631
 9326TIP3    H127942   2.894   5.849   2.449  1.3870  1.3286 -0.3031
 9326TIP3    H227943   2.908   5.933   2.324 -0.6185 -0.9348 -2.1466
 9327TIP3   OH227944   3.850   3.251   0.960  0.6798  0.3168 -0.3532
 9327TIP3    H127945   3.811   3.182   1.012 -0.5508  1.4225  0.2542
 9327TIP3    H227946   3.838   3.331   1.012  0.4231  1.2733 -1.7965
 9328TIP3   OH227947   4.545   1.275   0.398  0.2745  0.6128 -0.3472
 9328TIP3    H127948   4.478   1.308   0.337  0.3185 -1.0654 -1.3685
 9328TIP3    H227949   4.498   1.265   0.481  0.0537  2.3471 -0.2351
 9329TIP3   OH227950   6.679   4.118   4.789 -0.1461  0.2487 -0.4375
 9329TIP3    H127951   6.658   4.025   4.783 -1.0530  0.2570  1.5737
 9329TIP3    H227952   6.741   4.123   4.862  0.0667  1.1875 -0.6716
 9330TIP3   OH227953   1.493   6.398   3.664 -0.5712 -0.2803 -0.0222
 9330TIP3    H127954   1.433   6.323   3.654 -1.2776  0.1799  0.6687
 9330TIP3    H227955   1.459   6.446   3.739 -0.1981  0.8102 -0.5366
 9331TIP3   OH227956   2.180   6.224   0.427 -0.2754  0.0537  0.4268
 9331TIP3    H127957   2.174   6.230   0.332  1.3757  0.1975  0.2882
 9331TIP3    H227958   2.270   6.194   0.443 -0.4591  0.2127  1.9455
 9332TIP3   OH227959   6.025   6.794   1.253  0.3336 -0.1914  0.0161
 9332TIP3    H127960   6.012   6.884   1.223 -1.0611 -0.3601  0.0315
 9332TIP3    H227961   6.091   6.758   1.194  0.5715  0.7071 -0.2741
 9333TIP3   OH227962   6.476   1.111   1.906  0.8371  0.3378 -0.1492
 9333TIP3    H127963   6.465   1.181   1.842  1.7823  0.0592 -0.6340
 9333TIP3    H227964   6.561   1.128   1.946  0.7032 -0.0691  0.3223
 9334TIP3   OH227965   1.431   5.520   1.844 -0.1762  0.0357  0.1229
 9334TIP3    H127966   1.431   5.535   1.938 -0.6731  2.7481 -0.2039
 9334TIP3    H227967   1.504   5.573   1.811 -1.5863  1.2605 -1.2151
 9335TIP3   OH227968   1.085   6.291   4.971 -0.1512  0.6231 -0.0392
 9335TIP3    H127969   1.161   6.309   4.916 -0.0114  1.2406  0.3315
 9335TIP3    H227970   1.070   6.197   4.963  0.0751  0.6496 -0.8494
 9336TIP3   OH227971   3.629   2.500   5.230  0.4106  0.2828 -0.0936
 9336TIP3    H127972   3.706   2.548   5.198 -0.6631  2.5537  0.5128
 9336TIP3    H227973   3.574   2.489   5.152  0.6915 -0.0028 -0.2502
 9337TIP3   OH227974   1.713   6.503   2.188  0.1072  0.1073  0.2077
 9337TIP3    H127975   1.668   6.570   2.136  0.1947  0.5333  0.6624
 9337TIP3    H227976   1.741   6.550   2.267 -1.0234 -0.7736  1.1684
 9338TIP3   OH227977   1.318   3.567   5.390 -0.1830  0.2186  0.1191
 9338TIP3    H127978   1.320   3.651   5.344 -0.2437  0.9322  1.3718
 9338TIP3    H227979   1.407   3.556   5.424 -0.5884  0.6229  1.3825
 9339TIP3   OH227980   4.993   1.810   3.396  0.0953  0.0776 -0.0776
 9339TIP3    H127981   4.982   1.808   3.491  0.0597  1.4761 -0.0256
 9339TIP3    H227982   5.078   1.768   3.381 -0.5786 -1.5233  0.4172
 9340TIP3   OH227983   5.936   0.883   1.062 -0.3449 -0.3904 -0.5018
 9340TIP3    H127984   5.846   0.885   1.094 -0.4126  0.8753 -0.7172
 9340TIP3    H227985   5.935   0.821   0.989 -0.4989 -2.2276  0.9663
 9341TIP3   OH227986   0.066   1.193   5.846 -0.1187 -0.3433 -0.0021
 9341TIP3    H127987  -0.013   1.198   5.793  0.3683 -0.6289 -0.7685
 9341TIP3    H227988   0.106   1.109   5.823  1.2792  0.5169 -0.8983
 9342TIP3   OH227989   2.199   4.502   2.629 -0.2877  0.3057  0.6089
 9342TIP3    H127990   2.249   4.511   2.710 -1.2091  0.0772  1.2202
 9342TIP3    H227991   2.242   4.432   2.581  1.3691  1.6354  0.0493
 9343TIP3   OH227992   0.099   5.480   4.342  0.1067 -0.1379 -0.0676
 9343TIP3    H127993   0.099   5.573   4.366 -1.7061 -0.0429 -0.3204
 9343TIP3    H227994   0.017   5.468   4.294  0.0338 -1.9978  0.4749
 9344TIP3   OH227995   3.012   1.395   5.096  0.1883 -0.3450 -0.0723
 9344TIP3    H127996   2.923   1.423   5.075  0.2623 -0.9101 -1.2120
 9344TIP3    H227997   3.061   1.476   5.106 -0.2353 -0.0361 -0.4618
 9345TIP3   OH227998   2.634   1.792   0.145 -0.4420  0.1459 -0.3720
 9345TIP3    H127999   2.578   1.794   0.068 -0.1267 -2.8640 -0.8127
 9345TIP3    H228000   2.723   1.805   0.111 -0.4751  0.8249 -0.2163
 9346TIP3   OH228001   0.111   6.457   4.794  0.0483 -0.0953 -0.5387
 9346TIP3    H128002   0.191   6.493   4.757  1.1051 -1.2829  0.4891
 9346TIP3    H228003   0.107   6.367   4.759 -0.8550 -0.0417 -0.6030
 9347TIP3   OH228004   4.773   6.648   5.718  0.1169 -0.5478 -0.3220
 9347TIP3    H128005   4.779   6.726   5.663  0.4126 -0.4859 -0.2019
 9347TIP3    H228006   4.862   6.634   5.750 -0.1304 -0.3485  0.4626
 9348TIP3   OH228007   3.103   4.097   4.263 -0.4172  0.1755 -0.2232
 9348TIP3    H128008   3.167   4.088   4.191  0.1155  1.1607  0.1027
 9348TIP3    H228009   3.025   4.133   4.221 -1.0745 -1.7902 -0.7695
 9349TIP3   OH228010   6.470   5.016   3.045 -0.2064  0.2702 -0.2281
 9349TIP3    H128011   6.513   4.941   3.004  1.1590 -0.2137  1.9186
 9349TIP3    H228012   6.525   5.091   3.022  0.5219  0.0096  0.6079
 9350TIP3   OH228013   1.412   0.887   2.560 -0.1719  0.7158  0.1523
 9350TIP3    H128014   1.342   0.877   2.624 -0.6348  2.4203 -0.0647
 9350TIP3    H228015   1.476   0.945   2.602  0.4575  0.2912 -0.1908
 9351TIP3   OH228016   5.126   1.604   3.850 -0.0020  0.1997  0.1764
 9351TIP3    H128017   5.129   1.614   3.945 -0.1395  1.8050  0.0412
 9351TIP3    H228018   5.217   1.606   3.822  0.1176 -1.5989  0.3700
 9352TIP3   OH228019   3.732   1.915   4.331 -0.4409  0.4920  0.1432
 9352TIP3    H128020   3.654   1.971   4.336 -0.2192  1.0299 -1.7659
 9352TIP3    H228021   3.781   1.948   4.256  1.9740  0.5482  1.6331
 9353TIP3   OH228022   4.955   1.943   2.087  0.1464 -0.2499  0.5073
 9353TIP3    H128023   5.033   1.889   2.073 -0.6843 -1.1941 -0.6585
 9353TIP3    H228024   4.956   1.962   2.181  2.0824  0.2597  0.4249
 9354TIP3   OH228025   5.917   1.859   2.677 -0.0588  0.4713 -0.4541
 9354TIP3    H128026   5.843   1.918   2.693 -0.5311 -0.8898  3.6520
 9354TIP3    H228027   5.995   1.914   2.688 -0.5101  0.8199  1.4048
 9355TIP3   OH228028   7.090   1.635   4.667  0.0428  0.1462 -0.5081
 9355TIP3    H128029   7.015   1.681   4.705  0.0231 -0.3779  0.1053
 9355TIP3    H228030   7.163   1.695   4.677  0.0317  0.0388  0.3531
 9356TIP3   OH228031   6.093   1.479   0.950  0.1410 -0.4587 -0.0878
 9356TIP3    H128032   6.121   1.405   1.004 -0.4973 -1.5245 -1.1649
 9356TIP3    H228033   6.019   1.445   0.900  0.0568  0.8204 -0.8668
 9357TIP3   OH228034   3.404   0.507   3.791  0.2500 -0.0045 -0.1039
 9357TIP3    H128035   3.384   0.542   3.704  0.4706 -0.8271 -0.4979
 9357TIP3    H228036   3.495   0.531   3.807 -0.0029  0.7769  0.2226
 9358TIP3   OH228037   6.108   1.752   1.015 -0.4642 -0.1111  0.1821
 9358TIP3    H128038   6.198   1.770   1.044 -0.2704  0.6380 -0.8034
 9358TIP3    H228039   6.092   1.661   1.041  0.8569 -0.5013 -0.2696
 9359TIP3   OH228040   0.563   6.179   0.826 -0.2721 -0.4517 -0.0478
 9359TIP3    H128041   0.541   6.260   0.779  2.4257  0.8390  0.6911
 9359TIP3    H228042   0.517   6.186   0.910 -3.8310 -2.0270 -1.6592
 9360TIP3   OH228043   2.523   1.495   4.970  0.0734  0.2490  0.0087
 9360TIP3    H128044   2.458   1.519   5.036 -0.5181 -0.0513 -0.4591
 9360TIP3    H228045   2.472   1.462   4.896  0.7866 -0.7025 -0.0768
 9361TIP3   OH228046   5.016   6.259   3.859 -0.0706 -0.7732 -0.2525
 9361TIP3    H128047   4.979   6.246   3.946 -1.5345  1.3976 -0.4766
 9361TIP3    H228048   4.958   6.209   3.801 -0.8981  0.2027 -0.2811
 9362TIP3   OH228049   6.984   0.588   2.895  0.0564 -0.0421 -0.4770
 9362TIP3    H128050   7.053   0.544   2.846 -0.2808 -1.1685  0.0271
 9362TIP3    H228051   7.030   0.647   2.954  0.7189 -1.8584  0.9165
 9363TIP3   OH228052   0.352   4.958   2.759 -0.2874 -0.4738  0.4406
 9363TIP3    H128053   0.429   4.955   2.815  0.6235 -2.4479 -0.7951
 9363TIP3    H228054   0.287   4.904   2.803  0.2757 -1.6569 -0.1175
 9364TIP3   OH228055   3.461   4.978   2.003  0.1958 -0.1224 -0.0037
 9364TIP3    H128056   3.415   4.974   2.087  1.2703  2.8487  0.8730
 9364TIP3    H228057   3.391   4.981   1.938 -0.6776 -1.5563  0.8265
 9365TIP3   OH228058   4.132   6.794   3.469 -0.3203  0.1293 -0.5294
 9365TIP3    H128059   4.146   6.772   3.561  0.6628 -0.5676 -0.8374
 9365TIP3    H228060   4.059   6.856   3.470 -0.7700 -0.4068  0.6542
 9366TIP3   OH228061   1.370   2.600   4.649  0.8057  0.2781 -0.6683
 9366TIP3    H128062   1.401   2.690   4.663  1.2266  0.0436 -0.0814
 9366TIP3    H228063   1.275   2.609   4.636  0.3889  0.5430  2.1345
 9367TIP3   OH228064   1.562   3.643   5.538  0.3885  0.2408 -0.4100
 9367TIP3    H128065   1.565   3.606   5.626  1.3383  0.0974 -0.4903
 9367TIP3    H228066   1.545   3.736   5.552  0.4478  0.2034 -0.0751
 9368TIP3   OH228067   6.171   5.766   2.054  0.3901 -0.1576 -0.1162
 9368TIP3    H128068   6.239   5.805   1.999  0.4048  2.3988  1.5763
 9368TIP3    H228069   6.091   5.772   2.001  0.4782  1.8800 -0.0892
 9369TIP3   OH228070   3.946   4.604   1.521  0.5601 -0.3624  0.1560
 9369TIP3    H128071   4.038   4.579   1.519  0.4593 -0.8255 -2.6246
 9369TIP3    H228072   3.928   4.639   1.434 -1.7620  0.2899  0.8110
 9370TIP3   OH228073   0.736   4.454   1.132  0.6953 -0.2963  0.1468
 9370TIP3    H128074   0.654   4.488   1.167  1.1174  0.7733  0.1379
 9370TIP3    H228075   0.792   4.442   1.209  0.4568 -1.2585  0.1791
 9371TIP3   OH228076   3.473   5.941   3.587 -0.4958  0.1678  0.4646
 9371TIP3    H128077   3.379   5.923   3.581 -0.4956  0.3350 -0.1235
 9371TIP3    H228078   3.479   6.018   3.643 -0.7179  0.2208  0.4189
 9372TIP3   OH228079   3.055   6.680   0.839 -0.2021 -0.0523  0.3597
 9372TIP3    H128080   3.053   6.605   0.898  1.7269 -0.8007 -0.4424
 9372TIP3    H228081   2.987   6.738   0.872 -0.5976 -1.3813  2.0311
 9373TIP3   OH228082   4.782   1.305   1.015  0.5316  0.3663  0.3021
 9373TIP3    H128083   4.726   1.236   1.050  0.3107  0.7103  0.6287
 9373TIP3    H228084   4.729   1.348   0.949  1.2592 -0.8668 -1.1481
 9374TIP3   OH228085   5.357   2.563   1.687 -0.3216 -0.7769  0.0340
 9374TIP3    H128086   5.342   2.469   1.688 -1.0071 -0.6709  0.1776
 9374TIP3    H228087   5.380   2.583   1.597 -2.3138 -0.7733 -0.5325
 9375TIP3   OH228088   6.501   2.905   5.496 -0.8040 -0.9418 -0.0934
 9375TIP3    H128089   6.426   2.924   5.439  1.3247  0.0424 -2.7909
 9375TIP3    H228090   6.552   2.986   5.497  2.4005 -2.7152 -2.0029
 9376TIP3   OH228091   0.738   2.579   2.481  0.4960 -0.5133  0.2910
 9376TIP3    H128092   0.768   2.592   2.571  0.4966  0.2281  0.1914
 9376TIP3    H228093   0.813   2.605   2.427  0.1054  0.1582  0.0627
 9377TIP3   OH228094   1.725   0.606   3.026 -0.4329  0.4244 -0.2609
 9377TIP3    H128095   1.691   0.599   2.937 -1.4125 -0.3434  0.1514
 9377TIP3    H228096   1.772   0.524   3.040 -0.4984  0.4315  0.0077
 9378TIP3   OH228097   5.864   2.825   3.115 -0.0499 -0.1410 -0.0294
 9378TIP3    H128098   5.877   2.762   3.186 -1.7111  0.6218  1.0108
 9378TIP3    H228099   5.826   2.773   3.044  0.8687 -0.7538 -0.0998
 9379TIP3   OH228100   0.643   0.619   5.757 -0.3858  0.5617  1.1502
 9379TIP3    H128101   0.589   0.540   5.745 -0.4530  0.5307  1.6192
 9379TIP3    H228102   0.598   0.686   5.706  0.1048  0.1153  0.1005
 9380TIP3   OH228103   0.616   4.521   4.124  0.3618  0.1558 -0.3360
 9380TIP3    H128104   0.611   4.563   4.210  0.4734  0.7485 -0.6093
 9380TIP3    H228105   0.606   4.594   4.062 -0.5767 -0.3714 -0.8202
 9381TIP3   OH228106   5.653   4.937   0.569  0.0515 -0.3911  0.1276
 9381TIP3    H128107   5.629   4.960   0.659  0.0835 -0.4685  0.1556
 9381TIP3    H228108   5.596   4.991   0.515 -1.1295 -1.5300  0.1854
 9382TIP3   OH228109   5.934   3.520   5.067  0.2925 -0.1983  0.3089
 9382TIP3    H128110   6.019   3.480   5.080 -0.0374 -1.3541 -0.9079
 9382TIP3    H228111   5.953   3.613   5.052  1.3423 -0.4508  0.0184
 9383TIP3   OH228112   1.799   1.231   4.293  0.1291  0.0021  0.5488
 9383TIP3    H128113   1.788   1.254   4.201  1.8264  4.1260  1.1694
 9383TIP3    H228114   1.725   1.272   4.338 -0.6358 -1.8913  1.1048
 9384TIP3   OH228115   0.694   1.170   0.404 -0.1233 -0.2234  0.8595
 9384TIP3    H128116   0.773   1.163   0.457 -0.5538 -2.4636  1.3134
 9384TIP3    H228117   0.659   1.257   0.425  2.2626  0.9011  0.5062
 9385TIP3   OH228118   5.288   3.063   3.414  0.6045  1.1779  0.0236
 9385TIP3    H128119   5.380   3.087   3.414  1.0253 -0.3101  0.0532
 9385TIP3    H228120   5.248   3.121   3.349  1.7249  1.2982 -0.5959
 9386TIP3   OH228121   0.827   6.496   2.371  0.0518  0.0453 -0.2606
 9386TIP3    H128122   0.844   6.479   2.464 -1.7002 -0.5594 -0.0185
 9386TIP3    H228123   0.848   6.588   2.359 -0.0377  0.2162  0.8160
 9387TIP3   OH228124   6.652   5.727   2.332 -0.2801 -0.2894 -0.3823
 9387TIP3    H128125   6.693   5.736   2.246  0.7953  0.8714  0.2263
 9387TIP3    H228126   6.570   5.776   2.325 -0.1783 -0.1672 -0.7367
 9388TIP3   OH228127   1.889   2.957   1.573  0.3613  0.5171  0.2345
 9388TIP3    H128128   1.851   3.001   1.498 -0.1177  1.3288  0.9417
 9388TIP3    H228129   1.926   2.876   1.537 -2.1947 -0.4311 -0.4476
 9389TIP3   OH228130   2.809   1.589   1.514  0.0957  0.1370  0.3525
 9389TIP3    H128131   2.864   1.510   1.512  0.3276  0.2934  0.5321
 9389TIP3    H228132   2.866   1.659   1.483 -1.0133 -0.2835 -3.0460
 9390TIP3   OH228133   4.237   6.633   4.785 -0.1817  0.2267 -0.0688
 9390TIP3    H128134   4.231   6.537   4.782  0.1538  0.1715  0.8284
 9390TIP3    H228135   4.298   6.655   4.715 -1.0721 -0.1258 -0.9855
 9391TIP3   OH228136   2.822   0.796   1.632 -0.1029 -0.3612 -0.8202
 9391TIP3    H128137   2.862   0.851   1.699 -0.5310 -3.2277  2.0141
 9391TIP3    H228138   2.732   0.828   1.625 -0.1380 -0.2041  0.2332
 9392TIP3   OH228139   1.197   3.408   3.151 -1.0200 -0.9440  0.0033
 9392TIP3    H128140   1.278   3.457   3.165 -0.7783 -1.5966  0.9676
 9392TIP3    H228141   1.142   3.467   3.099 -0.0025 -0.4227 -0.5046
 9393TIP3   OH228142   1.323   6.339   4.827  0.3394  0.4016  0.2837
 9393TIP3    H128143   1.409   6.380   4.824  1.2986 -1.4852 -2.9899
 9393TIP3    H228144   1.335   6.253   4.787 -2.5650 -1.0833  2.2086
 9394TIP3   OH228145   1.172   0.207   2.791 -0.0984  0.2708  0.0250
 9394TIP3    H128146   1.147   0.115   2.806  0.7623  0.0577  0.1713
 9394TIP3    H228147   1.151   0.222   2.699  4.4733 -1.6724 -1.5929
 9395TIP3   OH228148   5.455   4.506   4.583 -0.2571 -0.0956  0.0347
 9395TIP3    H128149   5.438   4.414   4.565  2.3091 -0.5470 -0.4902
 9395TIP3    H228150   5.376   4.537   4.627 -1.5921 -2.2643 -0.6770
 9396TIP3   OH228151   0.981   3.542   0.467  0.1449  0.1811  0.2681
 9396TIP3    H128152   1.059   3.515   0.515 -0.3621 -1.4324  0.2604
 9396TIP3    H228153   0.943   3.460   0.436  0.4233  1.1358 -2.8935
 9397TIP3   OH228154   2.859   6.384   5.608  0.5909  0.0250  0.0908
 9397TIP3    H128155   2.867   6.390   5.703  0.1399 -0.3813  0.1557
 9397TIP3    H228156   2.947   6.361   5.578  0.7399  0.1808  0.4070
 9398TIP3   OH228157   3.519   2.618   0.161  0.5370 -0.1100 -0.8249
 9398TIP3    H128158   3.430   2.620   0.127  0.3683  1.4302 -0.3572
 9398TIP3    H228159   3.543   2.525   0.158 -0.5518 -0.3885 -2.2649
 9399TIP3   OH228160   3.710   2.299   2.138  0.7446  0.1404 -0.2103
 9399TIP3    H128161   3.697   2.370   2.076  0.2510  1.0206  0.8622
 9399TIP3    H228162   3.804   2.302   2.160  0.9647 -0.3139 -1.0493
 9400TIP3   OH228163   5.951   4.044   5.483 -0.6243 -0.2869 -0.1652
 9400TIP3    H128164   6.023   4.092   5.443 -2.3264  3.1044  0.4686
 9400TIP3    H228165   5.872   4.093   5.458 -2.5833 -2.9542  0.3824
 9401TIP3   OH228166   5.939   0.117   2.958 -0.1736  0.0857  0.5157
 9401TIP3    H128167   5.929   0.182   2.889 -0.0591 -0.8263 -0.3906
 9401TIP3    H228168   5.978   0.041   2.914  0.0022 -0.4811  1.6048
 9402TIP3   OH228169   1.134   0.009   4.785 -0.1484 -0.3379 -0.2352
 9402TIP3    H128170   1.041  -0.010   4.772 -0.0420 -1.9481  1.0359
 9402TIP3    H228171   1.139   0.044   4.873  0.1022  2.9605 -1.4204
 9403TIP3   OH228172   3.642   0.906   2.732  0.2691 -0.4480  0.1910
 9403TIP3    H128173   3.715   0.897   2.670  0.0265  1.6983 -0.5256
 9403TIP3    H228174   3.662   0.845   2.803  3.0320  0.4186  0.2738
 9404TIP3   OH228175   3.649   6.255   3.961 -0.1730 -0.1633  0.4599
 9404TIP3    H128176   3.609   6.246   3.875  1.1501 -0.8706 -0.1009
 9404TIP3    H228177   3.675   6.166   3.985  1.1810  0.2870  0.7300
 9405TIP3   OH228178   3.974   6.034  -0.008  0.1478  0.2104 -0.4841
 9405TIP3    H128179   4.052   6.069  -0.052 -0.7823  0.7725 -1.7351
 9405TIP3    H228180   3.987   6.057   0.085  0.8776  1.4280 -0.8549
 9406TIP3   OH228181   0.137   2.698   1.536 -0.1736  0.0716 -0.1638
 9406TIP3    H128182   0.214   2.749   1.559  0.5550 -1.0603 -0.0116
 9406TIP3    H228183   0.082   2.701   1.614 -1.1616  2.3460 -0.8497
 9407TIP3   OH228184   1.284   2.850   2.328  0.4971  0.0695 -0.1118
 9407TIP3    H128185   1.307   2.785   2.395 -0.0454  0.9463  0.9616
 9407TIP3    H228186   1.364   2.860   2.276  0.5895 -1.4481 -0.3106
 9408TIP3   OH228187   0.952   6.001   5.657  0.4890  0.1176 -0.3150
 9408TIP3    H128188   0.992   6.015   5.743  2.3821 -0.0577 -1.1202
 9408TIP3    H228189   0.936   5.907   5.652  1.5591 -0.0581 -0.6230
 9409TIP3   OH228190   0.512   5.543   0.728  0.0190  0.5464 -0.2513
 9409TIP3    H128191   0.556   5.546   0.813  1.4063 -0.1265 -0.9146
 9409TIP3    H228192   0.493   5.634   0.707 -0.5007  0.7085  0.8420
 9410TIP3   OH228193   0.445   0.869   4.234  0.2967 -0.3815 -0.2358
 9410TIP3    H128194   0.468   0.796   4.176  0.9918 -0.8076  0.5409
 9410TIP3    H228195   0.451   0.946   4.179 -0.5737 -0.9170 -1.1112
 9411TIP3   OH228196   6.503   4.673   5.528  0.0931 -0.0993 -0.1727
 9411TIP3    H128197   6.548   4.656   5.611 -1.6304 -1.0714  0.6174
 9411TIP3    H228198   6.466   4.761   5.538 -0.6451 -0.4611  0.3663
 9412TIP3   OH228199   5.366   2.084   0.990  0.0355 -0.0455 -0.0060
 9412TIP3    H128200   5.420   2.032   0.932  2.0118  1.5372  0.2773
 9412TIP3    H228201   5.363   2.171   0.949  0.2569  0.7097  1.5003
 9413TIP3   OH228202   5.385   4.932   4.232  0.0989 -0.1487  0.2241
 9413TIP3    H128203   5.417   4.865   4.171  1.8866  1.7497 -1.0754
 9413TIP3    H228204   5.334   4.883   4.296 -0.7644 -2.4297 -2.0248
 9414TIP3   OH228205   0.516   4.399   3.863 -0.1592 -0.3491 -0.1355
 9414TIP3    H128206   0.532   4.305   3.872  1.6232 -0.1598 -0.9177
 9414TIP3    H228207   0.507   4.430   3.953  1.7661 -0.9063  0.3074
 9415TIP3   OH228208   0.707   2.008   4.848 -0.3410  0.2142  0.3089
 9415TIP3    H128209   0.728   1.950   4.921  1.2195 -0.8844 -0.9429
 9415TIP3    H228210   0.671   1.950   4.781  0.6145  0.7721 -0.7196
 9416TIP3   OH228211   2.233   0.991   0.477  0.3480  0.4746  1.1137
 9416TIP3    H128212   2.319   1.027   0.498 -0.1855  1.7788  1.1870
 9416TIP3    H228213   2.230   0.907   0.522  0.5304  1.6683  3.4868
 9417TIP3   OH228214   2.156   5.480   2.151  0.1855 -0.2663 -0.5408
 9417TIP3    H128215   2.092   5.467   2.221  0.4676  0.4203 -0.1460
 9417TIP3    H228216   2.108   5.527   2.083 -1.0159 -3.6184 -2.2357
 9418TIP3   OH228217   6.735   6.085   0.500 -0.6995  0.3231 -0.2009
 9418TIP3    H128218   6.708   6.050   0.415  0.2475  0.5819 -0.6174
 9418TIP3    H228219   6.664   6.144   0.524 -1.1139  0.0351 -0.6776
 9419TIP3   OH228220   6.550   2.057   3.185  0.3635 -0.1154 -0.9706
 9419TIP3    H128221   6.641   2.082   3.167  1.0546 -0.3551  1.7792
 9419TIP3    H228222   6.505   2.140   3.201  0.8487 -0.1219  0.5937
 9420TIP3   OH228223   1.158   3.596   4.439  0.2110 -0.1569 -0.2595
 9420TIP3    H128224   1.160   3.532   4.368 -0.7455  0.0918 -0.5223
 9420TIP3    H228225   1.215   3.559   4.506 -0.2997 -1.2686 -0.4221
 9421TIP3   OH228226   4.852   3.126   5.360 -0.0147  0.0076 -0.8622
 9421TIP3    H128227   4.928   3.184   5.345 -0.7057  0.9263 -0.9249
 9421TIP3    H228228   4.813   3.159   5.441  0.4951 -1.4181 -0.0041
 9422TIP3   OH228229   2.921   6.568   1.662  0.2486 -0.4349  0.1206
 9422TIP3    H128230   3.013   6.583   1.684  0.6019  0.0121 -1.5183
 9422TIP3    H228231   2.873   6.619   1.726  1.3043  3.3614 -1.8275
 9423TIP3   OH228232   2.206   1.086   4.011  0.4378 -0.3245  0.3564
 9423TIP3    H128233   2.154   1.018   4.055 -0.2161  1.0065  1.7280
 9423TIP3    H228234   2.142   1.150   3.981  0.8867 -0.9943 -2.3785
 9424TIP3   OH228235   1.963   6.793   0.120  0.3529  0.0241 -0.0102
 9424TIP3    H128236   1.899   6.799   0.191  0.3649  0.1344 -0.0083
 9424TIP3    H228237   1.909   6.789   0.041  0.3472  1.5748 -0.1188
 9425TIP3   OH228238   0.600   2.928   1.407  0.1609 -0.1107 -0.0020
 9425TIP3    H128239   0.632   2.945   1.318 -3.0146 -0.1051 -1.2620
 9425TIP3    H228240   0.538   2.999   1.424 -0.5130 -1.0368  1.5923
 9426TIP3   OH228241   0.665   6.068   0.193 -0.4555 -0.4506  0.1633
 9426TIP3    H128242   0.702   6.042   0.277  1.5196  1.0668 -0.1471
 9426TIP3    H228243   0.587   6.119   0.216 -0.0640 -0.2422  1.0686
 9427TIP3   OH228244   1.559   2.403   4.190 -0.7327  0.0940 -0.0693
 9427TIP3    H128245   1.554   2.432   4.281 -0.3576 -0.2874  0.0740
 9427TIP3    H228246   1.605   2.319   4.193  0.2930  0.6196 -0.7268
 9428TIP3   OH228247   2.585   1.373   0.128  0.9843 -0.4954  0.0542
 9428TIP3    H128248   2.493   1.349   0.143  0.6623 -0.0279 -1.0886
 9428TIP3    H228249   2.608   1.326   0.048  1.2712  0.5865 -0.5126
 9429TIP3   OH228250   3.907   6.433   0.936 -0.0605 -0.0581  0.2812
 9429TIP3    H128251   3.828   6.442   0.883  0.5296 -1.0248 -0.8240
 9429TIP3    H228252   3.878   6.389   1.016 -0.3341 -2.5322 -1.0755
 9430TIP3   OH228253   3.257   6.689   4.664 -0.0245 -0.1225  0.8337
 9430TIP3    H128254   3.227   6.668   4.752  1.1884 -0.7709  1.1117
 9430TIP3    H228255   3.323   6.623   4.645  0.0197  0.2632 -0.4063
 9431TIP3   OH228256   2.235   4.086   2.196 -0.3960 -0.0838  0.3674
 9431TIP3    H128257   2.190   4.127   2.270  1.0670 -1.3962  2.0772
 9431TIP3    H228258   2.323   4.125   2.197 -0.3899 -0.0307 -0.7893
 9432TIP3   OH228259   0.484   1.939   0.971 -0.2100 -0.2608 -0.0808
 9432TIP3    H128260   0.529   2.020   0.995 -0.2125 -1.0508  3.0773
 9432TIP3    H228261   0.481   1.940   0.875  0.0631  3.2834 -0.1730
 9433TIP3   OH228262   6.512   3.588   4.912 -0.5409 -0.6564  0.4248
 9433TIP3    H128263   6.464   3.505   4.914 -0.7499 -0.5146  1.5817
 9433TIP3    H228264   6.572   3.578   4.838 -0.3688 -1.9472  0.7096
 9434TIP3   OH228265   6.365   1.250   5.020  0.2429  0.3480  0.1383
 9434TIP3    H128266   6.381   1.175   4.962 -1.2568  1.4351 -1.8067
 9434TIP3    H228267   6.359   1.325   4.961 -0.6007  1.6565  1.8016
 9435TIP3   OH228268   2.563   1.368   0.984 -0.2293 -0.3015  0.5124
 9435TIP3    H128269   2.614   1.350   0.905 -0.8549  0.2780 -0.0345
 9435TIP3    H228270   2.482   1.319   0.973 -0.5044  0.1319  0.5862
 9436TIP3   OH228271   7.150   1.791   5.370 -0.2872 -0.5127  0.5832
 9436TIP3    H128272   7.137   1.880   5.337 -0.1078 -0.6483  0.1405
 9436TIP3    H228273   7.063   1.752   5.370 -0.2775 -0.5351  0.1987
 9437TIP3   OH228274   6.682   1.857   2.091  0.3405  0.0106  0.0094
 9437TIP3    H128275   6.729   1.908   2.025 -0.5303  1.0204  0.1572
 9437TIP3    H228276   6.752   1.814   2.141  1.1997  2.1082  0.7361
 9438TIP3   OH228277   3.494   0.116   0.157 -0.1174 -0.8307 -0.4431
 9438TIP3    H128278   3.586   0.120   0.131 -0.4389 -1.1664 -1.7277
 9438TIP3    H228279   3.450   0.072   0.083 -1.2194 -1.1669  0.3843
 9439TIP3   OH228280   5.459   1.998   1.513  0.0095  0.0988 -0.1727
 9439TIP3    H128281   5.408   1.919   1.498  0.0400  0.0384  0.0353
 9439TIP3    H228282   5.510   2.009   1.433 -0.1682  0.0400 -0.2948
 9440TIP3   OH228283   5.295   5.909   5.218 -0.0946  0.3140  0.1417
 9440TIP3    H128284   5.305   6.004   5.218 -0.9768  0.4374 -1.2272
 9440TIP3    H228285   5.382   5.876   5.192  0.1566  0.7463  0.4317
 9441TIP3   OH228286   1.815   3.795   5.206 -0.3903 -0.4240  1.0005
 9441TIP3    H128287   1.888   3.846   5.241 -1.6962  1.8890  0.5860
 9441TIP3    H228288   1.856   3.717   5.170  1.7712  0.3686  1.5515
 9442TIP3   OH228289   0.352   3.742   2.065 -0.1156  0.1402  0.3490
 9442TIP3    H128290   0.275   3.789   2.097  2.4872  2.7090  3.6529
 9442TIP3    H228291   0.384   3.795   1.991 -0.3286  0.3119  0.3801
 9443TIP3   OH228292   1.899   6.010   0.401  0.5441  0.3810 -0.0727
 9443TIP3    H128293   1.816   6.007   0.448  0.5674 -0.1200 -0.0581
 9443TIP3    H228294   1.876   6.039   0.313  0.5330  1.5990  0.3131
 9444TIP3   OH228295   0.202   2.089   2.555  0.2366 -0.0569  0.2562
 9444TIP3    H128296   0.263   2.161   2.535 -1.1524  0.6464 -1.6616
 9444TIP3    H228297   0.139   2.091   2.484 -0.7762 -2.1863  1.0440
 9445TIP3   OH228298   5.471   2.640   2.748  0.2933  0.3026 -0.1686
 9445TIP3    H128299   5.559   2.623   2.714  0.0339  0.7993 -1.1045
 9445TIP3    H228300   5.438   2.554   2.774  1.3659  0.2075  0.9767
 9446TIP3   OH228301   2.481   4.187   5.235  1.0071  0.1274  0.3065
 9446TIP3    H128302   2.568   4.224   5.225  0.7622  1.0191  1.2123
 9446TIP3    H228303   2.464   4.193   5.329  0.2416 -0.6651  0.2280
 9447TIP3   OH228304   2.300   5.440   1.767  0.0193  0.4738 -0.6253
 9447TIP3    H128305   2.382   5.415   1.810  1.1304  3.0681 -1.0848
 9447TIP3    H228306   2.315   5.418   1.675 -0.2515 -0.0807 -0.5399
 9448TIP3   OH228307   4.549   3.622   1.982  0.3841  0.0881  0.1295
 9448TIP3    H128308   4.631   3.617   2.030  0.7919  1.0974 -0.4179
 9448TIP3    H228309   4.528   3.716   1.980 -1.1769 -0.2008  0.9019
 9449TIP3   OH228310   3.104   3.969   2.281  0.1134 -0.2940  0.3848
 9449TIP3    H128311   3.099   3.876   2.304 -0.4515 -0.1913  0.6926
 9449TIP3    H228312   3.088   4.014   2.364  3.2600  0.1012  0.9078
 9450TIP3   OH228313   1.145   1.241   2.697  0.2110  0.8583  0.3580
 9450TIP3    H128314   1.142   1.196   2.781  0.5786  0.4178  0.1397
 9450TIP3    H228315   1.095   1.322   2.711  1.7237  1.6309  1.4898
 9451TIP3   OH228316   4.336   6.272   2.370 -0.1993 -0.4967  0.3020
 9451TIP3    H128317   4.253   6.298   2.408  0.1194  1.7163 -0.3792
 9451TIP3    H228318   4.315   6.249   2.279 -0.2233 -1.0895  0.4511
 9452TIP3   OH228319   0.237   2.413   1.622 -0.0945 -0.3443  0.0503
 9452TIP3    H128320   0.185   2.470   1.564  0.1691 -1.9947 -1.9215
 9452TIP3    H228321   0.316   2.463   1.640 -0.7018  0.6805 -0.0213
 9453TIP3   OH228322   5.865   5.830   0.842  0.0485 -0.0733 -0.1144
 9453TIP3    H128323   5.819   5.746   0.830  1.4603 -1.1090  1.3324
 9453TIP3    H228324   5.848   5.853   0.933  2.5516 -0.6471  0.5693
 9454TIP3   OH228325   5.780   5.822   3.633 -0.3792 -0.3340 -0.3124
 9454TIP3    H128326   5.859   5.865   3.666 -0.6796  0.0696 -0.1100
 9454TIP3    H228327   5.754   5.763   3.704  0.9426 -2.0961 -1.2101
 9455TIP3   OH228328   3.141   5.462   5.711  0.2730 -0.3951 -0.0992
 9455TIP3    H128329   3.071   5.526   5.700  3.2564  2.9561 -1.9954
 9455TIP3    H228330   3.156   5.427   5.623  0.9060 -1.1351  0.2939
 9456TIP3   OH228331   0.128   6.227   5.132  0.1441  0.2383  0.3577
 9456TIP3    H128332   0.167   6.314   5.135  0.5132  0.0516  3.2757
 9456TIP3    H228333   0.202   6.167   5.126 -0.0042  0.0554  0.3444
 9457TIP3   OH228334   1.690   4.246   5.264  0.1753  0.2208  0.0592
 9457TIP3    H128335   1.651   4.325   5.302 -1.5175 -1.2015  1.4136
 9457TIP3    H228336   1.783   4.266   5.260 -0.2036  2.3241  0.2620
 9458TIP3   OH228337   0.496   2.736   2.294  0.0845 -0.6960  0.6324
 9458TIP3    H128338   0.531   2.719   2.381 -1.3778  1.5263  1.7326
 9458TIP3    H228339   0.546   2.811   2.262 -1.3502  0.4198  0.8730
 9459TIP3   OH228340   4.507   0.920   2.186  0.4181  0.0847  0.4806
 9459TIP3    H128341   4.470   1.005   2.161 -0.0445 -0.3599 -0.4110
 9459TIP3    H228342   4.560   0.895   2.110  1.6788  0.2084  1.3058
 9460TIP3   OH228343   4.152   6.282   4.151 -0.4035  0.2134 -0.1808
 9460TIP3    H128344   4.242   6.258   4.174 -0.9676 -0.3805  1.5930
 9460TIP3    H228345   4.149   6.275   4.055  0.7925 -2.1585 -0.1135
 9461TIP3   OH228346   2.208   4.120   1.913  0.3433  0.1072 -0.0252
 9461TIP3    H128347   2.216   4.105   2.007  1.4699  1.6470  0.1654
 9461TIP3    H228348   2.238   4.039   1.872 -1.6716 -1.1903  0.8975
 9462TIP3   OH228349   5.635   3.174   1.056  0.2022  0.0759 -0.0649
 9462TIP3    H128350   5.731   3.179   1.060  0.1883 -0.2331  1.2730
 9462TIP3    H228351   5.614   3.093   1.103 -0.6805 -0.3418 -1.1408
 9463TIP3   OH228352   6.274   1.637   5.634  0.8488  0.2170  0.4984
 9463TIP3    H128353   6.225   1.567   5.677  1.3735 -0.0446  0.6878
 9463TIP3    H228354   6.216   1.668   5.565  0.8467 -0.8360  0.0007
 9464TIP3   OH228355   3.355   5.419   4.558  0.5246  0.0232  0.0951
 9464TIP3    H128356   3.391   5.402   4.471  2.9366  0.5413  0.9117
 9464TIP3    H228357   3.424   5.391   4.618 -0.5192  0.9458  1.8049
 9465TIP3   OH228358   4.327   3.881   1.028 -0.0162 -0.1414  0.2260
 9465TIP3    H128359   4.375   3.963   1.034  1.1030 -0.7528 -0.0120
 9465TIP3    H228360   4.343   3.837   1.111  0.2991 -0.5781 -0.0548
 9466TIP3   OH228361   3.787   1.889   5.626 -0.4911  0.0145  0.1367
 9466TIP3    H128362   3.863   1.860   5.575 -0.6038  0.1546 -0.1115
 9466TIP3    H228363   3.824   1.923   5.707 -0.3558 -0.8845  0.4627
 9467TIP3   OH228364   7.200   3.620   2.985  0.0892 -0.3534  0.4907
 9467TIP3    H128365   7.273   3.638   3.045 -1.2202  0.6994  1.8334
 9467TIP3    H228366   7.123   3.614   3.042 -1.2291  0.7606 -1.0811
 9468TIP3   OH228367   0.993   0.080   0.830 -0.4130  0.0323 -0.2957
 9468TIP3    H128368   0.991   0.159   0.884 -3.0977 -0.1033 -0.0629
 9468TIP3    H228369   1.021   0.110   0.744  0.9279  0.7793  0.3669
 9469TIP3   OH228370   6.951   3.390   4.724  0.0769  0.8417 -0.2917
 9469TIP3    H128371   7.036   3.377   4.682  0.8117  0.5626  1.1821
 9469TIP3    H228372   6.965   3.463   4.784 -0.9534  1.2975 -0.5772
 9470TIP3   OH228373   0.872   5.055   1.545  0.0325  0.0817 -0.1452
 9470TIP3    H128374   0.836   4.976   1.587 -0.9278  0.3852 -0.3755
 9470TIP3    H228375   0.931   5.092   1.610  0.2907 -0.6819  0.0668
 9471TIP3   OH228376   5.322   2.581   4.158 -0.7128 -0.4055 -0.2875
 9471TIP3    H128377   5.285   2.635   4.228  1.4507  0.5580  0.1903
 9471TIP3    H228378   5.281   2.615   4.078  1.0777  2.5233 -0.0906
 9472TIP3   OH228379   4.775   0.925   5.824  0.2703 -0.0100  0.8115
 9472TIP3    H128380   4.852   0.973   5.796  0.2217  0.3055  1.2082
 9472TIP3    H228381   4.798   0.833   5.811  0.4624  0.1092  0.3094
 9473TIP3   OH228382   3.134   5.581   4.236  0.4308  0.5060 -0.3464
 9473TIP3    H128383   3.129   5.649   4.302  0.4160  1.0298 -0.8745
 9473TIP3    H228384   3.105   5.501   4.280  0.3121  0.8731  0.2379
 9474TIP3   OH228385   2.649   6.111   4.815 -0.2027 -0.4315 -0.5019
 9474TIP3    H128386   2.566   6.090   4.772 -0.2815  1.0112 -1.0883
 9474TIP3    H228387   2.716   6.095   4.748 -0.1409 -0.1493 -0.5079
 9475TIP3   OH228388   4.081   0.110   1.341 -0.1579 -0.3091 -0.2518
 9475TIP3    H128389   4.028   0.035   1.315 -0.0821 -0.7227  0.7307
 9475TIP3    H228390   4.097   0.096   1.434  1.7026 -0.2112 -0.5256
 9476TIP3   OH228391   3.860   2.917   4.380 -0.0963 -0.4889 -0.1092
 9476TIP3    H128392   3.938   2.913   4.324  1.0146  0.2250  1.3157
 9476TIP3    H228393   3.814   2.834   4.363  1.6264 -1.4997 -0.0657
 9477TIP3   OH228394   6.342   5.679   1.781 -0.3640  0.1006 -0.2632
 9477TIP3    H128395   6.372   5.658   1.692  0.8944 -0.6215  0.2969
 9477TIP3    H228396   6.343   5.775   1.784  1.6918  0.1432 -0.4068
 9478TIP3   OH228397   5.319   4.447   0.770  0.9734 -0.2256 -0.9601
 9478TIP3    H128398   5.322   4.366   0.719 -0.2024 -0.1084 -1.2402
 9478TIP3    H228399   5.233   4.485   0.750 -0.4307 -1.1333  2.5881
 9479TIP3   OH228400   5.000   2.199   4.991  0.2056  0.5280  0.0640
 9479TIP3    H128401   4.945   2.228   5.064 -0.5919  0.0099 -0.3268
 9479TIP3    H228402   5.071   2.150   5.033  0.0620  0.7134  0.5314
 9480TIP3   OH228403   0.529   1.651   1.630  0.1084  0.5107 -0.3884
 9480TIP3    H128404   0.584   1.572   1.626 -1.3480 -0.4909 -2.2633
 9480TIP3    H228405   0.496   1.651   1.720 -0.2802 -1.3503 -0.4816
 9481TIP3   OH228406   5.210   5.261   1.473  0.1333 -0.1265  0.8260
 9481TIP3    H128407   5.304   5.275   1.480  0.1038 -0.1011  1.2146
 9481TIP3    H228408   5.182   5.317   1.401  0.3789  0.0332  0.8549
 9482TIP3   OH228409   2.608   1.734   3.811 -0.7658 -0.3190 -0.0348
 9482TIP3    H128410   2.696   1.761   3.840 -0.7166  0.0359 -0.5064
 9482TIP3    H228411   2.549   1.793   3.857 -0.6755  0.3944 -0.8115
 9483TIP3   OH228412   2.221   0.960   1.141  0.0008  0.2291 -0.2294
 9483TIP3    H128413   2.179   1.045   1.133 -0.8597 -0.1532  0.1093
 9483TIP3    H228414   2.306   0.971   1.098 -0.5798  0.9164 -1.2367
 9484TIP3   OH228415   3.968   5.526   3.909  0.5640  0.4846 -0.0260
 9484TIP3    H128416   3.975   5.558   3.819 -1.7656 -0.6143 -0.6792
 9484TIP3    H228417   3.900   5.580   3.948 -1.1102 -1.4066 -0.1536
 9485TIP3   OH228418   0.051   3.287   0.436 -0.3456  0.4949 -0.7467
 9485TIP3    H128419   0.028   3.273   0.344  1.5107 -0.3270 -1.1449
 9485TIP3    H228420   0.088   3.203   0.464  0.3732  1.1463  0.3388
 9486TIP3   OH228421   4.689   1.409   5.553  0.4810  0.2836 -0.2764
 9486TIP3    H128422   4.637   1.468   5.607  0.4505 -0.7784  0.8974
 9486TIP3    H228423   4.650   1.416   5.466 -0.8281  0.4692  0.2956
 9487TIP3   OH228424   6.307   4.736   4.531  0.0264  0.2218 -0.0129
 9487TIP3    H128425   6.269   4.805   4.585 -1.3123 -0.8517  0.4696
 9487TIP3    H228426   6.234   4.702   4.480  0.6993 -0.7068 -0.3953
 9488TIP3   OH228427   6.907   3.959   2.648 -0.6394  0.2174 -0.0507
 9488TIP3    H128428   6.946   3.882   2.688 -1.3799  0.3966  1.0516
 9488TIP3    H228429   6.941   4.033   2.699 -0.5004  0.5729 -0.6412
 9489TIP3   OH228430   3.434   2.749   5.101 -0.2809  0.6084  0.8077
 9489TIP3    H128431   3.405   2.660   5.080  0.1745  0.4473  0.8386
 9489TIP3    H228432   3.425   2.797   5.019  0.8095  0.1635  0.4086
 9490TIP3   OH228433   4.696   0.579   1.826  0.3604  0.4873 -0.2050
 9490TIP3    H128434   4.735   0.497   1.858 -0.7159 -0.2175 -0.6524
 9490TIP3    H228435   4.770   0.627   1.790  1.2146  0.2661  1.1612
 9491TIP3   OH228436   5.386   1.792   5.640  0.0582  0.1177  0.4956
 9491TIP3    H128437   5.452   1.722   5.636  0.3218  0.3535  0.6417
 9491TIP3    H228438   5.436   1.870   5.664 -0.3812  0.1562  1.3222
 9492TIP3   OH228439   2.851   3.594   3.876  0.2000  0.1246  0.3151
 9492TIP3    H128440   2.887   3.656   3.813  1.4727 -0.3209  0.5756
 9492TIP3    H228441   2.902   3.514   3.862  0.5333  0.0269  1.9347
 9493TIP3   OH228442   3.159   2.141   5.285  0.0732  0.4651  0.4025
 9493TIP3    H128443   3.181   2.063   5.233  0.0835 -1.9158  3.6044
 9493TIP3    H228444   3.071   2.123   5.318  0.1469  1.7455  1.3539
 9494TIP3   OH228445   6.178   5.431   0.991  0.4836 -0.8361  0.5012
 9494TIP3    H128446   6.267   5.465   1.003 -0.6109  2.2137  1.0536
 9494TIP3    H228447   6.127   5.508   0.966 -1.9942 -2.5050  0.1338
 9495TIP3   OH228448   3.812   4.677   1.238 -0.6117 -0.0108 -0.2667
 9495TIP3    H128449   3.753   4.602   1.225 -0.4555  0.2092 -2.5981
 9495TIP3    H228450   3.769   4.749   1.191  0.7138  0.5631 -0.6314
 9496TIP3   OH228451   4.600   6.058   4.749  0.5432  0.2055  0.3652
 9496TIP3    H128452   4.680   6.076   4.798  0.6929  0.5143  0.0146
 9496TIP3    H228453   4.583   5.965   4.764  0.8930  0.1687  0.5504
 9497TIP3   OH228454   0.179   0.766   4.299  0.0171  0.3000 -0.8528
 9497TIP3    H128455   0.233   0.837   4.262 -1.3369  1.7342 -0.1745
 9497TIP3    H228456   0.114   0.749   4.231  0.7985 -0.8900 -1.3419
 9498TIP3   OH228457   4.316   4.866   1.018 -0.3520 -0.7359  0.4369
 9498TIP3    H128458   4.315   4.956   1.050 -0.9417 -0.3322 -0.6748
 9498TIP3    H228459   4.225   4.837   1.025 -0.6395 -0.4188 -1.3926
 9499TIP3   OH228460   3.587   6.158   1.427 -0.0811 -0.1952 -0.0174
 9499TIP3    H128461   3.597   6.067   1.401 -0.7615 -0.8014  1.7107
 9499TIP3    H228462   3.529   6.196   1.360  0.3128 -0.9693 -0.8218
 9500TIP3   OH228463   1.861   3.771   4.035 -0.0404 -0.4440  0.1957
 9500TIP3    H128464   1.954   3.776   4.012 -0.3441 -0.2010 -1.0497
 9500TIP3    H228465   1.857   3.810   4.122  0.8627  0.7096 -0.2386
 9501TIP3   OH228466   0.724   4.297   3.253  0.0200 -0.1772 -0.4432
 9501TIP3    H128467   0.699   4.269   3.341  1.3589 -0.5281 -0.1582
 9501TIP3    H228468   0.684   4.232   3.195 -0.5799 -0.1409 -0.0791
 9502TIP3   OH228469   5.285   1.465   1.470  0.1847  0.3496  0.1985
 9502TIP3    H128470   5.213   1.517   1.505  0.9860  2.8653 -1.5850
 9502TIP3    H228471   5.242   1.395   1.420 -0.9264 -0.2151  1.8389
 9503TIP3   OH228472   5.631   3.438   1.505  0.0120 -0.0019  0.2952
 9503TIP3    H128473   5.624   3.355   1.458 -1.9383  0.1907  0.1471
 9503TIP3    H228474   5.673   3.497   1.442 -2.1749  0.1356 -1.1605
 9504TIP3   OH228475   3.509   4.289   2.137 -0.1268 -0.1899 -0.0055
 9504TIP3    H128476   3.466   4.245   2.211  1.9579  1.6709  2.4580
 9504TIP3    H228477   3.488   4.381   2.148  1.9066  0.3804 -0.4956
 9505TIP3   OH228478   3.174   0.874   2.665  0.4624 -0.4298 -0.2113
 9505TIP3    H128479   3.093   0.824   2.664 -0.2346  0.6117  0.7359
 9505TIP3    H228480   3.242   0.810   2.682 -0.6456 -0.8531  3.5256
 9506TIP3   OH228481   5.263   3.408   4.051  0.4308 -0.0592 -0.0263
 9506TIP3    H128482   5.239   3.444   3.965 -0.0788  1.6912  0.8172
 9506TIP3    H228483   5.187   3.424   4.106 -0.0259 -2.9442  0.3254
 9507TIP3   OH228484   5.878   0.872   3.171 -0.0620 -0.0926  0.1787
 9507TIP3    H128485   5.817   0.941   3.197 -0.8281 -0.1369 -1.3716
 9507TIP3    H228486   5.941   0.916   3.114  1.1150 -0.1456  1.3900
 9508TIP3   OH228487   1.545   2.499   4.455  0.5872  0.4468 -0.0499
 9508TIP3    H128488   1.491   2.515   4.532 -0.5061  0.2842 -0.7545
 9508TIP3    H228489   1.623   2.554   4.468  0.4293  0.4010  1.1620
 9509TIP3   OH228490   0.022   3.788   2.660 -0.5500 -0.3753  0.1277
 9509TIP3    H128491   0.069   3.749   2.586 -0.8824 -0.1031 -0.2254
 9509TIP3    H228492   0.058   3.876   2.668 -0.4328 -0.4427  0.3677
 9510TIP3   OH228493   5.845   4.760   2.179  0.6401  0.6703  0.2667
 9510TIP3    H128494   5.867   4.835   2.234 -3.9763  2.1063  0.5716
 9510TIP3    H228495   5.809   4.800   2.099  0.1785 -1.2813 -0.5427
 9511TIP3   OH228496   2.392   4.658   3.980  0.3431  0.0282 -0.2519
 9511TIP3    H128497   2.385   4.646   3.885  0.8420  0.3410 -0.3290
 9511TIP3    H228498   2.486   4.661   3.997  0.3372 -2.1600  0.5166
 9512TIP3   OH228499   5.586   2.070   0.533  0.9542  0.2285  0.1206
 9512TIP3    H128500   5.654   2.107   0.589  0.2308 -0.1165  1.2667
 9512TIP3    H228501   5.526   2.143   0.517 -0.7145 -0.4352  2.7525
 9513TIP3   OH228502   0.252   2.558   0.423  0.1475 -0.2666  0.2987
 9513TIP3    H128503   0.256   2.468   0.455 -0.9266 -0.1135  0.9400
 9513TIP3    H228504   0.159   2.572   0.404  0.0333  1.1906  1.7099
 9514TIP3   OH228505   4.758   3.720   4.243  0.2098  0.2648  0.2537
 9514TIP3    H128506   4.700   3.647   4.262  1.1552 -0.4761  0.3474
 9514TIP3    H228507   4.814   3.689   4.171  0.0247  1.2237 -0.3291
 9515TIP3   OH228508   6.830   5.751   0.323  0.3832 -0.1629  0.2403
 9515TIP3    H128509   6.910   5.735   0.273  0.1930  2.0117 -0.8531
 9515TIP3    H228510   6.765   5.775   0.257 -0.5408  0.4143  1.3296
 9516TIP3   OH228511   6.974   2.029   2.242  0.2630 -0.3193 -0.2736
 9516TIP3    H128512   6.957   1.941   2.208  0.6655  0.2733 -2.1832
 9516TIP3    H228513   6.889   2.061   2.272 -0.5251 -0.3045 -2.3339
 9517TIP3   OH228514   2.391   1.192   1.798 -0.0943 -0.3801 -0.3824
 9517TIP3    H128515   2.380   1.248   1.722  1.4027  1.3442  0.5811
 9517TIP3    H228516   2.360   1.244   1.872 -3.0312 -2.5894  0.1199
 9518TIP3   OH228517   6.186   5.826   3.132 -0.4890  0.3739  0.3259
 9518TIP3    H128518   6.241   5.816   3.054 -0.3037 -0.1672  0.5211
 9518TIP3    H228519   6.219   5.906   3.174 -0.6650  0.7341 -0.2020
 9519TIP3   OH228520   5.488   1.273   4.568 -0.7500 -0.3565  0.3943
 9519TIP3    H128521   5.467   1.297   4.658 -0.9938 -0.4326  0.3563
 9519TIP3    H228522   5.428   1.202   4.547 -0.9297 -0.1069  0.0534
 9520TIP3   OH228523   6.592   2.363   1.105  0.1220  0.1108 -0.9076
 9520TIP3    H128524   6.518   2.303   1.112 -0.0144  0.3611 -0.0142
 9520TIP3    H228525   6.580   2.425   1.178  1.7533 -0.4614 -0.0974
 9521TIP3   OH228526   2.638   4.847   3.560 -0.9995  0.1548 -0.3632
 9521TIP3    H128527   2.723   4.845   3.516  0.4061 -0.2902  2.1594
 9521TIP3    H228528   2.574   4.825   3.492  0.7288  1.8409 -2.6378
 9522TIP3   OH228529   4.616   6.305   1.057  0.2908 -0.1001  0.1222
 9522TIP3    H128530   4.651   6.342   1.138  0.5785  0.2495 -0.1578
 9522TIP3    H228531   4.693   6.287   1.004  0.0914 -0.1239 -0.1595
 9523TIP3   OH228532   0.654   0.751   4.432  0.6497 -0.0192  0.1562
 9523TIP3    H128533   0.596   0.704   4.491  1.1388 -0.6233  0.1679
 9523TIP3    H228534   0.596   0.808   4.382  0.2290  0.5608  1.2608
 9524TIP3   OH228535   2.096   5.660   4.797 -0.2715  0.5080 -0.4247
 9524TIP3    H128536   2.093   5.731   4.732  0.2582  0.1343 -0.8607
 9524TIP3    H228537   2.154   5.595   4.759  1.9015  1.2449  1.3886
 9525TIP3   OH228538   6.566   3.106   4.790  0.1227  0.2109  0.4177
 9525TIP3    H128539   6.548   3.019   4.825 -0.3107  0.1169 -0.0409
 9525TIP3    H228540   6.588   3.092   4.698  0.2353  0.5659  0.3878
 9526TIP3   OH228541   5.883   0.405   4.848 -0.9717  0.0913 -0.0967
 9526TIP3    H128542   5.941   0.459   4.794 -1.9645 -0.2817 -1.6071
 9526TIP3    H228543   5.936   0.381   4.923  0.5022  0.5986 -0.9301
 9527TIP3   OH228544   2.380   3.922   1.326 -0.4207 -0.3019 -0.2078
 9527TIP3    H128545   2.412   3.969   1.249 -1.0101  2.8296  1.3288
 9527TIP3    H228546   2.286   3.938   1.327 -0.4803 -0.6408  0.9372
 9528TIP3   OH228547   3.919   4.419   3.604  0.5317  0.5237 -0.1339
 9528TIP3    H128548   3.942   4.343   3.551  0.8983 -0.8662  1.8978
 9528TIP3    H228549   3.894   4.383   3.689  1.1597  2.7116  1.0673
 9529TIP3   OH228550   0.798   2.438   3.488 -0.2491  0.2446 -0.3495
 9529TIP3    H128551   0.873   2.497   3.494  0.1750 -0.4350  1.5388
 9529TIP3    H228552   0.778   2.435   3.394  0.5518  2.3074 -0.6454
 9530TIP3   OH228553   5.714   2.630   0.081  0.5502  0.2550  0.4808
 9530TIP3    H128554   5.807   2.625   0.056  0.2343  1.3699 -1.0179
 9530TIP3    H228555   5.690   2.721   0.064 -0.5701  0.2528  1.8735
 9531TIP3   OH228556   6.066   3.837   1.688 -0.1553  0.7176 -0.1161
 9531TIP3    H128557   6.027   3.805   1.607 -0.1575 -1.0355  0.5438
 9531TIP3    H228558   6.125   3.907   1.660  0.1218 -0.0908 -1.6743
 9532TIP3   OH228559   2.432   3.624   2.468  0.1104 -0.4007 -0.0634
 9532TIP3    H128560   2.510   3.600   2.518  1.0390 -0.4638 -1.4939
 9532TIP3    H228561   2.460   3.698   2.413 -0.9859 -0.0754 -0.2179
 9533TIP3   OH228562   2.862   0.081   2.501 -0.0894 -0.2122 -0.0303
 9533TIP3    H128563   2.782   0.030   2.486  1.0148 -1.9679 -0.2576
 9533TIP3    H228564   2.834   0.153   2.557 -2.0016 -0.2468 -0.8652
 9534TIP3   OH228565   4.035   0.808   0.319  0.0704  0.6056 -0.4181
 9534TIP3    H128566   4.012   0.859   0.241 -0.9777  2.1892  0.8619
 9534TIP3    H228567   3.955   0.759   0.339  0.2246  0.4693 -0.1339
 9535TIP3   OH228568   0.672   6.071   2.266 -0.2554 -0.1987 -0.6319
 9535TIP3    H128569   0.620   6.039   2.193  1.1587  0.7155 -2.1034
 9535TIP3    H228570   0.629   6.152   2.294 -0.7100 -0.4684 -0.5528
 9536TIP3   OH228571   0.592   2.032   5.436 -0.6482 -0.6272  0.1747
 9536TIP3    H128572   0.562   2.074   5.356 -0.6456 -0.2987  0.3475
 9536TIP3    H228573   0.523   2.048   5.500 -1.1246 -1.7468 -0.0295
 9537TIP3   OH228574   2.982   1.433   3.472  0.3577 -0.5786 -0.2618
 9537TIP3    H128575   2.964   1.416   3.565  0.3485  2.2794  0.3402
 9537TIP3    H228576   3.069   1.396   3.458 -0.4292 -2.7986  0.3079
 9538TIP3   OH228577   2.195   5.062   4.450  0.5642  0.4921  0.2568
 9538TIP3    H128578   2.113   5.016   4.434  0.2382  1.6513 -1.7660
 9538TIP3    H228579   2.234   5.017   4.525 -1.0774 -1.1923  0.1638
 9539TIP3   OH228580   3.886   4.348   2.933 -0.0394 -0.4225  0.3882
 9539TIP3    H128581   3.822   4.358   2.863  1.5405 -2.6184 -1.5497
 9539TIP3    H228582   3.923   4.436   2.945  0.1750 -0.0953 -2.1491
 9540TIP3   OH228583   6.651   6.033   2.003 -0.2182 -0.6783 -0.2314
 9540TIP3    H128584   6.689   5.945   1.999  3.0590  0.5625 -0.0629
 9540TIP3    H228585   6.675   6.073   1.919 -0.5754  0.4135  0.1659
 9541TIP3   OH228586   4.127   1.181   3.768  0.1947  0.5882  0.2725
 9541TIP3    H128587   4.082   1.218   3.843  1.1656  2.1330  0.1207
 9541TIP3    H228588   4.206   1.234   3.757  2.7624 -2.6403  1.2083
 9542TIP3   OH228589   4.799   4.416   3.352  0.5538  0.2280 -0.1876
 9542TIP3    H128590   4.724   4.389   3.299  1.0637  1.7628 -1.7971
 9542TIP3    H228591   4.875   4.380   3.306  0.8748 -1.4839  1.5353
 9543TIP3   OH228592   5.923   2.020   2.304  0.0787 -0.3297 -0.4676
 9543TIP3    H128593   5.851   1.991   2.359  1.1284 -0.0131  1.1257
 9543TIP3    H228594   5.930   1.954   2.236 -0.9916 -0.9419 -0.0014
 9544TIP3   OH228595   1.657   0.322   3.180  0.2356  0.4953  0.0377
 9544TIP3    H128596   1.624   0.278   3.102  0.2774  1.2311 -0.4054
 9544TIP3    H228597   1.723   0.263   3.215 -1.1901 -0.7867  0.6827
 9545TIP3   OH228598   1.502   6.557   5.770 -0.0276 -0.4889  0.2728
 9545TIP3    H128599   1.585   6.573   5.725 -0.1412 -0.1880  0.1660
 9545TIP3    H228600   1.507   6.611   5.849 -0.0097 -0.6813  0.4049
 9546TIP3   OH228601   4.293   0.135   2.540  0.4047 -0.1393 -0.3523
 9546TIP3    H128602   4.206   0.099   2.559 -0.3931  2.7571  2.3596
 9546TIP3    H228603   4.275   0.219   2.498  1.6817  1.4091  1.9682
 9547TIP3   OH228604   2.930   3.187   5.716  0.1114 -0.1723 -0.2437
 9547TIP3    H128605   2.892   3.160   5.800  0.9321  0.9156  0.4917
 9547TIP3    H228606   2.861   3.168   5.652 -1.0707  0.2989  0.8496
 9548TIP3   OH228607   6.793   2.619   5.165 -0.0126 -0.1938  0.4239
 9548TIP3    H128608   6.766   2.625   5.257 -0.0452 -0.6919  0.4480
 9548TIP3    H228609   6.759   2.699   5.125 -1.3059 -0.6756  0.5142
 9549TIP3   OH228610   4.494   2.709   2.976  0.0001 -0.3000  0.5091
 9549TIP3    H128611   4.554   2.636   2.990 -0.6877 -0.9084  0.3543
 9549TIP3    H228612   4.422   2.672   2.923  0.8315  1.0617 -1.7407
 9550TIP3   OH228613   6.765   3.881   1.302  0.4176 -0.3237  0.0764
 9550TIP3    H128614   6.773   3.965   1.257  0.2698 -0.5648 -0.4054
 9550TIP3    H228615   6.680   3.884   1.345  1.5692  0.9355  2.4998
 9551TIP3   OH228616   7.079   2.963   4.875 -0.2973  0.2018  0.1711
 9551TIP3    H128617   7.149   2.902   4.852  0.1664  0.3211  1.2214
 9551TIP3    H228618   7.036   2.983   4.791  1.9350  1.4217 -0.7549
 9552TIP3   OH228619   4.466   1.587   4.810 -0.4719 -0.0541 -0.0507
 9552TIP3    H128620   4.468   1.504   4.858  1.6001 -0.9027 -1.4619
 9552TIP3    H228621   4.500   1.652   4.872  0.5206 -0.8080  0.2240
 9553TIP3   OH228622   5.073   0.310   1.303 -0.1054 -0.0046 -0.1891
 9553TIP3    H128623   5.092   0.386   1.248  2.2343 -0.8514 -0.6894
 9553TIP3    H228624   5.092   0.340   1.392  0.6283  0.0933 -0.3670
 9554TIP3   OH228625   1.095   2.281   5.287  0.8227 -0.3233 -0.0058
 9554TIP3    H128626   1.097   2.218   5.359  1.8148  1.8901  2.0448
 9554TIP3    H228627   1.095   2.367   5.330  0.3017  1.1129 -2.6583
 9555TIP3   OH228628   0.457   5.718   5.062 -0.0110 -0.0945  0.0773
 9555TIP3    H128629   0.488   5.687   5.147 -0.1384  1.5175  0.7335
 9555TIP3    H228630   0.362   5.724   5.071 -0.1335 -0.8603 -0.5279
 9556TIP3   OH228631   7.187   0.611   3.861  0.0644 -0.1196  0.4122
 9556TIP3    H128632   7.102   0.569   3.872 -0.3634  0.6702  0.2108
 9556TIP3    H228633   7.243   0.543   3.823 -1.4195  0.2601 -2.8256
 9557TIP3   OH228634   5.354   3.512   3.430  0.3497  0.2414 -0.2880
 9557TIP3    H128635   5.264   3.524   3.458  0.1648  1.9091 -1.4178
 9557TIP3    H228636   5.348   3.480   3.339  0.8921  0.1812 -0.3092
 9558TIP3   OH228637   1.559   4.456   5.424 -0.1486 -0.8819 -0.0670
 9558TIP3    H128638   1.534   4.521   5.489  0.9690 -0.0852 -0.3955
 9558TIP3    H228639   1.552   4.503   5.340  0.1301 -1.3555 -0.3594
 9559TIP3   OH228640   1.387   6.137   3.684  0.1971 -0.0589 -0.2746
 9559TIP3    H128641   1.292   6.133   3.693  0.2763  0.6841  1.2873
 9559TIP3    H228642   1.414   6.046   3.671 -0.6964 -0.2953 -0.5786
 9560TIP3   OH228643   6.812   4.709   5.317 -0.5134  0.0458 -0.2184
 9560TIP3    H128644   6.843   4.619   5.317 -0.5603  0.0001  1.7932
 9560TIP3    H228645   6.832   4.741   5.228 -1.3790 -2.2034 -1.2881
 9561TIP3   OH228646   2.136   2.997   2.079 -0.0868  0.2152 -0.1391
 9561TIP3    H128647   2.116   3.072   2.023 -1.2651 -0.5352 -0.7471
 9561TIP3    H228648   2.087   3.014   2.160  0.5036  0.6038  0.1525
 9562TIP3   OH228649   6.842   5.726   1.556  0.8520  0.3459  0.7466
 9562TIP3    H128650   6.821   5.725   1.462  2.7962  0.0635  0.2656
 9562TIP3    H228651   6.892   5.646   1.570 -0.9430 -0.5424  2.4642
 9563TIP3   OH228652   6.704   6.356   2.978 -0.3586  0.2558  0.5759
 9563TIP3    H128653   6.783   6.410   2.969  1.3597 -1.5967  2.9427
 9563TIP3    H228654   6.656   6.395   3.051 -0.6763  0.3225  0.3303
 9564TIP3   OH228655   1.181   4.412   5.760  0.2162 -0.4867 -0.0363
 9564TIP3    H128656   1.188   4.503   5.788 -0.9161 -0.5629  0.5765
 9564TIP3    H228657   1.114   4.414   5.691  0.9776 -0.7086 -0.7996
 9565TIP3   OH228658   6.374   1.082   3.574 -0.1038 -0.0322  0.5768
 9565TIP3    H128659   6.298   1.077   3.515  0.6463  0.6857 -0.4818
 9565TIP3    H228660   6.447   1.105   3.517  0.7064  0.3929  1.7548
 9566TIP3   OH228661   3.067   5.371   0.334 -0.1409 -0.8301  0.0046
 9566TIP3    H128662   3.063   5.455   0.289  0.0032 -0.7631  0.1169
 9566TIP3    H228663   2.977   5.351   0.357 -0.1375 -0.5637  0.2478
 9567TIP3   OH228664   5.324   3.957   5.242 -0.1169 -0.0125  0.0173
 9567TIP3    H128665   5.409   3.993   5.218 -0.0538 -0.6662 -0.8200
 9567TIP3    H228666   5.334   3.863   5.228 -0.9368 -0.1062  0.0364
 9568TIP3   OH228667   4.555   1.094   5.261 -0.0420  0.1900  0.2153
 9568TIP3    H128668   4.506   1.070   5.182 -1.3252 -0.0769  1.0648
 9568TIP3    H228669   4.610   1.018   5.278 -2.7456 -1.5808  1.8403
 9569TIP3   OH228670   2.207   0.171   0.977 -0.1847  0.0133  0.2005
 9569TIP3    H128671   2.293   0.163   0.934  0.3201 -1.7762  1.4271
 9569TIP3    H228672   2.202   0.263   1.003  1.7140  0.0155  0.7313
 9570TIP3   OH228673   0.397   2.827   3.853 -0.0543  0.1395 -0.4123
 9570TIP3    H128674   0.358   2.768   3.788 -0.5865  0.5312 -0.4576
 9570TIP3    H228675   0.371   2.790   3.938  0.7238 -0.4276 -0.4167
 9571TIP3   OH228676   0.263   0.591   2.080  0.3198 -0.2005  0.0140
 9571TIP3    H128677   0.317   0.534   2.135  0.8520  0.3017  0.0188
 9571TIP3    H228678   0.284   0.679   2.111 -2.3276 -0.0610  1.7401
 9572TIP3   OH228679   4.726   6.422   2.730  0.4798 -0.0918 -0.4230
 9572TIP3    H128680   4.657   6.394   2.669 -1.2561  1.9692  0.4439
 9572TIP3    H228681   4.681   6.432   2.814  1.1718  3.4764 -0.2894
 9573TIP3   OH228682   4.048   5.362   0.539  0.4109 -0.3909 -0.0515
 9573TIP3    H128683   4.034   5.421   0.613 -0.8351 -0.5645 -0.1237
 9573TIP3    H228684   4.137   5.329   0.551  0.2069 -0.4869  1.4183
 9574TIP3   OH228685   3.396   3.022   2.762  0.3758 -0.2662 -0.7667
 9574TIP3    H128686   3.316   3.073   2.773 -0.8463 -2.1778 -0.3049
 9574TIP3    H228687   3.381   2.970   2.683  0.8194 -1.2304 -0.2300
 9575TIP3   OH228688   1.193   3.481   2.097  0.0973 -0.1874 -0.1918
 9575TIP3    H128689   1.283   3.469   2.066  0.4107  1.3391  0.0539
 9575TIP3    H228690   1.151   3.532   2.028 -0.1060  0.5061  0.4356
 9576TIP3   OH228691   6.904   5.126   0.659 -0.2965 -0.2346 -0.1567
 9576TIP3    H128692   6.835   5.192   0.651 -0.3301 -0.0046  1.6113
 9576TIP3    H228693   6.985   5.177   0.662 -0.0985 -0.4500 -1.2440
 9577TIP3   OH228694   6.067   1.207   4.759  0.0486  0.0753 -0.8949
 9577TIP3    H128695   6.056   1.114   4.740  0.3396 -0.2749  0.4682
 9577TIP3    H228696   6.160   1.224   4.740  0.4354 -0.3655  0.4735
 9578TIP3   OH228697   1.216   1.497   5.416 -0.4255  0.1864 -0.1152
 9578TIP3    H128698   1.229   1.530   5.505 -1.0204  0.2475 -0.0459
 9578TIP3    H228699   1.227   1.574   5.360  1.3277 -0.1005 -0.2290
 9579TIP3   OH228700   6.447   4.576   5.246 -0.2178 -0.4264 -0.3358
 9579TIP3    H128701   6.495   4.541   5.321 -0.8941 -1.2580 -0.2803
 9579TIP3    H228702   6.434   4.668   5.267  0.7374 -0.3414 -0.0411
 9580TIP3   OH228703   3.422   0.748   2.738  0.4998 -0.3008 -0.1287
 9580TIP3    H128704   3.444   0.658   2.711  0.1777  0.0305 -1.5969
 9580TIP3    H228705   3.504   0.796   2.729  0.6865 -0.4518  0.7168
 9581TIP3   OH228706   6.217   4.642   0.483  0.2771  0.4084 -0.8352
 9581TIP3    H128707   6.142   4.591   0.512  0.1235  0.3355 -1.3627
 9581TIP3    H228708   6.192   4.677   0.398  0.3466  1.4347 -0.4503
 9582TIP3   OH228709   5.923   1.198   1.009  0.2040 -0.1690 -0.6015
 9582TIP3    H128710   5.841   1.212   1.056  0.9404 -0.9986  0.9724
 9582TIP3    H228711   5.902   1.221   0.918 -1.3741  1.0068  0.0150
 9583TIP3   OH228712   0.001   4.447   3.755 -0.1126  0.1249  0.4065
 9583TIP3    H128713   0.097   4.440   3.763 -0.0322 -0.6580 -1.0199
 9583TIP3    H228714  -0.030   4.357   3.753 -0.8308  0.3721  0.1703
 9584TIP3   OH228715   2.531   0.703   0.962  0.0024  0.1696  0.2478
 9584TIP3    H128716   2.532   0.669   0.873  0.4884  0.7032  0.0404
 9584TIP3    H228717   2.561   0.631   1.016 -0.2963 -0.1579 -0.0208
 9585TIP3   OH228718   0.505   4.129   3.880  0.2618 -0.3803  0.4479
 9585TIP3    H128719   0.434   4.137   3.943 -0.7558 -0.6686 -0.6408
 9585TIP3    H228720   0.463   4.100   3.799  1.4497  0.4864 -0.5259
 9586TIP3   OH228721   1.066   4.085   1.803  0.1182 -0.2152  0.1383
 9586TIP3    H128722   1.143   4.138   1.781  0.6852 -0.7119  0.8860
 9586TIP3    H228723   0.992   4.144   1.788  0.6872  0.5414  0.1958
 9587TIP3   OH228724   0.172   0.676   0.202  0.2456  0.3647 -0.5395
 9587TIP3    H128725   0.220   0.752   0.168  0.2724 -0.1547 -1.6744
 9587TIP3    H228726   0.237   0.606   0.205 -0.1907 -0.0593 -1.0725
 9588TIP3   OH228727   3.837   3.122   3.176 -0.0057 -0.2481 -0.3322
 9588TIP3    H128728   3.827   3.028   3.194 -0.4427 -0.0506  0.4896
 9588TIP3    H228729   3.919   3.127   3.126 -0.0833 -1.0847 -0.5699
 9589TIP3   OH228730   0.649   1.881   1.619  0.1698 -0.0773  0.4686
 9589TIP3    H128731   0.574   1.937   1.601 -0.2265 -0.0757  1.9748
 9589TIP3    H228732   0.610   1.795   1.635  0.6544 -0.4777 -0.4108
 9590TIP3   OH228733   1.933   6.482   0.815  0.6388 -0.0264  0.3065
 9590TIP3    H128734   1.886   6.545   0.870  0.6164 -0.2598  0.5599
 9590TIP3    H228735   1.864   6.425   0.780  0.6061  0.3791 -0.3128
 9591TIP3   OH228736   2.908   3.453   0.731  0.0768  0.2692 -0.4069
 9591TIP3    H128737   3.002   3.466   0.720  0.1927 -0.5668 -0.5113
 9591TIP3    H228738   2.898   3.424   0.822  0.1142 -1.1259 -0.8186
 9592TIP3   OH228739   2.151   1.842   1.305  0.3220  0.1084 -1.0005
 9592TIP3    H128740   2.171   1.844   1.211 -2.3523 -0.8707 -1.7011
 9592TIP3    H228741   2.180   1.928   1.337  0.5573  0.8029 -2.9108
 9593TIP3   OH228742   2.601   2.167   4.359 -0.1208  0.0311  0.5126
 9593TIP3    H128743   2.524   2.185   4.305  1.9481  0.7111 -2.5155
 9593TIP3    H228744   2.645   2.252   4.368  2.2071 -0.8604 -1.2933
 9594TIP3   OH228745   1.576   2.456   1.592 -0.1771  0.2534  0.0390
 9594TIP3    H128746   1.512   2.391   1.620 -0.8936  1.5774  1.6461
 9594TIP3    H228747   1.539   2.495   1.513 -0.4932 -0.2074 -0.0437
 9595TIP3   OH228748   1.273   0.344   2.414 -0.4728 -0.1781  0.6032
 9595TIP3    H128749   1.218   0.420   2.433 -0.7462 -0.6922  1.9994
 9595TIP3    H228750   1.217   0.268   2.433 -0.3561 -0.7523 -1.2053
 9596TIP3   OH228751   0.357   3.400   3.746 -0.0266  0.2802 -0.2371
 9596TIP3    H128752   0.353   3.490   3.778  1.0124  0.8845 -1.6833
 9596TIP3    H228753   0.409   3.353   3.811  0.4950  1.0345 -0.0967
 9597TIP3   OH228754   3.712   5.129   0.804 -0.3191 -0.4685  0.0750
 9597TIP3    H128755   3.748   5.085   0.881  1.2582  0.5013 -0.0556
 9597TIP3    H228756   3.750   5.217   0.808 -2.6711  0.6224 -0.1419
 9598TIP3   OH228757   2.746   2.432   0.785 -0.2835 -0.4264 -0.2294
 9598TIP3    H128758   2.752   2.526   0.805 -3.2756  0.4078 -2.5565
 9598TIP3    H228759   2.745   2.389   0.871  0.1828  1.7101  0.9163
 9599TIP3   OH228760   6.747   0.993   3.623 -0.1627 -0.3558  0.1776
 9599TIP3    H128761   6.788   0.985   3.709  1.0425  0.5404 -0.2843
 9599TIP3    H228762   6.680   0.924   3.622 -0.3940 -0.2037  1.9227
 9600TIP3   OH228763   5.348   5.220   5.247 -0.5202  0.0192  0.0608
 9600TIP3    H128764   5.289   5.234   5.321  1.2127 -2.7728  2.1878
 9600TIP3    H228765   5.333   5.129   5.222  1.1765 -0.0327 -0.9091
 9601TIP3   OH228766   2.826   2.328   0.255 -0.1192 -0.1121 -0.2123
 9601TIP3    H128767   2.820   2.334   0.351  0.7219 -0.6591 -0.1202
 9601TIP3    H228768   2.908   2.370   0.233 -0.8157  0.9804 -0.8128
 9602TIP3   OH228769   0.603   1.823   2.828 -0.3477  0.3300  0.0606
 9602TIP3    H128770   0.588   1.772   2.907  0.5163  1.6104  1.0811
 9602TIP3    H228771   0.567   1.910   2.847 -1.3755  0.2788 -1.4719
 9603TIP3   OH228772   3.252   2.206   0.833 -0.1227 -0.7128  0.1507
 9603TIP3    H128773   3.256   2.208   0.928 -2.5938  1.0802  0.2939
 9603TIP3    H228774   3.188   2.138   0.812 -1.2868  0.4160 -0.0826
 9604TIP3   OH228775   4.535   5.945   5.103 -0.3097  0.0318  0.2805
 9604TIP3    H128776   4.611   5.936   5.045  0.2131 -0.7608  1.0556
 9604TIP3    H228777   4.570   5.985   5.183 -0.8933  0.5203  0.3002
 9605TIP3   OH228778   5.340   0.592   2.175  0.2040  0.0179 -0.0040
 9605TIP3    H128779   5.331   0.636   2.259 -2.6750 -0.3063 -0.0211
 9605TIP3    H228780   5.343   0.499   2.197  0.3692 -0.0306 -0.2271
 9606TIP3   OH228781   6.541   0.332   2.937  0.5645 -0.0125  0.3935
 9606TIP3    H128782   6.613   0.366   2.884  1.1567 -2.3966 -0.4348
 9606TIP3    H228783   6.527   0.243   2.905 -2.2382  0.0840  1.0747
 9607TIP3   OH228784   0.181   1.676   1.192  0.1147  0.3397  0.2304
 9607TIP3    H128785   0.233   1.657   1.114 -0.4876 -1.6995  0.2674
 9607TIP3    H228786   0.205   1.606   1.254 -1.5325  0.2406  0.7894
 9608TIP3   OH228787   7.119   4.562   4.597 -0.4486  0.5111  0.2413
 9608TIP3    H128788   7.142   4.640   4.547 -1.7131  0.8951  0.2473
 9608TIP3    H228789   7.091   4.595   4.683  1.3981 -0.1179  1.1577
 9609TIP3   OH228790   6.163   3.634   0.974 -0.3322 -0.3581  0.6914
 9609TIP3    H128791   6.129   3.694   0.908  0.4935 -0.2417  0.3584
 9609TIP3    H228792   6.170   3.550   0.927 -1.1190 -0.6284  1.0461
 9610TIP3   OH228793   5.942   3.766   5.275 -0.1097  0.4278 -0.2997
 9610TIP3    H128794   6.028   3.742   5.310  0.3279  1.5285 -0.5945
 9610TIP3    H228795   5.961   3.807   5.191 -1.0897 -1.3155 -1.4409
 9611TIP3   OH228796   1.555   0.830   0.009 -0.1468  0.2788 -0.3746
 9611TIP3    H128797   1.650   0.825   0.020 -0.0622  1.5603 -0.2788
 9611TIP3    H228798   1.520   0.812   0.096  0.2322  3.6816  0.6549
 9612TIP3   OH228799   4.761   2.861   0.967 -0.3868  0.0617  0.4528
 9612TIP3    H128800   4.673   2.850   1.003 -1.2313  0.0451 -1.5053
 9612TIP3    H228801   4.747   2.873   0.873  1.3282  4.4329  0.4897
 9613TIP3   OH228802   6.741   5.994   4.450  0.4397 -0.2344  0.0353
 9613TIP3    H128803   6.690   6.043   4.514  1.2444  1.9578 -0.9114
 9613TIP3    H228804   6.709   6.025   4.365  0.2973 -2.1239 -0.6701
 9614TIP3   OH228805   0.226   5.025   0.800  0.2060 -0.4777  0.1556
 9614TIP3    H128806   0.243   5.080   0.724 -0.3580 -0.0192  0.3561
 9614TIP3    H228807   0.140   4.987   0.782  0.3438 -0.8522  0.2822
 9615TIP3   OH228808   2.632   4.836   2.288 -0.5464  0.9169  0.0908
 9615TIP3    H128809   2.701   4.769   2.290  0.8436  2.3110  1.0639
 9615TIP3    H228810   2.599   4.834   2.198 -1.9453 -2.3618  0.4973
 9616TIP3   OH228811   5.731   1.726   5.466  0.4493  0.0463 -0.1616
 9616TIP3    H128812   5.742   1.769   5.551 -1.1121 -0.0277  0.0984
 9616TIP3    H228813   5.650   1.675   5.475  0.8571 -0.8499 -1.3373
 9617TIP3   OH228814   5.699   1.260   1.703  0.1534  0.2171 -0.1415
 9617TIP3    H128815   5.691   1.354   1.688  0.7678  0.6268  1.8656
 9617TIP3    H228816   5.633   1.222   1.644 -2.2340  2.1023  1.1122
 9618TIP3   OH228817   2.315   3.898   2.574  0.0605  0.1913  0.4196
 9618TIP3    H128818   2.230   3.902   2.531 -0.0986  1.8019  0.8268
 9618TIP3    H228819   2.314   3.815   2.622 -1.8590  0.8204  1.5591
 9619TIP3   OH228820   4.857   5.777   2.680 -0.2011 -0.2172  0.5234
 9619TIP3    H128821   4.854   5.682   2.669  0.7907 -0.5144  2.4320
 9619TIP3    H228822   4.766   5.802   2.692 -0.2535 -1.4530  3.4500
 9620TIP3   OH228823   1.609   0.577   0.762  0.7797 -0.3930 -0.4864
 9620TIP3    H128824   1.589   0.493   0.804  0.3894 -0.5380 -0.9575
 9620TIP3    H228825   1.689   0.606   0.805  0.6325 -0.7571  0.0462
 9621TIP3   OH228826   6.554   3.272   4.145 -0.4213  0.4310 -0.0292
 9621TIP3    H128827   6.548   3.183   4.110  1.6296 -0.8155  2.4453
 9621TIP3    H228828   6.547   3.329   4.068 -0.7732 -1.8853 -1.8095
 9622TIP3   OH228829   0.405   4.236   2.492  0.6012  0.6625  0.3799
 9622TIP3    H128830   0.365   4.153   2.466 -0.4657  1.2119  0.2266
 9622TIP3    H228831   0.481   4.210   2.544  0.3736 -0.4134  0.2077
 9623TIP3   OH228832   7.070   2.937   4.209 -0.4060  0.1646  0.4247
 9623TIP3    H128833   6.987   2.978   4.184  0.1601  1.2386  0.2713
 9623TIP3    H228834   7.044   2.854   4.250 -1.5065  0.0519 -0.4532
 9624TIP3   OH228835   2.877   6.063   5.160 -0.8063 -0.3010 -0.1368
 9624TIP3    H128836   2.879   5.988   5.220 -0.8500 -1.8148 -1.9441
 9624TIP3    H228837   2.926   6.034   5.084  0.0029  1.8978 -0.5155
 9625TIP3   OH228838   6.120   2.388   3.640 -0.1485  0.3477 -0.0649
 9625TIP3    H128839   6.043   2.346   3.678 -0.3639  1.0831  0.3166
 9625TIP3    H228840   6.137   2.464   3.695  0.9069  0.1552 -0.0904
 9626TIP3   OH228841   4.224   3.863   0.227 -0.3501  0.7825  0.3368
 9626TIP3    H128842   4.276   3.791   0.264 -0.9340  0.2060  0.0617
 9626TIP3    H228843   4.136   3.827   0.220 -0.5894  1.4346 -0.0728
 9627TIP3   OH228844   6.772   3.770   4.973 -0.3284  0.0012  0.5365
 9627TIP3    H128845   6.749   3.682   5.002 -2.3004  0.6475  1.1150
 9627TIP3    H228846   6.864   3.764   4.946  0.2017 -1.7285  2.5114
 9628TIP3   OH228847   3.808   2.629   0.146 -0.7110  0.3415 -0.2660
 9628TIP3    H128848   3.804   2.638   0.051 -1.4589 -1.2946 -0.4218
 9628TIP3    H228849   3.719   2.646   0.176 -1.1281 -1.7745 -0.1642
 9629TIP3   OH228850   2.292   0.164   5.055 -0.1969 -0.5861 -0.2568
 9629TIP3    H128851   2.383   0.188   5.038  0.2387 -0.3268  2.0752
 9629TIP3    H228852   2.255   0.241   5.098 -1.1046 -1.2232  0.1268
 9630TIP3   OH228853   4.651   3.784   5.494 -0.0635  0.3661 -0.2471
 9630TIP3    H128854   4.561   3.761   5.513  0.0417 -0.3114 -0.5502
 9630TIP3    H228855   4.700   3.702   5.502  0.8122  1.0105  1.5427
 9631TIP3   OH228856   1.099   0.076   3.997  0.4619 -0.3066 -0.2479
 9631TIP3    H128857   1.168   0.016   4.023 -0.6038 -1.4646 -0.0153
 9631TIP3    H228858   1.139   0.130   3.928  1.9386 -0.1439  0.6938
 9632TIP3   OH228859   6.486   3.834   4.080 -0.3909  0.4352  0.7152
 9632TIP3    H128860   6.498   3.810   3.988 -1.6160  1.0992  0.3526
 9632TIP3    H228861   6.473   3.751   4.125 -1.1929  0.1772  0.0362
 9633TIP3   OH228862   5.662   4.745   0.370 -0.3368 -0.1766  0.1591
 9633TIP3    H128863   5.665   4.791   0.453 -0.4291  0.5371 -0.2246
 9633TIP3    H228864   5.747   4.700   0.365  0.0630  0.5468  0.2161
 9634TIP3   OH228865   1.241   5.403   4.652 -0.2484 -0.0619 -0.2683
 9634TIP3    H128866   1.225   5.321   4.605 -2.2752  0.3024 -0.3175
 9634TIP3    H228867   1.284   5.459   4.588 -0.3784 -0.5279 -0.7705
 9635TIP3   OH228868   2.794   3.323   0.507  0.9778 -0.1805  0.2172
 9635TIP3    H128869   2.808   3.348   0.415  0.0234 -2.1132 -0.4922
 9635TIP3    H228870   2.827   3.398   0.556  1.2634  1.0389 -1.6972
 9636TIP3   OH228871   5.273   1.773   0.628  0.2600  0.0919 -0.5841
 9636TIP3    H128872   5.225   1.776   0.545  0.2939  1.7739 -0.5696
 9636TIP3    H228873   5.204   1.773   0.695  0.2424 -0.7638 -0.5928
 9637TIP3   OH228874   3.338   2.154   2.593  0.1627  0.7215  0.2439
 9637TIP3    H128875   3.380   2.073   2.564 -1.5324  0.4267 -1.5494
 9637TIP3    H228876   3.392   2.224   2.556  0.6914  0.4118  0.4132
 9638TIP3   OH228877   1.876   4.753   5.035  0.0682 -0.4856 -0.5092
 9638TIP3    H128878   1.865   4.847   5.021  0.2356 -0.5950 -1.4356
 9638TIP3    H228879   1.902   4.719   4.949  0.8554 -1.2493  0.0120
 9639TIP3   OH228880   5.588   6.241   1.108 -0.9841 -0.2305 -0.0692
 9639TIP3    H128881   5.572   6.335   1.114  0.7012  0.1038 -0.3430
 9639TIP3    H228882   5.579   6.221   1.015 -1.8317 -0.4626  0.0489
 9640TIP3   OH228883   6.327   4.515   1.062  0.1821  0.4076  0.3464
 9640TIP3    H128884   6.233   4.509   1.081 -0.2496  0.5097 -1.4886
 9640TIP3    H228885   6.334   4.590   1.002  1.5279  0.7502  0.9008
 9641TIP3   OH228886   6.638   4.518   5.053  0.1954 -0.4035 -0.0406
 9641TIP3    H128887   6.593   4.442   5.016 -0.3815 -0.2484  0.3317
 9641TIP3    H228888   6.593   4.534   5.136 -0.5014  1.0945 -0.6837
 9642TIP3   OH228889   6.431   0.024   1.762 -0.5486 -0.2033  0.4810
 9642TIP3    H128890   6.501   0.010   1.825  0.0438  1.3589  0.2263
 9642TIP3    H228891   6.476   0.026   1.677 -1.0272 -0.1426  0.2279
 9643TIP3   OH228892   3.592   6.278   3.414 -0.0564 -0.2030 -0.0765
 9643TIP3    H128893   3.686   6.282   3.397 -0.1875  0.3746 -0.7157
 9643TIP3    H228894   3.559   6.214   3.351 -0.6237  2.3331 -2.5685
 9644TIP3   OH228895   2.083   3.521   3.706  0.3332  0.2170 -0.3833
 9644TIP3    H128896   2.104   3.601   3.753  0.5139 -0.3704  0.5611
 9644TIP3    H228897   2.147   3.517   3.635  0.4189  0.8277 -0.3423
 9645TIP3   OH228898   1.057   5.456   5.567 -0.2003 -0.2217 -0.6526
 9645TIP3    H128899   1.052   5.488   5.658  0.5013  2.2318 -1.3878
 9645TIP3    H228900   1.135   5.402   5.565  0.6246  0.9084 -0.0954
 9646TIP3   OH228901   3.326   4.842   3.358  0.5082 -0.2772  0.5901
 9646TIP3    H128902   3.389   4.772   3.375 -0.1003 -0.9398  0.1396
 9646TIP3    H228903   3.248   4.817   3.406 -0.4344 -0.9910 -1.2412
 9647TIP3   OH228904   5.284   6.723   3.026  0.1311 -0.4258  0.0630
 9647TIP3    H128905   5.336   6.803   3.020 -0.7468  0.2509  1.0134
 9647TIP3    H228906   5.319   6.677   3.102 -1.4059  0.6631  1.5203
 9648TIP3   OH228907   5.399   2.715   3.612 -0.0340 -0.0518  0.3013
 9648TIP3    H128908   5.393   2.622   3.637  0.3718 -0.5100 -1.2090
 9648TIP3    H228909   5.398   2.762   3.695  0.2073 -1.4414  1.1246
 9649TIP3   OH228910   6.201   1.912   5.464 -0.3263 -0.4560 -0.4647
 9649TIP3    H128911   6.168   1.976   5.527  0.7005 -0.3008 -0.0620
 9649TIP3    H228912   6.131   1.847   5.455 -0.2746 -0.7827  1.2652
 9650TIP3   OH228913   0.033   5.486   0.029 -0.8036 -0.1048 -0.1299
 9650TIP3    H128914   0.121   5.448   0.031 -0.7252 -0.0512 -1.4877
 9650TIP3    H228915  -0.007   5.457   0.111 -0.2118 -1.8243 -0.4108
 9651TIP3   OH228916   1.370   6.211   1.438 -0.1844  0.3902  0.0279
 9651TIP3    H128917   1.398   6.257   1.359  0.3094 -1.3494 -0.8686
 9651TIP3    H228918   1.312   6.142   1.406 -1.8991  1.0921  1.4366
 9652TIP3   OH228919   0.650   5.929   3.312  0.1073 -0.3905 -0.3585
 9652TIP3    H128920   0.646   5.847   3.361 -0.4574  0.3295  0.8755
 9652TIP3    H228921   0.647   5.903   3.220  1.4836 -1.8174 -0.0457
 9653TIP3   OH228922   6.980   4.724   4.405 -0.7125 -0.0944 -0.2832
 9653TIP3    H128923   7.054   4.770   4.445  0.8239  0.0594 -3.0635
 9653TIP3    H228924   6.903   4.773   4.432  0.2596  0.3355  1.8859
 9654TIP3   OH228925   4.257   5.123   0.865 -0.0306 -0.1596 -0.4053
 9654TIP3    H128926   4.203   5.082   0.798  1.7525 -1.9258 -0.8712
 9654TIP3    H228927   4.347   5.108   0.836  0.7693  0.2919  1.6577
 9655TIP3   OH228928   2.187   5.848   5.101 -0.4667 -1.0050 -0.1507
 9655TIP3    H128929   2.099   5.884   5.098 -0.2896 -0.6109 -0.8302
 9655TIP3    H228930   2.185   5.785   5.173 -0.3585  1.4494  2.0986
 9656TIP3   OH228931   1.189   5.051   4.695  0.1963 -0.2611  0.3503
 9656TIP3    H128932   1.143   5.073   4.615  2.7150  1.1016 -0.8265
 9656TIP3    H228933   1.132   5.082   4.765 -1.0883  0.4849 -0.9824
 9657TIP3   OH228934   2.568   6.742   2.376  0.0675  0.2790  0.4411
 9657TIP3    H128935   2.523   6.788   2.306  1.2351  0.1377 -0.4400
 9657TIP3    H228936   2.577   6.652   2.344  0.3834  0.1531  0.8749
 9658TIP3   OH228937   4.944   1.160   3.923 -0.2557 -0.5259 -0.0660
 9658TIP3    H128938   4.935   1.069   3.897 -0.7726  0.0623 -2.1162
 9658TIP3    H228939   4.944   1.209   3.841  2.9511  1.1437  0.7732
 9659TIP3   OH228940   0.586   4.790   1.652  0.1635  0.1944 -0.1655
 9659TIP3    H128941   0.584   4.709   1.600 -1.3523 -0.0006  0.1338
 9659TIP3    H228942   0.579   4.860   1.588 -0.0980  0.0178 -0.3323
 9660TIP3   OH228943   5.554   0.216   3.966 -0.0794  0.2656 -0.4179
 9660TIP3    H128944   5.597   0.280   4.023 -0.1251 -0.2323  0.1853
 9660TIP3    H228945   5.505   0.160   4.025 -1.6396  0.8498 -1.1001
 9661TIP3   OH228946   1.488   6.648   3.808  0.3750 -0.2107 -0.5523
 9661TIP3    H128947   1.574   6.628   3.846  0.5671 -0.2017 -0.9708
 9661TIP3    H228948   1.474   6.740   3.829  1.5486  0.4753 -2.4794
 9662TIP3   OH228949   5.495   6.811   2.740 -0.4821 -0.1731  0.1570
 9662TIP3    H128950   5.399   6.809   2.732 -0.3240 -0.7613 -2.3627
 9662TIP3    H228951   5.524   6.725   2.711  0.8257 -0.3508  1.8103
 9663TIP3   OH228952   6.479   3.942   5.221 -0.0940  0.1632 -0.3213
 9663TIP3    H128953   6.482   3.846   5.218 -1.2253  0.1326 -2.1706
 9663TIP3    H228954   6.562   3.967   5.261  0.2708 -1.5774  0.1230
 9664TIP3   OH228955   2.325   3.126   5.075  0.2459 -0.0350  0.2814
 9664TIP3    H128956   2.276   3.118   5.157  1.1033  0.8532  0.9005
 9664TIP3    H228957   2.264   3.095   5.007 -1.3813  1.5441  0.9433
 9665TIP3   OH228958   0.400   2.906   1.892  0.1369  0.5765  0.2041
 9665TIP3    H128959   0.458   2.832   1.874 -1.9854 -1.0906 -0.2585
 9665TIP3    H228960   0.426   2.937   1.979  0.4931 -1.3432  0.8282
 9666TIP3   OH228961   0.825   4.983   2.035  0.1556  0.1876  0.6568
 9666TIP3    H128962   0.739   4.971   2.075 -0.0721 -0.2915  0.0419
 9666TIP3    H228963   0.824   5.072   2.001 -0.4881 -0.1497 -0.2449
 9667TIP3   OH228964   6.972   0.988   4.891 -0.2862  0.0020  0.5078
 9667TIP3    H128965   6.960   1.076   4.926  0.6172  0.9549 -1.3855
 9667TIP3    H228966   7.063   0.987   4.859 -0.9087 -0.8681 -1.4004
 9668TIP3   OH228967   6.049   2.140   0.944  0.3548  0.0394 -0.8027
 9668TIP3    H128968   6.006   2.056   0.932  1.3157 -0.4459 -0.9742
 9668TIP3    H228969   6.059   2.149   1.039 -3.0625  1.7175 -0.4547
 9669TIP3   OH228970   1.630   2.884   2.488 -0.3622  0.4262 -0.2371
 9669TIP3    H128971   1.550   2.837   2.512 -0.4939  0.2643 -0.9750
 9669TIP3    H228972   1.693   2.859   2.555 -0.3067 -1.1400 -0.8406
 9670TIP3   OH228973   3.186   0.486   1.409  0.2877  0.1678 -0.0647
 9670TIP3    H128974   3.154   0.396   1.410  0.8224 -0.0261  0.0900
 9670TIP3    H228975   3.107   0.540   1.413 -0.0267 -0.2969  0.0290
 9671TIP3   OH228976   2.098   2.968   1.234  0.2738  0.0086 -0.1744
 9671TIP3    H128977   2.150   2.982   1.313 -0.8969 -0.4043  0.6947
 9671TIP3    H228978   2.060   3.053   1.214 -2.1193 -0.5273  1.6963
 9672TIP3   OH228979   6.468   2.914   5.765 -0.5343 -0.1411  0.2626
 9672TIP3    H128980   6.406   2.847   5.793  0.3117 -0.5959  1.0866
 9672TIP3    H228981   6.494   2.888   5.677 -1.5930  0.1212 -0.1418
 9673TIP3   OH228982   3.347   5.137   1.029  0.0876  0.2354  0.1360
 9673TIP3    H128983   3.256   5.168   1.034  0.1248  0.2182  1.0852
 9673TIP3    H228984   3.341   5.051   0.987 -0.3349  0.2254  0.2145
 9674TIP3   OH228985   1.898   1.159   0.262 -0.5152 -0.7672  0.1248
 9674TIP3    H128986   1.957   1.143   0.188  0.3976 -3.0939  1.2423
 9674TIP3    H228987   1.883   1.253   0.261  3.5543  0.0610 -0.0542
 9675TIP3   OH228988   0.366   3.977   2.700 -0.0284  0.5107 -0.2874
 9675TIP3    H128989   0.304   4.050   2.705 -2.2168 -1.1998 -0.3295
 9675TIP3    H228990   0.392   3.962   2.791  0.7622  1.5527 -0.3221
 9676TIP3   OH228991   0.859   0.173   2.685  0.1665 -0.1936  0.7399
 9676TIP3    H128992   0.786   0.111   2.682 -0.4868  0.5705 -0.6295
 9676TIP3    H228993   0.900   0.159   2.770 -1.9529 -0.2580  1.8245
 9677TIP3   OH228994   2.364   0.534   1.378 -0.0807  0.8052  0.1552
 9677TIP3    H128995   2.329   0.569   1.296 -1.0956  4.2389  1.8455
 9677TIP3    H228996   2.447   0.581   1.391  0.6166 -0.5019  0.5775
 9678TIP3   OH228997   4.075   2.998   1.748 -0.2744  0.2861 -0.2101
 9678TIP3    H128998   4.080   2.909   1.714 -1.3514  0.1668 -0.1052
 9678TIP3    H228999   3.989   3.002   1.791 -0.9164  1.8399 -1.5585
 9679TIP3   OH229000   3.143   5.033   5.459  0.2721  0.0325 -0.1912
 9679TIP3    H129001   3.215   5.080   5.416  0.1254 -0.0881 -0.5734
 9679TIP3    H229002   3.155   4.942   5.435 -0.0324  0.0163 -0.2987
 9680TIP3   OH229003   6.863   6.799   1.644 -0.2221 -0.1366 -0.4513
 9680TIP3    H129004   6.783   6.768   1.686  1.0030 -0.5208  1.7486
 9680TIP3    H229005   6.870   6.747   1.564 -1.4856 -0.9846 -0.0415
 9681TIP3   OH229006   4.118   2.379   4.344  0.0731 -0.5882  0.2472
 9681TIP3    H129007   4.189   2.346   4.289  1.8842  0.0351  2.0648
 9681TIP3    H229008   4.123   2.474   4.334 -0.2067 -0.5234  0.7177
 9682TIP3   OH229009   4.366   1.691   2.931 -0.2843  0.6262 -0.0923
 9682TIP3    H129010   4.388   1.605   2.894 -0.7715  0.6890 -0.5362
 9682TIP3    H229011   4.434   1.707   2.997  0.0207  0.0662 -0.2675
 9683TIP3   OH229012   1.590   4.238   0.562  0.0850  0.1947 -0.5397
 9683TIP3    H129013   1.529   4.286   0.618  1.4582  1.5345 -0.1246
 9683TIP3    H229014   1.594   4.151   0.601  0.1572  0.7687  0.8005
 9684TIP3   OH229015   1.175   4.817   4.450 -0.3163  0.0741  0.3320
 9684TIP3    H129016   1.088   4.856   4.457 -0.7534 -1.0279  1.4866
 9684TIP3    H229017   1.236   4.891   4.461 -1.1103  0.6308  1.0914
 9685TIP3   OH229018   6.704   1.567   1.303  0.5743 -0.0664 -0.3312
 9685TIP3    H129019   6.721   1.623   1.379  1.4520 -0.9141  0.1262
 9685TIP3    H229020   6.615   1.534   1.318  0.7913 -0.3461  0.4376
 9686TIP3   OH229021   2.624   2.470   5.835 -0.0329 -0.4353 -0.6274
 9686TIP3    H129022   2.575   2.457   5.753 -2.1025 -2.4606  0.8109
 9686TIP3    H229023   2.709   2.431   5.818 -0.2278 -0.3294 -1.9855
 9687TIP3   OH229024   3.313   2.557   2.395 -0.1223  0.0789  0.0638
 9687TIP3    H129025   3.229   2.600   2.380  0.1064  0.2887 -0.6579
 9687TIP3    H229026   3.373   2.629   2.414  0.2098  0.0693 -0.9100
 9688TIP3   OH229027   4.144   1.069   4.223  0.1020  0.3983  0.0369
 9688TIP3    H129028   4.072   1.086   4.163  0.8478  2.8769 -0.2483
 9688TIP3    H229029   4.215   1.037   4.167  0.0480  0.4091 -0.0382
 9689TIP3   OH229030   6.589   2.459   3.620  0.9000  0.6435  0.1410
 9689TIP3    H129031   6.583   2.552   3.597 -1.3033  0.0885 -1.8792
 9689TIP3    H229032   6.502   2.425   3.603  1.8639 -1.9828  0.0812
 9690TIP3   OH229033   0.318   4.656   1.555  0.0781  0.0016  0.2329
 9690TIP3    H129034   0.325   4.752   1.561  0.8715  0.0501 -1.1121
 9690TIP3    H229035   0.245   4.641   1.495  0.3376 -0.2238 -0.0284
 9691TIP3   OH229036   5.769   6.682   5.201  0.1500  0.1984 -0.0999
 9691TIP3    H129037   5.675   6.698   5.212 -0.2558 -2.4236  1.0099
 9691TIP3    H229038   5.810   6.767   5.217 -1.9774  1.2153  0.2447
 9692TIP3   OH229039   1.170   5.669   3.641  0.1868 -0.1301  0.2191
 9692TIP3    H129040   1.170   5.718   3.723 -0.1198  1.2713 -0.5838
 9692TIP3    H229041   1.077   5.665   3.616  0.0838 -1.9774  0.7256
 9693TIP3   OH229042   5.453   3.482   0.669  0.0341 -0.5592 -0.0025
 9693TIP3    H129043   5.395   3.558   0.668  0.5758 -0.1393 -0.5031
 9693TIP3    H229044   5.409   3.417   0.614 -0.0718 -0.3333 -0.1849
 9694TIP3   OH229045   2.061   5.463   4.055  0.2848 -0.6731 -0.0125
 9694TIP3    H129046   2.129   5.430   3.997  2.9497 -0.9945  3.0164
 9694TIP3    H229047   2.042   5.551   4.022  2.6887 -0.3043 -0.6322
 9695TIP3   OH229048   2.723   2.413   4.396 -0.4425 -0.0477 -0.3029
 9695TIP3    H129049   2.791   2.385   4.456 -0.1548 -1.5982 -1.2730
 9695TIP3    H229050   2.650   2.438   4.452  0.5407  0.6211  0.7165
 9696TIP3   OH229051   2.337   2.567   1.913  0.0105 -0.0971 -0.4917
 9696TIP3    H129052   2.276   2.638   1.894  0.6793  0.3316 -1.0761
 9696TIP3    H229053   2.307   2.532   1.997 -0.2629  0.9474 -0.1379
 9697TIP3   OH229054   6.414   2.582   0.037  0.7645 -0.5696 -0.2790
 9697TIP3    H129055   6.437   2.646  -0.031  1.0092 -0.1117  0.2261
 9697TIP3    H229056   6.479   2.595   0.106  1.0285 -1.6140 -0.3139
 9698TIP3   OH229057   4.891   6.167   3.073  0.1637  0.5479  0.1865
 9698TIP3    H129058   4.969   6.113   3.059 -0.6558 -0.6236 -0.0671
 9698TIP3    H229059   4.834   6.146   2.998  0.1808  2.4762 -0.4202
 9699TIP3   OH229060   5.955   0.778   5.574 -0.0685  0.1878  0.5258
 9699TIP3    H129061   5.986   0.771   5.483 -0.8501  0.4591  0.2240
 9699TIP3    H229062   5.870   0.733   5.573  0.8394 -1.6306  1.6121
 9700TIP3   OH229063   2.875   3.259   0.060  0.1529  0.0327 -0.2786
 9700TIP3    H129064   2.904   3.168   0.054 -2.0211 -0.6601 -1.5097
 9700TIP3    H229065   2.938   3.308   0.007  0.2899 -1.0518 -1.1505
 9701TIP3   OH229066   3.707   6.052   2.086 -0.2563  0.3376 -0.5897
 9701TIP3    H129067   3.712   6.143   2.113 -0.0430  0.4065 -0.8510
 9701TIP3    H229068   3.742   6.052   1.997 -0.1253 -0.0201 -0.5398
 9702TIP3   OH229069   4.540   0.941   0.970 -0.3671 -0.4793  0.3983
 9702TIP3    H129070   4.551   0.961   0.877 -0.1171  1.8246  0.8661
 9702TIP3    H229071   4.616   0.887   0.993 -0.2507 -0.7733 -0.6331
 9703TIP3   OH229072   0.278   1.563   4.675 -0.6315  0.5633  0.0943
 9703TIP3    H129073   0.204   1.570   4.615 -0.7869 -0.8475  0.0892
 9703TIP3    H229074   0.346   1.518   4.624  0.2493  1.8707  0.0851
 9704TIP3   OH229075   0.014   3.176   3.359 -0.5444  0.0530  0.5322
 9704TIP3    H129076   0.080   3.117   3.324  0.1320 -0.3040  2.3164
 9704TIP3    H229077   0.063   3.237   3.415 -1.6804 -0.2056  1.8710
 9705TIP3   OH229078   5.219   3.845   2.805  0.5580  0.2656 -0.2953
 9705TIP3    H129079   5.291   3.876   2.860  0.2139  0.3591  0.1127
 9705TIP3    H229080   5.226   3.750   2.808  0.2250  0.2552  0.3525
 9706TIP3   OH229081   1.892   6.005   3.621  0.0190 -0.0848 -0.0913
 9706TIP3    H129082   1.892   6.061   3.544 -0.1916  0.8294  0.5493
 9706TIP3    H229083   1.800   5.982   3.633 -0.1522  0.8836  0.6382
 9707TIP3   OH229084   4.607  -0.010   4.428  0.4115 -0.1080 -0.0487
 9707TIP3    H129085   4.534   0.050   4.441 -0.0204 -0.5217 -0.4943
 9707TIP3    H229086   4.680   0.030   4.475  0.8040  1.9688 -2.2530
 9708TIP3   OH229087   3.773   1.666   1.998 -0.4310  0.2175  0.3751
 9708TIP3    H129088   3.849   1.690   2.051  1.2476 -1.0584 -1.2996
 9708TIP3    H229089   3.785   1.714   1.916 -0.2459 -1.6091 -0.7140
 9709TIP3   OH229090   2.944   2.898   1.934  0.1912 -0.0489 -0.3212
 9709TIP3    H129091   3.028   2.908   1.890  0.2118  0.5778 -0.1565
 9709TIP3    H229092   2.891   2.846   1.875  0.5199  0.0121 -0.6702
 9710TIP3   OH229093   4.096   0.200   2.262 -0.0205 -0.8452  0.2253
 9710TIP3    H129094   4.088   0.295   2.257 -0.4100 -0.8956 -0.2337
 9710TIP3    H229095   4.069   0.169   2.176  0.6436 -1.3432  0.1903
 9711TIP3   OH229096   1.929   2.670   2.195 -0.0287  0.0953  0.0660
 9711TIP3    H129097   1.931   2.624   2.111  0.3105  0.5011 -0.1572
 9711TIP3    H229098   2.014   2.653   2.234 -0.6269 -1.0956  0.8960
 9712TIP3   OH229099   3.123   1.774   4.577 -0.1015 -0.1665 -0.2576
 9712TIP3    H129100   3.211   1.745   4.553 -0.6064  0.2239 -2.8318
 9712TIP3    H229101   3.089   1.702   4.631  1.4659 -0.7004  0.0804
 9713TIP3   OH229102   2.654   0.462   5.364  0.1653 -0.3163  0.0041
 9713TIP3    H129103   2.666   0.388   5.304 -0.6408 -1.5158  1.2756
 9713TIP3    H229104   2.653   0.423   5.451  0.9679  1.3476  0.8135
 9714TIP3   OH229105   1.456   2.037   5.877  0.2702  0.1672 -0.4491
 9714TIP3    H129106   1.542   2.077   5.872 -0.5634  2.1741  0.0302
 9714TIP3    H229107   1.455   1.971   5.807  2.1367  0.1365 -0.4860
 9715TIP3   OH229108   6.678   4.771   4.404 -0.4701 -0.9496  0.3056
 9715TIP3    H129109   6.591   4.806   4.384 -0.8296 -2.0332 -0.1153
 9715TIP3    H229110   6.695   4.707   4.334  0.0613 -1.7709  1.1491
 9716TIP3   OH229111   4.309   4.762   2.807  0.4825 -0.0124 -0.4976
 9716TIP3    H129112   4.276   4.833   2.752  1.6088  0.0801 -1.0798
 9716TIP3    H229113   4.337   4.695   2.745 -1.1648 -1.2784  0.0573
 9717TIP3   OH229114   2.675   6.659   0.233  0.2748 -0.0387 -0.2131
 9717TIP3    H129115   2.616   6.625   0.300  0.6099  0.5703  0.4039
 9717TIP3    H229116   2.680   6.589   0.168 -1.9865  0.3185 -0.8423
 9718TIP3   OH229117   0.231   2.788   2.494  0.2393  0.3916  0.2978
 9718TIP3    H129118   0.249   2.859   2.432 -1.2612 -0.3432 -1.0469
 9718TIP3    H229119   0.182   2.830   2.565 -1.2686  0.6115 -0.8387
 9719TIP3   OH229120   5.901   1.917   0.096  0.4294  0.0050  0.1621
 9719TIP3    H129121   5.926   1.869   0.174  1.7915  1.3650  0.6179
 9719TIP3    H229122   5.984   1.936   0.052 -0.3502 -1.8106 -2.3481
 9720TIP3   OH229123   7.076   3.285   4.059 -0.1461 -0.4653 -0.3723
 9720TIP3    H129124   7.081   3.302   3.965 -2.7040 -2.3513 -0.9552
 9720TIP3    H229125   6.998   3.230   4.070  0.9361 -1.6250  2.6730
 9721TIP3   OH229126   6.431   0.483   0.415 -0.5837  0.4032 -0.0730
 9721TIP3    H129127   6.349   0.451   0.377 -1.7539  0.9167  1.8868
 9721TIP3    H229128   6.474   0.404   0.448 -1.3348  0.3633  0.8156
 9722TIP3   OH229129   0.568   1.129   5.244  0.3673  0.0449  0.7297
 9722TIP3    H129130   0.534   1.213   5.214 -0.0347  0.4226  2.1730
 9722TIP3    H229131   0.551   1.069   5.171 -0.6232  0.9026  0.2242
 9723TIP3   OH229132   6.021   5.350   1.654 -0.1729 -0.2786  0.0336
 9723TIP3    H129133   6.087   5.317   1.593 -0.4261  1.8896 -1.5498
 9723TIP3    H229134   6.045   5.314   1.739  0.4474 -3.0983 -1.2276
 9724TIP3   OH229135   6.149   5.565   0.152  0.2796 -0.0274  0.1854
 9724TIP3    H129136   6.078   5.557   0.215  0.1194  0.4628  0.0732
 9724TIP3    H229137   6.221   5.514   0.189 -0.6601 -1.9174 -0.4839
 9725TIP3   OH229138   3.247   0.172   0.302 -0.0034  0.5025  0.3117
 9725TIP3    H129139   3.270   0.198   0.391  0.3511  1.8051 -0.1365
 9725TIP3    H229140   3.329   0.182   0.253 -0.0300 -0.8226 -0.0475
 9726TIP3   OH229141   1.766   5.746   0.148  0.8869  0.8725  0.3936
 9726TIP3    H129142   1.783   5.693   0.070 -1.1702  1.8061 -0.7896
 9726TIP3    H229143   1.838   5.809   0.151  2.2844 -0.6821  0.6754
 9727TIP3   OH229144   4.347   6.776   0.135  0.1474 -0.0766  0.2315
 9727TIP3    H129145   4.385   6.863   0.122  0.1074 -0.1137 -0.1546
 9727TIP3    H229146   4.268   6.777   0.081 -0.8520  0.2807  1.6322
 9728TIP3   OH229147   5.463   4.368   5.364 -0.0275  0.8534  0.1991
 9728TIP3    H129148   5.523   4.434   5.330 -0.4496  0.5645 -1.1604
 9728TIP3    H229149   5.389   4.369   5.304 -1.0685  0.6947  1.4313
 9729TIP3   OH229150   2.429   4.382   4.089  0.0221  0.0628 -0.8147
 9729TIP3    H129151   2.517   4.386   4.050  0.7842  0.0811  0.8246
 9729TIP3    H229152   2.404   4.474   4.100 -0.7056  0.0682 -2.2977
 9730TIP3   OH229153   6.662   0.966   0.216 -0.7729 -0.0890  0.4328
 9730TIP3    H129154   6.757   0.974   0.207 -0.5256 -2.0726  0.7939
 9730TIP3    H229155   6.627   1.007   0.137  0.5292 -1.3440 -0.8688
 9731TIP3   OH229156   6.828   4.031   3.593 -0.3553  0.0053  0.2144
 9731TIP3    H129157   6.876   3.952   3.571 -2.1365 -1.1382  0.2323
 9731TIP3    H229158   6.818   4.028   3.688 -0.0282  0.4990  0.2672
 9732TIP3   OH229159   0.735   1.292   3.673  0.0226 -0.7832  0.1605
 9732TIP3    H129160   0.775   1.219   3.625  0.0624 -0.7401  0.1274
 9732TIP3    H229161   0.792   1.366   3.654 -0.2852 -0.6313 -0.2020
 9733TIP3   OH229162   4.416   1.044   4.960  0.3991 -0.0731 -0.1783
 9733TIP3    H129163   4.326   1.015   4.942  0.0301  0.5953  0.5671
 9733TIP3    H229164   4.468   1.001   4.892 -0.7255  1.0410 -1.8033
 9734TIP3   OH229165   0.262   1.646   5.053 -0.0861  0.0623  0.0176
 9734TIP3    H129166   0.252   1.741   5.057  0.1323  0.1921 -1.7974
 9734TIP3    H229167   0.354   1.633   5.030 -0.4255 -0.5350 -1.0510
 9735TIP3   OH229168   2.521   5.816   3.167  0.5783 -0.2237 -0.2091
 9735TIP3    H129169   2.453   5.753   3.145  0.4024 -0.8320  1.8151
 9735TIP3    H229170   2.508   5.833   3.260  2.3128  0.7295 -0.0964
 9736TIP3   OH229171   0.981   1.464   2.715  0.7760 -0.0718  0.2167
 9736TIP3    H129172   1.061   1.509   2.743  0.7418 -0.2841  0.6787
 9736TIP3    H229173   0.928   1.532   2.674  0.3777  0.5069  1.6258
 9737TIP3   OH229174   1.701   0.982   2.868  0.5532  0.2023  0.0272
 9737TIP3    H129175   1.632   0.917   2.884 -0.2595  0.9609 -0.2969
 9737TIP3    H229176   1.738   1.000   2.954 -0.9795  1.2088  0.5173
 9738TIP3   OH229177   0.418   2.339   4.286  0.2100 -0.1406 -0.6827
 9738TIP3    H129178   0.366   2.414   4.259  0.5337 -0.3359 -1.9272
 9738TIP3    H229179   0.509   2.369   4.278  0.3291 -0.0013  0.8689
 9739TIP3   OH229180   3.455   4.499   5.564  0.3486  0.8857  0.2847
 9739TIP3    H129181   3.429   4.432   5.500  0.5554 -0.2974  1.3844
 9739TIP3    H229182   3.469   4.578   5.513 -1.6217  0.5641 -0.8631
 9740TIP3   OH229183   6.236   5.940   3.509 -0.3979 -0.7674  0.0549
 9740TIP3    H129184   6.239   5.987   3.425 -2.9725 -1.6880 -0.6505
 9740TIP3    H229185   6.219   6.008   3.574  2.4113  0.0767  0.0587
 9741TIP3   OH229186   0.139   2.582   3.973 -0.1611  0.2673 -0.1408
 9741TIP3    H129187   0.109   2.620   3.890  1.0077 -0.2228 -0.8033
 9741TIP3    H229188   0.231   2.561   3.959 -0.5525 -2.1516  0.4383
 9742TIP3   OH229189   0.226   2.016   0.488 -0.0050  0.2930 -0.3106
 9742TIP3    H129190   0.248   1.926   0.461 -0.0409  0.1513  0.1144
 9742TIP3    H229191   0.131   2.022   0.475 -0.3625 -0.4411  1.6192
 9743TIP3   OH229192   4.132   0.461   2.222  0.6919 -0.0826 -0.1165
 9743TIP3    H129193   4.200   0.502   2.169  0.4700 -0.0501 -0.3794
 9743TIP3    H229194   4.062   0.526   2.226  0.8412  0.0488  0.4996
 9744TIP3   OH229195   6.643   3.044   4.517  0.5202 -0.1406 -0.0505
 9744TIP3    H129196   6.570   3.091   4.476 -0.5483 -0.7370  1.0802
 9744TIP3    H229197   6.682   2.993   4.447 -0.8264 -0.6232 -0.4688
 9745TIP3   OH229198   1.823   5.495   0.907 -0.2294 -0.3689 -0.0604
 9745TIP3    H129199   1.817   5.445   0.826 -0.1983  1.8580 -1.5274
 9745TIP3    H229200   1.917   5.499   0.926  0.0333  1.4191 -1.5171
 9746TIP3   OH229201   0.140   1.227   5.105 -0.0531  0.8179 -0.3946
 9746TIP3    H129202   0.140   1.179   5.022 -0.6718 -0.3673  0.2623
 9746TIP3    H229203   0.149   1.159   5.172 -0.1741  1.6927  0.5375
 9747TIP3   OH229204   0.561   0.053   4.332  0.8336  0.4161  0.5945
 9747TIP3    H129205   0.530   0.048   4.242 -0.1921  0.8720  0.8960
 9747TIP3    H229206   0.653   0.077   4.325  1.4471 -1.9955 -0.3684
 9748TIP3   OH229207   4.518   2.131   2.356  0.0954  0.2040  0.3359
 9748TIP3    H129208   4.502   2.043   2.323  0.3821  0.8029 -1.5455
 9748TIP3    H229209   4.437   2.179   2.338  0.4073  0.6560  0.0930
 9749TIP3   OH229210   0.052   4.374   1.675 -0.2373 -0.2536  0.2841
 9749TIP3    H129211  -0.010   4.416   1.734  0.7870 -0.1814  1.3301
 9749TIP3    H229212   0.016   4.286   1.663 -1.5901  0.3940 -0.7333
   7.22745   6.81412   5.90118   0.00000   0.00000  -2.40916   0.00000  -2.40916  -3.40705
