Title
19942
    1ASP      N    1   1.289   1.522   1.973 -0.0810 -0.5176 -0.2437
    1ASP    HT1    2   1.383   1.487   2.001  0.9463  0.3984 -2.3350
    1ASP    HT2    3   1.310   1.624   1.974 -0.5247 -0.4282  0.4431
    1ASP    HT3    4   1.278   1.492   1.874 -1.6544 -2.8328  0.5409
    1ASP     CA    5   1.174   1.490   2.058  0.2851  0.3255 -0.3856
    1ASP     HA    6   1.177   1.554   2.145 -0.2038 -1.4519  1.0094
    1ASP     CB    7   1.046   1.502   1.975  0.1102  0.8469  0.2702
    1ASP    HB1    8   0.958   1.463   2.029  1.7458 -1.0707  1.7367
    1ASP    HB2    9   1.054   1.433   1.888  1.4293  0.6129  0.5556
    1ASP     CG   10   1.014   1.643   1.938 -0.0164  0.2279  0.2998
    1ASP    OD1   11   1.099   1.734   1.946 -0.0239  0.5596 -0.7979
    1ASP    OD2   12   0.898   1.667   1.888 -0.0941  0.2238  0.2241
    1ASP      C   13   1.181   1.343   2.112 -0.2456 -0.4558  0.4909
    1ASP      O   14   1.242   1.251   2.057 -0.3079  0.1145  0.1635
    2ALA      N   15   1.124   1.310   2.229 -0.2967  0.1577  0.3995
    2ALA     HN   16   1.100   1.389   2.285 -1.1986 -1.2779  2.1446
    2ALA     CA   17   1.126   1.186   2.298  0.4920 -0.1762  0.1747
    2ALA     HA   18   1.223   1.163   2.339  1.3550  2.5897 -0.0985
    2ALA     CB   19   1.048   1.206   2.435 -0.2095  0.0890 -0.1955
    2ALA    HB1   20   1.103   1.278   2.498  1.1349 -0.2819 -0.9120
    2ALA    HB2   21   1.040   1.112   2.493 -1.5991  0.3941  0.1479
    2ALA    HB3   22   0.947   1.251   2.426  0.4059  1.9705  1.5523
    2ALA      C   23   1.089   1.057   2.223  0.5019  0.1965  0.5598
    2ALA      O   24   1.020   1.059   2.124  0.2571 -0.1133 -0.8136
    3ASP      N   25   1.129   0.935   2.262 -0.1231 -0.1859  0.1331
    3ASP     HN   26   1.200   0.926   2.331 -0.4065 -0.3089  0.4119
    3ASP     CA   27   1.069   0.808   2.215  0.0573  0.1540  0.4412
    3ASP     HA   28   0.996   0.828   2.138  0.5981 -0.3866 -0.2413
    3ASP     CB   29   1.179   0.719   2.150  0.2935 -0.3339 -0.0134
    3ASP    HB1   30   1.135   0.620   2.124  1.1261 -0.1794 -2.2224
    3ASP    HB2   31   1.262   0.707   2.223  1.2408 -0.5821 -1.0931
    3ASP     CG   32   1.240   0.783   2.029 -0.5027 -0.7791  0.3532
    3ASP    OD1   33   1.166   0.836   1.945 -0.0267 -0.3104 -0.0972
    3ASP    OD2   34   1.368   0.798   2.021  0.0843  0.5817  0.1431
    3ASP      C   35   1.013   0.729   2.334 -0.4573  0.2911  0.0958
    3ASP      O   36   0.972   0.614   2.321  0.2320 -0.2333  0.9144
    4GLY      N   37   1.009   0.794   2.450  0.3655 -0.0907 -0.1905
    4GLY     HN   38   1.053   0.884   2.456  0.9840 -0.4819  3.1384
    4GLY     CA   39   0.977   0.741   2.584 -0.0194  0.4441  0.0896
    4GLY    HA1   40   1.012   0.808   2.660  1.8833  1.3751 -1.5194
    4GLY    HA2   41   1.017   0.642   2.600  1.2252  1.0586  0.8491
    4GLY      C   42   0.828   0.732   2.599 -0.6439 -0.0588  0.2193
    4GLY      O   43   0.756   0.816   2.549 -0.0723  0.4442  0.0722
    5PRO      N   44   0.780   0.634   2.678  0.4853 -0.2144  0.1496
    5PRO     CD   45   0.846   0.502   2.711 -0.4208 -0.2230  0.5562
    5PRO    HD1   46   0.925   0.530   2.784  0.9660  1.4505 -1.4612
    5PRO    HD2   47   0.876   0.452   2.616  0.2796  1.2127 -0.0210
    5PRO     CA   48   0.647   0.638   2.731 -0.1767  0.0461 -0.0358
    5PRO     HA   49   0.588   0.619   2.643 -1.9126  0.9503  0.8770
    5PRO     CB   50   0.634   0.522   2.828 -0.0192 -0.3677  0.0816
    5PRO    HB1   51   0.534   0.479   2.846 -0.5871  0.9323  0.1166
    5PRO    HB2   52   0.672   0.553   2.928 -2.7168  0.0684  1.0428
    5PRO     CG   53   0.735   0.418   2.768  0.3141  0.0764 -0.2744
    5PRO    HG1   54   0.780   0.347   2.841  0.1272 -0.9507 -1.1238
    5PRO    HG2   55   0.688   0.345   2.698 -0.0460  0.8060 -0.8070
    5PRO      C   56   0.598   0.770   2.780  0.2953  0.8531 -0.5387
    5PRO      O   57   0.669   0.822   2.868 -0.8904  0.4258 -0.0412
    6GLY      N   58   0.489   0.825   2.725  0.3059 -0.2084 -0.0068
    6GLY     HN   59   0.434   0.777   2.657 -2.6457  0.9145  1.3853
    6GLY     CA   60   0.434   0.955   2.763  0.8476 -0.1286 -0.3291
    6GLY    HA1   61   0.348   0.960   2.697  1.8255 -1.6215 -1.7995
    6GLY    HA2   62   0.514   1.024   2.743  1.2717 -0.8085 -1.0329
    6GLY      C   63   0.386   0.978   2.905  0.1940  0.4344 -0.3075
    6GLY      O   64   0.382   0.887   2.984 -0.4624 -0.0529 -0.6414
    7ASP      N   65   0.347   1.106   2.934 -0.2717  0.1808 -0.4114
    7ASP     HN   66   0.366   1.183   2.873  1.2927  0.2641  0.1338
    7ASP     CA   67   0.257   1.142   3.044 -0.1401 -0.0859 -0.9957
    7ASP     HA   68   0.314   1.149   3.136  0.2884 -1.9394 -1.0815
    7ASP     CB   69   0.207   1.288   3.025 -0.1753 -0.5378  0.8147
    7ASP    HB1   70   0.133   1.291   2.942  1.2674  0.2316 -0.4807
    7ASP    HB2   71   0.292   1.351   2.991  0.6130 -0.8919  2.0587
    7ASP     CG   72   0.148   1.352   3.140  0.2927 -0.9177 -1.5897
    7ASP    OD1   73   0.167   1.318   3.262 -0.4439 -0.4610  0.2324
    7ASP    OD2   74   0.090   1.463   3.111 -0.4541 -0.1804 -0.8100
    7ASP      C   75   0.134   1.051   3.060 -0.6479  0.2331 -0.3852
    7ASP      O   76   0.051   1.042   2.969 -0.3574  0.2258  0.5357
    8PRO      N   77   0.115   0.976   3.168 -0.1863 -0.4622 -0.1102
    8PRO     CD   78   0.207   0.968   3.286  0.8576 -0.1399 -0.3321
    8PRO    HD1   79   0.214   1.069   3.331 -1.4738 -0.5981  1.2431
    8PRO    HD2   80   0.309   0.936   3.257  1.0843 -0.2986  0.6019
    8PRO     CA   81  -0.002   0.883   3.178 -0.5160  0.4543  0.4293
    8PRO     HA   82  -0.015   0.814   3.096 -1.4921 -2.5907  2.9569
    8PRO     CB   83   0.047   0.787   3.284  0.0283 -0.0349 -0.4241
    8PRO    HB1   84   0.107   0.705   3.238 -0.0716  1.1996 -2.9277
    8PRO    HB2   85  -0.040   0.738   3.333 -0.4484  1.8995  0.7512
    8PRO     CG   86   0.136   0.870   3.380  0.3408  0.2688  1.0115
    8PRO    HG1   87   0.072   0.927   3.452 -1.2927 -1.9600  1.4306
    8PRO    HG2   88   0.210   0.809   3.435  0.8233 -1.0319 -1.0008
    8PRO      C   89  -0.138   0.955   3.209  0.2163  0.0697  0.4857
    8PRO      O   90  -0.240   0.889   3.227  0.0025  0.0512 -0.5446
    9ASP      N   91  -0.141   1.090   3.192 -0.1677 -0.8834 -0.1035
    9ASP     HN   92  -0.046   1.120   3.192 -0.3135 -0.3890  0.5576
    9ASP     CA   93  -0.249   1.183   3.182  0.3492  0.6242  1.1573
    9ASP     HA   94  -0.329   1.132   3.234 -0.3896 -0.1545 -0.6447
    9ASP     CB   95  -0.219   1.321   3.236 -0.4744 -0.1806 -0.6266
    9ASP    HB1   96  -0.296   1.396   3.209 -0.1353 -0.2066 -1.7339
    9ASP    HB2   97  -0.119   1.347   3.194  0.1457  0.2917  1.0718
    9ASP     CG   98  -0.201   1.318   3.385  0.1270  0.5498  0.2514
    9ASP    OD1   99  -0.116   1.400   3.430 -0.5188  0.3531  0.3327
    9ASP    OD2  100  -0.270   1.241   3.456  0.9285 -0.0381 -0.4187
    9ASP      C  101  -0.299   1.197   3.034 -0.3563 -0.2230  0.3287
    9ASP      O  102  -0.215   1.185   2.942 -0.3581  0.0837  0.1331
   10ALA      N  103  -0.433   1.218   3.010  0.0732  0.2807 -0.0019
   10ALA     HN  104  -0.488   1.237   3.091 -1.7657 -2.0703 -0.5999
   10ALA     CA  105  -0.494   1.271   2.885 -0.3801  0.1745  0.0008
   10ALA     HA  106  -0.458   1.208   2.805 -0.4505  2.1022 -1.6159
   10ALA     CB  107  -0.652   1.254   2.897  0.1651  0.5302  0.0004
   10ALA    HB1  108  -0.698   1.328   2.968 -0.9161 -1.1615  1.1398
   10ALA    HB2  109  -0.674   1.151   2.931 -0.1973  0.3743 -0.6991
   10ALA    HB3  110  -0.703   1.275   2.801  0.1652 -0.4447 -0.2212
   10ALA      C  111  -0.452   1.413   2.852  0.2842  0.6375  0.5297
   10ALA      O  112  -0.435   1.491   2.947 -0.1332  0.4849  0.2742
   11GLY      N  113  -0.422   1.442   2.723 -0.1634  0.6627 -0.5111
   11GLY     HN  114  -0.448   1.374   2.655 -0.5795 -1.7861  1.9439
   11GLY     CA  115  -0.348   1.556   2.677 -0.1335  0.8073  0.1093
   11GLY    HA1  116  -0.342   1.621   2.764  3.0257  0.2327  0.4617
   11GLY    HA2  117  -0.386   1.606   2.590 -2.1287 -0.6547  0.0793
   11GLY      C  118  -0.199   1.530   2.647 -0.0512  0.9564 -0.1196
   11GLY    OT1  119  -0.103   1.608   2.671 -0.4400  0.0366  0.7596
   11GLY    OT2  120  -0.167   1.412   2.604 -0.0087 -0.1330 -0.0812
   12LIT    LIT  121   6.087   0.053   2.591 -0.7785  0.0162 -0.4650
   13LIT    LIT  122   3.115   4.829   1.244 -0.0444 -0.1872 -0.3628
   14LIT    LIT  123   2.239   5.304   2.395 -0.0363  0.2199  0.2874
   15LIT    LIT  124   2.064   2.203   3.225 -0.2496  0.8156 -0.1773
   16LIT    LIT  125   1.571   2.554   4.432  0.7637 -0.8139 -0.7138
   17LIT    LIT  126   4.953   1.025   0.168  0.3420 -1.3263 -0.1269
   18LIT    LIT  127   2.565   2.038   1.678  1.1072  0.9912  0.0357
   19LIT    LIT  128   0.082   1.360   3.418  0.1962 -0.3461 -0.6223
   20LIT    LIT  129   1.206   4.452   2.514 -0.0746 -0.5337 -0.3604
   21LIT    LIT  130   1.522   3.017   2.048 -0.3537 -0.5564 -0.2152
   22LIT    LIT  131   3.992   1.243   0.672  0.0708  0.7247 -0.1598
   23LIT    LIT  132   0.663   1.585   2.389 -1.3380 -0.7449 -0.5745
   24LIT    LIT  133   1.303   0.950   4.566  0.3847  0.1486 -0.0421
   25LIT    LIT  134   3.294   3.405   0.424 -0.1702  0.5682 -0.2738
   26LIT    LIT  135   2.532   0.945   4.143  0.8101 -0.3215 -0.5566
   27LIT    LIT  136   4.953   5.701   1.804 -0.6032  0.7705  0.2382
   28LIT    LIT  137   1.541   2.734   2.455 -0.1818 -0.2666  0.6017
   29LIT    LIT  138   6.310   1.558   3.028 -0.8386 -0.7202 -0.6276
   30LIT    LIT  139   5.255   0.393   4.233  0.3040  0.9835 -0.2369
   31LIT    LIT  140   2.915   1.692   3.522  1.5647  0.0723 -1.1106
   32LIT    LIT  141   4.935   5.244   2.330  0.8436 -0.8884 -0.2450
   33LIT    LIT  142   4.307   5.121   3.523 -0.3383  0.2002 -0.1325
   34CLA    CLA  143   1.788   0.352   4.256 -0.2868  0.0852 -0.0406
   35CLA    CLA  144   2.082   1.162   0.191  0.2976 -0.1655  0.2479
   36CLA    CLA  145   3.713   3.664   3.798 -0.1902  0.0266  0.1952
   37CLA    CLA  146   2.168   2.918   2.583 -0.1352 -0.4008  0.0993
   38CLA    CLA  147   0.108   3.575   1.687 -0.2406  0.3892 -0.3857
   39CLA    CLA  148   1.548   2.959   2.508 -0.0853  0.5246 -0.1077
   40CLA    CLA  149   4.815   1.974   1.460 -0.1974  0.2775  0.1172
   41CLA    CLA  150   0.249   2.695   0.938  0.3910  0.1756  0.3084
   42CLA    CLA  151   1.207   2.413   4.222  0.0667 -0.0606  0.0774
   43CLA    CLA  152   6.304   2.237   3.749 -0.4988 -0.0134 -0.0842
   44CLA    CLA  153   3.368   3.648   4.969 -0.2695  0.1148  0.0416
   45CLA    CLA  154   3.469   1.615   5.065  0.1363  0.2963  0.2983
   46CLA    CLA  155   1.500   4.021   4.425  0.0131 -0.5453 -0.1227
   47CLA    CLA  156   0.379   5.456   3.237  0.1313 -0.1438 -0.2604
   48CLA    CLA  157   4.845   1.558   3.034 -0.3074 -0.2974  0.4127
   49CLA    CLA  158   3.556   5.543   0.348  0.0135 -0.2960 -0.3794
   50CLA    CLA  159   4.072   5.280   2.772  0.0053 -0.3068 -0.0236
   51CLA    CLA  160   2.741   3.133   0.605  0.3435  0.2936  0.1009
   52TIP3   OH2  161   5.642   1.364   0.018 -0.6425 -0.2458  0.3543
   52TIP3    H1  162   5.705   1.423  -0.022 -0.8462  0.0947  0.5302
   52TIP3    H2  163   5.613   1.410   0.097 -0.0432 -1.0223  1.0456
   53TIP3   OH2  164   3.544   1.363   2.419 -0.1784  0.5302  0.5589
   53TIP3    H1  165   3.611   1.407   2.367 -0.8933  1.3572  0.3194
   53TIP3    H2  166   3.472   1.350   2.358 -0.4106  0.0520  0.9314
   54TIP3   OH2  167   2.335   1.187   3.685  0.5754 -0.1977 -0.2740
   54TIP3    H1  168   2.319   1.277   3.711 -1.7115 -0.9364  1.2086
   54TIP3    H2  169   2.413   1.161   3.734  0.8212  0.7330 -0.1572
   55TIP3   OH2  170   5.586   2.340   1.314 -0.2057  0.1136  0.2038
   55TIP3    H1  171   5.524   2.272   1.339 -0.5253  0.5478  0.6241
   55TIP3    H2  172   5.543   2.422   1.339 -0.3348  0.5477 -1.3326
   56TIP3   OH2  173   2.196   0.759   3.383  0.2033 -0.5699 -0.0881
   56TIP3    H1  174   2.280   0.722   3.358  1.0654 -0.2307  2.1550
   56TIP3    H2  175   2.212   0.854   3.387  0.0982 -0.5959  1.5531
   57TIP3   OH2  176   0.011   4.018   0.733  0.4790  0.9481 -0.2337
   57TIP3    H1  177   0.032   3.940   0.681  1.5434  1.9075 -1.2826
   57TIP3    H2  178   0.049   4.000   0.819  1.4517  0.6508 -0.7126
   58TIP3   OH2  179   2.743   1.760   0.380 -0.8750  0.2214 -0.3665
   58TIP3    H1  180   2.760   1.666   0.373 -1.2502  0.1826 -0.8848
   58TIP3    H2  181   2.802   1.791   0.448 -2.2017 -0.7651  1.3095
   59TIP3   OH2  182   3.266   3.628   1.517  0.7230  0.4165  0.0807
   59TIP3    H1  183   3.281   3.639   1.611 -0.8805 -0.0505  0.4204
   59TIP3    H2  184   3.315   3.699   1.476  2.0241  0.1974  1.2110
   60TIP3   OH2  185   5.155   4.678   3.543  0.9132  0.4220  0.4210
   60TIP3    H1  186   5.147   4.583   3.535  3.9536  0.1830 -2.2867
   60TIP3    H2  187   5.241   4.691   3.583  1.2137  1.9524 -0.6241
   61TIP3   OH2  188   4.087   5.154   4.130 -0.2394 -0.8046 -0.3256
   61TIP3    H1  189   4.168   5.197   4.102 -0.3456  0.2780  0.9285
   61TIP3    H2  190   4.108   5.115   4.214 -1.1889  0.1136  0.3735
   62TIP3   OH2  191   5.937   0.178   4.700  0.4457 -0.3949  0.2478
   62TIP3    H1  192   5.962   0.149   4.788 -0.7978 -0.1165  0.7067
   62TIP3    H2  193   5.913   0.270   4.711  1.7102  0.0743 -0.6803
   63TIP3   OH2  194   6.285   3.721   1.451  0.2104 -0.1084  0.0026
   63TIP3    H1  195   6.197   3.728   1.486  0.1385  0.3012 -0.2530
   63TIP3    H2  196   6.337   3.684   1.523 -0.3518 -1.2507 -0.1641
   64TIP3   OH2  197   4.105   0.875   3.503 -0.4574 -0.2055  0.2434
   64TIP3    H1  198   4.026   0.907   3.460 -0.2876  0.7248  0.6027
   64TIP3    H2  199   4.167   0.948   3.496  0.3493 -0.9066  0.0056
   65TIP3   OH2  200   3.395   1.005   0.890 -0.1349 -0.3070  0.1872
   65TIP3    H1  201   3.311   0.960   0.898 -0.4998  0.3815  0.3754
   65TIP3    H2  202   3.378   1.076   0.828  0.2632 -0.0631  0.3538
   66TIP3   OH2  203   2.240   4.662   3.951  0.4589 -0.1640 -0.1749
   66TIP3    H1  204   2.272   4.615   3.873  1.0298  1.2553 -0.8260
   66TIP3    H2  205   2.210   4.593   4.009 -0.4384 -1.2728 -1.8564
   67TIP3   OH2  206   4.615   1.880   2.100 -0.9153  0.2665  0.0374
   67TIP3    H1  207   4.663   1.942   2.155 -1.3235  0.1189  0.5565
   67TIP3    H2  208   4.554   1.934   2.050  1.0220  0.7135 -2.0139
   68TIP3   OH2  209   6.237   0.978   4.051 -0.1328  0.4955  0.0983
   68TIP3    H1  210   6.231   1.060   4.002 -0.6428  0.9116  0.8445
   68TIP3    H2  211   6.227   1.003   4.142 -1.2120 -0.4980  0.2785
   69TIP3   OH2  212   5.761   0.217   5.017  0.0322  0.4809  0.1132
   69TIP3    H1  213   5.855   0.218   5.036  0.1785 -1.6413 -0.2003
   69TIP3    H2  214   5.728   0.142   5.067 -1.1069 -0.0331 -1.3329
   70TIP3   OH2  215   4.237   0.352   0.367 -0.2101 -0.2052 -0.6285
   70TIP3    H1  216   4.216   0.443   0.348 -0.1998  0.1661  0.9717
   70TIP3    H2  217   4.161   0.303   0.338 -1.5997  0.6694  1.2972
   71TIP3   OH2  218   1.783   2.149   2.864  0.2916  0.4275  0.4670
   71TIP3    H1  219   1.734   2.196   2.931 -2.1977 -1.0164 -0.2124
   71TIP3    H2  220   1.738   2.170   2.782  0.5513 -1.2595 -0.1466
   72TIP3   OH2  221   5.873   2.936   3.488 -0.6369  0.2690  0.6175
   72TIP3    H1  222   5.962   2.967   3.469 -1.7817  2.0514 -2.5949
   72TIP3    H2  223   5.835   3.003   3.543 -1.1398  1.6089 -1.2553
   73TIP3   OH2  224   4.203   2.539   3.954 -0.2138 -0.5997  0.0281
   73TIP3    H1  225   4.260   2.615   3.943  0.5294 -0.7803  2.1997
   73TIP3    H2  226   4.130   2.555   3.894  0.7599  0.9786 -0.8008
   74TIP3   OH2  227  -0.010   3.953   1.008  0.0506  0.3951  0.5490
   74TIP3    H1  228   0.074   3.981   1.044 -0.0615  0.5016  0.7254
   74TIP3    H2  229  -0.004   3.857   1.007 -0.0169  0.3853  1.0168
   75TIP3   OH2  230   0.668   5.978   5.172 -0.1106  0.2042 -0.2617
   75TIP3    H1  231   0.722   5.924   5.114  1.1723  1.6350 -0.4590
   75TIP3    H2  232   0.614   6.030   5.112  0.9138  1.3791 -0.1920
   76TIP3   OH2  233   5.228   2.587   3.985  0.0452 -0.3327 -0.1522
   76TIP3    H1  234   5.172   2.626   3.918  1.1490  1.1198 -0.2875
   76TIP3    H2  235   5.303   2.646   3.991  1.0423 -1.6281  0.7958
   77TIP3   OH2  236   2.182   3.682   5.024 -0.6587  0.2090 -0.2155
   77TIP3    H1  237   2.107   3.738   5.043  0.7562  2.4697 -0.9255
   77TIP3    H2  238   2.254   3.718   5.076 -0.1593 -2.4229  1.1196
   78TIP3   OH2  239   2.672   0.732   2.401  0.1101 -0.0744 -0.1721
   78TIP3    H1  240   2.578   0.744   2.388  0.0312 -0.5916 -0.0685
   78TIP3    H2  241   2.701   0.686   2.323  0.4548  0.9184 -0.6560
   79TIP3   OH2  242   4.008   5.928   2.430 -0.6943 -0.5159  0.3986
   79TIP3    H1  243   3.968   5.852   2.387  0.2109 -0.1548 -1.1884
   79TIP3    H2  244   4.091   5.941   2.382 -1.8017  2.7743 -0.9122
   80TIP3   OH2  245   6.031   5.841   2.807  0.2659  0.1867 -0.1820
   80TIP3    H1  246   6.125   5.825   2.809  0.1990 -0.2059 -0.1763
   80TIP3    H2  247   5.999   5.811   2.892  0.3461  1.6635  0.3925
   81TIP3   OH2  248   1.924   4.152   2.435 -0.3238 -0.0209 -0.1409
   81TIP3    H1  249   1.838   4.138   2.395 -1.1395 -1.2889  1.8656
   81TIP3    H2  250   1.914   4.234   2.484 -0.2425  0.0701 -0.2767
   82TIP3   OH2  251   1.680   5.807   2.345 -0.3260  0.2948 -0.2645
   82TIP3    H1  252   1.764   5.852   2.358  0.3826 -1.0172 -0.0521
   82TIP3    H2  253   1.673   5.796   2.250  0.4013 -0.7285 -0.2198
   83TIP3   OH2  254   0.373   4.486   2.189  0.3911  0.2190 -0.3618
   83TIP3    H1  255   0.396   4.395   2.167  0.5166  0.4319 -1.1672
   83TIP3    H2  256   0.278   4.489   2.178  0.6474  0.9007 -3.3684
   84TIP3   OH2  257   2.514   0.480   4.660  0.4748  0.4805 -0.5935
   84TIP3    H1  258   2.540   0.572   4.656  4.1113 -0.4438 -2.9475
   84TIP3    H2  259   2.485   0.460   4.571 -0.7690 -0.5808  0.0179
   85TIP3   OH2  260   0.623   3.477   4.570 -0.1207  0.2918  0.0364
   85TIP3    H1  261   0.530   3.478   4.550  0.1611  0.2107 -1.3502
   85TIP3    H2  262   0.654   3.563   4.542  0.5560 -0.3529 -1.2573
   86TIP3   OH2  263   2.180   4.958   0.626  0.3318  0.2525  0.5534
   86TIP3    H1  264   2.115   4.928   0.562 -0.2147  2.2313  0.1219
   86TIP3    H2  265   2.204   5.046   0.597  0.2508  1.1186  2.9015
   87TIP3   OH2  266  -0.021   4.970   0.270 -0.2829  0.3779  0.1953
   87TIP3    H1  267  -0.018   4.928   0.184 -1.3454 -1.0306  0.8094
   87TIP3    H2  268   0.057   5.027   0.271 -0.7600  1.2043 -2.0504
   88TIP3   OH2  269   2.528   0.971   3.712  0.0155  0.1344 -0.7168
   88TIP3    H1  270   2.594   0.926   3.659  1.4769  1.2285  0.1068
   88TIP3    H2  271   2.531   0.926   3.797  0.9983  1.2758 -0.1111
   89TIP3   OH2  272   4.295   2.085   1.797 -0.1512  0.2181 -0.1017
   89TIP3    H1  273   4.318   2.146   1.726 -0.2037  1.3751  0.8329
   89TIP3    H2  274   4.371   2.085   1.855 -0.5064  0.1057  0.3749
   90TIP3   OH2  275   3.205   0.768   4.976  0.0639  0.4714  0.0349
   90TIP3    H1  276   3.150   0.797   4.904  0.6798  0.3779 -0.4801
   90TIP3    H2  277   3.157   0.794   5.055  0.3253  2.4165 -0.3899
   91TIP3   OH2  278   0.569   1.051   0.481 -0.4710 -0.1747 -0.0380
   91TIP3    H1  279   0.497   1.093   0.528  0.0645  0.3343  0.3204
   91TIP3    H2  280   0.560   0.958   0.502 -0.2901  0.0318  1.0050
   92TIP3   OH2  281   1.083   4.477   0.938 -0.1246 -0.2894  0.3037
   92TIP3    H1  282   1.170   4.461   0.901 -0.0064  0.4640  0.2318
   92TIP3    H2  283   1.101   4.520   1.022 -0.4359  0.3705  0.0347
   93TIP3   OH2  284   0.888   1.677   4.600 -0.7532 -0.4574  0.4878
   93TIP3    H1  285   0.867   1.770   4.607 -1.6134 -0.7013  1.2706
   93TIP3    H2  286   0.911   1.665   4.508 -0.4382  0.5666  0.4195
   94TIP3   OH2  287   6.121   5.202   0.143 -0.0639 -0.3136 -0.1113
   94TIP3    H1  288   6.126   5.261   0.217  0.6448 -1.4655  0.7979
   94TIP3    H2  289   6.111   5.115   0.182  1.2394 -1.0524 -1.2961
   95TIP3   OH2  290   3.977   3.227   3.878  0.7711 -0.2089  0.2232
   95TIP3    H1  291   4.065   3.253   3.851  0.4673  2.7058  1.6341
   95TIP3    H2  292   3.929   3.310   3.885 -2.1099 -1.7068 -0.4703
   96TIP3   OH2  293   1.982   0.222   1.877 -0.3083 -0.7791 -0.4001
   96TIP3    H1  294   2.051   0.231   1.811  0.7418 -1.2565  0.6034
   96TIP3    H2  295   2.021   0.256   1.957 -1.1901 -1.2269  0.2310
   97TIP3   OH2  296   6.213   1.372   3.916 -0.0297 -0.4489 -0.0847
   97TIP3    H1  297   6.132   1.372   3.966  0.7783  3.1673  1.5567
   97TIP3    H2  298   6.199   1.435   3.846  0.9141 -0.8398 -0.6496
   98TIP3   OH2  299   3.755   5.097   1.807  0.2025 -0.2582  0.1410
   98TIP3    H1  300   3.780   5.075   1.897 -0.2049 -1.4909 -0.0229
   98TIP3    H2  301   3.826   5.154   1.776  2.7112 -3.2591 -0.1444
   99TIP3   OH2  302   3.963   2.067   3.512  0.0454 -0.0517  0.1055
   99TIP3    H1  303   3.977   2.048   3.420  1.1078 -1.0196  0.4340
   99TIP3    H2  304   3.871   2.045   3.528 -0.4392  1.1238 -0.9330
  100TIP3   OH2  305   5.149   0.434   1.926 -0.0297 -1.0907  0.0975
  100TIP3    H1  306   5.074   0.488   1.950  0.5026 -0.3854  0.2177
  100TIP3    H2  307   5.130   0.348   1.963 -0.8422 -0.9572 -0.0037
  101TIP3   OH2  308   6.258   5.714   5.110  0.8560  0.0629  0.6710
  101TIP3    H1  309   6.319   5.691   5.040 -0.2224 -1.1946  0.1002
  101TIP3    H2  310   6.195   5.772   5.068 -0.5744 -1.7547  0.1802
  102TIP3   OH2  311   4.926   5.855   1.130  0.0587 -0.2498 -0.0150
  102TIP3    H1  312   4.991   5.925   1.142  0.6624 -0.5421 -1.3913
  102TIP3    H2  313   4.859   5.894   1.073  0.7568 -0.9719 -1.3807
  103TIP3   OH2  314   0.103   1.650   0.163 -0.1362  0.1336 -0.8017
  103TIP3    H1  315   0.174   1.633   0.101  1.4176  0.7761  0.6912
  103TIP3    H2  316   0.073   1.738   0.141 -2.4471 -1.1118 -3.1798
  104TIP3   OH2  317   4.568   2.956   3.282  0.2500  0.7839 -0.4311
  104TIP3    H1  318   4.496   2.912   3.328 -0.3643  2.7563  0.5968
  104TIP3    H2  319   4.641   2.894   3.289 -0.5277 -0.0504  1.0623
  105TIP3   OH2  320   4.811   3.272   5.182 -0.6779  0.2807  0.1231
  105TIP3    H1  321   4.830   3.243   5.093 -1.7961 -1.5010  0.4093
  105TIP3    H2  322   4.717   3.290   5.182 -0.5008  1.3182  0.6880
  106TIP3   OH2  323   4.563   0.223   1.274 -0.1936 -0.4646 -0.0578
  106TIP3    H1  324   4.506   0.157   1.236 -0.1652 -0.2824 -0.4212
  106TIP3    H2  325   4.527   0.306   1.243 -0.9814 -0.2359  1.3944
  107TIP3   OH2  326   4.466   1.841   3.937  0.2911  0.0490 -0.5677
  107TIP3    H1  327   4.417   1.803   4.010 -0.2243  0.5539 -0.6508
  107TIP3    H2  328   4.401   1.858   3.870  0.5944  0.6165 -0.7240
  108TIP3   OH2  329   4.133   4.744   4.781  0.2008 -0.1202  0.1105
  108TIP3    H1  330   4.168   4.679   4.721 -2.6951 -0.2432 -1.5913
  108TIP3    H2  331   4.108   4.695   4.859  0.5611 -0.5674 -0.0542
  109TIP3   OH2  332   2.852   2.261   4.350  0.2758 -0.2110 -0.1870
  109TIP3    H1  333   2.862   2.309   4.432  0.7907  0.2041 -0.4912
  109TIP3    H2  334   2.759   2.271   4.328  0.2396  0.0819  0.0902
  110TIP3   OH2  335   2.765   5.597   1.805 -0.2104 -0.1513 -0.0571
  110TIP3    H1  336   2.772   5.654   1.728  2.4884  0.1026  0.2586
  110TIP3    H2  337   2.833   5.629   1.864 -2.6705  0.1402  2.8356
  111TIP3   OH2  338   2.523   1.162   0.662 -0.6784 -0.2904  0.1268
  111TIP3    H1  339   2.445   1.210   0.690 -1.4676 -1.0953 -0.6288
  111TIP3    H2  340   2.508   1.145   0.569  1.3774  1.3737 -0.5856
  112TIP3   OH2  341   4.359   5.291   5.123  0.1809  0.6272  0.2019
  112TIP3    H1  342   4.350   5.365   5.184  0.9903  1.5845 -0.7982
  112TIP3    H2  343   4.320   5.217   5.169 -0.7494  1.6963  1.2002
  113TIP3   OH2  344   0.966   1.763   1.366  0.5804 -0.0333 -0.0257
  113TIP3    H1  345   0.979   1.855   1.345 -2.3131  0.2924 -0.8838
  113TIP3    H2  346   0.911   1.764   1.444 -2.6717 -0.7833 -2.0873
  114TIP3   OH2  347   5.095   4.701   1.850 -0.1151  0.0666  0.1794
  114TIP3    H1  348   5.178   4.733   1.813  0.2418  0.1599  1.0402
  114TIP3    H2  349   5.117   4.674   1.939 -0.5681 -1.8667 -0.2409
  115TIP3   OH2  350   1.742   3.769   2.535 -0.1281  0.2948 -0.4566
  115TIP3    H1  351   1.695   3.694   2.498  0.6398 -0.1011 -0.6502
  115TIP3    H2  352   1.822   3.732   2.572 -0.6368  0.7542  1.1742
  116TIP3   OH2  353   4.710   0.351   0.172  0.5609  0.5749  0.2740
  116TIP3    H1  354   4.710   0.259   0.145 -0.1904  0.7533 -0.3774
  116TIP3    H2  355   4.664   0.352   0.256  1.7204  0.1909  0.9251
  117TIP3   OH2  356   6.023   2.178   1.217  0.0081  0.2566 -0.2182
  117TIP3    H1  357   6.021   2.177   1.121  0.0248 -1.3781 -0.2163
  117TIP3    H2  358   5.935   2.152   1.243  0.2345 -0.0907  0.2003
  118TIP3   OH2  359   4.480   2.234   2.714  0.3467 -0.1027  0.3950
  118TIP3    H1  360   4.521   2.296   2.773  0.8131 -0.0668  0.0352
  118TIP3    H2  361   4.552   2.185   2.675  0.1055  0.3295 -0.6546
  119TIP3   OH2  362   1.788   0.936   1.855 -0.0348  0.0273 -0.1039
  119TIP3    H1  363   1.823   0.979   1.933  2.6229 -0.9575 -0.6345
  119TIP3    H2  364   1.748   0.856   1.889  0.9538 -0.3127  0.3194
  120TIP3   OH2  365   0.517   4.858  -0.014 -1.0411  0.3885  0.5157
  120TIP3    H1  366   0.533   4.835   0.078  0.2059 -1.4715 -0.0878
  120TIP3    H2  367   0.426   4.831  -0.029 -0.4364 -1.9670  0.5567
  121TIP3   OH2  368   2.018   2.309   1.636  0.1195  0.1332 -0.0258
  121TIP3    H1  369   2.077   2.257   1.690  0.6433  1.8219  1.1059
  121TIP3    H2  370   2.063   2.316   1.552  0.8354  0.1418  0.3464
  122TIP3   OH2  371   5.756   5.670   1.394  0.2666  0.1234  0.3207
  122TIP3    H1  372   5.759   5.642   1.303 -2.0058  1.1968 -0.1593
  122TIP3    H2  373   5.804   5.603   1.442 -0.7431 -1.8930 -1.3522
  123TIP3   OH2  374   2.644   3.698   2.523  0.3403  0.0208 -0.6345
  123TIP3    H1  375   2.642   3.695   2.619 -0.0618 -1.1563 -0.6703
  123TIP3    H2  376   2.590   3.774   2.501  0.1844  0.1182  0.0622
  124TIP3   OH2  377   2.850   2.404   4.580  0.5701  0.3515  0.4481
  124TIP3    H1  378   2.849   2.374   4.671  0.7409 -0.3710  0.2158
  124TIP3    H2  379   2.783   2.473   4.577 -1.4303 -1.4831  0.5045
  125TIP3   OH2  380   4.399   3.963   1.820  0.2639  0.0177 -0.0311
  125TIP3    H1  381   4.396   3.887   1.761  0.0525 -0.5857  0.7390
  125TIP3    H2  382   4.341   4.027   1.778  0.5794 -0.1711 -0.7828
  126TIP3   OH2  383   5.958   0.185   2.666 -0.3940  0.4655 -0.1520
  126TIP3    H1  384   5.890   0.200   2.601  0.4774  1.9466 -0.7581
  126TIP3    H2  385   5.976   0.271   2.703  2.1323  0.4185 -1.0265
  127TIP3   OH2  386   5.895   5.162   3.776  0.0093 -0.2311  0.3716
  127TIP3    H1  387   5.914   5.175   3.684 -1.2944 -1.3756 -0.0910
  127TIP3    H2  388   5.964   5.105   3.808 -0.1390 -0.7148 -0.1667
  128TIP3   OH2  389   1.876   3.073   3.174 -0.0528 -0.4261 -0.1704
  128TIP3    H1  390   1.971   3.072   3.189 -0.2466  1.5463  1.6508
  128TIP3    H2  391   1.860   3.153   3.124 -0.8463 -0.1826  0.4521
  129TIP3   OH2  392   2.616   4.418   4.445 -0.2898  0.6130  0.0244
  129TIP3    H1  393   2.656   4.505   4.442 -0.0532  0.6232  2.0411
  129TIP3    H2  394   2.522   4.435   4.430  0.0095  0.9237 -1.7382
  130TIP3   OH2  395   2.884   5.771   3.571 -0.1349  0.5610  0.3661
  130TIP3    H1  396   2.920   5.683   3.570 -1.0958  0.1556  0.2481
  130TIP3    H2  397   2.955   5.826   3.603  0.1777 -0.3940  1.3684
  131TIP3   OH2  398   2.978   5.306   2.235  0.3363  0.3172 -0.0227
  131TIP3    H1  399   2.941   5.339   2.317 -0.1811  1.2645 -0.6254
  131TIP3    H2  400   3.056   5.258   2.262  0.3711  0.9171  0.9919
  132TIP3   OH2  401   1.797   5.625   2.563 -0.0237  0.2699  0.6316
  132TIP3    H1  402   1.788   5.546   2.510  1.3351 -0.3031  1.1962
  132TIP3    H2  403   1.760   5.695   2.510 -1.7701 -0.8119  0.3370
  133TIP3   OH2  404   1.229   3.165   4.805 -0.3051 -0.2929 -0.1485
  133TIP3    H1  405   1.226   3.261   4.808 -0.5932 -0.3193  0.6612
  133TIP3    H2  406   1.202   3.143   4.716  0.5988  0.4043 -0.6186
  134TIP3   OH2  407   2.883   1.280   4.901 -0.2397 -0.6223 -0.3055
  134TIP3    H1  408   2.953   1.291   4.965  1.0771 -0.6427 -1.6877
  134TIP3    H2  409   2.872   1.367   4.861 -2.5897 -0.0239  1.3725
  135TIP3   OH2  410   2.550   0.821   0.455  0.5158  0.3049 -0.1743
  135TIP3    H1  411   2.481   0.837   0.519 -0.1243 -1.7316 -0.3005
  135TIP3    H2  412   2.504   0.810   0.372  0.9635 -1.0075 -0.2692
  136TIP3   OH2  413   4.327   1.107   3.922 -0.2190  0.2500 -0.0765
  136TIP3    H1  414   4.264   1.085   3.991 -1.3663 -0.1943 -1.2107
  136TIP3    H2  415   4.280   1.168   3.865  0.4586  0.0981 -0.8253
  137TIP3   OH2  416   5.103   1.489   2.399  0.1839 -0.3705 -0.2908
  137TIP3    H1  417   5.048   1.536   2.337 -1.5785 -0.2042  1.3064
  137TIP3    H2  418   5.157   1.558   2.440 -0.8299 -0.0219  0.4921
  138TIP3   OH2  419   4.775   4.788   1.161  0.1731 -0.3806  0.5202
  138TIP3    H1  420   4.721   4.747   1.228 -0.6117  0.6239  0.5220
  138TIP3    H2  421   4.836   4.843   1.210 -0.9020  0.9582  0.4267
  139TIP3   OH2  422   5.294   4.325   3.399  0.1345  0.0631 -0.4376
  139TIP3    H1  423   5.348   4.257   3.359 -0.0270  0.5083 -1.4380
  139TIP3    H2  424   5.353   4.368   3.461  1.3795  1.3421 -2.3654
  140TIP3   OH2  425   3.625   1.302   4.686 -0.3077 -0.2596  0.0889
  140TIP3    H1  426   3.561   1.306   4.757  1.2031 -0.8444  1.5573
  140TIP3    H2  427   3.572   1.295   4.606 -2.0664  0.7654  1.1075
  141TIP3   OH2  428   4.207   5.564   1.939 -0.1450  0.6120 -0.0714
  141TIP3    H1  429   4.249   5.512   2.007 -1.2510 -1.4387 -0.8703
  141TIP3    H2  430   4.278   5.618   1.903  1.3493 -1.1565  0.0490
  142TIP3   OH2  431   4.456   5.671   3.902 -0.1955 -0.0482  0.6230
  142TIP3    H1  432   4.524   5.702   3.842 -0.6803 -0.2729 -0.0573
  142TIP3    H2  433   4.503   5.618   3.967  0.3566  0.3403  0.5483
  143TIP3   OH2  434   4.940   4.444   4.030  0.2685 -0.2615 -0.0555
  143TIP3    H1  435   4.943   4.413   4.120 -1.8640  0.0410  0.1540
  143TIP3    H2  436   4.966   4.536   4.035  1.1017 -0.5000  0.0997
  144TIP3   OH2  437   4.853   4.380   0.651 -0.4559  0.5863 -0.2146
  144TIP3    H1  438   4.935   4.422   0.677  0.3104 -0.8549 -0.1635
  144TIP3    H2  439   4.829   4.326   0.727  0.1825 -1.3202 -1.3011
  145TIP3   OH2  440   1.685   2.291   3.061  0.5113  0.2989  0.1972
  145TIP3    H1  441   1.694   2.367   3.118  1.1103  0.6489 -0.3527
  145TIP3    H2  442   1.604   2.308   3.012  0.3918  0.3575  0.4161
  146TIP3   OH2  443   0.896   0.746   1.583 -0.2806  0.2617  0.2113
  146TIP3    H1  444   0.917   0.714   1.670  1.8287 -1.2147 -0.7525
  146TIP3    H2  445   0.952   0.695   1.524  1.2284  3.7665 -1.7021
  147TIP3   OH2  446   1.256   0.970   0.637  0.3171  0.0623 -0.3629
  147TIP3    H1  447   1.327   0.912   0.665  1.1999  0.7936 -0.9821
  147TIP3    H2  448   1.296   1.024   0.568 -0.5992  1.0865 -0.1183
  148TIP3   OH2  449   4.430   0.657   4.460 -0.7268  0.1872 -0.0973
  148TIP3    H1  450   4.374   0.687   4.532  0.4959  0.4611  0.7595
  148TIP3    H2  451   4.429   0.561   4.468 -2.5552  0.0520 -1.2595
  149TIP3   OH2  452   6.265   5.802   3.475  0.5203  0.2654 -0.1615
  149TIP3    H1  453   6.276   5.895   3.495 -1.5798  0.6755 -0.6731
  149TIP3    H2  454   6.337   5.759   3.522  0.9577  2.0287  0.8917
  150TIP3   OH2  455   4.576   0.966   4.145  0.2388  0.1160  0.0530
  150TIP3    H1  456   4.634   0.891   4.154  2.7317  1.9644  0.5513
  150TIP3    H2  457   4.551   0.988   4.235  0.8752  0.8371  0.0652
  151TIP3   OH2  458   4.173   1.768   4.085 -0.5184  0.3706  0.0723
  151TIP3    H1  459   4.218   1.702   4.137  0.5409  1.0298  0.0353
  151TIP3    H2  460   4.083   1.769   4.118 -0.9302 -1.9581 -0.7930
  152TIP3   OH2  461   1.520   4.977   2.563  0.5602  0.4101  0.2566
  152TIP3    H1  462   1.536   4.971   2.468  2.1486 -2.5855  0.5762
  152TIP3    H2  463   1.607   4.974   2.602 -0.1312 -1.8215  1.8327
  153TIP3   OH2  464   5.580   5.209   5.132 -0.8524 -0.1344  0.0278
  153TIP3    H1  465   5.596   5.272   5.203  0.7628 -0.2678 -0.1784
  153TIP3    H2  466   5.660   5.157   5.128 -0.3005  0.7683 -2.7766
  154TIP3   OH2  467   2.535   3.678   2.161  0.3108 -0.2375 -0.0233
  154TIP3    H1  468   2.526   3.609   2.096 -0.9224  1.3078 -1.6054
  154TIP3    H2  469   2.617   3.722   2.138 -0.7000  1.0469 -1.3778
  155TIP3   OH2  470   1.693   3.425   0.719  0.2312 -0.3203 -0.0676
  155TIP3    H1  471   1.643   3.434   0.800  1.0923  0.3121  0.4140
  155TIP3    H2  472   1.781   3.456   0.741  0.6420 -0.7072 -1.0872
  156TIP3   OH2  473   0.144   4.135   2.155  0.4705  0.4588 -0.0227
  156TIP3    H1  474   0.122   4.111   2.245  0.2077  1.6162  0.2391
  156TIP3    H2  475   0.060   4.151   2.112  0.5473 -0.9252 -0.7378
  157TIP3   OH2  476   2.765   4.847   0.632  0.6638 -0.4319  0.1429
  157TIP3    H1  477   2.709   4.778   0.668 -0.9118  0.8609  0.2917
  157TIP3    H2  478   2.808   4.807   0.557 -2.3381 -0.8787 -1.4943
  158TIP3   OH2  479   0.741   4.022   0.626 -0.5381 -0.5415 -0.1903
  158TIP3    H1  480   0.668   3.961   0.638 -0.5943 -0.2826  0.8241
  158TIP3    H2  481   0.808   3.991   0.686  0.1470 -0.6815 -1.0004
  159TIP3   OH2  482   3.069   1.286   2.182  0.4130  0.4705  0.1712
  159TIP3    H1  483   3.037   1.197   2.170 -0.1995  0.4499  1.7237
  159TIP3    H2  484   3.029   1.335   2.111 -0.3540 -0.2355  0.0960
  160TIP3   OH2  485   1.533   1.749   4.291  0.4202  0.4014 -0.0756
  160TIP3    H1  486   1.470   1.683   4.319 -0.8109  1.1554 -0.9315
  160TIP3    H2  487   1.521   1.754   4.196  1.4951  0.8621 -0.2011
  161TIP3   OH2  488   1.343   3.464   0.686  0.5472  0.0094  0.2047
  161TIP3    H1  489   1.374   3.374   0.677  0.1753 -0.2167  1.0791
  161TIP3    H2  490   1.406   3.506   0.745  1.4350  0.7028 -1.1686
  162TIP3   OH2  491   6.087   0.946   1.992  0.6595 -0.3902 -0.5221
  162TIP3    H1  492   6.096   0.962   1.898  0.0237 -1.4017 -0.7736
  162TIP3    H2  493   5.997   0.972   2.012  0.2403 -1.7523 -0.5527
  163TIP3   OH2  494   2.302   0.575   1.197  0.3035 -0.0572 -0.2527
  163TIP3    H1  495   2.309   0.488   1.236  0.6986 -0.1772 -0.5793
  163TIP3    H2  496   2.314   0.635   1.271  0.1480 -0.2780 -0.0451
  164TIP3   OH2  497   2.060   1.651   0.603  0.1031 -0.1843 -0.1534
  164TIP3    H1  498   1.971   1.663   0.571  0.4767 -0.5413 -1.3696
  164TIP3    H2  499   2.051   1.653   0.699 -1.0623  0.7471 -0.2527
  165TIP3   OH2  500   2.637   5.944   3.923  0.2952  0.0966 -0.6200
  165TIP3    H1  501   2.563   5.989   3.884  0.0496 -0.3165 -0.6323
  165TIP3    H2  502   2.617   5.941   4.017 -0.9064 -2.1724 -0.8721
  166TIP3   OH2  503   3.096   2.510   2.708 -0.5148 -0.3317  1.0143
  166TIP3    H1  504   3.150   2.563   2.766  2.1660  0.4357 -1.9153
  166TIP3    H2  505   3.008   2.546   2.717  0.5223  2.2300  1.8084
  167TIP3   OH2  506   1.599   2.787   5.025  0.1137  0.4782 -0.0966
  167TIP3    H1  507   1.575   2.780   5.117  0.4953  1.6932  0.1162
  167TIP3    H2  508   1.680   2.838   5.025  1.3555 -1.3576 -0.9700
  168TIP3   OH2  509   2.626   5.868   0.545 -0.0338  0.2216 -0.1190
  168TIP3    H1  510   2.703   5.925   0.546 -0.0478  0.2741  2.0566
  168TIP3    H2  511   2.571   5.903   0.475  1.6953  0.4443 -1.4363
  169TIP3   OH2  512   2.329   3.298   1.549  0.6110 -0.8273 -0.3684
  169TIP3    H1  513   2.411   3.257   1.522  0.7906 -0.4090 -0.4774
  169TIP3    H2  514   2.330   3.384   1.506  0.2043 -0.7455 -0.2209
  170TIP3   OH2  515   0.491   5.785   2.866  0.2039  0.8140 -0.2816
  170TIP3    H1  516   0.404   5.775   2.827  0.3226  0.2624 -0.4168
  170TIP3    H2  517   0.519   5.696   2.886  1.0126  0.9193 -0.8498
  171TIP3   OH2  518   5.169   5.777   2.015  0.2520 -0.0950 -0.4785
  171TIP3    H1  519   5.243   5.719   1.996 -0.3732 -0.5662 -1.5874
  171TIP3    H2  520   5.199   5.864   1.987  1.0378  0.0657  0.7968
  172TIP3   OH2  521   5.776   0.132   3.268  0.1085 -0.8482 -0.0247
  172TIP3    H1  522   5.839   0.133   3.196  0.4841 -0.4812  0.2965
  172TIP3    H2  523   5.775   0.223   3.300 -3.3341  0.1377 -2.3153
  173TIP3   OH2  524   5.707   0.347   1.029  0.7194  0.1830 -0.2688
  173TIP3    H1  525   5.664   0.416   0.978  0.1957  1.3986  1.7029
  173TIP3    H2  526   5.641   0.320   1.093  1.5469 -0.8724  0.1719
  174TIP3   OH2  527   5.870   0.344   0.282 -0.9136 -0.2418 -0.2464
  174TIP3    H1  528   5.834   0.257   0.264 -1.9805  0.1516 -0.1052
  174TIP3    H2  529   5.895   0.342   0.374  0.7494 -0.9576 -0.6836
  175TIP3   OH2  530   1.835   2.445   1.841  0.0896 -0.0105  0.8357
  175TIP3    H1  531   1.893   2.406   1.776 -0.9792  0.8927 -0.7057
  175TIP3    H2  532   1.747   2.425   1.810 -0.4504  1.0147  1.6443
  176TIP3   OH2  533   5.579   3.148   2.781 -0.0677 -0.2931  0.2001
  176TIP3    H1  534   5.619   3.229   2.747 -0.9712  0.8379  1.6994
  176TIP3    H2  535   5.551   3.101   2.702  0.4801  0.8542 -0.7150
  177TIP3   OH2  536   5.145   3.905   4.738 -0.2552  0.2552 -0.2340
  177TIP3    H1  537   5.070   3.854   4.768 -0.0225 -0.1796 -0.3911
  177TIP3    H2  538   5.211   3.840   4.714  1.7691  0.5223  3.7404
  178TIP3   OH2  539   6.074   3.967   2.913 -0.1530 -0.0191  0.0119
  178TIP3    H1  540   6.042   3.959   3.003 -0.4743 -0.2594 -0.1257
  178TIP3    H2  541   6.114   3.882   2.894  2.7898  0.9833  1.0290
  179TIP3   OH2  542   1.041   0.635   1.844 -0.7423  0.3577 -0.4048
  179TIP3    H1  543   1.085   0.557   1.878 -1.4217 -0.1865 -0.7536
  179TIP3    H2  544   1.076   0.707   1.896 -1.4383 -0.3987  1.1645
  180TIP3   OH2  545   6.277   2.890   1.695  0.4169 -0.3034 -0.3752
  180TIP3    H1  546   6.247   2.951   1.628 -0.3715 -1.2212 -0.8727
  180TIP3    H2  547   6.324   2.822   1.647 -1.3174 -1.7005 -0.2089
  181TIP3   OH2  548   5.502   0.255   3.149  0.5735 -0.0642  0.4542
  181TIP3    H1  549   5.543   0.330   3.106  0.9356 -0.6250 -0.2000
  181TIP3    H2  550   5.575   0.199   3.175  0.2706 -0.6248  0.1195
  182TIP3   OH2  551   6.231   0.093   1.017  0.6122  0.1591  0.2887
  182TIP3    H1  552   6.216   0.032   1.089 -0.6765  0.9854  0.7683
  182TIP3    H2  553   6.190   0.175   1.047 -0.1296  0.4634 -1.4452
  183TIP3   OH2  554   0.513   1.032   3.861 -0.1529 -0.5957  0.3847
  183TIP3    H1  555   0.527   0.946   3.901 -0.9995 -0.1843  1.6290
  183TIP3    H2  556   0.484   1.087   3.934  1.0791  0.9484 -0.2369
  184TIP3   OH2  557   5.589   2.440   3.723  0.1364 -0.3828  0.0636
  184TIP3    H1  558   5.626   2.509   3.778 -1.1256 -0.9140  1.6723
  184TIP3    H2  559   5.529   2.486   3.664 -1.3475 -0.1179  1.6962
  185TIP3   OH2  560   6.330   3.905   2.257  0.5814  0.0846 -0.1327
  185TIP3    H1  561   6.236   3.909   2.239  0.5040 -0.5630  0.0758
  185TIP3    H2  562   6.362   3.837   2.197  1.2852  1.6884 -1.6340
  186TIP3   OH2  563   0.033   1.298   4.756  0.2576  0.3888  0.5315
  186TIP3    H1  564  -0.040   1.244   4.787 -0.5103  1.0483 -0.0963
  186TIP3    H2  565   0.111   1.254   4.790 -0.4475 -0.0129  1.7037
  187TIP3   OH2  566   1.574   1.631   1.573 -0.0340  0.1039  0.1760
  187TIP3    H1  567   1.558   1.547   1.617  1.0221 -1.0068 -1.4695
  187TIP3    H2  568   1.639   1.611   1.506  1.7000  2.6462  0.9560
  188TIP3   OH2  569   5.706   3.904   3.852 -0.3785  0.2701  0.3344
  188TIP3    H1  570   5.730   3.856   3.773 -1.2089  0.4120 -0.0099
  188TIP3    H2  571   5.612   3.888   3.863 -0.2089 -0.0137  1.4767
  189TIP3   OH2  572   5.612   0.434   3.460 -0.2845 -0.4749 -0.4302
  189TIP3    H1  573   5.621   0.503   3.394 -0.2994 -2.0522 -2.1542
  189TIP3    H2  574   5.702   0.412   3.483 -0.2237  1.8661  2.1818
  190TIP3   OH2  575   0.566   4.934   2.498 -0.0769 -0.0541 -0.7314
  190TIP3    H1  576   0.631   4.868   2.476  1.3973  0.1102  2.5800
  190TIP3    H2  577   0.482   4.890   2.485  0.7353 -1.3563 -1.9386
  191TIP3   OH2  578   5.196   1.311   1.088  0.3042 -0.1718 -0.0455
  191TIP3    H1  579   5.164   1.246   1.026  1.9715 -0.7265 -0.3519
  191TIP3    H2  580   5.138   1.386   1.076 -2.0663 -1.7555  0.7444
  192TIP3   OH2  581   5.534   5.379   2.161 -0.0775  0.0361 -0.0249
  192TIP3    H1  582   5.439   5.365   2.159 -0.5701  3.0173 -0.7864
  192TIP3    H2  583   5.565   5.312   2.222 -2.5955 -1.2286  0.0398
  193TIP3   OH2  584   5.469   4.628   2.719 -0.7714  0.3281 -0.3393
  193TIP3    H1  585   5.505   4.547   2.681 -3.3397 -1.0609  0.0058
  193TIP3    H2  586   5.410   4.662   2.652 -0.7085  1.2330  0.0460
  194TIP3   OH2  587   5.876   5.419   0.267  0.5340  0.5687 -0.1788
  194TIP3    H1  588   5.834   5.494   0.309 -0.7438  0.2067 -0.7375
  194TIP3    H2  589   5.946   5.393   0.327 -1.2310  0.0424  1.7785
  195TIP3   OH2  590   0.082   1.248   0.141 -0.0519 -0.0522  0.4122
  195TIP3    H1  591   0.115   1.164   0.173 -1.1013 -0.0081  1.6834
  195TIP3    H2  592   0.002   1.264   0.191 -0.6219  1.0633 -0.7745
  196TIP3   OH2  593   0.456   4.652   2.408  0.1514  0.4078  0.4424
  196TIP3    H1  594   0.547   4.637   2.435 -0.0203  0.5021  1.0861
  196TIP3    H2  595   0.441   4.589   2.338  2.0245  3.1062 -2.6488
  197TIP3   OH2  596   5.973   5.278   2.141  0.1055  0.1954 -0.1229
  197TIP3    H1  597   6.030   5.337   2.190  0.8418 -0.8139  0.2777
  197TIP3    H2  598   5.910   5.246   2.205  0.5553 -0.4812  0.0053
  198TIP3   OH2  599   5.377   1.533   3.240  0.1829  0.1084  0.0711
  198TIP3    H1  600   5.356   1.612   3.290 -1.0021 -0.1022 -0.0523
  198TIP3    H2  601   5.470   1.540   3.220  0.7327  0.1224  2.4314
  199TIP3   OH2  602   2.328   1.097   5.043 -0.9521  0.2542  0.2628
  199TIP3    H1  603   2.336   1.049   5.125  1.7683 -1.3668 -0.8201
  199TIP3    H2  604   2.258   1.052   4.995 -0.8754 -0.3495  0.7090
  200TIP3   OH2  605   1.285   3.558   3.988 -0.3454  0.2866 -0.0724
  200TIP3    H1  606   1.283   3.650   3.965 -1.1309  0.0380 -1.0345
  200TIP3    H2  607   1.301   3.512   3.906 -0.7917 -0.4779  0.2512
  201TIP3   OH2  608   5.192   3.108   3.756  0.1935 -0.1115 -0.2462
  201TIP3    H1  609   5.169   3.032   3.810  1.8240 -0.7931 -0.4626
  201TIP3    H2  610   5.158   3.183   3.805 -2.1138 -0.9624 -0.3770
  202TIP3   OH2  611   3.880   5.004   3.452 -0.4461  0.1396  0.1886
  202TIP3    H1  612   3.904   4.985   3.361 -2.5137  0.7360 -0.5218
  202TIP3    H2  613   3.917   4.931   3.502  1.4098  0.2008 -0.9935
  203TIP3   OH2  614   6.266   3.534   1.966 -0.5757 -0.3613 -0.6236
  203TIP3    H1  615   6.268   3.615   2.016 -1.3075 -0.2079 -0.8218
  203TIP3    H2  616   6.318   3.551   1.888 -0.5656 -0.1496 -0.5698
  204TIP3   OH2  617   2.249   2.995   0.715 -0.0343 -0.5147 -0.1749
  204TIP3    H1  618   2.187   3.067   0.720 -0.9317 -1.0353 -2.4980
  204TIP3    H2  619   2.286   3.001   0.626  2.2675 -1.0290  0.6635
  205TIP3   OH2  620   0.483   0.690   1.292  0.2484 -0.7772 -0.1869
  205TIP3    H1  621   0.558   0.736   1.330 -0.2776 -1.1023  1.3028
  205TIP3    H2  622   0.455   0.746   1.219  0.8297  0.2646  0.3638
  206TIP3   OH2  623   4.199   2.806   1.215 -0.7088  0.6818  0.0112
  206TIP3    H1  624   4.277   2.750   1.221 -0.4771  0.8541 -1.0630
  206TIP3    H2  625   4.201   2.859   1.294  0.3593  0.7756 -0.0599
  207TIP3   OH2  626   3.396   1.145   2.032 -0.2860  0.6421  0.1238
  207TIP3    H1  627   3.340   1.118   1.959 -0.4750  0.9330  0.1601
  207TIP3    H2  628   3.411   1.065   2.082 -0.4556  0.5126 -0.0313
  208TIP3   OH2  629   5.598   5.843   2.268  0.4686  0.2918  0.3396
  208TIP3    H1  630   5.693   5.831   2.274  0.6968 -1.2061 -3.3289
  208TIP3    H2  631   5.562   5.767   2.314  1.1250 -0.1022  0.2300
  209TIP3   OH2  632   3.393   3.313   1.466  0.3187 -0.1080  0.5879
  209TIP3    H1  633   3.301   3.335   1.480  0.3324  1.2540 -1.1192
  209TIP3    H2  634   3.392   3.247   1.397  0.6377  1.6917 -1.2531
  210TIP3   OH2  635   5.559   1.731   2.502  0.4479 -0.1869 -0.1760
  210TIP3    H1  636   5.610   1.669   2.450  3.7726  1.8108  0.4314
  210TIP3    H2  637   5.563   1.813   2.452 -0.4195  0.5620  0.9343
  211TIP3   OH2  638   2.417   1.348   5.133 -0.2228 -0.3135 -0.1526
  211TIP3    H1  639   2.426   1.266   5.084  0.6755  0.4235 -1.2694
  211TIP3    H2  640   2.373   1.323   5.214  0.3822 -1.9605 -0.3000
  212TIP3   OH2  641   4.606   4.527   1.919  0.3253  0.2965 -0.5341
  212TIP3    H1  642   4.530   4.581   1.940  0.8283  1.6319 -1.9681
  212TIP3    H2  643   4.629   4.485   2.002 -0.8503  1.2864  0.3341
  213TIP3   OH2  644   3.025   2.279   4.133  0.0650 -0.8624  0.1365
  213TIP3    H1  645   3.106   2.323   4.159  1.0228 -2.2166 -0.4995
  213TIP3    H2  646   2.956   2.334   4.171  0.9932  2.8746 -2.9262
  214TIP3   OH2  647   5.844   0.873   3.950  0.0117 -0.2429  0.2545
  214TIP3    H1  648   5.907   0.840   4.014  1.7629  0.4238 -1.0284
  214TIP3    H2  649   5.893   0.876   3.868 -2.3253 -1.6721 -1.3026
  215TIP3   OH2  650   4.903   4.668   1.607  0.4430 -0.0518 -0.5160
  215TIP3    H1  651   4.879   4.575   1.606 -0.9005  0.2415  0.5641
  215TIP3    H2  652   4.939   4.682   1.695 -1.2474  0.8357  0.0882
  216TIP3   OH2  653   3.619   4.935   0.143 -0.4210  0.1021  0.1064
  216TIP3    H1  654   3.583   4.950   0.231  2.3873 -2.0138  1.7721
  216TIP3    H2  655   3.665   4.852   0.150  1.1297  0.5761 -3.0073
  217TIP3   OH2  656   2.248   5.453   0.146  0.0646 -0.2148 -0.0068
  217TIP3    H1  657   2.207   5.529   0.106 -1.5569 -0.5235  0.9752
  217TIP3    H2  658   2.310   5.489   0.209  1.4460  0.2614 -1.5714
  218TIP3   OH2  659   3.159   5.565   1.865 -0.3851  0.1126 -0.2551
  218TIP3    H1  660   3.134   5.572   1.773 -1.8086  0.6658  0.1393
  218TIP3    H2  661   3.242   5.612   1.871 -0.5987  0.6332 -1.1413
  219TIP3   OH2  662   1.090   0.982   2.954 -0.2009  0.0130  0.0580
  219TIP3    H1  663   1.146   1.051   2.919  3.0710 -2.1677  0.5414
  219TIP3    H2  664   1.131   0.958   3.038 -2.0103 -1.5659  0.5603
  220TIP3   OH2  665   5.882   2.909   0.622 -0.1761  0.7077 -0.5875
  220TIP3    H1  666   5.850   2.910   0.532  0.8702  1.7088 -0.9796
  220TIP3    H2  667   5.941   2.984   0.627 -0.0678  0.5568  0.8865
  221TIP3   OH2  668   0.360   4.879   3.421 -0.2015 -0.5534  0.2272
  221TIP3    H1  669   0.340   4.928   3.341 -0.4770  0.0041  0.6214
  221TIP3    H2  670   0.414   4.939   3.472 -0.0366 -0.9012  0.4633
  222TIP3   OH2  671   5.841   3.562   2.158  1.0452  0.1388  0.0254
  222TIP3    H1  672   5.848   3.656   2.139  1.4717  0.2362  0.6289
  222TIP3    H2  673   5.923   3.526   2.126  0.1675 -0.3286 -1.8056
  223TIP3   OH2  674   1.228   1.249   4.909  0.1833 -0.0620  0.4926
  223TIP3    H1  675   1.262   1.286   4.828 -1.1492  0.2045  0.0442
  223TIP3    H2  676   1.306   1.234   4.963  1.0205  0.3425 -0.5848
  224TIP3   OH2  677   4.166   1.762   2.722  0.5222  0.3967 -0.1580
  224TIP3    H1  678   4.223   1.774   2.798  2.6101 -0.2949 -1.5276
  224TIP3    H2  679   4.113   1.842   2.719  0.3890  0.4389  1.9821
  225TIP3   OH2  680   0.094   3.991   3.446  0.0444  0.1817 -0.0608
  225TIP3    H1  681   0.178   3.970   3.488  0.0796  0.1763 -0.1344
  225TIP3    H2  682   0.073   4.079   3.476 -0.0510  0.0831  0.1654
  226TIP3   OH2  683   2.030   4.008   2.644 -0.1593  0.2091 -0.2521
  226TIP3    H1  684   1.972   4.049   2.581  1.5359  0.4317 -1.7403
  226TIP3    H2  685   2.081   3.945   2.594  1.6925  0.8425  0.7040
  227TIP3   OH2  686   6.286   4.851   3.733  0.3277  0.3599  0.0616
  227TIP3    H1  687   6.329   4.936   3.744  2.4326 -0.7645  1.4282
  227TIP3    H2  688   6.358   4.791   3.710 -1.0435 -1.0971 -0.5871
  228TIP3   OH2  689   4.053   4.770   3.425  0.4512  0.1006  0.0446
  228TIP3    H1  690   4.145   4.744   3.431  0.3785 -0.4704 -1.1259
  228TIP3    H2  691   4.023   4.737   3.340 -0.5543  1.1883 -0.0573
  229TIP3   OH2  692   5.806   0.951   0.230  0.0334 -0.2063  0.1764
  229TIP3    H1  693   5.865   0.936   0.155 -1.3638 -2.1685 -0.6230
  229TIP3    H2  694   5.782   1.043   0.223  2.0506  0.3421 -0.1667
  230TIP3   OH2  695   6.242   0.021   0.714 -0.0205  0.0832  0.3606
  230TIP3    H1  696   6.289  -0.059   0.693 -0.4739 -0.2496  0.5950
  230TIP3    H2  697   6.273   0.044   0.802  0.7534  0.6475 -0.0479
  231TIP3   OH2  698   0.298   3.761   0.428 -0.6757  0.0668 -0.3759
  231TIP3    H1  699   0.324   3.672   0.454 -1.3742  0.5680  2.4048
  231TIP3    H2  700   0.204   3.764   0.443 -0.2473  2.1636  3.0385
  232TIP3   OH2  701   0.287   1.488   1.934 -0.1593  0.6653 -1.0807
  232TIP3    H1  702   0.195   1.506   1.916  0.0544  0.6170 -2.2782
  232TIP3    H2  703   0.312   1.553   2.000 -1.6634 -0.8529  1.0978
  233TIP3   OH2  704   2.972   4.190   1.428 -0.4429 -0.4259  0.0784
  233TIP3    H1  705   3.049   4.224   1.473 -0.0085  0.0622 -1.0026
  233TIP3    H2  706   2.923   4.267   1.401 -1.8056 -0.7249  1.4961
  234TIP3   OH2  707   4.545   3.318   0.849  0.0328 -0.1289  0.3655
  234TIP3    H1  708   4.461   3.276   0.865  0.4182 -0.8586  0.5160
  234TIP3    H2  709   4.538   3.403   0.893 -0.2625 -0.6013  1.2670
  235TIP3   OH2  710   3.927   3.239   0.598  0.2977 -0.3115 -0.4560
  235TIP3    H1  711   3.973   3.175   0.543  0.6958 -0.0332 -0.4527
  235TIP3    H2  712   3.997   3.295   0.632  0.0770 -0.6245  0.5286
  236TIP3   OH2  713   4.233   4.450   0.042 -0.1531  0.0348  0.0797
  236TIP3    H1  714   4.226   4.440  -0.053 -0.4104  0.2020  0.0799
  236TIP3    H2  715   4.237   4.360   0.075 -0.1534 -0.0249 -0.0834
  237TIP3   OH2  716   5.624   1.040   1.762 -0.0276 -0.0281  0.2759
  237TIP3    H1  717   5.672   0.958   1.772  0.1754 -0.0057 -0.4435
  237TIP3    H2  718   5.553   1.018   1.702  0.7095  0.5830 -0.8596
  238TIP3   OH2  719   0.369   1.398   4.852 -0.1752 -0.3276 -0.6290
  238TIP3    H1  720   0.429   1.469   4.876 -0.1083 -0.1585 -1.2628
  238TIP3    H2  721   0.282   1.431   4.874  0.0856 -1.7030  3.0939
  239TIP3   OH2  722   5.629   2.736   2.235  0.3020  0.2510 -0.6038
  239TIP3    H1  723   5.682   2.802   2.189 -0.1904  0.1811 -1.2996
  239TIP3    H2  724   5.543   2.777   2.244  0.7507  0.8346  1.5783
  240TIP3   OH2  725   1.191   5.435   1.045 -0.0283 -0.7380 -0.1389
  240TIP3    H1  726   1.188   5.432   1.140  0.0292  0.0655 -0.1029
  240TIP3    H2  727   1.104   5.407   1.017  0.2147 -1.7720  0.1183
  241TIP3   OH2  728   1.638   4.551   3.489  0.3988  0.1997  0.0637
  241TIP3    H1  729   1.591   4.631   3.467  1.4531  0.8530  0.1050
  241TIP3    H2  730   1.677   4.568   3.574  0.1631 -0.5801  0.3374
  242TIP3   OH2  731   3.968   1.636   2.247 -0.6523 -0.1279  0.6010
  242TIP3    H1  732   3.928   1.720   2.222 -1.5463 -0.8336 -0.4225
  242TIP3    H2  733   4.035   1.660   2.311  0.9674  1.6871 -1.6086
  243TIP3   OH2  734   2.060   4.321   4.368  0.8127 -0.1693  0.1761
  243TIP3    H1  735   2.096   4.238   4.335  2.5557 -0.1566  1.8514
  243TIP3    H2  736   1.978   4.296   4.411  1.9081 -1.2925  1.7349
  244TIP3   OH2  737   4.255   5.554   4.419  0.1378  0.1784 -0.3000
  244TIP3    H1  738   4.225   5.597   4.339  2.5105 -1.1115 -1.9984
  244TIP3    H2  739   4.338   5.596   4.440  0.0389 -0.1977  0.9397
  245TIP3   OH2  740   6.201   3.417   0.793  0.2807  0.0745 -0.0900
  245TIP3    H1  741   6.121   3.429   0.740  0.3792  1.5443  0.0332
  245TIP3    H2  742   6.202   3.324   0.814 -1.6692  0.0925  0.3106
  246TIP3   OH2  743   3.368   0.706   1.532 -0.7786 -0.0726 -0.0725
  246TIP3    H1  744   3.373   0.665   1.618 -1.0283 -1.2550 -0.6063
  246TIP3    H2  745   3.453   0.750   1.521 -0.0428 -1.4258  0.0470
  247TIP3   OH2  746   5.790   0.100   3.797 -0.1911  0.5354  0.3308
  247TIP3    H1  747   5.713   0.049   3.824  0.2608 -0.7379 -0.7184
  247TIP3    H2  748   5.804   0.077   3.706  0.5671  1.9003  0.0731
  248TIP3   OH2  749   2.912   3.868   1.355  0.3888 -0.2698 -0.1863
  248TIP3    H1  750   2.817   3.874   1.356  0.3338 -1.0774  0.1003
  248TIP3    H2  751   2.937   3.849   1.445  1.0847  3.0287  0.4621
  249TIP3   OH2  752   2.887   0.077   4.867  0.6690  0.4097 -0.1220
  249TIP3    H1  753   2.897  -0.010   4.906 -3.0138 -0.2035 -0.1730
  249TIP3    H2  754   2.889   0.061   4.773 -0.4784  0.2660 -0.1330
  250TIP3   OH2  755   2.339   3.019   1.216 -0.8053 -0.7023  0.0636
  250TIP3    H1  756   2.313   2.988   1.129 -0.8682  0.1075 -0.2158
  250TIP3    H2  757   2.342   2.940   1.270  0.9720 -1.4774 -1.0912
  251TIP3   OH2  758   3.765   2.473   3.220  0.3631  0.0480 -1.0260
  251TIP3    H1  759   3.779   2.484   3.314  0.9311  1.6317 -1.2497
  251TIP3    H2  760   3.852   2.453   3.185  0.1149 -0.7592 -1.2032
  252TIP3   OH2  761   3.212   1.552   0.694  0.1553  0.1621 -0.2575
  252TIP3    H1  762   3.121   1.577   0.678 -0.1154 -0.5162  0.2053
  252TIP3    H2  763   3.221   1.465   0.657  0.1642 -0.4440  1.0934
  253TIP3   OH2  764   2.966   0.550   1.537  0.0479  0.2515  0.1584
  253TIP3    H1  765   2.879   0.522   1.565 -0.2194  0.4844 -0.4233
  253TIP3    H2  766   2.967   0.645   1.552  0.4865  0.1308  0.9090
  254TIP3   OH2  767   2.180   1.176   4.400  0.2320 -0.0626 -0.8685
  254TIP3    H1  768   2.171   1.258   4.351  0.9172 -0.3781 -1.5419
  254TIP3    H2  769   2.142   1.110   4.342 -0.1778 -0.2523 -0.3907
  255TIP3   OH2  770   1.654   1.803   2.937 -0.0070  0.2227 -0.3324
  255TIP3    H1  771   1.700   1.796   3.021 -1.1648  0.4245  0.3393
  255TIP3    H2  772   1.594   1.728   2.936 -0.6477  0.7302 -0.5581
  256TIP3   OH2  773   4.350   3.656   0.114 -0.1350 -1.1204 -0.0640
  256TIP3    H1  774   4.261   3.684   0.092 -1.1255 -3.3807  0.7792
  256TIP3    H2  775   4.365   3.579   0.058  1.1348 -1.0294  0.1239
  257TIP3   OH2  776   3.608   5.596   1.117 -0.4587  0.3047  0.2110
  257TIP3    H1  777   3.561   5.676   1.091  0.1555  0.7468  0.4325
  257TIP3    H2  778   3.557   5.525   1.079 -2.0889  0.6705  1.5962
  258TIP3   OH2  779   4.270   2.121   2.571 -0.2590 -0.5259 -0.2888
  258TIP3    H1  780   4.339   2.151   2.631  0.2984 -0.2871 -1.0397
  258TIP3    H2  781   4.229   2.048   2.617 -0.3336  0.1268  0.7110
  259TIP3   OH2  782   3.061   3.409   2.877  0.3059 -0.0506  0.2435
  259TIP3    H1  783   3.092   3.321   2.853  0.6141  0.1021  0.0587
  259TIP3    H2  784   3.053   3.407   2.972  1.2157 -0.0043  0.3371
  260TIP3   OH2  785   1.677   3.401   1.932  0.5556 -0.1769 -0.0094
  260TIP3    H1  786   1.651   3.487   1.965  1.4183 -0.5741  1.8451
  260TIP3    H2  787   1.674   3.410   1.837  1.3995  2.1469  0.1226
  261TIP3   OH2  788   6.005   3.423   0.229 -0.2511 -0.2222  0.4124
  261TIP3    H1  789   5.957   3.473   0.163 -0.1545  0.1663  0.6323
  261TIP3    H2  790   6.085   3.474   0.244 -0.1506 -0.4442  0.6351
  262TIP3   OH2  791   5.540   0.080   2.575 -0.1656 -0.2424 -0.2897
  262TIP3    H1  792   5.580   0.018   2.514 -1.7205  0.3017 -1.9420
  262TIP3    H2  793   5.482   0.026   2.629 -0.4977 -0.4191 -0.8210
  263TIP3   OH2  794   5.586   1.707   1.140  0.2918 -0.0549  0.4322
  263TIP3    H1  795   5.601   1.612   1.145 -0.6684 -0.3971 -1.8389
  263TIP3    H2  796   5.492   1.717   1.156  0.5080  0.6390  1.3968
  264TIP3   OH2  797   5.842   3.086   4.744  0.1187  0.6802  0.6162
  264TIP3    H1  798   5.851   2.992   4.736  1.7454  0.7484  1.3048
  264TIP3    H2  799   5.748   3.100   4.755 -0.3346 -0.7047 -1.0217
  265TIP3   OH2  800   4.853   2.496   1.863  0.0278 -0.0967  0.2917
  265TIP3    H1  801   4.828   2.467   1.951  0.3048 -0.7943  0.1524
  265TIP3    H2  802   4.939   2.456   1.848 -0.5772 -1.0841 -0.7881
  266TIP3   OH2  803   5.258   0.494   4.902  0.2718  0.0004  0.1013
  266TIP3    H1  804   5.199   0.475   4.976 -0.1425 -0.3124 -0.3009
  266TIP3    H2  805   5.292   0.408   4.877  2.1691  0.3163  1.3400
  267TIP3   OH2  806   5.682   1.626   2.700 -0.2493  0.0619 -0.3305
  267TIP3    H1  807   5.618   1.661   2.638 -0.5432 -1.0237 -0.6573
  267TIP3    H2  808   5.743   1.575   2.645 -0.2948 -0.5975  0.2166
  268TIP3   OH2  809   3.302   0.082   0.226 -0.4393  0.3009 -0.2841
  268TIP3    H1  810   3.299   0.097   0.321 -5.2574 -0.2201 -0.0932
  268TIP3    H2  811   3.291  -0.013   0.216 -0.2684  0.3826 -1.3649
  269TIP3   OH2  812   5.271   4.071   0.130 -0.1922  0.7988  0.0550
  269TIP3    H1  813   5.236   4.056   0.042 -0.1970  3.0394 -0.3806
  269TIP3    H2  814   5.197   4.057   0.189  0.2784 -2.7613 -0.0078
  270TIP3   OH2  815   0.648   5.636   3.273 -0.7877 -0.2433  0.1778
  270TIP3    H1  816   0.577   5.573   3.265 -0.7908 -0.2567  0.3005
  270TIP3    H2  817   0.616   5.714   3.229 -1.2022  0.0197  0.9331
  271TIP3   OH2  818   2.960   2.077   1.183 -0.2398 -1.0864 -0.5014
  271TIP3    H1  819   2.991   2.160   1.217  0.4442 -1.4545 -0.2144
  271TIP3    H2  820   2.947   2.092   1.089  0.9161 -0.9505 -0.6538
  272TIP3   OH2  821   0.845   5.096   3.172 -0.0178  0.0124 -0.8059
  272TIP3    H1  822   0.863   5.153   3.096 -0.5962  0.5773 -0.5271
  272TIP3    H2  823   0.767   5.134   3.212  1.0415  0.5269  0.8600
  273TIP3   OH2  824   3.934   1.712   3.095  0.6647 -0.1272 -0.5130
  273TIP3    H1  825   3.859   1.691   3.152  1.1292 -0.4371 -0.0132
  273TIP3    H2  826   3.964   1.627   3.062 -0.3944  0.1151 -2.2791
  274TIP3   OH2  827   3.970   0.012   4.124  0.4002 -0.5328  0.2450
  274TIP3    H1  828   3.910   0.073   4.166 -0.3430 -1.7321  1.0050
  274TIP3    H2  829   3.970   0.038   4.031  0.5749  0.9593  0.6411
  275TIP3   OH2  830   0.416   4.377   0.631  0.4283  0.0615 -0.0218
  275TIP3    H1  831   0.403   4.470   0.613 -1.6277 -0.3231 -0.7670
  275TIP3    H2  832   0.490   4.352   0.576 -0.2841  0.8378 -1.3880
  276TIP3   OH2  833   2.408   2.474   0.539 -0.1707 -0.4153 -0.4361
  276TIP3    H1  834   2.337   2.519   0.494 -1.6442 -0.6903  1.5013
  276TIP3    H2  835   2.373   2.388   0.560  0.4239 -0.2907  1.2273
  277TIP3   OH2  836   1.492   2.386   1.168 -0.3771  0.9240 -0.2033
  277TIP3    H1  837   1.528   2.460   1.216  1.5120 -0.4489  0.6408
  277TIP3    H2  838   1.498   2.312   1.229  1.0468 -0.6402 -2.0930
  278TIP3   OH2  839   4.524   3.535   4.838  0.1621 -0.3507  0.2826
  278TIP3    H1  840   4.518   3.537   4.743  0.4052  0.3462  0.2773
  278TIP3    H2  841   4.595   3.596   4.859  0.6335 -1.0795  0.8696
  279TIP3   OH2  842   2.747   3.384   3.665 -0.5507 -0.5295  0.3594
  279TIP3    H1  843   2.776   3.370   3.575 -1.0196  1.4463 -0.1358
  279TIP3    H2  844   2.826   3.369   3.718  0.5985  1.4024 -0.6741
  280TIP3   OH2  845   5.891   2.930   3.053  0.5218  0.2456 -0.4826
  280TIP3    H1  846   5.949   2.878   3.108  0.0810 -1.6174 -1.6653
  280TIP3    H2  847   5.925   2.917   2.964 -2.5280 -2.2919 -1.4485
  281TIP3   OH2  848   5.701   4.710   0.849  0.8542 -0.1450 -0.2336
  281TIP3    H1  849   5.789   4.680   0.829  1.4846  2.7054 -2.3809
  281TIP3    H2  850   5.656   4.709   0.765 -1.6333 -2.5340  0.9551
  282TIP3   OH2  851   3.753   2.293   3.799 -0.3884  0.0067 -0.3886
  282TIP3    H1  852   3.764   2.231   3.871 -0.4952 -0.2480 -0.5879
  282TIP3    H2  853   3.839   2.334   3.789 -0.6245  0.7560  0.5213
  283TIP3   OH2  854   5.959   2.856   2.732 -0.3800 -0.1744  0.0982
  283TIP3    H1  855   6.021   2.783   2.732  0.2521  0.3494 -0.6216
  283TIP3    H2  856   5.877   2.818   2.703  0.2553 -0.3677 -1.5536
  284TIP3   OH2  857   0.877   0.583   3.229 -0.4582  0.1374 -0.0666
  284TIP3    H1  858   0.962   0.606   3.267 -0.4354  0.5383 -0.3534
  284TIP3    H2  859   0.870   0.638   3.151 -1.0992  0.3033  0.1034
  285TIP3   OH2  860   4.607   2.969   0.731  0.5861  0.1877  0.2685
  285TIP3    H1  861   4.641   3.025   0.661  0.4692 -0.5286 -0.3737
  285TIP3    H2  862   4.527   2.931   0.694  1.1103 -1.0492  0.3860
  286TIP3   OH2  863   3.340   2.268   3.007 -0.1501  0.4703  0.3736
  286TIP3    H1  864   3.353   2.342   3.066  3.2679 -0.3227  0.8426
  286TIP3    H2  865   3.402   2.282   2.936  1.8795 -2.6002  1.3043
  287TIP3   OH2  866   3.136   0.521   3.855  0.3817 -0.3839 -0.0965
  287TIP3    H1  867   3.149   0.452   3.920 -0.9371 -0.5842 -0.0313
  287TIP3    H2  868   3.105   0.596   3.905 -1.0926 -0.6800 -0.5210
  288TIP3   OH2  869   3.445   3.326   4.909  0.2039  0.2289  0.7609
  288TIP3    H1  870   3.529   3.372   4.910 -0.2722  1.1370  0.5576
  288TIP3    H2  871   3.379   3.396   4.908 -0.5371 -0.4460 -0.7652
  289TIP3   OH2  872   0.114   0.285   3.858  0.4899 -0.5276 -0.4407
  289TIP3    H1  873   0.048   0.254   3.921  1.4347 -1.0236  0.3480
  289TIP3    H2  874   0.127   0.212   3.798 -1.7673  0.5929 -2.4314
  290TIP3   OH2  875   1.726   4.276   4.176  0.0640 -0.0300  0.3233
  290TIP3    H1  876   1.631   4.287   4.177  0.2030  1.5634 -0.9140
  290TIP3    H2  877   1.756   4.313   4.259 -0.2815  0.7836  0.0891
  291TIP3   OH2  878   1.361   5.275   4.433 -0.4809  0.3592 -0.1721
  291TIP3    H1  879   1.282   5.257   4.485 -0.6091  0.4504 -0.3356
  291TIP3    H2  880   1.345   5.360   4.394 -0.0564  0.6424  0.2534
  292TIP3   OH2  881   4.026   5.892   2.715 -0.3252  0.3439  0.1960
  292TIP3    H1  882   4.087   5.897   2.788 -0.4388  0.7330  0.2670
  292TIP3    H2  883   4.059   5.821   2.660  1.0823  1.5563 -0.5774
  293TIP3   OH2  884   5.997   1.484   0.852  0.3112  0.7049 -0.0632
  293TIP3    H1  885   5.951   1.553   0.900 -0.1073  0.3387  0.0650
  293TIP3    H2  886   6.052   1.442   0.918  0.6628  0.9999 -0.1691
  294TIP3   OH2  887   4.007   3.833   2.870  0.0783  0.0434 -0.6513
  294TIP3    H1  888   3.989   3.741   2.889  0.0626  0.5647  2.3838
  294TIP3    H2  889   3.957   3.851   2.791 -2.3954 -1.8439  0.3257
  295TIP3   OH2  890   1.652   0.945   2.703 -0.2323 -0.1599 -0.9307
  295TIP3    H1  891   1.668   0.851   2.698  0.1764 -0.2105  0.6406
  295TIP3    H2  892   1.638   0.973   2.613  0.2412 -1.6226 -1.4714
  296TIP3   OH2  893   1.863   4.818   2.433 -0.2479 -0.1759 -0.4179
  296TIP3    H1  894   1.929   4.765   2.478 -0.2941 -0.2317 -0.4143
  296TIP3    H2  895   1.882   4.908   2.458 -0.6538 -0.2586  0.2120
  297TIP3   OH2  896   3.124   0.057   3.407 -0.0491 -0.1160  0.3270
  297TIP3    H1  897   3.051   0.119   3.409 -0.5320 -0.6824  1.6333
  297TIP3    H2  898   3.202   0.112   3.402 -0.5523  0.4860 -1.7110
  298TIP3   OH2  899   3.551   4.822   2.775  0.0603  0.6057  0.2680
  298TIP3    H1  900   3.534   4.790   2.864  2.0991 -0.3002  0.3851
  298TIP3    H2  901   3.521   4.751   2.719 -0.1610  0.6829  0.2888
  299TIP3   OH2  902   0.744   1.942   3.564  0.1375  0.2389 -0.7174
  299TIP3    H1  903   0.712   2.007   3.626  0.3203  0.0593 -0.4304
  299TIP3    H2  904   0.708   1.859   3.596 -0.3212  0.2289 -1.2361
  300TIP3   OH2  905   3.375   3.425   3.480 -0.3406 -0.0445 -0.4156
  300TIP3    H1  906   3.297   3.475   3.503 -0.0702  0.1260  0.1666
  300TIP3    H2  907   3.404   3.388   3.564 -0.6015 -1.2725 -0.8526
  301TIP3   OH2  908   5.647   0.964   1.198 -0.3617  0.2106 -0.8407
  301TIP3    H1  909   5.615   0.994   1.113 -0.1449  2.3343 -0.2157
  301TIP3    H2  910   5.742   0.971   1.192 -0.3135 -0.2057 -0.6172
  302TIP3   OH2  911   1.859   4.534   5.103 -0.1502  0.6652 -0.5383
  302TIP3    H1  912   1.877   4.440   5.092 -0.0965  0.6848 -0.6162
  302TIP3    H2  913   1.877   4.551   5.195 -1.6778  0.2590 -0.1304
  303TIP3   OH2  914   0.935   3.766   1.740 -0.1133 -0.4001  0.0517
  303TIP3    H1  915   0.906   3.796   1.654  0.3838  0.0535  0.0341
  303TIP3    H2  916   0.905   3.676   1.746  0.1196 -0.5342 -0.7314
  304TIP3   OH2  917   1.399   0.575   0.053  0.0644  0.3099  0.1504
  304TIP3    H1  918   1.340   0.540   0.119 -0.0775 -1.2342 -0.7466
  304TIP3    H2  919   1.345   0.584  -0.026  0.3859  1.4928  0.0461
  305TIP3   OH2  920   5.610   0.119   0.859 -0.3562  0.1967 -0.6117
  305TIP3    H1  921   5.568   0.036   0.880 -0.6646  0.1249 -1.4823
  305TIP3    H2  922   5.640   0.153   0.944  1.3340 -1.6204 -0.4084
  306TIP3   OH2  923   2.782   3.515   0.766  0.0589 -0.6145  0.0135
  306TIP3    H1  924   2.850   3.452   0.791 -0.1482 -0.4940  0.8923
  306TIP3    H2  925   2.830   3.584   0.720  0.2211 -1.6552 -1.4573
  307TIP3   OH2  926   4.087   4.976   0.016  0.3315 -0.4512 -0.0884
  307TIP3    H1  927   4.062   5.024   0.095 -0.4963  0.9294 -1.1400
  307TIP3    H2  928   4.018   4.995  -0.047  1.8255 -0.0381 -1.7109
  308TIP3   OH2  929   3.980   3.198   0.907 -0.5153 -0.4081  0.1105
  308TIP3    H1  930   4.024   3.180   0.990  0.8693  1.0844 -0.2358
  308TIP3    H2  931   3.991   3.119   0.856  0.5549 -0.5812  0.5721
  309TIP3   OH2  932   2.886   2.443   3.049 -0.0243 -0.8329 -0.0460
  309TIP3    H1  933   2.943   2.371   3.021  0.7701 -0.0333 -0.5221
  309TIP3    H2  934   2.804   2.400   3.075  0.6846 -1.9728  0.3620
  310TIP3   OH2  935   1.820   1.720   0.524 -0.1641  0.2922  0.0872
  310TIP3    H1  936   1.740   1.715   0.576 -0.6663  1.0327 -0.5869
  310TIP3    H2  937   1.853   1.809   0.538  0.1156  0.2455 -0.2456
  311TIP3   OH2  938   4.214   0.776   1.457 -0.3231  0.8506  0.1956
  311TIP3    H1  939   4.265   0.809   1.531  0.5097 -0.2080  0.1117
  311TIP3    H2  940   4.126   0.764   1.493  0.2216 -0.3096  1.2407
  312TIP3   OH2  941   4.507   2.767   2.048  0.7706 -0.4186  0.2318
  312TIP3    H1  942   4.585   2.751   1.996  0.5415  1.1305 -0.6602
  312TIP3    H2  943   4.482   2.858   2.027  0.0243 -0.1141  2.1951
  313TIP3   OH2  944   3.963   0.107   0.786  0.5839  0.1343 -0.0883
  313TIP3    H1  945   4.010   0.174   0.737  0.9393  0.9550  1.3177
  313TIP3    H2  946   3.877   0.145   0.803  0.5469 -0.0379  0.1176
  314TIP3   OH2  947   0.581   1.460   0.379 -0.0992 -0.3429 -0.1471
  314TIP3    H1  948   0.544   1.546   0.401 -1.4319 -0.0510 -3.0198
  314TIP3    H2  949   0.506   1.401   0.381  0.1103 -0.6854 -1.6526
  315TIP3   OH2  950   1.575   0.720   1.876  0.3085 -0.1297 -0.5129
  315TIP3    H1  951   1.522   0.734   1.954  1.9362 -2.1882  1.1091
  315TIP3    H2  952   1.517   0.742   1.803 -1.4617  1.3545  1.2185
  316TIP3   OH2  953   0.262   5.307   4.135  0.7049 -0.2701 -0.5301
  316TIP3    H1  954   0.339   5.311   4.079  1.9768 -0.9351  1.0569
  316TIP3    H2  955   0.195   5.356   4.089  1.8164 -0.4027 -2.3755
  317TIP3   OH2  956   5.586   5.827   0.781  0.5651  0.3713  0.4049
  317TIP3    H1  957   5.547   5.911   0.756  0.2015  0.0668 -0.0776
  317TIP3    H2  958   5.511   5.767   0.788  0.4034  0.7589  3.8455
  318TIP3   OH2  959   1.324   0.338   4.000 -0.3324 -0.4811  0.1856
  318TIP3    H1  960   1.380   0.304   3.930 -0.1145  0.2882 -0.0249
  318TIP3    H2  961   1.385   0.355   4.073 -0.5434 -1.1843  0.5410
  319TIP3   OH2  962   4.063   3.429   0.768  0.2245 -0.1190 -0.6607
  319TIP3    H1  963   4.041   3.358   0.828  0.9039  0.8184  0.7543
  319TIP3    H2  964   4.134   3.476   0.812  1.0207  0.3844 -2.3958
  320TIP3   OH2  965   2.136   4.056   1.828  0.4174 -0.3001 -0.0073
  320TIP3    H1  966   2.109   4.102   1.908 -3.1001 -1.2564 -0.4741
  320TIP3    H2  967   2.172   4.125   1.772 -1.6923  1.3738  0.5514
  321TIP3   OH2  968   0.126   2.681   2.612  0.1599  0.0181 -0.7430
  321TIP3    H1  969   0.105   2.756   2.667  1.9816  0.2841 -0.3527
  321TIP3    H2  970   0.047   2.668   2.559 -0.4940  1.6959 -0.2642
  322TIP3   OH2  971   5.057   1.407   0.013  0.4827  0.3688  0.3758
  322TIP3    H1  972   5.014   1.445  -0.064  1.1566  0.2653 -0.0606
  322TIP3    H2  973   5.081   1.483   0.067 -2.8724  0.3793  2.1459
  323TIP3   OH2  974   1.590   3.794   0.291 -0.2253 -0.3185  0.2066
  323TIP3    H1  975   1.664   3.797   0.230  0.1680  1.5760  0.6897
  323TIP3    H2  976   1.630   3.779   0.376 -0.0317  2.9211  0.8165
  324TIP3   OH2  977   0.335   1.230   3.705  0.5724 -0.4777  0.0963
  324TIP3    H1  978   0.384   1.208   3.625 -1.7518 -0.8900 -1.2961
  324TIP3    H2  979   0.359   1.161   3.767  2.2867 -0.2431 -0.2535
  325TIP3   OH2  980   1.112   3.365   4.054  0.1919  0.3031  0.1369
  325TIP3    H1  981   1.170   3.440   4.069  0.2443  0.2373  0.2578
  325TIP3    H2  982   1.028   3.405   4.030  0.0732  0.4114  0.7158
  326TIP3   OH2  983   1.824   1.522   2.324  0.3694 -0.2578 -0.1951
  326TIP3    H1  984   1.841   1.583   2.395  2.4308 -0.7425 -0.2306
  326TIP3    H2  985   1.866   1.441   2.351  0.6022 -0.6555 -1.6681
  327TIP3   OH2  986   5.317   0.064   0.620  0.4212 -0.5272 -0.2760
  327TIP3    H1  987   5.355   0.150   0.606  2.1724 -1.1841  0.1252
  327TIP3    H2  988   5.286   0.036   0.534  0.0045  0.3980 -0.4394
  328TIP3   OH2  989   2.919   5.349   4.462 -0.1046 -0.1014  0.2648
  328TIP3    H1  990   3.014   5.343   4.473 -0.2640 -1.1484  1.2937
  328TIP3    H2  991   2.901   5.443   4.457  0.9910  0.1010 -0.0605
  329TIP3   OH2  992   2.307   5.370   3.238  0.3233 -0.0680 -0.0329
  329TIP3    H1  993   2.364   5.371   3.315  0.6291 -2.1063 -0.1889
  329TIP3    H2  994   2.221   5.396   3.272  0.5662 -0.4317  0.8854
  330TIP3   OH2  995   4.901   1.776   1.108  0.1795  0.3458  0.0249
  330TIP3    H1  996   4.972   1.764   1.172 -0.8050  1.1785  1.3105
  330TIP3    H2  997   4.849   1.696   1.115  0.0536  0.4495  0.3115
  331TIP3   OH2  998   2.050   2.186   4.572  0.3084  0.0188  0.4253
  331TIP3    H1  999   1.962   2.224   4.564  0.4190  0.0926 -0.5021
  331TIP3    H2 1000   2.043   2.127   4.647 -0.5673 -0.0651  0.2961
  332TIP3   OH2 1001   5.976   0.961   0.559  0.4669 -0.1088  0.4007
  332TIP3    H1 1002   5.896   0.929   0.601  0.4576 -0.0845  0.4013
  332TIP3    H2 1003   5.970   1.056   0.566 -0.2055 -0.0270 -0.8858
  333TIP3   OH2 1004   6.308   5.477   3.794 -0.0208  0.3005  0.1000
  333TIP3    H1 1005   6.229   5.460   3.844 -2.1830  1.0306 -2.8011
  333TIP3    H2 1006   6.325   5.397   3.745 -1.7489  1.4493 -2.6504
  334TIP3   OH2 1007   2.531   5.159   0.184 -0.5923  0.0051 -0.2972
  334TIP3    H1 1008   2.490   5.211   0.254 -2.5443 -1.0427 -0.5971
  334TIP3    H2 1009   2.614   5.204   0.167 -0.4921  0.8582  1.9931
  335TIP3   OH2 1010   5.706   4.363   1.378 -0.3575  0.3618 -0.7328
  335TIP3    H1 1011   5.752   4.310   1.312 -0.7538  1.1752 -1.6872
  335TIP3    H2 1012   5.772   4.377   1.447  0.3725  0.2839 -1.3969
  336TIP3   OH2 1013   1.954   2.796   1.224 -0.3739  0.2379 -0.7113
  336TIP3    H1 1014   1.861   2.779   1.238 -0.3859  1.8455  1.7903
  336TIP3    H2 1015   2.000   2.735   1.282 -0.0445  1.4975  0.4116
  337TIP3   OH2 1016   2.297   1.824   3.524 -0.9413  0.1938 -0.0455
  337TIP3    H1 1017   2.334   1.853   3.441 -2.0758 -0.3775 -0.7697
  337TIP3    H2 1018   2.232   1.759   3.500 -1.8714  0.6121  1.2409
  338TIP3   OH2 1019   0.390   4.582   4.615  0.5453  0.1648  0.4088
  338TIP3    H1 1020   0.358   4.522   4.683  1.2176 -2.0190 -1.0805
  338TIP3    H2 1021   0.484   4.566   4.611  0.3370 -0.9518 -2.0183
  339TIP3   OH2 1022   3.233   1.030   1.854  0.1292 -0.6926 -0.2843
  339TIP3    H1 1023   3.196   0.942   1.859 -0.8506 -0.3171 -0.7081
  339TIP3    H2 1024   3.220   1.057   1.763  1.7428 -0.6545 -0.5271
  340TIP3   OH2 1025   2.101   4.749   2.519  0.0189 -0.4461 -0.0409
  340TIP3    H1 1026   2.194   4.773   2.525 -0.1466  0.1949  0.0857
  340TIP3    H2 1027   2.069   4.757   2.609 -0.6846  1.6300 -0.4261
  341TIP3   OH2 1028   5.031   5.845   5.025 -0.0436 -0.0557  0.1885
  341TIP3    H1 1029   5.096   5.775   5.032 -0.7560 -0.7071  0.5079
  341TIP3    H2 1030   5.082   5.926   5.025  0.7264 -0.5255  1.0973
  342TIP3   OH2 1031   2.502   1.021   4.745  0.4246  0.2190 -0.1249
  342TIP3    H1 1032   2.586   1.058   4.773  0.0646  0.1961  1.0255
  342TIP3    H2 1033   2.444   1.034   4.820 -0.8245  0.9207 -1.1813
  343TIP3   OH2 1034   5.129   2.124   1.317 -1.4364  0.1363 -0.2469
  343TIP3    H1 1035   5.106   2.109   1.225  2.0691 -0.6275 -1.1516
  343TIP3    H2 1036   5.089   2.051   1.364 -0.8629 -1.1371 -1.6583
  344TIP3   OH2 1037   1.867   2.691   0.319  0.1683 -0.5604  0.3451
  344TIP3    H1 1038   1.883   2.628   0.248 -1.4263 -0.1778 -0.4089
  344TIP3    H2 1039   1.776   2.676   0.344 -0.3223  1.5724  0.0065
  345TIP3   OH2 1040   5.492   3.963   4.963  0.2180 -0.2324 -0.1111
  345TIP3    H1 1041   5.508   3.962   5.057  2.5804 -0.6528 -0.4548
  345TIP3    H2 1042   5.549   3.895   4.928  1.9966  2.0983 -2.1662
  346TIP3   OH2 1043   3.152   1.482   1.984 -0.0215  0.4653 -0.1029
  346TIP3    H1 1044   3.230   1.495   2.038 -0.6212  2.5748  0.3203
  346TIP3    H2 1045   3.186   1.482   1.894  0.6664 -0.6217  0.1238
  347TIP3   OH2 1046   1.002   3.854   0.302 -0.2663 -0.2878 -0.1633
  347TIP3    H1 1047   1.004   3.781   0.363 -0.3038  0.3847  0.6683
  347TIP3    H2 1048   0.923   3.902   0.325 -0.3717 -0.1278 -0.8640
  348TIP3   OH2 1049   0.066   1.116   0.815  0.0066 -0.1058  0.2740
  348TIP3    H1 1050   0.060   1.021   0.825 -1.8531 -0.3166 -1.9827
  348TIP3    H2 1051   0.089   1.148   0.902  0.4271 -2.5921  1.1521
  349TIP3   OH2 1052   4.344   3.033   0.314 -0.4190  0.4508 -0.3351
  349TIP3    H1 1053   4.387   2.948   0.327 -2.3048 -0.4568  0.2649
  349TIP3    H2 1054   4.416   3.096   0.311  0.9045 -0.5819  3.6543
  350TIP3   OH2 1055   3.193   0.359   0.265  0.0213  0.1402 -0.3163
  350TIP3    H1 1056   3.098   0.354   0.270 -0.1346  1.9955  5.0999
  350TIP3    H2 1057   3.221   0.270   0.245 -2.8598 -1.4238  1.9192
  351TIP3   OH2 1058   5.644   3.550   3.761  0.1372  0.5876 -0.4959
  351TIP3    H1 1059   5.706   3.622   3.770  1.5981 -0.8103  1.6331
  351TIP3    H2 1060   5.699   3.473   3.744 -1.2479 -0.2713 -1.2777
  352TIP3   OH2 1061   1.561   0.825   0.832 -0.1721 -0.1551  0.0281
  352TIP3    H1 1062   1.552   0.743   0.783 -1.7344 -0.1288  0.2227
  352TIP3    H2 1063   1.492   0.821   0.898 -0.5140  1.4826 -0.1889
  353TIP3   OH2 1064   5.139   5.421   4.893 -0.0392  0.0288 -0.0541
  353TIP3    H1 1065   5.143   5.434   4.799 -1.6332  0.2095 -0.1221
  353TIP3    H2 1066   5.145   5.326   4.904  1.5041  0.0724 -0.2098
  354TIP3   OH2 1067   3.998   0.911   3.086  0.5269 -0.7669 -0.1420
  354TIP3    H1 1068   4.064   0.867   3.032  1.9878 -0.8174  1.5905
  354TIP3    H2 1069   4.047   0.977   3.135 -1.1402  0.8151 -0.5191
  355TIP3   OH2 1070   4.360   5.285   1.817 -0.0910 -0.4143 -0.2019
  355TIP3    H1 1071   4.347   5.366   1.768  1.7661  0.0070 -0.1048
  355TIP3    H2 1072   4.281   5.275   1.869 -0.5474  1.1031 -0.5516
  356TIP3   OH2 1073   4.311   3.546   1.403  0.3704 -0.2166 -0.0754
  356TIP3    H1 1074   4.398   3.508   1.418  0.2239  0.0877  1.6576
  356TIP3    H2 1075   4.283   3.578   1.488 -0.7135  1.2839 -0.9467
  357TIP3   OH2 1076   4.800   5.362   3.806  0.1625 -0.9115  0.8580
  357TIP3    H1 1077   4.826   5.355   3.714  0.1667  0.2355  0.7558
  357TIP3    H2 1078   4.823   5.277   3.843  0.8092 -1.1540 -0.0428
  358TIP3   OH2 1079   2.200   2.528   2.474 -0.0679 -0.1264 -0.2576
  358TIP3    H1 1080   2.207   2.457   2.411 -3.3582 -0.8819  0.0701
  358TIP3    H2 1081   2.217   2.607   2.422  2.3908 -0.9648 -0.8849
  359TIP3   OH2 1082   0.002   3.002   3.399  0.3031  0.2480  0.4237
  359TIP3    H1 1083   0.053   2.922   3.390 -1.3981 -1.0210  1.5630
  359TIP3    H2 1084  -0.052   2.989   3.477  0.5001  2.8256  1.1056
  360TIP3   OH2 1085   2.528   2.223   1.704 -0.0295  0.0755 -0.0560
  360TIP3    H1 1086   2.445   2.263   1.730 -1.0034 -1.2961 -0.9342
  360TIP3    H2 1087   2.594   2.287   1.731 -1.1211 -0.0008  3.2533
  361TIP3   OH2 1088   0.317   0.608   2.596  0.0110  0.1292 -0.6300
  361TIP3    H1 1089   0.244   0.628   2.655  1.1601 -1.3145  1.4060
  361TIP3    H2 1090   0.300   0.661   2.518 -1.1601  2.8161  1.2853
  362TIP3   OH2 1091   3.510   4.219   2.963  0.3490  0.0097 -0.1578
  362TIP3    H1 1092   3.532   4.130   2.935 -0.8762 -0.1427 -0.6792
  362TIP3    H2 1093   3.458   4.207   3.042 -1.3943  0.1496 -1.2432
  363TIP3   OH2 1094   0.474   1.905   3.767  0.1264  0.2980  0.4741
  363TIP3    H1 1095   0.539   1.965   3.804 -0.6863  0.9693  0.8676
  363TIP3    H2 1096   0.524   1.828   3.740  0.8927  0.1456  2.1654
  364TIP3   OH2 1097   3.992   2.303   3.962 -0.6773  0.3295 -0.0191
  364TIP3    H1 1098   4.009   2.232   4.024 -1.2781  0.9351  0.8514
  364TIP3    H2 1099   4.077   2.344   3.948 -0.1932 -0.9662 -1.0576
  365TIP3   OH2 1100   3.794   2.065   1.956  0.3242 -0.9147 -0.9232
  365TIP3    H1 1101   3.733   2.052   1.883 -0.8324  0.2896 -0.2093
  365TIP3    H2 1102   3.880   2.075   1.914  0.0696 -2.6080 -1.9508
  366TIP3   OH2 1103   0.852   2.459   2.865 -0.1370  0.0819 -0.6631
  366TIP3    H1 1104   0.899   2.470   2.948 -1.0318  0.1656 -0.1518
  366TIP3    H2 1105   0.771   2.508   2.877 -0.6256 -0.5518 -1.2940
  367TIP3   OH2 1106   3.087   1.357   2.954 -0.0829  0.1117  0.4867
  367TIP3    H1 1107   3.141   1.282   2.929 -0.3818  0.1416 -0.2792
  367TIP3    H2 1108   3.104   1.422   2.886  0.8301  1.0776  1.6029
  368TIP3   OH2 1109   2.120   2.669   1.399 -0.4970  0.0291 -0.2758
  368TIP3    H1 1110   2.190   2.726   1.370 -1.2740  0.5740 -1.1149
  368TIP3    H2 1111   2.081   2.715   1.474 -0.4958  0.1350 -0.3401
  369TIP3   OH2 1112   2.255   1.019   3.446  0.7118  0.1213 -0.0638
  369TIP3    H1 1113   2.200   1.029   3.524 -0.5409  0.1367 -0.9014
  369TIP3    H2 1114   2.335   1.067   3.466 -0.4569  1.9954  0.4207
  370TIP3   OH2 1115   1.442   4.447   0.922  0.1260  0.4408  0.1552
  370TIP3    H1 1116   1.478   4.476   1.006 -0.0308  0.5168  0.1963
  370TIP3    H2 1117   1.443   4.351   0.927 -0.7100  0.4534  0.5944
  371TIP3   OH2 1118   0.732   1.118   4.168 -0.1359  0.2305  0.1644
  371TIP3    H1 1119   0.722   1.182   4.238  3.8213 -0.3257  1.4655
  371TIP3    H2 1120   0.700   1.163   4.090  0.6231  3.0711  1.3613
  372TIP3   OH2 1121   5.052   1.249   2.739 -0.2473 -0.1493 -0.0532
  372TIP3    H1 1122   5.147   1.256   2.726 -0.1995  0.4780  0.5735
  372TIP3    H2 1123   5.040   1.263   2.833 -0.7587 -2.3980  0.2734
  373TIP3   OH2 1124   2.476   1.938   1.033  0.2670  0.0819 -0.0139
  373TIP3    H1 1125   2.437   2.023   1.011  0.5439  0.1829 -0.1120
  373TIP3    H2 1126   2.565   1.943   1.000 -0.3364 -1.0534 -1.9725
  374TIP3   OH2 1127   1.384   4.562   0.686  0.5240 -0.2630 -0.0994
  374TIP3    H1 1128   1.400   4.508   0.763 -0.4148 -0.7444 -0.2203
  374TIP3    H2 1129   1.381   4.500   0.613 -0.4984 -0.0533 -0.2516
  375TIP3   OH2 1130   0.906   5.080   1.002  0.3751 -0.4596  0.6587
  375TIP3    H1 1131   0.921   5.014   1.069  1.2518 -0.1921  0.7393
  375TIP3    H2 1132   0.970   5.059   0.933 -1.6662 -1.8385 -0.9684
  376TIP3   OH2 1133   0.376   0.822   0.776 -0.5205  0.3189  0.1271
  376TIP3    H1 1134   0.428   0.764   0.831 -1.3027 -2.0323 -1.4596
  376TIP3    H2 1135   0.294   0.774   0.762 -0.9442  1.5158 -1.7880
  377TIP3   OH2 1136   1.676   5.356   0.567 -0.2910 -0.9360 -0.2348
  377TIP3    H1 1137   1.684   5.408   0.646  0.7025  1.3563 -1.7318
  377TIP3    H2 1138   1.750   5.383   0.512 -2.0846 -0.8257 -2.7998
  378TIP3   OH2 1139   5.809   3.012   1.210 -0.1697 -0.5630  0.0005
  378TIP3    H1 1140   5.879   2.967   1.257  1.7075  0.8162 -1.3682
  378TIP3    H2 1141   5.786   3.086   1.267 -0.6568 -1.1006  0.5197
  379TIP3   OH2 1142   5.025   2.855   0.750 -0.3925  0.1446 -0.1649
  379TIP3    H1 1143   5.057   2.905   0.675  1.6530 -0.8534 -0.0078
  379TIP3    H2 1144   5.023   2.917   0.822 -0.0096  0.5224 -0.4812
  380TIP3   OH2 1145   2.599   2.761   1.705  0.1131  0.5444  0.3937
  380TIP3    H1 1146   2.641   2.754   1.790  2.7901  0.0010 -0.8557
  380TIP3    H2 1147   2.642   2.835   1.663  0.0677 -0.2422 -1.1022
  381TIP3   OH2 1148   5.609   1.799   1.890 -0.6206 -0.3613  0.1412
  381TIP3    H1 1149   5.605   1.754   1.805 -1.2538  0.3845 -0.2348
  381TIP3    H2 1150   5.702   1.812   1.905 -0.5344  2.0572 -1.8464
  382TIP3   OH2 1151   3.261   0.744   4.688  0.8268 -0.0466 -0.5832
  382TIP3    H1 1152   3.223   0.828   4.663 -2.2152 -0.8024  1.0191
  382TIP3    H2 1153   3.351   0.765   4.712  0.8374  2.3192 -2.3625
  383TIP3   OH2 1154   6.297   5.894   0.215 -0.1884  0.3318 -0.4399
  383TIP3    H1 1155   6.233   5.921   0.150 -2.2501 -0.8743  0.9876
  383TIP3    H2 1156   6.334   5.813   0.181 -1.5138 -0.4823  0.0120
  384TIP3   OH2 1157   2.307   2.528   0.107 -0.1424  0.0065  0.0175
  384TIP3    H1 1158   2.379   2.587   0.085  0.8248 -1.6008 -1.4798
  384TIP3    H2 1159   2.234   2.556   0.052 -0.0798  0.5146  0.1892
  385TIP3   OH2 1160   1.494   1.339   3.911  0.3647 -0.3933 -0.5051
  385TIP3    H1 1161   1.510   1.406   3.844  3.4725 -0.3654  0.1099
  385TIP3    H2 1162   1.576   1.288   3.913 -1.2242 -3.1002  0.3163
  386TIP3   OH2 1163   6.284   5.342   1.704 -0.3877 -0.1206 -0.2834
  386TIP3    H1 1164   6.208   5.297   1.666 -1.5314  0.7304  0.9090
  386TIP3    H2 1165   6.312   5.404   1.637 -0.8326 -0.3325 -0.6722
  387TIP3   OH2 1166   1.943   3.333   4.508 -0.7609 -0.2296  0.3778
  387TIP3    H1 1167   2.029   3.348   4.548 -0.7598 -0.8930  0.6380
  387TIP3    H2 1168   1.928   3.410   4.453  0.7511 -0.8777 -1.0196
  388TIP3   OH2 1169   4.501   1.820   1.130 -0.2874  0.5428  0.3757
  388TIP3    H1 1170   4.463   1.800   1.044 -0.5300  0.7327  0.4364
  388TIP3    H2 1171   4.426   1.837   1.186 -0.1344  0.2813  0.6637
  389TIP3   OH2 1172   4.300   0.296   1.853 -0.6375  0.2313 -0.4047
  389TIP3    H1 1173   4.212   0.274   1.882  0.2207 -1.8396  0.9615
  389TIP3    H2 1174   4.329   0.364   1.914 -0.0654 -1.7046  1.6435
  390TIP3   OH2 1175   5.524   0.326   2.813  0.1175 -0.0855 -0.0666
  390TIP3    H1 1176   5.605   0.360   2.850  1.2086 -1.2242 -1.3166
  390TIP3    H2 1177   5.548   0.241   2.777 -2.0478 -1.2636  1.0733
  391TIP3   OH2 1178   3.997   5.959   1.281 -0.3728 -0.2349 -0.0102
  391TIP3    H1 1179   3.920   5.922   1.325 -0.5084  0.1623  0.0845
  391TIP3    H2 1180   3.997   6.051   1.306 -1.3049  0.3567 -2.0440
  392TIP3   OH2 1181   6.286   5.183   2.990 -0.2145 -0.3834 -0.2301
  392TIP3    H1 1182   6.364   5.196   3.044 -0.3289 -1.0783  0.1178
  392TIP3    H2 1183   6.306   5.105   2.939 -0.4297 -0.1944 -0.6006
  393TIP3   OH2 1184   5.771   3.400   3.114 -0.1722  0.0797 -0.1896
  393TIP3    H1 1185   5.697   3.366   3.165  0.9696  1.0416  2.3084
  393TIP3    H2 1186   5.829   3.325   3.103  0.1245  0.0969  1.0802
  394TIP3   OH2 1187   0.246   2.306   0.989 -0.2062  0.1403 -0.0167
  394TIP3    H1 1188   0.307   2.275   0.922  0.1916  0.8052  0.0253
  394TIP3    H2 1189   0.196   2.375   0.946  0.1165  0.6352  0.3829
  395TIP3   OH2 1190   6.164   0.282   4.563 -0.9142 -0.0068  0.4713
  395TIP3    H1 1191   6.226   0.305   4.632  1.2411 -2.7576 -0.3373
  395TIP3    H2 1192   6.102   0.222   4.605 -0.5847 -0.3880  0.4255
  396TIP3   OH2 1193   2.389   4.947   1.851 -0.1812  0.3530  0.0162
  396TIP3    H1 1194   2.478   4.957   1.817 -0.4272  0.8024 -0.5173
  396TIP3    H2 1195   2.399   4.895   1.930  0.5615  0.4193 -0.0279
  397TIP3   OH2 1196   2.913   1.531   0.316 -0.2437 -0.2613  0.2957
  397TIP3    H1 1197   2.998   1.574   0.307  0.0666 -0.7270  0.9530
  397TIP3    H2 1198   2.918   1.485   0.400 -0.9012 -0.8452  0.0210
  398TIP3   OH2 1199   3.753   2.976   1.485 -0.5360  0.3047  0.6588
  398TIP3    H1 1200   3.806   2.948   1.411 -0.3093  1.2224  0.4645
  398TIP3    H2 1201   3.665   2.944   1.465 -0.6400  1.1937 -0.3951
  399TIP3   OH2 1202   3.824   5.568   4.257 -0.1499 -0.2873  0.0375
  399TIP3    H1 1203   3.754   5.508   4.283 -1.5554  1.4565  0.4836
  399TIP3    H2 1204   3.869   5.589   4.339 -0.2611 -0.0340  0.0363
  400TIP3   OH2 1205   5.330   2.037   0.041 -1.0866  0.3287  0.1288
  400TIP3    H1 1206   5.341   2.115   0.095  1.1311 -0.5703  1.1065
  400TIP3    H2 1207   5.365   2.061  -0.045 -1.0938  0.6258  0.2110
  401TIP3   OH2 1208   1.476   4.849   4.456 -0.2657 -0.5400  0.1554
  401TIP3    H1 1209   1.534   4.773   4.452 -0.1532 -0.5767  1.9121
  401TIP3    H2 1210   1.511   4.910   4.391 -0.8832 -2.3090 -1.9377
  402TIP3   OH2 1211   3.759   5.310   2.760  0.3965 -0.1356  0.4558
  402TIP3    H1 1212   3.850   5.287   2.780  1.0404 -0.1941 -2.1497
  402TIP3    H2 1213   3.766   5.391   2.709 -1.1705  0.6849  1.4377
  403TIP3   OH2 1214   4.425   0.645   0.469 -0.4455 -0.3849 -0.3608
  403TIP3    H1 1215   4.343   0.611   0.433 -1.0764  2.1613 -1.5711
  403TIP3    H2 1216   4.448   0.717   0.411  2.6755 -0.9561 -0.0314
  404TIP3   OH2 1217   2.215   0.700   4.669  0.1429  0.0122  1.3105
  404TIP3    H1 1218   2.235   0.754   4.593 -2.0410 -0.2021  0.5213
  404TIP3    H2 1219   2.144   0.642   4.640  1.2636 -2.1697  2.6143
  405TIP3   OH2 1220   1.642   2.580   4.029  0.4489 -0.4240 -0.1146
  405TIP3    H1 1221   1.697   2.630   4.090  2.2367 -2.4357  0.0338
  405TIP3    H2 1222   1.633   2.638   3.953  1.7734  0.4769  0.3655
  406TIP3   OH2 1223   2.626   4.088   0.477  0.4196  0.1376  0.1870
  406TIP3    H1 1224   2.593   4.146   0.546  0.8899  1.0437 -0.3349
  406TIP3    H2 1225   2.625   4.142   0.398  2.6224  0.0332  0.0345
  407TIP3   OH2 1226   1.818   3.886   0.456  0.6665 -0.0086 -0.0539
  407TIP3    H1 1227   1.859   3.956   0.507 -0.1049 -0.2913  1.0183
  407TIP3    H2 1228   1.850   3.897   0.367  2.3042  0.3318  0.5571
  408TIP3   OH2 1229   4.391   4.679   3.873  0.0874 -0.2374 -0.4587
  408TIP3    H1 1230   4.416   4.587   3.865  2.0312  0.1159  0.8698
  408TIP3    H2 1231   4.296   4.678   3.861  0.0198 -2.4318 -0.2949
  409TIP3   OH2 1232   4.356   3.057   4.599  0.4285 -0.0063 -0.3573
  409TIP3    H1 1233   4.347   3.007   4.680 -2.1449  1.9192  0.6893
  409TIP3    H2 1234   4.299   3.011   4.537  0.3029  0.0147 -0.2593
  410TIP3   OH2 1235   6.259   3.983   1.346  0.0879  0.5499  0.5920
  410TIP3    H1 1236   6.205   3.920   1.298 -1.2832  1.5339  0.7810
  410TIP3    H2 1237   6.321   3.929   1.395 -0.6052 -0.6185  0.2184
  411TIP3   OH2 1238   1.755   2.627   4.428  0.4602 -0.2091  0.3828
  411TIP3    H1 1239   1.801   2.704   4.462 -1.1299  1.5619 -1.2335
  411TIP3    H2 1240   1.825   2.571   4.394  1.6210  0.9213  0.8087
  412TIP3   OH2 1241   2.618   0.060   4.613 -0.0859  0.5146  0.3194
  412TIP3    H1 1242   2.601   0.031   4.524  2.2897  1.7536 -0.6321
  412TIP3    H2 1243   2.628  -0.021   4.664 -0.1367 -0.2210 -0.8141
  413TIP3   OH2 1244   4.563   2.584   2.757  0.3021  0.1167  0.0722
  413TIP3    H1 1245   4.473   2.556   2.744 -0.7214  2.7622  0.7349
  413TIP3    H2 1246   4.581   2.642   2.683  1.7713 -0.9713 -0.4672
  414TIP3   OH2 1247   3.546   2.664   5.092  0.1627 -0.9349  0.5811
  414TIP3    H1 1248   3.607   2.619   5.033  0.6415  0.0072  0.3392
  414TIP3    H2 1249   3.475   2.692   5.035  0.7467  0.1982  0.3777
  415TIP3   OH2 1250   1.448   3.209   0.641 -0.5620  0.1022 -0.3972
  415TIP3    H1 1251   1.486   3.153   0.573 -3.4896 -2.1977 -0.3330
  415TIP3    H2 1252   1.486   3.177   0.723  0.6594  0.8361 -0.6553
  416TIP3   OH2 1253   0.298   1.899   1.151  0.3829  0.5387 -0.1883
  416TIP3    H1 1254   0.392   1.893   1.136  0.3209  1.5064 -1.0451
  416TIP3    H2 1255   0.273   1.812   1.182  1.6975  0.5062  0.8711
  417TIP3   OH2 1256   6.174   0.735   0.717  0.1233  0.0851 -0.2360
  417TIP3    H1 1257   6.088   0.757   0.681 -0.8169 -2.0116  0.6126
  417TIP3    H2 1258   6.226   0.712   0.640 -0.1907  0.9386 -0.7166
  418TIP3   OH2 1259   1.111   0.420   0.856  0.1929 -0.1852 -0.6660
  418TIP3    H1 1260   1.042   0.372   0.901 -0.7790  1.9667  0.2692
  418TIP3    H2 1261   1.192   0.378   0.885 -0.5060  0.0147  1.7540
  419TIP3   OH2 1262   4.781   5.505   5.025  0.7217 -0.4693 -0.5055
  419TIP3    H1 1263   4.775   5.598   5.000 -0.2517  0.1827  1.8711
  419TIP3    H2 1264   4.701   5.466   4.989  1.5734 -0.6548 -2.3130
  420TIP3   OH2 1265   2.146   4.320   5.064 -0.1377 -0.0941 -0.0912
  420TIP3    H1 1266   2.228   4.350   5.026 -0.5270 -0.1370 -1.0036
  420TIP3    H2 1267   2.171   4.275   5.145  0.5742  1.4770  0.5956
  421TIP3   OH2 1268   6.072   4.721   2.394 -0.7182  0.1260  0.0178
  421TIP3    H1 1269   5.978   4.739   2.380 -0.4737  3.2670  1.3929
  421TIP3    H2 1270   6.116   4.791   2.346  0.7313  0.6602  2.0094
  422TIP3   OH2 1271   5.824   2.705   1.964 -0.2103 -0.2524 -0.4619
  422TIP3    H1 1272   5.847   2.720   1.873 -0.5372 -1.2713 -0.7227
  422TIP3    H2 1273   5.872   2.626   1.989 -0.8698 -0.5316 -0.0412
  423TIP3   OH2 1274   4.342   0.080   1.179 -0.5395  0.0543 -0.6212
  423TIP3    H1 1275   4.345  -0.016   1.180 -2.2465 -0.0435 -0.8439
  423TIP3    H2 1276   4.310   0.102   1.091 -0.1813  0.8220 -0.5643
  424TIP3   OH2 1277   5.273   1.214   4.978  0.1542 -0.0842  0.3333
  424TIP3    H1 1278   5.287   1.288   4.920 -0.2718 -0.4709 -0.2724
  424TIP3    H2 1279   5.256   1.140   4.920 -0.2320 -0.4870  0.9416
  425TIP3   OH2 1280   5.867   0.679   0.544 -0.2087  0.6240 -0.3698
  425TIP3    H1 1281   5.929   0.642   0.482 -2.1174 -0.2825 -1.8444
  425TIP3    H2 1282   5.832   0.757   0.500 -2.5580 -0.7631 -1.1302
  426TIP3   OH2 1283   0.611   5.264   3.213  0.2693  0.2565  0.3458
  426TIP3    H1 1284   0.553   5.208   3.160 -0.5453  1.2796  0.1215
  426TIP3    H2 1285   0.554   5.334   3.245  1.7728  2.6175 -1.7423
  427TIP3   OH2 1286   3.281   5.639   4.022  0.3631 -0.2312 -0.4565
  427TIP3    H1 1287   3.348   5.648   3.955 -0.7809 -0.5150 -1.6846
  427TIP3    H2 1288   3.198   5.641   3.974 -0.5467  0.4725  1.0313
  428TIP3   OH2 1289   4.920   4.724   0.406 -0.3203 -0.8519 -0.1482
  428TIP3    H1 1290   4.958   4.805   0.373  0.1310 -0.7300  0.6478
  428TIP3    H2 1291   4.852   4.752   0.468 -0.6381 -1.0825 -0.3865
  429TIP3   OH2 1292   1.313   4.540   3.694 -0.1203 -0.3358  0.1897
  429TIP3    H1 1293   1.402   4.512   3.716 -0.0634 -0.7482 -0.5394
  429TIP3    H2 1294   1.264   4.528   3.775  0.2492 -1.1165  0.3063
  430TIP3   OH2 1295   5.630   4.849   0.078 -0.2307  0.6403 -0.5001
  430TIP3    H1 1296   5.597   4.772   0.030  0.1160 -0.9160  1.6188
  430TIP3    H2 1297   5.556   4.876   0.132  1.0696 -1.5250  2.6435
  431TIP3   OH2 1298   2.371   4.080   3.361  0.1036  0.3102  0.3116
  431TIP3    H1 1299   2.460   4.109   3.344  0.1009  0.4362  0.5148
  431TIP3    H2 1300   2.316   4.152   3.332  0.0666  0.2183  0.1546
  432TIP3   OH2 1301   2.015   3.963   4.931  0.5267  0.6891 -0.2290
  432TIP3    H1 1302   2.005   4.057   4.948  0.7976  0.5336  0.8508
  432TIP3    H2 1303   1.926   3.933   4.910  0.2841  1.0115  0.3294
  433TIP3   OH2 1304   4.213   4.390   2.730  0.3584  0.1081 -0.1273
  433TIP3    H1 1305   4.267   4.361   2.657  1.4146  0.3909  0.5210
  433TIP3    H2 1306   4.124   4.363   2.706  0.9234 -1.3123 -0.7356
  434TIP3   OH2 1307   5.039   2.238   2.895 -0.0636 -0.5193  0.2723
  434TIP3    H1 1308   5.102   2.268   2.961  0.9123 -2.9844  0.5698
  434TIP3    H2 1309   5.076   2.267   2.812  0.9891 -1.1146  0.5178
  435TIP3   OH2 1310   6.297   1.956   4.319 -0.2957 -0.5334 -0.0325
  435TIP3    H1 1311   6.343   1.995   4.244 -1.5678  2.4533  0.6062
  435TIP3    H2 1312   6.259   2.031   4.366 -4.0606 -2.5869  0.6123
  436TIP3   OH2 1313   2.734   4.373   2.415 -0.8724  0.2198 -0.1948
  436TIP3    H1 1314   2.749   4.388   2.321 -1.6013  0.0215 -0.3541
  436TIP3    H2 1315   2.691   4.288   2.419  2.9194 -1.8519  0.6677
  437TIP3   OH2 1316   4.814   3.902   4.003  0.0774 -0.4181 -0.4777
  437TIP3    H1 1317   4.869   3.891   3.926 -1.3799  0.1791 -1.6625
  437TIP3    H2 1318   4.831   3.991   4.034 -1.0844  0.2356 -1.6091
  438TIP3   OH2 1319   3.538   1.833   0.422 -0.1630  0.0359  0.1869
  438TIP3    H1 1320   3.488   1.759   0.387  0.6032 -0.2873 -0.2458
  438TIP3    H2 1321   3.590   1.865   0.348  0.2767  0.3611  0.6291
  439TIP3   OH2 1322   2.753   5.420   0.100  0.6642 -0.5030  0.0284
  439TIP3    H1 1323   2.725   5.393   0.013 -0.0308  0.2021  0.0252
  439TIP3    H2 1324   2.839   5.459   0.087 -0.3233  1.5827 -0.7110
  440TIP3   OH2 1325   6.067   3.161   3.531 -0.4479  0.0142 -0.6392
  440TIP3    H1 1326   6.158   3.189   3.522 -1.2289  2.3906 -2.1931
  440TIP3    H2 1327   6.057   3.139   3.623  1.3209  1.2263 -0.1142
  441TIP3   OH2 1328   0.546   2.494   1.683  0.4075  0.1525  0.4114
  441TIP3    H1 1329   0.453   2.504   1.664  0.2796 -0.1824  0.8564
  441TIP3    H2 1330   0.589   2.562   1.630 -0.2939  2.1031  2.2300
  442TIP3   OH2 1331   0.780   0.614   1.876 -0.0166 -0.1842 -0.2993
  442TIP3    H1 1332   0.874   0.596   1.876  0.0059 -0.1028  0.5859
  442TIP3    H2 1333   0.759   0.629   1.968 -0.8560  0.0172 -0.5215
  443TIP3   OH2 1334   4.592   3.347   2.350 -0.5446 -0.6492  0.0630
  443TIP3    H1 1335   4.655   3.406   2.391 -1.2106 -1.4742  2.4511
  443TIP3    H2 1336   4.623   3.259   2.372 -1.0978 -1.1397 -1.0148
  444TIP3   OH2 1337   1.643   4.127   2.322 -0.1517 -0.1394 -0.1826
  444TIP3    H1 1338   1.570   4.077   2.284 -1.7553  3.1810 -1.9848
  444TIP3    H2 1339   1.606   4.168   2.400 -0.1139  1.1896 -0.8387
  445TIP3   OH2 1340   4.339   3.298   4.997 -0.0413 -0.0541 -0.0049
  445TIP3    H1 1341   4.292   3.351   5.061 -1.1929 -0.5026 -0.4496
  445TIP3    H2 1342   4.271   3.247   4.953  0.8786 -0.8001 -0.6119
  446TIP3   OH2 1343   0.559   1.591   4.306 -0.4793  0.2524  0.6450
  446TIP3    H1 1344   0.538   1.503   4.336 -1.4522  0.8661  1.8008
  446TIP3    H2 1345   0.655   1.595   4.309 -0.3757 -0.9864 -0.1393
  447TIP3   OH2 1346   4.923   4.139   1.733  0.3228 -0.2932  0.3666
  447TIP3    H1 1347   4.936   4.209   1.797 -1.4280 -0.3334  0.8096
  447TIP3    H2 1348   5.012   4.107   1.714  1.0005  0.8076  1.5345
  448TIP3   OH2 1349   4.570   0.686   1.918 -0.5765  0.5159  0.2369
  448TIP3    H1 1350   4.635   0.648   1.859 -0.9388  0.9723 -0.4632
  448TIP3    H2 1351   4.602   0.665   2.006 -0.9443 -1.7477 -0.1085
  449TIP3   OH2 1352   3.902   3.821   2.609  0.0662  0.3078 -0.1710
  449TIP3    H1 1353   3.810   3.792   2.610  0.2330 -0.3286 -1.3127
  449TIP3    H2 1354   3.952   3.741   2.593  0.7624  0.7828 -0.4139
  450TIP3   OH2 1355   2.390   4.670   2.415 -0.2940  0.1048 -0.3255
  450TIP3    H1 1356   2.331   4.599   2.437  0.0569  0.3704  1.6562
  450TIP3    H2 1357   2.397   4.721   2.496 -1.2503  2.9378 -1.8952
  451TIP3   OH2 1358   4.587   2.602   0.185 -0.1473  0.4258 -0.0061
  451TIP3    H1 1359   4.638   2.635   0.260 -0.8866  0.0454  0.6710
  451TIP3    H2 1360   4.500   2.638   0.198 -1.0928 -1.9958  0.9360
  452TIP3   OH2 1361   2.076   3.204   0.465  0.0324  0.1685 -0.1756
  452TIP3    H1 1362   2.067   3.108   0.462  3.6367 -0.3264 -1.6949
  452TIP3    H2 1363   2.096   3.223   0.557  2.7808 -1.1772 -0.3587
  453TIP3   OH2 1364   0.647   2.833   4.247 -0.1943  0.3472  0.7289
  453TIP3    H1 1365   0.619   2.843   4.156 -0.7170 -0.0323  0.8435
  453TIP3    H2 1366   0.722   2.892   4.256  1.6292 -1.5790 -0.7287
  454TIP3   OH2 1367   4.838   0.421   1.072  0.4057 -0.0911 -0.6631
  454TIP3    H1 1368   4.859   0.329   1.086 -1.1414 -0.4388 -0.4685
  454TIP3    H2 1369   4.758   0.420   1.021 -0.4770  1.1220  0.6171
  455TIP3   OH2 1370   2.914   2.516   0.473  0.2999  0.5935  0.3025
  455TIP3    H1 1371   2.949   2.588   0.526  0.6007  0.9939 -0.4248
  455TIP3    H2 1372   2.916   2.550   0.383 -0.5540  0.0644  0.0756
  456TIP3   OH2 1373   2.255   5.106   1.551 -0.2547 -0.2788  0.0403
  456TIP3    H1 1374   2.349   5.100   1.536 -0.4350  2.6476 -3.6234
  456TIP3    H2 1375   2.247   5.160   1.630  1.0270 -1.7072  1.2208
  457TIP3   OH2 1376   3.693   0.441   2.387  0.1104 -0.0360 -0.3894
  457TIP3    H1 1377   3.755   0.369   2.388 -0.8125 -0.8479  1.0576
  457TIP3    H2 1378   3.615   0.407   2.430 -0.3607  1.8214  0.3484
  458TIP3   OH2 1379   3.871   2.657   3.529  0.0050  0.1698 -0.0932
  458TIP3    H1 1380   3.848   2.564   3.519  0.4089  0.2242 -1.7969
  458TIP3    H2 1381   3.891   2.666   3.622  0.3550 -1.5549  0.0401
  459TIP3   OH2 1382   2.905   3.876   2.133  0.1885  0.4354 -0.1986
  459TIP3    H1 1383   2.945   3.790   2.126 -1.1397 -0.3799  1.6648
  459TIP3    H2 1384   2.971   3.930   2.176 -0.1872 -0.5709  1.7186
  460TIP3   OH2 1385   3.376   4.421   4.777  0.3426  0.1362 -0.3921
  460TIP3    H1 1386   3.395   4.462   4.692 -0.0173 -0.1037 -0.5946
  460TIP3    H2 1387   3.324   4.344   4.754 -0.8517  0.7589  0.1252
  461TIP3   OH2 1388   6.351   2.235   2.734 -0.0887 -0.2987  0.1579
  461TIP3    H1 1389   6.347   2.151   2.780  0.3344 -0.2669  0.2533
  461TIP3    H2 1390   6.263   2.271   2.742 -0.2462 -0.6891  0.1987
  462TIP3   OH2 1391   1.413   3.850   1.139 -0.9399 -0.3808  0.2188
  462TIP3    H1 1392   1.358   3.899   1.200  0.8464  0.8465  0.9559
  462TIP3    H2 1393   1.352   3.801   1.084 -2.7151  0.7362  1.1168
  463TIP3   OH2 1394   5.304   4.401   1.488  0.1127 -0.4327  0.0829
  463TIP3    H1 1395   5.245   4.387   1.563  0.1307  0.1330  0.2034
  463TIP3    H2 1396   5.279   4.487   1.454 -2.1557 -1.9372 -2.5730
  464TIP3   OH2 1397   3.997   4.989   2.902  0.1526  0.3412  0.1894
  464TIP3    H1 1398   4.021   5.080   2.889  0.1390  0.3997  0.5505
  464TIP3    H2 1399   3.909   4.981   2.866  0.8417  0.0254 -1.5222
  465TIP3   OH2 1400   0.482   3.607   0.245 -0.0209  0.0390 -0.1660
  465TIP3    H1 1401   0.565   3.558   0.247 -1.2752 -2.2141 -0.2423
  465TIP3    H2 1402   0.507   3.693   0.212  2.3280 -0.4786  0.0267
  466TIP3   OH2 1403   3.672   3.688   0.558 -0.1641 -0.0532 -0.2869
  466TIP3    H1 1404   3.636   3.777   0.557  0.5134  0.3387 -3.4485
  466TIP3    H2 1405   3.631   3.646   0.633 -0.6091  2.8732  1.2577
  467TIP3   OH2 1406   5.827   3.492   5.096  0.1514  0.5673  0.2112
  467TIP3    H1 1407   5.883   3.504   5.019  0.0111  1.2034  0.2032
  467TIP3    H2 1408   5.862   3.553   5.161  0.0514  0.2869  0.5361
  468TIP3   OH2 1409   2.625   3.009   1.188  0.1604  0.5207 -0.0758
  468TIP3    H1 1410   2.543   3.056   1.173 -0.0719  0.0567 -0.2993
  468TIP3    H2 1411   2.632   2.949   1.113 -0.6998 -1.4089  1.2939
  469TIP3   OH2 1412   5.210   1.344   3.967 -0.1356  0.0127 -0.3885
  469TIP3    H1 1413   5.151   1.360   3.893  1.1811  0.3385 -1.4144
  469TIP3    H2 1414   5.262   1.268   3.940 -0.6259 -0.7993  0.8617
  470TIP3   OH2 1415   5.820   2.695   3.320 -0.7113 -0.6189 -0.3601
  470TIP3    H1 1416   5.898   2.690   3.264  0.3360  1.3917  0.8426
  470TIP3    H2 1417   5.824   2.781   3.360  0.0439 -2.7545  4.8994
  471TIP3   OH2 1418   4.097   0.396   2.540  0.5957  0.0892  0.0595
  471TIP3    H1 1419   4.053   0.464   2.489  0.5499  0.6148  0.7936
  471TIP3    H2 1420   4.129   0.334   2.474  0.2543  0.5897 -0.5857
  472TIP3   OH2 1421   1.624   5.138   0.744  0.1379 -0.4075 -0.2338
  472TIP3    H1 1422   1.665   5.182   0.669  0.4657 -0.5071 -0.1152
  472TIP3    H2 1423   1.530   5.152   0.731  0.2918  2.9246  1.3632
  473TIP3   OH2 1424   2.165   2.002   2.298 -0.5826  0.2240  0.2051
  473TIP3    H1 1425   2.118   1.938   2.246  1.0381 -0.6328 -0.2623
  473TIP3    H2 1426   2.147   1.977   2.389 -0.6605 -0.3635  0.0305
  474TIP3   OH2 1427   1.894   3.790   3.218 -0.2400  0.1924 -0.5685
  474TIP3    H1 1428   1.916   3.882   3.232  0.8100 -0.1838  0.3824
  474TIP3    H2 1429   1.974   3.751   3.182  0.5450 -1.0456  2.2490
  475TIP3   OH2 1430   4.850   5.422   2.326  0.4030  0.3797 -0.1912
  475TIP3    H1 1431   4.900   5.493   2.367  1.6030  0.3077 -1.4721
  475TIP3    H2 1432   4.762   5.458   2.315  0.8271  1.4475 -0.2310
  476TIP3   OH2 1433   4.247   1.605   1.057  0.6060 -0.5885  0.3470
  476TIP3    H1 1434   4.304   1.606   1.134  1.7188  0.7697 -0.4348
  476TIP3    H2 1435   4.238   1.697   1.033 -3.1869 -0.5644  1.2518
  477TIP3   OH2 1436   4.591   1.333   3.024 -0.1603 -0.2887  0.2512
  477TIP3    H1 1437   4.668   1.387   3.044 -1.6170  1.7005  0.7833
  477TIP3    H2 1438   4.583   1.336   2.929  0.2716 -0.3047  0.2135
  478TIP3   OH2 1439   2.719   2.353   2.445  0.6913 -0.1635  0.1406
  478TIP3    H1 1440   2.704   2.445   2.466 -1.8487 -0.2395 -0.9886
  478TIP3    H2 1441   2.747   2.314   2.528  0.1063  1.2873  1.0574
  479TIP3   OH2 1442   1.820   0.827   1.602 -0.2959  0.0306  0.3723
  479TIP3    H1 1443   1.788   0.869   1.682 -0.4314 -0.0894  0.3815
  479TIP3    H2 1444   1.756   0.850   1.535 -0.5237 -0.3936  0.4397
  480TIP3   OH2 1445   5.842   5.548   4.595  0.2220  0.0721  0.1810
  480TIP3    H1 1446   5.792   5.579   4.671  0.6851  1.1718  0.0628
  480TIP3    H2 1447   5.776   5.514   4.535 -0.2350  0.0096  0.7113
  481TIP3   OH2 1448   1.585   0.502   3.413  0.4457 -0.4213  0.2660
  481TIP3    H1 1449   1.523   0.461   3.473 -0.1301 -0.2018 -0.1828
  481TIP3    H2 1450   1.532   0.555   3.354  1.0898  0.1077  0.1441
  482TIP3   OH2 1451   1.673   5.894   4.500  0.3968 -0.1116  0.3430
  482TIP3    H1 1452   1.680   5.988   4.483 -1.5587  0.3934  1.8667
  482TIP3    H2 1453   1.758   5.858   4.475  1.2576  2.0903 -0.1022
  483TIP3   OH2 1454   6.285   0.481   2.538 -0.6273  0.6234 -0.0008
  483TIP3    H1 1455   6.223   0.554   2.543 -1.8549 -0.4259  1.5205
  483TIP3    H2 1456   6.268   0.440   2.453  0.9437  2.7495 -1.4321
  484TIP3   OH2 1457   4.821   0.655   0.469 -0.1091  0.0185  0.2279
  484TIP3    H1 1458   4.817   0.681   0.561  0.0925  0.6277  0.0658
  484TIP3    H2 1459   4.880   0.718   0.428 -0.7304  0.1757 -0.4638
  485TIP3   OH2 1460   1.075   4.819   1.023 -0.4414  0.3608  0.1848
  485TIP3    H1 1461   0.987   4.792   0.996 -0.3121  0.5565 -0.4302
  485TIP3    H2 1462   1.118   4.846   0.942 -0.2488  1.5058  0.6489
  486TIP3   OH2 1463   2.334   5.816   2.523  0.0718  0.3994  0.0221
  486TIP3    H1 1464   2.333   5.897   2.575  0.7821  0.6555 -0.3521
  486TIP3    H2 1465   2.399   5.832   2.454  1.4519 -1.0755  0.8939
  487TIP3   OH2 1466   0.424   1.173   2.131 -0.2610 -0.5210 -0.2294
  487TIP3    H1 1467   0.341   1.131   2.107  0.0764 -0.7801 -0.9461
  487TIP3    H2 1468   0.451   1.221   2.052 -0.7111  1.1865  0.6013
  488TIP3   OH2 1469   1.126   3.096   1.037  0.1298  0.0227  0.2576
  488TIP3    H1 1470   1.097   3.058   0.954  1.1329 -0.2018 -0.0018
  488TIP3    H2 1471   1.113   3.027   1.102  0.4533 -0.2076  0.0763
  489TIP3   OH2 1472   6.308   0.169   5.039  0.0504  0.2576 -0.5678
  489TIP3    H1 1473   6.327   0.106   5.108  0.0656 -1.4081 -1.9944
  489TIP3    H2 1474   6.282   0.249   5.084  1.2828 -0.3592  1.3427
  490TIP3   OH2 1475   1.539   1.587   2.588  0.2990 -0.1906  0.4524
  490TIP3    H1 1476   1.626   1.593   2.549 -0.3238 -0.6135 -1.0576
  490TIP3    H2 1477   1.556   1.588   2.683  2.0489 -1.7710  0.2207
  491TIP3   OH2 1478   5.474   4.823   1.431 -0.8983 -0.4352 -0.1329
  491TIP3    H1 1479   5.516   4.845   1.515  0.9851 -0.9348 -0.9133
  491TIP3    H2 1480   5.544   4.827   1.367 -2.5383  1.2207 -1.9672
  492TIP3   OH2 1481   0.097   4.151   3.891 -0.3758 -0.2834  1.0788
  492TIP3    H1 1482   0.154   4.212   3.843  1.2253 -0.2215  2.9436
  492TIP3    H2 1483   0.083   4.078   3.830  1.3102 -0.0741  0.3919
  493TIP3   OH2 1484   5.635   5.135   2.231 -0.1754 -0.1428 -0.0551
  493TIP3    H1 1485   5.675   5.085   2.302 -0.0783  0.0478  0.0273
  493TIP3    H2 1486   5.655   5.085   2.152  0.7310  0.2459 -0.0813
  494TIP3   OH2 1487   5.499   5.131   1.035 -0.2885 -0.3345 -0.6614
  494TIP3    H1 1488   5.496   5.039   1.060  0.6902  0.1757  1.6996
  494TIP3    H2 1489   5.514   5.131   0.941 -1.0157 -2.5589 -0.8284
  495TIP3   OH2 1490   4.155   3.677   0.443 -0.1873 -0.5338 -0.4017
  495TIP3    H1 1491   4.138   3.593   0.487  0.9973 -0.5279  0.0895
  495TIP3    H2 1492   4.068   3.716   0.434 -0.7518 -1.7461 -0.5108
  496TIP3   OH2 1493   4.121   0.564   0.604 -0.4981  0.2531 -0.7414
  496TIP3    H1 1494   4.176   0.545   0.527  0.3479 -1.4813  0.2286
  496TIP3    H2 1495   4.174   0.625   0.656  0.0743 -0.5798 -0.3242
  497TIP3   OH2 1496   2.190   2.054   3.976  0.4912 -0.1489  0.0228
  497TIP3    H1 1497   2.104   2.094   3.961  0.7362 -0.5694 -3.1735
  497TIP3    H2 1498   2.171   1.961   3.989  0.2777  0.2126  3.1473
  498TIP3   OH2 1499   4.822   3.207   4.474 -0.7433 -0.6687 -0.2713
  498TIP3    H1 1500   4.742   3.229   4.426 -0.8214  1.1918  0.6159
  498TIP3    H2 1501   4.884   3.275   4.449 -0.2471 -0.6639  0.9111
  499TIP3   OH2 1502   4.040   0.773   4.413 -0.3195  0.8629  0.1265
  499TIP3    H1 1503   4.055   0.783   4.320  1.4444  2.3850  0.5242
  499TIP3    H2 1504   4.008   0.683   4.423  1.3862 -0.0036 -1.7258
  500TIP3   OH2 1505   2.704   1.622   2.955  0.1881  0.1886  0.9626
  500TIP3    H1 1506   2.781   1.678   2.961  0.2294  0.0756  1.6453
  500TIP3    H2 1507   2.673   1.633   2.865  0.7350  0.5822  0.8145
  501TIP3   OH2 1508   1.822   2.539   0.649  0.1860  0.5885 -0.0098
  501TIP3    H1 1509   1.730   2.514   0.656  0.5270 -0.1719  2.4350
  501TIP3    H2 1510   1.826   2.590   0.567 -2.2228  0.0092 -0.5818
  502TIP3   OH2 1511   0.591   3.513   2.231  0.0190 -0.2894  0.1684
  502TIP3    H1 1512   0.622   3.479   2.147 -0.1098 -2.4524  0.9483
  502TIP3    H2 1513   0.515   3.459   2.253 -2.4824  2.8100 -0.1640
  503TIP3   OH2 1514   0.512   2.954   0.079  0.5509 -0.0220 -0.4619
  503TIP3    H1 1515   0.419   2.963   0.102  0.8426  0.1303  0.7035
  503TIP3    H2 1516   0.549   2.899   0.147  0.9649 -1.6776 -1.9361
  504TIP3   OH2 1517   0.842   4.281   0.965 -0.9238 -0.6025  0.0069
  504TIP3    H1 1518   0.757   4.322   0.945 -0.2437  0.7421 -0.2928
  504TIP3    H2 1519   0.902   4.355   0.976 -0.1114 -1.4718  1.8533
  505TIP3   OH2 1520   2.432   5.865   0.020  0.0978 -0.3926  0.5256
  505TIP3    H1 1521   2.509   5.823   0.059 -0.1409 -1.1255  0.2250
  505TIP3    H2 1522   2.445   5.856  -0.074 -0.5186 -0.8166  0.4800
  506TIP3   OH2 1523   5.518   0.593   1.708  0.0395 -0.6512 -0.1246
  506TIP3    H1 1524   5.424   0.611   1.704 -0.4415 -3.0104 -0.7686
  506TIP3    H2 1525   5.536   0.578   1.801 -0.0341  0.5884  0.1017
  507TIP3   OH2 1526   4.864   0.563   3.846 -0.4259 -0.1856 -0.2064
  507TIP3    H1 1527   4.807   0.628   3.806  0.2528  0.0835 -0.7589
  507TIP3    H2 1528   4.879   0.595   3.935  2.7577  2.4283 -1.4480
  508TIP3   OH2 1529   4.292   0.984   0.573 -0.8039  0.1049 -0.3616
  508TIP3    H1 1530   4.294   0.948   0.484  2.5192 -1.2965  0.1337
  508TIP3    H2 1531   4.273   0.909   0.629 -1.4168  0.6894  0.2245
  509TIP3   OH2 1532   2.118   3.985   2.206 -0.3154  0.3824 -0.5383
  509TIP3    H1 1533   2.042   3.929   2.221 -0.8143  1.5899  2.1934
  509TIP3    H2 1534   2.193   3.927   2.218 -0.8304 -0.1494  0.2885
  510TIP3   OH2 1535   1.191   4.634   5.044  0.2225 -0.4483 -0.3335
  510TIP3    H1 1536   1.168   4.558   4.990  1.7256 -0.3366 -1.1733
  510TIP3    H2 1537   1.211   4.597   5.130 -0.1531 -0.8749 -0.4279
  511TIP3   OH2 1538   2.485   0.175   0.723 -0.2807  0.2266  0.0761
  511TIP3    H1 1539   2.426   0.216   0.787 -1.2058  0.6911 -1.0342
  511TIP3    H2 1540   2.462   0.082   0.725 -1.1940  0.4276 -0.4712
  512TIP3   OH2 1541   0.182   1.195   1.580 -0.5162  0.7863 -0.1371
  512TIP3    H1 1542   0.113   1.249   1.618 -0.1431  0.4470  1.0695
  512TIP3    H2 1543   0.224   1.154   1.655 -0.5746 -0.9425 -1.0087
  513TIP3   OH2 1544   6.380   3.159   4.323  0.2675  0.4080  0.0629
  513TIP3    H1 1545   6.307   3.098   4.324  0.2185  0.4615 -0.1926
  513TIP3    H2 1546   6.339   3.246   4.322  0.3258  0.4311 -0.8616
  514TIP3   OH2 1547   4.810   4.128   2.150  0.0657  0.1005  0.2792
  514TIP3    H1 1548   4.789   4.186   2.224 -1.2266 -0.0831  0.0861
  514TIP3    H2 1549   4.820   4.187   2.076 -0.1036  0.1773  0.3148
  515TIP3   OH2 1550   2.024   5.122   1.005 -0.0167 -0.8415  0.6704
  515TIP3    H1 1551   1.990   5.167   0.928 -0.1925 -0.5117  0.9377
  515TIP3    H2 1552   2.102   5.075   0.973  0.2191 -0.2784  0.4046
  516TIP3   OH2 1553   2.025   5.248   3.398  0.5783  0.4570 -0.4213
  516TIP3    H1 1554   2.083   5.180   3.363  1.8516  1.4021 -0.2356
  516TIP3    H2 1555   2.067   5.276   3.480 -1.3158 -0.3518  0.9081
  517TIP3   OH2 1556   0.893   4.843   4.601  0.5903 -0.7236 -0.5713
  517TIP3    H1 1557   0.882   4.805   4.688 -0.0304 -0.7401 -0.6514
  517TIP3    H2 1558   0.958   4.912   4.613 -1.6277  1.2979  0.5534
  518TIP3   OH2 1559   2.426   4.621   5.183 -0.0752  0.7820 -0.0873
  518TIP3    H1 1560   2.413   4.631   5.089 -2.4120  0.3283  0.1205
  518TIP3    H2 1561   2.459   4.531   5.193  0.6582  0.9977 -0.4787
  519TIP3   OH2 1562   4.272   2.113   3.997 -0.1116  0.1049 -0.5840
  519TIP3    H1 1563   4.193   2.110   3.942 -0.7875 -1.1306  0.3983
  519TIP3    H2 1564   4.265   2.036   4.053  1.7641  0.0341 -0.3956
  520TIP3   OH2 1565   5.808   5.167   0.345 -0.0185 -0.0394  0.0521
  520TIP3    H1 1566   5.833   5.105   0.277 -1.3770 -1.6213  0.9219
  520TIP3    H2 1567   5.815   5.253   0.303 -0.0233 -0.9065 -1.8220
  521TIP3   OH2 1568   4.053   5.334   4.608 -0.2080  0.5111  0.1362
  521TIP3    H1 1569   3.988   5.283   4.559  1.4509 -0.4166 -1.1812
  521TIP3    H2 1570   4.056   5.292   4.694 -3.2074  2.2053  1.2153
  522TIP3   OH2 1571   5.887   4.924   4.114  0.0975 -0.1224 -0.2290
  522TIP3    H1 1572   5.938   4.912   4.194 -0.1510 -0.3546 -0.1023
  522TIP3    H2 1573   5.797   4.903   4.140  0.2202 -1.6468 -0.9169
  523TIP3   OH2 1574   3.089   2.748   1.812  0.4666 -0.4554 -0.3063
  523TIP3    H1 1575   3.134   2.823   1.852  0.6418 -0.6499 -0.1412
  523TIP3    H2 1576   3.069   2.778   1.723  2.3418 -0.9222 -0.9165
  524TIP3   OH2 1577   0.939   2.613   0.850 -0.2586  0.1328  0.1032
  524TIP3    H1 1578   1.020   2.650   0.885 -0.5960 -0.1787  1.2389
  524TIP3    H2 1579   0.914   2.545   0.912 -1.0785 -0.1852 -0.5527
  525TIP3   OH2 1580   2.241   2.453   1.124 -0.2030  0.3577 -0.4170
  525TIP3    H1 1581   2.316   2.513   1.120  1.2656 -1.4317 -1.0525
  525TIP3    H2 1582   2.182   2.485   1.056  1.0049  0.5030 -1.4298
  526TIP3   OH2 1583   3.961   2.993   3.642 -0.1711 -0.4453 -0.1370
  526TIP3    H1 1584   3.991   2.921   3.698  0.8654  0.8281  1.0293
  526TIP3    H2 1585   3.951   3.067   3.703  1.6162  1.1803 -1.6989
  527TIP3   OH2 1586   4.817   0.307   0.809 -0.6292  1.4736 -0.2221
  527TIP3    H1 1587   4.776   0.263   0.883  2.3812 -0.2838  0.5902
  527TIP3    H2 1588   4.788   0.258   0.733 -2.5072  2.3110 -0.0978
  528TIP3   OH2 1589   4.046   1.970   1.861  0.1715  0.0838  0.1060
  528TIP3    H1 1590   4.130   2.010   1.840 -0.8767  3.2154  1.3291
  528TIP3    H2 1591   4.046   1.962   1.957 -1.6371  2.1110  0.3497
  529TIP3   OH2 1592   3.795   4.663   1.833 -0.4450 -0.5382  0.7842
  529TIP3    H1 1593   3.773   4.734   1.773 -0.5194 -1.6370 -0.5524
  529TIP3    H2 1594   3.722   4.660   1.894 -1.2373 -0.4807 -0.1282
  530TIP3   OH2 1595   1.606   0.595   1.038 -0.2592  0.2106 -0.6066
  530TIP3    H1 1596   1.543   0.564   0.973 -0.4311  2.0354 -1.3681
  530TIP3    H2 1597   1.673   0.641   0.986  1.3302 -1.0265  0.2438
  531TIP3   OH2 1598   5.515   4.835   4.977 -0.1002 -0.4587  0.1403
  531TIP3    H1 1599   5.508   4.837   4.881  3.0088 -0.3409 -0.1701
  531TIP3    H2 1600   5.584   4.898   4.997 -0.5936 -0.5908  2.4821
  532TIP3   OH2 1601   2.258   3.068   4.703 -0.5422 -0.2436 -0.3214
  532TIP3    H1 1602   2.224   3.157   4.687 -0.6084 -0.3682 -0.9087
  532TIP3    H2 1603   2.352   3.075   4.686 -0.7899 -0.6503 -2.0445
  533TIP3   OH2 1604   5.260   4.234   2.655  0.0163  0.8248  0.0970
  533TIP3    H1 1605   5.278   4.171   2.584 -0.3000 -0.0010  0.7270
  533TIP3    H2 1606   5.327   4.216   2.720  0.4512  1.7461 -0.0936
  534TIP3   OH2 1607   6.187   4.230   4.617 -0.1457 -0.0233  0.4231
  534TIP3    H1 1608   6.186   4.240   4.713 -2.0539 -0.6317  0.5049
  534TIP3    H2 1609   6.275   4.198   4.598 -0.1882 -1.3646  2.1672
  535TIP3   OH2 1610   1.440   4.538   4.478  0.4252 -0.4104 -1.1240
  535TIP3    H1 1611   1.433   4.445   4.498 -1.6146 -0.1339 -0.3051
  535TIP3    H2 1612   1.527   4.548   4.438  0.4449 -2.7347 -1.7897
  536TIP3   OH2 1613   3.125   5.401   4.170  0.4409  0.3245 -0.3229
  536TIP3    H1 1614   3.202   5.455   4.154  1.0892 -0.0436  1.3482
  536TIP3    H2 1615   3.092   5.431   4.255  0.7714 -1.7912  0.6123
  537TIP3   OH2 1616   1.302   2.994   3.150 -0.6786  0.0281 -0.2131
  537TIP3    H1 1617   1.362   3.018   3.079 -0.3133  0.6238  0.2856
  537TIP3    H2 1618   1.293   2.899   3.143  2.1429 -0.4230  1.1054
  538TIP3   OH2 1619   5.666   3.030   0.844 -0.4173  0.2598 -0.2900
  538TIP3    H1 1620   5.704   3.116   0.858  0.6165 -0.4285  1.5011
  538TIP3    H2 1621   5.739   2.976   0.813 -0.6686 -0.3272  0.1123
  539TIP3   OH2 1622   5.135   0.453  -0.001 -0.1438  0.0272 -0.0920
  539TIP3    H1 1623   5.220   0.497  -0.003  0.9625 -1.9422 -3.1132
  539TIP3    H2 1624   5.142   0.392   0.073  1.5757 -0.8507 -0.8979
  540TIP3   OH2 1625   1.276   3.203   0.151  0.2354  0.0077 -0.0740
  540TIP3    H1 1626   1.221   3.125   0.149  2.3032 -1.5159 -0.7988
  540TIP3    H2 1627   1.263   3.245   0.066  0.4356 -0.5346 -0.3767
  541TIP3   OH2 1628   1.269   2.017   4.996 -0.5835  0.1721  0.2933
  541TIP3    H1 1629   1.249   1.995   4.905  0.4085 -0.5725  0.2313
  541TIP3    H2 1630   1.281   1.932   5.039  1.5326  0.5176  0.4883
  542TIP3   OH2 1631   0.827   4.099   3.345  0.1567 -0.4049 -0.3295
  542TIP3    H1 1632   0.738   4.105   3.310 -0.0541  0.6427  0.3445
  542TIP3    H2 1633   0.874   4.170   3.301  0.1482  0.2659  0.7014
  543TIP3   OH2 1634   0.108   1.299   3.998 -0.0863 -0.3092  0.3316
  543TIP3    H1 1635   0.020   1.328   3.976 -0.0983  1.2367  2.1479
  543TIP3    H2 1636   0.165   1.366   3.960  0.1258  0.0508  1.2562
  544TIP3   OH2 1637   3.091   0.563   4.800  0.1149 -0.4380 -0.5773
  544TIP3    H1 1638   3.164   0.616   4.767  1.5532 -2.3889 -0.6830
  544TIP3    H2 1639   3.076   0.596   4.889  0.0700  1.0064 -1.0915
  545TIP3   OH2 1640   0.868   5.939   4.560 -0.1970 -0.5598  0.1975
  545TIP3    H1 1641   0.814   5.976   4.490 -1.4731 -1.5088  0.6492
  545TIP3    H2 1642   0.934   6.006   4.577 -0.6141  0.2021 -1.0627
  546TIP3   OH2 1643   5.565   5.413   0.378  0.4285  0.3299 -0.2106
  546TIP3    H1 1644   5.549   5.383   0.288  1.6462 -2.2571  0.3311
  546TIP3    H2 1645   5.486   5.388   0.426  0.7039 -0.4351 -0.1342
  547TIP3   OH2 1646   5.516   0.348   5.064  0.6675 -0.3728 -0.2656
  547TIP3    H1 1647   5.601   0.390   5.073  1.4182 -2.3042  3.6103
  547TIP3    H2 1648   5.527   0.284   4.994  1.8554  0.4749 -0.8855
  548TIP3   OH2 1649   0.266   3.103   4.157  0.2881 -0.2831  0.2594
  548TIP3    H1 1650   0.232   3.102   4.067 -0.2636  1.0139  0.4235
  548TIP3    H2 1651   0.187   3.099   4.212  0.3073  2.6236  0.6514
  549TIP3   OH2 1652   0.061   1.684   2.910  0.2635 -0.1532  0.5466
  549TIP3    H1 1653   0.050   1.690   2.815 -0.8176  0.8363  0.7197
  549TIP3    H2 1654   0.147   1.722   2.926 -0.2170  1.1643  0.1036
  550TIP3   OH2 1655   1.970   5.066   2.219  0.4464  0.4960  0.1688
  550TIP3    H1 1656   1.984   5.149   2.266 -0.5092  0.2119  0.9899
  550TIP3    H2 1657   2.004   5.082   2.131 -0.4145  2.0238  0.0806
  551TIP3   OH2 1658   3.715   0.841   3.469  0.1854  0.4981 -0.0312
  551TIP3    H1 1659   3.790   0.806   3.517  0.1523 -0.7942 -0.8845
  551TIP3    H2 1660   3.737   0.829   3.377 -1.8605 -1.7637 -0.3242
  552TIP3   OH2 1661   5.129   0.045   2.690 -0.0019  0.1280 -0.3355
  552TIP3    H1 1662   5.061  -0.021   2.678  0.6317 -0.8254  1.0576
  552TIP3    H2 1663   5.206  -0.004   2.719  0.6743  1.4033  0.1217
  553TIP3   OH2 1664   1.547   0.862   3.169 -0.1040 -0.0952  0.3760
  553TIP3    H1 1665   1.628   0.845   3.121  0.1668 -0.6535  1.0071
  553TIP3    H2 1666   1.569   0.934   3.227 -0.4018  0.5128 -0.2549
  554TIP3   OH2 1667   5.952   3.185   3.152 -0.2714 -0.3197  0.0178
  554TIP3    H1 1668   5.901   3.105   3.143  0.9286 -1.5089  2.6816
  554TIP3    H2 1669   6.031   3.170   3.102 -0.3447 -0.5246 -0.0342
  555TIP3   OH2 1670   6.236   3.194   1.799  0.3940  0.5389  0.4748
  555TIP3    H1 1671   6.274   3.176   1.885 -0.1029  1.2982  0.8637
  555TIP3    H2 1672   6.310   3.226   1.747  0.7806 -0.3057  0.4919
  556TIP3   OH2 1673   2.356   0.190   1.874  0.2444  0.2217 -0.0127
  556TIP3    H1 1674   2.322   0.102   1.890 -0.7382  0.6237  0.2062
  556TIP3    H2 1675   2.295   0.229   1.811  1.0810  0.5033 -0.6755
  557TIP3   OH2 1676   3.249   4.978   4.796  0.1937  0.4772 -0.1735
  557TIP3    H1 1677   3.291   4.931   4.868  0.4570 -0.6125 -1.0005
  557TIP3    H2 1678   3.250   5.070   4.823  2.1915  0.3718  0.2967
  558TIP3   OH2 1679   5.301   2.880   0.504 -0.1906  0.2489 -0.2465
  558TIP3    H1 1680   5.240   2.806   0.511  1.0428 -0.6570  1.6988
  558TIP3    H2 1681   5.357   2.858   0.430  0.2622 -0.8892  0.4040
  559TIP3   OH2 1682   3.433   5.934   3.804  0.2435 -0.2977  0.0299
  559TIP3    H1 1683   3.445   5.839   3.807 -1.7159 -0.5717  0.8109
  559TIP3    H2 1684   3.376   5.953   3.879 -1.1836  1.1695 -1.3513
  560TIP3   OH2 1685   2.159   0.312   2.063 -0.3262  0.1218 -0.3795
  560TIP3    H1 1686   2.207   0.236   2.095 -1.3854 -1.1104 -1.6078
  560TIP3    H2 1687   2.222   0.360   2.010  0.3989  0.2165  0.5444
  561TIP3   OH2 1688   4.753   1.112   4.533  0.0074  0.3148  0.0399
  561TIP3    H1 1689   4.799   1.190   4.564  0.1231  0.2791 -0.0418
  561TIP3    H2 1690   4.784   1.041   4.589 -0.1776  0.3443  0.1840
  562TIP3   OH2 1691   3.771   0.870   4.644 -0.0006  0.1782 -0.3825
  562TIP3    H1 1692   3.823   0.920   4.706  0.7391  0.5060 -1.2344
  562TIP3    H2 1693   3.807   0.894   4.558 -0.6940 -0.5981 -0.9078
  563TIP3   OH2 1694   2.847   3.570   4.918 -0.1286  0.2210 -0.0007
  563TIP3    H1 1695   2.913   3.502   4.907  1.2338  1.4151  0.5526
  563TIP3    H2 1696   2.824   3.567   5.011 -0.1822  0.4209 -0.0062
  564TIP3   OH2 1697   0.800   3.460   2.419  0.4170  0.0266  0.3256
  564TIP3    H1 1698   0.776   3.370   2.441  2.6286 -0.9944 -1.1172
  564TIP3    H2 1699   0.737   3.487   2.352 -0.4933 -0.2856  1.0494
  565TIP3   OH2 1700   5.979   3.400   4.876  0.2046  0.1852 -0.1333
  565TIP3    H1 1701   5.936   3.397   4.791  0.1748 -0.1140 -0.1094
  565TIP3    H2 1702   6.055   3.456   4.863  0.6458 -0.5022 -0.5637
  566TIP3   OH2 1703   0.656   4.244   1.213 -0.0946 -0.1204  0.0614
  566TIP3    H1 1704   0.617   4.200   1.289  0.8446  0.0690  0.6636
  566TIP3    H2 1705   0.595   4.315   1.193  0.7419  1.2640  2.0729
  567TIP3   OH2 1706   3.092   0.234   5.003  0.1717  0.1754 -0.2803
  567TIP3    H1 1707   3.044   0.316   4.990  0.2668  0.2383 -0.2413
  567TIP3    H2 1708   3.026   0.166   4.998 -0.5712  0.4428  3.3525
  568TIP3   OH2 1709   1.880   4.682   4.233 -0.0158  0.5077  0.1858
  568TIP3    H1 1710   1.956   4.731   4.262  1.2027 -1.4829  0.5490
  568TIP3    H2 1711   1.903   4.590   4.249 -2.7753 -0.1491  1.0314
  569TIP3   OH2 1712   0.825   1.382   5.068 -0.1577 -0.3572 -0.6374
  569TIP3    H1 1713   0.793   1.299   5.031 -0.4920 -0.5058 -0.0232
  569TIP3    H2 1714   0.905   1.358   5.114 -0.3191 -0.3599 -0.3580
  570TIP3   OH2 1715   1.412   3.126   2.730  0.4899  0.0293  0.3630
  570TIP3    H1 1716   1.417   3.041   2.687  0.9265  0.7786 -1.1507
  570TIP3    H2 1717   1.445   3.188   2.664 -2.3358  1.7299  0.3925
  571TIP3   OH2 1718   5.316   1.673   4.037 -0.4404 -0.4217  0.5506
  571TIP3    H1 1719   5.376   1.616   4.085  1.3508  2.0643  1.4678
  571TIP3    H2 1720   5.350   1.674   3.947 -0.5847 -0.9171  0.4898
  572TIP3   OH2 1721   4.006   1.466   4.871 -0.1291  0.6366 -0.1779
  572TIP3    H1 1722   3.920   1.499   4.899 -1.0279 -2.2389  0.9056
  572TIP3    H2 1723   4.054   1.455   4.953  0.0016 -0.8535 -0.4246
  573TIP3   OH2 1724   1.165   3.095   4.553  0.3608 -0.6273  0.1707
  573TIP3    H1 1725   1.084   3.116   4.507  0.0929 -0.9231  0.5026
  573TIP3    H2 1726   1.233   3.145   4.507 -0.2024  0.6941  0.7184
  574TIP3   OH2 1727   0.435   1.205   4.065  0.3463  0.2557 -0.1058
  574TIP3    H1 1728   0.452   1.221   4.158  0.8637 -0.6775 -0.0259
  574TIP3    H2 1729   0.430   1.292   4.026  0.7048  0.6454  0.6937
  575TIP3   OH2 1730   2.023   2.177   2.991  0.4435  0.2678  0.9123
  575TIP3    H1 1731   2.084   2.111   2.956  1.1475  1.0753  0.5655
  575TIP3    H2 1732   1.937   2.147   2.964  0.9249  0.5955 -1.1717
  576TIP3   OH2 1733   1.496   5.397   1.359  1.2547  0.4996  0.4209
  576TIP3    H1 1734   1.555   5.468   1.332  1.0729  0.4712 -0.0590
  576TIP3    H2 1735   1.410   5.438   1.363  1.0913  0.2278 -0.2014
  577TIP3   OH2 1736   4.161   4.992   3.575  0.4641 -0.4381 -0.1132
  577TIP3    H1 1737   4.144   5.001   3.669  0.1391  0.9135 -0.2723
  577TIP3    H2 1738   4.146   4.900   3.556 -0.9666 -0.4472  0.8946
  578TIP3   OH2 1739   6.080   5.342   2.937 -0.1740 -0.2179 -0.1659
  578TIP3    H1 1740   6.058   5.400   3.010  1.0897  0.8682 -0.6056
  578TIP3    H2 1741   6.143   5.280   2.973 -0.6734 -0.6313  0.0174
  579TIP3   OH2 1742   3.442  -0.006   3.845 -0.1361 -0.1647 -0.1176
  579TIP3    H1 1743   3.374   0.022   3.907  1.9121  1.5304  1.5377
  579TIP3    H2 1744   3.444   0.064   3.780  0.8571  0.4592  0.5669
  580TIP3   OH2 1745   6.247   5.595   4.748  0.2571 -0.0333  0.1543
  580TIP3    H1 1746   6.303   5.588   4.671  0.8160 -0.9012  0.6250
  580TIP3    H2 1747   6.298   5.557   4.819  0.6800  2.7327  1.5001
  581TIP3   OH2 1748   4.835   1.526   2.728  0.4615  0.0507  0.2665
  581TIP3    H1 1749   4.837   1.527   2.824 -2.8804  0.7618  0.4576
  581TIP3    H2 1750   4.887   1.449   2.704  0.3282 -0.9010  2.7119
  582TIP3   OH2 1751   4.377   4.944   4.449  0.5494 -0.4789  0.2272
  582TIP3    H1 1752   4.395   4.878   4.516 -1.6247 -0.0703  1.2825
  582TIP3    H2 1753   4.371   5.026   4.497 -1.8259 -0.2854 -0.3002
  583TIP3   OH2 1754   3.223   5.553   4.704 -0.5642  0.0342  0.4912
  583TIP3    H1 1755   3.172   5.520   4.778 -0.2910  0.4974  0.8866
  583TIP3    H2 1756   3.309   5.511   4.713 -0.0514  1.2034  1.2787
  584TIP3   OH2 1757   5.983   3.401   0.616 -0.2543 -0.3568  0.2606
  584TIP3    H1 1758   5.889   3.386   0.606 -0.1824  0.4400 -2.2101
  584TIP3    H2 1759   6.009   3.445   0.535  2.0989  0.2280  1.2564
  585TIP3   OH2 1760   6.148   2.696   4.130  0.2618 -0.3382 -0.2888
  585TIP3    H1 1761   6.115   2.638   4.061  0.6256 -0.6162 -0.2308
  585TIP3    H2 1762   6.237   2.666   4.146  0.5983  0.5078 -0.5505
  586TIP3   OH2 1763   2.980   1.632   0.606  0.0128 -0.0487 -0.8346
  586TIP3    H1 1764   2.981   1.724   0.577  2.5622  0.0814 -0.5548
  586TIP3    H2 1765   2.890   1.618   0.636 -1.1041  1.6074 -3.1216
  587TIP3   OH2 1766   2.945   0.718   3.652 -0.4756  0.3506  0.1127
  587TIP3    H1 1767   2.921   0.719   3.745  1.4201 -1.6474  0.6971
  587TIP3    H2 1768   3.034   0.754   3.650 -0.2193 -0.3010 -0.8161
  588TIP3   OH2 1769   0.297   1.080   0.668  0.0564  0.5942  0.1894
  588TIP3    H1 1770   0.334   0.999   0.702  0.6292  0.1883 -1.2877
  588TIP3    H2 1771   0.216   1.091   0.716 -0.0915 -0.9319  0.3616
  589TIP3   OH2 1772   1.607   3.553   2.401 -0.4074 -0.0701 -0.3975
  589TIP3    H1 1773   1.553   3.510   2.334  0.4393  0.5817 -1.5463
  589TIP3    H2 1774   1.696   3.522   2.383 -0.1555  0.1524  0.4227
  590TIP3   OH2 1775   3.307   2.701   3.755 -0.2567 -0.0574 -0.1961
  590TIP3    H1 1776   3.273   2.789   3.768  0.5084  0.5693 -2.0602
  590TIP3    H2 1777   3.391   2.701   3.801 -0.8359 -0.2545  0.8893
  591TIP3   OH2 1778   2.787   1.827   4.956  0.2762  0.2688 -0.5189
  591TIP3    H1 1779   2.728   1.772   4.904  0.3563 -1.1259  0.8126
  591TIP3    H2 1780   2.845   1.765   5.000  2.0743  1.5630 -0.9628
  592TIP3   OH2 1781   1.525   0.576   0.747 -0.3572 -0.1524  0.0824
  592TIP3    H1 1782   1.579   0.498   0.736 -0.9563 -0.7201  1.1021
  592TIP3    H2 1783   1.451   0.562   0.688 -0.0328  0.0581 -0.3850
  593TIP3   OH2 1784   4.070   5.289   0.077 -0.7065 -0.5595 -0.2416
  593TIP3    H1 1785   4.041   5.362   0.132 -0.6226 -0.0605 -0.8498
  593TIP3    H2 1786   4.005   5.220   0.094 -0.9550 -0.2450  0.1181
  594TIP3   OH2 1787   0.323   4.014   0.487 -0.3419 -0.0057  0.1548
  594TIP3    H1 1788   0.370   4.029   0.569 -0.6903 -0.0135  0.3600
  594TIP3    H2 1789   0.320   3.919   0.478 -0.3164 -0.0052  0.1420
  595TIP3   OH2 1790   4.482   3.548   4.194  0.0545  0.7871 -0.0774
  595TIP3    H1 1791   4.573   3.577   4.181  0.3795 -0.1994 -0.1072
  595TIP3    H2 1792   4.439   3.622   4.237  0.8115  1.3599 -0.2771
  596TIP3   OH2 1793   3.016   0.997   2.016 -0.4228 -0.7224 -0.2808
  596TIP3    H1 1794   3.095   0.954   2.048  0.4495 -1.1001 -2.7495
  596TIP3    H2 1795   3.044   1.047   1.939 -1.5877  3.5085  1.7396
  597TIP3   OH2 1796   4.245   0.289   4.448 -0.0731 -0.0972 -0.7346
  597TIP3    H1 1797   4.173   0.242   4.405 -0.8515  2.0379 -1.8740
  597TIP3    H2 1798   4.307   0.308   4.378  2.0389 -2.4505  0.3260
  598TIP3   OH2 1799   1.140   5.710   0.670  0.1410  0.0022 -0.0699
  598TIP3    H1 1800   1.104   5.709   0.759 -0.8132 -0.5692 -0.4476
  598TIP3    H2 1801   1.080   5.765   0.620 -0.2574 -1.0067 -0.7232
  599TIP3   OH2 1802   3.967   1.536   3.826 -0.1248 -0.1153 -0.5311
  599TIP3    H1 1803   3.975   1.606   3.891 -1.4039 -0.6033  0.1893
  599TIP3    H2 1804   3.930   1.462   3.875 -2.0202 -0.2013 -1.9875
  600TIP3   OH2 1805   0.209   0.144   0.673  0.0372 -0.8094  0.5673
  600TIP3    H1 1806   0.150   0.183   0.737  0.2095 -1.0309  0.8604
  600TIP3    H2 1807   0.153   0.087   0.620 -0.6918  1.4858 -1.3232
  601TIP3   OH2 1808   6.154   0.405   5.142 -0.2783  0.3194 -0.1490
  601TIP3    H1 1809   6.117   0.346   5.208 -2.7680  0.3350 -1.3963
  601TIP3    H2 1810   6.161   0.490   5.186  1.9409 -0.4768  1.2140
  602TIP3   OH2 1811   1.994   5.431   1.687  0.3499 -0.5102  0.3856
  602TIP3    H1 1812   1.947   5.394   1.613 -1.5278 -0.2891  1.4118
  602TIP3    H2 1813   1.980   5.526   1.679  0.8795 -0.4112  0.5617
  603TIP3   OH2 1814   3.693   3.630   1.935  0.2184  0.4434 -0.5772
  603TIP3    H1 1815   3.747   3.705   1.912  1.7844 -0.1957  0.8060
  603TIP3    H2 1816   3.752   3.554   1.927 -0.3290 -0.2467  1.2320
  604TIP3   OH2 1817   2.349   4.945   3.300 -0.3952 -0.0887  0.0756
  604TIP3    H1 1818   2.330   4.853   3.280 -0.1943  0.1023 -1.0723
  604TIP3    H2 1819   2.444   4.952   3.295 -0.4862  0.7107 -2.6049
  605TIP3   OH2 1820   2.934   4.591   4.194  0.6409  0.4248  0.6047
  605TIP3    H1 1821   2.886   4.665   4.157  1.2664  0.9516  0.8336
  605TIP3    H2 1822   2.988   4.558   4.122  1.6545  1.2802  0.9528
  606TIP3   OH2 1823   3.826   4.337   4.262  0.0170  0.0926  0.3395
  606TIP3    H1 1824   3.756   4.400   4.244  1.2822  1.3176 -0.5030
  606TIP3    H2 1825   3.793   4.254   4.228 -1.1223  0.5883  0.1902
  607TIP3   OH2 1826   2.922   3.280   1.880 -0.2075  0.1333 -0.3879
  607TIP3    H1 1827   2.948   3.240   1.962  0.8975  1.6793  0.0652
  607TIP3    H2 1828   2.980   3.241   1.815 -0.3001 -0.2390 -0.2514
  608TIP3   OH2 1829   2.142   1.948   0.875 -0.3231 -0.0208  0.3854
  608TIP3    H1 1830   2.151   1.853   0.882 -0.0673 -0.1550 -1.3741
  608TIP3    H2 1831   2.082   1.972   0.946 -0.7327 -1.5410  0.5742
  609TIP3   OH2 1832   1.273   2.287   2.763  0.0441 -0.0715 -0.3886
  609TIP3    H1 1833   1.193   2.256   2.721  0.9002 -0.5323 -1.7757
  609TIP3    H2 1834   1.288   2.226   2.834 -0.6819 -0.1497 -0.2969
  610TIP3   OH2 1835   2.006   4.224   0.209 -1.1291 -0.0289  0.9060
  610TIP3    H1 1836   2.077   4.287   0.219  1.0960 -1.5190 -3.0324
  610TIP3    H2 1837   1.930   4.276   0.184  0.5514  1.3119 -1.8877
  611TIP3   OH2 1838   1.899   1.291   3.256  0.1964  0.0130  0.0355
  611TIP3    H1 1839   1.917   1.244   3.337  0.9811  3.6071  2.1496
  611TIP3    H2 1840   1.854   1.226   3.200  0.0192 -2.7575  3.0893
  612TIP3   OH2 1841   3.640   2.884   3.556  0.4727 -0.1524 -0.1441
  612TIP3    H1 1842   3.647   2.871   3.651  1.5046  1.2617 -0.0030
  612TIP3    H2 1843   3.712   2.832   3.520 -0.8578 -1.9773 -0.3274
  613TIP3   OH2 1844   0.016   1.122   2.335  0.1434  0.1097  0.3606
  613TIP3    H1 1845   0.047   1.141   2.247 -1.7778 -0.6432 -0.5371
  613TIP3    H2 1846   0.005   1.027   2.336 -1.5252  0.2821  0.8004
  614TIP3   OH2 1847   2.717   4.068   2.049 -0.1809  0.0155 -0.0095
  614TIP3    H1 1848   2.792   4.122   2.023  0.3229 -0.1642  1.0262
  614TIP3    H2 1849   2.750   4.016   2.122 -1.7466  1.0342  1.4903
  615TIP3   OH2 1850   3.471   1.915   2.866  0.0915  0.7938  0.7531
  615TIP3    H1 1851   3.422   1.834   2.865  1.1811  0.1161 -0.7221
  615TIP3    H2 1852   3.412   1.979   2.906 -1.3364 -0.3608  0.5321
  616TIP3   OH2 1853   4.845   1.394   3.303 -0.0422  0.0920  0.3126
  616TIP3    H1 1854   4.929   1.352   3.288 -0.6871 -0.4133 -2.4746
  616TIP3    H2 1855   4.833   1.451   3.226 -1.1741  2.0487  1.8387
  617TIP3   OH2 1856   0.676   0.451   0.407  0.0495  0.3513 -0.0217
  617TIP3    H1 1857   0.610   0.459   0.339 -0.3690  1.8490  0.5168
  617TIP3    H2 1858   0.727   0.532   0.400  0.4863  0.1704  0.9255
  618TIP3   OH2 1859   5.295   4.992   3.050 -0.6127 -0.9089 -0.2340
  618TIP3    H1 1860   5.252   4.970   3.133 -0.3752 -0.5071  0.0021
  618TIP3    H2 1861   5.371   4.935   3.046 -1.0846 -1.5273 -0.5881
  619TIP3   OH2 1862   0.194   3.016   3.894 -0.0150  0.5891 -0.0154
  619TIP3    H1 1863   0.284   2.983   3.886 -0.0034  0.8547 -1.1706
  619TIP3    H2 1864   0.173   3.048   3.806 -1.2222  0.5808  0.2626
  620TIP3   OH2 1865   2.016   1.581   2.796  0.1324 -0.0678 -0.1463
  620TIP3    H1 1866   1.993   1.584   2.889 -0.2313 -1.3404 -0.1712
  620TIP3    H2 1867   2.091   1.640   2.788 -0.9617  1.4994  0.5889
  621TIP3   OH2 1868   3.483   2.442   0.100 -0.1709  0.0333 -0.1612
  621TIP3    H1 1869   3.505   2.535   0.101 -1.1286  0.2754 -0.5832
  621TIP3    H2 1870   3.527   2.406   0.177  1.6028  0.4901 -0.9205
  622TIP3   OH2 1871   5.869   3.373   1.052  0.2368  0.4482 -0.0283
  622TIP3    H1 1872   5.880   3.378   1.147 -1.6731 -0.4496  0.2930
  622TIP3    H2 1873   5.891   3.461   1.020  1.7129  0.5196  1.1248
  623TIP3   OH2 1874   5.571   5.845   4.700  0.3444 -0.1679 -0.0879
  623TIP3    H1 1875   5.510   5.839   4.627  1.3212 -2.3654 -0.7942
  623TIP3    H2 1876   5.517   5.832   4.778 -0.2474 -1.1311 -0.6473
  624TIP3   OH2 1877   5.034   3.501   3.202 -0.0805 -0.2391  0.3189
  624TIP3    H1 1878   5.127   3.498   3.180 -0.2332 -0.2054 -0.3655
  624TIP3    H2 1879   4.994   3.552   3.132 -0.4088  1.0386  1.3955
  625TIP3   OH2 1880   5.586   3.003   4.031  0.0829 -0.4399  0.2838
  625TIP3    H1 1881   5.563   2.938   3.964  1.1673  1.1346 -1.7558
  625TIP3    H2 1882   5.678   3.022   4.015 -0.1356  1.3846  0.9966
  626TIP3   OH2 1883   5.838   1.036   3.530 -0.1782  0.4085  0.7340
  626TIP3    H1 1884   5.904   1.082   3.479 -1.5763 -2.0493 -3.9057
  626TIP3    H2 1885   5.767   1.100   3.540  0.2621  1.0496 -0.1460
  627TIP3   OH2 1886   2.099   2.541   0.702  0.4571  0.2640 -0.3589
  627TIP3    H1 1887   2.138   2.506   0.622  1.9228 -2.5307  1.4034
  627TIP3    H2 1888   2.005   2.545   0.682  0.9789  2.1040 -2.9657
  628TIP3   OH2 1889   5.852   1.216   4.992  0.0588 -0.2388 -0.5420
  628TIP3    H1 1890   5.798   1.282   5.035 -2.7352 -1.6357 -1.6673
  628TIP3    H2 1891   5.877   1.155   5.063 -2.2017 -1.0348 -0.3451
  629TIP3   OH2 1892   5.150   5.237   1.956  0.3455 -0.0313 -0.2131
  629TIP3    H1 1893   5.223   5.176   1.967  1.0849  1.0760  1.3715
  629TIP3    H2 1894   5.188   5.311   1.909  0.1984  0.4325  0.3837
  630TIP3   OH2 1895   4.881   4.422   4.543  0.3900  0.3639 -0.4703
  630TIP3    H1 1896   4.837   4.507   4.553 -1.9502 -0.7664 -0.5006
  630TIP3    H2 1897   4.832   4.363   4.600  1.6503 -1.1005 -0.8454
  631TIP3   OH2 1898   5.378   1.508   1.783  0.3440  0.4697 -0.4051
  631TIP3    H1 1899   5.360   1.465   1.867 -1.9293  1.6397 -0.2004
  631TIP3    H2 1900   5.375   1.437   1.719 -2.1623  0.0642  0.0509
  632TIP3   OH2 1901   1.447   5.186   2.017  0.3455 -0.1754 -0.0978
  632TIP3    H1 1902   1.539   5.195   1.991  0.6443 -0.5456  0.7824
  632TIP3    H2 1903   1.409   5.272   2.002  1.3259  0.5494  1.3438
  633TIP3   OH2 1904   2.019   3.009   4.052  0.4099 -0.4993 -0.6476
  633TIP3    H1 1905   2.008   3.044   4.140  0.8813 -1.9333  0.0206
  633TIP3    H2 1906   2.018   3.085   3.995 -2.2441  0.3126  0.3288
  634TIP3   OH2 1907   0.359   2.658   0.647 -0.5881 -0.3501 -0.5890
  634TIP3    H1 1908   0.312   2.657   0.730 -1.2002 -0.7728 -0.9334
  634TIP3    H2 1909   0.411   2.738   0.650 -0.7996 -0.2324  0.0932
  635TIP3   OH2 1910   5.594   2.056   1.764  0.4664  0.2226  0.1850
  635TIP3    H1 1911   5.584   2.005   1.845 -1.0626  0.0880 -0.0486
  635TIP3    H2 1912   5.591   2.147   1.793 -3.1396  0.2726  0.1115
  636TIP3   OH2 1913   4.144   4.650   2.277  0.3755 -0.4756  0.2023
  636TIP3    H1 1914   4.137   4.741   2.248  1.1554 -0.7262 -0.8132
  636TIP3    H2 1915   4.104   4.650   2.364 -0.3647  0.6711 -0.1112
  637TIP3   OH2 1916   5.674  -0.003   1.731 -0.2283  0.1329  0.3144
  637TIP3    H1 1917   5.697   0.009   1.823  1.0853 -0.4530  0.0987
  637TIP3    H2 1918   5.717   0.070   1.686 -2.0982  1.2761  0.3009
  638TIP3   OH2 1919   2.562   4.550   3.067  0.1165  0.1260 -0.1240
  638TIP3    H1 1920   2.513   4.479   3.025  1.3169  0.4739 -2.2429
  638TIP3    H2 1921   2.605   4.508   3.142  1.0428 -1.4874 -1.5013
  639TIP3   OH2 1922   1.098   3.903   2.172 -0.3030  0.6582  0.2548
  639TIP3    H1 1923   1.037   3.833   2.196  2.2843 -1.6963  0.4229
  639TIP3    H2 1924   1.078   3.974   2.235 -0.9352 -1.1434  2.2119
  640TIP3   OH2 1925   2.737   0.966   1.567  0.0190  0.3148  0.5279
  640TIP3    H1 1926   2.741   0.922   1.482  0.2922 -0.1545  0.7812
  640TIP3    H2 1927   2.785   0.908   1.627 -0.5536  0.4189  1.0985
  641TIP3   OH2 1928   5.866   0.342   3.535  0.1158  0.2833 -0.0570
  641TIP3    H1 1929   5.931   0.408   3.509 -1.0026  1.2455 -0.4906
  641TIP3    H2 1930   5.906   0.299   3.611  0.2422  2.5506  1.2680
  642TIP3   OH2 1931   4.675   5.693   3.741 -0.1936 -0.5295 -0.7588
  642TIP3    H1 1932   4.661   5.602   3.767 -1.2411 -0.4085 -0.8237
  642TIP3    H2 1933   4.754   5.692   3.687  0.8175 -1.1154  0.6669
  643TIP3   OH2 1934   3.303   2.093   3.559  0.4437  0.6315 -0.5407
  643TIP3    H1 1935   3.267   2.101   3.470  0.4860 -0.7266 -0.6888
  643TIP3    H2 1936   3.350   2.175   3.572  2.8015 -0.2090 -2.8501
  644TIP3   OH2 1937   5.751  -0.027   1.278  0.7182 -0.1506  0.5716
  644TIP3    H1 1938   5.824  -0.014   1.217  3.3487  2.6121  3.9258
  644TIP3    H2 1939   5.699   0.053   1.269  0.0847 -0.5413  0.7264
  645TIP3   OH2 1940   5.543   3.402   2.055  0.3408  0.4985  0.0416
  645TIP3    H1 1941   5.628   3.439   2.079  0.1224  0.7261  0.4806
  645TIP3    H2 1942   5.539   3.319   2.103  0.4445  0.3373 -0.2251
  646TIP3   OH2 1943   1.032   3.075   0.748 -0.0064  0.2100  0.7361
  646TIP3    H1 1944   1.079   3.145   0.702  1.6872 -0.8291  0.7956
  646TIP3    H2 1945   0.987   3.027   0.679 -0.6683  0.9684  0.6267
  647TIP3   OH2 1946   1.147   2.540   4.668  0.1937  0.4567  0.3529
  647TIP3    H1 1947   1.235   2.549   4.703 -0.8938  1.4490  3.0505
  647TIP3    H2 1948   1.153   2.579   4.580  2.5561 -0.1910  0.1436
  648TIP3   OH2 1949   0.916   5.367   1.011  0.4818  0.4444  0.1663
  648TIP3    H1 1950   0.867   5.399   1.088  2.1713 -0.1607  1.5531
  648TIP3    H2 1951   0.932   5.275   1.030  0.9067  0.2846 -0.9449
  649TIP3   OH2 1952   1.449   3.250   2.435 -0.3685 -0.6430 -0.2267
  649TIP3    H1 1953   1.483   3.275   2.349  1.5408  0.5985  0.8170
  649TIP3    H2 1954   1.484   3.162   2.450 -0.0353 -0.5416 -0.3887
  650TIP3   OH2 1955   0.913   3.248   1.784 -0.3305 -0.2750 -0.3629
  650TIP3    H1 1956   1.005   3.274   1.789 -1.0210  2.8442 -1.3816
  650TIP3    H2 1957   0.898   3.198   1.864  1.6854  1.1431  0.9956
  651TIP3   OH2 1958   3.127   1.219   2.451  0.0225 -0.3832  0.2862
  651TIP3    H1 1959   3.108   1.226   2.357  0.7728 -0.4670  0.1258
  651TIP3    H2 1960   3.194   1.151   2.457  1.9781  1.4776  0.5934
  652TIP3   OH2 1961   2.198   1.780   4.406  0.0055  0.1455  0.4511
  652TIP3    H1 1962   2.261   1.725   4.360 -0.4442  0.3934 -0.4732
  652TIP3    H2 1963   2.234   1.788   4.495  1.2890  0.3027 -0.0615
  653TIP3   OH2 1964   5.106   2.410   0.364  0.7050  0.1827  0.0899
  653TIP3    H1 1965   5.122   2.483   0.423 -0.2388 -0.3629  1.0517
  653TIP3    H2 1966   5.042   2.444   0.301  1.2741  0.5807 -0.2916
  654TIP3   OH2 1967   4.246   5.029   2.692 -0.1127 -0.0227 -0.1764
  654TIP3    H1 1968   4.183   5.101   2.693 -1.1482 -0.9183  0.6677
  654TIP3    H2 1969   4.222   4.977   2.615 -1.1331 -0.9588  0.7391
  655TIP3   OH2 1970   4.918   4.000   3.480  0.4114 -0.2244 -0.0641
  655TIP3    H1 1971   4.897   4.046   3.398 -0.5057 -0.0858  0.2396
  655TIP3    H2 1972   4.967   4.063   3.532  0.5164 -0.1252 -0.2822
  656TIP3   OH2 1973   5.906   1.952   2.622 -0.1607  0.2810 -0.3957
  656TIP3    H1 1974   5.993   1.930   2.656 -0.0786  1.0948 -0.0561
  656TIP3    H2 1975   5.845   1.903   2.678  0.1091 -2.1649 -2.0708
  657TIP3   OH2 1976   2.485   2.254   2.610 -0.3337 -0.3375  0.1224
  657TIP3    H1 1977   2.460   2.162   2.622  0.3447 -0.5057  0.2607
  657TIP3    H2 1978   2.519   2.258   2.521  0.6396 -0.4568  0.4766
  658TIP3   OH2 1979   0.145   3.665   2.117  0.2755  0.2699  0.0713
  658TIP3    H1 1980   0.211   3.596   2.112  1.0580  0.9375  0.7956
  658TIP3    H2 1981   0.175   3.731   2.054 -0.7997 -0.3168 -1.0676
  659TIP3   OH2 1982   4.785   5.694   4.661 -0.1739  0.2078  0.0142
  659TIP3    H1 1983   4.726   5.764   4.635  0.2897  0.0403 -1.5630
  659TIP3    H2 1984   4.808   5.716   4.752 -0.3955  1.8462 -0.2838
  660TIP3   OH2 1985   2.161   2.649   0.951  0.6647 -0.1641  0.4883
  660TIP3    H1 1986   2.092   2.712   0.965 -0.6056 -1.6481  1.2125
  660TIP3    H2 1987   2.154   2.626   0.858  0.9130  0.5006  0.3047
  661TIP3   OH2 1988   1.219   1.275   0.399 -0.1071 -0.2809  0.5993
  661TIP3    H1 1989   1.162   1.265   0.323 -0.3909  0.0053  0.7752
  661TIP3    H2 1990   1.275   1.197   0.397 -0.9296 -0.8929  0.7938
  662TIP3   OH2 1991   5.723   1.337   1.607 -0.2067 -0.6890  0.2091
  662TIP3    H1 1992   5.755   1.264   1.659 -0.3703 -1.4946 -0.7914
  662TIP3    H2 1993   5.659   1.298   1.548  0.4208  0.0793 -1.0221
  663TIP3   OH2 1994   2.961   4.893   2.828 -0.3589 -0.2212  0.0062
  663TIP3    H1 1995   3.046   4.912   2.789 -1.4943  1.2489 -1.9380
  663TIP3    H2 1996   2.907   4.863   2.754 -1.6123 -0.9250  1.1481
  664TIP3   OH2 1997   6.053   2.353   2.374  0.0597 -0.2399  0.4721
  664TIP3    H1 1998   6.045   2.271   2.423  2.4782 -0.8405 -0.0427
  664TIP3    H2 1999   6.141   2.351   2.337 -1.2979  0.6372 -3.1610
  665TIP3   OH2 2000   1.260   1.023   4.737 -0.0322 -0.0263 -0.7157
  665TIP3    H1 2001   1.316   1.026   4.815 -1.1801  0.0059  0.1194
  665TIP3    H2 2002   1.175   1.053   4.768 -0.6966 -0.7387 -1.8301
  666TIP3   OH2 2003   0.596   3.522   2.809  0.1113 -0.0087  0.3140
  666TIP3    H1 2004   0.504   3.543   2.828 -0.4134  0.3321 -2.1988
  666TIP3    H2 2005   0.645   3.598   2.841 -0.6571  0.4691  0.4014
  667TIP3   OH2 2006   4.959   5.697   2.266  0.0822  0.5360  0.3465
  667TIP3    H1 2007   4.864   5.710   2.265  0.2543  1.9238 -0.9572
  667TIP3    H2 2008   4.995   5.785   2.259  1.4777 -0.0388 -0.0169
  668TIP3   OH2 2009   0.836   0.771   1.273  0.0559  0.6031  0.0061
  668TIP3    H1 2010   0.891   0.850   1.269  0.6743  0.1946  0.3267
  668TIP3    H2 2011   0.810   0.765   1.365 -0.6899  0.8890 -0.1712
  669TIP3   OH2 2012   0.655   4.050   0.926 -0.1672 -0.8036 -0.1840
  669TIP3    H1 2013   0.708   4.127   0.946  0.9233 -1.0200 -1.9564
  669TIP3    H2 2014   0.588   4.082   0.866 -1.3721 -0.7557  1.1565
  670TIP3   OH2 2015   4.336   1.916   1.333  0.2539 -0.2364  0.1066
  670TIP3    H1 2016   4.395   1.928   1.408 -1.1318  1.2674  1.0418
  670TIP3    H2 2017   4.249   1.926   1.371 -0.4950  0.3136 -1.6844
  671TIP3   OH2 2018   5.121   1.316   4.211  0.4802 -0.8733  0.1825
  671TIP3    H1 2019   5.167   1.315   4.127  0.2468  1.4747 -0.0304
  671TIP3    H2 2020   5.047   1.256   4.199  1.6290 -2.2309 -0.5232
  672TIP3   OH2 2021   3.713   1.940   3.111 -0.6806  0.2226 -0.0390
  672TIP3    H1 2022   3.767   2.014   3.136  1.4552 -1.2116 -0.1079
  672TIP3    H2 2023   3.725   1.932   3.016  0.6519 -1.2410  0.1940
  673TIP3   OH2 2024   1.483   3.127   4.446  0.2839  0.2016  0.4044
  673TIP3    H1 2025   1.517   3.063   4.509  0.2899  1.0391  1.2775
  673TIP3    H2 2026   1.523   3.101   4.362  0.7367 -0.5885  0.8475
  674TIP3   OH2 2027   3.245   2.468   3.296 -0.3366  0.1615 -0.2824
  674TIP3    H1 2028   3.199   2.529   3.238  0.9037  2.2488  0.8284
  674TIP3    H2 2029   3.327   2.449   3.251 -0.7848 -0.8814 -0.6992
  675TIP3   OH2 2030   4.479   5.997   4.064 -0.0023 -0.4771  0.1370
  675TIP3    H1 2031   4.533   5.925   4.032 -0.2771 -1.4303  1.7064
  675TIP3    H2 2032   4.392   5.960   4.072 -0.3274  0.2809  0.1581
  676TIP3   OH2 2033   2.889   4.189   0.154 -0.6246  0.1860 -0.0684
  676TIP3    H1 2034   2.840   4.123   0.203 -0.0917 -1.0250 -1.1326
  676TIP3    H2 2035   2.943   4.233   0.220 -0.5661 -0.8208  0.5640
  677TIP3   OH2 2036   4.979   2.294   4.271  0.2563 -0.8678 -0.5326
  677TIP3    H1 2037   4.996   2.331   4.184  0.3469  0.3956 -0.0043
  677TIP3    H2 2038   4.886   2.310   4.287  0.6680  0.8052  0.4236
  678TIP3   OH2 2039   3.770   0.489   1.911  0.3829  0.2055  0.3647
  678TIP3    H1 2040   3.801   0.399   1.920  0.3692 -0.0484 -1.5951
  678TIP3    H2 2041   3.839   0.543   1.950 -0.1316 -0.6632  2.5996
  679TIP3   OH2 2042   2.308   0.953   2.033 -0.3605  0.3666  0.4243
  679TIP3    H1 2043   2.374   0.895   1.993 -0.0871  1.9377 -1.5605
  679TIP3    H2 2044   2.358   1.031   2.058 -0.9683  0.3388  1.8102
  680TIP3   OH2 2045   2.178   2.792   3.986 -0.0873 -0.0594  0.1860
  680TIP3    H1 2046   2.113   2.721   3.987  1.7552 -1.8307  0.8329
  680TIP3    H2 2047   2.131   2.868   4.020 -2.3695 -0.7125 -1.2998
  681TIP3   OH2 2048   6.317   2.262   4.560 -0.7672  0.1390  0.0590
  681TIP3    H1 2049   6.277   2.339   4.520 -1.8658 -0.0133  0.8204
  681TIP3    H2 2050   6.256   2.191   4.541 -1.0640 -0.0384  1.5389
  682TIP3   OH2 2051   2.439   0.183   2.460 -0.3141  0.3087 -0.1063
  682TIP3    H1 2052   2.484   0.130   2.527  0.4870  1.5350  0.3729
  682TIP3    H2 2053   2.347   0.181   2.486 -0.0861  0.3261  0.7382
  683TIP3   OH2 2054   5.074   0.906   1.492 -0.2753  0.3120 -0.5408
  683TIP3    H1 2055   5.082   0.812   1.474 -1.6237  0.3003 -1.2157
  683TIP3    H2 2056   5.029   0.911   1.576 -0.7658  0.3238 -0.7932
  684TIP3   OH2 2057   4.518   3.110   2.103 -0.7907  0.1207  0.2411
  684TIP3    H1 2058   4.468   3.186   2.075  0.1938  0.8674  0.4586
  684TIP3    H2 2059   4.584   3.098   2.035 -0.4915 -0.0943  0.5654
  685TIP3   OH2 2060   2.523   3.097   0.377  0.4172 -0.2188  0.0780
  685TIP3    H1 2061   2.546   3.168   0.317 -0.4614 -0.5123 -0.6068
  685TIP3    H2 2062   2.585   3.108   0.450  0.3145  1.2416 -0.0144
  686TIP3   OH2 2063   0.105   2.289   1.464 -0.0320 -0.0494  0.3653
  686TIP3    H1 2064   0.160   2.261   1.537  0.5756 -0.6599 -0.3092
  686TIP3    H2 2065   0.158   2.272   1.386 -1.1896 -0.6954 -0.3123
  687TIP3   OH2 2066   6.344   4.944   4.883 -0.1160 -0.3773 -0.3319
  687TIP3    H1 2067   6.343   4.996   4.963  0.7870 -1.1502  0.2021
  687TIP3    H2 2068   6.282   4.988   4.825 -0.1673  0.6719  0.4869
  688TIP3   OH2 2069   4.578   4.646   0.569  0.0985 -0.5067  0.2564
  688TIP3    H1 2070   4.595   4.694   0.488 -0.9062 -0.4497  0.0652
  688TIP3    H2 2071   4.485   4.624   0.565 -0.0877 -0.0452  1.6484
  689TIP3   OH2 2072   1.428   5.266   0.522  0.8295 -0.2387 -0.2627
  689TIP3    H1 2073   1.394   5.344   0.566  0.1112  0.9552 -2.7180
  689TIP3    H2 2074   1.523   5.272   0.532  0.6864 -0.4252  1.6370
  690TIP3   OH2 2075   4.553   1.048   2.195 -0.2702  0.5309 -0.0269
  690TIP3    H1 2076   4.581   1.098   2.271  0.2688  0.1484  0.0292
  690TIP3    H2 2077   4.461   1.030   2.210  0.0481 -0.3419  0.9864
  691TIP3   OH2 2078   2.575   1.752   1.720 -0.5407  0.1509 -0.8750
  691TIP3    H1 2079   2.608   1.787   1.803  0.9907 -1.1376 -0.8897
  691TIP3    H2 2080   2.483   1.732   1.737 -0.6128  1.1943  0.0800
  692TIP3   OH2 2081   4.989   0.230   2.853  0.2280 -0.4677 -0.1868
  692TIP3    H1 2082   5.007   0.199   2.941 -0.0439  1.6737  0.6905
  692TIP3    H2 2083   5.045   0.177   2.796  2.3389 -0.1843  1.5246
  693TIP3   OH2 2084   6.223   0.575   3.032  0.0155 -0.0594  0.3114
  693TIP3    H1 2085   6.181   0.554   3.116 -0.7728  1.0327  0.2101
  693TIP3    H2 2086   6.282   0.501   3.016 -0.9339 -1.0233  1.0889
  694TIP3   OH2 2087   3.561   4.829   0.392  0.2026  0.3218 -0.0224
  694TIP3    H1 2088   3.547   4.837   0.486 -0.9705 -1.7092  0.0241
  694TIP3    H2 2089   3.644   4.782   0.383 -0.9623 -1.8857  0.1252
  695TIP3   OH2 2090   3.556   2.722   4.446  0.1312  0.1500  0.1046
  695TIP3    H1 2091   3.601   2.778   4.382  2.3227 -0.6089  0.8849
  695TIP3    H2 2092   3.553   2.774   4.526 -3.2586  1.3851 -0.6585
  696TIP3   OH2 2093   0.478   5.266   3.721  0.2256 -0.0476  0.6385
  696TIP3    H1 2094   0.464   5.360   3.728  0.1002  0.0094 -0.2897
  696TIP3    H2 2095   0.499   5.251   3.629  2.1804 -0.6800  1.1223
  697TIP3   OH2 2096   0.119   5.121   4.360 -0.4506  0.1233  0.0753
  697TIP3    H1 2097   0.087   5.207   4.335 -1.1168 -0.2868 -0.5189
  697TIP3    H2 2098   0.214   5.127   4.350 -0.6230  0.1833 -2.0275
  698TIP3   OH2 2099   3.569   2.145   1.426 -0.2594 -0.4743  0.2600
  698TIP3    H1 2100   3.503   2.103   1.372 -0.4182  0.0906  0.0031
  698TIP3    H2 2101   3.624   2.074   1.457 -0.4513 -0.8524 -0.2598
  699TIP3   OH2 2102   3.985   0.144   4.509  0.1232  0.3291 -0.1550
  699TIP3    H1 2103   3.945   0.140   4.423 -0.6939  0.4616  0.2065
  699TIP3    H2 2104   3.911   0.158   4.569  0.8460  2.3578  0.3645
  700TIP3   OH2 2105   0.712   3.497   1.949  0.3319 -0.1004 -0.0116
  700TIP3    H1 2106   0.785   3.485   2.009 -0.3976  1.1428  1.1655
  700TIP3    H2 2107   0.752   3.524   1.867  1.3279 -1.6269 -0.0642
  701TIP3   OH2 2108   5.873   4.528   0.497  0.7088  0.8977 -0.3776
  701TIP3    H1 2109   5.796   4.477   0.474  1.2217  0.4842 -1.2274
  701TIP3    H2 2110   5.854   4.617   0.468  0.8107  0.6577 -1.1834
  702TIP3   OH2 2111   1.352   1.192   2.617 -0.0098 -0.0316  0.0830
  702TIP3    H1 2112   1.382   1.144   2.694 -2.0425  0.1436  1.0549
  702TIP3    H2 2113   1.349   1.283   2.645 -0.2715  0.1044 -0.3765
  703TIP3   OH2 2114   3.629   2.190   5.084 -0.6761 -0.0340  0.7639
  703TIP3    H1 2115   3.594   2.213   4.998 -0.8551  0.5212  0.9765
  703TIP3    H2 2116   3.635   2.274   5.130 -0.6117 -0.3292  1.3024
  704TIP3   OH2 2117   4.630   3.284   4.180  0.0517  0.3046 -0.2879
  704TIP3    H1 2118   4.625   3.370   4.222  2.2883  0.9467 -1.1574
  704TIP3    H2 2119   4.643   3.304   4.087 -0.7974 -1.0181 -0.7148
  705TIP3   OH2 2120   3.214   1.886   0.681 -0.1552 -0.8205  0.1781
  705TIP3    H1 2121   3.161   1.807   0.672 -1.0301 -0.1503 -0.7851
  705TIP3    H2 2122   3.205   1.910   0.774 -0.4965 -1.4264  0.3087
  706TIP3   OH2 2123   1.740   0.735   4.618 -0.2626  0.0554 -0.1934
  706TIP3    H1 2124   1.781   0.711   4.534  2.1095  1.5212  0.4426
  706TIP3    H2 2125   1.756   0.659   4.674  1.1971  0.3812 -0.1242
  707TIP3   OH2 2126   0.677   3.771   2.275  0.3341 -0.6632 -0.0536
  707TIP3    H1 2127   0.608   3.707   2.261 -0.3537  0.1093 -0.3159
  707TIP3    H2 2128   0.757   3.728   2.244  0.0263 -1.6725  0.5147
  708TIP3   OH2 2129   6.053   1.092   0.949 -0.2516  0.4039 -0.2878
  708TIP3    H1 2130   6.084   1.169   0.996 -0.8325  1.2979 -1.3309
  708TIP3    H2 2131   6.076   1.109   0.858 -3.0713  0.7576 -1.0088
  709TIP3   OH2 2132   0.763   0.372   1.181  0.1020  0.3045  0.2828
  709TIP3    H1 2133   0.830   0.388   1.248  0.5710  1.3742 -0.4235
  709TIP3    H2 2134   0.705   0.307   1.220  0.3265  0.9580  1.7641
  710TIP3   OH2 2135   4.645   4.757   3.355  0.0463  0.2797  0.4021
  710TIP3    H1 2136   4.661   4.753   3.449 -2.4956 -0.3128  0.8923
  710TIP3    H2 2137   4.601   4.673   3.335 -0.4423  0.8532 -1.0737
  711TIP3   OH2 2138   0.674   1.539   0.685 -0.1480  0.0172 -0.3383
  711TIP3    H1 2139   0.640   1.618   0.726 -0.6852  1.2919 -3.0200
  711TIP3    H2 2140   0.655   1.550   0.592  1.6574 -2.3141 -1.0870
  712TIP3   OH2 2141   5.831   2.599   0.377  0.0076  0.1032 -0.6011
  712TIP3    H1 2142   5.833   2.695   0.371  1.8693  0.2463  1.0702
  712TIP3    H2 2143   5.781   2.581   0.456 -0.2482 -0.3012 -0.8540
  713TIP3   OH2 2144   5.241   2.341   3.416 -0.1463  0.1640  0.1793
  713TIP3    H1 2145   5.296   2.388   3.479  0.6124 -2.2395  1.4301
  713TIP3    H2 2146   5.151   2.361   3.444  0.1655  0.5726  0.9295
  714TIP3   OH2 2147   2.856   5.594   2.234 -0.1039  0.2696  0.4249
  714TIP3    H1 2148   2.836   5.505   2.207  0.6942 -0.3526  1.7891
  714TIP3    H2 2149   2.875   5.640   2.152  1.8340 -1.4142 -0.1531
  715TIP3   OH2 2150   1.110   4.976   0.354 -0.0082  0.0931 -0.4389
  715TIP3    H1 2151   1.150   4.917   0.291  0.6906  0.1853 -0.0883
  715TIP3    H2 2152   1.155   4.959   0.436  1.0961  1.9614 -0.5947
  716TIP3   OH2 2153   2.770   5.906   1.243  0.2672 -0.4409 -0.3075
  716TIP3    H1 2154   2.791   5.834   1.184 -1.4988 -0.3403 -1.1173
  716TIP3    H2 2155   2.678   5.893   1.264 -0.3462  2.0914 -1.2076
  717TIP3   OH2 2156   2.544   4.793   2.937  0.1847 -0.0234 -0.4356
  717TIP3    H1 2157   2.542   4.699   2.956  0.7908 -0.0662 -0.5330
  717TIP3    H2 2158   2.637   4.816   2.947 -0.2469  1.0140  1.6986
  718TIP3   OH2 2159   5.946   3.907   4.042 -0.7279  0.1599 -0.3427
  718TIP3    H1 2160   5.872   3.880   3.988 -1.5401 -1.2185  1.3797
  718TIP3    H2 2161   5.907   3.946   4.120  0.2998 -0.9405  0.7725
  719TIP3   OH2 2162   1.791   3.323   3.072 -0.6825  0.2286 -0.9711
  719TIP3    H1 2163   1.782   3.269   2.993  0.0137 -0.7264 -0.4155
  719TIP3    H2 2164   1.881   3.353   3.071 -0.3710 -0.6181 -0.0336
  720TIP3   OH2 2165   1.389   3.784   0.768 -0.5329 -0.3427 -0.7007
  720TIP3    H1 2166   1.469   3.739   0.794 -0.9593 -0.7906 -0.1327
  720TIP3    H2 2167   1.420   3.863   0.722  0.2386 -0.2233 -0.0107
  721TIP3   OH2 2168   2.172   2.698   4.877 -0.7187  0.1276 -0.3373
  721TIP3    H1 2169   2.151   2.785   4.843  0.3272 -0.1581 -1.7718
  721TIP3    H2 2170   2.267   2.689   4.865 -0.9668 -1.6684 -1.3770
  722TIP3   OH2 2171   4.808   5.533   3.303 -0.2068  0.2975  0.2238
  722TIP3    H1 2172   4.723   5.491   3.287  0.5749 -0.4642 -2.3921
  722TIP3    H2 2173   4.787   5.626   3.309 -1.2708  0.1044 -0.1284
  723TIP3   OH2 2174   4.015   5.668   1.752 -0.3082  0.6155  0.0579
  723TIP3    H1 2175   4.068   5.683   1.674  1.3685  0.2587  1.0634
  723TIP3    H2 2176   4.072   5.616   1.810 -1.2478  1.3931  1.7661
  724TIP3   OH2 2177   1.868   2.629   3.122 -0.1639 -0.3277 -0.5396
  724TIP3    H1 2178   1.773   2.621   3.119 -0.4500  2.3877 -1.9971
  724TIP3    H2 2179   1.895   2.623   3.030  0.8538  0.7434 -0.3357
  725TIP3   OH2 2180   2.976  -0.006   1.313  0.1778  0.0763 -0.6405
  725TIP3    H1 2181   3.010   0.069   1.362  1.7812 -0.7176 -0.4937
  725TIP3    H2 2182   3.042  -0.024   1.247 -0.0675 -1.3481 -0.5284
  726TIP3   OH2 2183   3.515   4.040   4.724  0.2096  0.0717 -0.1892
  726TIP3    H1 2184   3.584   4.080   4.670  1.6985 -1.8694  0.1740
  726TIP3    H2 2185   3.562   3.993   4.792 -1.5952  2.1008  2.6944
  727TIP3   OH2 2186   1.242   2.649   3.814  0.1903 -0.3271 -0.2412
  727TIP3    H1 2187   1.307   2.589   3.850  0.2937  0.2546  0.5574
  727TIP3    H2 2188   1.169   2.593   3.787 -0.3480 -0.7061  1.8532
  728TIP3   OH2 2189   6.112   2.448   4.824  0.0301  0.0195 -0.3366
  728TIP3    H1 2190   6.069   2.362   4.829  1.1262 -0.5741 -0.8514
  728TIP3    H2 2191   6.053   2.501   4.771 -0.8904 -0.2579  0.3746
  729TIP3   OH2 2192   5.785   3.151   3.758 -0.0856 -0.1555  0.2144
  729TIP3    H1 2193   5.827   3.091   3.820  1.6148  2.3505  1.6848
  729TIP3    H2 2194   5.702   3.175   3.799 -0.2604 -0.6473  0.1492
  730TIP3   OH2 2195   2.681   1.838   3.816 -0.1495 -0.1117 -0.0432
  730TIP3    H1 2196   2.743   1.903   3.782  0.3900  0.9778  2.7517
  730TIP3    H2 2197   2.596   1.881   3.810 -0.3580 -0.6730 -1.6462
  731TIP3   OH2 2198   5.719   0.706   2.934  0.6079  0.3443  0.4370
  731TIP3    H1 2199   5.799   0.670   2.894  1.1219  0.3807  1.4105
  731TIP3    H2 2200   5.751   0.761   3.006 -0.3089  0.2295  0.9413
  732TIP3   OH2 2201   0.960   2.567   4.066  0.3137 -0.2424 -0.0384
  732TIP3    H1 2202   1.034   2.536   4.118  1.9680  0.1777 -2.0005
  732TIP3    H2 2203   0.883   2.531   4.110  1.7116 -1.4082  1.6087
  733TIP3   OH2 2204   5.275   3.407   1.185  0.3127 -0.1497  0.3442
  733TIP3    H1 2205   5.322   3.424   1.266  2.4550  1.7021 -1.1746
  733TIP3    H2 2206   5.223   3.485   1.169  1.6881  0.5084 -1.1657
  734TIP3   OH2 2207   2.611   2.528   4.567 -0.2188 -0.8841  0.3852
  734TIP3    H1 2208   2.604   2.458   4.632 -0.5110 -0.7310  0.5187
  734TIP3    H2 2209   2.555   2.598   4.601  0.5722 -0.3345  0.5718
  735TIP3   OH2 2210   2.858   2.813   1.378 -0.0380  0.3097 -0.3992
  735TIP3    H1 2211   2.825   2.753   1.311  0.7574 -0.6898  0.0738
  735TIP3    H2 2212   2.780   2.859   1.409 -0.6047 -0.1460 -1.0956
  736TIP3   OH2 2213   3.375   4.780   4.961  0.3810  0.0038 -0.2401
  736TIP3    H1 2214   3.387   4.743   5.048 -0.5594 -0.9400 -0.4950
  736TIP3    H2 2215   3.464   4.799   4.931  0.7834 -0.6159  0.5194
  737TIP3   OH2 2216   4.023   2.994   3.377 -0.0389 -0.1993  0.2750
  737TIP3    H1 2217   4.001   3.086   3.366 -0.5927 -0.1923  1.3216
  737TIP3    H2 2218   4.026   2.981   3.471  2.8460 -0.6059  0.2101
  738TIP3   OH2 2219   6.294   4.384   1.176 -0.0382 -0.1901 -0.1032
  738TIP3    H1 2220   6.343   4.452   1.129 -4.1200  2.2090 -1.3654
  738TIP3    H2 2221   6.270   4.426   1.259  2.1710 -2.3576  1.8242
  739TIP3   OH2 2222   5.318   0.274   3.816  0.1740 -0.0893 -0.1624
  739TIP3    H1 2223   5.367   0.342   3.769  0.1329  0.3104  0.3618
  739TIP3    H2 2224   5.228   0.307   3.819  0.1859 -0.0892  0.2380
  740TIP3   OH2 2225   4.906   2.210   0.477  0.3418 -0.3256 -0.4749
  740TIP3    H1 2226   4.931   2.272   0.408  0.6864  0.6204  0.4717
  740TIP3    H2 2227   4.911   2.124   0.435 -0.1971  0.2840 -1.8345
  741TIP3   OH2 2228   0.562   1.001   1.896 -0.1770 -0.3004 -0.4201
  741TIP3    H1 2229   0.643   0.975   1.939  0.4677 -0.2376 -1.5686
  741TIP3    H2 2230   0.590   1.038   1.812 -1.2935  1.0622 -0.2222
  742TIP3   OH2 2231   5.191   0.245   2.514  0.6888  0.0438  0.2796
  742TIP3    H1 2232   5.117   0.306   2.514 -0.8485 -1.7206 -0.1030
  742TIP3    H2 2233   5.172   0.183   2.584  2.0354 -0.2176  0.4458
  743TIP3   OH2 2234   5.948   0.838   3.696 -0.0641  0.4681  0.2110
  743TIP3    H1 2235   6.040   0.832   3.671 -0.4701 -0.5288 -1.1374
  743TIP3    H2 2236   5.913   0.911   3.644  0.5319  2.7098  2.7393
  744TIP3   OH2 2237   2.833   0.823   4.597  0.3378  0.3405 -0.1774
  744TIP3    H1 2238   2.868   0.868   4.674 -1.5869  0.1004  0.8859
  744TIP3    H2 2239   2.893   0.750   4.583  0.9474  0.6243  0.8275
  745TIP3   OH2 2240   6.133   5.939   2.506 -0.2298 -0.0989 -0.4048
  745TIP3    H1 2241   6.149   5.867   2.567 -0.0620 -1.0302 -1.5080
  745TIP3    H2 2242   6.039   5.933   2.487  0.1029 -1.2385 -1.9098
  746TIP3   OH2 2243   2.441   4.041   2.024  0.0489  0.5254 -0.4835
  746TIP3    H1 2244   2.436   4.017   1.931 -1.7602  1.0473 -0.5666
  746TIP3    H2 2245   2.534   4.053   2.041  0.9675 -4.0641 -1.0403
  747TIP3   OH2 2246   0.210   1.748   3.218  0.0970  0.5887 -0.1740
  747TIP3    H1 2247   0.169   1.663   3.206  1.9770 -0.9706  3.0185
  747TIP3    H2 2248   0.288   1.746   3.163 -0.3849  0.7085 -0.8769
  748TIP3   OH2 2249   3.108   0.159   1.494 -0.3407 -0.2903  0.1737
  748TIP3    H1 2250   3.124   0.243   1.538  2.5819  0.4418 -2.0410
  748TIP3    H2 2251   3.125   0.093   1.562 -0.6515  0.8325  1.3891
  749TIP3   OH2 2252   3.355   2.623   1.657 -0.1913 -0.4537  0.1295
  749TIP3    H1 2253   3.291   2.694   1.657  1.0727  0.7462  0.8645
  749TIP3    H2 2254   3.414   2.644   1.730  1.1076 -1.4240 -0.5926
  750TIP3   OH2 2255   1.628   3.754   3.150  0.0590  0.0984 -0.1099
  750TIP3    H1 2256   1.572   3.720   3.219  0.0283 -1.7973 -0.9965
  750TIP3    H2 2257   1.716   3.750   3.186 -0.1397  0.9668  0.4915
  751TIP3   OH2 2258   5.212   1.043   2.350 -0.1710 -0.3838  0.3690
  751TIP3    H1 2259   5.239   0.952   2.366  2.0101 -0.1784 -1.6409
  751TIP3    H2 2260   5.123   1.036   2.316 -0.2692 -1.6951  0.8216
  752TIP3   OH2 2261   5.700   0.521   5.141  0.2313  0.0877 -0.2990
  752TIP3    H1 2262   5.663   0.578   5.209 -0.5583 -1.8945  1.0322
  752TIP3    H2 2263   5.756   0.460   5.189 -0.7542 -1.7049 -1.3177
  753TIP3   OH2 2264   5.245   3.618   2.455 -0.7520  0.0447  0.1876
  753TIP3    H1 2265   5.290   3.690   2.412  1.0194  0.0435  1.8990
  753TIP3    H2 2266   5.213   3.563   2.384 -1.9549  2.3448 -1.1583
  754TIP3   OH2 2267   5.040   4.567   2.481  0.8701  0.2678 -0.6685
  754TIP3    H1 2268   4.997   4.635   2.532  2.1111  0.5038  0.0988
  754TIP3    H2 2269   5.002   4.485   2.512 -1.1037  0.5838 -2.0461
  755TIP3   OH2 2270   2.487   0.809   0.199  0.1094  0.4275 -0.1098
  755TIP3    H1 2271   2.552   0.821   0.130 -0.5385  0.3525 -0.7412
  755TIP3    H2 2272   2.419   0.874   0.179 -0.4271 -0.0796  0.0401
  756TIP3   OH2 2273   4.411   0.448   3.081 -0.1326 -0.3659  0.2091
  756TIP3    H1 2274   4.390   0.533   3.041 -0.6927  0.1286  1.4870
  756TIP3    H2 2275   4.486   0.466   3.137 -0.1938 -0.7374  0.4101
  757TIP3   OH2 2276   3.698   5.640   2.405  0.5910 -0.0982 -0.6108
  757TIP3    H1 2277   3.662   5.572   2.348  1.6269 -0.1425 -1.2347
  757TIP3    H2 2278   3.781   5.665   2.364  0.5742  1.0356 -0.0050
  758TIP3   OH2 2279   6.234   5.320   4.243 -0.0516  0.1138  0.3674
  758TIP3    H1 2280   6.213   5.387   4.178  0.8047 -0.3086 -0.3604
  758TIP3    H2 2281   6.151   5.274   4.257 -0.3652  0.5433 -0.0360
  759TIP3   OH2 2282   4.592   5.314   4.280 -0.1604  0.0913  0.2134
  759TIP3    H1 2283   4.593   5.219   4.274 -0.2194  0.0920  0.1944
  759TIP3    H2 2284   4.681   5.337   4.309  0.0305  0.0637 -0.3360
  760TIP3   OH2 2285   0.532   0.237   1.304  0.1182  0.5738  0.8718
  760TIP3    H1 2286   0.458   0.221   1.363  0.5765 -0.5556  1.1571
  760TIP3    H2 2287   0.494   0.230   1.216 -0.3235  1.0964  1.0098
  761TIP3   OH2 2288   2.111   2.440   3.994  0.0690  0.0149 -0.1021
  761TIP3    H1 2289   2.055   2.365   3.976 -1.6056  0.9422  0.9423
  761TIP3    H2 2290   2.082   2.507   3.932  0.6150  0.2374 -0.1216
  762TIP3   OH2 2291   0.290   4.880   0.639  0.2132  0.5166  0.0046
  762TIP3    H1 2292   0.344   4.906   0.714 -0.2500  1.0536  0.1618
  762TIP3    H2 2293   0.333   4.922   0.564  0.6569  0.0073 -0.0348
  763TIP3   OH2 2294   0.000   4.804   0.053 -0.6218  0.1490 -0.4232
  763TIP3    H1 2295   0.011   4.717   0.091  1.1244  0.5413  0.0426
  763TIP3    H2 2296   0.046   4.800  -0.031  1.0996  1.1179  0.4233
  764TIP3   OH2 2297   4.787   3.849   5.195 -0.1777 -0.3477  0.5243
  764TIP3    H1 2298   4.749   3.920   5.141  1.4007  1.6852  1.9303
  764TIP3    H2 2299   4.839   3.798   5.133 -0.3930  0.4299 -0.3319
  765TIP3   OH2 2300   4.028   2.271   4.833  0.0947 -0.1131  0.0200
  765TIP3    H1 2301   4.001   2.284   4.924 -0.9261 -0.2327 -0.2518
  765TIP3    H2 2302   4.113   2.313   4.827  0.1885 -0.1260  1.0394
  766TIP3   OH2 2303   2.186   3.420   2.731 -0.6404 -0.4296 -0.2265
  766TIP3    H1 2304   2.176   3.329   2.702 -1.8166 -1.3378  2.6630
  766TIP3    H2 2305   2.097   3.449   2.751 -0.2215  1.1961 -0.5689
  767TIP3   OH2 2306   2.377   5.033   2.959 -0.5264  0.2119  0.2101
  767TIP3    H1 2307   2.427   4.951   2.966  0.2059  0.7421  1.4562
  767TIP3    H2 2308   2.350   5.052   3.049 -1.9747  0.5771 -0.2760
  768TIP3   OH2 2309   1.758   0.395   3.678  0.2773 -0.3190 -0.0024
  768TIP3    H1 2310   1.724   0.312   3.712  1.1058 -1.0656 -0.9539
  768TIP3    H2 2311   1.794   0.373   3.592 -0.6680  1.2755 -0.8665
  769TIP3   OH2 2312   6.128   1.732   2.066 -0.2317  0.6139  0.2931
  769TIP3    H1 2313   6.209   1.771   2.034  0.5265 -0.3354  1.0139
  769TIP3    H2 2314   6.134   1.738   2.161 -0.8086  0.1324  0.3685
  770TIP3   OH2 2315   0.473   1.853   2.747  0.6472  0.0548  0.3063
  770TIP3    H1 2316   0.449   1.913   2.676  1.4597  0.0296 -0.0067
  770TIP3    H2 2317   0.423   1.773   2.728  1.5368 -0.2730 -0.7709
  771TIP3   OH2 2318   3.255   2.609   2.917 -0.0534 -0.1083 -0.2853
  771TIP3    H1 2319   3.196   2.616   2.992  1.4321 -1.4157  1.0955
  771TIP3    H2 2320   3.330   2.665   2.941  0.3647 -0.4178 -0.8590
  772TIP3   OH2 2321   4.084   3.918   4.727  0.2487 -0.5279 -0.3143
  772TIP3    H1 2322   4.091   3.861   4.650  1.7444 -0.5521 -0.1959
  772TIP3    H2 2323   4.024   3.873   4.786 -0.0528 -1.0466 -1.0052
  773TIP3   OH2 2324   5.796   1.095   4.685 -0.5118  0.2469 -0.3841
  773TIP3    H1 2325   5.753   1.180   4.689  0.3059  0.7128 -1.0603
  773TIP3    H2 2326   5.796   1.063   4.775 -0.1564  1.3206  0.0074
  774TIP3   OH2 2327   5.204   1.325   2.044  0.0776 -0.1174 -0.0065
  774TIP3    H1 2328   5.124   1.298   2.089 -0.9132  0.6360 -1.2248
  774TIP3    H2 2329   5.212   1.418   2.066 -0.0494  0.0917 -0.8353
  775TIP3   OH2 2330   4.681   5.123   3.587 -0.2620 -0.3393  0.6928
  775TIP3    H1 2331   4.738   5.191   3.551  1.0942 -0.8169  1.8681
  775TIP3    H2 2332   4.676   5.142   3.680  0.4834 -2.0488  1.1312
  776TIP3   OH2 2333   6.330   2.749   1.098  0.3939  0.2508 -0.3298
  776TIP3    H1 2334   6.408   2.759   1.043 -0.5500  2.3430 -1.3922
  776TIP3    H2 2335   6.266   2.809   1.060 -1.4035 -0.6528  1.1370
  777TIP3   OH2 2336   0.164   1.621   4.059 -0.0593  0.3663 -0.3746
  777TIP3    H1 2337   0.166   1.567   3.980  0.1244  1.1282 -0.9101
  777TIP3    H2 2338   0.236   1.683   4.048  0.7368 -0.2868  0.9678
  778TIP3   OH2 2339   2.152   4.022   0.033  0.2046 -0.3624 -0.1420
  778TIP3    H1 2340   2.134   3.992   0.122 -2.0424 -1.4610 -0.8773
  778TIP3    H2 2341   2.148   4.117   0.039  0.2978 -0.4114  0.9768
  779TIP3   OH2 2342   2.924   5.749   0.696 -0.2309  0.6436 -0.1520
  779TIP3    H1 2343   2.961   5.743   0.608  1.6605  1.5735  0.5324
  779TIP3    H2 2344   2.896   5.660   0.716  0.9102  0.0490 -1.0570
  780TIP3   OH2 2345   0.445   5.055   1.746 -0.0687 -0.0206  0.3916
  780TIP3    H1 2346   0.537   5.044   1.772  0.3151  2.8417  0.5821
  780TIP3    H2 2347   0.399   5.064   1.829 -0.1453  0.8962  0.2513
  781TIP3   OH2 2348   1.933   5.485   0.693  0.3628  0.4087  0.2067
  781TIP3    H1 2349   1.992   5.506   0.621  0.4268 -1.5757 -0.3738
  781TIP3    H2 2350   1.897   5.569   0.719  1.4135  1.3469 -1.2045
  782TIP3   OH2 2351   4.736   1.502   3.931  0.1714  0.3975 -0.1098
  782TIP3    H1 2352   4.795   1.428   3.917  2.2288  1.3755  2.5981
  782TIP3    H2 2353   4.753   1.561   3.858  1.9202  0.2163  0.1141
  783TIP3   OH2 2354   1.055   1.743   0.109  0.0118  0.6934 -0.5537
  783TIP3    H1 2355   1.040   1.758   0.203 -2.9471 -0.5595 -0.7124
  783TIP3    H2 2356   1.034   1.827   0.068  0.1559  0.9098 -0.1971
  784TIP3   OH2 2357   3.558   5.614   3.183  0.1733 -0.2991 -0.0327
  784TIP3    H1 2358   3.636   5.668   3.194  0.6297 -0.7063 -1.1697
  784TIP3    H2 2359   3.588   5.524   3.197  0.1571 -0.5599 -1.5002
  785TIP3   OH2 2360   2.673   4.536   2.641 -0.1387  0.3279  0.0732
  785TIP3    H1 2361   2.583   4.514   2.662 -0.3405  0.5555 -0.5228
  785TIP3    H2 2362   2.693   4.485   2.562  0.2912  0.1905  0.2652
  786TIP3   OH2 2363   1.076   1.278   0.161 -0.2530 -0.3457  0.6487
  786TIP3    H1 2364   1.112   1.301   0.076 -0.8789 -1.2475  0.1241
  786TIP3    H2 2365   1.034   1.358   0.192 -1.2234 -0.3901 -0.5212
  787TIP3   OH2 2366   3.420   3.419   2.280 -0.6500  0.0805 -0.4552
  787TIP3    H1 2367   3.432   3.347   2.342  1.3087  0.8998  0.2060
  787TIP3    H2 2368   3.365   3.482   2.326 -0.1231  0.1887  0.0339
  788TIP3   OH2 2369   0.359   5.034   3.845 -0.0392  0.1932  0.8003
  788TIP3    H1 2370   0.397   4.948   3.824 -0.8474  0.3030 -1.2746
  788TIP3    H2 2371   0.427   5.097   3.820 -0.8111  0.2969 -1.2190
  789TIP3   OH2 2372   3.760   5.569   2.661  0.3416 -0.9559 -0.0863
  789TIP3    H1 2373   3.732   5.587   2.571 -1.2616  0.4017  0.6185
  789TIP3    H2 2374   3.779   5.656   2.698 -1.0895 -1.2440  1.4743
  790TIP3   OH2 2375   3.102   2.383   0.625  0.0936  0.3675 -0.6084
  790TIP3    H1 2376   3.159   2.403   0.550  0.1747  1.6308 -0.2217
  790TIP3    H2 2377   3.016   2.415   0.599  0.2618  1.4119  0.0893
  791TIP3   OH2 2378   0.574   5.603   1.104 -0.0560 -0.1652  0.4560
  791TIP3    H1 2379   0.582   5.695   1.131 -0.7317  0.1115 -0.2656
  791TIP3    H2 2380   0.523   5.562   1.173  2.9552 -0.8063  2.5342
  792TIP3   OH2 2381   2.280   5.758   4.097 -0.1399 -0.4055  0.5478
  792TIP3    H1 2382   2.295   5.696   4.168 -0.8724 -0.1149  0.9819
  792TIP3    H2 2383   2.209   5.814   4.130  0.4722  0.6225  0.1506
  793TIP3   OH2 2384   1.344   3.321   5.079  0.4841 -0.5494 -0.4233
  793TIP3    H1 2385   1.376   3.384   5.144  0.4419 -1.1693  0.2029
  793TIP3    H2 2386   1.364   3.362   4.994  0.0826  0.5023 -0.0264
  794TIP3   OH2 2387   2.341   1.129   2.856 -0.2526 -0.0476 -0.1678
  794TIP3    H1 2388   2.370   1.161   2.942  0.5808 -0.4554 -0.2980
  794TIP3    H2 2389   2.393   1.051   2.840 -1.8398 -1.1485 -0.1397
  795TIP3   OH2 2390   4.642   0.755   2.179  0.6724  0.4338  0.2276
  795TIP3    H1 2391   4.639   0.760   2.274 -0.4079  0.4310  0.2058
  795TIP3    H2 2392   4.642   0.847   2.150 -2.1490  0.5196  0.1972
  796TIP3   OH2 2393   5.796   4.791   3.726 -0.0680  0.2794  0.3351
  796TIP3    H1 2394   5.883   4.824   3.748 -0.5111  2.3616 -0.8012
  796TIP3    H2 2395   5.740   4.820   3.797 -0.4045  1.8293 -0.5254
  797TIP3   OH2 2396   0.781   4.878   3.414  0.2057  0.1847  0.2756
  797TIP3    H1 2397   0.785   4.782   3.410  0.3512  0.0728  2.2081
  797TIP3    H2 2398   0.856   4.907   3.363 -0.0259 -0.7065 -0.6163
  798TIP3   OH2 2399   6.248   2.119   1.401  0.8851  0.2097 -0.1725
  798TIP3    H1 2400   6.326   2.174   1.408  1.0353  0.2149 -1.6448
  798TIP3    H2 2401   6.210   2.142   1.316 -0.2977 -0.3478  0.1888
  799TIP3   OH2 2402   4.249   0.476   2.078 -0.2198  0.7834 -0.3321
  799TIP3    H1 2403   4.189   0.433   2.138  0.2403  0.0951 -0.3489
  799TIP3    H2 2404   4.310   0.523   2.134 -0.7127  1.4153 -0.3132
  800TIP3   OH2 2405   4.045   0.816   4.140  0.1023 -0.4866  0.1335
  800TIP3    H1 2406   4.139   0.822   4.126 -0.1328  1.4864 -0.9169
  800TIP3    H2 2407   4.008   0.800   4.053 -0.5977 -0.0861  0.3442
  801TIP3   OH2 2408   1.921   1.226   5.048  0.0259  0.0100 -0.7747
  801TIP3    H1 2409   1.957   1.138   5.031 -0.4556 -0.3909  0.1833
  801TIP3    H2 2410   1.925   1.235   5.144 -0.6079  0.7456 -0.8105
  802TIP3   OH2 2411   2.811   2.047   2.916 -0.1446  0.0716  0.0202
  802TIP3    H1 2412   2.767   2.049   3.001  0.3379 -1.8527  0.3512
  802TIP3    H2 2413   2.904   2.047   2.937  0.0301  1.4516 -0.6051
  803TIP3   OH2 2414   1.324   2.297   3.772 -0.1049 -0.0447 -0.1271
  803TIP3    H1 2415   1.387   2.303   3.700  1.1830  0.2790  0.9908
  803TIP3    H2 2416   1.360   2.353   3.840 -1.6833  0.2414  0.5207
  804TIP3   OH2 2417   5.511   0.292   0.564  0.0308 -0.0814 -0.0854
  804TIP3    H1 2418   5.584   0.231   0.578 -0.1966 -0.4376 -0.4283
  804TIP3    H2 2419   5.527   0.328   0.477  0.2533  0.4779  0.1807
  805TIP3   OH2 2420   4.530   4.888   3.995  0.8172  0.1427  0.0493
  805TIP3    H1 2421   4.460   4.868   3.934  1.3402 -1.1769 -0.1352
  805TIP3    H2 2422   4.569   4.804   4.017  1.1377  0.6663  1.6157
  806TIP3   OH2 2423   1.667   4.670   4.395 -0.5960 -0.8768  0.8502
  806TIP3    H1 2424   1.707   4.721   4.465 -1.0296  0.7226 -0.0297
  806TIP3    H2 2425   1.732   4.670   4.325 -0.4984 -1.7610  0.9302
  807TIP3   OH2 2426   5.291   0.031   0.280  0.7985  0.5027  0.8834
  807TIP3    H1 2427   5.216   0.048   0.223 -0.4148  1.7512  2.7702
  807TIP3    H2 2428   5.296  -0.065   0.284  1.0233  0.3739 -1.3885
  808TIP3   OH2 2429   4.908   5.122   0.849 -0.6914  0.3574 -0.3956
  808TIP3    H1 2430   4.915   5.175   0.928 -0.8280 -2.0644  1.3612
  808TIP3    H2 2431   4.992   5.077   0.842 -0.2974  1.3056 -2.2753
  809TIP3   OH2 2432   0.271   5.889   3.976 -0.6834 -0.2072 -0.1626
  809TIP3    H1 2433   0.305   5.801   3.959 -0.6796  0.3460 -3.8193
  809TIP3    H2 2434   0.176   5.879   3.979 -0.7090 -0.3029 -1.0911
  810TIP3   OH2 2435   3.505   3.729   1.759  0.0454  0.4279  0.2568
  810TIP3    H1 2436   3.576   3.686   1.807 -0.0165 -1.1240 -0.9555
  810TIP3    H2 2437   3.546   3.805   1.719  0.8280  0.0424  0.3058
  811TIP3   OH2 2438   4.883   0.341   2.223  0.1061  0.3532 -0.7307
  811TIP3    H1 2439   4.813   0.391   2.180 -0.6948 -1.5660 -1.7851
  811TIP3    H2 2440   4.848   0.321   2.309  0.5580  1.7944 -0.1768
  812TIP3   OH2 2441   5.405   3.352   2.983  0.1506 -0.0360  0.1361
  812TIP3    H1 2442   5.408   3.259   3.007 -0.0429 -0.6315 -1.9417
  812TIP3    H2 2443   5.356   3.354   2.900  2.1257  1.6414 -1.0782
  813TIP3   OH2 2444   2.105   1.014   4.928  0.0953 -0.7993  0.0286
  813TIP3    H1 2445   2.046   0.939   4.938  0.5742 -1.1754  0.0566
  813TIP3    H2 2446   2.086   1.047   4.840 -0.8733 -0.2853  0.4101
  814TIP3   OH2 2447   4.982   1.982   0.311  0.4756 -0.8629  0.7969
  814TIP3    H1 2448   4.898   2.007   0.272  0.6834 -1.8733 -0.3516
  814TIP3    H2 2449   5.037   1.960   0.236  2.8033  2.6333  1.2414
  815TIP3   OH2 2450   1.607   1.967   2.581  0.3305 -0.2539 -0.3547
  815TIP3    H1 2451   1.561   1.987   2.663  0.2081  2.1733 -0.9453
  815TIP3    H2 2452   1.656   2.047   2.561  1.1573 -1.1543 -2.1458
  816TIP3   OH2 2453   1.857   4.042   4.371  0.3143 -0.1909  0.3557
  816TIP3    H1 2454   1.794   4.106   4.403  0.7503  0.1521  0.5432
  816TIP3    H2 2455   1.805   3.965   4.350 -0.2960  0.4135 -0.4191
  817TIP3   OH2 2456   1.942   4.698   0.070  0.1825  0.2178  0.1239
  817TIP3    H1 2457   1.995   4.777   0.057 -1.0304  0.8437 -1.3767
  817TIP3    H2 2458   1.895   4.714   0.151  0.2373  0.8864  0.0319
  818TIP3   OH2 2459   0.324   4.794   2.756 -0.1470  0.0309  0.1068
  818TIP3    H1 2460   0.418   4.779   2.761 -0.0502  0.7276  0.5241
  818TIP3    H2 2461   0.304   4.851   2.831 -0.8033  0.3355 -0.2850
  819TIP3   OH2 2462   0.638   1.850   0.353 -0.2812 -0.1942 -0.5541
  819TIP3    H1 2463   0.667   1.878   0.440  0.2675 -1.9335 -0.1327
  819TIP3    H2 2464   0.543   1.862   0.354 -0.1277  1.0474 -0.2023
  820TIP3   OH2 2465   0.200   1.998   5.179 -0.1136  0.0952  0.2760
  820TIP3    H1 2466   0.263   1.956   5.121 -1.3400  0.6279 -1.5135
  820TIP3    H2 2467   0.225   2.091   5.178 -2.2816  0.7678 -2.4423
  821TIP3   OH2 2468   3.035   2.085   3.161 -0.3568 -0.0082  0.6022
  821TIP3    H1 2469   2.989   2.151   3.214  0.3134  0.8763  0.1106
  821TIP3    H2 2470   3.123   2.081   3.198 -0.8622 -1.9155  1.7288
  822TIP3   OH2 2471   1.340   2.142   0.296  0.1707 -0.3384 -0.1117
  822TIP3    H1 2472   1.327   2.229   0.257  1.1200  0.6141  1.5609
  822TIP3    H2 2473   1.263   2.092   0.271  0.0426  0.6847 -1.8876
  823TIP3   OH2 2474   4.500   5.907   4.826 -0.1567 -0.4879 -0.1366
  823TIP3    H1 2475   4.493   5.902   4.731 -1.6602 -1.0057 -0.0205
  823TIP3    H2 2476   4.436   5.973   4.852 -2.3883 -2.8329  0.7445
  824TIP3   OH2 2477   4.227   4.186   1.201 -0.6375  0.1429  0.3354
  824TIP3    H1 2478   4.256   4.273   1.229  1.0019 -0.6943  1.4010
  824TIP3    H2 2479   4.218   4.193   1.106  1.1908  1.0216  0.1923
  825TIP3   OH2 2480   0.923   4.108   4.568 -0.1979 -0.0993  0.5999
  825TIP3    H1 2481   0.959   4.019   4.572 -2.4361 -1.2632 -1.9253
  825TIP3    H2 2482   0.999   4.164   4.555  1.0699 -2.0075 -0.7589
  826TIP3   OH2 2483   4.454   4.850   1.947 -0.1376 -0.1348  0.3062
  826TIP3    H1 2484   4.385   4.799   1.990 -0.3019  0.1286  0.3629
  826TIP3    H2 2485   4.464   4.810   1.861  0.7352 -1.1497  0.8683
  827TIP3   OH2 2486   4.370   3.755   4.334  0.3653  0.1801  0.1446
  827TIP3    H1 2487   4.301   3.780   4.395 -1.9071 -0.3144 -2.0776
  827TIP3    H2 2488   4.451   3.783   4.377 -1.2120  1.2623  2.6312
  828TIP3   OH2 2489   3.000   4.082   1.818  0.5607 -0.5427  0.7665
  828TIP3    H1 2490   3.055   4.103   1.743  0.0638 -0.6873  0.3612
  828TIP3    H2 2491   3.004   3.987   1.826 -0.6366 -0.6793 -0.0478
  829TIP3   OH2 2492   5.522   1.416   2.146  0.7868 -0.9947  0.2864
  829TIP3    H1 2493   5.534   1.365   2.226 -0.3961 -2.5075 -0.4240
  829TIP3    H2 2494   5.542   1.354   2.076 -0.7276 -0.5138 -0.6209
  830TIP3   OH2 2495   5.943   3.592   1.517 -0.5798 -0.0457 -0.1933
  830TIP3    H1 2496   6.033   3.565   1.534 -1.0669 -1.3582  0.5110
  830TIP3    H2 2497   5.939   3.683   1.548  0.2567 -0.2969  0.7262
  831TIP3   OH2 2498   4.163   0.287   3.114  0.5835  0.1007  0.5237
  831TIP3    H1 2499   4.102   0.337   3.060  0.1422  0.9810  1.7973
  831TIP3    H2 2500   4.247   0.331   3.103  1.0474 -1.0811 -1.1900
  832TIP3   OH2 2501   6.287   3.004   5.072  0.0011  0.5046 -0.0561
  832TIP3    H1 2502   6.237   3.076   5.035  1.4727  0.8061 -1.5835
  832TIP3    H2 2503   6.353   3.047   5.127 -0.3631  0.1990  0.6333
  833TIP3   OH2 2504   2.158   0.256   1.667  0.1522  0.7395 -0.2428
  833TIP3    H1 2505   2.201   0.180   1.630  1.2961  1.1049  0.2798
  833TIP3    H2 2506   2.189   0.330   1.615 -0.7596  0.8813 -0.5964
  834TIP3   OH2 2507   2.439   3.919   2.465  0.1845  0.5246  0.3380
  834TIP3    H1 2508   2.418   3.886   2.377  0.1454  3.9301 -1.0809
  834TIP3    H2 2509   2.354   3.926   2.509  0.1867 -1.0101  0.6630
  835TIP3   OH2 2510   5.906   5.128   2.925 -0.4847 -0.4893  0.3614
  835TIP3    H1 2511   5.978   5.190   2.914 -0.4996 -0.6640 -0.7774
  835TIP3    H2 2512   5.940   5.045   2.894 -0.9877 -0.6991  0.3518
  836TIP3   OH2 2513   3.893   0.416   0.906 -0.1134 -0.1443  0.1179
  836TIP3    H1 2514   3.830   0.460   0.849 -0.0658  1.0421  0.9658
  836TIP3    H2 2515   3.851   0.414   0.992 -0.2508 -2.0554  0.0514
  837TIP3   OH2 2516   4.741   2.371   4.647  0.2349 -0.0961 -0.0854
  837TIP3    H1 2517   4.782   2.437   4.591 -2.0900  0.7938 -0.8490
  837TIP3    H2 2518   4.665   2.341   4.598 -0.4968 -1.1093  1.5757
  838TIP3   OH2 2519   1.729   0.467   3.055  0.1640  0.1757 -0.3096
  838TIP3    H1 2520   1.635   0.449   3.049  0.5058 -1.6539 -0.8587
  838TIP3    H2 2521   1.768   0.381   3.073  1.8197  0.7184 -1.1930
  839TIP3   OH2 2522   1.867   5.106   2.495 -0.3852  0.4987 -0.3745
  839TIP3    H1 2523   1.828   5.077   2.577  1.8607  1.5825  1.1686
  839TIP3    H2 2524   1.794   5.141   2.445 -1.7482  0.2445  1.3411
  840TIP3   OH2 2525   1.462   0.616   4.042 -0.2866  0.5324  0.7011
  840TIP3    H1 2526   1.480   0.561   3.965 -0.4652 -0.4560  1.3383
  840TIP3    H2 2527   1.490   0.562   4.116  0.7093  1.8187  1.2881
  841TIP3   OH2 2528   2.080   4.462   4.125  0.0491 -0.2186 -0.8992
  841TIP3    H1 2529   2.096   4.385   4.070  0.0023 -0.7559 -0.1748
  841TIP3    H2 2530   2.065   4.427   4.212  1.3660  0.6785 -0.2706
  842TIP3   OH2 2531   4.544   2.374   2.441  0.1070 -0.5377 -0.1410
  842TIP3    H1 2532   4.595   2.396   2.519 -0.4307  0.1085  0.0395
  842TIP3    H2 2533   4.453   2.380   2.469 -0.1431  1.2836 -1.1836
  843TIP3   OH2 2534   6.145   5.729   1.775 -0.4862  0.3862 -0.5903
  843TIP3    H1 2535   6.073   5.722   1.712 -0.3501 -0.3489 -0.6707
  843TIP3    H2 2536   6.130   5.813   1.818 -1.4150  0.2281 -0.5773
  844TIP3   OH2 2537   1.960   0.966   2.363 -0.2848  0.1313 -0.5542
  844TIP3    H1 2538   1.968   0.870   2.361  3.5575  0.2888 -0.5535
  844TIP3    H2 2539   1.893   0.983   2.428 -0.8213 -2.5492 -0.2845
  845TIP3   OH2 2540   3.675   3.122   0.867  0.8405 -0.3319  0.2036
  845TIP3    H1 2541   3.642   3.203   0.906  0.3578  0.1842 -1.2251
  845TIP3    H2 2542   3.770   3.137   0.860  0.8346 -0.1407  0.5039
  846TIP3   OH2 2543   3.472   5.709   3.534  0.1097  0.2015  0.0278
  846TIP3    H1 2544   3.567   5.703   3.521 -0.2148 -0.7858 -2.2920
  846TIP3    H2 2545   3.456   5.803   3.545  1.3995  0.3258  1.1248
  847TIP3   OH2 2546   5.948   1.709   0.994 -0.1902 -0.1677  0.0828
  847TIP3    H1 2547   5.876   1.709   1.057 -1.1533 -2.1984 -0.9145
  847TIP3    H2 2548   5.945   1.795   0.954 -1.5052  0.0854  0.6725
  848TIP3   OH2 2549   0.930   2.504   0.582 -0.0427 -0.5406 -0.1436
  848TIP3    H1 2550   0.931   2.532   0.673  0.0715 -1.3280  0.0963
  848TIP3    H2 2551   0.905   2.412   0.584  1.4929 -1.0151 -0.7664
  849TIP3   OH2 2552   5.758   0.815   3.394  0.4063 -0.2977 -0.0879
  849TIP3    H1 2553   5.669   0.793   3.419 -0.2830  1.8080 -0.4740
  849TIP3    H2 2554   5.780   0.890   3.449  1.3538  0.1899 -1.0967
  850TIP3   OH2 2555   4.545   4.407   1.043  0.4220  0.4512  0.4515
  850TIP3    H1 2556   4.531   4.458   0.964 -1.7798 -1.0740 -0.2471
  850TIP3    H2 2557   4.559   4.472   1.112  0.5239  1.8687 -0.8722
  851TIP3   OH2 2558   5.984   0.471   0.003 -0.0237  0.2835  0.2186
  851TIP3    H1 2559   6.009   0.387  -0.037  2.0723 -0.1725  2.2021
  851TIP3    H2 2560   5.962   0.448   0.093 -0.7051  1.7172  0.4351
  852TIP3   OH2 2561   2.291   1.286   0.775  0.0263  0.1378 -0.0961
  852TIP3    H1 2562   2.272   1.377   0.752  2.4864  1.0245  1.0446
  852TIP3    H2 2563   2.263   1.278   0.866  2.6208  0.7838  0.8476
  853TIP3   OH2 2564   2.491   1.151   2.084 -0.1417 -0.4357 -0.2590
  853TIP3    H1 2565   2.517   1.222   2.025 -0.3075  1.0619  1.3941
  853TIP3    H2 2566   2.551   1.157   2.158 -0.7021 -1.4992  0.3181
  854TIP3   OH2 2567   2.422   0.549   0.138  0.2755  0.3763  0.4640
  854TIP3    H1 2568   2.414   0.639   0.171 -0.8624  0.2841  0.4771
  854TIP3    H2 2569   2.353   0.501   0.183  0.6580 -0.4361  0.1970
  855TIP3   OH2 2570   1.798   5.644   4.663  0.4266 -0.2247 -0.2708
  855TIP3    H1 2571   1.813   5.678   4.575  1.5126 -1.7448 -0.7166
  855TIP3    H2 2572   1.706   5.662   4.681  0.8729  2.8451 -0.4697
  856TIP3   OH2 2573   2.285   0.927   1.663  0.0684  0.1874 -0.0494
  856TIP3    H1 2574   2.200   0.932   1.707  0.4879 -1.2651  0.9955
  856TIP3    H2 2575   2.268   0.960   1.575 -1.5767 -0.0126  0.1574
  857TIP3   OH2 2576   0.609   4.241   3.240 -0.7385 -0.3475 -0.4275
  857TIP3    H1 2577   0.631   4.333   3.256 -0.3841 -0.4624 -0.2398
  857TIP3    H2 2578   0.521   4.243   3.202 -1.5806 -0.0467  1.4182
  858TIP3   OH2 2579   0.712   5.342   3.522  0.1630  0.5464 -0.6667
  858TIP3    H1 2580   0.786   5.352   3.462 -0.5268  0.8315 -1.5028
  858TIP3    H2 2581   0.708   5.424   3.570  1.2333  0.0060  0.4085
  859TIP3   OH2 2582   4.094   3.153   1.788  0.1041  0.2232 -0.3187
  859TIP3    H1 2583   4.027   3.092   1.756 -0.1917  0.1230  0.4622
  859TIP3    H2 2584   4.148   3.100   1.847  0.6449  0.4034 -0.6455
  860TIP3   OH2 2585   6.087   1.490   4.817  0.0496 -0.2394 -0.2452
  860TIP3    H1 2586   6.027   1.558   4.849 -0.1304 -0.5395  0.0680
  860TIP3    H2 2587   6.113   1.520   4.730  0.1590  0.3489 -0.0157
  861TIP3   OH2 2588   3.849   1.382   1.923 -0.2175  0.8244 -0.1739
  861TIP3    H1 2589   3.837   1.475   1.907 -0.1991  0.6834 -1.0626
  861TIP3    H2 2590   3.762   1.344   1.914 -0.3837  0.8668  1.0765
  862TIP3   OH2 2591   4.325   1.187   1.931 -0.6758 -0.1050 -0.2076
  862TIP3    H1 2592   4.235   1.204   1.905 -0.6985  2.1799  1.1394
  862TIP3    H2 2593   4.334   1.231   2.016  1.4025 -1.2201  0.2067
  863TIP3   OH2 2594   3.569   0.304   1.596 -0.3687  0.4586 -0.5630
  863TIP3    H1 2595   3.614   0.387   1.615 -0.5578  0.4581 -0.1243
  863TIP3    H2 2596   3.526   0.320   1.511  0.4609  0.4557 -0.9931
  864TIP3   OH2 2597   2.364   3.355   2.930 -0.5256  0.2427 -0.2036
  864TIP3    H1 2598   2.394   3.266   2.913 -2.0614 -0.2072 -0.7569
  864TIP3    H2 2599   2.314   3.378   2.851 -0.1492  1.6006 -0.0656
  865TIP3   OH2 2600   0.886   2.853   3.514 -0.9027  0.8571 -0.5120
  865TIP3    H1 2601   0.925   2.786   3.457  0.4490  0.5835  0.6653
  865TIP3    H2 2602   0.813   2.888   3.464  0.5201  0.9696 -2.6259
  866TIP3   OH2 2603   1.293   2.914   3.694 -0.2129 -0.1830  0.3762
  866TIP3    H1 2604   1.317   2.878   3.608  0.7080 -0.7151  0.8340
  866TIP3    H2 2605   1.263   2.837   3.743 -1.6055  0.2637  0.2562
  867TIP3   OH2 2606   2.306   4.924   4.157  0.6163  0.1592 -0.2979
  867TIP3    H1 2607   2.269   4.930   4.069  0.7070  0.0255 -0.3461
  867TIP3    H2 2608   2.375   4.858   4.149 -0.2336 -0.8138  0.1570
  868TIP3   OH2 2609   2.514   5.706   4.380 -0.2249  0.3506 -0.4479
  868TIP3    H1 2610   2.462   5.689   4.459 -1.3916 -0.1262 -1.2900
  868TIP3    H2 2611   2.532   5.619   4.345  1.0870  0.5199 -0.2184
  869TIP3   OH2 2612   3.046   4.755   0.670  0.1058 -0.3020  0.2528
  869TIP3    H1 2613   3.014   4.669   0.697 -1.8776 -0.1990 -1.5281
  869TIP3    H2 2614   3.094   4.739   0.589 -1.2974  0.3500 -0.7496
  870TIP3   OH2 2615   3.136   3.860   2.482 -0.1832 -0.3137  0.0446
  870TIP3    H1 2616   3.047   3.894   2.488 -0.3895 -0.4141 -1.8409
  870TIP3    H2 2617   3.192   3.935   2.502 -0.6160 -0.7289  3.3900
  871TIP3   OH2 2618   4.649   2.591   3.785 -0.6370  0.2632  0.2222
  871TIP3    H1 2619   4.586   2.561   3.851 -0.9722  0.5262  0.0241
  871TIP3    H2 2620   4.732   2.597   3.832 -1.3354  2.8833  1.3060
  872TIP3   OH2 2621   4.358   0.680   2.933  0.2259  0.2415  0.3653
  872TIP3    H1 2622   4.430   0.738   2.909  0.1292  0.1256 -0.2113
  872TIP3    H2 2623   4.308   0.668   2.852 -0.3089  0.1339  0.7054
  873TIP3   OH2 2624   1.753   5.949   0.462  0.4049 -0.1584  0.1582
  873TIP3    H1 2625   1.677   5.937   0.519  0.2216 -0.3309 -0.1249
  873TIP3    H2 2626   1.769   5.862   0.424  0.0514  0.1292 -0.6587
  874TIP3   OH2 2627   2.717   4.449   3.272  0.7284  0.0109  0.0761
  874TIP3    H1 2628   2.775   4.395   3.219  0.3027 -1.4126  1.0007
  874TIP3    H2 2629   2.687   4.391   3.342  0.7107  1.6130  1.4686
  875TIP3   OH2 2630   0.283   5.056   2.225 -0.3060 -0.5479 -0.0273
  875TIP3    H1 2631   0.363   5.085   2.270 -0.9984  0.0993  0.8397
  875TIP3    H2 2632   0.253   4.982   2.277 -0.9478  0.0169  0.4281
  876TIP3   OH2 2633   2.452   2.809   0.053 -0.4370 -0.7368  0.3571
  876TIP3    H1 2634   2.419   2.897   0.075 -1.0147 -1.4089  2.3518
  876TIP3    H2 2635   2.543   2.824   0.027 -0.4735  0.4356  0.8161
  877TIP3   OH2 2636   1.513   4.396   3.323  0.1173  0.0292 -0.4013
  877TIP3    H1 2637   1.562   4.433   3.397  2.8829 -1.5776 -1.2974
  877TIP3    H2 2638   1.458   4.328   3.362 -0.1026  0.6489  0.4093
  878TIP3   OH2 2639   2.937   2.255   2.625  0.0081 -0.4631  0.4995
  878TIP3    H1 2640   2.980   2.267   2.709  0.2976  2.3015  0.0386
  878TIP3    H2 2641   3.009   2.243   2.563 -0.0024  0.8264  0.2106
  879TIP3   OH2 2642   2.697   5.784   0.054 -0.1407  0.0577 -0.2059
  879TIP3    H1 2643   2.766   5.779  -0.012 -1.1397 -1.7870 -1.2076
  879TIP3    H2 2644   2.744   5.789   0.137  1.1499  1.3034 -0.9625
  880TIP3   OH2 2645   2.078   1.687   0.925  0.6669 -0.6403 -0.0462
  880TIP3    H1 2646   2.134   1.643   0.989 -0.1453 -0.1286  1.0429
  880TIP3    H2 2647   1.989   1.665   0.951  0.2814  0.5275 -0.3048
  881TIP3   OH2 2648   4.497   3.234   2.863 -0.4684 -0.1058 -0.4917
  881TIP3    H1 2649   4.506   3.329   2.868  0.1534 -0.2051  1.2388
  881TIP3    H2 2650   4.456   3.209   2.946 -0.7239 -1.3403 -0.9612
  882TIP3   OH2 2651   5.997   3.162   1.658  0.0910  0.1528  0.0850
  882TIP3    H1 2652   6.078   3.172   1.708  0.4381 -2.3730  0.1658
  882TIP3    H2 2653   6.015   3.089   1.598 -2.0644 -0.3992  0.0227
  883TIP3   OH2 2654   4.067   4.512   3.628 -0.5126  0.4473 -0.0782
  883TIP3    H1 2655   4.014   4.591   3.617 -1.0930 -0.1001 -1.6137
  883TIP3    H2 2656   4.055   4.487   3.719 -0.4527  2.0265  0.3795
  884TIP3   OH2 2657   1.948   1.864   3.044 -0.9235 -0.2248  0.2825
  884TIP3    H1 2658   1.886   1.862   2.971 -2.5612 -0.3855  1.6200
  884TIP3    H2 2659   1.894   1.848   3.122  1.0803 -2.2914  1.3531
  885TIP3   OH2 2660   4.281   1.666   3.078 -0.5983  0.1759 -0.0391
  885TIP3    H1 2661   4.369   1.635   3.055 -0.0499  1.3266  0.4269
  885TIP3    H2 2662   4.279   1.756   3.046 -2.0350 -0.1949 -1.0721
  886TIP3   OH2 2663   4.556   3.769   2.701  0.2371 -0.2294  0.0175
  886TIP3    H1 2664   4.481   3.825   2.722  0.3539  0.2520 -0.8253
  886TIP3    H2 2665   4.537   3.736   2.614  0.2890 -1.3289  0.4123
  887TIP3   OH2 2666   2.056   0.325   2.507 -0.0515 -0.7133  0.2307
  887TIP3    H1 2667   2.010   0.325   2.423  1.7359 -1.4173 -0.8069
  887TIP3    H2 2668   2.083   0.416   2.520  0.8866 -0.8387 -0.7011
  888TIP3   OH2 2669   4.499   2.665   3.410  0.4353 -0.5049 -0.1722
  888TIP3    H1 2670   4.593   2.673   3.428  0.2924 -0.3464  0.5210
  888TIP3    H2 2671   4.458   2.730   3.467  0.0431  0.8209 -1.8828
  889TIP3   OH2 2672   2.262   4.317   3.274 -0.1731 -0.2390  0.1149
  889TIP3    H1 2673   2.250   4.410   3.293  1.7563 -0.0733  0.7767
  889TIP3    H2 2674   2.270   4.313   3.179 -1.1086  0.1565  0.0160
  890TIP3   OH2 2675   5.546   2.921   0.262 -0.7248 -0.3880  0.5688
  890TIP3    H1 2676   5.556   2.901   0.169 -1.8029 -0.7476  0.5227
  890TIP3    H2 2677   5.552   3.016   0.267 -0.1261 -0.4015  0.2057
  891TIP3   OH2 2678   1.310   2.006   4.175 -1.1623  0.4603 -1.1494
  891TIP3    H1 2679   1.256   1.990   4.097 -1.9030 -1.8793 -0.2351
  891TIP3    H2 2680   1.250   1.993   4.249  0.4702 -1.7466 -0.0983
  892TIP3   OH2 2681   2.758   1.083   4.768  0.2071 -0.1279  0.1029
  892TIP3    H1 2682   2.797   1.157   4.815 -0.3011 -0.7869  1.6448
  892TIP3    H2 2683   2.783   1.096   4.677  3.0046  0.1535  0.8027
  893TIP3   OH2 2684   4.336   1.012   3.541 -0.0573  0.2091 -0.1329
  893TIP3    H1 2685   4.419   1.028   3.496 -0.4847  1.5112 -0.4903
  893TIP3    H2 2686   4.361   0.961   3.618  1.2811  1.7053  0.4899
  894TIP3   OH2 2687   3.365   5.069   0.103  0.4075  0.1702  0.7719
  894TIP3    H1 2688   3.368   5.123   0.025 -0.0328  0.4733  0.9587
  894TIP3    H2 2689   3.441   5.012   0.097  0.6004  0.4773  0.3311
  895TIP3   OH2 2690   3.781   3.210   1.627 -0.2868  0.1007  0.1596
  895TIP3    H1 2691   3.773   3.120   1.596  0.1775 -0.1652  0.7893
  895TIP3    H2 2692   3.757   3.207   1.719 -1.1498  0.7936 -0.0230
  896TIP3   OH2 2693   5.142   5.698   4.751  0.1825 -0.6027 -0.0524
  896TIP3    H1 2694   5.199   5.761   4.795 -0.9449 -0.2173  0.8974
  896TIP3    H2 2695   5.125   5.631   4.817 -1.9862  0.2681  0.3637
  897TIP3   OH2 2696   2.748   4.386   1.605 -0.3157  0.6549  0.2501
  897TIP3    H1 2697   2.716   4.346   1.686  0.4169 -2.4403 -0.8741
  897TIP3    H2 2698   2.694   4.465   1.595 -2.5239 -0.4758  2.1682
  898TIP3   OH2 2699   0.335   1.616   2.689 -0.0174  0.1604  0.7075
  898TIP3    H1 2700   0.372   1.542   2.737 -0.2485  0.8523  1.9877
  898TIP3    H2 2701   0.248   1.586   2.663 -0.1711  0.0214  1.3579
  899TIP3   OH2 2702   2.843   1.038   3.718  0.1928 -0.0254  0.3532
  899TIP3    H1 2703   2.833   1.005   3.629 -1.6104  0.9867  0.1503
  899TIP3    H2 2704   2.766   1.006   3.765 -0.3161  1.7427  0.7926
  900TIP3   OH2 2705   1.425   1.932   0.078  0.2052  0.1697  0.1884
  900TIP3    H1 2706   1.512   1.937   0.039  0.4815 -1.6930  0.4776
  900TIP3    H2 2707   1.375   2.001   0.034  1.5368  0.6107 -0.6996
  901TIP3   OH2 2708   5.530   4.165   1.143  0.4843 -0.0351 -0.3443
  901TIP3    H1 2709   5.524   4.151   1.048 -1.3863 -2.0899 -0.0160
  901TIP3    H2 2710   5.624   4.157   1.162  1.3027  3.1395 -2.2874
  902TIP3   OH2 2711   3.842   0.350   4.116  0.3474 -0.1591 -0.3578
  902TIP3    H1 2712   3.824   0.381   4.027 -0.6749 -0.1940 -0.1784
  902TIP3    H2 2713   3.870   0.428   4.163  2.6853 -0.4663 -1.1401
  903TIP3   OH2 2714   3.421   1.909   4.269 -0.2226 -0.3589  0.0271
  903TIP3    H1 2715   3.364   1.871   4.203 -1.0224  0.4624  0.2087
  903TIP3    H2 2716   3.372   1.900   4.351  0.5308 -0.9083  0.4320
  904TIP3   OH2 2717   4.034   0.305   1.559  0.6720 -0.2529  0.0575
  904TIP3    H1 2718   4.108   0.365   1.574  0.7361 -0.7996  2.0733
  904TIP3    H2 2719   4.069   0.239   1.499  0.9188  1.0625 -1.3386
  905TIP3   OH2 2720   2.801   4.888   4.562 -0.1475 -0.1198  0.2017
  905TIP3    H1 2721   2.861   4.910   4.633 -1.7203 -0.4421  1.7064
  905TIP3    H2 2722   2.756   4.970   4.541  1.5257  0.3880 -1.7148
  906TIP3   OH2 2723   4.032   4.587   3.188  0.5452  0.5150  0.2680
  906TIP3    H1 2724   4.022   4.627   3.102  0.3039 -0.9247 -0.3982
  906TIP3    H2 2725   4.111   4.533   3.181 -1.8030 -3.2347 -0.6141
  907TIP3   OH2 2726   2.333   1.048   1.417 -0.0570  0.2627 -0.1012
  907TIP3    H1 2727   2.279   1.118   1.379 -0.5303 -0.6701 -1.2194
  907TIP3    H2 2728   2.415   1.091   1.442 -0.0546  1.0940 -1.4406
  908TIP3   OH2 2729   5.271   5.102   2.298 -0.2565 -0.1638 -0.1472
  908TIP3    H1 2730   5.324   5.108   2.378 -0.5945  0.1759  0.0606
  908TIP3    H2 2731   5.203   5.038   2.320 -0.8479  0.5490  0.1403
  909TIP3   OH2 2732   1.154   4.504   3.083  0.1381  0.4565 -0.3933
  909TIP3    H1 2733   1.189   4.560   3.014 -0.0600  0.0902 -0.7909
  909TIP3    H2 2734   1.220   4.435   3.094 -0.4217 -0.2006 -1.1011
  910TIP3   OH2 2735   1.400   5.332   4.754 -0.2732 -0.0864 -0.1481
  910TIP3    H1 2736   1.367   5.400   4.695 -0.4068  1.0785  1.2123
  910TIP3    H2 2737   1.377   5.362   4.842  1.9491 -0.5811  0.6903
  911TIP3   OH2 2738   3.850   2.645   3.820  0.1500 -0.8034 -0.1877
  911TIP3    H1 2739   3.870   2.576   3.883  0.9201 -1.7892 -1.4557
  911TIP3    H2 2740   3.916   2.712   3.836  0.6543 -1.2731 -0.2708
  912TIP3   OH2 2741   1.568   5.872   3.407  0.0056  0.4894  0.0414
  912TIP3    H1 2742   1.569   5.914   3.492  0.6287  2.5087 -0.9046
  912TIP3    H2 2743   1.550   5.779   3.426  0.6892  0.7755  2.3750
  913TIP3   OH2 2744   4.519   2.848   0.424 -0.1127 -0.6477  0.1723
  913TIP3    H1 2745   4.570   2.917   0.466  0.1027 -1.0964  0.6554
  913TIP3    H2 2746   4.582   2.780   0.402 -0.3056 -0.6464 -0.4140
  914TIP3   OH2 2747   0.936   1.057   3.446 -0.1743  0.4115 -0.0741
  914TIP3    H1 2748   0.869   1.024   3.506 -0.7202 -0.7277 -1.2836
  914TIP3    H2 2749   0.912   1.149   3.432  0.0666  0.7620  1.5522
  915TIP3   OH2 2750   2.507   5.935   3.592  0.2077 -0.4830 -0.6078
  915TIP3    H1 2751   2.586   5.973   3.553  0.1673  0.8851  0.5531
  915TIP3    H2 2752   2.481   5.997   3.660 -2.2081 -0.5893 -1.3266
  916TIP3   OH2 2753   5.854   5.000   3.155 -0.0535  0.5648  0.7239
  916TIP3    H1 2754   5.811   4.920   3.124  0.0514  0.5191  0.6962
  916TIP3    H2 2755   5.858   5.056   3.077  0.4822  0.3319  0.5786
  917TIP3   OH2 2756   4.547   1.526   3.325  0.3222 -0.3817  0.1804
  917TIP3    H1 2757   4.614   1.462   3.304  0.7199  0.4255 -1.1214
  917TIP3    H2 2758   4.467   1.490   3.286  0.8763  0.6640 -2.1048
  918TIP3   OH2 2759   0.087   4.225   1.357  0.4238  0.0782 -0.3431
  918TIP3    H1 2760   0.127   4.256   1.276 -0.8690 -0.6899 -1.3124
  918TIP3    H2 2761   0.047   4.141   1.334  0.1895 -0.2571  1.1458
  919TIP3   OH2 2762   2.094   2.133   0.277  0.0956 -0.0855  0.3122
  919TIP3    H1 2763   2.036   2.194   0.323 -0.6544  0.9504 -1.8517
  919TIP3    H2 2764   2.035   2.079   0.224  1.0093  0.4795 -1.3510
  920TIP3   OH2 2765   4.869   2.067   4.361 -0.6432 -0.2066 -0.0583
  920TIP3    H1 2766   4.929   2.134   4.327 -1.0427  0.7482  1.0243
  920TIP3    H2 2767   4.808   2.050   4.289 -0.8776  1.0262 -0.1716
  921TIP3   OH2 2768   2.325   5.175   4.283  0.1051  0.2156 -0.1505
  921TIP3    H1 2769   2.295   5.086   4.265 -1.4943  0.2689  1.8278
  921TIP3    H2 2770   2.288   5.228   4.212  1.8653 -0.7765 -1.8763
  922TIP3   OH2 2771   5.878   0.522   1.815 -0.1832 -0.0933  0.9963
  922TIP3    H1 2772   5.875   0.432   1.783 -1.0215 -0.2937  1.5983
  922TIP3    H2 2773   5.831   0.520   1.898 -2.7033  1.4037 -0.2520
  923TIP3   OH2 2774   2.174   0.609   0.516  0.4600  0.0973  0.5502
  923TIP3    H1 2775   2.255   0.569   0.486  0.2492  0.7692 -1.0609
  923TIP3    H2 2776   2.194   0.703   0.521 -0.0389  0.1995  0.7299
  924TIP3   OH2 2777   0.510   0.819   3.224  0.2470  0.1355  0.2204
  924TIP3    H1 2778   0.550   0.733   3.212  0.2705 -0.1874  2.3702
  924TIP3    H2 2779   0.460   0.833   3.143  0.1759 -1.9047 -0.1435
  925TIP3   OH2 2780   4.280   1.710   4.417 -0.3099  0.1960  0.1651
  925TIP3    H1 2781   4.195   1.672   4.440 -0.9719  2.1152  1.1394
  925TIP3    H2 2782   4.291   1.782   4.480  2.0346  0.0152  0.0404
  926TIP3   OH2 2783   0.784   0.031   4.073  0.3965 -0.2913 -0.1093
  926TIP3    H1 2784   0.772   0.115   4.031 -2.2776  0.2134  1.4587
  926TIP3    H2 2785   0.833  -0.021   4.009  2.2377  2.3958 -1.0851
  927TIP3   OH2 2786   1.618   0.107   2.463  0.0574  0.4086  0.1764
  927TIP3    H1 2787   1.542   0.159   2.438  0.7662  1.4233  0.0223
  927TIP3    H2 2788   1.662   0.160   2.530  0.7977  0.0091  0.0259
  928TIP3   OH2 2789   4.792   5.111   2.377  0.1171 -0.1314 -0.2022
  928TIP3    H1 2790   4.797   5.037   2.438  0.7070  0.1441  0.0993
  928TIP3    H2 2791   4.719   5.090   2.319  0.3643 -1.0220 -0.2110
  929TIP3   OH2 2792   4.276   4.865   1.638  0.0062 -0.1103 -0.0898
  929TIP3    H1 2793   4.327   4.796   1.681  1.0382  0.4930 -0.3123
  929TIP3    H2 2794   4.341   4.921   1.597 -0.8981 -0.3253 -1.9572
  930TIP3   OH2 2795   2.534   2.581   1.499 -0.4649 -0.0114  0.2383
  930TIP3    H1 2796   2.569   2.622   1.578 -1.8184 -2.1655  2.0336
  930TIP3    H2 2797   2.602   2.519   1.472 -0.4232  0.0099  0.2945
  931TIP3   OH2 2798   5.542   1.741   4.878  0.1945 -0.4983  0.1119
  931TIP3    H1 2799   5.632   1.711   4.862  1.2793  2.4871 -0.0630
  931TIP3    H2 2800   5.499   1.732   4.793  0.9654 -0.0859 -0.3422
  932TIP3   OH2 2801   3.089   0.946   2.666  0.4956  0.3165  0.2494
  932TIP3    H1 2802   3.005   0.991   2.677 -0.0130 -0.0012 -1.7906
  932TIP3    H2 2803   3.079   0.864   2.714 -1.1427 -0.5846 -1.5080
  933TIP3   OH2 2804   5.087   1.780   1.323  0.0476 -0.1483 -0.6910
  933TIP3    H1 2805   5.018   1.843   1.345  1.0717  0.9123 -0.3568
  933TIP3    H2 2806   5.064   1.701   1.371 -0.1188  0.6933  0.6771
  934TIP3   OH2 2807   2.818   1.602   0.075 -0.1981 -0.0890 -0.0022
  934TIP3    H1 2808   2.736   1.555   0.061 -1.2805  1.7695 -0.3068
  934TIP3    H2 2809   2.854   1.564   0.155 -0.4421 -2.1214 -0.7916
  935TIP3   OH2 2810   0.043   3.516   2.308 -0.5833 -0.1209 -0.0000
  935TIP3    H1 2811   0.071   3.585   2.248 -1.8062 -0.1744 -0.6714
  935TIP3    H2 2812   0.021   3.562   2.390 -2.4841  0.4932 -0.7923
  936TIP3   OH2 2813   1.577   1.188   2.252  0.6305  0.1673 -0.2929
  936TIP3    H1 2814   1.523   1.266   2.264  1.6712  0.7898  0.5973
  936TIP3    H2 2815   1.544   1.147   2.172  0.3006  1.7174 -0.9797
  937TIP3   OH2 2816   2.485   0.500   0.761 -0.9037  0.1466  0.0996
  937TIP3    H1 2817   2.466   0.573   0.820 -0.6232 -0.0208  0.3989
  937TIP3    H2 2818   2.430   0.429   0.793 -0.4526 -0.0661  0.4106
  938TIP3   OH2 2819   5.809   3.353   1.583 -0.0180  0.2625 -0.3196
  938TIP3    H1 2820   5.853   3.438   1.588  0.0521  0.3765 -2.1060
  938TIP3    H2 2821   5.861   3.296   1.639 -0.3496  1.4959  1.3018
  939TIP3   OH2 2822   0.548   1.744   1.476 -0.3068  0.2509  0.0807
  939TIP3    H1 2823   0.632   1.732   1.431 -0.8973 -0.9586 -0.7422
  939TIP3    H2 2824   0.542   1.668   1.534 -0.8731  0.2994  0.0862
  940TIP3   OH2 2825   4.258   5.029   5.169  0.1686 -0.0975  0.6733
  940TIP3    H1 2826   4.323   5.038   5.100 -0.9918  1.1792 -0.2954
  940TIP3    H2 2827   4.309   5.010   5.248  1.5616 -0.9449 -0.3787
  941TIP3   OH2 2828   5.086   0.435   3.767  0.4821 -0.0169 -0.2588
  941TIP3    H1 2829   5.117   0.474   3.685  1.0103  0.0248 -0.0428
  941TIP3    H2 2830   5.010   0.488   3.792  0.6835  0.3477 -0.4079
  942TIP3   OH2 2831   2.407   4.658   4.914 -0.3735 -0.2438 -0.7007
  942TIP3    H1 2832   2.432   4.568   4.892  0.0492  0.3769 -3.0114
  942TIP3    H2 2833   2.317   4.666   4.881 -0.7207 -0.0496  0.2593
  943TIP3   OH2 2834   2.991   3.109   2.092 -0.1397  0.2470 -0.2190
  943TIP3    H1 2835   3.066   3.138   2.143 -0.9928  3.3428 -0.4531
  943TIP3    H2 2836   2.927   3.080   2.156  0.2877  0.1662  0.1716
  944TIP3   OH2 2837   0.988   3.095   3.991  0.3559  0.1568 -0.0347
  944TIP3    H1 2838   1.064   3.105   4.048  0.7278 -0.6186 -0.3746
  944TIP3    H2 2839   0.980   3.000   3.979 -0.6846  0.2288  0.0193
  945TIP3   OH2 2840   5.684   5.970   1.651 -0.0468 -0.3263  0.0797
  945TIP3    H1 2841   5.658   6.013   1.569 -1.0771  0.9284  1.0130
  945TIP3    H2 2842   5.621   5.899   1.662  0.1388 -0.5436 -0.2477
  946TIP3   OH2 2843   2.319   2.997   4.965 -0.4449 -0.3703 -0.3038
  946TIP3    H1 2844   2.340   3.068   4.904  0.5661 -0.4287 -0.0415
  946TIP3    H2 2845   2.370   2.923   4.933 -0.7392 -0.6993 -0.0094
  947TIP3   OH2 2846   0.277   5.135   2.535  0.3718  0.2374  0.1111
  947TIP3    H1 2847   0.290   5.042   2.519  1.0074  0.0555  1.5006
  947TIP3    H2 2848   0.183   5.149   2.525  0.1648 -0.7228  0.6561
  948TIP3   OH2 2849   1.823   1.816   4.498 -0.1862 -0.2968 -0.4353
  948TIP3    H1 2850   1.866   1.737   4.466 -0.8635 -0.6109 -0.5881
  948TIP3    H2 2851   1.816   1.872   4.421  1.8957  0.6771  0.0250
  949TIP3   OH2 2852   0.927   0.107   1.671  0.0482  0.1675  0.3986
  949TIP3    H1 2853   0.871   0.088   1.596  0.1510 -1.5171  0.6937
  949TIP3    H2 2854   0.899   0.193   1.702 -1.0601  0.1878 -0.6030
  950TIP3   OH2 2855   3.886   2.102   1.177 -0.4060  0.1870 -0.2615
  950TIP3    H1 2856   3.945   2.174   1.154 -1.0698  0.6341 -0.5820
  950TIP3    H2 2857   3.940   2.044   1.231  0.1736  0.8546 -0.1029
  951TIP3   OH2 2858   5.890   0.846   2.469 -0.0359  0.1855  0.1761
  951TIP3    H1 2859   5.804   0.883   2.486  0.8830  1.8217  1.5945
  951TIP3    H2 2860   5.942   0.920   2.436  0.8230 -0.7854 -0.7282
  952TIP3   OH2 2861   0.655   1.616   1.958  0.4105  0.1692 -0.1950
  952TIP3    H1 2862   0.740   1.630   1.917  1.3920 -2.3219  0.7985
  952TIP3    H2 2863   0.593   1.657   1.899  2.2781  2.2626 -0.8485
  953TIP3   OH2 2864   0.367   4.226   1.199  0.6673 -0.1089  0.2110
  953TIP3    H1 2865   0.437   4.195   1.256  1.6232 -1.6912 -1.6918
  953TIP3    H2 2866   0.331   4.147   1.159 -0.1982  0.8800 -1.0833
  954TIP3   OH2 2867   3.799   5.411   0.219  0.4551  0.0984  0.3689
  954TIP3    H1 2868   3.841   5.472   0.159 -0.6138  1.5113  1.0192
  954TIP3    H2 2869   3.730   5.461   0.261 -1.9544 -2.0965 -0.6611
  955TIP3   OH2 2870   0.690   4.209   4.268 -0.7611 -0.2625 -0.2838
  955TIP3    H1 2871   0.767   4.173   4.311 -0.6441 -0.1074 -0.3628
  955TIP3    H2 2872   0.671   4.148   4.197  0.0965  0.4168 -1.1075
  956TIP3   OH2 2873   3.462   3.335   0.362  0.3873  0.1129  0.5085
  956TIP3    H1 2874   3.483   3.335   0.269  1.8085  1.5015  0.7958
  956TIP3    H2 2875   3.536   3.290   0.403 -0.4119 -0.8288  0.9598
  957TIP3   OH2 2876   2.607   3.694   3.959  0.3446  0.0625 -0.0213
  957TIP3    H1 2877   2.572   3.679   3.870  0.4001 -0.4183  0.0378
  957TIP3    H2 2878   2.693   3.653   3.958  1.3228  2.0329 -0.4481
  958TIP3   OH2 2879   3.096   3.459   5.161  0.1528 -0.8650 -0.3621
  958TIP3    H1 2880   3.185   3.493   5.149  1.1395 -2.3165  2.0531
  958TIP3    H2 2881   3.044   3.537   5.180  0.6636  0.1204 -2.7006
  959TIP3   OH2 2882   4.914   4.560   3.713  0.5753  0.2075 -0.4787
  959TIP3    H1 2883   4.847   4.556   3.781  0.7898  1.6734 -0.1619
  959TIP3    H2 2884   4.867   4.537   3.632 -0.0170 -0.0316 -0.0680
  960TIP3   OH2 2885   1.797   0.317   3.379 -0.1741 -0.2727 -0.3737
  960TIP3    H1 2886   1.822   0.310   3.287 -1.5854 -0.3125 -0.7876
  960TIP3    H2 2887   1.718   0.372   3.378  0.3065  0.4742  0.9131
  961TIP3   OH2 2888   2.564   4.218   1.432  0.1209 -0.1305  0.2112
  961TIP3    H1 2889   2.622   4.189   1.502  1.1980 -0.5515 -0.8198
  961TIP3    H2 2890   2.602   4.299   1.400 -0.5520  0.2400  0.3245
  962TIP3   OH2 2891   1.516   1.763   5.063 -0.2858 -0.1973 -0.0226
  962TIP3    H1 2892   1.560   1.791   5.143 -0.5805 -0.6736  0.3111
  962TIP3    H2 2893   1.532   1.669   5.058 -0.5360 -0.2248 -0.3536
  963TIP3   OH2 2894   5.677   1.724   3.782  0.2896  0.0821 -0.5009
  963TIP3    H1 2895   5.685   1.724   3.878  0.9413  1.7450 -0.5128
  963TIP3    H2 2896   5.584   1.735   3.766  0.2298  0.3103 -0.0329
  964TIP3   OH2 2897   3.422   4.221   3.236 -0.0147  0.2292 -0.2380
  964TIP3    H1 2898   3.453   4.139   3.274 -0.4594  0.1546 -0.0240
  964TIP3    H2 2899   3.340   4.239   3.282  0.9246  1.6961  0.9339
  965TIP3   OH2 2900   0.318   3.245   0.369 -0.5218 -0.3794  0.2583
  965TIP3    H1 2901   0.295   3.296   0.291  3.0510  0.5479 -0.3367
  965TIP3    H2 2902   0.254   3.272   0.435 -1.4905  1.4659 -1.3355
  966TIP3   OH2 2903   5.099   1.942   3.392 -0.0481  0.3629 -0.5110
  966TIP3    H1 2904   5.105   1.924   3.486 -0.8631  2.0467 -0.0986
  966TIP3    H2 2905   5.048   1.869   3.357  1.5431 -1.0931  0.0520
  967TIP3   OH2 2906   1.496   1.382   0.935  0.2331 -0.0456 -0.0554
  967TIP3    H1 2907   1.554   1.458   0.923 -0.4307  0.3714 -0.7314
  967TIP3    H2 2908   1.529   1.317   0.872  0.3851 -0.0597  0.0393
  968TIP3   OH2 2909   1.576   5.015   1.788  0.1021  0.3314  0.0706
  968TIP3    H1 2910   1.648   4.976   1.737 -1.2348 -0.7564 -1.0864
  968TIP3    H2 2911   1.558   4.951   1.857 -1.2616 -0.5842 -1.0699
  969TIP3   OH2 2912   1.260   2.109   1.182  0.3897  0.3790 -0.0232
  969TIP3    H1 2913   1.191   2.169   1.212 -0.8173 -0.7735 -0.4049
  969TIP3    H2 2914   1.332   2.123   1.245  0.1803  2.2118 -0.1122
  970TIP3   OH2 2915   1.761   4.338   4.428  0.1041 -0.2283 -0.2140
  970TIP3    H1 2916   1.684   4.324   4.482  1.2854  0.4799  1.7656
  970TIP3    H2 2917   1.807   4.411   4.469  2.3525 -1.2635 -0.6882
  971TIP3   OH2 2918   0.580   3.345   3.019 -0.0615  0.3984 -0.6288
  971TIP3    H1 2919   0.495   3.367   3.058  0.6145  0.9954  0.5632
  971TIP3    H2 2920   0.590   3.406   2.946 -0.6899  0.2634 -0.8365
  972TIP3   OH2 2921   5.078   5.263   2.488  0.1351  0.5572  0.1442
  972TIP3    H1 2922   5.076   5.216   2.572  0.5343  0.8891  0.3408
  972TIP3    H2 2923   5.138   5.336   2.502  1.3469 -0.1954 -0.8473
  973TIP3   OH2 2924   1.690   2.757   4.759 -0.7954 -0.4655  0.1677
  973TIP3    H1 2925   1.642   2.746   4.841 -2.4406  2.3320 -0.2863
  973TIP3    H2 2926   1.775   2.715   4.775 -2.3600 -3.2685  1.9355
  974TIP3   OH2 2927   2.261   0.555   2.229  0.0186  0.0227  0.2054
  974TIP3    H1 2928   2.346   0.525   2.262 -1.4532 -2.0302  2.5167
  974TIP3    H2 2929   2.258   0.523   2.139  1.7232  0.2917  0.0048
  975TIP3   OH2 2930   0.282   5.341   0.577 -0.7016 -0.1940 -0.2895
  975TIP3    H1 2931   0.309   5.424   0.616  0.4249 -0.3591 -0.6917
  975TIP3    H2 2932   0.204   5.315   0.627 -1.3244  1.3077 -0.4323
  976TIP3   OH2 2933   4.150   3.383   3.650 -0.0398  0.2334  0.0083
  976TIP3    H1 2934   4.209   3.454   3.626 -1.2544  1.4514  0.5476
  976TIP3    H2 2935   4.160   3.319   3.579  2.8493 -0.2189  0.7286
  977TIP3   OH2 2936   5.121   3.010   1.535 -0.2786 -0.1796  0.6533
  977TIP3    H1 2937   5.176   3.024   1.611  1.0837 -4.7837  0.7945
  977TIP3    H2 2938   5.177   2.964   1.472 -3.2931 -3.4655  0.0674
  978TIP3   OH2 2939   5.194   3.888   3.253  0.2094  0.3278  0.1881
  978TIP3    H1 2940   5.186   3.821   3.186  1.2416  0.3813  0.0096
  978TIP3    H2 2941   5.208   3.840   3.335 -0.7714  0.2752  0.3468
  979TIP3   OH2 2942   1.374   3.846   3.461 -0.5045 -0.2410  0.0694
  979TIP3    H1 2943   1.440   3.789   3.423 -0.3616 -0.7257  0.9973
  979TIP3    H2 2944   1.410   3.872   3.546 -0.4811  1.4128 -0.4099
  980TIP3   OH2 2945   3.584   2.467   4.273  0.4390  0.1125  0.6793
  980TIP3    H1 2946   3.583   2.560   4.299  0.9062  0.3610 -0.1503
  980TIP3    H2 2947   3.511   2.428   4.321 -1.0082  1.3226 -0.4493
  981TIP3   OH2 2948   1.521   1.467   3.363 -0.5337  0.0798  0.2572
  981TIP3    H1 2949   1.462   1.528   3.318 -0.8031  0.0455  0.5644
  981TIP3    H2 2950   1.465   1.420   3.424 -0.5256 -1.1945 -0.6739
  982TIP3   OH2 2951   1.080   3.884   1.389  0.4473 -0.5186 -0.0223
  982TIP3    H1 2952   1.135   3.961   1.379  0.7074 -0.7390 -0.3162
  982TIP3    H2 2953   1.015   3.909   1.455  0.0249  0.2303 -0.7044
  983TIP3   OH2 2954   5.369   2.049   2.695  0.1535  0.0516  0.2333
  983TIP3    H1 2955   5.278   2.068   2.674  0.1656  0.7559  0.7759
  983TIP3    H2 2956   5.367   1.961   2.734 -0.2311 -0.1133 -0.1596
  984TIP3   OH2 2957   2.575   3.386   2.298 -1.1209 -0.0267 -1.1400
  984TIP3    H1 2958   2.664   3.418   2.316 -0.5353 -2.2479  0.3723
  984TIP3    H2 2959   2.518   3.459   2.325  0.1432  0.1491  1.4276
  985TIP3   OH2 2960   3.515   1.191   2.894 -0.3183 -0.1399 -0.1539
  985TIP3    H1 2961   3.526   1.286   2.895  0.0998 -0.1901 -0.0804
  985TIP3    H2 2962   3.543   1.164   2.806  0.7161 -0.3295  0.2171
  986TIP3   OH2 2963   5.716   1.934   1.033 -0.2205 -0.1450  0.5257
  986TIP3    H1 2964   5.665   1.863   1.072 -0.9433  1.1374  2.0392
  986TIP3    H2 2965   5.765   1.971   1.106  1.7362 -0.3515 -0.6106
  987TIP3   OH2 2966   2.214   3.332   1.814 -0.0510 -0.6303  0.3180
  987TIP3    H1 2967   2.282   3.397   1.833 -1.8886  1.8335 -0.9544
  987TIP3    H2 2968   2.231   3.305   1.724  0.2069 -1.2956  0.5619
  988TIP3   OH2 2969   1.087   1.575   2.372  0.0589 -0.0327  0.2597
  988TIP3    H1 2970   1.051   1.652   2.328  2.3708 -0.3242 -2.4746
  988TIP3    H2 2971   1.169   1.606   2.411 -0.3479 -0.5367  1.5560
  989TIP3   OH2 2972   3.273   1.341   3.912 -0.1751  0.3575 -0.1414
  989TIP3    H1 2973   3.205   1.362   3.975  1.2101  1.4648  1.0595
  989TIP3    H2 2974   3.303   1.427   3.880  0.9326 -0.0825 -0.3285
  990TIP3   OH2 2975   5.782   4.087   4.278 -0.1572  0.0883  0.6142
  990TIP3    H1 2976   5.737   4.003   4.287  0.0712 -0.3604 -1.7808
  990TIP3    H2 2977   5.712   4.152   4.277 -0.6623 -0.4418 -1.2208
  991TIP3   OH2 2978   2.817   1.336   2.673  0.2768  0.1195  0.1283
  991TIP3    H1 2979   2.811   1.307   2.764 -1.2538 -0.7611 -0.2152
  991TIP3    H2 2980   2.853   1.260   2.626  2.2569  0.9829  0.1374
  992TIP3   OH2 2981   2.072   2.987   5.149 -0.3037  0.4854  0.0877
  992TIP3    H1 2982   2.062   3.081   5.166 -2.4943 -0.0763  2.5073
  992TIP3    H2 2983   2.133   2.983   5.076 -0.3836  3.7936 -0.3314
  993TIP3   OH2 2984   6.009   0.274   2.170 -0.1368  0.3514  0.2568
  993TIP3    H1 2985   5.999   0.179   2.175 -0.1180  0.3501  0.2728
  993TIP3    H2 2986   5.932   0.308   2.216  1.3316  0.3098  2.9674
  994TIP3   OH2 2987   1.476   5.674   4.274  0.2207 -0.5185 -0.8302
  994TIP3    H1 2988   1.447   5.690   4.184  0.0554  3.8980 -0.2282
  994TIP3    H2 2989   1.571   5.659   4.266 -0.1558 -2.7775 -1.8362
  995TIP3   OH2 2990   1.498   2.539   2.091 -0.7369 -0.2411  0.4007
  995TIP3    H1 2991   1.464   2.589   2.017  2.8021 -0.1207 -1.3625
  995TIP3    H2 2992   1.474   2.448   2.072 -1.0921 -0.0319 -0.1703
  996TIP3   OH2 2993   1.463   2.594   4.278 -0.0416 -0.1288 -0.6027
  996TIP3    H1 2994   1.371   2.580   4.253 -0.7665  2.3588  0.3930
  996TIP3    H2 2995   1.494   2.661   4.217  0.9118 -0.4179 -0.4466
  997TIP3   OH2 2996   0.724   5.134   2.259 -0.2612  0.2517 -0.0787
  997TIP3    H1 2997   0.782   5.117   2.333 -0.0681  0.2169 -0.2372
  997TIP3    H2 2998   0.714   5.049   2.217 -2.9913 -0.4997  1.7633
  998TIP3   OH2 2999   0.177   0.172   2.464 -0.3471  0.4322  0.2179
  998TIP3    H1 3000   0.155   0.171   2.371  2.2035 -1.8049 -0.4795
  998TIP3    H2 3001   0.116   0.110   2.504  1.0923 -1.6926 -0.7448
  999TIP3   OH2 3002   3.993   0.168   0.298  0.0622  0.1647  0.1642
  999TIP3    H1 3003   3.970   0.121   0.218  1.0758  1.1941 -0.7769
  999TIP3    H2 3004   3.960   0.113   0.369  0.4643 -1.5222 -0.9029
 1000TIP3   OH2 3005   0.037   3.723   0.457 -0.6017  0.2021 -0.0058
 1000TIP3    H1 3006   0.017   3.631   0.474 -0.2575 -0.0766 -1.0132
 1000TIP3    H2 3007  -0.044   3.770   0.477 -0.7776 -0.3173  0.5240
 1001TIP3   OH2 3008   1.579   2.424   1.724  0.2249 -0.1349  0.0446
 1001TIP3    H1 3009   1.537   2.345   1.689 -0.3255  0.0034  0.3788
 1001TIP3    H2 3010   1.596   2.478   1.647 -4.0836  1.7192  0.0741
 1002TIP3   OH2 3011   4.242   4.649   2.828  0.2641 -0.3091 -0.0868
 1002TIP3    H1 3012   4.324   4.659   2.876  1.4781 -0.0789 -2.1073
 1002TIP3    H2 3013   4.245   4.560   2.793 -1.0872 -0.8397  1.0263
 1003TIP3   OH2 3014   6.239   3.670   3.751  0.0346  0.2541  0.6528
 1003TIP3    H1 3015   6.189   3.698   3.674  0.1694 -2.5277 -0.5644
 1003TIP3    H2 3016   6.186   3.599   3.789  0.8159  0.4266  2.1292
 1004TIP3   OH2 3017   2.722   2.956   3.629  0.1227  0.7238  0.2865
 1004TIP3    H1 3018   2.657   2.984   3.565  0.4682  1.0190  0.0614
 1004TIP3    H2 3019   2.746   2.867   3.602  0.3760  0.9009 -0.0882
 1005TIP3   OH2 3020   5.287   1.816   0.698  0.1782 -0.0907 -0.0757
 1005TIP3    H1 3021   5.230   1.859   0.634 -0.3664 -0.2012  0.3301
 1005TIP3    H2 3022   5.305   1.730   0.660  1.0145  0.3651 -0.7437
 1006TIP3   OH2 3023   6.075   3.823   1.188  0.0878 -0.9254  0.3069
 1006TIP3    H1 3024   6.073   3.898   1.128 -0.7723 -1.7360 -0.7284
 1006TIP3    H2 3025   6.126   3.757   1.142 -2.5454 -2.4229 -0.6974
 1007TIP3   OH2 3026   0.022   1.786   3.785 -0.8481  0.0318  0.1923
 1007TIP3    H1 3027   0.037   1.729   3.861  2.3262  1.5700  0.8866
 1007TIP3    H2 3028  -0.019   1.864   3.822  0.0983  0.5134  0.2507
 1008TIP3   OH2 3029   6.097   3.785   3.537  0.0394 -0.4020 -0.0150
 1008TIP3    H1 3030   6.109   3.749   3.449 -0.1654  0.3803 -0.3759
 1008TIP3    H2 3031   6.127   3.876   3.530  3.7794 -1.3134  1.6894
 1009TIP3   OH2 3032   2.803   5.075   0.504  0.6618  0.3485 -0.4183
 1009TIP3    H1 3033   2.891   5.110   0.491  0.8654 -0.1752 -0.4686
 1009TIP3    H2 3034   2.810   5.025   0.586 -0.1982  2.2988  0.9191
 1010TIP3   OH2 3035   3.694   4.140   3.384 -0.0340  0.2049 -0.2731
 1010TIP3    H1 3036   3.716   4.051   3.412 -1.2691  0.1952  0.7920
 1010TIP3    H2 3037   3.668   4.184   3.465  1.0618  1.7084 -0.7023
 1011TIP3   OH2 3038   2.502   2.629   3.699  0.2323  0.2538 -0.3184
 1011TIP3    H1 3039   2.511   2.584   3.783  2.5296 -1.1899 -1.2608
 1011TIP3    H2 3040   2.488   2.721   3.723  0.8994 -0.1050  1.6334
 1012TIP3   OH2 3041   5.527   5.825   3.447  0.5510  0.2506  0.2045
 1012TIP3    H1 3042   5.608   5.876   3.446  0.2006  0.8629 -1.5820
 1012TIP3    H2 3043   5.474   5.862   3.376 -1.6559  0.3740  1.7987
 1013TIP3   OH2 3044   2.274   4.311   3.575  0.2946  0.9722 -0.0699
 1013TIP3    H1 3045   2.220   4.298   3.497 -0.7326  1.4155  0.5529
 1013TIP3    H2 3046   2.238   4.251   3.640 -0.5672  2.4785  0.8903
 1014TIP3   OH2 3047   5.079   3.510   0.911  0.4460 -0.1544 -0.2166
 1014TIP3    H1 3048   5.167   3.534   0.939  0.0034  1.0496  0.2145
 1014TIP3    H2 3049   5.025   3.524   0.989 -0.5263  1.5706 -1.1486
 1015TIP3   OH2 3050   5.665   3.824   3.058 -0.2077 -0.0976 -0.1986
 1015TIP3    H1 3051   5.754   3.792   3.068  0.3429 -0.1168 -3.9081
 1015TIP3    H2 3052   5.623   3.763   2.998 -2.1162  0.9995 -0.0852
 1016TIP3   OH2 3053   6.192   1.547   0.203 -0.3003 -0.1905 -0.2443
 1016TIP3    H1 3054   6.287   1.556   0.201 -0.3133  0.5347  1.2286
 1016TIP3    H2 3055   6.160   1.631   0.170 -0.4503 -0.3630 -0.5506
 1017TIP3   OH2 3056   6.284   1.935   1.593 -0.4049  0.3852  0.1142
 1017TIP3    H1 3057   6.208   1.878   1.580  1.0408 -1.5131 -0.3422
 1017TIP3    H2 3058   6.289   1.986   1.511  0.0207 -0.9903 -0.7452
 1018TIP3   OH2 3059   6.038   4.678   2.658 -0.1629  0.0027 -0.1266
 1018TIP3    H1 3060   6.102   4.614   2.690  0.3026  0.9574  0.9682
 1018TIP3    H2 3061   6.069   4.702   2.571  1.4624  1.0294  0.6938
 1019TIP3   OH2 3062   3.531   2.850   1.729 -0.5684  0.4863  0.6167
 1019TIP3    H1 3063   3.625   2.833   1.730 -0.3857  1.4166  1.8009
 1019TIP3    H2 3064   3.509   2.862   1.637 -0.0540 -2.3402  0.0280
 1020TIP3   OH2 3065   1.496   5.573   4.899  0.1365  0.8281 -0.4119
 1020TIP3    H1 3066   1.476   5.539   4.813  1.8933  1.4576 -1.1267
 1020TIP3    H2 3067   1.442   5.652   4.908 -0.7757  0.2233 -0.5065
 1021TIP3   OH2 3068   3.810   3.653   3.359 -0.1875 -0.0208  0.7725
 1021TIP3    H1 3069   3.887   3.612   3.319  0.7449  0.4580  2.0027
 1021TIP3    H2 3070   3.751   3.580   3.377  0.4073 -0.5341  0.7028
 1022TIP3   OH2 3071   4.920   4.913   2.072 -0.6317  0.0684  0.4063
 1022TIP3    H1 3072   4.828   4.897   2.094 -0.7975 -1.1218 -1.0100
 1022TIP3    H2 3073   4.962   4.827   2.083  0.6444  0.8661  2.3723
 1023TIP3   OH2 3074   1.650   3.730   0.632  0.5573  0.4770  0.1213
 1023TIP3    H1 3075   1.697   3.791   0.575  3.3756 -2.8069 -1.4744
 1023TIP3    H2 3076   1.697   3.734   0.715  0.4282  0.8251  0.1784
 1024TIP3   OH2 3077   1.493   4.194   4.035  0.1093  0.1335 -0.1634
 1024TIP3    H1 3078   1.471   4.111   4.077 -2.0504 -1.0004 -3.1073
 1024TIP3    H2 3079   1.588   4.200   4.042  0.5503 -3.3981 -1.0410
 1025TIP3   OH2 3080   4.598   0.846   2.854 -0.1301 -0.1175  0.1817
 1025TIP3    H1 3081   4.690   0.871   2.845 -0.1046  0.3930  1.5230
 1025TIP3    H2 3082   4.563   0.847   2.765  1.4195 -1.3952 -0.4764
 1026TIP3   OH2 3083   6.107   0.700   2.172 -0.3667 -0.2942  0.6331
 1026TIP3    H1 3084   6.121   0.658   2.087 -0.6889 -0.1013  0.4813
 1026TIP3    H2 3085   6.042   0.768   2.155 -0.0820  0.0641  0.9377
 1027TIP3   OH2 3086   3.678   1.020   0.794 -0.3508  0.2727  0.0973
 1027TIP3    H1 3087   3.583   1.021   0.795 -0.4396 -1.4332 -1.3883
 1027TIP3    H2 3088   3.703   0.966   0.869 -0.5458  0.7882  0.5342
 1028TIP3   OH2 3089   6.183   2.976   4.271 -0.0631 -0.0319 -0.2643
 1028TIP3    H1 3090   6.126   3.031   4.218 -1.5647  0.1520  1.4231
 1028TIP3    H2 3091   6.149   2.887   4.258  1.0222 -0.3170 -1.3411
 1029TIP3   OH2 3092   1.862   0.650   0.573 -0.0858  0.1798 -0.1488
 1029TIP3    H1 3093   1.835   0.558   0.585  0.9186  0.1388  2.2082
 1029TIP3    H2 3094   1.954   0.651   0.598  0.0705  1.7503 -0.7154
 1030TIP3   OH2 3095   1.321   4.027   1.315 -0.3946 -0.5756 -0.1608
 1030TIP3    H1 3096   1.273   4.101   1.278 -0.1892 -1.0315 -1.3720
 1030TIP3    H2 3097   1.405   4.064   1.341 -0.7080 -0.1562  0.2897
 1031TIP3   OH2 3098   5.997   3.907   3.226 -0.3080 -0.0870  0.0183
 1031TIP3    H1 3099   6.016   3.817   3.253 -0.3613 -0.4379 -1.0949
 1031TIP3    H2 3100   6.070   3.958   3.262  0.2765 -0.7302 -0.2229
 1032TIP3   OH2 3101   6.285   2.471   3.505 -0.0893 -0.1756  0.0142
 1032TIP3    H1 3102   6.218   2.407   3.480  0.4600 -1.0769  0.8336
 1032TIP3    H2 3103   6.319   2.440   3.588  0.7015  0.7978  0.0737
 1033TIP3   OH2 3104   1.234   1.866   3.940  0.2366 -0.2386  0.6810
 1033TIP3    H1 3105   1.160   1.816   3.974  0.1993  0.5606  1.8301
 1033TIP3    H2 3106   1.223   1.863   3.845 -1.2507 -0.1558  0.8294
 1034TIP3   OH2 3107   0.366   4.486   4.356 -0.4589 -0.0008  0.3875
 1034TIP3    H1 3108   0.389   4.512   4.445 -1.2722 -0.7211  0.8226
 1034TIP3    H2 3109   0.449   4.470   4.313 -0.0347  0.9083  0.8390
 1035TIP3   OH2 3110   0.137   5.656   1.221  0.2419 -0.0707 -0.3435
 1035TIP3    H1 3111   0.155   5.688   1.309  2.9427 -0.8512 -0.5200
 1035TIP3    H2 3112   0.176   5.722   1.163  0.7936 -0.8234 -0.8510
 1036TIP3   OH2 3113   3.894   0.097   3.804 -0.5179 -0.1671 -0.6436
 1036TIP3    H1 3114   3.945   0.177   3.815 -1.1151  0.5042 -2.5310
 1036TIP3    H2 3115   3.960   0.029   3.789  0.0044 -0.1204  1.1445
 1037TIP3   OH2 3116   3.855   4.440   2.411 -0.0993  0.0518  0.2634
 1037TIP3    H1 3117   3.826   4.524   2.374  0.4735 -0.7553 -2.2111
 1037TIP3    H2 3118   3.876   4.460   2.502 -0.2441  2.5283 -0.1681
 1038TIP3   OH2 3119   5.089   1.613   3.338  0.3669  0.3089 -0.1938
 1038TIP3    H1 3120   5.078   1.680   3.271 -0.2992 -0.1671 -0.5701
 1038TIP3    H2 3121   5.003   1.571   3.345  1.0824 -1.4103 -0.9557
 1039TIP3   OH2 3122   3.642   1.022   3.650  0.1569 -0.2707 -0.0221
 1039TIP3    H1 3123   3.665   0.969   3.574 -2.3918 -0.2482 -0.8851
 1039TIP3    H2 3124   3.611   1.105   3.613  0.3047  0.3071  1.1183
 1040TIP3   OH2 3125   5.823   2.843   4.225 -0.3632 -0.0989  0.4407
 1040TIP3    H1 3126   5.881   2.797   4.285  0.1901 -0.6556 -0.5062
 1040TIP3    H2 3127   5.791   2.918   4.275 -0.5765 -1.0068  1.6995
 1041TIP3   OH2 3128   1.488   4.799   1.318 -0.4505 -0.3209 -0.4734
 1041TIP3    H1 3129   1.424   4.749   1.267  1.6482 -0.8416 -2.7672
 1041TIP3    H2 3130   1.477   4.890   1.289 -1.5047 -0.0407  0.7005
 1042TIP3   OH2 3131   6.000   4.144   1.842 -0.0103  0.4656 -0.5746
 1042TIP3    H1 3132   5.937   4.129   1.772 -0.5005  0.8331 -0.2258
 1042TIP3    H2 3133   5.947   4.179   1.914  0.4941  0.1638 -0.0488
 1043TIP3   OH2 3134   0.650   3.977   0.052  0.1826  0.6935  0.6837
 1043TIP3    H1 3135   0.656   4.025  -0.031  0.7507 -2.3117 -1.1469
 1043TIP3    H2 3136   0.556   3.979   0.074 -0.0035  1.3339 -0.1185
 1044TIP3   OH2 3137   4.742   0.737   1.088 -0.1609  0.3840 -0.7907
 1044TIP3    H1 3138   4.813   0.677   1.112 -1.8225 -1.1202  0.5508
 1044TIP3    H2 3139   4.777   0.785   1.012  1.7250 -1.3251 -1.0878
 1045TIP3   OH2 3140   2.785   4.534   0.083 -0.1238 -0.5239  0.4868
 1045TIP3    H1 3141   2.848   4.584   0.134  0.3708 -1.5491  0.9011
 1045TIP3    H2 3142   2.837   4.466   0.041 -0.9303 -1.2909  0.7119
 1046TIP3   OH2 3143   1.441   1.046   2.012  0.1190 -0.2945  0.2520
 1046TIP3    H1 3144   1.354   1.085   2.021  0.4081  0.2498  0.7184
 1046TIP3    H2 3145   1.426   0.952   2.021 -0.2766 -0.1269  1.5332
 1047TIP3   OH2 3146   1.844   5.364   3.027  0.2705 -0.1050 -0.1340
 1047TIP3    H1 3147   1.841   5.386   3.120 -0.5780 -0.2083 -0.1300
 1047TIP3    H2 3148   1.752   5.353   3.002  0.3434  1.6125 -1.3892
 1048TIP3   OH2 3149   0.431   4.150   2.202 -0.5367  0.2084 -0.0854
 1048TIP3    H1 3150   0.460   4.068   2.241 -1.4519 -0.4989 -0.8465
 1048TIP3    H2 3151   0.338   4.137   2.185 -0.8254  1.6077  0.2693
 1049TIP3   OH2 3152   3.224   0.883   3.276  0.6233 -0.0444  0.0868
 1049TIP3    H1 3153   3.191   0.860   3.189  2.3578 -2.4068 -0.0410
 1049TIP3    H2 3154   3.146   0.882   3.332 -0.4466  1.0595 -1.3160
 1050TIP3   OH2 3155   5.082   1.623   3.651 -0.8468  0.7101  0.5465
 1050TIP3    H1 3156   4.994   1.587   3.660 -0.3271 -0.5899  0.6862
 1050TIP3    H2 3157   5.111   1.594   3.565 -0.0626 -0.0301  1.0445
 1051TIP3   OH2 3158   2.791   2.071   0.189 -0.1482 -0.5107  0.6220
 1051TIP3    H1 3159   2.862   2.099   0.132 -1.5188 -1.0557 -1.4722
 1051TIP3    H2 3160   2.771   2.147   0.243  0.9028  0.1736  0.0689
 1052TIP3   OH2 3161   4.845   1.608   4.835  0.2962 -0.2271  0.3093
 1052TIP3    H1 3162   4.780   1.578   4.772  1.1049  1.7182 -1.5660
 1052TIP3    H2 3163   4.929   1.589   4.793  0.9051 -0.3647  1.5448
 1053TIP3   OH2 3164   3.091   1.981   0.354 -0.0593  0.5160 -0.0245
 1053TIP3    H1 3165   3.045   2.025   0.282 -2.0136 -0.0630  0.8021
 1053TIP3    H2 3166   3.063   2.029   0.432 -1.8975 -1.7775  0.8595
 1054TIP3   OH2 3167   1.483   3.082   5.018  0.3594 -0.2905 -0.3698
 1054TIP3    H1 3168   1.403   3.133   5.006  0.0016 -0.7438  0.0430
 1054TIP3    H2 3169   1.537   3.133   5.077  0.1451 -0.2353 -0.2232
 1055TIP3   OH2 3170   1.061   1.218   3.676 -0.0325 -0.4776  0.1858
 1055TIP3    H1 3171   1.126   1.148   3.665  0.0511 -0.0078 -4.2837
 1055TIP3    H2 3172   0.977   1.173   3.670 -0.0114 -0.4810 -0.1095
 1056TIP3   OH2 3173   4.485   3.092   5.054 -0.2549 -0.1055  0.1364
 1056TIP3    H1 3174   4.423   3.158   5.022 -1.0409  0.1191  1.9614
 1056TIP3    H2 3175   4.552   3.143   5.099 -0.4311 -0.4865  0.8491
 1057TIP3   OH2 3176   3.302   2.730   4.964  0.2855 -0.1331  0.2773
 1057TIP3    H1 3177   3.273   2.668   4.897  2.3583 -1.5430  0.6076
 1057TIP3    H2 3178   3.286   2.816   4.924 -0.0722 -0.9009 -1.3411
 1058TIP3   OH2 3179   2.877   0.126   0.136  0.2245  0.2274  0.1707
 1058TIP3    H1 3180   2.924   0.107   0.055 -1.1474 -0.6537 -0.4442
 1058TIP3    H2 3181   2.807   0.186   0.111  0.3458  0.6836  0.8812
 1059TIP3   OH2 3182   4.967   1.879   2.154 -0.2142 -0.4194 -0.4533
 1059TIP3    H1 3183   5.033   1.869   2.086  0.2629 -0.1332 -0.0487
 1059TIP3    H2 3184   4.946   1.790   2.181  0.7338 -0.4965  0.0855
 1060TIP3   OH2 3185   5.457   1.828   3.341  0.3329 -0.2606 -0.0815
 1060TIP3    H1 3186   5.508   1.847   3.263 -0.1295 -0.3985 -0.4266
 1060TIP3    H2 3187   5.429   1.913   3.374 -0.4042 -0.2396 -0.7130
 1061TIP3   OH2 3188   1.299   4.075   2.577 -0.6740  0.1005  0.1430
 1061TIP3    H1 3189   1.236   4.010   2.607 -1.3379  0.5171 -0.3088
 1061TIP3    H2 3190   1.337   4.036   2.498 -0.2938 -0.1925  0.4697
 1062TIP3   OH2 3191   1.891   5.841   0.075 -0.1669  0.9776 -0.0985
 1062TIP3    H1 3192   1.942   5.877   0.002 -1.7822  1.5551 -1.0022
 1062TIP3    H2 3193   1.833   5.913   0.101 -1.3744 -0.0275  0.0679
 1063TIP3   OH2 3194   0.929   0.533   0.571 -0.3534  0.1268 -0.3671
 1063TIP3    H1 3195   0.926   0.526   0.475 -0.1436  0.9250 -0.4415
 1063TIP3    H2 3196   0.998   0.597   0.588 -0.0123 -0.4254  0.3486
 1064TIP3   OH2 3197   0.621   5.298   4.417 -0.3669  0.3422 -0.2947
 1064TIP3    H1 3198   0.679   5.233   4.457 -1.6706 -0.8020 -0.1616
 1064TIP3    H2 3199   0.613   5.270   4.326  0.3716  1.3092 -0.6719
 1065TIP3   OH2 3200   0.937   3.278   4.789  0.4503  0.0221  0.3284
 1065TIP3    H1 3201   1.017   3.315   4.751  0.6443 -1.2654 -0.6131
 1065TIP3    H2 3202   0.967   3.231   4.867  0.6883 -0.6691 -0.1583
 1066TIP3   OH2 3203   3.872   5.158   4.516  0.3890 -0.0889  0.1259
 1066TIP3    H1 3204   3.893   5.079   4.565 -0.5648  0.3833  1.3382
 1066TIP3    H2 3205   3.806   5.131   4.453  2.1954 -0.8769 -1.5331
 1067TIP3   OH2 3206   2.346   1.910   1.291 -0.7524  0.2105 -0.3753
 1067TIP3    H1 3207   2.408   1.918   1.219 -0.3468  1.3430  0.0646
 1067TIP3    H2 3208   2.267   1.953   1.259 -1.1024 -0.6672 -0.7035
 1068TIP3   OH2 3209   6.373   4.444   0.515  0.1498  0.3808 -0.5954
 1068TIP3    H1 3210   6.287   4.483   0.498  0.2139  1.0569  0.5801
 1068TIP3    H2 3211   6.365   4.405   0.602  1.5038  1.8344  0.2276
 1069TIP3   OH2 3212   4.677   3.156   3.434  0.7412  0.5624 -0.5714
 1069TIP3    H1 3213   4.629   3.078   3.406 -2.1803  1.8141  0.5953
 1069TIP3    H2 3214   4.677   3.213   3.358 -0.0944  0.7560 -0.4306
 1070TIP3   OH2 3215   4.246   2.921   0.949  0.3504  0.0874 -0.2051
 1070TIP3    H1 3216   4.221   2.924   1.041 -0.0131 -0.3493 -0.2850
 1070TIP3    H2 3217   4.337   2.892   0.949 -0.1349 -1.5570 -0.0426
 1071TIP3   OH2 3218   2.760   5.195   3.348  0.2738  0.1213  0.0115
 1071TIP3    H1 3219   2.734   5.230   3.433 -1.1616 -0.0980 -0.3204
 1071TIP3    H2 3220   2.782   5.273   3.296  0.2044  0.3217  0.2774
 1072TIP3   OH2 3221   2.614   3.584   3.035 -0.4437 -0.4577 -0.4294
 1072TIP3    H1 3222   2.545   3.641   3.069 -0.0518  0.4740 -1.1628
 1072TIP3    H2 3223   2.689   3.601   3.092  0.0712  0.7622 -1.4123
 1073TIP3   OH2 3224   0.012   2.851   1.355 -0.2662  0.9841 -0.6486
 1073TIP3    H1 3225   0.002   2.775   1.413  0.3044  0.6712 -0.9408
 1073TIP3    H2 3226   0.006   2.814   1.267  2.5086  0.8261 -0.8679
 1074TIP3   OH2 3227   3.507   1.056   1.143 -0.0702  0.1429  0.4330
 1074TIP3    H1 3228   3.490   1.037   1.050  1.4870 -1.8083  0.4764
 1074TIP3    H2 3229   3.431   1.020   1.189 -0.1185 -0.2965  0.0161
 1075TIP3   OH2 3230   0.774   3.178   3.688 -0.0071  0.3183 -0.1183
 1075TIP3    H1 3231   0.864   3.146   3.685  0.3281  1.2391 -0.2104
 1075TIP3    H2 3232   0.725   3.107   3.728  0.6650 -0.4135 -0.5643
 1076TIP3   OH2 3233   0.528   4.452   3.620 -0.5084 -0.3819  0.1907
 1076TIP3    H1 3234   0.546   4.367   3.578  0.6274 -0.3710  0.6286
 1076TIP3    H2 3235   0.496   4.507   3.548  0.1065 -0.7623 -0.3882
 1077TIP3   OH2 3236   4.521   5.692   2.030  0.0109 -0.0559  0.5570
 1077TIP3    H1 3237   4.442   5.727   2.071 -0.4806 -0.3185 -0.1537
 1077TIP3    H2 3238   4.495   5.674   1.940  1.0290  0.3388  0.1767
 1078TIP3   OH2 3239   1.922   1.547   3.079  0.1549 -0.1958 -0.0581
 1078TIP3    H1 3240   1.849   1.511   3.028  1.3407 -0.8750 -1.3574
 1078TIP3    H2 3241   1.939   1.480   3.146 -0.1843 -0.2014  0.0253
 1079TIP3   OH2 3242   1.465   1.752   1.967 -1.1484 -0.5121 -0.2796
 1079TIP3    H1 3243   1.507   1.712   2.043  0.0568 -1.2567 -1.3107
 1079TIP3    H2 3244   1.516   1.831   1.950 -0.5983 -1.0347 -1.0976
 1080TIP3   OH2 3245   4.282   3.604   2.033 -0.2588  0.2979 -0.2691
 1080TIP3    H1 3246   4.309   3.583   2.123  1.7005  0.7178 -0.7134
 1080TIP3    H2 3247   4.307   3.528   1.982 -3.4857 -0.9757 -0.2113
 1081TIP3   OH2 3248   1.451   2.368   2.578  0.1780  0.3054  0.5290
 1081TIP3    H1 3249   1.398   2.335   2.651  0.6427  1.2746  1.3269
 1081TIP3    H2 3250   1.396   2.355   2.501  0.1996 -1.9737  0.8346
 1082TIP3   OH2 3251   3.340   2.232   2.584  0.0697  0.1387  0.3907
 1082TIP3    H1 3252   3.312   2.148   2.621 -0.2939  0.3768  0.6662
 1082TIP3    H2 3253   3.433   2.220   2.564  0.0901 -0.2380  0.6988
 1083TIP3   OH2 3254   1.857   5.977   1.813  0.2373 -0.0801  0.3438
 1083TIP3    H1 3255   1.934   5.969   1.757 -0.3223 -0.7975 -0.3543
 1083TIP3    H2 3256   1.784   5.989   1.752 -0.0380  2.1850  1.0505
 1084TIP3   OH2 3257   0.707   0.597   4.564  0.4338  0.3090 -0.4579
 1084TIP3    H1 3258   0.760   0.660   4.515 -0.5281  0.8971 -0.7799
 1084TIP3    H2 3259   0.634   0.578   4.506  1.1896 -1.8901 -0.7767
 1085TIP3   OH2 3260   3.543   0.442   3.425 -0.0222 -0.3646 -0.2757
 1085TIP3    H1 3261   3.619   0.477   3.378  0.5464  1.0547  1.5504
 1085TIP3    H2 3262   3.524   0.508   3.493 -3.2201 -0.3948 -0.9522
 1086TIP3   OH2 3263   0.459   3.513   0.504 -0.1884  0.5180 -0.5516
 1086TIP3    H1 3264   0.538   3.472   0.537 -0.6418 -0.6733 -0.8851
 1086TIP3    H2 3265   0.489   3.576   0.439  0.5037  0.5006 -0.2538
 1087TIP3   OH2 3266   5.055   4.813   3.795  0.3779 -0.1084  0.1353
 1087TIP3    H1 3267   5.029   4.739   3.740 -1.4201 -1.1787  2.2867
 1087TIP3    H2 3268   4.999   4.885   3.766 -1.9882 -1.1900  1.7046
 1088TIP3   OH2 3269   1.301   1.252   1.248 -0.6394  0.0342 -0.3444
 1088TIP3    H1 3270   1.267   1.274   1.161 -0.8218  0.6971 -0.1102
 1088TIP3    H2 3271   1.304   1.335   1.295  0.4010 -0.1689 -0.0381
 1089TIP3   OH2 3272   4.049   1.823   3.537 -0.1219  0.3094  0.0037
 1089TIP3    H1 3273   4.054   1.860   3.449  0.1453  2.1665  0.7707
 1089TIP3    H2 3274   4.117   1.869   3.586  0.2910 -1.2895  0.9972
 1090TIP3   OH2 3275   6.162   4.227   0.714 -0.3076 -0.3522 -0.2742
 1090TIP3    H1 3276   6.171   4.256   0.804  0.1935 -1.1448 -0.0571
 1090TIP3    H2 3277   6.222   4.153   0.707  0.7713  0.5984 -1.6574
 1091TIP3   OH2 3278   2.766   5.206   2.801 -0.2249  0.3027  0.3395
 1091TIP3    H1 3279   2.683   5.250   2.819  0.0797  0.4771  1.3423
 1091TIP3    H2 3280   2.765   5.129   2.857  0.2029  0.1863  0.1908
 1092TIP3   OH2 3281   0.136   2.705   0.206  0.2871  0.2839 -0.3581
 1092TIP3    H1 3282   0.193   2.780   0.189  0.5614  0.7385  2.0783
 1092TIP3    H2 3283   0.183   2.655   0.273 -0.2883 -1.6510 -1.3380
 1093TIP3   OH2 3284   4.906   2.098   0.825 -0.2333  0.4389  0.6413
 1093TIP3    H1 3285   4.831   2.040   0.841  0.4452 -0.7474 -0.2701
 1093TIP3    H2 3286   4.947   2.062   0.747  1.7084  0.6062  1.5210
 1094TIP3   OH2 3287   2.980   2.412   1.226 -0.1642 -0.0511  0.3887
 1094TIP3    H1 3288   2.934   2.485   1.183 -0.4154 -1.7668 -2.5116
 1094TIP3    H2 3289   3.069   2.417   1.193 -0.4378 -1.6062 -0.6571
 1095TIP3   OH2 3290   2.777   2.162   3.756 -0.2486 -0.5432  0.2650
 1095TIP3    H1 3291   2.769   2.256   3.739 -0.9016 -0.1982  2.1887
 1095TIP3    H2 3292   2.871   2.145   3.755 -0.1131  0.1905  0.1865
 1096TIP3   OH2 3293   1.658   3.083   0.128 -0.4657 -0.0803  0.7471
 1096TIP3    H1 3294   1.594   3.032   0.079  0.3010 -0.4508  0.1120
 1096TIP3    H2 3295   1.632   3.073   0.219 -0.5521 -1.3016  0.5998
 1097TIP3   OH2 3296   4.917   1.891   0.624  0.0317  0.1191 -0.0402
 1097TIP3    H1 3297   4.983   1.893   0.555  0.5811  0.7598  0.4864
 1097TIP3    H2 3298   4.836   1.919   0.581  0.0603 -0.7957 -0.7161
 1098TIP3   OH2 3299   0.281   5.636   2.789 -0.2318 -0.1428  0.2720
 1098TIP3    H1 3300   0.230   5.653   2.710 -1.3897 -0.7359  0.8828
 1098TIP3    H2 3301   0.281   5.541   2.799 -0.0665 -0.0802  0.9633
 1099TIP3   OH2 3302   5.742   2.758   2.552 -0.2280 -0.9696 -0.4567
 1099TIP3    H1 3303   5.773   2.696   2.486  0.2055 -1.9483  0.6307
 1099TIP3    H2 3304   5.647   2.751   2.548 -0.2006 -1.1886 -0.8102
 1100TIP3   OH2 3305   1.753   3.978   1.421 -0.2494  0.5714  0.1194
 1100TIP3    H1 3306   1.842   4.015   1.417  0.6278 -1.4531 -0.4565
 1100TIP3    H2 3307   1.714   4.019   1.498  2.3424 -0.7861  2.3620
 1101TIP3   OH2 3308   0.822   4.823   2.978 -0.2212 -0.6406 -0.1205
 1101TIP3    H1 3309   0.754   4.868   3.029  0.9155 -1.5588  2.3987
 1101TIP3    H2 3310   0.904   4.864   3.007  0.4965 -1.3225 -1.1414
 1102TIP3   OH2 3311   1.914   0.973   2.082  0.4066 -0.4725  0.2808
 1102TIP3    H1 3312   1.930   0.919   2.160 -0.3600 -0.5384  0.3988
 1102TIP3    H2 3313   1.906   1.062   2.116  0.0430 -0.5051  0.2852
 1103TIP3   OH2 3314   3.366   0.521   3.710 -0.2266  0.4539 -0.1555
 1103TIP3    H1 3315   3.429   0.533   3.781 -0.9769 -0.6017  0.7158
 1103TIP3    H2 3316   3.281   0.544   3.748 -0.8483 -1.5184 -0.2311
 1104TIP3   OH2 3317   5.636   3.730   0.297 -0.3191 -0.3323 -0.2684
 1104TIP3    H1 3318   5.613   3.807   0.245  1.9568 -0.0570 -0.9517
 1104TIP3    H2 3319   5.633   3.657   0.234 -0.3933 -0.4637 -0.1129
 1105TIP3   OH2 3320   3.592   5.938   5.128 -0.5428  0.3541 -0.6419
 1105TIP3    H1 3321   3.602   5.879   5.053 -1.2438 -2.7684  1.5191
 1105TIP3    H2 3322   3.497   5.939   5.144 -0.3049 -0.3430  1.0636
 1106TIP3   OH2 3323   5.764   3.909   1.133  0.1536 -0.2171 -0.3627
 1106TIP3    H1 3324   5.741   3.890   1.042 -1.1441  1.8118 -0.5265
 1106TIP3    H2 3325   5.728   3.836   1.183 -2.2080  0.3080 -1.1760
 1107TIP3   OH2 3326   2.278   0.319   1.285  0.1942 -0.5052 -0.3702
 1107TIP3    H1 3327   2.310   0.244   1.334  1.5019 -1.5573 -2.6468
 1107TIP3    H2 3328   2.192   0.292   1.253  0.0228 -0.4304  0.0195
 1108TIP3   OH2 3329   2.657   5.242   1.677  0.0326  0.1593  0.5521
 1108TIP3    H1 3330   2.619   5.258   1.590  0.1425 -0.7675  0.3233
 1108TIP3    H2 3331   2.741   5.287   1.675  0.2887 -0.3384 -0.0279
 1109TIP3   OH2 3332   5.303   5.741   0.787 -0.1181 -0.6632 -0.0380
 1109TIP3    H1 3333   5.207   5.742   0.786 -0.1299  0.6108 -0.3461
 1109TIP3    H2 3334   5.327   5.679   0.718 -0.7333 -0.3264 -0.5673
 1110TIP3   OH2 3335   2.689   0.109   1.483  0.1629  0.2663  0.2055
 1110TIP3    H1 3336   2.712   0.173   1.551  1.2095 -0.8322  0.9289
 1110TIP3    H2 3337   2.710   0.153   1.401  0.7177  0.9202  0.6840
 1111TIP3   OH2 3338   4.791   0.473   3.525 -0.0295 -0.3851 -0.0868
 1111TIP3    H1 3339   4.748   0.545   3.571  2.2294  1.0419 -0.0970
 1111TIP3    H2 3340   4.840   0.427   3.593  0.2046 -0.6282 -0.4185
 1112TIP3   OH2 3341   1.186   2.731   3.204 -0.0976  0.2357  0.3072
 1112TIP3    H1 3342   1.206   2.664   3.139  2.6210  0.2909  0.9632
 1112TIP3    H2 3343   1.099   2.708   3.237 -0.8232 -0.7597 -2.0846
 1113TIP3   OH2 3344   5.266   4.367   4.367  0.4950 -0.4323  0.1670
 1113TIP3    H1 3345   5.221   4.395   4.447 -1.8146  1.2025 -1.5511
 1113TIP3    H2 3346   5.196   4.332   4.312  1.6856  0.2149 -1.8305
 1114TIP3   OH2 3347   5.401   2.108   1.082  0.0749 -0.6235  0.0343
 1114TIP3    H1 3348   5.431   2.052   1.011 -0.0199  0.4259 -0.8672
 1114TIP3    H2 3349   5.360   2.183   1.038  0.6980  0.4361  1.1695
 1115TIP3   OH2 3350   3.333   1.636   2.101  0.0842 -0.2573 -0.2855
 1115TIP3    H1 3351   3.287   1.652   2.183 -1.3943 -0.4569 -1.0361
 1115TIP3    H2 3352   3.322   1.717   2.051  0.0070 -0.5354 -0.7215
 1116TIP3   OH2 3353   2.862   0.381   4.352 -0.2958  0.2736 -0.0490
 1116TIP3    H1 3354   2.771   0.404   4.333 -0.5413  0.3849  1.1991
 1116TIP3    H2 3355   2.907   0.392   4.268 -1.5077 -0.2183 -0.7925
 1117TIP3   OH2 3356   1.570   5.879   0.658 -0.0693 -0.3392 -0.4419
 1117TIP3    H1 3357   1.500   5.881   0.593  0.9440  3.9893 -1.7249
 1117TIP3    H2 3358   1.527   5.907   0.740 -0.2521  0.3834 -0.7733
 1118TIP3   OH2 3359   6.137   1.498   3.686  0.4032  0.1636  0.1688
 1118TIP3    H1 3360   6.169   1.453   3.608 -0.2593 -2.4429  1.2676
 1118TIP3    H2 3361   6.046   1.520   3.665  0.7105  0.9460 -0.3581
 1119TIP3   OH2 3362   3.022   5.643   3.840  0.5479  0.0873 -0.2606
 1119TIP3    H1 3363   2.930   5.655   3.863  0.6643 -0.4781  0.5859
 1119TIP3    H2 3364   3.031   5.548   3.827  1.2910 -0.0547  1.0702
 1120TIP3   OH2 3365   0.097   2.465   0.812 -0.0338  0.5259  0.0990
 1120TIP3    H1 3366   0.140   2.527   0.872  3.5968 -1.3933 -0.2711
 1120TIP3    H2 3367   0.107   2.505   0.726  1.9413 -0.2450 -0.0876
 1121TIP3   OH2 3368   2.876   2.609   4.913  0.2801  0.0831  0.2867
 1121TIP3    H1 3369   2.907   2.657   4.836  1.0936  1.1508  1.2218
 1121TIP3    H2 3370   2.918   2.655   4.987 -0.3490 -0.9972  1.3441
 1122TIP3   OH2 3371   6.109   0.963   1.354  0.5927  0.1704 -0.2942
 1122TIP3    H1 3372   6.113   0.921   1.267 -0.2522  0.7354 -0.6154
 1122TIP3    H2 3373   6.136   1.053   1.338  0.4387  0.2749  0.0445
 1123TIP3   OH2 3374   0.207   4.753   3.653 -0.1157 -0.0160  0.6091
 1123TIP3    H1 3375   0.230   4.793   3.569 -2.3174 -1.2872 -0.7116
 1123TIP3    H2 3376   0.290   4.728   3.692  0.9918  1.1368 -0.9110
 1124TIP3   OH2 3377   2.800   2.933   2.538 -0.6481 -0.2257 -0.0191
 1124TIP3    H1 3378   2.706   2.941   2.523 -0.6279  1.3882  0.4926
 1124TIP3    H2 3379   2.828   3.021   2.563  1.2942 -0.2462 -1.7992
 1125TIP3   OH2 3380   3.068   3.255   3.119 -0.0363  0.1670 -0.2702
 1125TIP3    H1 3381   2.987   3.217   3.085 -0.5443  0.0210  1.0544
 1125TIP3    H2 3382   3.063   3.241   3.214  1.0242  1.1402 -0.0557
 1126TIP3   OH2 3383   3.282   0.317   3.053  0.2904 -0.1922 -0.3417
 1126TIP3    H1 3384   3.198   0.344   3.016 -1.5510 -3.3611  1.1069
 1126TIP3    H2 3385   3.306   0.386   3.114 -0.8986  1.0869 -1.2780
 1127TIP3   OH2 3386   5.181   2.149   0.601 -0.1943 -0.0145  0.1162
 1127TIP3    H1 3387   5.104   2.155   0.544  1.0717  1.0878 -1.6033
 1127TIP3    H2 3388   5.252   2.185   0.548  1.4293 -0.5880  1.8024
 1128TIP3   OH2 3389   0.100   2.686   5.095 -0.5259  0.0330 -0.1165
 1128TIP3    H1 3390   0.162   2.664   5.025  0.7634 -1.3507  1.3857
 1128TIP3    H2 3391   0.137   2.765   5.136 -1.0243  0.5624 -0.6697
 1129TIP3   OH2 3392   2.256   5.211   4.834  0.6947  0.8108 -0.2192
 1129TIP3    H1 3393   2.293   5.271   4.898  0.3799  2.6752 -1.6909
 1129TIP3    H2 3394   2.251   5.262   4.753 -0.6779 -0.8495 -1.2608
 1130TIP3   OH2 3395   1.102   1.984   1.932 -0.2376  0.5808  0.3916
 1130TIP3    H1 3396   1.021   2.029   1.956 -1.3421  0.6342 -2.9737
 1130TIP3    H2 3397   1.080   1.891   1.937 -0.5326  0.5954 -0.5232
 1131TIP3   OH2 3398   3.456   5.906   2.939 -0.2118 -0.7245 -0.1748
 1131TIP3    H1 3399   3.547   5.878   2.926  0.3167 -0.2942  2.2393
 1131TIP3    H2 3400   3.442   5.900   3.033 -2.6834 -0.6760 -0.4860
 1132TIP3   OH2 3401   6.146   1.004   4.659 -0.1339 -0.0449 -0.6286
 1132TIP3    H1 3402   6.144   1.049   4.743 -0.7646 -1.0504 -0.0979
 1132TIP3    H2 3403   6.054   0.996   4.633 -0.0990 -1.6285 -0.3685
 1133TIP3   OH2 3404   5.192   4.042   2.256 -0.1871  0.0262 -0.1333
 1133TIP3    H1 3405   5.139   4.086   2.190  1.8716 -0.6713 -2.3886
 1133TIP3    H2 3406   5.187   3.949   2.233  2.1764 -0.0407 -0.6286
 1134TIP3   OH2 3407   4.205   4.243   0.941 -0.0261  0.2685  0.0214
 1134TIP3    H1 3408   4.134   4.210   0.887 -1.7051  1.5212  1.3572
 1134TIP3    H2 3409   4.282   4.192   0.914 -1.1684 -0.3898 -2.2027
 1135TIP3   OH2 3410   4.288   3.606   0.882  0.0311  0.2016  0.5243
 1135TIP3    H1 3411   4.333   3.606   0.967 -1.1596 -0.9929  1.1929
 1135TIP3    H2 3412   4.357   3.623   0.818  1.1659 -0.1019  1.6305
 1136TIP3   OH2 3413   3.145   3.574   1.931 -0.3893 -0.0325  0.6319
 1136TIP3    H1 3414   3.230   3.542   1.902  0.5194  2.9402 -0.3350
 1136TIP3    H2 3415   3.122   3.516   2.004  1.5646 -2.0413 -0.2046
 1137TIP3   OH2 3416   5.524   5.770   3.916 -0.2686  0.0386  0.2452
 1137TIP3    H1 3417   5.462   5.706   3.883 -0.3056  0.3597 -0.3279
 1137TIP3    H2 3418   5.474   5.823   3.978 -0.6095  0.3778 -0.3114
 1138TIP3   OH2 3419   4.504   3.899   2.308 -0.1665 -0.2448  0.2618
 1138TIP3    H1 3420   4.410   3.888   2.297  0.2211 -2.7222 -1.5747
 1138TIP3    H2 3421   4.542   3.864   2.227  2.3815 -0.6011  1.4965
 1139TIP3   OH2 3422   5.776   4.793   4.437  0.2152  0.1864  0.3419
 1139TIP3    H1 3423   5.809   4.766   4.351 -1.5058  2.3377 -1.1576
 1139TIP3    H2 3424   5.750   4.712   4.480 -0.9847 -0.8789 -2.1626
 1140TIP3   OH2 3425   3.014   2.218   0.107  0.2971 -0.2896 -0.3971
 1140TIP3    H1 3426   3.076   2.286   0.133 -0.9176  0.7626 -0.1471
 1140TIP3    H2 3427   2.947   2.265   0.057 -1.0753 -1.1328  0.5973
 1141TIP3   OH2 3428   2.470   5.049   0.691 -0.3421 -0.0320 -0.3802
 1141TIP3    H1 3429   2.476   5.043   0.596 -1.3632 -0.0233 -0.4536
 1141TIP3    H2 3430   2.463   5.142   0.709  0.5937  0.0252 -0.2299
 1142TIP3   OH2 3431   5.421   5.567   0.628  0.4942  0.0154 -0.3927
 1142TIP3    H1 3432   5.361   5.493   0.621 -1.0076  1.1570 -0.0247
 1142TIP3    H2 3433   5.507   5.527   0.637 -0.2431 -1.6786 -0.5468
 1143TIP3   OH2 3434   5.800   0.763   2.155  0.2480  0.1808  0.6306
 1143TIP3    H1 3435   5.763   0.739   2.240 -0.6478  1.5785  0.6615
 1143TIP3    H2 3436   5.786   0.685   2.101 -0.2223 -0.3146  1.4403
 1144TIP3   OH2 3437   0.760   0.402   4.336  0.0224 -0.3424  0.4594
 1144TIP3    H1 3438   0.693   0.335   4.319  1.0461 -1.1670 -0.4406
 1144TIP3    H2 3439   0.820   0.395   4.262 -0.3869  2.3175 -0.2582
 1145TIP3   OH2 3440   2.935   4.799   1.843 -0.1244 -0.2104  0.2757
 1145TIP3    H1 3441   2.856   4.828   1.889 -1.4867 -1.1058 -1.3975
 1145TIP3    H2 3442   2.913   4.711   1.811  1.9594 -0.9438  0.6883
 1146TIP3   OH2 3443   0.452   2.114   1.912  0.3503 -0.1363 -0.1881
 1146TIP3    H1 3444   0.384   2.167   1.870  0.4740 -0.2281 -0.5095
 1146TIP3    H2 3445   0.473   2.162   1.992  3.3849  2.6303 -2.3519
 1147TIP3   OH2 3446   0.569   1.923   1.101  0.0974 -0.0876 -0.2659
 1147TIP3    H1 3447   0.634   1.857   1.123  0.2915 -0.9253 -2.9114
 1147TIP3    H2 3448   0.612   2.007   1.117  0.2328 -0.5523  2.0974
 1148TIP3   OH2 3449   2.808   4.381   2.805 -0.0432  0.2483 -0.2264
 1148TIP3    H1 3450   2.866   4.447   2.843  0.8592  0.2076 -1.4864
 1148TIP3    H2 3451   2.743   4.431   2.757 -0.7151  0.2706  0.6709
 1149TIP3   OH2 3452   0.402   3.733   4.145 -0.0198  0.2699 -0.2524
 1149TIP3    H1 3453   0.412   3.827   4.161 -0.8754  0.5694 -1.3916
 1149TIP3    H2 3454   0.318   3.710   4.186 -0.1273  0.1403 -0.5433
 1150TIP3   OH2 3455   1.614   4.393   1.907  0.2539 -0.0793  0.1303
 1150TIP3    H1 3456   1.519   4.393   1.905  0.0495 -3.3797  2.0127
 1150TIP3    H2 3457   1.639   4.304   1.881  2.8002  0.4619  0.4056
 1151TIP3   OH2 3458   2.732   5.145   4.587  0.2585 -0.2068 -0.0239
 1151TIP3    H1 3459   2.694   5.218   4.636 -0.2104 -0.0733 -0.5847
 1151TIP3    H2 3460   2.784   5.186   4.518  0.5863 -0.4002  0.1052
 1152TIP3   OH2 3461   0.452   0.490   0.820  0.6104 -0.2320  0.5708
 1152TIP3    H1 3462   0.527   0.522   0.770  0.1410  1.2466  0.7930
 1152TIP3    H2 3463   0.482   0.490   0.911  0.0117  1.4312  0.7947
 1153TIP3   OH2 3464   5.727   2.599   0.070 -0.6683 -0.3218  0.5893
 1153TIP3    H1 3465   5.759   2.591   0.160  2.0268 -0.6754 -0.3005
 1153TIP3    H2 3466   5.806   2.606   0.017 -2.1871  0.7140 -1.7156
 1154TIP3   OH2 3467   0.608   0.168   2.971  0.3668  0.3640 -0.3823
 1154TIP3    H1 3468   0.603   0.077   3.001 -0.4266  1.0785  1.9484
 1154TIP3    H2 3469   0.520   0.188   2.940  0.3398  0.5480 -0.1893
 1155TIP3   OH2 3470   0.334   4.395   2.905  0.1436 -0.2454  0.3947
 1155TIP3    H1 3471   0.413   4.445   2.885 -1.4255  2.1857 -0.1817
 1155TIP3    H2 3472   0.328   4.331   2.834  2.0160 -1.1072  0.9398
 1156TIP3   OH2 3473   0.483   1.282   1.028 -1.1323  0.0068 -0.5027
 1156TIP3    H1 3474   0.458   1.349   1.092  0.5828  1.4662 -1.2477
 1156TIP3    H2 3475   0.452   1.317   0.944  1.6509  1.1037 -1.2272
 1157TIP3   OH2 3476   4.940   4.503   1.007 -0.1187 -0.4213  0.0210
 1157TIP3    H1 3477   4.931   4.549   1.090 -0.3715 -0.6481  0.1214
 1157TIP3    H2 3478   4.999   4.558   0.955 -0.2890 -0.0659  0.1975
 1158TIP3   OH2 3479   5.865   0.002   1.040  0.1019  0.3672 -0.5325
 1158TIP3    H1 3480   5.922  -0.059   0.993 -0.6564 -0.1093 -0.8445
 1158TIP3    H2 3481   5.888   0.088   1.005  1.8606  0.4173  0.5881
 1159TIP3   OH2 3482   2.108   0.399   3.599 -0.4050  0.1953 -0.3510
 1159TIP3    H1 3483   2.199   0.371   3.593 -1.1054 -2.2160 -0.8389
 1159TIP3    H2 3484   2.094   0.453   3.521  0.2141 -0.7297 -1.1216
 1160TIP3   OH2 3485   5.099   4.496   0.703  0.9194 -0.4055 -1.0983
 1160TIP3    H1 3486   5.148   4.432   0.755 -1.2028 -0.2531  1.3010
 1160TIP3    H2 3487   5.115   4.580   0.747  0.4879  0.0321 -1.7575
 1161TIP3   OH2 3488   4.975   5.055   1.812  0.1604 -0.2017 -0.0139
 1161TIP3    H1 3489   5.028   5.122   1.854  0.4645 -1.7092  2.1953
 1161TIP3    H2 3490   4.976   4.981   1.873 -0.8641 -1.9186 -1.9133
 1162TIP3   OH2 3491   1.872   2.073   4.941  0.3390  0.2727  0.1116
 1162TIP3    H1 3492   1.882   2.018   4.863  0.6489 -0.8742  0.9275
 1162TIP3    H2 3493   1.781   2.063   4.967  0.1899  0.7951 -0.1902
 1163TIP3   OH2 3494   2.391   3.687   4.487  0.2615  0.0539 -0.1563
 1163TIP3    H1 3495   2.377   3.619   4.421  1.5917 -1.2433  0.8300
 1163TIP3    H2 3496   2.303   3.721   4.505 -0.1637  0.4350 -2.5030
 1164TIP3   OH2 3497   1.431   0.836   1.659  0.3898 -0.1309  0.6489
 1164TIP3    H1 3498   1.400   0.753   1.623  0.3808  0.1807 -0.0820
 1164TIP3    H2 3499   1.352   0.884   1.683  0.4158 -0.7612  2.1049
 1165TIP3   OH2 3500   5.173   3.644   3.398  0.0971  0.2720 -0.1537
 1165TIP3    H1 3501   5.223   3.582   3.345 -1.8287  0.1202 -1.9565
 1165TIP3    H2 3502   5.124   3.589   3.460  1.2670  0.3385  0.8616
 1166TIP3   OH2 3503   3.644   4.620   3.330  0.1847  0.1016 -0.0821
 1166TIP3    H1 3504   3.554   4.654   3.325 -0.0926 -0.5131  0.5248
 1166TIP3    H2 3505   3.640   4.535   3.286  0.2797 -0.2829  0.6375
 1167TIP3   OH2 3506   5.376   2.262   4.384 -0.5276 -0.2775  1.1098
 1167TIP3    H1 3507   5.369   2.260   4.289  0.5717  0.3769  0.9962
 1167TIP3    H2 3508   5.388   2.171   4.410 -0.6926 -0.4435  0.6117
 1168TIP3   OH2 3509   4.461   0.886   0.347 -0.8141 -0.1725  0.4623
 1168TIP3    H1 3510   4.537   0.903   0.293 -0.5922 -2.6579 -0.1360
 1168TIP3    H2 3511   4.488   0.912   0.435 -1.0354  3.5070 -0.3897
 1169TIP3   OH2 3512   2.035   5.336   4.576 -0.4919 -0.0584 -0.2220
 1169TIP3    H1 3513   1.963   5.330   4.639  0.0982 -1.0261  0.3776
 1169TIP3    H2 3514   2.010   5.408   4.518 -1.4778  0.2519  0.5640
 1170TIP3   OH2 3515   2.906   4.313   3.113 -0.8882 -0.3430  0.9765
 1170TIP3    H1 3516   2.997   4.339   3.123 -0.7182 -0.9140  0.9189
 1170TIP3    H2 3517   2.907   4.241   3.050 -1.5282  0.5495 -0.1058
 1171TIP3   OH2 3518   5.403   1.931   1.608  0.3339 -0.1886  0.5662
 1171TIP3    H1 3519   5.437   1.927   1.519 -1.0735 -0.9818  0.0348
 1171TIP3    H2 3520   5.474   1.971   1.659  1.6461 -0.8581 -0.6585
 1172TIP3   OH2 3521   5.565   4.090   2.809  0.3751 -0.5645  0.1321
 1172TIP3    H1 3522   5.603   4.102   2.896 -1.8579 -1.1445  1.2683
 1172TIP3    H2 3523   5.585   3.999   2.787  1.9803 -0.0796 -0.5475
 1173TIP3   OH2 3524   4.765   0.063   1.749  0.3223 -0.2756 -0.0763
 1173TIP3    H1 3525   4.706   0.116   1.694 -1.4647 -1.4441  0.5997
 1173TIP3    H2 3526   4.781   0.118   1.826  0.1412  0.0860 -0.2910
 1174TIP3   OH2 3527   2.450   4.526   4.162 -0.3181 -0.2705 -0.0147
 1174TIP3    H1 3528   2.467   4.616   4.135 -0.8252  0.2854  1.4357
 1174TIP3    H2 3529   2.436   4.478   4.080 -1.4667  1.2540 -0.7526
 1175TIP3   OH2 3530   5.218   1.185   0.049  0.3282  0.3624  0.1539
 1175TIP3    H1 3531   5.288   1.212   0.110  1.2396  0.4527 -0.8969
 1175TIP3    H2 3532   5.176   1.267   0.023  1.7373  0.6336 -1.4264
 1176TIP3   OH2 3533   2.835   2.653   0.231  0.2010 -0.6380 -0.1613
 1176TIP3    H1 3534   2.878   2.736   0.211 -0.2710 -0.2964  0.1876
 1176TIP3    H2 3535   2.749   2.679   0.265 -0.4500 -1.3162 -1.2573
 1177TIP3   OH2 3536   5.477   3.295   0.461 -0.3557  0.7769 -0.5325
 1177TIP3    H1 3537   5.447   3.237   0.531 -0.6372  0.3692 -0.9887
 1177TIP3    H2 3538   5.444   3.256   0.381 -0.9712  1.8324 -0.8181
 1178TIP3   OH2 3539   5.912   4.401   1.609 -0.5608  0.4649  0.2013
 1178TIP3    H1 3540   6.001   4.429   1.632  0.1391 -0.7169 -0.9162
 1178TIP3    H2 3541   5.905   4.312   1.643 -1.0939  0.3204 -0.2656
 1179TIP3   OH2 3542   1.565   2.411   5.113 -0.4214  0.6946 -0.6514
 1179TIP3    H1 3543   1.520   2.379   5.192  1.3165 -0.0696  0.0825
 1179TIP3    H2 3544   1.647   2.447   5.145 -0.0456  1.1492 -2.0473
 1180TIP3   OH2 3545   2.881   1.221   1.509  0.2468  0.0318  0.0025
 1180TIP3    H1 3546   2.824   1.145   1.516  2.3578 -1.7871 -1.1490
 1180TIP3    H2 3547   2.894   1.233   1.415  0.7326  1.1923  0.2010
 1181TIP3   OH2 3548   2.223   4.658   0.496  0.2063 -0.0488 -0.4128
 1181TIP3    H1 3549   2.140   4.674   0.542  0.3557 -0.4419 -0.0066
 1181TIP3    H2 3550   2.218   4.567   0.468 -0.1360  0.3436 -1.7037
 1182TIP3   OH2 3551   3.936   2.490   4.738  0.0712 -0.0122  0.4140
 1182TIP3    H1 3552   3.980   2.405   4.739 -0.2662 -0.2497 -1.3212
 1182TIP3    H2 3553   4.008   2.554   4.734  0.3110 -0.2344  1.0276
 1183TIP3   OH2 3554   5.406   4.537   0.915 -0.0638 -0.1785 -0.5116
 1183TIP3    H1 3555   5.481   4.497   0.872  0.1958  0.2299 -0.4506
 1183TIP3    H2 3556   5.394   4.487   0.996  1.4344  0.9872  0.5069
 1184TIP3   OH2 3557   1.509   1.028   0.175 -0.1619  0.2486  0.1588
 1184TIP3    H1 3558   1.476   1.034   0.085  0.7159 -0.5172 -0.2238
 1184TIP3    H2 3559   1.585   1.086   0.177  0.0284 -0.0076  0.3128
 1185TIP3   OH2 3560   1.146   3.216   3.792 -0.1602 -0.1600  0.2357
 1185TIP3    H1 3561   1.115   3.160   3.864 -0.9922 -0.7113 -0.5336
 1185TIP3    H2 3562   1.125   3.167   3.713 -2.0141  1.7530 -0.5429
 1186TIP3   OH2 3563   6.079   3.621   3.303  0.0808  0.2228  0.2044
 1186TIP3    H1 3564   6.024   3.549   3.331  1.5380 -1.1161 -0.2265
 1186TIP3    H2 3565   6.162   3.580   3.277  0.4346  1.8735 -1.5364
 1187TIP3   OH2 3566   3.818   4.493   1.047 -0.6614 -0.3557 -0.1999
 1187TIP3    H1 3567   3.831   4.555   0.975 -1.2132  0.7603  0.6281
 1187TIP3    H2 3568   3.855   4.537   1.123 -0.3666 -1.3885  0.2696
 1188TIP3   OH2 3569   4.342   4.475   4.140  0.0660  0.1184 -0.0859
 1188TIP3    H1 3570   4.254   4.438   4.128 -0.5167  1.1736  0.8058
 1188TIP3    H2 3571   4.327   4.560   4.180  1.4466  0.8716 -1.0913
 1189TIP3   OH2 3572   4.918   5.458   4.204 -0.4065  0.0304 -0.0066
 1189TIP3    H1 3573   4.973   5.383   4.182 -1.1202 -0.0898 -1.5300
 1189TIP3    H2 3574   4.872   5.432   4.283 -0.3078 -0.9548 -0.2628
 1190TIP3   OH2 3575   2.487   5.903   2.925  0.6996 -0.2354  0.6567
 1190TIP3    H1 3576   2.466   5.814   2.896  0.3886  0.3327 -0.9646
 1190TIP3    H2 3577   2.413   5.929   2.980  0.1451 -0.5095  0.0545
 1191TIP3   OH2 3578   2.221   0.661   3.641 -0.0223  0.5404 -0.7016
 1191TIP3    H1 3579   2.237   0.733   3.702 -2.7843  1.6751 -1.1560
 1191TIP3    H2 3580   2.176   0.702   3.567 -0.9029 -1.5384 -1.3881
 1192TIP3   OH2 3581   0.147   5.524   3.997 -0.4022 -0.1681  0.4248
 1192TIP3    H1 3582   0.104   5.535   3.913 -0.8916 -3.6575  0.0457
 1192TIP3    H2 3583   0.229   5.573   3.989 -0.8802  0.3725 -1.7023
 1193TIP3   OH2 3584   4.189   1.337   4.394 -0.3121 -0.0249  0.4682
 1193TIP3    H1 3585   4.163   1.382   4.314 -1.0272 -0.4068  0.4822
 1193TIP3    H2 3586   4.163   1.246   4.380  0.2016 -0.2339  0.8511
 1194TIP3   OH2 3587   2.873   4.605   4.843  0.1697 -0.0752 -0.0903
 1194TIP3    H1 3588   2.813   4.531   4.857  0.0259 -0.1547 -1.0984
 1194TIP3    H2 3589   2.850   4.667   4.912 -0.1461 -0.6913  0.3760
 1195TIP3   OH2 3590   5.674   2.437   3.143  0.1008  0.1757  0.3331
 1195TIP3    H1 3591   5.716   2.381   3.209 -0.6862  0.3875  1.0190
 1195TIP3    H2 3592   5.714   2.523   3.156 -2.0525  0.9572  2.4948
 1196TIP3   OH2 3593   4.980   4.624   1.261 -0.0867  0.1856 -0.0445
 1196TIP3    H1 3594   4.899   4.660   1.297  0.3134 -0.1770  1.2597
 1196TIP3    H2 3595   5.045   4.637   1.329  0.6097 -0.8722 -0.4787
 1197TIP3   OH2 3596   1.087   5.492   3.493  0.1374 -0.8283 -0.0915
 1197TIP3    H1 3597   1.108   5.585   3.505  0.0573 -1.0186  1.7204
 1197TIP3    H2 3598   1.010   5.492   3.436 -1.0169  0.3401  1.3802
 1198TIP3   OH2 3599   1.076   3.330   1.207  0.4761 -0.4108 -0.1812
 1198TIP3    H1 3600   1.028   3.395   1.155  1.2028  0.2915 -0.0026
 1198TIP3    H2 3601   1.104   3.265   1.143  2.1318  0.9101 -0.8787
 1199TIP3   OH2 3602   2.824   5.753   4.124  0.5682 -0.1770 -0.0119
 1199TIP3    H1 3603   2.746   5.804   4.145  0.9469 -0.1066  1.3611
 1199TIP3    H2 3604   2.791   5.666   4.101 -0.0687  0.5602 -2.1348
 1200TIP3   OH2 3605   2.681   1.881   3.145  0.0063 -0.1333 -0.0849
 1200TIP3    H1 3606   2.646   1.792   3.139 -0.3587  0.0753 -1.4371
 1200TIP3    H2 3607   2.627   1.932   3.085  1.0596  0.7226 -0.3465
 1201TIP3   OH2 3608   3.621   5.235   0.671 -0.0073  0.1677 -0.0217
 1201TIP3    H1 3609   3.571   5.301   0.719  2.1108  2.5860 -0.9165
 1201TIP3    H2 3610   3.583   5.236   0.583  0.4535  0.7166 -0.2194
 1202TIP3   OH2 3611   2.604   1.366   4.415 -0.5396 -0.1230  0.1048
 1202TIP3    H1 3612   2.554   1.297   4.458 -0.3350 -1.3548 -1.5479
 1202TIP3    H2 3613   2.545   1.400   4.348 -0.3529  0.7640  0.3833
 1203TIP3   OH2 3614   3.549   4.170   3.629 -0.1350  0.2369 -0.2799
 1203TIP3    H1 3615   3.557   4.244   3.691  0.8673  0.3519 -0.5330
 1203TIP3    H2 3616   3.585   4.096   3.676 -1.3127 -0.1606  0.0425
 1204TIP3   OH2 3617   3.732   3.209   1.895  0.4734  0.2345  0.2253
 1204TIP3    H1 3618   3.749   3.130   1.946 -1.0882 -1.4079 -1.6252
 1204TIP3    H2 3619   3.655   3.248   1.934  0.1546 -0.2028  0.0430
 1205TIP3   OH2 3620   4.392   2.103   3.520 -0.5617  0.3264 -0.3163
 1205TIP3    H1 3621   4.334   2.158   3.573 -1.0956 -0.5733  0.0458
 1205TIP3    H2 3622   4.480   2.130   3.546 -0.8161  0.7178  0.1632
 1206TIP3   OH2 3623   1.878   3.223   2.837  0.1637  0.3384  0.0447
 1206TIP3    H1 3624   1.970   3.199   2.850  0.9621  2.3151 -1.3880
 1206TIP3    H2 3625   1.854   3.182   2.755 -1.0065 -1.9710  1.4283
 1207TIP3   OH2 3626   1.641   0.573   2.209 -0.1545 -0.5487  0.1973
 1207TIP3    H1 3627   1.706   0.601   2.145 -0.0262 -0.9864  0.1401
 1207TIP3    H2 3628   1.596   0.655   2.234  0.9268 -0.1274  0.8191
 1208TIP3   OH2 3629   1.274   3.664   0.969 -0.1590  0.0616 -0.1150
 1208TIP3    H1 3630   1.314   3.730   0.913 -0.5476 -0.3130 -0.8513
 1208TIP3    H2 3631   1.202   3.629   0.917 -2.1453  1.4407  1.5681
 1209TIP3   OH2 3632   5.065   2.380   3.172  0.0780 -0.3278  0.0115
 1209TIP3    H1 3633   5.138   2.364   3.112 -1.4327 -0.8645 -1.7775
 1209TIP3    H2 3634   5.028   2.293   3.189 -0.6511  0.0095  0.1874
 1210TIP3   OH2 3635   5.142   4.437   1.731 -0.5786  0.4201 -0.7524
 1210TIP3    H1 3636   5.122   4.526   1.760  0.3796  0.6917 -0.8864
 1210TIP3    H2 3637   5.134   4.384   1.810 -0.5816  0.7251 -0.5459
 1211TIP3   OH2 3638   3.873   0.888   2.581 -0.0539  0.3945  0.0368
 1211TIP3    H1 3639   3.843   0.919   2.496 -1.1635  0.5908  0.4810
 1211TIP3    H2 3640   3.797   0.844   2.619  1.0433 -1.5410  0.0776
 1212TIP3   OH2 3641   3.868   1.569   1.205 -0.1887 -0.3294 -0.0048
 1212TIP3    H1 3642   3.918   1.602   1.130  0.8901  0.3430  0.9686
 1212TIP3    H2 3643   3.934   1.558   1.274 -1.2411 -0.4123  1.0112
 1213TIP3   OH2 3644   0.663   3.185   1.657 -0.2091  0.1956 -0.2889
 1213TIP3    H1 3645   0.745   3.224   1.687 -1.2674  0.9025  1.8546
 1213TIP3    H2 3646   0.642   3.120   1.724 -0.5184 -1.3124 -1.7622
 1214TIP3   OH2 3647   5.822   0.376   3.840 -0.5524  0.8741  0.9047
 1214TIP3    H1 3648   5.835   0.403   3.931  2.1318 -0.3703  0.9955
 1214TIP3    H2 3649   5.799   0.284   3.845  0.4301  0.5825  0.3302
 1215TIP3   OH2 3650   4.071   3.176   2.804  0.5663  0.1921 -0.3378
 1215TIP3    H1 3651   3.999   3.228   2.768  0.2703  0.6099  0.8150
 1215TIP3    H2 3652   4.149   3.206   2.757  0.4526  1.9296  0.5216
 1216TIP3   OH2 3653   2.878   3.903   3.200  0.1342 -0.4684  0.7162
 1216TIP3    H1 3654   2.931   3.862   3.268 -0.2650 -1.4086  0.4693
 1216TIP3    H2 3655   2.838   3.979   3.243  0.4895 -0.6208  1.3163
 1217TIP3   OH2 3656   1.477   5.818   4.039  0.6156  0.8187 -0.4472
 1217TIP3    H1 3657   1.491   5.869   4.119 -0.6171  2.1717 -1.0677
 1217TIP3    H2 3658   1.418   5.870   3.986 -2.3967 -2.1018 -0.2943
 1218TIP3   OH2 3659   1.962   2.477   2.901  0.6807  0.8749 -0.3533
 1218TIP3    H1 3660   2.044   2.505   2.861  1.1156  0.7699  0.4268
 1218TIP3    H2 3661   1.981   2.389   2.934  0.2544  0.8485 -0.1692
 1219TIP3   OH2 3662   1.172   4.334   2.361  0.4040  0.1283  0.4189
 1219TIP3    H1 3663   1.236   4.337   2.289  0.3589 -0.1823  0.3630
 1219TIP3    H2 3664   1.117   4.259   2.340  0.7486 -0.3122  1.0752
 1220TIP3   OH2 3665   1.723   3.369   1.167 -0.7085  0.4235 -0.5938
 1220TIP3    H1 3666   1.777   3.436   1.208  1.6046 -0.2464 -2.3910
 1220TIP3    H2 3667   1.668   3.336   1.239 -0.0247  2.3654  0.8990
 1221TIP3   OH2 3668   2.856   5.683   4.921 -0.1292  0.3418 -0.5465
 1221TIP3    H1 3669   2.762   5.688   4.904 -0.4466  0.7079  1.0833
 1221TIP3    H2 3670   2.862   5.661   5.014  1.3976  1.3457 -0.3716
 1222TIP3   OH2 3671   3.126   2.460   1.775 -0.2381 -0.3926 -0.1817
 1222TIP3    H1 3672   3.114   2.545   1.818 -0.4032  0.4459 -1.8069
 1222TIP3    H2 3673   3.207   2.470   1.725 -0.4633 -1.0800 -0.6936
 1223TIP3   OH2 3674  -0.031   2.740   4.716  0.3975 -0.0352 -0.4210
 1223TIP3    H1 3675   0.057   2.730   4.751  0.2857  2.9363  1.0318
 1223TIP3    H2 3676  -0.019   2.749   4.622  1.6378  0.0167 -0.2776
 1224TIP3   OH2 3677   2.142   4.827   1.488  0.2465  0.0988  0.0586
 1224TIP3    H1 3678   2.115   4.752   1.435  1.2102 -0.5555  0.4803
 1224TIP3    H2 3679   2.179   4.889   1.425 -0.4481  0.1880 -0.2751
 1225TIP3   OH2 3680   0.515   1.733   4.643  0.1375  0.1516  0.8097
 1225TIP3    H1 3681   0.605   1.711   4.617  0.2838  1.8853 -0.3135
 1225TIP3    H2 3682   0.463   1.657   4.616  1.1034 -0.3681  0.3742
 1226TIP3   OH2 3683   1.724   5.094   3.170  0.1662  0.0651  0.5509
 1226TIP3    H1 3684   1.806   5.114   3.125  0.7953 -1.1667  1.1000
 1226TIP3    H2 3685   1.750   5.075   3.260 -0.7964  0.2683  0.8815
 1227TIP3   OH2 3686   2.308   1.300   1.341  0.4424 -0.4485  0.6319
 1227TIP3    H1 3687   2.255   1.342   1.273  1.0218 -1.1173 -0.2592
 1227TIP3    H2 3688   2.363   1.370   1.376  1.0026 -0.3298 -0.4479
 1228TIP3   OH2 3689   3.852   3.422   3.999 -0.4526 -0.1289  0.0319
 1228TIP3    H1 3690   3.876   3.486   4.066  1.4777 -1.9220  1.1766
 1228TIP3    H2 3691   3.773   3.458   3.959 -1.1872  1.4775  2.6588
 1229TIP3   OH2 3692   5.484   0.702   0.423  0.2890 -0.2888  0.2725
 1229TIP3    H1 3693   5.403   0.660   0.396 -0.4220  0.9848  0.3828
 1229TIP3    H2 3694   5.485   0.694   0.518 -0.1222  0.4115  0.3415
 1230TIP3   OH2 3695   2.554   4.532   1.984  0.0287 -0.1639  0.1100
 1230TIP3    H1 3696   2.485   4.559   2.045  0.3345 -1.5647  1.1115
 1230TIP3    H2 3697   2.543   4.590   1.909 -1.2352  0.6883  0.9135
 1231TIP3   OH2 3698   4.010   3.544   4.990  0.2312  0.3357  0.0363
 1231TIP3    H1 3699   3.977   3.455   5.000  0.2605  0.2515 -0.5826
 1231TIP3    H2 3700   4.085   3.549   5.049 -0.6363  0.4111  1.1708
 1232TIP3   OH2 3701   5.768   1.639   1.460 -0.7480 -0.4511 -0.1619
 1232TIP3    H1 3702   5.839   1.604   1.513 -0.5287 -1.6902 -1.2306
 1232TIP3    H2 3703   5.689   1.626   1.513 -0.6862 -2.6790 -0.4975
 1233TIP3   OH2 3704   4.088   1.513   5.140 -0.2419 -0.1980 -0.0119
 1233TIP3    H1 3705   4.000   1.500   5.176 -0.5016 -0.2586 -0.6576
 1233TIP3    H2 3706   4.143   1.531   5.216 -0.4942 -1.7870  0.5898
 1234TIP3   OH2 3707   1.806   3.862   0.866  0.2775 -0.4436  0.1465
 1234TIP3    H1 3708   1.753   3.795   0.911  1.6777 -0.9978  1.0323
 1234TIP3    H2 3709   1.849   3.910   0.937  1.4644 -0.4310 -0.5651
 1235TIP3   OH2 3710   3.391   3.141   4.630 -0.0026 -0.4641  0.5279
 1235TIP3    H1 3711   3.479   3.153   4.595 -0.5115  1.6277 -0.2048
 1235TIP3    H2 3712   3.337   3.202   4.579 -1.7366 -1.1450  1.4717
 1236TIP3   OH2 3713   2.905   0.383   2.120  0.0175  0.2899 -0.2755
 1236TIP3    H1 3714   2.926   0.407   2.029  1.0656  1.6932  0.2870
 1236TIP3    H2 3715   2.973   0.320   2.144 -2.3176 -3.0024 -1.5190
 1237TIP3   OH2 3716   0.974   2.001   0.675  0.0596 -0.3745 -0.2769
 1237TIP3    H1 3717   0.948   2.092   0.663 -0.2193 -0.3545  0.4072
 1237TIP3    H2 3718   1.070   2.002   0.670  0.0531 -0.0519 -0.3162
 1238TIP3   OH2 3719   5.638   1.884   1.400  0.6623  0.1967  0.1642
 1238TIP3    H1 3720   5.571   1.864   1.334  2.2972  2.4509 -2.3854
 1238TIP3    H2 3721   5.687   1.802   1.409 -0.0338 -0.3799 -0.9328
 1239TIP3   OH2 3722   1.748   1.559   1.370 -0.5783  1.2633 -0.1029
 1239TIP3    H1 3723   1.724   1.492   1.306 -2.3811 -1.1706  2.8477
 1239TIP3    H2 3724   1.844   1.552   1.376 -0.2665  1.9838 -2.7760
 1240TIP3   OH2 3725   2.787   1.363   0.504 -0.3273  0.2001 -0.1724
 1240TIP3    H1 3726   2.803   1.421   0.578 -1.2733 -0.6657  0.7498
 1240TIP3    H2 3727   2.691   1.365   0.493 -0.3505 -0.9939 -0.2659
 1241TIP3   OH2 3728   2.043   1.057   1.599  0.2337 -0.5778 -0.2610
 1241TIP3    H1 3729   2.038   1.071   1.505 -2.5076 -1.6967 -0.3687
 1241TIP3    H2 3730   1.994   0.976   1.614  0.4845 -0.3543  2.1459
 1242TIP3   OH2 3731   2.814   5.652   1.051  0.0588  0.0162  0.3841
 1242TIP3    H1 3732   2.786   5.595   0.980 -2.5264  1.0840  0.4401
 1242TIP3    H2 3733   2.888   5.607   1.091 -0.6920 -2.3415 -0.7348
 1243TIP3   OH2 3734   5.424   0.460   3.638  0.4831  0.1808  0.4949
 1243TIP3    H1 3735   5.404   0.552   3.653  0.1815  0.4768 -1.4083
 1243TIP3    H2 3736   5.500   0.461   3.580 -0.9537 -0.6571 -1.5156
 1244TIP3   OH2 3737   3.325   0.506   0.586  0.2200  0.2753 -0.0802
 1244TIP3    H1 3738   3.334   0.601   0.595 -2.4159  0.6045 -0.2534
 1244TIP3    H2 3739   3.234   0.493   0.559 -0.1297 -2.4081  2.0281
 1245TIP3   OH2 3740   5.221   3.763   1.905 -0.4054  0.1907  0.5326
 1245TIP3    H1 3741   5.231   3.761   1.810  0.9147  1.4385  0.6135
 1245TIP3    H2 3742   5.305   3.733   1.938 -1.0248 -0.7189  1.3267
 1246TIP3   OH2 3743   2.316   5.305   4.544  0.1008  0.3099  0.4365
 1246TIP3    H1 3744   2.225   5.337   4.547 -0.7081 -1.9149  1.9364
 1246TIP3    H2 3745   2.323   5.264   4.458 -0.7681 -0.5912  0.7677
 1247TIP3   OH2 3746   5.634   1.651   4.059  0.1227  0.3580  0.3382
 1247TIP3    H1 3747   5.594   1.564   4.055  0.0503  0.4010 -2.7937
 1247TIP3    H2 3748   5.728   1.634   4.066  0.0602  0.0400  0.4131
 1248TIP3   OH2 3749   5.442   1.445   0.189 -0.3335  0.2258 -0.5053
 1248TIP3    H1 3750   5.355   1.481   0.202 -0.3489 -0.1173  0.3696
 1248TIP3    H2 3751   5.492   1.473   0.265  1.0375  2.4712 -2.1070
 1249TIP3   OH2 3752   4.102   3.095   1.174  0.6389  0.2842  0.2915
 1249TIP3    H1 3753   4.025   3.087   1.230  0.5336 -0.0742  0.0958
 1249TIP3    H2 3754   4.160   3.154   1.223  0.9053 -0.6794  1.1947
 1250TIP3   OH2 3755   4.743  -0.026   2.365  0.1491 -0.0292 -0.0703
 1250TIP3    H1 3756   4.810   0.022   2.317  0.6120  1.7075  2.1080
 1250TIP3    H2 3757   4.662   0.023   2.347  0.1157 -0.0568  0.0057
 1251TIP3   OH2 3758   3.441   3.794   1.367 -0.7431  0.0440  0.0783
 1251TIP3    H1 3759   3.425   3.820   1.276 -0.7274 -0.6017 -0.1137
 1251TIP3    H2 3760   3.479   3.707   1.360 -1.3667 -0.2851  0.7373
 1252TIP3   OH2 3761   4.079   1.509   0.054 -0.5528  0.1514 -0.2333
 1252TIP3    H1 3762   4.040   1.557  -0.019  0.8946  0.5640 -0.7750
 1252TIP3    H2 3763   4.025   1.532   0.129 -0.4816  1.8804 -0.6637
 1253TIP3   OH2 3764   6.168   2.510   0.438 -0.0139 -0.1540 -0.1047
 1253TIP3    H1 3765   6.263   2.520   0.448  0.0059  0.4912 -0.7962
 1253TIP3    H2 3766   6.131   2.581   0.491  0.0030  1.3415 -1.9623
 1254TIP3   OH2 3767   6.035   5.415   3.829  0.1861  0.1349  0.1536
 1254TIP3    H1 3768   6.037   5.328   3.789  1.5051  0.3217 -0.2223
 1254TIP3    H2 3769   6.010   5.398   3.920  0.9827 -0.7017  0.2271
 1255TIP3   OH2 3770   3.531   2.589   4.751 -0.2871 -0.0444 -0.2922
 1255TIP3    H1 3771   3.521   2.685   4.747  2.0648  0.2368 -1.0453
 1255TIP3    H2 3772   3.604   2.575   4.811 -0.4774 -1.3765 -0.3434
 1256TIP3   OH2 3773   0.176   1.795   1.678 -0.4972  0.1295  0.1569
 1256TIP3    H1 3774   0.234   1.840   1.617 -0.3736 -0.1252  0.0832
 1256TIP3    H2 3775   0.090   1.833   1.662 -0.7002 -0.7718 -1.0221
 1257TIP3   OH2 3776   4.158   4.965   1.122 -0.6589  0.5676 -0.4912
 1257TIP3    H1 3777   4.091   5.006   1.067  0.5857  1.7041 -1.2216
 1257TIP3    H2 3778   4.237   5.017   1.106  1.3896 -2.8135 -2.3761
 1258TIP3   OH2 3779   3.821   3.823   1.809 -0.6499 -0.7514  0.0927
 1258TIP3    H1 3780   3.781   3.803   1.724 -1.0718 -2.9066  0.7363
 1258TIP3    H2 3781   3.915   3.813   1.794 -0.6444 -0.1325 -0.3380
 1259TIP3   OH2 3782   5.468   3.828   2.403 -0.7230 -0.5416 -0.4716
 1259TIP3    H1 3783   5.470   3.837   2.307  1.5243  0.9986 -0.3672
 1259TIP3    H2 3784   5.558   3.805   2.426 -1.3721 -1.4746  1.2493
 1260TIP3   OH2 3785   2.608   5.336   0.974 -0.0654  0.4480  0.2787
 1260TIP3    H1 3786   2.687   5.282   0.969 -0.7123 -0.5948  1.1197
 1260TIP3    H2 3787   2.574   5.337   0.885  0.5602  0.4114  0.0346
 1261TIP3   OH2 3788   1.450   0.399   1.247 -0.3537 -0.1215  0.7398
 1261TIP3    H1 3789   1.381   0.371   1.186 -0.8032  0.2963  1.0526
 1261TIP3    H2 3790   1.437   0.493   1.256  0.4290  0.0047  0.5970
 1262TIP3   OH2 3791   4.651   4.907   2.136  0.1002  0.0137  0.1647
 1262TIP3    H1 3792   4.625   4.883   2.224  0.0534  0.7872  0.3685
 1262TIP3    H2 3793   4.578   4.880   2.081  0.4587 -1.1734  0.2519
 1263TIP3   OH2 3794   4.013   3.592   4.728 -0.4250  0.1846  0.4907
 1263TIP3    H1 3795   3.993   3.568   4.818  1.4497 -0.4187  0.7900
 1263TIP3    H2 3796   4.097   3.549   4.710 -0.3792  0.9445 -1.2736
 1264TIP3   OH2 3797   3.847   4.756   2.609 -0.2448  0.0097  0.0044
 1264TIP3    H1 3798   3.876   4.756   2.700  0.1254 -2.2000 -0.0592
 1264TIP3    H2 3799   3.928   4.750   2.558 -0.5271 -2.9819 -0.2697
 1265TIP3   OH2 3800   3.407   5.369   4.352 -0.4399 -0.3418 -0.0712
 1265TIP3    H1 3801   3.458   5.428   4.297  0.4200 -0.8597  0.1515
 1265TIP3    H2 3802   3.327   5.418   4.372 -0.4820  0.0924 -1.2433
 1266TIP3   OH2 3803   2.216   1.691   2.660  0.4081 -0.2717  0.5648
 1266TIP3    H1 3804   2.220   1.603   2.623  1.1780 -1.4381  3.2078
 1266TIP3    H2 3805   2.308   1.719   2.668  0.1961  0.5554  0.2574
 1267TIP3   OH2 3806   5.407   2.463   3.211  0.2487 -0.2697  0.1299
 1267TIP3    H1 3807   5.343   2.427   3.273 -0.2059  0.5194  0.1313
 1267TIP3    H2 3808   5.491   2.457   3.257  0.2167 -1.5044  0.0472
 1268TIP3   OH2 3809   0.817   0.803   3.689  0.1237 -0.4302 -0.8070
 1268TIP3    H1 3810   0.808   0.738   3.619  0.8425  0.6940 -1.9838
 1268TIP3    H2 3811   0.740   0.859   3.679  1.2395  0.9510 -2.0485
 1269TIP3   OH2 3812   4.823   3.557   0.503 -0.5745  0.6152 -0.2284
 1269TIP3    H1 3813   4.861   3.602   0.578 -0.8792 -1.7941  1.4903
 1269TIP3    H2 3814   4.785   3.477   0.539 -2.1722  0.1136 -2.7384
 1270TIP3   OH2 3815   1.047   2.556   2.004 -0.1793 -0.2570  0.1898
 1270TIP3    H1 3816   1.024   2.468   2.032  1.3221 -0.5508  0.6038
 1270TIP3    H2 3817   1.062   2.549   1.910  1.4766 -0.8198  0.4726
 1271TIP3   OH2 3818   0.229   2.290   2.587  0.2686  0.5103 -0.3566
 1271TIP3    H1 3819   0.224   2.250   2.501 -0.5875  1.2727 -0.6820
 1271TIP3    H2 3820   0.149   2.263   2.632 -0.5067  2.0683 -0.7111
 1272TIP3   OH2 3821   4.369   3.180   0.597  0.1200  0.3533 -0.0684
 1272TIP3    H1 3822   4.434   3.175   0.527  1.8036 -1.2035  1.4839
 1272TIP3    H2 3823   4.337   3.090   0.605 -2.1162  1.0335 -0.6041
 1273TIP3   OH2 3824   5.510   1.514   5.032 -0.1309  0.2040  0.0314
 1273TIP3    H1 3825   5.600   1.509   5.063 -0.3372  0.3150  0.6744
 1273TIP3    H2 3826   5.498   1.606   5.007  0.1038  0.0660 -0.5875
 1274TIP3   OH2 3827   5.857   2.451   2.552  0.5213 -0.4362  0.4544
 1274TIP3    H1 3828   5.844   2.357   2.548  2.2216 -0.8643  2.7277
 1274TIP3    H2 3829   5.933   2.468   2.496  1.0404 -0.6285  1.0969
 1275TIP3   OH2 3830   6.328   0.307   1.719  0.3688  0.1875 -0.1704
 1275TIP3    H1 3831   6.290   0.369   1.656 -0.0552  1.3515  1.1891
 1275TIP3    H2 3832   6.260   0.296   1.785  1.4532  0.3617  1.0040
 1276TIP3   OH2 3833   4.394   4.523   5.150 -0.1707 -0.1756 -0.0635
 1276TIP3    H1 3834   4.458   4.592   5.166  0.1526 -0.0248 -1.7878
 1276TIP3    H2 3835   4.316   4.551   5.198 -0.5979  2.3139 -1.9754
 1277TIP3   OH2 3836   0.821   4.598   3.455  0.8885 -0.0347 -0.1183
 1277TIP3    H1 3837   0.904   4.564   3.424 -0.1194 -1.9212 -0.9059
 1277TIP3    H2 3838   0.832   4.606   3.550  2.4227  1.2224 -0.3524
 1278TIP3   OH2 3839   2.036   5.216   0.753  0.4733  0.8104  0.0854
 1278TIP3    H1 3840   2.095   5.227   0.678 -0.2534  1.0091 -0.4722
 1278TIP3    H2 3841   1.958   5.266   0.730  0.5583  1.5587  1.3543
 1279TIP3   OH2 3842   5.388   5.571   0.075  0.4313 -0.0399  0.0911
 1279TIP3    H1 3843   5.421   5.623   0.001  2.2364 -0.9574  0.2061
 1279TIP3    H2 3844   5.300   5.606   0.091  1.2954  2.5286 -0.2624
 1280TIP3   OH2 3845   2.285   2.157   0.808  0.2257 -0.4531 -0.5105
 1280TIP3    H1 3846   2.230   2.080   0.805 -0.2719 -0.0725 -1.8544
 1280TIP3    H2 3847   2.282   2.186   0.899 -1.2288 -0.8416 -0.4170
 1281TIP3   OH2 3848   6.116   4.458   3.959 -0.3642 -0.3343 -0.4407
 1281TIP3    H1 3849   6.029   4.496   3.970 -1.0199 -1.7033 -0.7900
 1281TIP3    H2 3850   6.101   4.365   3.941  1.1810 -0.7304  0.0758
 1282TIP3   OH2 3851   0.475   0.503   0.210 -0.2193 -0.3546 -0.2216
 1282TIP3    H1 3852   0.431   0.561   0.272  1.5242  1.1936 -0.3282
 1282TIP3    H2 3853   0.425   0.421   0.213 -0.1897 -0.3904  3.2765
 1283TIP3   OH2 3854   1.417   4.160   0.634  0.2004 -0.3264  0.4166
 1283TIP3    H1 3855   1.502   4.125   0.659 -0.4487 -1.2637  1.3934
 1283TIP3    H2 3856   1.377   4.091   0.580 -0.5313 -0.5370  1.2066
 1284TIP3   OH2 3857   1.969   1.589   4.495  0.1250  0.3701  0.1047
 1284TIP3    H1 3858   2.013   1.594   4.411 -1.1126 -0.0913 -0.5906
 1284TIP3    H2 3859   2.028   1.536   4.550  0.4662 -0.1876 -0.7859
 1285TIP3   OH2 3860   2.713   2.015   3.379  0.3234  0.4433  0.1046
 1285TIP3    H1 3861   2.713   1.979   3.290 -0.0627 -1.1117  0.7162
 1285TIP3    H2 3862   2.734   2.108   3.366  1.4069  0.0311 -1.5138
 1286TIP3   OH2 3863   0.941   4.089   2.343 -0.0344  0.5569 -0.4101
 1286TIP3    H1 3864   0.941   4.014   2.404  0.3765  1.3941  0.6604
 1286TIP3    H2 3865   0.895   4.158   2.391 -0.9107  0.8350 -1.6130
 1287TIP3   OH2 3866   3.260   4.983   4.508 -0.3975  0.0061  0.5642
 1287TIP3    H1 3867   3.233   4.989   4.600 -0.8236 -1.4212  0.5690
 1287TIP3    H2 3868   3.187   4.939   4.465  0.3241 -0.4867 -0.1912
 1288TIP3   OH2 3869   5.023   5.463   0.583 -0.0246 -0.7586 -0.3664
 1288TIP3    H1 3870   5.059   5.433   0.499 -0.9551 -1.6596 -0.4588
 1288TIP3    H2 3871   5.101   5.482   0.636  0.5848 -1.2246 -1.0645
 1289TIP3   OH2 3872   1.831   0.969   4.335 -0.3668 -0.1456 -0.3372
 1289TIP3    H1 3873   1.844   1.000   4.424 -0.5744 -1.6089  0.2306
 1289TIP3    H2 3874   1.869   0.881   4.334 -1.0170 -0.4380 -1.4865
 1290TIP3   OH2 3875   2.375   5.381   2.977  0.1530  0.3947  0.1759
 1290TIP3    H1 3876   2.328   5.382   3.061 -0.1440  2.2104  0.0170
 1290TIP3    H2 3877   2.462   5.347   2.999  0.1962  1.1813  1.3105
 1291TIP3   OH2 3878   0.087   3.688   1.202 -0.0638 -0.6107  0.0892
 1291TIP3    H1 3879   0.034   3.719   1.275  1.5469  1.8552  0.3108
 1291TIP3    H2 3880   0.043   3.608   1.174 -2.2416 -0.2226  2.0371
 1292TIP3   OH2 3881   0.411   2.874   1.495  1.1424  0.3957  0.0711
 1292TIP3    H1 3882   0.465   2.916   1.429  1.8585  0.2894  0.5767
 1292TIP3    H2 3883   0.352   2.944   1.526  1.8303  0.8390  0.3946
 1293TIP3   OH2 3884   1.039   3.795   3.109 -0.1032 -0.1271  0.2010
 1293TIP3    H1 3885   1.079   3.717   3.072  0.6200 -0.4632  1.6162
 1293TIP3    H2 3886   1.088   3.868   3.070 -0.7867 -0.3524 -1.1289
 1294TIP3   OH2 3887   2.266   5.790   1.161  0.1480 -0.1611 -0.2571
 1294TIP3    H1 3888   2.218   5.768   1.081  0.3029 -0.4102 -0.2812
 1294TIP3    H2 3889   2.271   5.708   1.210 -1.7034  0.3669  0.9628
 1295TIP3   OH2 3890   2.602   2.407   4.318 -0.2407 -0.5560 -0.6118
 1295TIP3    H1 3891   2.594   2.460   4.398  1.4469 -1.7840  0.4459
 1295TIP3    H2 3892   2.512   2.399   4.285 -0.7138  1.8080 -0.0986
 1296TIP3   OH2 3893   2.946   1.805   1.225  0.3783  0.1547  0.2051
 1296TIP3    H1 3894   2.953   1.899   1.241 -2.2768  0.3140  1.0125
 1296TIP3    H2 3895   2.886   1.798   1.150 -0.8961 -0.8906  1.2797
 1297TIP3   OH2 3896   5.168   1.873   0.944 -0.4773  0.1101 -0.1072
 1297TIP3    H1 3897   5.073   1.866   0.939 -0.3454 -2.0526 -0.6857
 1297TIP3    H2 3898   5.199   1.835   0.861  0.8793  1.7378 -0.4005
 1298TIP3   OH2 3899   0.048   4.115   1.635  0.1786 -0.4859 -0.4097
 1298TIP3    H1 3900   0.080   4.157   1.555  1.9801  0.4584  0.7319
 1298TIP3    H2 3901   0.112   4.140   1.702 -0.7451 -2.0414  1.1275
 1299TIP3   OH2 3902   0.763   0.841   5.014  0.5622 -0.2420  0.7998
 1299TIP3    H1 3903   0.810   0.763   5.045  0.1786  0.0467  2.1553
 1299TIP3    H2 3904   0.689   0.850   5.074 -0.3609  0.1951 -0.3824
 1300TIP3   OH2 3905   1.966   2.669   2.316  0.3505  0.3643 -0.2349
 1300TIP3    H1 3906   1.888   2.633   2.274  0.4501 -0.7305  0.4849
 1300TIP3    H2 3907   2.032   2.671   2.246  0.1969 -0.4274 -0.4184
 1301TIP3   OH2 3908   2.096   0.732   1.124 -0.1571 -0.0589 -0.0265
 1301TIP3    H1 3909   2.167   0.669   1.115 -0.3390 -0.0183 -2.0282
 1301TIP3    H2 3910   2.090   0.748   1.219  1.8286 -0.7879  0.2546
 1302TIP3   OH2 3911   0.263   4.316   4.773 -0.3009 -0.1654 -0.3218
 1302TIP3    H1 3912   0.244   4.227   4.743  0.5362  0.0076 -1.4168
 1302TIP3    H2 3913   0.180   4.347   4.811 -0.1747 -1.9953  1.6364
 1303TIP3   OH2 3914   1.961   1.256   2.751 -0.0374  0.0503  0.5911
 1303TIP3    H1 3915   1.970   1.351   2.747  1.8755 -0.1210 -0.2898
 1303TIP3    H2 3916   1.961   1.227   2.660  2.6061 -0.9773  0.8373
 1304TIP3   OH2 3917   2.601   3.764   3.461 -0.2953 -0.1256 -0.3851
 1304TIP3    H1 3918   2.660   3.836   3.486 -0.0907 -0.5511  0.3726
 1304TIP3    H2 3919   2.650   3.715   3.396  0.2047 -0.4745  0.2381
 1305TIP3   OH2 3920   0.138   5.226   0.191  0.2397 -0.2254  0.0192
 1305TIP3    H1 3921   0.092   5.253   0.271  1.1751  0.5396  0.3223
 1305TIP3    H2 3922   0.071   5.229   0.123 -0.7706 -1.6797  0.8916
 1306TIP3   OH2 3923   1.104   2.368   3.031  0.1594 -0.4960  0.2571
 1306TIP3    H1 3924   1.107   2.278   2.997 -2.9697 -0.2666 -1.0098
 1306TIP3    H2 3925   1.072   2.359   3.121  2.4808 -0.7350  1.1173
 1307TIP3   OH2 3926   5.767   4.705   2.739  0.1736  0.2672 -0.3833
 1307TIP3    H1 3927   5.853   4.694   2.699 -0.2749 -0.0266 -1.2901
 1307TIP3    H2 3928   5.715   4.632   2.705  0.0227 -0.5109  1.4313
 1308TIP3   OH2 3929   4.710   4.017   2.440 -0.0215 -0.7575  0.8332
 1308TIP3    H1 3930   4.650   3.953   2.402 -0.6760  0.3047 -0.0267
 1308TIP3    H2 3931   4.797   3.985   2.417 -0.3577 -0.9923 -0.1835
 1309TIP3   OH2 3932   2.385   5.900   5.063  1.0142  0.1629  0.3777
 1309TIP3    H1 3933   2.326   5.962   5.020  2.2311 -0.0092 -1.6418
 1309TIP3    H2 3934   2.362   5.906   5.156 -3.2360 -1.0132 -0.3753
 1310TIP3   OH2 3935   3.034   1.385   1.191 -0.1385 -0.3538 -0.2299
 1310TIP3    H1 3936   2.972   1.450   1.224 -3.1387 -2.3930 -1.4186
 1310TIP3    H2 3937   3.045   1.406   1.098  2.3211  0.8897  0.2512
 1311TIP3   OH2 3938   6.058   0.784   4.078  0.9843 -0.6373 -0.1401
 1311TIP3    H1 3939   6.133   0.842   4.060  0.5324  0.5177  1.5359
 1311TIP3    H2 3940   6.097   0.706   4.118  1.3878 -0.6151 -0.4726
 1312TIP3   OH2 3941   2.481   4.411   3.930 -0.3492 -0.0387  0.2095
 1312TIP3    H1 3942   2.570   4.378   3.921 -0.0264  0.8747  0.0170
 1312TIP3    H2 3943   2.460   4.448   3.845 -0.8455 -0.0750  0.3116
 1313TIP3   OH2 3944   2.293   0.304   0.886 -0.3998  0.8134 -0.5954
 1313TIP3    H1 3945   2.262   0.249   0.958  1.9299 -0.5821 -0.5453
 1313TIP3    H2 3946   2.213   0.338   0.846 -1.8194  0.3380  1.6382
 1314TIP3   OH2 3947   2.711   3.201   4.685 -0.6848 -0.0162  0.1211
 1314TIP3    H1 3948   2.786   3.151   4.653 -0.6240 -0.5045  1.0070
 1314TIP3    H2 3949   2.701   3.272   4.621  0.4661 -0.0042 -0.0723
 1315TIP3   OH2 3950   0.080   5.245   2.264  0.3746  0.6963 -0.5525
 1315TIP3    H1 3951   0.154   5.188   2.248 -0.4717 -0.6733  0.2229
 1315TIP3    H2 3952   0.042   5.213   2.346 -0.2206  2.2845 -0.1666
 1316TIP3   OH2 3953   6.035   2.155   3.060 -0.4917 -0.5504 -0.5459
 1316TIP3    H1 3954   6.010   2.111   3.142  0.4100 -0.6278 -0.3011
 1316TIP3    H2 3955   6.100   2.220   3.086  1.1165 -1.7379 -1.3900
 1317TIP3   OH2 3956   5.021   1.841   4.209 -0.2261  0.6505 -0.1035
 1317TIP3    H1 3957   4.963   1.864   4.281  0.5195 -0.4681  0.8873
 1317TIP3    H2 3958   5.042   1.749   4.223  1.1799  0.8233 -0.8533
 1318TIP3   OH2 3959   2.894   4.131   4.289  0.1628  0.0442  0.3631
 1318TIP3    H1 3960   2.826   4.122   4.223  0.6198 -0.8373  0.0026
 1318TIP3    H2 3961   2.912   4.225   4.292 -0.6582  0.2150  0.0512
 1319TIP3   OH2 3962   3.539   3.546   1.358  0.2874  0.2683 -0.0019
 1319TIP3    H1 3963   3.600   3.472   1.350  0.3711 -0.0091  2.5469
 1319TIP3    H2 3964   3.474   3.518   1.422 -1.1009  1.5321 -0.7842
 1320TIP3   OH2 3965   2.002   1.669   3.494  0.2735 -0.2681  0.2051
 1320TIP3    H1 3966   1.915   1.648   3.459  0.9474 -0.3477 -1.4703
 1320TIP3    H2 3967   2.030   1.745   3.445  0.0291  1.5604  2.6836
 1321TIP3   OH2 3968   4.962   2.888   0.246 -0.0499 -0.3416 -0.0785
 1321TIP3    H1 3969   4.911   2.904   0.166 -1.3557 -2.7067  0.1800
 1321TIP3    H2 3970   4.943   2.964   0.302 -0.7385  0.3619 -1.2143
 1322TIP3   OH2 3971   2.196   1.477   3.502 -0.1746  0.1221 -0.0732
 1322TIP3    H1 3972   2.228   1.452   3.416  1.2074  0.8287  0.2061
 1322TIP3    H2 3973   2.114   1.524   3.484  0.0777  0.2294 -0.9923
 1323TIP3   OH2 3974   3.076   1.422   0.920  0.1905  0.2240 -0.7824
 1323TIP3    H1 3975   3.060   1.365   0.846  1.6176 -0.6380 -0.4705
 1323TIP3    H2 3976   3.171   1.438   0.919  0.1611  0.6585  0.5136
 1324TIP3   OH2 3977   4.950   3.937   2.389  0.4135 -0.1398  0.3235
 1324TIP3    H1 3978   5.016   3.988   2.341 -0.5049  0.7370 -0.0526
 1324TIP3    H2 3979   4.994   3.911   2.470  0.8473  1.5071  0.6563
 1325TIP3   OH2 3980   0.564   2.918   3.997 -0.5186  0.0684  0.4309
 1325TIP3    H1 3981   0.514   2.943   3.920 -2.0105 -0.6587  1.1242
 1325TIP3    H2 3982   0.615   2.842   3.970 -1.2620 -0.3650  0.2343
 1326TIP3   OH2 3983   3.805   2.521   4.061 -0.2251  0.1710 -0.7581
 1326TIP3    H1 3984   3.865   2.448   4.043  1.6835  1.6351 -0.7014
 1326TIP3    H2 3985   3.805   2.529   4.157  1.6436  1.7767 -0.8229
 1327TIP3   OH2 3986   5.795   5.510   1.185 -0.4669 -0.1397 -1.1551
 1327TIP3    H1 3987   5.771   5.517   1.092  1.7414 -0.0684 -1.7804
 1327TIP3    H2 3988   5.801   5.416   1.202 -0.8353 -0.1526 -1.1064
 1328TIP3   OH2 3989   2.021   5.455   1.108 -0.0147  0.4824  0.2774
 1328TIP3    H1 3990   1.951   5.509   1.072  1.0841  0.9851 -1.2249
 1328TIP3    H2 3991   2.076   5.434   1.032 -0.1387 -2.4088  0.8616
 1329TIP3   OH2 3992   3.491   0.947   4.037  0.7136  0.5657  1.0266
 1329TIP3    H1 3993   3.408   0.994   4.037  0.6325  0.4616 -0.4415
 1329TIP3    H2 3994   3.553   1.006   3.996  1.1975  0.3455  1.4260
 1330TIP3   OH2 3995   5.994   2.261   0.026  0.4604  0.7128  0.0671
 1330TIP3    H1 3996   6.007   2.344   0.072 -2.5190  0.6812  1.1566
 1330TIP3    H2 3997   5.906   2.268  -0.012  0.8867 -1.2410 -1.4203
 1331TIP3   OH2 3998   5.229   3.116   2.583  0.2305 -0.1946 -0.0160
 1331TIP3    H1 3999   5.186   3.032   2.569  1.2457 -0.9064  0.9197
 1331TIP3    H2 4000   5.321   3.100   2.561  0.6985  0.2637  1.4855
 1332TIP3   OH2 4001   6.083   2.708   1.278  0.0662  0.5964  0.0025
 1332TIP3    H1 4002   6.094   2.614   1.291 -0.6692  0.5058  0.0053
 1332TIP3    H2 4003   6.093   2.721   1.184  0.7669  0.6010  0.0764
 1333TIP3   OH2 4004   1.353   2.430   1.537  0.5791  0.8037 -0.4070
 1333TIP3    H1 4005   1.389   2.490   1.472  1.6110  0.7318  0.0836
 1333TIP3    H2 4006   1.320   2.355   1.487  0.6090  1.1228 -0.9012
 1334TIP3   OH2 4007   5.574   3.707   4.594  0.7407  0.0516  0.6367
 1334TIP3    H1 4008   5.572   3.786   4.539 -0.9856 -0.6331 -0.3568
 1334TIP3    H2 4009   5.667   3.689   4.605  1.1755  2.0199  0.6043
 1335TIP3   OH2 4010   1.105   4.638   1.343 -0.5327 -0.5227 -0.2953
 1335TIP3    H1 4011   1.025   4.658   1.294 -1.9004 -2.7403  0.8739
 1335TIP3    H2 4012   1.095   4.687   1.425 -0.9111 -1.1031  0.0134
 1336TIP3   OH2 4013   3.664   1.332   0.765 -0.5339 -0.2168  0.3954
 1336TIP3    H1 4014   3.674   1.379   0.847  2.1899  0.3562 -0.1518
 1336TIP3    H2 4015   3.669   1.239   0.789 -0.9776 -0.0900  0.9839
 1337TIP3   OH2 4016   1.592   2.876   3.466  0.1958  0.6182  1.1828
 1337TIP3    H1 4017   1.504   2.839   3.457 -0.2784  1.8380  0.3812
 1337TIP3    H2 4018   1.582   2.944   3.533  0.0585  1.9789 -0.1595
 1338TIP3   OH2 4019   5.474   4.600   3.966 -0.0633 -0.5094  0.5108
 1338TIP3    H1 4020   5.401   4.631   4.021  0.1873 -1.2918  1.2988
 1338TIP3    H2 4021   5.447   4.513   3.937  0.2124 -0.4730  0.1379
 1339TIP3   OH2 4022   3.060   1.511   2.731 -0.2854  0.4555  0.1780
 1339TIP3    H1 4023   2.979   1.465   2.711 -0.4147  0.7510  0.0157
 1339TIP3    H2 4024   3.034   1.601   2.749  0.0155  0.5843 -0.0031
 1340TIP3   OH2 4025   1.020   0.110   2.831 -0.2363 -0.7049 -0.5442
 1340TIP3    H1 4026   1.034   0.196   2.790  1.2888  0.2070  1.6538
 1340TIP3    H2 4027   1.100   0.061   2.810 -1.2533 -1.7806 -2.0897
 1341TIP3   OH2 4028   0.628   4.520   3.287 -0.0167  0.3470 -0.1247
 1341TIP3    H1 4029   0.540   4.542   3.315  0.0034  0.0306  0.1800
 1341TIP3    H2 4030   0.685   4.547   3.359  0.1854  0.9445 -0.4891
 1342TIP3   OH2 4031   1.217   0.446   0.219  1.0821 -0.0180  0.8959
 1342TIP3    H1 4032   1.184   0.361   0.247  0.3482 -0.0144  0.0705
 1342TIP3    H2 4033   1.214   0.500   0.298  0.2416 -0.3656  1.1102
 1343TIP3   OH2 4034   0.408   2.975   2.029 -0.6213  0.1085  0.2166
 1343TIP3    H1 4035   0.339   3.000   1.968 -0.9538  0.5379  0.7734
 1343TIP3    H2 4036   0.384   3.015   2.112  0.2234  0.1516  0.4521
 1344TIP3   OH2 4037   2.764   4.869   0.975  0.2088  0.3112 -1.0229
 1344TIP3    H1 4038   2.690   4.851   0.917  0.6420 -0.0331 -1.4786
 1344TIP3    H2 4039   2.800   4.783   0.995  0.2613  0.4521 -0.4976
 1345TIP3   OH2 4040   2.150   2.510   0.419 -0.0032 -0.1780 -0.2101
 1345TIP3    H1 4041   2.133   2.558   0.338  0.7876 -0.3348 -0.4714
 1345TIP3    H2 4042   2.089   2.436   0.417  0.4780 -0.5538 -0.9803
 1346TIP3   OH2 4043   1.446   2.250   4.165 -0.0605 -0.2138  0.4769
 1346TIP3    H1 4044   1.414   2.161   4.177 -1.7305  0.4919  1.4775
 1346TIP3    H2 4045   1.380   2.306   4.205 -0.1808  1.6303 -2.0630
 1347TIP3   OH2 4046   4.870   5.659   3.554  0.2148  0.5641 -1.0156
 1347TIP3    H1 4047   4.932   5.595   3.518  2.0054  1.6009  0.0521
 1347TIP3    H2 4048   4.834   5.703   3.478 -1.6875 -2.1715 -1.8439
 1348TIP3   OH2 4049   1.889   1.993   4.151  0.2142  0.4921 -0.0376
 1348TIP3    H1 4050   1.951   2.045   4.203  2.0070 -0.9014 -0.6573
 1348TIP3    H2 4051   1.817   1.975   4.211  0.4549  2.0525  0.7679
 1349TIP3   OH2 4052   5.498   3.626   0.538  0.1609  0.3720 -0.3415
 1349TIP3    H1 4053   5.518   3.653   0.449  0.7282  1.0508 -0.0204
 1349TIP3    H2 4054   5.455   3.701   0.577  0.8045  0.4465  0.2464
 1350TIP3   OH2 4055   3.782   3.033   3.067 -0.0098  0.1948 -0.2298
 1350TIP3    H1 4056   3.740   3.024   3.153 -0.2913 -0.4089 -0.4249
 1350TIP3    H2 4057   3.861   3.084   3.084 -0.8108  1.3584  0.1531
 1351TIP3   OH2 4058   1.221   0.037   0.070 -0.0322 -0.6958 -0.1074
 1351TIP3    H1 4059   1.264   0.111   0.027  0.8765 -1.7446 -1.0664
 1351TIP3    H2 4060   1.208   0.066   0.160  1.2616  0.2614 -0.1994
 1352TIP3   OH2 4061   3.825   2.037   4.971  0.2776  0.2038  0.1151
 1352TIP3    H1 4062   3.793   2.046   4.881  0.3971 -2.8172 -0.3552
 1352TIP3    H2 4063   3.758   2.078   5.025 -1.1678 -0.2953 -1.2345
 1353TIP3   OH2 4064   4.535   5.911   1.698  0.5784 -0.4259  0.5700
 1353TIP3    H1 4065   4.627   5.936   1.706  0.1453  1.8772 -0.7116
 1353TIP3    H2 4066   4.490   5.966   1.762 -0.0897 -0.2302 -0.0535
 1354TIP3   OH2 4067   2.334   2.200   1.074  0.5900 -0.2600 -0.3977
 1354TIP3    H1 4068   2.304   2.288   1.098 -0.0627 -0.3757 -0.7914
 1354TIP3    H2 4069   2.385   2.171   1.150 -0.7503 -0.2894  0.5219
 1355TIP3   OH2 4070   4.251   4.512   1.252 -0.6521  0.1433  0.1354
 1355TIP3    H1 4071   4.276   4.525   1.343 -0.6200  0.7539  0.0408
 1355TIP3    H2 4072   4.162   4.478   1.256 -1.2707  1.7474  0.3448
 1356TIP3   OH2 4073   4.574   4.012   2.945 -0.2121  0.1131 -0.3091
 1356TIP3    H1 4074   4.500   4.066   2.917 -0.0552 -0.6538 -2.3873
 1356TIP3    H2 4075   4.651   4.065   2.927 -0.1882  0.4562  0.7578
 1357TIP3   OH2 4076   2.808   3.130   0.177 -0.2741  0.5554 -0.3928
 1357TIP3    H1 4077   2.750   3.198   0.212 -0.3943  0.4610 -0.4072
 1357TIP3    H2 4078   2.880   3.125   0.239  0.1881  1.3199 -0.8513
 1358TIP3   OH2 4079   6.088   2.700   0.632  0.4850 -0.1493 -0.1926
 1358TIP3    H1 4080   6.009   2.752   0.642 -0.1071 -1.3332  1.9090
 1358TIP3    H2 4081   6.160   2.763   0.642 -0.0905  1.0517 -2.8095
 1359TIP3   OH2 4082   4.227   4.142   3.905 -0.0177  0.2337  0.4713
 1359TIP3    H1 4083   4.221   4.156   3.999 -0.0720  0.3260  0.4544
 1359TIP3    H2 4084   4.257   4.052   3.896 -1.2085 -0.1840  0.5571
 1360TIP3   OH2 4085   3.838   4.048   0.429  0.3630  0.8585  0.2367
 1360TIP3    H1 4086   3.750   4.035   0.466 -0.2208  1.6274 -0.8385
 1360TIP3    H2 4087   3.872   4.125   0.474  0.0016  1.2671 -0.1720
 1361TIP3   OH2 4088   0.786   1.632   4.958 -0.0818  0.3069  0.4905
 1361TIP3    H1 4089   0.811   1.542   4.981  0.2403  0.2991  0.1124
 1361TIP3    H2 4090   0.827   1.648   4.873  0.1069  0.9148  0.6894
 1362TIP3   OH2 4091   4.216   2.174   0.594  0.0557 -0.6159  0.1143
 1362TIP3    H1 4092   4.155   2.105   0.621 -0.3572 -0.2791  0.0458
 1362TIP3    H2 4093   4.167   2.226   0.531  0.4036 -0.3184  0.0876
 1363TIP3   OH2 4094   3.534   2.857   4.707  0.0816 -0.4359 -0.0161
 1363TIP3    H1 4095   3.465   2.917   4.736 -0.3052 -0.6544 -0.4742
 1363TIP3    H2 4096   3.615   2.901   4.730 -0.1978  0.3468 -0.4998
 1364TIP3   OH2 4097   1.417   2.243   2.137  0.0899 -0.1482 -0.6772
 1364TIP3    H1 4098   1.490   2.182   2.147  1.6237  1.7746  0.8209
 1364TIP3    H2 4099   1.376   2.247   2.223 -2.3699 -1.7286 -1.6522
 1365TIP3   OH2 4100   2.435   3.211   4.507 -0.0746 -0.3893 -0.2691
 1365TIP3    H1 4101   2.479   3.130   4.482  0.3627 -0.2265 -0.0480
 1365TIP3    H2 4102   2.506   3.269   4.535 -0.3802  0.0682 -0.4170
 1366TIP3   OH2 4103   3.117   2.280   2.850  0.1355  0.1662 -0.0841
 1366TIP3    H1 4104   3.115   2.365   2.806 -0.7017  0.7333  0.9883
 1366TIP3    H2 4105   3.195   2.283   2.904  0.6409 -0.1472 -0.7885
 1367TIP3   OH2 4106   4.334   3.609   3.577  0.0573 -0.2351  0.0834
 1367TIP3    H1 4107   4.381   3.593   3.659 -2.1140 -1.2394  1.1964
 1367TIP3    H2 4108   4.355   3.700   3.555  1.4051 -0.2361  1.2479
 1368TIP3   OH2 4109   0.880   0.275   0.693 -0.0653  0.4646  0.0271
 1368TIP3    H1 4110   0.894   0.245   0.783 -0.7155  0.1052  0.0111
 1368TIP3    H2 4111   0.911   0.366   0.694  1.4053 -0.0038  0.2054
 1369TIP3   OH2 4112   4.725   5.871   3.977 -0.0953 -0.5171  0.0957
 1369TIP3    H1 4113   4.791   5.807   4.002  0.5403  0.6233  1.4272
 1369TIP3    H2 4114   4.722   5.867   3.881  0.7763 -1.6767  0.1106
 1370TIP3   OH2 4115   4.457   3.711   0.682  0.1670 -0.2554  0.2309
 1370TIP3    H1 4116   4.548   3.731   0.705 -0.1462  0.1604  1.1434
 1370TIP3    H2 4117   4.431   3.781   0.622 -0.1128  0.6509  1.3903
 1371TIP3   OH2 4118   1.950   0.673   2.335 -0.4410  0.0783 -0.1086
 1371TIP3    H1 4119   2.007   0.609   2.377  0.6588  0.2508 -1.2861
 1371TIP3    H2 4120   1.921   0.631   2.254  1.5453  1.5773 -1.6898
 1372TIP3   OH2 4121   5.224   4.672   1.419 -0.3629 -0.4382  0.1708
 1372TIP3    H1 4122   5.219   4.679   1.515 -0.3173 -0.3860  0.1696
 1372TIP3    H2 4123   5.305   4.718   1.397  0.6161 -2.0421  0.2898
 1373TIP3   OH2 4124   1.038   2.343   3.298  0.3997  0.4120 -1.0612
 1373TIP3    H1 4125   0.976   2.275   3.325  0.0957  0.3371 -1.9160
 1373TIP3    H2 4126   1.081   2.369   3.379 -1.3306  1.0561 -0.2910
 1374TIP3   OH2 4127   1.422   0.053   4.925  1.0176  0.2724 -0.1451
 1374TIP3    H1 4128   1.339   0.067   4.879 -0.1098  0.3545  1.8053
 1374TIP3    H2 4129   1.480   0.013   4.860 -0.5586  0.1913 -1.5420
 1375TIP3   OH2 4130   0.299   4.221   1.728  0.2131 -0.4991  0.0132
 1375TIP3    H1 4131   0.249   4.241   1.807 -1.2272 -0.8995 -0.7754
 1375TIP3    H2 4132   0.367   4.160   1.758 -0.4136 -0.7735  0.9228
 1376TIP3   OH2 4133   6.243   4.233   2.010  0.0015 -0.3730  0.1761
 1376TIP3    H1 4134   6.209   4.314   2.049  0.7489  0.5174 -0.9339
 1376TIP3    H2 4135   6.168   4.197   1.963  0.1435  0.7848 -1.0100
 1377TIP3   OH2 4136   3.138   4.651   1.288  0.3614 -0.1595 -0.3438
 1377TIP3    H1 4137   3.208   4.601   1.330  0.4753 -0.7956 -1.2804
 1377TIP3    H2 4138   3.058   4.606   1.313  0.4659 -0.8464 -1.2105
 1378TIP3   OH2 4139   4.501  -0.003   4.701 -0.3721  0.4820 -0.3093
 1378TIP3    H1 4140   4.438   0.015   4.772 -0.2741 -1.6501  0.3768
 1378TIP3    H2 4141   4.454   0.020   4.621 -1.0105  1.5605  0.3481
 1379TIP3   OH2 4142   5.447   2.557   1.388  0.7234  0.1847 -0.9386
 1379TIP3    H1 4143   5.392   2.562   1.310 -0.6080  1.3242  0.0275
 1379TIP3    H2 4144   5.463   2.649   1.412  4.9104  0.0671 -2.3860
 1380TIP3   OH2 4145   4.820   5.335   4.420  0.6213  0.4894 -0.0209
 1380TIP3    H1 4146   4.857   5.247   4.430 -0.0508  0.1351 -0.5647
 1380TIP3    H2 4147   4.778   5.353   4.504  0.2363  0.0346 -0.1124
 1381TIP3   OH2 4148   3.998   2.932   0.705 -0.0459  0.1181 -0.1475
 1381TIP3    H1 4149   4.023   2.986   0.630  1.9853  0.4776  0.7324
 1381TIP3    H2 4150   3.995   2.843   0.671 -1.1841  0.4886 -1.0945
 1382TIP3   OH2 4151   6.027   3.131   0.727  0.3771  0.3168  1.0928
 1382TIP3    H1 4152   5.975   3.126   0.808 -1.6140  1.4491 -0.0281
 1382TIP3    H2 4153   6.009   3.218   0.693  2.3659  0.4123  0.1355
 1383TIP3   OH2 4154   1.663   4.420   2.311  0.0197 -0.2923  0.6055
 1383TIP3    H1 4155   1.669   4.334   2.270 -1.0131 -1.3115  2.4904
 1383TIP3    H2 4156   1.754   4.445   2.328  0.5139  0.2345 -2.2450
 1384TIP3   OH2 4157   6.173   4.034   3.438 -0.5159 -0.2658 -0.7093
 1384TIP3    H1 4158   6.175   4.115   3.386  0.5279  0.0825 -0.1546
 1384TIP3    H2 4159   6.265   4.014   3.454 -0.7987 -0.2488  1.1633
 1385TIP3   OH2 4160   5.990   3.843   4.404  0.7242  0.8238 -0.3471
 1385TIP3    H1 4161   5.972   3.932   4.436  0.0517  0.8610 -0.8064
 1385TIP3    H2 4162   6.056   3.855   4.337  1.1477  0.8967  0.0771
 1386TIP3   OH2 4163   5.495   1.085   3.187  0.3908  0.4611 -0.3892
 1386TIP3    H1 4164   5.451   1.037   3.116  0.2220  0.1116 -0.0554
 1386TIP3    H2 4165   5.429   1.090   3.257  0.0504  2.0873 -0.7937
 1387TIP3   OH2 4166   1.656   5.178   4.035  0.5127 -0.0554 -0.3246
 1387TIP3    H1 4167   1.595   5.142   4.099 -0.2566 -0.5631 -1.3166
 1387TIP3    H2 4168   1.654   5.272   4.051  0.1358 -0.1487  0.2204
 1388TIP3   OH2 4169   5.624   5.868   3.044  0.0932  0.4836 -0.0830
 1388TIP3    H1 4170   5.718   5.885   3.050  0.2020  0.1826 -0.7808
 1388TIP3    H2 4171   5.618   5.776   3.018 -0.4258  0.2040  0.9624
 1389TIP3   OH2 4172   3.746   4.696   0.177  0.4132  0.2530 -0.0788
 1389TIP3    H1 4173   3.783   4.631   0.117 -1.0635 -2.2941  1.5854
 1389TIP3    H2 4174   3.782   4.672   0.263 -2.1387 -0.0449  0.9921
 1390TIP3   OH2 4175   1.874   4.164   0.492  0.1923  0.4527  0.1681
 1390TIP3    H1 4176   1.805   4.210   0.444 -0.0187  0.7414  0.7427
 1390TIP3    H2 4177   1.950   4.168   0.434 -0.1105  0.6237 -0.2260
 1391TIP3   OH2 4178   1.788   0.288   1.715  0.4620 -0.6297 -0.1549
 1391TIP3    H1 4179   1.838   0.366   1.691 -0.8052  0.8761  1.7182
 1391TIP3    H2 4180   1.845   0.240   1.775  1.3758 -1.3721 -1.5672
 1392TIP3   OH2 4181   0.114   3.150   0.518 -0.4645 -0.2364 -0.0410
 1392TIP3    H1 4182   0.022   3.124   0.516 -1.0631  1.7588 -1.3325
 1392TIP3    H2 4183   0.162   3.070   0.495 -1.9942 -0.9037 -1.0904
 1393TIP3   OH2 4184   5.809   5.875   3.516  0.3643 -0.1026 -0.1390
 1393TIP3    H1 4185   5.866   5.803   3.542  1.0497  0.6554  0.5274
 1393TIP3    H2 4186   5.755   5.892   3.593  0.1612  0.0479 -0.3134
 1394TIP3   OH2 4187   2.388   1.521   1.011  0.0420  0.3275  0.2719
 1394TIP3    H1 4188   2.316   1.507   1.073  0.1491  1.4309  0.6744
 1394TIP3    H2 4189   2.463   1.477   1.051 -0.1246  0.1979  0.4435
 1395TIP3   OH2 4190   3.785   3.885   3.486  0.5771  0.2051  0.7046
 1395TIP3    H1 4191   3.743   3.802   3.464 -1.5806  1.0719  1.3878
 1395TIP3    H2 4192   3.766   3.898   3.579  2.1086  0.8044  0.9637
 1396TIP3   OH2 4193   1.031   1.921   1.119 -0.2634  0.4732 -0.5527
 1396TIP3    H1 4194   1.105   1.973   1.152  0.7563  0.4192 -2.5946
 1396TIP3    H2 4195   1.060   1.830   1.127  0.8534  0.4974 -3.2359
 1397TIP3   OH2 4196   5.619   2.129   3.905  0.2669 -0.3032 -0.2814
 1397TIP3    H1 4197   5.560   2.154   3.834 -2.3514  2.1665  2.4908
 1397TIP3    H2 4198   5.581   2.048   3.940  0.8579 -0.8539 -0.8801
 1398TIP3   OH2 4199   2.619   4.496   1.302  0.2955 -0.1618 -0.1108
 1398TIP3    H1 4200   2.559   4.463   1.235 -0.1016 -1.7314  0.9640
 1398TIP3    H2 4201   2.604   4.590   1.304  0.0227 -0.1273 -1.9162
 1399TIP3   OH2 4202   3.535   0.700   1.088 -0.0555 -0.1755 -0.3085
 1399TIP3    H1 4203   3.506   0.664   1.005  0.3624 -2.4392  0.4556
 1399TIP3    H2 4204   3.486   0.781   1.098  1.1124  1.0663 -3.5043
 1400TIP3   OH2 4205   2.954   5.499   3.582  0.1836  0.3885  0.5395
 1400TIP3    H1 4206   3.008   5.460   3.650  0.7554 -0.3997 -0.3323
 1400TIP3    H2 4207   2.867   5.463   3.596  0.1671  0.6732  1.1852
 1401TIP3   OH2 4208   4.314   5.692   3.346  0.3959  0.3074  0.4365
 1401TIP3    H1 4209   4.225   5.669   3.373  0.1815 -1.1823 -1.3334
 1401TIP3    H2 4210   4.370   5.634   3.397  0.2084 -0.1126  0.1769
 1402TIP3   OH2 4211   3.489   0.590   2.667  0.3869  0.4799 -0.2330
 1402TIP3    H1 4212   3.483   0.506   2.712 -1.6929  1.7279  2.1096
 1402TIP3    H2 4213   3.512   0.568   2.577  1.1451 -2.4663  0.5823
 1403TIP3   OH2 4214   6.311   3.585   2.582  0.0209 -0.6365 -0.2313
 1403TIP3    H1 4215   6.371   3.518   2.616 -0.1020 -0.5242  0.2131
 1403TIP3    H2 4216   6.226   3.564   2.621  0.3234  0.7501  1.2567
 1404TIP3   OH2 4217   2.138   4.443   3.018  0.2276  0.0094  0.4906
 1404TIP3    H1 4218   2.088   4.438   2.937  0.6511 -3.3474  0.2888
 1404TIP3    H2 4219   2.075   4.472   3.084 -0.5150  1.2565 -0.7359
 1405TIP3   OH2 4220   1.260   0.677   3.868  0.6272 -0.1675  0.3629
 1405TIP3    H1 4221   1.297   0.757   3.832  0.3358 -0.7011 -1.1831
 1405TIP3    H2 4222   1.323   0.650   3.936  2.4003 -0.3229 -1.2591
 1406TIP3   OH2 4223   4.852   3.158   1.558  0.2510  0.2020  0.0981
 1406TIP3    H1 4224   4.934   3.117   1.585 -0.1688 -1.1273 -0.5640
 1406TIP3    H2 4225   4.849   3.240   1.607  2.2299  0.5421 -0.2721
 1407TIP3   OH2 4226   2.010   2.920   0.457 -0.3463 -0.6903 -0.1887
 1407TIP3    H1 4227   2.106   2.913   0.453 -0.1784  1.3130 -1.0814
 1407TIP3    H2 4228   1.978   2.840   0.417  0.9308 -1.7857  0.8833
 1408TIP3   OH2 4229   1.851   3.616   4.681  0.0831  0.4836 -0.4385
 1408TIP3    H1 4230   1.817   3.626   4.770  0.8156 -0.1539 -0.0694
 1408TIP3    H2 4231   1.939   3.580   4.693 -0.4474 -1.3110 -1.4519
 1409TIP3   OH2 4232   5.449   2.522   0.959  0.0734 -0.0395 -0.1925
 1409TIP3    H1 4233   5.480   2.598   1.008 -1.6780 -0.1043  1.1481
 1409TIP3    H2 4234   5.355   2.538   0.947  0.0948 -0.9580 -1.8539
 1410TIP3   OH2 4235   2.141   3.147   2.890  0.4783  0.3945 -0.2199
 1410TIP3    H1 4236   2.222   3.110   2.855 -0.4376 -2.8238  0.7739
 1410TIP3    H2 4237   2.157   3.155   2.984 -0.0872  0.5672 -0.1368
 1411TIP3   OH2 4238   3.844   0.212   2.361  0.2550 -0.4818  0.0052
 1411TIP3    H1 4239   3.781   0.178   2.424  1.4092  1.6343  2.4686
 1411TIP3    H2 4240   3.897   0.136   2.335  0.2313 -1.2955  2.2076
 1412TIP3   OH2 4241   5.508   5.371   3.898  0.8913 -0.0081 -0.4329
 1412TIP3    H1 4242   5.594   5.412   3.907  1.2622 -1.0198  1.0313
 1412TIP3    H2 4243   5.527   5.278   3.886  0.0115 -0.4250  1.1355
 1413TIP3   OH2 4244   2.047   0.735   1.422 -0.4198 -0.0913  0.1128
 1413TIP3    H1 4245   2.140   0.741   1.442 -0.1977  1.5544 -1.1831
 1413TIP3    H2 4246   2.003   0.764   1.502  0.2864  1.6803 -0.0932
 1414TIP3   OH2 4247   4.451   0.931   1.813  0.4377  0.0700 -0.2189
 1414TIP3    H1 4248   4.480   0.857   1.865 -2.0942 -0.8718  0.0008
 1414TIP3    H2 4249   4.450   1.005   1.874  1.8903  0.0599 -0.1574
 1415TIP3   OH2 4250   0.810   5.566   1.626  0.2464 -0.0759 -0.7715
 1415TIP3    H1 4251   0.817   5.649   1.673 -1.1331 -0.2061 -0.2785
 1415TIP3    H2 4252   0.884   5.514   1.657  0.2486  0.4162  0.0734
 1416TIP3   OH2 4253   3.256   3.994   0.228  0.2421 -0.0029 -0.0331
 1416TIP3    H1 4254   3.203   3.956   0.298  0.6953 -1.5889 -0.5142
 1416TIP3    H2 4255   3.203   3.984   0.149  0.9489 -0.9742 -0.4018
 1417TIP3   OH2 4256   2.549   0.457   1.388  0.8297  0.0710 -0.3976
 1417TIP3    H1 4257   2.590   0.377   1.356  0.0186 -1.0441  1.2026
 1417TIP3    H2 4258   2.574   0.524   1.325  3.2512 -1.0062 -0.6771
 1418TIP3   OH2 4259   5.426   2.939   3.337  0.0827 -0.4417  0.2849
 1418TIP3    H1 4260   5.480   2.934   3.259  0.4308  2.8234  0.1979
 1418TIP3    H2 4261   5.488   2.938   3.410  0.1539  1.0157  0.2764
 1419TIP3   OH2 4262   3.083   1.320   5.075 -0.3728  0.0687 -0.1630
 1419TIP3    H1 4263   3.036   1.361   5.148 -0.2491  0.1960 -0.1556
 1419TIP3    H2 4264   3.174   1.316   5.104  0.2230  2.6113 -1.3573
 1420TIP3   OH2 4265   0.196   2.226   3.555  0.1228 -0.3033 -1.0233
 1420TIP3    H1 4266   0.125   2.219   3.619  0.3215 -1.0134 -0.8711
 1420TIP3    H2 4267   0.226   2.136   3.542  1.1853  0.0073 -0.8639
 1421TIP3   OH2 4268   2.578   0.303   3.423 -0.0833  0.2274  0.1723
 1421TIP3    H1 4269   2.483   0.312   3.423 -0.1322 -0.2709  0.0360
 1421TIP3    H2 4270   2.596   0.236   3.358  0.2811 -0.4175  0.9168
 1422TIP3   OH2 4271   1.143   1.897   3.688 -0.5920 -0.0227 -0.9682
 1422TIP3    H1 4272   1.095   1.822   3.654 -0.0313  0.3564 -2.7273
 1422TIP3    H2 4273   1.076   1.959   3.716 -1.0623 -0.7838 -0.3799
 1423TIP3   OH2 4274   0.204   0.070   2.994 -0.7827  0.0803 -0.1697
 1423TIP3    H1 4275   0.245  -0.006   3.035 -1.0923 -0.1035 -0.1972
 1423TIP3    H2 4276   0.276   0.133   2.983 -0.5521 -0.1549 -0.0256
 1424TIP3   OH2 4277   4.161   1.086   3.240  0.4060 -0.6993  0.2821
 1424TIP3    H1 4278   4.173   1.147   3.167  0.6499 -1.9722 -0.7841
 1424TIP3    H2 4279   4.231   1.109   3.301 -0.5709  1.2138  0.7537
 1425TIP3   OH2 4280   2.857   0.604   1.201 -0.7319 -0.1146 -0.0704
 1425TIP3    H1 4281   2.910   0.527   1.180 -0.5994  0.0808 -0.4731
 1425TIP3    H2 4282   2.855   0.655   1.120 -1.4960 -0.0923 -0.0477
 1426TIP3   OH2 4283   4.616   5.848   2.992  0.2631  0.4265 -0.6642
 1426TIP3    H1 4284   4.582   5.850   2.902  0.8768  0.7096 -0.9017
 1426TIP3    H2 4285   4.710   5.867   2.982  0.9401 -2.3486 -0.2256
 1427TIP3   OH2 4286   0.241   3.991   1.174 -0.2541 -0.2580 -0.0316
 1427TIP3    H1 4287   0.286   3.911   1.147  1.9460  1.1353 -0.7207
 1427TIP3    H2 4288   0.222   3.977   1.267  1.5050 -0.9809  0.2562
 1428TIP3   OH2 4289   1.556   1.137   0.796  1.2260  0.4069 -0.4341
 1428TIP3    H1 4290   1.556   1.066   0.860  1.0138  0.0846 -0.7897
 1428TIP3    H2 4291   1.585   1.097   0.715 -1.1971  0.1400 -1.2565
 1429TIP3   OH2 4292   3.629   3.469   4.672 -0.2924  0.2922  0.7436
 1429TIP3    H1 4293   3.629   3.376   4.646 -2.6316  0.0982  1.2058
 1429TIP3    H2 4294   3.674   3.513   4.600  1.0535 -1.2073  0.6063
 1430TIP3   OH2 4295   0.438   2.407   3.177 -0.1274  0.1058  0.8315
 1430TIP3    H1 4296   0.403   2.354   3.249 -0.1157  0.0006  0.7594
 1430TIP3    H2 4297   0.533   2.397   3.184 -0.1162  0.3007  0.9582
 1431TIP3   OH2 4298   4.806   3.916   4.397  0.0260  0.1019  0.0539
 1431TIP3    H1 4299   4.731   3.861   4.421  0.1500 -0.3038 -0.4744
 1431TIP3    H2 4300   4.828   3.963   4.478  1.5915 -2.5837  1.3361
 1432TIP3   OH2 4301   0.393   3.457   1.237 -0.5992  0.0218 -0.5051
 1432TIP3    H1 4302   0.304   3.471   1.206  0.0521 -0.4641 -2.7898
 1432TIP3    H2 4303   0.429   3.390   1.179  1.7747  1.3439 -0.6994
 1433TIP3   OH2 4304   5.056   0.973   4.133  0.3894 -0.1641  0.2243
 1433TIP3    H1 4305   5.013   1.056   4.152  2.7521  1.4461 -0.9213
 1433TIP3    H2 4306   5.096   0.946   4.215  0.2387  0.2353  0.4271
 1434TIP3   OH2 4307   2.562   1.967   5.080 -0.0196  0.1817  0.3500
 1434TIP3    H1 4308   2.643   1.937   5.037 -0.0560  1.0833 -0.3609
 1434TIP3    H2 4309   2.552   1.907   5.154 -0.1011 -1.5923 -1.0194
 1435TIP3   OH2 4310   4.519   4.876   3.078  0.3294  0.2023  0.3956
 1435TIP3    H1 4311   4.430   4.906   3.062  0.3315 -0.3189 -0.6938
 1435TIP3    H2 4312   4.526   4.794   3.029  1.2619 -0.0092  0.8488
 1436TIP3   OH2 4313   2.988   3.732   5.172 -0.2837 -0.5220 -0.1463
 1436TIP3    H1 4314   2.997   3.777   5.088 -1.6245  2.4584  1.1762
 1436TIP3    H2 4315   3.063   3.762   5.224 -1.1483  0.1705  0.7348
 1437TIP3   OH2 4316   3.002   5.435   4.815  0.1685 -0.4499  0.0945
 1437TIP3    H1 4317   2.965   5.510   4.768  0.0649  1.0349  2.3627
 1437TIP3    H2 4318   2.936   5.414   4.881 -0.4866 -3.5982 -1.4295
 1438TIP3   OH2 4319   1.030   5.166   1.604 -0.7011  0.0271 -0.2243
 1438TIP3    H1 4320   1.109   5.139   1.557  0.4566 -1.4093  2.3538
 1438TIP3    H2 4321   0.975   5.206   1.536  1.8608  0.3643 -2.2774
 1439TIP3   OH2 4322   1.448   2.044   3.867  0.0749 -0.2927 -0.2312
 1439TIP3    H1 4323   1.395   2.091   3.803 -0.9426 -1.4396 -0.2750
 1439TIP3    H2 4324   1.384   2.008   3.929  0.7522 -1.9744 -0.4556
 1440TIP3   OH2 4325   2.475   5.302   1.208 -0.2780 -0.0780  0.2410
 1440TIP3    H1 4326   2.432   5.217   1.197 -0.8054  0.4408 -2.3080
 1440TIP3    H2 4327   2.501   5.328   1.120  0.2244  2.2305  0.9928
 1441TIP3   OH2 4328   0.225   2.703   2.903 -0.1029  0.1305 -0.4410
 1441TIP3    H1 4329   0.144   2.754   2.896  0.1159  0.5205 -0.1573
 1441TIP3    H2 4330   0.260   2.725   2.990  0.4195  0.1286 -0.6478
 1442TIP3   OH2 4331   1.303   2.171   1.890  0.5326 -0.2744  0.0818
 1442TIP3    H1 4332   1.237   2.109   1.922  1.2717 -0.1472  2.0432
 1442TIP3    H2 4333   1.338   2.210   1.970 -1.8017  4.8062 -0.9607
 1443TIP3   OH2 4334   3.386   3.475   1.894  0.0774 -0.4301  0.1088
 1443TIP3    H1 4335   3.437   3.456   1.816  1.2953  0.4760  0.6435
 1443TIP3    H2 4336   3.387   3.394   1.945 -0.5732 -0.9671 -0.7087
 1444TIP3   OH2 4337   5.423   1.003   4.188 -0.8580  0.3148  0.1010
 1444TIP3    H1 4338   5.502   1.017   4.240  0.0262 -2.2284 -0.4348
 1444TIP3    H2 4339   5.351   1.013   4.250  0.1327 -2.0079  1.7598
 1445TIP3   OH2 4340   0.068   4.819   4.158  0.6186 -0.2707 -0.4136
 1445TIP3    H1 4341   0.027   4.905   4.150 -1.1764 -1.1497 -1.4570
 1445TIP3    H2 4342  -0.003   4.761   4.186  1.6390 -1.5171 -0.3006
 1446TIP3   OH2 4343   5.179   2.778   2.543  0.2583 -0.0036  0.2911
 1446TIP3    H1 4344   5.261   2.743   2.578  0.2979  0.2616  0.4610
 1446TIP3    H2 4345   5.119   2.703   2.546  0.0869  0.1478  1.4844
 1447TIP3   OH2 4346   6.127   0.908   2.811  0.6365 -0.2456 -0.3632
 1447TIP3    H1 4347   6.132   0.965   2.734 -0.9177 -0.1560 -0.4193
 1447TIP3    H2 4348   6.135   0.968   2.886 -0.1710 -0.0485 -0.4313
 1448TIP3   OH2 4349   1.024   4.109   1.898 -0.2260 -0.4726 -0.5969
 1448TIP3    H1 4350   1.110   4.132   1.934 -1.8199  1.9107  2.1450
 1448TIP3    H2 4351   0.990   4.044   1.959 -1.7383  1.3202  0.5785
 1449TIP3   OH2 4352   3.021   2.316   3.372  0.3598 -0.0921  0.3301
 1449TIP3    H1 4353   3.106   2.352   3.346 -0.2844  0.8410 -0.5548
 1449TIP3    H2 4354   3.031   2.296   3.465  1.2257  0.9635  0.4891
 1450TIP3   OH2 4355   4.964   1.561   1.445  0.2633  0.0460 -0.6561
 1450TIP3    H1 4356   4.919   1.476   1.446 -0.6450  0.5038 -1.1925
 1450TIP3    H2 4357   4.916   1.615   1.508  0.6360  0.2648 -0.5556
 1451TIP3   OH2 4358   4.351   2.596   1.916 -0.1731 -0.1099  0.3085
 1451TIP3    H1 4359   4.416   2.566   1.853  1.0225  2.5402  0.1781
 1451TIP3    H2 4360   4.402   2.640   1.984 -1.7103  0.5608  1.0809
 1452TIP3   OH2 4361   3.180   0.869   2.178  0.0028  0.7067 -0.6135
 1452TIP3    H1 4362   3.136   0.865   2.263 -1.2966  0.3411 -1.2793
 1452TIP3    H2 4363   3.259   0.920   2.195 -1.1197  2.2142  0.4637
 1453TIP3   OH2 4364   1.327   1.422   2.741  0.3878  0.0512  0.0324
 1453TIP3    H1 4365   1.404   1.463   2.700 -0.2536  3.0167  1.4702
 1453TIP3    H2 4366   1.263   1.493   2.746 -1.3342 -1.5264  1.6418
 1454TIP3   OH2 4367   4.940   1.078   1.260  0.0794  0.0256 -1.2547
 1454TIP3    H1 4368   5.007   1.022   1.222 -0.1155 -1.8012  0.8995
 1454TIP3    H2 4369   4.889   1.020   1.316 -1.3546  2.0101 -0.3804
 1455TIP3   OH2 4370   2.969   1.828   1.710 -0.1217  0.5113  0.2104
 1455TIP3    H1 4371   3.025   1.844   1.634 -0.5566  1.0548  0.0012
 1455TIP3    H2 4372   2.955   1.733   1.709 -1.0559  0.6441 -1.0607
 1456TIP3   OH2 4373   5.130   5.157   3.921 -0.0789  0.0406  0.4972
 1456TIP3    H1 4374   5.148   5.248   3.942 -1.2733  0.9921 -2.1402
 1456TIP3    H2 4375   5.203   5.130   3.865 -1.7127  0.8249 -2.1980
 1457TIP3   OH2 4376   4.853   5.044   4.429  0.5522  0.5208 -0.5997
 1457TIP3    H1 4377   4.933   4.993   4.441 -0.7653 -2.2407 -2.3843
 1457TIP3    H2 4378   4.806   5.036   4.512  1.0903  0.1848 -0.3230
 1458TIP3   OH2 4379   3.135   1.761   0.035 -0.0995  0.5902 -0.2124
 1458TIP3    H1 4380   3.150   1.848   0.071 -1.3961  0.9227 -0.4283
 1458TIP3    H2 4381   3.068   1.774  -0.032 -0.5316 -0.6117 -0.0357
 1459TIP3   OH2 4382   5.403   5.744   2.834  0.2393 -0.3407  0.4006
 1459TIP3    H1 4383   5.395   5.675   2.768 -1.0039 -0.0736  0.2466
 1459TIP3    H2 4384   5.453   5.703   2.905  0.9079 -0.8787 -0.3597
 1460TIP3   OH2 4385   3.712   5.688   0.719  0.4266  0.2356  0.1591
 1460TIP3    H1 4386   3.621   5.714   0.699  0.0349 -1.2316 -0.0594
 1460TIP3    H2 4387   3.706   5.642   0.802  0.9362 -0.0736  0.0277
 1461TIP3   OH2 4388   4.117   3.052   0.479  0.5247 -0.1752  0.7206
 1461TIP3    H1 4389   4.195   3.083   0.434  0.1067 -0.7047 -0.4129
 1461TIP3    H2 4390   4.111   2.959   0.456 -0.6052 -0.0683  0.5262
 1462TIP3   OH2 4391   5.638   2.884   3.155 -0.3393  0.8874  0.2846
 1462TIP3    H1 4392   5.674   2.801   3.184 -1.7744 -0.4749 -1.5785
 1462TIP3    H2 4393   5.696   2.911   3.083  0.3084  1.6847  1.0912
 1463TIP3   OH2 4394   4.276   3.894   2.430  0.0803 -0.0874  0.1226
 1463TIP3    H1 4395   4.207   3.960   2.439  1.3192  1.1323  1.0611
 1463TIP3    H2 4396   4.294   3.867   2.521  1.6750  0.5274  0.0153
 1464TIP3   OH2 4397   5.909   0.625   1.084 -0.7220 -0.3680 -0.2304
 1464TIP3    H1 4398   5.835   0.658   1.034 -1.0291  1.0255  1.0723
 1464TIP3    H2 4399   5.976   0.604   1.018 -1.8417 -0.5706 -1.3325
 1465TIP3   OH2 4400   1.070   4.958   0.760 -0.6363 -0.2761 -0.1755
 1465TIP3    H1 4401   1.004   4.935   0.694 -0.2789  0.1707 -0.6976
 1465TIP3    H2 4402   1.153   4.961   0.711 -0.6838  2.4146 -0.2305
 1466TIP3   OH2 4403   2.265   2.003   2.769  0.2672  0.0631 -0.1696
 1466TIP3    H1 4404   2.202   2.063   2.730 -0.4552 -1.5613 -1.6335
 1466TIP3    H2 4405   2.324   1.980   2.697  0.5283 -0.9584  0.3469
 1467TIP3   OH2 4406   4.943   0.103   4.320  0.2750 -0.4327 -0.0815
 1467TIP3    H1 4407   5.016   0.060   4.364 -0.2247 -1.1428  0.0678
 1467TIP3    H2 4408   4.883   0.031   4.298 -0.4977  0.1716  0.0262
 1468TIP3   OH2 4409   4.613   2.479   4.925  0.0253  0.2453 -0.4332
 1468TIP3    H1 4410   4.679   2.486   4.993 -0.0906  1.0449 -0.3954
 1468TIP3    H2 4411   4.650   2.418   4.861  0.1072 -0.5493  0.3647
 1469TIP3   OH2 4412   3.723   4.251   3.934 -0.2627 -0.9899  0.3757
 1469TIP3    H1 4413   3.816   4.238   3.915  0.5559  3.4251  0.2794
 1469TIP3    H2 4414   3.678   4.221   3.855  1.4369 -0.2657 -0.9469
 1470TIP3   OH2 4415   0.655   5.063   1.142 -0.1821  0.7067 -0.0965
 1470TIP3    H1 4416   0.746   5.063   1.113 -0.5333 -1.1557 -1.4105
 1470TIP3    H2 4417   0.612   5.126   1.084 -0.0382  0.3108 -0.6417
 1471TIP3   OH2 4418   1.048   2.271   4.766  0.7680  0.2477 -0.0957
 1471TIP3    H1 4419   0.953   2.260   4.758  0.8755 -0.3362 -0.6898
 1471TIP3    H2 4420   1.060   2.363   4.789  0.1090  0.6048 -1.1155
 1472TIP3   OH2 4421   4.497   5.396   3.280  0.2179  0.2480 -0.6523
 1472TIP3    H1 4422   4.491   5.450   3.201  3.1572 -0.5071 -1.5487
 1472TIP3    H2 4423   4.513   5.307   3.247 -0.6094 -0.4860  0.8131
 1473TIP3   OH2 4424   5.980   3.671   1.862 -0.3993  0.2125  0.3109
 1473TIP3    H1 4425   6.006   3.722   1.785 -1.3320 -1.0763 -0.8905
 1473TIP3    H2 4426   6.061   3.661   1.912  0.6293 -0.4504 -1.4052
 1474TIP3   OH2 4427   4.698   2.050   2.830 -0.2903 -0.4562  0.2738
 1474TIP3    H1 4428   4.729   1.964   2.802 -1.0461 -0.5012 -0.4698
 1474TIP3    H2 4429   4.727   2.110   2.762 -0.6710 -0.2919  0.2551
 1475TIP3   OH2 4430   2.291   2.079   2.056  0.2526 -0.1805  0.0363
 1475TIP3    H1 4431   2.259   2.056   2.143 -0.0714 -1.3559 -0.3715
 1475TIP3    H2 4432   2.316   2.171   2.062  1.3782 -0.5644  1.7153
 1476TIP3   OH2 4433   3.308   4.983   0.732 -0.3931  0.2930  0.4344
 1476TIP3    H1 4434   3.250   4.940   0.669  2.5259 -1.4496 -1.2870
 1476TIP3    H2 4435   3.315   5.073   0.700 -0.7623  0.0356 -0.4189
 1477TIP3   OH2 4436   5.186   2.546   0.879 -0.2637 -0.2763 -0.4231
 1477TIP3    H1 4437   5.118   2.544   0.947 -0.1964  1.0452 -0.2887
 1477TIP3    H2 4438   5.158   2.615   0.819 -1.4838 -2.8410 -3.0418
 1478TIP3   OH2 4439   5.755   5.295   2.696 -0.5205  0.2961  0.5861
 1478TIP3    H1 4440   5.809   5.266   2.622 -0.6691  3.6213 -0.9799
 1478TIP3    H2 4441   5.719   5.213   2.732 -0.1133 -1.5409 -2.7421
 1479TIP3   OH2 4442   2.478   0.770   4.672  0.6443 -0.0580  0.2930
 1479TIP3    H1 4443   2.493   0.859   4.703  0.2546  0.8050 -1.8567
 1479TIP3    H2 4444   2.384   0.756   4.685  0.6249  0.0028  0.2149
 1480TIP3   OH2 4445   4.399   1.212   1.677 -0.1019 -0.1462 -0.0425
 1480TIP3    H1 4446   4.348   1.288   1.648 -1.1960 -1.4547 -1.7245
 1480TIP3    H2 4447   4.391   1.213   1.772  0.5469  2.2481  0.0624
 1481TIP3   OH2 4448   5.756   4.990   2.424 -0.4471 -0.0003  0.0931
 1481TIP3    H1 4449   5.684   4.968   2.483 -0.4270 -1.1250 -0.2771
 1481TIP3    H2 4450   5.817   4.917   2.432  1.4525  1.6283  1.5793
 1482TIP3   OH2 4451   3.732   1.560   4.664 -0.0143  0.0314  0.2475
 1482TIP3    H1 4452   3.751   1.471   4.692 -1.1825 -0.3630 -0.1446
 1482TIP3    H2 4453   3.758   1.615   4.738  0.5853 -0.6392  0.5474
 1483TIP3   OH2 4454   3.644   2.662   1.252  0.6608 -0.2112  0.6495
 1483TIP3    H1 4455   3.665   2.685   1.162  0.3861  2.0466  1.1153
 1483TIP3    H2 4456   3.612   2.572   1.247  1.3860 -0.4038 -1.3736
 1484TIP3   OH2 4457   3.176   4.259   1.594  0.2548  0.5689  0.0872
 1484TIP3    H1 4458   3.263   4.224   1.613  0.5636  0.0064 -2.0356
 1484TIP3    H2 4459   3.186   4.354   1.604  1.4868  0.6238 -1.2403
 1485TIP3   OH2 4460   2.842   3.573   1.436 -0.9966 -0.0343  0.7046
 1485TIP3    H1 4461   2.749   3.553   1.446 -0.9543 -0.3778  0.4185
 1485TIP3    H2 4462   2.880   3.552   1.522 -1.4475  1.7063  1.3859
 1486TIP3   OH2 4463   1.176   2.662   1.256  0.2975  0.3329 -0.0222
 1486TIP3    H1 4464   1.150   2.686   1.345  0.8240 -0.0818  0.2471
 1486TIP3    H2 4465   1.269   2.682   1.252  0.0457  1.4571 -0.8616
 1487TIP3   OH2 4466   1.102   1.190   0.745  0.4039  0.0431 -0.1407
 1487TIP3    H1 4467   1.115   1.251   0.671 -0.2514  1.1057  0.5937
 1487TIP3    H2 4468   1.139   1.107   0.714  0.4655  0.5574 -1.5312
 1488TIP3   OH2 4469   3.418   3.535   1.048  0.5815 -0.2254  0.2994
 1488TIP3    H1 4470   3.462   3.606   1.002  1.3923 -0.5636  0.5400
 1488TIP3    H2 4471   3.373   3.578   1.121 -0.8986  0.3475 -0.8913
 1489TIP3   OH2 4472   5.735   4.127   4.796 -0.5439 -0.6771  0.7107
 1489TIP3    H1 4473   5.812   4.102   4.744 -0.5161  1.7477 -0.5155
 1489TIP3    H2 4474   5.772   4.172   4.872 -0.7257  0.7763 -0.0406
 1490TIP3   OH2 4475   2.406   4.286   4.677 -0.2158  0.5993 -0.4625
 1490TIP3    H1 4476   2.351   4.335   4.615  0.1277  0.7013 -0.6904
 1490TIP3    H2 4477   2.481   4.257   4.625 -0.1012  0.3781 -0.1765
 1491TIP3   OH2 4478   0.228   1.461   3.801  0.2289 -0.7466  0.3770
 1491TIP3    H1 4479   0.274   1.383   3.769  0.0375 -0.1675 -1.3849
 1491TIP3    H2 4480   0.176   1.491   3.727 -1.5120 -0.2504  1.7376
 1492TIP3   OH2 4481   6.036   2.005   0.029  0.0901 -0.4210  0.0003
 1492TIP3    H1 4482   6.069   1.979  -0.057  0.1139  1.0683 -0.4684
 1492TIP3    H2 4483   6.048   2.100   0.031 -0.6744 -0.3382  1.3308
 1493TIP3   OH2 4484   3.179   4.586   1.601  0.0509  0.5504  0.8722
 1493TIP3    H1 4485   3.157   4.672   1.565  0.5758 -0.9054 -3.4276
 1493TIP3    H2 4486   3.272   4.594   1.626 -0.1729  1.4563  1.4654
 1494TIP3   OH2 4487   4.691   5.730   0.408 -0.2408  0.5879  0.0743
 1494TIP3    H1 4488   4.757   5.725   0.338 -0.3000  2.1184 -0.1249
 1494TIP3    H2 4489   4.618   5.677   0.376  0.6208 -0.5820 -0.0016
 1495TIP3   OH2 4490   1.826   2.486   1.213  1.0516  0.2032  0.2904
 1495TIP3    H1 4491   1.826   2.523   1.124  0.2069 -2.4950 -0.9364
 1495TIP3    H2 4492   1.867   2.400   1.203  0.3852 -0.4175  2.4236
 1496TIP3   OH2 4493  -0.001   4.654   1.117 -0.0739 -0.8785  0.3841
 1496TIP3    H1 4494   0.007   4.735   1.067  0.3231 -0.1396  1.6054
 1496TIP3    H2 4495   0.060   4.664   1.190 -2.8776 -0.5049  2.8716
 1497TIP3   OH2 4496   5.854   4.258   2.046  0.1237  0.2384  0.1149
 1497TIP3    H1 4497   5.762   4.256   2.021 -0.0510  0.6288  0.6987
 1497TIP3    H2 4498   5.852   4.268   2.141  0.7691 -0.1959  0.1807
 1498TIP3   OH2 4499   0.090   5.547   3.244 -0.8034 -0.2238 -0.3122
 1498TIP3    H1 4500   0.159   5.600   3.284 -0.2493 -1.0916 -0.0752
 1498TIP3    H2 4501   0.138   5.482   3.192 -1.4006 -1.2508  0.3727
 1499TIP3   OH2 4502   1.077   1.285   5.175 -0.5191 -0.1196  0.0738
 1499TIP3    H1 4503   1.045   1.197   5.197  0.5540 -0.4422  0.4667
 1499TIP3    H2 4504   1.123   1.273   5.092 -1.2535  0.2925 -0.3947
 1500TIP3   OH2 4505   2.130   1.791   3.997  0.0769  0.1201 -0.5874
 1500TIP3    H1 4506   2.094   1.724   4.056  0.3604  0.5352  0.0728
 1500TIP3    H2 4507   2.125   1.752   3.910  0.9156 -1.0519 -0.1348
 1501TIP3   OH2 4508   2.970   0.252   1.797 -0.4123 -0.3916 -0.3255
 1501TIP3    H1 4509   3.042   0.307   1.828 -1.8368  0.5098  1.5874
 1501TIP3    H2 4510   2.953   0.191   1.869 -1.2183 -0.9198 -0.9445
 1502TIP3   OH2 4511   5.885   5.395   4.053  0.0282  0.0458 -0.1632
 1502TIP3    H1 4512   5.831   5.473   4.042  2.0924  1.5343 -0.1703
 1502TIP3    H2 4513   5.909   5.394   4.145 -0.0935 -0.6775 -0.1284
 1503TIP3   OH2 4514   4.915   1.617   2.214 -0.2990 -0.1617  0.3557
 1503TIP3    H1 4515   4.828   1.632   2.250 -0.3986  0.2330 -0.0460
 1503TIP3    H2 4516   4.902   1.555   2.143 -0.1932 -0.4230  0.5617
 1504TIP3   OH2 4517   3.624   0.780   4.989 -0.4729 -0.1368  0.1697
 1504TIP3    H1 4518   3.605   0.864   5.033 -1.3843  0.6612 -1.6520
 1504TIP3    H2 4519   3.718   0.783   4.972 -0.0641 -0.5318  2.1369
 1505TIP3   OH2 4520   3.150   5.362   3.757 -0.1286 -0.1192 -0.2203
 1505TIP3    H1 4521   3.134   5.314   3.839 -0.0223  1.8719  1.0271
 1505TIP3    H2 4522   3.235   5.330   3.727  1.2137  1.1141  2.0012
 1506TIP3   OH2 4523   5.592   0.487   0.125  0.4536 -0.3538  0.5635
 1506TIP3    H1 4524   5.618   0.414   0.181  2.2681 -0.0457  0.1862
 1506TIP3    H2 4525   5.631   0.564   0.166  0.6813  0.0553 -0.3851
 1507TIP3   OH2 4526   6.228   4.483   2.366 -0.4444  0.0972  0.1154
 1507TIP3    H1 4527   6.287   4.482   2.441  0.5187 -2.6495 -0.5867
 1507TIP3    H2 4528   6.182   4.567   2.373  3.0025  2.0669  1.1006
 1508TIP3   OH2 4529   2.770   5.898   2.728 -0.3270  0.4745 -0.5970
 1508TIP3    H1 4530   2.710   5.824   2.719  0.3319  0.0382 -1.6686
 1508TIP3    H2 4531   2.798   5.895   2.819  0.9845 -1.6868 -0.9819
 1509TIP3   OH2 4532   3.989   5.371   0.556  0.1627 -0.2521  0.0536
 1509TIP3    H1 4533   3.949   5.328   0.631 -2.1791  0.2802 -0.7954
 1509TIP3    H2 4534   3.959   5.462   0.561  0.2310 -0.1243 -1.3453
 1510TIP3   OH2 4535   0.018   4.349   3.084  0.5911 -0.2940  0.1440
 1510TIP3    H1 4536   0.093   4.400   3.115  0.7755  0.2721 -1.1561
 1510TIP3    H2 4537   0.035   4.260   3.114  2.1183 -0.2999 -0.6462
 1511TIP3   OH2 4538   2.113   5.929   4.244 -0.6409  0.3979 -0.1952
 1511TIP3    H1 4539   2.019   5.913   4.234 -0.5136 -1.0745  0.5964
 1511TIP3    H2 4540   2.135   5.889   4.328  0.2039  3.1536  1.0183
 1512TIP3   OH2 4541   4.699   5.663   0.911 -0.9702  0.3042  1.0543
 1512TIP3    H1 4542   4.716   5.608   0.835 -0.6947 -0.0432  1.3648
 1512TIP3    H2 4543   4.749   5.743   0.894 -0.9076  0.2286  0.8783
 1513TIP3   OH2 4544   1.287   4.649   2.871 -0.7095 -0.5575  0.3930
 1513TIP3    H1 4545   1.197   4.646   2.841 -0.5125 -0.8818 -0.1694
 1513TIP3    H2 4546   1.338   4.675   2.794 -0.1961 -1.4623  0.4021
 1514TIP3   OH2 4547   2.787   3.839   2.955 -0.2892 -0.3462  0.0373
 1514TIP3    H1 4548   2.864   3.836   2.899 -0.6177  2.0928 -0.6869
 1514TIP3    H2 4549   2.822   3.848   3.044  0.4185  2.9719 -0.4472
 1515TIP3   OH2 4550   0.950   5.011   1.817  0.6287 -0.0499 -0.2448
 1515TIP3    H1 4551   0.928   5.065   1.741  0.5543 -0.1000 -0.2601
 1515TIP3    H2 4552   1.008   5.065   1.870 -0.4205  0.5301  0.3540
 1516TIP3   OH2 4553   5.742   0.100   0.600  0.2319 -0.3979 -0.2063
 1516TIP3    H1 4554   5.761   0.008   0.586  0.4463 -0.3186 -0.4583
 1516TIP3    H2 4555   5.701   0.104   0.686 -2.2029 -1.0810 -1.2581
 1517TIP3   OH2 4556   2.450   0.560   0.508 -0.2539  0.1503 -0.0929
 1517TIP3    H1 4557   2.519   0.627   0.504 -1.3085  1.3599  0.9670
 1517TIP3    H2 4558   2.437   0.545   0.601 -0.4256 -1.1627 -0.3124
 1518TIP3   OH2 4559   5.049   0.723   3.676 -0.4218 -0.1987 -0.2642
 1518TIP3    H1 4560   4.955   0.728   3.690 -0.2755  0.9807  0.4461
 1518TIP3    H2 4561   5.083   0.803   3.716  1.0477 -1.3380  0.8717
 1519TIP3   OH2 4562   0.090   2.252   0.643 -0.4360 -0.3205  0.1849
 1519TIP3    H1 4563   0.075   2.287   0.731  0.9521  0.0376  0.3067
 1519TIP3    H2 4564   0.003   2.225   0.613 -1.0386  0.1719  1.3945
 1520TIP3   OH2 4565   1.342   4.869   1.706 -0.0902 -0.2391 -1.2344
 1520TIP3    H1 4566   1.326   4.834   1.793 -1.1268  1.7197 -0.5734
 1520TIP3    H2 4567   1.425   4.916   1.714  0.3687 -0.9619 -1.6226
 1521TIP3   OH2 4568   0.642   3.203   4.458  0.5374 -0.0412  0.2881
 1521TIP3    H1 4569   0.648   3.290   4.497  0.3341  0.2561 -0.3266
 1521TIP3    H2 4570   0.575   3.211   4.390  2.3326  0.0467 -1.5860
 1522TIP3   OH2 4571   0.896   4.228   3.892 -0.3466 -0.1481  0.0873
 1522TIP3    H1 4572   0.871   4.301   3.948 -2.3166 -0.5908 -0.1561
 1522TIP3    H2 4573   0.888   4.261   3.803 -0.0298 -0.3038 -0.0026
 1523TIP3   OH2 4574   1.479   1.871   1.681  0.6803  0.0918  0.3608
 1523TIP3    H1 4575   1.387   1.879   1.709  0.9538 -0.6360  1.5708
 1523TIP3    H2 4576   1.485   1.782   1.646  0.2808  1.0662 -2.4656
 1524TIP3   OH2 4577   0.280   3.777   3.107  0.1114 -0.0543  0.3116
 1524TIP3    H1 4578   0.322   3.816   3.184 -0.1870 -0.4120  0.6573
 1524TIP3    H2 4579   0.264   3.852   3.049  2.0798 -0.0141 -0.2664
 1525TIP3   OH2 4580   4.498   0.366   4.357 -0.3845  0.3997 -0.1007
 1525TIP3    H1 4581   4.578   0.337   4.312 -0.0434  1.9375 -0.5604
 1525TIP3    H2 4582   4.517   0.355   4.450  1.3050  2.8256 -0.0656
 1526TIP3   OH2 4583   1.625   5.198   0.181  0.4042 -0.5542  0.2092
 1526TIP3    H1 4584   1.580   5.283   0.188  0.0959 -0.7066  0.1192
 1526TIP3    H2 4585   1.554   5.135   0.168  0.7292 -0.6631 -1.2004
 1527TIP3   OH2 4586   3.442   3.247   2.060 -0.0586 -0.1053  0.1294
 1527TIP3    H1 4587   3.503   3.181   2.093  0.6598 -0.0016 -0.9351
 1527TIP3    H2 4588   3.436   3.311   2.130 -0.2635 -0.9620  0.9184
 1528TIP3   OH2 4589   4.390   1.912   0.083 -0.6266  0.6353 -0.4133
 1528TIP3    H1 4590   4.318   1.868   0.129  0.0416  0.5112  0.5452
 1528TIP3    H2 4591   4.385   2.003   0.113 -1.1068  0.9006 -1.2673
 1529TIP3   OH2 4592   1.937   1.893   4.719  0.4506 -0.0032  0.1780
 1529TIP3    H1 4593   2.026   1.880   4.687  0.3773  0.6886 -0.3438
 1529TIP3    H2 4594   1.881   1.871   4.644  0.2032 -0.0282  0.3688
 1530TIP3   OH2 4595   2.806   2.843   0.633 -0.0885  0.0482  0.1899
 1530TIP3    H1 4596   2.803   2.939   0.636  1.2847  0.2544 -2.3374
 1530TIP3    H2 4597   2.718   2.816   0.607 -0.2408  0.6756  0.0465
 1531TIP3   OH2 4598   3.456   4.109   3.948 -0.0998 -0.2694 -0.3400
 1531TIP3    H1 4599   3.439   4.094   4.041 -1.0498 -0.5568 -0.5488
 1531TIP3    H2 4600   3.427   4.029   3.906  0.2063 -0.0855 -0.9063
 1532TIP3   OH2 4601   4.962   0.524   0.841  0.0525 -0.3341  0.4111
 1532TIP3    H1 4602   4.914   0.444   0.822  1.3207 -1.1316  0.4189
 1532TIP3    H2 4603   4.972   0.523   0.936 -1.0604  0.5297  0.5540
 1533TIP3   OH2 4604   3.965   1.871   1.605  1.2838  0.4975 -0.3437
 1533TIP3    H1 4605   3.983   1.910   1.690 -1.2081 -0.3003  0.6595
 1533TIP3    H2 4606   3.999   1.782   1.611  3.0243  1.0768 -1.0238
 1534TIP3   OH2 4607   2.034   1.982   1.230  0.1069  0.2211 -0.2320
 1534TIP3    H1 4608   1.958   1.928   1.207  0.7282 -0.5327 -0.5433
 1534TIP3    H2 4609   2.014   2.068   1.193 -0.7043  0.1042 -0.0950
 1535TIP3   OH2 4610   2.132   1.039   4.180 -0.0241 -0.1602  0.0367
 1535TIP3    H1 4611   2.103   1.066   4.093 -1.5845  0.7246  0.7846
 1535TIP3    H2 4612   2.083   0.958   4.198  0.0313 -0.1565  0.2123
 1536TIP3   OH2 4613   5.551   3.006   3.575 -0.4414  0.4438 -0.4346
 1536TIP3    H1 4614   5.511   3.064   3.640 -1.6638 -0.0382 -0.7312
 1536TIP3    H2 4615   5.618   3.060   3.533  0.6339  0.6684  1.4355
 1537TIP3   OH2 4616   3.870   4.730   3.789 -0.3362  0.3086 -0.0473
 1537TIP3    H1 4617   3.854   4.712   3.696 -0.9858  0.5989 -0.0021
 1537TIP3    H2 4618   3.795   4.690   3.834  0.6231 -0.9734  0.4842
 1538TIP3   OH2 4619   1.169   3.984   2.960  0.1935 -0.1011  0.1328
 1538TIP3    H1 4620   1.259   3.952   2.958  0.5312  0.8401 -0.4391
 1538TIP3    H2 4621   1.166   4.043   3.036  0.2748  0.4447 -0.2798
 1539TIP3   OH2 4622   4.848   4.765   0.672 -0.2392 -0.4372  0.1071
 1539TIP3    H1 4623   4.785   4.761   0.745 -0.0894 -0.1551  0.2508
 1539TIP3    H2 4624   4.890   4.679   0.673  2.0755  0.5730  2.4238
 1540TIP3   OH2 4625   2.276   0.952   0.069  0.1001 -0.8379 -0.0377
 1540TIP3    H1 4626   2.236   1.027   0.114 -0.9327 -0.9609 -0.7071
 1540TIP3    H2 4627   2.205   0.888   0.063  0.9262 -1.8282  0.3856
 1541TIP3   OH2 4628   1.877   5.226   1.228  0.0273  0.4960 -0.1429
 1541TIP3    H1 4629   1.876   5.167   1.152  1.5672  0.2703 -0.0206
 1541TIP3    H2 4630   1.938   5.295   1.204  0.3075  0.5801  0.7820
 1542TIP3   OH2 4631   1.561   5.933   3.695  0.1656 -0.1942 -0.0016
 1542TIP3    H1 4632   1.475   5.960   3.728 -0.1044 -1.2761  0.1993
 1542TIP3    H2 4633   1.622   5.962   3.762  0.0875  1.4770 -0.6045
 1543TIP3   OH2 4634   3.092   4.054   3.419 -0.0815 -0.5334 -0.2394
 1543TIP3    H1 4635   3.086   3.959   3.427  0.5717 -0.5180  0.5786
 1543TIP3    H2 4636   3.161   4.079   3.481 -3.1609  0.9320  2.9279
 1544TIP3   OH2 4637   1.109   5.794   1.171  0.9383 -0.2282 -0.0929
 1544TIP3    H1 4638   1.194   5.769   1.207  0.0119 -0.5096  2.0096
 1544TIP3    H2 4639   1.045   5.765   1.236 -0.6763  1.2995 -0.9032
 1545TIP3   OH2 4640   0.956   1.026   1.639 -0.3104 -0.7397  0.4375
 1545TIP3    H1 4641   1.037   1.038   1.689  0.9480  0.4001 -1.7018
 1545TIP3    H2 4642   0.954   0.933   1.619  0.6600 -0.7423  0.2697
 1546TIP3   OH2 4643   4.795   1.613   3.676 -0.2062  0.0913 -0.1833
 1546TIP3    H1 4644   4.744   1.670   3.617  0.1611  0.6533  0.0377
 1546TIP3    H2 4645   4.770   1.524   3.650  0.1126  0.3215 -1.3466
 1547TIP3   OH2 4646   3.459   1.835   0.068 -0.5252 -0.2597  0.7694
 1547TIP3    H1 4647   3.439   1.753   0.114  0.7987 -1.1022 -0.1210
 1547TIP3    H2 4648   3.384   1.849   0.010 -0.2522 -1.4440  0.1138
 1548TIP3   OH2 4649   5.302   5.755   1.060 -0.2749 -0.0713 -0.0713
 1548TIP3    H1 4650   5.297   5.749   0.965  0.0797  1.2313 -0.1805
 1548TIP3    H2 4651   5.333   5.669   1.087  0.1312 -0.2846 -1.1675
 1549TIP3   OH2 4652   1.274   3.326   3.136 -0.4913  0.6337  0.1365
 1549TIP3    H1 4653   1.368   3.337   3.117 -0.8975  2.4807 -1.0986
 1549TIP3    H2 4654   1.243   3.267   3.067 -0.3379  0.4357  0.2349
 1550TIP3   OH2 4655   5.602   2.494   2.483 -0.1858 -0.3691 -0.0710
 1550TIP3    H1 4656   5.639   2.474   2.397 -1.5842 -1.4330 -0.4591
 1550TIP3    H2 4657   5.672   2.472   2.545  1.1069  1.1300 -0.9416
 1551TIP3   OH2 4658   6.224   3.984   1.795 -0.1176  0.0411  0.3152
 1551TIP3    H1 4659   6.157   4.051   1.801 -0.0492  0.4359 -2.2399
 1551TIP3    H2 4660   6.278   4.011   1.720  0.2419 -2.5408 -0.4526
 1552TIP3   OH2 4661   3.267   3.610   2.857  0.0241 -0.6624  0.2388
 1552TIP3    H1 4662   3.204   3.538   2.859 -1.6982  0.7861  0.6255
 1552TIP3    H2 4663   3.216   3.687   2.880  1.3577  1.0304 -2.1126
 1553TIP3   OH2 4664   2.382   4.351   4.933  0.1095 -0.2441 -0.3341
 1553TIP3    H1 4665   2.421   4.320   4.851  2.3860 -0.8265  0.8888
 1553TIP3    H2 4666   2.449   4.335   4.999 -0.3607  3.2069  1.1651
 1554TIP3   OH2 4667   5.351   1.144   4.647 -0.2249  0.2278 -0.1401
 1554TIP3    H1 4668   5.386   1.056   4.634  2.4505  1.1662  0.0485
 1554TIP3    H2 4669   5.426   1.196   4.675 -1.4254  2.8523 -1.3776
 1555TIP3   OH2 4670   2.243   1.015   2.330  0.2524  0.1337 -0.2809
 1555TIP3    H1 4671   2.221   1.021   2.238 -0.3937 -0.5895 -0.1880
 1555TIP3    H2 4672   2.162   1.036   2.376  0.2647 -0.6178  0.1008
 1556TIP3   OH2 4673   1.997   5.703   4.020 -0.5899 -0.6182  0.2946
 1556TIP3    H1 4674   2.089   5.689   4.044 -0.4948 -2.8165 -1.0424
 1556TIP3    H2 4675   1.995   5.792   3.984  0.5837  0.2056  2.1009
 1557TIP3   OH2 4676   1.796   3.532   0.378  0.9567  0.0513 -0.5880
 1557TIP3    H1 4677   1.881   3.555   0.416  0.5934  1.6961 -0.6794
 1557TIP3    H2 4678   1.753   3.481   0.446 -0.3843  4.3634  2.2040
 1558TIP3   OH2 4679   1.759   0.068   4.416  0.1575 -0.1927 -0.3954
 1558TIP3    H1 4680   1.676   0.039   4.378 -0.1295 -0.4461  0.4128
 1558TIP3    H2 4681   1.788   0.139   4.359 -0.7962  0.1389 -0.4744
 1559TIP3   OH2 4682   1.700   1.176   2.852  0.4027  0.3344 -0.4089
 1559TIP3    H1 4683   1.689   1.094   2.804  3.4881 -1.9106  2.2355
 1559TIP3    H2 4684   1.777   1.217   2.813  1.9694 -0.7218  1.3997
 1560TIP3   OH2 4685   1.794   4.525   3.791 -0.0615 -0.3616 -0.1486
 1560TIP3    H1 4686   1.746   4.550   3.870 -0.9596  0.1051 -0.8279
 1560TIP3    H2 4687   1.877   4.571   3.798 -1.0389  1.5680 -0.5835
 1561TIP3   OH2 4688   4.943   0.697   4.095  0.1220  0.3074 -0.5841
 1561TIP3    H1 4689   4.946   0.655   4.181  2.0161 -0.8760 -1.1785
 1561TIP3    H2 4690   4.997   0.775   4.105  0.2442  0.2334 -0.6688
 1562TIP3   OH2 4691   0.500   5.132   3.452  0.2193  0.0661 -0.5488
 1562TIP3    H1 4692   0.574   5.151   3.394  0.8324  1.6629  0.6878
 1562TIP3    H2 4693   0.540   5.092   3.530 -0.3011  0.2252 -0.1907
 1563TIP3   OH2 4694   1.781   0.941   3.375 -0.2970 -0.5557  0.5725
 1563TIP3    H1 4695   1.812   0.987   3.297 -2.6631  0.0550 -0.0960
 1563TIP3    H2 4696   1.848   0.958   3.441  0.5061  1.1187 -0.5964
 1564TIP3   OH2 4697   3.597   3.352   0.966  0.2423  0.7540  0.4185
 1564TIP3    H1 4698   3.516   3.399   0.986 -0.4412 -0.1595 -0.1390
 1564TIP3    H2 4699   3.656   3.374   1.039 -1.0952  0.0514  1.7693
 1565TIP3   OH2 4700   3.912   2.669   0.589  0.5530  0.1156  0.3398
 1565TIP3    H1 4701   3.863   2.708   0.516  1.2267 -0.0759 -0.2229
 1565TIP3    H2 4702   3.958   2.595   0.550  0.6381 -0.2081  1.0442
 1566TIP3   OH2 4703   3.177   0.974   4.602 -0.4350  0.1139  0.2553
 1566TIP3    H1 4704   3.165   1.062   4.636 -0.2304  0.6059 -0.9063
 1566TIP3    H2 4705   3.243   0.983   4.533 -0.4892 -0.9250  0.0420
 1567TIP3   OH2 4706   4.604   3.972   5.041 -0.6483 -0.3938 -0.2809
 1567TIP3    H1 4707   4.543   3.961   5.113 -1.7576 -2.4451 -1.4671
 1567TIP3    H2 4708   4.562   4.036   4.983 -1.4868 -1.4272 -0.8467
 1568TIP3   OH2 4709   4.919   0.964   2.106  0.2524 -0.4701  0.5432
 1568TIP3    H1 4710   4.869   0.994   2.030 -0.2099  1.7109  1.6359
 1568TIP3    H2 4711   4.999   0.927   2.069  0.9445  2.2956 -1.0004
 1569TIP3   OH2 4712   4.348   0.233   4.029  0.4095  0.2519 -0.3953
 1569TIP3    H1 4713   4.380   0.321   4.049 -3.7380  1.5169  2.0990
 1569TIP3    H2 4714   4.311   0.241   3.941 -0.8126  1.3977  0.1826
 1570TIP3   OH2 4715   0.445   0.449   1.845 -0.5614 -0.1125 -0.0276
 1570TIP3    H1 4716   0.383   0.422   1.777 -0.7786 -0.1724  0.1921
 1570TIP3    H2 4717   0.531   0.432   1.807 -0.6252  1.5605 -1.0000
 1571TIP3   OH2 4718   0.083   4.774   3.282  0.4556 -0.5023  0.1651
 1571TIP3    H1 4719  -0.013   4.765   3.281  0.5275 -1.4159 -0.5595
 1571TIP3    H2 4720   0.099   4.855   3.330 -0.6373 -0.8727  1.2291
 1572TIP3   OH2 4721   3.344   2.851   2.204 -0.4360  0.1074 -0.0398
 1572TIP3    H1 4722   3.264   2.881   2.160 -0.9218 -3.3594 -1.8996
 1572TIP3    H2 4723   3.324   2.859   2.297 -2.5104  0.4425 -0.4570
 1573TIP3   OH2 4724   2.802   4.115   1.221 -0.0752 -0.2199 -0.2012
 1573TIP3    H1 4725   2.877   4.119   1.280  1.6191 -0.2011 -2.2304
 1573TIP3    H2 4726   2.768   4.026   1.231  0.4630 -0.3653  0.4327
 1574TIP3   OH2 4727   4.656   1.586   4.170 -0.5761  0.2626  0.5127
 1574TIP3    H1 4728   4.672   1.550   4.082 -0.6330  0.3517  0.4664
 1574TIP3    H2 4729   4.710   1.531   4.228 -2.2236 -1.2549  0.7023
 1575TIP3   OH2 4730   3.067   4.274   3.650 -0.0799  0.0236 -0.4442
 1575TIP3    H1 4731   3.102   4.315   3.729 -0.6389 -0.0064 -0.1780
 1575TIP3    H2 4732   3.143   4.233   3.609 -0.2284 -2.5766  1.6429
 1576TIP3   OH2 4733   3.001   3.746   3.385 -0.2704 -0.1104 -0.8623
 1576TIP3    H1 4734   2.951   3.722   3.463 -1.7904 -0.3505 -1.8787
 1576TIP3    H2 4735   3.087   3.706   3.399  0.1739  1.4918  1.5672
 1577TIP3   OH2 4736   6.228   5.543   4.097 -0.6306 -0.0477  0.2442
 1577TIP3    H1 4737   6.322   5.539   4.077 -0.9395 -1.0539 -1.0837
 1577TIP3    H2 4738   6.215   5.633   4.128  1.1011 -0.4386  2.3236
 1578TIP3   OH2 4739   5.991   5.180   5.070  0.1423  0.4086 -0.1851
 1578TIP3    H1 4740   6.084   5.173   5.047  0.2084 -0.1167  0.2304
 1578TIP3    H2 4741   5.991   5.203   5.163 -0.1394 -2.2148  0.5381
 1579TIP3   OH2 4742   2.398   2.226   3.891 -0.2169 -0.0927  0.2047
 1579TIP3    H1 4743   2.464   2.158   3.907  2.0074  2.4168  2.5957
 1579TIP3    H2 4744   2.316   2.189   3.925  0.6972 -1.8983  0.5318
 1580TIP3   OH2 4745   1.934   2.802   3.316 -0.1804 -0.0676  0.0334
 1580TIP3    H1 4746   1.869   2.871   3.304 -1.3370 -1.4076 -1.7814
 1580TIP3    H2 4747   1.909   2.734   3.254  0.8051 -2.2364  1.8852
 1581TIP3   OH2 4748   1.230   0.764   3.071 -0.0505  0.4353 -0.1024
 1581TIP3    H1 4749   1.296   0.700   3.097 -0.0246  0.4265 -0.1907
 1581TIP3    H2 4750   1.223   0.755   2.976  0.6474  1.2277 -0.2505
 1582TIP3   OH2 4751   2.128   3.807   4.533  0.1809  0.0384 -0.2904
 1582TIP3    H1 4752   2.077   3.736   4.572  1.3764 -0.0060  1.2954
 1582TIP3    H2 4753   2.126   3.877   4.599  2.0071  0.0871 -0.2310
 1583TIP3   OH2 4754   5.102   4.406   2.214 -0.8516 -1.1892 -0.4740
 1583TIP3    H1 4755   5.122   4.472   2.280 -2.4747 -0.6408 -0.4886
 1583TIP3    H2 4756   5.187   4.385   2.174 -0.1051 -0.2333  0.5667
 1584TIP3   OH2 4757   0.130   2.099   4.714 -0.4207  0.1792  0.7930
 1584TIP3    H1 4758   0.095   2.146   4.638 -0.0359 -0.1874  0.3826
 1584TIP3    H2 4759   0.190   2.161   4.755  0.5341 -0.1492 -0.0829
 1585TIP3   OH2 4760   4.654   3.764   4.859  0.3770  0.5004 -0.5714
 1585TIP3    H1 4761   4.628   3.825   4.928 -0.2503 -0.1109 -0.2609
 1585TIP3    H2 4762   4.734   3.802   4.823  2.6869 -0.8109  2.7196
 1586TIP3   OH2 4763   3.484   3.972   1.137  0.3759 -0.1075 -0.4720
 1586TIP3    H1 4764   3.442   4.029   1.201 -0.0932  0.5741 -1.3792
 1586TIP3    H2 4765   3.577   3.975   1.161  0.5028  1.7712 -1.0458
 1587TIP3   OH2 4766   3.843   5.624   0.488 -0.2296  0.1242 -0.1817
 1587TIP3    H1 4767   3.796   5.683   0.547 -0.4834  1.0502 -1.2725
 1587TIP3    H2 4768   3.773   5.575   0.443 -0.0979  0.4034 -0.6965
 1588TIP3   OH2 4769   2.243   5.665   4.552  0.1108  0.8562  0.0152
 1588TIP3    H1 4770   2.220   5.611   4.627 -0.9442 -0.1248 -0.9673
 1588TIP3    H2 4771   2.227   5.755   4.582  1.1174  0.6046  1.4086
 1589TIP3   OH2 4772   1.535   0.293   4.732 -0.3928 -0.4192 -0.5044
 1589TIP3    H1 4773   1.496   0.245   4.805 -0.2266 -1.3858 -1.0273
 1589TIP3    H2 4774   1.607   0.237   4.702  0.8517  0.9178 -0.1215
 1590TIP3   OH2 4775   5.030   4.844   2.652  0.2647 -0.4637 -0.3903
 1590TIP3    H1 4776   5.065   4.819   2.737  0.0357 -1.1987 -0.5016
 1590TIP3    H2 4777   4.937   4.822   2.656  0.5357 -1.9693 -1.3365
 1591TIP3   OH2 4778   3.592   1.039   5.080  0.4143  0.3283 -0.4781
 1591TIP3    H1 4779   3.674   1.059   5.124 -0.8144  0.4086  1.9529
 1591TIP3    H2 4780   3.577   1.114   5.022  0.6246  1.8297  1.3066
 1592TIP3   OH2 4781   3.627   1.215   1.326 -0.1001 -0.8490  0.2002
 1592TIP3    H1 4782   3.716   1.181   1.318  0.2837  0.1417  0.0536
 1592TIP3    H2 4783   3.578   1.170   1.257  0.3261 -1.2726  0.1679
 1593TIP3   OH2 4784   3.375   0.024   2.511 -0.0569  0.4315  0.8196
 1593TIP3    H1 4785   3.387  -0.045   2.576 -0.2491 -1.1573 -0.7669
 1593TIP3    H2 4786   3.318   0.088   2.554  0.1942 -0.3325  2.3598
 1594TIP3   OH2 4787   5.996   4.815   1.452 -0.7289  0.1516 -0.1052
 1594TIP3    H1 4788   5.997   4.829   1.357 -0.1353  0.7071 -0.0225
 1594TIP3    H2 4789   6.088   4.810   1.477 -0.8880 -0.6163  0.3598
 1595TIP3   OH2 4790   2.883   5.509   2.882  0.1405  0.1434 -0.1523
 1595TIP3    H1 4791   2.833   5.531   2.803 -1.8286  0.1749  1.0626
 1595TIP3    H2 4792   2.898   5.593   2.925  0.6362  0.0568 -0.1497
 1596TIP3   OH2 4793   6.208   4.982   3.265 -0.5502  0.4486 -0.0491
 1596TIP3    H1 4794   6.139   5.034   3.225 -0.9229 -0.3247 -0.4221
 1596TIP3    H2 4795   6.163   4.928   3.330 -0.1966  0.4418  0.1916
 1597TIP3   OH2 4796   5.375   1.490   0.938  0.5560  0.7326  0.5743
 1597TIP3    H1 4797   5.357   1.398   0.921  0.1179  0.9064  0.1033
 1597TIP3    H2 4798   5.378   1.496   1.034  0.8629  0.1798  0.6046
 1598TIP3   OH2 4799   0.690   0.329   3.933  0.9029 -0.0792 -0.2839
 1598TIP3    H1 4800   0.686   0.364   3.844 -0.8666  0.3566 -0.0825
 1598TIP3    H2 4801   0.604   0.288   3.946  1.0301  0.0981  1.3109
 1599TIP3   OH2 4802   0.159   4.554   2.730 -0.6117 -0.1951  0.1077
 1599TIP3    H1 4803   0.200   4.502   2.799 -1.2497 -0.2478  0.4503
 1599TIP3    H2 4804   0.214   4.631   2.721  0.2473 -0.8316 -0.2778
 1600TIP3   OH2 4805   1.942   1.343   1.147  0.6320 -0.4673  0.6760
 1600TIP3    H1 4806   1.854   1.328   1.182  0.4945  0.3025  0.6765
 1600TIP3    H2 4807   1.928   1.389   1.064  1.0523  1.0117  1.3833
 1601TIP3   OH2 4808   5.042   3.352   0.382  0.3220  0.1474 -0.2691
 1601TIP3    H1 4809   5.111   3.386   0.439  0.0087  0.4735 -0.0809
 1601TIP3    H2 4810   4.970   3.416   0.390 -0.0509 -0.2551 -0.3559
 1602TIP3   OH2 4811   0.407   1.297   2.724  0.2583 -0.0657  0.7903
 1602TIP3    H1 4812   0.322   1.306   2.681  0.3563 -0.3445  0.5341
 1602TIP3    H2 4813   0.461   1.249   2.661  0.4605 -0.3109  1.1469
 1603TIP3   OH2 4814   0.057   4.670   1.775  0.1651  0.3166  0.6755
 1603TIP3    H1 4815  -0.015   4.621   1.816 -0.5988  1.5202  0.8259
 1603TIP3    H2 4816   0.014   4.744   1.732  1.2403  0.5855  0.0232
 1604TIP3   OH2 4817   5.405   4.358   4.693  0.1655 -0.3782 -0.0685
 1604TIP3    H1 4818   5.351   4.285   4.724 -0.5991  0.1565 -0.1292
 1604TIP3    H2 4819   5.342   4.424   4.665  0.8563  0.1977 -0.2788
 1605TIP3   OH2 4820   2.143   3.515   3.996  0.0922  0.5893  0.3105
 1605TIP3    H1 4821   2.216   3.507   4.057  1.6033  1.9575 -1.2156
 1605TIP3    H2 4822   2.148   3.605   3.963 -1.5300  0.3335 -0.7523
 1606TIP3   OH2 4823   3.839   2.684   1.667  0.1975  0.4386 -0.7313
 1606TIP3    H1 4824   3.831   2.662   1.574 -0.7320 -1.5752 -0.2231
 1606TIP3    H2 4825   3.812   2.605   1.713  0.5755  1.4139  1.2777
 1607TIP3   OH2 4826   5.124   1.631   0.185  0.5069  0.0337 -0.0851
 1607TIP3    H1 4827   5.038   1.672   0.179  0.2479 -0.7305 -3.2672
 1607TIP3    H2 4828   5.184   1.694   0.146  0.7081 -0.9702 -1.4925
 1608TIP3   OH2 4829   2.463   3.212   2.508 -0.0437 -0.7701  0.0603
 1608TIP3    H1 4830   2.377   3.232   2.470 -0.2930 -3.2919 -0.9037
 1608TIP3    H2 4831   2.525   3.241   2.441  0.0074  1.7147  1.0514
 1609TIP3   OH2 4832   2.140   2.874   2.091 -0.5191 -0.6037 -0.6875
 1609TIP3    H1 4833   2.059   2.850   2.045  0.0667 -0.9210 -1.5750
 1609TIP3    H2 4834   2.167   2.957   2.050 -0.8553 -0.0285  0.2179
 1610TIP3   OH2 4835   6.154   5.104   2.644  0.3424 -0.1021 -0.0860
 1610TIP3    H1 4836   6.121   5.034   2.701 -0.0015  0.1130 -0.0197
 1610TIP3    H2 4837   6.089   5.111   2.574  0.5151 -0.0349 -0.2387
 1611TIP3   OH2 4838   0.791   0.025   4.467 -0.7318 -0.2155  0.7301
 1611TIP3    H1 4839   0.759   0.048   4.554 -0.7919 -2.1448  1.2701
 1611TIP3    H2 4840   0.819  -0.067   4.475 -0.3032 -0.2988 -1.1656
 1612TIP3   OH2 4841   4.263   5.838   2.871 -0.9522 -0.3371 -0.1276
 1612TIP3    H1 4842   4.244   5.912   2.929 -0.8319  0.2320 -0.7964
 1612TIP3    H2 4843   4.331   5.871   2.812 -1.0203 -0.9223 -0.5431
 1613TIP3   OH2 4844   2.901   5.347   1.455 -0.4511 -0.1966 -0.0457
 1613TIP3    H1 4845   2.980   5.312   1.413  0.0164 -1.4789  1.7774
 1613TIP3    H2 4846   2.900   5.439   1.429  3.6387  0.8600  2.5190
 1614TIP3   OH2 4847   6.165   2.229   0.544  0.0076  0.3645  0.6939
 1614TIP3    H1 4848   6.071   2.216   0.537  0.2378 -0.5533 -1.4690
 1614TIP3    H2 4849   6.178   2.322   0.526 -0.4567  0.4455  0.7711
 1615TIP3   OH2 4850   1.957   4.358   2.613  0.4306 -0.1750 -0.2934
 1615TIP3    H1 4851   1.983   4.320   2.696 -3.3751 -2.6778 -0.0380
 1615TIP3    H2 4852   1.893   4.425   2.635  0.4873  0.1899 -1.1654
 1616TIP3   OH2 4853   3.672   1.415   1.040 -0.5443  0.1995 -0.1555
 1616TIP3    H1 4854   3.734   1.467   1.092  1.2156 -0.3459 -1.6164
 1616TIP3    H2 4855   3.652   1.339   1.095  0.8276 -0.0834 -0.0268
 1617TIP3   OH2 4856   3.033   0.555   0.582 -0.0072 -0.1590  0.1520
 1617TIP3    H1 4857   3.005   0.642   0.552  1.4844 -0.0582 -1.0775
 1617TIP3    H2 4858   2.964   0.496   0.551 -0.6209  0.4744  0.2761
 1618TIP3   OH2 4859   3.878   3.493   2.938  0.0674  0.5880  0.3236
 1618TIP3    H1 4860   3.898   3.466   2.848 -0.0697  1.8151 -0.0952
 1618TIP3    H2 4861   3.783   3.506   2.940 -0.0942 -0.5988  0.9900
 1619TIP3   OH2 4862   4.094   5.755   0.466 -0.2069  0.6144  0.0340
 1619TIP3    H1 4863   4.008   5.712   0.465 -0.9862  2.0143  1.4679
 1619TIP3    H2 4864   4.157   5.684   0.476 -1.3434 -0.2988  0.8911
 1620TIP3   OH2 4865   0.217   2.370   1.806 -0.1085 -0.5901 -0.1735
 1620TIP3    H1 4866   0.269   2.329   1.737  0.6936  0.3566 -0.1469
 1620TIP3    H2 4867   0.126   2.353   1.780  0.1920 -1.0744 -0.9500
 1621TIP3   OH2 4868   2.861   1.142   1.150  0.1219 -0.1045 -0.3421
 1621TIP3    H1 4869   2.814   1.179   1.075 -0.8043  0.7247  0.6255
 1621TIP3    H2 4870   2.928   1.208   1.171  1.1137 -0.8308 -1.0908
 1622TIP3   OH2 4871   3.118   1.325   0.234  0.4533  0.5057  0.2396
 1622TIP3    H1 4872   3.029   1.341   0.266  0.3002 -1.0078  0.6127
 1622TIP3    H2 4873   3.174   1.367   0.299  0.0352  3.0067 -0.8884
 1623TIP3   OH2 4874   4.321   1.472   1.667  0.1982  0.4174  0.0191
 1623TIP3    H1 4875   4.266   1.550   1.660  0.4204  0.7498  1.5801
 1623TIP3    H2 4876   4.408   1.506   1.686  0.9908 -0.1041 -2.3860
 1624TIP3   OH2 4877   1.819   4.109   2.106  0.4520  0.4217 -0.0578
 1624TIP3    H1 4878   1.752   4.132   2.171 -0.9533  1.3348 -1.7473
 1624TIP3    H2 4879   1.849   4.022   2.133 -3.2952 -1.2456 -0.6132
 1625TIP3   OH2 4880   5.521   4.496   3.419  0.1178 -0.3029 -0.6254
 1625TIP3    H1 4881   5.487   4.583   3.438 -0.0440  0.0044 -2.2009
 1625TIP3    H2 4882   5.614   4.502   3.440 -0.2326 -0.3413  1.0872
 1626TIP3   OH2 4883   4.920   5.823   0.159 -0.2325 -0.0228 -0.2303
 1626TIP3    H1 4884   4.986   5.778   0.106 -1.6499 -2.5410 -0.0436
 1626TIP3    H2 4885   4.963   5.839   0.243  0.5592 -0.3961 -0.5620
 1627TIP3   OH2 4886   1.595   4.466   1.580 -0.5478  0.2450 -0.2727
 1627TIP3    H1 4887   1.510   4.504   1.560 -1.1317 -0.6989  0.3737
 1627TIP3    H2 4888   1.610   4.489   1.672 -0.5706 -0.4503 -0.0929
 1628TIP3   OH2 4889   6.214   1.206   3.713  0.1471  0.3881 -0.5907
 1628TIP3    H1 4890   6.147   1.252   3.663  1.0832  2.0666 -0.4202
 1628TIP3    H2 4891   6.219   1.255   3.796  1.1161 -0.0823 -0.3539
 1629TIP3   OH2 4892   0.505   4.456   1.679 -0.1686 -0.3693 -0.0157
 1629TIP3    H1 4893   0.517   4.469   1.585 -3.2172  1.6772 -0.2756
 1629TIP3    H2 4894   0.421   4.410   1.685 -0.4718  0.3651  1.7031
 1630TIP3   OH2 4895   3.862   3.607   0.813 -0.1072 -0.0023 -0.2225
 1630TIP3    H1 4896   3.921   3.671   0.852 -0.0353  0.9590 -1.8237
 1630TIP3    H2 4897   3.920   3.546   0.767 -0.1601 -1.4060  1.4928
 1631TIP3   OH2 4898   5.014   3.638   2.969 -0.2759 -0.4775  0.5501
 1631TIP3    H1 4899   4.951   3.710   2.978  0.7313  0.6367 -0.8849
 1631TIP3    H2 4900   5.018   3.622   2.875  1.1860 -0.8720  0.6653
 1632TIP3   OH2 4901   5.929   5.298   1.810  0.0357 -0.3605  0.3020
 1632TIP3    H1 4902   5.834   5.288   1.817 -0.0917 -0.3848 -1.1922
 1632TIP3    H2 4903   5.960   5.301   1.901 -1.5254  0.9456  0.8393
 1633TIP3   OH2 4904   4.538   3.388   1.394 -0.0088 -0.3801  0.3773
 1633TIP3    H1 4905   4.537   3.293   1.382 -0.6969 -0.3965  0.5308
 1633TIP3    H2 4906   4.627   3.414   1.369 -0.5673 -0.7167 -2.1970
 1634TIP3   OH2 4907   1.496   2.448   0.588  0.7819  0.0721  0.1041
 1634TIP3    H1 4908   1.403   2.441   0.565  1.1498 -1.2968 -1.2202
 1634TIP3    H2 4909   1.500   2.420   0.679 -0.3553  2.4248  0.9475
 1635TIP3   OH2 4910   0.556   0.399   5.002 -0.0154 -0.5538  0.0292
 1635TIP3    H1 4911   0.556   0.348   4.921  1.2650 -0.5855  0.0216
 1635TIP3    H2 4912   0.478   0.453   4.996 -0.1435 -0.8280 -1.0583
 1636TIP3   OH2 4913   2.680   1.523   2.136  0.4950  0.0425  0.2814
 1636TIP3    H1 4914   2.746   1.480   2.081 -0.0488 -2.0517  1.1686
 1636TIP3    H2 4915   2.707   1.503   2.225 -0.3652  0.7302  0.7029
 1637TIP3   OH2 4916   4.022   5.727   1.077  0.0503  0.2218  0.1645
 1637TIP3    H1 4917   4.113   5.755   1.074  0.3970 -0.9365 -0.6176
 1637TIP3    H2 4918   3.983   5.761   0.997  0.4218 -1.3005 -0.6866
 1638TIP3   OH2 4919   3.098   3.815   1.837 -0.1015  0.8593 -0.0467
 1638TIP3    H1 4920   3.186   3.838   1.866  0.1338  0.2985 -0.2914
 1638TIP3    H2 4921   3.091   3.721   1.853 -0.7372  0.9394  0.1777
 1639TIP3   OH2 4922   0.383   3.372   3.663 -0.8152  0.0104  0.4045
 1639TIP3    H1 4923   0.423   3.442   3.612  0.8304 -1.3729 -0.2852
 1639TIP3    H2 4924   0.333   3.320   3.599  1.2590 -1.7328  0.0775
 1640TIP3   OH2 4925   1.669   2.461   1.447 -0.1733 -0.2488 -0.0872
 1640TIP3    H1 4926   1.691   2.368   1.453 -0.4678 -0.3147 -0.0332
 1640TIP3    H2 4927   1.736   2.497   1.390 -1.0517 -0.8269 -1.5511
 1641TIP3   OH2 4928   2.968   3.524   2.146 -0.3732 -0.1482 -0.1952
 1641TIP3    H1 4929   3.038   3.553   2.205  0.3109 -1.1790 -0.4750
 1641TIP3    H2 4930   2.908   3.476   2.203 -1.1485  1.1376  0.1372
 1642TIP3   OH2 4931   0.093   0.551   2.753  0.7170 -0.2366  0.3635
 1642TIP3    H1 4932   0.044   0.511   2.681  1.8073 -0.5651 -0.2185
 1642TIP3    H2 4933   0.029   0.604   2.800 -0.8201 -2.6248  1.1470
 1643TIP3   OH2 4934   5.126   2.686   0.333 -0.5273  0.2417 -0.6040
 1643TIP3    H1 4935   5.055   2.747   0.311  0.8254  1.1227 -2.9065
 1643TIP3    H2 4936   5.183   2.688   0.257  0.3980 -2.7917 -0.1104
 1644TIP3   OH2 4937   2.534   4.377   3.540  0.4151  0.2663  0.0708
 1644TIP3    H1 4938   2.444   4.345   3.550  0.6481 -0.4911 -0.1458
 1644TIP3    H2 4939   2.588   4.313   3.586  1.0071 -0.3774 -1.4343
 1645TIP3   OH2 4940   3.023   0.164   1.061 -0.5106 -0.5119 -0.1172
 1645TIP3    H1 4941   3.011   0.078   1.020 -0.1553 -0.8666  0.5195
 1645TIP3    H2 4942   3.090   0.206   1.007 -1.4435 -0.2021 -1.0808
 1646TIP3   OH2 4943   0.193   1.050   3.914 -0.5904 -0.5496  0.1433
 1646TIP3    H1 4944   0.182   1.131   3.964  0.3315 -0.0024 -0.5016
 1646TIP3    H2 4945   0.113   1.041   3.862  0.5913  1.8075 -2.3403
 1647TIP3   OH2 4946   0.066   0.352   1.348 -0.1856 -0.2433 -0.1952
 1647TIP3    H1 4947   0.080   0.288   1.277 -0.2689 -1.0441  0.5004
 1647TIP3    H2 4948   0.134   0.418   1.334 -0.1847 -0.4054 -1.0060
 1648TIP3   OH2 4949   4.725   5.425   4.692  0.0872 -0.4483  0.0738
 1648TIP3    H1 4950   4.651   5.412   4.751 -2.1494 -0.5755 -2.5807
 1648TIP3    H2 4951   4.746   5.518   4.701 -0.9199 -0.2317  0.2879
 1649TIP3   OH2 4952   4.913   2.014   3.012  0.1446  0.2619  0.3506
 1649TIP3    H1 4953   4.944   2.091   2.964  0.7724 -0.9063 -1.2026
 1649TIP3    H2 4954   4.828   1.995   2.973  1.0299 -1.2005 -0.9720
 1650TIP3   OH2 4955   6.004   4.496   0.156  0.0961  0.3860  0.2945
 1650TIP3    H1 4956   5.950   4.467   0.082  0.7065  1.7144 -0.7165
 1650TIP3    H2 4957   5.953   4.567   0.195  0.3701  0.5593  0.3369
 1651TIP3   OH2 4958   5.257   5.781   0.254  0.2989 -0.3054 -0.2918
 1651TIP3    H1 4959   5.270   5.826   0.171 -0.5308  0.5106  0.0086
 1651TIP3    H2 4960   5.179   5.821   0.291  0.1927 -1.2271  0.5096
 1652TIP3   OH2 4961   0.226   4.763   1.268 -0.2198 -0.2741 -0.3829
 1652TIP3    H1 4962   0.250   4.712   1.345  1.3305 -2.7158 -2.3379
 1652TIP3    H2 4963   0.278   4.843   1.275 -1.0474  0.1630  1.6577
 1653TIP3   OH2 4964   5.120   1.085   4.754  0.2002  0.2771  0.4347
 1653TIP3    H1 4965   5.049   1.148   4.763  0.9737  1.3089 -0.4169
 1653TIP3    H2 4966   5.186   1.131   4.702  0.5750 -1.4222 -0.6706
 1654TIP3   OH2 4967   2.182   3.314   4.661 -0.2687 -0.0848  0.4455
 1654TIP3    H1 4968   2.276   3.317   4.648 -0.5418 -0.1945 -2.1290
 1654TIP3    H2 4969   2.160   3.401   4.696  0.6350  0.4676 -0.3030
 1655TIP3   OH2 4970   0.065   3.579   3.512 -0.1636  0.4832  0.0434
 1655TIP3    H1 4971   0.043   3.615   3.597  0.6690  0.5774  0.2172
 1655TIP3    H2 4972   0.122   3.505   3.530  0.1022  0.5638 -0.4369
 1656TIP3   OH2 4973   5.836   4.179   1.227  0.4693 -0.4322 -0.2538
 1656TIP3    H1 4974   5.921   4.205   1.261  0.0094 -0.6808  1.1722
 1656TIP3    H2 4975   5.855   4.108   1.166  1.2115 -1.2252  0.8729
 1657TIP3   OH2 4976   4.497   4.873   2.689 -0.1910 -0.3590  0.2599
 1657TIP3    H1 4977   4.414   4.919   2.685 -0.4553 -0.8908 -0.4717
 1657TIP3    H2 4978   4.478   4.792   2.737  0.1423  0.0129  1.0309
 1658TIP3   OH2 4979   0.698   0.395   3.324  0.7080 -0.4781  0.3790
 1658TIP3    H1 4980   0.786   0.425   3.300 -0.1796  1.6201 -0.5275
 1658TIP3    H2 4981   0.640   0.439   3.261 -0.9934 -1.8972  0.8781
 1659TIP3   OH2 4982   0.111   5.244   1.021 -0.0347 -0.2460 -0.0739
 1659TIP3    H1 4983   0.179   5.304   1.051 -0.1120  0.3915 -1.1481
 1659TIP3    H2 4984   0.153   5.157   1.023 -0.0809 -0.2689  1.9789
 1660TIP3   OH2 4985   5.881   1.947   4.621 -0.4733 -0.2618  0.0813
 1660TIP3    H1 4986   5.831   1.879   4.577  0.9019 -0.4512 -1.3103
 1660TIP3    H2 4987   5.886   2.018   4.557  1.3683 -0.4410 -0.0478
 1661TIP3   OH2 4988   1.838   2.012   1.808 -0.4844 -0.8286  0.4831
 1661TIP3    H1 4989   1.924   2.013   1.850 -0.7325 -1.9426  1.0553
 1661TIP3    H2 4990   1.844   1.943   1.742 -1.5587 -2.3692  1.9316
 1662TIP3   OH2 4991   5.643   3.444   4.314  0.1438 -0.1767  0.0437
 1662TIP3    H1 4992   5.665   3.537   4.311  1.6648 -0.3188  2.7846
 1662TIP3    H2 4993   5.548   3.442   4.325  0.1288  1.0997  0.3663
 1663TIP3   OH2 4994   4.629   4.176   4.064 -0.1811 -0.5432  0.8286
 1663TIP3    H1 4995   4.582   4.095   4.042  1.2284 -1.3690  0.7681
 1663TIP3    H2 4996   4.699   4.181   3.999 -0.3935  0.8827  0.6736
 1664TIP3   OH2 4997   2.288   0.060   4.417 -0.6649  0.1968  0.4961
 1664TIP3    H1 4998   2.308  -0.031   4.396  0.6037  0.2370  1.4561
 1664TIP3    H2 4999   2.192   0.065   4.411 -0.6545 -0.8066 -1.0410
 1665TIP3   OH2 5000   4.667   4.599   1.380 -0.8768 -0.1973  0.5778
 1665TIP3    H1 5001   4.693   4.526   1.437  1.9847 -0.1791 -0.5177
 1665TIP3    H2 5002   4.698   4.677   1.426  1.8801 -0.2113 -1.0122
 1666TIP3   OH2 5003   2.337   0.102   1.436 -0.2138  0.2717 -0.4131
 1666TIP3    H1 5004   2.282   0.046   1.492 -0.3220  0.8277  0.0423
 1666TIP3    H2 5005   2.417   0.051   1.422 -0.3819 -0.0716 -0.1398
 1667TIP3   OH2 5006   0.782   1.426   0.189 -0.3605  0.1207 -0.1976
 1667TIP3    H1 5007   0.851   1.425   0.255 -0.4372  0.8855 -0.0964
 1667TIP3    H2 5008   0.700   1.428   0.239 -0.4536 -0.6264 -0.3164
 1668TIP3   OH2 5009   2.961   2.390   3.852 -0.1804  0.4177 -0.4237
 1668TIP3    H1 5010   3.018   2.362   3.781  0.5858 -0.6002  0.5611
 1668TIP3    H2 5011   2.989   2.339   3.927 -1.1592  1.2624  0.5561
 1669TIP3   OH2 5012   2.929   0.819   2.885  0.5260 -0.3128 -0.5533
 1669TIP3    H1 5013   2.901   0.909   2.868 -0.1849 -0.3464  0.2915
 1669TIP3    H2 5014   2.847   0.771   2.899  0.8831 -1.1540 -1.2523
 1670TIP3   OH2 5015   3.923   4.210   1.373 -0.3807 -0.4871  0.0670
 1670TIP3    H1 5016   3.960   4.282   1.322  1.4447 -0.9846  0.6108
 1670TIP3    H2 5017   3.947   4.230   1.463 -2.5181 -0.2485  0.6430
 1671TIP3   OH2 5018   0.177   1.834   4.797 -0.0316 -0.3176  0.6947
 1671TIP3    H1 5019   0.185   1.796   4.710 -1.7283 -0.6847  0.6645
 1671TIP3    H2 5020   0.175   1.929   4.782 -0.7262 -0.3926  0.2945
 1672TIP3   OH2 5021   4.239   5.277   3.423 -0.2174  0.5114  0.0185
 1672TIP3    H1 5022   4.199   5.363   3.435  3.8202  2.6792 -0.3097
 1672TIP3    H2 5023   4.223   5.256   3.331 -3.4501 -0.5359  0.6736
 1673TIP3   OH2 5024   4.159   0.480   0.913  0.2157 -0.0433  0.4149
 1673TIP3    H1 5025   4.071   0.455   0.940  0.2400 -0.1245  0.4188
 1673TIP3    H2 5026   4.153   0.574   0.897  0.3244  0.1037  1.1887
 1674TIP3   OH2 5027   0.853   4.215   1.721 -0.2592  0.0751  0.3591
 1674TIP3    H1 5028   0.781   4.153   1.707 -0.1557 -0.1409  0.7583
 1674TIP3    H2 5029   0.905   4.175   1.791 -0.2849  0.6962  0.7390
 1675TIP3   OH2 5030   1.993   4.308   3.451  0.2659 -0.3287 -0.3912
 1675TIP3    H1 5031   1.971   4.310   3.357  1.1889  0.0355 -0.6035
 1675TIP3    H2 5032   2.022   4.396   3.471 -2.1542  0.2667  0.8195
 1676TIP3   OH2 5033   3.946   1.769   0.415 -0.1217  0.2777  0.4680
 1676TIP3    H1 5034   3.888   1.734   0.482 -0.9329 -0.8557 -0.7614
 1676TIP3    H2 5035   3.991   1.692   0.380  0.8870  0.9453  0.2576
 1677TIP3   OH2 5036   1.768   2.262   3.520 -0.4841  0.7626 -0.0197
 1677TIP3    H1 5037   1.784   2.296   3.608  1.2689 -0.2611  0.0889
 1677TIP3    H2 5038   1.840   2.296   3.467 -0.5622 -0.0378 -0.6698
 1678TIP3   OH2 5039   4.613   3.355   3.259 -0.0119 -0.0927  0.6327
 1678TIP3    H1 5040   4.597   3.400   3.342  0.5667  1.5169 -0.0934
 1678TIP3    H2 5041   4.639   3.424   3.199  2.9956 -1.6180 -0.0122
 1679TIP3   OH2 5042   2.352   4.045   4.112  0.5167 -0.1133  0.2990
 1679TIP3    H1 5043   2.438   4.035   4.152  0.3302 -2.1770  0.2573
 1679TIP3    H2 5044   2.290   4.025   4.182  0.1655 -2.1150 -0.5241
 1680TIP3   OH2 5045   0.411   5.089   4.464 -0.0394  0.7719  0.0140
 1680TIP3    H1 5046   0.470   5.015   4.482  1.1021  1.4066 -0.9660
 1680TIP3    H2 5047   0.469   5.164   4.453 -1.0387  1.4519 -0.8786
 1681TIP3   OH2 5048   4.428   5.084   1.642  0.3939 -0.0354  0.0457
 1681TIP3    H1 5049   4.387   5.143   1.705  0.9203  0.3131  0.0740
 1681TIP3    H2 5050   4.518   5.076   1.673  0.7785  0.4785 -0.8874
 1682TIP3   OH2 5051   1.542   1.373   1.652 -0.2879 -0.1443  0.2453
 1682TIP3    H1 5052   1.570   1.304   1.710  0.1030 -0.6417 -0.5214
 1682TIP3    H2 5053   1.449   1.385   1.672 -0.3766 -0.9458  0.3276
 1683TIP3   OH2 5054   1.220   1.652   2.654  0.2086 -0.0933 -0.5674
 1683TIP3    H1 5055   1.275   1.677   2.579 -0.0786 -0.5074 -0.9271
 1683TIP3    H2 5056   1.200   1.734   2.698  0.1556  0.1859 -1.1034
 1684TIP3   OH2 5057   6.366   4.489   4.861  0.1089 -0.1577 -0.3711
 1684TIP3    H1 5058   6.344   4.556   4.796 -0.6816 -0.2940 -0.2521
 1684TIP3    H2 5059   6.298   4.423   4.850  0.6201 -0.7187 -0.1686
 1685TIP3   OH2 5060   5.954   2.874   1.446 -0.4884  0.3199  0.3967
 1685TIP3    H1 5061   6.021   2.942   1.451 -0.2286  0.1667 -0.6259
 1685TIP3    H2 5062   5.998   2.801   1.401 -0.4787 -0.9027  2.2667
 1686TIP3   OH2 5063   4.791   3.783   3.611  0.4185 -0.1166 -0.0506
 1686TIP3    H1 5064   4.697   3.800   3.607  0.2264 -0.7334  1.2291
 1686TIP3    H2 5065   4.832   3.865   3.582 -0.5030  0.7819  1.0910
 1687TIP3   OH2 5066   1.326   5.504   0.630 -0.0745 -0.1265 -0.0589
 1687TIP3    H1 5067   1.261   5.573   0.639  0.8366  0.8197 -0.5133
 1687TIP3    H2 5068   1.380   5.531   0.556  0.1692 -1.4470 -0.3933
 1688TIP3   OH2 5069   5.837   3.740   4.661 -0.4573  0.0293 -0.2885
 1688TIP3    H1 5070   5.818   3.816   4.606  1.5821  0.7640 -0.0785
 1688TIP3    H2 5071   5.931   3.727   4.652 -0.0876 -0.0414  2.7399
 1689TIP3   OH2 5072   1.146   4.023   0.131 -0.4909  0.0661 -0.2291
 1689TIP3    H1 5073   1.122   3.970   0.207  0.0878  0.3815  0.1775
 1689TIP3    H2 5074   1.174   3.959   0.066  0.2500 -0.1324  0.2756
 1690TIP3   OH2 5075   0.870   0.877   4.757  0.0640 -0.2783  0.1191
 1690TIP3    H1 5076   0.818   0.852   4.833  0.2074 -0.2552  0.2232
 1690TIP3    H2 5077   0.902   0.964   4.778 -2.2086  0.9648 -1.1216
 1691TIP3   OH2 5078   3.519   0.768   4.729 -0.7401  0.3395  0.5913
 1691TIP3    H1 5079   3.532   0.779   4.824 -0.7240  1.6472  0.4613
 1691TIP3    H2 5080   3.601   0.798   4.690 -0.2599 -1.3983  0.1892
 1692TIP3   OH2 5081   0.214   0.475   2.148  0.0588  0.3414  0.1498
 1692TIP3    H1 5082   0.308   0.458   2.143  0.1979  0.8735  0.7100
 1692TIP3    H2 5083   0.208   0.571   2.156 -0.4689  0.2476  1.0249
 1693TIP3   OH2 5084   5.827   5.771   4.159  0.2572 -0.1883 -0.4538
 1693TIP3    H1 5085   5.802   5.858   4.191  1.5809 -0.8625  2.8172
 1693TIP3    H2 5086   5.921   5.778   4.143  0.3364 -0.9728 -0.3465
 1694TIP3   OH2 5087   1.533   1.763   3.998 -0.0530  0.8182 -0.0736
 1694TIP3    H1 5088   1.594   1.765   3.924  1.2935  2.1970  1.0207
 1694TIP3    H2 5089   1.463   1.823   3.973  0.2699  1.0892 -0.3409
 1695TIP3   OH2 5090   5.606   1.629   0.866 -0.4013  0.0176  0.0938
 1695TIP3    H1 5091   5.628   1.677   0.946 -1.3126  1.0216 -0.2356
 1695TIP3    H2 5092   5.557   1.553   0.897 -0.3958  0.1807  0.5116
 1696TIP3   OH2 5093   4.968   2.600   3.057  0.0947  0.6702  0.2960
 1696TIP3    H1 5094   4.887   2.605   3.108 -1.0737 -1.0507 -1.2625
 1696TIP3    H2 5095   5.017   2.528   3.098 -0.1023  0.3718  0.0149
 1697TIP3   OH2 5096   5.845   2.116   0.246 -0.2260  0.4214 -0.8027
 1697TIP3    H1 5097   5.890   2.140   0.327  0.7919  1.4855 -1.6530
 1697TIP3    H2 5098   5.914   2.116   0.179 -0.9019 -1.1793 -1.5582
 1698TIP3   OH2 5099   5.140   1.825   0.448 -0.2807 -0.0868 -0.4027
 1698TIP3    H1 5100   5.234   1.820   0.428 -0.3105 -0.6378 -0.4014
 1698TIP3    H2 5101   5.108   1.896   0.391  0.4895  1.4445  0.9849
 1699TIP3   OH2 5102   0.069   1.061   2.672 -0.5906 -0.4818  0.2122
 1699TIP3    H1 5103  -0.016   1.098   2.650 -0.6402 -0.6960  0.0504
 1699TIP3    H2 5104   0.087   1.096   2.760 -0.7502 -0.2727  0.1634
 1700TIP3   OH2 5105   3.127   3.998   2.215 -0.0459  0.5475  0.0943
 1700TIP3    H1 5106   3.139   4.065   2.282  0.2669  1.5921 -0.9793
 1700TIP3    H2 5107   3.198   3.936   2.229  1.8550  2.3549 -1.1116
 1701TIP3   OH2 5108   4.180   5.273   1.399 -0.0401 -0.1546  0.3975
 1701TIP3    H1 5109   4.229   5.221   1.335  0.6932 -2.7544  2.8749
 1701TIP3    H2 5110   4.232   5.352   1.409  1.1523 -0.7926 -0.4194
 1702TIP3   OH2 5111   0.167   3.054   3.619 -0.3654 -0.1030 -0.3794
 1702TIP3    H1 5112   0.109   2.982   3.593 -0.7706  0.6648 -1.6677
 1702TIP3    H2 5113   0.247   3.039   3.568 -0.2380  0.0457 -0.2226
 1703TIP3   OH2 5114   2.168   3.813   1.140 -0.6970 -0.2608 -0.3612
 1703TIP3    H1 5115   2.085   3.851   1.168 -1.0361 -0.9528 -0.3995
 1703TIP3    H2 5116   2.203   3.875   1.075 -1.6637 -0.4429 -1.0718
 1704TIP3   OH2 5117   5.933   3.614   0.941  0.0201 -0.1800  0.3119
 1704TIP3    H1 5118   5.899   3.671   0.872  1.0370 -0.7185 -0.6598
 1704TIP3    H2 5119   6.023   3.644   0.955 -0.1175 -0.1882  1.2897
 1705TIP3   OH2 5120   5.060   5.453   3.584 -0.2439 -0.2031  0.1836
 1705TIP3    H1 5121   5.141   5.404   3.573  1.4615  2.3770  0.2245
 1705TIP3    H2 5122   5.074   5.504   3.664 -2.0507  0.0918  0.3586
 1706TIP3   OH2 5123   4.861   1.311   1.389 -0.2869  0.5643 -0.0162
 1706TIP3    H1 5124   4.897   1.238   1.338 -1.1290 -0.0455  0.2291
 1706TIP3    H2 5125   4.793   1.270   1.443  0.6494  1.1590  1.6902
 1707TIP3   OH2 5126   5.330   4.666   2.493 -0.2129 -0.2003 -0.3122
 1707TIP3    H1 5127   5.303   4.750   2.531 -0.7038  0.2206 -1.5342
 1707TIP3    H2 5128   5.247   4.622   2.472  0.0410 -0.2396 -1.2619
 1708TIP3   OH2 5129   6.105   1.000   0.084  0.2417  0.1560  0.0359
 1708TIP3    H1 5130   6.148   0.923   0.046  0.6266  0.3030  0.1742
 1708TIP3    H2 5131   6.115   0.989   0.178 -0.1125  0.1421  0.0757
 1709TIP3   OH2 5132   1.120   4.325   4.561 -0.5431  0.7097 -0.3950
 1709TIP3    H1 5133   1.165   4.260   4.507  0.3591  0.7522  0.2885
 1709TIP3    H2 5134   1.100   4.396   4.501 -0.2282  0.4292 -0.8398
 1710TIP3   OH2 5135   0.984   1.481   1.283 -0.2215 -0.4262 -0.0141
 1710TIP3    H1 5136   1.017   1.402   1.240 -0.6041 -0.6594  0.1139
 1710TIP3    H2 5137   0.960   1.452   1.371  1.6325  0.2797  0.7730
 1711TIP3   OH2 5138   4.254   5.524   2.708  0.0760  0.1993 -0.4389
 1711TIP3    H1 5139   4.192   5.451   2.712 -0.9099  0.9652 -1.2638
 1711TIP3    H2 5140   4.276   5.542   2.799  0.1029 -0.9262 -0.2080
 1712TIP3   OH2 5141   2.183   4.058   4.656  0.1628 -0.0367  0.3739
 1712TIP3    H1 5142   2.231   4.027   4.733  0.4598  0.3700  0.3519
 1712TIP3    H2 5143   2.208   4.150   4.647 -1.3129  0.4467  0.9034
 1713TIP3   OH2 5144   5.250   2.255   0.185  0.2553  0.1069 -0.0622
 1713TIP3    H1 5145   5.332   2.303   0.195  0.7529 -0.7692  0.1895
 1713TIP3    H2 5146   5.190   2.295   0.248  0.2348  1.2505 -0.7673
 1714TIP3   OH2 5147   5.463   2.729   2.570  0.5181  0.1504  0.1215
 1714TIP3    H1 5148   5.512   2.647   2.560 -0.5756 -0.4267 -0.7887
 1714TIP3    H2 5149   5.426   2.724   2.658  2.9856  1.1311  1.2801
 1715TIP3   OH2 5150   5.147   2.345   2.654  0.1007 -0.2847 -0.6306
 1715TIP3    H1 5151   5.181   2.310   2.572 -0.5713 -0.0125 -1.0331
 1715TIP3    H2 5152   5.129   2.437   2.636 -0.1813 -0.2551 -0.2174
 1716TIP3   OH2 5153   3.103   2.759   2.444  0.6476 -0.4187  0.2825
 1716TIP3    H1 5154   3.018   2.746   2.486  0.5655  1.0616  0.6058
 1716TIP3    H2 5155   3.100   2.703   2.366  0.0585 -1.7060  1.1926
 1717TIP3   OH2 5156   2.210   1.213   1.021 -0.1582 -0.0441  0.1359
 1717TIP3    H1 5157   2.162   1.140   1.060 -1.2349 -0.3423 -1.6523
 1717TIP3    H2 5158   2.164   1.291   1.052  0.8819 -0.0865  1.9012
 1718TIP3   OH2 5159   2.842   5.482   4.088  0.0866 -0.3844  0.2208
 1718TIP3    H1 5160   2.799   5.409   4.133 -0.3557  0.6566  1.5575
 1718TIP3    H2 5161   2.935   5.461   4.093 -0.0571 -1.0709  0.1890
 1719TIP3   OH2 5162   0.752   5.954   2.671  0.0633 -0.5563  0.0012
 1719TIP3    H1 5163   0.829   5.968   2.616 -0.9127  1.2994 -0.9886
 1719TIP3    H2 5164   0.680   5.991   2.620 -0.9841  0.6731  2.2477
 1720TIP3   OH2 5165   4.466   5.272   1.221  0.5122  0.3636  0.5307
 1720TIP3    H1 5166   4.396   5.244   1.162  1.2657 -1.5247  0.4570
 1720TIP3    H2 5167   4.545   5.230   1.187  1.8639  2.9126  0.2636
 1721TIP3   OH2 5168   0.888   3.511   0.144  0.4889 -0.2409  0.1265
 1721TIP3    H1 5169   0.868   3.599   0.112  0.0903 -0.5277 -0.4329
 1721TIP3    H2 5170   0.983   3.502   0.132  0.4916  0.0190 -0.0444
 1722TIP3   OH2 5171   2.862   3.528   0.298 -0.1698  0.1519 -0.4758
 1722TIP3    H1 5172   2.872   3.464   0.368  2.1169  1.1848  0.2365
 1722TIP3    H2 5173   2.776   3.566   0.313 -1.3467 -2.2720 -0.5761
 1723TIP3   OH2 5174   5.608   0.125   0.244  0.1241 -0.6862  0.3259
 1723TIP3    H1 5175   5.585   0.097   0.155  0.3920  0.6771 -0.2093
 1723TIP3    H2 5176   5.586   0.051   0.300 -1.4395 -1.0447 -0.6952
 1724TIP3   OH2 5177   0.477   4.843   4.539 -0.0573 -0.2558 -0.3682
 1724TIP3    H1 5178   0.502   4.752   4.552 -0.9877 -0.3640  0.7427
 1724TIP3    H2 5179   0.429   4.843   4.456  0.3475 -0.6821 -0.6103
 1725TIP3   OH2 5180   4.767   4.767   4.340  0.2311  0.0626  0.2967
 1725TIP3    H1 5181   4.785   4.859   4.361  1.7119 -0.1773  0.1968
 1725TIP3    H2 5182   4.690   4.770   4.284  1.1144  1.4031 -0.9243
 1726TIP3   OH2 5183   4.899   0.814   2.572  0.2235 -0.3901 -0.2746
 1726TIP3    H1 5184   4.904   0.873   2.497 -0.3484 -1.1358 -0.9067
 1726TIP3    H2 5185   4.986   0.821   2.613  0.2889  0.5890 -0.5615
 1727TIP3   OH2 5186   6.220   1.549   1.581  0.3850  0.3289 -0.6118
 1727TIP3    H1 5187   6.228   1.477   1.519  1.0770  1.7842 -2.2777
 1727TIP3    H2 5188   6.218   1.628   1.527 -1.6661  1.5431  1.0555
 1728TIP3   OH2 5189   1.159   3.270   2.346 -0.1773  0.8203  0.2231
 1728TIP3    H1 5190   1.169   3.321   2.425  0.0888  1.3902 -0.1727
 1728TIP3    H2 5191   1.236   3.214   2.342 -0.4822  0.3608  0.6705
 1729TIP3   OH2 5192   2.861   4.886   0.162  0.6743  0.1274 -0.3469
 1729TIP3    H1 5193   2.780   4.904   0.114 -0.7455 -1.5238  1.2575
 1729TIP3    H2 5194   2.917   4.841   0.099 -1.4642 -2.7528 -0.4096
 1730TIP3   OH2 5195   5.161   4.475   3.766 -0.1996 -0.4831  0.0239
 1730TIP3    H1 5196   5.071   4.495   3.738  0.2712  2.4462  0.3456
 1730TIP3    H2 5197   5.150   4.432   3.851 -1.3211  1.9017  1.1805
 1731TIP3   OH2 5198   4.606   2.039   4.548  0.5710 -0.1980 -0.0718
 1731TIP3    H1 5199   4.691   1.994   4.547 -1.4317 -4.7049  1.6634
 1731TIP3    H2 5200   4.590   2.056   4.641  0.3290  2.4690 -0.5419
 1732TIP3   OH2 5201   0.136   2.486   0.011  0.1059 -0.4516 -0.0182
 1732TIP3    H1 5202   0.125   2.564   0.065  0.7070 -0.3125 -0.0927
 1732TIP3    H2 5203   0.113   2.413   0.069  1.1660 -0.3354  0.5650
 1733TIP3   OH2 5204   4.881   5.250   4.971  0.2517  0.5154  0.0985
 1733TIP3    H1 5205   4.976   5.258   4.985  0.1646 -0.6117  1.5918
 1733TIP3    H2 5206   4.847   5.338   4.985  1.1099  1.0489 -0.9625
 1734TIP3   OH2 5207   1.220   5.368   4.975 -0.7714  0.5235 -0.0180
 1734TIP3    H1 5208   1.189   5.380   5.064 -0.8381 -0.1520  0.0567
 1734TIP3    H2 5209   1.175   5.289   4.944 -1.3488  1.1923 -0.9269
 1735TIP3   OH2 5210   0.019   3.158   1.027 -0.0716  0.2269  0.2229
 1735TIP3    H1 5211  -0.068   3.133   0.997 -0.4230  1.3573  0.2853
 1735TIP3    H2 5212   0.071   3.162   0.947  0.0239 -0.7499  0.2148
 1736TIP3   OH2 5213   1.995   5.611   2.044  0.1412 -0.3775  0.1148
 1736TIP3    H1 5214   1.945   5.685   2.009 -0.5589 -1.3733 -1.0382
 1736TIP3    H2 5215   2.086   5.642   2.043 -0.0890  0.3123 -0.7635
 1737TIP3   OH2 5216   1.612   0.529   0.298  0.0874 -0.0141 -0.5571
 1737TIP3    H1 5217   1.663   0.541   0.218 -1.2818 -0.5640 -1.5451
 1737TIP3    H2 5218   1.524   0.557   0.275 -0.5342 -0.9925  0.5074
 1738TIP3   OH2 5219   0.559   0.775   0.533  0.1943  0.2855 -0.1616
 1738TIP3    H1 5220   0.474   0.766   0.489 -0.4716  0.7806  0.9628
 1738TIP3    H2 5221   0.570   0.693   0.582 -0.9506  1.2165  1.8137
 1739TIP3   OH2 5222   1.746   0.061   4.101  0.0664  0.2053 -0.2341
 1739TIP3    H1 5223   1.757   0.150   4.135  1.1547  0.1633 -0.4619
 1739TIP3    H2 5224   1.763   0.068   4.007 -1.2761  0.0094 -0.5120
 1740TIP3   OH2 5225   2.527   1.296   4.842  0.4755 -0.2507 -0.1450
 1740TIP3    H1 5226   2.499   1.314   4.752  0.3722 -0.4961 -0.1633
 1740TIP3    H2 5227   2.500   1.373   4.891 -1.5674 -1.0659  0.1246
 1741TIP3   OH2 5228   3.476   4.328   2.715 -0.0309 -0.2081  0.7363
 1741TIP3    H1 5229   3.451   4.239   2.690 -0.2014 -0.0294  0.2652
 1741TIP3    H2 5230   3.494   4.322   2.809  1.6010 -1.1093  0.4000
 1742TIP3   OH2 5231   4.304   5.495   1.315 -0.4907  0.3188 -0.4756
 1742TIP3    H1 5232   4.355   5.565   1.355 -1.2335  2.8747 -3.6000
 1742TIP3    H2 5233   4.367   5.424   1.302  1.1873  1.7034 -0.2860
 1743TIP3   OH2 5234   0.282   2.981   0.804  0.0869 -0.0637 -0.4167
 1743TIP3    H1 5235   0.192   3.012   0.806  0.0856 -0.0852  1.1426
 1743TIP3    H2 5236   0.281   2.898   0.851  0.8296 -0.3284 -0.8426
 1744TIP3   OH2 5237   1.041   4.029   4.006  0.3020  0.6637  0.1683
 1744TIP3    H1 5238   0.966   4.047   3.950  0.1058  0.1562  0.2638
 1744TIP3    H2 5239   1.053   4.109   4.056  1.1987  1.5679 -1.3981
 1745TIP3   OH2 5240   0.335   4.318   3.156 -0.2653  0.0976 -0.2443
 1745TIP3    H1 5241   0.325   4.347   3.065 -0.3975  0.5414 -0.0902
 1745TIP3    H2 5242   0.289   4.384   3.207  1.1673  0.7389  0.2739
 1746TIP3   OH2 5243   1.025   2.866   1.153  0.0608 -0.0002  0.3237
 1746TIP3    H1 5244   1.086   2.793   1.159 -0.8501 -0.9323 -1.0902
 1746TIP3    H2 5245   0.938   2.825   1.151 -0.4789  1.1172 -0.2934
 1747TIP3   OH2 5246   3.527   4.720   3.036 -0.2251 -0.0672  0.1440
 1747TIP3    H1 5247   3.608   4.671   3.051  0.5037  0.0851 -2.6150
 1747TIP3    H2 5248   3.542   4.806   3.076  1.0454 -0.0148 -0.4028
 1748TIP3   OH2 5249   4.175   0.811   4.937  0.0562  0.5138 -0.4654
 1748TIP3    H1 5250   4.232   0.886   4.956 -1.3860  1.3316  0.8216
 1748TIP3    H2 5251   4.233   0.735   4.942  1.6031  1.4978 -1.9802
 1749TIP3   OH2 5252   5.887   5.314   4.847 -0.4858  0.8037  0.1699
 1749TIP3    H1 5253   5.925   5.269   4.923 -1.8181 -0.7005 -0.0044
 1749TIP3    H2 5254   5.862   5.400   4.880  1.1996  1.1020  0.7805
 1750TIP3   OH2 5255   4.326   0.379   1.585 -0.4090 -0.2153  0.6570
 1750TIP3    H1 5256   4.320   0.341   1.672  0.0720 -0.1912  0.7024
 1750TIP3    H2 5257   4.322   0.303   1.526 -0.6446 -0.2384  0.7010
 1751TIP3   OH2 5258   3.312   2.110   3.233  0.0687  0.1291 -0.0288
 1751TIP3    H1 5259   3.382   2.169   3.260  0.2207  0.4623 -1.1468
 1751TIP3    H2 5260   3.301   2.126   3.140 -2.2567  0.8898  0.3246
 1752TIP3   OH2 5261   5.110   5.263   1.597 -0.1339  0.7135  0.2365
 1752TIP3    H1 5262   5.176   5.242   1.663 -1.0363 -0.4308  0.8167
 1752TIP3    H2 5263   5.153   5.325   1.538  1.3386  0.2405  0.7820
 1753TIP3   OH2 5264   0.409   2.797   2.681  0.5028 -0.0584  0.3269
 1753TIP3    H1 5265   0.324   2.825   2.714 -0.3715  0.0199 -1.8331
 1753TIP3    H2 5266   0.389   2.721   2.626  1.5627  0.9824 -1.5929
 1754TIP3   OH2 5267   0.498   2.163   4.275 -0.4013  0.7771  0.4723
 1754TIP3    H1 5268   0.463   2.092   4.222  0.0734  1.4116 -0.7231
 1754TIP3    H2 5269   0.469   2.143   4.364 -1.4866 -0.1395 -0.0663
 1755TIP3   OH2 5270   4.880   2.808   2.563 -0.0662  0.1997  0.1641
 1755TIP3    H1 5271   4.943   2.851   2.505 -0.9512  1.5372  0.1728
 1755TIP3    H2 5272   4.871   2.866   2.638 -0.3905 -0.5885  0.7580
 1756TIP3   OH2 5273   3.445   3.196   2.447 -0.1275 -0.2615  0.0963
 1756TIP3    H1 5274   3.488   3.199   2.532 -0.8495  0.2541  0.4527
 1756TIP3    H2 5275   3.485   3.121   2.403 -0.2016 -0.9382  1.1433
 1757TIP3   OH2 5276   5.355   5.586   3.833  0.0194  0.0912 -0.1872
 1757TIP3    H1 5277   5.377   5.493   3.832  1.5859  0.4318 -2.2615
 1757TIP3    H2 5278   5.260   5.588   3.819  0.1055 -1.1786 -1.1132
 1758TIP3   OH2 5279   2.670   4.121   3.227 -0.2181  0.1259 -0.3094
 1758TIP3    H1 5280   2.744   4.169   3.264  0.2027 -0.2970 -0.5872
 1758TIP3    H2 5281   2.672   4.144   3.134 -0.0817 -0.3452 -0.4219
 1759TIP3   OH2 5282   4.538   0.471   4.676  0.6750 -0.2144 -0.1899
 1759TIP3    H1 5283   4.579   0.446   4.759  0.0905 -1.1714 -0.1723
 1759TIP3    H2 5284   4.464   0.411   4.667 -1.3060  2.0285  0.2207
 1760TIP3   OH2 5285   2.377   2.043   0.120  0.3376  0.3937  0.0344
 1760TIP3    H1 5286   2.433   2.084   0.055  0.1529  1.1209  0.3241
 1760TIP3    H2 5287   2.349   2.115   0.177  0.4113 -0.2102  0.8557
 1761TIP3   OH2 5288   3.112   0.796   0.065 -0.1567  0.2046 -0.0415
 1761TIP3    H1 5289   3.075   0.836  -0.014 -0.6526  0.6019  0.3818
 1761TIP3    H2 5290   3.036   0.778   0.120  0.1099 -0.8788 -0.0159
 1762TIP3   OH2 5291   4.323   4.774   3.352 -0.5365  0.3690  0.1234
 1762TIP3    H1 5292   4.399   4.820   3.387 -1.0565  0.4167  1.2308
 1762TIP3    H2 5293   4.355   4.685   3.335  0.0915  0.7307 -0.6461
 1763TIP3   OH2 5294   0.167   1.522   0.647 -0.4665 -0.2891 -0.0124
 1763TIP3    H1 5295   0.193   1.606   0.684 -1.9461  0.8025 -1.2945
 1763TIP3    H2 5296   0.074   1.516   0.666 -0.9883 -0.2861 -2.3211
 1764TIP3   OH2 5297   1.551   3.424   0.958 -0.1540 -0.8151  0.0671
 1764TIP3    H1 5298   1.472   3.383   0.995 -0.9920  1.0083  0.4264
 1764TIP3    H2 5299   1.618   3.412   1.025 -1.0317  0.4025  1.2284
 1765TIP3   OH2 5300   3.024   4.179   3.992 -0.4291  0.1787  0.3535
 1765TIP3    H1 5301   3.099   4.187   3.933 -1.5419 -1.5266 -1.3990
 1765TIP3    H2 5302   3.043   4.102   4.045 -1.2637 -0.7708 -0.6792
 1766TIP3   OH2 5303   6.096   1.228   4.834  0.6313 -0.4095  0.2316
 1766TIP3    H1 5304   6.098   1.324   4.830  1.5548 -0.4509 -0.9272
 1766TIP3    H2 5305   6.006   1.207   4.859  0.1291  0.7480 -0.4797
 1767TIP3   OH2 5306   5.971   3.056   1.956 -0.1209  0.1675 -0.0568
 1767TIP3    H1 5307   5.980   2.998   1.880  1.4604  0.3283 -0.0187
 1767TIP3    H2 5308   6.060   3.074   1.984 -0.6612  0.3809  1.6667
 1768TIP3   OH2 5309   3.416   4.619   2.195 -0.4620  0.4993  0.0314
 1768TIP3    H1 5310   3.320   4.612   2.197 -0.3637 -2.2036 -1.2333
 1768TIP3    H2 5311   3.436   4.685   2.262 -3.2672  2.3348 -0.7663
 1769TIP3   OH2 5312   4.025   3.497   2.513  0.5717  0.1194 -0.6692
 1769TIP3    H1 5313   3.966   3.534   2.446 -0.7855 -1.1099 -0.1983
 1769TIP3    H2 5314   4.079   3.435   2.465  1.9253  1.6498 -1.2093
 1770TIP3   OH2 5315   4.656   4.390   2.655 -0.2943  0.1719  0.0052
 1770TIP3    H1 5316   4.624   4.314   2.606 -1.1005  1.1789 -1.0849
 1770TIP3    H2 5317   4.699   4.352   2.731 -1.6838 -1.3534  0.0973
 1771TIP3   OH2 5318   1.724   2.211   1.556 -0.1398 -0.0588  0.1168
 1771TIP3    H1 5319   1.642   2.227   1.602  0.4249  1.7577  0.5887
 1771TIP3    H2 5320   1.791   2.214   1.625  0.2976 -2.0675 -0.1770
 1772TIP3   OH2 5321   6.262   4.927   1.699 -0.6384 -0.0387 -0.2525
 1772TIP3    H1 5322   6.315   4.958   1.625 -0.8535  0.7137 -0.1019
 1772TIP3    H2 5323   6.240   5.007   1.747 -0.6763 -0.5046  0.5073
 1773TIP3   OH2 5324   4.513   3.657   2.447 -0.5804 -0.3116  0.6205
 1773TIP3    H1 5325   4.454   3.610   2.388  1.1557 -0.2781 -1.2839
 1773TIP3    H2 5326   4.525   3.743   2.405  1.2025 -0.5258  0.5996
 1774TIP3   OH2 5327   1.969   0.884   3.872 -0.0704 -0.2249  0.0116
 1774TIP3    H1 5328   2.065   0.881   3.864  0.0956 -0.1131  1.6273
 1774TIP3    H2 5329   1.943   0.792   3.881 -0.0901 -0.2396 -0.1965
 1775TIP3   OH2 5330   3.004   0.904   4.811 -0.4481 -0.5509 -0.0020
 1775TIP3    H1 5331   3.003   0.942   4.899  2.8536 -3.9432  1.7870
 1775TIP3    H2 5332   3.071   0.954   4.764  0.2020 -0.8489  0.5913
 1776TIP3   OH2 5333   1.842   1.768   4.932  0.3269  0.5577  0.0244
 1776TIP3    H1 5334   1.889   1.773   5.015 -0.5495 -0.2164  0.5807
 1776TIP3    H2 5335   1.911   1.777   4.866  1.1593  0.2898  0.8225
 1777TIP3   OH2 5336   5.817   2.325   4.805  0.2253 -0.2799 -0.0508
 1777TIP3    H1 5337   5.763   2.402   4.792  1.2469  0.3917 -0.3797
 1777TIP3    H2 5338   5.758   2.251   4.787 -0.3995  0.4435 -1.0396
 1778TIP3   OH2 5339   5.236   5.356   2.212  0.1976 -0.1470  0.3319
 1778TIP3    H1 5340   5.231   5.276   2.264 -2.0308  0.1318  0.6463
 1778TIP3    H2 5341   5.185   5.336   2.133  1.7374  0.1556 -0.7902
 1779TIP3   OH2 5342   3.372   3.071   1.848 -0.1445 -0.1880 -0.5785
 1779TIP3    H1 5343   3.437   3.001   1.846 -1.5123 -1.4842 -2.3156
 1779TIP3    H2 5344   3.406   3.132   1.914  1.3130 -2.2450  0.7189
 1780TIP3   OH2 5345   5.364   4.089   2.440 -0.4570  0.6272  0.7368
 1780TIP3    H1 5346   5.425   4.015   2.435 -0.2871  0.4525  3.5403
 1780TIP3    H2 5347   5.290   4.063   2.386 -0.5251 -1.7847  1.8421
 1781TIP3   OH2 5348   1.049   2.298   0.009 -0.3057 -0.3653 -0.0837
 1781TIP3    H1 5349   1.075   2.385  -0.022  0.6800  0.1987  2.1190
 1781TIP3    H2 5350   0.972   2.315   0.064  0.2286 -0.7713  0.8151
 1782TIP3   OH2 5351   1.782   5.121  -0.027 -0.3522 -0.0255  0.1116
 1782TIP3    H1 5352   1.729   5.151   0.047  0.3907  0.1565  0.5802
 1782TIP3    H2 5353   1.864   5.092   0.012 -0.5884 -1.5768 -0.4639
 1783TIP3   OH2 5354   6.295   0.554   4.977 -0.0623 -0.5481 -0.0416
 1783TIP3    H1 5355   6.243   0.633   4.964  1.2070  1.0155  3.2776
 1783TIP3    H2 5356   6.238   0.495   5.026  0.2265 -0.0770  0.8857
 1784TIP3   OH2 5357   4.613   0.702   4.272 -0.1623  0.5495 -0.3122
 1784TIP3    H1 5358   4.553   0.676   4.342 -0.2046 -0.4615 -0.7032
 1784TIP3    H2 5359   4.692   0.650   4.288  0.2235  1.1158 -0.3923
 1785TIP3   OH2 5360   5.093   4.948   2.402 -0.1722  0.4114  0.0375
 1785TIP3    H1 5361   5.042   4.868   2.390 -0.7280  0.6376  0.8527
 1785TIP3    H2 5362   5.097   4.960   2.497  1.6002  0.2695  0.0168
 1786TIP3   OH2 5363   3.113   0.904   0.851  0.0713 -0.1282  0.4520
 1786TIP3    H1 5364   3.076   0.828   0.896  0.0207 -0.8626 -0.8125
 1786TIP3    H2 5365   3.038   0.956   0.824  0.1111  0.5112  1.5112
 1787TIP3   OH2 5366   2.863   1.028   4.405 -0.4145 -0.1985 -0.5053
 1787TIP3    H1 5367   2.860   0.944   4.451 -0.4084 -0.5845 -1.1984
 1787TIP3    H2 5368   2.873   1.093   4.475 -0.5153 -0.7629  0.0452
 1788TIP3   OH2 5369   4.504   0.078   2.648 -0.4937  0.6453  0.4219
 1788TIP3    H1 5370   4.472   0.119   2.728 -0.2553  1.8456 -0.0780
 1788TIP3    H2 5371   4.599   0.080   2.657 -0.4597  1.0145  0.0016
 1789TIP3   OH2 5372   5.400   0.316   0.296  0.6411 -0.1435 -0.2189
 1789TIP3    H1 5373   5.470   0.256   0.272 -1.3542 -2.0568 -1.7212
 1789TIP3    H2 5374   5.320   0.263   0.290 -1.0017  1.9911  1.0911
 1790TIP3   OH2 5375   0.911   0.226   3.773  0.6521 -0.4198  0.0786
 1790TIP3    H1 5376   0.882   0.310   3.807  0.7607 -0.3526  0.0047
 1790TIP3    H2 5377   1.006   0.234   3.768  0.6938 -0.6713  0.4059
 1791TIP3   OH2 5378   4.742   1.138   3.182 -0.3418  0.1585 -0.6855
 1791TIP3    H1 5379   4.686   1.190   3.124  0.7955  1.9217 -0.2680
 1791TIP3    H2 5380   4.767   1.198   3.252  0.2628 -1.2498  0.3622
 1792TIP3   OH2 5381   6.250   4.708   0.692  0.4647 -0.0081 -0.1367
 1792TIP3    H1 5382   6.271   4.634   0.748 -1.4891 -1.3086 -1.0156
 1792TIP3    H2 5383   6.207   4.669   0.616 -0.5394  2.0290 -0.6861
 1793TIP3   OH2 5384   5.409   3.409   1.823 -0.0782  0.8061 -0.0040
 1793TIP3    H1 5385   5.454   3.365   1.895 -1.1527 -3.0756 -1.4807
 1793TIP3    H2 5386   5.479   3.434   1.763  0.4825 -0.2367  0.1992
 1794TIP3   OH2 5387   3.974   0.592   2.060  1.0896  0.3786  0.0401
 1794TIP3    H1 5388   4.058   0.568   2.019  1.0907 -0.1657  0.3534
 1794TIP3    H2 5389   3.983   0.563   2.151  0.0262 -1.0396 -0.2650
 1795TIP3   OH2 5390   1.063   3.501   2.530 -0.4236 -0.2331 -0.1497
 1795TIP3    H1 5391   0.977   3.476   2.496 -0.7565  0.2928  0.2799
 1795TIP3    H2 5392   1.068   3.461   2.616 -1.0847  1.3500  0.6701
 1796TIP3   OH2 5393   6.012   4.671   4.635  0.3523 -0.0765 -0.2066
 1796TIP3    H1 5394   5.992   4.587   4.595 -1.4870  1.0910 -1.9169
 1796TIP3    H2 5395   6.103   4.688   4.611  0.1625 -0.7382 -1.4935
 1797TIP3   OH2 5396   5.034   1.518   4.666 -0.0564  0.2303 -1.0223
 1797TIP3    H1 5397   5.104   1.493   4.605 -0.5076 -0.6562 -1.1863
 1797TIP3    H2 5398   4.969   1.561   4.611  1.2145  2.9362 -0.5868
 1798TIP3   OH2 5399   4.314   2.499   5.107  0.4688 -0.1224 -0.5323
 1798TIP3    H1 5400   4.409   2.510   5.114  0.5061 -0.6537 -0.1746
 1798TIP3    H2 5401   4.302   2.407   5.084 -0.0085 -0.3922  0.7240
 1799TIP3   OH2 5402   2.879   1.547   1.329  0.7316 -0.0409  0.0837
 1799TIP3    H1 5403   2.917   1.629   1.297  1.9838 -1.0014 -1.0336
 1799TIP3    H2 5404   2.796   1.572   1.367  0.2473  1.5375 -1.8381
 1800TIP3   OH2 5405   1.366   5.557   2.887  0.7717  0.0242 -0.6719
 1800TIP3    H1 5406   1.292   5.575   2.946  0.9389 -1.5070  0.0498
 1800TIP3    H2 5407   1.443   5.584   2.937  0.7541  1.5173 -1.3826
 1801TIP3   OH2 5408   3.154   3.235   3.394  0.4155 -0.6366 -0.1735
 1801TIP3    H1 5409   3.155   3.149   3.353  0.9338 -0.4834 -0.4894
 1801TIP3    H2 5410   3.246   3.254   3.414  0.1645 -0.7502  1.1605
 1802TIP3   OH2 5411   2.215   5.200   2.859 -0.1677  0.0504  0.5881
 1802TIP3    H1 5412   2.282   5.137   2.886  0.4174 -0.4426 -1.7890
 1802TIP3    H2 5413   2.252   5.286   2.880  0.1879 -0.2829  1.3735
 1803TIP3   OH2 5414   3.249   3.908   4.476  0.4084 -0.3553 -0.0414
 1803TIP3    H1 5415   3.270   3.863   4.558  0.1967 -1.8989 -0.7931
 1803TIP3    H2 5416   3.164   3.949   4.493 -0.7083 -2.4982 -0.1395
 1804TIP3   OH2 5417   2.510   1.434   3.016  0.0677  0.6967  0.4218
 1804TIP3    H1 5418   2.505   1.403   2.926 -1.0432  1.0885  0.3351
 1804TIP3    H2 5419   2.568   1.510   3.012 -0.3276  0.9783 -0.0463
 1805TIP3   OH2 5420   5.569   4.572   1.257 -0.3322 -0.3691 -0.1573
 1805TIP3    H1 5421   5.628   4.500   1.283  0.8499  0.5459 -0.2302
 1805TIP3    H2 5422   5.599   4.647   1.308 -1.1622  0.2407 -0.5482
 1806TIP3   OH2 5423   6.154   1.842   2.653 -0.0566  0.8483  0.5271
 1806TIP3    H1 5424   6.170   1.896   2.730  1.0399  2.0799 -0.5240
 1806TIP3    H2 5425   6.191   1.756   2.675 -0.7598  0.8402  1.7622
 1807TIP3   OH2 5426   0.649   4.465   2.538 -0.5406 -0.5252 -0.3665
 1807TIP3    H1 5427   0.568   4.419   2.518 -1.1961  0.1543  0.6826
 1807TIP3    H2 5428   0.672   4.436   2.627  0.0529 -0.2577 -0.4261
 1808TIP3   OH2 5429   3.925   4.450   2.682  0.0804  0.2055  0.3672
 1808TIP3    H1 5430   3.888   4.362   2.684 -1.6807  0.8090 -1.6682
 1808TIP3    H2 5431   3.920   4.480   2.772  0.1902 -1.5518  1.0020
 1809TIP3   OH2 5432   1.638   4.999   0.401  0.3370  0.0376 -0.1518
 1809TIP3    H1 5433   1.589   4.937   0.457  2.2807 -2.9841 -1.5039
 1809TIP3    H2 5434   1.576   5.025   0.333 -0.9318  0.7354  1.2177
 1810TIP3   OH2 5435   5.219   0.943   4.352 -0.0321 -0.6779 -0.4819
 1810TIP3    H1 5436   5.292   0.915   4.407 -0.0159 -0.1137 -0.2126
 1810TIP3    H2 5437   5.143   0.898   4.388  0.3436 -2.1916 -1.4737
 1811TIP3   OH2 5438   6.126   5.787   4.200 -0.5376 -0.3933  0.2709
 1811TIP3    H1 5439   6.101   5.879   4.190 -0.0400 -0.2227  0.5590
 1811TIP3    H2 5440   6.118   5.771   4.294 -2.0334 -1.0615  0.0534
 1812TIP3   OH2 5441   0.160   5.260   4.974 -0.0933 -0.2006  0.3675
 1812TIP3    H1 5442   0.174   5.352   4.950 -1.9510  0.0707  0.1195
 1812TIP3    H2 5443   0.228   5.212   4.926 -0.2229  0.8843 -0.9797
 1813TIP3   OH2 5444   3.345   5.130   3.995 -0.0108  0.6719 -0.3232
 1813TIP3    H1 5445   3.400   5.195   3.952 -0.1886  1.7646  1.0223
 1813TIP3    H2 5446   3.357   5.147   4.088 -1.4535 -0.0597  0.0186
 1814TIP3   OH2 5447   6.270   1.668   4.194 -0.2993 -0.2125 -0.4713
 1814TIP3    H1 5448   6.259   1.763   4.193 -1.0648 -0.2703 -2.3231
 1814TIP3    H2 5449   6.359   1.654   4.161  0.1615 -0.1299  0.7057
 1815TIP3   OH2 5450   6.319   2.602   1.498  0.8270  0.0901  0.0734
 1815TIP3    H1 5451   6.359   2.515   1.501 -0.0618 -0.3093  0.7809
 1815TIP3    H2 5452   6.245   2.597   1.559 -0.5426  0.6833 -1.4609
 1816TIP3   OH2 5453   4.074   3.036   0.141 -0.1044  0.2405  0.0185
 1816TIP3    H1 5454   4.148   3.021   0.200  0.4056 -1.0230 -0.9100
 1816TIP3    H2 5455   4.022   3.103   0.185  1.4247  0.9432  0.8341
 1817TIP3   OH2 5456   2.333   3.287   1.129 -0.1572  0.1127  0.2350
 1817TIP3    H1 5457   2.339   3.196   1.159  0.2994 -0.1090 -0.4948
 1817TIP3    H2 5458   2.405   3.295   1.066 -1.5858  0.3076 -1.4131
 1818TIP3   OH2 5459   3.792   2.700   2.118  0.3386  0.6065  0.1210
 1818TIP3    H1 5460   3.782   2.604   2.118 -1.0595  0.7325  0.6675
 1818TIP3    H2 5461   3.870   2.715   2.066 -0.0850 -0.7733 -0.9823
 1819TIP3   OH2 5462   3.130   2.493   1.449  0.1578 -0.4020  0.1109
 1819TIP3    H1 5463   3.222   2.480   1.430  0.2336 -0.9180  0.7988
 1819TIP3    H2 5464   3.084   2.443   1.382  0.4070 -1.5783  0.7997
 1820TIP3   OH2 5465   3.043   3.317   4.934  0.4680  0.1105  0.2448
 1820TIP3    H1 5466   3.066   3.333   4.843 -1.7234  1.5953 -0.1258
 1820TIP3    H2 5467   3.099   3.377   4.984  0.0459  0.9974 -0.3251
 1821TIP3   OH2 5468   3.377   5.382   0.724  0.2151  0.1228 -0.4475
 1821TIP3    H1 5469   3.344   5.417   0.641 -1.8567  0.2745  0.3845
 1821TIP3    H2 5470   3.308   5.325   0.755  0.1121  1.4671  2.0650
 1822TIP3   OH2 5471   4.268   2.418   4.199  0.0341  0.3358 -0.3459
 1822TIP3    H1 5472   4.230   2.465   4.124  0.3220  0.1912 -0.5852
 1822TIP3    H2 5473   4.334   2.360   4.160 -0.8988 -0.8946 -0.1581
 1823TIP3   OH2 5474   0.116   0.786   1.708 -0.3841 -0.4156  0.1458
 1823TIP3    H1 5475   0.058   0.724   1.751 -0.7231 -2.3374 -2.8303
 1823TIP3    H2 5476   0.161   0.735   1.641  1.2790  2.0298 -0.7488
 1824TIP3   OH2 5477   5.264   2.614   1.203 -0.1537  0.1136 -0.2132
 1824TIP3    H1 5478   5.197   2.664   1.156  0.9451 -1.3883 -3.6503
 1824TIP3    H2 5479   5.246   2.523   1.181  1.4538 -0.5467  1.0101
 1825TIP3   OH2 5480   4.118   3.256   4.561 -0.1685 -0.0240 -0.3822
 1825TIP3    H1 5481   4.209   3.230   4.573 -0.6743 -1.4212  0.6812
 1825TIP3    H2 5482   4.092   3.292   4.646  0.0807  2.8213 -1.3888
 1826TIP3   OH2 5483   2.031   3.245   5.157 -0.0486  0.3582  0.0905
 1826TIP3    H1 5484   2.085   3.312   5.199 -1.0880  0.9477  0.5331
 1826TIP3    H2 5485   1.996   3.288   5.079 -2.5711  1.1595  1.5783
 1827TIP3   OH2 5486   5.912   1.870   5.133 -0.3106  0.3122  0.5125
 1827TIP3    H1 5487   5.949   1.959   5.132 -2.9437  1.4954  0.5405
 1827TIP3    H2 5488   5.954   1.827   5.207  0.8565  1.6066  0.6399
 1828TIP3   OH2 5489   3.245   1.370   0.012  0.2207 -0.0678 -0.3312
 1828TIP3    H1 5490   3.169   1.407  -0.032  0.2138  2.1209  1.3428
 1828TIP3    H2 5491   3.215   1.354   0.102  1.9432  1.8976  0.6864
 1829TIP3   OH2 5492   0.314   0.681   0.344 -0.1016 -0.4514 -0.0924
 1829TIP3    H1 5493   0.282   0.614   0.405 -1.3337 -0.3785 -0.6193
 1829TIP3    H2 5494   0.243   0.745   0.341 -0.2140 -0.6208 -1.8382
 1830TIP3   OH2 5495   2.039   0.250   0.707 -0.4431  0.1150 -0.2952
 1830TIP3    H1 5496   2.003   0.220   0.624  0.9198  0.6941 -1.1394
 1830TIP3    H2 5497   2.082   0.172   0.743 -0.7323 -0.0518 -0.3099
 1831TIP3   OH2 5498   1.336   1.622   0.981  0.4289 -0.3206 -0.6921
 1831TIP3    H1 5499   1.245   1.621   1.010  0.1931 -0.7528 -1.4283
 1831TIP3    H2 5500   1.368   1.533   0.997  0.6963 -0.2004 -0.5377
 1832TIP3   OH2 5501   0.963   5.163   3.449  0.4019 -0.4971 -0.9049
 1832TIP3    H1 5502   0.977   5.205   3.364  1.5581 -0.8530 -0.9090
 1832TIP3    H2 5503   0.997   5.074   3.437 -2.5383 -1.7058 -1.0956
 1833TIP3   OH2 5504   4.263   3.455   4.768  0.0955 -0.1014  0.0975
 1833TIP3    H1 5505   4.357   3.442   4.784 -0.0249 -1.6720 -0.3694
 1833TIP3    H2 5506   4.220   3.393   4.827 -0.6725  0.7273  0.4298
 1834TIP3   OH2 5507   0.316   0.425   3.343 -1.0517 -0.3598  0.2880
 1834TIP3    H1 5508   0.283   0.486   3.409  3.0539 -0.6701  3.0161
 1834TIP3    H2 5509   0.327   0.342   3.390  1.7315 -0.6961 -0.7554
 1835TIP3   OH2 5510   4.834   2.658   4.483 -0.4056 -0.2159  0.7370
 1835TIP3    H1 5511   4.804   2.637   4.394 -0.5394 -0.0480  0.7411
 1835TIP3    H2 5512   4.827   2.753   4.488 -0.0438 -0.1936  0.8018
 1836TIP3   OH2 5513   4.201   0.964   0.316 -0.1017  0.4839 -0.5166
 1836TIP3    H1 5514   4.164   0.966   0.227 -0.6365  2.3017 -0.2868
 1836TIP3    H2 5515   4.289   0.927   0.304 -0.5338 -0.2471 -1.6410
 1837TIP3   OH2 5516   4.754   2.766   1.915 -0.2566 -0.5521  0.1220
 1837TIP3    H1 5517   4.788   2.792   1.829  0.2237  1.1779  0.7843
 1837TIP3    H2 5518   4.832   2.748   1.967 -0.3853  1.2241  0.9988
 1838TIP3   OH2 5519   3.598   4.305   4.459 -0.6259  0.3735 -0.4241
 1838TIP3    H1 5520   3.628   4.354   4.382 -1.7305  1.5130 -0.1668
 1838TIP3    H2 5521   3.503   4.297   4.446 -0.9779  1.3657  1.2126
 1839TIP3   OH2 5522   4.797   1.314   3.594 -0.4024  0.6884 -0.1531
 1839TIP3    H1 5523   4.799   1.352   3.506  1.7317  1.3988  0.1291
 1839TIP3    H2 5524   4.712   1.270   3.600 -1.0089  1.4747 -2.1925
 1840TIP3   OH2 5525   3.047   0.329   2.573  0.2447 -0.4551  0.7729
 1840TIP3    H1 5526   2.958   0.297   2.565 -0.1561  0.5035  1.2051
 1840TIP3    H2 5527   3.045   0.388   2.649  0.7842  1.0774 -0.3461
 1841TIP3   OH2 5528   4.483   1.886   5.058  0.3363 -0.2880 -0.2696
 1841TIP3    H1 5529   4.528   1.822   5.002 -0.2351 -0.6737 -0.2907
 1841TIP3    H2 5530   4.460   1.958   4.999  2.1205  0.5571 -0.0093
 1842TIP3   OH2 5531   6.036   2.235   4.242 -0.4681 -0.3834  0.1950
 1842TIP3    H1 5532   6.008   2.144   4.238 -1.4724 -0.1233  0.7769
 1842TIP3    H2 5533   6.097   2.245   4.170  0.4132 -1.7586  0.7185
 1843TIP3   OH2 5534   3.980   5.680   1.342 -0.5070 -0.7211 -0.3083
 1843TIP3    H1 5535   3.888   5.656   1.345 -1.3529  2.3077  0.3197
 1843TIP3    H2 5536   3.988   5.735   1.264  0.4605  0.1006  0.3415
 1844TIP3   OH2 5537   0.893   5.715   2.176 -0.0200  0.4313 -0.1892
 1844TIP3    H1 5538   0.910   5.630   2.217 -1.7493 -0.1064 -0.5325
 1844TIP3    H2 5539   0.821   5.752   2.226 -0.0166  1.2038 -0.7469
 1845TIP3   OH2 5540   2.094   5.028   4.511 -0.2933 -0.1333  0.5454
 1845TIP3    H1 5541   2.089   5.123   4.519  0.4227 -0.1036  0.6877
 1845TIP3    H2 5542   2.148   5.001   4.585  2.7642 -0.2783 -1.5591
 1846TIP3   OH2 5543   3.189   3.949   3.873  0.2859 -0.4299  0.4409
 1846TIP3    H1 5544   3.210   3.863   3.838 -0.4823 -1.0898  1.5098
 1846TIP3    H2 5545   3.171   3.933   3.966  2.1013  1.2031  1.1379
 1847TIP3   OH2 5546   0.759   2.552   4.267  0.2024  0.6969 -0.0833
 1847TIP3    H1 5547   0.749   2.536   4.361  1.0248  0.1759 -0.0802
 1847TIP3    H2 5548   0.756   2.647   4.258 -0.3016  0.7345  0.4145
 1848TIP3   OH2 5549   4.893   2.939   3.722  0.8759 -0.4695  0.6372
 1848TIP3    H1 5550   4.832   2.991   3.774 -1.2707 -2.4576  0.2760
 1848TIP3    H2 5551   4.922   2.998   3.653  0.5697  0.9869  1.7119
 1849TIP3   OH2 5552   0.497   0.452   2.184 -0.6611 -0.0425  0.0697
 1849TIP3    H1 5553   0.518   0.461   2.277 -1.4898 -0.5537  0.3158
 1849TIP3    H2 5554   0.576   0.483   2.139  0.7365 -2.0769  0.9439
 1850TIP3   OH2 5555   1.735   4.749   0.529  0.9305  0.3555 -0.0948
 1850TIP3    H1 5556   1.674   4.678   0.508  1.0588  0.4718 -0.8965
 1850TIP3    H2 5557   1.705   4.782   0.614 -0.7312  1.0597 -0.9051
 1851TIP3   OH2 5558   4.207   4.441   1.659 -0.7290 -0.6290  0.6035
 1851TIP3    H1 5559   4.281   4.414   1.604 -1.0945  0.6251 -0.5646
 1851TIP3    H2 5560   4.206   4.377   1.730  0.0051 -2.0940 -0.6335
 1852TIP3   OH2 5561   4.698   5.656   4.237 -0.2283 -0.6361 -0.2723
 1852TIP3    H1 5562   4.678   5.690   4.150  1.4956 -0.6822 -0.7257
 1852TIP3    H2 5563   4.775   5.704   4.265  0.1501 -1.6874  0.5855
 1853TIP3   OH2 5564   4.466   4.530   3.332 -0.1407 -0.2317 -0.2390
 1853TIP3    H1 5565   4.487   4.471   3.404  0.2810  0.0492 -0.1245
 1853TIP3    H2 5566   4.394   4.488   3.286 -0.4225 -0.4071  0.3554
 1854TIP3   OH2 5567   0.655   3.342   1.411  0.5779 -0.3974  0.0124
 1854TIP3    H1 5568   0.630   3.286   1.338 -1.4133 -0.3899  0.6309
 1854TIP3    H2 5569   0.647   3.286   1.489 -1.8807  0.7509  0.6935
 1855TIP3   OH2 5570   6.116   0.705   2.595 -0.1748  0.0118 -0.1378
 1855TIP3    H1 5571   6.131   0.763   2.669  2.3612  1.4658 -1.6269
 1855TIP3    H2 5572   6.037   0.738   2.553  0.6557  1.8388 -0.3644
 1856TIP3   OH2 5573   2.365   2.345   2.075 -0.1101 -0.1961 -0.2257
 1856TIP3    H1 5574   2.450   2.389   2.074 -0.0792 -0.2374 -1.9384
 1856TIP3    H2 5575   2.320   2.378   1.998 -1.4271 -0.6290  0.3331
 1857TIP3   OH2 5576   1.421   5.029   0.218  0.2095  0.6024  0.4250
 1857TIP3    H1 5577   1.381   4.957   0.169  1.5351 -0.4772  0.8584
 1857TIP3    H2 5578   1.372   5.106   0.191  0.2004 -0.1096 -1.7838
 1858TIP3   OH2 5579   1.014   2.018   4.397 -0.3466  0.5732  0.1164
 1858TIP3    H1 5580   0.953   2.008   4.470 -0.9995  0.3469 -0.4496
 1858TIP3    H2 5581   0.960   2.004   4.319  0.3586  0.7310 -0.4050
 1859TIP3   OH2 5582   5.988   0.635   2.908  0.1344  0.1063 -0.4015
 1859TIP3    H1 5583   6.007   0.729   2.909  0.4020  0.0617 -0.9537
 1859TIP3    H2 5584   6.067   0.594   2.943 -0.1184  0.1042  0.1788
 1860TIP3   OH2 5585   2.850   3.767   0.665  0.0442 -0.2837 -0.0241
 1860TIP3    H1 5586   2.901   3.847   0.656  1.1206 -1.0033 -0.5358
 1860TIP3    H2 5587   2.765   3.796   0.699  1.2161  0.8089  2.1615
 1861TIP3   OH2 5588   3.003   5.108   0.210 -0.0632 -0.3356 -0.3646
 1861TIP3    H1 5589   3.070   5.076   0.270  0.9387  1.0713 -0.7039
 1861TIP3    H2 5590   2.940   5.036   0.205  0.6685 -1.1214  1.0785
 1862TIP3   OH2 5591   5.150   5.781   2.966  0.3610  0.5332  0.4790
 1862TIP3    H1 5592   5.228   5.783   2.910  0.0581  0.8610  0.0670
 1862TIP3    H2 5593   5.180   5.817   3.049  0.5526  1.0453  0.1919
 1863TIP3   OH2 5594   0.757   0.558   4.833  0.3347  0.0837 -0.2672
 1863TIP3    H1 5595   0.730   0.601   4.752  0.0256 -0.1513 -0.2916
 1863TIP3    H2 5596   0.692   0.489   4.846 -0.3535  0.9151  0.8486
 1864TIP3   OH2 5597   6.174   5.063   2.087 -0.1003 -0.1991 -0.0835
 1864TIP3    H1 5598   6.127   5.147   2.086 -0.2674 -0.2798  0.5616
 1864TIP3    H2 5599   6.248   5.077   2.028  0.0580  0.5092  0.2659
 1865TIP3   OH2 5600   3.284   5.912   3.436 -1.1102  0.1294 -0.1341
 1865TIP3    H1 5601   3.288   5.838   3.496  0.8487  0.3451  0.0701
 1865TIP3    H2 5602   3.296   5.989   3.491  0.5341  0.3411 -0.7213
 1866TIP3   OH2 5603   0.735   1.442   2.516 -0.0895 -0.0216 -0.1663
 1866TIP3    H1 5604   0.702   1.352   2.523  0.7553 -0.3019  0.4331
 1866TIP3    H2 5605   0.782   1.456   2.598  1.1476  0.3919 -0.9291
 1867TIP3   OH2 5606   4.904   4.300   1.970  0.0030 -0.0886  0.1154
 1867TIP3    H1 5607   4.895   4.394   1.954  1.0477  0.1551  0.8156
 1867TIP3    H2 5608   4.998   4.287   1.983 -0.0757 -1.3127 -0.4013
 1868TIP3   OH2 5609   1.268   5.045   0.590  0.0503 -0.4072 -0.2953
 1868TIP3    H1 5610   1.326   5.112   0.554  0.5006 -0.4349  0.3601
 1868TIP3    H2 5611   1.325   4.971   0.609  0.2680  0.3112  2.3694
 1869TIP3   OH2 5612   5.386   5.130   2.545  0.7174 -1.0647 -0.3557
 1869TIP3    H1 5613   5.412   5.038   2.547  1.5848 -0.8128  0.4299
 1869TIP3    H2 5614   5.442   5.173   2.610 -1.3688 -0.3979  1.0868
 1870TIP3   OH2 5615   3.482   5.310   2.037  0.8077  0.2684 -0.6161
 1870TIP3    H1 5616   3.453   5.338   2.124 -0.5586 -1.5345 -0.4419
 1870TIP3    H2 5617   3.402   5.303   1.986  1.3374 -1.0537 -1.3000
 1871TIP3   OH2 5618   4.534   5.557   4.432 -0.1197  0.6043  0.3387
 1871TIP3    H1 5619   4.602   5.561   4.366  0.0716  0.2600  0.5108
 1871TIP3    H2 5620   4.507   5.465   4.433 -0.1186  0.6070  0.7410
 1872TIP3   OH2 5621   5.839   1.287   4.376  0.0674  0.0756 -0.9964
 1872TIP3    H1 5622   5.878   1.351   4.434  1.6688 -0.5255 -1.3486
 1872TIP3    H2 5623   5.755   1.325   4.351 -0.3338  0.6808  1.0800
 1873TIP3   OH2 5624   6.051   2.825   4.808  0.3072 -0.3358 -0.1816
 1873TIP3    H1 5625   6.122   2.761   4.800  0.0460 -0.6724  0.1573
 1873TIP3    H2 5626   6.004   2.799   4.887  0.2892  0.3700  0.0463
 1874TIP3   OH2 5627   3.033   3.110   1.361 -0.6295 -0.0015 -0.0033
 1874TIP3    H1 5628   3.057   3.156   1.281 -1.0569  1.2911  0.5871
 1874TIP3    H2 5629   3.054   3.171   1.431  0.9745 -1.6180  1.0053
 1875TIP3   OH2 5630   4.133   5.334   2.447  0.0099  0.5501  0.6535
 1875TIP3    H1 5631   4.083   5.322   2.527  0.8005 -1.4100  0.9278
 1875TIP3    H2 5632   4.225   5.326   2.475  0.3737  1.4258 -0.2263
 1876TIP3   OH2 5633   2.614   2.753   3.134  0.2582  0.1729 -0.0175
 1876TIP3    H1 5634   2.544   2.776   3.073  1.2108 -0.6321 -1.4785
 1876TIP3    H2 5635   2.693   2.750   3.080  1.2664  0.0775  1.3959
 1877TIP3   OH2 5636   5.466   5.655   2.429  0.0013 -0.3141  0.4311
 1877TIP3    H1 5637   5.466   5.626   2.521  0.7931 -1.8194 -0.0226
 1877TIP3    H2 5638   5.378   5.633   2.398  0.2824 -1.3872  0.3646
 1878TIP3   OH2 5639   1.564   1.045   4.274 -0.3615 -0.2663  0.0959
 1878TIP3    H1 5640   1.552   1.139   4.264 -0.6777 -0.0162  2.2456
 1878TIP3    H2 5641   1.659   1.032   4.269 -0.3694  0.0445 -0.9529
 1879TIP3   OH2 5642   0.203   3.744   2.552 -0.3020  0.0185 -0.9892
 1879TIP3    H1 5643   0.139   3.677   2.528  0.4530 -1.1377  0.0399
 1879TIP3    H2 5644   0.288   3.699   2.548  0.2723  1.0295 -0.6537
 1880TIP3   OH2 5645   6.249   1.478   2.104 -0.4302 -0.1363  0.2104
 1880TIP3    H1 5646   6.268   1.562   2.062  0.2126 -1.6090 -2.7284
 1880TIP3    H2 5647   6.268   1.493   2.197 -0.0627  2.8458 -0.2398
 1881TIP3   OH2 5648   1.349   5.465   2.296 -0.1245 -0.2587 -0.0529
 1881TIP3    H1 5649   1.293   5.534   2.330  0.4097  0.1222  0.0688
 1881TIP3    H2 5650   1.300   5.384   2.311 -1.7161  0.2360 -2.1381
 1882TIP3   OH2 5651   0.912   2.304   4.258 -0.8427 -0.0679 -0.0398
 1882TIP3    H1 5652   0.882   2.376   4.313 -0.6685 -0.2144  0.2501
 1882TIP3    H2 5653   1.007   2.310   4.260 -0.8393  0.1937 -0.6861
 1883TIP3   OH2 5654   5.477   2.817   0.869  0.2846 -0.3693 -0.2064
 1883TIP3    H1 5655   5.528   2.899   0.867 -0.2196 -0.0646 -1.6029
 1883TIP3    H2 5656   5.399   2.839   0.921  1.1080 -0.5828  1.1800
 1884TIP3   OH2 5657   4.397   5.352   2.552 -0.6162 -0.7140 -0.2263
 1884TIP3    H1 5658   4.492   5.363   2.553 -0.6948  0.0503 -0.1093
 1884TIP3    H2 5659   4.364   5.417   2.615 -1.1451 -1.8583  0.7116
 1885TIP3   OH2 5660   1.268   0.196   1.795 -0.2005  0.0800  0.0852
 1885TIP3    H1 5661   1.346   0.250   1.779 -0.7089  0.3377 -1.7729
 1885TIP3    H2 5662   1.299   0.106   1.787  0.3453  0.1018  1.6707
 1886TIP3   OH2 5663   2.506   3.863   4.718 -0.3885  0.3961 -0.4192
 1886TIP3    H1 5664   2.488   3.808   4.642  0.4493  0.3952 -0.6380
 1886TIP3    H2 5665   2.420   3.886   4.753 -0.8105  0.8707 -1.7108
 1887TIP3   OH2 5666   0.475   0.207   0.383  0.1632  0.3389  0.2857
 1887TIP3    H1 5667   0.529   0.199   0.462  0.1633 -1.9650  0.1281
 1887TIP3    H2 5668   0.413   0.277   0.403  0.8804  0.5624  1.8826
 1888TIP3   OH2 5669   0.115   3.336   1.373  0.0976 -0.0757  0.4094
 1888TIP3    H1 5670   0.121   3.245   1.342 -0.1370 -0.2351  0.8211
 1888TIP3    H2 5671   0.026   3.342   1.409  0.1025  0.3275  0.3491
 1889TIP3   OH2 5672   4.877   4.290   4.887 -0.0005  1.0195  0.7262
 1889TIP3    H1 5673   4.967   4.321   4.881  0.9024 -1.5535 -0.3916
 1889TIP3    H2 5674   4.876   4.233   4.964 -0.4565  0.3720  0.2492
 1890TIP3   OH2 5675   3.820   5.591   1.967  0.3169  0.0801 -0.2318
 1890TIP3    H1 5676   3.861   5.554   2.045  0.6975  1.9775  0.5390
 1890TIP3    H2 5677   3.891   5.597   1.903  0.5136  0.4952  0.0243
 1891TIP3   OH2 5678   6.074   5.802   2.157  1.0053  0.0310 -0.5730
 1891TIP3    H1 5679   6.005   5.865   2.176 -0.1355 -1.5324  0.6471
 1891TIP3    H2 5680   6.150   5.835   2.204 -0.4023 -1.0492  2.7053
 1892TIP3   OH2 5681   4.615   0.801   3.125  0.2117  0.1749 -0.2232
 1892TIP3    H1 5682   4.546   0.860   3.153  0.0580  0.5710 -1.3675
 1892TIP3    H2 5683   4.624   0.818   3.031  1.7121 -0.0155 -0.1413
 1893TIP3   OH2 5684   4.396   0.060   0.623 -0.5748  1.0856  0.3187
 1893TIP3    H1 5685   4.358   0.064   0.710 -0.3191  1.0265  0.4335
 1893TIP3    H2 5686   4.486   0.091   0.635  0.5609 -2.0085  0.6868
 1894TIP3   OH2 5687   3.577   0.052   4.189 -0.5480  0.6243  0.3670
 1894TIP3    H1 5688   3.546   0.139   4.162 -0.4390  0.4831 -0.2322
 1894TIP3    H2 5689   3.524   0.030   4.265 -1.5548  0.6076 -0.3304
 1895TIP3   OH2 5690   3.787   0.841   0.956  0.2391  0.0249  0.1821
 1895TIP3    H1 5691   3.811   0.778   0.887  1.7711  0.7092  0.0336
 1895TIP3    H2 5692   3.712   0.802   1.000 -1.0963 -0.2440 -2.1490
 1896TIP3   OH2 5693   4.523   1.199   1.073  0.2647  0.2529 -0.0373
 1896TIP3    H1 5694   4.607   1.237   1.046  1.2525 -1.4714  0.4633
 1896TIP3    H2 5695   4.501   1.245   1.154  1.5040 -0.2926  0.6377
 1897TIP3   OH2 5696   3.743   1.449   2.244 -0.5253  0.0705 -0.6079
 1897TIP3    H1 5697   3.795   1.527   2.266 -1.1348  0.0593  1.0067
 1897TIP3    H2 5698   3.682   1.480   2.177 -0.3973  0.8532 -0.3814
 1898TIP3   OH2 5699   0.934  -0.001   0.054  0.3312 -0.1448 -0.1908
 1898TIP3    H1 5700   0.990   0.001  -0.023 -0.1941 -1.1188 -0.6180
 1898TIP3    H2 5701   0.882   0.079   0.047  0.6466  0.0304 -0.5750
 1899TIP3   OH2 5702   4.926   1.216   0.182  0.7116 -0.0372 -0.3410
 1899TIP3    H1 5703   4.978   1.273   0.125  0.5887  0.6415  0.2136
 1899TIP3    H2 5704   4.900   1.272   0.255 -1.3900 -0.1760 -0.9348
 1900TIP3   OH2 5705   1.608   1.129   1.796 -0.5125 -0.1119  0.8517
 1900TIP3    H1 5706   1.541   1.113   1.862  0.1245  0.0050  1.5387
 1900TIP3    H2 5707   1.661   1.050   1.796  0.7689  0.6899  2.0310
 1901TIP3   OH2 5708   0.263   5.967   0.488  0.7632  0.2561 -0.2223
 1901TIP3    H1 5709   0.284   5.902   0.421 -0.9740  0.3851 -0.9663
 1901TIP3    H2 5710   0.294   6.050   0.452  3.1757 -0.1350  0.8221
 1902TIP3   OH2 5711   1.508   5.352   2.634 -0.1222 -0.3142  0.2264
 1902TIP3    H1 5712   1.503   5.443   2.604 -2.0631  0.2101  1.9588
 1902TIP3    H2 5713   1.548   5.358   2.721 -3.0947 -0.6576  1.7457
 1903TIP3   OH2 5714   1.766   5.886   4.949  0.0183  0.0547 -0.4180
 1903TIP3    H1 5715   1.684   5.888   4.899  0.3250  0.1695 -0.9227
 1903TIP3    H2 5716   1.745   5.835   5.028 -0.5970  0.2715 -0.4375
 1904TIP3   OH2 5717   6.330   5.447   2.800  0.2237  0.7198  0.1488
 1904TIP3    H1 5718   6.272   5.521   2.820  0.2662  1.0050 -0.7124
 1904TIP3    H2 5719   6.282   5.370   2.831  0.2560  1.1172  1.2178
 1905TIP3   OH2 5720   6.192   2.414   3.043  0.0982  0.7254 -0.2683
 1905TIP3    H1 5721   6.170   2.504   3.021  1.5992  1.1455 -0.1608
 1905TIP3    H2 5722   6.274   2.420   3.091 -1.4798 -0.3998  2.8611
 1906TIP3   OH2 5723   3.261   1.692   2.382  0.3074  0.1907 -0.3222
 1906TIP3    H1 5724   3.257   1.604   2.420 -1.0615  0.4072  0.1058
 1906TIP3    H2 5725   3.334   1.734   2.427  1.3934 -0.9252 -1.0040
 1907TIP3   OH2 5726   1.693   0.307   1.078  0.1444 -0.3499 -0.1653
 1907TIP3    H1 5727   1.782   0.300   1.041  0.3833  1.5259 -0.0616
 1907TIP3    H2 5728   1.672   0.400   1.071 -1.4073 -0.5968  0.7967
 1908TIP3   OH2 5729   2.908   4.463   1.354 -0.0417  0.5758  0.2470
 1908TIP3    H1 5730   2.857   4.480   1.434 -0.1524 -1.2357  0.5866
 1908TIP3    H2 5731   2.842   4.458   1.285 -0.0827  0.6210  0.2822
 1909TIP3   OH2 5732   1.615   3.936   2.723 -0.0388  0.3893 -0.1262
 1909TIP3    H1 5733   1.653   3.883   2.653  0.8712 -0.4050  0.9368
 1909TIP3    H2 5734   1.683   3.940   2.790 -0.9288  1.0299  0.7782
 1910TIP3   OH2 5735   0.573   4.541   2.856  0.3594  0.0568  0.2128
 1910TIP3    H1 5736   0.652   4.527   2.908 -1.1570 -1.6785  2.1906
 1910TIP3    H2 5737   0.559   4.636   2.860  2.0639  0.3378  0.1987
 1911TIP3   OH2 5738   6.076   2.062   2.404 -0.2653  0.0078  0.2271
 1911TIP3    H1 5739   6.010   2.084   2.338  0.5194  1.4135 -0.1242
 1911TIP3    H2 5740   6.029   2.007   2.467 -1.5390  0.2681 -0.4596
 1912TIP3   OH2 5741   0.855   2.069   1.870 -0.0255 -0.3556  0.7708
 1912TIP3    H1 5742   0.847   2.164   1.858 -1.2007 -0.2984  1.8321
 1912TIP3    H2 5743   0.772   2.034   1.836  0.5762 -1.0522 -0.0092
 1913TIP3   OH2 5744   1.127   0.682   3.301 -0.0019  0.0346 -0.0464
 1913TIP3    H1 5745   1.217   0.692   3.330  0.7824 -0.8546 -2.0047
 1913TIP3    H2 5746   1.126   0.718   3.212 -1.5939  0.0499 -0.0527
 1914TIP3   OH2 5747   4.862   0.890   3.227 -0.0709 -0.2452 -0.4186
 1914TIP3    H1 5748   4.866   0.982   3.204  1.1718  0.4217  2.0549
 1914TIP3    H2 5749   4.791   0.854   3.174 -1.3249  2.3804 -0.6413
 1915TIP3   OH2 5750   1.943   2.694   2.579 -0.1285  0.4622  0.1373
 1915TIP3    H1 5751   1.963   2.681   2.486  0.0085  0.8642  0.1083
 1915TIP3    H2 5752   2.014   2.750   2.611 -2.0065  3.2801 -0.3225
 1916TIP3   OH2 5753   1.163   2.780   4.957 -0.0394  0.0179 -0.4293
 1916TIP3    H1 5754   1.241   2.747   4.910 -1.1648 -1.0324 -1.6428
 1916TIP3    H2 5755   1.106   2.812   4.887  0.6219  3.9959  0.6170
 1917TIP3   OH2 5756   6.012   3.692   2.346  0.3037  0.3024 -0.0641
 1917TIP3    H1 5757   6.011   3.597   2.356  0.3319  0.3568  0.4869
 1917TIP3    H2 5758   6.091   3.721   2.393 -0.5861  0.7403  1.2108
 1918TIP3   OH2 5759   4.085   3.244   4.139 -0.2761  0.1826 -0.1979
 1918TIP3    H1 5760   4.065   3.303   4.212 -1.0885 -0.8009  0.4011
 1918TIP3    H2 5761   4.029   3.276   4.068 -2.5796 -1.2402  0.8335
 1919TIP3   OH2 5762   5.434   4.327   3.846 -0.1020  0.2823 -0.1815
 1919TIP3    H1 5763   5.415   4.242   3.806  0.7081 -0.2476  0.5054
 1919TIP3    H2 5764   5.521   4.350   3.814  0.1033  0.3597  0.4163
 1920TIP3   OH2 5765   0.805   5.725   0.215  0.1765 -0.0688  0.1657
 1920TIP3    H1 5766   0.729   5.770   0.178  2.1443  2.5171 -1.0767
 1920TIP3    H2 5767   0.839   5.671   0.143  0.1588 -0.3429  0.3606
 1921TIP3   OH2 5768   3.481   2.399   2.803 -0.4264 -0.6102  0.3787
 1921TIP3    H1 5769   3.455   2.479   2.758 -1.6037 -0.8754  0.5527
 1921TIP3    H2 5770   3.466   2.329   2.739 -0.3247 -0.7931  0.5537
 1922TIP3   OH2 5771   0.398   5.130   0.057  0.5115  0.2852 -1.4125
 1922TIP3    H1 5772   0.328   5.150   0.119  2.9327  0.1341  1.6302
 1922TIP3    H2 5773   0.406   5.034   0.061  1.6056  0.3911 -0.8114
 1923TIP3   OH2 5774   2.064   5.592   2.983  0.2827  0.0884 -0.0549
 1923TIP3    H1 5775   1.988   5.605   2.925 -0.1844 -3.0534 -0.3322
 1923TIP3    H2 5776   2.028   5.548   3.060  1.7394 -0.9671  0.0494
 1924TIP3   OH2 5777   4.005   2.909   2.669  0.4788 -0.3777 -0.3850
 1924TIP3    H1 5778   3.998   2.999   2.701  0.6190 -0.4656 -0.1019
 1924TIP3    H2 5779   4.083   2.874   2.713 -0.2339 -1.0052  0.4170
 1925TIP3   OH2 5780   4.515   4.540   0.815 -0.7579 -0.2179 -0.6010
 1925TIP3    H1 5781   4.419   4.540   0.806 -0.7883 -1.5284 -0.4312
 1925TIP3    H2 5782   4.546   4.587   0.737 -1.5104 -0.4797 -1.0701
 1926TIP3   OH2 5783   2.197   0.144   0.153  0.3280 -0.8224 -0.1430
 1926TIP3    H1 5784   2.167   0.070   0.206  0.7026 -2.2941 -1.8955
 1926TIP3    H2 5785   2.125   0.161   0.093  0.8251 -0.7482 -0.7291
 1927TIP3   OH2 5786   3.736   4.715   0.922  0.6316 -0.1171 -0.1624
 1927TIP3    H1 5787   3.656   4.754   0.887  1.0817  0.5109 -0.5089
 1927TIP3    H2 5788   3.773   4.667   0.848 -0.2063 -1.7168  0.4019
 1928TIP3   OH2 5789   6.176   5.946   0.454 -0.2542 -0.2315  0.8448
 1928TIP3    H1 5790   6.102   5.886   0.449 -0.7745  0.3891  0.9870
 1928TIP3    H2 5791   6.248   5.899   0.412 -0.5618 -1.0799  1.2537
 1929TIP3   OH2 5792   2.496   4.578   0.170  0.1367  0.5868 -0.4818
 1929TIP3    H1 5793   2.588   4.569   0.146  0.0289 -0.2723 -0.6076
 1929TIP3    H2 5794   2.496   4.589   0.265  0.2403 -2.2929 -0.0721
 1930TIP3   OH2 5795   2.994   1.828   3.074 -0.0060  0.2763 -0.2209
 1930TIP3    H1 5796   3.008   1.898   3.136  0.1488  0.0885 -0.0426
 1930TIP3    H2 5797   2.964   1.754   3.127  0.1364  0.1123 -0.3649
 1931TIP3   OH2 5798   5.740   5.797   1.065 -0.4659 -0.0343  0.0284
 1931TIP3    H1 5799   5.662   5.767   1.112 -0.5573 -1.2903 -0.8556
 1931TIP3    H2 5800   5.715   5.793   0.973  1.0427 -1.8593 -0.3844
 1932TIP3   OH2 5801   5.032   4.804   4.650  1.0228 -0.6021 -0.0991
 1932TIP3    H1 5802   4.959   4.831   4.705  0.4937 -3.3753  0.7014
 1932TIP3    H2 5803   5.109   4.839   4.695  0.3017  1.9898 -0.7261
 1933TIP3   OH2 5804   5.488   3.008   2.577  0.1678  0.7652  0.2640
 1933TIP3    H1 5805   5.563   3.030   2.522  0.7275 -0.3084  0.5680
 1933TIP3    H2 5806   5.467   2.918   2.554 -0.8415  0.9534  0.4091
 1934TIP3   OH2 5807   2.779   1.423   4.168  0.1175 -0.3404  0.3055
 1934TIP3    H1 5808   2.814   1.509   4.191  1.5948 -1.1548  1.2355
 1934TIP3    H2 5809   2.734   1.393   4.247 -1.1237 -0.1005 -0.2845
 1935TIP3   OH2 5810   6.176   3.454   1.614 -0.0188  0.1970 -0.3371
 1935TIP3    H1 5811   6.266   3.483   1.625  0.1678 -0.3253 -0.4716
 1935TIP3    H2 5812   6.148   3.428   1.701 -1.3047  3.8504  0.5332
 1936TIP3   OH2 5813   6.206   3.387   4.079  0.4178  0.3312 -0.2257
 1936TIP3    H1 5814   6.217   3.399   4.174  0.3203  1.5673 -0.3477
 1936TIP3    H2 5815   6.266   3.451   4.040  2.2175 -1.7479 -1.0571
 1937TIP3   OH2 5816   2.395   3.719   0.799 -0.1123 -0.1623  0.9914
 1937TIP3    H1 5817   2.471   3.745   0.746 -0.4056 -2.1172 -0.4956
 1937TIP3    H2 5818   2.432   3.674   0.874  0.2532  1.0802  1.5799
 1938TIP3   OH2 5819   0.212   5.850   5.095  0.0956 -0.5108 -0.6479
 1938TIP3    H1 5820   0.234   5.862   5.003  0.9009  2.6796 -0.1696
 1938TIP3    H2 5821   0.271   5.910   5.142 -1.4209 -0.7923  1.7961
 1939TIP3   OH2 5822   5.890   1.530   2.146  0.0649 -0.2506 -0.5687
 1939TIP3    H1 5823   5.828   1.499   2.081 -0.7488  2.0121 -0.9844
 1939TIP3    H2 5824   5.962   1.567   2.095 -1.0324  2.4497 -0.3744
 1940TIP3   OH2 5825   1.385   5.102   3.715 -0.1988 -0.2872  0.5183
 1940TIP3    H1 5826   1.295   5.079   3.739  0.0365 -1.1384  0.6057
 1940TIP3    H2 5827   1.437   5.081   3.793  0.1994 -0.6666  0.1602
 1941TIP3   OH2 5828   5.370   2.093   3.324 -0.2496  0.5234 -0.2590
 1941TIP3    H1 5829   5.342   2.178   3.358  1.3271  0.8030  0.4548
 1941TIP3    H2 5830   5.289   2.046   3.307 -1.1864  2.4039 -1.3268
 1942TIP3   OH2 5831   3.139   4.617   2.194 -0.2401 -0.2169  0.4296
 1942TIP3    H1 5832   3.050   4.643   2.216 -0.9527 -0.5181 -1.8593
 1942TIP3    H2 5833   3.134   4.523   2.175  0.6183 -0.3021  0.5692
 1943TIP3   OH2 5834   2.720   5.459   3.842  0.3789 -0.0836  0.3720
 1943TIP3    H1 5835   2.706   5.550   3.817 -0.5231 -0.7152 -1.6520
 1943TIP3    H2 5836   2.730   5.461   3.937 -2.2952  1.8245  0.7172
 1944TIP3   OH2 5837   2.866   5.456   0.822  0.2245  0.2495  0.2838
 1944TIP3    H1 5838   2.847   5.367   0.851  1.2650  0.0582  0.4195
 1944TIP3    H2 5839   2.943   5.448   0.767  0.0780  1.0187 -0.0504
 1945TIP3   OH2 5840   2.871   1.617   3.696  0.5758 -0.1437  0.2456
 1945TIP3    H1 5841   2.953   1.589   3.737 -0.7337 -2.3766  1.5404
 1945TIP3    H2 5842   2.812   1.634   3.770 -1.1199 -1.9312 -0.5849
 1946TIP3   OH2 5843   2.404   1.428   4.626  0.1520  0.1540  0.3147
 1946TIP3    H1 5844   2.438   1.506   4.582  2.0081 -0.2271  0.9764
 1946TIP3    H2 5845   2.309   1.434   4.615  0.4122  0.6084 -2.8278
 1947TIP3   OH2 5846   4.418   5.032   1.060 -0.2907  0.4836 -0.9315
 1947TIP3    H1 5847   4.489   5.077   1.106 -0.9053  0.8830 -0.3431
 1947TIP3    H2 5848   4.460   4.959   1.015  0.2944 -0.1521  0.5855
 1948TIP3   OH2 5849   5.034   5.537   1.725 -0.0916 -0.2478 -0.4076
 1948TIP3    H1 5850   5.076   5.452   1.741 -1.2812 -1.0263 -1.2879
 1948TIP3    H2 5851   5.018   5.538   1.630 -0.5152  0.7635 -0.3360
 1949TIP3   OH2 5852   4.035   0.978   0.084  0.5496  0.6743 -0.3249
 1949TIP3    H1 5853   4.066   0.911   0.024 -0.2920  1.1727 -1.3518
 1949TIP3    H2 5854   3.954   1.011   0.044 -1.4161 -0.6069  2.2319
 1950TIP3   OH2 5855   2.042   4.996   2.750  0.5483  0.3789  0.5279
 1950TIP3    H1 5856   2.077   5.066   2.805 -1.5560  3.3145 -1.5554
 1950TIP3    H2 5857   2.105   4.988   2.678  1.2873 -0.6409  1.2632
 1951TIP3   OH2 5858   1.400   4.053   2.150 -0.2691 -0.2169 -0.1669
 1951TIP3    H1 5859   1.435   3.997   2.081 -0.8198 -0.0460 -0.6000
 1951TIP3    H2 5860   1.399   3.999   2.228  0.8001 -0.2720 -0.1806
 1952TIP3   OH2 5861   2.976   0.815   0.449 -0.7406 -0.2281 -0.1820
 1952TIP3    H1 5862   2.988   0.909   0.441  1.0744 -0.2722  1.2965
 1952TIP3    H2 5863   2.962   0.784   0.359  2.2861  1.0334 -1.1945
 1953TIP3   OH2 5864   5.659   5.131   1.799  0.2223 -0.0246  0.3702
 1953TIP3    H1 5865   5.671   5.128   1.704 -2.9550 -1.1735 -0.0970
 1953TIP3    H2 5866   5.628   5.220   1.816  0.5544  0.1050  0.3028
 1954TIP3   OH2 5867   0.381   4.607   0.025 -0.5377 -0.1168  0.2638
 1954TIP3    H1 5868   0.475   4.593   0.021 -0.4886  0.2465  0.0694
 1954TIP3    H2 5869   0.358   4.600   0.117  0.0141  1.9099  0.5938
 1955TIP3   OH2 5870   5.902   5.842   3.040  0.0692 -0.1373 -0.1911
 1955TIP3    H1 5871   5.908   5.889   3.123 -1.6138 -1.9786  1.0473
 1955TIP3    H2 5872   5.900   5.750   3.064  1.9411 -0.8856 -2.4631
 1956TIP3   OH2 5873   1.231   3.394   2.103 -0.0059 -0.1047 -0.0924
 1956TIP3    H1 5874   1.208   3.371   2.193  0.4474  1.1782  0.3732
 1956TIP3    H2 5875   1.246   3.489   2.105 -2.8048  0.4956 -2.1168
 1957TIP3   OH2 5876   4.190   3.707   4.107  0.4041  0.0527  0.0942
 1957TIP3    H1 5877   4.267   3.707   4.163  0.7141  0.8095 -0.3089
 1957TIP3    H2 5878   4.121   3.666   4.159  0.9250 -0.0988  0.6704
 1958TIP3   OH2 5879   0.892   5.578   0.804  0.4016  0.1201  0.6049
 1958TIP3    H1 5880   0.918   5.501   0.856  1.8918  1.0129  1.2736
 1958TIP3    H2 5881   0.888   5.546   0.714 -0.5379 -1.0756  1.0462
 1959TIP3   OH2 5882   3.987   4.484   1.301 -0.0168 -0.6403 -0.0308
 1959TIP3    H1 5883   3.993   4.567   1.254 -1.6336 -0.1759  0.5315
 1959TIP3    H2 5884   3.922   4.499   1.369  1.4209 -1.6641  1.6324
 1960TIP3   OH2 5885   1.528   4.835   2.031 -0.6371 -1.0852  0.5599
 1960TIP3    H1 5886   1.573   4.869   2.107 -0.9136 -1.9605  1.1304
 1960TIP3    H2 5887   1.579   4.758   2.005 -0.3148 -0.5702 -0.3911
 1961TIP3   OH2 5888   3.843   5.334   4.079 -0.3101 -0.4241  0.0737
 1961TIP3    H1 5889   3.866   5.413   4.127  0.9900 -0.6828 -0.0766
 1961TIP3    H2 5890   3.885   5.263   4.128  0.2962 -0.7861 -0.9334
 1962TIP3   OH2 5891   3.583   4.481   4.919 -0.2809  0.3703 -0.4160
 1962TIP3    H1 5892   3.496   4.460   4.886 -0.7732 -0.7603  1.4622
 1962TIP3    H2 5893   3.638   4.484   4.841 -2.2137  2.4671 -1.8073
 1963TIP3   OH2 5894   0.906   4.963   1.257 -0.1654  0.2108 -0.2718
 1963TIP3    H1 5895   0.991   4.970   1.300 -1.1694  0.3619  1.8432
 1963TIP3    H2 5896   0.885   4.870   1.260 -1.7296  0.5222  2.8988
 1964TIP3   OH2 5897   1.937   2.503   0.119  0.1130 -0.1056 -0.1091
 1964TIP3    H1 5898   1.878   2.468   0.052  0.1383  2.3165 -1.5199
 1964TIP3    H2 5899   1.987   2.571   0.074  0.1275  1.6766  2.3644
 1965TIP3   OH2 5900   1.681   0.763   3.773 -0.3237 -0.3843 -0.0680
 1965TIP3    H1 5901   1.676   0.705   3.849 -0.5938  0.1808  0.3548
 1965TIP3    H2 5902   1.773   0.759   3.746  0.3356  1.1381  1.6917
 1966TIP3   OH2 5903   3.165   5.302   2.026  0.3144  0.0647  0.4525
 1966TIP3    H1 5904   3.135   5.351   1.950 -1.5496 -1.3995  0.1948
 1966TIP3    H2 5905   3.091   5.301   2.086 -0.3381 -3.6114 -0.1753
 1967TIP3   OH2 5906   6.280   3.987   0.266 -0.6178 -0.2659  0.1699
 1967TIP3    H1 5907   6.349   3.967   0.330 -0.8448 -0.1121  0.4638
 1967TIP3    H2 5908   6.321   4.050   0.206 -0.4753 -0.2425  0.2900
 1968TIP3   OH2 5909   3.343   0.983   2.996  0.4665 -0.1184  0.7378
 1968TIP3    H1 5910   3.426   1.001   3.039  0.8297 -2.9195  1.3832
 1968TIP3    H2 5911   3.327   1.061   2.941  2.6117  1.2243  1.8798
 1969TIP3   OH2 5912   3.729   0.236   2.011  0.3335  0.0085 -0.3084
 1969TIP3    H1 5913   3.724   0.194   1.925  0.1547 -0.0572 -0.2665
 1969TIP3    H2 5914   3.679   0.178   2.069 -1.5817  1.2374 -0.6327
 1970TIP3   OH2 5915   5.312   3.036   4.121  0.2721 -0.3513 -0.5445
 1970TIP3    H1 5916   5.399   3.012   4.087  0.1031  0.7725 -1.8384
 1970TIP3    H2 5917   5.251   2.999   4.057 -0.2331 -1.2026  0.4045
 1971TIP3   OH2 5918   5.827   4.733   0.216 -0.2461 -0.2808  0.2481
 1971TIP3    H1 5919   5.758   4.713   0.279 -0.2304 -2.1322 -0.2618
 1971TIP3    H2 5920   5.781   4.748   0.133 -0.1676  0.7158  0.3731
 1972TIP3   OH2 5921   2.530   4.796   0.876 -0.3920 -0.3572  0.3782
 1972TIP3    H1 5922   2.490   4.743   0.808 -0.4448  1.1579 -0.8127
 1972TIP3    H2 5923   2.477   4.779   0.954 -0.9580 -1.3409 -0.2105
 1973TIP3   OH2 5924   5.158   4.019   1.635  0.0028 -0.1594 -0.1365
 1973TIP3    H1 5925   5.185   3.929   1.618 -0.2019 -0.0356 -1.2074
 1973TIP3    H2 5926   5.225   4.072   1.591  0.1035  0.2116  0.4558
 1974TIP3   OH2 5927   1.087   4.837   4.909  0.6690 -0.2465  0.0179
 1974TIP3    H1 5928   1.147   4.781   4.958  0.9213  1.3295  1.5905
 1974TIP3    H2 5929   1.012   4.780   4.890  0.8077 -1.0822  1.7473
 1975TIP3   OH2 5930   2.422   1.950   2.561 -0.6760 -0.1478 -0.2025
 1975TIP3    H1 5931   2.460   1.949   2.473  1.2961  1.4841  0.5662
 1975TIP3    H2 5932   2.475   1.887   2.610 -0.6424  0.2123  0.2289
 1976TIP3   OH2 5933   1.349   3.610   4.629  0.9015  0.0838 -0.4541
 1976TIP3    H1 5934   1.440   3.584   4.620  1.2585  0.6850  1.0884
 1976TIP3    H2 5935   1.347   3.701   4.599  1.4295  1.0018  2.0536
 1977TIP3   OH2 5936   3.342   2.094   5.061  0.0016  0.1482  0.1360
 1977TIP3    H1 5937   3.323   2.152   4.988  1.2865 -1.5019 -1.6038
 1977TIP3    H2 5938   3.428   2.121   5.092 -0.6348  0.9865  1.2180
 1978TIP3   OH2 5939   3.085   5.717   1.218 -0.0556 -0.4144  0.1962
 1978TIP3    H1 5940   3.081   5.690   1.126 -0.6836 -0.0496  0.1031
 1978TIP3    H2 5941   3.173   5.752   1.229  1.3602 -3.8515  0.7446
 1979TIP3   OH2 5942   0.044   1.918   0.090  0.3380  0.4108  0.6423
 1979TIP3    H1 5943   0.072   1.930  -0.001  1.8502 -0.1609  0.9924
 1979TIP3    H2 5944  -0.047   1.947   0.092 -0.8070 -2.4487 -1.7472
 1980TIP3   OH2 5945   2.049   5.833   3.431  0.3001  0.6473  0.9684
 1980TIP3    H1 5946   1.986   5.868   3.369  1.4386  1.2498  0.0995
 1980TIP3    H2 5947   2.116   5.792   3.377  0.9059  0.4640  1.8315
 1981TIP3   OH2 5948   5.414   3.340   3.421  0.5253 -0.5479  0.2272
 1981TIP3    H1 5949   5.338   3.288   3.450 -1.2226  1.1790 -1.0014
 1981TIP3    H2 5950   5.463   3.280   3.365 -1.9045 -0.7622 -1.8735
 1982TIP3   OH2 5951   1.467   1.852   3.387 -0.2224 -0.5041 -0.0921
 1982TIP3    H1 5952   1.468   1.790   3.314  0.2066  0.1114 -0.6256
 1982TIP3    H2 5953   1.397   1.913   3.365 -0.3374 -0.5329  0.1964
 1983TIP3   OH2 5954   1.258   4.676   4.294 -0.0802  0.2633  0.3581
 1983TIP3    H1 5955   1.315   4.631   4.357  0.1729 -0.2336 -0.2187
 1983TIP3    H2 5956   1.277   4.769   4.308 -0.2951  0.1839  1.2640
 1984TIP3   OH2 5957   2.520   3.422   1.901 -0.0411 -0.1492  0.5948
 1984TIP3    H1 5958   2.491   3.500   1.854 -1.7207 -0.3420  1.2557
 1984TIP3    H2 5959   2.589   3.385   1.846 -0.3212  0.9157 -0.5205
 1985TIP3   OH2 5960   4.182   0.648   1.803 -0.1688  0.2062  0.0268
 1985TIP3    H1 5961   4.119   0.595   1.754 -1.0063  0.6567  0.5884
 1985TIP3    H2 5962   4.246   0.585   1.836 -1.0847 -0.4698  0.5885
 1986TIP3   OH2 5963   0.018   3.447   1.100 -0.4005  0.8843 -0.1957
 1986TIP3    H1 5964   0.011   3.411   1.188 -1.1275  0.8305 -0.2645
 1986TIP3    H2 5965  -0.009   3.374   1.043  0.6441  0.7283 -0.5031
 1987TIP3   OH2 5966   6.080   3.014   3.770 -0.0508  0.3517 -0.2661
 1987TIP3    H1 5967   6.122   3.064   3.840  0.5578 -0.7113  0.1584
 1987TIP3    H2 5968   6.002   2.977   3.810  0.2949 -0.2525 -0.1320
 1988TIP3   OH2 5969   4.140   1.669   0.727 -0.8002 -0.0609 -0.3642
 1988TIP3    H1 5970   4.086   1.622   0.792 -0.4730  1.3184  0.9593
 1988TIP3    H2 5971   4.192   1.601   0.686  1.7621 -0.7286  3.4719
 1989TIP3   OH2 5972   0.091   3.678   4.759 -0.1052 -0.1846  0.8377
 1989TIP3    H1 5973   0.132   3.710   4.678 -0.4216 -0.4423  0.5731
 1989TIP3    H2 5974   0.057   3.592   4.736  2.1394 -1.4666  1.9845
 1990TIP3   OH2 5975   3.731   0.194   2.948 -0.0670  0.4520  0.2340
 1990TIP3    H1 5976   3.690   0.127   2.893  0.2193  0.9531 -0.6095
 1990TIP3    H2 5977   3.812   0.217   2.902  0.9489 -0.1789  1.6319
 1991TIP3   OH2 5978   3.318   4.117   1.356 -0.5030 -0.0902  0.5013
 1991TIP3    H1 5979   3.260   4.185   1.392 -0.3840 -0.8338  2.1704
 1991TIP3    H2 5980   3.386   4.107   1.422  1.8069  1.0082 -1.5569
 1992TIP3   OH2 5981   1.875   4.131   3.984  0.6296 -0.3737  0.2776
 1992TIP3    H1 5982   1.839   4.189   4.052 -0.5312 -0.7777  0.0357
 1992TIP3    H2 5983   1.874   4.184   3.904  1.0570 -0.2160  0.3791
 1993TIP3   OH2 5984   5.439  -0.000   5.071 -0.2573 -0.1011  0.3558
 1993TIP3    H1 5985   5.364   0.037   5.117 -0.2453  1.7788 -1.0310
 1993TIP3    H2 5986   5.408  -0.015   4.982  0.5102 -1.0525  0.2252
 1994TIP3   OH2 5987   4.791   5.934   2.612 -0.0541  0.0841 -0.0817
 1994TIP3    H1 5988   4.880   5.964   2.628  1.7158 -3.2838 -2.5693
 1994TIP3    H2 5989   4.759   5.990   2.541 -0.5802  2.1491  1.6546
 1995TIP3   OH2 5990   1.817   1.051   4.059 -0.3189 -0.3726 -0.4406
 1995TIP3    H1 5991   1.818   1.040   4.154 -0.9194 -0.6245 -0.4561
 1995TIP3    H2 5992   1.864   0.974   4.026  0.6935  0.1820 -0.3180
 1996TIP3   OH2 5993   4.422   2.102   4.857 -0.3755  0.4227  0.2360
 1996TIP3    H1 5994   4.421   2.192   4.825  2.2403  0.0063 -1.2263
 1996TIP3    H2 5995   4.386   2.050   4.785 -0.6349  0.1330  0.5674
 1997TIP3   OH2 5996   3.014   2.140   0.910 -0.1060  0.4077  0.4707
 1997TIP3    H1 5997   2.941   2.190   0.874  0.9495  0.6070 -1.5158
 1997TIP3    H2 5998   3.086   2.204   0.916  0.5683 -0.3123  0.1981
 1998TIP3   OH2 5999   0.531   5.875   1.714  0.2303 -0.0041  0.0390
 1998TIP3    H1 6000   0.544   5.970   1.708 -0.5123  0.1011  0.0189
 1998TIP3    H2 6001   0.490   5.862   1.800  1.3189 -0.4233  0.5091
 1999TIP3   OH2 6002   2.475   1.754   2.737 -0.0106 -0.2709  0.7032
 1999TIP3    H1 6003   2.495   1.661   2.727 -0.2228 -0.1968 -0.5275
 1999TIP3    H2 6004   2.430   1.759   2.821 -1.5767 -1.5627  0.0070
 2000TIP3   OH2 6005   5.082   1.899   0.058 -0.7046  0.0879  0.4973
 2000TIP3    H1 6006   5.163   1.942   0.084 -1.5770  1.0285  1.8290
 2000TIP3    H2 6007   5.061   1.938  -0.027 -0.3820  0.7476  0.7072
 2001TIP3   OH2 6008   4.062   2.083   3.776 -0.1265 -0.3802  0.5777
 2001TIP3    H1 6009   3.985   2.080   3.834 -1.4949 -1.8868 -1.1960
 2001TIP3    H2 6010   4.026   2.071   3.688  2.1887 -1.5602 -0.2943
 2002TIP3   OH2 6011   0.881   1.580   3.984 -0.2530 -0.4879 -0.2280
 2002TIP3    H1 6012   0.887   1.675   3.977 -2.2735 -0.3655 -0.8960
 2002TIP3    H2 6013   0.972   1.550   3.983  0.3824  1.2764 -2.2070
 2003TIP3   OH2 6014   3.773   0.480   1.136 -0.0458  0.1225 -0.0790
 2003TIP3    H1 6015   3.821   0.488   1.218  0.7201 -0.4532 -0.4568
 2003TIP3    H2 6016   3.704   0.546   1.141 -0.0237  0.0678  1.0331
 2004TIP3   OH2 6017   0.326   2.604   1.549 -0.1692  0.1927  0.1475
 2004TIP3    H1 6018   0.288   2.575   1.467 -0.4204  2.0925 -0.4470
 2004TIP3    H2 6019   0.363   2.690   1.530  0.1542  0.4873  1.9108
 2005TIP3   OH2 6020   3.962   1.803   5.061 -0.0402 -0.0437 -0.4422
 2005TIP3    H1 6021   4.020   1.851   5.120  0.5110  0.3135 -1.2424
 2005TIP3    H2 6022   3.902   1.869   5.026 -0.0673 -0.1601 -0.6233
 2006TIP3   OH2 6023   2.217   4.189   2.483  0.4139 -0.7810 -0.3526
 2006TIP3    H1 6024   2.253   4.163   2.399  1.2473 -0.4370 -0.1128
 2006TIP3    H2 6025   2.123   4.178   2.473  0.3494  0.6728 -1.8403
 2007TIP3   OH2 6026   1.431   4.008   0.041  0.1192 -0.0013  1.0099
 2007TIP3    H1 6027   1.388   4.080  -0.007 -0.0421  0.1349  1.3540
 2007TIP3    H2 6028   1.374   3.933   0.025 -0.6910  0.3560  2.1067
 2008TIP3   OH2 6029   1.034   3.011   0.183  0.2691  0.1809 -0.0392
 2008TIP3    H1 6030   0.997   3.063   0.112  0.3554 -0.7554 -0.7912
 2008TIP3    H2 6031   1.013   3.060   0.263  0.2469  1.2954 -0.7059
 2009TIP3   OH2 6032   4.380   2.642   4.640 -0.2576  0.0400  0.4571
 2009TIP3    H1 6033   4.393   2.557   4.596 -0.1660  0.2883  0.0021
 2009TIP3    H2 6034   4.464   2.660   4.682  0.0359  0.3774 -0.2712
 2010TIP3   OH2 6035   5.098   4.716   2.893 -0.5668 -0.1761 -0.0966
 2010TIP3    H1 6036   5.170   4.668   2.854  0.4402  1.3939 -0.2382
 2010TIP3    H2 6037   5.104   4.698   2.987 -1.0029 -1.3412 -0.2800
 2011TIP3   OH2 6038   1.212   3.672   2.819 -0.0782 -0.3743  0.3249
 2011TIP3    H1 6039   1.157   3.621   2.880 -0.6638  1.3259  1.2882
 2011TIP3    H2 6040   1.281   3.611   2.792 -0.9323 -1.7680  1.1635
 2012TIP3   OH2 6041   3.460   2.163   4.126 -0.3028  1.2383 -0.0510
 2012TIP3    H1 6042   3.433   2.089   4.182  0.4380 -0.1793 -1.5016
 2012TIP3    H2 6043   3.555   2.164   4.132 -0.3211  2.3123  0.2108
 2013TIP3   OH2 6044   5.089   5.194   3.054  0.1736 -0.0098 -0.0579
 2013TIP3    H1 6045   5.158   5.137   3.021  1.2143  1.0875  0.1833
 2013TIP3    H2 6046   5.125   5.233   3.133 -0.9571  0.1336  0.4187
 2014TIP3   OH2 6047   3.608   5.821   4.335  0.1412 -0.4598 -0.5907
 2014TIP3    H1 6048   3.665   5.803   4.261 -0.0298  1.6089 -1.2725
 2014TIP3    H2 6049   3.526   5.851   4.296  0.0076  0.5533  0.4220
 2015TIP3   OH2 6050   0.477   1.571   2.421  0.8513  0.1531 -0.2368
 2015TIP3    H1 6051   0.416   1.580   2.494  0.7308  1.4202 -0.4724
 2015TIP3    H2 6052   0.424   1.531   2.351  1.0447 -1.3283  0.4376
 2016TIP3   OH2 6053   2.984   1.593   2.351  1.0542  0.4930  0.2634
 2016TIP3    H1 6054   2.989   1.638   2.267  0.5818 -0.8938 -0.5455
 2016TIP3    H2 6055   3.074   1.589   2.382  1.0890  2.1444  0.4819
 2017TIP3   OH2 6056   3.408   5.637   4.953  0.2001  0.2265 -0.0685
 2017TIP3    H1 6057   3.325   5.603   4.985  0.4131  0.7089  1.0680
 2017TIP3    H2 6058   3.391   5.730   4.935  0.0066 -0.0935 -1.7217
 2018TIP3   OH2 6059   5.258   1.953   4.299 -0.4808 -0.0397  0.1220
 2018TIP3    H1 6060   5.188   1.917   4.246 -0.7484 -0.3724  0.7001
 2018TIP3    H2 6061   5.279   2.037   4.257 -0.1453 -0.6531 -0.9714
 2019TIP3   OH2 6062   4.979   5.956   3.220  0.0328  0.1231  0.3942
 2019TIP3    H1 6063   5.041   5.883   3.224 -0.2910 -0.1123  1.9646
 2019TIP3    H2 6064   5.029   6.029   3.186  0.0312 -1.1242 -2.5328
 2020TIP3   OH2 6065   1.601   3.733   4.052 -0.3083 -0.5402 -0.1447
 2020TIP3    H1 6066   1.683   3.781   4.061 -0.5394 -0.1765  0.0182
 2020TIP3    H2 6067   1.623   3.644   4.080 -0.2013 -0.2132  0.8391
 2021TIP3   OH2 6068   0.432   4.310   2.461  0.0390 -0.1980  0.8705
 2021TIP3    H1 6069   0.341   4.333   2.479  0.2058  1.3603 -0.0701
 2021TIP3    H2 6070   0.427   4.258   2.380  0.0062  0.2809  0.5583
 2022TIP3   OH2 6071   2.333   3.842   2.185 -0.5443  0.3646 -0.1469
 2022TIP3    H1 6072   2.396   3.773   2.166 -1.6050 -0.3022 -1.4258
 2022TIP3    H2 6073   2.369   3.920   2.142  0.5570  0.6144  1.1403
 2023TIP3   OH2 6074   1.603   2.365   4.511 -0.0328  0.3381 -0.0274
 2023TIP3    H1 6075   1.546   2.295   4.478 -0.6707  0.8287  0.0197
 2023TIP3    H2 6076   1.661   2.321   4.572  0.2383 -0.3386 -0.7419
 2024TIP3   OH2 6077   5.803   2.502   1.780  0.1829 -0.2455 -0.1428
 2024TIP3    H1 6078   5.749   2.539   1.710  0.1600 -0.7204 -0.3867
 2024TIP3    H2 6079   5.883   2.473   1.735  1.2060  1.5729  0.4066
 2025TIP3   OH2 6080   5.189   3.122   4.361  0.4747  0.0122 -0.1550
 2025TIP3    H1 6081   5.114   3.084   4.314  0.9898 -1.9111  0.4745
 2025TIP3    H2 6082   5.262   3.114   4.300  0.7919 -0.9561  0.3346
 2026TIP3   OH2 6083   0.815   4.452   1.875 -0.6212 -0.1975  0.4472
 2026TIP3    H1 6084   0.789   4.373   1.828 -1.4726 -0.7078  1.7431
 2026TIP3    H2 6085   0.734   4.501   1.886 -0.7566 -0.8303  2.7178
 2027TIP3   OH2 6086   5.088   0.558   2.816 -0.3378 -0.4490  0.3568
 2027TIP3    H1 6087   5.015   0.508   2.778  0.7678 -1.1673 -0.9018
 2027TIP3    H2 6088   5.126   0.499   2.881 -1.2431  0.1842  1.5223
 2028TIP3   OH2 6089   0.055   4.549   0.168  0.3238 -0.4127 -0.3467
 2028TIP3    H1 6090   0.141   4.520   0.198 -0.7316 -2.1835  1.2080
 2028TIP3    H2 6091  -0.007   4.509   0.229 -1.5825  1.5282 -0.8755
 2029TIP3   OH2 6092   6.052   5.788   0.775  0.7452 -0.8397  0.0809
 2029TIP3    H1 6093   5.962   5.768   0.748  0.6954 -0.3532 -0.1197
 2029TIP3    H2 6094   6.042   5.860   0.838  1.1524  0.8756 -1.7355
 2030TIP3   OH2 6095   1.032   2.806   1.583 -0.0311  0.1611 -0.2144
 2030TIP3    H1 6096   0.950   2.841   1.546 -0.4501  1.0153  1.3963
 2030TIP3    H2 6097   1.094   2.810   1.511 -1.1192  0.5635 -1.1713
 2031TIP3   OH2 6098   6.343   0.864   2.027 -0.2414  0.0763 -0.8316
 2031TIP3    H1 6099   6.256   0.905   2.024 -0.0852  0.6851  1.3971
 2031TIP3    H2 6100   6.326   0.771   2.010 -1.5128  0.0030  0.5654
 2032TIP3   OH2 6101   2.759   5.010   3.034  0.2965  0.2962 -0.3200
 2032TIP3    H1 6102   2.793   4.924   3.056 -0.2254  0.5060  1.4827
 2032TIP3    H2 6103   2.704   5.034   3.109 -1.2371  1.3124 -1.7041
 2033TIP3   OH2 6104   0.918   5.715   1.385 -0.3245 -0.5906  0.0973
 2033TIP3    H1 6105   0.878   5.801   1.369 -0.5728 -1.0087 -1.7544
 2033TIP3    H2 6106   0.882   5.687   1.469 -0.0501  1.2069  0.8610
 2034TIP3   OH2 6107   1.305   0.988   3.531 -0.1498 -0.3412 -0.1245
 2034TIP3    H1 6108   1.389   0.943   3.541 -1.0716 -2.0667  0.2895
 2034TIP3    H2 6109   1.244   0.937   3.584 -1.3485  1.2324  0.0724
 2035TIP3   OH2 6110   3.735   0.243   3.646  0.3990 -0.2429  0.2530
 2035TIP3    H1 6111   3.785   0.196   3.713  1.3157  0.8428  0.3588
 2035TIP3    H2 6112   3.651   0.262   3.688  1.5965  2.0139  1.8357
 2036TIP3   OH2 6113   1.687   1.971   4.316 -0.2346 -0.3040  0.4512
 2036TIP3    H1 6114   1.626   2.044   4.329 -0.6277  0.0640 -2.7112
 2036TIP3    H2 6115   1.632   1.893   4.319 -0.6535 -0.0832 -0.8232
 2037TIP3   OH2 6116   1.029   4.679   4.025 -0.3791 -0.1779  0.5173
 2037TIP3    H1 6117   1.119   4.648   4.041  0.4340  0.7185 -1.8542
 2037TIP3    H2 6118   1.018   4.752   4.084  0.3734 -0.4480  1.0115
 2038TIP3   OH2 6119   3.443   0.938   4.438 -0.3912  0.4482  0.4238
 2038TIP3    H1 6120   3.369   0.956   4.380  0.2499  0.3380 -0.4331
 2038TIP3    H2 6121   3.476   1.024   4.462  0.4649  0.4990 -0.8400
 2039TIP3   OH2 6122   0.770   2.853   3.156  0.1610  0.1346  0.0591
 2039TIP3    H1 6123   0.847   2.910   3.148 -0.1342  0.5375  0.0286
 2039TIP3    H2 6124   0.787   2.781   3.096 -0.6031  1.5027 -1.8913
 2040TIP3   OH2 6125   4.872   2.450   2.859  0.0935  0.3788 -0.0775
 2040TIP3    H1 6126   4.925   2.377   2.890 -0.5399 -0.3187 -0.6058
 2040TIP3    H2 6127   4.882   2.517   2.927  2.0530  0.4802 -0.4275
 2041TIP3   OH2 6128   2.497   0.659   1.649  0.9302 -0.3101  0.0525
 2041TIP3    H1 6129   2.564   0.593   1.665  0.9936 -0.1340  0.5212
 2041TIP3    H2 6130   2.512   0.726   1.716  0.5046 -0.1008 -0.0563
 2042TIP3   OH2 6131   1.249   1.551   4.818 -0.1512 -0.0077 -0.7519
 2042TIP3    H1 6132   1.227   1.608   4.744  0.2331  0.3442 -0.5947
 2042TIP3    H2 6133   1.318   1.494   4.784  0.3831  0.4893 -0.5178
 2043TIP3   OH2 6134   2.590   5.633   0.685 -0.2824 -0.1669 -0.5200
 2043TIP3    H1 6135   2.669   5.583   0.664 -0.2022  0.2591 -1.2580
 2043TIP3    H2 6136   2.593   5.709   0.627 -0.3460  0.7655  0.6635
 2044TIP3   OH2 6137   0.884   5.899   3.157  0.4396 -0.5370  0.3829
 2044TIP3    H1 6138   0.821   5.967   3.178 -0.6508 -0.3548 -2.8251
 2044TIP3    H2 6139   0.969   5.943   3.157 -0.2108  0.8204 -1.3147
 2045TIP3   OH2 6140   3.602   2.235   2.522  0.3796 -0.2878  1.2690
 2045TIP3    H1 6141   3.645   2.303   2.470 -0.8585 -0.1620  0.3327
 2045TIP3    H2 6142   3.664   2.162   2.523  0.9164  0.1444  0.5853
 2046TIP3   OH2 6143   3.206   0.257   4.405  0.3156  0.1227  0.4639
 2046TIP3    H1 6144   3.139   0.279   4.470 -0.1288  1.1974 -0.3122
 2046TIP3    H2 6145   3.268   0.331   4.409 -0.4221  0.8925 -1.2051
 2047TIP3   OH2 6146   3.692   1.946   2.618 -0.0999  0.1207 -0.1426
 2047TIP3    H1 6147   3.696   2.006   2.693 -1.5659  0.6843 -0.4795
 2047TIP3    H2 6148   3.783   1.938   2.589  0.5856 -0.5982  2.0394
 2048TIP3   OH2 6149   1.623   5.646   2.950  0.1196  0.5365  0.0812
 2048TIP3    H1 6150   1.704   5.635   2.900  0.7529  0.5381  1.0893
 2048TIP3    H2 6151   1.617   5.567   3.005 -1.2610 -0.1123 -0.9159
 2049TIP3   OH2 6152   1.091   4.791   1.572  0.3260 -0.0158  0.0877
 2049TIP3    H1 6153   1.010   4.836   1.597  1.3278  1.4582  0.8080
 2049TIP3    H2 6154   1.148   4.799   1.649  1.9816  0.9932 -1.1730
 2050TIP3   OH2 6155   3.515   0.207   0.730 -0.0819 -0.2416 -0.3883
 2050TIP3    H1 6156   3.427   0.237   0.752 -0.0229  0.8539 -1.5463
 2050TIP3    H2 6157   3.521   0.119   0.768 -1.8907 -0.5899 -0.8481
 2051TIP3   OH2 6158   4.702   3.370   3.919  0.2019 -0.3139  0.4728
 2051TIP3    H1 6159   4.673   3.291   3.875 -2.2336  0.3332  0.8027
 2051TIP3    H2 6160   4.778   3.400   3.868 -0.2584 -1.6006 -1.0109
 2052TIP3   OH2 6161   1.607   1.883   4.831 -0.5357 -0.1331  0.1595
 2052TIP3    H1 6162   1.690   1.835   4.822 -0.3482  0.2318 -0.1271
 2052TIP3    H2 6163   1.572   1.855   4.915  0.3348  0.4024  0.7135
 2053TIP3   OH2 6164   5.269   1.098   3.372 -0.3765 -0.0644  0.6413
 2053TIP3    H1 6165   5.212   1.107   3.449  1.0013 -1.0240  1.8274
 2053TIP3    H2 6166   5.246   1.014   3.334  0.2870 -0.4977  1.1782
 2054TIP3   OH2 6167   2.322   5.323   2.587  0.8691 -0.7166  0.0574
 2054TIP3    H1 6168   2.359   5.397   2.635  0.3365 -0.3954 -0.0279
 2054TIP3    H2 6169   2.242   5.301   2.635  1.8469 -2.2943  1.0644
 2055TIP3   OH2 6170   5.767   3.040   4.406  0.3166 -0.5229  0.3535
 2055TIP3    H1 6171   5.825   2.982   4.456  1.5083 -0.4073 -0.8126
 2055TIP3    H2 6172   5.778   3.126   4.447  0.1569 -0.7074  0.7905
 2056TIP3   OH2 6173   1.886   1.985   3.666 -0.0187 -0.3860  0.3712
 2056TIP3    H1 6174   1.855   1.961   3.754 -1.7815 -1.5842 -0.5326
 2056TIP3    H2 6175   1.825   1.943   3.606  0.0204  1.9497 -1.4436
 2057TIP3   OH2 6176   0.830   2.764   1.763 -0.1292  0.0415 -0.2990
 2057TIP3    H1 6177   0.764   2.834   1.763 -0.6463 -0.3989  1.5202
 2057TIP3    H2 6178   0.907   2.804   1.722 -1.6698  0.3470 -3.2022
 2058TIP3   OH2 6179   5.109   3.915   0.307 -0.1139  0.2901 -0.1398
 2058TIP3    H1 6180   5.028   3.863   0.304  0.1312 -0.2792  1.5963
 2058TIP3    H2 6181   5.108   3.954   0.395  1.5137  0.2303 -0.0730
 2059TIP3   OH2 6182   4.076   5.083   1.588 -0.2943  0.2575 -0.4086
 2059TIP3    H1 6183   4.137   5.125   1.527  0.2739 -0.4247 -0.3178
 2059TIP3    H2 6184   4.130   5.022   1.637 -0.5483  1.3869  1.3831
 2060TIP3   OH2 6185   2.084   5.313   2.256  0.0253  0.4026  0.1195
 2060TIP3    H1 6186   2.041   5.387   2.298 -1.9148 -0.9690  0.6656
 2060TIP3    H2 6187   2.050   5.313   2.166  0.1901  0.2888  0.0564
 2061TIP3   OH2 6188   5.908   5.258   1.024  0.3390 -0.0550  0.2195
 2061TIP3    H1 6189   5.900   5.239   0.931  0.4208 -0.3980  0.2775
 2061TIP3    H2 6190   5.999   5.236   1.045  0.7083  1.3205  0.0978
 2062TIP3   OH2 6191   3.631   5.839   0.434 -0.4372 -0.1118  0.4710
 2062TIP3    H1 6192   3.692   5.849   0.361 -1.1113  0.5642 -0.0166
 2062TIP3    H2 6193   3.587   5.755   0.418 -1.5052  0.6244 -0.6390
 2063TIP3   OH2 6194   4.036   1.646   1.916  0.0657  0.5681 -0.2337
 2063TIP3    H1 6195   4.081   1.685   1.992 -0.0440 -0.9694  0.6531
 2063TIP3    H2 6196   3.943   1.663   1.932  0.1008  1.0767 -0.5295
 2064TIP3   OH2 6197   1.805   1.508   3.394  0.5027 -0.0514  0.7633
 2064TIP3    H1 6198   1.834   1.438   3.335 -0.4441  0.5429 -0.4665
 2064TIP3    H2 6199   1.710   1.499   3.397  0.4363  0.7196  1.1735
 2065TIP3   OH2 6200   3.436   2.296   3.825  0.0614  0.0134  0.1294
 2065TIP3    H1 6201   3.484   2.328   3.748 -2.9199  2.8896 -0.7608
 2065TIP3    H2 6202   3.476   2.344   3.898  0.7514 -0.2173 -0.0839
 2066TIP3   OH2 6203   2.280   1.895   5.131  0.8150 -0.7370 -0.0922
 2066TIP3    H1 6204   2.245   1.896   5.042  1.2521  0.5360 -0.2791
 2066TIP3    H2 6205   2.375   1.902   5.119  0.8708 -0.4419  0.4684
 2067TIP3   OH2 6206   4.032   2.244   2.126 -0.0148  0.2690  0.4754
 2067TIP3    H1 6207   4.021   2.246   2.031  0.7066 -1.2235  0.3365
 2067TIP3    H2 6208   4.114   2.290   2.141  0.1028  0.1089  0.3312
 2068TIP3   OH2 6209   1.627   2.195   0.209  0.1631 -0.4596 -0.5244
 2068TIP3    H1 6210   1.536   2.165   0.216  0.2181 -0.3072  1.3903
 2068TIP3    H2 6211   1.636   2.226   0.119 -1.5137 -1.0243 -0.9058
 2069TIP3   OH2 6212   1.908   5.519   2.275 -0.3348 -0.0129  0.0307
 2069TIP3    H1 6213   1.944   5.570   2.202 -1.0640  0.1216 -0.2364
 2069TIP3    H2 6214   1.815   5.510   2.255 -0.3573 -0.7875  0.4721
 2070TIP3   OH2 6215   0.903   5.280   2.085  0.2875  0.3452 -0.0340
 2070TIP3    H1 6216   0.984   5.230   2.077  0.5089  0.9514 -1.9514
 2070TIP3    H2 6217   0.838   5.215   2.114  1.3384 -0.2346  1.0766
 2071TIP3   OH2 6218   5.934   5.110   4.451  0.0745  0.1013  0.7772
 2071TIP3    H1 6219   5.961   5.195   4.418  1.3110 -0.8827 -0.9110
 2071TIP3    H2 6220   5.991   5.047   4.407 -1.9905 -1.7638  0.5347
 2072TIP3   OH2 6221   3.224   4.154   0.546 -0.3602  0.0945  0.0903
 2072TIP3    H1 6222   3.311   4.185   0.573 -0.0793  0.0292 -0.7005
 2072TIP3    H2 6223   3.182   4.125   0.627 -0.0992  1.2300  0.6592
 2073TIP3   OH2 6224   3.930   0.454   3.650  0.3931 -0.2462 -0.5543
 2073TIP3    H1 6225   4.002   0.397   3.622  1.2401 -0.2187  1.4193
 2073TIP3    H2 6226   3.856   0.395   3.662 -0.0384 -0.2463 -2.8202
 2074TIP3   OH2 6227   4.126   4.662   3.895  0.1180 -0.5054 -0.3690
 2074TIP3    H1 6228   4.039   4.703   3.889 -0.2129 -1.0691  0.4387
 2074TIP3    H2 6229   4.108   4.570   3.915  0.8997 -0.6469 -0.2823
 2075TIP3   OH2 6230   1.155   0.026   0.700 -0.3270  0.0974  0.3994
 2075TIP3    H1 6231   1.077  -0.020   0.730 -0.6734  0.7315  0.4694
 2075TIP3    H2 6232   1.159   0.009   0.606 -0.8603  0.5270  0.2961
 2076TIP3   OH2 6233   0.310   3.390   0.702  0.2124 -0.0104 -0.1691
 2076TIP3    H1 6234   0.401   3.388   0.732 -0.0443  2.6330  1.0588
 2076TIP3    H2 6235   0.316   3.425   0.613  0.4387 -0.7366 -0.4474
 2077TIP3   OH2 6236   5.759   3.764   3.628  0.1401  0.1246 -0.1508
 2077TIP3    H1 6237   5.706   3.699   3.582 -1.4909  2.1724 -1.3489
 2077TIP3    H2 6238   5.833   3.780   3.569  0.7805 -0.8984  0.3453
 2078TIP3   OH2 6239   2.114   3.088   3.584 -0.2738 -0.0678  0.2243
 2078TIP3    H1 6240   2.069   3.108   3.502 -0.0388 -2.1200 -0.4421
 2078TIP3    H2 6241   2.044   3.078   3.648 -0.5721 -0.3383 -0.1422
 2079TIP3   OH2 6242   5.613   0.757   0.190  0.2200  0.1902 -0.2587
 2079TIP3    H1 6243   5.679   0.824   0.205  1.1287 -0.7115 -0.1153
 2079TIP3    H2 6244   5.586   0.729   0.277  0.5742 -0.3161 -0.3050
 2080TIP3   OH2 6245   3.130   2.616   3.514  0.2053  0.2070  0.3076
 2080TIP3    H1 6246   3.188   2.614   3.437  0.0627 -0.0220  0.2081
 2080TIP3    H2 6247   3.189   2.637   3.587  0.7054 -1.6899  0.4819
 2081TIP3   OH2 6248   0.158   1.806   0.394 -0.3553 -0.1876  0.5437
 2081TIP3    H1 6249   0.197   1.867   0.456 -0.2915  0.3493 -0.0159
 2081TIP3    H2 6250   0.064   1.824   0.398 -0.2480  0.6292 -0.3250
 2082TIP3   OH2 6251   3.013   4.379   4.346  0.0507  0.0596 -0.8767
 2082TIP3    H1 6252   3.019   4.461   4.297 -1.0723 -0.5815 -2.1334
 2082TIP3    H2 6253   2.970   4.403   4.428 -1.4634  0.5403 -1.7703
 2083TIP3   OH2 6254   4.097   5.527   3.423 -0.1088 -0.4850  0.2466
 2083TIP3    H1 6255   4.052   5.512   3.506 -0.1678 -1.0076  0.1247
 2083TIP3    H2 6256   4.041   5.483   3.358  0.6544 -1.2651  0.1089
 2084TIP3   OH2 6257   4.743   4.796   0.145 -0.2088  0.6114  0.1281
 2084TIP3    H1 6258   4.749   4.700   0.149 -1.2068  0.4864 -0.8312
 2084TIP3    H2 6259   4.834   4.825   0.136  0.0012 -0.3677 -1.2587
 2085TIP3   OH2 6260   1.061   5.346   2.565 -0.1974  0.4680 -0.4608
 2085TIP3    H1 6261   1.105   5.314   2.644  2.2408  0.7175 -1.6084
 2085TIP3    H2 6262   1.113   5.309   2.493 -1.8335  0.9462 -1.9460
 2086TIP3   OH2 6263   2.766   1.687   4.251 -0.3276  0.1413 -0.1182
 2086TIP3    H1 6264   2.729   1.756   4.307 -1.0052  0.6538 -1.1727
 2086TIP3    H2 6265   2.851   1.720   4.225 -0.8084  0.7615 -0.9287
 2087TIP3   OH2 6266   1.640   5.242   2.875 -0.2948  0.0142 -0.1931
 2087TIP3    H1 6267   1.606   5.177   2.937  0.5518  0.4278  0.7449
 2087TIP3    H2 6268   1.704   5.195   2.822  1.0828  0.2591  1.1680
 2088TIP3   OH2 6269   2.491   4.623   3.478 -0.8754  0.0896  0.2680
 2088TIP3    H1 6270   2.522   4.541   3.516  0.3230 -0.0455 -0.9103
 2088TIP3    H2 6271   2.565   4.654   3.426 -1.3008  1.9625  0.7430
 2089TIP3   OH2 6272   5.790   4.047   3.361 -0.1935  0.0791 -0.5104
 2089TIP3    H1 6273   5.833   4.128   3.389  0.8145 -0.2592 -1.0275
 2089TIP3    H2 6274   5.861   3.992   3.328 -0.6885 -1.4978  0.9238
 2090TIP3   OH2 6275   3.042  -0.022   3.711 -0.0764 -0.0742 -0.4200
 2090TIP3    H1 6276   3.063   0.065   3.745 -0.3507  0.3992 -1.4050
 2090TIP3    H2 6277   3.013  -0.005   3.621  0.4266 -1.2458 -0.8124
 2091TIP3   OH2 6278   3.280   1.691   3.293  0.7536  0.4240  0.0522
 2091TIP3    H1 6279   3.319   1.616   3.249  1.7066 -0.0810  1.6513
 2091TIP3    H2 6280   3.353   1.751   3.309  0.2756  1.0016  0.1251
 2092TIP3   OH2 6281   0.281   5.713   3.074  1.0472 -0.2039 -0.2027
 2092TIP3    H1 6282   0.322   5.633   3.108 -0.4974 -2.2516 -2.8362
 2092TIP3    H2 6283   0.279   5.700   2.979 -0.4045  2.4360 -0.6032
 2093TIP3   OH2 6284   4.629   2.075   1.209 -0.6345  0.6118 -0.8125
 2093TIP3    H1 6285   4.576   1.996   1.199 -0.9351  0.5840  0.7072
 2093TIP3    H2 6286   4.695   2.051   1.274 -0.4635  1.4766 -0.6558
 2094TIP3   OH2 6287   3.208   2.441   2.453  0.2799 -0.1000  0.0150
 2094TIP3    H1 6288   3.284   2.394   2.488  0.0998  0.0996  0.6794
 2094TIP3    H2 6289   3.174   2.491   2.527 -0.6444 -0.3735 -0.2158
 2095TIP3   OH2 6290   1.600   1.655   2.212  0.2347  0.5514 -0.4396
 2095TIP3    H1 6291   1.687   1.617   2.228 -0.6263 -1.4361 -0.2854
 2095TIP3    H2 6292   1.563   1.668   2.300 -0.9387 -1.8834 -0.5012
 2096TIP3   OH2 6293   0.147   5.534   2.143  0.1868 -0.0197  0.4100
 2096TIP3    H1 6294   0.142   5.491   2.057  1.6579  1.5534 -0.5383
 2096TIP3    H2 6295   0.075   5.495   2.193 -1.3008 -0.3744 -1.8155
 2097TIP3   OH2 6296   0.425   1.880   4.245  0.4571  0.2637  0.3201
 2097TIP3    H1 6297   0.366   1.907   4.315 -0.7144  0.5786 -0.7449
 2097TIP3    H2 6298   0.457   1.794   4.272 -0.1521  0.2788  1.1208
 2098TIP3   OH2 6299   2.070   0.010   1.301  0.0169  0.0430 -0.1717
 2098TIP3    H1 6300   2.050   0.090   1.253 -1.9591  0.1972  0.7793
 2098TIP3    H2 6301   2.134  -0.035   1.247  0.0189  1.5344 -1.5003
 2099TIP3   OH2 6302   5.919   4.909   0.524  0.1887  0.1906 -0.0414
 2099TIP3    H1 6303   5.877   4.925   0.439  2.3615 -1.2597 -1.4729
 2099TIP3    H2 6304   5.863   4.844   0.567 -1.5045  1.7062  0.1621
 2100TIP3   OH2 6305   4.433   3.923   0.103  0.5719  0.1042  0.6285
 2100TIP3    H1 6306   4.376   3.849   0.082  0.2532  0.1295  1.3602
 2100TIP3    H2 6307   4.522   3.892   0.086  0.3035  1.1336 -3.9249
 2101TIP3   OH2 6308   1.090   4.448   1.723 -0.5051 -0.3674  0.0708
 2101TIP3    H1 6309   1.087   4.526   1.779 -0.6649 -0.1742 -0.2038
 2101TIP3    H2 6310   1.000   4.417   1.721 -0.3268 -0.9581  0.7291
 2102TIP3   OH2 6311   0.502   5.620   1.643 -0.3785  0.4286 -0.2321
 2102TIP3    H1 6312   0.520   5.708   1.675  1.7342  0.3352 -0.9972
 2102TIP3    H2 6313   0.584   5.572   1.657 -0.9005 -0.9031 -1.4839
 2103TIP3   OH2 6314   0.129   3.083   1.302 -0.5414  0.4236  0.4371
 2103TIP3    H1 6315   0.095   2.996   1.320  2.3266 -1.0804 -0.6773
 2103TIP3    H2 6316   0.122   3.093   1.207 -0.1989  1.1148  0.4740
 2104TIP3   OH2 6317   0.489   5.255   2.356 -0.2981  0.2443  0.7238
 2104TIP3    H1 6318   0.582   5.231   2.350 -0.0926  1.2559 -0.8241
 2104TIP3    H2 6319   0.454   5.200   2.426  1.2193 -0.9528  0.5858
 2105TIP3   OH2 6320   1.697   0.564   0.042  0.0163 -0.1062 -0.1359
 2105TIP3    H1 6321   1.610   0.554   0.004  0.9373 -3.9608 -1.6915
 2105TIP3    H2 6322   1.749   0.605  -0.027  0.6030 -2.9201 -1.5161
 2106TIP3   OH2 6323   5.383   5.056   3.757  0.1454 -0.5465 -0.1219
 2106TIP3    H1 6324   5.367   4.985   3.819 -1.0248 -0.9672 -0.8657
 2106TIP3    H2 6325   5.473   5.082   3.772 -0.1256 -0.6058  1.7772
 2107TIP3   OH2 6326   3.983   2.440   4.285 -0.4623 -0.3319 -0.1036
 2107TIP3    H1 6327   3.971   2.515   4.344 -1.9985 -1.0191  0.5125
 2107TIP3    H2 6328   4.076   2.441   4.264 -0.4353  1.7299 -0.0867
 2108TIP3   OH2 6329   0.587   3.366   0.756 -0.9111  0.3160 -0.2096
 2108TIP3    H1 6330   0.582   3.337   0.847 -1.3419  0.3185 -0.2310
 2108TIP3    H2 6331   0.651   3.437   0.756  1.1574 -1.4498 -0.3719
 2109TIP3   OH2 6332   5.077   5.311   0.216 -0.0665 -0.1366 -0.6289
 2109TIP3    H1 6333   5.092   5.320   0.122  0.1726 -0.5067 -0.6260
 2109TIP3    H2 6334   4.982   5.324   0.226  0.1061  1.4483 -0.7353
 2110TIP3   OH2 6335   0.138   2.228   2.314  0.1119  0.4557  1.0561
 2110TIP3    H1 6336   0.122   2.220   2.220 -0.7634  1.7422  1.0678
 2110TIP3    H2 6337   0.074   2.169   2.354  0.1333  0.3050  0.8711
 2111TIP3   OH2 6338   0.371   5.589   2.269  0.0842  0.2230 -0.6624
 2111TIP3    H1 6339   0.356   5.545   2.353 -0.2019  0.7470 -0.4388
 2111TIP3    H2 6340   0.284   5.595   2.229  0.3620 -1.0694 -1.5299
 2112TIP3   OH2 6341   5.619   2.029   4.546  0.0509 -0.5023  0.0158
 2112TIP3    H1 6342   5.644   2.087   4.618 -0.2756 -0.6823  0.2756
 2112TIP3    H2 6343   5.585   1.950   4.589  0.7922 -1.0233 -0.3339
 2113TIP3   OH2 6344   4.101   0.852   2.054 -0.0719  0.3125  0.1586
 2113TIP3    H1 6345   4.085   0.945   2.036  0.2481  0.1169 -1.2150
 2113TIP3    H2 6346   4.074   0.807   1.974 -0.8247 -0.8559  1.0369
 2114TIP3   OH2 6347   3.524   5.433   4.818  0.1975 -0.4623 -0.3185
 2114TIP3    H1 6348   3.495   5.514   4.859  0.2364  0.9189 -2.8132
 2114TIP3    H2 6349   3.470   5.365   4.859 -0.1889  0.8462  1.4787
 2115TIP3   OH2 6350   3.389   4.424   0.338 -0.3762 -0.2043  0.0750
 2115TIP3    H1 6351   3.397   4.496   0.276 -2.2112 -1.4137 -1.7141
 2115TIP3    H2 6352   3.363   4.466   0.420  0.9560  1.3471 -0.2514
 2116TIP3   OH2 6353   0.169   1.076   2.098 -0.3551 -0.3979 -0.0540
 2116TIP3    H1 6354   0.175   1.118   2.013  0.4197 -0.1056  0.1402
 2116TIP3    H2 6355   0.143   0.986   2.079  0.3607 -0.4824 -0.6301
 2117TIP3   OH2 6356   3.830   1.470   3.498 -0.6658 -0.5723  0.0209
 2117TIP3    H1 6357   3.757   1.488   3.556  0.6793 -0.3755  1.7249
 2117TIP3    H2 6358   3.879   1.400   3.541  0.2400 -0.6047 -1.0021
 2118TIP3   OH2 6359   2.339   4.348   0.867  0.5648 -0.2679  0.7356
 2118TIP3    H1 6360   2.300   4.429   0.833 -0.1587 -0.4811  1.0426
 2118TIP3    H2 6361   2.266   4.286   0.870  1.0954 -0.9090  0.5858
 2119TIP3   OH2 6362   3.277   2.394   4.167 -0.8782  0.9966  0.8572
 2119TIP3    H1 6363   3.260   2.456   4.096 -1.7264 -0.2591 -0.0782
 2119TIP3    H2 6364   3.338   2.331   4.130  0.5556  1.6288  2.0363
 2120TIP3   OH2 6365   3.795   4.393   2.932  0.0875 -1.0330 -0.6960
 2120TIP3    H1 6366   3.725   4.401   2.997  0.1746 -0.0645 -0.7167
 2120TIP3    H2 6367   3.755   4.343   2.860 -0.2847 -1.3144 -0.2970
 2121TIP3   OH2 6368   2.299   2.888   0.965  0.1344 -0.3100  0.0410
 2121TIP3    H1 6369   2.267   2.800   0.945  0.3252 -0.6948  1.3472
 2121TIP3    H2 6370   2.278   2.939   0.887 -0.4423 -1.3877 -0.5358
 2122TIP3   OH2 6371   2.284   0.234   4.632  0.1146  0.8212  0.0567
 2122TIP3    H1 6372   2.355   0.250   4.571 -1.4944  0.4272 -2.0434
 2122TIP3    H2 6373   2.260   0.142   4.617  0.7480  0.1613  2.5509
 2123TIP3   OH2 6374   4.116   5.117   2.234 -0.1118  0.0362  0.1582
 2123TIP3    H1 6375   4.114   5.176   2.310  0.3876 -0.1533  0.3209
 2123TIP3    H2 6376   4.035   5.067   2.240  0.5407 -0.9266  1.3259
 2124TIP3   OH2 6377   3.531   1.751   1.831  0.1868  0.1104  0.0746
 2124TIP3    H1 6378   3.464   1.729   1.895  0.4157 -0.3241  0.1670
 2124TIP3    H2 6379   3.529   1.846   1.825  0.0027  0.1348  0.5472
 2125TIP3   OH2 6380   2.203   3.669   0.615 -0.1673 -0.1479 -0.1791
 2125TIP3    H1 6381   2.261   3.709   0.680  1.9489  0.2198 -2.1615
 2125TIP3    H2 6382   2.212   3.724   0.537 -2.0396 -0.9856 -1.0586
 2126TIP3   OH2 6383   5.376   4.939   4.297  0.1107 -0.8409 -0.2161
 2126TIP3    H1 6384   5.343   4.859   4.257 -0.8726 -1.2829  1.3736
 2126TIP3    H2 6385   5.471   4.934   4.289  0.0291 -1.8738 -0.6354
 2127TIP3   OH2 6386   1.264   5.829   1.572  0.4173  0.3443  0.0234
 2127TIP3    H1 6387   1.351   5.829   1.613  0.5100 -0.0341 -0.1745
 2127TIP3    H2 6388   1.269   5.762   1.504 -0.2410 -0.1762  0.4690
 2128TIP3   OH2 6389   1.865   2.886   2.041  0.2163 -0.2907 -0.1150
 2128TIP3    H1 6390   1.881   2.980   2.042 -0.8021 -0.0471 -1.7799
 2128TIP3    H2 6391   1.803   2.871   2.112  1.8354 -0.0618  1.4225
 2129TIP3   OH2 6392   2.851   2.446   0.049 -0.2261 -0.3001 -0.3330
 2129TIP3    H1 6393   2.800   2.494  -0.016 -1.3125  1.1404  1.4752
 2129TIP3    H2 6394   2.840   2.496   0.130  1.5285 -1.6952  0.8544
 2130TIP3   OH2 6395   6.201   4.254   4.905  0.0215 -0.0744  0.2452
 2130TIP3    H1 6396   6.148   4.299   4.970 -0.6203 -1.4059  0.6928
 2130TIP3    H2 6397   6.225   4.171   4.947  0.7994 -0.3456 -0.6934
 2131TIP3   OH2 6398   3.070   2.087   4.359 -0.6463  0.6411  0.2441
 2131TIP3    H1 6399   3.008   2.143   4.313 -0.6094 -1.6207 -2.8133
 2131TIP3    H2 6400   3.154   2.131   4.348 -0.3972 -0.4188 -3.2273
 2132TIP3   OH2 6401   6.096   3.702   4.164  0.0495  0.0040 -0.2480
 2132TIP3    H1 6402   6.072   3.618   4.126  2.0186 -0.8831  0.3322
 2132TIP3    H2 6403   6.052   3.767   4.109  0.1949 -1.3372 -2.0278
 2133TIP3   OH2 6404   4.976   2.130   3.243  0.1933  0.0150  0.4637
 2133TIP3    H1 6405   4.953   2.078   3.166 -2.1059 -1.1488  1.8376
 2133TIP3    H2 6406   5.032   2.072   3.295 -0.2117 -0.1237  0.7548
 2134TIP3   OH2 6407   6.043   1.797   1.601 -0.8849  0.6616 -0.3089
 2134TIP3    H1 6408   5.987   1.848   1.659  0.3569 -0.0256  1.5930
 2134TIP3    H2 6409   6.010   1.708   1.607 -0.4989  0.5127 -0.3214
 2135TIP3   OH2 6410   1.279   0.700   0.947 -0.9875  0.0230  0.1277
 2135TIP3    H1 6411   1.217   0.680   1.017 -1.8482 -0.1685 -0.6725
 2135TIP3    H2 6412   1.273   0.625   0.888  0.1214 -0.0673  0.1048
 2136TIP3   OH2 6413   3.392   0.192   3.397 -0.0812 -0.4081 -0.1432
 2136TIP3    H1 6414   3.387   0.141   3.316  0.3088 -0.8845  0.1254
 2136TIP3    H2 6415   3.457   0.260   3.378 -3.3791  2.5965 -1.8836
 2137TIP3   OH2 6416   5.957   2.866   0.096 -0.0184  0.0950  0.6614
 2137TIP3    H1 6417   5.999   2.782   0.079  0.1022  0.2519  0.1398
 2137TIP3    H2 6418   6.030   2.929   0.097 -0.3019  0.5174 -1.2529
 2138TIP3   OH2 6419   1.418   5.638   3.266 -0.7913 -0.4372  0.4731
 2138TIP3    H1 6420   1.432   5.567   3.204  0.0119  0.9038 -0.9657
 2138TIP3    H2 6421   1.336   5.679   3.237 -0.4429  0.1613  0.3068
 2139TIP3   OH2 6422   1.664   4.037   0.664  0.0574 -0.2252  0.1319
 2139TIP3    H1 6423   1.698   3.979   0.733 -0.8923  0.0543  0.8559
 2139TIP3    H2 6424   1.740   4.054   0.608  0.8692 -0.4473  1.1206
 2140TIP3   OH2 6425   0.181   2.968   1.826 -0.1997 -0.4986 -0.1011
 2140TIP3    H1 6426   0.198   2.876   1.847  0.5975 -0.5217 -0.7669
 2140TIP3    H2 6427   0.092   2.970   1.793 -0.4688 -0.9148  0.5878
 2141TIP3   OH2 6428   3.254   0.993   4.260 -0.4086 -0.0767 -0.3651
 2141TIP3    H1 6429   3.294   1.061   4.206 -0.0075  0.1648  0.2383
 2141TIP3    H2 6430   3.168   0.979   4.220  0.0778 -0.2685 -1.3844
 2142TIP3   OH2 6431   4.019   5.963   4.391 -0.0787 -0.5394 -0.2721
 2142TIP3    H1 6432   3.943   6.014   4.362  1.4053  1.3357 -1.0429
 2142TIP3    H2 6433   4.040   5.907   4.317 -1.2421 -1.8228  0.3025
 2143TIP3   OH2 6434   5.793   1.976   1.623  0.0532  0.0708 -0.0197
 2143TIP3    H1 6435   5.712   2.025   1.636 -0.4616 -0.8821  0.5074
 2143TIP3    H2 6436   5.766   1.898   1.574  0.5254 -0.5771  0.7226
 2144TIP3   OH2 6437   0.522   2.747   1.063 -0.3989  0.4493  0.3880
 2144TIP3    H1 6438   0.469   2.728   1.140 -2.2861  3.2372 -0.0730
 2144TIP3    H2 6439   0.461   2.740   0.990  0.2637  1.9972 -0.3606
 2145TIP3   OH2 6440   3.729   1.020   2.365  0.0742 -0.2751  0.6520
 2145TIP3    H1 6441   3.751   0.935   2.326 -0.8121 -0.4634  0.5416
 2145TIP3    H2 6442   3.706   1.075   2.290  0.2480 -0.0615  0.7567
 2146TIP3   OH2 6443   1.014   5.852   4.817 -0.7899  0.1055  0.1157
 2146TIP3    H1 6444   1.012   5.925   4.755 -0.8816  0.5714  0.6655
 2146TIP3    H2 6445   0.982   5.777   4.766 -0.1031  0.3058 -0.6272
 2147TIP3   OH2 6446   5.222   1.010   0.996  0.4754 -0.6890  0.9687
 2147TIP3    H1 6447   5.156   1.036   0.932  0.4225  0.1555  1.3416
 2147TIP3    H2 6448   5.175   0.951   1.055  0.6611 -1.8770 -0.0431
 2148TIP3   OH2 6449   5.762   0.615   2.394  0.7122  0.6572 -0.0662
 2148TIP3    H1 6450   5.823   0.680   2.428 -0.0912  1.6599 -0.4981
 2148TIP3    H2 6451   5.688   0.618   2.454  0.8284 -0.1717  0.1451
 2149TIP3   OH2 6452   5.578   5.102   3.381  0.1195  0.7071  0.1571
 2149TIP3    H1 6453   5.593   5.009   3.361  0.8304  1.0398 -0.9295
 2149TIP3    H2 6454   5.505   5.101   3.443 -1.2642 -0.4779 -1.3835
 2150TIP3   OH2 6455   0.776   1.165   3.690 -0.2984 -0.1431  0.0976
 2150TIP3    H1 6456   0.687   1.150   3.658 -0.9226  1.6066  0.8855
 2150TIP3    H2 6457   0.765   1.213   3.772  1.3800  0.5978 -0.0600
 2151TIP3   OH2 6458   4.321   0.998   1.336 -0.6432  0.1320 -0.1208
 2151TIP3    H1 6459   4.400   0.985   1.389 -0.1227 -0.8035 -1.1070
 2151TIP3    H2 6460   4.258   0.934   1.371 -0.4911 -0.0973 -0.2680
 2152TIP3   OH2 6461   3.505   0.679   4.465  0.3310  0.2997  0.6218
 2152TIP3    H1 6462   3.489   0.764   4.424 -1.0838  0.4364  1.3770
 2152TIP3    H2 6463   3.537   0.700   4.553  1.5600  0.0307  0.2437
 2153TIP3   OH2 6464   5.049   2.663   3.775  0.0821  0.0417 -0.0801
 2153TIP3    H1 6465   5.022   2.571   3.773  0.9385 -0.2464  1.0813
 2153TIP3    H2 6466   4.966   2.711   3.775 -0.3789 -0.6935 -1.1995
 2154TIP3   OH2 6467   2.934   4.904   1.211 -0.0690 -0.1158 -0.7981
 2154TIP3    H1 6468   2.890   4.949   1.283  1.8954  3.7085 -1.7272
 2154TIP3    H2 6469   2.874   4.912   1.137 -1.6034 -3.0887 -0.0390
 2155TIP3   OH2 6470   2.771   2.012   2.670 -0.0709 -0.4176  0.1093
 2155TIP3    H1 6471   2.815   2.086   2.628 -0.1041  0.2142  1.1538
 2155TIP3    H2 6472   2.767   2.035   2.763 -2.5836 -0.4420  0.0868
 2156TIP3   OH2 6473   5.758   2.437   2.824  0.2281 -0.0125  0.1747
 2156TIP3    H1 6474   5.818   2.445   2.750  1.3584 -1.8343  0.8358
 2156TIP3    H2 6475   5.761   2.345   2.848  0.4343  0.6155  2.9220
 2157TIP3   OH2 6476   3.543   1.858   4.886 -0.0306 -0.7422  0.5105
 2157TIP3    H1 6477   3.544   1.800   4.961 -1.0895 -1.1776  0.2049
 2157TIP3    H2 6478   3.455   1.895   4.885  0.4246  0.3869  0.3271
 2158TIP3   OH2 6479   3.064   4.414   2.438  0.1086  0.4054  0.0778
 2158TIP3    H1 6480   3.107   4.488   2.481 -1.7533  0.6138  1.7098
 2158TIP3    H2 6481   3.026   4.452   2.358 -0.2434  1.0870  0.5504
 2159TIP3   OH2 6482   5.930   2.124   3.547  0.0998 -0.7407  0.7388
 2159TIP3    H1 6483   5.852   2.072   3.568  0.4762 -0.8957  1.8185
 2159TIP3    H2 6484   6.000   2.059   3.536 -0.0050 -0.6438 -0.7758
 2160TIP3   OH2 6485   0.876   3.544   3.944  0.4281  0.0223  0.2068
 2160TIP3    H1 6486   0.883   3.626   3.896  3.6245  0.3559  1.0304
 2160TIP3    H2 6487   0.812   3.561   4.013  0.1311  1.3992 -0.3865
 2161TIP3   OH2 6488   1.041   4.339   1.398  0.7189  0.2261 -0.6922
 2161TIP3    H1 6489   0.949   4.360   1.415  0.8648 -1.2692  3.0547
 2161TIP3    H2 6490   1.079   4.422   1.370 -1.2343  1.6115  0.4414
 2162TIP3   OH2 6491   3.704   4.511   4.681 -0.1003  0.0268  0.2668
 2162TIP3    H1 6492   3.708   4.587   4.623 -0.5552  0.1065  0.3378
 2162TIP3    H2 6493   3.684   4.438   4.623 -0.0419  0.0208  0.2535
 2163TIP3   OH2 6494   3.366   1.614   4.421 -0.0089 -0.4188 -0.0846
 2163TIP3    H1 6495   3.421   1.630   4.497 -0.6936 -1.5965  0.6950
 2163TIP3    H2 6496   3.426   1.584   4.353  0.4948 -0.2860  0.2983
 2164TIP3   OH2 6497   5.335   5.054   3.494 -0.1171  0.3706  0.0748
 2164TIP3    H1 6498   5.358   5.033   3.584 -0.0851 -4.1490 -0.7589
 2164TIP3    H2 6499   5.244   5.026   3.484  0.1940 -0.2159 -1.4983
 2165TIP3   OH2 6500   2.000   5.341   2.515 -0.0248  0.0671 -0.3202
 2165TIP3    H1 6501   1.941   5.266   2.514 -0.2536  0.2445 -0.9252
 2165TIP3    H2 6502   2.000   5.370   2.606  1.2175 -1.5469  0.2349
 2166TIP3   OH2 6503   3.042   3.130   4.064 -0.5247  0.4916 -0.7104
 2166TIP3    H1 6504   3.002   3.068   4.003 -0.2143  1.1505 -1.6160
 2166TIP3    H2 6505   3.136   3.110   4.060 -0.5129  0.4903 -0.4017
 2167TIP3   OH2 6506   0.711   3.884   1.155 -0.2566  0.2195  0.0852
 2167TIP3    H1 6507   0.696   3.950   1.088  1.1444 -0.2253 -0.7170
 2167TIP3    H2 6508   0.624   3.847   1.173 -1.0019  2.0110  0.3016
 2168TIP3   OH2 6509   2.436   2.030   4.524  0.3823 -0.1458  0.2026
 2168TIP3    H1 6510   2.393   2.049   4.440  0.4401 -1.7765 -0.2312
 2168TIP3    H2 6511   2.399   2.094   4.584 -0.5329  0.3242 -0.8089
 2169TIP3   OH2 6512   3.202   4.493   0.558  0.1750  0.1925 -0.2207
 2169TIP3    H1 6513   3.164   4.420   0.509  1.2772 -0.6007  0.0735
 2169TIP3    H2 6514   3.148   4.500   0.637 -1.5195  1.3829 -1.4002
 2170TIP3   OH2 6515   5.367   2.863   2.014 -0.4519  0.7862  0.3553
 2170TIP3    H1 6516   5.327   2.850   2.100 -0.1932  1.0108  0.5096
 2170TIP3    H2 6517   5.316   2.807   1.956  0.5494 -0.8376  0.9820
 2171TIP3   OH2 6518   4.658   1.399   0.192  0.2544 -0.2760  0.0516
 2171TIP3    H1 6519   4.716   1.411   0.117  0.0061  0.5149 -0.0205
 2171TIP3    H2 6520   4.715   1.409   0.268 -0.0695  2.5071  0.0343
 2172TIP3   OH2 6521   4.739   3.519   2.487 -0.5324 -1.1169  0.6351
 2172TIP3    H1 6522   4.659   3.571   2.479 -0.3623 -0.9492 -0.0602
 2172TIP3    H2 6523   4.750   3.507   2.581 -0.1817  0.7550  0.8876
 2173TIP3   OH2 6524   1.354   0.911   2.438 -0.3026  0.7018  0.2081
 2173TIP3    H1 6525   1.374   1.002   2.457 -0.5072  0.5075  1.4675
 2173TIP3    H2 6526   1.338   0.872   2.524 -0.2596 -0.5081 -0.3150
 2174TIP3   OH2 6527   4.030   3.518   1.093 -1.1006 -0.1646  0.3890
 2174TIP3    H1 6528   4.031   3.422   1.093  0.7751 -0.1955  0.0431
 2174TIP3    H2 6529   3.937   3.542   1.096 -1.6251 -1.9908 -0.1560
 2175TIP3   OH2 6530   0.571   2.150   2.837  0.2819 -0.7722 -0.7517
 2175TIP3    H1 6531   0.538   2.238   2.855  0.3226 -1.0019  0.4957
 2175TIP3    H2 6532   0.496   2.104   2.799 -0.1188 -0.5731 -0.2114
 2176TIP3   OH2 6533   4.524   0.265   2.888  0.0841  0.0778 -0.0899
 2176TIP3    H1 6534   4.590   0.329   2.861 -0.4364  0.3248 -0.8163
 2176TIP3    H2 6535   4.453   0.318   2.925 -1.3140  0.1602 -2.6570
 2177TIP3   OH2 6536   1.888   3.260   2.343 -0.0705  0.0462 -0.4399
 2177TIP3    H1 6537   1.893   3.172   2.307 -0.2990 -0.2437  0.2118
 2177TIP3    H2 6538   1.853   3.247   2.432  1.0770  0.6756  0.1225
 2178TIP3   OH2 6539   4.915   2.476   1.333 -0.0935  0.1770  0.0771
 2178TIP3    H1 6540   4.827   2.474   1.372  0.2597  0.8315  0.9371
 2178TIP3    H2 6541   4.921   2.393   1.285 -1.0126 -0.0843  0.3857
 2179TIP3   OH2 6542   2.165   3.837   2.499  0.4498 -0.8223  0.3869
 2179TIP3    H1 6543   2.200   3.778   2.567 -2.1417 -1.8726  0.9135
 2179TIP3    H2 6544   2.147   3.779   2.425  0.6594 -0.1384 -0.2044
 2180TIP3   OH2 6545   1.813   1.802   1.615 -0.2107 -0.3620  0.4785
 2180TIP3    H1 6546   1.719   1.792   1.626 -0.9169  2.3208 -1.8759
 2180TIP3    H2 6547   1.846   1.713   1.605 -2.6532 -1.3215  0.3902
 2181TIP3   OH2 6548   0.396   1.467   1.682  0.2535  0.7198 -0.4058
 2181TIP3    H1 6549   0.434   1.382   1.661  0.2664  0.4168  0.7551
 2181TIP3    H2 6550   0.348   1.452   1.764  0.1466  1.7955 -0.2573
 2182TIP3   OH2 6551   5.869   1.602   3.632 -0.1528 -0.1557  0.0436
 2182TIP3    H1 6552   5.932   1.672   3.619  0.6242 -0.5446  1.4159
 2182TIP3    H2 6553   5.791   1.645   3.667  0.1272  0.1019  0.3606
 2183TIP3   OH2 6554   4.156   3.318   3.300 -0.5894  0.8884  0.2490
 2183TIP3    H1 6555   4.153   3.279   3.213  2.1998  0.5178  0.2233
 2183TIP3    H2 6556   4.187   3.407   3.286  2.3577  0.0958  0.9009
 2184TIP3   OH2 6557   0.336   1.731   0.749 -0.1984  0.1325 -0.2450
 2184TIP3    H1 6558   0.423   1.751   0.784  0.1781  0.8203 -1.5069
 2184TIP3    H2 6559   0.294   1.816   0.738 -0.8270 -0.1620 -0.1726
 2185TIP3   OH2 6560   2.670   1.165   5.073 -0.1131  0.6090  0.2221
 2185TIP3    H1 6561   2.721   1.234   5.030  2.0260 -0.8855  0.2303
 2185TIP3    H2 6562   2.597   1.149   5.014  1.4760  0.2344 -1.7353
 2186TIP3   OH2 6563   0.670   1.470   2.227 -0.0010  0.1688  0.1987
 2186TIP3    H1 6564   0.687   1.377   2.218  0.8973 -0.0488  3.0751
 2186TIP3    H2 6565   0.674   1.504   2.137  0.6379 -2.3677 -0.8236
 2187TIP3   OH2 6566   2.123   5.028   1.258 -0.3096 -0.1540  0.0130
 2187TIP3    H1 6567   2.060   5.046   1.189 -0.2499  1.3265  0.3124
 2187TIP3    H2 6568   2.116   5.103   1.318  0.7005 -0.6639  0.8170
 2188TIP3   OH2 6569   0.814   2.239   0.661  0.2424  0.2744  0.1306
 2188TIP3    H1 6570   0.781   2.253   0.572 -3.1858  0.4778  1.2706
 2188TIP3    H2 6571   0.752   2.287   0.717  1.8815 -0.4096  2.6958
 2189TIP3   OH2 6572   3.192   2.959   4.278  0.1809 -0.1060 -0.4098
 2189TIP3    H1 6573   3.236   2.877   4.255  1.8769  0.6941 -0.1859
 2189TIP3    H2 6574   3.099   2.940   4.267  0.5713 -1.8061 -1.1596
 2190TIP3   OH2 6575   2.413   3.697   1.864 -0.3279 -0.4399 -0.0197
 2190TIP3    H1 6576   2.409   3.705   1.769  1.0964  0.7105 -0.0214
 2190TIP3    H2 6577   2.334   3.741   1.895 -1.2322 -1.5525 -0.6728
 2191TIP3   OH2 6578   0.803   0.915   0.594  0.1606  0.0588 -0.7492
 2191TIP3    H1 6579   0.747   0.979   0.637 -0.8283 -1.5552  0.4674
 2191TIP3    H2 6580   0.748   0.838   0.582  2.2010 -1.8186  1.0157
 2192TIP3   OH2 6581   3.697   2.478   2.391 -0.1615 -0.0295  0.3561
 2192TIP3    H1 6582   3.743   2.446   2.314 -0.2200 -1.0544  0.7299
 2192TIP3    H2 6583   3.747   2.554   2.419 -0.4052  0.6514 -0.9522
 2193TIP3   OH2 6584   2.535   4.753   1.290 -0.1257 -0.0578  0.0659
 2193TIP3    H1 6585   2.514   4.773   1.381 -1.4272  0.4966 -0.3378
 2193TIP3    H2 6586   2.548   4.838   1.249 -1.5030 -0.1870 -0.6983
 2194TIP3   OH2 6587   0.778   2.674   2.000  0.2494 -0.1960  0.5002
 2194TIP3    H1 6588   0.848   2.620   2.036  0.0672 -0.0765  1.0424
 2194TIP3    H2 6589   0.807   2.694   1.911  1.6337  1.0917  1.1762
 2195TIP3   OH2 6590   1.615   5.310   1.119 -0.2127  0.0679 -0.1412
 2195TIP3    H1 6591   1.692   5.293   1.174 -1.0203 -0.2553  0.9275
 2195TIP3    H2 6592   1.542   5.317   1.181 -1.2494 -0.8545 -1.2097
 2196TIP3   OH2 6593   2.067   1.971   1.518 -0.3709  0.2057 -0.1950
 2196TIP3    H1 6594   2.068   1.997   1.425 -1.1006  1.5070  0.1339
 2196TIP3    H2 6595   1.989   1.917   1.527 -1.3145  1.5368 -0.0085
 2197TIP3   OH2 6596   3.644   2.307   3.023  0.7028 -0.1332 -0.4376
 2197TIP3    H1 6597   3.619   2.354   2.943  0.4468 -0.7168 -0.7112
 2197TIP3    H2 6598   3.682   2.374   3.079 -1.3277  0.7979 -0.0748
 2198TIP3   OH2 6599   2.238   5.735   3.278  0.3020 -0.4821 -0.3055
 2198TIP3    H1 6600   2.318   5.727   3.330 -0.5717  0.0430  1.1810
 2198TIP3    H2 6601   2.254   5.811   3.222  0.3494  0.4679  0.9521
 2199TIP3   OH2 6602   2.029   3.391   3.165 -0.3323  0.4659 -0.0172
 2199TIP3    H1 6603   1.977   3.406   3.244 -1.3836 -0.9526 -0.3968
 2199TIP3    H2 6604   2.120   3.389   3.196 -0.6105  1.5140  0.8945
 2200TIP3   OH2 6605   0.583   5.535   4.576  0.1909  0.0844  0.0547
 2200TIP3    H1 6606   0.666   5.544   4.623  1.2792 -0.5696 -1.6702
 2200TIP3    H2 6607   0.576   5.442   4.556 -0.7615  0.1984 -0.1903
 2201TIP3   OH2 6608   2.340   1.722   1.873  0.5580  0.2841  0.2254
 2201TIP3    H1 6609   2.423   1.729   1.921  0.9248 -1.2551 -0.1402
 2201TIP3    H2 6610   2.280   1.680   1.935  0.6676 -0.5371 -0.2119
 2202TIP3   OH2 6611   3.835   4.880   1.647 -0.0513 -0.0275  0.1060
 2202TIP3    H1 6612   3.798   4.949   1.702 -2.6639 -1.7481  0.7231
 2202TIP3    H2 6613   3.908   4.921   1.602 -0.9884  2.8871  1.0343
 2203TIP3   OH2 6614   0.727   5.808   0.763 -0.4739  0.3544 -0.6313
 2203TIP3    H1 6615   0.757   5.718   0.752 -1.3353  0.0044 -0.2088
 2203TIP3    H2 6616   0.648   5.813   0.709 -0.5531  0.7977 -0.4762
 2204TIP3   OH2 6617   3.312   2.231   4.384  0.5598 -0.0593 -0.1551
 2204TIP3    H1 6618   3.304   2.278   4.300  2.7851 -0.5550 -0.7080
 2204TIP3    H2 6619   3.349   2.296   4.444  1.2145 -0.3565 -0.2268
 2205TIP3   OH2 6620   1.702   2.637   2.479 -0.0924 -0.0182 -0.3895
 2205TIP3    H1 6621   1.783   2.678   2.509 -0.2751  0.7594 -0.9407
 2205TIP3    H2 6622   1.726   2.593   2.397 -0.1141 -0.2376 -0.2805
 2206TIP3   OH2 6623   5.635   0.699   2.650  0.0430  0.1873  0.5491
 2206TIP3    H1 6624   5.645   0.689   2.745 -0.0891 -0.3332  0.5090
 2206TIP3    H2 6625   5.557   0.648   2.629  0.5834 -0.4331  0.0276
 2207TIP3   OH2 6626   3.256   2.899   1.410  0.1203 -0.3337 -0.2227
 2207TIP3    H1 6627   3.180   2.849   1.441  0.0359  0.0586  0.2118
 2207TIP3    H2 6628   3.220   2.977   1.369  0.3015  0.1535  0.5270
 2208TIP3   OH2 6629   1.511   2.859   4.196  0.2184  0.0921  0.4216
 2208TIP3    H1 6630   1.531   2.880   4.105 -0.8414  2.7444  0.6980
 2208TIP3    H2 6631   1.586   2.893   4.245  1.0112 -1.7566  0.5483
 2209TIP3   OH2 6632   4.587   5.557   1.155  0.3797  0.1655 -0.1932
 2209TIP3    H1 6633   4.564   5.479   1.105  4.3011 -2.0238  0.9447
 2209TIP3    H2 6634   4.592   5.627   1.089  0.7374 -1.5162 -2.0627
 2210TIP3   OH2 6635   1.692   4.313   1.377  0.1230 -0.0828 -1.1550
 2210TIP3    H1 6636   1.679   4.379   1.445  2.4880  0.5524 -1.2435
 2210TIP3    H2 6637   1.679   4.229   1.422 -1.2967  0.3748 -0.6647
 2211TIP3   OH2 6638   1.840   0.986   4.604  0.4662  0.2037 -0.1675
 2211TIP3    H1 6639   1.821   0.895   4.626 -0.4175  0.6496  1.0191
 2211TIP3    H2 6640   1.798   1.037   4.673  1.9609  1.4738 -0.1236
 2212TIP3   OH2 6641   6.362   2.467   4.941  0.0469  0.0753  0.8402
 2212TIP3    H1 6642   6.345   2.553   4.980 -0.8669 -0.2942  1.2972
 2212TIP3    H2 6643   6.295   2.458   4.873  2.6153  1.4146 -2.0894
 2213TIP3   OH2 6644   2.167   4.240   1.599  0.5945 -0.3559 -0.7209
 2213TIP3    H1 6645   2.249   4.286   1.614  0.6086 -1.0440  1.8032
 2213TIP3    H2 6646   2.102   4.290   1.650 -0.0530 -1.1964 -0.7018
 2214TIP3   OH2 6647   4.312   2.589   2.677 -0.5346  0.3139  0.3424
 2214TIP3    H1 6648   4.229   2.551   2.648 -1.3597  2.1073  0.2236
 2214TIP3    H2 6649   4.291   2.630   2.761  0.5479 -0.2681  0.9091
 2215TIP3   OH2 6650   6.029   0.015   3.920  0.0818 -0.3181  0.0218
 2215TIP3    H1 6651   5.977   0.052   3.849 -0.4086 -2.6181 -0.9057
 2215TIP3    H2 6652   5.967  -0.043   3.966  0.9305 -0.4124  1.0739
 2216TIP3   OH2 6653   4.428   3.383   1.924 -0.6852  0.7234  0.0971
 2216TIP3    H1 6654   4.444   3.307   1.869 -0.9265 -1.0730  2.3665
 2216TIP3    H2 6655   4.478   3.454   1.883  4.0487 -1.8621  0.6872
 2217TIP3   OH2 6656   2.376   1.910   3.258  0.3379  0.5454  0.2499
 2217TIP3    H1 6657   2.402   2.002   3.258  1.2725  0.2944  0.7042
 2217TIP3    H2 6658   2.377   1.885   3.165  1.3197  0.6699  0.2151
 2218TIP3   OH2 6659   0.118   0.818   2.792  0.5904  0.1252 -0.1167
 2218TIP3    H1 6660   0.104   0.857   2.878 -0.3829  0.0687 -0.2473
 2218TIP3    H2 6661   0.060   0.866   2.734  1.7989  0.6911 -0.9133
 2219TIP3   OH2 6662   4.299   1.935   3.323 -0.6342 -0.2940 -0.0475
 2219TIP3    H1 6663   4.311   1.965   3.414 -1.4939  2.0934 -0.6592
 2219TIP3    H2 6664   4.376   1.881   3.306  1.2761  1.8972  1.0908
 2220TIP3   OH2 6665   5.253   3.127   3.482 -0.2986 -0.2083 -0.3298
 2220TIP3    H1 6666   5.212   3.099   3.563 -0.1193  0.6988  0.0928
 2220TIP3    H2 6667   5.259   3.048   3.429 -3.1440 -0.2812 -0.6824
 2221TIP3   OH2 6668   2.003   5.593   3.539  0.2359  0.3089  0.6040
 2221TIP3    H1 6669   2.008   5.686   3.518 -0.0288  0.1285 -0.3017
 2221TIP3    H2 6670   2.055   5.584   3.619  1.7059  0.9387 -0.2452
 2222TIP3   OH2 6671   1.361   2.409   0.108  0.0184  0.0308  0.4194
 2222TIP3    H1 6672   1.324   2.471   0.171 -0.9783  1.2250 -1.2520
 2222TIP3    H2 6673   1.437   2.454   0.071 -0.6474  0.2539 -0.7284
 2223TIP3   OH2 6674   2.791   0.804   0.654  0.3103 -0.1178 -0.1501
 2223TIP3    H1 6675   2.731   0.834   0.586 -1.0206 -1.3199  0.4469
 2223TIP3    H2 6676   2.878   0.818   0.617 -0.3349  0.8549 -1.3904
 2224TIP3   OH2 6677   3.535   5.357   3.283  0.0668  0.2321 -0.1328
 2224TIP3    H1 6678   3.441   5.355   3.300  0.3554  0.9058  1.8054
 2224TIP3    H2 6679   3.565   5.268   3.302 -0.2442 -0.1764 -1.4340
 2225TIP3   OH2 6680   5.305   1.497   0.672 -0.2152 -0.1400  0.0589
 2225TIP3    H1 6681   5.345   1.509   0.758  1.0633 -1.2216 -0.3519
 2225TIP3    H2 6682   5.271   1.408   0.674 -1.9928  0.5025  0.1276
 2226TIP3   OH2 6683   2.415   1.933   3.768 -0.0195 -0.4047 -0.1835
 2226TIP3    H1 6684   2.331   1.966   3.799  0.3736  0.3153  0.1651
 2226TIP3    H2 6685   2.400   1.913   3.675  0.3416  3.3906 -1.2481
 2227TIP3   OH2 6686   2.179   1.635   4.899 -0.2535 -0.2146 -0.1304
 2227TIP3    H1 6687   2.121   1.661   4.971  0.0342 -0.5968  0.2444
 2227TIP3    H2 6688   2.159   1.543   4.884  2.3972 -1.2690  2.0986
 2228TIP3   OH2 6689   3.587   1.250   3.245 -0.3445 -0.0772 -0.8581
 2228TIP3    H1 6690   3.542   1.166   3.245  1.7018 -1.2230 -0.0577
 2228TIP3    H2 6691   3.664   1.236   3.191  0.6106  0.9446  0.1897
 2229TIP3   OH2 6692   3.235   1.361   4.402  0.1093 -0.3222  0.1428
 2229TIP3    H1 6693   3.253   1.453   4.420  0.2653 -0.1965 -0.5986
 2229TIP3    H2 6694   3.192   1.362   4.316 -0.6957 -0.8725  0.5239
 2230TIP3   OH2 6695   1.932   5.899   1.189 -0.1673 -0.0391  0.0342
 2230TIP3    H1 6696   1.939   5.953   1.110  0.6095  1.2375  0.9404
 2230TIP3    H2 6697   1.882   5.953   1.250 -1.3014 -1.2660  0.2335
 2231TIP3   OH2 6698   5.604   1.360   3.464 -0.5547  0.0330 -0.0572
 2231TIP3    H1 6699   5.537   1.310   3.510  0.0679 -2.2297 -1.4374
 2231TIP3    H2 6700   5.677   1.365   3.526 -0.6708 -0.7268  0.1490
 2232TIP3   OH2 6701   3.171   5.300   1.411  0.0945 -0.0122  0.5451
 2232TIP3    H1 6702   3.228   5.243   1.463  0.6380  1.4188  1.5943
 2232TIP3    H2 6703   3.228   5.338   1.345 -0.4509 -1.2908 -0.7154
 2233TIP3   OH2 6704   1.479   2.517   3.160  0.3746  0.3800  0.4694
 2233TIP3    H1 6705   1.520   2.603   3.149  1.1154  0.1621  1.4404
 2233TIP3    H2 6706   1.459   2.489   3.070  1.8536  0.7363  0.0002
 2234TIP3   OH2 6707   1.591   5.883   1.402  0.0320 -0.7087 -0.5050
 2234TIP3    H1 6708   1.615   5.975   1.402  1.1872 -0.9741  0.5154
 2234TIP3    H2 6709   1.593   5.858   1.495  0.7301 -1.9880 -0.8347
 2235TIP3   OH2 6710   6.191   2.303   4.041  0.0352  0.3554  0.0541
 2235TIP3    H1 6711   6.248   2.299   3.964 -0.3269  0.8929 -0.2504
 2235TIP3    H2 6712   6.125   2.369   4.018 -0.1163  0.4657  0.7996
 2236TIP3   OH2 6713   3.906   3.125   4.382 -0.0549 -0.2463 -0.1665
 2236TIP3    H1 6714   3.963   3.146   4.457 -0.5219  0.3247  0.0333
 2236TIP3    H2 6715   3.871   3.210   4.355 -1.7015 -0.7073  0.4342
 2237TIP3   OH2 6716   1.579   4.851   3.356 -0.4117  0.2151  0.5745
 2237TIP3    H1 6717   1.516   4.923   3.356 -0.2714  0.3425  0.1860
 2237TIP3    H2 6718   1.654   4.885   3.405 -0.4627  0.2300  0.6418
 2238TIP3   OH2 6719   3.281   4.183   4.686 -0.0687 -0.0841 -0.1427
 2238TIP3    H1 6720   3.373   4.158   4.694  0.3634  1.5286  0.4096
 2238TIP3    H2 6721   3.236   4.103   4.662  1.1466 -1.4260  1.7763
 2239TIP3   OH2 6722   2.789   2.583   0.892 -0.4744 -0.5269 -0.9228
 2239TIP3    H1 6723   2.742   2.552   0.815 -2.9410  0.6178  0.0177
 2239TIP3    H2 6724   2.806   2.676   0.874  0.4154 -0.6485 -0.7541
 2240TIP3   OH2 6725   2.770   5.153   0.825  0.0077  0.3762  0.7209
 2240TIP3    H1 6726   2.850   5.105   0.805  1.1421  2.8205 -1.1227
 2240TIP3    H2 6727   2.700   5.094   0.798  1.2252 -1.0779  0.5914
 2241TIP3   OH2 6728   0.871   2.632   2.450 -0.2078  0.2781 -0.0282
 2241TIP3    H1 6729   0.780   2.612   2.427  0.0826 -0.2180 -0.7665
 2241TIP3    H2 6730   0.876   2.728   2.445 -0.2054  0.2313 -1.9861
 2242TIP3   OH2 6731   0.828   1.069   1.931  0.3536 -0.2185  0.5639
 2242TIP3    H1 6732   0.873   1.052   1.848  0.3088 -1.5169  0.7881
 2242TIP3    H2 6733   0.888   1.035   1.998 -1.5656 -3.5242  0.7955
 2243TIP3   OH2 6734   4.155   4.006   1.451 -0.1814  0.7190  0.6123
 2243TIP3    H1 6735   4.097   4.069   1.408  0.3779  1.2440  0.6119
 2243TIP3    H2 6736   4.241   4.023   1.412  0.0864  0.3543  1.0409
 2244TIP3   OH2 6737   6.152   1.153   2.633 -0.3457  0.1845  0.2781
 2244TIP3    H1 6738   6.079   1.140   2.572 -1.4234  1.1212  1.3115
 2244TIP3    H2 6739   6.171   1.246   2.628  1.1485 -0.1185 -0.3251
 2245TIP3   OH2 6740   5.783   0.330   2.895  0.2969  0.7148  0.1969
 2245TIP3    H1 6741   5.816   0.263   2.956  0.7248  1.0036  0.2892
 2245TIP3    H2 6742   5.862   0.368   2.856  0.1236  1.9756  1.0139
 2246TIP3   OH2 6743   3.863   2.134   3.259  0.3098  0.2019 -0.2500
 2246TIP3    H1 6744   3.892   2.217   3.221 -0.1440 -0.4854 -2.2442
 2246TIP3    H2 6745   3.937   2.074   3.246  1.3257  0.6292  2.7349
 2247TIP3   OH2 6746   2.798   1.003   3.244 -0.2928  0.1403  0.2019
 2247TIP3    H1 6747   2.878   0.959   3.273 -1.2753  0.2557  3.5487
 2247TIP3    H2 6748   2.820   1.097   3.249 -0.7565  0.1986  1.8302
 2248TIP3   OH2 6749   5.845   3.409   3.631 -0.1646  0.6749 -0.1747
 2248TIP3    H1 6750   5.858   3.414   3.537  1.8293 -0.7897 -0.0562
 2248TIP3    H2 6751   5.824   3.317   3.647 -1.9472  1.1839  0.7077
 2249TIP3   OH2 6752   2.920   3.872   4.668 -0.0044 -0.4171 -0.2177
 2249TIP3    H1 6753   3.008   3.904   4.646  0.4880 -1.0802  0.6782
 2249TIP3    H2 6754   2.915   3.881   4.764 -1.2460  0.4139 -0.3395
 2250TIP3   OH2 6755   3.467   0.361   2.827 -0.7059  0.0574  0.1936
 2250TIP3    H1 6756   3.413   0.353   2.905 -0.0962 -1.7239  0.4864
 2250TIP3    H2 6757   3.433   0.294   2.767  0.5275 -0.4334  0.0112
 2251TIP3   OH2 6758   4.679   1.719   1.345  0.7765 -0.0760 -0.8800
 2251TIP3    H1 6759   4.728   1.797   1.368 -0.8222  0.7627 -0.1923
 2251TIP3    H2 6760   4.619   1.747   1.276 -0.9836 -0.2271  0.5141
 2252TIP3   OH2 6761   4.173   4.230   1.817 -0.4268 -0.7132  0.3359
 2252TIP3    H1 6762   4.215   4.216   1.902 -0.6868  0.7319  0.7253
 2252TIP3    H2 6763   4.084   4.257   1.839 -0.2697  0.4339 -0.3515
 2253TIP3   OH2 6764   4.035   1.614   1.638 -0.1708  0.4332 -0.3411
 2253TIP3    H1 6765   4.052   1.614   1.732  0.1788 -1.4093 -0.3553
 2253TIP3    H2 6766   3.944   1.586   1.629  0.4210 -1.6531 -0.5448
 2254TIP3   OH2 6767   5.795   3.341   4.684  0.3165 -0.6545  0.4356
 2254TIP3    H1 6768   5.701   3.343   4.701 -0.3795 -0.2172 -2.7338
 2254TIP3    H2 6769   5.813   3.250   4.662  0.4089 -0.5455  0.0524
 2255TIP3   OH2 6770   2.781   4.771   3.135 -0.4593 -0.0627  0.1912
 2255TIP3    H1 6771   2.858   4.768   3.192 -0.3578  0.4399  0.0851
 2255TIP3    H2 6772   2.742   4.684   3.143  0.6950 -0.6740 -0.5481
 2256TIP3   OH2 6773   0.051   4.751   2.184  0.1075  0.4326  0.0522
 2256TIP3    H1 6774   0.073   4.658   2.175 -0.1474  0.3497  0.2746
 2256TIP3    H2 6775   0.085   4.791   2.105 -0.1146  0.0889 -0.2211
 2257TIP3   OH2 6776   4.220   0.518   4.858 -0.2863  0.9828 -0.6015
 2257TIP3    H1 6777   4.249   0.432   4.828 -2.1544  0.6418 -1.5877
 2257TIP3    H2 6778   4.259   0.580   4.796  0.9856  0.8664  0.0551
 2258TIP3   OH2 6779   2.619   1.153   0.134 -0.1954 -0.0103  0.1270
 2258TIP3    H1 6780   2.604   1.071   0.181  1.5785  0.5884  1.9242
 2258TIP3    H2 6781   2.532   1.192   0.126 -0.8220 -1.1142  1.1293
 2259TIP3   OH2 6782   1.371   4.237   1.524 -0.0486 -0.4443 -0.3756
 2259TIP3    H1 6783   1.282   4.205   1.515  0.4420 -1.5557 -1.7297
 2259TIP3    H2 6784   1.362   4.332   1.528 -1.1938 -0.3205 -3.1402
 2260TIP3   OH2 6785   3.752   2.433   0.519  0.3203  0.1127  0.0436
 2260TIP3    H1 6786   3.711   2.347   0.530 -0.9783  0.6423 -0.4555
 2260TIP3    H2 6787   3.684   2.495   0.548  0.9071  1.0043 -0.4714
 2261TIP3   OH2 6788   4.312   5.592   2.976 -0.0890  0.8847  0.2102
 2261TIP3    H1 6789   4.381   5.610   3.040  0.4702  0.5568 -0.2831
 2261TIP3    H2 6790   4.279   5.678   2.951  0.3881  1.0667  0.1967
 2262TIP3   OH2 6791   5.380   5.841   4.925 -0.4796 -0.3524  0.6939
 2262TIP3    H1 6792   5.356   5.769   4.983  0.9800  0.2968  2.1720
 2262TIP3    H2 6793   5.368   5.919   4.979 -1.2775  0.4710 -0.6279
 2263TIP3   OH2 6794   1.437   1.221   5.074 -0.6534 -0.7893  0.3561
 2263TIP3    H1 6795   1.460   1.136   5.036 -0.2982 -0.6460  0.2502
 2263TIP3    H2 6796   1.431   1.204   5.168  1.7114 -0.4436  0.6293
 2264TIP3   OH2 6797   0.020   2.811   3.133  0.1812 -0.1434  0.3973
 2264TIP3    H1 6798   0.097   2.855   3.169  0.0231  0.2625  0.2525
 2264TIP3    H2 6799   0.037   2.718   3.147  0.2160 -0.0117  1.3303
 2265TIP3   OH2 6800   2.171   1.483   1.188 -0.3557 -0.7645  0.2850
 2265TIP3    H1 6801   2.082   1.449   1.184 -0.9740  0.8528 -1.3728
 2265TIP3    H2 6802   2.172   1.538   1.267 -1.1153 -0.1574 -0.1043
 2266TIP3   OH2 6803   0.109   0.785   4.269 -0.1645  0.1946  0.4476
 2266TIP3    H1 6804   0.095   0.770   4.175  1.1729 -1.5925  0.4809
 2266TIP3    H2 6805   0.173   0.857   4.272 -0.6793  0.6847  0.0296
 2267TIP3   OH2 6806   1.986   5.924   5.173 -0.0141 -0.4799  0.0963
 2267TIP3    H1 6807   1.969   5.942   5.080  1.8405  0.6253 -0.0852
 2267TIP3    H2 6808   1.991   5.829   5.179 -0.6679 -0.5852 -0.8258
 2268TIP3   OH2 6809   3.587   0.163   0.237  0.2272  0.1330  0.0058
 2268TIP3    H1 6810   3.516   0.103   0.214 -1.3660  2.5103 -1.7545
 2268TIP3    H2 6811   3.562   0.197   0.323 -1.5869  1.9054 -1.1329
 2269TIP3   OH2 6812   5.735   5.952   4.363 -0.0655 -0.5229 -0.3261
 2269TIP3    H1 6813   5.742   5.998   4.446  0.0378  1.7912 -1.5250
 2269TIP3    H2 6814   5.653   5.903   4.368  0.1917 -0.8224  1.2843
 2270TIP3   OH2 6815   5.169   5.936   3.770  0.0726 -0.0704  0.5671
 2270TIP3    H1 6816   5.156   6.029   3.787  0.2759  0.3269 -1.2787
 2270TIP3    H2 6817   5.215   5.904   3.848  0.5501  1.4936  0.9711
 2271TIP3   OH2 6818   2.978   4.006   0.651  0.5789  0.3940  0.6858
 2271TIP3    H1 6819   2.922   4.083   0.643 -0.8910 -0.7168 -0.1197
 2271TIP3    H2 6820   3.035   4.026   0.726  1.2524  2.8464 -0.3629
 2272TIP3   OH2 6821   0.346   3.984   3.593  0.1922 -0.1308  0.2368
 2272TIP3    H1 6822   0.367   4.075   3.611  1.2964 -0.0407 -1.3313
 2272TIP3    H2 6823   0.286   3.959   3.663  2.0345  0.9655  2.3421
 2273TIP3   OH2 6824   0.710   3.097   0.367 -0.6455  0.5236  0.0733
 2273TIP3    H1 6825   0.698   3.117   0.459  1.4312 -0.2133  0.5465
 2273TIP3    H2 6826   0.782   3.154   0.339  0.1802 -0.7572 -0.5138
 2274TIP3   OH2 6827   4.274   3.322   1.664 -0.1512  0.4708  0.4862
 2274TIP3    H1 6828   4.208   3.262   1.698 -0.1765  0.0693 -0.2574
 2274TIP3    H2 6829   4.225   3.388   1.616  0.0453 -0.9836 -1.8803
 2275TIP3   OH2 6830   3.398   2.410   4.576 -0.1687 -0.0537  0.9542
 2275TIP3    H1 6831   3.330   2.461   4.533 -0.3482 -0.3660  0.8614
 2275TIP3    H2 6832   3.446   2.473   4.629  0.3031  0.4102 -0.0015
 2276TIP3   OH2 6833   3.484   1.222   4.464 -0.1296 -0.7408  0.3973
 2276TIP3    H1 6834   3.520   1.243   4.378 -0.1551  1.3991  0.8351
 2276TIP3    H2 6835   3.396   1.259   4.463 -0.3043 -1.1010  1.1843
 2277TIP3   OH2 6836   1.998   1.068   0.712  0.4722  0.4979  0.3888
 2277TIP3    H1 6837   1.972   1.077   0.620  0.3604  0.9901  0.4668
 2277TIP3    H2 6838   1.933   1.007   0.748  1.2958 -0.7654 -0.1632
 2278TIP3   OH2 6839   3.407   0.548   0.259  0.1160 -0.2479 -0.1079
 2278TIP3    H1 6840   3.440   0.492   0.189  0.7280 -0.2619  0.1897
 2278TIP3    H2 6841   3.326   0.505   0.287 -1.0529  0.6426 -1.9274
 2279TIP3   OH2 6842   0.736   1.119   4.985  0.1746 -0.2448 -0.2462
 2279TIP3    H1 6843   0.774   1.038   5.018 -1.6003 -0.1928  2.2494
 2279TIP3    H2 6844   0.673   1.091   4.918  0.5458 -0.8112 -0.3604
 2280TIP3   OH2 6845   0.198   3.252   5.023  0.0755  0.2748 -0.7253
 2280TIP3    H1 6846   0.189   3.181   5.088  2.6148  0.7702  0.2821
 2280TIP3    H2 6847   0.213   3.206   4.940  4.1206 -0.5971  0.2619
 2281TIP3   OH2 6848   0.490   2.222   0.841  0.0216  0.1191  0.0157
 2281TIP3    H1 6849   0.445   2.139   0.851 -0.5953  0.3074 -1.0437
 2281TIP3    H2 6850   0.557   2.222   0.910  0.6266 -1.6296 -0.5344
 2282TIP3   OH2 6851   5.494   0.871   2.012  0.1092  0.2368 -0.0714
 2282TIP3    H1 6852   5.578   0.906   1.984  0.7539 -0.8974  0.4024
 2282TIP3    H2 6853   5.453   0.944   2.059  0.6926  0.8863 -0.5348
 2283TIP3   OH2 6854   1.872   3.068   3.721 -0.0210  0.3670 -0.2253
 2283TIP3    H1 6855   1.916   3.129   3.781 -2.1405  1.0592  0.7222
 2283TIP3    H2 6856   1.796   3.116   3.689 -1.2462 -1.4557 -0.1935
 2284TIP3   OH2 6857   3.807   0.576   4.741 -0.2784  0.0214  0.3323
 2284TIP3    H1 6858   3.872   0.522   4.696  2.0106  0.7131  2.5520
 2284TIP3    H2 6859   3.811   0.661   4.699 -0.5236 -0.2207 -0.1903
 2285TIP3   OH2 6860   3.086   2.632   3.137  0.6661  0.4355  0.3193
 2285TIP3    H1 6861   3.012   2.571   3.136  0.7092  0.3828  0.3114
 2285TIP3    H2 6862   3.054   2.708   3.184  1.0065 -0.0935  1.4445
 2286TIP3   OH2 6863   0.165   4.477   3.553 -0.1005  0.2841 -0.0630
 2286TIP3    H1 6864   0.217   4.452   3.630 -0.9313 -2.2781 -0.2539
 2286TIP3    H2 6865   0.090   4.525   3.589  1.2079  2.1151  0.3804
 2287TIP3   OH2 6866   5.286   4.868   3.949  0.1992 -0.0738  0.7317
 2287TIP3    H1 6867   5.287   4.791   4.005  0.7550 -2.0533 -1.8129
 2287TIP3    H2 6868   5.202   4.862   3.903  1.1442 -0.3817 -1.0143
 2288TIP3   OH2 6869   5.917   0.526   4.808 -0.3835  0.1208  0.2280
 2288TIP3    H1 6870   5.982   0.577   4.760 -0.5940 -0.4286 -0.6717
 2288TIP3    H2 6871   5.968   0.464   4.861 -0.1061  1.6252  1.8002
 2289TIP3   OH2 6872   6.186   5.269   1.019  0.2010 -0.7946 -0.0710
 2289TIP3    H1 6873   6.274   5.292   0.989  0.6683 -0.0571  1.7085
 2289TIP3    H2 6874   6.188   5.287   1.113 -1.7744 -1.0553  0.0556
 2290TIP3   OH2 6875   2.850   1.902   1.948  0.8459  0.2237  0.7832
 2290TIP3    H1 6876   2.840   1.996   1.963 -1.1155  0.0504  0.8591
 2290TIP3    H2 6877   2.888   1.896   1.860  1.2981  1.0920  0.9076
 2291TIP3   OH2 6878   1.926   2.418   2.558 -0.1675 -0.3479  0.1382
 2291TIP3    H1 6879   1.963   2.404   2.471 -2.9752 -0.8075 -1.0940
 2291TIP3    H2 6880   1.949   2.509   2.580  2.4316 -0.8912 -0.0365
 2292TIP3   OH2 6881   2.374   4.224   2.223  0.0568  0.4379 -0.0887
 2292TIP3    H1 6882   2.351   4.302   2.172  1.6751  0.7823 -0.3591
 2292TIP3    H2 6883   2.384   4.154   2.158  1.1621  0.6473 -0.1688
 2293TIP3   OH2 6884   4.452   1.589   0.448  0.1463  0.0892 -0.3879
 2293TIP3    H1 6885   4.413   1.676   0.436 -1.9879 -0.6732  0.3807
 2293TIP3    H2 6886   4.406   1.534   0.385 -2.5262 -1.4962  2.6093
 2294TIP3   OH2 6887   2.364   3.096   2.760 -0.4024  0.3573 -0.0901
 2294TIP3    H1 6888   2.432   3.146   2.716  1.2716  1.0019  2.9894
 2294TIP3    H2 6889   2.320   3.049   2.689  1.0861  2.4200 -2.5616
 2295TIP3   OH2 6890   4.835   5.966   3.693  0.5450 -0.1737 -0.1740
 2295TIP3    H1 6891   4.882   5.898   3.645 -0.3130 -0.3718 -0.7471
 2295TIP3    H2 6892   4.874   6.048   3.663  1.1841 -0.3770  0.0830
 2296TIP3   OH2 6893   2.976   3.340   3.840 -0.6765  0.2344 -0.5184
 2296TIP3    H1 6894   3.012   3.330   3.928 -0.1789  0.5164 -0.6859
 2296TIP3    H2 6895   2.983   3.254   3.800  1.6303  0.6766 -1.2263
 2297TIP3   OH2 6896   0.415   1.169   0.163  1.1795  0.1493 -0.1237
 2297TIP3    H1 6897   0.504   1.134   0.173  1.6851  1.0189 -1.2959
 2297TIP3    H2 6898   0.428   1.254   0.121 -0.1652  0.7015  0.5498
 2298TIP3   OH2 6899   1.167   0.020   2.338 -0.1676 -0.1184 -0.6479
 2298TIP3    H1 6900   1.210  -0.064   2.320  0.8322 -0.1584  1.5810
 2298TIP3    H2 6901   1.236   0.085   2.327 -0.4989  0.2345 -0.6504
 2299TIP3   OH2 6902   2.387   4.368   1.710  0.0381  0.2031  0.1049
 2299TIP3    H1 6903   2.466   4.340   1.757  0.3486  0.6325 -0.1476
 2299TIP3    H2 6904   2.341   4.423   1.773  0.4835  0.8255 -0.1009
 2300TIP3   OH2 6905   2.553   1.901   4.143  0.3498 -0.2355  0.5156
 2300TIP3    H1 6906   2.613   1.944   4.081  1.0956  0.3595  1.6237
 2300TIP3    H2 6907   2.604   1.893   4.223 -0.4537 -1.4209  0.9287
 2301TIP3   OH2 6908   3.978   4.163   3.295  0.1213  0.5825 -0.2645
 2301TIP3    H1 6909   3.913   4.221   3.334  0.5755  1.3296 -0.5914
 2301TIP3    H2 6910   3.928   4.086   3.267 -0.6918  1.3292 -0.9058
 2302TIP3   OH2 6911   4.131   1.563   3.602 -0.2522 -0.3082 -0.1545
 2302TIP3    H1 6912   4.085   1.633   3.557 -0.1215 -0.3641 -0.3774
 2302TIP3    H2 6913   4.068   1.531   3.667 -0.7956 -0.8684 -0.9415
 2303TIP3   OH2 6914   2.978   4.504   0.737 -0.2651 -0.0471  0.3680
 2303TIP3    H1 6915   2.887   4.505   0.765  0.0668 -1.8935  1.7758
 2303TIP3    H2 6916   3.021   4.442   0.797  2.2681  1.9214  0.7790
 2304TIP3   OH2 6917   2.501   5.657   1.909  0.5020 -0.2960 -1.0199
 2304TIP3    H1 6918   2.481   5.606   1.831 -0.1634 -1.5969 -0.0403
 2304TIP3    H2 6919   2.592   5.635   1.930 -0.1243 -2.0297  0.0435
 2305TIP3   OH2 6920   0.069   5.823   0.877  0.3238  0.7562  0.5208
 2305TIP3    H1 6921   0.006   5.757   0.849 -0.3484  1.8139 -0.5945
 2305TIP3    H2 6922   0.080   5.879   0.800  1.6438  1.3559  1.1137
 2306TIP3   OH2 6923   2.429   5.456   2.072  0.8024 -0.1537 -0.0209
 2306TIP3    H1 6924   2.423   5.401   1.994 -1.1367  0.9355 -0.6978
 2306TIP3    H2 6925   2.456   5.541   2.039 -1.3887  0.7015  0.2351
 2307TIP3   OH2 6926   3.044   4.875   4.361  0.0038  0.6497 -0.2264
 2307TIP3    H1 6927   2.961   4.843   4.325  0.3939  2.2621 -2.8275
 2307TIP3    H2 6928   3.111   4.829   4.312  0.5584  2.9959 -1.8303
 2308TIP3   OH2 6929   1.006   2.064   1.645  0.2148 -0.2171  0.3693
 2308TIP3    H1 6930   0.997   2.052   1.739 -0.3198  0.1406  0.3633
 2308TIP3    H2 6931   0.931   2.018   1.607 -1.0912  1.8834  0.2702
 2309TIP3   OH2 6932   1.223  -0.014   3.225  0.0619  0.7336 -0.8010
 2309TIP3    H1 6933   1.288  -0.042   3.160  1.0302  0.6669  0.1729
 2309TIP3    H2 6934   1.210   0.080   3.207  0.6388  0.8107 -0.8222
 2310TIP3   OH2 6935   2.197   5.439   0.896  0.3457 -0.6554 -0.3044
 2310TIP3    H1 6936   2.136   5.377   0.856  0.0298  0.1831 -1.1408
 2310TIP3    H2 6937   2.261   5.458   0.828  0.0533  0.4578 -0.2862
 2311TIP3   OH2 6938   0.746   3.999   0.318  0.3336  0.1520  1.0444
 2311TIP3    H1 6939   0.692   3.953   0.382 -0.2010  1.6193  1.6865
 2311TIP3    H2 6940   0.702   3.985   0.234  0.7633 -1.3619  1.0459
 2312TIP3   OH2 6941   5.942   5.183   3.325 -0.1783 -0.6647  0.6789
 2312TIP3    H1 6942   5.877   5.215   3.387 -0.4648 -0.2187  0.1516
 2312TIP3    H2 6943   5.897   5.115   3.275 -1.2615  1.7089 -1.7724
 2313TIP3   OH2 6944   5.579   1.317   4.782 -0.0396 -0.5506  0.2102
 2313TIP3    H1 6945   5.592   1.324   4.877  0.9889  1.0967 -0.0292
 2313TIP3    H2 6946   5.507   1.377   4.763 -0.0583 -0.6667 -0.0944
 2314TIP3   OH2 6947   3.854   1.525   4.387  0.0238 -0.0223 -0.0483
 2314TIP3    H1 6948   3.771   1.553   4.424  0.4486 -0.4812  1.2967
 2314TIP3    H2 6949   3.920   1.559   4.447  0.8792  0.9270 -1.4569
 2315TIP3   OH2 6950   3.169   3.257   0.422 -0.7008 -0.4700  0.7369
 2315TIP3    H1 6951   3.077   3.270   0.444 -1.3893 -3.4436  0.0679
 2315TIP3    H2 6952   3.195   3.179   0.470  1.3573  0.0067  0.5099
 2316TIP3   OH2 6953   1.550   1.509   3.672 -0.2592 -0.2360 -0.2581
 2316TIP3    H1 6954   1.632   1.553   3.692 -0.7342 -0.4922  2.8441
 2316TIP3    H2 6955   1.510   1.561   3.603  1.3044  1.4499  0.0507
 2317TIP3   OH2 6956   0.239   2.353   3.835  0.3740  0.1065 -0.2587
 2317TIP3    H1 6957   0.156   2.334   3.792  0.8843  1.3343 -1.8796
 2317TIP3    H2 6958   0.264   2.270   3.876 -0.1412 -1.1691 -2.3928
 2318TIP3   OH2 6959   0.292   5.676   0.938  0.3753 -0.4301 -0.1215
 2318TIP3    H1 6960   0.298   5.631   0.853 -0.8580 -0.8193 -0.0182
 2318TIP3    H2 6961   0.267   5.766   0.916 -1.1151 -0.8191 -0.1414
 2319TIP3   OH2 6962   5.057   5.831   1.706 -0.2162 -0.2506 -0.1005
 2319TIP3    H1 6963   5.089   5.917   1.735 -3.5263  0.7207  1.1540
 2319TIP3    H2 6964   5.070   5.831   1.611  0.2158  1.5075 -0.0748
 2320TIP3   OH2 6965   3.800   0.548   3.324 -0.0682 -0.5458 -0.0954
 2320TIP3    H1 6966   3.843   0.594   3.396  1.0685 -2.1332  0.2887
 2320TIP3    H2 6967   3.783   0.617   3.259  2.0783  0.3556  0.2077
 2321TIP3   OH2 6968   2.345   4.500   2.796 -0.5922  0.1906  0.0632
 2321TIP3    H1 6969   2.388   4.423   2.760 -1.3963 -0.5018  0.5240
 2321TIP3    H2 6970   2.303   4.469   2.877  0.0625  1.3891  0.9024
 2322TIP3   OH2 6971   4.256   2.443   2.125  1.1431 -0.2996  0.6193
 2322TIP3    H1 6972   4.291   2.483   2.045 -0.3785  0.4449  0.2961
 2322TIP3    H2 6973   4.247   2.517   2.186 -1.5935 -0.0731  0.0551
 2323TIP3   OH2 6974   1.766   3.585   3.595 -0.2114 -0.2642 -0.0330
 2323TIP3    H1 6975   1.787   3.661   3.542 -1.0351 -0.8409 -1.2240
 2323TIP3    H2 6976   1.688   3.610   3.645  1.5080  0.8858  2.2914
 2324TIP3   OH2 6977   3.354   0.013   2.249  0.4430 -0.2153 -0.0058
 2324TIP3    H1 6978   3.352  -0.003   2.343  1.0551 -0.0833  0.0384
 2324TIP3    H2 6979   3.438   0.058   2.235  1.2570 -1.9167 -0.8658
 2325TIP3   OH2 6980   3.475   0.072   4.455 -0.0641  0.3631  0.4719
 2325TIP3    H1 6981   3.533   0.148   4.466 -0.4428  0.5986  0.9065
 2325TIP3    H2 6982   3.391   0.102   4.490 -0.0625 -0.4571  1.1900
 2326TIP3   OH2 6983   4.367   1.091   0.040  0.1224 -0.3119  0.3197
 2326TIP3    H1 6984   4.353   1.184   0.021  0.3266 -0.1074  1.1283
 2326TIP3    H2 6985   4.337   1.046  -0.039  1.1008  0.5057 -0.5732
 2327TIP3   OH2 6986   4.074   2.479   3.690  0.0541 -0.1074 -0.3789
 2327TIP3    H1 6987   4.040   2.451   3.605 -1.5505  0.8461 -0.0942
 2327TIP3    H2 6988   4.122   2.560   3.673 -1.4911  0.8800 -0.2198
 2328TIP3   OH2 6989   6.001   0.449   2.712  0.4223  0.1497 -0.1456
 2328TIP3    H1 6990   5.969   0.521   2.766  0.4062  0.5673 -0.7025
 2328TIP3    H2 6991   6.069   0.488   2.657 -1.9763  0.6594 -3.0047
 2329TIP3   OH2 6992   1.558   0.753   0.494 -0.2667 -0.0374 -0.0201
 2329TIP3    H1 6993   1.606   0.672   0.479  0.3593  0.4989 -0.9895
 2329TIP3    H2 6994   1.501   0.762   0.418  1.6681  1.8166 -1.3546
 2330TIP3   OH2 6995   4.909   2.136   2.148 -0.1616 -0.1322  0.4569
 2330TIP3    H1 6996   4.942   2.047   2.148 -0.4674 -0.2892  2.3204
 2330TIP3    H2 6997   4.985   2.190   2.126  0.3752 -0.7549  0.7470
 2331TIP3   OH2 6998   4.274   2.250   2.930  0.0699 -0.0020  0.2416
 2331TIP3    H1 6999   4.258   2.345   2.928  0.6685  0.0983 -0.6548
 2331TIP3    H2 7000   4.298   2.229   2.840 -0.4025 -1.0780  0.3524
 2332TIP3   OH2 7001   4.225   3.688   1.195  0.4587 -0.1980 -0.0473
 2332TIP3    H1 7002   4.242   3.674   1.288  2.1943 -2.3329 -0.6169
 2332TIP3    H2 7003   4.174   3.612   1.167  0.7689 -0.0734 -1.0177
 2333TIP3   OH2 7004   5.390   5.426   3.244  0.3326 -0.7406 -0.5313
 2333TIP3    H1 7005   5.419   5.480   3.317  3.0803 -2.8567  0.0742
 2333TIP3    H2 7006   5.294   5.426   3.251  0.2358  3.0236  0.0639
 2334TIP3   OH2 7007   5.645   1.865   5.162 -0.1012  0.4574  0.9553
 2334TIP3    H1 7008   5.740   1.850   5.158  0.2794  2.2077  2.0647
 2334TIP3    H2 7009   5.624   1.901   5.075  0.0859 -0.6142  0.4472
 2335TIP3   OH2 7010   0.795   3.329   1.130  0.4152 -0.2239 -0.3061
 2335TIP3    H1 7011   0.769   3.420   1.145 -0.9292 -0.5158 -0.7264
 2335TIP3    H2 7012   0.802   3.322   1.035 -0.9135 -0.9250 -0.3588
 2336TIP3   OH2 7013   3.903   1.298   1.516  1.0193  0.3192  0.2840
 2336TIP3    H1 7014   3.990   1.259   1.525  0.4140 -1.3162 -0.6761
 2336TIP3    H2 7015   3.863   1.253   1.442  0.1681  2.6254 -0.7433
 2337TIP3   OH2 7016   3.725   5.368   3.737 -0.2895 -0.3446  0.6904
 2337TIP3    H1 7017   3.710   5.276   3.760 -1.3698 -0.8811 -1.7829
 2337TIP3    H2 7018   3.791   5.364   3.667 -0.0023  0.8107  0.8816
 2338TIP3   OH2 7019   0.742   4.885   0.776 -0.6276  0.2199 -0.2441
 2338TIP3    H1 7020   0.756   4.980   0.777 -1.5056  0.3487  0.0997
 2338TIP3    H2 7021   0.808   4.853   0.714 -1.4785  1.2391 -1.7454
 2339TIP3   OH2 7022   4.753   2.635   0.693  0.4470 -0.0114 -0.5315
 2339TIP3    H1 7023   4.809   2.708   0.719 -1.8925  1.3626  1.0678
 2339TIP3    H2 7024   4.781   2.562   0.748  0.0541  0.9509  1.0011
 2340TIP3   OH2 7025   2.807   2.863   0.959 -0.0028  0.0913  0.0195
 2340TIP3    H1 7026   2.845   2.906   1.035  0.8632 -0.7302  0.0769
 2340TIP3    H2 7027   2.777   2.935   0.903 -0.5504  0.7003  1.0673
 2341TIP3   OH2 7028   4.051   0.304   3.862 -0.4986  0.2737 -0.3900
 2341TIP3    H1 7029   4.063   0.393   3.894 -0.4694  0.3859 -0.7126
 2341TIP3    H2 7030   4.123   0.292   3.799 -0.5000  0.0222 -0.3432
 2342TIP3   OH2 7031   4.832   1.241   1.052 -0.2324  0.0974 -0.5210
 2342TIP3    H1 7032   4.878   1.197   1.123 -0.9511 -1.3850 -0.9286
 2342TIP3    H2 7033   4.858   1.333   1.060 -0.1366 -0.0523  1.5226
 2343TIP3   OH2 7034   4.308   5.166   0.108  0.0945 -0.1734  0.0222
 2343TIP3    H1 7035   4.222   5.207   0.095  0.8428  0.6624 -2.9043
 2343TIP3    H2 7036   4.297   5.078   0.074  0.1392 -0.4465  0.6924
 2344TIP3   OH2 7037   4.888   3.693   3.345 -0.1833  0.1604 -0.3409
 2344TIP3    H1 7038   4.922   3.752   3.412  0.6763 -1.2398  0.5329
 2344TIP3    H2 7039   4.959   3.630   3.330 -2.3165 -3.1342  1.8203
 2345TIP3   OH2 7040   2.187   4.994   5.010  0.2863 -0.6045 -0.5829
 2345TIP3    H1 7041   2.094   4.974   5.001 -0.6197  1.9287  1.5622
 2345TIP3    H2 7042   2.202   5.067   4.951 -0.0313  1.1763  1.4008
 2346TIP3   OH2 7043   3.021   2.868   1.153  0.0212  0.3948 -0.0481
 2346TIP3    H1 7044   3.104   2.915   1.148  0.2296  0.0716  0.3008
 2346TIP3    H2 7045   2.995   2.874   1.245  0.5477 -1.0018  0.2228
 2347TIP3   OH2 7046   0.460   1.724   1.773 -0.3196 -0.4124  0.1868
 2347TIP3    H1 7047   0.438   1.658   1.708 -1.0143  1.9642 -2.1882
 2347TIP3    H2 7048   0.377   1.742   1.818 -0.1175 -1.1250  0.8768
 2348TIP3   OH2 7049   1.726   0.181   0.119  0.1027 -0.3681  0.3282
 2348TIP3    H1 7050   1.668   0.162   0.192  1.2529 -0.9769  1.1242
 2348TIP3    H2 7051   1.712   0.274   0.100  0.6499  0.1375  2.1537
 2349TIP3   OH2 7052   2.822   3.782   4.135 -0.1910 -0.2730  0.3181
 2349TIP3    H1 7053   2.794   3.865   4.096 -1.1956  0.0965  1.7303
 2349TIP3    H2 7054   2.823   3.799   4.229 -0.0393 -1.7621  0.6085
 2350TIP3   OH2 7055   5.506   4.669   2.043  0.4826  0.7974  0.0383
 2350TIP3    H1 7056   5.592   4.667   2.000 -0.5671 -2.3696 -2.2601
 2350TIP3    H2 7057   5.527   4.674   2.136  3.0947  1.2216 -0.4727
 2351TIP3   OH2 7058   5.311   3.689   4.672  0.1794 -0.8798 -0.2928
 2351TIP3    H1 7059   5.319   3.653   4.761  2.9818  0.4670  0.0817
 2351TIP3    H2 7060   5.401   3.702   4.643 -0.6984  0.9664 -2.4072
 2352TIP3   OH2 7061   5.258   2.980   0.184  0.0244 -0.5013  0.3832
 2352TIP3    H1 7062   5.166   2.996   0.203 -0.4713 -0.0088 -2.1898
 2352TIP3    H2 7063   5.262   2.887   0.160 -0.1221 -0.1679 -1.0148
 2353TIP3   OH2 7064   1.668   4.124   1.863  0.1327  0.1967  0.0681
 2353TIP3    H1 7065   1.619   4.049   1.896 -0.8240  0.9091  0.3095
 2353TIP3    H2 7066   1.737   4.139   1.928 -2.0277  1.8968  2.1265
 2354TIP3   OH2 7067   2.043   2.623   3.796  0.0288 -0.0786  0.5193
 2354TIP3    H1 7068   2.096   2.588   3.724  1.5806  0.3895  1.3963
 2354TIP3    H2 7069   1.998   2.698   3.758  0.5411 -0.0654 -0.0795
 2355TIP3   OH2 7070   5.184   3.770   2.194  0.1445  0.2145 -0.0668
 2355TIP3    H1 7071   5.155   3.683   2.220  0.9230 -0.3425 -0.9913
 2355TIP3    H2 7072   5.201   3.762   2.100 -0.3085  1.5144 -0.2787
 2356TIP3   OH2 7073   0.812   2.001   0.206  0.1364 -0.5942 -0.3050
 2356TIP3    H1 7074   0.748   2.029   0.140  0.5433  1.7347  0.1870
 2356TIP3    H2 7075   0.762   1.943   0.263 -0.5820 -1.5845 -1.8689
 2357TIP3   OH2 7076   2.118   1.401   4.625  0.0478 -0.2423  0.1181
 2357TIP3    H1 7077   2.047   1.360   4.674  1.4393 -1.4834  1.2011
 2357TIP3    H2 7078   2.153   1.331   4.570 -1.2019  1.0048 -2.4942
 2358TIP3   OH2 7079   1.886   3.286   0.236  0.2302 -0.2638  0.4490
 2358TIP3    H1 7080   1.824   3.261   0.304  1.0815 -1.1237  0.9311
 2358TIP3    H2 7081   1.971   3.285   0.279  0.7542 -0.5822 -0.5616
 2359TIP3   OH2 7082   2.759   3.643   4.672  0.3407  0.3636 -0.5434
 2359TIP3    H1 7083   2.808   3.721   4.648  2.4999 -0.7920 -0.1222
 2359TIP3    H2 7084   2.781   3.629   4.765 -0.0414 -0.7193 -0.6110
 2360TIP3   OH2 7085   5.717   5.458   0.623  0.1144  0.0273  0.1076
 2360TIP3    H1 7086   5.673   5.426   0.544 -1.2370 -0.3895  0.9976
 2360TIP3    H2 7087   5.785   5.393   0.640 -0.6817 -0.8015  0.2124
 2361TIP3   OH2 7088   1.990   1.734   4.233 -0.6374 -0.6852  0.0363
 2361TIP3    H1 7089   2.057   1.769   4.292 -1.1620 -1.7431  1.3213
 2361TIP3    H2 7090   1.965   1.808   4.178  1.7966 -0.3281 -0.7199
 2362TIP3   OH2 7091   3.501   3.406   3.769 -0.1138  0.3633  0.4408
 2362TIP3    H1 7092   3.557   3.330   3.785 -0.0046  0.0173 -1.3444
 2362TIP3    H2 7093   3.559   3.482   3.780 -0.1959  0.2056  2.1206
 2363TIP3   OH2 7094   2.600   3.428   4.490 -1.1986 -0.2123 -0.1389
 2363TIP3    H1 7095   2.584   3.499   4.552 -2.8812 -0.4526 -0.2638
 2363TIP3    H2 7096   2.628   3.472   4.410  0.0111  0.1562  0.4674
 2364TIP3   OH2 7097   6.087   1.735   4.010 -0.0709 -0.2262  0.0905
 2364TIP3    H1 7098   6.156   1.718   4.074 -0.9713  1.5519  1.6588
 2364TIP3    H2 7099   6.052   1.821   4.035 -2.1448 -0.5919 -1.2861
 2365TIP3   OH2 7100   3.192   3.628   4.035  0.3373 -0.4302  0.3662
 2365TIP3    H1 7101   3.117   3.622   4.094 -0.5959 -1.1651 -0.8560
 2365TIP3    H2 7102   3.267   3.640   4.094 -0.6054 -0.6382  1.6668
 2366TIP3   OH2 7103   3.769   5.524   3.003  0.2929  0.2005  0.1558
 2366TIP3    H1 7104   3.863   5.509   3.007  0.4569  0.8376 -0.9716
 2366TIP3    H2 7105   3.746   5.508   2.912 -0.4204  1.5031  0.0822
 2367TIP3   OH2 7106   2.358   2.229   4.691 -0.3043  0.1866  0.1915
 2367TIP3    H1 7107   2.319   2.239   4.778 -1.8544 -0.3675 -0.3885
 2367TIP3    H2 7108   2.334   2.309   4.644 -2.5765 -0.9633 -0.7845
 2368TIP3   OH2 7109   4.884   2.273   4.860  0.1733 -0.1430 -0.1242
 2368TIP3    H1 7110   4.850   2.281   4.771 -0.0412 -1.3303 -0.1673
 2368TIP3    H2 7111   4.809   2.244   4.912 -0.3202  2.6787  0.9324
 2369TIP3   OH2 7112   6.136   2.662   2.966  0.0326 -0.2023  0.0316
 2369TIP3    H1 7113   6.177   2.643   2.882  0.0137  0.5126 -0.1453
 2369TIP3    H2 7114   6.190   2.732   3.004 -0.4509  0.0717  0.2247
 2370TIP3   OH2 7115   1.418   1.817   0.339 -0.6706  0.0627 -0.0944
 2370TIP3    H1 7116   1.395   1.865   0.259 -2.9916 -2.3029 -0.9752
 2370TIP3    H2 7117   1.499   1.771   0.316 -0.9420 -0.0528 -0.8558
 2371TIP3   OH2 7118   3.632   2.195   0.565  0.3984  0.1616 -0.6145
 2371TIP3    H1 7119   3.539   2.191   0.587  0.6084 -2.4387  0.1615
 2371TIP3    H2 7120   3.674   2.139   0.631  2.1193 -1.0973 -2.6642
 2372TIP3   OH2 7121   1.082   4.968   3.052  0.3690 -0.1077 -0.3880
 2372TIP3    H1 7122   1.063   4.989   3.143  1.1698 -1.2896  0.0838
 2372TIP3    H2 7123   1.037   5.036   3.001  0.9253  1.3112  0.9273
 2373TIP3   OH2 7124   3.340   0.107   4.948 -0.1591  0.5912 -0.1929
 2373TIP3    H1 7125   3.388   0.188   4.935 -0.7726  0.7346 -1.9344
 2373TIP3    H2 7126   3.256   0.135   4.985  0.3518  0.5346  1.0377
 2374TIP3   OH2 7127   5.147   4.496   4.607  0.0397  0.6968  0.9133
 2374TIP3    H1 7128   5.129   4.589   4.618  0.1346  0.7243  0.8359
 2374TIP3    H2 7129   5.061   4.455   4.602 -0.0206  0.6848  1.7705
 2375TIP3   OH2 7130   1.635   4.684   2.489  0.0482 -0.1713  0.1553
 2375TIP3    H1 7131   1.714   4.736   2.471 -0.4978  0.8919  0.7735
 2375TIP3    H2 7132   1.664   4.593   2.478  0.7241  0.2384 -2.2459
 2376TIP3   OH2 7133   5.415   4.411   2.042  1.1265 -0.0111  0.1138
 2376TIP3    H1 7134   5.448   4.501   2.036 -0.0609  0.4993  0.7711
 2376TIP3    H2 7135   5.484   4.362   2.085  2.0859  0.4197 -0.8917
 2377TIP3   OH2 7136   1.447   4.062   2.913 -0.0332 -0.0646  0.2143
 2377TIP3    H1 7137   1.456   4.042   2.820  0.3111  1.9415 -0.2238
 2377TIP3    H2 7138   1.532   4.039   2.951  1.2623  2.7614 -0.7477
 2378TIP3   OH2 7139   1.944   1.390   0.021 -0.4695  0.1581 -0.2167
 2378TIP3    H1 7140   1.991   1.467   0.054 -1.0488 -0.8918  3.4890
 2378TIP3    H2 7141   1.994   1.315   0.055 -0.6760 -1.1670 -2.5955
 2379TIP3   OH2 7142   1.333   4.698   4.697  0.1078 -0.1390 -0.3154
 2379TIP3    H1 7143   1.386   4.665   4.625 -1.7087 -2.6506 -0.6000
 2379TIP3    H2 7144   1.258   4.639   4.702  0.3480 -0.4213  3.9155
 2380TIP3   OH2 7145   4.404   1.783   0.886 -0.0078  0.4432 -0.4433
 2380TIP3    H1 7146   4.386   1.866   0.842  0.0347 -0.0663 -1.4506
 2380TIP3    H2 7147   4.377   1.716   0.824  1.3210 -0.3095 -0.2642
 2381TIP3   OH2 7148   2.217   2.998   4.442  0.3700 -0.5086 -0.3441
 2381TIP3    H1 7149   2.194   3.018   4.533 -1.0518  0.4892 -0.8825
 2381TIP3    H2 7150   2.281   2.927   4.449  0.3321 -0.4267  1.4325
 2382TIP3   OH2 7151   0.201   4.499   3.286 -0.2926 -0.4706 -0.2574
 2382TIP3    H1 7152   0.177   4.591   3.269 -1.0800 -0.6836 -0.3545
 2382TIP3    H2 7153   0.179   4.486   3.379 -2.4777 -1.2204 -0.8253
 2383TIP3   OH2 7154   5.317   0.245   4.826  0.1360 -0.3665 -0.1958
 2383TIP3    H1 7155   5.412   0.257   4.819  0.3555 -0.3112  2.2383
 2383TIP3    H2 7156   5.306   0.188   4.902 -1.8547  1.0424  0.6412
 2384TIP3   OH2 7157   5.120   4.303   1.087 -0.5356 -0.4207 -0.0530
 2384TIP3    H1 7158   5.175   4.366   1.134  2.6117 -2.7461 -0.2763
 2384TIP3    H2 7159   5.045   4.354   1.058  0.4266  2.5383  2.1167
 2385TIP3   OH2 7160   0.079   5.719   1.780  0.0875  0.1746 -0.2362
 2385TIP3    H1 7161  -0.012   5.711   1.807  0.7311 -0.4059  1.9006
 2385TIP3    H2 7162   0.118   5.633   1.795  1.1662  0.5990 -0.4455
 2386TIP3   OH2 7163   4.862   3.298   3.072 -0.5435  0.5649  0.6805
 2386TIP3    H1 7164   4.927   3.288   3.142 -0.1406 -0.0511  0.2213
 2386TIP3    H2 7165   4.841   3.392   3.073  0.4084  0.7893  0.7788
 2387TIP3   OH2 7166   5.643   0.959   2.582 -0.0172 -0.6953 -0.2591
 2387TIP3    H1 7167   5.654   0.877   2.631  1.1951  1.2786  3.1192
 2387TIP3    H2 7168   5.551   0.981   2.592 -0.2028 -1.2697 -0.6196
 2388TIP3   OH2 7169   6.270   4.619   3.056  0.2450  0.1223  0.0257
 2388TIP3    H1 7170   6.318   4.539   3.035  1.8144  1.1074 -0.2923
 2388TIP3    H2 7171   6.201   4.590   3.116 -0.7021 -1.8301 -1.8744
 2389TIP3   OH2 7172   1.328   3.460   1.708 -0.3211 -0.5389  0.2662
 2389TIP3    H1 7173   1.343   3.530   1.771 -0.5424 -0.7204  0.5209
 2389TIP3    H2 7174   1.255   3.491   1.654 -0.2005 -0.4298  0.1647
 2390TIP3   OH2 7175   0.218   2.050   3.907  0.0119 -0.1163 -0.4620
 2390TIP3    H1 7176   0.230   1.969   3.956 -0.3587 -0.9616 -1.7507
 2390TIP3    H2 7177   0.125   2.052   3.884 -0.1191  0.9814  0.0536
 2391TIP3   OH2 7178   2.726   1.887   0.024 -0.4137 -0.2170 -0.5682
 2391TIP3    H1 7179   2.737   1.805   0.071 -1.7150  0.1930  0.5047
 2391TIP3    H2 7180   2.748   1.955   0.088  1.2692  0.3075 -1.6213
 2392TIP3   OH2 7181   0.428   2.906   4.936  0.2825 -0.4384  0.0849
 2392TIP3    H1 7182   0.488   2.833   4.920 -0.7145 -1.4532  0.8138
 2392TIP3    H2 7183   0.485   2.979   4.960  1.2324 -1.4872  1.1478
 2393TIP3   OH2 7184   5.755   1.892   2.840 -0.4864  0.3046  0.5260
 2393TIP3    H1 7185   5.706   1.814   2.815 -2.0252  2.0751 -2.6282
 2393TIP3    H2 7186   5.688   1.956   2.862  0.7510  0.6457  3.8357
 2394TIP3   OH2 7187   4.455   1.409   2.770 -0.2472  0.3449  0.3408
 2394TIP3    H1 7188   4.379   1.452   2.732 -1.1642 -2.7316 -1.6789
 2394TIP3    H2 7189   4.512   1.390   2.695  1.0596 -0.1410  1.4062
 2395TIP3   OH2 7190   3.243   3.258   4.363  0.7129 -0.2631 -0.3871
 2395TIP3    H1 7191   3.231   3.170   4.328 -1.0351  0.5284 -2.0011
 2395TIP3    H2 7192   3.166   3.306   4.332  1.4834  1.7575  0.6739
 2396TIP3   OH2 7193   4.543   1.272   4.902  0.1883 -0.1239  0.1796
 2396TIP3    H1 7194   4.465   1.286   4.955  0.2602 -0.7245  0.4512
 2396TIP3    H2 7195   4.616   1.287   4.961  0.3095  1.2183 -0.2674
 2397TIP3   OH2 7196   5.220   1.290   1.611  0.1229  0.3906 -0.3166
 2397TIP3    H1 7197   5.128   1.266   1.624  0.2646  0.1353  0.2513
 2397TIP3    H2 7198   5.257   1.217   1.561  0.6364 -0.8111  1.7034
 2398TIP3   OH2 7199   1.466   5.902   2.969  0.1476  0.4365 -0.7327
 2398TIP3    H1 7200   1.442   5.916   3.060  2.0651  0.8646 -0.2505
 2398TIP3    H2 7201   1.516   5.820   2.969  2.4955  1.7722 -0.8676
 2399TIP3   OH2 7202   1.650   4.965   4.258  0.1679  0.6139 -0.5130
 2399TIP3    H1 7203   1.722   4.980   4.319  1.3491 -1.5953 -1.2513
 2399TIP3    H2 7204   1.668   4.879   4.220 -2.2311  0.5221 -1.6388
 2400TIP3   OH2 7205   1.946   0.337   2.259 -0.2842 -0.1205  0.0932
 2400TIP3    H1 7206   1.888   0.262   2.243  0.0632 -0.2887 -0.3929
 2400TIP3    H2 7207   2.018   0.325   2.198  1.6985 -1.3999  2.4680
 2401TIP3   OH2 7208   3.510   1.485   4.183 -0.0482  0.6382  0.0763
 2401TIP3    H1 7209   3.472   1.518   4.101 -2.3739 -0.7182  0.5008
 2401TIP3    H2 7210   3.528   1.393   4.164  0.2038  0.5324  0.8323
 2402TIP3   OH2 7211   4.856   4.107   2.655  0.1816 -0.3034 -0.3863
 2402TIP3    H1 7212   4.804   4.078   2.581 -0.6742  0.5626 -0.1517
 2402TIP3    H2 7213   4.793   4.119   2.726  0.6709  0.8236 -0.1103
 2403TIP3   OH2 7214   6.128   5.568   2.003 -0.0733 -0.3576  0.4792
 2403TIP3    H1 7215   6.118   5.662   2.014  0.2025 -0.1942 -0.5937
 2403TIP3    H2 7216   6.113   5.553   1.910 -2.4373 -1.6764  0.9888
 2404TIP3   OH2 7217   4.825   4.263   0.878  0.0182  0.0916 -0.2724
 2404TIP3    H1 7218   4.857   4.185   0.924 -0.4482  0.1054  0.0846
 2404TIP3    H2 7219   4.850   4.336   0.935  0.8938  0.2503 -0.8472
 2405TIP3   OH2 7220   3.191   0.390   1.640  0.5384 -0.0476  0.6471
 2405TIP3    H1 7221   3.118   0.452   1.626  1.3396  0.9459  0.7344
 2405TIP3    H2 7222   3.234   0.422   1.719  0.4269 -1.2790  1.2245
 2406TIP3   OH2 7223   2.016   1.014   1.094  0.9345  0.2775 -0.2928
 2406TIP3    H1 7224   2.046   0.923   1.085  0.3654 -0.1199  1.4200
 2406TIP3    H2 7225   1.924   1.006   1.119  0.8767  1.3270 -0.1456
 2407TIP3   OH2 7226   4.014   3.236   3.072 -0.7744  0.7123 -0.3031
 2407TIP3    H1 7227   3.956   3.313   3.071 -0.4576  0.9469 -0.5169
 2407TIP3    H2 7228   4.046   3.229   2.982 -1.1808  0.0417 -0.3995
 2408TIP3   OH2 7229   0.257   5.874   4.813 -0.5847  0.8890 -0.3220
 2408TIP3    H1 7230   0.342   5.841   4.782 -0.9385 -0.9854  0.6062
 2408TIP3    H2 7231   0.277   5.962   4.845  1.5852 -0.3039  2.0289
 2409TIP3   OH2 7232   4.099   0.030   3.102 -0.2026  0.1756 -0.7629
 2409TIP3    H1 7233   4.126   0.119   3.122  0.4872 -0.1597 -0.1842
 2409TIP3    H2 7234   4.028   0.012   3.163  1.2919 -0.5221  0.8529
 2410TIP3   OH2 7235   4.332   0.701   1.233  0.0495  0.3829  0.0935
 2410TIP3    H1 7236   4.368   0.613   1.244 -0.3555 -0.0744 -1.9077
 2410TIP3    H2 7237   4.298   0.723   1.320  0.6160 -1.2044  0.7698
 2411TIP3   OH2 7238   4.967   0.564   2.472  0.7226 -0.1193  0.3549
 2411TIP3    H1 7239   4.873   0.543   2.476  0.7100 -0.5490 -1.4128
 2411TIP3    H2 7240   4.971   0.657   2.491  0.0587 -0.2823  1.4329
 2412TIP3   OH2 7241   5.646   2.536   4.728 -0.0415  0.8840 -0.3333
 2412TIP3    H1 7242   5.579   2.513   4.664 -0.3649  1.5041 -0.2235
 2412TIP3    H2 7243   5.631   2.628   4.747 -1.2969  0.2519  2.1822
 2413TIP3   OH2 7244   3.882   3.290   3.391  0.0423 -0.2152 -0.0040
 2413TIP3    H1 7245   3.841   3.341   3.460  0.4868 -1.0409  0.8869
 2413TIP3    H2 7246   3.970   3.326   3.383  0.6987 -1.4682  1.3240
 2414TIP3   OH2 7247   5.487   0.806   5.167 -0.2717 -0.3739  0.8710
 2414TIP3    H1 7248   5.450   0.736   5.221 -0.6324 -0.4727  0.4959
 2414TIP3    H2 7249   5.454   0.790   5.079 -1.6531  1.1662  1.0612
 2415TIP3   OH2 7250  -0.005   3.933   4.716 -0.6074 -0.2357 -0.1936
 2415TIP3    H1 7251   0.052   3.857   4.714 -1.2246 -0.7663  1.1980
 2415TIP3    H2 7252   0.036   3.996   4.657  0.7293 -1.0750 -0.1857
 2416TIP3   OH2 7253   4.182   5.733   1.526 -0.4477 -0.2922  0.0119
 2416TIP3    H1 7254   4.125   5.719   1.451 -0.0650  0.5790 -0.4593
 2416TIP3    H2 7255   4.244   5.800   1.497  2.4535 -2.9434 -0.3953
 2417TIP3   OH2 7256   1.682   4.389   2.764 -0.0693  0.0973  0.2060
 2417TIP3    H1 7257   1.747   4.335   2.809 -1.2808  0.5650  2.6921
 2417TIP3    H2 7258   1.631   4.429   2.835 -1.3969  1.8004 -1.6078
 2418TIP3   OH2 7259   4.752   1.806   2.760  0.2382  0.4673 -0.6841
 2418TIP3    H1 7260   4.772   1.713   2.744 -2.1763  0.0611 -1.8426
 2418TIP3    H2 7261   4.703   1.833   2.683 -1.0378  2.0984  0.6265
 2419TIP3   OH2 7262   2.245   5.713   2.052  0.2631 -0.0164 -0.5890
 2419TIP3    H1 7263   2.322   5.731   1.998  1.3111  0.2922  0.9341
 2419TIP3    H2 7264   2.273   5.643   2.111 -0.1852  0.9520  0.8319
 2420TIP3   OH2 7265   1.977   4.350   1.731  0.4726  0.1131  0.1439
 2420TIP3    H1 7266   1.940   4.413   1.670 -2.8051 -0.9304  0.8732
 2420TIP3    H2 7267   1.932   4.367   1.814  1.2762 -1.6197  0.9920
 2421TIP3   OH2 7268   1.684   3.804   1.748  0.7858  0.5010  0.2992
 2421TIP3    H1 7269   1.764   3.845   1.717  0.5468  0.6742 -0.0942
 2421TIP3    H2 7270   1.618   3.826   1.682  1.1180 -2.3181 -1.1355
 2422TIP3   OH2 7271   5.770   2.120   0.800  0.1530  0.0376 -0.2713
 2422TIP3    H1 7272   5.739   2.065   0.873  2.1021 -0.0140  0.5848
 2422TIP3    H2 7273   5.699   2.183   0.786  0.7202  1.8626  3.5886
 2423TIP3   OH2 7274   2.145   3.729   1.958  0.2944 -0.1207  0.0143
 2423TIP3    H1 7275   2.136   3.824   1.950  2.4599  0.0280 -1.5459
 2423TIP3    H2 7276   2.055   3.696   1.961 -0.5105  2.0051  1.5454
 2424TIP3   OH2 7277   3.628   1.174   2.617  0.2059 -0.1047 -0.2668
 2424TIP3    H1 7278   3.590   1.243   2.562  1.6173  0.9083 -0.0389
 2424TIP3    H2 7279   3.676   1.118   2.555 -1.1106 -1.0472 -0.4792
 2425TIP3   OH2 7280   4.396   4.685   0.147  0.1954 -0.2036 -0.0367
 2425TIP3    H1 7281   4.418   4.596   0.120  0.5052 -0.2213  0.2552
 2425TIP3    H2 7282   4.399   4.737   0.067  1.1455 -0.2408 -0.0354
 2426TIP3   OH2 7283   2.106   1.800   3.291  0.0420  0.5047  0.4600
 2426TIP3    H1 7284   2.069   1.816   3.204 -0.3762 -0.9750  0.3488
 2426TIP3    H2 7285   2.198   1.778   3.274 -0.2633 -0.6817  0.3021
 2427TIP3   OH2 7286   0.426   1.119   2.410  0.6685 -0.0772 -0.0970
 2427TIP3    H1 7287   0.431   1.124   2.315  2.0260  1.8020  0.0198
 2427TIP3    H2 7288   0.512   1.089   2.438 -0.0305 -1.5968  0.5203
 2428TIP3   OH2 7289   1.003   0.807   0.265 -0.3649  0.1704 -0.1838
 2428TIP3    H1 7290   1.075   0.827   0.204 -0.5391  1.9518  0.1160
 2428TIP3    H2 7291   0.956   0.890   0.272 -0.7651 -0.1963  1.8197
 2429TIP3   OH2 7292   3.497   0.867   0.550 -0.3573  0.1395  0.1291
 2429TIP3    H1 7293   3.533   0.830   0.631 -0.8627  0.1451  0.3572
 2429TIP3    H2 7294   3.402   0.867   0.564 -0.3859  1.1956 -0.0085
 2430TIP3   OH2 7295   0.746   2.045   1.533 -0.0221 -0.2097  0.1637
 2430TIP3    H1 7296   0.664   2.095   1.538 -0.0019 -0.3022  2.0261
 2430TIP3    H2 7297   0.734   1.975   1.597  0.9226 -1.1573 -0.6679
 2431TIP3   OH2 7298   5.790   3.718   4.252  0.1664  0.1239 -0.6304
 2431TIP3    H1 7299   5.813   3.671   4.173 -0.5510  2.0371 -2.0579
 2431TIP3    H2 7300   5.873   3.730   4.299  0.6385 -0.7791 -1.2212
 2432TIP3   OH2 7301   5.542   0.321   1.787 -0.6149 -0.1701 -0.2296
 2432TIP3    H1 7302   5.477   0.324   1.858 -0.5293 -1.5830 -0.0684
 2432TIP3    H2 7303   5.527   0.402   1.738 -3.2178 -0.8869 -0.8062
 2433TIP3   OH2 7304   3.393   5.042   1.382  1.0334 -0.5750 -0.2109
 2433TIP3    H1 7305   3.409   5.072   1.293  0.9663 -2.7469 -1.0156
 2433TIP3    H2 7306   3.462   5.083   1.434  0.2679  1.8263 -0.9578
 2434TIP3   OH2 7307   5.817   1.016   2.070 -0.5143  0.0258  0.1705
 2434TIP3    H1 7308   5.782   1.059   2.149 -0.8713 -1.0965  0.6474
 2434TIP3    H2 7309   5.810   0.923   2.089 -1.9672 -0.3358 -1.7547
 2435TIP3   OH2 7310   3.163   1.733   5.146  0.0793  0.5593  0.2396
 2435TIP3    H1 7311   3.175   1.731   5.240 -0.1888  1.3298  0.3006
 2435TIP3    H2 7312   3.249   1.713   5.109 -0.0942 -1.0141  0.6364
 2436TIP3   OH2 7313   1.023   5.676   4.411 -0.4499 -0.4601  0.6754
 2436TIP3    H1 7314   1.044   5.586   4.434 -0.1298 -0.8992 -1.1443
 2436TIP3    H2 7315   1.103   5.725   4.427 -0.5170 -0.5564  1.3306
 2437TIP3   OH2 7316   6.161   1.751   2.332 -0.4064 -0.0043  0.2788
 2437TIP3    H1 7317   6.238   1.702   2.357 -0.7967 -0.8979 -0.2217
 2437TIP3    H2 7318   6.131   1.793   2.413 -0.7055 -1.5034  0.9850
 2438TIP3   OH2 7319   4.635   0.181   3.134  0.3231 -0.3142 -0.3174
 2438TIP3    H1 7320   4.562   0.126   3.163  1.3536 -2.8938 -2.2721
 2438TIP3    H2 7321   4.618   0.196   3.041  0.6950  1.7997 -0.0889
 2439TIP3   OH2 7322   2.094   3.462   0.409  0.1591 -0.1985 -0.0331
 2439TIP3    H1 7323   2.072   3.369   0.417  0.2776 -0.3462 -1.2496
 2439TIP3    H2 7324   2.116   3.489   0.498  1.2545 -1.6193  0.1616
 2440TIP3   OH2 7325   5.564   1.211   0.826  0.0981 -0.4317  0.1101
 2440TIP3    H1 7326   5.626   1.281   0.807 -0.0910 -0.4522 -0.6130
 2440TIP3    H2 7327   5.537   1.179   0.740 -1.3194 -0.0668  0.3855
 2441TIP3   OH2 7328   1.614   2.969   3.213 -0.5668 -0.5190 -0.1729
 2441TIP3    H1 7329   1.596   2.942   3.303  1.9095 -3.1635 -0.3198
 2441TIP3    H2 7330   1.704   3.001   3.214 -0.6004 -0.2777 -1.6605
 2442TIP3   OH2 7331   4.126   4.677   1.505 -0.6925  0.0965 -0.1540
 2442TIP3    H1 7332   4.168   4.748   1.554 -0.3657  0.8622 -1.5136
 2442TIP3    H2 7333   4.154   4.598   1.551  0.7582  0.7038  0.0588
 2443TIP3   OH2 7334   2.357   5.652   2.924 -0.1461 -0.0683  0.0953
 2443TIP3    H1 7335   2.375   5.558   2.925 -0.8494 -0.3177 -2.9384
 2443TIP3    H2 7336   2.270   5.660   2.962  0.2227 -0.5076  1.0802
 2444TIP3   OH2 7337   5.743   0.773   1.805  0.4274  0.1214 -0.4691
 2444TIP3    H1 7338   5.825   0.723   1.809  0.5335  0.3380  2.0655
 2444TIP3    H2 7339   5.675   0.708   1.794  0.8593 -0.1491 -1.6339
 2445TIP3   OH2 7340   3.946   2.176   4.380 -0.3063  0.2278  0.5895
 2445TIP3    H1 7341   3.945   2.267   4.407 -0.7155  0.0203  1.3109
 2445TIP3    H2 7342   3.938   2.127   4.462  0.1203 -0.4601  0.2310
 2446TIP3   OH2 7343   3.056   2.735   1.532  0.3432  0.0165  0.2073
 2446TIP3    H1 7344   3.076   2.647   1.500  0.4638  0.0800  0.1038
 2446TIP3    H2 7345   2.971   2.756   1.494  1.7556  1.2621 -2.5938
 2447TIP3   OH2 7346   1.983   4.997   1.910 -0.1566  0.3958 -0.2067
 2447TIP3    H1 7347   2.077   4.994   1.890 -0.3177  0.1448 -0.9436
 2447TIP3    H2 7348   1.946   4.924   1.862 -0.6365  0.0495  0.6697
 2448TIP3   OH2 7349   3.548   4.608   1.096 -0.3599 -0.6748 -0.0715
 2448TIP3    H1 7350   3.620   4.546   1.083  1.6226  1.4682  0.0510
 2448TIP3    H2 7351   3.574   4.686   1.045 -2.2496  0.4461  0.5746
 2449TIP3   OH2 7352   4.018   3.956   0.057 -0.0209  1.1204 -0.1028
 2449TIP3    H1 7353   3.937   3.937   0.011  1.4910 -0.0470 -2.4996
 2449TIP3    H2 7354   4.055   3.870   0.076  0.9214  1.6261  0.4069
 2450TIP3   OH2 7355   2.177   5.916   2.220 -0.6922 -0.2292  0.4346
 2450TIP3    H1 7356   2.189   5.840   2.276 -0.2923  0.1358  0.8483
 2450TIP3    H2 7357   2.223   5.893   2.139  1.8642  0.6506  1.5487
 2451TIP3   OH2 7358   3.472   3.687   2.093  0.0370 -0.1805  0.0850
 2451TIP3    H1 7359   3.562   3.686   2.060 -0.3985 -0.7463 -1.1512
 2451TIP3    H2 7360   3.422   3.637   2.028 -1.6660  2.3990 -0.7506
 2452TIP3   OH2 7361   5.923   0.980   1.138  0.1843  0.4627  0.7582
 2452TIP3    H1 7362   5.950   1.006   1.050 -0.3874 -0.8470  0.1620
 2452TIP3    H2 7363   5.912   1.063   1.185 -1.5383  1.3329 -1.0191
 2453TIP3   OH2 7364   3.028   0.503   3.047 -0.4189 -1.0021 -0.1020
 2453TIP3    H1 7365   3.095   0.566   3.072 -0.4691 -1.1054  0.3006
 2453TIP3    H2 7366   3.030   0.502   2.952  0.1031 -0.9483 -0.0956
 2454TIP3   OH2 7367   2.933   4.647   1.011 -0.2514  0.6773 -0.0021
 2454TIP3    H1 7368   2.909   4.557   0.989 -0.1811  0.4363  0.8759
 2454TIP3    H2 7369   3.015   4.662   0.962 -0.1404  0.1857  0.0244
 2455TIP3   OH2 7370   0.662   2.838   2.182 -0.6543 -0.2446 -0.2648
 2455TIP3    H1 7371   0.582   2.813   2.228 -1.9425  1.1774 -1.6124
 2455TIP3    H2 7372   0.674   2.769   2.117 -0.6216 -0.6017  0.1127
 2456TIP3   OH2 7373   3.490   1.878   3.258  0.2225 -0.2527 -0.4753
 2456TIP3    H1 7374   3.427   1.948   3.240 -1.5834 -2.0130 -1.4656
 2456TIP3    H2 7375   3.565   1.899   3.202 -0.1891  0.9604 -0.6097
 2457TIP3   OH2 7376   4.069   2.418   0.429 -0.3834 -0.4264  0.3040
 2457TIP3    H1 7377   4.093   2.401   0.338  0.1135 -0.0639  0.3633
 2457TIP3    H2 7378   3.978   2.389   0.435 -0.4113 -0.4884 -0.2967
 2458TIP3   OH2 7379   4.358   4.923   1.335 -0.0516  0.2654  0.1474
 2458TIP3    H1 7380   4.411   4.941   1.258 -0.0555 -1.3006 -0.2529
 2458TIP3    H2 7381   4.270   4.907   1.301  0.2743 -2.0245  0.2584
 2459TIP3   OH2 7382   2.807   5.156   2.535 -0.4408 -0.0303  0.2299
 2459TIP3    H1 7383   2.837   5.241   2.502 -0.8371 -0.2151 -0.6360
 2459TIP3    H2 7384   2.803   5.168   2.629  1.5102  0.2652  0.3225
 2460TIP3   OH2 7385   3.356   4.661   3.803 -0.7426  0.6455 -0.2785
 2460TIP3    H1 7386   3.266   4.646   3.776 -0.4448 -0.1962 -0.8371
 2460TIP3    H2 7387   3.387   4.731   3.746 -0.8954  0.6009 -0.4178
 2461TIP3   OH2 7388   0.188   0.665   1.455 -0.1112  0.1256  0.1312
 2461TIP3    H1 7389   0.238   0.599   1.407  0.2027  0.3491  0.1478
 2461TIP3    H2 7390   0.167   0.732   1.390  0.1119  0.3150  0.2543
 2462TIP3   OH2 7391   6.147   3.177   4.526  0.3614  0.2993 -0.6085
 2462TIP3    H1 7392   6.158   3.111   4.594 -1.1989  1.1344  0.5112
 2462TIP3    H2 7393   6.068   3.149   4.478  1.3182 -0.1650 -1.9751
 2463TIP3   OH2 7394   5.124   4.771   0.718 -0.0298 -0.9493 -0.4803
 2463TIP3    H1 7395   5.162   4.813   0.795  0.8035 -0.3247 -1.2075
 2463TIP3    H2 7396   5.048   4.825   0.696  0.3558 -0.4991 -0.7190
 2464TIP3   OH2 7397   6.171   3.388   4.345 -0.2636  0.1370 -0.2998
 2464TIP3    H1 7398   6.146   3.321   4.408  0.2234 -0.4776 -0.7388
 2464TIP3    H2 7399   6.130   3.469   4.377  0.3195 -0.0695  1.0300
 2465TIP3   OH2 7400   1.211   1.501   4.523 -0.1245 -0.1749 -0.2677
 2465TIP3    H1 7401   1.217   1.496   4.428  0.3261  0.8978 -0.3113
 2465TIP3    H2 7402   1.224   1.594   4.543 -0.4149 -0.3569  0.8240
 2466TIP3   OH2 7403   6.219   3.773   3.062 -0.4034 -0.5906  0.0872
 2466TIP3    H1 7404   6.294   3.759   3.004  0.0214  0.2127  0.4326
 2466TIP3    H2 7405   6.256   3.772   3.150 -0.6288  0.8726  0.2131
 2467TIP3   OH2 7406   1.936   2.348   0.401 -0.1351  0.1330  0.6229
 2467TIP3    H1 7407   1.853   2.313   0.433  0.4015  0.5044  2.5512
 2467TIP3    H2 7408   1.912   2.404   0.328 -1.6866  0.8337  1.6111
 2468TIP3   OH2 7409   3.611   5.829   4.623 -0.2734 -0.1503  0.3557
 2468TIP3    H1 7410   3.647   5.918   4.626 -2.2240  0.6709  0.5716
 2468TIP3    H2 7411   3.619   5.804   4.531 -0.8740  0.7800  0.0272
 2469TIP3   OH2 7412   5.927   1.520   1.672 -0.6345  0.3151 -0.1193
 2469TIP3    H1 7413   6.008   1.469   1.665 -0.3084  0.7723  0.2779
 2469TIP3    H2 7414   5.857   1.456   1.658 -0.3639 -0.8901  3.1990
 2470TIP3   OH2 7415   2.815   4.604   3.888 -0.3988  0.1285 -0.3779
 2470TIP3    H1 7416   2.741   4.635   3.940 -1.2093 -0.3129 -1.2394
 2470TIP3    H2 7417   2.797   4.511   3.874 -0.3825  0.3178 -1.7333
 2471TIP3   OH2 7418   1.992   5.064   1.607 -0.0719  0.0667 -0.6660
 2471TIP3    H1 7419   2.084   5.065   1.581  0.2477 -1.5073  0.2762
 2471TIP3    H2 7420   1.985   4.992   1.669 -1.5330  1.4329  0.8719
 2472TIP3   OH2 7421   4.679   4.614   4.046 -0.0814 -0.4703 -0.3306
 2472TIP3    H1 7422   4.697   4.525   4.075  1.3227 -0.1987 -0.2964
 2472TIP3    H2 7423   4.762   4.661   4.060 -0.6318  0.7001 -0.8647
 2473TIP3   OH2 7424   1.556   1.830   3.673  0.2182 -0.2018  0.1692
 2473TIP3    H1 7425   1.485   1.880   3.712  0.4166  0.0768  0.1746
 2473TIP3    H2 7426   1.554   1.854   3.580  0.8538  0.4733  0.3230
 2474TIP3   OH2 7427   3.987   0.732   1.149  0.2065 -0.1344  0.0715
 2474TIP3    H1 7428   4.046   0.749   1.076  0.3200 -1.0408 -0.0627
 2474TIP3    H2 7429   4.010   0.644   1.179  0.1969  0.2353  1.2366
 2475TIP3   OH2 7430   3.167   2.206   1.377  0.5689  0.2375  0.7015
 2475TIP3    H1 7431   3.191   2.213   1.285  1.9468 -1.8616  0.8310
 2475TIP3    H2 7432   3.245   2.233   1.425  0.5365 -0.5168  1.2070
 2476TIP3   OH2 7433   0.456   1.959   2.336  0.1130 -0.1071 -0.4514
 2476TIP3    H1 7434   0.372   1.929   2.301  0.8942 -0.8006 -1.7986
 2476TIP3    H2 7435   0.437   1.983   2.427 -1.4561 -0.5953 -0.6261
 2477TIP3   OH2 7436   2.623   0.739   4.454  0.4408  0.0098 -0.0173
 2477TIP3    H1 7437   2.550   0.755   4.514 -0.0672 -0.5371 -0.4872
 2477TIP3    H2 7438   2.700   0.769   4.503 -0.2871  2.5569 -0.2820
 2478TIP3   OH2 7439   0.930   3.529   4.566  0.3753  0.4558 -0.0358
 2478TIP3    H1 7440   1.016   3.490   4.554 -0.8784 -2.8066  0.5306
 2478TIP3    H2 7441   0.871   3.474   4.515 -1.6801  1.1713  1.4291
 2479TIP3   OH2 7442   3.819   0.329   4.960 -0.8871 -0.6668  0.2906
 2479TIP3    H1 7443   3.812   0.416   4.920  1.1286 -1.1020 -1.1067
 2479TIP3    H2 7444   3.766   0.336   5.040 -0.5102  1.9533  0.3990
 2480TIP3   OH2 7445   1.621   4.137   1.593  0.0700 -0.2426  0.1147
 2480TIP3    H1 7446   1.620   4.117   1.686  0.2421  2.4610  0.7779
 2480TIP3    H2 7447   1.533   4.170   1.574  0.2170 -0.2123 -0.5609
 2481TIP3   OH2 7448   0.232   4.339   1.964  0.0458  0.1216  0.4594
 2481TIP3    H1 7449   0.204   4.429   1.951  0.8251  0.3127  0.0670
 2481TIP3    H2 7450   0.180   4.308   2.039 -2.7212 -0.2009 -1.4320
 2482TIP3   OH2 7451   1.842   0.630   3.576  0.3918 -0.2941  0.3835
 2482TIP3    H1 7452   1.830   0.636   3.481 -1.3440 -0.2697  0.5614
 2482TIP3    H2 7453   1.776   0.566   3.604  0.6171 -0.0105  1.6178
 2483TIP3   OH2 7454   0.318   0.263   0.109 -0.6022  0.0733  0.2530
 2483TIP3    H1 7455   0.267   0.226   0.182 -0.4467 -1.0281 -0.1734
 2483TIP3    H2 7456   0.384   0.196   0.090 -1.9794 -0.6809 -2.3165
 2484TIP3   OH2 7457   4.469   5.929   2.729 -0.6765  0.4792  0.1412
 2484TIP3    H1 7458   4.462   6.015   2.687 -2.0262 -0.3369 -1.4275
 2484TIP3    H2 7459   4.501   5.871   2.660 -2.0768 -0.7366  0.4618
 2485TIP3   OH2 7460   1.471   2.732   2.273 -0.0004 -0.0919 -0.2532
 2485TIP3    H1 7461   1.471   2.660   2.209 -0.1921  0.0431 -0.4039
 2485TIP3    H2 7462   1.385   2.771   2.265 -0.0467 -0.1128  0.1352
 2486TIP3   OH2 7463   1.207   1.849   3.208 -0.1158  0.3303  0.0114
 2486TIP3    H1 7464   1.202   1.914   3.278 -1.5761  0.4704 -0.1893
 2486TIP3    H2 7465   1.134   1.871   3.150  0.9961  0.1570 -1.5157
 2487TIP3   OH2 7466   5.114   2.419   1.826 -0.1311 -0.3941 -0.0552
 2487TIP3    H1 7467   5.159   2.497   1.793 -0.6760  0.5165  1.2267
 2487TIP3    H2 7468   5.164   2.345   1.791  1.1866  0.5528 -0.2654
 2488TIP3   OH2 7469   0.178   4.793   5.023  1.0059 -0.1058 -0.8899
 2488TIP3    H1 7470   0.109   4.841   4.977  1.7109  0.5642 -1.2743
 2488TIP3    H2 7471   0.185   4.835   5.108  2.8573  1.7387 -1.8649
 2489TIP3   OH2 7472   1.841   1.239   2.149  0.6039 -0.2128  0.1158
 2489TIP3    H1 7473   1.839   1.325   2.106  0.6692  0.0318  0.5912
 2489TIP3    H2 7474   1.760   1.237   2.200  0.5793 -0.4536  0.0654
 2490TIP3   OH2 7475   2.485   1.101   2.432 -0.2194 -0.0586  0.3473
 2490TIP3    H1 7476   2.398   1.095   2.392 -0.6864  2.2535  0.9024
 2490TIP3    H2 7477   2.541   1.132   2.362 -0.0744 -0.4618  0.2845
 2491TIP3   OH2 7478   4.011   0.199   2.018  0.0028  0.3210 -0.1424
 2491TIP3    H1 7479   4.028   0.109   1.990 -0.3750  0.1594  0.1423
 2491TIP3    H2 7480   3.919   0.200   2.041  0.2950  0.4366  1.1003
 2492TIP3   OH2 7481   2.578   4.959   0.393 -0.1143  0.3232 -0.0672
 2492TIP3    H1 7482   2.564   4.987   0.303 -2.7343 -0.7155 -0.0730
 2492TIP3    H2 7483   2.656   5.007   0.421 -0.0023  1.6824 -2.4421
 2493TIP3   OH2 7484   5.583   2.327   0.853  0.2763  0.1906  0.3785
 2493TIP3    H1 7485   5.604   2.289   0.939  0.6477  1.7995  1.0348
 2493TIP3    H2 7486   5.531   2.405   0.874  2.2147  1.8571 -0.7081
 2494TIP3   OH2 7487   2.194   5.251   4.053  0.1130  0.4561  0.3129
 2494TIP3    H1 7488   2.120   5.312   4.050 -0.3915 -0.1611 -0.1206
 2494TIP3    H2 7489   2.178   5.192   3.979 -0.5786 -1.5377  1.9627
 2495TIP3   OH2 7490   4.082   0.212   5.000  0.5522  0.0085 -0.1580
 2495TIP3    H1 7491   4.004   0.214   4.945 -0.3334  0.2020  1.0504
 2495TIP3    H2 7492   4.079   0.294   5.049  2.2605  0.6489 -1.0359
 2496TIP3   OH2 7493   1.366   4.635   3.286  0.4896  0.1642 -0.0473
 2496TIP3    H1 7494   1.413   4.552   3.282 -0.4285 -0.4008  0.7975
 2496TIP3    H2 7495   1.431   4.699   3.255  1.5096 -0.7192  0.1800
 2497TIP3   OH2 7496   5.065   2.466   4.801 -0.0564 -0.4930  0.0689
 2497TIP3    H1 7497   5.113   2.410   4.741 -0.2781 -0.0997 -0.4780
 2497TIP3    H2 7498   4.989   2.414   4.827 -0.1010 -0.5624 -0.2017
 2498TIP3   OH2 7499   0.867   2.143   3.365  0.4291 -0.2894 -0.2413
 2498TIP3    H1 7500   0.876   2.048   3.361  0.4328 -0.3812  1.3228
 2498TIP3    H2 7501   0.829   2.160   3.451 -2.3580  0.9338 -1.5676
 2499TIP3   OH2 7502   1.879   5.726   4.412  0.5731 -0.1853 -0.1388
 2499TIP3    H1 7503   1.941   5.653   4.407 -0.6537 -1.3784  1.0634
 2499TIP3    H2 7504   1.824   5.716   4.335  1.3451  0.4109 -0.7888
 2500TIP3   OH2 7505   3.845   3.425   3.646  0.7565  0.0763 -0.0087
 2500TIP3    H1 7506   3.796   3.495   3.690 -0.5991 -0.7954 -0.0505
 2500TIP3    H2 7507   3.932   3.427   3.685  0.4295  1.1239  0.7029
 2501TIP3   OH2 7508   2.724   2.475   4.088 -0.3962 -0.8808 -0.9669
 2501TIP3    H1 7509   2.679   2.455   4.170  0.7423 -1.6507 -0.5133
 2501TIP3    H2 7510   2.653   2.482   4.023 -1.2582 -0.8778 -0.0516
 2502TIP3   OH2 7511   4.375   1.430   2.100  0.5118 -0.8692  0.2331
 2502TIP3    H1 7512   4.459   1.473   2.119  0.1770 -0.3884  0.6630
 2502TIP3    H2 7513   4.310   1.499   2.114  0.0745 -1.1371 -0.4864
 2503TIP3   OH2 7514   5.142   0.056   2.307  0.5080 -0.2369  0.2787
 2503TIP3    H1 7515   5.141  -0.032   2.343  1.6708  0.3746  1.9834
 2503TIP3    H2 7516   5.159   0.112   2.383 -0.4164  1.4819 -0.7146
 2504TIP3   OH2 7517   1.669   5.211   4.496  0.0431 -0.1905 -0.3969
 2504TIP3    H1 7518   1.583   5.203   4.538  0.4848 -2.5546  0.2224
 2504TIP3    H2 7519   1.696   5.120   4.480  2.8506  0.4289  0.2945
 2505TIP3   OH2 7520   2.718   0.649   2.909  0.8670 -0.1682 -0.0703
 2505TIP3    H1 7521   2.653   0.581   2.925  0.8034 -0.1569 -0.2858
 2505TIP3    H2 7522   2.751   0.631   2.821  0.6600  0.2370 -0.2343
 2506TIP3   OH2 7523   5.516   0.743   3.497  0.0502  0.3133 -0.0107
 2506TIP3    H1 7524   5.445   0.751   3.433 -0.6823  0.3613  0.8005
 2506TIP3    H2 7525   5.473   0.723   3.579  1.1767 -3.6333 -0.1744
 2507TIP3   OH2 7526   1.204   5.277   3.103 -0.3442  0.1493 -0.0977
 2507TIP3    H1 7527   1.292   5.247   3.078 -0.0261 -0.1342  1.2340
 2507TIP3    H2 7528   1.217   5.320   3.188 -1.7367 -1.6243  1.1116
 2508TIP3   OH2 7529   6.324   2.266   1.761 -0.1747 -0.1643  0.0720
 2508TIP3    H1 7530   6.300   2.183   1.803 -2.2606  0.8469  1.0061
 2508TIP3    H2 7531   6.311   2.249   1.667 -3.2807 -0.2045  0.3921
 2509TIP3   OH2 7532   5.181   0.087   5.112 -0.3831 -0.5657 -0.1367
 2509TIP3    H1 7533   5.118   0.019   5.087 -1.0109 -0.9144  2.0743
 2509TIP3    H2 7534   5.132   0.169   5.103 -0.1938 -0.5557 -1.1533
 2510TIP3   OH2 7535   0.263   0.593   2.979 -0.2494 -0.3841 -0.2507
 2510TIP3    H1 7536   0.232   0.579   2.890 -1.1585  2.2060 -0.4227
 2510TIP3    H2 7537   0.270   0.688   2.988 -0.6877 -0.5135  2.6044
 2511TIP3   OH2 7538   2.075   4.679   1.047 -0.4845  0.0105 -0.6672
 2511TIP3    H1 7539   1.995   4.662   1.097 -0.8056  0.9189 -0.8551
 2511TIP3    H2 7540   2.068   4.771   1.021  1.1434  0.4346  0.2563
 2512TIP3   OH2 7541   0.198   3.049   2.733  0.3560 -0.1987  0.1131
 2512TIP3    H1 7542   0.129   3.082   2.676 -0.1638 -1.3397  0.0591
 2512TIP3    H2 7543   0.277   3.096   2.705 -0.5567  1.9685  0.9129
 2513TIP3   OH2 7544   4.066   3.802   3.310 -0.2759 -0.0672 -0.2857
 2513TIP3    H1 7545   4.031   3.870   3.253 -0.3596  0.1819  0.0596
 2513TIP3    H2 7546   4.005   3.798   3.383 -1.1990 -1.6646 -1.0823
 2514TIP3   OH2 7547   4.477   4.459   3.629  0.4213  0.2022 -0.5458
 2514TIP3    H1 7548   4.489   4.423   3.717  2.1633 -2.3344 -1.7068
 2514TIP3    H2 7549   4.401   4.413   3.594 -0.5319  1.5168 -0.2716
 2515TIP3   OH2 7550   5.910   3.401   1.319 -0.4843  0.0287  0.6362
 2515TIP3    H1 7551   5.888   3.474   1.378 -0.6815  0.8204 -0.3764
 2515TIP3    H2 7552   5.910   3.324   1.375 -2.1120  0.5380  1.4166
 2516TIP3   OH2 7553   1.162   1.060   3.280  0.0748  1.2810  0.2081
 2516TIP3    H1 7554   1.085   1.025   3.325  0.9744 -2.4618 -0.8513
 2516TIP3    H2 7555   1.235   1.040   3.338  0.7135  0.8030 -0.7393
 2517TIP3   OH2 7556   3.076   4.693   3.711  0.0469  0.2632  0.0934
 2517TIP3    H1 7557   3.101   4.785   3.704  0.4409  0.2190  0.7814
 2517TIP3    H2 7558   2.998   4.693   3.767 -1.1946  0.3450 -1.5544
 2518TIP3   OH2 7559   4.389   2.918   4.839 -0.4406  0.2443  0.3729
 2518TIP3    H1 7560   4.439   2.964   4.906 -1.8012 -0.6260  2.0839
 2518TIP3    H2 7561   4.441   2.840   4.820 -0.8244 -0.3842  1.7376
 2519TIP3   OH2 7562   4.611   4.456   3.093  0.0698  0.4039 -0.0551
 2519TIP3    H1 7563   4.686   4.510   3.117 -0.2091  1.1872 -0.8749
 2519TIP3    H2 7564   4.621   4.376   3.145  0.7382  1.0497  0.8444
 2520TIP3   OH2 7565   0.393   0.357   3.740 -0.5049 -0.1249  0.3433
 2520TIP3    H1 7566   0.381   0.329   3.649  1.0467  0.3358 -0.0300
 2520TIP3    H2 7567   0.396   0.275   3.790 -2.7226 -0.3432  0.2007
 2521TIP3   OH2 7568   5.096   0.532   0.608 -0.3059  0.2492 -0.3354
 2521TIP3    H1 7569   5.187   0.529   0.639 -0.3817  0.1401 -0.1283
 2521TIP3    H2 7570   5.043   0.531   0.687 -0.4734  1.1409 -0.4297
 2522TIP3   OH2 7571   2.768   0.182   0.676 -0.4998  0.3564 -0.8530
 2522TIP3    H1 7572   2.674   0.195   0.688 -0.9053 -1.8590 -1.2367
 2522TIP3    H2 7573   2.780   0.172   0.581 -0.0221 -0.3754 -0.7220
 2523TIP3   OH2 7574   0.693   3.134   0.637 -0.1727  0.2987  0.1839
 2523TIP3    H1 7575   0.648   3.218   0.647 -0.2323  0.1935  0.8551
 2523TIP3    H2 7576   0.746   3.126   0.716  1.9727  0.9737 -1.1050
 2524TIP3   OH2 7577   4.386   0.081   0.063 -0.2841 -0.0210  0.4539
 2524TIP3    H1 7578   4.362   0.113   0.150 -0.4710 -2.4028  1.3558
 2524TIP3    H2 7579   4.434  -0.000   0.080  0.8315  0.1406 -1.6448
 2525TIP3   OH2 7580   0.499   3.682   2.574 -0.3597  0.1960  0.1480
 2525TIP3    H1 7581   0.518   3.775   2.564 -0.1529  0.0583 -0.9409
 2525TIP3    H2 7582   0.542   3.656   2.655 -1.8309  1.3924  1.3734
 2526TIP3   OH2 7583   5.886   5.613   2.170 -0.7870  0.0953  0.1330
 2526TIP3    H1 7584   5.924   5.700   2.180  0.1981 -0.0337 -1.9549
 2526TIP3    H2 7585   5.930   5.576   2.093 -0.1358 -2.7948  1.7156
 2527TIP3   OH2 7586   2.210   5.542   2.393 -0.4772 -0.6791 -0.3993
 2527TIP3    H1 7587   2.115   5.550   2.388 -0.5295 -1.0241 -0.0115
 2527TIP3    H2 7588   2.237   5.613   2.451 -0.1838  1.3066 -2.7748
 2528TIP3   OH2 7589   5.212   4.249   0.814  0.0490  0.1053 -0.0034
 2528TIP3    H1 7590   5.303   4.220   0.819 -0.3392 -1.0396  1.0534
 2528TIP3    H2 7591   5.183   4.250   0.905 -1.5294 -1.4264 -0.4252
 2529TIP3   OH2 7592   3.149   4.493   5.152 -0.2651  0.5247 -0.1519
 2529TIP3    H1 7593   3.140   4.514   5.059  0.2014 -0.6807 -0.4806
 2529TIP3    H2 7594   3.136   4.577   5.196 -2.1932  0.8385 -1.1936
 2530TIP3   OH2 7595   5.698   1.127   2.290  0.1944  0.1249  0.1134
 2530TIP3    H1 7596   5.641   1.054   2.314 -1.1475  1.1366  0.1295
 2530TIP3    H2 7597   5.665   1.201   2.341  2.1508  0.5367  0.8458
 2531TIP3   OH2 7598   0.160   4.535   5.066  0.3577 -0.2423 -0.8388
 2531TIP3    H1 7599   0.170   4.631   5.062 -0.7311  0.0016  1.0790
 2531TIP3    H2 7600   0.133   4.511   4.977  0.5149  1.2427 -1.3322
 2532TIP3   OH2 7601   5.333   4.377   0.538  0.0396  0.0632  0.1623
 2532TIP3    H1 7602   5.358   4.319   0.466  0.4452  0.7426 -0.2517
 2532TIP3    H2 7603   5.246   4.346   0.564 -0.6217  0.4865 -1.3799
 2533TIP3   OH2 7604   2.885   0.418   0.996  0.7093  0.3026 -0.2468
 2533TIP3    H1 7605   2.854   0.440   0.907  1.2970  2.3903  0.0071
 2533TIP3    H2 7606   2.914   0.327   0.989  1.7085  0.7054 -2.4982
 2534TIP3   OH2 7607   3.669   1.667   0.917 -0.2324 -0.0046  0.1918
 2534TIP3    H1 7608   3.598   1.730   0.909 -0.5293 -0.2349  0.9603
 2534TIP3    H2 7609   3.627   1.586   0.945  0.4714  0.2414  2.1041
 2535TIP3   OH2 7610   1.029   4.828   2.187  0.3440  0.5499  0.0162
 2535TIP3    H1 7611   1.009   4.862   2.100  0.9348  0.9234  0.0260
 2535TIP3    H2 7612   0.976   4.748   2.194  2.9982 -1.6167 -2.1737
 2536TIP3   OH2 7613   5.052   2.777   1.090  0.1175  0.1181  0.5594
 2536TIP3    H1 7614   4.986   2.717   1.055  0.2437  1.0399 -1.3675
 2536TIP3    H2 7615   5.008   2.820   1.164 -1.0001 -0.1719  0.0905
 2537TIP3   OH2 7616   3.900   5.070   2.544  0.1759  0.4520 -0.1943
 2537TIP3    H1 7617   3.871   5.001   2.603 -0.0160 -0.1009 -0.9130
 2537TIP3    H2 7618   3.939   5.136   2.601 -1.5752  0.7649  0.7093
 2538TIP3   OH2 7619   1.881   4.598   4.838 -0.4803 -0.1403  0.2899
 2538TIP3    H1 7620   1.876   4.564   4.927  2.0442  0.0187  0.5791
 2538TIP3    H2 7621   1.966   4.642   4.834 -1.2982  1.4234 -1.6858
 2539TIP3   OH2 7622   5.333   1.436   4.818 -0.5853 -0.3503 -0.2715
 2539TIP3    H1 7623   5.244   1.471   4.815 -1.2376 -1.9619 -0.4267
 2539TIP3    H2 7624   5.372   1.476   4.896 -1.4080  0.4301 -0.2456
 2540TIP3   OH2 7625   2.782   1.292   3.198 -0.7362 -0.2528 -0.1336
 2540TIP3    H1 7626   2.711   1.314   3.258 -0.0919 -1.2991  1.0635
 2540TIP3    H2 7627   2.861   1.324   3.242 -0.2622 -0.9531 -0.4651
 2541TIP3   OH2 7628   4.760   0.601   1.727  0.3973  0.3465 -0.3953
 2541TIP3    H1 7629   4.788   0.512   1.750 -1.7465  0.1264  1.7005
 2541TIP3    H2 7630   4.688   0.588   1.665  0.7702  0.6729 -0.9004
 2542TIP3   OH2 7631   2.294   0.423   5.179 -0.2759 -0.0868  0.0553
 2542TIP3    H1 7632   2.257   0.338   5.202  2.4985 -1.1107  1.1488
 2542TIP3    H2 7633   2.329   0.411   5.091  0.4287 -0.2148  0.3462
 2543TIP3   OH2 7634   1.325   1.892   0.591 -0.7954 -0.4214 -0.5159
 2543TIP3    H1 7635   1.341   1.854   0.504 -1.7883 -1.3477 -0.3209
 2543TIP3    H2 7636   1.387   1.848   0.648  0.8785  1.2373 -0.9639
 2544TIP3   OH2 7637   4.921   2.521   1.037 -0.0689  0.1020  0.5967
 2544TIP3    H1 7638   4.945   2.450   1.097 -0.3114 -1.0063 -0.5827
 2544TIP3    H2 7639   4.833   2.546   1.064 -0.4348 -0.8388  0.3125
 2545TIP3   OH2 7640   2.731   2.233   0.482 -0.1243  0.2766 -0.3127
 2545TIP3    H1 7641   2.717   2.282   0.400 -0.9336 -3.7280 -2.8590
 2545TIP3    H2 7642   2.645   2.199   0.504 -0.0982  1.9694  2.8980
 2546TIP3   OH2 7643   2.890   1.033   0.808  0.5043 -0.1002  0.5168
 2546TIP3    H1 7644   2.837   0.962   0.772  0.7952  0.8255 -1.9966
 2546TIP3    H2 7645   2.829   1.085   0.860 -0.1391 -1.1151  0.8079
 2547TIP3   OH2 7646   0.593   4.658   3.995 -0.0691  0.1475  0.1540
 2547TIP3    H1 7647   0.624   4.601   3.924 -0.8410  0.5817 -0.5385
 2547TIP3    H2 7648   0.563   4.597   4.062 -1.4736 -0.3038 -0.8345
 2548TIP3   OH2 7649   1.948   0.049   2.257  0.0271  0.4990 -0.1082
 2548TIP3    H1 7650   2.043   0.037   2.255 -0.0106 -0.1838  1.0715
 2548TIP3    H2 7651   1.926   0.053   2.350 -1.2066 -0.3264 -0.3331
 2549TIP3   OH2 7652   5.444   2.927   4.526 -0.5345 -0.2582 -0.1620
 2549TIP3    H1 7653   5.449   2.998   4.462 -2.2456  0.2783  0.2328
 2549TIP3    H2 7654   5.357   2.938   4.566 -0.4340 -1.9861  0.5943
 2550TIP3   OH2 7655   2.417   1.640   3.814  0.3911  0.2881  0.2243
 2550TIP3    H1 7656   2.411   1.736   3.810 -3.1292  0.2974  1.9705
 2550TIP3    H2 7657   2.469   1.623   3.892 -1.0187  0.8751  1.3347
 2551TIP3   OH2 7658   4.357   1.567   3.855 -0.1119 -0.1069  0.5098
 2551TIP3    H1 7659   4.381   1.530   3.770  1.0328 -3.1213  2.0140
 2551TIP3    H2 7660   4.381   1.659   3.848  0.3618 -0.3472 -2.2617
 2552TIP3   OH2 7661   5.940   0.216   0.866 -0.1277 -0.0070  0.2627
 2552TIP3    H1 7662   5.863   0.272   0.877 -0.3700  0.2218 -2.0870
 2552TIP3    H2 7663   6.014   0.275   0.881 -0.3764  0.0564  1.3358
 2553TIP3   OH2 7664   0.786   2.749   0.639 -0.3287 -0.0067 -0.5301
 2553TIP3    H1 7665   0.869   2.772   0.596 -0.0001  0.4195  0.3165
 2553TIP3    H2 7666   0.810   2.730   0.730 -1.3070  1.1519 -0.0094
 2554TIP3   OH2 7667   5.209   4.329   4.045 -0.4112 -0.2178  0.2805
 2554TIP3    H1 7668   5.207   4.412   4.092 -1.1032 -0.6631  1.0789
 2554TIP3    H2 7669   5.289   4.332   3.992  0.3372  0.3549  1.4084
 2555TIP3   OH2 7670   5.310   1.796   2.793  0.0289  0.2988 -0.3916
 2555TIP3    H1 7671   5.330   1.708   2.823  0.1611  0.4006 -0.1819
 2555TIP3    H2 7672   5.226   1.817   2.835  0.0658  0.3264 -0.3320
 2556TIP3   OH2 7673   5.388   0.718   3.248  0.5537 -0.0952  0.0582
 2556TIP3    H1 7674   5.365   0.803   3.209  0.3438 -0.3178 -0.3095
 2556TIP3    H2 7675   5.304   0.672   3.256  0.9588 -1.5105 -2.6952
 2557TIP3   OH2 7676   1.901   0.645   0.905 -0.3340  0.3028  0.5967
 2557TIP3    H1 7677   1.950   0.674   0.982 -0.1546  0.3575  0.4627
 2557TIP3    H2 7678   1.886   0.724   0.854 -1.2273  0.4062  1.0077
 2558TIP3   OH2 7679   1.829   5.426   1.459  0.0332 -0.0788  0.4246
 2558TIP3    H1 7680   1.778   5.471   1.526  0.5870 -0.7200  1.3066
 2558TIP3    H2 7681   1.844   5.492   1.391  0.7774  1.0696  1.6520
 2559TIP3   OH2 7682   1.763   0.989   1.170 -0.3431 -0.2288 -0.4264
 2559TIP3    H1 7683   1.761   0.947   1.256  1.5584  0.1043 -0.1839
 2559TIP3    H2 7684   1.671   1.012   1.153 -1.0883 -2.2201  0.5153
 2560TIP3   OH2 7685   4.546   5.620   3.106  0.0282 -0.3017  0.0689
 2560TIP3    H1 7686   4.567   5.710   3.082 -0.8455  0.7955  2.9961
 2560TIP3    H2 7687   4.581   5.567   3.034  0.7883  2.3215 -1.6254
 2561TIP3   OH2 7688   2.527   2.187   1.279  0.2115  0.7474  0.3464
 2561TIP3    H1 7689   2.462   2.173   1.348  0.1541 -0.0429  0.1432
 2561TIP3    H2 7690   2.576   2.263   1.307 -0.4383  1.0149  0.7881
 2562TIP3   OH2 7691   5.100   2.435   5.098 -0.2652 -0.4558 -0.6326
 2562TIP3    H1 7692   5.012   2.407   5.122 -0.3770 -0.1439 -0.6728
 2562TIP3    H2 7693   5.134   2.364   5.044 -0.1778 -0.9639  0.0694
 2563TIP3   OH2 7694   0.345   1.672   2.117 -0.2433 -0.0131  0.1065
 2563TIP3    H1 7695   0.438   1.686   2.137 -0.0823 -2.5859  1.7074
 2563TIP3    H2 7696   0.299   1.741   2.163  0.8608  1.9616 -1.5782
 2564TIP3   OH2 7697   3.420   4.467   1.343  0.1800 -0.1115 -0.0081
 2564TIP3    H1 7698   3.451   4.428   1.425 -0.5888  2.2300  1.4725
 2564TIP3    H2 7699   3.500   4.498   1.299  0.4203  0.9209  1.1190
 2565TIP3   OH2 7700   3.229   1.882   4.913  0.5389 -0.2429  0.5470
 2565TIP3    H1 7701   3.280   1.951   4.955  1.8727 -1.2670  0.6825
 2565TIP3    H2 7702   3.177   1.844   4.984  0.7276 -0.1762  0.7218
 2566TIP3   OH2 7703   2.943   4.097   2.937 -0.6949 -0.1226 -0.2181
 2566TIP3    H1 7704   3.028   4.116   2.896 -1.0240  1.1342 -0.3576
 2566TIP3    H2 7705   2.943   4.002   2.948  0.5064 -0.2037 -0.7117
 2567TIP3   OH2 7706   2.291   1.496   2.495 -0.2457  0.4329  0.3862
 2567TIP3    H1 7707   2.354   1.522   2.428  1.0100 -0.7363  1.0593
 2567TIP3    H2 7708   2.335   1.426   2.543 -2.7566 -1.7870 -0.3055
 2568TIP3   OH2 7709   1.509   5.296   5.124 -0.0437 -0.1151  0.1871
 2568TIP3    H1 7710   1.441   5.251   5.174  0.6167 -2.0563 -0.5695
 2568TIP3    H2 7711   1.460   5.353   5.063 -0.9791 -0.8932  0.1787
 2569TIP3   OH2 7712   0.129   0.952   4.727  0.3069  0.3664  0.1758
 2569TIP3    H1 7713   0.186   1.029   4.732  0.7294  0.0312  0.5459
 2569TIP3    H2 7714   0.055   0.974   4.783 -0.3677  1.1553 -0.9687
 2570TIP3   OH2 7715   0.292   4.181   2.738  0.3120 -0.5679 -0.2882
 2570TIP3    H1 7716   0.199   4.166   2.722  0.3757 -1.3059  0.0145
 2570TIP3    H2 7717   0.335   4.155   2.657  0.2480 -0.0907 -0.4798
 2571TIP3   OH2 7718   5.373   4.407   1.164 -1.0952  0.2182 -0.5950
 2571TIP3    H1 7719   5.426   4.474   1.206 -2.2008  0.7683 -0.0428
 2571TIP3    H2 7720   5.422   4.326   1.178 -0.5807  0.6555  0.2214
 2572TIP3   OH2 7721   1.740   0.109   2.905 -0.1668  0.3288  0.4880
 2572TIP3    H1 7722   1.727   0.015   2.912  0.0928  0.2614  0.1284
 2572TIP3    H2 7723   1.776   0.122   2.817  0.0637  0.7352  0.6363
 2573TIP3   OH2 7724   5.114   5.422   3.984  0.1624 -0.1009  0.2109
 2573TIP3    H1 7725   5.021   5.418   4.006  0.2235  0.7180  0.6798
 2573TIP3    H2 7726   5.117   5.468   3.900  0.1484  0.0776  0.3061
 2574TIP3   OH2 7727   0.311   1.248   1.330  0.3189  0.0372 -0.6270
 2574TIP3    H1 7728   0.259   1.248   1.410  1.3411  2.1642  0.1191
 2574TIP3    H2 7729   0.394   1.208   1.354  1.2965  2.2757 -0.0693
 2575TIP3   OH2 7730   1.897   1.333   3.703  0.3988  0.6487 -0.5594
 2575TIP3    H1 7731   1.858   1.345   3.789 -1.3199  0.7349 -1.3186
 2575TIP3    H2 7732   1.884   1.417   3.659  0.2066  0.2357 -1.3043
 2576TIP3   OH2 7733   6.321   4.883   3.016 -0.1035  0.3370 -0.2252
 2576TIP3    H1 7734   6.333   4.788   3.018 -0.4890  0.1457 -3.2099
 2576TIP3    H2 7735   6.279   4.902   3.100 -0.3590 -2.1722  0.3204
 2577TIP3   OH2 7736   5.216   5.607   2.317 -0.0735 -0.2402 -0.1112
 2577TIP3    H1 7737   5.239   5.524   2.274  0.4544 -1.1395  1.7767
 2577TIP3    H2 7738   5.127   5.626   2.288  0.3010 -0.7079 -1.6657
 2578TIP3   OH2 7739   5.511   1.557   4.478  0.5960  0.2651 -0.0165
 2578TIP3    H1 7740   5.503   1.582   4.570  0.4043  0.2780 -0.0356
 2578TIP3    H2 7741   5.431   1.590   4.437 -0.7625 -2.2418  0.3790
 2579TIP3   OH2 7742   5.834   1.498   1.224  0.3366  0.6406 -0.4696
 2579TIP3    H1 7743   5.799   1.546   1.299  2.1761  0.3091  0.6468
 2579TIP3    H2 7744   5.929   1.506   1.232  0.6062 -0.4305 -2.0927
 2580TIP3   OH2 7745   5.204   2.340   3.913 -0.2259 -0.8611  0.1340
 2580TIP3    H1 7746   5.115   2.334   3.879 -0.5410 -1.4714  1.0565
 2580TIP3    H2 7747   5.210   2.430   3.947 -0.7373 -1.0487  0.7380
 2581TIP3   OH2 7748   1.591   3.510   4.661  0.2142  0.6186 -0.1958
 2581TIP3    H1 7749   1.681   3.541   4.667  0.2086  0.4936  0.7304
 2581TIP3    H2 7750   1.578   3.459   4.742 -0.5881  0.3931 -0.4594
 2582TIP3   OH2 7751   4.975   4.098   3.758 -0.1362 -0.1170 -0.2306
 2582TIP3    H1 7752   4.892   4.145   3.763 -1.0469 -1.6547 -0.1832
 2582TIP3    H2 7753   5.026   4.132   3.832  0.1864  2.4255 -1.5326
 2583TIP3   OH2 7754   0.449   5.873   1.400 -0.1982  0.0698 -0.0556
 2583TIP3    H1 7755   0.510   5.885   1.327 -0.5631  1.4783 -0.1530
 2583TIP3    H2 7756   0.484   5.928   1.470  0.5057 -1.7713  1.0941
 2584TIP3   OH2 7757   3.681   0.698   0.734  0.2411 -0.4261  0.7482
 2584TIP3    H1 7758   3.748   0.661   0.676  0.4456 -0.5683  1.0755
 2584TIP3    H2 7759   3.652   0.624   0.787  1.6815  0.1722  2.4218
 2585TIP3   OH2 7760   0.758   5.579   3.671 -0.5070 -0.9226  0.3235
 2585TIP3    H1 7761   0.833   5.565   3.730 -0.2804 -1.1212 -0.0046
 2585TIP3    H2 7762   0.780   5.659   3.623  0.1679 -1.7348 -0.7728
 2586TIP3   OH2 7763   2.691   0.967   4.012 -0.1934  0.4107  0.1721
 2586TIP3    H1 7764   2.730   0.894   3.964 -1.4130  0.6358 -1.2109
 2586TIP3    H2 7765   2.755   1.037   4.006  0.1107  0.1035 -0.2070
 2587TIP3   OH2 7766   4.870   2.825   5.065 -0.6379 -0.2304 -0.6992
 2587TIP3    H1 7767   4.852   2.912   5.030  1.5339  1.0246  1.0679
 2587TIP3    H2 7768   4.930   2.786   5.002 -0.0286  0.3675 -0.5014
 2588TIP3   OH2 7769   2.828   4.904   2.432  0.0940 -0.0377 -0.8202
 2588TIP3    H1 7770   2.862   4.855   2.507  0.6341  0.6801 -0.5881
 2588TIP3    H2 7771   2.827   4.995   2.461  2.8744  0.6513 -2.5485
 2589TIP3   OH2 7772   3.753   4.197   0.676  0.2280 -0.9510  0.4658
 2589TIP3    H1 7773   3.689   4.217   0.608  0.2461  1.0945  0.9719
 2589TIP3    H2 7774   3.709   4.221   0.758  1.1083 -0.9705  0.9563
 2590TIP3   OH2 7775   4.589   0.869   0.605 -0.3422 -0.0168  0.5151
 2590TIP3    H1 7776   4.668   0.840   0.651 -0.5728 -1.3242  0.1149
 2590TIP3    H2 7777   4.529   0.893   0.676 -0.3341 -1.0500  0.8958
 2591TIP3   OH2 7778   5.920   1.558   4.533  0.2861  0.2313  0.5982
 2591TIP3    H1 7779   5.872   1.634   4.500 -0.6961 -0.7683 -0.3813
 2591TIP3    H2 7780   5.998   1.552   4.478 -0.1457 -0.0403  0.0043
 2592TIP3   OH2 7781   3.964   5.335   3.258 -0.1862  0.0255  0.4320
 2592TIP3    H1 7782   4.016   5.259   3.232 -0.4138  0.3291 -0.9806
 2592TIP3    H2 7783   3.954   5.386   3.178 -3.5646 -0.5701  0.3287
 2593TIP3   OH2 7784   4.044   2.036   1.392 -1.0655  0.2496  0.2256
 2593TIP3    H1 7785   4.022   2.128   1.408  2.4195  1.5811 -1.5733
 2593TIP3    H2 7786   4.022   1.992   1.474  0.2319  3.3760  2.4831
 2594TIP3   OH2 7787   2.015   1.610   1.978  0.1226  0.1888  0.0905
 2594TIP3    H1 7788   2.013   1.518   2.003  0.4807 -0.0861 -0.8735
 2594TIP3    H2 7789   2.000   1.610   1.884  2.6040  0.9278 -0.3656
 2595TIP3   OH2 7790   5.601   4.877   1.684  0.7186 -0.3776 -0.4215
 2595TIP3    H1 7791   5.620   4.942   1.751 -1.4252  0.0361 -0.1708
 2595TIP3    H2 7792   5.685   4.831   1.671  1.2337 -0.4292  2.4597
 2596TIP3   OH2 7793   2.829   5.994   0.749 -0.1541 -0.3076  0.0763
 2596TIP3    H1 7794   2.871   5.908   0.742  0.2062 -0.2456  1.3069
 2596TIP3    H2 7795   2.743   5.977   0.787  0.1569 -0.0726  0.9049
 2597TIP3   OH2 7796   3.456   5.673   3.824 -0.0082  0.6771 -0.1124
 2597TIP3    H1 7797   3.550   5.663   3.837 -0.1515 -0.7787 -0.0353
 2597TIP3    H2 7798   3.441   5.647   3.733 -0.6248 -1.6384  0.5862
 2598TIP3   OH2 7799   4.122   5.241   1.918 -0.4028  0.1850  0.9151
 2598TIP3    H1 7800   4.063   5.279   1.853  1.5124  1.1736 -0.3578
 2598TIP3    H2 7801   4.104   5.147   1.915  0.2679  0.0652 -1.8087
 2599TIP3   OH2 7802   4.288   1.458   3.307  0.2381  0.1222 -0.2135
 2599TIP3    H1 7803   4.234   1.400   3.360  0.3781  1.2610  1.2158
 2599TIP3    H2 7804   4.233   1.535   3.291  0.6843  0.3771 -0.5636
 2600TIP3   OH2 7805   1.884   3.658   1.932 -0.0667 -0.4396  0.5358
 2600TIP3    H1 7806   1.791   3.666   1.910  0.2746  0.6578 -0.6338
 2600TIP3    H2 7807   1.894   3.566   1.959 -1.0569 -1.2734 -1.6498
 2601TIP3   OH2 7808   1.529   3.022   0.391 -0.0206 -0.0367  0.0017
 2601TIP3    H1 7809   1.588   2.968   0.444 -0.7204 -1.5913 -0.7194
 2601TIP3    H2 7810   1.442   2.992   0.415 -0.4102  0.4452 -0.7894
 2602TIP3   OH2 7811   3.011   5.283   2.930  0.1139 -0.4418 -0.4574
 2602TIP3    H1 7812   2.963   5.232   2.865 -0.6383  2.0063 -1.9350
 2602TIP3    H2 7813   2.966   5.367   2.933  1.9679  0.5737  1.0141
 2603TIP3   OH2 7814   5.274   0.336   2.921  0.2549  0.0662  0.5243
 2603TIP3    H1 7815   5.270   0.315   3.014  0.3218 -0.9233  0.3163
 2603TIP3    H2 7816   5.361   0.308   2.893 -0.0085 -0.2757  0.0231
 2604TIP3   OH2 7817   3.935  -0.008   3.314  0.0431 -0.0184  0.4622
 2604TIP3    H1 7818   3.852  -0.055   3.325  0.4981 -1.1834 -0.8467
 2604TIP3    H2 7819   3.913   0.083   3.336 -1.3430 -0.4609  1.0763
 2605TIP3   OH2 7820   3.629   5.141   1.047  0.1915  0.4129  0.2110
 2605TIP3    H1 7821   3.539   5.114   1.031  0.8732 -1.1521 -1.2862
 2605TIP3    H2 7822   3.621   5.219   1.103 -1.9991 -0.6646  1.5276
 2606TIP3   OH2 7823   0.660   3.917   2.643  0.7947 -0.2491 -0.1304
 2606TIP3    H1 7824   0.594   3.947   2.706 -1.2108 -1.2432 -1.6243
 2606TIP3    H2 7825   0.733   3.887   2.698  0.1593  1.1323  1.5923
 2607TIP3   OH2 7826   0.920   0.358   4.557 -0.3470  0.1000  0.3846
 2607TIP3    H1 7827   0.834   0.365   4.517  0.2352 -0.0289 -0.9299
 2607TIP3    H2 7828   0.982   0.380   4.487  0.7577 -1.3902  0.8345
 2608TIP3   OH2 7829   6.109   1.285   1.430 -0.1019 -0.1445 -0.4732
 2608TIP3    H1 7830   6.140   1.249   1.513  2.7639 -0.7001 -1.6678
 2608TIP3    H2 7831   6.023   1.245   1.417  0.0376 -1.2174  1.4985
 2609TIP3   OH2 7832   4.234   2.367   2.442  0.4083 -0.0786  0.1379
 2609TIP3    H1 7833   4.145   2.402   2.451  0.8223  0.7814  1.0617
 2609TIP3    H2 7834   4.223   2.272   2.444 -0.4398  0.0282  0.7664
 2610TIP3   OH2 7835   1.312   0.392   3.525 -0.2392 -0.1558  0.0144
 2610TIP3    H1 7836   1.258   0.316   3.546 -0.2007  0.4629  2.7491
 2610TIP3    H2 7837   1.254   0.467   3.536  0.6867  0.4173  1.2579
 2611TIP3   OH2 7838   4.470   2.253   4.129  0.0645  0.4391  0.2480
 2611TIP3    H1 7839   4.434   2.222   4.046  0.5863 -0.5099  0.3675
 2611TIP3    H2 7840   4.509   2.176   4.169  2.6255  1.4874 -0.0528
 2612TIP3   OH2 7841   4.042   5.479   3.020 -0.3432  0.4224  0.1593
 2612TIP3    H1 7842   4.132   5.506   3.034 -0.3236  0.5106 -0.1351
 2612TIP3    H2 7843   4.047   5.415   2.949 -0.1359 -1.8774  2.1170
 2613TIP3   OH2 7844   3.828   4.177   2.735  0.0943 -0.0216  0.0438
 2613TIP3    H1 7845   3.786   4.112   2.677 -0.1688  2.4082 -2.7500
 2613TIP3    H2 7846   3.902   4.130   2.773  0.7999 -1.6722 -2.9581
 2614TIP3   OH2 7847   4.761   1.352   1.999 -0.1510 -0.0860  0.0666
 2614TIP3    H1 7848   4.708   1.421   2.039  0.2053  0.6625 -0.7065
 2614TIP3    H2 7849   4.838   1.398   1.964 -0.2565 -0.7566 -1.1015
 2615TIP3   OH2 7850   1.070   1.627   1.075 -0.2892  0.4052 -0.1115
 2615TIP3    H1 7851   1.054   1.564   1.005  1.0513 -1.4138  1.1192
 2615TIP3    H2 7852   1.027   1.590   1.152  0.9243  0.7053  0.7507
 2616TIP3   OH2 7853   0.408   1.460   4.552  0.0955 -0.5153  0.2714
 2616TIP3    H1 7854   0.376   1.376   4.518  1.0908 -1.1465  0.8463
 2616TIP3    H2 7855   0.460   1.437   4.629  1.1663  0.5451 -0.0997
 2617TIP3   OH2 7856   2.895   3.624   3.923 -0.2834  0.4754 -0.1819
 2617TIP3    H1 7857   2.988   3.643   3.923 -0.0905 -0.4173 -0.5333
 2617TIP3    H2 7858   2.861   3.668   4.001  0.8569 -1.1913  1.3309
 2618TIP3   OH2 7859   2.329   0.757   1.436 -0.0505 -0.0752  0.5764
 2618TIP3    H1 7860   2.405   0.732   1.489  0.6655  1.3559  0.2546
 2618TIP3    H2 7861   2.333   0.852   1.431 -1.2027 -0.0604 -0.4494
 2619TIP3   OH2 7862   5.324   0.794   0.745 -0.1744  0.6165 -0.1279
 2619TIP3    H1 7863   5.332   0.831   0.833 -1.4399  1.1347 -0.2162
 2619TIP3    H2 7864   5.314   0.700   0.760 -1.3295  0.7978  0.3563
 2620TIP3   OH2 7865   3.767   0.789   3.205  0.4655  0.3373  0.1112
 2620TIP3    H1 7866   3.689   0.797   3.150  0.4828  1.6837  0.2331
 2620TIP3    H2 7867   3.839   0.819   3.149  0.8046 -0.3139  0.1928
 2621TIP3   OH2 7868   2.165   0.164   2.692 -0.0288 -0.1179  0.7372
 2621TIP3    H1 7869   2.145   0.181   2.784 -0.4398  0.1588  0.5996
 2621TIP3    H2 7870   2.131   0.240   2.645  0.3135 -0.1840  0.3704
 2622TIP3   OH2 7871   3.952   1.670   0.952  0.4114  0.3825  0.3632
 2622TIP3    H1 7872   3.860   1.663   0.926 -0.4635  0.5847  3.1528
 2622TIP3    H2 7873   3.971   1.764   0.947  0.2350  0.4251  0.4769
 2623TIP3   OH2 7874   2.013   1.168   1.361 -0.0912  0.4375  0.1749
 2623TIP3    H1 7875   2.023   1.262   1.345 -0.0117  0.1564 -1.5442
 2623TIP3    H2 7876   1.965   1.135   1.285 -1.6582 -0.6555  1.5482
 2624TIP3   OH2 7877   5.320   2.580   2.762 -0.2403 -0.2971 -0.0773
 2624TIP3    H1 7878   5.383   2.565   2.832 -0.8401 -0.3100  0.4736
 2624TIP3    H2 7879   5.278   2.495   2.748 -0.0258 -0.3276 -0.5528
 2625TIP3   OH2 7880   1.462   1.813   1.324  0.4973  0.3910 -0.2825
 2625TIP3    H1 7881   1.486   1.775   1.409 -3.3338 -0.9355  0.3851
 2625TIP3    H2 7882   1.423   1.897   1.345 -1.5278 -0.4357 -0.5106
 2626TIP3   OH2 7883   6.108   4.861   3.508 -0.2363  0.0795 -0.3254
 2626TIP3    H1 7884   6.083   4.937   3.560  1.7186  0.5206  0.0610
 2626TIP3    H2 7885   6.158   4.806   3.568  0.6000 -0.2254 -1.2578
 2627TIP3   OH2 7886   5.861   2.620   3.040 -0.0136  0.0148  0.2966
 2627TIP3    H1 7887   5.823   2.560   2.976  0.6338  0.8124 -0.8791
 2627TIP3    H2 7888   5.953   2.626   3.015  1.1193 -2.1846  3.3020
 2628TIP3   OH2 7889   3.338   2.135   1.126  0.3456 -0.1835 -0.1705
 2628TIP3    H1 7890   3.421   2.143   1.079  1.4810  0.4385  1.8219
 2628TIP3    H2 7891   3.354   2.067   1.191 -0.4176  0.5787  0.8344
 2629TIP3   OH2 7892   6.115   3.087   2.712  0.2489 -0.0930 -0.4229
 2629TIP3    H1 7893   6.059   3.010   2.726 -0.3609  0.1516 -1.4500
 2629TIP3    H2 7894   6.062   3.146   2.658  0.3488  1.4705  1.1018
 2630TIP3   OH2 7895   5.023   4.131   3.245 -0.0448  0.1796 -0.1280
 2630TIP3    H1 7896   5.084   4.058   3.231 -0.0912 -0.1288  1.1529
 2630TIP3    H2 7897   5.058   4.202   3.192 -0.2465 -0.8859 -1.7763
 2631TIP3   OH2 7898   1.836   1.602   0.276  0.1117  0.0218  0.0562
 2631TIP3    H1 7899   1.836   1.625   0.369 -1.4973  1.0763 -0.1671
 2631TIP3    H2 7900   1.744   1.606   0.250  0.2823 -2.2828 -1.1260
 2632TIP3   OH2 7901   3.521   0.546   3.943  0.2371 -0.5049  0.6258
 2632TIP3    H1 7902   3.509   0.621   4.001  0.1637  2.5622 -2.9408
 2632TIP3    H2 7903   3.616   0.539   3.931  0.1651  0.6609 -0.8574
 2633TIP3   OH2 7904   3.629   0.829   1.545 -0.7032  0.8448  0.1741
 2633TIP3    H1 7905   3.639   0.819   1.450 -2.3386  0.3842  0.0181
 2633TIP3    H2 7906   3.671   0.913   1.565 -0.2013  0.8765 -0.9253
 2634TIP3   OH2 7907   2.780   3.120   3.279  0.1139 -0.3462  0.4156
 2634TIP3    H1 7908   2.720   3.046   3.282 -0.3655  0.0032 -0.3995
 2634TIP3    H2 7909   2.772   3.155   3.191  2.0466 -0.7193  0.0396
 2635TIP3   OH2 7910   0.910   3.450   1.405 -0.2319  0.0409 -0.1624
 2635TIP3    H1 7911   0.825   3.434   1.363 -0.7556  0.5092  0.6829
 2635TIP3    H2 7912   0.973   3.401   1.352 -0.9711  0.0193 -1.0433
 2636TIP3   OH2 7913   0.799   2.065   4.189 -0.3132 -0.2330  0.1337
 2636TIP3    H1 7914   0.710   2.042   4.217 -0.5625  2.3505  1.7871
 2636TIP3    H2 7915   0.818   2.147   4.234  2.2247  0.2897 -1.6679
 2637TIP3   OH2 7916   1.045   0.454   3.881 -0.0295 -0.1297  0.8482
 2637TIP3    H1 7917   1.104   0.380   3.868 -2.6395 -1.9487 -1.9785
 2637TIP3    H2 7918   1.078   0.523   3.824  0.5734 -0.2689  1.0196
 2638TIP3   OH2 7919   6.135   4.577   0.481  0.3083 -0.3359 -0.3217
 2638TIP3    H1 7920   6.051   4.532   0.472  0.4024 -0.2137 -1.9294
 2638TIP3    H2 7921   6.132   4.648   0.417  1.3661  0.1056  0.0956
 2639TIP3   OH2 7922   1.471   3.039   4.747  0.5290 -0.5930 -0.5977
 2639TIP3    H1 7923   1.397   3.098   4.759  2.3886  2.1847 -1.7986
 2639TIP3    H2 7924   1.499   3.018   4.836  0.2683  1.0381 -0.0922
 2640TIP3   OH2 7925   1.865   2.159   3.218 -0.0886  0.3494 -0.3613
 2640TIP3    H1 7926   1.828   2.090   3.273  0.0824 -0.0726 -0.7667
 2640TIP3    H2 7927   1.790   2.197   3.171 -0.6461  2.4825  2.0407
 2641TIP3   OH2 7928   1.281   5.115   2.641 -0.5372  0.2363 -0.2658
 2641TIP3    H1 7929   1.368   5.089   2.611 -0.3033 -0.3092  0.8258
 2641TIP3    H2 7930   1.298   5.175   2.713 -1.0019 -1.6497  1.5049
 2642TIP3   OH2 7931   2.070   5.910   2.578  0.4306  0.0528 -0.7063
 2642TIP3    H1 7932   2.052   5.949   2.663  1.3324  1.3553 -1.0813
 2642TIP3    H2 7933   2.113   5.827   2.598  1.3550  0.7142  0.1197
 2643TIP3   OH2 7934   4.547   5.844   3.478  0.3288  0.2645 -0.6395
 2643TIP3    H1 7935   4.616   5.833   3.545 -0.2171 -0.2804 -0.1552
 2643TIP3    H2 7936   4.503   5.759   3.475  0.1029  0.4053 -1.4313
 2644TIP3   OH2 7937   4.352   2.034   2.318  0.1451  0.5842  0.3076
 2644TIP3    H1 7938   4.381   2.115   2.276  1.6082  0.6559  1.3634
 2644TIP3    H2 7939   4.299   2.063   2.392 -4.0147  0.4538 -2.2836
 2645TIP3   OH2 7940   4.236   0.162   2.425 -0.0629 -0.4716 -0.0968
 2645TIP3    H1 7941   4.204   0.086   2.473  1.5822 -1.6211 -0.6980
 2645TIP3    H2 7942   4.292   0.209   2.487 -0.2986 -0.3006 -0.0139
 2646TIP3   OH2 7943   5.765   1.214   2.557 -0.7251 -0.2045  0.0226
 2646TIP3    H1 7944   5.793   1.196   2.468 -1.4279  0.3149 -0.3196
 2646TIP3    H2 7945   5.760   1.128   2.599  2.4783 -0.2683  0.4969
 2647TIP3   OH2 7946   0.322   1.424   2.253  0.0627 -0.4606 -0.4653
 2647TIP3    H1 7947   0.313   1.463   2.166  0.8785  0.7147 -0.0402
 2647TIP3    H2 7948   0.330   1.330   2.236  0.0973 -0.2626 -1.6504
 2648TIP3   OH2 7949   2.217   1.679   1.373  0.0424 -0.7789  0.2996
 2648TIP3    H1 7950   2.197   1.696   1.465 -1.5636  2.0111 -0.4328
 2648TIP3    H2 7951   2.239   1.765   1.337  2.4285 -2.0519 -1.5939
 2649TIP3   OH2 7952   1.152   5.628   2.388  0.1994  0.4573 -0.6048
 2649TIP3    H1 7953   1.112   5.668   2.466  1.8992 -1.2352  1.2480
 2649TIP3    H2 7954   1.095   5.554   2.368  0.9493 -0.4557  0.4875
 2650TIP3   OH2 7955   3.522   2.593   2.577 -0.5087 -0.0485 -0.3095
 2650TIP3    H1 7956   3.556   2.555   2.496 -1.9452 -2.5327  0.1756
 2650TIP3    H2 7957   3.485   2.677   2.549 -0.7062 -0.7055 -2.1894
 2651TIP3   OH2 7958   1.388   0.199   2.294 -0.7982  0.1585  0.5879
 2651TIP3    H1 7959   1.345   0.278   2.328 -1.7662 -0.0569 -0.0937
 2651TIP3    H2 7960   1.458   0.233   2.239 -1.4115  0.5701  0.0327
 2652TIP3   OH2 7961   1.055   5.477   1.956 -0.0472 -0.3487 -0.0663
 2652TIP3    H1 7962   1.012   5.414   2.014 -2.5844  1.4654  0.2178
 2652TIP3    H2 7963   0.992   5.549   1.948  1.3696  0.7437 -2.8761
 2653TIP3   OH2 7964   4.508   1.378   1.322  0.4881  0.0355  0.4225
 2653TIP3    H1 7965   4.561   1.335   1.389  1.5001  0.9164  0.2209
 2653TIP3    H2 7966   4.422   1.337   1.329  1.5401 -2.4376 -0.1668
 2654TIP3   OH2 7967   0.810   2.795   3.765 -0.5192 -0.0385 -0.0021
 2654TIP3    H1 7968   0.847   2.829   3.684 -0.1070  0.6161  0.4422
 2654TIP3    H2 7969   0.881   2.806   3.829 -1.3492  0.9239  0.7905
 2655TIP3   OH2 7970   5.734   5.298   3.503 -0.5896 -0.0351  0.2189
 2655TIP3    H1 7971   5.672   5.233   3.469  0.7256 -1.0458 -0.4032
 2655TIP3    H2 7972   5.709   5.380   3.461 -1.5051 -0.4092  0.0097
 2656TIP3   OH2 7973   2.943   3.079   0.392  0.8247 -0.2760  0.1212
 2656TIP3    H1 7974   3.019   3.063   0.447  1.1132  0.5067 -0.0337
 2656TIP3    H2 7975   2.868   3.066   0.451  1.0700 -0.9486  0.2968
 2657TIP3   OH2 7976   4.862   1.394   0.353 -0.1878 -0.5038 -0.4275
 2657TIP3    H1 7977   4.937   1.453   0.364 -0.9195  0.5107 -0.6834
 2657TIP3    H2 7978   4.830   1.379   0.442  0.4296 -1.1018 -0.3002
 2658TIP3   OH2 7979   0.189   3.925   1.444 -0.1895  0.4885 -0.1905
 2658TIP3    H1 7980   0.240   3.845   1.437 -1.4349 -0.2087 -2.3228
 2658TIP3    H2 7981   0.169   3.933   1.537 -1.6566 -2.7734 -0.0944
 2659TIP3   OH2 7982   1.008   1.913   4.863  0.1846 -0.4510  0.2723
 2659TIP3    H1 7983   0.962   1.971   4.923  0.3606  0.3685 -0.3622
 2659TIP3    H2 7984   1.060   1.856   4.919  3.2904  2.6972  0.9514
 2660TIP3   OH2 7985   4.395   3.063   1.571  0.2592  0.1337 -0.6634
 2660TIP3    H1 7986   4.349   3.146   1.584  1.4485  0.6040  0.7890
 2660TIP3    H2 7987   4.471   3.085   1.518  0.2170 -0.1472 -0.8408
 2661TIP3   OH2 7988   1.619   2.121   5.026  0.3627 -0.4889 -0.8456
 2661TIP3    H1 7989   1.554   2.090   4.963 -0.5752 -0.8761  0.2724
 2661TIP3    H2 7990   1.601   2.214   5.035  0.3374 -0.4819 -0.9625
 2662TIP3   OH2 7991   4.589   2.874   4.396  0.3380  0.6702  0.5610
 2662TIP3    H1 7992   4.527   2.938   4.364  1.1660 -0.0285 -2.7527
 2662TIP3    H2 7993   4.642   2.922   4.460 -0.5434  2.6042 -0.0923
 2663TIP3   OH2 7994   5.840   0.740   5.132 -0.0817  0.1002 -0.0309
 2663TIP3    H1 7995   5.797   0.659   5.103  0.9490  0.4776 -2.9569
 2663TIP3    H2 7996   5.908   0.711   5.192 -1.2457 -0.9562  0.8117
 2664TIP3   OH2 7997   3.784   2.947   4.763 -0.3555  0.1104  0.4608
 2664TIP3    H1 7998   3.799   2.943   4.857  0.2718 -0.8274  0.3396
 2664TIP3    H2 7999   3.867   2.978   4.726 -0.1068 -0.9130  0.1202
 2665TIP3   OH2 8000   0.144   5.444   1.898 -0.0343 -0.0618  0.4225
 2665TIP3    H1 8001   0.089   5.406   1.829  0.2681  1.1327 -0.5275
 2665TIP3    H2 8002   0.234   5.430   1.868  0.0931  2.2948 -0.5661
 2666TIP3   OH2 8003   3.916   0.715   3.595 -0.4444 -0.0700  0.5638
 2666TIP3    H1 8004   4.005   0.748   3.603 -1.0857  2.0611 -0.4236
 2666TIP3    H2 8005   3.924   0.620   3.608  2.4404 -0.4211 -2.5073
 2667TIP3   OH2 8006   5.702   4.594   1.840 -0.1152  0.4855 -0.2284
 2667TIP3    H1 8007   5.614   4.583   1.805  0.4981 -0.0142 -1.7137
 2667TIP3    H2 8008   5.750   4.637   1.769  0.7606  1.0298  0.6774
 2668TIP3   OH2 8009   1.349   4.865   3.019 -0.3147  0.1230 -0.1173
 2668TIP3    H1 8010   1.348   4.786   2.964  1.8590 -1.3486  1.7186
 2668TIP3    H2 8011   1.257   4.887   3.033 -1.0188 -2.3397 -0.4303
 2669TIP3   OH2 8012   5.623   5.624   4.236 -0.4254 -0.0330  0.0653
 2669TIP3    H1 8013   5.699   5.679   4.219 -0.6227  1.1649  2.5785
 2669TIP3    H2 8014   5.555   5.685   4.263 -1.7474 -1.2498 -0.4052
 2670TIP3   OH2 8015   3.125   3.385   4.692  0.8732 -0.1992  0.3333
 2670TIP3    H1 8016   3.216   3.414   4.695  0.5907  0.6636  2.8552
 2670TIP3    H2 8017   3.082   3.447   4.633  1.6063  0.3778  0.3919
 2671TIP3   OH2 8018   4.594   4.728   3.639  0.0452 -0.3429 -0.4740
 2671TIP3    H1 8019   4.590   4.636   3.614 -1.6162 -0.2216 -0.7942
 2671TIP3    H2 8020   4.533   4.736   3.712 -0.5914  0.6720 -1.0820
 2672TIP3   OH2 8021   3.785   3.034   5.069 -0.0725  0.3775 -0.0167
 2672TIP3    H1 8022   3.693   3.023   5.046 -0.2448  0.6697  0.5170
 2672TIP3    H2 8023   3.785   3.049   5.164  0.5017  0.6118 -0.0456
 2673TIP3   OH2 8024   5.082   1.528   0.491 -1.0072  0.7929 -0.1155
 2673TIP3    H1 8025   5.111   1.600   0.435  0.6491 -0.2319 -0.6741
 2673TIP3    H2 8026   5.153   1.517   0.555 -0.5057 -1.2031 -0.9238
 2674TIP3   OH2 8027   1.221   1.076   4.096 -0.1610  0.0697 -0.6987
 2674TIP3    H1 8028   1.240   0.989   4.063 -1.2328 -0.2355 -0.5549
 2674TIP3    H2 8029   1.305   1.122   4.094  0.6187 -1.2573  0.1153
 2675TIP3   OH2 8030   4.329   1.623   1.309 -0.1040 -0.2809 -0.0603
 2675TIP3    H1 8031   4.337   1.708   1.352 -1.5237 -1.1788  2.1474
 2675TIP3    H2 8032   4.409   1.576   1.334  0.8759  0.4763 -1.6136
 2676TIP3   OH2 8033   2.834   1.188   1.817  0.1017  0.3327  0.0967
 2676TIP3    H1 8034   2.774   1.253   1.852  1.2082  1.0380  0.7520
 2676TIP3    H2 8035   2.868   1.227   1.736  0.3970  0.3478  0.2286
 2677TIP3   OH2 8036   2.375   4.839   2.098 -0.1602  0.8044  0.1149
 2677TIP3    H1 8037   2.290   4.814   2.135  0.0683  1.5028  1.1459
 2677TIP3    H2 8038   2.436   4.835   2.172  1.0883 -1.3020 -0.9227
 2678TIP3   OH2 8039   4.645   0.465   2.117  0.0724  0.5794  0.0058
 2678TIP3    H1 8040   4.550   0.465   2.130  0.0855  0.8933  0.1198
 2678TIP3    H2 8041   4.671   0.556   2.130  0.4791  0.3831  0.6078
 2679TIP3   OH2 8042   5.651   3.371   2.635  0.1922 -0.0142 -0.4342
 2679TIP3    H1 8043   5.703   3.451   2.641 -0.9388  0.6498  0.8913
 2679TIP3    H2 8044   5.574   3.396   2.583 -0.1061 -0.2711 -0.1177
 2680TIP3   OH2 8045   3.876   5.282   0.810 -0.2293  0.3897  0.7230
 2680TIP3    H1 8046   3.788   5.259   0.778  0.9170 -1.0837 -1.6599
 2680TIP3    H2 8047   3.864   5.364   0.856 -2.1409  3.1841 -4.0109
 2681TIP3   OH2 8048   5.881   3.562   4.044  0.7840  0.0109 -0.1655
 2681TIP3    H1 8049   5.833   3.481   4.061 -1.7330  1.4774  0.2394
 2681TIP3    H2 8050   5.942   3.539   3.974 -0.9831 -1.8887 -1.2146
 2682TIP3   OH2 8051   3.477   2.547   0.557 -0.6051  0.6658  0.5140
 2682TIP3    H1 8052   3.487   2.638   0.528  2.3514  0.0382 -0.8290
 2682TIP3    H2 8053   3.402   2.514   0.508  1.4614  0.9837 -3.2802
 2683TIP3   OH2 8054   6.175   3.813   2.007 -0.0169  0.1320 -0.4663
 2683TIP3    H1 8055   6.214   3.871   1.942 -0.9346  0.8929 -0.3461
 2683TIP3    H2 8056   6.111   3.867   2.053  1.4996  0.0022  1.9897
 2684TIP3   OH2 8057   5.879   5.158   0.717  0.2231 -0.8174 -0.5503
 2684TIP3    H1 8058   5.905   5.065   0.716  0.6930 -0.7094  0.2448
 2684TIP3    H2 8059   5.960   5.205   0.697  0.5453 -0.5022  1.3015
 2685TIP3   OH2 8060   6.046   3.836   1.644 -0.0815 -0.5088 -0.6565
 2685TIP3    H1 8061   6.082   3.904   1.701 -0.5228 -1.8764  1.3645
 2685TIP3    H2 8062   5.985   3.882   1.587  1.4192  1.1379 -1.0398
 2686TIP3   OH2 8063   3.285   0.505   4.485 -0.1612 -0.0200 -0.5852
 2686TIP3    H1 8064   3.362   0.553   4.453 -0.4206  0.2973 -0.7393
 2686TIP3    H2 8065   3.262   0.550   4.566  1.3544 -1.6960  0.8514
 2687TIP3   OH2 8066   2.526   0.909   0.801 -0.3458  0.3438  0.2469
 2687TIP3    H1 8067   2.431   0.904   0.814 -0.4893 -1.0786 -1.1088
 2687TIP3    H2 8068   2.537   0.982   0.740 -0.5660  0.4278  0.3026
 2688TIP3   OH2 8069   2.341   2.010   4.284 -0.4358  0.7090 -0.5688
 2688TIP3    H1 8070   2.298   1.931   4.317  1.3136  0.0163  0.1999
 2688TIP3    H2 8071   2.404   1.977   4.220 -0.5911  1.6215 -1.2025
 2689TIP3   OH2 8072   3.240   1.088   4.002  0.4019  0.1089  0.6465
 2689TIP3    H1 8073   3.265   1.160   3.943  2.1615 -0.5655  0.5313
 2689TIP3    H2 8074   3.149   1.108   4.026 -0.2062  0.7047 -1.8616
 2690TIP3   OH2 8075   3.226   3.958   3.209 -0.2471 -0.3921 -0.4415
 2690TIP3    H1 8076   3.193   4.033   3.257 -0.7678  0.4656 -2.0472
 2690TIP3    H2 8077   3.318   3.951   3.235  0.4421  2.1924 -1.8035
 2691TIP3   OH2 8078   2.980   3.543   2.655  0.1173 -0.2949 -0.3319
 2691TIP3    H1 8079   3.023   3.494   2.725  0.5912 -1.1177 -1.1726
 2691TIP3    H2 8080   2.938   3.616   2.700  1.8245  0.1648  0.6161
 2692TIP3   OH2 8081   4.859   1.668   4.480  0.7528  0.1338  0.0035
 2692TIP3    H1 8082   4.772   1.661   4.520  1.5418 -0.8606  1.6156
 2692TIP3    H2 8083   4.854   1.612   4.403 -0.2532  0.6721 -0.3465
 2693TIP3   OH2 8084   0.376   5.411   1.796  0.7567 -0.0899 -0.0314
 2693TIP3    H1 8085   0.440   5.350   1.760  1.0247  1.6966 -2.9467
 2693TIP3    H2 8086   0.429   5.486   1.825  0.2166  0.0554  0.5920
 2694TIP3   OH2 8087   3.214   2.397   0.139 -0.1438 -0.1805 -0.1320
 2694TIP3    H1 8088   3.181   2.485   0.156 -0.1925 -0.5778  2.1944
 2694TIP3    H2 8089   3.290   2.410   0.083 -0.3262  1.2993 -0.0752
 2695TIP3   OH2 8090   0.828   4.723   1.988  0.3907  0.2293 -0.1281
 2695TIP3    H1 8091   0.739   4.699   1.963  0.7816  0.1943 -1.5763
 2695TIP3    H2 8092   0.884   4.675   1.928  1.4743 -0.7534  1.5876
 2696TIP3   OH2 8093   5.582   2.788   4.776 -0.0534 -0.2745  0.1793
 2696TIP3    H1 8094   5.528   2.791   4.856  1.7019  1.8632  1.3935
 2696TIP3    H2 8095   5.543   2.854   4.719 -0.9122 -1.3486 -0.5182
 2697TIP3   OH2 8096   3.003   2.933   0.146 -0.3216  0.1289 -0.2940
 2697TIP3    H1 8097   2.926   2.991   0.151 -0.5268 -0.1193 -0.5240
 2697TIP3    H2 8098   3.077   2.990   0.166 -0.6247  0.2368  0.5728
 2698TIP3   OH2 8099   2.443   1.276   2.628  0.1888 -0.4828  0.2819
 2698TIP3    H1 8100   2.399   1.215   2.687  2.8702 -2.1071  0.7554
 2698TIP3    H2 8101   2.455   1.227   2.547  2.3532 -0.6731  0.6588
 2699TIP3   OH2 8102  -0.015   5.882   4.766  0.4293  0.0232 -0.0145
 2699TIP3    H1 8103  -0.049   5.793   4.777  0.8812 -0.2569 -0.7724
 2699TIP3    H2 8104   0.078   5.874   4.786  0.1846  0.6800  1.5451
 2700TIP3   OH2 8105   2.650   5.112   3.909 -0.5298  0.2330  0.4387
 2700TIP3    H1 8106   2.721   5.128   3.847 -0.4987 -0.1001  0.3901
 2700TIP3    H2 8107   2.570   5.121   3.857 -0.5279  0.6773  0.5085
 2701TIP3   OH2 8108   4.436   1.595   4.846 -0.0788 -0.0677 -0.3054
 2701TIP3    H1 8109   4.433   1.548   4.929 -1.5533  0.2132 -0.1749
 2701TIP3    H2 8110   4.370   1.553   4.791  0.6436 -0.0338 -1.2378
 2702TIP3   OH2 8111   1.310   4.544   1.561 -0.4773 -0.4650  0.6424
 2702TIP3    H1 8112   1.237   4.514   1.614 -1.3038  0.1167 -0.1333
 2702TIP3    H2 8113   1.296   4.638   1.551  1.7038  0.1465  2.4865
 2703TIP3   OH2 8114   3.423   0.609   4.988  0.1837 -0.4428  0.1644
 2703TIP3    H1 8115   3.503   0.658   5.009  0.7104 -0.2724 -1.9900
 2703TIP3    H2 8116   3.353   0.675   4.990  0.1457 -0.4878  1.4979
 2704TIP3   OH2 8117   5.603   0.521   0.831  0.2262 -0.2785 -0.2228
 2704TIP3    H1 8118   5.630   0.612   0.843 -0.1377 -0.2722  0.6838
 2704TIP3    H2 8119   5.509   0.525   0.815  0.0825 -0.5176  0.4869
 2705TIP3   OH2 8120   1.886   2.828   5.013  0.0030  0.0249 -0.6507
 2705TIP3    H1 8121   1.946   2.882   5.066 -0.1835 -1.0987  0.7648
 2705TIP3    H2 8122   1.845   2.890   4.952 -2.8344  2.2994  3.1372
 2706TIP3   OH2 8123   1.909   0.809   4.904 -0.6201 -0.5284 -0.5803
 2706TIP3    H1 8124   1.950   0.723   4.891 -0.2569 -0.8052  1.8859
 2706TIP3    H2 8125   1.826   0.789   4.948 -1.0465  0.3276 -0.9850
 2707TIP3   OH2 8126   5.270   2.938   1.045  0.2522 -0.1111  0.1179
 2707TIP3    H1 8127   5.197   2.886   1.077 -0.3324  1.1661  0.8992
 2707TIP3    H2 8128   5.246   3.028   1.063  0.9521  0.5172 -1.8085
 2708TIP3   OH2 8129   1.786   3.277   4.715  0.0770 -0.2625 -0.3682
 2708TIP3    H1 8130   1.702   3.256   4.674  0.0591 -3.1403  0.9259
 2708TIP3    H2 8131   1.845   3.295   4.642 -1.4006  1.0253 -1.3264
 2709TIP3   OH2 8132   0.638   2.103   3.812  0.2441  0.1544  0.3264
 2709TIP3    H1 8133   0.578   2.177   3.803  0.8567  0.4800 -1.5291
 2709TIP3    H2 8134   0.700   2.131   3.879 -0.4690  0.6510  0.7956
 2710TIP3   OH2 8135   2.983   0.792   3.384 -0.3261 -0.3799 -0.0434
 2710TIP3    H1 8136   2.945   0.738   3.315 -1.6196 -0.6670  0.8550
 2710TIP3    H2 8137   2.947   0.756   3.465 -2.9233  2.9436  0.5391
 2711TIP3   OH2 8138   0.485   2.018   0.083 -0.1084  0.7458 -0.2076
 2711TIP3    H1 8139   0.480   1.975  -0.003 -0.6728  0.5010 -0.0613
 2711TIP3    H2 8140   0.425   1.968   0.138 -1.9748  2.6153 -0.4232
 2712TIP3   OH2 8141   3.234   4.315   3.869  0.5066  0.0492 -0.0971
 2712TIP3    H1 8142   3.273   4.304   3.955  2.4761  1.8688 -0.6731
 2712TIP3    H2 8143   3.306   4.302   3.807 -0.4829  0.4612 -1.4006
 2713TIP3   OH2 8144   3.230   3.433   2.593  0.1618 -0.1894  0.6845
 2713TIP3    H1 8145   3.149   3.481   2.607  0.4576  0.5287  0.0015
 2713TIP3    H2 8146   3.241   3.382   2.673 -1.9794 -1.8518  0.0012
 2714TIP3   OH2 8147   1.775   0.567   2.540 -0.0471 -0.0109  0.0057
 2714TIP3    H1 8148   1.843   0.598   2.481  0.8646 -1.5091  0.2165
 2714TIP3    H2 8149   1.822   0.545   2.621 -0.8151 -0.7425  0.2697
 2715TIP3   OH2 8150   0.937   0.040   1.152 -0.4523  0.6249 -0.2383
 2715TIP3    H1 8151   1.000   0.074   1.215 -2.6928 -0.4901  2.8554
 2715TIP3    H2 8152   0.975  -0.041   1.120  0.6517  1.1099 -0.1836
 2716TIP3   OH2 8153   2.020   4.063   1.437 -0.6256  0.6673 -0.6710
 2716TIP3    H1 8154   2.057   4.138   1.482 -0.3817  1.3241 -1.9237
 2716TIP3    H2 8155   2.082   3.992   1.453 -0.3580  0.9796 -0.3064
 2717TIP3   OH2 8156   4.820   3.379   1.286 -0.6447 -0.4026  0.2062
 2717TIP3    H1 8157   4.906   3.366   1.326 -0.7973 -3.4836 -0.2140
 2717TIP3    H2 8158   4.829   3.343   1.198 -1.7273  1.5698 -0.7725
 2718TIP3   OH2 8159   4.378   4.028   0.856 -0.7893  0.3327 -0.5952
 2718TIP3    H1 8160   4.459   4.074   0.835 -1.1729  0.5083 -1.7570
 2718TIP3    H2 8161   4.403   3.964   0.922  0.1603  0.8319 -0.4589
 2719TIP3   OH2 8162   1.790   5.586   1.012  0.2631 -0.3544 -0.1676
 2719TIP3    H1 8163   1.791   5.656   0.947 -1.5691 -0.2857 -0.1664
 2719TIP3    H2 8164   1.712   5.535   0.991  0.9499 -1.7661  0.5235
 2720TIP3   OH2 8165   3.151   2.528   4.753 -0.3980 -0.7489 -0.1044
 2720TIP3    H1 8166   3.180   2.559   4.667  1.4945 -1.9858  0.0154
 2720TIP3    H2 8167   3.062   2.561   4.762 -0.2677  0.2990 -2.0855
 2721TIP3   OH2 8168   5.447   3.183   0.201 -0.1959  0.3545  0.6335
 2721TIP3    H1 8169   5.402   3.252   0.152  0.0250  0.8548  1.1298
 2721TIP3    H2 8170   5.392   3.105   0.188  0.4051  0.1805 -1.2987
 2722TIP3   OH2 8171   4.844   2.589   3.989  0.4348 -0.3386 -0.9193
 2722TIP3    H1 8172   4.908   2.616   4.055 -0.0884  0.2061 -0.6206
 2722TIP3    H2 8173   4.827   2.497   4.007 -0.3876  0.0311  0.3033
 2723TIP3   OH2 8174   1.144   0.325   1.145 -0.4363 -0.5938  0.6994
 2723TIP3    H1 8175   1.136   0.277   1.228  1.8567 -1.2282  0.6062
 2723TIP3    H2 8176   1.163   0.258   1.080  0.0419  0.1354  0.0695
 2724TIP3   OH2 8177   0.244   2.811   4.152 -0.3294  0.2172  0.6404
 2724TIP3    H1 8178   0.263   2.904   4.153  1.6212 -0.1400 -0.0997
 2724TIP3    H2 8179   0.308   2.772   4.211  0.6392 -0.9163 -1.0607
 2725TIP3   OH2 8180   0.961   1.883   3.064  0.0459 -0.2710  0.0901
 2725TIP3    H1 8181   0.942   1.797   3.026  1.2770  0.0767 -1.4188
 2725TIP3    H2 8182   0.909   1.886   3.144  0.6710 -2.7974  0.6784
 2726TIP3   OH2 8183   5.613   3.763   0.934 -0.0668 -0.0382 -0.2265
 2726TIP3    H1 8184   5.614   3.668   0.924 -2.8336  0.0244 -2.6857
 2726TIP3    H2 8185   5.677   3.795   0.870  0.7698 -0.2400  0.5097
 2727TIP3   OH2 8186   2.161   2.934   0.184 -0.7115  0.3842 -0.0017
 2727TIP3    H1 8187   2.075   2.966   0.156 -0.3027  0.3299 -1.4025
 2727TIP3    H2 8188   2.188   2.996   0.252 -0.1596  2.8341 -2.2627
 2728TIP3   OH2 8189   0.588   4.615   1.899 -0.6646 -0.5547  0.0325
 2728TIP3    H1 8190   0.537   4.665   1.963  1.6321 -0.4114  1.9156
 2728TIP3    H2 8191   0.523   4.572   1.844 -2.7518  2.1580  0.1746
 2729TIP3   OH2 8192   5.466   2.661   0.338 -0.0019  0.1159  0.3696
 2729TIP3    H1 8193   5.515   2.642   0.418  0.0599  1.3668  0.6554
 2729TIP3    H2 8194   5.499   2.747   0.310  0.7568 -0.7710 -1.6134
 2730TIP3   OH2 8195   3.465   4.183   1.593 -0.1246 -0.0601  0.2668
 2730TIP3    H1 8196   3.486   4.091   1.609  1.1694  0.5278  2.2155
 2730TIP3    H2 8197   3.512   4.231   1.660 -0.5886  2.0789 -0.8454
 2731TIP3   OH2 8198   4.788   2.394   3.406  0.0937 -0.3521 -0.4436
 2731TIP3    H1 8199   4.862   2.454   3.398 -0.9529  0.8646 -1.3958
 2731TIP3    H2 8200   4.803   2.328   3.339  0.4813 -0.3000 -0.4084
 2732TIP3   OH2 8201   1.318   3.503   1.191  1.1849  0.2658  0.3747
 2732TIP3    H1 8202   1.261   3.427   1.200  0.3449  1.0858  2.7810
 2732TIP3    H2 8203   1.291   3.543   1.108 -0.1789 -0.6107  0.3597
 2733TIP3   OH2 8204   0.969   5.777   4.137  0.0426  0.2231 -0.2949
 2733TIP3    H1 8205   0.951   5.861   4.180 -1.5887 -0.6313  0.7549
 2733TIP3    H2 8206   0.999   5.720   4.207  1.2230 -0.0695 -1.0234
 2734TIP3   OH2 8207   3.197   0.450   2.300 -0.3640  0.2468 -0.0334
 2734TIP3    H1 8208   3.241   0.504   2.235 -1.2870 -0.7074 -1.4911
 2734TIP3    H2 8209   3.116   0.498   2.319 -0.7786 -0.1932 -0.6827
 2735TIP3   OH2 8210   0.451   3.298   2.320 -0.3861 -0.1989  0.2000
 2735TIP3    H1 8211   0.383   3.283   2.255  0.3171 -1.2020 -0.3265
 2735TIP3    H2 8212   0.530   3.259   2.282  0.3905  0.5619  0.9796
 2736TIP3   OH2 8213   6.315   1.044   4.943  0.3797 -0.0843 -0.2066
 2736TIP3    H1 8214   6.336   1.045   5.036 -1.6912  0.2158  0.2878
 2736TIP3    H2 8215   6.255   1.117   4.930 -3.1211 -2.7744 -0.7791
 2737TIP3   OH2 8216   4.520   0.800   0.923 -0.1147 -0.4717 -0.1437
 2737TIP3    H1 8217   4.524   0.777   1.016  1.4146  0.7276  0.1304
 2737TIP3    H2 8218   4.468   0.880   0.920  0.7936  0.1272 -0.1675
 2738TIP3   OH2 8219   3.172   0.263   4.080 -0.3239 -0.4457  0.3154
 2738TIP3    H1 8220   3.268   0.262   4.078 -0.3219 -1.5474  0.1953
 2738TIP3    H2 8221   3.150   0.276   4.172 -0.0374 -1.1974  0.5010
 2739TIP3   OH2 8222   5.541   4.636   2.309 -0.6976  0.2297  0.1539
 2739TIP3    H1 8223   5.474   4.677   2.364 -0.8833 -0.8363  0.7440
 2739TIP3    H2 8224   5.536   4.543   2.329  1.3945  0.1736  0.7090
 2740TIP3   OH2 8225   4.052   1.283   4.654 -0.3135 -0.2306 -0.0096
 2740TIP3    H1 8226   4.024   1.343   4.724  0.4656  0.3828 -0.2081
 2740TIP3    H2 8227   4.070   1.341   4.579 -0.4993 -0.8163 -0.5180
 2741TIP3   OH2 8228   2.054   2.330   1.369  0.0537  0.3561  0.0010
 2741TIP3    H1 8229   2.003   2.282   1.303 -1.7466 -0.2685  1.7509
 2741TIP3    H2 8230   2.064   2.418   1.332  0.3382 -0.3402 -1.7021
 2742TIP3   OH2 8231   3.536   5.500   4.151  0.7760 -0.3260  0.3195
 2742TIP3    H1 8232   3.585   5.442   4.093 -2.1180 -1.9532 -0.7231
 2742TIP3    H2 8233   3.479   5.550   4.093 -1.2931 -1.0702  1.5814
 2743TIP3   OH2 8234   1.620   2.739   3.066 -0.1538 -0.1937 -0.4867
 2743TIP3    H1 8235   1.607   2.813   3.125 -0.0482  0.0013 -0.7052
 2743TIP3    H2 8236   1.626   2.778   2.979 -0.5460 -0.4985 -0.6579
 2744TIP3   OH2 8237   1.808   4.842   1.766  0.2601  0.1145 -0.6202
 2744TIP3    H1 8238   1.852   4.776   1.714 -0.3289 -1.6552  1.0195
 2744TIP3    H2 8239   1.785   4.798   1.847 -0.8200  2.1401  0.2592
 2745TIP3   OH2 8240   1.457   3.612   3.331  0.1524 -0.3098  0.1880
 2745TIP3    H1 8241   1.364   3.588   3.337  0.0458  0.0476 -0.0085
 2745TIP3    H2 8242   1.502   3.529   3.315 -0.5276 -0.1086 -3.9496
 2746TIP3   OH2 8243   1.379   0.075   2.837 -0.3007 -0.1574  0.0573
 2746TIP3    H1 8244   1.375   0.030   2.921  1.0255  0.2523  0.3722
 2746TIP3    H2 8245   1.442   0.024   2.786  0.4227  0.7128  0.0465
 2747TIP3   OH2 8246   3.553   4.817   3.570  0.4788 -0.0400 -0.0109
 2747TIP3    H1 8247   3.515   4.795   3.485  0.5221  0.4580 -0.1654
 2747TIP3    H2 8248   3.632   4.764   3.576  1.7206  1.5629 -1.2831
 2748TIP3   OH2 8249   5.309   5.443   1.845  0.3207  0.5351 -0.5593
 2748TIP3    H1 8250   5.367   5.489   1.907  0.4409 -1.0477  0.5703
 2748TIP3    H2 8251   5.350   5.457   1.760  0.6846  1.9840 -0.1821
 2749TIP3   OH2 8252   6.140   2.492   0.883 -0.6581  0.1135  0.2478
 2749TIP3    H1 8253   6.236   2.491   0.879 -0.6443  2.3531 -2.1154
 2749TIP3    H2 8254   6.119   2.573   0.929 -1.4369 -0.0751  0.2391
 2750TIP3   OH2 8255   5.711   4.406   2.813  0.2715  0.1596 -0.7616
 2750TIP3    H1 8256   5.705   4.428   2.906 -0.0633 -0.5923 -0.5974
 2750TIP3    H2 8257   5.801   4.428   2.789  0.9296 -1.2904  0.1897
 2751TIP3   OH2 8258   3.964   5.571   5.028  0.4982 -0.1563 -0.2500
 2751TIP3    H1 8259   3.923   5.513   4.964  0.0825  0.3425 -0.4369
 2751TIP3    H2 8260   4.022   5.627   4.977 -0.7058  1.0273 -0.3586
 2752TIP3   OH2 8261   0.682   5.470   2.982  0.7364  0.1548  0.0895
 2752TIP3    H1 8262   0.676   5.393   2.925 -0.6138 -0.4368  1.0007
 2752TIP3    H2 8263   0.613   5.458   3.047  1.7679  1.1698  1.4351
 2753TIP3   OH2 8264   2.725   4.494   0.795  0.0471  0.7689  0.2516
 2753TIP3    H1 8265   2.702   4.479   0.886 -0.5253 -0.1081 -0.0196
 2753TIP3    H2 8266   2.641   4.515   0.752  0.1342  0.0947 -0.2670
 2754TIP3   OH2 8267   5.876   5.576   3.097  0.5389  0.3353 -0.4757
 2754TIP3    H1 8268   5.923   5.519   3.159  1.0192 -0.6201 -1.6747
 2754TIP3    H2 8269   5.822   5.516   3.046  1.0166  0.9438 -1.7396
 2755TIP3   OH2 8270   5.599   3.894   4.181  0.9586  0.4010  0.1117
 2755TIP3    H1 8271   5.647   3.825   4.226 -0.1831  0.6136  1.7487
 2755TIP3    H2 8272   5.601   3.869   4.089  0.9379 -1.5998  0.6126
 2756TIP3   OH2 8273   3.571   5.463   1.799 -0.5024 -0.4289 -0.1853
 2756TIP3    H1 8274   3.534   5.461   1.887 -1.6377 -1.9023 -0.6365
 2756TIP3    H2 8275   3.666   5.464   1.812 -0.6407 -1.2732  1.0557
 2757TIP3   OH2 8276   1.336   3.938   4.977 -0.1355 -0.3132  0.2856
 2757TIP3    H1 8277   1.289   3.902   5.053 -1.3850 -0.3141 -0.4539
 2757TIP3    H2 8278   1.329   4.033   4.987  0.4869 -0.3034  0.6389
 2758TIP3   OH2 8279   4.134   3.891   4.454 -0.2534 -0.3470 -0.3239
 2758TIP3    H1 8280   4.060   3.897   4.394 -0.1440 -0.4561 -0.4714
 2758TIP3    H2 8281   4.181   3.973   4.443  0.3546 -0.7994 -1.1674
 2759TIP3   OH2 8282   5.606   3.578   2.954 -0.8143  0.0926  0.2128
 2759TIP3    H1 8283   5.566   3.538   2.876  2.5750  1.0149 -2.2360
 2759TIP3    H2 8284   5.664   3.510   2.989  1.8565  1.3091 -1.5267
 2760TIP3   OH2 8285   3.813   4.287   5.122 -0.2060 -0.3449 -0.7087
 2760TIP3    H1 8286   3.740   4.340   5.152 -0.6626 -1.3375  0.0064
 2760TIP3    H2 8287   3.889   4.343   5.129 -0.5804  0.0293  0.6016
 2761TIP3   OH2 8288   2.378   4.012   5.129  0.3637  0.1636 -0.1854
 2761TIP3    H1 8289   2.412   4.097   5.155  0.7715 -0.0527 -0.0027
 2761TIP3    H2 8290   2.391   3.956   5.205 -0.3419  0.0515 -0.1341
 2762TIP3   OH2 8291   2.767   5.573   4.623  0.2638  0.0777  0.3112
 2762TIP3    H1 8292   2.725   5.658   4.616 -0.2899 -0.2838 -1.0234
 2762TIP3    H2 8293   2.699   5.516   4.659 -0.3427 -0.4343 -1.5467
 2763TIP3   OH2 8294   0.128   1.412   2.691 -0.2392 -1.0413 -0.1842
 2763TIP3    H1 8295   0.121   1.343   2.625 -2.2032 -0.4088 -0.6982
 2763TIP3    H2 8296   0.037   1.431   2.716  0.3422  0.3229  1.0321
 2764TIP3   OH2 8297   4.817   5.266   3.125 -0.4386 -0.1413 -0.1704
 2764TIP3    H1 8298   4.899   5.228   3.094  0.0683  0.3061  0.6178
 2764TIP3    H2 8299   4.842   5.344   3.174 -1.0053 -1.8443  3.1458
 2765TIP3   OH2 8300   0.484   5.096   2.999  0.0660 -0.5310  0.6733
 2765TIP3    H1 8301   0.427   5.022   2.978  0.1227 -0.8707  1.6443
 2765TIP3    H2 8302   0.530   5.115   2.917  0.3798 -1.8690  0.5088
 2766TIP3   OH2 8303   0.923   0.317   1.398 -0.2618  0.4239  0.1278
 2766TIP3    H1 8304   0.997   0.258   1.410  1.4289  2.0251 -1.6493
 2766TIP3    H2 8305   0.891   0.334   1.486  0.5487 -1.4084  0.8369
 2767TIP3   OH2 8306   0.390   1.618   0.514 -0.3741 -0.1333 -0.1471
 2767TIP3    H1 8307   0.389   1.643   0.606  1.3073 -2.3872  0.5845
 2767TIP3    H2 8308   0.299   1.627   0.485 -0.6010  2.5321  1.1115
 2768TIP3   OH2 8309   0.481   2.649   2.005  0.5349  0.1036 -0.5436
 2768TIP3    H1 8310   0.445   2.734   1.984 -0.2713 -0.4018 -1.2648
 2768TIP3    H2 8311   0.576   2.663   2.008  0.3568  1.2703  0.5543
 2769TIP3   OH2 8312   4.167   2.833   2.161 -0.2904  0.6735 -0.1704
 2769TIP3    H1 8313   4.192   2.750   2.202  0.3469 -0.2267 -2.2200
 2769TIP3    H2 8314   4.110   2.876   2.225  0.0678 -0.9413  1.3047
 2770TIP3   OH2 8315   4.436   2.227   1.603  0.0496 -0.1405  0.6156
 2770TIP3    H1 8316   4.418   2.266   1.517  0.6547  1.5384  1.2074
 2770TIP3    H2 8317   4.451   2.302   1.660  1.8094 -1.2664  1.7123
 2771TIP3   OH2 8318   0.332   2.418   2.053  0.2909  0.3502  0.0887
 2771TIP3    H1 8319   0.390   2.488   2.024 -0.3445  0.7339 -0.2771
 2771TIP3    H2 8320   0.292   2.385   1.972  0.4036 -0.2754  0.2820
 2772TIP3   OH2 8321   4.516   2.376   1.220 -0.6609  0.0413 -0.0903
 2772TIP3    H1 8322   4.424   2.350   1.226 -0.8972  0.7742 -0.4375
 2772TIP3    H2 8323   4.544   2.345   1.134 -0.8003  0.4687 -0.2942
 2773TIP3   OH2 8324   3.618   0.321   5.149 -0.1229 -0.3672  0.1038
 2773TIP3    H1 8325   3.576   0.300   5.066  1.1799 -0.3152 -0.5948
 2773TIP3    H2 8326   3.629   0.236   5.192 -1.1518 -0.3569  0.4314
 2774TIP3   OH2 8327   4.223   0.684   3.332  0.0741 -0.2392 -0.3200
 2774TIP3    H1 8328   4.205   0.743   3.406 -0.8317 -1.4631  0.4821
 2774TIP3    H2 8329   4.165   0.609   3.347  1.0494 -1.2522 -1.4184
 2775TIP3   OH2 8330   4.529   0.425   3.842  0.2093 -0.7226  0.0442
 2775TIP3    H1 8331   4.483   0.469   3.914 -0.3721 -0.1702 -0.6470
 2775TIP3    H2 8332   4.552   0.496   3.782  0.2087 -1.2387 -0.5747
 2776TIP3   OH2 8333   3.820   0.095   1.060 -0.2985  0.1617 -0.5902
 2776TIP3    H1 8334   3.731   0.119   1.035  0.1138  0.2683 -2.0398
 2776TIP3    H2 8335   3.870   0.175   1.047  0.0065  0.1277  0.3088
 2777TIP3   OH2 8336   0.790   3.522   1.661  0.2937  0.0145  0.8729
 2777TIP3    H1 8337   0.845   3.506   1.585  1.4338 -0.6480  1.8022
 2777TIP3    H2 8338   0.731   3.446   1.664 -0.9740  0.9016 -0.3317
 2778TIP3   OH2 8339   2.372   3.077   0.085  0.3037 -0.7459  0.7719
 2778TIP3    H1 8340   2.412   3.146   0.139  2.3301  1.3023 -2.9270
 2778TIP3    H2 8341   2.285   3.063   0.124  0.7039  2.1895  3.0867
 2779TIP3   OH2 8342   5.696   5.408   4.423 -0.4612  0.5806  0.0543
 2779TIP3    H1 8343   5.638   5.332   4.425 -0.1572  0.2220 -2.3273
 2779TIP3    H2 8344   5.648   5.474   4.374 -0.3738  1.6671  1.3693
 2780TIP3   OH2 8345   3.261   3.810   5.203 -0.0962 -0.2111  0.0717
 2780TIP3    H1 8346   3.298   3.885   5.158 -0.5096  0.1161  0.2687
 2780TIP3    H2 8347   3.293   3.734   5.155  0.0184  0.1078 -0.3535
 2781TIP3   OH2 8348   5.624   1.109   1.424  0.7887 -0.2800 -0.3514
 2781TIP3    H1 8349   5.621   1.052   1.348 -1.4300  0.4414 -0.8862
 2781TIP3    H2 8350   5.535   1.145   1.431  1.2098  0.5169  1.9363
 2782TIP3   OH2 8351   4.563   4.718   5.065  0.1373 -0.2120 -0.1968
 2782TIP3    H1 8352   4.641   4.665   5.078  0.6118  0.8804  1.7369
 2782TIP3    H2 8353   4.533   4.739   5.153 -2.1620 -0.3120 -0.8886
 2783TIP3   OH2 8354   0.810   5.113   0.201 -0.0781 -0.1067  0.2318
 2783TIP3    H1 8355   0.745   5.176   0.170  1.6357  1.7737  0.1915
 2783TIP3    H2 8356   0.844   5.071   0.122  1.4871  1.8152 -0.2132
 2784TIP3   OH2 8357   0.271   2.648   3.889 -0.5392 -0.0874  0.1000
 2784TIP3    H1 8358   0.254   2.713   3.958 -0.7022 -0.3859  0.3424
 2784TIP3    H2 8359   0.228   2.568   3.920 -1.9109  0.1748 -1.0374
 2785TIP3   OH2 8360   3.573   3.211   4.213 -0.0069  0.3960  0.3800
 2785TIP3    H1 8361   3.524   3.294   4.212 -0.3982  0.1769 -0.8531
 2785TIP3    H2 8362   3.574   3.183   4.122  1.5213 -0.1593  0.5486
 2786TIP3   OH2 8363   1.460   0.374   1.534  0.4024  0.6602  0.0870
 2786TIP3    H1 8364   1.554   0.387   1.542  0.2654  1.4672  0.5533
 2786TIP3    H2 8365   1.444   0.366   1.440  0.8569  1.1402 -0.0316
 2787TIP3   OH2 8366   1.158   0.107   1.311 -0.0089 -0.0706  0.6394
 2787TIP3    H1 8367   1.242   0.076   1.275 -0.6446 -0.4685 -0.5799
 2787TIP3    H2 8368   1.156   0.074   1.400  1.8984  1.4288  1.3107
 2788TIP3   OH2 8369   5.506   2.177   0.632  0.4308 -0.1652 -0.1200
 2788TIP3    H1 8370   5.540   2.253   0.678  2.4508 -1.2550  0.3341
 2788TIP3    H2 8371   5.484   2.114   0.701 -1.5328  0.0795 -0.4700
 2789TIP3   OH2 8372   4.111   3.540   1.587  0.4126 -0.3525  0.2723
 2789TIP3    H1 8373   4.105   3.622   1.637  1.1240  0.2141 -0.5306
 2789TIP3    H2 8374   4.051   3.552   1.513 -0.6578 -1.1968  0.9695
 2790TIP3   OH2 8375   1.137   0.190   0.286  0.0730 -0.5021 -0.2281
 2790TIP3    H1 8376   1.043   0.194   0.271 -0.0272  0.0879  0.4972
 2790TIP3    H2 8377   1.146   0.151   0.374  0.4804 -0.1338 -0.1013
 2791TIP3   OH2 8378   3.657   0.780   2.757  0.1840  0.0345 -0.5329
 2791TIP3    H1 8379   3.588   0.722   2.723 -1.0267 -0.1100  1.9735
 2791TIP3    H2 8380   3.640   0.785   2.851  2.9236  0.9540  0.0025
 2792TIP3   OH2 8381   2.733   5.847   4.524  0.2226  0.1314 -0.1635
 2792TIP3    H1 8382   2.663   5.794   4.485  0.9037  0.3055 -1.7034
 2792TIP3    H2 8383   2.697   5.935   4.529  0.3839  0.2688 -1.1696
 2793TIP3   OH2 8384   3.431   5.952   3.214 -0.0223 -0.3096 -0.1758
 2793TIP3    H1 8385   3.499   6.013   3.243 -0.3685 -1.0449  2.3692
 2793TIP3    H2 8386   3.392   5.919   3.294 -4.3072  0.9807 -1.4573
 2794TIP3   OH2 8387   4.363   5.935   1.429 -0.0042 -0.2142  0.0273
 2794TIP3    H1 8388   4.401   6.023   1.421 -0.7397 -0.0229 -1.9244
 2794TIP3    H2 8389   4.422   5.889   1.489  0.1115  1.7369  1.5583
 2795TIP3   OH2 8390   4.483   3.525   4.571 -0.6516 -0.5296  0.0386
 2795TIP3    H1 8391   4.506   3.437   4.540 -0.4427 -0.4956  0.0996
 2795TIP3    H2 8392   4.390   3.534   4.549 -0.5036 -0.5056 -0.5909
 2796TIP3   OH2 8393   1.830   1.649   2.575 -0.5050 -0.2349  0.1604
 2796TIP3    H1 8394   1.889   1.618   2.643 -0.0770 -1.0115 -0.5423
 2796TIP3    H2 8395   1.825   1.744   2.588  2.8796  0.2911 -1.2577
 2797TIP3   OH2 8396   1.821   3.863   2.281  0.1134 -0.1029 -0.5936
 2797TIP3    H1 8397   1.793   3.859   2.372  2.4147  0.6582  0.2163
 2797TIP3    H2 8398   1.877   3.786   2.270  2.6610  1.5680 -0.2423
 2798TIP3   OH2 8399   5.337   0.656   2.769 -0.2285 -0.1435  0.1297
 2798TIP3    H1 8400   5.382   0.608   2.700  0.3712  0.2606  0.2273
 2798TIP3    H2 8401   5.259   0.605   2.788 -0.7581  0.0863 -1.3273
 2799TIP3   OH2 8402   5.124   5.353   3.302 -0.4245 -0.5479  0.1236
 2799TIP3    H1 8403   5.163   5.369   3.388 -0.4159  3.5771 -0.4681
 2799TIP3    H2 8404   5.034   5.383   3.310  0.2433  2.3880 -1.8105
 2800TIP3   OH2 8405   4.755   3.150   1.878 -0.6085 -0.3290  0.3500
 2800TIP3    H1 8406   4.787   3.231   1.837  0.7510 -1.2288 -0.4535
 2800TIP3    H2 8407   4.753   3.086   1.807 -0.2528 -1.3757  1.2411
 2801TIP3   OH2 8408   5.089   4.628   3.163 -0.0609 -0.2091  0.7996
 2801TIP3    H1 8409   5.000   4.647   3.195 -1.0759  0.8006 -2.2247
 2801TIP3    H2 8410   5.077   4.559   3.098  1.0623  1.0713 -0.8543
 2802TIP3   OH2 8411   0.696   4.509   3.803  0.0157  0.0228 -0.7127
 2802TIP3    H1 8412   0.631   4.490   3.735 -0.6777 -0.0940 -0.0226
 2802TIP3    H2 8413   0.780   4.502   3.757 -0.4891  2.1926 -2.1422
 2803TIP3   OH2 8414   2.288   5.527   1.238  0.6297 -0.7114  0.3160
 2803TIP3    H1 8415   2.224   5.500   1.172 -0.6473  1.7792  0.4582
 2803TIP3    H2 8416   2.352   5.455   1.238 -1.3290 -2.5961 -0.8728
 2804TIP3   OH2 8417   5.392   0.646   1.334 -0.3636 -0.1557  0.0848
 2804TIP3    H1 8418   5.464   0.632   1.396  0.2104 -0.3925 -0.6193
 2804TIP3    H2 8419   5.393   0.568   1.279 -0.9736 -0.0221 -0.1185
 2805TIP3   OH2 8420   5.071   3.923   1.288 -0.1054  0.0594  0.6224
 2805TIP3    H1 8421   5.144   3.982   1.306  0.6447 -0.4421 -0.6115
 2805TIP3    H2 8422   4.995   3.964   1.331  0.7681  0.9002  1.4149
 2806TIP3   OH2 8423   4.172   3.921   0.735 -0.2060 -0.4786  0.2530
 2806TIP3    H1 8424   4.237   3.971   0.784  1.1780 -0.8783 -1.0838
 2806TIP3    H2 8425   4.218   3.892   0.657 -2.3676  0.4074 -1.4881
 2807TIP3   OH2 8426   2.127   4.062   4.331 -0.2402 -0.3988 -0.7427
 2807TIP3    H1 8427   2.031   4.057   4.330 -0.3661  0.3394  1.2974
 2807TIP3    H2 8428   2.153   4.004   4.403  0.5957  1.5134  0.5845
 2808TIP3   OH2 8429   2.341   1.415   2.039  0.0114 -0.2737  0.2007
 2808TIP3    H1 8430   2.377   1.339   1.994 -0.2429 -1.3979  1.7912
 2808TIP3    H2 8431   2.246   1.399   2.039 -0.2402  1.0619 -1.1789
 2809TIP3   OH2 8432   0.224   2.043   0.509  0.3986 -0.2034 -0.2518
 2809TIP3    H1 8433   0.150   2.095   0.539  0.1788  1.7639 -3.6475
 2809TIP3    H2 8434   0.301   2.096   0.529  0.5615 -0.4891 -0.1037
 2810TIP3   OH2 8435   0.080   3.189   3.208  0.7629 -0.1544  0.2999
 2810TIP3    H1 8436   0.050   3.109   3.251  0.2210 -0.8675 -1.3400
 2810TIP3    H2 8437   0.118   3.159   3.126 -0.5744  1.3536 -0.9335
 2811TIP3   OH2 8438   2.959   5.692   1.972 -0.0604  0.3906  0.1021
 2811TIP3    H1 8439   2.997   5.777   1.992 -0.3474  0.7388 -0.7887
 2811TIP3    H2 8440   3.032   5.640   1.940  0.6044 -0.4788  2.8196
 2812TIP3   OH2 8441   2.541   4.954   4.678 -0.2757  0.0264 -0.5767
 2812TIP3    H1 8442   2.575   5.041   4.658  0.7207  0.0229  0.9836
 2812TIP3    H2 8443   2.614   4.908   4.718 -1.5376 -0.6563  1.0437
 2813TIP3   OH2 8444   0.706   0.772   4.186 -0.3139  0.3915 -0.0838
 2813TIP3    H1 8445   0.748   0.848   4.145 -0.4751 -0.1124 -1.2306
 2813TIP3    H2 8446   0.775   0.732   4.239 -0.0710  1.0138  0.0779
 2814TIP3   OH2 8447   4.965   2.176   3.526 -0.7610 -0.5295  1.2241
 2814TIP3    H1 8448   5.015   2.103   3.488  0.9415  1.0898  0.1724
 2814TIP3    H2 8449   4.896   2.194   3.462 -0.0124 -0.0227  0.5408
 2815TIP3   OH2 8450   0.983   2.757   5.175 -0.4117  0.5826 -0.4167
 2815TIP3    H1 8451   1.067   2.776   5.133 -0.1010  1.4229  0.5437
 2815TIP3    H2 8452   0.929   2.723   5.105  0.7717 -0.0992 -1.0354
 2816TIP3   OH2 8453   1.707   1.123   3.825  0.0444  0.0906 -0.1040
 2816TIP3    H1 8454   1.716   1.080   3.910 -0.2193 -0.5673 -0.3925
 2816TIP3    H2 8455   1.787   1.101   3.778  1.4405  2.6799  0.8858
 2817TIP3   OH2 8456   3.775   5.311   5.159 -0.2703  0.1093 -0.2064
 2817TIP3    H1 8457   3.751   5.401   5.136  0.1661 -0.0050 -1.1493
 2817TIP3    H2 8458   3.828   5.280   5.085  3.0429  0.4351  1.7969
 2818TIP3   OH2 8459   3.961   2.846   0.946 -0.2049  0.6842  0.1046
 2818TIP3    H1 8460   3.949   2.868   0.853 -0.4543 -1.5548 -0.4377
 2818TIP3    H2 8461   4.053   2.865   0.964  0.2600 -0.3403 -1.0567
 2819TIP3   OH2 8462   2.023   4.706   3.819 -0.5309 -0.4083 -0.1410
 2819TIP3    H1 8463   2.109   4.698   3.859 -0.7788 -2.2882  0.1126
 2819TIP3    H2 8464   1.980   4.777   3.867  0.3919 -0.3365  0.6048
 2820TIP3   OH2 8465   4.637   0.465   0.430  0.0680  0.4859  0.9583
 2820TIP3    H1 8466   4.715   0.521   0.430  0.4152  0.0328  0.2426
 2820TIP3    H2 8467   4.563   0.525   0.436  0.4008  1.0961 -0.6048
 2821TIP3   OH2 8468   1.084   4.430   2.667  0.1757 -0.8047 -0.1319
 2821TIP3    H1 8469   1.060   4.513   2.709  1.9501 -1.0644  1.5102
 2821TIP3    H2 8470   1.011   4.371   2.687  0.1218 -0.3843  0.9808
 2822TIP3   OH2 8471   2.102   3.231   0.722  0.6280  0.5612  0.3603
 2822TIP3    H1 8472   2.163   3.305   0.724 -0.8619  1.8531 -0.1411
 2822TIP3    H2 8473   2.056   3.236   0.805 -0.2410  0.9005 -0.1248
 2823TIP3   OH2 8474   0.107   2.149   4.158  0.9147  0.7405  0.4712
 2823TIP3    H1 8475   0.078   2.240   4.151 -0.0048  0.5125  1.2193
 2823TIP3    H2 8476   0.158   2.134   4.078 -1.1571  1.0985 -0.9799
 2824TIP3   OH2 8477   2.486   0.902   2.783  0.4913 -0.3386  0.2130
 2824TIP3    H1 8478   2.545   0.918   2.857 -1.3768 -1.5962  2.0792
 2824TIP3    H2 8479   2.545   0.892   2.708  2.5664 -0.3740  1.7368
 2825TIP3   OH2 8480   4.042   2.991   4.690 -0.1943  0.1621  0.2816
 2825TIP3    H1 8481   4.094   2.942   4.627  1.0048 -0.0497  1.3949
 2825TIP3    H2 8482   4.062   2.951   4.774  0.1595  1.9841  1.1151
 2826TIP3   OH2 8483   1.852   1.990   0.245  0.4683 -0.1816 -0.2338
 2826TIP3    H1 8484   1.867   1.902   0.281  0.3869 -1.6042 -3.2779
 2826TIP3    H2 8485   1.762   2.011   0.270  0.1020 -1.4995 -0.3359
 2827TIP3   OH2 8486   3.954   0.435   2.981  0.0991  0.2747  0.7336
 2827TIP3    H1 8487   3.988   0.524   2.993 -0.2629  0.3254  1.4817
 2827TIP3    H2 8488   3.859   0.446   2.983  0.0244  0.0727 -0.8466
 2828TIP3   OH2 8489   4.822   2.945   2.844 -0.0800 -0.0517 -0.1605
 2828TIP3    H1 8490   4.770   2.872   2.876  0.1986 -0.3702 -0.4270
 2828TIP3    H2 8491   4.904   2.940   2.893  0.0136 -0.0307 -0.3151
 2829TIP3   OH2 8492   6.317   4.527   3.773  0.0678 -0.0025  0.0315
 2829TIP3    H1 8493   6.236   4.510   3.821 -1.1269  0.0616 -1.8586
 2829TIP3    H2 8494   6.380   4.552   3.840 -1.5917  0.3584  1.5184
 2830TIP3   OH2 8495   3.718   2.369   1.535 -0.0132  0.0279  0.4590
 2830TIP3    H1 8496   3.795   2.377   1.479  0.4144  0.0090  1.0324
 2830TIP3    H2 8497   3.678   2.286   1.511  0.0486  0.1177  0.0417
 2831TIP3   OH2 8498   3.847   0.548   0.559  0.5069 -0.2292  0.2472
 2831TIP3    H1 8499   3.941   0.552   0.574  0.4874 -1.1074  0.6707
 2831TIP3    H2 8500   3.836   0.487   0.486  0.2830  0.0729  0.0261
 2832TIP3   OH2 8501   1.295   4.515   0.141  0.5512 -0.5539 -0.3069
 2832TIP3    H1 8502   1.253   4.437   0.177 -1.9192  0.5422 -0.5880
 2832TIP3    H2 8503   1.261   4.521   0.051  0.1267  1.1961 -0.0688
 2833TIP3   OH2 8504   1.173   1.616   1.516 -0.2585 -0.1718  0.1438
 2833TIP3    H1 8505   1.167   1.690   1.576 -1.5905 -1.7862  2.1550
 2833TIP3    H2 8506   1.111   1.636   1.447 -1.0600  0.3364  0.9918
 2834TIP3   OH2 8507   0.093   0.144   4.800 -0.1523 -0.9136  0.5111
 2834TIP3    H1 8508   0.044   0.164   4.880 -0.3363  0.8012  0.0032
 2834TIP3    H2 8509   0.132   0.227   4.774 -0.4883 -1.3223 -1.4562
 2835TIP3   OH2 8510   1.014   4.710   3.174 -0.3862  0.2755  0.1289
 2835TIP3    H1 8511   1.053   4.628   3.142 -0.0670  1.0139 -1.4938
 2835TIP3    H2 8512   1.080   4.777   3.153 -0.5127  0.9268  1.6964
 2836TIP3   OH2 8513   3.488   5.178   1.753 -0.0892  0.2756  0.2783
 2836TIP3    H1 8514   3.488   5.236   1.677 -0.8695  1.5421  1.2053
 2836TIP3    H2 8515   3.579   5.176   1.783  0.0428  0.5623 -0.1041
 2837TIP3   OH2 8516   0.931   5.372   1.745 -0.0201  0.2456 -0.0307
 2837TIP3    H1 8517   0.975   5.353   1.828  0.5794 -0.1291 -0.4322
 2837TIP3    H2 8518   0.957   5.301   1.687 -0.3460  0.5704 -0.5801
 2838TIP3   OH2 8519   6.295   2.194   4.964  0.5815 -0.3369 -0.3382
 2838TIP3    H1 8520   6.208   2.203   4.926  0.6883 -0.9812 -0.7374
 2838TIP3    H2 8521   6.331   2.283   4.962  1.3288 -0.5939 -3.4978
 2839TIP3   OH2 8522   5.548   3.085   4.744 -0.3122  0.1702  0.2535
 2839TIP3    H1 8523   5.483   3.136   4.791 -1.0298  0.0131 -0.5390
 2839TIP3    H2 8524   5.501   3.050   4.668  0.0597 -1.9340  0.9231
 2840TIP3   OH2 8525   1.694   2.501   2.760 -0.4681  0.1245 -0.3991
 2840TIP3    H1 8526   1.788   2.490   2.771 -0.5284  0.1057  0.1285
 2840TIP3    H2 8527   1.684   2.540   2.673 -0.2115 -3.0725 -1.9885
 2841TIP3   OH2 8528   2.695   5.575   2.688 -0.2192 -0.3262 -0.0686
 2841TIP3    H1 8529   2.602   5.563   2.709 -0.8860 -0.8212 -2.9342
 2841TIP3    H2 8530   2.695   5.621   2.604  2.1772  0.2973  0.1930
 2842TIP3   OH2 8531   1.190   0.180   3.824 -0.0171 -0.0939  0.3598
 2842TIP3    H1 8532   1.283   0.162   3.815  0.3500  2.0331 -0.6550
 2842TIP3    H2 8533   1.175   0.184   3.919  1.0478  0.1787  0.5240
 2843TIP3   OH2 8534   3.522   2.860   1.454  0.4544  0.0271  0.3729
 2843TIP3    H1 8535   3.534   2.795   1.385 -2.0543 -2.6949  2.2946
 2843TIP3    H2 8536   3.429   2.884   1.450  0.5845  0.9624  1.8427
 2844TIP3   OH2 8537   1.414   5.184   4.164 -0.4097 -0.5491 -0.2481
 2844TIP3    H1 8538   1.436   5.185   4.257  2.3254 -1.3577 -0.7836
 2844TIP3    H2 8539   1.393   5.275   4.142  0.7618 -0.0062  0.7974
 2845TIP3   OH2 8540   3.249   0.809   0.640  0.3750  0.1813  0.0997
 2845TIP3    H1 8541   3.200   0.828   0.720  0.9871 -1.8555  1.0261
 2845TIP3    H2 8542   3.190   0.836   0.569 -1.2794 -0.3904  1.1885
 2846TIP3   OH2 8543   5.208   1.975   2.452  0.3402  0.2257 -0.5645
 2846TIP3    H1 8544   5.256   1.892   2.450  1.0965  0.3702  3.2970
 2846TIP3    H2 8545   5.116   1.950   2.452  0.5574 -0.7150  1.0070
 2847TIP3   OH2 8546   1.664   3.548   2.955 -0.2824  0.0012  0.8303
 2847TIP3    H1 8547   1.677   3.472   3.013  1.5399  0.6548  1.3586
 2847TIP3    H2 8548   1.639   3.619   3.014  0.4735  0.3939  0.6903
 2848TIP3   OH2 8549   3.034   5.382   0.616  0.1813  0.2477  0.6442
 2848TIP3    H1 8550   2.990   5.357   0.535 -0.4339 -0.1315  1.0855
 2848TIP3    H2 8551   3.113   5.428   0.588  0.5178 -0.8123 -0.1800
 2849TIP3   OH2 8552   5.385   1.127   2.104  0.1762  0.4340  0.2889
 2849TIP3    H1 8553   5.388   1.107   2.197  1.4994 -1.6269 -0.1289
 2849TIP3    H2 8554   5.317   1.195   2.096  0.2228  0.8579  2.7419
 2850TIP3   OH2 8555   5.430   2.817   1.585  0.0484  0.3764 -0.4948
 2850TIP3    H1 8556   5.397   2.899   1.620 -0.0949  0.4239 -0.7355
 2850TIP3    H2 8557   5.506   2.796   1.639 -0.6473  0.0291  0.3667
 2851TIP3   OH2 8558   6.312   1.972   0.606 -0.0709 -0.2278  0.0332
 2851TIP3    H1 8559   6.300   1.887   0.563 -0.6080  0.0337 -0.3464
 2851TIP3    H2 8560   6.228   2.016   0.595 -0.2145 -0.1309  1.3207
 2852TIP3   OH2 8561   3.412   5.256   3.599 -0.1338  0.2689 -0.2330
 2852TIP3    H1 8562   3.451   5.287   3.517 -0.2387  0.6276 -0.1504
 2852TIP3    H2 8563   3.460   5.175   3.620  0.4995  0.6488 -0.1847
 2853TIP3   OH2 8564   5.420   5.261   2.832 -0.1436  0.3977  0.1564
 2853TIP3    H1 8565   5.384   5.257   2.921 -1.9648 -0.1400 -0.5493
 2853TIP3    H2 8566   5.499   5.208   2.835  0.1911  0.9409  1.6077
 2854TIP3   OH2 8567   4.293   2.254   1.320  0.0506 -0.2155 -0.1017
 2854TIP3    H1 8568   4.314   2.160   1.314  0.9980 -0.0298  0.1447
 2854TIP3    H2 8569   4.206   2.256   1.358 -0.2705 -1.0187 -0.7510
 2855TIP3   OH2 8570   5.646   2.922   5.101  0.4281 -0.0531 -0.0794
 2855TIP3    H1 8571   5.718   2.875   5.058  0.4617 -0.3595  0.2957
 2855TIP3    H2 8572   5.653   3.012   5.070  1.2648  0.0277  0.3103
 2856TIP3   OH2 8573   0.334   1.929   1.462 -0.3288 -0.6472 -0.0808
 2856TIP3    H1 8574   0.395   1.855   1.458 -1.2497 -1.4181 -0.0779
 2856TIP3    H2 8575   0.350   1.977   1.380  1.1857 -0.0804  0.5028
 2857TIP3   OH2 8576   1.419   5.933   0.872 -0.2454  0.2736  0.3599
 2857TIP3    H1 8577   1.405   5.843   0.900  0.3430  0.1926  0.4099
 2857TIP3    H2 8578   1.368   5.986   0.934 -0.1169  0.0069  0.6971
 2858TIP3   OH2 8579   0.612   3.690   1.420 -0.0062 -0.0050 -0.9276
 2858TIP3    H1 8580   0.645   3.624   1.482  1.2904  1.7450  0.3517
 2858TIP3    H2 8581   0.531   3.721   1.460  0.0327  0.0493 -0.8910
 2859TIP3   OH2 8582   1.979   4.447   2.260  0.2666 -0.9246  0.6405
 2859TIP3    H1 8583   2.059   4.454   2.312  0.3586 -1.9276  0.6594
 2859TIP3    H2 8584   1.996   4.374   2.200  0.1895  0.2500 -0.8544
 2860TIP3   OH2 8585   1.925   2.810   4.522  0.0347  0.3940 -0.3676
 2860TIP3    H1 8586   1.928   2.834   4.615  1.4054  0.1864 -0.3325
 2860TIP3    H2 8587   2.008   2.841   4.487 -0.0748 -0.3407 -1.3225
 2861TIP3   OH2 8588   5.479   5.464   4.932  0.8037  0.2075 -0.1031
 2861TIP3    H1 8589   5.446   5.395   4.874 -0.8665  0.2853  0.6872
 2861TIP3    H2 8590   5.495   5.420   5.015  3.7042 -0.0150 -0.6636
 2862TIP3   OH2 8591   2.415   3.391   4.040  0.8670  0.9481  0.0313
 2862TIP3    H1 8592   2.505   3.372   4.064  0.0282 -3.2242  0.7218
 2862TIP3    H2 8593   2.417   3.399   3.945  1.9804  1.0770  0.0525
 2863TIP3   OH2 8594   6.040   4.792   1.815 -0.1203  0.2610 -0.2522
 2863TIP3    H1 8595   6.076   4.706   1.837 -0.1838  0.9095  2.9942
 2863TIP3    H2 8596   6.108   4.834   1.762  1.0243 -0.9020  0.2415
 2864TIP3   OH2 8597   3.270   4.286   4.146  0.5622 -0.7272 -0.4751
 2864TIP3    H1 8598   3.342   4.255   4.200  0.4564  0.2900  0.2786
 2864TIP3    H2 8599   3.197   4.299   4.207  0.0664 -0.7020 -1.0512
 2865TIP3   OH2 8600   2.855   4.794   3.471 -0.2005 -0.7191 -0.4318
 2865TIP3    H1 8601   2.911   4.859   3.430  0.6299 -1.1314  0.0192
 2865TIP3    H2 8602   2.807   4.843   3.538 -2.7730  0.3128 -2.8433
 2866TIP3   OH2 8603   0.514   0.766   3.964 -0.0453  0.0745 -0.3101
 2866TIP3    H1 8604   0.584   0.758   4.029  0.6482 -1.2804 -1.1674
 2866TIP3    H2 8605   0.479   0.677   3.955  0.1176  0.1428 -2.0102
 2867TIP3   OH2 8606   1.930   0.377   0.930 -0.4660  0.0309 -0.0090
 2867TIP3    H1 8607   1.940   0.471   0.916  0.0660 -0.0507 -0.2175
 2867TIP3    H2 8608   1.934   0.339   0.842 -0.6957 -0.1868  0.0727
 2868TIP3   OH2 8609   3.471   5.353   3.847 -0.3935  0.2298  0.3539
 2868TIP3    H1 8610   3.443   5.319   3.763  0.7599 -2.3636  0.9180
 2868TIP3    H2 8611   3.561   5.381   3.833 -0.1953 -0.2143  0.6986
 2869TIP3   OH2 8612   4.485   2.382   4.538 -0.3998  0.3948  0.0917
 2869TIP3    H1 8613   4.435   2.315   4.491  0.0330  0.6112 -0.6907
 2869TIP3    H2 8614   4.513   2.444   4.470 -0.3402  1.0871  0.7284
 2870TIP3   OH2 8615   5.938   5.192   2.456 -0.1752  0.5396 -0.2629
 2870TIP3    H1 8616   5.862   5.137   2.437  0.0112  0.3735 -0.5447
 2870TIP3    H2 8617   5.919   5.276   2.415 -1.3284  1.3679  1.7982
 2871TIP3   OH2 8618   1.423   3.914   2.389 -0.3197 -0.2442 -0.0768
 2871TIP3    H1 8619   1.468   3.910   2.473  0.3067 -0.6267 -0.4276
 2871TIP3    H2 8620   1.416   3.823   2.361 -1.0249 -0.1638 -0.1815
 2872TIP3   OH2 8621   4.674   0.442   2.749 -0.4683  0.2839 -0.3690
 2872TIP3    H1 8622   4.711   0.483   2.827 -2.7181  1.2810  0.2671
 2872TIP3    H2 8623   4.676   0.510   2.682 -3.3635  1.3182  0.4274
 2873TIP3   OH2 8624   0.213   5.240   3.090 -0.1939 -0.1036  0.0835
 2873TIP3    H1 8625   0.200   5.187   3.168 -0.7359 -0.0480  0.0317
 2873TIP3    H2 8626   0.273   5.309   3.118  0.6256 -0.8080  0.1173
 2874TIP3   OH2 8627   4.779   0.152   2.670 -0.2172 -0.7255  0.0226
 2874TIP3    H1 8628   4.821   0.180   2.751 -0.2927  0.3652 -0.2974
 2874TIP3    H2 8629   4.818   0.066   2.651 -0.0234 -0.8832  1.0687
 2875TIP3   OH2 8630   4.466   0.101   4.247  0.0158 -0.2027  0.5022
 2875TIP3    H1 8631   4.381   0.064   4.268  0.4923 -0.5191  2.0399
 2875TIP3    H2 8632   4.452   0.152   4.167 -1.8003  0.4908  1.2265
 2876TIP3   OH2 8633   0.104   3.362   3.802  0.4659  0.3637 -0.0008
 2876TIP3    H1 8634   0.200   3.367   3.800  0.5376 -0.9572 -0.7350
 2876TIP3    H2 8635   0.079   3.416   3.877  1.7924  0.5841  0.3033
 2877TIP3   OH2 8636   4.497   4.192   4.921  0.1331  0.4433 -0.1140
 2877TIP3    H1 8637   4.471   4.284   4.932  0.9249  0.8744 -1.6628
 2877TIP3    H2 8638   4.451   4.163   4.842 -1.9797 -1.2545  1.6005
 2878TIP3   OH2 8639   3.511   3.314   3.109  0.0246 -0.1087 -0.5072
 2878TIP3    H1 8640   3.532   3.385   3.048 -0.0880 -0.5922 -1.1166
 2878TIP3    H2 8641   3.431   3.344   3.154 -0.0038  0.1644 -0.7391
 2879TIP3   OH2 8642   1.279   5.069   1.509  0.3752 -0.6269  0.1948
 2879TIP3    H1 8643   1.308   5.040   1.422 -0.0258 -1.5060  0.3420
 2879TIP3    H2 8644   1.270   4.988   1.559 -0.5820 -0.2290  0.6862
 2880TIP3   OH2 8645   4.894   5.644   1.976 -0.4720 -0.1415  0.0118
 2880TIP3    H1 8646   4.811   5.619   2.014  0.1694 -1.2572  0.7225
 2880TIP3    H2 8647   4.948   5.672   2.050 -0.5294  1.6162 -0.5498
 2881TIP3   OH2 8648   1.651   2.880   2.831 -0.0265  0.1985  0.7324
 2881TIP3    H1 8649   1.743   2.900   2.846 -0.3632  1.5658  1.1113
 2881TIP3    H2 8650   1.631   2.923   2.748 -0.3463 -0.0041  0.7050
 2882TIP3   OH2 8651   3.356   5.448   0.999 -0.3342  0.0197  0.0351
 2882TIP3    H1 8652   3.375   5.448   0.906  0.2728  0.8373  0.1448
 2882TIP3    H2 8653   3.283   5.509   1.009 -2.2282 -2.0545 -0.2056
 2883TIP3   OH2 8654   5.664   3.963   1.639  0.1647 -0.3626 -0.1615
 2883TIP3    H1 8655   5.628   4.051   1.637  0.6158 -0.1826 -0.3999
 2883TIP3    H2 8656   5.640   3.929   1.725  1.7889  0.7507  0.7933
 2884TIP3   OH2 8657   1.713   4.646   1.969 -0.4825 -0.1010  0.0624
 2884TIP3    H1 8658   1.775   4.659   2.041 -1.0658  1.8757  0.2603
 2884TIP3    H2 8659   1.677   4.559   1.984  1.1742 -0.7089  0.7626
 2885TIP3   OH2 8660   3.625   3.653   0.142  0.5470  0.0556  0.4665
 2885TIP3    H1 8661   3.699   3.651   0.203 -1.6986  0.8080  3.4578
 2885TIP3    H2 8662   3.584   3.739   0.157 -1.8286 -0.9390  0.0914
 2886TIP3   OH2 8663   1.648   3.881   5.165 -0.2280  0.4327 -0.0318
 2886TIP3    H1 8664   1.632   3.806   5.108 -0.2339 -1.3458  2.1807
 2886TIP3    H2 8665   1.743   3.892   5.164 -0.2113  0.2825 -0.1936
 2887TIP3   OH2 8666   2.895   0.725   0.942 -0.2590 -0.1995  0.2096
 2887TIP3    H1 8667   2.825   0.788   0.957  0.0288  0.7692 -1.9709
 2887TIP3    H2 8668   2.854   0.656   0.889 -0.2238 -1.1132  1.3549
 2888TIP3   OH2 8669   1.808   0.603   3.310  0.3296 -0.8380  0.2743
 2888TIP3    H1 8670   1.793   0.614   3.216 -1.4103  3.0057  0.8145
 2888TIP3    H2 8671   1.726   0.568   3.344  0.1901 -0.2379  0.5793
 2889TIP3   OH2 8672   4.464   5.240   0.779 -0.4616  0.1189 -0.1740
 2889TIP3    H1 8673   4.523   5.170   0.806 -0.5094  0.0111 -0.3421
 2889TIP3    H2 8674   4.387   5.230   0.836 -0.7160 -0.3347 -0.5874
 2890TIP3   OH2 8675   1.959   4.059   3.270  0.2076  0.2741 -0.6312
 2890TIP3    H1 8676   1.949   4.131   3.207 -1.4593  0.1394 -0.5705
 2890TIP3    H2 8677   1.882   4.066   3.326 -0.7327 -2.3354 -1.4545
 2891TIP3   OH2 8678   4.338   0.866   4.297  0.3568  0.6757 -0.2750
 2891TIP3    H1 8679   4.369   0.948   4.335  1.0972  0.3054 -0.0633
 2891TIP3    H2 8680   4.367   0.799   4.358  1.2769  0.1033 -1.3068
 2892TIP3   OH2 8681   1.028   4.261   4.184  0.1181 -0.0824 -0.2878
 2892TIP3    H1 8682   1.096   4.305   4.235  0.1132 -0.0536 -0.3058
 2892TIP3    H2 8683   0.967   4.331   4.160  0.3603 -0.0096 -0.7199
 2893TIP3   OH2 8684   4.121   5.688   2.548 -0.3773 -0.1381  0.1383
 2893TIP3    H1 8685   4.117   5.640   2.465 -1.4812  1.7247 -0.9319
 2893TIP3    H2 8686   4.160   5.625   2.609  0.6023 -1.5199 -1.7920
 2894TIP3   OH2 8687   1.383   3.637   1.878  0.1589 -0.2375 -0.5905
 2894TIP3    H1 8688   1.443   3.659   1.949  0.8454  1.1336 -1.5420
 2894TIP3    H2 8689   1.303   3.686   1.898 -0.0554 -0.7349 -0.2012
 2895TIP3   OH2 8690   1.724   3.906   3.714 -0.5357 -0.0568 -0.3310
 2895TIP3    H1 8691   1.630   3.912   3.733 -0.3167  0.1117  0.7914
 2895TIP3    H2 8692   1.766   3.939   3.793  0.4753  0.3026 -1.0015
 2896TIP3   OH2 8693   4.472   2.464   3.186  0.5718  0.1755  0.3424
 2896TIP3    H1 8694   4.438   2.381   3.219 -1.0999  0.5675 -0.2749
 2896TIP3    H2 8695   4.492   2.515   3.265  0.1857 -0.2749  0.7425
 2897TIP3   OH2 8696   3.731   2.404   1.810 -0.0322 -0.1610 -0.1595
 2897TIP3    H1 8697   3.749   2.370   1.722  0.9938  0.8437 -0.3629
 2897TIP3    H2 8698   3.635   2.411   1.813 -0.3486 -3.3613  0.0618
 2898TIP3   OH2 8699   0.385   2.534   2.562  0.0816  0.2483  0.6127
 2898TIP3    H1 8700   0.306   2.562   2.516 -0.4858 -0.9701  0.8129
 2898TIP3    H2 8701   0.366   2.445   2.591  1.1945  0.2628  1.4539
 2899TIP3   OH2 8702   3.177   4.824   1.997  0.3136  0.6307 -0.0549
 2899TIP3    H1 8703   3.082   4.825   1.983  0.2388  1.8214  0.4422
 2899TIP3    H2 8704   3.192   4.747   2.052 -0.2316 -0.1069 -0.9030
 2900TIP3   OH2 8705   5.336   3.604   4.959 -0.2108 -0.1235  0.1483
 2900TIP3    H1 8706   5.350   3.632   5.050  1.0149  1.5270 -0.4989
 2900TIP3    H2 8707   5.422   3.574   4.930  0.0179  1.6242 -1.1588
 2901TIP3   OH2 8708   4.872   2.702   1.644 -0.3928  0.3645 -0.4255
 2901TIP3    H1 8709   4.845   2.633   1.705 -1.8127  0.7937 -0.5397
 2901TIP3    H2 8710   4.958   2.674   1.614  0.6101  0.3914  2.1577
 2902TIP3   OH2 8711   5.372   3.866   0.423  0.2034  0.2567  0.4398
 2902TIP3    H1 8712   5.354   3.863   0.329  1.8634  0.6656  0.0834
 2902TIP3    H2 8713   5.289   3.896   0.462 -0.6504 -0.3667 -0.8262
 2903TIP3   OH2 8714   2.930   5.079   4.980 -0.0589  0.1644 -0.6035
 2903TIP3    H1 8715   2.988   5.107   5.050 -0.4741 -0.8276  0.1734
 2903TIP3    H2 8716   2.902   4.991   5.006  1.2031 -1.0093 -2.9158
 2904TIP3   OH2 8717   4.096   3.825   1.660 -0.2522 -0.0731  0.0142
 2904TIP3    H1 8718   4.191   3.813   1.670 -0.3368 -0.1427  0.8276
 2904TIP3    H2 8719   4.087   3.898   1.600  0.3277  0.1245  0.1622
 2905TIP3   OH2 8720   1.196   1.779   4.645 -0.2380 -0.4824 -0.3446
 2905TIP3    H1 8721   1.141   1.856   4.659  0.0138 -0.4654  0.6007
 2905TIP3    H2 8722   1.276   1.814   4.607  0.8824  0.0937  2.3279
 2906TIP3   OH2 8723   1.854   0.167   2.667 -0.0466 -0.1305  0.2349
 2906TIP3    H1 8724   1.889   0.080   2.648 -2.1508 -1.1356  0.6515
 2906TIP3    H2 8725   1.912   0.227   2.620 -0.0180 -1.9259 -2.2035
 2907TIP3   OH2 8726   0.133   4.176   0.371  0.3338  0.1923  0.3345
 2907TIP3    H1 8727   0.099   4.251   0.420  2.8107  1.2810  0.5493
 2907TIP3    H2 8728   0.182   4.125   0.436 -1.3880 -1.7615  0.2166
 2908TIP3   OH2 8729   3.659   5.566   5.113 -0.3770  0.0048  0.0455
 2908TIP3    H1 8730   3.707   5.642   5.079 -0.0580  0.2829  1.0876
 2908TIP3    H2 8731   3.573   5.573   5.073 -0.0040  0.2923 -0.7360
 2909TIP3   OH2 8732   4.786   0.834   3.749  0.6060 -0.2407  0.3884
 2909TIP3    H1 8733   4.749   0.909   3.797  1.0616 -0.3674  0.9511
 2909TIP3    H2 8734   4.814   0.870   3.665 -0.1013  0.0089  0.2499
 2910TIP3   OH2 8735   1.044   2.875   4.730  0.5357 -0.6154 -0.2709
 2910TIP3    H1 8736   1.105   2.908   4.663  0.2854  0.3456 -0.0390
 2910TIP3    H2 8737   0.963   2.859   4.682  1.1560 -2.6969 -0.7527
 2911TIP3   OH2 8738   4.905   3.405   3.450  0.3099 -0.1017  0.3291
 2911TIP3    H1 8739   4.821   3.451   3.459 -0.2125 -0.9822  0.0217
 2911TIP3    H2 8740   4.935   3.426   3.362  0.5515  0.4280  0.5321
 2912TIP3   OH2 8741   3.218   4.549   4.499  0.1312 -0.2118 -0.3540
 2912TIP3    H1 8742   3.281   4.607   4.542  0.5369 -0.4197 -0.6652
 2912TIP3    H2 8743   3.134   4.572   4.538  0.1095  1.3584 -1.2602
 2913TIP3   OH2 8744   6.220   4.315   0.228  0.3027 -0.0164  0.7620
 2913TIP3    H1 8745   6.210   4.277   0.316 -0.8778  1.1306  1.1598
 2913TIP3    H2 8746   6.132   4.347   0.206  1.0638  1.7319  0.1188
 2914TIP3   OH2 8747   2.547   0.783   1.940 -0.4432  1.0064  0.4954
 2914TIP3    H1 8748   2.631   0.825   1.918 -0.6146  0.6571 -0.9427
 2914TIP3    H2 8749   2.571   0.713   2.001  0.8480 -1.1374 -2.2231
 2915TIP3   OH2 8750   4.840   3.322   2.171 -0.1587 -0.0259 -0.3929
 2915TIP3    H1 8751   4.865   3.253   2.233 -0.6962  1.5775  1.7177
 2915TIP3    H2 8752   4.747   3.336   2.187  0.2443  2.1774  0.3000
 2916TIP3   OH2 8753   5.933   4.272   3.475  0.4469 -0.1374  0.4197
 2916TIP3    H1 8754   5.897   4.360   3.471  1.9211  0.5266  0.7746
 2916TIP3    H2 8755   5.996   4.269   3.403 -1.2481 -1.7462 -1.0996
 2917TIP3   OH2 8756   1.909   4.675   2.137  0.0437  0.1672 -0.1370
 2917TIP3    H1 8757   1.930   4.592   2.181  0.2109  0.8424  1.1018
 2917TIP3    H2 8758   1.986   4.729   2.150 -1.5129  1.9490  2.6884
 2918TIP3   OH2 8759   5.361   4.060   4.447  0.1196  0.3371 -0.3282
 2918TIP3    H1 8760   5.403   4.078   4.531 -0.1505  0.5574 -0.2377
 2918TIP3    H2 8761   5.429   4.076   4.382  0.1648  0.7413 -0.1866
 2919TIP3   OH2 8762   1.945   3.922   1.703 -0.3420 -0.4350 -0.9480
 2919TIP3    H1 8763   1.941   3.978   1.626  1.2921 -0.2095 -0.8983
 2919TIP3    H2 8764   2.006   3.966   1.762 -1.9777 -0.3133  0.7486
 2920TIP3   OH2 8765   1.571   4.534   3.001 -0.1746  0.3667  0.5655
 2920TIP3    H1 8766   1.501   4.596   2.981 -0.5550 -0.1060  0.4204
 2920TIP3    H2 8767   1.526   4.453   3.025  0.3075 -0.6372 -1.6400
 2921TIP3   OH2 8768   5.678   4.400   3.729  0.0738  0.3978 -0.3761
 2921TIP3    H1 8769   5.693   4.308   3.708 -1.8668 -0.3469  1.2360
 2921TIP3    H2 8770   5.725   4.448   3.660  2.4167 -1.7276 -0.4202
 2922TIP3   OH2 8771   4.020   1.223   0.868  0.3647 -0.1942  0.1530
 2922TIP3    H1 8772   4.006   1.134   0.899  0.4344  0.2137  1.4363
 2922TIP3    H2 8773   4.042   1.273   0.947 -1.9963  1.4418 -0.0958
 2923TIP3   OH2 8774   4.224   3.290   1.313 -0.1151  0.6832  0.2060
 2923TIP3    H1 8775   4.241   3.380   1.343  0.2288  0.7341 -0.1298
 2923TIP3    H2 8776   4.180   3.248   1.387  0.9454  0.7247  0.8906
 2924TIP3   OH2 8777   4.829   1.331   4.983 -0.7767  0.6836 -0.1497
 2924TIP3    H1 8778   4.781   1.305   5.061  0.7527  1.2885  1.0478
 2924TIP3    H2 8779   4.837   1.426   4.990  0.2229  0.6411 -0.5222
 2925TIP3   OH2 8780   3.605   2.799   3.824  0.7935 -0.0782 -0.0973
 2925TIP3    H1 8781   3.569   2.836   3.905 -0.5787  0.0916 -0.7490
 2925TIP3    H2 8782   3.672   2.738   3.853  1.4670  1.1686  1.0985
 2926TIP3   OH2 8783   4.965   0.174   3.132  0.0798  0.2163  0.3099
 2926TIP3    H1 8784   4.910   0.206   3.204  0.5593  0.0059  0.7736
 2926TIP3    H2 8785   5.050   0.157   3.172  0.2790 -0.1475 -0.2536
 2927TIP3   OH2 8786   0.717   3.961   1.760  0.2641  0.3401  0.0506
 2927TIP3    H1 8787   0.771   3.892   1.797 -0.5494  0.0576  0.7518
 2927TIP3    H2 8788   0.707   3.937   1.667 -0.7852 -1.0316  0.4736
 2928TIP3   OH2 8789   2.138   2.278   2.669 -0.1647  0.0267  0.2586
 2928TIP3    H1 8790   2.196   2.346   2.633  1.0989 -0.9265  0.4490
 2928TIP3    H2 8791   2.050   2.310   2.648  0.3755  1.8055  0.4863
 2929TIP3   OH2 8792   2.990   2.133   0.546  0.6770 -0.4380 -0.0984
 2929TIP3    H1 8793   3.015   2.175   0.629  0.4159 -0.1178 -0.1789
 2929TIP3    H2 8794   2.930   2.196   0.505  1.4243 -0.2419 -0.8991
 2930TIP3   OH2 8795   2.122   5.703   0.956 -0.0809 -0.5467 -0.6187
 2930TIP3    H1 8796   2.123   5.607   0.963 -1.2293 -0.6122 -1.1943
 2930TIP3    H2 8797   2.033   5.724   0.927  0.1263  0.7078 -0.3790
 2931TIP3   OH2 8798   4.324   2.698   0.151  0.4381 -0.9194 -0.0255
 2931TIP3    H1 8799   4.247   2.679   0.097 -0.4001  0.2869  0.7230
 2931TIP3    H2 8800   4.359   2.779   0.115 -0.8496  0.5958  1.9436
 2932TIP3   OH2 8801   0.000   3.957   2.523 -0.1669 -0.3150 -0.4636
 2932TIP3    H1 8802   0.075   3.924   2.572 -1.0579 -1.3602  0.2128
 2932TIP3    H2 8803  -0.003   3.903   2.444  0.4022  0.4209 -1.0054
 2933TIP3   OH2 8804   0.098   0.472   0.032 -0.7201  0.1108  0.0703
 2933TIP3    H1 8805   0.190   0.446   0.036  0.2828  3.2999  1.1242
 2933TIP3    H2 8806   0.092   0.524  -0.048 -1.4554  0.4003  0.3113
 2934TIP3   OH2 8807   2.605   1.340   1.244 -0.1066 -0.1867 -0.3500
 2934TIP3    H1 8808   2.620   1.282   1.319 -0.0747  0.1468 -0.0945
 2934TIP3    H2 8809   2.570   1.420   1.283  2.7198  1.1653 -0.3489
 2935TIP3   OH2 8810   1.926   1.889   0.002 -0.3319  0.3099  0.5305
 2935TIP3    H1 8811   1.899   1.933   0.083  1.2572  2.5856 -0.0563
 2935TIP3    H2 8812   2.000   1.941  -0.030 -1.4476  0.0738 -2.8771
 2936TIP3   OH2 8813   4.593   0.989   4.941  0.4290 -0.1265 -0.3440
 2936TIP3    H1 8814   4.632   1.073   4.917  1.4931 -0.3311  0.5978
 2936TIP3    H2 8815   4.666   0.937   4.974 -0.1646 -1.5197 -1.1327
 2937TIP3   OH2 8816   3.987   5.757   4.758  0.1632 -0.5798 -0.0297
 2937TIP3    H1 8817   3.981   5.689   4.691 -0.3336 -0.0247 -0.5571
 2937TIP3    H2 8818   4.039   5.827   4.716  2.3943 -1.4192  1.1809
 2938TIP3   OH2 8819   3.698   0.547   1.639  0.3479 -0.1497  0.0750
 2938TIP3    H1 8820   3.720   0.528   1.730 -1.1657 -1.5947  0.1784
 2938TIP3    H2 8821   3.627   0.611   1.644  0.1057 -0.4047 -0.0842
 2939TIP3   OH2 8822   2.772   3.914   0.316  0.0115  0.1067 -0.0872
 2939TIP3    H1 8823   2.741   3.962   0.393  0.5912  1.0798 -0.4458
 2939TIP3    H2 8824   2.694   3.870   0.283 -0.4196  0.3466  0.5774
 2940TIP3   OH2 8825   3.231   5.191   2.402 -0.2994 -0.3114  0.3401
 2940TIP3    H1 8826   3.241   5.100   2.375 -0.5188  0.1675 -1.4633
 2940TIP3    H2 8827   3.237   5.188   2.497  1.3950 -1.9878  0.2395
 2941TIP3   OH2 8828   2.116   1.348   4.911 -0.0279 -0.1624 -0.2787
 2941TIP3    H1 8829   2.138   1.271   4.859 -1.0311  0.3494 -1.5149
 2941TIP3    H2 8830   2.043   1.319   4.966 -0.2729 -0.1463 -0.5965
 2942TIP3   OH2 8831   3.823   3.032   3.958 -0.2522  0.0326 -0.2101
 2942TIP3    H1 8832   3.733   3.064   3.955 -0.6845 -0.9030  1.4593
 2942TIP3    H2 8833   3.874   3.098   3.911 -1.4497  1.8924  0.9622
 2943TIP3   OH2 8834   3.974   0.745   1.599  0.0422  0.0741  0.3997
 2943TIP3    H1 8835   3.946   0.794   1.677  0.8306  4.0295 -1.5806
 2943TIP3    H2 8836   3.895   0.739   1.545  0.4739  1.6495 -0.4828
 2944TIP3   OH2 8837   1.557   4.125   5.035 -0.0102  1.0374  0.4777
 2944TIP3    H1 8838   1.512   4.187   5.092 -1.5379 -1.3745  2.1500
 2944TIP3    H2 8839   1.590   4.057   5.095  1.1837  0.0110 -1.2462
 2945TIP3   OH2 8840   5.064   0.524   1.228  0.0761 -0.4765 -0.3177
 2945TIP3    H1 8841   5.066   0.520   1.323  2.0122  0.0319 -0.2955
 2945TIP3    H2 8842   4.995   0.463   1.203 -0.0805 -1.0506  1.3780
 2946TIP3   OH2 8843   2.286   2.898   3.516  0.9279 -0.1576 -0.6309
 2946TIP3    H1 8844   2.234   2.976   3.539  0.5387 -0.7246  0.5092
 2946TIP3    H2 8845   2.370   2.912   3.561  0.9308 -0.2989 -0.5933
 2947TIP3   OH2 8846   3.564   1.503   2.028 -0.1830 -0.0801 -0.3370
 2947TIP3    H1 8847   3.484   1.542   2.062  0.4125  2.6953 -1.8190
 2947TIP3    H2 8848   3.535   1.424   1.982 -1.7303 -0.3902  1.0660
 2948TIP3   OH2 8849   6.027   4.890   3.842 -0.4284  0.2065 -0.0713
 2948TIP3    H1 8850   6.122   4.880   3.830 -0.3286  2.0702 -1.3064
 2948TIP3    H2 8851   6.012   4.864   3.933  1.9703  3.5343  1.4955
 2949TIP3   OH2 8852   3.233   4.564   2.628  0.1012 -0.2692 -0.5466
 2949TIP3    H1 8853   3.190   4.544   2.711 -0.1431  0.1822 -0.5601
 2949TIP3    H2 8854   3.321   4.528   2.637 -0.1634 -0.8905 -0.3815
 2950TIP3   OH2 8855   1.431   4.145   3.386 -0.4558 -0.3352  0.3365
 2950TIP3    H1 8856   1.427   4.108   3.474  1.6257  3.2955  2.1401
 2950TIP3    H2 8857   1.471   4.076   3.333  0.0412 -1.9326  2.6396
 2951TIP3   OH2 8858   0.093   0.401   3.076 -0.0830 -0.5945  0.1731
 2951TIP3    H1 8859   0.152   0.468   3.041 -0.2702 -1.5409 -2.1342
 2951TIP3    H2 8860   0.147   0.348   3.134  1.5827 -1.7891 -2.3285
 2952TIP3   OH2 8861   0.471  -0.013   1.013 -0.2057 -0.3223  0.0334
 2952TIP3    H1 8862   0.475   0.067   0.961 -0.7017  0.3846  1.0247
 2952TIP3    H2 8863   0.383  -0.046   1.000 -0.6338  0.3488  1.0817
 2953TIP3   OH2 8864   1.916   3.489   2.794 -0.4173 -0.3148  0.4578
 2953TIP3    H1 8865   1.887   3.398   2.794 -1.2069 -0.0852  0.9712
 2953TIP3    H2 8866   1.849   3.535   2.846  0.4908  0.3822  1.0517
 2954TIP3   OH2 8867   5.336   2.513   3.618 -0.1843 -0.3960  0.6533
 2954TIP3    H1 8868   5.320   2.515   3.712 -0.5574 -2.2260  0.6677
 2954TIP3    H2 8869   5.283   2.584   3.582 -1.5261 -0.8703  1.6362
 2955TIP3   OH2 8870   1.179   4.987   1.215 -0.0152 -0.3260 -0.7077
 2955TIP3    H1 8871   1.136   4.933   1.149  0.8774 -1.2848 -0.5311
 2955TIP3    H2 8872   1.238   5.043   1.165 -0.9404  0.5089 -0.8909
 2956TIP3   OH2 8873   4.137   3.885   5.037  0.2072 -0.1595  0.1229
 2956TIP3    H1 8874   4.214   3.842   4.999  1.2146  0.0201  1.8805
 2956TIP3    H2 8875   4.157   3.978   5.032 -0.4266 -0.0438 -0.4548
 2957TIP3   OH2 8876   3.617   2.171   1.030 -0.3479 -0.0676  0.3912
 2957TIP3    H1 8877   3.610   2.117   0.951 -0.7982  2.3198 -1.3210
 2957TIP3    H2 8878   3.709   2.163   1.056  0.0190 -0.2258 -0.8854
 2958TIP3   OH2 8879   4.706   1.025   1.722 -0.0939 -0.1513  0.0075
 2958TIP3    H1 8880   4.630   1.071   1.688 -0.3403 -0.0771  0.6324
 2958TIP3    H2 8881   4.699   1.035   1.817 -0.6241 -2.1690  0.2259
 2959TIP3   OH2 8882   0.100   0.960   1.438  0.0777  0.0958  0.4484
 2959TIP3    H1 8883   0.103   0.958   1.533 -2.9243  0.3152  0.6373
 2959TIP3    H2 8884   0.037   1.029   1.417  2.3567  1.6674 -1.8197
 2960TIP3   OH2 8885   3.714   4.055   4.525  0.6353 -0.2630 -0.2405
 2960TIP3    H1 8886   3.784   4.087   4.582 -0.1473  0.5395  0.2927
 2960TIP3    H2 8887   3.658   4.131   4.509  0.1802 -0.7577 -1.1119
 2961TIP3   OH2 8888   0.632   4.240   0.502  0.3555  0.3151 -0.0487
 2961TIP3    H1 8889   0.665   4.158   0.538  1.5038  0.6478 -0.2810
 2961TIP3    H2 8890   0.711   4.290   0.482 -0.2165  0.3116 -2.6618
 2962TIP3   OH2 8891   0.409   1.442   3.272  0.1063  0.5255  0.1710
 2962TIP3    H1 8892   0.411   1.479   3.184  0.1804  0.0561 -0.0302
 2962TIP3    H2 8893   0.334   1.382   3.271  0.5480 -0.0388  0.1911
 2963TIP3   OH2 8894   0.843   4.655   4.388 -0.2055  0.5227  0.0986
 2963TIP3    H1 8895   0.809   4.716   4.321  0.5737  0.0659 -0.7289
 2963TIP3    H2 8896   0.860   4.710   4.464 -1.1116  1.0561 -0.0708
 2964TIP3   OH2 8897   1.905   5.967   2.353 -0.4331 -1.2001 -0.2979
 2964TIP3    H1 8898   1.956   5.936   2.427 -0.9750 -2.8264 -0.5681
 2964TIP3    H2 8899   1.960   5.949   2.277  0.8559  2.0056 -0.2474
 2965TIP3   OH2 8900   0.791   0.235   0.035 -0.6322 -0.2510 -0.4516
 2965TIP3    H1 8901   0.735   0.248  -0.042 -0.3410  2.4503 -0.3039
 2965TIP3    H2 8902   0.865   0.295   0.021  0.5121 -1.2669  0.9611
 2966TIP3   OH2 8903   5.391   5.294   0.582 -0.0086  0.5074  0.1929
 2966TIP3    H1 8904   5.340   5.223   0.544  0.0691  0.9432 -0.7536
 2966TIP3    H2 8905   5.420   5.260   0.667  1.4901 -1.2545 -0.9616
 2967TIP3   OH2 8906   4.695   4.472   5.160  0.2503 -0.3989  0.0196
 2967TIP3    H1 8907   4.715   4.421   5.082  0.6502 -0.1765 -0.0219
 2967TIP3    H2 8908   4.645   4.412   5.216  0.2720 -0.6684 -0.2521
 2968TIP3   OH2 8909   6.140   4.761   0.291  0.6246  0.0318 -0.1545
 2968TIP3    H1 8910   6.214   4.820   0.275  0.0180  0.5897 -0.9635
 2968TIP3    H2 8911   6.066   4.802   0.247 -0.4579  0.1004  1.6293
 2969TIP3   OH2 8912   0.261   3.608   1.023  0.5976 -0.0551  0.5451
 2969TIP3    H1 8913   0.207   3.549   0.969  1.7742  0.4851 -1.3279
 2969TIP3    H2 8914   0.199   3.647   1.085 -1.1349  0.2756 -1.2828
 2970TIP3   OH2 8915   4.043   2.409   3.403 -0.2106  0.2611 -0.2888
 2970TIP3    H1 8916   4.047   2.421   3.308 -0.9201 -0.0762 -0.3670
 2970TIP3    H2 8917   4.131   2.378   3.427 -0.0195  0.3801 -0.8306
 2971TIP3   OH2 8918   4.029   1.992   2.686  0.4596 -0.0596  0.1323
 2971TIP3    H1 8919   4.013   2.084   2.661  0.2990 -0.2406 -0.4471
 2971TIP3    H2 8920   3.960   1.973   2.750  1.3608  0.6550  1.3595
 2972TIP3   OH2 8921   6.094   0.527   3.538  0.1482 -0.1988 -0.2558
 2972TIP3    H1 8922   6.148   0.455   3.569 -1.9882 -1.0160  1.9038
 2972TIP3    H2 8923   6.124   0.603   3.588 -0.0136 -0.4186  0.1793
 2973TIP3   OH2 8924   3.268   0.307   0.777  0.2201 -0.4576 -0.3433
 2973TIP3    H1 8925   3.293   0.385   0.727  0.1693  0.0601  0.4205
 2973TIP3    H2 8926   3.172   0.312   0.783  0.1661 -0.9074 -0.8174
 2974TIP3   OH2 8927   5.774   0.096   4.486 -0.2882  1.0038  0.2518
 2974TIP3    H1 8928   5.786   0.057   4.399  0.1471 -0.0938  0.7885
 2974TIP3    H2 8929   5.857   0.139   4.506 -0.4460  1.4039  0.0616
 2975TIP3   OH2 8930   5.040   5.792   0.749 -0.1591 -0.3173  0.1099
 2975TIP3    H1 8931   4.963   5.735   0.754 -0.3617 -0.0923 -0.3660
 2975TIP3    H2 8932   5.008   5.877   0.779 -0.3891  0.0532 -1.1173
 2976TIP3   OH2 8933   0.307   1.185   1.828  0.9767 -0.6409  0.0702
 2976TIP3    H1 8934   0.301   1.090   1.838  0.6095 -0.6244 -0.0055
 2976TIP3    H2 8935   0.400   1.201   1.812  1.2230 -0.8828  1.1801
 2977TIP3   OH2 8936   5.053   1.164   0.847  0.1820 -0.2247  0.4701
 2977TIP3    H1 8937   4.987   1.178   0.915 -1.0052  0.9039 -0.8442
 2977TIP3    H2 8938   5.003   1.150   0.767  1.4805  1.7873 -0.7948
 2978TIP3   OH2 8939   1.254   2.651   0.284  0.3059 -0.4263  0.3535
 2978TIP3    H1 8940   1.161   2.629   0.283  0.4040 -0.8585  0.7358
 2978TIP3    H2 8941   1.257   2.742   0.313 -0.0433 -0.1767 -0.3771
 2979TIP3   OH2 8942   4.626   3.508   3.500 -0.6378  0.2165  0.0310
 2979TIP3    H1 8943   4.636   3.592   3.455  0.5822 -0.0072 -0.1519
 2979TIP3    H2 8944   4.604   3.532   3.590  0.0579  0.7509  0.0676
 2980TIP3   OH2 8945   5.920   3.846   5.069  0.2609 -0.4410  0.0982
 2980TIP3    H1 8946   5.895   3.929   5.110  0.0607 -0.8448  0.8126
 2980TIP3    H2 8947   5.836   3.805   5.046  0.3633 -0.3640 -0.4366
 2981TIP3   OH2 8948   3.728   3.356   1.384  0.2119 -0.5733  0.2341
 2981TIP3    H1 8949   3.756   3.304   1.459 -0.5965 -1.1022  0.1776
 2981TIP3    H2 8950   3.742   3.299   1.308 -0.7872 -0.7514  0.1813
 2982TIP3   OH2 8951   5.017   0.032   3.888 -0.8031 -0.7400  0.5587
 2982TIP3    H1 8952   4.927   0.010   3.912 -0.9747  0.8701  1.5383
 2982TIP3    H2 8953   5.067   0.016   3.968 -0.6617  0.7198  0.7882
 2983TIP3   OH2 8954   3.753   4.162   0.169 -0.0523 -0.4567  0.1915
 2983TIP3    H1 8955   3.794   4.115   0.241  0.1031  0.7905  0.9637
 2983TIP3    H2 8956   3.659   4.157   0.188  0.0531  1.0765  1.3190
 2984TIP3   OH2 8957   1.317   3.907   4.670 -0.8796 -0.6773  0.3609
 2984TIP3    H1 8958   1.326   3.951   4.755 -0.6591 -1.3854  0.7116
 2984TIP3    H2 8959   1.378   3.952   4.613 -1.7904  0.5012  0.2867
 2985TIP3   OH2 8960   3.727   1.676   0.057 -0.8437 -0.5561 -0.6045
 2985TIP3    H1 8961   3.689   1.655  -0.028 -3.7647 -1.1752  0.6932
 2985TIP3    H2 8962   3.693   1.763   0.079 -1.2803 -0.9744  0.4789
 2986TIP3   OH2 8963   0.871   3.399   0.545  0.0498 -0.1406  0.0232
 2986TIP3    H1 8964   0.831   3.422   0.629  2.0715  0.3945  0.8983
 2986TIP3    H2 8965   0.799   3.405   0.482 -1.2217  0.8549  1.4847
 2987TIP3   OH2 8966   3.614   5.142   2.489 -0.0926 -0.1413 -0.1950
 2987TIP3    H1 8967   3.603   5.138   2.394 -0.2275  1.3688 -0.2694
 2987TIP3    H2 8968   3.708   5.156   2.501 -0.4376  3.1245 -0.3267
 2988TIP3   OH2 8969   1.161   4.426   4.843 -0.3795 -0.3162 -0.0773
 2988TIP3    H1 8970   1.072   4.422   4.807 -0.2612 -1.9845 -0.2643
 2988TIP3    H2 8971   1.214   4.374   4.782  0.5210 -0.2023  0.5904
 2989TIP3   OH2 8972   4.455   0.752   4.874 -0.1901  0.2464  0.4250
 2989TIP3    H1 8973   4.518   0.704   4.820  0.4137 -0.6706  1.8881
 2989TIP3    H2 8974   4.507   0.822   4.915 -0.3623  0.1776  0.7662
 2990TIP3   OH2 8975   0.369   0.441   4.252  0.0866  0.8757 -0.6149
 2990TIP3    H1 8976   0.390   0.446   4.159 -0.4031 -0.7838 -0.8515
 2990TIP3    H2 8977   0.402   0.355   4.280  1.9261  2.1006  1.2310
 2991TIP3   OH2 8978   1.125   3.894   2.697  0.3180  0.1978  0.2312
 2991TIP3    H1 8979   1.112   3.932   2.784  2.2828  1.4985  0.0237
 2991TIP3    H2 8980   1.181   3.817   2.713  3.5059  2.2601 -0.0520
 2992TIP3   OH2 8981   3.269   5.494   0.509  0.3110 -0.3016 -0.3986
 2992TIP3    H1 8982   3.357   5.492   0.472  1.6411  0.9693  2.4326
 2992TIP3    H2 8983   3.233   5.579   0.482 -0.9397 -1.5773 -3.1698
 2993TIP3   OH2 8984   2.946   2.818   4.226  0.1920 -0.6670 -0.5033
 2993TIP3    H1 8985   2.961   2.733   4.268  0.7596  0.0293  0.7753
 2993TIP3    H2 8986   2.851   2.829   4.229  0.1594 -0.9952 -0.1213
 2994TIP3   OH2 8987   1.612   1.701   0.153 -0.2901 -0.4467 -0.5704
 2994TIP3    H1 8988   1.532   1.677   0.106 -2.0598  1.4474  1.3024
 2994TIP3    H2 8989   1.657   1.763   0.095 -0.8661 -0.4599 -1.0370
 2995TIP3   OH2 8990   1.910   4.428   3.219  0.4824 -0.0490 -0.5558
 2995TIP3    H1 8991   1.876   4.507   3.262  0.1408 -0.1208 -0.6984
 2995TIP3    H2 8992   1.833   4.378   3.194  0.6702  0.0196 -1.3150
 2996TIP3   OH2 8993   4.873   3.361   1.743  0.0767  0.6256 -0.4102
 2996TIP3    H1 8994   4.855   3.452   1.765 -1.2797  0.2154  0.2709
 2996TIP3    H2 8995   4.966   3.350   1.759  0.6588  2.3338 -2.1535
 2997TIP3   OH2 8996   1.410   3.495   4.878  0.1614 -0.1370  0.0016
 2997TIP3    H1 8997   1.381   3.539   4.798  1.5723 -0.6962 -0.8504
 2997TIP3    H2 8998   1.432   3.566   4.938 -3.7521  0.3701  1.0959
 2998TIP3   OH2 8999   6.072   4.251   2.447  0.5144  0.5733 -0.1196
 2998TIP3    H1 9000   6.159   4.289   2.465  0.9176 -0.2400 -0.3012
 2998TIP3    H2 9001   6.058   4.190   2.519  0.0717  0.7270 -0.0757
 2999TIP3   OH2 9002   2.705   2.241   1.046  0.4863 -0.9455  0.5750
 2999TIP3    H1 9003   2.670   2.323   1.012  4.5441  0.2732 -1.2339
 2999TIP3    H2 9004   2.662   2.230   1.131 -3.1838  0.8120 -0.8360
 3000TIP3   OH2 9005   4.068   3.783   0.955  0.1999 -0.2416 -0.2376
 3000TIP3    H1 9006   4.098   3.837   0.882 -0.2743 -1.2683 -1.2318
 3000TIP3    H2 9007   4.109   3.697   0.940  0.6861 -0.2658  1.1270
 3001TIP3   OH2 9008   4.166   3.455   0.227 -0.1297 -0.3078  0.0809
 3001TIP3    H1 9009   4.152   3.429   0.318 -1.8543  1.0992  0.2559
 3001TIP3    H2 9010   4.243   3.512   0.229 -0.6884  0.4244  0.7937
 3002TIP3   OH2 9011   3.067   3.628   0.555 -0.8564 -0.0768 -0.2413
 3002TIP3    H1 9012   3.115   3.667   0.627 -1.3996  0.2887 -0.0748
 3002TIP3    H2 9013   2.983   3.673   0.554 -1.3553 -0.9881 -0.2687
 3003TIP3   OH2 9014   1.880   3.975   0.219  0.2718 -0.3861 -0.2452
 3003TIP3    H1 9015   1.810   3.981   0.153  0.0187 -1.0120 -0.0401
 3003TIP3    H2 9016   1.931   4.056   0.207 -1.2220  0.7200  0.4381
 3004TIP3   OH2 9017   2.284   2.426   1.814 -0.4756 -0.2366  0.2254
 3004TIP3    H1 9018   2.279   2.443   1.720 -0.0358 -1.2064  0.0236
 3004TIP3    H2 9019   2.299   2.513   1.853 -0.4304  0.1389 -0.6093
 3005TIP3   OH2 9020   6.227   1.224   0.333  0.1072  0.0179 -0.3960
 3005TIP3    H1 9021   6.280   1.229   0.412 -1.9063  0.6232  1.0034
 3005TIP3    H2 9022   6.173   1.303   0.335 -2.0956 -1.3948 -0.7706
 3006TIP3   OH2 9023   1.731   4.793   1.458 -0.5191 -0.0534  0.3516
 3006TIP3    H1 9024   1.725   4.889   1.455  0.6758  0.1628  2.4821
 3006TIP3    H2 9025   1.641   4.764   1.446 -1.4342  1.5247  2.5902
 3007TIP3   OH2 9026   4.870   3.519   4.690 -0.5284  0.5828  0.1013
 3007TIP3    H1 9027   4.946   3.555   4.644  0.3786 -0.8126  0.4491
 3007TIP3    H2 9028   4.830   3.595   4.733  0.7318  1.3337  0.0005
 3008TIP3   OH2 9029   1.823   4.977   4.477  0.0858  0.6517  0.7033
 3008TIP3    H1 9030   1.807   4.938   4.563  2.3000 -0.3508  0.7346
 3008TIP3    H2 9031   1.912   5.011   4.482  0.7364 -0.4957 -1.5441
 3009TIP3   OH2 9032   0.992   4.684   2.803  0.2903  0.0516  0.3110
 3009TIP3    H1 9033   0.912   4.692   2.855  1.3267 -0.9806  2.1533
 3009TIP3    H2 9034   1.006   4.773   2.768 -0.9131  0.5585  1.0480
 3010TIP3   OH2 9035   2.729   0.494   0.185  0.4964 -0.2039  0.0830
 3010TIP3    H1 9036   2.729   0.411   0.137 -1.2312  0.6715 -1.5570
 3010TIP3    H2 9037   2.637   0.520   0.189  1.0142  1.7681  0.2926
 3011TIP3   OH2 9038   5.391   5.969   1.553 -0.1171  0.2691 -0.2695
 3011TIP3    H1 9039   5.351   6.029   1.616 -1.6656 -0.3214 -0.6614
 3011TIP3    H2 9040   5.399   5.887   1.601  2.1598  0.7632  0.3243
 3012TIP3   OH2 9041   5.859   1.324   3.633 -0.0035  0.0359  0.2956
 3012TIP3    H1 9042   5.873   1.419   3.633 -0.8190  0.1848 -0.8266
 3012TIP3    H2 9043   5.923   1.291   3.569 -0.1260 -0.0919  0.2380
 3013TIP3   OH2 9044   4.364   5.177   4.604 -0.0079 -0.0677 -0.1603
 3013TIP3    H1 9045   4.426   5.245   4.633  0.9778 -1.0017 -0.0345
 3013TIP3    H2 9046   4.304   5.167   4.678  1.0531 -0.7316  0.6374
 3014TIP3   OH2 9047   0.908   3.312   0.876 -0.4901  0.3371 -0.5199
 3014TIP3    H1 9048   0.976   3.245   0.881 -0.9081 -0.0523  0.1417
 3014TIP3    H2 9049   0.955   3.394   0.862  0.0652 -0.0139 -0.7268
 3015TIP3   OH2 9050   4.936   4.984   2.926  1.1103 -0.2715  0.3694
 3015TIP3    H1 9051   4.933   4.973   3.021 -0.1850  1.9006  0.6408
 3015TIP3    H2 9052   4.864   5.044   2.906  1.1129 -0.9604 -2.0506
 3016TIP3   OH2 9053   5.106   2.595   1.497 -0.3631 -0.4945  0.3789
 3016TIP3    H1 9054   5.169   2.614   1.428 -0.0194 -2.6531  0.0066
 3016TIP3    H2 9055   5.035   2.549   1.453 -1.7027  0.8927  0.9858
 3017TIP3   OH2 9056   2.022   2.924   4.757 -0.2352  0.8685 -0.5005
 3017TIP3    H1 9057   1.964   2.962   4.823 -0.9044 -0.0060 -0.5701
 3017TIP3    H2 9058   2.098   2.982   4.756 -0.7123  1.5271  0.2331
 3018TIP3   OH2 9059   3.994   1.109   2.052 -0.7559 -0.3942  0.0879
 3018TIP3    H1 9060   3.991   1.191   2.002 -1.6938 -0.4682 -0.0005
 3018TIP3    H2 9061   3.907   1.102   2.091 -0.0126 -0.2485  1.8900
 3019TIP3   OH2 9062   0.810   3.924   5.204 -0.1629  0.4005  0.6399
 3019TIP3    H1 9063   0.781   3.837   5.176  0.5877  0.4469 -0.3348
 3019TIP3    H2 9064   0.850   3.962   5.126 -2.3190  2.4568  0.4198
 3020TIP3   OH2 9065   4.186   3.396   0.513  0.1637 -0.0505  0.2202
 3020TIP3    H1 9066   4.265   3.341   0.515 -0.1104 -0.5348 -1.0601
 3020TIP3    H2 9067   4.165   3.411   0.605  0.6289 -1.5605  0.6097
 3021TIP3   OH2 9068   5.940   4.020   0.054 -0.2588  0.0586  0.3442
 3021TIP3    H1 9069   5.980   3.981   0.132  3.3473 -1.4169 -2.0028
 3021TIP3    H2 9070   6.012   4.062   0.008 -2.5308  2.2900 -1.5177
 3022TIP3   OH2 9071   0.567   2.305   5.030 -0.2204  0.1806 -0.4274
 3022TIP3    H1 9072   0.626   2.235   5.002 -0.8024 -0.3469 -0.3638
 3022TIP3    H2 9073   0.480   2.276   5.003 -0.4839  0.8325 -0.3067
 3023TIP3   OH2 9074   3.549   0.320   0.482 -0.1046  0.4643 -0.8341
 3023TIP3    H1 9075   3.530   0.413   0.494  1.8876  0.8441 -0.1970
 3023TIP3    H2 9076   3.552   0.285   0.571 -1.8296 -0.4718 -1.1011
 3024TIP3   OH2 9077   4.753   0.926   1.428  0.3065 -0.3991  0.1753
 3024TIP3    H1 9078   4.801   0.950   1.508  0.6982 -0.3678 -0.0654
 3024TIP3    H2 9079   4.662   0.920   1.456  0.4230 -0.2629  0.5997
 3025TIP3   OH2 9080   5.309   4.974   0.461 -0.4439 -0.2887 -0.1929
 3025TIP3    H1 9081   5.324   4.896   0.515  1.6575  0.1621 -0.0259
 3025TIP3    H2 9082   5.216   4.971   0.439 -0.3419 -3.1091 -0.6157
 3026TIP3   OH2 9083   2.558   4.246   0.697  0.5713 -0.2718  0.2533
 3026TIP3    H1 9084   2.580   4.198   0.777 -1.7299 -3.1050 -0.6277
 3026TIP3    H2 9085   2.510   4.323   0.728  0.5434 -0.8088  1.6455
 3027TIP3   OH2 9086   2.765   3.979   3.542 -0.0210 -0.1511 -0.0193
 3027TIP3    H1 9087   2.783   4.052   3.482 -0.6493 -0.1215 -0.1809
 3027TIP3    H2 9088   2.832   3.987   3.609 -0.7156  1.2304  0.5574
 3028TIP3   OH2 9089   1.614   5.594   3.432 -0.0491 -0.0041  0.1536
 3028TIP3    H1 9090   1.524   5.610   3.403 -0.2716  0.2961  0.9582
 3028TIP3    H2 9091   1.654   5.544   3.361 -0.8345 -0.0955 -0.2400
 3029TIP3   OH2 9092   5.655   1.167   0.240  0.2268  0.3758 -0.4352
 3029TIP3    H1 9093   5.616   1.227   0.177  1.0539 -0.7219 -2.0717
 3029TIP3    H2 9094   5.591   1.098   0.251  1.4767 -1.3889 -3.0669
 3030TIP3   OH2 9095   6.124   4.805   4.935  0.2142 -0.2499 -0.9169
 3030TIP3    H1 9096   6.067   4.855   4.877 -0.0626 -0.2323 -0.6339
 3030TIP3    H2 9097   6.211   4.845   4.924 -0.0705  0.5227 -0.4289
 3031TIP3   OH2 9098   5.555   1.646   1.619  0.0483 -0.0826  0.1783
 3031TIP3    H1 9099   5.529   1.615   1.705  0.5751 -0.1719  0.3054
 3031TIP3    H2 9100   5.475   1.639   1.566  0.0094 -1.0908  0.3560
 3032TIP3   OH2 9101   4.687   3.569   1.850 -0.0005 -0.0786 -0.2122
 3032TIP3    H1 9102   4.662   3.479   1.828 -1.6594 -0.0309  1.2541
 3032TIP3    H2 9103   4.715   3.565   1.941  0.3560  0.8145 -0.2766
 3033TIP3   OH2 9104   5.881   4.258   0.794  0.3111 -0.1619  0.2545
 3033TIP3    H1 9105   5.965   4.213   0.790  2.0859  1.9957  5.1417
 3033TIP3    H2 9106   5.902   4.349   0.770 -0.0120  0.7888  3.1288
 3034TIP3   OH2 9107   4.770   4.353   0.292 -0.1959 -0.1583 -0.5447
 3034TIP3    H1 9108   4.758   4.386   0.203  1.4320  0.4939 -0.5491
 3034TIP3    H2 9109   4.681   4.348   0.327 -0.8852 -0.4967 -2.2105
 3035TIP3   OH2 9110   3.664   0.444   3.002  0.2254  0.4064  0.2002
 3035TIP3    H1 9111   3.616   0.447   2.919  0.2426 -0.1297  0.1641
 3035TIP3    H2 9112   3.668   0.351   3.023  0.0206  0.5554  0.9224
 3036TIP3   OH2 9113   3.871   2.918   2.263  0.0107 -0.2982  0.2167
 3036TIP3    H1 9114   3.852   3.009   2.239  0.3556 -0.2675  0.0534
 3036TIP3    H2 9115   3.841   2.866   2.189 -0.7518 -0.3756  0.5677
 3037TIP3   OH2 9116   1.742   4.911   2.189  0.2728 -0.3393 -0.3152
 3037TIP3    H1 9117   1.775   4.821   2.180 -1.0842 -0.7573 -1.4083
 3037TIP3    H2 9118   1.814   4.959   2.230  0.7853 -2.0674  0.9276
 3038TIP3   OH2 9119   5.392   0.814   3.967 -0.1747  0.2424  1.1220
 3038TIP3    H1 9120   5.460   0.748   3.982 -0.7976 -0.6612  0.0519
 3038TIP3    H2 9121   5.389   0.864   4.049  0.5336 -0.8455  1.8335
 3039TIP3   OH2 9122   6.296   2.509   4.433 -0.3305 -0.0889 -0.1554
 3039TIP3    H1 9123   6.320   2.517   4.340  1.7391  0.0429  0.3486
 3039TIP3    H2 9124   6.304   2.598   4.468 -0.5817 -0.2331  0.2767
 3040TIP3   OH2 9125   0.326   4.341   3.773 -0.5928  0.0309 -0.5853
 3040TIP3    H1 9126   0.348   4.383   3.857  0.5500 -0.0977 -0.7984
 3040TIP3    H2 9127   0.395   4.370   3.714 -1.1313 -0.2661 -1.3631
 3041TIP3   OH2 9128   4.501   2.353   0.959 -0.3269  0.2184 -0.3679
 3041TIP3    H1 9129   4.581   2.364   0.907 -0.6375 -0.5218 -1.0175
 3041TIP3    H2 9130   4.440   2.418   0.923 -0.5462 -0.3028 -0.9458
 3042TIP3   OH2 9131   5.184   3.072   4.847 -0.1194 -0.0594 -0.4337
 3042TIP3    H1 9132   5.272   3.108   4.862  0.1205 -1.3603  1.6775
 3042TIP3    H2 9133   5.185   3.045   4.755  1.7651 -0.1626 -0.4340
 3043TIP3   OH2 9134   3.490   0.334   4.896  0.1254  0.3020  0.2649
 3043TIP3    H1 9135   3.507   0.366   4.807  1.2080 -0.8061  0.0559
 3043TIP3    H2 9136   3.458   0.411   4.942 -0.5144  0.8869 -1.0958
 3044TIP3   OH2 9137   5.073   2.625   4.205  0.4511  0.2136  0.3182
 3044TIP3    H1 9138   5.147   2.610   4.146  0.0296  1.0376 -0.4513
 3044TIP3    H2 9139   5.109   2.615   4.293  2.1461  3.1544  0.0991
 3045TIP3   OH2 9140   3.639   3.074   2.146  0.5152 -0.0397  0.2178
 3045TIP3    H1 9141   3.727   3.097   2.175  0.8828 -0.9858 -0.0972
 3045TIP3    H2 9142   3.605   3.017   2.215  0.0863  0.4446  0.4118
 3046TIP3   OH2 9143   4.089   0.316   4.223  0.5861  0.5334 -0.1050
 3046TIP3    H1 9144   4.000   0.328   4.190  0.3487 -1.3126 -0.2129
 3046TIP3    H2 9145   4.131   0.258   4.159  0.5038 -2.1158  2.0685
 3047TIP3   OH2 9146   3.411   5.710   1.825  0.2074 -0.0832 -0.8046
 3047TIP3    H1 9147   3.476   5.639   1.820 -0.9475 -1.2432 -0.1554
 3047TIP3    H2 9148   3.451   5.783   1.780  0.7351 -1.7131 -3.1410
 3048TIP3   OH2 9149   5.889   1.233   1.228  0.0511 -0.6328  0.0582
 3048TIP3    H1 9150   5.840   1.314   1.244  1.6468  0.1055  1.5400
 3048TIP3    H2 9151   5.968   1.262   1.181 -0.4321 -1.6744 -1.4615
 3049TIP3   OH2 9152   2.231   5.099   2.041 -0.3270 -0.0018 -0.4894
 3049TIP3    H1 9153   2.270   5.173   2.088  0.7073 -0.9205  0.1373
 3049TIP3    H2 9154   2.276   5.022   2.076 -2.3769 -1.0810 -0.0952
 3050TIP3   OH2 9155   0.322   2.653   3.617 -0.6670 -0.3330 -0.4155
 3050TIP3    H1 9156   0.329   2.559   3.601 -0.0924 -0.5577  1.0441
 3050TIP3    H2 9157   0.333   2.663   3.711  1.3900  1.3884 -0.7588
 3051TIP3   OH2 9158   5.506   1.929   2.269 -0.2695 -0.2638 -0.3210
 3051TIP3    H1 9159   5.565   1.974   2.209  2.2967 -1.8872  0.7806
 3051TIP3    H2 9160   5.449   1.876   2.213 -0.4309  1.0283 -1.4127
 3052TIP3   OH2 9161   2.737   1.454   2.395  0.0392  0.5953  0.6548
 3052TIP3    H1 9162   2.702   1.470   2.482 -1.0575  1.1537  0.1316
 3052TIP3    H2 9163   2.821   1.501   2.393  0.4755 -0.1234  1.6722
 3053TIP3   OH2 9164   1.738   2.527   2.252  0.7202  0.0426 -0.1489
 3053TIP3    H1 9165   1.655   2.506   2.208  0.4823 -0.7789  0.6530
 3053TIP3    H2 9166   1.798   2.458   2.223  1.0542  0.4944 -0.5324
 3054TIP3   OH2 9167   4.717   3.785   0.729 -0.1340  0.4344 -0.6346
 3054TIP3    H1 9168   4.749   3.842   0.659  1.5882 -0.1058 -0.3126
 3054TIP3    H2 9169   4.790   3.727   0.749 -0.0955  1.3830  2.4746
 3055TIP3   OH2 9170   5.913   1.590   4.141 -0.7134 -0.2455  0.3648
 3055TIP3    H1 9171   5.962   1.534   4.201  1.3365  0.2773 -0.7517
 3055TIP3    H2 9172   5.979   1.636   4.090 -2.3343  2.5025  0.5436
 3056TIP3   OH2 9173   1.803   3.125   2.577 -0.1875 -0.5652 -0.9064
 3056TIP3    H1 9174   1.867   3.058   2.555 -0.6196 -1.0832 -0.6117
 3056TIP3    H2 9175   1.718   3.086   2.555 -0.5652 -0.7392  0.6939
 3057TIP3   OH2 9176   0.540   0.111   1.697 -0.4818  0.4194  0.2151
 3057TIP3    H1 9177   0.581   0.196   1.682  0.1032 -0.0758 -1.1308
 3057TIP3    H2 9178   0.534   0.104   1.793 -1.1764  2.2473  0.3355
 3058TIP3   OH2 9179   4.886   0.303   3.986  0.2418  0.2177 -0.5748
 3058TIP3    H1 9180   4.846   0.378   3.942 -1.5144 -0.7854 -0.8225
 3058TIP3    H2 9181   4.876   0.231   3.923  1.3877 -0.3494 -0.1303
 3059TIP3   OH2 9182   1.128   3.459   4.802  0.3644  0.1517  0.4824
 3059TIP3    H1 9183   1.067   3.498   4.865 -0.4268  0.7450 -0.6137
 3059TIP3    H2 9184   1.182   3.533   4.772 -0.1421  0.1505 -0.4841
 3060TIP3   OH2 9185   4.197   5.694   3.787 -0.5171  0.0197  0.0971
 3060TIP3    H1 9186   4.283   5.671   3.821 -0.4075 -0.0532 -0.2280
 3060TIP3    H2 9187   4.168   5.616   3.740 -0.8108  0.0027  0.3031
 3061TIP3   OH2 9188   6.226   2.679   0.083 -0.0480 -0.2602  0.1736
 3061TIP3    H1 9189   6.197   2.591   0.107 -0.2575 -0.3543 -0.4098
 3061TIP3    H2 9190   6.301   2.696   0.140 -0.6915 -0.3677  1.0805
 3062TIP3   OH2 9191   0.346   0.794   3.755  0.3297  0.2281  0.5221
 3062TIP3    H1 9192   0.391   0.789   3.840  1.3935 -0.1139 -0.0409
 3062TIP3    H2 9193   0.280   0.862   3.767  1.1258  0.8865  1.3408
 3063TIP3   OH2 9194   3.957   0.801   0.297  0.2664  0.4419 -0.0175
 3063TIP3    H1 9195   3.942   0.828   0.387 -0.1925  0.4466 -0.0918
 3063TIP3    H2 9196   3.981   0.882   0.251  0.7994  0.3874  0.1603
 3064TIP3   OH2 9197   3.623   3.741   2.817  0.0433 -0.4260 -0.0874
 3064TIP3    H1 9198   3.642   3.817   2.872 -0.0843 -1.6200  1.6832
 3064TIP3    H2 9199   3.562   3.774   2.750 -0.4623  0.9007  0.9893
 3065TIP3   OH2 9200   2.088   2.097   4.323  0.4386  0.6734  0.7200
 3065TIP3    H1 9201   2.095   2.105   4.418 -0.6683 -3.4976  1.3481
 3065TIP3    H2 9202   2.177   2.076   4.294  0.0288 -3.8293  1.8766
 3066TIP3   OH2 9203   0.414   1.851   4.969  0.1225 -0.1446  0.5346
 3066TIP3    H1 9204   0.334   1.861   4.917  0.0187  0.9374  0.8707
 3066TIP3    H2 9205   0.441   1.760   4.954 -0.0016  0.0632 -1.2708
 3067TIP3   OH2 9206   3.327   2.986   4.865  1.3680  0.1672 -0.2401
 3067TIP3    H1 9207   3.263   3.024   4.925  2.0617 -0.7952  1.1579
 3067TIP3    H2 9208   3.327   3.045   4.790 -0.3358  0.7982  0.2013
 3068TIP3   OH2 9209   1.327   0.825   2.699 -0.0354  0.2775  0.2103
 3068TIP3    H1 9210   1.361   0.735   2.702  1.9964  1.0269  1.1990
 3068TIP3    H2 9211   1.347   0.861   2.785 -1.1139  1.6144 -0.0634
 3069TIP3   OH2 9212   0.386   1.799   0.242  0.0849  0.3240 -0.1490
 3069TIP3    H1 9213   0.394   1.729   0.177 -0.4658  2.0930 -2.2201
 3069TIP3    H2 9214   0.299   1.788   0.280  0.7183 -1.2178  0.9905
 3070TIP3   OH2 9215   2.638   3.799   4.964  0.1934 -0.2644 -0.1516
 3070TIP3    H1 9216   2.702   3.729   4.954  1.3394  0.9457 -1.9181
 3070TIP3    H2 9217   2.590   3.801   4.881 -0.1064  0.7571  0.0250
 3071TIP3   OH2 9218   3.668   5.077   4.360  0.4421 -0.4358  0.0170
 3071TIP3    H1 9219   3.634   5.165   4.349  2.1525  0.2544  0.0279
 3071TIP3    H2 9220   3.620   5.042   4.436 -0.1604  0.5119  0.0852
 3072TIP3   OH2 9221   2.468   1.929   4.823 -0.1616  0.6643  0.6388
 3072TIP3    H1 9222   2.457   2.018   4.788 -3.1767 -0.1368 -0.7293
 3072TIP3    H2 9223   2.507   1.943   4.910  1.4613  3.1343 -0.3606
 3073TIP3   OH2 9224   5.907   3.268   2.571  0.4594 -0.1126  0.0555
 3073TIP3    H1 9225   5.879   3.200   2.509 -0.1393  2.2526 -2.4799
 3073TIP3    H2 9226   5.826   3.299   2.611  0.6054 -0.1216  0.3602
 3074TIP3   OH2 9227   0.148   2.588   3.151 -0.4568  0.1694 -0.6914
 3074TIP3    H1 9228   0.155   2.523   3.220 -1.7968 -0.3729 -1.0490
 3074TIP3    H2 9229   0.159   2.539   3.070 -0.4115  0.5577 -0.9248
 3075TIP3   OH2 9230   3.499   5.423   2.551 -0.2958  0.3249 -0.1114
 3075TIP3    H1 9231   3.534   5.334   2.562 -0.3754  0.4478  1.3853
 3075TIP3    H2 9232   3.463   5.445   2.637 -0.1565  1.8554 -0.4183
 3076TIP3   OH2 9233   0.267   1.637   1.236 -0.8994 -0.5258  0.6569
 3076TIP3    H1 9234   0.348   1.612   1.192 -0.0585  1.5161  0.9305
 3076TIP3    H2 9235   0.276   1.603   1.325 -0.2111 -0.0980  0.7589
 3077TIP3   OH2 9236   2.440   3.278   4.832  0.1918  0.0652 -0.3342
 3077TIP3    H1 9237   2.523   3.236   4.810  1.3279  2.2293 -0.4267
 3077TIP3    H2 9238   2.464   3.345   4.896 -1.7113 -0.1321  0.6435
 3078TIP3   OH2 9239   3.707   1.604   3.261 -0.0376  0.8158  0.0969
 3078TIP3    H1 9240   3.624   1.563   3.235 -0.2463  0.3414  1.4114
 3078TIP3    H2 9241   3.741   1.546   3.329  0.4245  2.0296  0.9250
 3079TIP3   OH2 9242   4.741   4.270   3.842  0.6399  0.6340 -0.1548
 3079TIP3    H1 9243   4.787   4.329   3.901  0.9586  0.0210  0.2283
 3079TIP3    H2 9244   4.648   4.287   3.858  0.7281  1.1562 -0.1881
 3080TIP3   OH2 9245   0.493   2.987   2.509  0.3284 -0.1928 -0.0853
 3080TIP3    H1 9246   0.456   2.900   2.526 -1.3310  0.2238 -1.2629
 3080TIP3    H2 9247   0.466   3.039   2.584 -1.4256  0.0523 -0.8378
 3081TIP3   OH2 9248   1.489   3.909   3.862  0.1008 -0.4142  0.1813
 3081TIP3    H1 9249   1.538   3.849   3.917  1.1127 -0.5835 -0.8600
 3081TIP3    H2 9250   1.399   3.903   3.894  1.0099  1.5625  3.6215
 3082TIP3   OH2 9251   3.770   1.639   1.947  0.1365 -0.0833  0.1454
 3082TIP3    H1 9252   3.713   1.593   2.008 -1.2443  2.0269  0.5347
 3082TIP3    H2 9253   3.714   1.706   1.907  1.0917 -1.0442 -3.1307
 3083TIP3   OH2 9254   4.017   4.975   3.811 -0.0337  0.1159  0.2009
 3083TIP3    H1 9255   3.962   4.898   3.804 -1.3602  1.1498 -1.4630
 3083TIP3    H2 9256   3.968   5.035   3.867  0.9426 -0.1548  1.4020
 3084TIP3   OH2 9257   1.788   4.290   4.856  0.1643  0.0332  0.1152
 3084TIP3    H1 9258   1.806   4.220   4.792  3.1371  1.0007 -0.2515
 3084TIP3    H2 9259   1.832   4.262   4.936 -0.7306  0.3624  0.7363
 3085TIP3   OH2 9260   2.497   2.902   2.893  0.1930 -0.1509  0.2439
 3085TIP3    H1 9261   2.454   2.985   2.872 -0.7449 -0.3991  1.1402
 3085TIP3    H2 9262   2.472   2.843   2.822  0.2847  0.1287 -0.0212
 3086TIP3   OH2 9263   5.891   1.643   3.266  0.0779  0.5142  0.8719
 3086TIP3    H1 9264   5.855   1.728   3.294 -1.2271  0.0424  0.7193
 3086TIP3    H2 9265   5.972   1.634   3.315  0.2411  1.8472  0.8999
 3087TIP3   OH2 9266   5.671   1.938   0.588  0.1416  0.2318  0.3977
 3087TIP3    H1 9267   5.643   1.986   0.510  0.9095 -0.2860 -0.2152
 3087TIP3    H2 9268   5.711   2.005   0.644  0.2071  0.4954  0.0410
 3088TIP3   OH2 9269   4.221   1.166   2.225 -0.4605 -0.2699 -0.7582
 3088TIP3    H1 9270   4.231   1.261   2.222  0.3019 -0.2253  1.2690
 3088TIP3    H2 9271   4.160   1.145   2.155  0.8343  1.4875 -2.4923
 3089TIP3   OH2 9272   1.468   0.141   3.768  0.6806 -0.2617 -0.2934
 3089TIP3    H1 9273   1.539   0.165   3.709  1.1200 -1.5120 -0.2869
 3089TIP3    H2 9274   1.485   0.050   3.792 -0.1872 -0.1750  0.7638
 3090TIP3   OH2 9275   1.879   3.167   2.059  0.0109  0.2653 -0.2325
 3090TIP3    H1 9276   1.842   3.246   2.021  1.2422  0.8574 -0.2299
 3090TIP3    H2 9277   1.973   3.181   2.059  0.1570 -0.4629  1.4169
 3091TIP3   OH2 9278   0.320   2.655   1.248 -0.3658  0.6030 -0.3099
 3091TIP3    H1 9279   0.276   2.644   1.164 -2.7856  0.5122  0.8631
 3091TIP3    H2 9280   0.287   2.739   1.281  0.0224  0.3340  0.8066
 3092TIP3   OH2 9281   1.577   4.880   1.044  0.4606 -0.3555 -0.5428
 3092TIP3    H1 9282   1.503   4.848   0.993  1.0055  1.1904 -2.4114
 3092TIP3    H2 9283   1.557   4.971   1.061  0.3748 -0.7812  1.9854
 3093TIP3   OH2 9284  -0.003   4.515   0.871 -0.2875 -0.3532  0.3787
 3093TIP3    H1 9285   0.075   4.465   0.895  0.3920  0.4611 -0.0894
 3093TIP3    H2 9286  -0.025   4.563   0.951  1.2162  1.3672 -0.1761
 3094TIP3   OH2 9287   5.430   0.866   0.023 -0.0463 -0.3505  0.0706
 3094TIP3    H1 9288   5.482   0.830   0.095 -0.0604 -0.6746 -0.0782
 3094TIP3    H2 9289   5.377   0.934   0.063 -1.1186 -1.5006  0.6669
 3095TIP3   OH2 9290   1.462   3.329   0.339  0.2032  0.0983  0.1430
 3095TIP3    H1 9291   1.412   3.259   0.296 -0.5217  0.2705  0.6762
 3095TIP3    H2 9292   1.519   3.363   0.270  0.9929 -1.3816  0.0144
 3096TIP3   OH2 9293   2.201   4.602   0.796 -0.3446  0.5611  0.5508
 3096TIP3    H1 9294   2.125   4.651   0.765 -0.7041 -0.3408 -0.0291
 3096TIP3    H2 9295   2.192   4.601   0.891  0.3429  2.6860  0.6922
 3097TIP3   OH2 9296   5.285   5.323   3.529 -0.3182  0.2546 -0.3179
 3097TIP3    H1 9297   5.376   5.353   3.528  0.2276 -1.3356 -0.7837
 3097TIP3    H2 9298   5.290   5.232   3.502 -2.0790  0.1748 -0.4422
 3098TIP3   OH2 9299   5.670   1.489   3.180  0.6751 -0.4454 -0.1351
 3098TIP3    H1 9300   5.698   1.398   3.186  0.2171 -0.8640 -3.0079
 3098TIP3    H2 9301   5.747   1.540   3.207  1.0158 -1.6308  1.2480
 3099TIP3   OH2 9302   5.930   3.109   0.979 -0.0048 -0.3175 -0.1573
 3099TIP3    H1 9303   5.872   3.073   1.047  1.6408  1.7666  2.5763
 3099TIP3    H2 9304   5.926   3.204   0.993  1.4695  0.0885 -2.1339
 3100TIP3   OH2 9305   4.072   4.693   0.832  0.0712  0.3400 -0.1283
 3100TIP3    H1 9306   4.024   4.642   0.767 -1.0255  0.4329  0.5684
 3100TIP3    H2 9307   4.149   4.640   0.853  0.5516  0.4075 -1.6284
 3101TIP3   OH2 9308   5.215   4.750   0.250  0.4322 -0.2274  0.3358
 3101TIP3    H1 9309   5.184   4.715   0.333  0.7555  0.5819  0.8072
 3101TIP3    H2 9310   5.254   4.834   0.272  0.3868  0.0712 -0.6603
 3102TIP3   OH2 9311   0.941   3.426   3.390  0.1488  0.2905 -0.0779
 3102TIP3    H1 9312   1.020   3.473   3.416 -0.3478  0.7610  0.6098
 3102TIP3    H2 9313   0.871   3.463   3.445 -0.6568  0.2622 -1.0482
 3103TIP3   OH2 9314   5.883   4.104   1.600 -0.0275  0.1760 -0.0465
 3103TIP3    H1 9315   5.904   4.114   1.507 -2.7720  0.1902 -0.7413
 3103TIP3    H2 9316   5.822   4.030   1.602  1.4812 -1.1114  2.0322
 3104TIP3   OH2 9317   1.753   2.743   1.454  0.1582 -0.2118 -0.0594
 3104TIP3    H1 9318   1.743   2.664   1.507 -1.4321 -0.3227 -0.4831
 3104TIP3    H2 9319   1.833   2.785   1.488 -0.2139 -0.8427  1.6823
 3105TIP3   OH2 9320   3.917   5.787   5.165  0.2496  0.3808  0.2972
 3105TIP3    H1 9321   3.853   5.793   5.236 -0.2209  0.4299 -0.1227
 3105TIP3    H2 9322   3.908   5.697   5.133  0.1575  0.4843  0.0269
 3106TIP3   OH2 9323   4.971   2.275   2.444 -0.1247  0.3415 -0.5132
 3106TIP3    H1 9324   4.974   2.183   2.418 -0.2701  0.6956 -1.8498
 3106TIP3    H2 9325   5.025   2.320   2.380 -0.8135  1.3116 -0.4354
 3107TIP3   OH2 9326   3.442   0.646   1.809 -0.5959  0.2373 -0.4159
 3107TIP3    H1 9327   3.452   0.558   1.845  1.2286 -0.1464 -1.6886
 3107TIP3    H2 9328   3.501   0.700   1.862  0.9424 -0.0389 -1.7567
 3108TIP3   OH2 9329   1.038   5.948   1.694 -0.0543  0.0236  0.2046
 3108TIP3    H1 9330   1.048   5.920   1.786 -1.5934 -1.3554  0.0087
 3108TIP3    H2 9331   1.069   5.873   1.643  0.5278  0.6737 -0.4136
 3109TIP3   OH2 9332   6.326   3.396   0.159  0.1103  0.0387  0.0563
 3109TIP3    H1 9333   6.404   3.373   0.109  0.3867  2.0383 -0.5158
 3109TIP3    H2 9334   6.265   3.430   0.094 -0.0063  1.4668  0.8649
 3110TIP3   OH2 9335   2.716   4.351   4.951  0.3403 -0.7993 -0.1110
 3110TIP3    H1 9336   2.804   4.332   4.983 -0.2611 -1.6826  1.1295
 3110TIP3    H2 9337   2.678   4.265   4.934 -0.7281 -0.4992  0.6643
 3111TIP3   OH2 9338   5.328   5.059   1.437  0.4398 -0.3483  0.1805
 3111TIP3    H1 9339   5.363   4.970   1.440 -1.4415 -1.1834 -0.6896
 3111TIP3    H2 9340   5.351   5.097   1.521 -0.6824 -2.4974  1.5552
 3112TIP3   OH2 9341   4.027   1.916   3.269  0.2676 -0.2544  0.1143
 3112TIP3    H1 9342   4.001   1.856   3.200 -0.1045 -0.2931  0.2855
 3112TIP3    H2 9343   4.122   1.917   3.266  0.3641 -2.0889  1.1443
 3113TIP3   OH2 9344   4.030   1.014   1.046  0.2001  0.3018  0.1691
 3113TIP3    H1 9345   3.992   0.937   1.088 -0.7486  1.3196  1.2736
 3113TIP3    H2 9346   4.123   0.993   1.035 -0.3766 -1.7425 -1.3887
 3114TIP3   OH2 9347   1.698   1.450   2.976 -0.3989 -0.0160  0.5427
 3114TIP3    H1 9348   1.679   1.358   2.957 -0.7113  0.0719  0.4256
 3114TIP3    H2 9349   1.612   1.492   2.980 -0.2309  0.8522 -2.3747
 3115TIP3   OH2 9350   2.283   2.298   4.222  0.2670 -0.1809 -0.1727
 3115TIP3    H1 9351   2.222   2.341   4.162  0.5198 -1.0006 -1.0241
 3115TIP3    H2 9352   2.282   2.206   4.196  0.7485 -0.4634  0.7712
 3116TIP3   OH2 9353   4.360   2.752   3.880  0.7632 -0.1726  0.4923
 3116TIP3    H1 9354   4.404   2.836   3.862  1.4580 -0.4886  0.6828
 3116TIP3    H2 9355   4.423   2.703   3.933 -0.7027  0.2566  2.7908
 3117TIP3   OH2 9356   3.989   1.431   0.647  0.3138 -0.1031 -0.5882
 3117TIP3    H1 9357   3.932   1.506   0.632  0.4275  0.2105  0.5076
 3117TIP3    H2 9358   4.070   1.451   0.599 -0.0487 -0.0205 -1.1725
 3118TIP3   OH2 9359   0.598   2.874   2.857  0.0614 -0.3281  0.0081
 3118TIP3    H1 9360   0.595   2.786   2.892  2.3321 -1.3626 -2.0499
 3118TIP3    H2 9361   0.538   2.872   2.782 -1.5489  0.5929  1.2176
 3119TIP3   OH2 9362   4.370   3.813   1.602  0.0473  0.1136 -0.5826
 3119TIP3    H1 9363   4.457   3.774   1.599  1.0319  2.1906 -0.6415
 3119TIP3    H2 9364   4.370   3.877   1.531  0.0309  3.0798  1.8825
 3120TIP3   OH2 9365   5.306   4.948   4.567 -0.1743  0.4786 -0.1732
 3120TIP3    H1 9366   5.345   4.918   4.485  2.0016 -0.0072  0.9715
 3120TIP3    H2 9367   5.243   5.016   4.540 -1.6513 -1.6142 -2.4267
 3121TIP3   OH2 9368   2.948   5.003   3.315 -0.5086  0.5561 -0.1037
 3121TIP3    H1 9369   2.993   5.018   3.232  1.3683 -1.2549  0.5017
 3121TIP3    H2 9370   2.884   5.074   3.321 -0.1832  1.1656 -2.7169
 3122TIP3   OH2 9371   0.083   4.175   0.098  0.5999 -0.6296  0.2287
 3122TIP3    H1 9372   0.028   4.251   0.077  3.7720  1.3198 -1.6981
 3122TIP3    H2 9373   0.115   4.192   0.187  0.5083 -0.2612  0.1904
 3123TIP3   OH2 9374   3.794   1.646   0.610 -0.0504  0.1702 -0.0265
 3123TIP3    H1 9375   3.740   1.712   0.654 -0.4714 -1.8694  2.8707
 3123TIP3    H2 9376   3.734   1.573   0.594  0.1537  0.6703 -4.0703
 3124TIP3   OH2 9377   3.239   1.151   1.603  0.3971  0.2740 -0.7151
 3124TIP3    H1 9378   3.179   1.226   1.608 -1.2120 -0.9897 -0.4512
 3124TIP3    H2 9379   3.208   1.100   1.528  1.1723 -0.3868 -0.5982
 3125TIP3   OH2 9380   5.730   3.343   4.080 -0.3550  0.0456 -0.2768
 3125TIP3    H1 9381   5.801   3.282   4.099 -0.2358  0.0064 -0.8262
 3125TIP3    H2 9382   5.706   3.379   4.165 -1.1969 -1.6121  0.2326
 3126TIP3   OH2 9383   5.059   4.295   3.524  0.2194 -0.2818 -0.4515
 3126TIP3    H1 9384   5.138   4.300   3.470  0.4376  0.7257 -0.0716
 3126TIP3    H2 9385   5.092   4.284   3.613 -0.0515  0.5374 -0.2448
 3127TIP3   OH2 9386   4.024   4.394   4.477 -0.2254  0.5284 -0.2120
 3127TIP3    H1 9387   3.940   4.369   4.438  0.5115 -2.3265 -0.1754
 3127TIP3    H2 9388   4.089   4.372   4.411  0.7985 -1.5401  1.3398
 3128TIP3   OH2 9389   5.910   2.749   3.715  0.8484  0.0764 -0.4497
 3128TIP3    H1 9390   5.892   2.770   3.623  0.4929 -0.1103 -0.4250
 3128TIP3    H2 9391   6.005   2.740   3.719  1.1283  2.4163 -0.3046
 3129TIP3   OH2 9392   2.270   3.444   0.745  0.5592  0.1390 -0.1666
 3129TIP3    H1 9393   2.363   3.429   0.731  0.6355  0.4168  0.0256
 3129TIP3    H2 9394   2.248   3.517   0.686  0.8385  1.1794  0.9629
 3130TIP3   OH2 9395   4.775   3.933   0.512 -0.0663  0.4862  0.3308
 3130TIP3    H1 9396   4.838   4.005   0.510 -0.6003  0.9573 -1.6071
 3130TIP3    H2 9397   4.786   3.889   0.428 -1.0605 -0.5467  0.7144
 3131TIP3   OH2 9398   5.849   0.853   3.116  0.1934  0.3049 -0.2827
 3131TIP3    H1 9399   5.931   0.897   3.140  2.0981 -3.0291 -0.1011
 3131TIP3    H2 9400   5.808   0.832   3.200  0.6218 -0.5208 -0.2720
 3132TIP3   OH2 9401   5.373   3.609   4.286  0.1239 -0.1086 -0.2350
 3132TIP3    H1 9402   5.314   3.533   4.287 -0.5837  0.4273 -0.3056
 3132TIP3    H2 9403   5.416   3.604   4.200 -1.6310  0.8258 -1.2345
 3133TIP3   OH2 9404   2.005   5.366   2.794 -0.1921  0.4987  0.3779
 3133TIP3    H1 9405   1.953   5.369   2.874 -0.0646 -0.5448  0.5183
 3133TIP3    H2 9406   2.073   5.301   2.812 -0.8957 -0.7038 -0.9926
 3134TIP3   OH2 9407   1.151   5.797   0.208  0.6682  0.5606  0.1557
 3134TIP3    H1 9408   1.079   5.794   0.145 -0.1694 -0.7647  1.1329
 3134TIP3    H2 9409   1.124   5.738   0.279  0.9731  2.9462  2.4194
 3135TIP3   OH2 9410   5.884   2.181   0.568  0.1782 -0.3304  0.7350
 3135TIP3    H1 9411   5.870   2.276   0.576  1.1152  0.0277 -1.2150
 3135TIP3    H2 9412   5.894   2.151   0.658 -1.0065  1.2672  1.4642
 3136TIP3   OH2 9413   0.441   2.370   3.666  0.0054 -0.9576 -0.5926
 3136TIP3    H1 9414   0.404   2.331   3.587  1.6174 -1.8697 -0.9365
 3136TIP3    H2 9415   0.366   2.378   3.726 -1.2437 -0.2935 -2.1499
 3137TIP3   OH2 9416   4.829   5.010   0.517 -0.3533 -0.8925 -0.0646
 3137TIP3    H1 9417   4.819   5.090   0.568 -2.3140 -1.0170 -0.1744
 3137TIP3    H2 9418   4.831   4.940   0.583 -0.5241 -0.8768 -0.0411
 3138TIP3   OH2 9419   5.592   1.868   3.107 -0.2047 -0.4236 -0.2998
 3138TIP3    H1 9420   5.569   1.792   3.052 -0.3786  0.5192 -1.5737
 3138TIP3    H2 9421   5.662   1.912   3.059 -0.6585  0.6634  0.0141
 3139TIP3   OH2 9422   3.765   5.115   3.897 -0.0412 -0.0495 -0.4470
 3139TIP3    H1 9423   3.799   5.176   3.963 -0.0207  0.2109 -0.6946
 3139TIP3    H2 9424   3.731   5.041   3.948 -1.6131  0.9102 -0.0309
 3140TIP3   OH2 9425   1.424   4.359   1.260  0.1076 -0.2733 -0.2394
 3140TIP3    H1 9426   1.366   4.317   1.323  0.4899 -0.9353 -0.3227
 3140TIP3    H2 9427   1.512   4.329   1.283  0.5365  1.3869  0.4162
 3141TIP3   OH2 9428   4.114   4.005   2.182 -0.3092 -0.4494  0.1108
 3141TIP3    H1 9429   4.159   4.066   2.240 -1.2521  0.6984 -0.3332
 3141TIP3    H2 9430   4.185   3.956   2.139  0.7712  2.8218 -2.2744
 3142TIP3   OH2 9431   3.770   1.172   4.905 -0.2375  0.6105 -0.3959
 3142TIP3    H1 9432   3.807   1.083   4.903 -1.0955  0.2597 -1.1020
 3142TIP3    H2 9433   3.736   1.186   4.817  0.0648  1.7294 -0.3464
 3143TIP3   OH2 9434   3.130   2.652   2.127 -0.1688  0.0881 -0.2761
 3143TIP3    H1 9435   3.179   2.592   2.071  1.1452  1.4438 -0.6296
 3143TIP3    H2 9436   3.105   2.724   2.069  1.0014  1.3993  0.7754
 3144TIP3   OH2 9437   2.624   1.413   1.626 -0.3472  0.2385 -0.4741
 3144TIP3    H1 9438   2.568   1.449   1.558 -0.9047 -1.4780 -0.9707
 3144TIP3    H2 9439   2.695   1.477   1.634 -0.8437  1.0233 -1.8766
 3145TIP3   OH2 9440   6.034   2.169   4.890  0.1515  0.5141 -0.4120
 3145TIP3    H1 9441   5.957   2.158   4.833 -0.9344  0.6805  0.9629
 3145TIP3    H2 9442   5.997   2.173   4.979  1.8884 -1.0710  0.4366
 3146TIP3   OH2 9443   3.956   3.611   1.361 -0.8049  0.7824 -0.0758
 3146TIP3    H1 9444   3.982   3.698   1.330 -2.6298  1.9191  1.4036
 3146TIP3    H2 9445   3.913   3.570   1.286 -0.1051  1.2131 -0.7225
 3147TIP3   OH2 9446   0.576   1.043   4.786  0.0502 -0.0148  0.0334
 3147TIP3    H1 9447   0.566   0.948   4.791  1.3531 -0.1783 -0.0434
 3147TIP3    H2 9448   0.585   1.062   4.693 -0.4868  0.2133  0.0291
 3148TIP3   OH2 9449   3.929   1.378   2.677  0.4594 -1.1563 -0.2545
 3148TIP3    H1 9450   3.950   1.375   2.584 -0.0720 -0.7270 -0.3940
 3148TIP3    H2 9451   3.917   1.287   2.702  1.0594 -1.3038 -0.5013
 3149TIP3   OH2 9452   5.337   2.523   2.405 -0.2089  0.1049 -0.5688
 3149TIP3    H1 9453   5.421   2.528   2.451 -0.3340 -1.3780 -0.1371
 3149TIP3    H2 9454   5.319   2.429   2.398 -1.6715  0.3941 -0.9447
 3150TIP3   OH2 9455   4.504   0.101   2.313  0.3966  0.1962  0.7812
 3150TIP3    H1 9456   4.490   0.169   2.380  0.0860 -0.2024  1.1289
 3150TIP3    H2 9457   4.416   0.079   2.283  0.4482 -0.4880  1.1150
 3151TIP3   OH2 9458   1.895   3.876   1.171  0.2143 -0.2740  0.0750
 3151TIP3    H1 9459   1.813   3.836   1.201  0.5321 -0.2641  0.9637
 3151TIP3    H2 9460   1.877   3.971   1.174  0.6569 -0.2223  1.4582
 3152TIP3   OH2 9461   2.493   4.302   2.673 -0.5830  0.8765 -0.0808
 3152TIP3    H1 9462   2.510   4.280   2.581 -0.1187  0.2244  0.1547
 3152TIP3    H2 9463   2.461   4.221   2.712  1.0456  0.5984  0.7779
 3153TIP3   OH2 9464   3.111   3.342   1.527 -0.3079  0.1656 -0.5871
 3153TIP3    H1 9465   3.068   3.420   1.563 -1.7178 -1.3744  1.2719
 3153TIP3    H2 9466   3.130   3.287   1.603  1.3258 -1.0143 -1.7728
 3154TIP3   OH2 9467   1.661   2.704   3.769 -0.1296  0.2380 -0.4402
 3154TIP3    H1 9468   1.738   2.742   3.727  0.0033 -1.6057 -2.0143
 3154TIP3    H2 9469   1.595   2.701   3.699 -0.0801 -2.4052 -0.4721
 3155TIP3   OH2 9470   1.259   1.424   1.712  0.1910 -0.2030  0.0765
 3155TIP3    H1 9471   1.227   1.473   1.635  1.8120 -0.8202 -1.0462
 3155TIP3    H2 9472   1.253   1.332   1.686  2.2516 -0.3682  0.0215
 3156TIP3   OH2 9473   0.234   5.442   2.461  0.1016  0.1427 -0.7036
 3156TIP3    H1 9474   0.301   5.382   2.494  0.5505 -0.3013 -2.3436
 3156TIP3    H2 9475   0.155   5.389   2.456 -0.5839  0.8142  1.7795
 3157TIP3   OH2 9476   4.519   3.269   0.393  0.2261  0.0203 -0.1204
 3157TIP3    H1 9477   4.502   3.358   0.421  0.1546  0.1190 -0.4703
 3157TIP3    H2 9478   4.567   3.278   0.310 -0.3971 -0.2633 -0.5194
 3158TIP3   OH2 9479   3.025   2.690   0.644  0.3678  0.4217 -0.0517
 3158TIP3    H1 9480   2.957   2.758   0.646  1.3095  1.4371 -1.4067
 3158TIP3    H2 9481   3.083   2.713   0.717 -1.3345 -1.1718  1.9327
 3159TIP3   OH2 9482   4.264   3.575   3.298  0.0390  0.5016 -0.3015
 3159TIP3    H1 9483   4.192   3.638   3.303 -1.9086 -1.5997 -0.2600
 3159TIP3    H2 9484   4.314   3.590   3.378 -0.8014  1.4927  0.0694
 3160TIP3   OH2 9485   0.183   1.851   2.287  0.1194  0.3264 -0.1925
 3160TIP3    H1 9486   0.171   1.820   2.377 -0.4536  0.2778 -0.2814
 3160TIP3    H2 9487   0.119   1.922   2.278  0.8508  0.9857 -0.2557
 3161TIP3   OH2 9488   0.183   0.426   0.791  0.1364  0.4118 -0.7468
 3161TIP3    H1 9489   0.271   0.458   0.813 -0.4561  2.1489 -0.7262
 3161TIP3    H2 9490   0.172   0.347   0.844  0.7208  1.6174  1.3010
 3162TIP3   OH2 9491   0.898   1.836   5.113  0.3781  0.4207 -0.1649
 3162TIP3    H1 9492   0.845   1.775   5.062 -1.5886  0.8329  1.2576
 3162TIP3    H2 9493   0.984   1.795   5.119 -0.7953 -2.0943  0.5108
 3163TIP3   OH2 9494   2.027   3.874   3.539  0.2179  0.2576 -0.1477
 3163TIP3    H1 9495   2.083   3.860   3.462 -0.6817  1.5583 -1.0833
 3163TIP3    H2 9496   1.950   3.920   3.504 -1.2183 -1.0377  1.1815
 3164TIP3   OH2 9497   0.173   1.510   3.496  0.0373 -0.2411 -0.5071
 3164TIP3    H1 9498   0.133   1.597   3.502 -0.0042 -0.1955 -1.2975
 3164TIP3    H2 9499   0.266   1.528   3.480  0.2627 -0.3471  0.6251
 3165TIP3   OH2 9500   4.284   5.782   0.142  0.0628 -0.3214  0.2044
 3165TIP3    H1 9501   4.224   5.840   0.095 -0.5273 -2.3797 -1.7810
 3165TIP3    H2 9502   4.371   5.807   0.112 -0.1595 -0.2288 -0.3737
 3166TIP3   OH2 9503   4.887   5.225   1.447  0.0057  0.1147  0.2226
 3166TIP3    H1 9504   4.829   5.299   1.464  1.4801  1.2967  0.3684
 3166TIP3    H2 9505   4.957   5.234   1.512  3.0651  1.7720 -2.9378
 3167TIP3   OH2 9506   3.797   1.363   5.131  0.2307 -0.1913 -0.2475
 3167TIP3    H1 9507   3.824   1.303   5.061  0.4669 -1.3927  0.8452
 3167TIP3    H2 9508   3.702   1.368   5.121  0.1735 -0.9865 -0.1702
 3168TIP3   OH2 9509   2.951   3.074   3.740  0.2276  0.4311 -0.2243
 3168TIP3    H1 9510   2.950   3.008   3.810 -0.9837  0.9660  0.2886
 3168TIP3    H2 9511   2.862   3.075   3.706 -0.1921  2.7195  0.6958
 3169TIP3   OH2 9512   3.575   2.519   3.665  0.5589 -0.0994 -0.3068
 3169TIP3    H1 9513   3.658   2.476   3.641  1.4995  1.6270 -0.2746
 3169TIP3    H2 9514   3.596   2.569   3.744 -0.7304 -0.2165  0.1329
 3170TIP3   OH2 9515   0.198   2.444   4.661 -0.0536  0.3323  0.2893
 3170TIP3    H1 9516   0.156   2.487   4.736 -1.0955 -3.1092  1.8569
 3170TIP3    H2 9517   0.125   2.408   4.610  0.7546 -1.6189  0.4167
 3171TIP3   OH2 9518   3.697   4.934   4.079 -0.4249  0.3079  0.1441
 3171TIP3    H1 9519   3.619   4.906   4.128 -1.4303  1.7105 -0.5842
 3171TIP3    H2 9520   3.762   4.866   4.098 -2.1949 -1.6213 -0.2357
 3172TIP3   OH2 9521   1.793   2.310   4.688  0.2420  0.0837  0.5054
 3172TIP3    H1 9522   1.817   2.289   4.778 -1.1101  1.5112  1.2411
 3172TIP3    H2 9523   1.779   2.405   4.688 -2.4283 -0.2232 -0.5183
 3173TIP3   OH2 9524   2.122   2.600   4.312  0.2578  0.1950  0.1408
 3173TIP3    H1 9525   2.065   2.586   4.237  0.4245  1.6193 -0.2633
 3173TIP3    H2 9526   2.098   2.530   4.373 -1.0334  0.0231 -0.5357
 3174TIP3   OH2 9527   5.779   5.923   2.684 -0.0032  0.2281 -0.2769
 3174TIP3    H1 9528   5.801   5.993   2.623 -0.0461  0.0575 -0.4907
 3174TIP3    H2 9529   5.830   5.848   2.654 -1.9248 -0.5848 -1.6409
 3175TIP3   OH2 9530   5.921   1.902   0.467  0.0918  0.4607 -0.2698
 3175TIP3    H1 9531   5.924   1.990   0.505 -1.2188  0.6187 -0.4585
 3175TIP3    H2 9532   5.848   1.860   0.512  1.0627 -0.7430  0.2187
 3176TIP3   OH2 9533   5.300   1.333   2.727 -0.0434 -0.0078 -0.1138
 3176TIP3    H1 9534   5.324   1.413   2.681 -1.6003  0.4005 -0.2902
 3176TIP3    H2 9535   5.345   1.339   2.811 -0.0287  0.9803 -0.1843
 3177TIP3   OH2 9536   6.084   3.522   2.788 -0.4957  0.0628 -0.0904
 3177TIP3    H1 9537   6.004   3.470   2.775 -1.7286  1.5891  1.0170
 3177TIP3    H2 9538   6.138   3.468   2.845 -0.3802 -1.3169 -1.4423
 3178TIP3   OH2 9539   2.515   2.754   0.582 -0.4476 -0.4410  0.2752
 3178TIP3    H1 9540   2.445   2.758   0.518  1.1568  0.7258 -1.4878
 3178TIP3    H2 9541   2.517   2.662   0.609 -2.2968 -0.5910  0.0280
 3179TIP3   OH2 9542   6.182   5.792   3.776 -0.3609  0.1457  0.1553
 3179TIP3    H1 9543   6.227   5.714   3.743 -0.8137 -0.5410  1.0795
 3179TIP3    H2 9544   6.092   5.762   3.793 -0.5241  0.8493  0.5905
 3180TIP3   OH2 9545   5.226   4.043   1.017 -0.7619 -0.2173 -0.2196
 3180TIP3    H1 9546   5.190   4.125   1.051 -0.0830 -0.1040  0.2428
 3180TIP3    H2 9547   5.297   4.070   0.958 -1.3236 -0.4413 -1.0149
 3181TIP3   OH2 9548   0.047   0.817   0.325 -0.0983  0.1655  0.0319
 3181TIP3    H1 9549   0.092   0.898   0.301 -0.3395 -0.3158 -2.2589
 3181TIP3    H2 9550  -0.044   0.843   0.342 -0.0311  0.4461 -0.0462
 3182TIP3   OH2 9551   0.524   0.356   4.719  0.0117  0.3058 -0.3430
 3182TIP3    H1 9552   0.518   0.415   4.644  0.9858  0.5907 -0.2033
 3182TIP3    H2 9553   0.562   0.276   4.683 -0.9394 -0.1229 -0.4497
 3183TIP3   OH2 9554   4.446   0.919   3.775 -0.8621  0.3607 -0.3654
 3183TIP3    H1 9555   4.393   0.965   3.839 -3.2800 -1.6965 -0.7380
 3183TIP3    H2 9556   4.525   0.973   3.766 -2.3134  2.9304  1.1361
 3184TIP3   OH2 9557   5.871   1.059   1.560 -0.4822  0.4489 -0.4016
 3184TIP3    H1 9558   5.780   1.055   1.532 -0.6476 -1.2954  0.2648
 3184TIP3    H2 9559   5.920   1.019   1.488 -0.6368 -1.6046  0.5431
 3185TIP3   OH2 9560   0.392   4.119   0.788 -0.2797 -0.3407 -0.2229
 3185TIP3    H1 9561   0.370   4.209   0.762  1.6887  0.4296  0.6077
 3185TIP3    H2 9562   0.329   4.099   0.857  1.3766  1.7731  2.0532
 3186TIP3   OH2 9563   4.868   1.914   1.867 -0.2187 -0.0808 -0.4859
 3186TIP3    H1 9564   4.963   1.921   1.878 -0.1431  0.1543 -1.2204
 3186TIP3    H2 9565   4.835   1.894   1.954  0.4241  0.6765 -0.0534
 3187TIP3   OH2 9566   2.875   4.744   0.391  0.1222 -0.0193 -0.2825
 3187TIP3    H1 9567   2.859   4.803   0.318 -0.2094 -0.9315 -0.9581
 3187TIP3    H2 9568   2.939   4.681   0.357  0.6022  0.0347  0.4840
 3188TIP3   OH2 9569   5.068   1.780   2.928 -0.6614 -0.1194 -0.3574
 3188TIP3    H1 9570   5.005   1.709   2.935  0.0316 -0.5792  2.5061
 3188TIP3    H2 9571   5.028   1.852   2.976  0.2955  0.1068  0.1204
 3189TIP3   OH2 9572   2.805   0.036   2.333 -0.2107  0.2459  0.3047
 3189TIP3    H1 9573   2.780   0.087   2.257 -0.1276 -0.0731  0.0608
 3189TIP3    H2 9574   2.780  -0.054   2.311  0.0520  0.1120  0.5447
 3190TIP3   OH2 9575   4.139   3.332   2.279  0.9375  0.2138  0.0157
 3190TIP3    H1 9576   4.130   3.344   2.185  1.9605  0.1412 -0.1092
 3190TIP3    H2 9577   4.090   3.252   2.299  1.8762 -0.5673 -0.7018
 3191TIP3   OH2 9578   4.711   5.604   0.059 -0.5893  0.1570 -0.0415
 3191TIP3    H1 9579   4.788   5.651   0.027 -0.0613  1.0237  2.3306
 3191TIP3    H2 9580   4.667   5.665   0.117 -1.9414 -1.0338  0.2501
 3192TIP3   OH2 9581   5.128   1.601   4.223 -0.1055  0.8945  0.2108
 3192TIP3    H1 9582   5.130   1.506   4.230  1.8309  0.9125  0.2795
 3192TIP3    H2 9583   5.141   1.618   4.129  0.8407  1.0915  0.3669
 3193TIP3   OH2 9584   0.221   5.504   4.339  0.4966  0.5178 -0.4168
 3193TIP3    H1 9585   0.205   5.442   4.268  1.5536 -0.5026  0.1945
 3193TIP3    H2 9586   0.311   5.534   4.324  0.2506  1.3303 -0.2809
 3194TIP3   OH2 9587   3.277   4.068   3.637 -0.0540  0.5194  0.0901
 3194TIP3    H1 9588   3.257   4.061   3.730 -0.7371  0.5203 -0.0503
 3194TIP3    H2 9589   3.371   4.051   3.631 -0.0793  0.1271  0.7313
 3195TIP3   OH2 9590   4.875   0.114   4.688  0.0127 -0.0147  0.5928
 3195TIP3    H1 9591   4.947   0.055   4.707 -0.2867 -0.3011  0.8556
 3195TIP3    H2 9592   4.831   0.127   4.772  0.6147  1.3240  0.7265
 3196TIP3   OH2 9593   1.978   5.105   3.050  0.2432 -0.3048  0.2915
 3196TIP3    H1 9594   2.068   5.109   3.082  1.5002  0.2985 -2.9795
 3196TIP3    H2 9595   1.959   5.194   3.020 -1.8137 -0.2116  1.6439
 3197TIP3   OH2 9596   3.212   1.167   2.777  0.1716 -0.6362 -0.6972
 3197TIP3    H1 9597   3.156   1.113   2.721  0.9955 -1.7180 -0.4879
 3197TIP3    H2 9598   3.262   1.220   2.715  0.6348 -1.3870 -0.9718
 3198TIP3   OH2 9599   0.215   0.857   2.467 -0.2372  0.0568 -0.2288
 3198TIP3    H1 9600   0.283   0.922   2.454 -1.3650  0.9845 -1.8807
 3198TIP3    H2 9601   0.143   0.906   2.508 -0.5977 -0.4646 -0.2313
 3199TIP3   OH2 9602   3.915   0.792   5.041 -0.3221 -0.3609  0.3795
 3199TIP3    H1 9603   4.003   0.766   5.014 -0.4905  0.8842 -1.5694
 3199TIP3    H2 9604   3.925   0.879   5.078 -0.9139  0.5657 -1.5127
 3200TIP3   OH2 9605   1.131   0.145   3.506  0.0438  1.0025 -0.1038
 3200TIP3    H1 9606   1.130   0.050   3.500 -0.6548  0.9618  0.5821
 3200TIP3    H2 9607   1.086   0.175   3.427 -3.6792  0.6276  1.6689
 3201TIP3   OH2 9608   3.454   0.241   3.683 -0.0920 -0.0443  0.6291
 3201TIP3    H1 9609   3.421   0.330   3.693 -3.1409 -1.1050  1.1785
 3201TIP3    H2 9610   3.433   0.217   3.593  0.5004 -0.3149  0.5553
 3202TIP3   OH2 9611   0.937   1.342   1.550 -0.4504  0.2048 -0.2374
 3202TIP3    H1 9612   0.991   1.270   1.582  0.2207  0.0616 -1.6455
 3202TIP3    H2 9613   0.875   1.358   1.622  0.5414 -0.5561  0.8342
 3203TIP3   OH2 9614   5.711   3.436   0.566  0.4539 -0.0585  0.0980
 3203TIP3    H1 9615   5.649   3.371   0.534  1.8191 -0.3039 -2.2953
 3203TIP3    H2 9616   5.666   3.519   0.555  0.1534 -0.3053 -0.6109
 3204TIP3   OH2 9617   0.413   5.471   0.358  0.3115 -0.2098  0.7430
 3204TIP3    H1 9618   0.506   5.468   0.382  0.5080  2.5679  0.5939
 3204TIP3    H2 9619   0.369   5.419   0.425  1.9456 -1.8916  0.6245
 3205TIP3   OH2 9620   4.518   3.503   2.818 -0.3912 -0.4759  0.5502
 3205TIP3    H1 9621   4.513   3.592   2.784 -0.5236 -0.9412 -0.7469
 3205TIP3    H2 9622   4.611   3.481   2.817 -0.3978 -0.5007  0.4443
 3206TIP3   OH2 9623   4.373   0.910   3.226 -0.3920  0.2070 -0.4313
 3206TIP3    H1 9624   4.334   0.826   3.249 -0.9305  0.5284 -0.1634
 3206TIP3    H2 9625   4.301   0.961   3.190 -0.3233  0.9477  0.4369
 3207TIP3   OH2 9626   4.528   2.017   4.290  0.0891  0.8092 -0.3487
 3207TIP3    H1 9627   4.550   2.026   4.383 -1.0180  0.7705 -0.0651
 3207TIP3    H2 9628   4.592   1.955   4.256 -0.1692 -0.0252  0.6506
 3208TIP3   OH2 9629   0.662   4.609   5.059 -0.2998 -0.3229 -0.2471
 3208TIP3    H1 9630   0.656   4.643   5.148 -0.3020  0.8484 -0.6837
 3208TIP3    H2 9631   0.582   4.557   5.048  0.1926 -1.3684  0.7680
 3209TIP3   OH2 9632   1.503   3.200   2.994  0.0008 -0.7136  0.4175
 3209TIP3    H1 9633   1.512   3.193   2.899  0.6624  1.3112  0.2798
 3209TIP3    H2 9634   1.552   3.126   3.029 -0.4579 -1.6315 -0.7984
 3210TIP3   OH2 9635   4.081   1.524   1.382  0.0020 -0.6348  0.0654
 3210TIP3    H1 9636   4.160   1.556   1.339 -1.3242  1.0466 -1.2779
 3210TIP3    H2 9637   4.080   1.568   1.467  0.1449 -0.1003 -0.2073
 3211TIP3   OH2 9638   4.101   1.261   0.269  0.0503  0.1464  0.1566
 3211TIP3    H1 9639   4.139   1.308   0.195 -0.9763  0.3411 -0.2647
 3211TIP3    H2 9640   4.115   1.169   0.250  0.2738  0.2160 -0.0140
 3212TIP3   OH2 9641   0.022   2.647   2.025 -0.2440 -0.1948  0.0677
 3212TIP3    H1 9642  -0.058   2.684   1.987  0.0473  2.5409  1.8320
 3212TIP3    H2 9643   0.091   2.670   1.963 -0.1424  2.0402  0.9176
 3213TIP3   OH2 9644   0.350   5.801   0.309  0.1157  0.2141  0.3313
 3213TIP3    H1 9645   0.429   5.826   0.261  0.8525 -1.5431  0.5592
 3213TIP3    H2 9646   0.282   5.793   0.243  0.0960  1.7058  0.1276
 3214TIP3   OH2 9647   0.675   4.996   1.852  0.1571 -0.1125  0.0708
 3214TIP3    H1 9648   0.768   4.976   1.843  0.1020 -0.1762 -0.3620
 3214TIP3    H2 9649   0.658   4.991   1.946  0.8332  0.9804  0.2750
 3215TIP3   OH2 9650   5.567   3.207   3.222  0.7748  0.0041 -0.3438
 3215TIP3    H1 9651   5.636   3.142   3.216 -0.6694 -1.8720  1.6624
 3215TIP3    H2 9652   5.492   3.167   3.177  0.7546  1.7582 -2.0160
 3216TIP3   OH2 9653   2.308   4.981   2.615 -0.3396  0.4609  0.3664
 3216TIP3    H1 9654   2.348   4.911   2.667  1.6728  0.8479 -0.6040
 3216TIP3    H2 9655   2.381   5.037   2.589 -1.4830  1.1356 -1.5835
 3217TIP3   OH2 9656   4.993   4.356   4.291  0.0637  0.1301  0.1023
 3217TIP3    H1 9657   4.981   4.266   4.319 -0.4361  0.0378 -0.3706
 3217TIP3    H2 9658   4.963   4.409   4.365 -1.1495 -0.1054 -0.1915
 3218TIP3   OH2 9659   0.355   4.068   4.254  0.1292 -0.1439  0.1313
 3218TIP3    H1 9660   0.408   4.092   4.330  0.4684 -1.0996  0.2023
 3218TIP3    H2 9661   0.388   4.123   4.183  0.5705 -0.0638  0.3971
 3219TIP3   OH2 9662   0.726   0.290   1.886 -0.1905  0.0548 -0.3726
 3219TIP3    H1 9663   0.696   0.204   1.916 -0.9168  0.8258  1.3041
 3219TIP3    H2 9664   0.789   0.317   1.952  0.7087  0.4491 -1.3711
 3220TIP3   OH2 9665   1.342   2.781   3.442  0.4737  0.8009 -0.0107
 3220TIP3    H1 9666   1.307   2.695   3.464  1.6317  0.3640  0.2153
 3220TIP3    H2 9667   1.304   2.802   3.357 -2.6405  1.6893  1.4571
 3221TIP3   OH2 9668   5.236   5.220   1.234  0.2666 -0.2029  0.0863
 3221TIP3    H1 9669   5.269   5.177   1.155  1.4183  0.0145  0.4307
 3221TIP3    H2 9670   5.271   5.167   1.306  0.7850  0.6516  0.4823
 3222TIP3   OH2 9671   0.967   5.228   0.384 -0.6975  0.1045 -0.7069
 3222TIP3    H1 9672   0.905   5.187   0.324 -0.6917  2.3901 -2.3947
 3222TIP3    H2 9673   1.044   5.171   0.382 -0.1379  0.7570 -4.0829
 3223TIP3   OH2 9674   4.366   0.629   2.278  0.7164  0.1648 -0.1346
 3223TIP3    H1 9675   4.430   0.686   2.236  0.2176 -0.4206 -1.7557
 3223TIP3    H2 9676   4.309   0.689   2.327 -0.0775  1.1619 -2.1658
 3224TIP3   OH2 9677   5.121   4.378   3.072 -0.4751 -0.5894  0.0653
 3224TIP3    H1 9678   5.153   4.400   3.160 -1.1180 -0.6745  0.3320
 3224TIP3    H2 9679   5.199   4.351   3.024  0.0698  0.5720  0.2543
 3225TIP3   OH2 9680   0.159   0.117   0.273  0.0900 -0.1374 -0.4415
 3225TIP3    H1 9681   0.134   0.060   0.345 -0.9613  1.1923  0.2987
 3225TIP3    H2 9682   0.171   0.058   0.198 -4.5974 -1.1295 -0.7344
 3226TIP3   OH2 9683   5.616   2.213   2.272 -0.6848  0.1596  0.0378
 3226TIP3    H1 9684   5.670   2.291   2.287 -0.6511  0.0766  0.3556
 3226TIP3    H2 9685   5.599   2.179   2.360  1.8574 -1.9624 -0.1782
 3227TIP3   OH2 9686   2.210   2.450   4.593  0.0004  0.3469  0.2476
 3227TIP3    H1 9687   2.149   2.376   4.598 -0.6351  0.8812  0.6654
 3227TIP3    H2 9688   2.167   2.519   4.644 -0.5318  1.7708 -1.9841
 3228TIP3   OH2 9689   2.521   2.823   4.634  0.0278 -0.3247  0.0090
 3228TIP3    H1 9690   2.610   2.844   4.606 -0.1567  0.5847  0.0950
 3228TIP3    H2 9691   2.470   2.818   4.553  0.3172 -1.7367 -0.1228
 3229TIP3   OH2 9692   4.496   2.970   1.825 -0.4382 -0.1252  0.2849
 3229TIP3    H1 9693   4.582   2.942   1.794  0.0628  0.6266  0.9460
 3229TIP3    H2 9694   4.448   2.993   1.746  0.3248  0.4238 -0.0245
 3230TIP3   OH2 9695   2.059   2.253   1.936  0.1355  0.0587 -0.5289
 3230TIP3    H1 9696   2.071   2.158   1.928  0.4387  0.1007 -0.6160
 3230TIP3    H2 9697   2.122   2.290   1.874 -1.7983  0.2779 -2.5010
 3231TIP3   OH2 9698   4.866   5.890   4.275 -0.4109 -0.1940 -0.0391
 3231TIP3    H1 9699   4.909   5.941   4.344  1.5832 -1.7549 -0.0396
 3231TIP3    H2 9700   4.907   5.920   4.194 -1.0599 -0.0204 -0.3078
 3232TIP3   OH2 9701   5.381   1.031   0.285 -0.9488  0.3010 -0.2458
 3232TIP3    H1 9702   5.378   1.018   0.380 -2.4424  1.7792 -0.0500
 3232TIP3    H2 9703   5.291   1.049   0.260 -0.7562 -1.0735 -2.1438
 3233TIP3   OH2 9704   0.106   2.334   0.232  0.7742  0.1213  0.1084
 3233TIP3    H1 9705   0.132   2.242   0.233  1.4744  0.3015 -0.3615
 3233TIP3    H2 9706   0.108   2.361   0.324  0.6424 -0.3097  0.2374
 3234TIP3   OH2 9707   0.152   5.902   1.123  0.5167 -0.2290 -0.1715
 3234TIP3    H1 9708   0.114   5.869   1.042 -0.6005  0.0567  0.2165
 3234TIP3    H2 9709   0.227   5.955   1.095 -0.6234  0.9499 -1.1240
 3235TIP3   OH2 9710   4.751   2.690   0.415 -0.4708  0.6794  0.0902
 3235TIP3    H1 9711   4.828   2.648   0.378 -2.0221 -1.6455 -0.7342
 3235TIP3    H2 9712   4.760   2.680   0.509  0.2289  0.4414 -0.0010
 3236TIP3   OH2 9713   2.368   1.767   0.143 -0.0173 -0.2306  0.2070
 3236TIP3    H1 9714   2.295   1.768   0.205  0.6738  0.4059  1.0372
 3236TIP3    H2 9715   2.406   1.855   0.149  1.3380 -0.8056  0.4435
 3237TIP3   OH2 9716   3.265   5.128   0.491 -0.5979  0.0327  0.1008
 3237TIP3    H1 9717   3.350   5.169   0.475 -0.4614  0.0932  0.9454
 3237TIP3    H2 9718   3.253   5.068   0.418  0.6166 -0.6884  0.4671
 3238TIP3   OH2 9719   5.749   5.656   2.827  0.8551 -0.6009  0.1702
 3238TIP3    H1 9720   5.748   5.714   2.752 -0.3620 -2.0132 -0.9791
 3238TIP3    H2 9721   5.820   5.594   2.809  0.3925 -1.0994  0.0474
 3239TIP3   OH2 9722   1.474   5.065   2.275  0.6203  0.4500  0.4787
 3239TIP3    H1 9723   1.472   5.075   2.180  0.8946  2.4196  0.6458
 3239TIP3    H2 9724   1.543   5.124   2.304  0.6245 -0.2183  1.9040
 3240TIP3   OH2 9725   3.758   4.986   2.765  0.0252  0.7998 -0.0062
 3240TIP3    H1 9726   3.686   4.923   2.756  0.3951  0.4938 -1.0542
 3240TIP3    H2 9727   3.716   5.068   2.788 -0.6227  0.5114 -0.1437
 3241TIP3   OH2 9728   1.586   4.188   2.588  1.0438 -0.7121 -0.1596
 3241TIP3    H1 9729   1.561   4.117   2.646 -0.7472 -1.5166 -1.8075
 3241TIP3    H2 9730   1.611   4.259   2.647  0.2794 -1.8093  1.5697
 3242TIP3   OH2 9731   1.135   2.935   2.852 -0.9573  0.8537  0.0631
 3242TIP3    H1 9732   1.101   2.899   2.771 -0.4911 -1.6756  0.8819
 3242TIP3    H2 9733   1.219   2.892   2.864 -0.7777  1.5518  1.6389
 3243TIP3   OH2 9734   2.197   0.641   4.943  0.0871  0.1608  0.2840
 3243TIP3    H1 9735   2.276   0.588   4.958 -0.0497 -0.0595  0.2342
 3243TIP3    H2 9736   2.202   0.666   4.851  0.2233  0.3526  0.3426
 3244TIP3   OH2 9737   1.561   5.426   3.106 -0.0493 -0.4923 -0.0915
 3244TIP3    H1 9738   1.626   5.413   3.175  0.2393  0.2346 -0.2161
 3244TIP3    H2 9739   1.495   5.358   3.122  0.4502 -0.8751  0.3768
 3245TIP3   OH2 9740  -0.016   0.612   3.750  0.6671 -0.5578 -0.0294
 3245TIP3    H1 9741   0.035   0.538   3.718 -1.7641 -1.5190 -2.0841
 3245TIP3    H2 9742   0.010   0.685   3.694  0.8881 -0.6554 -0.0542
 3246TIP3   OH2 9743   1.107   2.243   3.933 -0.0238 -0.4294  0.0426
 3246TIP3    H1 9744   1.118   2.271   4.024 -1.1688  0.5521 -0.0954
 3246TIP3    H2 9745   1.194   2.251   3.894 -0.0249  1.7220  0.3676
 3247TIP3   OH2 9746   4.798   2.325   4.028  0.5398 -0.1753  0.6607
 3247TIP3    H1 9747   4.811   2.231   4.019 -0.9020 -0.3986  0.7006
 3247TIP3    H2 9748   4.706   2.335   4.052  0.8718  1.1954  1.5499
 3248TIP3   OH2 9749   0.244   4.417   1.001  0.2215  0.4974  0.4994
 3248TIP3    H1 9750   0.288   4.378   1.077  1.0667 -1.2670 -0.8223
 3248TIP3    H2 9751   0.311   4.421   0.933 -1.5900 -2.9777 -1.8436
 3249TIP3   OH2 9752   4.286   1.451   0.639  0.1652 -0.2248  0.2209
 3249TIP3    H1 9753   4.356   1.474   0.578  0.2611  1.7830  1.0103
 3249TIP3    H2 9754   4.327   1.457   0.725 -0.9565  1.0009  0.6973
 3250TIP3   OH2 9755   6.075   2.249   2.065  0.4703  0.1671 -0.4927
 3250TIP3    H1 9756   6.141   2.190   2.028  3.1018  2.3412  0.4246
 3250TIP3    H2 9757   6.027   2.195   2.128  2.1217 -1.2354 -0.3756
 3251TIP3   OH2 9758   3.605   5.194   2.989  0.0161 -0.4869  0.2113
 3251TIP3    H1 9759   3.580   5.269   3.044 -1.6118 -0.0506 -1.0456
 3251TIP3    H2 9760   3.651   5.233   2.915 -2.3819 -0.4435 -1.3650
 3252TIP3   OH2 9761   4.729   1.153   0.484  0.3481 -0.0448 -0.0650
 3252TIP3    H1 9762   4.706   1.118   0.398  1.7309  1.2466 -1.0214
 3252TIP3    H2 9763   4.692   1.241   0.484  0.7711  0.1364  0.4662
 3253TIP3   OH2 9764   3.070   0.586   4.312 -0.0459  0.0566  0.1590
 3253TIP3    H1 9765   3.144   0.571   4.371 -0.8024 -2.3966  0.6074
 3253TIP3    H2 9766   2.992   0.567   4.365 -0.7757 -1.6920 -1.4220
 3254TIP3   OH2 9767   1.939   2.888   0.975  0.9068  0.4565  0.0242
 3254TIP3    H1 9768   1.967   2.980   0.979 -2.2939  1.5492 -0.0736
 3254TIP3    H2 9769   1.934   2.861   1.067 -0.6941  1.3174  0.2332
 3255TIP3   OH2 9770   1.842   5.033   3.427  0.7819  0.0200 -0.0649
 3255TIP3    H1 9771   1.910   5.099   3.410 -0.2922  1.5514  1.2779
 3255TIP3    H2 9772   1.800   5.062   3.508 -0.8267 -1.4416 -0.3133
 3256TIP3   OH2 9773   1.394   2.688   4.869 -0.0860  0.7081  0.2287
 3256TIP3    H1 9774   1.388   2.593   4.885 -0.4170  0.6455 -0.2480
 3256TIP3    H2 9775   1.453   2.720   4.937  1.3621 -0.0995 -0.5838
 3257TIP3   OH2 9776   5.512   4.665   0.385  0.1723  0.5859  0.0092
 3257TIP3    H1 9777   5.503   4.637   0.294 -0.5235  3.3945 -0.8828
 3257TIP3    H2 9778   5.425   4.651   0.424  0.2105  0.2648 -0.0174
 3258TIP3   OH2 9779   2.119   2.698   0.031  0.0413  0.1183  0.0590
 3258TIP3    H1 9780   2.131   2.762   0.101 -1.6190  2.6992 -1.8110
 3258TIP3    H2 9781   2.091   2.750  -0.044 -3.9621 -2.9887 -0.9985
 3259TIP3   OH2 9782   0.856   3.347   3.017  0.2590 -0.0090 -0.3736
 3259TIP3    H1 9783   0.886   3.259   2.995  1.4780  0.5169 -0.8637
 3259TIP3    H2 9784   0.760   3.340   3.018  0.3451 -1.3509 -0.3109
 3260TIP3   OH2 9785   0.263   0.336   4.744  0.3362  0.3095 -0.5205
 3260TIP3    H1 9786   0.346   0.322   4.697  0.4730  1.3186 -0.6126
 3260TIP3    H2 9787   0.287   0.395   4.816 -0.0685 -0.4122  0.2201
 3261TIP3   OH2 9788   5.522   4.841   1.036 -0.0111  0.5239 -0.8137
 3261TIP3    H1 9789   5.442   4.801   1.069 -0.3510  0.7929 -1.2895
 3261TIP3    H2 9790   5.576   4.767   1.009 -1.3067  0.3479 -3.2421
 3262TIP3   OH2 9791   4.657   0.733   4.650 -0.2917  0.2416  0.0457
 3262TIP3    H1 9792   4.618   0.648   4.630  1.5336 -0.3719 -1.1019
 3262TIP3    H2 9793   4.629   0.790   4.579  0.6869 -0.1429 -0.6643
 3263TIP3   OH2 9794   2.086   1.942   2.549 -0.3764  0.1419 -0.0859
 3263TIP3    H1 9795   2.120   1.854   2.562 -1.1980  0.0272  1.5113
 3263TIP3    H2 9796   2.035   1.960   2.628 -1.5379  1.4434 -1.0878
 3264TIP3   OH2 9797   5.958   5.497   2.746  0.0810 -0.0729  0.0960
 3264TIP3    H1 9798   6.016   5.456   2.809 -0.6938 -0.0513  0.8364
 3264TIP3    H2 9799   5.892   5.430   2.727 -0.7043  0.5127  0.6658
 3265TIP3   OH2 9800   2.793   0.143   0.412 -0.4125 -0.1768 -0.4074
 3265TIP3    H1 9801   2.712   0.095   0.396  0.1434 -1.2426 -0.1530
 3265TIP3    H2 9802   2.843   0.134   0.331  0.5229 -1.7524  0.3057
 3266TIP3   OH2 9803   4.938   5.616   3.038 -0.3052  0.1492 -0.1234
 3266TIP3    H1 9804   5.008   5.576   3.089  0.1701  0.3765 -0.5863
 3266TIP3    H2 9805   4.962   5.708   3.032 -1.1677  0.4347  0.5674
 3267TIP3   OH2 9806   3.347   1.055   2.436 -0.1919 -0.3087  0.6303
 3267TIP3    H1 9807   3.349   1.000   2.515  0.0393 -0.6460  0.3950
 3267TIP3    H2 9808   3.403   1.129   2.458  1.6746 -1.4661  0.0346
 3268TIP3   OH2 9809   5.663   4.481   2.525 -0.6281  0.2289  0.2360
 3268TIP3    H1 9810   5.711   4.415   2.576 -0.5476  0.4237  0.4127
 3268TIP3    H2 9811   5.585   4.434   2.494 -0.0837 -0.2251 -0.4724
 3269TIP3   OH2 9812   6.203   5.611   3.098  0.2245 -0.3978  0.2353
 3269TIP3    H1 9813   6.133   5.548   3.116  0.9321 -1.2038  0.2527
 3269TIP3    H2 9814   6.265   5.598   3.169  0.2693  0.5114  0.3750
 3270TIP3   OH2 9815   5.553   5.889   2.006 -0.1368 -0.0983 -0.1390
 3270TIP3    H1 9816   5.538   5.863   2.097 -1.7393  1.8661  0.2401
 3270TIP3    H2 9817   5.631   5.943   2.009  1.1355 -1.8482 -0.3530
 3271TIP3   OH2 9818   0.227   1.950   3.606  0.6872 -0.3859  0.1405
 3271TIP3    H1 9819   0.320   1.933   3.621  0.7464 -2.0448 -1.7643
 3271TIP3    H2 9820   0.185   1.934   3.691  2.0973  0.3902  1.0253
 3272TIP3   OH2 9821   1.136   3.893   4.261  0.2519 -0.1234 -0.3882
 3272TIP3    H1 9822   1.223   3.888   4.220  0.7241  0.6464  0.4750
 3272TIP3    H2 9823   1.076   3.905   4.188  1.0639  1.0701 -0.8979
 3273TIP3   OH2 9824   6.271   3.954   4.377 -0.0984 -0.0346  0.3474
 3273TIP3    H1 9825   6.306   3.873   4.415  1.0699 -0.0175 -0.6334
 3273TIP3    H2 9826   6.326   4.023   4.414  0.1532  0.1164 -0.3068
 3274TIP3   OH2 9827   4.580   4.198   0.780  0.6305 -0.3286  0.1413
 3274TIP3    H1 9828   4.652   4.219   0.839 -0.5340  0.9771  1.1815
 3274TIP3    H2 9829   4.528   4.278   0.776 -1.3497 -1.5331  0.3022
 3275TIP3   OH2 9830   1.684   1.957   1.435 -0.1173 -0.5858  0.6211
 3275TIP3    H1 9831   1.721   1.874   1.465  1.8331  0.0976  0.2369
 3275TIP3    H2 9832   1.719   2.023   1.495 -1.8346 -0.0317  1.0706
 3276TIP3   OH2 9833   3.130   5.908   2.082  0.1807  0.1008 -0.5197
 3276TIP3    H1 9834   3.097   5.950   2.161 -0.8463  0.9207 -1.3570
 3276TIP3    H2 9835   3.190   5.840   2.114  1.1766  1.5629  0.8926
 3277TIP3   OH2 9836   2.610   0.459   1.100  0.5609 -0.8417 -0.2571
 3277TIP3    H1 9837   2.687   0.482   1.049  1.5685 -0.1916  1.4619
 3277TIP3    H2 9838   2.540   0.515   1.066  1.9532  1.8416  1.0510
 3278TIP3   OH2 9839   0.330   4.462   4.047  0.0579  0.0018  0.3943
 3278TIP3    H1 9840   0.286   4.531   3.998 -1.0296 -0.8833  0.0931
 3278TIP3    H2 9841   0.283   4.457   4.130  1.5242  1.0929  1.3667
 3279TIP3   OH2 9842   2.407   0.793   2.377 -0.0311  0.0203  0.0121
 3279TIP3    H1 9843   2.375   0.770   2.290 -1.6010 -0.2277  0.6208
 3279TIP3    H2 9844   2.351   0.866   2.404  0.8081  0.4566  0.5928
 3280TIP3   OH2 9845   4.658   0.255   1.537  0.0237  0.1719  0.1719
 3280TIP3    H1 9846   4.594   0.325   1.553 -2.8982 -2.3284  0.4752
 3280TIP3    H2 9847   4.650   0.236   1.443  0.9138  0.3272  0.0583
 3281TIP3   OH2 9848   1.521   0.475   3.805 -0.1462  0.3731  0.5366
 3281TIP3    H1 9849   1.441   0.474   3.753 -0.2164 -2.3136  0.5339
 3281TIP3    H2 9850   1.591   0.484   3.740 -0.3246 -1.0457  0.1093
 3282TIP3   OH2 9851   4.853   3.531   4.977  0.2600 -0.3924 -0.5978
 3282TIP3    H1 9852   4.906   3.458   5.007  1.6839  1.2334  1.0766
 3282TIP3    H2 9853   4.766   3.514   5.013  0.6687 -1.0925  0.0904
 3283TIP3   OH2 9854   3.572   2.969   2.385 -0.8004  0.1435  0.0944
 3283TIP3    H1 9855   3.637   2.937   2.447 -0.3937  1.2782  0.2719
 3283TIP3    H2 9856   3.493   2.918   2.405 -0.1318 -0.8769  0.2192
 3284TIP3   OH2 9857   2.609   3.574   0.381 -0.1765  0.1689 -0.3074
 3284TIP3    H1 9858   2.578   3.652   0.336 -0.9572  0.1201  0.1162
 3284TIP3    H2 9859   2.578   3.584   0.471  0.9658  0.0572  0.1225
 3285TIP3   OH2 9860   3.265   3.869   4.766 -0.0679  0.3887  0.0882
 3285TIP3    H1 9861   3.348   3.916   4.767 -0.2166  0.6425  0.4333
 3285TIP3    H2 9862   3.271   3.808   4.839  0.0790 -0.0536 -0.2891
 3286TIP3   OH2 9863   1.679   0.721   5.011  0.0968  0.1340  0.3309
 3286TIP3    H1 9864   1.644   0.658   4.948  0.4578 -1.4506  1.6434
 3286TIP3    H2 9865   1.626   0.707   5.090  0.1331  1.5600  0.6271
 3287TIP3   OH2 9866   0.484   0.040   0.178  0.4006 -0.2050  0.4261
 3287TIP3    H1 9867   0.503   0.108   0.243  0.3868  0.7833 -0.5642
 3287TIP3    H2 9868   0.564  -0.012   0.173  0.7471  0.3027  0.5562
 3288TIP3   OH2 9869   2.347   4.059   2.705  0.7676  0.3706  0.3559
 3288TIP3    H1 9870   2.289   4.049   2.781 -0.8744  1.6058 -0.6585
 3288TIP3    H2 9871   2.294   4.107   2.642  2.4432  0.2428 -1.2019
 3289TIP3   OH2 9872   1.026   2.262   1.260  0.2802 -0.4164 -0.6333
 3289TIP3    H1 9873   0.953   2.200   1.272 -0.0364  0.0637  0.0631
 3289TIP3    H2 9874   0.989   2.332   1.206  0.6249 -0.8109 -1.3849
 3290TIP3   OH2 9875  -0.007   1.028   1.153  0.1409 -0.1769  0.3044
 3290TIP3    H1 9876   0.087   1.030   1.134  0.1543 -1.8631  0.0672
 3290TIP3    H2 9877  -0.047   0.993   1.074 -0.7255  0.6102  0.3654
 3291TIP3   OH2 9878   0.472   5.110   2.711  0.3189  0.2509 -0.1664
 3291TIP3    H1 9879   0.529   5.087   2.637  1.4298  3.2053 -0.3662
 3291TIP3    H2 9880   0.387   5.128   2.671  0.5457  0.4728 -0.5588
 3292TIP3   OH2 9881   4.755   0.976   0.135  0.2491  0.1259  0.4041
 3292TIP3    H1 9882   4.688   1.044   0.145  0.9063  0.9142 -0.3752
 3292TIP3    H2 9883   4.720   0.916   0.069  0.7241  1.1031 -0.7720
 3293TIP3   OH2 9884   5.592   2.143   2.021  0.1380  0.6429  0.7252
 3293TIP3    H1 9885   5.591   2.171   2.112 -1.7749  0.3325  0.8324
 3293TIP3    H2 9886   5.674   2.178   1.986  1.4507 -0.1410  2.8196
 3294TIP3   OH2 9887   6.176   5.102   4.708 -0.1419 -0.4492  0.2095
 3294TIP3    H1 9888   6.121   5.172   4.674 -0.1219 -0.3343  0.4136
 3294TIP3    H2 9889   6.223   5.069   4.632  1.5850  1.2893  0.4468
 3295TIP3   OH2 9890   6.077   4.555   1.104 -0.4024 -0.1051  0.0321
 3295TIP3    H1 9891   6.154   4.590   1.148 -0.1311 -0.3325 -0.2586
 3295TIP3    H2 9892   6.054   4.622   1.039 -0.0819 -0.3134 -0.2980
 3296TIP3   OH2 9893   4.149   2.788   0.390 -0.1733 -0.3958  0.2628
 3296TIP3    H1 9894   4.236   2.751   0.375  0.6881  0.9400  1.6610
 3296TIP3    H2 9895   4.102   2.720   0.438  0.0544 -1.1683 -0.5843
 3297TIP3   OH2 9896   6.012   0.575   0.350  0.8036  0.3212  0.1248
 3297TIP3    H1 9897   6.101   0.582   0.316  0.0138  1.9395 -1.8286
 3297TIP3    H2 9898   5.980   0.492   0.315  1.0016  0.5366 -0.5802
 3298TIP3   OH2 9899   6.111   2.401   1.341 -0.1915  0.0612  0.4199
 3298TIP3    H1 9900   6.067   2.333   1.291 -0.6962  0.3200  0.5127
 3298TIP3    H2 9901   6.203   2.393   1.316 -0.4955  0.4928 -0.9400
 3299TIP3   OH2 9902   5.300   0.457   1.053  0.3278 -0.0960 -0.2315
 3299TIP3    H1 9903   5.224   0.423   1.101  0.2136 -1.7009 -1.4830
 3299TIP3    H2 9904   5.326   0.386   0.995  2.6989  0.4841  0.0072
 3300TIP3   OH2 9905   4.543   5.686   1.415  0.3892  0.3335 -0.4209
 3300TIP3    H1 9906   4.624   5.733   1.434 -1.4505  4.1068 -1.0018
 3300TIP3    H2 9907   4.563   5.633   1.338  2.5621  0.3180  0.0991
 3301TIP3   OH2 9908   0.950   0.596   5.022 -0.0305  0.1838  0.3739
 3301TIP3    H1 9909   0.886   0.553   4.966  1.4373 -1.2027 -0.3207
 3301TIP3    H2 9910   1.026   0.609   4.965  0.7658  0.6131  1.5091
 3302TIP3   OH2 9911   4.834   4.971   4.120 -1.0131 -0.1013 -0.3477
 3302TIP3    H1 9912   4.769   5.026   4.163  0.4119 -0.2748  2.2122
 3302TIP3    H2 9913   4.919   5.004   4.152 -0.0033 -2.0105 -0.8922
 3303TIP3   OH2 9914   4.862   3.844   4.710  0.4177 -0.3980  0.2913
 3303TIP3    H1 9915   4.882   3.807   4.624  2.7641  1.9278 -0.2999
 3303TIP3    H2 9916   4.849   3.937   4.694 -1.0134 -0.1955  2.2399
 3304TIP3   OH2 9917   3.664   0.924   0.355 -0.6521  0.3252  0.6565
 3304TIP3    H1 9918   3.683   0.833   0.334  2.3119  0.6589  1.4995
 3304TIP3    H2 9919   3.592   0.919   0.418 -1.1152 -1.3539  0.0514
 3305TIP3   OH2 9920   2.012   1.791   2.204 -0.2494  1.0420 -0.6652
 3305TIP3    H1 9921   1.933   1.818   2.252 -1.4935 -1.3399 -1.1805
 3305TIP3    H2 9922   1.978   1.752   2.123  1.4947  0.3547 -1.1101
 3306TIP3   OH2 9923   2.225   5.348   3.565 -0.1118 -0.1890  0.0431
 3306TIP3    H1 9924   2.311   5.387   3.545  0.1909 -0.6229  0.5024
 3306TIP3    H2 9925   2.185   5.409   3.626  0.1172 -0.2941  0.2979
 3307TIP3   OH2 9926   1.159   5.620   3.091  0.1435  0.3330  0.4485
 3307TIP3    H1 9927   1.111   5.703   3.090 -1.6107 -0.6382 -0.6089
 3307TIP3    H2 9928   1.092   5.553   3.075  1.7545 -1.1603 -0.3780
 3308TIP3   OH2 9929   3.671   3.224   0.501 -0.0317  0.3078 -0.2999
 3308TIP3    H1 9930   3.763   3.230   0.526 -0.2063  1.0141  0.2014
 3308TIP3    H2 9931   3.644   3.136   0.530  0.6993 -0.2455 -1.2412
 3309TIP3   OH2 9932   1.053   4.162   1.217 -0.0767  0.6379  0.1546
 3309TIP3    H1 9933   1.043   4.243   1.268  1.4879  1.2467 -0.4210
 3309TIP3    H2 9934   0.996   4.099   1.260  0.1086  1.5300  1.7924
 3310TIP3   OH2 9935   0.478   3.175   3.315 -0.3841 -0.0604  0.1994
 3310TIP3    H1 9936   0.537   3.224   3.257  0.0435 -0.4216  0.3251
 3310TIP3    H2 9937   0.468   3.090   3.272 -2.6250  0.7304 -1.0070
 3311TIP3   OH2 9938   2.193   0.292   2.929  0.2717 -0.0578 -0.2113
 3311TIP3    H1 9939   2.157   0.379   2.947  0.7896  0.4909 -1.6483
 3311TIP3    H2 9940   2.274   0.309   2.881  0.3919 -1.3331 -0.4981
 3312TIP3   OH2 9941   2.480   3.334   3.535 -0.3335 -0.5637  0.3538
 3312TIP3    H1 9942   2.443   3.422   3.528 -3.1651 -1.6689  0.0831
 3312TIP3    H2 9943   2.533   3.336   3.615 -1.8973  0.9097  1.4222
 3313TIP3   OH2 9944   4.202   1.023   4.668 -0.1696 -0.1666  0.0721
 3313TIP3    H1 9945   4.139   1.086   4.633 -0.4029 -0.5231 -0.1672
 3313TIP3    H2 9946   4.287   1.067   4.661 -0.4915  0.6878  1.2832
 3314TIP3   OH2 9947   3.324   3.774   0.485  0.1529 -0.2569 -0.5554
 3314TIP3    H1 9948   3.330   3.701   0.423 -0.5783 -0.6593 -0.1685
 3314TIP3    H2 9949   3.239   3.813   0.467 -0.8265 -1.4149  1.2927
 3315TIP3   OH2 9950   5.112   3.485   2.209  0.3375  0.1794 -0.4052
 3315TIP3    H1 9951   5.022   3.470   2.238 -0.3901  2.2046 -1.3958
 3315TIP3    H2 9952   5.148   3.398   2.195 -1.7084 -0.6743 -0.6766
 3316TIP3   OH2 9953   5.401   2.230   5.068  0.4887 -0.0883 -0.1058
 3316TIP3    H1 9954   5.434   2.145   5.038  1.7633  0.1712  0.4798
 3316TIP3    H2 9955   5.307   2.228   5.050  0.1937 -2.2424  1.3433
 3317TIP3   OH2 9956   0.314   0.018   3.246  0.5653 -0.3380  0.3130
 3317TIP3    H1 9957   0.398   0.064   3.251  1.2672 -1.5787  0.2856
 3317TIP3    H2 9958   0.314  -0.039   3.323 -1.6615  1.8921  2.1323
 3318TIP3   OH2 9959   1.842   2.799   4.090 -0.0288 -0.1239  0.8700
 3318TIP3    H1 9960   1.915   2.855   4.062 -1.1918  1.2236  0.4621
 3318TIP3    H2 9961   1.815   2.835   4.175 -0.5453 -0.3175  0.7885
 3319TIP3   OH2 9962   2.945   1.617   5.043 -0.0066 -0.2505 -0.1192
 3319TIP3    H1 9963   3.030   1.647   5.075 -0.7903  2.5560 -0.4147
 3319TIP3    H2 9964   2.955   1.618   4.947 -1.2617  3.5860 -0.3837
 3320TIP3   OH2 9965   2.707   0.217   5.007  0.2152 -0.1670  0.5287
 3320TIP3    H1 9966   2.742   0.305   5.022  1.6642 -0.7021  0.4784
 3320TIP3    H2 9967   2.770   0.177   4.947 -0.9019 -0.9573 -0.1559
 3321TIP3   OH2 9968   3.494   1.317   0.115  0.1321  0.0310 -0.3611
 3321TIP3    H1 9969   3.487   1.221   0.120 -1.6909  0.1322 -0.2168
 3321TIP3    H2 9970   3.418   1.344   0.064  1.1276  1.3598 -1.2038
 3322TIP3   OH2 9971   4.137   4.189   0.141  0.1508 -0.4605  0.3340
 3322TIP3    H1 9972   4.172   4.201   0.229 -1.0866 -0.3889  0.8252
 3322TIP3    H2 9973   4.108   4.098   0.139  1.7529 -1.0020 -0.5983
 3323TIP3   OH2 9974   4.476   2.244   2.195  0.5454 -0.1509  0.0908
 3323TIP3    H1 9975   4.406   2.308   2.182 -0.1356 -0.9642 -0.2466
 3323TIP3    H2 9976   4.528   2.281   2.266  1.1384  1.6142 -1.1859
 3324TIP3   OH2 9977   5.514   4.238   0.025  0.1145 -0.3682  0.1250
 3324TIP3    H1 9978   5.450   4.222   0.096  2.5192  1.3937  2.9154
 3324TIP3    H2 9979   5.584   4.174   0.042 -0.0155 -1.1048 -1.8352
 3325TIP3   OH2 9980   1.098   0.543   3.546  0.4939 -0.1819 -0.0845
 3325TIP3    H1 9981   1.009   0.519   3.520  1.3592 -1.2732 -2.3683
 3325TIP3    H2 9982   1.135   0.582   3.467  2.5834 -1.3843  0.2366
 3326TIP3   OH2 9983   5.539   3.081   1.963  0.0374 -0.2839 -0.5473
 3326TIP3    H1 9984   5.477   3.014   1.992 -0.2172  0.2700  0.2602
 3326TIP3    H2 9985   5.618   3.064   2.015  0.0816 -0.1575 -0.5733
 3327TIP3   OH2 9986   2.051   2.407   3.234  0.0496 -0.2332  0.1594
 3327TIP3    H1 9987   2.035   2.460   3.156  1.7805 -0.0406 -0.0903
 3327TIP3    H2 9988   2.031   2.466   3.307 -0.8769 -0.1889 -0.1162
 3328TIP3   OH2 9989   2.115   1.174   3.944  0.1378 -0.1053 -0.4285
 3328TIP3    H1 9990   2.087   1.215   3.862 -0.8587 -0.9080 -0.5056
 3328TIP3    H2 9991   2.119   1.246   4.007  2.0929  0.7376 -1.4353
 3329TIP3   OH2 9992   5.571   0.025   4.192  0.3010  0.3775 -0.5429
 3329TIP3    H1 9993   5.531   0.064   4.270 -0.8799  0.3336 -1.1065
 3329TIP3    H2 9994   5.506   0.036   4.123  0.2421 -1.8738 -0.9123
 3330TIP3   OH2 9995   4.276   0.641   0.095  0.5226 -0.0909 -0.0977
 3330TIP3    H1 9996   4.221   0.612   0.023  0.9082  0.3401 -0.5669
 3330TIP3    H2 9997   4.364   0.611   0.073  0.8677  1.0860 -0.4160
 3331TIP3   OH2 9998   5.854   3.872   0.844  0.3102 -0.0819 -0.2385
 3331TIP3    H1 9999   5.857   3.899   0.752  0.9493  1.0796  0.1115
 3331TIP3    H210000   5.926   3.919   0.886 -0.7386  0.3744  1.1234
 3332TIP3   OH210001   1.427   2.147   0.562  0.3342  0.0133 -0.1293
 3332TIP3    H110002   1.391   2.061   0.585  0.6735  0.0346  0.5068
 3332TIP3    H210003   1.386   2.168   0.479 -2.2136  0.6605  1.2014
 3333TIP3   OH210004   0.332   4.718   0.892  0.0011 -0.1496 -0.0810
 3333TIP3    H110005   0.289   4.743   0.810  1.2473 -1.5673 -1.2377
 3333TIP3    H210006   0.308   4.787   0.954 -1.1537  0.8601 -1.5757
 3334TIP3   OH210007   1.780   1.888   1.174  0.0752  0.0849 -0.4917
 3334TIP3    H110008   1.753   1.976   1.150  1.5147  0.8303  0.4546
 3334TIP3    H210009   1.725   1.865   1.249  0.3811  0.6148 -0.0949
 3335TIP3   OH210010   1.724   5.156   2.041  0.1892  0.1113 -0.7443
 3335TIP3    H110011   1.737   5.079   2.097  3.7226 -0.0905 -1.5746
 3335TIP3    H210012   1.797   5.153   1.979  0.5267  4.1259 -0.8207
 3336TIP3   OH210013   3.181   5.466   4.457  0.0642  0.2392 -0.0211
 3336TIP3    H110014   3.210   5.463   4.548 -1.6457  1.7946  0.6117
 3336TIP3    H210015   3.161   5.558   4.440 -0.3897 -0.1349 -1.7448
 3337TIP3   OH210016   0.375   1.678   3.013  0.1999 -0.4615 -0.2372
 3337TIP3    H110017   0.399   1.612   2.948  0.4610  0.0688 -0.6880
 3337TIP3    H210018   0.459   1.718   3.038  0.1181 -0.7674  0.5459
 3338TIP3   OH210019   4.957   0.165   1.136 -0.4434  0.0949 -0.1081
 3338TIP3    H110020   5.019   0.198   1.200  0.2844 -0.5516 -0.4590
 3338TIP3    H210021   4.917   0.089   1.179 -0.9681  0.4940  0.1070
 3339TIP3   OH210022   3.383   0.840   1.254 -0.1137  0.0055 -0.4577
 3339TIP3    H110023   3.396   0.785   1.330 -0.1914 -0.3665 -0.7118
 3339TIP3    H210024   3.305   0.805   1.211  1.6724 -1.8185 -2.4566
 3340TIP3   OH210025   2.987   3.054   0.787  0.2787 -0.6220 -0.3155
 3340TIP3    H110026   2.936   3.051   0.867  0.5799  2.5373  0.1277
 3340TIP3    H210027   2.922   3.050   0.717 -0.3223  0.2763  0.1740
 3341TIP3   OH210028   5.428   4.838   0.774 -0.0732  0.1913  0.2951
 3341TIP3    H110029   5.473   4.865   0.854 -1.8399 -0.4758  1.5759
 3341TIP3    H210030   5.410   4.745   0.788 -0.8440  0.1917 -0.6717
 3342TIP3   OH210031   0.507   1.437   2.961 -0.0827  0.0258 -0.3230
 3342TIP3    H110032   0.500   1.385   2.882 -2.0819  0.2540 -0.3374
 3342TIP3    H210033   0.578   1.396   3.011  0.1951 -1.0195 -1.5349
 3343TIP3   OH210034   1.622   5.511   2.295  0.2999 -0.2497  0.0192
 3343TIP3    H110035   1.634   5.595   2.340  1.0063 -1.1267  1.5413
 3343TIP3    H210036   1.528   5.497   2.293  0.0295  1.3942 -1.8756
 3344TIP3   OH210037   3.048   2.071   3.706  0.1144 -0.7304  0.1800
 3344TIP3    H110038   3.090   2.095   3.788 -0.5391  0.8031  0.0947
 3344TIP3    H210039   3.113   2.090   3.639  0.5302 -1.6752  0.3068
 3345TIP3   OH210040   2.722   3.484   1.163  0.6176  0.1460 -0.2191
 3345TIP3    H110041   2.806   3.528   1.152  0.6989  0.6559  1.9028
 3345TIP3    H210042   2.742   3.406   1.214 -0.3153  1.0311  1.6074
 3346TIP3   OH210043   2.166   0.167   5.176 -0.0449 -0.2660  0.2208
 3346TIP3    H110044   2.090   0.124   5.215 -0.9344  0.5339 -0.5753
 3346TIP3    H210045   2.209   0.098   5.125  0.3404 -0.9666  1.4563
 3347TIP3   OH210046   5.223   3.901   4.040 -0.4031 -0.3339 -0.2017
 3347TIP3    H110047   5.162   3.973   4.025  0.9313  1.1613  1.1555
 3347TIP3    H210048   5.220   3.885   4.134 -0.4294 -1.8765 -0.4311
 3348TIP3   OH210049   5.940   0.139   3.000  0.6681 -0.3381  0.0543
 3348TIP3    H110050   5.974   0.102   2.919  1.1229 -0.3270  0.2359
 3348TIP3    H210051   6.014   0.187   3.037 -0.0738  1.2629 -0.4621
 3349TIP3   OH210052   4.668   0.164   0.997 -0.0370 -0.1439 -0.3853
 3349TIP3    H110053   4.650   0.168   1.091 -1.4262 -0.5170 -0.6123
 3349TIP3    H210054   4.695   0.073   0.982  1.0734  0.1435 -0.2198
 3350TIP3   OH210055   0.321   3.048   2.288  0.1489 -0.3868  0.3118
 3350TIP3    H110056   0.398   3.043   2.345  0.6619 -1.6115 -0.4299
 3350TIP3    H210057   0.250   3.077   2.345  0.9094 -0.3906  1.2836
 3351TIP3   OH210058   5.574   4.307   4.470 -0.0113  0.7176 -0.9829
 3351TIP3    H110059   5.547   4.275   4.556 -0.1816 -0.6864 -1.5394
 3351TIP3    H210060   5.494   4.346   4.433 -0.2133  0.3595 -0.9311
 3352TIP3   OH210061   2.163   4.615   4.503 -0.5234 -0.4041 -0.0902
 3352TIP3    H110062   2.258   4.610   4.487  0.0238  1.8314  1.9173
 3352TIP3    H210063   2.131   4.677   4.438  0.4002  2.8754  2.3476
 3353TIP3   OH210064   1.841   1.658   1.046 -0.4089 -0.4953  0.3670
 3353TIP3    H110065   1.756   1.623   1.018 -0.4349 -0.2825  0.1695
 3353TIP3    H210066   1.818   1.735   1.098 -0.3151  0.1413 -0.5174
 3354TIP3   OH210067   1.187   2.182   1.468 -0.6001 -0.5143 -0.3163
 3354TIP3    H110068   1.124   2.144   1.529  0.4539 -3.9635 -1.1797
 3354TIP3    H210069   1.133   2.227   1.403 -1.9069 -0.1405  0.9694
 3355TIP3   OH210070   4.994   2.987   4.198  0.0246 -0.2735  0.2636
 3355TIP3    H110071   5.062   2.942   4.148  0.6195  1.6261 -0.7566
 3355TIP3    H210072   4.913   2.965   4.154  0.5476  1.4169 -1.6807
 3356TIP3   OH210073   5.494   5.298   0.144  0.2019  0.2656  0.2418
 3356TIP3    H110074   5.439   5.351   0.087  0.5010 -1.3995 -1.6937
 3356TIP3    H210075   5.583   5.318   0.117  0.4321  0.5270  1.1475
 3357TIP3   OH210076   5.569   1.428   1.163 -0.1200  1.3813 -0.1765
 3357TIP3    H110077   5.513   1.360   1.201 -0.4259  2.2282  0.9599
 3357TIP3    H210078   5.657   1.408   1.197  0.1507  0.5350 -1.2966
 3358TIP3   OH210079   3.191   5.796   4.272  0.2830 -0.0411  0.2282
 3358TIP3    H110080   3.231   5.752   4.197 -0.0543  0.3375 -0.1755
 3358TIP3    H210081   3.133   5.862   4.234 -0.2498 -0.1585  0.8118
 3359TIP3   OH210082   3.606   4.023   1.851 -0.3414 -0.1300 -0.2392
 3359TIP3    H110083   3.534   3.973   1.888 -0.1716 -0.4547 -0.3440
 3359TIP3    H210084   3.684   3.972   1.872 -0.0072  0.7965  0.9065
 3360TIP3   OH210085   5.184   2.989   4.601 -0.1652 -0.0503  0.2710
 3360TIP3    H110086   5.184   3.033   4.516 -0.6511  1.1205  0.8501
 3360TIP3    H210087   5.115   2.924   4.594  2.5102 -2.9614 -1.6422
 3361TIP3   OH210088   0.245   2.046   3.302  0.2310 -0.8596  0.4260
 3361TIP3    H110089   0.175   2.047   3.236 -0.2901 -0.6706  0.9789
 3361TIP3    H210090   0.229   1.966   3.352  0.0425 -0.4997  0.9450
 3362TIP3   OH210091   0.386   1.401   0.809  0.2590  0.2245 -0.0595
 3362TIP3    H110092   0.432   1.370   0.731 -1.0116 -0.4636 -0.5549
 3362TIP3    H210093   0.315   1.455   0.776 -0.2766 -0.0549  0.6221
 3363TIP3   OH210094   3.023   0.048   4.249 -0.3128  0.0628 -0.0487
 3363TIP3    H110095   3.081   0.114   4.287 -0.5368  0.5598 -0.5602
 3363TIP3    H210096   2.938   0.065   4.288 -0.4607  0.3380 -0.4863
 3364TIP3   OH210097   2.515   2.388   2.999  0.2087  0.0852 -0.1697
 3364TIP3    H110098   2.529   2.413   2.908 -1.2238 -1.2151 -0.7967
 3364TIP3    H210099   2.452   2.452   3.032 -1.8479 -1.3027 -1.1504
 3365TIP3   OH210100   3.276   3.862   0.985  0.1153 -0.3444 -0.0925
 3365TIP3    H110101   3.359   3.905   1.006 -0.0721  0.2191 -0.4832
 3365TIP3    H210102   3.231   3.853   1.069  0.6816 -0.9028  0.1634
 3366TIP3   OH210103   2.425   5.561   2.696  0.0074  0.1915  0.8441
 3366TIP3    H110104   2.423   5.630   2.629 -0.1347  0.5398  1.2064
 3366TIP3    H210105   2.376   5.597   2.769 -1.2769 -0.8241  0.5356
 3367TIP3   OH210106   2.997   4.686   4.579  0.0316  0.1178  0.1281
 3367TIP3    H110107   2.958   4.682   4.666 -0.6773 -0.8727 -0.2261
 3367TIP3    H210108   2.970   4.771   4.544 -1.3943 -0.3231  0.0971
 3368TIP3   OH210109   5.467   0.489   2.607 -0.4080  0.0751  0.0154
 3368TIP3    H110110   5.488   0.444   2.526 -1.3692 -2.3258  1.0224
 3368TIP3    H210111   5.471   0.422   2.675 -2.3969  1.3650  1.5446
 3369TIP3   OH210112   4.057   4.979   0.808  0.4238 -0.3154  0.2700
 3369TIP3    H110113   4.103   4.907   0.850  1.1674  0.0419  0.0777
 3369TIP3    H210114   3.967   4.973   0.842  0.2525 -1.8219 -0.3968
 3370TIP3   OH210115   2.086   1.660   3.743  0.2896 -0.4449  0.0839
 3370TIP3    H110116   2.175   1.671   3.708  0.3801  2.2634  0.9552
 3370TIP3    H210117   2.030   1.660   3.665  0.9195 -0.7251 -0.3799
 3371TIP3   OH210118   1.897   0.961   0.415 -0.1437 -0.0078 -0.0137
 3371TIP3    H110119   1.986   0.988   0.391  0.4389 -0.9814  0.9216
 3371TIP3    H210120   1.896   0.867   0.396 -0.6917 -0.1652  0.7535
 3372TIP3   OH210121   3.863   2.778   3.288 -0.1815 -0.1261 -0.2396
 3372TIP3    H110122   3.878   2.723   3.365  0.6212 -0.9592 -0.9583
 3372TIP3    H210123   3.891   2.865   3.315 -0.7560 -0.2181  0.6921
 3373TIP3   OH210124   1.709   2.618   3.455  0.0229 -0.5713 -0.2120
 3373TIP3    H110125   1.714   2.706   3.494  1.6074 -0.7519  0.0384
 3373TIP3    H210126   1.652   2.629   3.379  0.7387  0.8192 -0.5710
 3374TIP3   OH210127   5.079   0.840   1.164 -0.6633 -0.6445  0.0282
 3374TIP3    H110128   5.110   0.763   1.116 -0.0697  0.6249 -1.7413
 3374TIP3    H210129   5.085   0.816   1.256 -0.7814 -2.8063 -0.4785
 3375TIP3   OH210130   2.920   2.426   1.615 -0.0867 -0.3349  0.1052
 3375TIP3    H110131   2.929   2.494   1.548 -0.8580 -0.1952  0.1291
 3375TIP3    H210132   3.002   2.430   1.665  0.5112 -0.4709 -0.8485
 3376TIP3   OH210133   4.400   3.840   1.044  0.3343  0.6657  0.7925
 3376TIP3    H110134   4.478   3.792   1.072  1.0973  0.1322 -1.9451
 3376TIP3    H210135   4.327   3.781   1.063  1.1404 -1.1245 -1.3070
 3377TIP3   OH210136   0.850   5.817   5.050 -0.3597  0.4535 -0.6219
 3377TIP3    H110137   0.937   5.803   5.012  2.3262  2.3582  3.9565
 3377TIP3    H210138   0.819   5.729   5.072  2.1079 -0.1867  0.6800
 3378TIP3   OH210139   2.715   0.229   1.762 -0.7613 -0.5917  0.3229
 3378TIP3    H110140   2.803   0.246   1.794 -0.1304  2.2573 -2.4917
 3378TIP3    H210141   2.658   0.275   1.824  0.0884  0.9978 -0.0117
 3379TIP3   OH210142   3.297   1.197   0.717 -0.2405  0.1690 -0.0833
 3379TIP3    H110143   3.328   1.220   0.630  0.0763  0.4971  0.1153
 3379TIP3    H210144   3.202   1.203   0.711 -0.2360 -0.1544 -0.5007
 3380TIP3   OH210145   1.568   2.953   0.767  0.6986 -0.6975 -0.4923
 3380TIP3    H110146   1.612   2.961   0.852 -0.2844 -1.8274  0.1590
 3380TIP3    H210147   1.633   2.983   0.704  1.5485 -0.0776  0.6301
 3381TIP3   OH210148   5.562   2.859   1.171 -1.0239  0.7533  0.4056
 3381TIP3    H110149   5.488   2.859   1.110 -1.4429  1.0362  0.9038
 3381TIP3    H210150   5.611   2.937   1.147 -0.4803  0.1806 -0.3962
 3382TIP3   OH210151   1.234   0.354   4.967 -0.1064 -0.5993  0.1557
 3382TIP3    H110152   1.314   0.346   5.019 -0.2833 -0.5138  0.4430
 3382TIP3    H210153   1.230   0.447   4.943 -0.2284 -0.5642  0.3141
 3383TIP3   OH210154   1.672   1.144   4.781 -0.6057 -0.2350 -0.0737
 3383TIP3    H110155   1.593   1.102   4.816 -1.7868 -0.8955 -3.1621
 3383TIP3    H210156   1.675   1.229   4.825 -1.2415 -1.4091  2.3864
 3384TIP3   OH210157   1.677   1.363   1.185 -0.8504 -0.1021 -0.0749
 3384TIP3    H110158   1.641   1.317   1.261  0.6397  0.0056  0.7491
 3384TIP3    H210159   1.617   1.343   1.113 -1.0270 -2.1431  0.5795
 3385TIP3   OH210160   0.939   5.173   2.889 -0.1809  0.0449 -0.2815
 3385TIP3    H110161   0.948   5.102   2.825 -2.3238 -0.5341 -0.0294
 3385TIP3    H210162   0.928   5.252   2.837 -0.0748 -0.1454 -0.5935
 3386TIP3   OH210163   4.608   5.450   4.047 -0.2693 -0.5661 -0.1312
 3386TIP3    H110164   4.701   5.472   4.052 -0.9241  2.3357  1.0383
 3386TIP3    H210165   4.590   5.404   4.129 -0.2674  0.8052  0.6663
 3387TIP3   OH210166   5.274   3.746   1.632 -0.5246 -0.3272  0.4341
 3387TIP3    H110167   5.361   3.746   1.592 -0.2194  1.7379  0.9868
 3387TIP3    H210168   5.222   3.689   1.576  0.9168 -0.7988 -0.4851
 3388TIP3   OH210169   3.714   1.920   1.514 -0.4475  0.1114 -0.2524
 3388TIP3    H110170   3.807   1.908   1.534 -0.2009  0.1908 -1.3196
 3388TIP3    H210171   3.696   1.853   1.448 -1.0724  0.3076 -0.2781
 3389TIP3   OH210172   1.151   3.221   0.498 -0.1039 -0.0466 -0.2404
 3389TIP3    H110173   1.120   3.308   0.525  0.7482  0.2272 -0.1321
 3389TIP3    H210174   1.240   3.215   0.533 -0.3344 -1.1722  0.1957
 3390TIP3   OH210175   3.395   3.012   3.511 -0.1295  0.1107  0.7774
 3390TIP3    H110176   3.476   2.963   3.521  0.5817  1.1863  0.4316
 3390TIP3    H210177   3.386   3.025   3.417  0.5976  2.1026  0.9564
 3391TIP3   OH210178   3.276   4.834   1.126  0.1098  0.3006  0.2577
 3391TIP3    H110179   3.358   4.788   1.142 -0.1611 -2.1830 -4.0582
 3391TIP3    H210180   3.299   4.906   1.068 -0.7305 -0.8558 -1.5958
 3392TIP3   OH210181   1.735   2.118   0.772  0.2796  0.2607  0.1145
 3392TIP3    H110182   1.715   2.167   0.692  0.0928 -1.1656 -0.7615
 3392TIP3    H210183   1.830   2.119   0.778  0.2793  0.7053  0.1055
 3393TIP3   OH210184   0.260   5.792   4.318  0.0110  0.1860  0.0660
 3393TIP3    H110185   0.207   5.713   4.333 -0.9171  0.6434 -0.7016
 3393TIP3    H210186   0.331   5.762   4.262 -0.0365 -0.2074  0.2077
 3394TIP3   OH210187   2.171   3.913   3.318  0.3447  0.4682  0.0276
 3394TIP3    H110188   2.104   3.977   3.294  0.1374  0.4065  0.4399
 3394TIP3    H210189   2.247   3.966   3.342 -0.1111  0.6087  1.2478
 3395TIP3   OH210190   1.416   0.754   0.269  0.6597  0.5599 -0.5351
 3395TIP3    H110191   1.456   0.836   0.240  0.1651  0.7779 -0.5983
 3395TIP3    H210192   1.391   0.710   0.188 -0.0963  0.8573 -0.4657
 3396TIP3   OH210193   5.116   4.960   0.957  0.1056 -0.0460  0.1822
 3396TIP3    H110194   5.064   4.993   1.030 -0.2140 -0.2681  0.0596
 3396TIP3    H210195   5.162   4.884   0.992  0.9705  0.6220  0.5106
 3397TIP3   OH210196   1.477   1.965   2.818  0.0474 -0.6725  0.1326
 3397TIP3    H110197   1.450   2.032   2.881  1.3424  0.0120 -0.0006
 3397TIP3    H210198   1.548   1.919   2.861 -1.6367 -2.8629  0.7401
 3398TIP3   OH210199   2.678   1.915   1.276 -0.2832  0.1895  0.2609
 3398TIP3    H110200   2.769   1.946   1.276  0.0880 -0.8275 -0.1271
 3398TIP3    H210201   2.627   1.990   1.246  0.1387  1.4793  2.5156
 3399TIP3   OH210202   1.137   3.587   5.120 -0.3194 -0.5867 -0.9644
 3399TIP3    H110203   1.130   3.682   5.117  2.5837 -0.2056  0.5364
 3399TIP3    H210204   1.218   3.570   5.168 -2.0280 -3.8739  1.1375
 3400TIP3   OH210205   5.037   3.283   2.514 -0.3528  0.0199  0.8304
 3400TIP3    H110206   5.112   3.223   2.522 -0.5956 -0.4400 -0.2709
 3400TIP3    H210207   5.063   3.359   2.566  0.3116 -0.6902  1.5701
 3401TIP3   OH210208   0.238   3.331   4.723  0.3346 -0.1521  0.6320
 3401TIP3    H110209   0.299   3.385   4.773  2.5302 -0.3257 -1.6844
 3401TIP3    H210210   0.269   3.241   4.737 -0.1171 -0.3531  0.3704
 3402TIP3   OH210211   4.177   5.821   4.957 -0.0458 -0.8151  0.5423
 3402TIP3    H110212   4.096   5.809   4.907 -0.1069  0.5182  0.2844
 3402TIP3    H210213   4.225   5.887   4.908  1.2619 -1.6808  0.6303
 3403TIP3   OH210214   2.462   2.764   4.903 -0.0493  0.2676  0.6233
 3403TIP3    H110215   2.496   2.784   4.816 -0.7240  0.4841  0.4081
 3403TIP3    H210216   2.535   2.785   4.962 -0.3789  2.5351  0.3383
 3404TIP3   OH210217   0.403   0.219   2.011  0.4786  0.8615  0.5255
 3404TIP3    H110218   0.400   0.236   2.105  2.0344  1.3761  0.4950
 3404TIP3    H210219   0.425   0.303   1.972  0.8950  0.4157 -0.2148
 3405TIP3   OH210220   1.476   4.861   4.893  0.4296  0.0947  0.1775
 3405TIP3    H110221   1.436   4.850   4.979  1.2514  1.8672  0.8224
 3405TIP3    H210222   1.444   4.786   4.842 -0.0832 -0.9706  1.9944
 3406TIP3   OH210223   0.042   5.835   3.082 -0.4721 -0.3504 -0.4091
 3406TIP3    H110224  -0.032   5.776   3.078 -1.2830  0.6610 -0.7115
 3406TIP3    H210225   0.116   5.779   3.106 -1.6516 -1.0944  1.8372
 3407TIP3   OH210226   1.970   0.473   1.627 -0.2452 -0.4801 -0.0627
 3407TIP3    H110227   2.023   0.550   1.648 -1.2679  0.0523  0.6553
 3407TIP3    H210228   2.027   0.398   1.644  1.2180  0.1017 -2.0400
 3408TIP3   OH210229   2.919   4.259   2.005  0.1061  0.3553  0.4676
 3408TIP3    H110230   2.945   4.213   1.925 -0.1660 -0.0229  0.5956
 3408TIP3    H210231   3.001   4.273   2.052  0.2931  0.7621  0.0276
 3409TIP3   OH210232   0.763   2.302   4.709 -0.0148  0.3829  0.1966
 3409TIP3    H110233   0.677   2.303   4.751  0.6890 -3.1596  2.1345
 3409TIP3    H210234   0.761   2.225   4.653  1.1782  1.5771 -1.5815
 3410TIP3   OH210235   3.083   3.058   4.977  0.6589  0.4755 -0.4543
 3410TIP3    H110236   3.057   3.148   4.956  2.2348  0.9217 -0.6182
 3410TIP3    H210237   3.005   3.005   4.957 -0.2700  1.7863 -0.4048
 3411TIP3   OH210238   4.104   4.101   2.785 -0.1362  0.1513  0.3117
 3411TIP3    H110239   4.078   4.142   2.868  1.4719  0.8139  0.5348
 3411TIP3    H210240   4.187   4.058   2.804  0.7322  1.0670 -1.1276
 3412TIP3   OH210241   5.030   0.177   2.059  0.3163  0.3917  0.2248
 3412TIP3    H110242   4.983   0.246   2.106  1.6140  1.7645 -0.4320
 3412TIP3    H210243   5.075   0.128   2.128 -1.8041 -0.7905  0.8359
 3413TIP3   OH210244   1.097   5.097   4.943 -0.1834  0.2001 -0.3464
 3413TIP3    H110245   1.101   5.001   4.948 -0.3105  0.1585 -1.0272
 3413TIP3    H210246   1.071   5.115   4.853  1.2410  0.9176 -0.6400
 3414TIP3   OH210247   4.399   1.632   4.132 -0.2474  0.0386 -0.2047
 3414TIP3    H110248   4.483   1.611   4.172 -0.2620  1.3837  0.5990
 3414TIP3    H210249   4.408   1.606   4.040  0.2348 -1.9100  0.3461
 3415TIP3   OH210250   2.688   3.320   1.697  0.1314 -0.5948 -0.7553
 3415TIP3    H110251   2.767   3.319   1.750  0.3133  1.4763 -0.8676
 3415TIP3    H210252   2.680   3.412   1.669 -3.1494 -0.3276  0.5597
 3416TIP3   OH210253   5.561   0.172   2.156  0.0653  0.0471 -0.1496
 3416TIP3    H110254   5.488   0.191   2.098 -0.6164  0.3149  0.7607
 3416TIP3    H210255   5.522   0.171   2.244  1.3229  1.2084  0.4587
 3417TIP3   OH210256   3.653   0.780   1.957  0.1085  0.3653  0.1797
 3417TIP3    H110257   3.709   0.731   2.016  0.0840  0.7650  0.5428
 3417TIP3    H210258   3.709   0.800   1.882  0.1738 -0.0468  0.1192
 3418TIP3   OH210259   4.568   5.133   3.183  0.5573  0.5398 -0.8079
 3418TIP3    H110260   4.630   5.179   3.127  0.6455  0.5761 -0.6809
 3418TIP3    H210261   4.556   5.048   3.140  0.3005  0.7251 -1.1069
 3419TIP3   OH210262   4.256   1.903   4.689  0.2120 -0.5713 -0.3346
 3419TIP3    H110263   4.187   1.961   4.657  0.1275 -0.8343 -0.6371
 3419TIP3    H210264   4.213   1.847   4.754  0.4785  0.2441  0.5652
 3420TIP3   OH210265   5.261   3.837   4.337  0.2408 -0.1875 -0.2369
 3420TIP3    H110266   5.291   3.906   4.396 -0.1083 -1.4668  1.5215
 3420TIP3    H210267   5.318   3.763   4.356 -0.2982 -0.8313 -1.0706
 3421TIP3   OH210268   2.834   1.467   4.724  0.5198 -0.1036  0.0691
 3421TIP3    H110269   2.893   1.496   4.655 -0.4501  0.3754 -0.5788
 3421TIP3    H210270   2.778   1.543   4.741 -1.3898 -1.2157 -0.9199
 3422TIP3   OH210271   2.622   2.042   2.120  0.1480  0.1659 -0.7036
 3422TIP3    H110272   2.692   2.104   2.100  0.8812 -1.4184 -3.4435
 3422TIP3    H210273   2.553   2.096   2.159  1.5540  2.3201 -1.0311
 3423TIP3   OH210274   6.238   0.768   4.481  0.2662 -0.3740  0.3512
 3423TIP3    H110275   6.177   0.834   4.512 -0.4905 -0.5166 -0.7754
 3423TIP3    H210276   6.295   0.816   4.420 -0.9022 -0.9243 -1.2257
 3424TIP3   OH210277   1.221   5.341   2.809  0.1346  0.7163  0.2335
 3424TIP3    H110278   1.183   5.349   2.897  1.3958  0.3769  0.8383
 3424TIP3    H210279   1.287   5.410   2.805  0.1264  0.6883 -0.4274
 3425TIP3   OH210280   2.132   0.130   3.144 -0.2472 -0.2591 -0.2331
 3425TIP3    H110281   2.163   0.166   3.061 -0.6050 -0.4497 -0.4537
 3425TIP3    H210282   2.146   0.036   3.136 -1.8600 -0.4922 -0.7851
 3426TIP3   OH210283   1.297   4.356   4.160 -0.0543 -0.1622  0.2166
 3426TIP3    H110284   1.274   4.308   4.240 -0.4213 -0.0814  0.1603
 3426TIP3    H210285   1.352   4.294   4.111  0.5130 -0.0624  0.7129
 3427TIP3   OH210286   2.927   0.568   4.567  0.4847 -0.6962 -0.5498
 3427TIP3    H110287   2.970   0.514   4.633 -0.2296 -0.4589  0.1286
 3427TIP3    H210288   2.894   0.506   4.503 -1.1077 -1.2062  0.6749
 3428TIP3   OH210289   4.069   5.417   3.685  0.1423 -0.2709 -0.2126
 3428TIP3    H110290   4.037   5.418   3.776  0.2058  0.1215 -0.1910
 3428TIP3    H210291   4.013   5.354   3.640 -0.5544  0.2830 -0.1336
 3429TIP3   OH210292   3.611   4.708   2.029  0.2778 -0.2485  0.2633
 3429TIP3    H110293   3.582   4.795   2.004 -0.1839 -0.1943  0.9465
 3429TIP3    H210294   3.531   4.656   2.033  0.5454 -0.6920 -0.0943
 3430TIP3   OH210295   2.209   4.068   0.667 -0.3096 -0.1048 -0.3658
 3430TIP3    H110296   2.271   4.122   0.619  0.1391  0.7148  1.0827
 3430TIP3    H210297   2.128   4.119   0.668 -0.5659 -0.4886 -0.9341
 3431TIP3   OH210298   0.043   5.244   0.727  0.1868  0.2312  0.9513
 3431TIP3    H110299   0.010   5.155   0.744  0.6210 -0.2283 -0.4335
 3431TIP3    H210300   0.080   5.272   0.810 -1.6440 -0.1194  1.9599
 3432TIP3   OH210301   3.261   2.683   1.118 -0.3412  0.0705 -0.2759
 3432TIP3    H110302   3.235   2.597   1.152  0.5998 -0.0998  0.0630
 3432TIP3    H210303   3.299   2.728   1.193  0.8346  0.0776 -0.8419
 3433TIP3   OH210304   0.227   3.912   2.005 -0.3057 -0.0984 -0.1143
 3433TIP3    H110305   0.188   3.981   2.059 -1.0148 -0.8611  0.3848
 3433TIP3    H210306   0.314   3.945   1.982 -1.0813  1.4752 -0.9163
 3434TIP3   OH210307   6.176   1.949   2.915 -0.8056 -0.1236 -0.0203
 3434TIP3    H110308   6.153   2.018   2.978  0.2078  0.5050 -0.3246
 3434TIP3    H210309   6.122   1.874   2.942  1.0583 -0.5758  2.9290
 3435TIP3   OH210310   1.233   2.151   4.414 -0.5504  0.0127 -0.0424
 3435TIP3    H110311   1.212   2.232   4.367 -0.2501 -0.2188 -0.5811
 3435TIP3    H210312   1.149   2.106   4.423 -0.7619  0.5122  0.5011
 3436TIP3   OH210313   0.966   5.483   0.531  0.0727 -0.0551 -0.0109
 3436TIP3    H110314   1.030   5.553   0.519  1.4244 -0.9719  1.4573
 3436TIP3    H210315   0.992   5.416   0.468 -1.5953  0.9393 -1.8580
 3437TIP3   OH210316   3.283   1.510   1.728 -0.4416 -0.1920  0.1635
 3437TIP3    H110317   3.378   1.513   1.721 -0.3679  0.3625  1.2098
 3437TIP3    H210318   3.253   1.486   1.640  0.5435  1.9507 -0.8433
 3438TIP3   OH210319   0.845   5.426   4.821 -0.2109 -0.1449 -0.0984
 3438TIP3    H110320   0.852   5.356   4.886  1.4260  0.2311  0.1627
 3438TIP3    H210321   0.787   5.490   4.862 -1.0590 -0.9499  0.0025
 3439TIP3   OH210322   1.765   1.415   1.900  0.3464  0.1198  0.0672
 3439TIP3    H110323   1.822   1.343   1.872 -1.1038 -0.4056 -1.7577
 3439TIP3    H210324   1.753   1.468   1.821  0.2414  1.5969  1.0287
 3440TIP3   OH210325   5.465   3.912   3.599 -0.0827 -0.1253  0.0001
 3440TIP3    H110326   5.498   3.900   3.510 -1.6691 -0.5213 -0.5715
 3440TIP3    H210327   5.371   3.895   3.593 -0.2676  0.0192  1.7231
 3441TIP3   OH210328   2.433   2.229   2.321 -0.0911 -0.6125 -0.2302
 3441TIP3    H110329   2.412   2.297   2.257  2.0011  0.1450 -0.1980
 3441TIP3    H210330   2.374   2.247   2.395 -1.4596 -0.5582 -1.3011
 3442TIP3   OH210331   1.648   3.353   2.611  0.0644 -0.0644  0.2136
 3442TIP3    H110332   1.600   3.350   2.529  0.2470  0.3579  0.0917
 3442TIP3    H210333   1.708   3.278   2.607  0.8370  0.5832 -0.5090
 3443TIP3   OH210334   0.190   0.733   2.183  0.4694 -0.2176  0.6326
 3443TIP3    H110335   0.194   0.758   2.276  1.8832 -0.2030  0.5846
 3443TIP3    H210336   0.105   0.767   2.153  0.9493  1.7715  1.3626
 3444TIP3   OH210337   4.911   3.426   4.292 -0.0951  0.4801  0.0227
 3444TIP3    H110338   4.967   3.479   4.350  0.5948  1.2393 -1.3018
 3444TIP3    H210339   4.858   3.490   4.245 -1.3162 -0.1839  0.4508
 3445TIP3   OH210340   3.972   4.949   3.197  0.1992 -0.5199  0.0951
 3445TIP3    H110341   3.934   4.955   3.110 -1.2761 -2.1049  0.5734
 3445TIP3    H210342   4.059   4.910   3.182  0.3788  0.1457 -0.7160
 3446TIP3   OH210343   0.519   0.063   4.951  0.1234 -0.6158 -0.3407
 3446TIP3    H110344   0.424   0.054   4.943  0.0328  1.0710 -1.7104
 3446TIP3    H210345   0.535   0.061   5.045 -1.5681  1.3403  0.0505
 3447TIP3   OH210346   2.359   3.162   3.371 -0.6777 -0.3539  0.1161
 3447TIP3    H110347   2.404   3.194   3.449  0.2609 -1.7552  0.1944
 3447TIP3    H210348   2.346   3.239   3.316  0.1493  0.3761  0.9264
 3448TIP3   OH210349   2.362   2.713   0.325 -0.6011 -0.0603 -0.0476
 3448TIP3    H110350   2.332   2.638   0.274 -0.4381  0.9039 -1.6707
 3448TIP3    H210351   2.449   2.733   0.288 -0.6890  0.9659  0.2679
 3449TIP3   OH210352   1.370   1.225   3.128 -0.2882  0.3369 -0.8423
 3449TIP3    H110353   1.330   1.175   3.199 -0.8324 -0.5428 -1.7515
 3449TIP3    H210354   1.461   1.236   3.156 -0.9519  1.8816  0.9831
 3450TIP3   OH210355   5.738   5.099   1.478  0.0749 -0.2590  0.0083
 3450TIP3    H110356   5.769   5.154   1.406  0.9061 -0.3282  0.3091
 3450TIP3    H210357   5.651   5.070   1.449  0.7289 -0.9743 -1.3558
 3451TIP3   OH210358   2.102   3.544   4.783  0.7035  0.1385 -0.1962
 3451TIP3    H110359   2.037   3.491   4.828  0.5219  0.2125 -0.3689
 3451TIP3    H210360   2.157   3.580   4.852  0.0743  0.7231  0.0057
 3452TIP3   OH210361   3.519   5.105   2.204  0.6723 -0.2731 -0.7210
 3452TIP3    H110362   3.451   5.039   2.191  2.8842 -2.4359 -2.4685
 3452TIP3    H210363   3.517   5.157   2.124 -0.0519  0.8255 -0.0058
 3453TIP3   OH210364   5.908   0.371   4.421  0.4207 -0.5299 -0.1584
 3453TIP3    H110365   5.881   0.447   4.369 -3.4296 -0.4303  1.6464
 3453TIP3    H210366   5.982   0.403   4.472  0.7333  1.0713 -1.4831
 3454TIP3   OH210367   6.024   0.125   4.976  0.0107  0.4702  0.0186
 3454TIP3    H110368   6.116   0.150   4.969  0.0891  0.3457  0.5476
 3454TIP3    H210369   6.021   0.067   5.052 -0.4530  0.2160 -0.1899
 3455TIP3   OH210370   3.272   0.013   4.065 -0.3288 -0.1506  0.1284
 3455TIP3    H110371   3.211  -0.060   4.057  0.4598 -0.9838  1.3173
 3455TIP3    H210372   3.217   0.089   4.084 -1.1273 -0.5256 -0.6599
 3456TIP3   OH210373   0.684   2.339   0.405 -0.2358  0.1827  0.0557
 3456TIP3    H110374   0.652   2.400   0.471 -0.3175 -0.3523  0.5171
 3456TIP3    H210375   0.607   2.318   0.352 -0.1502  0.6860 -0.2748
 3457TIP3   OH210376   4.252   2.279   3.697 -0.0020  0.3518  0.3374
 3457TIP3    H110377   4.199   2.216   3.747 -1.4343 -0.6429 -2.2709
 3457TIP3    H210378   4.208   2.363   3.710  0.5642  0.4548  1.9179
 3458TIP3   OH210379   5.435   5.781   4.375  0.1636  0.1157  0.3908
 3458TIP3    H110380   5.358   5.724   4.379  0.3173 -0.1947 -0.7004
 3458TIP3    H210381   5.398   5.869   4.366 -0.0985 -0.1185 -1.1784
 3459TIP3   OH210382   5.097   5.629   3.776 -0.4756 -0.5177  0.2762
 3459TIP3    H110383   5.116   5.702   3.717  2.7636  0.4447  2.2276
 3459TIP3    H210384   5.033   5.663   3.838 -2.5441 -0.9734 -1.4751
 3460TIP3   OH210385   5.990   1.844   3.761 -0.1681 -0.1145  0.3922
 3460TIP3    H110386   6.010   1.780   3.829 -0.4441 -0.6348 -0.0050
 3460TIP3    H210387   5.909   1.885   3.789 -1.2434 -1.5643 -0.4572
 3461TIP3   OH210388   6.028   2.101   1.661  0.3780  0.0500 -0.1435
 3461TIP3    H110389   5.941   2.063   1.651  0.0302  1.0259 -1.0182
 3461TIP3    H210390   6.087   2.038   1.620 -0.1287  0.2116 -1.1545
 3462TIP3   OH210391   1.215   1.797   2.165 -0.4010 -0.2296  0.3971
 3462TIP3    H110392   1.210   1.892   2.167 -1.7404 -0.2545 -0.4604
 3462TIP3    H210393   1.161   1.771   2.090  2.8728 -1.4963 -1.7711
 3463TIP3   OH210394   0.745   3.671   5.086  0.2320  0.0564 -0.1882
 3463TIP3    H110395   0.804   3.599   5.109 -0.8956 -0.6545  0.5944
 3463TIP3    H210396   0.732   3.661   4.991  1.0494 -0.0072 -0.3041
 3464TIP3   OH210397   1.493   3.179   1.955  0.3007 -0.6584 -0.0165
 3464TIP3    H110398   1.564   3.235   1.924  0.1594 -0.6174 -0.2778
 3464TIP3    H210399   1.417   3.207   1.903 -0.2218  0.1945  1.1700
 3465TIP3   OH210400   4.591   4.138   1.913  0.2277 -0.6788 -0.2564
 3465TIP3    H110401   4.549   4.064   1.869  0.8269 -0.6902 -0.8115
 3465TIP3    H210402   4.681   4.110   1.928  0.4894 -0.0269 -0.5727
 3466TIP3   OH210403   3.941   3.613   4.209  0.3892 -0.0011 -0.4930
 3466TIP3    H110404   3.970   3.542   4.266  1.7109  1.8898  1.3134
 3466TIP3    H210405   3.867   3.652   4.254  0.2920  0.3996 -0.9901
 3467TIP3   OH210406   5.113   1.408   5.162 -0.0568  0.1712 -0.0039
 3467TIP3    H110407   5.107   1.333   5.220  0.6258 -0.0809 -0.2401
 3467TIP3    H210408   5.156   1.373   5.083 -1.8579  0.2616 -1.0814
 3468TIP3   OH210409   2.189   5.127   3.209 -0.2275  0.4839  0.2485
 3468TIP3    H110410   2.247   5.202   3.203  0.9953 -0.5331 -1.5580
 3468TIP3    H210411   2.246   5.055   3.238 -0.4345 -0.6175 -1.9218
 3469TIP3   OH210412   2.654   5.387   3.011 -0.1176  0.0435  0.7354
 3469TIP3    H110413   2.691   5.400   3.098  0.9360  0.2568  0.2756
 3469TIP3    H210414   2.726   5.410   2.951 -0.8153 -0.1215 -0.1836
 3470TIP3   OH210415   2.684   3.065   1.746 -0.1057 -0.5298  0.2605
 3470TIP3    H110416   2.642   3.044   1.829 -0.3318  1.2154  0.6404
 3470TIP3    H210417   2.659   3.156   1.729  1.0229 -0.4251 -1.0465
 3471TIP3   OH210418   1.161   2.014   2.359 -0.3667 -0.4254 -0.1572
 3471TIP3    H110419   1.083   2.044   2.313 -0.9238 -1.2634  0.2328
 3471TIP3    H210420   1.137   1.930   2.397  0.9690 -1.1025 -0.6991
 3472TIP3   OH210421   5.533   3.481   0.822 -0.0993 -0.3440  0.4069
 3472TIP3    H110422   5.523   3.386   0.814 -1.3151 -0.0999 -1.4619
 3472TIP3    H210423   5.563   3.509   0.736 -0.7751  1.0883  0.6161
 3473TIP3   OH210424   0.725   2.532   3.714  0.5439 -0.0229 -0.6256
 3473TIP3    H110425   0.641   2.509   3.753  0.9387 -1.4057 -0.5720
 3473TIP3    H210426   0.748   2.615   3.756 -0.5643  0.1406 -0.3044
 3474TIP3   OH210427   3.928   2.912   4.188 -0.8247 -0.3262  0.1065
 3474TIP3    H110428   3.932   2.990   4.243 -0.8538 -0.6232  0.5318
 3474TIP3    H210429   3.913   2.945   4.100 -0.2941  0.1804  0.2053
 3475TIP3   OH210430   0.639   0.593  -0.006 -0.5100 -0.0967  0.2426
 3475TIP3    H110431   0.697   0.660   0.029 -0.5585 -0.2857  0.6976
 3475TIP3    H210432   0.582   0.571   0.068 -1.4923  0.4441 -0.3384
 3476TIP3   OH210433   2.750   1.491   0.967  0.0852 -0.7546  0.0623
 3476TIP3    H110434   2.738   1.398   0.948  1.2296 -0.9337  0.1210
 3476TIP3    H210435   2.844   1.505   0.956 -0.2162  0.6360 -1.0178
 3477TIP3   OH210436   0.930   2.978   4.987 -0.6518  0.0005  0.1517
 3477TIP3    H110437   0.948   2.960   4.895  0.8610 -1.2634  0.6700
 3477TIP3    H210438   0.996   3.042   5.012  1.0098 -1.9995  1.1319
 3478TIP3   OH210439   2.072   0.490   3.341  0.2055 -0.7790 -0.5504
 3478TIP3    H110440   1.987   0.534   3.332  0.4488 -0.4955 -1.6774
 3478TIP3    H210441   2.128   0.554   3.385  0.0837 -0.6084 -0.6425
 3479TIP3   OH210442   6.049   5.413   3.233 -0.2576  0.0561 -0.4300
 3479TIP3    H110443   6.096   5.434   3.313  0.3403  2.3723 -1.3030
 3479TIP3    H210444   6.012   5.326   3.248  1.9089 -0.6308  1.3671
 3480TIP3   OH210445   3.741   1.128   3.078  0.5252  0.2818 -0.3879
 3480TIP3    H110446   3.692   1.152   2.999  0.4912  2.9409  0.3645
 3480TIP3    H210447   3.833   1.124   3.050  0.3781 -0.1972 -0.8232
 3481TIP3   OH210448   1.657   2.085   2.205 -0.0543  0.4874 -0.2269
 3481TIP3    H110449   1.729   2.038   2.246 -1.5209  0.6948  2.8466
 3481TIP3    H210450   1.650   2.046   2.118  2.5378 -0.8095  0.0382
 3482TIP3   OH210451   1.167   0.868   1.663 -0.2856 -0.5542 -0.1372
 3482TIP3    H110452   1.174   0.778   1.629  1.3382 -0.5248  0.0394
 3482TIP3    H210453   1.163   0.857   1.758 -1.2388 -0.4745 -0.1587
 3483TIP3   OH210454   5.411   0.107   1.580  0.6134 -0.3490 -0.5373
 3483TIP3    H110455   5.342   0.063   1.630  1.1225  0.9774  1.4373
 3483TIP3    H210456   5.493   0.072   1.616  0.9951  0.7052 -0.3418
 3484TIP3   OH210457   4.344   0.296   4.716 -0.1089  0.6888  0.3360
 3484TIP3    H110458   4.304   0.268   4.634 -0.1194 -1.0452  0.8974
 3484TIP3    H210459   4.342   0.218   4.772  2.7423  0.8937  0.8962
 3485TIP3   OH210460   4.659   5.643   2.376 -0.1865  0.0106  0.3066
 3485TIP3    H110461   4.574   5.623   2.415 -0.0398 -1.5508 -0.0835
 3485TIP3    H210462   4.722   5.625   2.446 -0.1140  0.1027  0.2645
 3486TIP3   OH210463   2.475   0.161   0.147 -0.5249 -0.3560 -0.2560
 3486TIP3    H110464   2.380   0.174   0.142 -0.2369  2.9138  0.4871
 3486TIP3    H210465   2.495   0.174   0.240  0.7267 -0.2590 -0.5326
 3487TIP3   OH210466   4.519   0.848   2.406  0.2013 -0.4538  0.7659
 3487TIP3    H110467   4.527   0.922   2.346  1.2894 -0.1924  1.2001
 3487TIP3    H210468   4.434   0.860   2.448 -0.6098 -0.6836 -0.7563
 3488TIP3   OH210469   0.466   2.569   4.989  0.4208 -0.0944  0.1569
 3488TIP3    H110470   0.534   2.634   5.007 -0.1432 -0.0959  2.6911
 3488TIP3    H210471   0.507   2.485   5.009  0.6325 -0.4198 -1.5026
 3489TIP3   OH210472   4.642   5.865   2.218 -0.8164  0.4433  0.6856
 3489TIP3    H110473   4.651   5.799   2.286 -0.9241  0.6989  0.9539
 3489TIP3    H210474   4.605   5.818   2.144  0.4595 -0.1070  0.3710
 3490TIP3   OH210475   1.665   1.589   0.850 -0.1832  0.0764  0.0751
 3490TIP3    H110476   1.692   1.535   0.776 -0.3054 -0.9076  0.7271
 3490TIP3    H210477   1.645   1.674   0.812  2.1810  0.3679 -0.6945
 3491TIP3   OH210478   2.487   4.876   3.824  0.1032  0.0255 -0.3504
 3491TIP3    H110479   2.467   4.963   3.860  1.6648 -0.0347  0.8032
 3491TIP3    H210480   2.403   4.841   3.795 -0.9130  1.0029  1.2738
 3492TIP3   OH210481   5.689   3.771   4.898  0.4038 -0.3168  0.6252
 3492TIP3    H110482   5.633   3.694   4.886 -2.0976  1.5685 -0.7996
 3492TIP3    H210483   5.749   3.768   4.823  0.1053 -0.7042  0.3931
 3493TIP3   OH210484   3.341   3.501   0.582 -0.1095  0.3884  0.0121
 3493TIP3    H110485   3.432   3.501   0.614 -0.3458  0.5832  0.7094
 3493TIP3    H210486   3.291   3.537   0.655 -1.0654 -1.8810  0.5543
 3494TIP3   OH210487   5.361   4.633   3.700  0.0143  0.3369 -0.0060
 3494TIP3    H110488   5.299   4.564   3.721  1.3805 -1.4412 -1.4310
 3494TIP3    H210489   5.417   4.639   3.777  0.3841 -0.7616 -0.1731
 3495TIP3   OH210490   2.299   2.487   1.548 -1.0697  0.5028 -0.1107
 3495TIP3    H110491   2.240   2.542   1.497 -0.1932  0.6125 -1.0377
 3495TIP3    H210492   2.387   2.518   1.525 -0.5105 -1.7103 -1.1908
 3496TIP3   OH210493   0.011   5.119   1.877  0.1041 -0.3956  0.2191
 3496TIP3    H110494   0.016   5.196   1.819 -2.0647  0.7601  1.4606
 3496TIP3    H210495   0.093   5.122   1.927 -0.0086  1.2326  0.3732
 3497TIP3   OH210496   5.425   4.382   2.854  0.1476 -0.0510 -0.1718
 3497TIP3    H110497   5.501   4.331   2.827  0.3210 -0.0077  0.2252
 3497TIP3    H210498   5.462   4.467   2.878  0.1716 -0.4836  1.4139
 3498TIP3   OH210499   4.438   0.498   4.118 -0.3142  0.3952 -0.4259
 3498TIP3    H110500   4.444   0.442   4.195  0.0022  2.5493  1.2343
 3498TIP3    H210501   4.500   0.569   4.136 -2.9987  3.0591 -0.7702
 3499TIP3   OH210502   0.838   4.107   1.396 -0.3249 -0.0181  0.2323
 3499TIP3    H110503   0.785   4.169   1.446 -0.4220  0.9865 -1.0757
 3499TIP3    H210504   0.814   4.122   1.305  0.3270 -1.3590 -0.1938
 3500TIP3   OH210505   3.761   1.917   0.961  0.4473  0.3399  0.1569
 3500TIP3    H110506   3.752   1.822   0.958 -1.4612  0.5133 -1.3067
 3500TIP3    H210507   3.761   1.938   1.054  0.9273 -1.0638  0.5097
 3501TIP3   OH210508   3.159   4.134   2.790 -0.3503 -0.1352 -0.9423
 3501TIP3    H110509   3.081   4.147   2.736  0.3724 -1.5285 -2.4222
 3501TIP3    H210510   3.213   4.211   2.774 -0.4660 -0.1985 -1.6618
 3502TIP3   OH210511   4.904   5.378   2.850 -0.3562  0.2437 -0.3412
 3502TIP3    H110512   4.928   5.439   2.919 -1.2317  0.2998 -0.0654
 3502TIP3    H210513   4.987   5.349   2.812  0.1100  0.6134  0.3857
 3503TIP3   OH210514   5.667   1.006   0.598  0.5080  0.0332  0.0590
 3503TIP3    H110515   5.708   1.021   0.683  0.4675  1.6242 -0.1817
 3503TIP3    H210516   5.730   1.039   0.534 -0.8872  2.1168 -0.3355
 3504TIP3   OH210517   4.790   3.467   2.760 -0.6642 -0.7929  0.2234
 3504TIP3    H110518   4.877   3.507   2.764 -0.7727 -0.4760 -0.5277
 3504TIP3    H210519   4.806   3.373   2.759 -0.1640 -0.7670 -2.6674
 3505TIP3   OH210520   3.893   3.356   2.705  0.1716 -0.0239 -0.2012
 3505TIP3    H110521   3.939   3.402   2.635 -0.9548  1.1037 -0.2436
 3505TIP3    H210522   3.802   3.355   2.676 -0.0291 -1.1866  0.4127
 3506TIP3   OH210523   0.085   1.126   4.458 -0.0413 -0.4498 -0.0293
 3506TIP3    H110524   0.093   1.045   4.509  3.3349 -1.1884 -1.4614
 3506TIP3    H210525   0.175   1.159   4.451 -0.7381  1.1995 -2.9319
 3507TIP3   OH210526   6.211   2.170   0.926 -0.6474 -0.1576 -0.5311
 3507TIP3    H110527   6.129   2.215   0.946 -1.4586 -1.7487 -0.1063
 3507TIP3    H210528   6.238   2.206   0.842 -0.7981  1.6939  0.1513
 3508TIP3   OH210529   4.528   1.256   3.602  0.3795  0.2051 -0.6909
 3508TIP3    H110530   4.481   1.245   3.519  0.2782 -0.2689 -0.5772
 3508TIP3    H210531   4.493   1.337   3.638  0.8662  0.7385 -1.3936
 3509TIP3   OH210532   2.434   1.581   2.264  0.2843  0.2134 -0.2438
 3509TIP3    H110533   2.522   1.569   2.229 -0.0075 -0.0246 -0.9089
 3509TIP3    H210534   2.376   1.543   2.198 -0.4058  1.6283 -0.4929
 3510TIP3   OH210535   0.345   0.293   2.912  0.4132 -0.2016 -0.5103
 3510TIP3    H110536   0.351   0.305   2.817  0.8824 -1.7528 -0.6888
 3510TIP3    H210537   0.305   0.375   2.943  3.2590  1.8139 -1.6366
 3511TIP3   OH210538   5.300   5.456   1.496 -0.0896  0.1518 -0.0548
 3511TIP3    H110539   5.293   5.542   1.454 -0.0722  0.7868  1.1880
 3511TIP3    H210540   5.384   5.422   1.466  0.4198  1.0603  0.2986
 3512TIP3   OH210541   3.146   3.030   0.565 -0.0288 -0.1961 -0.2395
 3512TIP3    H110542   3.196   2.949   0.555  3.0466  1.5112 -0.1707
 3512TIP3    H210543   3.124   3.033   0.658  2.2856  0.2520  0.3585
 3513TIP3   OH210544   5.692   0.749   0.949  0.2561 -0.0616  0.7261
 3513TIP3    H110545   5.638   0.798   1.011 -0.2827 -0.2726  0.4318
 3513TIP3    H210546   5.718   0.814   0.883 -2.3848 -0.5732 -0.9627
 3514TIP3   OH210547   2.481   5.251   1.888 -0.9322 -0.3619 -0.2553
 3514TIP3    H110548   2.518   5.191   1.954  0.1697 -0.1668 -0.6724
 3514TIP3    H210549   2.539   5.242   1.813  0.4198  2.5748  0.2879
 3515TIP3   OH210550   4.854   3.780   0.298 -0.0474 -0.0648 -0.3035
 3515TIP3    H110551   4.846   3.706   0.358  2.6608 -0.2175  0.0066
 3515TIP3    H210552   4.790   3.762   0.229 -0.9362 -1.5781  0.8559
 3516TIP3   OH210553   1.427   2.073   0.975 -0.2031 -0.0669  0.1496
 3516TIP3    H110554   1.458   1.983   0.985 -0.3499  0.0273  1.6029
 3516TIP3    H210555   1.369   2.088   1.050  0.1937  1.3904  0.2061
 3517TIP3   OH210556   5.441   0.896   4.509  0.1104  0.2021 -0.5229
 3517TIP3    H110557   5.514   0.948   4.477  0.8690  0.1691  1.0682
 3517TIP3    H210558   5.464   0.805   4.486  0.0173  0.2924 -0.9980
 3518TIP3   OH210559   2.134   4.732   4.758 -0.3013 -0.2779 -0.0202
 3518TIP3    H110560   2.199   4.802   4.761  0.0848 -0.6508  0.5373
 3518TIP3    H210561   2.137   4.700   4.668  0.2449 -0.2576 -0.0106
 3519TIP3   OH210562   0.646   1.804   2.940  0.3750 -0.0273 -0.0754
 3519TIP3    H110563   0.621   1.800   2.848  0.9211 -1.8783 -0.1725
 3519TIP3    H210564   0.594   1.876   2.976  2.2039  2.7222 -2.4264
 3520TIP3   OH210565   0.684   3.951   3.598  0.3798  0.2869 -0.5963
 3520TIP3    H110566   0.752   3.902   3.643 -0.6397 -0.4814  0.1736
 3520TIP3    H210567   0.679   3.912   3.511 -0.9842 -1.6009  0.2753
 3521TIP3   OH210568   1.421   0.876   3.799 -0.0855  0.4368 -0.5821
 3521TIP3    H110569   1.447   0.934   3.870 -1.8348  1.0431 -0.3794
 3521TIP3    H210570   1.503   0.842   3.764  1.0191  2.9069 -0.6003
 3522TIP3   OH210571   3.934   4.399   1.612  0.0308  0.4094  0.4911
 3522TIP3    H110572   4.026   4.426   1.610  0.2936 -0.3253  1.6896
 3522TIP3    H210573   3.903   4.427   1.698 -0.1760 -1.4764  1.0619
 3523TIP3   OH210574   4.153   1.905   2.091  0.2424 -0.2683  0.2559
 3523TIP3    H110575   4.226   1.938   2.144  0.1360 -1.7258  1.3480
 3523TIP3    H210576   4.081   1.893   2.153 -1.4678  2.4264 -0.9934
 3524TIP3   OH210577   0.626   5.819   4.776  0.2686 -0.2544 -0.2129
 3524TIP3    H110578   0.587   5.759   4.839  0.9897 -1.4373 -0.8513
 3524TIP3    H210579   0.701   5.771   4.740  1.2659  1.2729 -0.2828
 3525TIP3   OH210580   4.399   2.587   0.829 -0.3648 -0.3392  0.3688
 3525TIP3    H110581   4.405   2.553   0.739  1.4377 -3.6339  1.5290
 3525TIP3    H210582   4.479   2.639   0.840 -0.6466  0.1681  0.0461
 3526TIP3   OH210583   0.414   2.300   0.338 -0.2803  0.3884 -0.2083
 3526TIP3    H110584   0.419   2.300   0.433  0.1282 -0.5445 -0.2173
 3526TIP3    H210585   0.331   2.258   0.318  0.8555 -2.0016 -0.2637
 3527TIP3   OH210586   5.694   4.282   1.810  0.2845 -0.3893 -0.3517
 3527TIP3    H110587   5.711   4.374   1.830 -2.5281 -0.2042  1.7837
 3527TIP3    H210588   5.651   4.283   1.724 -0.4226  0.4053  0.0010
 3528TIP3   OH210589   6.322   5.871   4.007  0.5456  0.0878  0.3838
 3528TIP3    H110590   6.292   5.851   4.095  0.0805  0.4496  0.3171
 3528TIP3    H210591   6.260   5.825   3.950 -1.2977  2.5416  0.2010
 3529TIP3   OH210592   0.712   4.806   4.209 -0.1143  0.1446  0.0928
 3529TIP3    H110593   0.672   4.760   4.134 -1.3454 -0.1331  0.8906
 3529TIP3    H210594   0.656   4.882   4.222  0.1423  0.2316  0.6892
 3530TIP3   OH210595   1.671   2.249   0.464 -0.1685  0.0580 -0.2256
 3530TIP3    H110596   1.585   2.266   0.502 -0.9076 -1.5022 -1.1252
 3530TIP3    H210597   1.653   2.223   0.374  1.2464 -0.3828 -0.4056
 3531TIP3   OH210598   1.664   2.811   1.064  0.4515 -0.7590  0.6955
 3531TIP3    H110599   1.744   2.826   1.013 -0.6764 -0.5994 -1.1027
 3531TIP3    H210600   1.623   2.735   1.024 -0.3204 -0.8315  1.5871
 3532TIP3   OH210601   3.749   3.957   0.949 -0.0521  0.3030 -0.0373
 3532TIP3    H110602   3.751   4.032   0.888  1.9599 -0.7063 -1.3169
 3532TIP3    H210603   3.830   3.965   0.999 -0.0603 -0.7346  0.1526
 3533TIP3   OH210604   4.334   1.888   0.492  0.5553  0.6131  0.3252
 3533TIP3    H110605   4.262   1.927   0.541  0.9266  1.4983  0.1769
 3533TIP3    H210606   4.296   1.865   0.407  0.6701  2.0176 -0.1312
 3534TIP3   OH210607   5.296   3.956   2.769  0.0315  0.7629 -0.5284
 3534TIP3    H110608   5.377   4.006   2.768  0.4463  0.1893  1.0881
 3534TIP3    H210609   5.311   3.888   2.835 -1.6072  0.3794 -0.5105
 3535TIP3   OH210610   2.027   5.849   4.865 -0.3925 -0.3471 -0.2545
 3535TIP3    H110611   1.935   5.861   4.886 -1.2614 -2.6455 -2.3711
 3535TIP3    H210612   2.049   5.762   4.898  0.2651 -0.9001 -2.0499
 3536TIP3   OH210613   1.527   3.912   1.933  0.2748  0.5756 -0.2405
 3536TIP3    H110614   1.456   3.898   1.870  0.8213 -0.5280 -0.6335
 3536TIP3    H210615   1.598   3.855   1.903  1.1875  1.3372  0.3833
 3537TIP3   OH210616   2.539   2.493   4.988 -0.1791 -0.3403 -0.2448
 3537TIP3    H110617   2.557   2.527   5.075  0.1741  0.5200 -0.6419
 3537TIP3    H210618   2.459   2.538   4.961 -0.4868 -0.8709 -0.2285
 3538TIP3   OH210619   2.373   1.261   0.086  0.1465 -0.1299  0.1459
 3538TIP3    H110620   2.307   1.240   0.152 -1.4438  0.6432 -1.1273
 3538TIP3    H210621   2.356   1.353   0.065  0.6211 -0.3595 -1.3285
 3539TIP3   OH210622   1.232   4.675   0.463 -0.1555  0.0399  0.1487
 3539TIP3    H110623   1.156   4.622   0.438 -2.1808  1.8455  2.1309
 3539TIP3    H210624   1.262   4.637   0.545  1.0388 -0.5446 -0.5282
 3540TIP3   OH210625   3.514   5.230   0.408 -0.5778 -0.2609  0.4285
 3540TIP3    H110626   3.605   5.218   0.379  0.2336  1.0868  2.2222
 3540TIP3    H210627   3.491   5.318   0.378 -1.2635 -0.5522  0.0898
 3541TIP3   OH210628   3.878   3.443   1.864  0.0949  0.3452  0.2569
 3541TIP3    H110629   3.835   3.363   1.891  1.7788 -0.7690 -0.1813
 3541TIP3    H210630   3.877   3.440   1.768 -2.0413  2.1327  0.1591
 3542TIP3   OH210631   5.825   4.610   4.978  0.3350 -0.2363 -0.0318
 3542TIP3    H110632   5.738   4.573   4.960 -1.3864  2.7725  1.4382
 3542TIP3    H210633   5.832   4.685   4.920  1.8991 -0.2611  0.0740
 3543TIP3   OH210634   0.538   2.261   1.487  0.0306 -0.1353  0.4048
 3543TIP3    H110635   0.511   2.297   1.403 -1.3862 -1.5846  0.1935
 3543TIP3    H210636   0.617   2.310   1.510 -0.5157  1.4621 -0.9356
 3544TIP3   OH210637   5.752   5.828   3.777 -0.3104 -0.1105 -0.2321
 3544TIP3    H110638   5.673   5.808   3.827 -0.0492 -2.3964 -0.5957
 3544TIP3    H210639   5.818   5.767   3.811  0.2822 -0.7071 -2.2834
 3545TIP3   OH210640   6.016   1.207   0.696 -0.0960 -0.0659 -0.0357
 3545TIP3    H110641   5.973   1.222   0.611  0.5003  2.8404  0.0578
 3545TIP3    H210642   5.995   1.285   0.747 -0.5708 -1.8116  2.6331
 3546TIP3   OH210643   2.290   3.166   3.824  0.5432 -0.3557 -0.1251
 3546TIP3    H110644   2.327   3.253   3.830  1.0581 -0.6497  1.0682
 3546TIP3    H210645   2.258   3.160   3.734 -0.6939  1.5311  0.1477
 3547TIP3   OH210646   4.770   5.836   1.436 -0.7195  0.6018  0.2164
 3547TIP3    H110647   4.763   5.897   1.363 -1.0313 -0.1366 -0.3740
 3547TIP3    H210648   4.859   5.802   1.431 -0.6671  0.7249  0.3182
 3548TIP3   OH210649   3.934   0.535   2.329 -0.0048  0.0532 -1.1259
 3548TIP3    H110650   3.967   0.451   2.296  1.1544 -0.6653  1.6023
 3548TIP3    H210651   3.841   0.518   2.347  0.0702 -0.4571 -1.1981
 3549TIP3   OH210652   2.538   2.501   2.753 -0.0895  0.2392  0.3433
 3549TIP3    H110653   2.500   2.578   2.710  1.9658  1.1850  0.1377
 3549TIP3    H210654   2.497   2.427   2.709 -1.3544  1.1925 -0.1592
 3550TIP3   OH210655   0.809   3.619   3.185  0.1046  0.2663 -0.5581
 3550TIP3    H110656   0.826   3.527   3.205  0.7162  0.6923  0.9840
 3550TIP3    H210657   0.889   3.650   3.143 -0.3601 -0.0580 -1.7291
 3551TIP3   OH210658   1.336   1.035   1.420  0.6763 -0.1573 -0.1101
 3551TIP3    H110659   1.425   1.010   1.394  0.6310 -0.9900  0.4785
 3551TIP3    H210660   1.311   1.104   1.359  1.5475 -0.2526 -0.5856
 3552TIP3   OH210661   4.391   2.191   0.169  0.1851  0.4466 -0.5615
 3552TIP3    H110662   4.423   2.188   0.259  1.7162 -0.7558 -1.1171
 3552TIP3    H210663   4.329   2.265   0.169 -1.4962 -0.8066  1.9602
 3553TIP3   OH210664   5.539   5.607   3.028 -0.1109  0.2434  0.4102
 3553TIP3    H110665   5.604   5.538   3.015 -0.0938  0.2767  0.3219
 3553TIP3    H210666   5.515   5.600   3.121 -0.3172 -0.0609  0.3353
 3554TIP3   OH210667   4.431   0.080   1.770 -0.0116  0.0012 -0.1819
 3554TIP3    H110668   4.512   0.055   1.815 -1.4810 -1.4862  1.8559
 3554TIP3    H210669   4.406   0.164   1.810 -0.1210 -0.1751  0.1236
 3555TIP3   OH210670   5.208   0.008   3.678  0.0268  0.1902 -0.2462
 3555TIP3    H110671   5.283   0.038   3.729  0.3232 -1.1942  0.1796
 3555TIP3    H210672   5.142  -0.013   3.743  0.0196 -0.5539 -0.4840
 3556TIP3   OH210673   0.746   2.528   1.343  0.1979  0.6453 -0.2221
 3556TIP3    H110674   0.775   2.458   1.403  0.9352  0.3823 -0.8688
 3556TIP3    H210675   0.703   2.591   1.400  0.9040  0.4116  0.6076
 3557TIP3   OH210676   4.778   1.764   1.678 -0.2370  0.0824  0.4439
 3557TIP3    H110677   4.792   1.821   1.602 -0.0800 -0.2887  0.1916
 3557TIP3    H210678   4.819   1.811   1.750  1.3774 -0.4569 -0.0744
 3558TIP3   OH210679   0.432   5.087   5.123  0.3574  0.8118 -0.2417
 3558TIP3    H110680   0.389   5.067   5.040  1.9686 -0.9034 -0.7345
 3558TIP3    H210681   0.368   5.062   5.190 -1.1164  2.5873 -0.9010
 3559TIP3   OH210682   4.119   4.910   4.411 -0.2210  0.6241  0.0188
 3559TIP3    H110683   4.212   4.931   4.420 -0.3649  1.3977 -0.2820
 3559TIP3    H210684   4.080   4.935   4.495 -0.3839  1.5158 -0.3219
 3560TIP3   OH210685   4.392   0.004   3.160  0.0600 -0.0786  0.4961
 3560TIP3    H110686   4.298   0.009   3.139 -0.2868 -1.7746  1.3879
 3560TIP3    H210687   4.403   0.065   3.233  0.4126  2.6748 -1.7059
 3561TIP3   OH210688   0.893   1.588   3.221 -0.1517 -0.6845  0.1314
 3561TIP3    H110689   0.972   1.534   3.223  0.3575  0.0312 -0.1754
 3561TIP3    H210690   0.873   1.599   3.128 -0.5940 -0.8282  0.2050
 3562TIP3   OH210691   0.580   5.571   2.034 -0.2272  0.6040 -0.5489
 3562TIP3    H110692   0.513   5.514   2.070  0.8397 -0.1971  0.2426
 3562TIP3    H210693   0.661   5.543   2.077  0.6060  1.5799 -1.4198
 3563TIP3   OH210694   2.817   5.335   5.016 -0.3489 -0.0571 -0.1663
 3563TIP3    H110695   2.830   5.249   4.977 -0.6930  0.2078 -0.8898
 3563TIP3    H210696   2.766   5.319   5.096 -0.6564 -0.4980 -0.4492
 3564TIP3   OH210697   0.012   4.970   0.753 -0.7406 -0.0337 -0.1364
 3564TIP3    H110698   0.101   4.951   0.723  0.1454 -1.4927  2.9646
 3564TIP3    H210699  -0.043   4.906   0.707 -0.3583  1.1500 -2.3912
 3565TIP3   OH210700   0.047   5.260   3.611  0.5201  0.1109  0.9270
 3565TIP3    H110701   0.137   5.270   3.582  0.7261 -0.9912  1.1218
 3565TIP3    H210702   0.054   5.228   3.701 -0.0784  0.9102  1.2686
 3566TIP3   OH210703   4.807   4.742   2.879 -0.3789  0.1569  0.7887
 3566TIP3    H110704   4.895   4.729   2.915 -0.8630  0.1311  2.0158
 3566TIP3    H210705   4.773   4.819   2.924 -0.2020  1.4853 -1.2627
 3567TIP3   OH210706   1.665   4.987   3.857  0.2149  0.0271  0.2263
 3567TIP3    H110707   1.602   4.930   3.902  0.8261 -0.1217  0.9096
 3567TIP3    H210708   1.664   5.068   3.907 -0.7662  0.7137 -0.8353
 3568TIP3   OH210709   0.657   3.107   4.995  0.0413 -0.7163  0.4157
 3568TIP3    H110710   0.741   3.067   5.017  0.4071  0.1087  0.5553
 3568TIP3    H210711   0.667   3.199   5.019 -0.2876 -0.2241 -1.1881
 3569TIP3   OH210712   4.457   3.311   3.597 -0.2081  0.2862  0.7567
 3569TIP3    H110713   4.518   3.372   3.556 -0.3142 -1.2402 -1.8620
 3569TIP3    H210714   4.503   3.280   3.675  0.5949  2.2496  1.1143
 3570TIP3   OH210715   3.695   4.105   4.168  0.5248 -0.1079 -1.1757
 3570TIP3    H110716   3.608   4.091   4.205  1.0569  0.1312  0.2256
 3570TIP3    H210717   3.680   4.116   4.074 -0.8907 -0.5909 -1.0226
 3571TIP3   OH210718   6.121   5.481   5.177 -0.2043 -0.8856 -0.1092
 3571TIP3    H110719   6.028   5.503   5.168  0.0556 -0.0209 -0.7952
 3571TIP3    H210720   6.166   5.565   5.169  0.5905 -1.1802  1.1296
 3572TIP3   OH210721   1.683   1.252   1.428  0.3496 -0.7079 -0.1463
 3572TIP3    H110722   1.638   1.168   1.430 -1.8577  0.3471 -1.7014
 3572TIP3    H210723   1.641   1.304   1.497 -1.2610  0.4278 -1.8919
 3573TIP3   OH210724   4.868   4.774   2.383 -0.3237  0.2056  0.1419
 3573TIP3    H110725   4.828   4.723   2.454  1.1966  0.0759  0.9585
 3573TIP3    H210726   4.807   4.846   2.368 -1.3892 -0.5740  0.5591
 3574TIP3   OH210727   0.170   5.734   0.127  0.4451  0.3849 -0.0491
 3574TIP3    H110728   0.218   5.764   0.050  0.5472  1.9534  0.5892
 3574TIP3    H210729   0.139   5.646   0.104 -0.8921  1.4191 -2.4831
 3575TIP3   OH210730   4.982   4.930   4.984 -0.4523  1.3700 -0.1903
 3575TIP3    H110731   5.009   4.841   4.963  0.2233  1.1973  1.2827
 3575TIP3    H210732   4.940   4.923   5.069  1.5696  2.7326  1.0101
 3576TIP3   OH210733   5.896   5.743   1.700  0.1523 -0.3330 -0.0859
 3576TIP3    H110734   5.888   5.835   1.675 -0.1034  0.0425  1.3163
 3576TIP3    H210735   5.917   5.698   1.618 -0.0830  0.9156 -0.8600
 3577TIP3   OH210736   5.727   4.807   1.341 -0.0597 -0.5712  0.2043
 3577TIP3    H110737   5.790   4.819   1.412  0.0863 -0.7527  0.1084
 3577TIP3    H210738   5.775   4.831   1.262 -0.7671  1.4052  0.3199
 3578TIP3   OH210739   1.332   5.329   0.842  0.0321  0.2681 -0.5301
 3578TIP3    H110740   1.299   5.358   0.757 -3.9510 -1.7554  0.0487
 3578TIP3    H210741   1.273   5.371   0.906  1.4982 -0.0247  1.1017
 3579TIP3   OH210742   0.624   5.735   2.299 -0.3678 -0.0474 -0.1479
 3579TIP3    H110743   0.538   5.714   2.263 -1.6958  1.9099  1.6034
 3579TIP3    H210744   0.635   5.672   2.371 -0.0104 -0.7379 -0.8008
 3580TIP3   OH210745   4.054   1.408   2.131 -0.2554 -0.0044  0.4143
 3580TIP3    H110746   4.020   1.489   2.168  0.9655  1.1040 -0.7565
 3580TIP3    H210747   4.006   1.396   2.049  1.8374  1.4650 -1.1481
 3581TIP3   OH210748   6.144   4.547   1.857  1.0333 -0.0526  0.0334
 3581TIP3    H110749   6.168   4.480   1.793  2.4256 -1.2897  1.7506
 3581TIP3    H210750   6.100   4.499   1.927 -1.1394  1.3721 -0.2652
 3582TIP3   OH210751   2.031   1.704   5.124 -0.0100 -0.0275  0.2981
 3582TIP3    H110752   2.059   1.776   5.180 -0.6706 -0.1312  0.7781
 3582TIP3    H210753   2.035   1.626   5.180  2.0338 -0.6314 -0.5961
 3583TIP3   OH210754   6.025   5.665   3.526  0.1389  0.3436 -0.4823
 3583TIP3    H110755   6.101   5.724   3.519 -0.3903  1.0542 -0.3448
 3583TIP3    H210756   6.064   5.578   3.537  0.9399  0.5950 -1.1499
 3584TIP3   OH210757   3.349   2.130   0.602  0.2416  0.0971  0.7462
 3584TIP3    H110758   3.296   2.206   0.626 -0.0013  0.3062 -0.3969
 3584TIP3    H210759   3.289   2.056   0.608 -0.2432  0.3448 -0.6353
 3585TIP3   OH210760   0.091   1.678   2.496 -0.3537 -0.2998  0.5848
 3585TIP3    H110761   0.121   1.604   2.443  0.8959 -0.0188  0.8588
 3585TIP3    H210762   0.011   1.646   2.539 -0.2505 -1.2258  0.1236
 3586TIP3   OH210763   0.702   3.740   4.530  0.1822 -0.0023 -0.1343
 3586TIP3    H110764   0.794   3.717   4.515  1.4020  2.7278  2.1424
 3586TIP3    H210765   0.685   3.812   4.470  0.4286  1.1981  1.1745
 3587TIP3   OH210766   0.014   0.348   0.369  0.1725  0.1651 -0.3540
 3587TIP3    H110767   0.081   0.286   0.342 -1.6317 -2.0807  0.0166
 3587TIP3    H210768  -0.041   0.299   0.430 -2.3832  1.5374 -1.3950
 3588TIP3   OH210769   3.731   1.965   4.735  0.4013  0.1418 -0.3814
 3588TIP3    H110770   3.683   1.896   4.781  0.6248 -1.2667 -2.1305
 3588TIP3    H210771   3.664   2.009   4.682  0.3461  0.9701  0.3586
 3589TIP3   OH210772   2.367   0.274   3.663  0.0995  0.1479  0.2301
 3589TIP3    H110773   2.308   0.278   3.738 -1.4658 -0.2741 -0.9297
 3589TIP3    H210774   2.395   0.183   3.659  0.9969  0.3783  0.8687
 3590TIP3   OH210775   4.080   3.686   0.123  0.0062  0.2701  0.0553
 3590TIP3    H110776   4.089   3.594   0.148  0.8606  0.6746  1.3480
 3590TIP3    H210777   4.024   3.724   0.191 -3.0251  0.0796 -2.1793
 3591TIP3   OH210778   1.832   0.814   0.152  0.2835  0.4967  0.4275
 3591TIP3    H110779   1.801   0.904   0.148 -1.7147 -0.1383  0.2724
 3591TIP3    H210780   1.752   0.762   0.161  1.2989 -1.3292 -0.5360
 3592TIP3   OH210781   0.911   0.253   0.956  0.3738  0.8895 -0.0666
 3592TIP3    H110782   0.943   0.177   1.004  1.1883  1.6302  0.5919
 3592TIP3    H210783   0.837   0.284   1.007 -0.3412  0.2156 -0.6536
 3593TIP3   OH210784   3.239   0.072   4.683 -0.3442 -0.8854  0.5746
 3593TIP3    H110785   3.266   0.054   4.773  0.3807  0.8374  0.7319
 3593TIP3    H210786   3.223   0.166   4.681  1.4071 -0.5606 -1.5353
 3594TIP3   OH210787   4.873   0.572   4.952 -0.3330  0.6866 -0.5139
 3594TIP3    H110788   4.922   0.635   4.899  0.2412  0.3154 -0.4264
 3594TIP3    H210789   4.880   0.606   5.041  2.9130 -1.2622  0.1027
 3595TIP3   OH210790   5.003   2.558   2.611  0.1456 -0.3549  0.2891
 3595TIP3    H110791   4.962   2.644   2.608 -0.5852 -0.6593  1.1338
 3595TIP3    H210792   4.942   2.504   2.662 -0.4187 -1.9140 -1.9040
 3596TIP3   OH210793   4.138   2.706   5.078 -0.3587 -0.4239 -0.1273
 3596TIP3    H110794   4.096   2.698   5.163 -0.5229 -0.3120 -0.1990
 3596TIP3    H210795   4.198   2.631   5.074  1.1684  0.6960  0.9423
 3597TIP3   OH210796   4.912   0.844   1.704  0.0603 -0.2375  0.4902
 3597TIP3    H110797   4.875   0.756   1.702 -2.0158  0.5686  1.1396
 3597TIP3    H210798   4.836   0.902   1.711  1.4445  1.4713  3.1198
 3598TIP3   OH210799   0.955   3.706   2.269  0.5951 -0.1996  0.3913
 3598TIP3    H110800   0.962   3.614   2.294  0.5422 -0.0672  0.8988
 3598TIP3    H210801   0.927   3.751   2.349 -1.2839 -0.0097 -0.3249
 3599TIP3   OH210802   3.399   4.178   0.943 -0.3367  0.5824  0.7839
 3599TIP3    H110803   3.401   4.251   1.006  0.7766 -0.0736  1.5481
 3599TIP3    H210804   3.421   4.101   0.996  0.8351  0.0462 -0.4503
 3600TIP3   OH210805   2.438   2.500   3.488  0.9867  0.7165  0.3380
 3600TIP3    H110806   2.450   2.540   3.574 -1.2665  0.6051  0.7784
 3600TIP3    H210807   2.433   2.406   3.505 -0.2468  0.7451  0.2257
 3601TIP3   OH210808   3.474   4.798   2.394  0.3294 -0.2633  0.3006
 3601TIP3    H110809   3.475   4.728   2.459 -0.4514 -0.1938  0.3988
 3601TIP3    H210810   3.431   4.871   2.439  1.1975  0.3077  0.2222
 3602TIP3   OH210811   4.477   2.072   2.985  0.3146 -0.4025 -0.1634
 3602TIP3    H110812   4.470   2.167   2.986  0.6268 -0.3772  0.2637
 3602TIP3    H210813   4.548   2.054   2.924  1.5066 -0.2492  1.1193
 3603TIP3   OH210814   5.696   3.012   1.715  0.2546  0.0282 -0.0142
 3603TIP3    H110815   5.660   3.074   1.778 -2.0561  0.0157 -1.2207
 3603TIP3    H210816   5.645   2.932   1.728 -1.9295  0.7040 -3.3192
 3604TIP3   OH210817   2.990   1.257   3.404 -0.5772 -0.7021  0.0111
 3604TIP3    H110818   3.069   1.283   3.358 -0.0280 -1.9199  0.2335
 3604TIP3    H210819   3.014   1.176   3.450 -1.0725  0.4309  2.4702
 3605TIP3   OH210820   4.625   1.716   0.248  0.7303 -0.5001 -0.8070
 3605TIP3    H110821   4.582   1.666   0.318 -1.1019 -0.6808 -1.9939
 3605TIP3    H210822   4.553   1.740   0.189  2.2829 -0.9071 -2.9580
 3606TIP3   OH210823   3.054   4.117   4.522 -0.5379  0.1469 -0.2856
 3606TIP3    H110824   2.997   4.125   4.445  0.9799  1.3202 -1.3303
 3606TIP3    H210825   3.050   4.204   4.563  0.4606  0.2292 -0.3529
 3607TIP3   OH210826   1.267   3.172   1.357  0.2954 -0.3559 -0.0831
 3607TIP3    H110827   1.354   3.206   1.335  0.4634 -0.9210 -0.3042
 3607TIP3    H210828   1.206   3.234   1.316  0.5731  0.4296  0.6445
 3608TIP3   OH210829   4.388   1.524   0.184 -0.0689 -0.0957 -0.5076
 3608TIP3    H110830   4.472   1.478   0.183  0.9643  1.6871 -0.7801
 3608TIP3    H210831   4.362   1.529   0.092 -0.8299 -1.1914 -0.3749
 3609TIP3   OH210832   0.146   5.604   0.390 -0.3098  0.4131  0.0679
 3609TIP3    H110833   0.210   5.537   0.366 -0.3252  0.5536 -0.3753
 3609TIP3    H210834   0.198   5.683   0.404 -0.2731  0.2695  0.7591
 3610TIP3   OH210835   0.513   4.029   2.858 -0.3721  0.4380  0.1787
 3610TIP3    H110836   0.536   4.011   2.950 -0.6328  0.9303  0.3424
 3610TIP3    H210837   0.465   4.111   2.861  1.2120  1.4428 -0.6058
 3611TIP3   OH210838   5.850   4.579   3.898 -0.0529 -0.3009 -0.3209
 3611TIP3    H110839   5.845   4.650   3.834  0.2018 -0.8216 -0.9245
 3611TIP3    H210840   5.800   4.508   3.860 -0.8601 -0.2356  0.5780
 3612TIP3   OH210841   0.298   2.438   4.175 -0.0244  0.6328 -0.2259
 3612TIP3    H110842   0.294   2.382   4.253 -2.0518 -1.5372 -1.7344
 3612TIP3    H210843   0.386   2.422   4.139 -0.0708 -0.5712  0.1397
 3613TIP3   OH210844   5.114   5.829   1.418  0.0731 -0.1232 -0.2100
 3613TIP3    H110845   5.090   5.820   1.326 -2.1420  0.4275  0.2683
 3613TIP3    H210846   5.174   5.904   1.420  0.9392 -0.7666 -1.3121
 3614TIP3   OH210847   1.689   4.597   4.036 -0.1359  0.1820 -0.3263
 3614TIP3    H110848   1.603   4.595   4.078 -0.4376  1.0477 -0.8751
 3614TIP3    H210849   1.745   4.642   4.099  0.1114 -0.9976  0.3384
 3615TIP3   OH210850   1.644   3.013   2.200  0.1388 -0.5335 -0.3245
 3615TIP3    H110851   1.717   3.075   2.203  0.6669 -1.1824  0.5515
 3615TIP3    H210852   1.622   2.998   2.292  0.2461 -1.9170 -0.5024
 3616TIP3   OH210853   0.422   4.619   3.427  0.0390 -0.0877  0.1380
 3616TIP3    H110854   0.422   4.715   3.421  0.6956 -0.1283 -0.8036
 3616TIP3    H210855   0.338   4.593   3.389  0.7439  0.0464 -1.6095
 3617TIP3   OH210856   6.098   5.680   0.142 -0.5030 -0.0757 -0.4177
 3617TIP3    H110857   6.103   5.603   0.199  0.0812  1.8079  2.2579
 3617TIP3    H210858   6.039   5.740   0.188 -0.2210  1.4639 -1.9509
 3618TIP3   OH210859   5.241   2.697   0.066 -0.4618  0.3026 -0.1915
 3618TIP3    H110860   5.313   2.637   0.084 -1.0370 -0.4868 -0.5060
 3618TIP3    H210861   5.227   2.690  -0.028 -1.9943 -0.7624  0.0767
 3619TIP3   OH210862   4.737   2.919   1.678  0.1509  0.2801  0.0163
 3619TIP3    H110863   4.793   2.842   1.666  0.7731  0.3262  2.1865
 3619TIP3    H210864   4.715   2.947   1.590  2.3169 -0.6495 -0.8875
 3620TIP3   OH210865   5.271   2.790   2.276 -0.0853 -0.8521  0.4325
 3620TIP3    H110866   5.229   2.819   2.357 -2.1882 -1.9861 -0.1947
 3620TIP3    H210867   5.290   2.698   2.290  1.6221 -0.5305  0.4325
 3621TIP3   OH210868   0.341   2.721   4.390  0.0860  0.1729  0.0167
 3621TIP3    H110869   0.418   2.778   4.393  0.7963 -0.7268 -0.6194
 3621TIP3    H210870   0.377   2.633   4.404 -0.6754 -0.3853 -1.4320
 3622TIP3   OH210871   5.897   3.669   3.033  0.1493  0.4257 -0.3748
 3622TIP3    H110872   5.865   3.583   3.060 -0.7168  0.4853 -1.1599
 3622TIP3    H210873   5.961   3.693   3.100  2.8191 -2.1736 -1.7769
 3623TIP3   OH210874   0.394   5.879   3.444 -0.2727 -0.4189  0.2708
 3623TIP3    H110875   0.427   5.917   3.525  0.7920  0.0194 -0.3606
 3623TIP3    H210876   0.459   5.901   3.378 -1.7966  0.4069 -1.0059
 3624TIP3   OH210877   6.115   2.275   3.391 -0.1356 -0.0937  0.8295
 3624TIP3    H110878   6.155   2.212   3.332 -1.5255  2.3252 -3.1271
 3624TIP3    H210879   6.052   2.224   3.443  1.0669 -2.3668  0.1623
 3625TIP3   OH210880   2.268   4.404   2.029 -0.4257 -0.2007 -0.6263
 3625TIP3    H110881   2.188   4.360   2.058 -1.9483  2.6213 -0.1855
 3625TIP3    H210882   2.240   4.457   1.955  0.8703  1.3498 -0.0463
 3626TIP3   OH210883   4.923   4.420   2.866 -0.4549 -0.0726 -0.0044
 3626TIP3    H110884   4.994   4.445   2.807  1.3145  0.9710  2.4201
 3626TIP3    H210885   4.959   4.432   2.954 -3.0469 -1.2997  1.3365
 3627TIP3   OH210886   4.439   1.181   4.664 -0.5861  0.2214 -0.3527
 3627TIP3    H110887   4.477   1.209   4.747  0.6882 -1.1512 -0.4429
 3627TIP3    H210888   4.511   1.185   4.601 -0.7695 -1.5462 -0.7263
 3628TIP3   OH210889   2.636   3.979   2.708  0.1472  0.5671 -0.0703
 3628TIP3    H110890   2.559   4.021   2.669 -0.8975 -0.1600  1.1400
 3628TIP3    H210891   2.666   4.040   2.775  0.0595  0.4441  0.0825
 3629TIP3   OH210892   1.990   5.477   4.353  0.7060  0.5611  0.1279
 3629TIP3    H110893   1.969   5.403   4.296  0.8050 -0.5620  1.5016
 3629TIP3    H210894   2.084   5.490   4.340  1.2402 -1.2222  1.6935
 3630TIP3   OH210895   2.281   4.968   4.700 -0.1580 -0.3164  0.4227
 3630TIP3    H110896   2.372   4.951   4.674 -0.0825  1.0035 -0.2724
 3630TIP3    H210897   2.284   5.055   4.740 -0.8254 -1.0174  2.0467
 3631TIP3   OH210898   5.925   0.332   0.566  0.6781 -0.3218  0.3948
 3631TIP3    H110899   5.897   0.245   0.595  0.4664 -0.2157  0.5059
 3631TIP3    H210900   5.910   0.389   0.641 -2.2606  0.4786 -0.6786
 3632TIP3   OH210901   5.020   1.494   0.980  0.1637  0.2556  0.0636
 3632TIP3    H110902   5.017   1.541   0.896  1.5900  0.7912  0.2843
 3632TIP3    H210903   4.968   1.549   1.039  0.9328  1.0085  0.0526
 3633TIP3   OH210904   6.121   4.309   0.965 -0.0529  0.1579  0.5616
 3633TIP3    H110905   6.201   4.353   0.994 -0.5620  0.4112  1.6499
 3633TIP3    H210906   6.052   4.373   0.980 -0.4573 -0.0101 -0.4859
 3634TIP3   OH210907   0.732   2.624   0.283 -0.5355 -0.1563  0.6116
 3634TIP3    H110908   0.701   2.713   0.302 -0.2345 -0.4367  2.6294
 3634TIP3    H210909   0.709   2.574   0.360  1.5988 -1.2432  0.6037
 3635TIP3   OH210910   5.758   4.146   0.256 -0.0088 -0.1114  0.5528
 3635TIP3    H110911   5.773   4.066   0.205 -0.2135  1.2575 -1.7715
 3635TIP3    H210912   5.839   4.196   0.245 -0.5376  0.7523  0.5300
 3636TIP3   OH210913   3.227   4.710   4.243  0.1717  0.0780  0.3328
 3636TIP3    H110914   3.205   4.643   4.179 -1.6240  1.7668 -0.9301
 3636TIP3    H210915   3.211   4.668   4.328  2.5477 -2.1844 -0.2255
 3637TIP3   OH210916   3.272   1.487   0.429  0.5126 -0.4963 -0.2994
 3637TIP3    H110917   3.229   1.557   0.378 -1.2584 -1.7488 -0.6466
 3637TIP3    H210918   3.313   1.532   0.502 -0.9846  0.8820 -0.2493
 3638TIP3   OH210919   4.493   2.157   3.271  0.6848 -0.4075  0.4000
 3638TIP3    H110920   4.465   2.109   3.193 -1.7183 -0.2711  1.0912
 3638TIP3    H210921   4.435   2.124   3.341 -0.4198  2.7194  1.1048
 3639TIP3   OH210922   0.512   0.490   1.576  0.0716  0.3057 -0.7145
 3639TIP3    H110923   0.449   0.456   1.511 -0.6006  0.3280 -0.0852
 3639TIP3    H210924   0.508   0.585   1.564  0.9101  0.2538 -1.5134
 3640TIP3   OH210925   0.824   5.503   4.249  0.4707  0.0337  0.5064
 3640TIP3    H110926   0.893   5.548   4.297 -0.3672  0.8826  0.9687
 3640TIP3    H210927   0.771   5.460   4.316 -0.1556  0.4261  0.2754
 3641TIP3   OH210928   5.180   4.273   1.966  0.4064 -0.2872 -0.2452
 3641TIP3    H110929   5.269   4.307   1.976  0.3233 -0.1043 -0.1163
 3641TIP3    H210930   5.190   4.178   1.960  0.3836 -0.6056  3.0305
 3642TIP3   OH210931   3.078   5.180   4.016  0.5717  0.1884  0.0978
 3642TIP3    H110932   3.059   5.260   4.066  0.1359  1.1177 -1.4729
 3642TIP3    H210933   3.172   5.168   4.027  0.7102  1.1335  0.0729
 3643TIP3   OH210934   2.670   2.394   2.156  0.2048 -0.7626  0.3418
 3643TIP3    H110935   2.741   2.366   2.097  0.9797 -1.6609  1.6322
 3643TIP3    H210936   2.700   2.366   2.242 -0.6565  0.9957  1.2443
 3644TIP3   OH210937   1.407   0.367   4.476  0.3643  0.2080  0.3828
 3644TIP3    H110938   1.353   0.289   4.483 -0.0137  0.5046  0.7497
 3644TIP3    H210939   1.467   0.361   4.550 -0.6028  0.9861  1.2534
 3645TIP3   OH210940   1.513   2.663   4.566 -0.4483 -0.4463 -0.1657
 3645TIP3    H110941   1.572   2.697   4.634  0.7322 -1.0435 -0.8668
 3645TIP3    H210942   1.439   2.724   4.567  0.7664  1.1112 -0.1682
 3646TIP3   OH210943   4.615   3.087   1.427 -0.2216 -0.1474  0.0944
 3646TIP3    H110944   4.658   3.060   1.345 -0.3038  1.8469 -0.6477
 3646TIP3    H210945   4.685   3.127   1.478 -0.8644  2.1186 -0.6653
 3647TIP3   OH210946   0.783   1.088   2.851 -0.4915  0.1276  0.0710
 3647TIP3    H110947   0.769   1.134   2.934  0.5341 -1.0197  0.9078
 3647TIP3    H210948   0.756   0.998   2.868  1.0322 -0.4576 -0.3902
 3648TIP3   OH210949   1.234   4.252   2.049 -0.1946 -0.0633  0.3235
 3648TIP3    H110950   1.278   4.272   1.967 -1.0270 -1.0060 -0.3774
 3648TIP3    H210951   1.295   4.194   2.095  0.6986  1.2316  0.8301
 3649TIP3   OH210952   1.461   2.716   0.833 -0.4882  0.3490 -0.2236
 3649TIP3    H110953   1.499   2.802   0.815  1.2060 -0.3670 -0.3165
 3649TIP3    H210954   1.423   2.688   0.750  1.2861 -0.0646 -0.9496
 3650TIP3   OH210955   6.081   2.489   3.870 -0.0913  0.4564 -0.1107
 3650TIP3    H110956   5.990   2.470   3.849 -0.2509  1.5729 -0.4908
 3650TIP3    H210957   6.131   2.426   3.819 -0.6457 -0.1482  0.0767
 3651TIP3   OH210958   6.209   5.407   2.232 -0.3672  1.0815  0.3955
 3651TIP3    H110959   6.283   5.352   2.207 -2.1342 -1.6718  0.6752
 3651TIP3    H210960   6.187   5.457   2.153 -0.3059 -0.6668 -0.7779
 3652TIP3   OH210961   2.311   4.396   4.413 -0.4093 -0.1235  0.5048
 3652TIP3    H110962   2.340   4.465   4.353 -0.5328  0.2428  0.8617
 3652TIP3    H210963   2.218   4.385   4.394 -0.0794 -1.2656 -0.6063
 3653TIP3   OH210964   5.265   2.208   1.622  0.0483 -0.4884 -0.4708
 3653TIP3    H110965   5.286   2.125   1.666 -0.3299 -0.1831  0.3123
 3653TIP3    H210966   5.170   2.208   1.614  0.0081  0.0328 -0.1049
 3654TIP3   OH210967   0.955   3.556   1.035 -0.3022 -0.2680  0.1698
 3654TIP3    H110968   0.969   3.621   1.103  1.6638 -0.7741  0.3003
 3654TIP3    H210969   0.974   3.602   0.953  0.4950 -0.5078  0.2165
 3655TIP3   OH210970   1.824   4.153   1.159 -0.6126 -0.4285  0.2565
 3655TIP3    H110971   1.814   4.233   1.211 -0.2899 -0.9851  1.1958
 3655TIP3    H210972   1.742   4.146   1.110 -1.3355 -0.3830  1.4052
 3656TIP3   OH210973   3.293   3.429   3.202 -0.5060 -0.3828 -0.6907
 3656TIP3    H110974   3.217   3.374   3.182 -1.8649  0.9054  0.6960
 3656TIP3    H210975   3.282   3.453   3.294  1.5842 -0.1282 -0.4691
 3657TIP3   OH210976   3.867   5.528   0.901 -0.2181 -0.0130  0.2300
 3657TIP3    H110977   3.877   5.593   0.971  0.5575 -0.9742  1.0375
 3657TIP3    H210978   3.956   5.514   0.869 -0.2078 -1.5160  0.8597
 3658TIP3   OH210979   2.822   2.124   5.073  0.1096  0.1775 -0.2130
 3658TIP3    H110980   2.845   2.083   4.989 -0.6508  0.9210 -0.8029
 3658TIP3    H210981   2.729   2.101   5.085  0.2675 -0.0881  0.5297
 3659TIP3   OH210982   2.319   3.376   3.203 -0.3467 -0.2206 -0.2607
 3659TIP3    H110983   2.329   3.468   3.230 -0.4943 -0.2899  0.0227
 3659TIP3    H210984   2.340   3.378   3.109  1.1873 -0.1645  0.0552
 3660TIP3   OH210985   5.414   2.141   1.366  0.3001 -0.6202  0.2423
 3660TIP3    H110986   5.328   2.128   1.407 -0.3892  1.4867 -0.4249
 3660TIP3    H210987   5.399   2.123   1.273  0.6139 -0.3438  0.1373
 3661TIP3   OH210988   6.312   0.869   0.908  0.3612  0.7040  0.1092
 3661TIP3    H110989   6.235   0.842   0.858 -0.0091 -1.2500  1.6250
 3661TIP3    H210990   6.384   0.821   0.868  0.1177 -0.5841  1.1176
 3662TIP3   OH210991   6.166   3.090   0.491  0.9726  0.1511 -0.1504
 3662TIP3    H110992   6.126   3.091   0.578 -0.6228 -3.0372 -0.7186
 3662TIP3    H210993   6.098   3.126   0.434  1.3535  0.6239 -0.3051
 3663TIP3   OH210994   5.499   4.810   2.975  0.0608 -0.2923 -0.4466
 3663TIP3    H110995   5.480   4.744   2.908  2.0805  0.3708 -1.7690
 3663TIP3    H210996   5.595   4.810   2.983  0.0688  1.8064  0.1780
 3664TIP3   OH210997   2.505   0.406   2.293  0.0107 -0.1565  0.1419
 3664TIP3    H110998   2.580   0.447   2.336 -0.7223 -0.1374  1.4865
 3664TIP3    H210999   2.504   0.316   2.327 -0.3944 -0.2440 -0.0897
 3665TIP3   OH211000   4.955   4.635   2.123  0.4525  0.2462  0.7232
 3665TIP3    H111001   4.912   4.657   2.205 -1.5521 -1.6156  0.2899
 3665TIP3    H211002   4.972   4.541   2.130  2.8786  0.5688  0.0928
 3666TIP3   OH211003   5.839   4.523   3.512  0.0515 -0.3904  0.2793
 3666TIP3    H111004   5.930   4.552   3.519 -0.0392  0.2668 -0.9331
 3666TIP3    H211005   5.789   4.604   3.506 -0.3242 -0.7106 -1.9753
 3667TIP3   OH211006   0.750   3.193   2.505 -0.0861  0.0740 -0.3012
 3667TIP3    H111007   0.767   3.152   2.590  0.3177 -0.6734 -0.7259
 3667TIP3    H211008   0.660   3.167   2.484  0.6330 -1.8607 -1.2194
 3668TIP3   OH211009   3.594   2.029   1.777  0.9548  0.2437  0.2366
 3668TIP3    H111010   3.517   2.077   1.745  0.8502  0.6415  1.0468
 3668TIP3    H211011   3.628   1.984   1.700  0.9046  1.4250 -0.5048
 3669TIP3   OH211012   0.251   5.474   4.681 -0.5576  0.3316 -0.4632
 3669TIP3    H111013   0.292   5.540   4.625  0.2730  0.4156  0.2315
 3669TIP3    H211014   0.202   5.524   4.746  1.6890  0.3915  1.3160
 3670TIP3   OH211015   2.827   5.931   5.056  0.3407  0.8002  0.9050
 3670TIP3    H111016   2.841   5.847   5.011  0.1052  0.7835  0.8623
 3670TIP3    H211017   2.749   5.917   5.109  0.1774  1.0595  0.7344
 3671TIP3   OH211018   0.567   2.392   4.148  0.0828 -0.1325 -0.2916
 3671TIP3    H111019   0.537   2.322   4.206 -2.0044  0.6378 -0.3549
 3671TIP3    H211020   0.611   2.455   4.206  1.3783 -1.1265 -0.1422
 3672TIP3   OH211021   0.239   3.141   3.004  0.0692  0.1841  0.2048
 3672TIP3    H111022   0.318   3.092   3.028 -0.9411 -1.8731 -0.5321
 3672TIP3    H211023   0.219   3.113   2.915 -1.5299  0.6551  0.3890
 3673TIP3   OH211024   2.706   0.911   1.015  0.7549 -0.2930  0.2140
 3673TIP3    H111025   2.713   1.003   1.038  0.3925  0.0966 -1.1434
 3673TIP3    H211026   2.650   0.909   0.938  0.6311 -1.6674  0.3077
 3674TIP3   OH211027   3.773   0.171   4.708  0.2952 -0.0984 -0.4457
 3674TIP3    H111028   3.737   0.083   4.719 -0.3680 -0.0346 -1.9149
 3674TIP3    H211029   3.803   0.196   4.795 -1.6033 -0.8622  0.4655
 3675TIP3   OH211030   0.029   4.231   3.561 -1.0395  0.3818 -0.3320
 3675TIP3    H111031   0.058   4.320   3.543 -1.8424  0.8385  0.5492
 3675TIP3    H211032  -0.055   4.241   3.605  0.3544 -0.6197  2.8886
 3676TIP3   OH211033   0.995   5.853   0.921 -0.1418 -0.0101  0.8666
 3676TIP3    H111034   1.038   5.845   1.006 -0.3657  0.6685  1.0519
 3676TIP3    H211035   0.943   5.773   0.912  1.1014 -0.8227  0.6599
 3677TIP3   OH211036   5.299   2.789   3.786  0.0176 -0.1552  0.0576
 3677TIP3    H111037   5.229   2.773   3.723  0.9078 -2.3092 -0.4700
 3677TIP3    H211038   5.357   2.851   3.743  0.7222 -1.7472 -1.4211
 3678TIP3   OH211039   1.494   3.338   1.329  0.6202  0.9434 -0.2782
 3678TIP3    H111040   1.442   3.376   1.258 -0.8386  1.7359  1.1519
 3678TIP3    H211041   1.508   3.410   1.390 -0.7990 -0.3333  1.7110
 3679TIP3   OH211042   5.763   0.211   2.494  0.0294  0.4692 -0.2892
 3679TIP3    H111043   5.752   0.225   2.400 -1.0394 -3.0791 -0.8560
 3679TIP3    H211044   5.674   0.196   2.526  0.4130  1.3111  1.2924
 3680TIP3   OH211045   2.744   0.292   1.283  0.1921  0.2264  0.1281
 3680TIP3    H111046   2.831   0.327   1.303 -0.5952  1.5204  1.5028
 3680TIP3    H211047   2.709   0.350   1.215 -0.7459  1.6519  1.7450
 3681TIP3   OH211048   1.603   1.979   1.959  0.1719 -0.2711 -0.3816
 3681TIP3    H111049   1.547   2.037   1.908 -0.4040 -0.4953 -0.0069
 3681TIP3    H211050   1.684   1.972   1.907 -0.1299  0.0785 -0.9043
 3682TIP3   OH211051   2.509   4.672   0.457  0.0712  0.7073 -0.0482
 3682TIP3    H111052   2.558   4.753   0.448 -0.6558  0.9392 -2.5799
 3682TIP3    H211053   2.418   4.698   0.448 -0.2630 -0.2232  0.5366
 3683TIP3   OH211054   3.138   4.902   2.405 -0.0607 -0.9149  0.3773
 3683TIP3    H111055   3.048   4.878   2.385 -0.1278 -0.3522 -0.0434
 3683TIP3    H211056   3.174   4.933   2.321  0.4014 -0.7709  0.6214
 3684TIP3   OH211057   3.911   2.224   2.880  0.3645  0.0140 -0.0740
 3684TIP3    H111058   3.957   2.231   2.797  0.5777 -1.7048 -0.1431
 3684TIP3    H211059   3.818   2.226   2.856  0.3750  2.0106 -0.0774
 3685TIP3   OH211060   1.653   5.612   1.272  0.0450  0.3019 -0.3530
 3685TIP3    H111061   1.664   5.706   1.287 -0.2334  0.1910  0.6027
 3685TIP3    H211062   1.695   5.597   1.187  0.3182  1.2425 -0.4031
 3686TIP3   OH211063   4.045   2.066   4.647  0.5592 -0.1630  0.0551
 3686TIP3    H111064   3.975   2.005   4.669  0.9565 -0.6760 -0.0847
 3686TIP3    H211065   4.050   2.125   4.722 -0.0701 -0.0749  0.0290
 3687TIP3   OH211066   3.039   0.022   2.470 -0.0922 -0.2783 -0.1778
 3687TIP3    H111067   2.964   0.031   2.411  0.1226 -0.5398 -0.5013
 3687TIP3    H211068   3.101   0.090   2.441 -0.3062  0.1015  0.2503
 3688TIP3   OH211069   5.414   4.071   3.259 -0.7204  0.0582 -0.4229
 3688TIP3    H111070   5.435   3.994   3.312  1.3994  0.1880 -0.9872
 3688TIP3    H211071   5.328   4.051   3.221 -1.0644 -1.1840  0.9224
 3689TIP3   OH211072   1.701   0.155   1.311 -0.2665  0.3445  0.4590
 3689TIP3    H111073   1.699   0.209   1.232 -3.1907 -0.7562 -0.3296
 3689TIP3    H211074   1.750   0.077   1.286 -0.1431  0.5298  0.1219
 3690TIP3   OH211075   5.693   1.269   3.914 -0.4403 -0.5066  0.2851
 3690TIP3    H111076   5.723   1.299   3.828 -1.2822  1.3641  0.5814
 3690TIP3    H211077   5.646   1.188   3.897  0.1578 -0.6226 -0.9005
 3691TIP3   OH211078   1.677   2.393   4.222 -0.2646 -0.1709 -0.0771
 3691TIP3    H111079   1.679   2.467   4.162 -2.4454  0.5496  0.6287
 3691TIP3    H211080   1.587   2.360   4.217 -0.8167  0.4586  3.3358
 3692TIP3   OH211081   5.421   2.431   1.644 -0.3606  0.4549  0.6314
 3692TIP3    H111082   5.403   2.496   1.576  1.0563  0.6035  0.3653
 3692TIP3    H211083   5.373   2.353   1.616 -0.5810  0.8214 -0.0294
 3693TIP3   OH211084   2.045   4.676   3.528  0.1267  0.3441  0.4377
 3693TIP3    H111085   2.045   4.677   3.623 -2.2826 -3.3258  0.6750
 3693TIP3    H211086   1.973   4.734   3.502  1.5544  2.3277  0.6588
 3694TIP3   OH211087   5.133   5.148   4.872 -0.5291 -0.6066 -0.3186
 3694TIP3    H111088   5.066   5.090   4.907  0.8629 -1.8758  0.3522
 3694TIP3    H211089   5.215   5.115   4.909  0.2894  2.1606  0.5522
 3695TIP3   OH211090   2.075   3.284   1.177 -0.0134 -0.5031 -0.3097
 3695TIP3    H111091   2.035   3.371   1.185 -0.3274 -0.7847  1.7725
 3695TIP3    H211092   2.169   3.300   1.183 -0.0504 -0.2514 -0.4053
 3696TIP3   OH211093   2.828   3.494   2.436 -0.4659 -0.0587 -0.8617
 3696TIP3    H111094   2.783   3.578   2.449  0.0018 -0.0968  1.3500
 3696TIP3    H211095   2.898   3.494   2.501 -1.5349 -2.8974  0.4718
 3697TIP3   OH211096   4.612   4.418   2.178 -0.0599 -0.0912  0.7449
 3697TIP3    H111097   4.696   4.401   2.221  1.2224  0.7940 -1.2598
 3697TIP3    H211098   4.569   4.332   2.175  2.3696 -1.3938 -1.3238
 3698TIP3   OH211099   4.507   1.788   3.273 -0.2690 -0.3626  0.4011
 3698TIP3    H111100   4.525   1.696   3.293 -0.6694 -0.5603 -0.1129
 3698TIP3    H211101   4.507   1.792   3.178 -1.6875 -0.1391  0.3774
 3699TIP3   OH211102   0.040   3.323   2.081 -0.5554  0.3901  0.2772
 3699TIP3    H111103  -0.018   3.371   2.022 -1.9182 -1.2983  0.1787
 3699TIP3    H211104   0.045   3.379   2.159 -0.3049  1.7124 -0.6468
 3700TIP3   OH211105   5.163   1.880   1.953  0.5580 -0.3268 -0.3830
 3700TIP3    H111106   5.196   1.863   1.864  0.6827 -0.8239 -0.2460
 3700TIP3    H211107   5.216   1.953   1.985  2.0559 -1.5818  0.1097
 3701TIP3   OH211108   3.353   1.611   3.973  0.1821 -0.3079 -0.9819
 3701TIP3    H111109   3.298   1.686   3.994 -1.0405 -1.3693 -0.2303
 3701TIP3    H211110   3.434   1.649   3.939 -0.2707  1.3452 -0.3094
 3702TIP3   OH211111   4.333   2.060   0.861 -0.0060  0.6436 -0.3127
 3702TIP3    H111112   4.365   2.109   0.785  0.6295  0.6911 -0.0220
 3702TIP3    H211113   4.320   2.127   0.928 -1.6053  0.7555 -0.6966
 3703TIP3   OH211114   1.926   5.623   0.239 -0.1231 -0.4522 -0.1445
 3703TIP3    H111115   1.934   5.699   0.181 -0.4020 -0.6369 -0.4255
 3703TIP3    H211116   1.843   5.636   0.284 -0.4681 -0.9042 -0.6479
 3704TIP3   OH211117   2.021   5.221   3.808 -0.2991  0.9221 -0.3555
 3704TIP3    H111118   2.006   5.315   3.821  0.9303  1.1503 -0.4748
 3704TIP3    H211119   2.010   5.209   3.713  1.4988  1.3473 -0.6499
 3705TIP3   OH211120   4.240   0.899   2.276 -0.4059 -0.4397  0.2769
 3705TIP3    H111121   4.233   0.994   2.286  0.7192 -0.2650 -0.4049
 3705TIP3    H211122   4.198   0.880   2.192  2.9835  0.0775 -1.7529
 3706TIP3   OH211123   2.970   3.153   4.585 -0.2006  0.1380  0.0178
 3706TIP3    H111124   2.965   3.168   4.490 -3.0746  0.2736  0.1174
 3706TIP3    H211125   3.048   3.202   4.612  2.5447 -2.2902 -2.6067
 3707TIP3   OH211126   2.679   1.205   2.275  0.0156  0.2365  0.0365
 3707TIP3    H111127   2.757   1.150   2.276 -0.1999 -0.1722 -1.7693
 3707TIP3    H211128   2.708   1.289   2.312  1.0673 -0.1966  0.2266
 3708TIP3   OH211129   0.507   2.406   1.244 -0.3316  0.6519  0.2053
 3708TIP3    H111130   0.588   2.457   1.240  0.3478 -0.3727  0.4161
 3708TIP3    H211131   0.438   2.469   1.224  0.6663  1.1558 -1.9614
 3709TIP3   OH211132   3.938   2.100   0.157  0.1669 -0.2251 -0.4087
 3709TIP3    H111133   3.990   2.021   0.141  1.0523  0.4298 -0.7963
 3709TIP3    H211134   3.854   2.066   0.189  0.6524 -1.3104 -0.2216
 3710TIP3   OH211135   2.957   5.626   4.371 -0.0079 -0.5299 -0.1875
 3710TIP3    H111136   2.958   5.707   4.421  1.6583  0.0207 -1.0266
 3710TIP3    H211137   2.917   5.648   4.288 -2.0292 -1.2528  0.5414
 3711TIP3   OH211138   2.566   3.731   2.800  0.0278 -0.1715  0.0651
 3711TIP3    H111139   2.625   3.713   2.873  2.0860 -0.2011 -1.5337
 3711TIP3    H211140   2.587   3.821   2.773 -0.0543 -0.4805 -1.0667
 3712TIP3   OH211141   5.327   2.109   1.990 -0.2576 -0.4036  0.2351
 3712TIP3    H111142   5.421   2.093   2.004 -0.1181  1.0164  1.1190
 3712TIP3    H211143   5.316   2.203   2.005 -2.1481 -0.8525  2.1905
 3713TIP3   OH211144   5.136   3.359   1.783  0.0404  0.0757  0.9490
 3713TIP3    H111145   5.226   3.391   1.788  0.3563 -0.8553  1.4177
 3713TIP3    H211146   5.118   3.324   1.870 -1.3993  1.8111  1.4260
 3714TIP3   OH211147   3.344   5.763   1.251 -0.4672 -0.2847  0.1192
 3714TIP3    H111148   3.344   5.835   1.314  3.6171 -0.5226  0.6396
 3714TIP3    H211149   3.343   5.684   1.305 -0.1552 -0.5303 -0.2325
 3715TIP3   OH211150   2.702   1.220   0.892 -0.4152  0.3442 -0.5191
 3715TIP3    H111151   2.682   1.207   0.799  0.2397  1.4606 -0.8472
 3715TIP3    H211152   2.624   1.191   0.938 -0.5956 -0.6091 -1.3935
 3716TIP3   OH211153   5.043   0.323   5.076  0.1976  0.0227  0.0627
 3716TIP3    H111154   4.970   0.363   5.028  0.2565  0.5740  0.4339
 3716TIP3    H211155   5.026   0.343   5.168  1.3081  0.9615  0.0813
 3717TIP3   OH211156   3.872   5.113   0.106  0.4992 -0.4002  0.6990
 3717TIP3    H111157   3.797   5.093   0.049  1.0116 -0.5871  0.0816
 3717TIP3    H211158   3.834   5.120   0.193 -0.0215 -2.0207  0.6316
 3718TIP3   OH211159   5.669   1.675   0.618 -0.0773  0.8171  0.4920
 3718TIP3    H111160   5.652   1.658   0.711 -1.0034  1.3912  0.4393
 3718TIP3    H211161   5.667   1.770   0.610 -2.4932  0.7500 -0.5197
 3719TIP3   OH211162   0.378   2.275   0.596  0.2235  0.0193 -0.0497
 3719TIP3    H111163   0.415   2.255   0.681  1.0227 -0.1307 -0.4288
 3719TIP3    H211164   0.284   2.284   0.612  0.6577  3.5027  1.5439
 3720TIP3   OH211165   1.146   0.389   1.959  0.2676 -0.6355 -0.6044
 3720TIP3    H111166   1.175   0.307   1.921 -0.6495 -1.3263  0.1245
 3720TIP3    H211167   1.208   0.406   2.031  0.3484 -0.7833 -0.6398
 3721TIP3   OH211168   0.925   3.402   2.099 -1.3121 -0.2202  0.0926
 3721TIP3    H111169   1.020   3.400   2.109 -1.2657  1.5508  0.3702
 3721TIP3    H211170   0.898   3.311   2.106  0.5523 -1.0368 -2.1832
 3722TIP3   OH211171   6.237   1.982   3.916 -0.1069 -0.0328  0.7158
 3722TIP3    H111172   6.144   1.959   3.907  0.2080 -0.8597 -0.6212
 3722TIP3    H211173   6.244   2.068   3.875  0.0070 -0.7014 -0.7149
 3723TIP3   OH211174   0.378   5.433   5.140  0.2034  0.7264  0.1675
 3723TIP3    H111175   0.364   5.466   5.229  0.9228 -0.0869  0.5986
 3723TIP3    H211176   0.434   5.356   5.151  0.3538  0.6438 -0.9987
 3724TIP3   OH211177   2.647   3.920   1.380  0.7746  0.1305  0.7926
 3724TIP3    H111178   2.615   4.002   1.417 -2.1454 -1.2217  1.5890
 3724TIP3    H211179   2.606   3.915   1.294  0.7923 -0.5289  0.8111
 3725TIP3   OH211180   3.716   5.892   2.701  0.8605  0.3545 -0.3876
 3725TIP3    H111181   3.718   5.866   2.793 -0.8485 -1.1737 -0.7281
 3725TIP3    H211182   3.675   5.978   2.701  0.7044  0.2849  0.2707
 3726TIP3   OH211183   3.279   0.218   2.661  0.1176 -0.0564 -0.0154
 3726TIP3    H111184   3.244   0.171   2.736 -1.2362 -1.9165 -1.7158
 3726TIP3    H211185   3.208   0.275   2.633 -0.1393 -0.8805 -1.0811
 3727TIP3   OH211186   3.145   2.786   0.909  0.1097 -0.2111  0.5977
 3727TIP3    H111187   3.195   2.781   0.990  0.3543  2.6271  0.7400
 3727TIP3    H211188   3.055   2.805   0.938  0.4680  2.3052  0.2745
 3728TIP3   OH211189   3.460   0.082   1.110 -0.0409 -0.3750  0.0864
 3728TIP3    H111190   3.457   0.061   1.204  2.1304  0.4938  0.3974
 3728TIP3    H211191   3.467   0.177   1.107  1.0657 -0.4711 -0.9170
 3729TIP3   OH211192   1.785   1.650   3.756  0.4573  0.7095  0.3363
 3729TIP3    H111193   1.856   1.691   3.806  0.2028  0.6628  0.7377
 3729TIP3    H211194   1.731   1.724   3.728  0.8331  0.7727 -0.2398
 3730TIP3   OH211195   5.092   3.502   3.658 -0.1170 -0.3129  0.0979
 3730TIP3    H111196   5.168   3.483   3.713  0.4342  0.2491 -0.4580
 3730TIP3    H211197   5.073   3.419   3.614  0.3222 -0.3908  0.0530
 3731TIP3   OH211198   0.220   2.663   4.853 -0.0806  0.2099  0.5855
 3731TIP3    H111199   0.238   2.728   4.784 -0.7479  0.6090  0.7808
 3731TIP3    H211200   0.305   2.646   4.893  0.0674  1.1314  0.6736
 3732TIP3   OH211201   4.250   3.032   1.962  0.1966 -0.1097 -0.5477
 3732TIP3    H111202   4.213   2.970   2.025 -1.3474 -0.0699 -1.3838
 3732TIP3    H211203   4.336   2.995   1.942 -0.6023 -1.9136 -0.8743
 3733TIP3   OH211204   5.563   3.470   1.599  0.4889  0.2193 -0.4324
 3733TIP3    H111205   5.644   3.425   1.576  0.5538  0.9725 -1.8559
 3733TIP3    H211206   5.581   3.562   1.579  0.0296  0.7611  1.4228
 3734TIP3   OH211207   1.494   0.955   4.910  0.5191  0.0173  0.2770
 3734TIP3    H111208   1.526   0.916   4.829 -0.7926 -2.5941  0.9184
 3734TIP3    H211209   1.519   0.893   4.978 -0.2929  1.0828  1.5989
 3735TIP3   OH211210   3.445   4.616   4.058 -0.1298  0.3502  0.3170
 3735TIP3    H111211   3.412   4.632   3.970  0.2009  1.1603  0.3308
 3735TIP3    H211212   3.418   4.693   4.108  1.0540  0.6507  0.5200
 3736TIP3   OH211213   4.940   4.205   5.137  0.5527 -0.1375 -0.1758
 3736TIP3    H111214   4.875   4.159   5.191  0.6772 -0.5672 -0.3876
 3736TIP3    H211215   4.967   4.279   5.190 -1.4834  1.1426 -0.8039
 3737TIP3   OH211216   0.646   5.900   1.184 -0.1651  0.2111 -0.2132
 3737TIP3    H111217   0.642   5.954   1.106 -1.4344  1.4586  0.6531
 3737TIP3    H211218   0.716   5.939   1.236 -0.4526  0.4649 -0.0062
 3738TIP3   OH211219   2.277   3.928   1.487  0.3140 -0.3628 -0.6600
 3738TIP3    H111220   2.331   3.969   1.554 -0.5209  0.8100 -0.6715
 3738TIP3    H211221   2.311   3.962   1.404 -0.3004  0.2281 -0.6770
 3739TIP3   OH211222   4.301   5.932   2.040  0.2992  0.2548  0.0593
 3739TIP3    H111223   4.321   6.016   2.000 -0.0511 -0.2719 -1.2882
 3739TIP3    H211224   4.256   5.883   1.971 -0.4803 -0.6396  1.1760
 3740TIP3   OH211225   4.088   1.507   2.981  0.0945  0.5977  0.6268
 3740TIP3    H111226   4.158   1.552   3.028  1.1564 -0.5503  0.2043
 3740TIP3    H211227   4.115   1.507   2.890  0.0434 -0.6838  0.5870
 3741TIP3   OH211228   4.842   3.875   1.397 -0.9173 -0.1981  0.4764
 3741TIP3    H111229   4.780   3.860   1.326 -1.5465  3.1045  0.1758
 3741TIP3    H211230   4.815   3.958   1.435  2.2151  0.4610  1.5520
 3742TIP3   OH211231   0.703   2.074   2.420  0.1231 -0.9588 -0.3605
 3742TIP3    H111232   0.674   2.120   2.499 -0.3321 -2.1311  0.1870
 3742TIP3    H211233   0.621   2.048   2.377  0.3709 -0.9572 -0.8351
 3743TIP3   OH211234   1.256   0.746   4.295  0.0447  0.1815  0.0146
 3743TIP3    H111235   1.310   0.790   4.230  0.1420  1.1284  0.7187
 3743TIP3    H211236   1.199   0.688   4.244 -1.4198  2.5004 -1.1549
 3744TIP3   OH211237   4.015   5.934   3.412  0.1751  0.2360 -0.5099
 3744TIP3    H111238   4.065   5.976   3.342  2.0038  2.1196  1.7472
 3744TIP3    H211239   4.060   5.961   3.493 -1.5102 -2.2176  1.3909
 3745TIP3   OH211240   2.219   1.463   0.322 -0.1221 -0.1797  0.0304
 3745TIP3    H111241   2.169   1.401   0.269  0.4223 -0.7667  0.1911
 3745TIP3    H211242   2.178   1.460   0.408 -0.9683  0.7276 -0.3211
 3746TIP3   OH211243   1.919   5.246   0.341 -0.7386  0.3553  0.0947
 3746TIP3    H111244   1.844   5.187   0.345  0.1308 -0.7658  0.4868
 3746TIP3    H211245   1.929   5.266   0.247  0.5424 -2.2903 -0.4127
 3747TIP3   OH211246   5.536   0.640   4.369 -0.0631  0.0459  0.2941
 3747TIP3    H111247   5.603   0.640   4.437 -0.0457 -0.5392  0.2815
 3747TIP3    H211248   5.584   0.654   4.287  0.0741 -0.6286  0.2581
 3748TIP3   OH211249   4.152   1.711   2.435  0.1445 -0.4528  0.4887
 3748TIP3    H111250   4.243   1.730   2.412  0.0684  0.6148  0.9907
 3748TIP3    H211251   4.147   1.728   2.529 -0.8793  0.8276  0.2349
 3749TIP3   OH211252   0.089   1.346   1.021  0.3457  0.2983  0.6480
 3749TIP3    H111253   0.167   1.402   1.016 -0.1083  0.8502 -0.7647
 3749TIP3    H211254   0.081   1.325   1.114  3.5060 -1.7297  0.6264
 3750TIP3   OH211255   1.154   4.373   3.878  0.6705  0.1004 -0.3872
 3750TIP3    H111256   1.179   4.371   3.971 -1.6809 -0.4777  0.3054
 3750TIP3    H211257   1.103   4.293   3.866  0.9162  0.1747 -2.2108
 3751TIP3   OH211258   1.182   1.469   0.603  0.6220  0.7741 -0.0135
 3751TIP3    H111259   1.216   1.403   0.542 -0.0280  0.4048  0.0142
 3751TIP3    H211260   1.255   1.530   0.615  1.2301  0.0745 -0.0541
 3752TIP3   OH211261   3.555   5.124   4.893 -0.2618  0.3743  0.4604
 3752TIP3    H111262   3.518   5.142   4.979  0.0484  0.8266  0.5064
 3752TIP3    H211263   3.649   5.139   4.904 -0.1280 -0.2397  0.2167
 3753TIP3   OH211264   4.743   2.428   2.123 -0.3125 -0.5679  0.1772
 3753TIP3    H111265   4.673   2.450   2.184 -0.3499 -0.4371  0.0892
 3753TIP3    H211266   4.788   2.354   2.163 -0.9611 -1.1259 -0.1269
 3754TIP3   OH211267   5.820   2.187   2.516 -0.2082 -0.1631 -0.6686
 3754TIP3    H111268   5.870   2.150   2.589 -0.8067  0.7506  0.2396
 3754TIP3    H211269   5.734   2.143   2.522 -0.4821  0.3933 -0.3852
 3755TIP3   OH211270   5.282   1.236   0.706  0.0317 -0.5231  0.6310
 3755TIP3    H111271   5.208   1.217   0.762 -0.6969 -0.9192 -0.4237
 3755TIP3    H211272   5.302   1.152   0.663  1.4864 -0.5718  1.3446
 3756TIP3   OH211273   4.553   3.356   1.674 -0.6493  0.3256 -0.1920
 3756TIP3    H111274   4.560   3.396   1.588 -1.7269  1.3780  0.1964
 3756TIP3    H211275   4.470   3.309   1.672  0.0361 -0.9382 -0.2272
 3757TIP3   OH211276   0.381   5.376   2.102  0.3977  0.3810 -0.1818
 3757TIP3    H111277   0.326   5.452   2.121  0.2855 -0.0582  1.4782
 3757TIP3    H211278   0.425   5.358   2.185 -0.4126 -2.0199 -0.2096
 3758TIP3   OH211279   6.084   3.838   4.729 -0.0208 -0.4777 -0.1642
 3758TIP3    H111280   6.078   3.840   4.825 -0.4303  0.5633 -0.2025
 3758TIP3    H211281   6.178   3.847   4.711  0.2260 -2.0301  0.1407
 3759TIP3   OH211282   1.310   1.568   4.018 -0.2960 -0.1981 -0.4381
 3759TIP3    H111283   1.381   1.631   4.031 -0.7240  0.2407 -0.1938
 3759TIP3    H211284   1.354   1.486   3.996  0.3337 -0.2072  0.7937
 3760TIP3   OH211285   4.660   1.202   4.038  0.2473 -0.6343  0.2672
 3760TIP3    H111286   4.615   1.123   4.069 -0.1550 -1.2095 -1.6344
 3760TIP3    H211287   4.590   1.267   4.029 -0.0289 -1.1146 -1.3760
 3761TIP3   OH211288   0.755   2.316   2.149  0.2861  0.6137 -0.4350
 3761TIP3    H111289   0.665   2.316   2.181  0.4529  4.0492  0.3783
 3761TIP3    H211290   0.748   2.314   2.054 -0.6145  0.2865 -0.3647
 3762TIP3   OH211291   1.937   1.285   0.873  0.7445 -0.2676 -0.1447
 3762TIP3    H111292   1.906   1.237   0.950 -1.2671 -0.2358 -0.8835
 3762TIP3    H211293   1.975   1.217   0.816  0.2911 -0.6032 -0.0510
 3763TIP3   OH211294   5.257   0.269   4.385  0.0984  0.3668  0.4477
 3763TIP3    H111295   5.337   0.221   4.406 -0.1721 -0.6636 -0.7689
 3763TIP3    H211296   5.206   0.266   4.466  1.6732  1.9257  1.5662
 3764TIP3   OH211297   5.755   5.598   3.348  0.1375 -0.2270  0.2275
 3764TIP3    H111298   5.764   5.612   3.253  1.3394  1.4275  0.5333
 3764TIP3    H211299   5.828   5.647   3.386 -0.5398 -0.5626  2.0458
 3765TIP3   OH211300   2.315   1.532   3.200  0.1577  0.6512  0.0764
 3765TIP3    H111301   2.363   1.507   3.120 -0.0165 -1.5451  0.6026
 3765TIP3    H211302   2.275   1.451   3.230 -0.1643  1.5297  2.1635
 3766TIP3   OH211303   3.467   2.442   1.882 -0.0018  0.1245 -0.0588
 3766TIP3    H111304   3.434   2.376   1.943 -1.7831  0.2924 -0.7694
 3766TIP3    H211305   3.463   2.524   1.931 -2.3583  0.4242 -0.5956
 3767TIP3   OH211306   1.057   0.873   0.946 -0.0676  0.0700  0.2471
 3767TIP3    H111307   1.007   0.804   0.990  2.9998 -1.1771  2.0778
 3767TIP3    H211308   1.120   0.827   0.892  0.1477  1.5488 -0.8290
 3768TIP3   OH211309   2.650   0.937   2.564  0.0268  0.2096 -0.1437
 3768TIP3    H111310   2.586   0.992   2.520 -2.1302 -2.0635 -0.0428
 3768TIP3    H211311   2.675   0.871   2.499  0.4051 -0.3825  0.5720
 3769TIP3   OH211312   4.526   0.651   3.426  0.1340  0.0540  0.2104
 3769TIP3    H111313   4.569   0.599   3.357  1.9493  0.1413  1.2092
 3769TIP3    H211314   4.527   0.741   3.393  2.5907  0.3959  0.9717
 3770TIP3   OH211315   1.519   5.641   4.595 -0.2860  0.3515  0.1408
 3770TIP3    H111316   1.538   5.710   4.532 -0.7167  0.2705 -0.0738
 3770TIP3    H211317   1.455   5.584   4.552 -0.8639  0.4999  0.7835
 3771TIP3   OH211318   1.024   5.165   4.090 -0.1053  0.5561  0.5690
 3771TIP3    H111319   1.001   5.206   4.006  0.6300 -0.5335 -0.1993
 3771TIP3    H211320   1.071   5.232   4.138  0.7198  0.7731 -0.4954
 3772TIP3   OH211321   0.618   4.492   4.260  0.3032  0.1467 -0.1481
 3772TIP3    H111322   0.635   4.398   4.274  2.0832  0.1015 -2.2271
 3772TIP3    H211323   0.704   4.533   4.264 -0.3793  1.6357  0.0045
 3773TIP3   OH211324   2.257   2.204   3.197  0.1043 -0.4994 -0.5142
 3773TIP3    H111325   2.317   2.182   3.268  0.5888  0.4036 -0.6295
 3773TIP3    H211326   2.294   2.283   3.159 -0.7735 -0.3427 -1.0511
 3774TIP3   OH211327   4.078   5.224   4.901 -0.3479  0.2741 -0.4628
 3774TIP3    H111328   4.128   5.284   4.955 -0.5363  0.4472 -0.4807
 3774TIP3    H211329   4.126   5.141   4.907  0.3315  0.6067 -1.0331
 3775TIP3   OH211330   1.323   1.633   0.116  0.2822 -0.0747  0.4932
 3775TIP3    H111331   1.231   1.641   0.090  0.9055  0.1515 -1.8522
 3775TIP3    H211332   1.357   1.723   0.115  0.9606 -0.3162 -0.5588
 3776TIP3   OH211333   5.111   1.570   1.732 -0.2726  0.9021  0.7326
 3776TIP3    H111334   5.166   1.507   1.686  1.3923  0.9488  2.5135
 3776TIP3    H211335   5.130   1.654   1.690  1.5618  1.0206  1.6777
 3777TIP3   OH211336   1.695   5.616   0.709 -0.0634  0.5934  0.5347
 3777TIP3    H111337   1.614   5.588   0.754 -0.0705  0.5912  0.5207
 3777TIP3    H211338   1.694   5.712   0.716  0.0676  0.5778  0.7670
 3778TIP3   OH211339   3.705   4.245   0.947  0.3638 -0.0881  0.2176
 3778TIP3    H111340   3.619   4.239   0.988  0.7359 -1.4533  0.8617
 3778TIP3    H211341   3.750   4.314   0.996  0.1693 -0.4553  0.9356
 3779TIP3   OH211342   2.616   1.755   2.015  0.2644  0.1202  0.4857
 3779TIP3    H111343   2.630   1.666   2.046 -1.9187 -0.2772  0.5194
 3779TIP3    H211344   2.702   1.797   2.022  1.8196 -2.4655 -1.3210
 3780TIP3   OH211345   1.841   3.852   4.045  0.1454  0.2868 -0.3918
 3780TIP3    H111346   1.933   3.824   4.048  0.7230  1.8879 -1.8302
 3780TIP3    H211347   1.845   3.948   4.044 -1.5093  0.3770 -1.2068
 3781TIP3   OH211348   3.324   4.296   4.426  0.1058 -0.1489  0.1093
 3781TIP3    H111349   3.288   4.235   4.491 -1.6424 -0.5421 -1.1587
 3781TIP3    H211350   3.274   4.376   4.439  1.6568  0.7206  1.0394
 3782TIP3   OH211351   0.950   4.287   3.145  0.0627 -0.4659  0.0506
 3782TIP3    H111352   1.007   4.363   3.128  0.2012 -0.7851 -0.9487
 3782TIP3    H211353   0.873   4.302   3.090 -0.3791 -0.5488  0.6321
 3783TIP3   OH211354   4.397   5.708   4.197  0.3194 -0.2376 -0.2458
 3783TIP3    H111355   4.460   5.676   4.261 -0.4611  0.3302  0.8328
 3783TIP3    H211356   4.385   5.635   4.136  0.3903 -1.1124  0.7665
 3784TIP3   OH211357   2.026   5.542   3.267  0.5454 -0.4891 -0.1584
 3784TIP3    H111358   2.089   5.614   3.260 -0.4595  0.5137  0.7209
 3784TIP3    H211359   2.019   5.525   3.361 -0.2656 -0.7880 -0.2649
 3785TIP3   OH211360   5.163   1.798   1.610  0.6809 -0.2787 -0.0118
 3785TIP3    H111361   5.168   1.758   1.523  0.7722  0.7811 -0.5065
 3785TIP3    H211362   5.245   1.846   1.620 -0.0043  0.9572 -0.0316
 3786TIP3   OH211363   2.402   3.500   1.339  0.1145  0.2690 -0.4087
 3786TIP3    H111364   2.466   3.542   1.282 -2.2919  2.4585 -1.6570
 3786TIP3    H211365   2.393   3.411   1.303  1.7788  0.1707 -0.6835
 3787TIP3   OH211366   4.439   5.714   2.542  0.4212  0.0966 -0.6157
 3787TIP3    H111367   4.356   5.702   2.588 -0.3467 -0.7218 -2.1438
 3787TIP3    H211368   4.416   5.759   2.461  1.6126  0.6783 -0.6648
 3788TIP3   OH211369   2.461   0.540   3.629 -0.0471  0.1572  0.0787
 3788TIP3    H111370   2.371   0.571   3.643 -0.3321 -0.5881 -0.0310
 3788TIP3    H211371   2.453   0.444   3.631  0.9644  0.0743  1.4968
 3789TIP3   OH211372   0.981   5.810   0.423  0.1175  0.2179  0.4101
 3789TIP3    H111373   0.972   5.900   0.455 -0.2469  0.3644 -0.1014
 3789TIP3    H211374   0.901   5.794   0.373  0.4666 -0.1798 -0.0228
 3790TIP3   OH211375   2.892   3.952   4.953  0.0483  0.6675  0.4339
 3790TIP3    H111376   2.811   3.908   4.977  0.1440  0.5601  0.5622
 3790TIP3    H211377   2.865   4.038   4.919 -0.2839 -0.2040 -1.6544
 3791TIP3   OH211378   1.432   3.114   3.394 -0.3615  0.4854  0.4604
 3791TIP3    H111379   1.380   3.187   3.428  0.3917  1.6394 -0.7859
 3791TIP3    H211380   1.379   3.077   3.323 -0.4906  0.1637  0.7188
 3792TIP3   OH211381   0.972   5.750   2.553 -0.7585  0.5150  0.0884
 3792TIP3    H111382   0.882   5.730   2.580 -0.8402  1.4045  0.5084
 3792TIP3    H211383   0.963   5.821   2.489 -0.3766  0.3664 -0.1332
 3793TIP3   OH211384   2.572   2.996   0.839  0.4763 -0.0330  0.6430
 3793TIP3    H111385   2.619   3.032   0.763 -1.3006 -0.2169 -0.5945
 3793TIP3    H211386   2.489   2.965   0.804 -0.0643 -0.8965  2.5462
 3794TIP3   OH211387   2.685   0.777   1.346 -0.2734 -0.3945 -0.0841
 3794TIP3    H111388   2.654   0.813   1.262  0.0368  1.3440  0.5065
 3794TIP3    H211389   2.747   0.709   1.321 -0.0377  0.2300 -1.2875
 3795TIP3   OH211390   1.914   3.156   1.003 -0.6101  0.1274  0.1940
 3795TIP3    H111391   1.849   3.222   0.977  1.0675  0.8621 -2.6867
 3795TIP3    H211392   1.979   3.205   1.053 -0.3101  0.2672 -0.3268
 3796TIP3   OH211393   0.087   3.701   0.143  0.0162 -0.7557  0.0758
 3796TIP3    H111394   0.024   3.629   0.146  0.5095 -1.2360 -0.5558
 3796TIP3    H211395   0.111   3.717   0.234 -3.1674  1.4166  0.6787
 3797TIP3   OH211396   4.034   4.182   0.727 -0.1668 -0.5501 -0.8678
 3797TIP3    H111397   3.941   4.191   0.703 -0.3393 -0.9179 -0.3376
 3797TIP3    H211398   4.051   4.088   0.724 -0.7597 -0.8876  2.4725
 3798TIP3   OH211399   6.078   0.586   3.256  0.4517  0.1855  0.4593
 3798TIP3    H111400   6.089   0.579   3.351 -0.6481 -1.7693  0.4972
 3798TIP3    H211401   6.043   0.675   3.243 -1.4968 -0.2561  2.1483
 3799TIP3   OH211402   3.137   4.564   4.905 -0.1601  0.3601  0.1180
 3799TIP3    H111403   3.191   4.625   4.855  1.9489 -0.3835  1.3535
 3799TIP3    H211404   3.048   4.581   4.875  0.5771  2.5901 -1.0560
 3800TIP3   OH211405   4.321   5.582   0.553  0.5252  0.0811 -0.4873
 3800TIP3    H111406   4.347   5.573   0.461 -0.3119  0.3848 -0.7571
 3800TIP3    H211407   4.397   5.549   0.602  1.3443  0.7548 -1.2635
 3801TIP3   OH211408   5.921   0.451   4.081 -0.2881  0.1019 -0.0360
 3801TIP3    H111409   5.913   0.523   4.143 -0.2471 -1.3539  1.7403
 3801TIP3    H211410   6.005   0.465   4.038  0.7505 -0.0477  1.8685
 3802TIP3   OH211411   3.868   4.739   1.411 -0.7035  0.0267  0.4624
 3802TIP3    H111412   3.962   4.740   1.426 -0.7912  0.6697  1.0345
 3802TIP3    H211413   3.830   4.748   1.498 -1.3027 -0.3604  0.2518
 3803TIP3   OH211414   1.833   0.867   0.770 -0.2686  0.1127  0.0140
 3803TIP3    H111415   1.747   0.869   0.810  0.5335  1.3447  1.7916
 3803TIP3    H211416   1.828   0.797   0.705 -1.8948 -1.3779  1.6631
 3804TIP3   OH211417   5.349   4.082   3.792  0.2620 -0.0975  0.1132
 3804TIP3    H111418   5.405   4.021   3.745  0.8901  1.5756 -1.4082
 3804TIP3    H211419   5.322   4.034   3.871  0.5064 -2.3968 -1.1183
 3805TIP3   OH211420   2.130   3.566   0.981  0.1246 -0.2431  0.0819
 3805TIP3    H111421   2.190   3.541   0.911 -0.8662 -1.2172 -0.4664
 3805TIP3    H211422   2.178   3.630   1.034  1.4846 -0.7163 -0.5479
 3806TIP3   OH211423   4.612   3.761   4.474 -0.0500 -0.5827 -0.1514
 3806TIP3    H111424   4.590   3.672   4.498 -0.6091 -0.3834  0.0901
 3806TIP3    H211425   4.594   3.813   4.552  0.1066 -0.2314 -0.3425
 3807TIP3   OH211426   3.163   3.881   1.252 -0.1399  0.2963  0.2086
 3807TIP3    H111427   3.071   3.883   1.277 -0.4274  1.1356 -0.8140
 3807TIP3    H211428   3.199   3.962   1.288 -0.1843  0.7309 -0.6887
 3808TIP3   OH211429   3.873   3.961   4.328  0.7694  0.5811 -0.6401
 3808TIP3    H111430   3.821   4.006   4.261  0.5173 -0.2476 -1.0079
 3808TIP3    H211431   3.828   3.979   4.410 -0.7042 -0.9512 -1.0665
 3809TIP3   OH211432   0.467   4.575   1.077 -0.2989 -0.0262  0.0605
 3809TIP3    H111433   0.521   4.654   1.070  0.5269 -0.3973  1.7257
 3809TIP3    H211434   0.383   4.600   1.038 -0.3260  1.9160  1.2327
 3810TIP3   OH211435   1.546   3.604   3.752 -0.2536  0.4314 -0.5100
 3810TIP3    H111436   1.578   3.634   3.837 -1.1948 -0.1557  0.0640
 3810TIP3    H211437   1.472   3.547   3.772 -0.6579  0.4857 -1.7363
 3811TIP3   OH211438   5.749   4.422   4.287 -0.1475  0.3722 -0.1525
 3811TIP3    H111439   5.680   4.364   4.320  0.7197  0.3522  1.7702
 3811TIP3    H211440   5.826   4.365   4.277  0.5855  1.0429  1.3067
 3812TIP3   OH211441   3.649   0.079   2.516  0.2449 -0.4597 -0.0313
 3812TIP3    H111442   3.683   0.006   2.567  1.6040  0.4968  0.4990
 3812TIP3    H211443   3.554   0.070   2.519  0.3834 -1.7888  0.6159
 3813TIP3   OH211444   5.385   5.536   1.184 -0.3362  0.2792  0.1736
 3813TIP3    H111445   5.405   5.483   1.261  2.8696  0.4234 -0.4118
 3813TIP3    H211446   5.405   5.478   1.110 -3.0152  0.2628 -0.6219
 3814TIP3   OH211447   6.126   4.435   2.140 -0.0453 -0.0640  0.1144
 3814TIP3    H111448   6.143   4.434   2.235  0.2675  1.4463  0.1071
 3814TIP3    H211449   6.067   4.510   2.128 -0.7898 -0.7728 -0.7957
 3815TIP3   OH211450   2.305   2.211   1.442 -0.5768 -0.2732  0.0068
 3815TIP3    H111451   2.299   2.272   1.515 -0.4070  1.7531 -1.5861
 3815TIP3    H211452   2.225   2.226   1.391 -0.8914 -1.9351 -0.0572
 3816TIP3   OH211453   4.409   5.681   1.779  0.1457  0.4579 -0.0569
 3816TIP3    H111454   4.443   5.760   1.737 -1.2588  0.1682 -1.8868
 3816TIP3    H211455   4.419   5.612   1.714  0.0219 -0.5608  0.9643
 3817TIP3   OH211456   0.998   1.516   0.822  0.1009  0.0288  0.0824
 3817TIP3    H111457   0.919   1.539   0.773  0.3699  0.9105  0.0382
 3817TIP3    H211458   1.044   1.453   0.766 -1.1294 -1.4136  0.6327
 3818TIP3   OH211459   3.503   3.542   2.956  0.6243 -0.1166 -0.1707
 3818TIP3    H111460   3.552   3.609   2.909 -1.6659 -0.4123 -3.3913
 3818TIP3    H211461   3.413   3.552   2.925 -0.3769 -2.7649  1.4933
 3819TIP3   OH211462   3.078   3.897   0.405  0.2220  0.4196  0.0135
 3819TIP3    H111463   3.085   3.949   0.485  2.6768 -1.7682  1.3907
 3819TIP3    H211464   2.985   3.901   0.381 -0.9934 -0.0742  3.8994
 3820TIP3   OH211465   1.879   3.890   2.862 -0.3610  0.3990  0.9419
 3820TIP3    H111466   1.950   3.849   2.912  0.4229  1.1296  0.4612
 3820TIP3    H211467   1.924   3.953   2.805 -1.2708 -0.0838 -0.3490
 3821TIP3   OH211468   3.718   4.976   0.663  0.6038  0.2398  0.4222
 3821TIP3    H111469   3.682   5.062   0.687 -0.0235 -0.2559  1.3137
 3821TIP3    H211470   3.810   4.993   0.645  0.4697  1.1182  0.5118
 3822TIP3   OH211471   4.692   1.068   2.662 -0.1392 -0.0791  0.1842
 3822TIP3    H111472   4.733   1.058   2.748  1.7977 -0.4607 -0.7392
 3822TIP3    H211473   4.757   1.036   2.600 -2.6612 -2.9604 -1.2656
 3823TIP3   OH211474   2.956   3.500   4.496  0.0183  0.7429  0.4093
 3823TIP3    H111475   2.911   3.475   4.415 -1.5768 -1.4324  1.8631
 3823TIP3    H211476   2.887   3.530   4.554  0.4647 -1.4959  2.2792
 3824TIP3   OH211477   3.730   4.219   2.305 -0.0876  0.2390 -0.1603
 3824TIP3    H111478   3.641   4.253   2.304 -0.5217 -0.8072  0.5795
 3824TIP3    H211479   3.782   4.287   2.348 -0.3687  1.1755 -1.2607
 3825TIP3   OH211480   5.403   1.081   2.613  0.0846 -0.3287 -0.0035
 3825TIP3    H111481   5.369   1.156   2.661 -2.4215 -0.1490 -1.8816
 3825TIP3    H211482   5.354   1.080   2.531  1.9814 -2.4353 -1.2443
 3826TIP3   OH211483   1.136   1.461   4.229  0.6069  0.1026  0.6509
 3826TIP3    H111484   1.184   1.484   4.149 -0.9394  0.9851 -0.0761
 3826TIP3    H211485   1.091   1.379   4.207  0.3336  0.2441  0.6803
 3827TIP3   OH211486   2.349   1.543   0.631 -0.3167 -0.4926 -1.1861
 3827TIP3    H111487   2.261   1.582   0.625 -0.8873 -1.0947  1.5531
 3827TIP3    H211488   2.392   1.595   0.699  1.2022 -0.6947 -1.9721
 3828TIP3   OH211489   2.590   0.443   4.284 -0.1142 -0.2847 -0.1843
 3828TIP3    H111490   2.540   0.362   4.286 -0.2170 -0.2646 -1.2986
 3828TIP3    H211491   2.550   0.498   4.351 -0.9373 -0.6463 -0.3670
 3829TIP3   OH211492   0.933   5.450   2.330  0.5502 -0.2044  0.4021
 3829TIP3    H111493   0.941   5.405   2.414  0.3254 -1.0203 -0.0049
 3829TIP3    H211494   0.915   5.380   2.267  0.0721  0.4725 -0.2253
 3830TIP3   OH211495   2.280   3.941   4.884 -0.7042 -0.1685  0.0463
 3830TIP3    H111496   2.306   3.959   4.974  0.9410  2.2362 -0.8084
 3830TIP3    H211497   2.184   3.946   4.886 -0.8109 -1.6937  1.8761
 3831TIP3   OH211498   1.488   2.636   1.363 -0.2372 -0.2461  0.6175
 3831TIP3    H111499   1.530   2.713   1.324 -1.3468 -0.2759 -0.7318
 3831TIP3    H211500   1.559   2.587   1.403  0.8097  0.3823 -0.4273
 3832TIP3   OH211501   5.072   2.902   3.958 -0.1925  0.0185 -0.1845
 3832TIP3    H111502   4.991   2.913   3.909 -0.1527 -1.0373 -0.5104
 3832TIP3    H211503   5.108   2.820   3.926  1.1942  0.6483 -0.3033
 3833TIP3   OH211504   0.502   0.198   3.204  0.1619  0.3852 -0.2442
 3833TIP3    H111505   0.539   0.225   3.120  0.2733 -0.1699 -0.3733
 3833TIP3    H211506   0.576   0.206   3.265  0.3525 -0.1767 -0.3941
 3834TIP3   OH211507   2.735   5.283   3.611  0.4488  0.0618 -0.3204
 3834TIP3    H111508   2.732   5.347   3.682 -1.1612  0.0872 -0.3544
 3834TIP3    H211509   2.789   5.212   3.644  0.2589  0.3726  0.6873
 3835TIP3   OH211510   1.523   0.203   0.305 -0.1404 -0.5368 -0.0700
 3835TIP3    H111511   1.487   0.116   0.323 -0.4124 -0.5095 -0.4662
 3835TIP3    H211512   1.447   0.255   0.279 -0.0457 -0.0567  0.6041
 3836TIP3   OH211513   6.256   0.854   2.344 -0.4178  0.0231 -0.0541
 3836TIP3    H111514   6.243   0.790   2.414 -2.2427  0.7018  0.3053
 3836TIP3    H211515   6.198   0.824   2.273  0.1882  0.2230 -0.6436
 3837TIP3   OH211516   2.053   1.383   0.513  0.0434 -0.1733  0.2591
 3837TIP3    H111517   1.984   1.329   0.474 -1.0939  1.3213  0.1292
 3837TIP3    H211518   2.008   1.435   0.580  1.2633  0.0363  0.9555
 3838TIP3   OH211519   3.905   1.088   3.359 -0.5372  0.2625 -0.0307
 3838TIP3    H111520   3.855   1.055   3.284 -0.1372 -1.6777  0.4962
 3838TIP3    H211521   3.980   1.132   3.320 -1.4614  1.2497 -0.7808
 3839TIP3   OH211522   4.118   3.240   4.852 -0.6537  0.3266  0.1227
 3839TIP3    H111523   4.035   3.231   4.900 -0.8488 -2.5512 -0.5388
 3839TIP3    H211524   4.130   3.154   4.811  1.5695  1.3802 -1.6104
 3840TIP3   OH211525   0.345   3.370   1.518 -0.0407  0.0562  0.1349
 3840TIP3    H111526   0.255   3.387   1.493 -0.6219  1.6069  2.8443
 3840TIP3    H211527   0.396   3.388   1.439 -2.0945 -1.6346 -1.7014
 3841TIP3   OH211528   1.978   3.382   1.898 -0.7142  0.1517 -0.5888
 3841TIP3    H111529   2.064   3.358   1.862  0.1368  3.0339 -0.7633
 3841TIP3    H211530   1.921   3.387   1.821 -1.0457 -1.5504 -0.4979
 3842TIP3   OH211531   0.244   1.595   1.498 -0.9145 -0.6053 -0.1173
 3842TIP3    H111532   0.290   1.533   1.555  0.3392 -0.4708 -0.9406
 3842TIP3    H211533   0.205   1.659   1.557  1.2296  0.1312  0.5743
 3843TIP3   OH211534   1.915   3.568   4.105 -0.2720  0.2939 -0.0133
 3843TIP3    H111535   1.886   3.621   4.031  0.6122 -0.0784 -0.6388
 3843TIP3    H211536   1.999   3.532   4.078  0.4514  0.7645  1.4771
 3844TIP3   OH211537   2.500   3.996   3.867 -0.0773 -0.4369 -0.5729
 3844TIP3    H111538   2.445   3.977   3.943 -0.3405  0.1868 -0.5992
 3844TIP3    H211539   2.441   3.983   3.792 -0.0884 -0.1411 -0.6188
 3845TIP3   OH211540   3.977   2.293   1.864 -0.6923  0.3396  0.8303
 3845TIP3    H111541   4.027   2.374   1.856 -1.2962  0.7757  1.3498
 3845TIP3    H211542   3.886   2.321   1.874 -1.1880 -0.4627 -0.9673
 3846TIP3   OH211543   0.380   0.874   0.147 -0.2019 -0.6767  0.1835
 3846TIP3    H111544   0.459   0.927   0.154 -1.4827  1.3362  0.0324
 3846TIP3    H211545   0.382   0.818   0.225  0.3640  0.7908  1.2631
 3847TIP3   OH211546   2.958   1.757   2.809 -0.0857  0.0546  0.2920
 3847TIP3    H111547   2.897   1.815   2.763 -0.0940  0.9815  1.4123
 3847TIP3    H211548   2.988   1.809   2.884 -0.2147 -1.4388  1.4258
 3848TIP3   OH211549   3.454   0.388   1.900 -0.1118  0.4015  0.0042
 3848TIP3    H111550   3.430   0.317   1.841  3.0762  0.0795 -1.0787
 3848TIP3    H211551   3.512   0.348   1.965  3.2396  2.1157 -1.6570
 3849TIP3   OH211552   1.804   3.678   0.155  0.2274 -0.4438 -0.2320
 3849TIP3    H111553   1.792   3.624   0.233 -0.1834  1.1330  0.8481
 3849TIP3    H211554   1.897   3.671   0.135  0.2053 -1.4355 -0.0321
 3850TIP3   OH211555   3.689   1.111   3.889 -0.0399 -0.5178 -0.0397
 3850TIP3    H111556   3.656   1.061   3.814 -0.0588  1.6179 -1.5602
 3850TIP3    H211557   3.784   1.111   3.877 -0.0350 -0.2845 -0.0068
 3851TIP3   OH211558   3.840   5.822   2.236  0.2215 -0.4864  0.2265
 3851TIP3    H111559   3.898   5.886   2.195  0.3910  0.0582  1.2804
 3851TIP3    H211560   3.758   5.829   2.187  0.2197  0.5929  0.3654
 3852TIP3   OH211561   0.574   5.934   0.201  0.1273 -0.4698 -0.2409
 3852TIP3    H111562   0.644   5.941   0.136 -0.7721 -0.9833 -1.2922
 3852TIP3    H211563   0.505   5.991   0.168  0.0471  0.0569  0.8075
 3853TIP3   OH211564   4.387   2.912   3.533  0.2395 -0.0151 -0.2922
 3853TIP3    H111565   4.313   2.971   3.517 -0.1051 -0.1587  0.6977
 3853TIP3    H211566   4.436   2.953   3.604  0.0675 -0.8343  0.3206
 3854TIP3   OH211567   5.602   4.738   3.554 -0.0727  0.9528  0.0472
 3854TIP3    H111568   5.657   4.792   3.610 -0.8971  0.9385  0.8949
 3854TIP3    H211569   5.583   4.660   3.607  1.0079 -0.1419 -1.1095
 3855TIP3   OH211570   5.758   5.847   5.116  0.6568  0.2606  0.2526
 3855TIP3    H111571   5.782   5.759   5.087 -0.3722 -0.9034  2.7192
 3855TIP3    H211572   5.720   5.888   5.038  1.7999 -1.1943 -1.1358
 3856TIP3   OH211573   1.412   3.941   4.151 -0.6174 -0.2689  0.1237
 3856TIP3    H111574   1.474   3.879   4.113 -0.4474  0.9651 -1.7410
 3856TIP3    H211575   1.444   3.957   4.240  1.6131  0.1496 -0.6998
 3857TIP3   OH211576   0.864   4.696   4.840  0.1255  0.6223  0.1760
 3857TIP3    H111577   0.890   4.626   4.781 -0.1149  0.6058  0.0885
 3857TIP3    H211578   0.780   4.667   4.877  0.0719  0.8188  0.2105
 3858TIP3   OH211579   2.743   5.727   3.325  0.2057 -0.4418 -0.1297
 3858TIP3    H111580   2.727   5.807   3.275 -1.1469  0.2531  1.2935
 3858TIP3    H211581   2.766   5.758   3.413  1.6207 -1.6138 -0.0505
 3859TIP3   OH211582   2.401   4.736   2.704 -0.5632  0.0767  0.5744
 3859TIP3    H111583   2.478   4.760   2.757 -1.1287  3.0645  0.2598
 3859TIP3    H211584   2.372   4.653   2.740  2.0447 -0.5041  1.5666
 3860TIP3   OH211585   0.734   2.746   4.979  0.2158  0.0594 -0.1681
 3860TIP3    H111586   0.777   2.685   4.920  1.4569 -0.1352  0.8973
 3860TIP3    H211587   0.711   2.821   4.924  0.7190 -0.4047 -1.0278
 3861TIP3   OH211588   4.268   5.288   1.047  0.2685  0.1919  0.0223
 3861TIP3    H111589   4.188   5.279   1.098 -0.3144  1.4247 -0.6335
 3861TIP3    H211590   4.240   5.278   0.956  0.5697  2.0931 -0.3172
 3862TIP3   OH211591   0.987   2.533   4.964  0.0369  0.2324 -0.5240
 3862TIP3    H111592   1.047   2.572   4.900 -0.3183  1.6950  0.0061
 3862TIP3    H211593   1.041   2.471   5.013  0.9012  0.8975 -0.6212
 3863TIP3   OH211594   4.794   5.352   3.534  0.4006  0.0909 -0.4626
 3863TIP3    H111595   4.737   5.425   3.512  0.2957  1.1550  2.8103
 3863TIP3    H211596   4.882   5.389   3.534  0.7130 -0.5818 -1.6777
 3864TIP3   OH211597  -0.002   4.100   3.179 -0.6030  0.6488 -0.4640
 3864TIP3    H111598   0.038   4.089   3.265 -0.9846  2.5112 -0.0032
 3864TIP3    H211599   0.045   4.039   3.123 -1.2095 -1.5499  1.2949
 3865TIP3   OH211600   2.633   4.930   0.032 -0.1459  0.4825  0.6776
 3865TIP3    H111601   2.560   4.989   0.050  0.4070  1.1066  0.9376
 3865TIP3    H211602   2.603   4.876  -0.041 -0.5365  1.3110  0.2109
 3866TIP3   OH211603   3.702   3.095   3.335 -0.0908 -0.1468  0.2319
 3866TIP3    H111604   3.764   3.164   3.358 -1.1404  1.1775 -0.7448
 3866TIP3    H211605   3.632   3.103   3.400 -1.0533  0.9054 -0.8677
 3867TIP3   OH211606   4.242   0.144   1.437 -0.1008  0.2870  0.0276
 3867TIP3    H111607   4.255   0.065   1.489 -2.0594  0.2076  0.4719
 3867TIP3    H211608   4.273   0.120   1.349  0.4318 -0.5595  0.4301
 3868TIP3   OH211609   2.993   1.778   4.731 -0.4606  0.0152 -0.3531
 3868TIP3    H111610   2.990   1.865   4.771 -2.1309 -1.4471  3.1557
 3868TIP3    H211611   2.932   1.784   4.657 -1.4373  1.5705  0.4976
 3869TIP3   OH211612   1.922   5.241   4.200  0.4245 -0.0144 -0.7279
 3869TIP3    H111613   1.845   5.217   4.148 -0.2306 -0.7066  0.5121
 3869TIP3    H211614   1.992   5.185   4.166 -0.4035 -1.7115  0.2192
 3870TIP3   OH211615   2.791   3.591   1.922  0.3739 -0.3369  0.4072
 3870TIP3    H111616   2.859   3.576   1.988 -0.0893  0.1952  1.0219
 3870TIP3    H211617   2.773   3.685   1.928 -0.3044 -0.4467  0.1484
 3871TIP3   OH211618   2.389   4.079   1.252  0.1487 -0.3907 -0.1557
 3871TIP3    H111619   2.432   4.151   1.299  0.3765  0.7784 -2.0745
 3871TIP3    H211620   2.305   4.117   1.225 -0.2203 -1.2418 -0.2161
 3872TIP3   OH211621   5.957   0.156   4.261 -0.2567 -0.7141  0.3815
 3872TIP3    H111622   5.910   0.224   4.309 -0.2967 -0.9228  0.6368
 3872TIP3    H211623   6.032   0.202   4.223  0.4709 -0.7998  1.6828
 3873TIP3   OH211624   4.953   3.747   1.861 -0.1710  0.3065  0.7436
 3873TIP3    H111625   4.924   3.659   1.882 -0.3156 -0.0364 -0.7373
 3873TIP3    H211626   5.046   3.748   1.882  0.4424 -1.0609 -1.5672
 3874TIP3   OH211627   1.477   0.286   5.073  0.1552  0.8038  0.5792
 3874TIP3    H111628   1.563   0.282   5.031  1.6091 -1.7039  3.4043
 3874TIP3    H211629   1.448   0.195   5.078 -1.2627  1.2909  2.3373
 3875TIP3   OH211630   4.032   1.810   0.091 -0.0996 -0.3454 -0.0118
 3875TIP3    H111631   3.939   1.794   0.104  0.0912  0.0304  2.1890
 3875TIP3    H211632   4.044   1.809  -0.004 -2.2721 -0.7069 -0.3232
 3876TIP3   OH211633   1.698   5.421   3.711  0.4636  0.1647  0.1155
 3876TIP3    H111634   1.731   5.465   3.633 -1.1692  1.0432 -0.1250
 3876TIP3    H211635   1.682   5.492   3.774  2.7424 -0.6056  1.7025
 3877TIP3   OH211636   2.019   0.802   2.724 -0.1162  0.0689 -0.4529
 3877TIP3    H111637   2.053   0.802   2.813  1.0470  2.2088 -0.8496
 3877TIP3    H211638   2.003   0.894   2.703 -2.6655 -0.5314 -1.6543
 3878TIP3   OH211639   3.519   1.698   3.496  0.9356 -0.0520  0.2937
 3878TIP3    H111640   3.584   1.744   3.548  1.1208  0.3660 -0.3020
 3878TIP3    H211641   3.527   1.735   3.408  0.8768 -1.0044 -0.1258
 3879TIP3   OH211642   5.294   5.025   5.202 -0.7429 -0.1388 -0.1051
 3879TIP3    H111643   5.352   5.039   5.128 -1.0585 -0.2039 -0.3636
 3879TIP3    H211644   5.240   5.104   5.207  1.7609  1.5876  2.3434
 3880TIP3   OH211645   0.728   4.975   4.954  0.1826 -0.0663 -0.4423
 3880TIP3    H111646   0.671   5.001   4.881 -1.0685  2.5539  1.3209
 3880TIP3    H211647   0.718   4.880   4.959 -1.3788 -0.0653 -2.3227
 3881TIP3   OH211648   1.467   2.323   3.532  0.3768 -0.2844  0.5585
 3881TIP3    H111649   1.546   2.378   3.535 -0.1895  0.7151 -1.2083
 3881TIP3    H211650   1.478   2.270   3.453 -0.2305 -0.9552  0.9110
 3882TIP3   OH211651   1.235   4.224   5.018 -0.8356 -0.5014  0.1986
 3882TIP3    H111652   1.260   4.267   5.101 -0.2923  1.4122 -0.8937
 3882TIP3    H211653   1.195   4.294   4.966 -0.3089 -1.4364 -1.5279
 3883TIP3   OH211654   1.628   3.758   1.292 -0.2887 -0.1290  0.1710
 3883TIP3    H111655   1.537   3.782   1.281  0.1683  1.4970 -0.3398
 3883TIP3    H211656   1.661   3.819   1.358  0.6540 -0.0957 -0.3175
 3884TIP3   OH211657   1.842   1.235   0.433  0.0836 -0.4214  0.0701
 3884TIP3    H111658   1.883   1.155   0.400  2.2376  0.8621 -0.5532
 3884TIP3    H211659   1.781   1.261   0.364  0.0437 -1.0225 -0.1282
 3885TIP3   OH211660   3.016   2.843   3.263  0.4150 -0.2915  0.0532
 3885TIP3    H111661   3.059   2.857   3.347 -2.2238 -1.3698  1.7020
 3885TIP3    H211662   2.971   2.926   3.244  0.7104 -0.1704 -0.1279
 3886TIP3   OH211663   1.769   1.948   3.912 -0.2228 -0.7546 -0.1834
 3886TIP3    H111664   1.690   2.001   3.908  0.9600  1.1668  0.3949
 3886TIP3    H211665   1.816   1.982   3.988  1.8727 -0.7766 -1.3987
 3887TIP3   OH211666   2.554   2.677   2.285 -0.0427 -0.1621 -0.0455
 3887TIP3    H111667   2.575   2.619   2.212 -0.6724  1.6065 -1.7316
 3887TIP3    H211668   2.462   2.702   2.270 -1.5648 -2.7526  3.5827
 3888TIP3   OH211669   4.379   0.444   3.519  0.0700  0.1188 -0.3570
 3888TIP3    H111670   4.290   0.444   3.483  0.5274  0.5314 -1.5482
 3888TIP3    H211671   4.424   0.513   3.471  1.5483 -1.2925 -1.0949
 3889TIP3   OH211672   4.579   5.858   4.527  0.1473 -0.1588  0.1102
 3889TIP3    H111673   4.559   5.922   4.458 -1.1790 -0.4454  0.2010
 3889TIP3    H211674   4.552   5.774   4.490  1.4990 -0.6349  0.1509
 3890TIP3   OH211675   4.342   1.018   0.953 -0.0208  0.2182 -0.0452
 3890TIP3    H111676   4.317   1.080   0.885 -0.2530  0.2119  0.0317
 3890TIP3    H211677   4.400   1.067   1.012 -0.7385  0.5628  0.3878
 3891TIP3   OH211678   1.558   1.205   4.529  0.3866  0.0924 -0.5380
 3891TIP3    H111679   1.599   1.174   4.609  0.3335 -1.8714 -1.2101
 3891TIP3    H211680   1.630   1.237   4.475  0.8905 -1.6685 -0.9864
 3892TIP3   OH211681   5.653   5.104   2.871  0.0240 -1.1599  0.0331
 3892TIP3    H111682   5.643   5.029   2.929 -0.1687  0.0689  1.6564
 3892TIP3    H211683   5.745   5.130   2.881  0.6783 -2.3376 -2.0920
 3893TIP3   OH211684   0.558   5.793   0.533  0.0281  0.2493  0.1322
 3893TIP3    H111685   0.626   5.734   0.500 -1.0041 -0.2805 -1.1565
 3893TIP3    H211686   0.494   5.798   0.462 -1.1758  0.9063  1.2104
 3894TIP3   OH211687   3.715   5.782   4.891  0.2499  0.2970  0.3294
 3894TIP3    H111688   3.807   5.779   4.865  0.1723 -0.9359  0.1091
 3894TIP3    H211689   3.669   5.812   4.814  0.0699 -2.8970 -0.9797
 3895TIP3   OH211690   0.273   5.283   3.437  1.2342  0.0022 -0.2609
 3895TIP3    H111691   0.360   5.244   3.438  1.4631  0.3857 -2.1416
 3895TIP3    H211692   0.283   5.365   3.389  0.0357  0.5654  0.3979
 3896TIP3   OH211693   1.155   2.705   2.387 -0.3406  0.0686 -0.0146
 3896TIP3    H111694   1.070   2.661   2.392 -0.5833  0.5685  0.2899
 3896TIP3    H211695   1.159   2.740   2.298  0.3437 -1.5311 -0.6496
 3897TIP3   OH211696   4.157   4.353   0.459  0.0154  0.1653  0.2067
 3897TIP3    H111697   4.213   4.279   0.438  0.7116  0.7152  0.0557
 3897TIP3    H211698   4.119   4.332   0.545  0.5727 -0.1596  0.3799
 3898TIP3   OH211699   0.433   2.202   3.381  0.3640 -0.1523  0.3404
 3898TIP3    H111700   0.374   2.138   3.342  0.7347 -1.0622  1.2264
 3898TIP3    H211701   0.520   2.179   3.347  0.2037  1.4107 -1.2546
 3899TIP3   OH211702   0.740   2.351   2.611  0.2757 -0.2237 -0.3985
 3899TIP3    H111703   0.759   2.403   2.690  2.3023 -0.4736 -0.6776
 3899TIP3    H211704   0.711   2.415   2.547 -2.6672 -0.1453  0.8302
 3900TIP3   OH211705   3.807   0.156   1.401  0.1567 -0.1945  0.5546
 3900TIP3    H111706   3.872   0.220   1.430 -0.1772  0.1870  0.4733
 3900TIP3    H211707   3.726   0.207   1.391  0.4520 -0.0742 -1.9484
 3901TIP3   OH211708   1.891   4.287   2.880  0.0819  0.5059  0.1054
 3901TIP3    H111709   1.869   4.301   2.972  1.2081  0.5780  0.3694
 3901TIP3    H211710   1.952   4.214   2.881 -0.3343  0.1358 -0.6496
 3902TIP3   OH211711   1.991   2.223   0.860 -0.3730  0.1750  0.4165
 3902TIP3    H111712   2.081   2.247   0.838  0.2894 -1.5737  1.0109
 3902TIP3    H211713   1.942   2.305   0.854  1.6066  1.5690  1.8803
 3903TIP3   OH211714   5.102   4.000   1.968 -0.0197 -0.1052 -0.4687
 3903TIP3    H111715   5.135   3.912   1.947  2.3275  1.1416 -2.5148
 3903TIP3    H211716   5.017   4.004   1.924 -0.3109 -1.4201 -0.0835
 3904TIP3   OH211717   4.520   5.298   2.229 -0.0010 -0.0200  0.2615
 3904TIP3    H111718   4.486   5.237   2.294  2.7092  0.0881  1.9002
 3904TIP3    H211719   4.515   5.250   2.146  0.8504 -1.9868  1.2993
 3905TIP3   OH211720   3.204   3.621   2.321  0.4067  0.8216  0.2064
 3905TIP3    H111721   3.272   3.653   2.261 -1.2306  1.3208 -1.4612
 3905TIP3    H211722   3.185   3.695   2.378 -0.8903  1.7784 -1.3716
 3906TIP3   OH211723   4.607   0.246   3.639 -0.4535 -0.0202 -0.2396
 3906TIP3    H111724   4.690   0.280   3.607  0.7516 -1.8185  0.8503
 3906TIP3    H211725   4.574   0.313   3.698  1.6416 -0.4284  1.5171
 3907TIP3   OH211726   5.433   3.070   3.007  0.5625 -0.1050 -0.3688
 3907TIP3    H111727   5.414   2.977   2.994  0.3293 -0.3814  1.6125
 3907TIP3    H211728   5.496   3.091   2.938  0.8945 -1.8187 -0.6440
 3908TIP3   OH211729   0.338   5.050   4.128  0.1886 -0.0961 -0.4372
 3908TIP3    H111730   0.298   5.138   4.125  1.3898  0.4547 -1.0662
 3908TIP3    H211731   0.320   5.013   4.041 -0.1060 -0.3754 -0.2575
 3909TIP3   OH211732   1.891   0.228   0.416  0.6316  0.1557  0.1350
 3909TIP3    H111733   1.923   0.142   0.390  0.0228  0.2332 -0.9247
 3909TIP3    H211734   1.809   0.210   0.463  0.4107  0.1532 -0.2421
 3910TIP3   OH211735   3.133   2.664   0.152  0.3818 -0.2097 -0.4977
 3910TIP3    H111736   3.197   2.686   0.221  0.7842 -1.9991 -0.2588
 3910TIP3    H211737   3.075   2.741   0.148 -0.6066 -0.6074  2.9307
 3911TIP3   OH211738   1.983   0.491   1.293 -0.1821 -0.1025  0.0914
 3911TIP3    H111739   1.976   0.571   1.241  2.4368  0.2564  0.1636
 3911TIP3    H211740   2.003   0.522   1.381 -0.7899 -0.8146  0.4864
 3912TIP3   OH211741   3.803   2.961   0.137  0.0437  0.3771  0.1118
 3912TIP3    H111742   3.884   2.981   0.090 -0.3275  1.2449 -0.1711
 3912TIP3    H211743   3.748   2.918   0.073  0.9692 -2.0399  0.8065
 3913TIP3   OH211744   2.129   3.841   4.047  0.1185  0.2848  0.1931
 3913TIP3    H111745   2.207   3.894   4.032  0.6237 -0.6940 -0.8128
 3913TIP3    H211746   2.116   3.842   4.142  2.1721 -0.6607  0.5256
 3914TIP3   OH211747   5.002   0.042   1.513  0.0745 -0.0918 -0.2574
 3914TIP3    H111748   4.964   0.002   1.591  0.0847 -0.0729 -0.2429
 3914TIP3    H211749   4.988  -0.022   1.443 -2.6663  1.1159 -0.9349
 3915TIP3   OH211750   2.823   1.591   3.387  0.3585  0.1729 -0.1466
 3915TIP3    H111751   2.886   1.569   3.318  1.5764  4.9613 -0.9220
 3915TIP3    H211752   2.743   1.612   3.339 -0.1716 -0.5810  0.3774
 3916TIP3   OH211753   4.705   3.351   0.609  0.3998 -0.3755 -0.7678
 3916TIP3    H111754   4.645   3.353   0.684  0.4299 -0.8948 -0.7264
 3916TIP3    H211755   4.762   3.276   0.626 -0.0339 -0.9197 -1.6457
 3917TIP3   OH211756   5.684   0.284   4.133 -0.4476 -0.0393 -0.0633
 3917TIP3    H111757   5.693   0.193   4.163 -1.4438 -0.7893 -1.9197
 3917TIP3    H211758   5.774   0.317   4.133  0.0463 -1.2962 -0.1627
 3918TIP3   OH211759   0.342   0.328   2.633 -0.8211 -0.3231 -0.4213
 3918TIP3    H111760   0.334   0.421   2.614  0.9970 -0.2997 -1.3537
 3918TIP3    H211761   0.284   0.285   2.570  0.3876  0.0863 -1.8750
 3919TIP3   OH211762   3.546   1.448   0.548  0.2546  0.4496  0.9037
 3919TIP3    H111763   3.596   1.426   0.628  2.1798 -1.4808 -0.6866
 3919TIP3    H211764   3.496   1.369   0.529  2.3597 -0.4579 -1.4865
 3920TIP3   OH211765   2.893   0.471   5.013 -0.4754  0.0192  0.7650
 3920TIP3    H111766   2.834   0.504   4.946 -0.0749 -1.4358 -0.3538
 3920TIP3    H211767   2.883   0.532   5.086 -0.7088  1.8220 -0.7022
 3921TIP3   OH211768   2.937   5.287   1.739 -0.8224 -0.0357  0.0376
 3921TIP3    H111769   2.914   5.314   1.650 -0.8886 -1.0026 -0.2461
 3921TIP3    H211770   3.031   5.300   1.745 -1.1820  2.8780  0.8366
 3922TIP3   OH211771   2.344   5.480   0.667 -0.2894  0.4883 -0.1691
 3922TIP3    H111772   2.308   5.429   0.594 -0.2186 -1.1505  0.8775
 3922TIP3    H211773   2.436   5.493   0.644  0.0862 -1.2118  0.1868
 3923TIP3   OH211774   4.045   1.198   4.060 -0.5029  0.0702  0.2976
 3923TIP3    H111775   4.013   1.184   4.149  1.2241  1.2488  1.1763
 3923TIP3    H211776   4.087   1.284   4.063  1.6339 -0.8268 -1.0012
 3924TIP3   OH211777   3.206   4.937   0.300 -0.2425 -0.3418  0.1610
 3924TIP3    H111778   3.236   4.949   0.210  0.1937 -0.4053  0.2968
 3924TIP3    H211779   3.237   4.850   0.325 -1.1909 -0.7263  0.0538
 3925TIP3   OH211780   2.807   5.884   0.292  0.3153 -0.4204 -0.1759
 3925TIP3    H111781   2.788   5.819   0.360  2.6303  0.1126  1.0844
 3925TIP3    H211782   2.819   5.966   0.340 -1.7435  0.8259 -1.6620
 3926TIP3   OH211783   5.789   3.645   2.744  0.1170 -0.0787 -0.0509
 3926TIP3    H111784   5.863   3.698   2.714 -0.4425  0.9052  0.2680
 3926TIP3    H211785   5.799   3.641   2.839 -0.8591  1.0280  0.1111
 3927TIP3   OH211786   1.623   4.912   2.940  0.5858  0.0988  0.5344
 3927TIP3    H111787   1.532   4.887   2.959  0.7793 -0.3610  0.8918
 3927TIP3    H211788   1.657   4.942   3.025  1.0812 -0.7546  0.6548
 3928TIP3   OH211789   2.060   4.558   1.393 -0.0739 -0.3006  0.0144
 3928TIP3    H111790   2.142   4.509   1.405 -0.9415 -1.8317 -0.1156
 3928TIP3    H211791   2.021   4.521   1.314 -0.8377  0.5093  0.0038
 3929TIP3   OH211792   0.800   5.165   3.756 -0.1723 -0.1329 -0.1782
 3929TIP3    H111793   0.760   5.163   3.669 -1.4493 -0.9283  0.4029
 3929TIP3    H211794   0.820   5.258   3.770 -0.1672  0.0385 -1.2209
 3930TIP3   OH211795   0.102   2.767   2.294  0.5405 -0.2460  0.2384
 3930TIP3    H111796   0.120   2.687   2.343  1.2897 -0.4875 -0.4119
 3930TIP3    H211797   0.111   2.741   2.202 -0.3439  0.3146 -0.0188
 3931TIP3   OH211798   0.664   0.566   0.669  0.0814 -0.1620  0.1053
 3931TIP3    H111799   0.643   0.496   0.608 -0.7044 -1.0533  1.3513
 3931TIP3    H211800   0.759   0.575   0.664  0.1672 -1.1750 -0.2231
 3932TIP3   OH211801   2.596   1.020   4.304 -0.7597 -0.6417  0.0934
 3932TIP3    H111802   2.546   1.047   4.382  0.0139  0.9569  0.0725
 3932TIP3    H211803   2.684   1.000   4.338  0.1451  1.9052 -0.5575
 3933TIP3   OH211804   6.054   5.339   4.591 -0.5155 -0.6231  0.7733
 3933TIP3    H111805   6.129   5.374   4.640  1.6462 -0.1342 -2.5334
 3933TIP3    H211806   5.979   5.388   4.624  1.2115  1.6039  1.6859
 3934TIP3   OH211807   2.810   5.147   2.017  0.3052  0.3243 -0.3502
 3934TIP3    H111808   2.831   5.192   1.935 -2.1089  1.4694 -0.4515
 3934TIP3    H211809   2.862   5.191   2.083  0.4221  1.1008 -0.9391
 3935TIP3   OH211810   6.352   3.080   0.197 -0.2517 -0.5626 -0.4893
 3935TIP3    H111811   6.322   3.170   0.212 -1.0475 -0.8329 -0.4405
 3935TIP3    H211812   6.289   3.044   0.135 -0.3739 -1.3398  0.0839
 3936TIP3   OH211813   2.208   5.019   3.896 -0.1879  0.1126 -0.3226
 3936TIP3    H111814   2.205   5.015   3.801  0.7283 -2.5580 -0.3127
 3936TIP3    H211815   2.116   5.019   3.923 -0.4776  2.0091 -1.1606
 3937TIP3   OH211816   1.692   2.244   2.616  0.9479 -0.7127  0.3916
 3937TIP3    H111817   1.614   2.296   2.596  0.8527 -1.2480 -0.6917
 3937TIP3    H211818   1.765   2.305   2.603  0.7514 -0.3620  0.8822
 3938TIP3   OH211819   4.240   4.992   4.864  0.7188 -0.1968  0.2530
 3938TIP3    H111820   4.207   4.903   4.851  0.2754  0.1897 -1.5086
 3938TIP3    H211821   4.326   4.980   4.903  0.4069 -1.3698  0.6317
 3939TIP3   OH211822   4.460   5.631   0.294  0.2347 -0.2359  0.2273
 3939TIP3    H111823   4.463   5.556   0.236  4.0245 -0.1789  0.1034
 3939TIP3    H211824   4.401   5.693   0.251  1.0076 -1.1453 -2.2643
 3940TIP3   OH211825   0.934   1.879   3.990 -0.1953 -0.1777  0.2337
 3940TIP3    H111826   0.951   1.929   3.910  1.7715 -0.6945  0.2723
 3940TIP3    H211827   0.896   1.943   4.051  1.3953  1.0939 -0.0330
 3941TIP3   OH211828   0.309   1.149   4.790  0.0367 -0.2487 -0.0815
 3941TIP3    H111829   0.375   1.092   4.828  0.4162  0.7731  0.8643
 3941TIP3    H211830   0.329   1.236   4.826 -1.1926  0.2698 -0.5922
 3942TIP3   OH211831   4.234   4.524   0.958  0.2310  0.2015  0.6980
 3942TIP3    H111832   4.246   4.559   1.046  1.8707  0.2540  0.4895
 3942TIP3    H211833   4.223   4.430   0.971 -0.3382  0.3114  1.0127
 3943TIP3   OH211834   5.618   4.481   4.840  0.6295 -0.3883  0.3465
 3943TIP3    H111835   5.570   4.422   4.781  2.7801 -1.2617 -0.6391
 3943TIP3    H211836   5.555   4.502   4.909 -1.8994  0.3811 -1.9950
 3944TIP3   OH211837   4.016   1.218   3.029  0.1918  0.0824  0.0178
 3944TIP3    H111838   4.029   1.312   3.034 -1.0467  0.3420 -1.0975
 3944TIP3    H211839   4.001   1.200   2.936 -0.1353 -1.1248  0.2832
 3945TIP3   OH211840   5.124   3.305   3.913  0.0513 -0.6228  0.1141
 3945TIP3    H111841   5.061   3.252   3.962 -0.0204 -0.5239  0.1287
 3945TIP3    H211842   5.090   3.394   3.919 -1.4070 -0.9114 -2.3671
 3946TIP3   OH211843   5.072   2.879   2.995 -0.0470 -0.1113 -0.1157
 3946TIP3    H111844   5.160   2.849   2.974 -0.0822 -0.2012 -0.1344
 3946TIP3    H211845   5.025   2.799   3.020 -0.2641 -0.1311 -0.5868
 3947TIP3   OH211846   5.821   0.395   3.238 -0.1362  0.5269 -0.2741
 3947TIP3    H111847   5.893   0.458   3.243 -2.1662  2.8806  0.6839
 3947TIP3    H211848   5.746   0.445   3.208 -2.9047 -0.3229  4.2274
 3948TIP3   OH211849   5.900   1.225   0.451 -0.1323 -0.2360  0.1271
 3948TIP3    H111850   5.950   1.302   0.423 -1.2266  0.0384 -1.2471
 3948TIP3    H211851   5.836   1.212   0.380 -0.5064 -1.9193  0.7325
 3949TIP3   OH211852   1.011   0.050   4.333  0.0173  0.2656  0.2996
 3949TIP3    H111853   0.918   0.052   4.357  0.2669 -1.8524  1.7573
 3949TIP3    H211854   1.017   0.105   4.255 -1.6768  3.8612  2.4879
 3950TIP3   OH211855   5.230   5.620   5.052 -0.3926  0.1608  0.3380
 3950TIP3    H111856   5.236   5.605   5.146 -1.3845  0.3356  0.4420
 3950TIP3    H211857   5.194   5.538   5.016 -1.9055  0.7691  0.3853
 3951TIP3   OH211858   1.697   5.637   5.084 -0.5221  0.5710 -0.2036
 3951TIP3    H111859   1.763   5.575   5.056 -0.2527  0.9896 -0.5126
 3951TIP3    H211860   1.635   5.641   5.011 -0.5256  0.6806 -0.1950
 3952TIP3   OH211861   3.463   2.672   2.019  0.2027 -0.1533 -0.2011
 3952TIP3    H111862   3.420   2.726   2.086  0.0870  0.8236 -1.0300
 3952TIP3    H211863   3.555   2.671   2.044 -0.0337 -0.9340  0.7085
 3953TIP3   OH211864   6.353   2.022   2.422  0.7532 -0.3053 -0.0723
 3953TIP3    H111865   6.367   1.995   2.513  0.3476  1.3656  0.5120
 3953TIP3    H211866   6.259   2.033   2.415  0.9478  1.5518 -0.0846
 3954TIP3   OH211867   3.577   3.837   4.043 -0.4841  0.3638  0.2766
 3954TIP3    H111868   3.625   3.786   4.109  0.2138  2.7170  1.6986
 3954TIP3    H211869   3.616   3.810   3.960 -1.0135 -2.2858  0.7928
 3955TIP3   OH211870   5.907   2.744   5.068  0.0726  0.4916  0.9603
 3955TIP3    H111871   5.927   2.811   5.133 -1.6921  1.9107  0.1075
 3955TIP3    H211872   5.931   2.661   5.111  0.5109  1.4968  2.7612
 3956TIP3   OH211873   2.794   0.756   3.904  0.0096  0.9199  0.6713
 3956TIP3    H111874   2.869   0.730   3.958 -0.6276  0.2097  1.2368
 3956TIP3    H211875   2.724   0.696   3.930 -0.0087 -0.2466 -1.7823
 3957TIP3   OH211876   0.534   1.364   1.960 -0.0561  0.0302  0.3975
 3957TIP3    H111877   0.567   1.454   1.960 -0.2202  0.0955  1.1262
 3957TIP3    H211878   0.441   1.372   1.938 -0.2357  0.1132  1.1486
 3958TIP3   OH211879   3.069   4.020   0.034 -0.1259  0.1473  0.2881
 3958TIP3    H111880   3.041   3.931   0.056  1.8237  0.3767  5.0530
 3958TIP3    H211881   2.992   4.074   0.054 -0.0654 -0.2006  1.6034
 3959TIP3   OH211882   3.395   1.682   0.859 -0.2146 -0.5987  0.0192
 3959TIP3    H111883   3.324   1.651   0.803 -1.2384  0.8083  0.4795
 3959TIP3    H211884   3.435   1.753   0.809  0.7328 -1.2206 -0.1296
 3960TIP3   OH211885   5.633   5.835   0.135 -0.5130 -0.7420  0.3022
 3960TIP3    H111886   5.586   5.903   0.087  2.6485  1.2050 -0.3858
 3960TIP3    H211887   5.647   5.766   0.070  2.3069  1.1692 -1.3499
 3961TIP3   OH211888   4.529   2.842   1.026 -0.6317  0.2689  0.0713
 3961TIP3    H111889   4.567   2.903   0.963 -2.1570  1.2774  0.0823
 3961TIP3    H211890   4.522   2.893   1.107 -1.5574 -0.0333  0.1886
 3962TIP3   OH211891   4.921   1.803   3.191 -0.5178  0.5720 -0.1889
 3962TIP3    H111892   4.907   1.747   3.114  1.9242  1.9314 -1.7591
 3962TIP3    H211893   4.877   1.885   3.168  0.5828  1.1273 -0.3677
 3963TIP3   OH211894   1.069   5.291   3.705 -0.1487 -0.3879 -0.1813
 3963TIP3    H111895   1.035   5.202   3.711 -3.6507  0.8210 -0.0451
 3963TIP3    H211896   1.077   5.308   3.611  0.2857 -0.7412 -0.2104
 3964TIP3   OH211897   4.188   0.619   0.353  0.1496  0.1142  0.0164
 3964TIP3    H111898   4.121   0.687   0.355  0.8938  0.8359  1.2453
 3964TIP3    H211899   4.229   0.628   0.267 -1.1282 -0.1558 -0.6365
 3965TIP3   OH211900   4.499   1.232   3.317  0.1538  0.4057 -0.7264
 3965TIP3    H111901   4.526   1.144   3.292 -0.6800  0.1141 -0.6402
 3965TIP3    H211902   4.417   1.246   3.269  0.0197  0.9363 -0.3503
 3966TIP3   OH211903   0.603   5.576   2.518  0.3590 -0.2155  0.4183
 3966TIP3    H111904   0.545   5.504   2.542 -1.4522  0.6930 -1.0313
 3966TIP3    H211905   0.646   5.601   2.601 -0.9034 -1.2801  1.4304
 3967TIP3   OH211906   0.770   2.756   1.154  0.0785  0.0874 -0.0516
 3967TIP3    H111907   0.690   2.766   1.103  0.1591  0.2781 -0.1401
 3967TIP3    H211908   0.755   2.678   1.207  0.0127 -0.1379 -0.3970
 3968TIP3   OH211909   2.317   2.955   1.833 -0.1286 -0.2201 -0.0542
 3968TIP3    H111910   2.330   2.881   1.774 -2.7853 -1.3156  0.5815
 3968TIP3    H211911   2.268   3.019   1.781  2.3465  1.2975 -0.6741
 3969TIP3   OH211912   0.643   5.122   1.465 -0.4992  0.0636  0.5336
 3969TIP3    H111913   0.549   5.134   1.482 -0.4620  1.0592  0.0863
 3969TIP3    H211914   0.648   5.092   1.375 -0.4304 -0.9294  0.8540
 3970TIP3   OH211915   6.159   0.952   0.338 -0.1719 -0.1180  0.0528
 3970TIP3    H111916   6.189   1.043   0.339 -0.8277  0.1184  1.4081
 3970TIP3    H211917   6.098   0.947   0.411 -2.1524 -1.0057 -1.5872
 3971TIP3   OH211918   4.619   3.778   3.376  0.6651  0.7487  0.2538
 3971TIP3    H111919   4.565   3.819   3.308 -0.0884 -1.4158 -0.5351
 3971TIP3    H211920   4.708   3.780   3.340  0.5464  1.1236 -0.0267
 3972TIP3   OH211921   5.700   4.387   3.105 -0.3204 -0.1205 -0.4272
 3972TIP3    H111922   5.610   4.384   3.139 -0.4339  0.6962 -0.6366
 3972TIP3    H211923   5.724   4.295   3.094 -0.2841 -0.4251  1.7929
 3973TIP3   OH211924   3.696   5.643   1.363 -0.2675  0.4542  0.2177
 3973TIP3    H111925   3.673   5.630   1.271  1.1661 -0.3824 -0.0545
 3973TIP3    H211926   3.629   5.701   1.397 -1.7399 -0.4961 -0.9514
 3974TIP3   OH211927   3.247   0.724   2.683 -0.1373 -0.0264  0.1139
 3974TIP3    H111928   3.320   0.662   2.672  1.2802  1.6212 -0.2669
 3974TIP3    H211929   3.290   0.810   2.688 -2.1139  1.1225 -1.2831
 3975TIP3   OH211930   2.687   0.049   2.077  0.5117  0.1589 -0.0689
 3975TIP3    H111931   2.645   0.134   2.060  1.5741  1.0352  1.4662
 3975TIP3    H211932   2.777   0.061   2.047  0.0595 -1.3435 -2.2876
 3976TIP3   OH211933   4.657   5.035   0.785 -0.2516 -0.6037 -0.2368
 3976TIP3    H111934   4.668   4.942   0.805 -0.7516 -0.8324 -1.0346
 3976TIP3    H211935   4.738   5.075   0.819 -0.1149 -1.2871  0.2833
 3977TIP3   OH211936   4.425   1.753   2.315  0.0515  0.6816 -0.5086
 3977TIP3    H111937   4.396   1.752   2.224  1.0840  2.7060 -0.9130
 3977TIP3    H211938   4.450   1.844   2.331  1.4747  0.0218  1.2923
 3978TIP3   OH211939   3.670   5.379   4.427 -0.0528  0.1934  0.0208
 3978TIP3    H111940   3.575   5.382   4.438  0.0331  1.4599  0.7217
 3978TIP3    H211941   3.704   5.400   4.514  0.8062  2.3565 -0.7588
 3979TIP3   OH211942   6.209   0.375   1.104  0.5084 -0.0930  0.5076
 3979TIP3    H111943   6.283   0.425   1.140  0.0060  0.3591  0.9173
 3979TIP3    H211944   6.190   0.419   1.021  0.6870 -0.2015  0.4077
 3980TIP3   OH211945   0.445   3.305   4.259  0.2117 -0.4769 -0.1912
 3980TIP3    H111946   0.396   3.235   4.214 -1.0738  0.1207  0.2172
 3980TIP3    H211947   0.465   3.368   4.190 -2.0504  0.5997  0.0353
 3981TIP3   OH211948   1.960   5.684   1.588 -0.2037 -0.1088  0.8296
 3981TIP3    H111949   1.967   5.678   1.493 -0.3764 -1.3129  0.8732
 3981TIP3    H211950   1.962   5.778   1.607 -1.4960  0.2142 -0.4543
 3982TIP3   OH211951   0.963   1.809   2.325  0.2991 -0.0485 -0.1575
 3982TIP3    H111952   0.895   1.804   2.393  0.4734  0.2730  0.0402
 3982TIP3    H211953   0.918   1.848   2.250 -0.0575 -0.9608 -0.4424
 3983TIP3   OH211954   4.298   5.914   4.382 -0.9271  0.2582  0.0445
 3983TIP3    H111955   4.212   5.906   4.423 -0.1732 -0.5778  1.5385
 3983TIP3    H211956   4.296   5.853   4.309 -1.6324  0.3297 -0.0043
 3984TIP3   OH211957   5.625   5.380   1.884 -0.0703 -0.0378 -0.1406
 3984TIP3    H111958   5.639   5.474   1.874  0.7912  0.0736  1.7573
 3984TIP3    H211959   5.578   5.371   1.967 -1.3186 -1.2142 -0.9432
 3985TIP3   OH211960   5.501   0.541   3.904  0.3051 -0.0830 -0.7325
 3985TIP3    H111961   5.580   0.576   3.864  0.7415  1.1083  1.0541
 3985TIP3    H211962   5.448   0.511   3.830  2.0076 -0.0683 -2.0275
 3986TIP3   OH211963   5.435   1.808   0.119 -0.4976  0.2548  0.6419
 3986TIP3    H111964   5.521   1.838   0.089 -0.9481 -0.6678 -1.7266
 3986TIP3    H211965   5.373   1.860   0.068 -1.3037 -1.4189 -0.1376
 3987TIP3   OH211966   4.470   4.384   4.481  0.1655 -0.1146  0.3495
 3987TIP3    H111967   4.498   4.355   4.567  1.6191  1.5151  0.4905
 3987TIP3    H211968   4.538   4.353   4.421  0.1738  0.3836  0.0893
 3988TIP3   OH211969   2.807   3.014   4.905 -0.1988  0.3272  0.0797
 3988TIP3    H111970   2.865   3.036   4.832  1.1234 -0.2406  0.9148
 3988TIP3    H211971   2.771   3.099   4.933  0.7079  0.7823 -0.0838
 3989TIP3   OH211972   1.411   4.726   2.654  0.1494  0.6196  0.4214
 3989TIP3    H111973   1.478   4.695   2.593 -1.6526  0.0511 -1.3957
 3989TIP3    H211974   1.421   4.821   2.656  0.5753  0.5930 -0.3411
 3990TIP3   OH211975   4.845   5.107   3.878 -0.4492 -0.0693  0.3262
 3990TIP3    H111976   4.927   5.102   3.927  0.0776  0.7629 -0.4331
 3990TIP3    H211977   4.793   5.034   3.911  0.8356 -0.9903  0.3993
 3991TIP3   OH211978   5.913   4.550   3.044 -0.2440 -0.1324 -0.1591
 3991TIP3    H111979   5.936   4.562   3.136  1.4211  0.2656 -0.5896
 3991TIP3    H211980   5.851   4.478   3.043  0.9282 -1.2025  1.1426
 3992TIP3   OH211981   3.107   2.144   2.381 -0.2530 -0.2887 -0.3632
 3992TIP3    H111982   3.179   2.180   2.434  1.0721  0.1181 -2.3459
 3992TIP3    H211983   3.102   2.052   2.407  0.1824 -0.0524  0.6303
 3993TIP3   OH211984   3.661   3.606   4.258 -0.0199 -0.0423 -0.1921
 3993TIP3    H111985   3.655   3.623   4.352  1.2050  1.1328 -0.2916
 3993TIP3    H211986   3.579   3.562   4.236 -0.8279  0.6843  1.2261
 3994TIP3   OH211987   5.066   0.781   4.846  0.3453 -0.3097  0.7225
 3994TIP3    H111988   5.101   0.860   4.803  0.1212  0.3573  1.7334
 3994TIP3    H211989   5.144   0.728   4.864  0.4120 -0.8120 -0.8664
 3995TIP3   OH211990   2.720   5.906   3.090 -0.4310 -0.3126  0.6155
 3995TIP3    H111991   2.636   5.915   3.046  0.0804  0.1743 -0.3026
 3995TIP3    H211992   2.751   5.995   3.104 -0.0393 -0.4846  0.8893
 3996TIP3   OH211993   3.869   0.605   4.218 -0.1140  0.1078  0.0942
 3996TIP3    H111994   3.905   0.686   4.181  0.2953  0.7356  1.7683
 3996TIP3    H211995   3.783   0.597   4.178  0.5298  0.3984 -1.4280
 3997TIP3   OH211996   1.548   5.622   3.843  0.0364  0.0347  0.2432
 3997TIP3    H111997   1.523   5.694   3.901 -1.0995  0.1929 -0.4077
 3997TIP3    H211998   1.470   5.607   3.788  1.1255  0.0284 -1.3712
 3998TIP3   OH211999   0.137   0.165   1.910  0.1662 -0.1106 -0.5007
 3998TIP3    H112000   0.221   0.202   1.937  0.4393 -0.9183 -0.2300
 3998TIP3    H212001   0.106   0.224   1.842  0.3774  0.8734  0.2367
 3999TIP3   OH212002   1.020   2.730   0.063  0.4630 -0.2770 -0.3376
 3999TIP3    H112003   1.080   2.786   0.013 -0.8301  1.3700 -0.1176
 3999TIP3    H212004   1.011   2.773   0.147 -1.2257 -0.3298 -0.4499
 4000TIP3   OH212005   0.198   3.806   0.786  0.0618  0.2948 -0.2335
 4000TIP3    H112006   0.285   3.830   0.818 -0.3690  1.0502  0.4097
 4000TIP3    H212007   0.203   3.712   0.770  1.6765  0.6888 -2.4039
 4001TIP3   OH212008   5.045   4.123   4.036  0.1246  0.1684 -0.3379
 4001TIP3    H112009   4.987   4.129   4.112  1.6811  0.2423  0.9061
 4001TIP3    H212010   5.091   4.207   4.035  0.2514  0.0954 -1.2541
 4002TIP3   OH212011   0.672   4.257   2.041  0.0065  0.2310 -0.0826
 4002TIP3    H112012   0.731   4.185   2.060  0.6808  0.8415  0.1915
 4002TIP3    H212013   0.591   4.235   2.088  0.8889  0.6257  1.6776
 4003TIP3   OH212014   1.726   4.871   0.798 -0.1832 -0.5386  0.4378
 4003TIP3    H112015   1.708   4.962   0.773 -0.5288 -0.7735 -0.2101
 4003TIP3    H212016   1.688   4.863   0.885  1.5939  0.4767  1.3579
 4004TIP3   OH212017   6.149   0.727   0.002  0.4536  0.5426 -0.4280
 4004TIP3    H112018   6.098   0.665  -0.050 -0.5725  1.0196 -0.0275
 4004TIP3    H212019   6.176   0.677   0.079 -0.5218  0.6229 -0.0182
 4005TIP3   OH212020   4.819   5.285   0.658 -0.4082  0.5437 -0.2123
 4005TIP3    H112021   4.886   5.344   0.624 -0.4129 -0.1657 -1.5233
 4005TIP3    H212022   4.865   5.231   0.723  0.4388 -0.2344 -1.4137
 4006TIP3   OH212023   4.497   2.550   4.033  0.2166  0.1860 -0.3407
 4006TIP3    H112024   4.502   2.455   4.033 -1.1223  0.0666 -2.1512
 4006TIP3    H212025   4.465   2.573   4.120  0.2538 -1.0309  0.0039
 4007TIP3   OH212026   4.182   5.234   0.783 -0.2660  0.0043 -0.1769
 4007TIP3    H112027   4.221   5.167   0.728  0.7440  0.0145  0.4889
 4007TIP3    H212028   4.088   5.217   0.781 -0.0624 -1.1017 -0.4401
 4008TIP3   OH212029   0.496   5.334   3.979  0.5539  0.5272 -0.1878
 4008TIP3    H112030   0.487   5.291   3.893 -0.9109 -0.3692  0.3629
 4008TIP3    H212031   0.590   5.333   3.997  0.6502 -2.2414 -0.3659
 4009TIP3   OH212032   1.813   4.782   1.200 -0.0588  0.0701 -0.1659
 4009TIP3    H112033   1.728   4.813   1.170 -0.4850 -1.1140 -0.2256
 4009TIP3    H212034   1.807   4.783   1.296  0.8184  2.5228 -0.0729
 4010TIP3   OH212035   5.663   4.783   0.561 -0.3428 -0.5015 -0.4328
 4010TIP3    H112036   5.614   4.865   0.565 -0.3380 -0.5170  0.0203
 4010TIP3    H212037   5.604   4.722   0.516 -0.6560 -0.4591 -0.0843
 4011TIP3   OH212038   5.673   4.973   2.021  0.1972 -0.2644 -0.0333
 4011TIP3    H112039   5.754   4.928   2.042  1.0237  0.8323 -0.7672
 4011TIP3    H212040   5.691   5.020   1.939 -1.0082  0.4099  0.0512
 4012TIP3   OH212041   5.280   2.243   2.422  0.3435 -0.3294 -0.1130
 4012TIP3    H112042   5.336   2.203   2.356 -0.9682 -0.1268 -1.3880
 4012TIP3    H212043   5.213   2.176   2.440  1.5347 -1.0203  2.2138
 4013TIP3   OH212044   0.446   5.373   2.653  0.5551 -0.0581  0.8856
 4013TIP3    H112045   0.381   5.370   2.724  1.0068 -1.6662  1.2647
 4013TIP3    H212046   0.507   5.302   2.672  1.4556  0.3189 -0.4068
 4014TIP3   OH212047   1.646   3.380   0.132  0.1794  0.0398  0.1319
 4014TIP3    H112048   1.730   3.410   0.168  0.9853  0.7567 -2.1617
 4014TIP3    H212049   1.659   3.287   0.113  0.0497 -0.1220  0.8020
 4015TIP3   OH212050   0.096   0.245   2.190  0.2063  0.0336 -0.4575
 4015TIP3    H112051   0.155   0.320   2.204  3.8839 -2.8469  1.0477
 4015TIP3    H212052   0.121   0.211   2.104 -0.7038 -0.0940 -0.6764
 4016TIP3   OH212053   1.229   4.958   4.580 -0.7754 -0.2988 -0.2130
 4016TIP3    H112054   1.228   4.892   4.650 -0.5192 -0.5638 -0.4573
 4016TIP3    H212055   1.316   4.949   4.541 -1.2335 -0.7531 -1.1476
 4017TIP3   OH212056   4.955   1.196   1.657  0.4446 -0.1555 -0.1585
 4017TIP3    H112057   4.952   1.217   1.564 -1.9740  0.5563  0.0135
 4017TIP3    H212058   4.866   1.210   1.688  1.7020  2.2949  2.8749
 4018TIP3   OH212059   3.881   5.045   1.323  0.3682  0.1907 -0.5834
 4018TIP3    H112060   3.953   5.057   1.260  0.9396  0.2916  0.0850
 4018TIP3    H212061   3.880   4.950   1.340  0.4479  0.2126 -0.4610
 4019TIP3   OH212062   1.467   3.705   5.039 -0.2283 -0.0970  0.1653
 4019TIP3    H112063   1.444   3.718   5.131  0.3767  0.2298  0.2823
 4019TIP3    H212064   1.427   3.779   4.993 -0.6757 -0.3544  0.1386
 4020TIP3   OH212065   1.740   5.700   4.153  0.3321 -0.4073 -0.0580
 4020TIP3    H112066   1.830   5.685   4.122  0.4895  0.6371 -0.1512
 4020TIP3    H212067   1.701   5.756   4.086  0.4094  1.1892  1.1749
 4021TIP3   OH212068   3.291   0.039   3.088 -0.1751  0.1414 -0.4098
 4021TIP3    H112069   3.320   0.129   3.068 -0.7915  0.2683 -0.7316
 4021TIP3    H212070   3.358   0.006   3.149  1.1257  0.1313 -1.7941
 4022TIP3   OH212071   2.618   2.822   0.320 -0.1536  0.0111  0.3734
 4022TIP3    H112072   2.565   2.863   0.388 -0.4195  1.5779 -0.7111
 4022TIP3    H212073   2.628   2.890   0.253  2.3426 -0.5820  0.0528
 4023TIP3   OH212074   4.330   1.152   2.678  0.3181  0.2358  0.8126
 4023TIP3    H112075   4.297   1.242   2.672  0.8110  0.3956  0.4385
 4023TIP3    H212076   4.395   1.155   2.748 -0.4984 -0.0932  1.5941
 4024TIP3   OH212077   2.610   3.319   0.228  0.9669 -0.1713  0.2342
 4024TIP3    H112078   2.632   3.359   0.145  0.3932 -0.8725 -0.2677
 4024TIP3    H212079   2.612   3.391   0.291 -1.0063  0.8588 -0.8006
 4025TIP3   OH212080   5.719   1.746   4.496 -0.3549  0.6817  0.4822
 4025TIP3    H112081   5.656   1.675   4.487  0.9853 -0.3434 -1.8195
 4025TIP3    H212082   5.716   1.791   4.411 -1.0811  3.3690  1.8478
 4026TIP3   OH212083   4.669   2.358   4.329 -0.4322 -0.0298 -0.2024
 4026TIP3    H112084   4.587   2.315   4.304 -1.3567  0.7433  1.3305
 4026TIP3    H212085   4.654   2.451   4.310 -0.5756  0.3513  1.5950
 4027TIP3   OH212086   5.055   1.312   3.710  0.5258  0.4430 -0.4687
 4027TIP3    H112087   5.101   1.362   3.643  0.8408 -0.4292 -0.9322
 4027TIP3    H212088   4.962   1.326   3.692  0.6107  0.4734 -0.8915
 4028TIP3   OH212089   3.918   2.413   0.762 -0.7248 -0.0088  0.1144
 4028TIP3    H112090   3.900   2.488   0.820  0.9763  1.6776 -1.4207
 4028TIP3    H212091   3.843   2.411   0.702 -0.3494  1.0920 -0.4172
 4029TIP3   OH212092   1.332   3.943   0.494 -0.0723 -0.6753  0.0979
 4029TIP3    H112093   1.247   3.901   0.482  0.2877 -1.4341  0.1211
 4029TIP3    H212094   1.394   3.870   0.501  0.5721 -0.1354  0.1428
 4030TIP3   OH212095   3.417   4.008   4.223  0.4862  0.4914 -0.1131
 4030TIP3    H112096   3.462   3.936   4.180 -1.2647 -1.2063  0.7500
 4030TIP3    H212097   3.406   3.979   4.313 -1.3037  1.3029 -0.0247
 4031TIP3   OH212098   0.498   1.398   0.015  0.3744 -0.2501  0.0488
 4031TIP3    H112099   0.546   1.405  -0.067  0.8826  0.3897  0.3914
 4031TIP3    H212100   0.540   1.462   0.073  1.1646 -1.9102  1.3768
 4032TIP3   OH212101   2.191   0.576   2.504  0.2118  0.0748  0.3047
 4032TIP3    H112102   2.268   0.562   2.559  1.5011 -0.5457 -1.5281
 4032TIP3    H212103   2.227   0.583   2.415 -1.5481  3.0969 -0.2800
 4033TIP3   OH212104   1.094   0.286   2.645 -0.3676  0.3032  0.3378
 4033TIP3    H112105   1.180   0.319   2.671  1.3609 -2.7759 -0.9418
 4033TIP3    H212106   1.086   0.308   2.552 -1.1819  0.9157  0.5402
 4034TIP3   OH212107   0.766   0.512   3.740 -0.3757 -0.3391 -0.2135
 4034TIP3    H112108   0.842   0.569   3.733 -0.1899 -0.6275 -0.5964
 4034TIP3    H212109   0.713   0.551   3.809 -0.1099  0.1281 -0.2705
 4035TIP3   OH212110   1.597   3.627   2.072 -0.1690  0.0366  0.5068
 4035TIP3    H112111   1.523   3.644   2.131  0.1593 -2.1947  1.6776
 4035TIP3    H212112   1.672   3.618   2.131  0.9690  1.6414 -0.6200
 4036TIP3   OH212113   6.119   5.305   0.739 -0.9026 -0.2352  0.2085
 4036TIP3    H112114   6.118   5.396   0.767 -0.7923 -0.6789  1.7221
 4036TIP3    H212115   6.211   5.285   0.724 -0.9691  0.0277 -0.6464
 4037TIP3   OH212116   2.727   4.863   1.994  0.4798 -0.2890 -0.3815
 4037TIP3    H112117   2.704   4.823   2.078  1.1467  0.1970  0.0479
 4037TIP3    H212118   2.746   4.954   2.016 -0.2997  0.0932 -1.2245
 4038TIP3   OH212119   0.140   4.024   2.967 -0.1447  0.1627  0.1295
 4038TIP3    H112120   0.114   3.961   2.899 -0.6887  0.1088  0.3868
 4038TIP3    H212121   0.234   4.036   2.953  0.2116 -1.5622  0.7655
 4039TIP3   OH212122   1.251   2.891   4.301  0.2919  0.0251 -0.6727
 4039TIP3    H112123   1.224   2.973   4.260  0.7917  0.4159 -0.2240
 4039TIP3    H212124   1.343   2.880   4.274 -0.4230 -1.6601 -2.8048
 4040TIP3   OH212125   2.507   5.853   1.314 -0.0179  0.2297 -0.2445
 4040TIP3    H112126   2.435   5.856   1.251  1.1538  0.3290 -1.6249
 4040TIP3    H212127   2.467   5.882   1.397 -2.5936 -3.6451  0.1394
 4041TIP3   OH212128   5.682   0.379   1.346 -0.5514 -0.1358  0.2488
 4041TIP3    H112129   5.766   0.360   1.302 -0.5488 -0.3112  0.3266
 4041TIP3    H212130   5.693   0.468   1.380 -0.3322 -0.2187  0.4030
 4042TIP3   OH212131   5.452   0.145   3.569 -0.3904 -0.0149 -0.1273
 4042TIP3    H112132   5.413   0.223   3.609  0.0231  0.1378 -0.0259
 4042TIP3    H212133   5.545   0.151   3.589 -0.1274  0.2128 -1.3525
 4043TIP3   OH212134   3.282   0.093   0.528  0.1297 -0.0223  0.9436
 4043TIP3    H112135   3.335   0.167   0.560 -1.1724  1.4868 -0.2147
 4043TIP3    H212136   3.193   0.114   0.556 -0.7585  0.4357 -1.9190
 4044TIP3   OH212137   3.900   1.899   2.202 -0.0943  0.0529 -0.0927
 4044TIP3    H112138   3.880   1.954   2.277 -2.4860 -1.0385  0.1600
 4044TIP3    H212139   3.874   1.950   2.125  1.4917  0.8037 -0.1698
 4045TIP3   OH212140   4.048   2.702   4.328  0.2454 -0.0403 -0.5667
 4045TIP3    H112141   3.969   2.682   4.378  0.7738 -0.7975 -0.0132
 4045TIP3    H212142   4.027   2.782   4.280  0.2171  1.6310  2.0487
 4046TIP3   OH212143   0.597   1.797   0.774  0.1499  0.0483 -0.0991
 4046TIP3    H112144   0.654   1.815   0.849  1.0316  0.1937 -0.7765
 4046TIP3    H212145   0.612   1.871   0.715 -0.1237 -0.3266 -0.6450
 4047TIP3   OH212146   0.793   0.922   4.484 -0.1809  0.1671 -0.1435
 4047TIP3    H112147   0.830   0.919   4.572 -1.4806  2.5447  0.5819
 4047TIP3    H212148   0.866   0.948   4.427  1.1456 -3.1892 -0.2023
 4048TIP3   OH212149   1.707   4.779   4.697 -0.2361 -0.7712  0.2328
 4048TIP3    H112150   1.768   4.714   4.732  1.7982  1.4168  1.0442
 4048TIP3    H212151   1.674   4.824   4.775  2.8532  2.8758 -0.2617
 4049TIP3   OH212152   4.550   3.561   3.751  0.4837 -0.3385 -0.2747
 4049TIP3    H112153   4.490   3.573   3.824 -0.5009 -0.3656 -1.0501
 4049TIP3    H212154   4.632   3.532   3.791 -0.0595 -0.4320  0.7979
 4050TIP3   OH212155   2.912   3.944   3.784  0.5221 -0.2371 -0.6907
 4050TIP3    H112156   3.006   3.963   3.787  0.7077 -1.2367  0.6164
 4050TIP3    H212157   2.877   3.980   3.865 -0.0516 -0.7609 -0.6970
 4051TIP3   OH212158   2.576   2.946   3.374  0.8608  0.4925  0.0039
 4051TIP3    H112159   2.577   2.871   3.314 -0.1739 -0.0317  0.6265
 4051TIP3    H212160   2.491   2.987   3.361  0.8620  0.7229  0.6958
 4052TIP3   OH212161   1.293   3.712   1.424 -0.3922  0.4270 -0.0424
 4052TIP3    H112162   1.292   3.658   1.345 -0.3283 -1.2442  1.0532
 4052TIP3    H212163   1.227   3.779   1.407 -0.7673 -0.2250 -1.3013
 4053TIP3   OH212164   0.697   3.422   0.328 -0.0374 -0.1335 -0.2565
 4053TIP3    H112165   0.744   3.418   0.245 -1.3965 -2.1769 -1.0084
 4053TIP3    H212166   0.619   3.367   0.314  0.7051 -2.3009  2.9784
 4054TIP3   OH212167   4.046   2.139   5.065 -0.2552  0.3973 -0.2925
 4054TIP3    H112168   3.980   2.092   5.014  0.8853 -2.9597  1.0253
 4054TIP3    H212169   4.009   2.143   5.153  1.2457 -1.7393  0.5151
 4055TIP3   OH212170   6.162   3.226   4.989  0.1119  0.3115 -0.6438
 4055TIP3    H112171   6.094   3.283   4.954  0.4728  0.8155 -0.5352
 4055TIP3    H212172   6.212   3.198   4.913 -1.5007 -1.8285 -1.0200
 4056TIP3   OH212173   1.269   1.042   4.409 -0.3647 -0.3191  0.3915
 4056TIP3    H112174   1.343   1.067   4.353 -0.5853  2.1197  1.1015
 4056TIP3    H212175   1.192   1.069   4.361 -0.5837  1.1751  1.5155
 4057TIP3   OH212176   4.460   4.968   4.999  0.6083 -0.3481  0.0982
 4057TIP3    H112177   4.543   4.992   5.040 -0.7154 -0.2585  2.9178
 4057TIP3    H212178   4.478   4.887   4.952  2.2885 -0.2800  0.5801
 4058TIP3   OH212179   5.247   4.656   0.516 -0.1878 -0.4606 -0.2384
 4058TIP3    H112180   5.227   4.564   0.533  0.6481 -0.5105  0.5785
 4058TIP3    H212181   5.207   4.703   0.590 -0.2046 -0.2143 -0.4030
 4059TIP3   OH212182   2.656   4.232   4.177 -0.0874  0.3386  0.0804
 4059TIP3    H112183   2.629   4.319   4.146 -1.2557  0.1826  0.6296
 4059TIP3    H212184   2.613   4.222   4.262  1.6005  0.0059  0.9390
 4060TIP3   OH212185   2.983   4.915   4.770  0.1762 -0.1308  0.1101
 4060TIP3    H112186   3.078   4.918   4.777  0.4084  1.5166 -2.3807
 4060TIP3    H212187   2.952   4.977   4.836  0.8805 -0.1046  0.4202
 4061TIP3   OH212188   3.255   3.231   2.812 -0.2954  0.3192  0.4276
 4061TIP3    H112189   3.322   3.238   2.881  0.4868 -2.9393  0.1581
 4061TIP3    H212190   3.278   3.151   2.765 -2.1465  1.2191 -2.2313
 4062TIP3   OH212191   0.187   5.566   4.986  0.0922  0.0722  0.5173
 4062TIP3    H112192   0.199   5.658   5.011  1.4364  0.2170 -0.5458
 4062TIP3    H212193   0.249   5.518   5.041 -1.3485 -0.3704  1.8357
 4063TIP3   OH212194   1.747   0.009   0.945 -0.0491 -0.3862 -0.1592
 4063TIP3    H112195   1.655   0.032   0.960 -0.5244 -2.6978  0.8704
 4063TIP3    H212196   1.776  -0.029   1.027  2.2339  1.3334 -0.0899
 4064TIP3   OH212197   5.006   5.511   1.454  0.4930  0.0306  0.1526
 4064TIP3    H112198   5.010   5.586   1.395 -1.3802  0.9421  1.1071
 4064TIP3    H212199   4.971   5.440   1.400 -3.7375  1.5192  0.6098
 4065TIP3   OH212200   4.956   0.097   0.492  0.0454 -0.1390 -0.0730
 4065TIP3    H112201   4.958   0.090   0.587 -0.4593  0.1179 -0.0423
 4065TIP3    H212202   4.947   0.190   0.474  2.4699  0.1031 -0.4240
 4066TIP3   OH212203   4.383   5.930   0.951  0.0940  0.1524 -0.0614
 4066TIP3    H112204   4.331   5.907   1.028 -0.2203  1.3875  0.1100
 4066TIP3    H212205   4.347   5.874   0.881 -1.6137  1.0927  0.0148
 4067TIP3   OH212206   5.803   4.656   4.161  0.0194 -0.4711  0.0756
 4067TIP3    H112207   5.811   4.645   4.066  0.0952  0.8994 -0.1023
 4067TIP3    H212208   5.773   4.571   4.193  1.1985 -1.3329 -1.0134
 4068TIP3   OH212209   2.255   1.428   3.775  0.0660  0.0223 -0.5906
 4068TIP3    H112210   2.313   1.504   3.780 -0.3644  0.3586 -0.5801
 4068TIP3    H212211   2.203   1.443   3.696 -0.8965  0.3864  0.0922
 4069TIP3   OH212212   3.448   4.068   2.592 -0.7061 -0.3568 -0.2152
 4069TIP3    H112213   3.542   4.059   2.579 -0.3485  0.0054  1.7542
 4069TIP3    H212214   3.423   3.991   2.643 -1.1596  0.3103  0.6011
 4070TIP3   OH212215   1.563   0.076   1.894 -0.2856  0.5393  0.0823
 4070TIP3    H112216   1.521   0.049   1.812 -2.6109  0.8695  1.0879
 4070TIP3    H212217   1.645   0.027   1.896 -0.7566 -0.4245 -1.8503
 4071TIP3   OH212218   5.064   4.983   0.380  0.4010 -0.3853 -0.5831
 4071TIP3    H112219   4.986   5.012   0.428  1.2248  1.8699 -0.4757
 4071TIP3    H212220   5.044   5.001   0.289  0.3572 -0.9156 -0.6798
 4072TIP3   OH212221   6.021   3.484   3.801  0.3363 -0.2493 -0.6705
 4072TIP3    H112222   6.062   3.403   3.770  0.4440  0.1553 -1.6222
 4072TIP3    H212223   5.942   3.493   3.748 -0.3885 -0.4135  0.3468
 4073TIP3   OH212224   0.295   0.914   1.843 -0.0259  0.0222 -0.3301
 4073TIP3    H112225   0.227   0.868   1.794 -0.6065  2.3249 -1.8774
 4073TIP3    H212226   0.370   0.855   1.843 -0.8189 -1.0583 -1.9009
 4074TIP3   OH212227   6.041   5.744   4.645  0.2160  0.5406  0.4110
 4074TIP3    H112228   6.113   5.688   4.674  0.5947  0.7238 -0.1645
 4074TIP3    H212229   5.991   5.689   4.585  0.9279  0.9865 -0.6266
 4075TIP3   OH212230   3.476   4.828   4.239  0.8796  0.7225  0.7643
 4075TIP3    H112231   3.383   4.810   4.229  1.2134  0.0664 -2.1150
 4075TIP3    H212232   3.480   4.912   4.284 -1.1506  1.2856  0.0111
 4076TIP3   OH212233   2.861   2.642   2.356  0.0435  0.1095 -0.0302
 4076TIP3    H112234   2.917   2.574   2.318  0.3590  0.2511  0.1713
 4076TIP3    H212235   2.772   2.613   2.338  0.0754 -1.5882  2.0359
 4077TIP3   OH212236   5.766   5.139   4.675  0.3802  0.2428 -0.0147
 4077TIP3    H112237   5.808   5.212   4.721  0.6632 -0.2462  0.5087
 4077TIP3    H212238   5.832   5.109   4.613  0.9772 -0.7774  1.0761
 4078TIP3   OH212239   5.265   0.569   4.305  0.1563  0.1389  0.9629
 4078TIP3    H112240   5.352   0.610   4.305  0.6545 -0.8758  0.9310
 4078TIP3    H212241   5.236   0.574   4.396  0.9639 -0.9410  1.2988
 4079TIP3   OH212242   0.360   5.696   4.564  0.0398 -0.2992 -0.2778
 4079TIP3    H112243   0.444   5.650   4.562 -0.0186 -0.4171 -0.0482
 4079TIP3    H212244   0.350   5.732   4.476  0.8559  0.6869  0.0243
 4080TIP3   OH212245   4.735   2.248   3.125  0.6371 -0.2979  0.1831
 4080TIP3    H112246   4.720   2.273   3.034  0.6929  2.0472  0.7574
 4080TIP3    H212247   4.648   2.251   3.166  0.7457 -0.4104  0.4281
 4081TIP3   OH212248   5.906   2.484   4.513  0.2671  0.2482  0.6079
 4081TIP3    H112249   5.842   2.535   4.563 -1.2737 -0.0025 -0.9963
 4081TIP3    H212250   5.892   2.394   4.542 -1.7997 -0.1479 -1.2943
 4082TIP3   OH212251   3.249   4.133   2.426  0.1210  0.1251  0.1643
 4082TIP3    H112252   3.217   4.223   2.435  1.1891  0.6381 -0.8911
 4082TIP3    H212253   3.309   4.122   2.500  0.2548  0.4043  0.1000
 4083TIP3   OH212254   0.796   3.914   3.022  0.3706  0.0718 -0.2265
 4083TIP3    H112255   0.873   3.872   3.061 -0.2094 -0.1360  0.7213
 4083TIP3    H212256   0.730   3.845   3.018  0.0898  0.3570 -0.6459
 4084TIP3   OH212257   6.249   0.178   2.597  0.1061  0.3168  0.0374
 4084TIP3    H112258   6.233   0.260   2.550  0.8314 -0.3337 -1.4170
 4084TIP3    H212259   6.288   0.204   2.680 -0.7685  1.4910  0.0934
 4085TIP3   OH212260   4.241   2.621   2.357 -0.0959 -0.1248  0.3879
 4085TIP3    H112261   4.296   2.669   2.419  1.0995 -0.9487 -0.0060
 4085TIP3    H212262   4.247   2.530   2.385  0.1686 -0.4608 -0.7056
 4086TIP3   OH212263   0.346   4.673   0.296 -0.1734 -0.1196 -0.3171
 4086TIP3    H112264   0.340   4.655   0.389 -0.0538 -1.7840 -0.6117
 4086TIP3    H212265   0.412   4.741   0.289  2.9529 -2.8433  0.5433
 4087TIP3   OH212266   5.273   3.223   0.900 -0.2601  0.0006  0.6741
 4087TIP3    H112267   5.256   3.307   0.943  0.0681  1.1260 -1.3103
 4087TIP3    H212268   5.189   3.177   0.902 -0.9522  1.2011  0.0726
 4088TIP3   OH212269   2.420   5.494   1.709  0.0065 -0.0046  0.0525
 4088TIP3    H112270   2.404   5.416   1.763  2.3651 -0.1543  0.6624
 4088TIP3    H212271   2.481   5.465   1.641 -1.5937  0.6003 -1.7203
 4089TIP3   OH212272   2.622   3.110   3.958  0.3046 -0.1621  0.3560
 4089TIP3    H112273   2.612   3.036   4.018  0.5504 -0.6017 -0.1338
 4089TIP3    H212274   2.605   3.072   3.872  1.6350  0.0763 -0.0246
 4090TIP3   OH212275   1.911   0.298   4.570  0.4370  0.0708 -0.3386
 4090TIP3    H112276   1.851   0.308   4.496  0.2533  2.8083  0.0973
 4090TIP3    H212277   1.961   0.219   4.549 -0.8493 -0.2621 -2.4640
 4091TIP3   OH212278   5.165   4.483   0.111 -0.4093 -0.5446 -0.7868
 4091TIP3    H112279   5.127   4.568   0.087  0.3764  0.0076 -0.1192
 4091TIP3    H212280   5.129   4.463   0.197  0.3222 -0.3018 -0.4125
 4092TIP3   OH212281   4.964   3.658   0.711 -0.9407 -0.3245 -0.2942
 4092TIP3    H112282   5.018   3.736   0.723 -4.1007  1.9130  0.4292
 4092TIP3    H212283   5.001   3.594   0.772  1.3217  0.7843 -0.3935
 4093TIP3   OH212284   1.269   2.049   3.392 -0.0399 -0.1058  0.2276
 4093TIP3    H112285   1.295   2.121   3.335  0.5308  0.8377  1.6142
 4093TIP3    H212286   1.199   2.086   3.446 -1.2811 -1.2953 -0.5187
 4094TIP3   OH212287   4.803   4.642   2.619 -0.1631  0.0576  0.2661
 4094TIP3    H112288   4.760   4.556   2.624 -1.2692  0.5011 -0.8648
 4094TIP3    H212289   4.791   4.680   2.706 -0.2026 -0.6860  0.5950
 4095TIP3   OH212290   5.626   3.505   0.127 -0.2896  0.0263 -0.1479
 4095TIP3    H112291   5.536   3.509   0.095 -0.4797  1.2480  0.4988
 4095TIP3    H212292   5.661   3.424   0.090 -1.5579 -0.3126 -0.6460
 4096TIP3   OH212293   4.202   4.511   4.640 -0.1753 -0.6921 -0.2429
 4096TIP3    H112294   4.142   4.478   4.574  0.3370 -1.3460 -0.3857
 4096TIP3    H212295   4.195   4.450   4.713 -0.7076  0.0009  0.3039
 4097TIP3   OH212296   0.821   5.684   4.628  0.1411 -0.6192 -0.1087
 4097TIP3    H112297   0.838   5.765   4.581 -3.8457 -0.6759 -2.1027
 4097TIP3    H212298   0.859   5.616   4.572  0.1717 -0.3376 -0.4378
 4098TIP3   OH212299   6.282   5.077   4.081 -0.0958 -0.2633  0.8373
 4098TIP3    H112300   6.293   5.127   4.162  1.1596 -1.1772  1.2714
 4098TIP3    H212301   6.192   5.096   4.053 -0.0797  1.1910  1.6639
 4099TIP3   OH212302   0.237   4.609   0.544 -0.3523 -0.4933 -0.7623
 4099TIP3    H112303   0.158   4.560   0.567 -1.3019  1.0138 -0.6692
 4099TIP3    H212304   0.232   4.689   0.596  0.8069  0.0270 -1.4006
 4100TIP3   OH212305   5.328   1.071   1.468 -0.1446 -0.0411 -0.1088
 4100TIP3    H112306   5.391   1.032   1.528  0.5505 -0.1278 -0.8808
 4100TIP3    H212307   5.253   1.011   1.470 -0.4466  0.3327  1.2068
 4101TIP3   OH212308   4.117   5.847   4.025 -0.4020 -0.0452 -0.2008
 4101TIP3    H112309   4.150   5.806   3.945 -0.9314  0.8844 -0.9158
 4101TIP3    H212310   4.052   5.910   3.994  0.6469  1.6040  0.8338
 4102TIP3   OH212311   4.662   5.089   1.168 -0.0729  0.0539  0.2791
 4102TIP3    H112312   4.723   5.035   1.219  0.1788 -1.4173 -1.4648
 4102TIP3    H212313   4.717   5.128   1.100 -0.9891 -1.1288 -1.1967
 4103TIP3   OH212314   0.802   5.369   3.999  0.3713 -0.0609  0.0494
 4103TIP3    H112315   0.860   5.433   3.959 -0.1538  0.2391 -0.2349
 4103TIP3    H212316   0.822   5.374   4.093  2.0400 -1.1999 -0.2023
 4104TIP3   OH212317   1.315   1.300   3.494  0.0900  0.1246 -0.1037
 4104TIP3    H112318   1.234   1.250   3.507  0.2835 -0.5828 -1.4802
 4104TIP3    H212319   1.385   1.242   3.523  0.2857 -0.2916 -1.3481
 4105TIP3   OH212320   3.097   2.451   0.892 -0.3604  0.1090 -0.1840
 4105TIP3    H112321   3.101   2.427   0.799 -0.5323  0.5875 -0.3150
 4105TIP3    H212322   3.036   2.524   0.895 -1.1798 -0.5836  0.4469
 4106TIP3   OH212323   0.031   1.798   1.988 -0.4565  0.4304  0.0826
 4106TIP3    H112324   0.072   1.796   2.074  0.9525  1.8524 -0.5121
 4106TIP3    H212325   0.087   1.743   1.933 -1.4696 -0.6493  0.0938
 4107TIP3   OH212326   4.536   1.658   4.436  0.8443  0.1881 -0.2392
 4107TIP3    H112327   4.441   1.658   4.450  1.0204  1.6731  1.3136
 4107TIP3    H212328   4.546   1.667   4.341 -0.5687  0.3332 -0.4026
 4108TIP3   OH212329   4.136   4.160   4.162  0.4923  0.7237  0.1385
 4108TIP3    H112330   4.050   4.139   4.199 -0.0097  2.6290  0.1425
 4108TIP3    H212331   4.178   4.214   4.229  1.0052  1.2184 -0.5711
 4109TIP3   OH212332   3.813   0.071   0.075 -0.4066  0.3150  0.4125
 4109TIP3    H112333   3.788   0.121  -0.003  1.7734  4.1237  1.8780
 4109TIP3    H212334   3.748   0.096   0.141 -0.1815 -0.0673  0.7830
 4110TIP3   OH212335   0.339   5.628   3.505 -0.6529 -0.4325 -0.2036
 4110TIP3    H112336   0.344   5.588   3.418  0.4364 -0.0339 -0.3477
 4110TIP3    H212337   0.331   5.722   3.488  0.8714 -0.2168  0.0926
 4111TIP3   OH212338   2.570   1.859   2.331 -0.2119 -0.3206  0.1182
 4111TIP3    H112339   2.593   1.914   2.256 -2.1409  2.2825  1.2524
 4111TIP3    H212340   2.520   1.787   2.295  1.6564 -0.9453 -1.3613
 4112TIP3   OH212341   2.774   2.386   4.838 -0.2417 -0.0341  0.1958
 4112TIP3    H112342   2.805   2.470   4.871 -2.4407  1.2164 -0.6439
 4112TIP3    H212343   2.703   2.361   4.897 -0.0580 -0.9756  0.0445
 4113TIP3   OH212344   6.235   5.543   2.480 -0.0846 -0.0972  0.1195
 4113TIP3    H112345   6.153   5.564   2.526 -0.0996  3.5032 -1.2013
 4113TIP3    H212346   6.206   5.510   2.395 -0.1699  0.4755 -0.0769
 4114TIP3   OH212347   5.220   5.506   0.369 -0.3851 -0.2168  0.5757
 4114TIP3    H112348   5.181   5.581   0.324 -0.2570 -0.4787  0.0234
 4114TIP3    H212349   5.193   5.430   0.317  0.9811 -0.3883  0.0954
 4115TIP3   OH212350   2.095   5.913   1.683  0.0596  0.2372  0.3546
 4115TIP3    H112351   2.157   5.975   1.722 -1.0622  0.5821  1.6325
 4115TIP3    H212352   2.143   5.830   1.683  1.3120  0.9099 -0.7144
 4116TIP3   OH212353   4.573   5.132   0.302 -0.5743 -0.4655  0.4572
 4116TIP3    H112354   4.577   5.173   0.216 -0.9746 -0.5055  0.4158
 4116TIP3    H212355   4.658   5.150   0.342 -0.4234 -0.3696  0.0889
 4117TIP3   OH212356   1.247   4.320   3.491 -0.6425  0.3155 -0.0676
 4117TIP3    H112357   1.282   4.377   3.560 -2.2470 -1.1061  2.0258
 4117TIP3    H212358   1.294   4.238   3.503  0.2317  0.5227 -1.7978
 4118TIP3   OH212359   0.074   3.824   2.775 -0.2789  0.3355 -0.7092
 4118TIP3    H112360  -0.017   3.833   2.745 -0.0865  2.1243 -0.8857
 4118TIP3    H212361   0.117   3.772   2.707 -0.9176  0.4428 -1.2088
 4119TIP3   OH212362   5.885   0.697   4.312 -0.4637 -0.4028  0.2770
 4119TIP3    H112363   5.953   0.761   4.290  0.3069 -0.4729  2.2571
 4119TIP3    H212364   5.833   0.689   4.232  0.7817  0.9906 -0.7299
 4120TIP3   OH212365   4.306   4.107   0.395 -0.5073  0.2150 -0.3637
 4120TIP3    H112366   4.318   4.018   0.364 -2.3260 -0.2928  0.2477
 4120TIP3    H212367   4.349   4.109   0.481  0.6972  0.3414 -0.9562
 4121TIP3   OH212368   4.089   0.319   2.251 -0.7475 -0.2188  0.1808
 4121TIP3    H112369   4.053   0.283   2.170  0.5042  0.3167 -0.6504
 4121TIP3    H212370   4.135   0.245   2.291  2.0312  0.3355 -1.6480
 4122TIP3   OH212371   2.375   0.548   4.016 -0.3824  0.3205  0.5457
 4122TIP3    H112372   2.459   0.518   3.981  0.5496  1.9246  1.2703
 4122TIP3    H212373   2.314   0.476   3.999  0.3587  0.3093 -2.8728
 4123TIP3   OH212374   0.716   0.721   2.113 -0.4780 -0.4727 -0.7252
 4123TIP3    H112375   0.640   0.776   2.099 -1.1559 -1.5677 -1.4522
 4123TIP3    H212376   0.735   0.730   2.207  0.1858  1.9008 -1.0090
 4124TIP3   OH212377   3.742   1.459   0.344  0.1796 -0.3599 -0.7140
 4124TIP3    H112378   3.666   1.467   0.402  1.1271 -0.2426  0.5534
 4124TIP3    H212379   3.725   1.380   0.292  0.4868 -2.0124  1.5705
 4125TIP3   OH212380   6.073   0.279   3.771  0.1373 -0.4964  0.1139
 4125TIP3    H112381   6.100   0.319   3.854 -0.1571 -2.6659  1.3256
 4125TIP3    H212382   5.985   0.314   3.755 -0.8722 -1.9097  2.1122
 4126TIP3   OH212383   3.312   2.800   0.300 -0.1595  0.1226  0.0915
 4126TIP3    H112384   3.313   2.890   0.267 -0.7289  0.2136  0.3190
 4126TIP3    H212385   3.388   2.796   0.359 -0.0313  0.4034 -0.0500
 4127TIP3   OH212386   4.815   0.759   0.732 -0.3875  0.2732  0.2578
 4127TIP3    H112387   4.862   0.683   0.766  2.9206  0.9505 -2.2591
 4127TIP3    H212388   4.823   0.825   0.800  1.6917  0.0883  0.2361
 4128TIP3   OH212389   5.592   2.150   2.828  0.0368 -0.0013 -0.0777
 4128TIP3    H112390   5.544   2.153   2.910 -0.6865 -0.5783 -0.4742
 4128TIP3    H212391   5.525   2.147   2.760  0.5667 -2.4424 -0.5935
 4129TIP3   OH212392   0.415   4.039   3.104  0.1313  0.4463  0.4060
 4129TIP3    H112393   0.350   4.108   3.115 -0.1182  0.0394  1.7027
 4129TIP3    H212394   0.442   4.017   3.193 -0.0623 -1.3518  0.0682
 4130TIP3   OH212395   3.653   5.113   1.483  0.2585 -0.2180 -0.0622
 4130TIP3    H112396   3.669   5.034   1.534  2.8277  0.1077 -0.2182
 4130TIP3    H212397   3.698   5.098   1.400 -0.5638  0.7912 -0.7233
 4131TIP3   OH212398   6.213   0.311   2.335  0.5947  0.2075  0.0812
 4131TIP3    H112399   6.138   0.317   2.276 -0.6994 -1.3793  1.4730
 4131TIP3    H212400   6.277   0.258   2.287  0.1969  0.2389 -0.4970
 4132TIP3   OH212401   3.188   5.309   0.058  0.4145  0.3866 -0.3978
 4132TIP3    H112402   3.232   5.246   0.116  1.2234  1.7204  0.4944
 4132TIP3    H212403   3.246   5.317  -0.017 -0.8013 -1.6030 -1.6177
 4133TIP3   OH212404   3.775   1.377   0.041  0.2245  0.4593  0.3503
 4133TIP3    H112405   3.683   1.359   0.060  0.5717 -0.9146  0.8098
 4133TIP3    H212406   3.781   1.473   0.042 -1.5794  0.6638 -1.6173
 4134TIP3   OH212407   3.130   0.198   2.196 -0.2958 -0.3663  0.2351
 4134TIP3    H112408   3.173   0.273   2.238  0.1240  0.0273 -0.8767
 4134TIP3    H212409   3.202   0.139   2.173 -0.5473 -0.6939  0.2846
 4135TIP3   OH212410   1.524   0.823   2.247 -0.6771  0.0340  0.7878
 4135TIP3    H112411   1.462   0.818   2.320 -0.2911 -0.1224  1.1108
 4135TIP3    H212412   1.469   0.829   2.169 -1.1075  2.4841  1.2215
 4136TIP3   OH212413   2.466   1.523   0.215 -0.0625 -0.2234 -0.2558
 4136TIP3    H112414   2.380   1.514   0.257 -0.4119 -1.2349 -1.1597
 4136TIP3    H212415   2.463   1.608   0.172 -0.2693  0.1399  0.4572
 4137TIP3   OH212416   5.460   4.518   0.162 -0.3566  0.7755 -0.6018
 4137TIP3    H112417   5.506   4.529   0.079 -0.8474 -1.6511 -1.2709
 4137TIP3    H212418   5.372   4.490   0.137 -0.2644 -0.8851  0.6980
 4138TIP3   OH212419   2.296   2.198   0.538 -0.1500 -0.2032  0.3808
 4138TIP3    H112420   2.278   2.205   0.632  1.4107 -1.8430  0.8728
 4138TIP3    H212421   2.269   2.108   0.516  1.2014 -0.4714 -0.2833
 4139TIP3   OH212422   0.161   1.565   4.928  0.0471 -0.3781 -0.0645
 4139TIP3    H112423   0.129   1.614   4.853 -1.5869 -2.4097 -0.7727
 4139TIP3    H212424   0.181   1.632   4.993 -0.9877  1.2841 -1.3664
 4140TIP3   OH212425   3.534   2.518   3.989 -0.0095 -0.7008 -0.0108
 4140TIP3    H112426   3.517   2.516   4.083 -0.5635 -1.0891 -0.1180
 4140TIP3    H212427   3.627   2.497   3.981  0.2523  0.2017  0.4998
 4141TIP3   OH212428   6.141   1.977   3.566  0.2743  0.3575 -0.6100
 4141TIP3    H112429   6.183   2.048   3.614  0.4034 -0.7983  1.0580
 4141TIP3    H212430   6.094   1.926   3.632 -1.1017 -0.2562 -1.9685
 4142TIP3   OH212431   3.882   2.154   2.334  0.2115 -0.3678 -0.4848
 4142TIP3    H112432   3.800   2.159   2.285  0.8016 -0.4956 -1.5217
 4142TIP3    H212433   3.950   2.175   2.270  0.9257  0.8967  0.6250
 4143TIP3   OH212434   6.117   0.606   4.658  0.0672 -0.1835 -0.6509
 4143TIP3    H112435   6.196   0.554   4.674 -1.0934 -2.0119 -0.6185
 4143TIP3    H212436   6.148   0.680   4.605  1.8202 -0.7754 -0.5199
 4144TIP3   OH212437   5.920   5.699   2.565 -0.4880  0.0122 -0.6053
 4144TIP3    H112438   5.892   5.634   2.500  0.3911  0.3554 -1.3367
 4144TIP3    H212439   5.951   5.647   2.639 -1.5030 -0.3798 -0.4351
 4145TIP3   OH212440   1.543   5.917   4.782 -0.3113 -0.7632 -0.4302
 4145TIP3    H112441   1.463   5.915   4.834  0.3625 -2.2699  0.6564
 4145TIP3    H212442   1.523   5.863   4.705 -0.2283 -1.5332  0.0717
 4146TIP3   OH212443   2.804   3.156   0.981 -0.4638  0.2656 -0.5718
 4146TIP3    H112444   2.815   3.251   0.972  1.8711  0.0992 -0.2006
 4146TIP3    H212445   2.710   3.143   0.989 -0.7717  2.6797  0.6029
 4147TIP3   OH212446   0.892   1.623   4.310 -0.0436 -0.6415  0.3037
 4147TIP3    H112447   0.961   1.558   4.299 -1.4933 -2.2554  0.2189
 4147TIP3    H212448   0.865   1.645   4.221  2.2828  2.2572  0.2030
 4148TIP3   OH212449   3.907   2.707   2.446 -0.4584  0.4506  0.3363
 4148TIP3    H112450   3.936   2.766   2.515  1.1821  0.3207 -0.1948
 4148TIP3    H212451   3.890   2.764   2.371  0.4231  0.3269  0.0387
 4149TIP3   OH212452   1.101   5.768   3.527 -0.4994 -0.3590  0.3245
 4149TIP3    H112453   1.007   5.777   3.512 -0.7273 -0.2665  1.6348
 4149TIP3    H212454   1.135   5.856   3.515 -0.6259 -0.3425  0.0876
 4150TIP3   OH212455   0.779   4.458   1.512 -0.6302 -0.3740  0.1735
 4150TIP3    H112456   0.734   4.537   1.480  1.2824  0.2256 -1.2129
 4150TIP3    H212457   0.793   4.475   1.605  1.2199  1.7662 -0.4035
 4151TIP3   OH212458   3.093   1.022   1.344 -0.5026  0.9842 -0.0291
 4151TIP3    H112459   3.141   1.056   1.268 -1.3729 -1.7876 -1.9676
 4151TIP3    H212460   3.027   0.964   1.307  0.0184 -1.7406  2.8525
 4152TIP3   OH212461   6.195   3.687   0.949 -0.5782 -0.0825 -0.0784
 4152TIP3    H112462   6.264   3.624   0.929 -0.4815 -0.5919  1.7004
 4152TIP3    H212463   6.183   3.736   0.868  2.7811  0.9440 -0.1011
 4153TIP3   OH212464   0.768   3.469   3.609  0.0934 -0.1831  0.0361
 4153TIP3    H112465   0.771   3.376   3.634 -0.4279  0.2844  2.0706
 4153TIP3    H212466   0.675   3.491   3.612 -0.1072 -0.2230 -3.2228
 4154TIP3   OH212467   0.481   5.599   4.290 -0.2858  0.3195 -0.1592
 4154TIP3    H112468   0.540   5.629   4.221 -0.0640 -1.1647 -0.6575
 4154TIP3    H212469   0.537   5.586   4.366 -0.0244 -0.6090 -0.4903
 4155TIP3   OH212470   5.083   3.595   4.537  0.0590 -0.2246  0.2907
 4155TIP3    H112471   5.160   3.629   4.581  0.2751 -0.6336  0.2346
 4155TIP3    H212472   5.084   3.635   4.450  0.8037 -1.0627 -0.0959
 4156TIP3   OH212473   3.156   2.183   4.648 -0.4599 -0.2437  0.0457
 4156TIP3    H112474   3.183   2.101   4.606  2.3387  0.0371  1.0801
 4156TIP3    H212475   3.190   2.251   4.589  0.7264  0.1307  1.1212
 4157TIP3   OH212476   3.301   1.261   3.610  0.4181 -0.9203  0.1834
 4157TIP3    H112477   3.305   1.281   3.703  0.9792  1.0488 -0.2113
 4157TIP3    H212478   3.231   1.195   3.602 -1.6343  0.9273  1.6801
 4158TIP3   OH212479   5.340   2.816   2.972 -0.1511  0.4410  0.0284
 4158TIP3    H112480   5.305   2.790   3.057 -0.3353  0.8634  0.0839
 4158TIP3    H212481   5.388   2.739   2.941  1.7477  0.9670  1.4801
 4159TIP3   OH212482   2.891   5.322   0.345 -0.6131 -0.6515 -0.8202
 4159TIP3    H112483   2.851   5.363   0.269  1.0070  1.0290 -0.8317
 4159TIP3    H212484   2.934   5.244   0.310 -1.7873 -1.1484 -1.2015
 4160TIP3   OH212485   3.242   3.698   3.776 -0.3412  0.0848 -0.2454
 4160TIP3    H112486   3.199   3.622   3.737 -0.5366 -0.0420  0.2170
 4160TIP3    H212487   3.252   3.676   3.868 -0.6216  0.7136 -0.0547
 4161TIP3   OH212488   6.309   0.408   4.750 -0.1541 -0.6255  1.0429
 4161TIP3    H112489   6.395   0.419   4.710 -1.0431  2.4023 -0.4025
 4161TIP3    H212490   6.315   0.456   4.833 -1.2123  2.6515 -0.5878
 4162TIP3   OH212491   4.920   3.241   4.079  0.5413 -0.2703 -0.0128
 4162TIP3    H112492   4.877   3.322   4.107  1.1936  0.0405  0.1180
 4162TIP3    H212493   4.931   3.191   4.160 -1.1831 -1.1647 -0.2812
 4163TIP3   OH212494   5.394   1.963   3.671 -0.3776 -0.3170 -0.1953
 4163TIP3    H112495   5.402   2.052   3.705  0.2469  0.3658 -1.9962
 4163TIP3    H212496   5.299   1.951   3.660 -0.4534  0.2284 -0.1859
 4164TIP3   OH212497   5.793   0.882   4.876 -0.0333  0.0912  0.1031
 4164TIP3    H112498   5.757   0.801   4.912  0.3932  0.6452  1.8655
 4164TIP3    H212499   5.870   0.900   4.931  0.5041  1.1273 -0.9494
 4165TIP3   OH212500   5.971   0.395   1.248 -0.3214 -0.5463 -0.3198
 4165TIP3    H112501   6.050   0.413   1.197 -0.1685 -0.0639  0.0724
 4165TIP3    H212502   5.918   0.475   1.240  0.7861  0.5702  2.2214
 4166TIP3   OH212503   2.466   0.659   3.345  0.0959  0.6466 -1.1793
 4166TIP3    H112504   2.493   0.634   3.433 -2.8764 -0.3872 -0.4546
 4166TIP3    H212505   2.503   0.746   3.332  2.7760 -0.2137  0.0000
 4167TIP3   OH212506   4.397   0.129   0.351  0.7927  0.4356 -0.1068
 4167TIP3    H112507   4.404   0.115   0.445  0.7000 -1.1513 -0.3135
 4167TIP3    H212508   4.327   0.193   0.341 -0.5015 -0.7946  0.8119
 4168TIP3   OH212509   0.726   0.659   3.480  0.4055 -0.3188  0.3705
 4168TIP3    H112510   0.751   0.633   3.391 -0.1945  0.5427 -0.0692
 4168TIP3    H212511   0.649   0.605   3.500 -1.0981  1.3106 -0.7038
 4169TIP3   OH212512   6.172   1.756   4.470 -0.5685 -0.0061 -0.4370
 4169TIP3    H112513   6.233   1.688   4.497 -1.3492 -0.6426 -0.2298
 4169TIP3    H212514   6.216   1.800   4.397 -0.0243 -0.6914 -0.5322
 4170TIP3   OH212515   3.802   0.228   3.378  0.1331 -0.7306  0.0905
 4170TIP3    H112516   3.782   0.241   3.470  1.2344  1.0161  0.1300
 4170TIP3    H212517   3.778   0.311   3.336  1.3135 -0.8361 -0.8626
 4171TIP3   OH212518   3.657   4.369   3.208  0.4882  0.1156  0.2092
 4171TIP3    H112519   3.584   4.308   3.222 -0.1724  0.5527 -1.0798
 4171TIP3    H212520   3.723   4.344   3.273  0.5765 -2.4795 -0.7557
 4172TIP3   OH212521   3.269   3.018   1.119 -0.4828 -0.3946  0.7727
 4172TIP3    H112522   3.253   3.106   1.083 -0.9815 -0.7727  0.0457
 4172TIP3    H212523   3.314   2.971   1.048  0.7965 -0.3953  1.5641
 4173TIP3   OH212524   4.098   3.436   4.365 -0.4610 -0.2922 -0.5659
 4173TIP3    H112525   4.186   3.403   4.345 -1.2778 -2.1919 -1.2236
 4173TIP3    H212526   4.072   3.387   4.443 -0.9375  0.3268 -0.3255
 4174TIP3   OH212527   0.240   1.414   0.318  0.0743 -0.0715  0.0965
 4174TIP3    H112528   0.184   1.485   0.288  1.5934  0.9657 -0.3626
 4174TIP3    H212529   0.216   1.339   0.263 -1.5440  0.0283  0.5947
 4175TIP3   OH212530   6.275   2.430   2.182  0.0142 -0.3079 -0.0087
 4175TIP3    H112531   6.300   2.503   2.126 -0.6063  1.2994  1.7097
 4175TIP3    H212532   6.214   2.379   2.129 -0.9167  1.4239 -0.6803
 4176TIP3   OH212533   4.877   1.167   4.217 -0.3238  0.2330  0.0363
 4176TIP3    H112534   4.795   1.158   4.168  0.4418  0.2271 -1.2785
 4176TIP3    H212535   4.857   1.130   4.303 -1.0807 -1.7619 -0.9475
 4177TIP3   OH212536   3.498   2.860   0.996 -0.3738  0.4645 -0.3293
 4177TIP3    H112537   3.450   2.805   1.059 -0.7457 -0.4797 -1.4058
 4177TIP3    H212538   3.580   2.814   0.982 -0.3489  0.5995 -0.6335
 4178TIP3   OH212539   5.136   0.272   4.622  0.1519 -0.3046 -0.2669
 4178TIP3    H112540   5.051   0.240   4.653 -0.3974  0.3620 -1.0380
 4178TIP3    H212541   5.197   0.249   4.692 -0.8790  0.2977  0.8745
 4179TIP3   OH212542   3.591   1.217   4.111 -0.3582  0.5918  0.3162
 4179TIP3    H112543   3.608   1.169   4.030 -1.1092  0.0443  0.4701
 4179TIP3    H212544   3.674   1.214   4.159 -0.6369 -1.4154  0.7588
 4180TIP3   OH212545   5.638   2.286   4.129 -0.3042  0.0865  0.0678
 4180TIP3    H112546   5.636   2.255   4.039  0.8302  2.3146 -0.8146
 4180TIP3    H212547   5.546   2.294   4.154 -0.6526  0.1884 -1.1997
 4181TIP3   OH212548   2.101   3.530   1.489  0.1297  0.3389  0.5385
 4181TIP3    H112549   2.075   3.622   1.487 -1.5101 -0.0964  0.4662
 4181TIP3    H212550   2.153   3.518   1.409 -0.4264  0.9854  0.0685
 4182TIP3   OH212551   6.178   4.528   1.394  0.0494  0.3419 -0.2156
 4182TIP3    H112552   6.086   4.549   1.377  0.6719  1.9812 -1.9859
 4182TIP3    H212553   6.216   4.610   1.426  1.1339  0.0060 -0.5848
 4183TIP3   OH212554   4.556   2.605   4.356 -0.3580 -0.6465  0.0141
 4183TIP3    H112555   4.482   2.625   4.299 -1.5715 -0.9186  1.4429
 4183TIP3    H212556   4.570   2.685   4.406  1.7858  0.1772 -1.7419
 4184TIP3   OH212557   0.527   2.885   0.610  0.1377  0.3508 -0.1965
 4184TIP3    H112558   0.612   2.871   0.651  0.4196 -1.2404 -1.2242
 4184TIP3    H212559   0.484   2.950   0.665  0.9782 -0.7578  1.8588
 4185TIP3   OH212560   1.460   1.622   2.967 -0.4254 -0.1399 -0.2014
 4185TIP3    H112561   1.416   1.622   3.052 -1.2339  2.7780 -0.5374
 4185TIP3    H212562   1.396   1.660   2.906  1.3755  1.1678 -1.3736
 4186TIP3   OH212563   3.233   3.891   2.909 -0.0547 -0.0124  0.6114
 4186TIP3    H112564   3.238   3.977   2.866  0.4827 -0.5205 -0.3863
 4186TIP3    H212565   3.199   3.910   2.997 -1.1568  1.0754 -0.0075
 4187TIP3   OH212566   6.233   5.414   3.425 -0.1706 -0.4903  0.0551
 4187TIP3    H112567   6.289   5.337   3.428 -0.0559 -0.4052  2.4128
 4187TIP3    H212568   6.291   5.486   3.400  0.3232 -0.7393  0.4773
 4188TIP3   OH212569   0.204   5.913   1.919  0.5741  0.0404  0.0259
 4188TIP3    H112570   0.155   5.856   1.859 -0.4652  2.3893 -1.4853
 4188TIP3    H212571   0.274   5.857   1.952  0.2393 -1.8351 -2.1633
 4189TIP3   OH212572   0.757   1.109   1.270  0.2041  0.6081  0.1879
 4189TIP3    H112573   0.745   1.079   1.180 -2.0262  2.5998 -0.2742
 4189TIP3    H212574   0.839   1.069   1.298 -0.1534 -1.8616 -1.9456
 4190TIP3   OH212575   3.647   1.740   1.284  0.1431  0.1525 -0.0241
 4190TIP3    H112576   3.729   1.707   1.249 -0.0415 -0.2431 -0.0779
 4190TIP3    H212577   3.596   1.662   1.305 -0.8105  0.3869 -1.3481
 4191TIP3   OH212578   1.053   5.569   4.960 -0.6447 -0.5360 -0.1185
 4191TIP3    H112579   1.131   5.514   4.957  0.6029  1.0429  1.2663
 4191TIP3    H212580   1.010   5.555   4.876  1.7516 -0.6300 -1.4105
 4192TIP3   OH212581   4.715   3.891   0.021 -0.1598  0.8910 -0.4301
 4192TIP3    H112582   4.771   3.877  -0.055  0.5734 -0.5746  0.3344
 4192TIP3    H212583   4.756   3.962   0.070 -0.4567  1.6182 -1.2239
 4193TIP3   OH212584   6.361   5.248   2.554  0.2190  0.6061  0.1232
 4193TIP3    H112585   6.278   5.208   2.579  0.8831 -0.9658 -0.0938
 4193TIP3    H212586   6.365   5.329   2.605 -0.8397  0.0460  1.1285
 4194TIP3   OH212587   3.831   3.629   2.346 -0.0071 -0.7673 -0.6073
 4194TIP3    H112588   3.754   3.678   2.374  0.5816 -0.8777  1.3483
 4194TIP3    H212589   3.873   3.685   2.280 -0.4451  0.3966  0.0860
 4195TIP3   OH212590   5.234   3.335   2.768 -0.4168  0.2291  0.0844
 4195TIP3    H112591   5.149   3.297   2.790 -0.6377  0.5829 -0.1472
 4195TIP3    H212592   5.267   3.280   2.696  0.7486 -1.5407  1.8606
 4196TIP3   OH212593   3.901   0.777   3.898 -0.1957  0.1259 -0.5555
 4196TIP3    H112594   3.846   0.806   3.825 -0.4634  0.1703 -0.3357
 4196TIP3    H212595   3.990   0.781   3.863 -0.3202  0.1738 -0.8726
 4197TIP3   OH212596   4.675   5.704   2.701  0.2412  0.1500  0.2045
 4197TIP3    H112597   4.591   5.702   2.655  0.7698 -1.1192 -0.7781
 4197TIP3    H212598   4.713   5.788   2.679 -0.2323  0.2210 -0.3562
 4198TIP3   OH212599   1.552   2.925   1.884 -0.5151  0.2111  0.1565
 4198TIP3    H112600   1.561   2.973   1.802  0.9524  0.2452  0.3208
 4198TIP3    H212601   1.557   2.833   1.858 -1.8109  0.1500  0.0266
 4199TIP3   OH212602   4.229   4.153   5.069 -0.2717 -0.3497  0.3438
 4199TIP3    H112603   4.325   4.149   5.062 -0.3144  1.0363 -2.2210
 4199TIP3    H212604   4.212   4.144   5.163  2.5390  2.3957  1.2975
 4200TIP3   OH212605   5.701   0.384   4.624 -0.1234 -0.9667  0.0116
 4200TIP3    H112606   5.727   0.354   4.537 -0.9775 -1.6359 -0.0291
 4200TIP3    H212607   5.713   0.479   4.622  0.7169 -1.0737 -0.5259
 4201TIP3   OH212608   4.668   5.474   1.629 -0.6111 -0.0106  0.6935
 4201TIP3    H112609   4.624   5.471   1.544 -1.1010 -1.1036  0.9628
 4201TIP3    H212610   4.651   5.388   1.667 -0.4531  0.4884  1.9303
 4202TIP3   OH212611   3.510   5.354   1.540  0.0068 -0.0624 -0.4872
 4202TIP3    H112612   3.571   5.287   1.509  0.8391  0.2839  0.3492
 4202TIP3    H212613   3.557   5.398   1.611 -0.3206  1.7932 -1.3798
 4203TIP3   OH212614   5.879   0.509   0.755  0.3857 -0.1643  0.1668
 4203TIP3    H112615   5.789   0.508   0.789 -0.1551  0.3445 -1.1550
 4203TIP3    H212616   5.875   0.568   0.680  1.2292 -2.0823 -1.4906
 4204TIP3   OH212617   3.191   4.416   3.081 -0.4969 -0.0056  0.0641
 4204TIP3    H112618   3.212   4.431   3.173 -0.2396 -0.5834  0.1047
 4204TIP3    H212619   3.266   4.451   3.033  0.4546 -1.7537  0.1929
 4205TIP3   OH212620   3.231   2.040   1.717  1.0425 -0.0496  0.3194
 4205TIP3    H112621   3.301   2.093   1.679 -1.3071  1.2936 -2.6084
 4205TIP3    H212622   3.172   2.105   1.757  1.3268 -1.1370  2.6880
 4206TIP3   OH212623   1.149   5.565   1.684  0.0559  0.0539  0.1120
 4206TIP3    H112624   1.234   5.521   1.691 -0.1946 -0.5147 -0.3499
 4206TIP3    H212625   1.085   5.497   1.704 -0.3667 -0.0087 -1.3213
 4207TIP3   OH212626   5.117   5.967   2.254 -0.1571  0.5822  0.1315
 4207TIP3    H112627   5.182   6.034   2.275  1.1441 -0.8118  0.6925
 4207TIP3    H212628   5.167   5.895   2.217 -1.2350 -0.9229  1.4474
 4208TIP3   OH212629   2.110   0.379   4.289  0.6451 -0.5507 -0.0678
 4208TIP3    H112630   2.125   0.325   4.211  1.0643  0.3312 -0.6114
 4208TIP3    H212631   2.021   0.357   4.316 -1.2165  2.1202 -3.2695
 4209TIP3   OH212632   3.927   4.922   2.310  0.1202  0.0598 -0.2986
 4209TIP3    H112633   3.921   4.973   2.391 -0.1239  1.4803 -1.1783
 4209TIP3    H212634   3.872   4.846   2.326 -1.3815  1.2061  0.2474
 4210TIP3   OH212635   2.887   3.341   3.413 -0.1541  0.0951 -0.0820
 4210TIP3    H112636   2.974   3.301   3.411  0.6951  1.8435 -1.7972
 4210TIP3    H212637   2.829   3.272   3.382  0.7769 -0.7765  0.0532
 4211TIP3   OH212638   0.560   0.194   4.274  0.8609 -0.5643  0.4352
 4211TIP3    H112639   0.493   0.140   4.316 -0.6907 -0.0308 -1.2437
 4211TIP3    H212640   0.607   0.134   4.216  1.7195 -0.8834  1.4248
 4212TIP3   OH212641   2.384   1.088   4.086 -0.0142 -0.4486  0.3953
 4212TIP3    H112642   2.297   1.091   4.126  0.7746  3.9162  2.3383
 4212TIP3    H212643   2.395   1.174   4.046  3.9326 -0.2522  1.5590
 4213TIP3   OH212644   3.194   2.129   3.913  0.4552  0.2074  0.2101
 4213TIP3    H112645   3.286   2.153   3.900  1.1580 -1.7856  1.0788
 4213TIP3    H212646   3.166   2.183   3.987  2.0144 -1.4717  2.1608
 4214TIP3   OH212647   3.578   2.377   1.236  0.5499  0.0974 -0.3717
 4214TIP3    H112648   3.555   2.301   1.288 -2.4987  1.3363  0.2838
 4214TIP3    H212649   3.564   2.349   1.145  2.2137 -0.9117 -0.3592
 4215TIP3   OH212650   4.049   4.527   0.269 -0.5434 -0.0428  0.4796
 4215TIP3    H112651   4.104   4.601   0.294  0.3209 -1.4583  3.1334
 4215TIP3    H212652   4.108   4.464   0.229 -1.1926  0.4148 -1.3136
 4216TIP3   OH212653   6.220   4.917   2.297  0.2385  0.0159  0.3511
 4216TIP3    H112654   6.286   4.864   2.253  0.4964  0.5928  0.0251
 4216TIP3    H212655   6.189   4.978   2.229  1.0471  1.3048  1.1040
 4217TIP3   OH212656   3.625   0.445   0.843 -0.5498 -0.1865 -0.0058
 4217TIP3    H112657   3.595   0.356   0.824 -0.0310 -0.1659 -0.9888
 4217TIP3    H212658   3.553   0.502   0.815 -0.9026 -0.2823  0.6707
 4218TIP3   OH212659   2.084   1.074   2.914  0.3911  0.2473 -0.5900
 4218TIP3    H112660   2.170   1.085   2.875 -0.5727  0.2585 -2.9089
 4218TIP3    H212661   2.037   1.154   2.891 -0.9785 -0.7824 -1.5646
 4219TIP3   OH212662   1.038   4.966   2.713  0.1371  0.0404  0.1613
 4219TIP3    H112663   1.130   4.990   2.719  0.6327 -1.5210 -0.6077
 4219TIP3    H212664   1.025   4.944   2.620 -1.2814  1.2073  0.0361
 4220TIP3   OH212665   5.031   3.117   0.965  0.3463  0.0630  0.2628
 4220TIP3    H112666   5.032   3.144   1.057 -1.0903  3.5611 -0.5664
 4220TIP3    H212667   4.939   3.127   0.938  0.9489  0.4435 -1.8366
 4221TIP3   OH212668   2.194   1.306   3.273  0.5448 -0.3153  0.2888
 4221TIP3    H112669   2.102   1.312   3.246  0.4661 -0.0886  0.6155
 4221TIP3    H212670   2.207   1.213   3.292  0.0675 -0.1669  1.3652
 4222TIP3   OH212671   3.195   0.555   1.298  0.3012  0.0698  0.1488
 4222TIP3    H112672   3.125   0.494   1.320 -1.4800  1.7690 -0.5580
 4222TIP3    H212673   3.216   0.600   1.380 -0.6225  0.7082  0.0465
 4223TIP3   OH212674   4.233   0.581   2.704 -0.2927  0.0487 -0.2740
 4223TIP3    H112675   4.190   0.636   2.639  0.0943 -1.5345 -1.9588
 4223TIP3    H212676   4.214   0.491   2.675 -0.1607 -0.7216  1.8602
 4224TIP3   OH212677   2.220   3.298   2.359 -0.2504  0.2402 -0.1898
 4224TIP3    H112678   2.159   3.285   2.287 -0.4230  0.8352 -0.1583
 4224TIP3    H212679   2.261   3.383   2.341 -0.0998  0.2671  0.2606
 4225TIP3   OH212680   2.293   0.525   1.881  0.3078  0.5665  0.3718
 4225TIP3    H112681   2.381   0.547   1.849  0.0856  0.1002 -0.6036
 4225TIP3    H212682   2.234   0.561   1.815 -0.2274  0.7967  0.9795
 4226TIP3   OH212683   5.398   3.443   3.670 -0.4302 -0.0360 -0.5612
 4226TIP3    H112684   5.417   3.437   3.576 -0.4590 -1.4033 -0.4953
 4226TIP3    H212685   5.470   3.495   3.705 -0.0616 -0.0689 -1.2441
 4227TIP3   OH212686   2.143   3.483   3.574 -0.3163  0.3804 -0.0793
 4227TIP3    H112687   2.196   3.524   3.506 -0.1932  1.8150  0.8364
 4227TIP3    H212688   2.120   3.555   3.633  1.2342 -1.0628  2.4602
 4228TIP3   OH212689   2.309   3.923   3.658 -0.2067 -0.2319 -0.0565
 4228TIP3    H112690   2.235   3.973   3.694  0.3521 -0.1049  0.9655
 4228TIP3    H212691   2.313   3.950   3.566  0.0240  1.5878  0.4322
 4229TIP3   OH212692   3.360   0.549   3.224 -0.0977 -0.3207  0.5738
 4229TIP3    H112693   3.417   0.527   3.298 -1.2950 -2.5882  0.8895
 4229TIP3    H212694   3.333   0.639   3.241  2.4439  0.4423  1.0030
 4230TIP3   OH212695   1.751   5.071   1.445  0.4958  0.0518  0.0395
 4230TIP3    H112696   1.789   5.155   1.420  2.5562 -0.5214  1.0416
 4230TIP3    H212697   1.815   5.032   1.505 -1.0933 -1.5874  0.7797
 4231TIP3   OH212698   1.189   0.787   4.548 -0.1045 -0.0666 -0.0984
 4231TIP3    H112699   1.210   0.772   4.456 -0.1013 -3.4192  0.3294
 4231TIP3    H212700   1.112   0.731   4.565  0.3422 -0.1278  2.0856
 4232TIP3   OH212701   4.378   3.957   4.786  0.4495  0.0831 -0.8806
 4232TIP3    H112702   4.373   3.871   4.827  1.1702 -0.3158 -1.6097
 4232TIP3    H212703   4.287   3.981   4.769  0.2699 -0.8077 -1.2299
 4233TIP3   OH212704   0.474   0.752   4.313 -0.5416  0.3787 -0.3784
 4233TIP3    H112705   0.561   0.761   4.276 -0.5050 -1.1533 -0.7677
 4233TIP3    H212706   0.416   0.797   4.252  0.0256  2.0633  0.2727
 4234TIP3   OH212707   2.512   3.923   4.325 -0.7567 -0.4018 -0.2927
 4234TIP3    H112708   2.562   3.856   4.279  0.8459 -0.3729  1.2892
 4234TIP3    H212709   2.448   3.874   4.377  0.7993 -0.8378  1.3226
 4235TIP3   OH212710   2.889   5.102   3.741  0.0518 -0.4369 -0.2761
 4235TIP3    H112711   2.982   5.085   3.759 -0.0660 -0.9367 -0.1224
 4235TIP3    H212712   2.846   5.018   3.757 -0.8552  0.4693  2.5138
 4236TIP3   OH212713   5.990   2.503   2.070 -0.3225 -0.9105  0.0951
 4236TIP3    H112714   6.073   2.549   2.082 -0.9242  0.0170  0.8452
 4236TIP3    H212715   6.013   2.410   2.073  0.6976 -0.6655  0.1850
 4237TIP3   OH212716   2.518   1.987   1.867  0.2622  0.1441  0.0624
 4237TIP3    H112717   2.431   2.022   1.889  0.5957  1.5167 -0.6642
 4237TIP3    H212718   2.553   1.957   1.950 -0.6684  0.1485  0.4747
 4238TIP3   OH212719   1.647  -0.003   2.219  0.2436 -0.1619 -0.2131
 4238TIP3    H112720   1.641   0.068   2.154  0.3723 -0.2985 -0.3719
 4238TIP3    H212721   1.655   0.043   2.303  1.8142  0.0168 -0.4406
 4239TIP3   OH212722   2.574   4.883   5.031  0.5512 -0.2793 -0.0333
 4239TIP3    H112723   2.509   4.947   5.002  1.5311  0.9789  0.4467
 4239TIP3    H212724   2.544   4.800   4.995 -0.0248  0.6766 -1.8578
 4240TIP3   OH212725   0.329   3.313   2.063 -0.0113  0.2262 -0.2796
 4240TIP3    H112726   0.383   3.327   1.986  0.4702  1.0462  0.1898
 4240TIP3    H212727   0.244   3.352   2.040  0.4220  1.3349 -0.0639
 4241TIP3   OH212728   5.368   0.298   1.995  0.2196 -0.5062  0.6535
 4241TIP3    H112729   5.359   0.371   2.057 -1.0920  0.0690 -0.1560
 4241TIP3    H212730   5.305   0.319   1.925  1.5713 -1.1780 -0.8253
 4242TIP3   OH212731   3.000   1.537   3.191  0.3881 -0.2622 -0.1849
 4242TIP3    H112732   3.025   1.473   3.124  0.7313 -1.9776  1.4802
 4242TIP3    H212733   3.064   1.525   3.261 -0.9105  0.2710  1.1586
 4243TIP3   OH212734   0.321   0.155   1.498 -0.1809 -0.5709  0.1846
 4243TIP3    H112735   0.362   0.090   1.555  0.4762  0.4622  0.9320
 4243TIP3    H212736   0.315   0.234   1.552  0.4176  0.4300 -1.1528
 4244TIP3   OH212737   5.865   4.858   4.794 -0.3046 -0.3382  0.0928
 4244TIP3    H112738   5.908   4.795   4.737 -0.2241  0.6812 -1.0240
 4244TIP3    H212739   5.803   4.904   4.737 -2.1279 -1.0115  1.4074
 4245TIP3   OH212740   3.781   2.042   0.730  0.3584 -0.4358  0.1478
 4245TIP3    H112741   3.870   2.029   0.695  0.5365  0.1235  0.3874
 4245TIP3    H212742   3.784   2.004   0.818  0.5488  0.1512  0.4018
 4246TIP3   OH212743   5.740   3.645   2.429 -0.0559  0.1229 -0.0843
 4246TIP3    H112744   5.790   3.677   2.353  0.4299 -0.1979  0.0963
 4246TIP3    H212745   5.717   3.556   2.405 -1.7854  0.7064 -0.7736
 4247TIP3   OH212746   1.221   0.168   0.944  0.5278  0.2468 -0.4905
 4247TIP3    H112747   1.300   0.123   0.972  0.0679 -0.0631  0.3581
 4247TIP3    H212748   1.212   0.148   0.851  1.0004 -0.3853 -0.3998
 4248TIP3   OH212749   2.634   3.824  -0.002 -0.1410 -0.2797  0.6046
 4248TIP3    H112750   2.656   3.731   0.010 -0.7966 -0.4061  0.8671
 4248TIP3    H212751   2.538   3.826  -0.002 -0.1370  0.2579 -0.5453
 4249TIP3   OH212752   4.758   3.123   0.918 -0.0747 -0.7093  0.3990
 4249TIP3    H112753   4.716   3.064   0.856  0.3462 -0.2536 -0.3432
 4249TIP3    H212754   4.713   3.207   0.905  2.3136  0.3827 -1.9283
 4250TIP3   OH212755   0.613   2.197   1.083  0.1632  0.1603  0.2201
 4250TIP3    H112756   0.555   2.249   1.139 -0.6972 -0.2828 -0.2252
 4250TIP3    H212757   0.696   2.193   1.130 -0.5216 -0.1606  1.4300
 4251TIP3   OH212758   1.658   3.436   4.186 -0.1292  0.1202 -0.2154
 4251TIP3    H112759   1.752   3.428   4.204 -0.5048 -1.0470  1.4499
 4251TIP3    H212760   1.637   3.357   4.136 -0.6902 -1.0452  1.7617
 4252TIP3   OH212761   3.402   2.434   1.443  0.0441 -0.2597  0.1349
 4252TIP3    H112762   3.428   2.489   1.517  1.9047  0.9836 -1.3350
 4252TIP3    H212763   3.485   2.409   1.402 -0.9240 -1.0506 -1.4256
 4253TIP3   OH212764   0.137   3.879   3.742 -0.0230 -0.0109  0.1593
 4253TIP3    H112765   0.053   3.841   3.718  0.2118 -0.4812  0.0823
 4253TIP3    H212766   0.194   3.804   3.759 -0.5464  0.1890  3.5579
 4254TIP3   OH212767   5.436   0.368   4.156 -0.2068 -0.2837 -0.0102
 4254TIP3    H112768   5.527   0.345   4.175 -0.3232  0.0815  1.0336
 4254TIP3    H212769   5.437   0.397   4.065  0.6642 -0.5683 -0.0979
 4255TIP3   OH212770   0.942   1.405   0.400  0.0498 -0.1537 -0.6107
 4255TIP3    H112771   1.011   1.427   0.463  0.5935  0.7223 -1.4742
 4255TIP3    H212772   0.884   1.346   0.447 -1.0807  2.5233  1.6962
 4256TIP3   OH212773   2.982   0.556   2.432  0.0539  0.0487  0.9873
 4256TIP3    H112774   2.985   0.465   2.463  2.0675 -0.7342 -1.2129
 4256TIP3    H212775   2.892   0.585   2.451 -0.2863 -1.9710  2.8217
 4257TIP3   OH212776   2.558   4.086   4.546 -0.2516 -0.3246 -0.2271
 4257TIP3    H112777   2.567   4.010   4.604 -0.8582 -0.3348 -0.1438
 4257TIP3    H212778   2.552   4.049   4.458  0.4774 -0.3191 -0.2821
 4258TIP3   OH212779   2.868   3.855   4.385 -0.1538 -0.2820 -0.1444
 4258TIP3    H112780   2.883   3.949   4.379  0.3958 -0.2517  1.3521
 4258TIP3    H212781   2.869   3.836   4.478  1.2738 -1.9992 -0.4508
 4259TIP3   OH212782   5.966   1.322   4.039 -0.0764  0.3169 -0.3688
 4259TIP3    H112783   5.886   1.321   3.986  0.2238 -0.0222 -0.8162
 4259TIP3    H212784   5.934   1.313   4.129 -0.6114  1.3374 -0.4470
 4260TIP3   OH212785   3.532   0.019   3.230 -0.0449  0.4804  0.2610
 4260TIP3    H112786   3.606   0.055   3.182  1.3172 -0.4211  1.5625
 4260TIP3    H212787   3.572  -0.022   3.307 -2.1711  3.4129  3.2297
 4261TIP3   OH212788   5.771   3.054   0.056 -0.1229 -0.0680 -0.1217
 4261TIP3    H112789   5.704   3.010   0.003  0.0964  1.8695 -2.1580
 4261TIP3    H212790   5.847   2.995   0.052 -0.2589 -0.1819 -1.6346
 4262TIP3   OH212791   2.824   0.329   3.121  0.1590  0.0289 -0.2558
 4262TIP3    H112792   2.869   0.412   3.104  1.1765 -0.3206  0.6499
 4262TIP3    H212793   2.852   0.272   3.049  0.8393 -0.0479  0.0570
 4263TIP3   OH212794   2.726   3.544   0.049 -0.5861 -0.0816 -0.5507
 4263TIP3    H112795   2.739   3.494  -0.031  2.0957  1.9057 -1.4995
 4263TIP3    H212796   2.813   3.551   0.087 -1.6853 -0.4379  2.3027
 4264TIP3   OH212797   5.831   4.237   2.312 -0.1666 -0.3290  0.2518
 4264TIP3    H112798   5.920   4.264   2.333 -0.2236  0.4336 -0.4273
 4264TIP3    H212799   5.785   4.239   2.396  0.4611 -0.7690  0.6127
 4265TIP3   OH212800   4.817   3.256   4.750  0.1408  0.0301 -0.0237
 4265TIP3    H112801   4.821   3.217   4.662 -0.2202 -0.0352 -0.0127
 4265TIP3    H212802   4.810   3.350   4.733  2.2124  0.2250 -0.0393
 4266TIP3   OH212803   2.854   1.213   4.001  0.5494 -0.2237 -0.6124
 4266TIP3    H112804   2.823   1.283   4.059  2.0894  0.1004 -0.1396
 4266TIP3    H212805   2.809   1.228   3.918  1.1977  1.6330 -0.6692
 4267TIP3   OH212806   4.099   2.522   1.534 -0.4017 -0.4282  0.6165
 4267TIP3    H112807   4.182   2.539   1.490  0.4528 -1.0054  1.9500
 4267TIP3    H212808   4.032   2.545   1.469  0.7677  0.9293 -0.1650
 4268TIP3   OH212809   3.850   2.762   0.351  0.0400 -0.4670  0.3873
 4268TIP3    H112810   3.832   2.833   0.288 -0.5727 -0.7575  0.2205
 4268TIP3    H212811   3.929   2.720   0.318 -0.1771 -0.5044 -0.1041
 4269TIP3   OH212812   1.294   2.978   1.685  0.3062 -0.0935 -0.1286
 4269TIP3    H112813   1.377   3.025   1.683  0.1577  0.2293  0.7111
 4269TIP3    H212814   1.287   2.936   1.599  1.3860 -0.2217 -0.1596
 4270TIP3   OH212815   5.383   4.995   0.167 -0.0977 -0.2954 -0.1483
 4270TIP3    H112816   5.354   5.023   0.254 -2.4097  2.2661 -1.5875
 4270TIP3    H212817   5.401   5.077   0.120  1.5194 -1.6123 -1.9698
 4271TIP3   OH212818   1.316   5.833   2.710 -0.7338  0.0444 -0.2475
 4271TIP3    H112819   1.229   5.798   2.728  0.2040 -1.5249  1.6723
 4271TIP3    H212820   1.362   5.825   2.794  1.0279  1.5365 -1.0212
 4272TIP3   OH212821   0.884   3.051   2.028  0.0069  0.0174 -0.3810
 4272TIP3    H112822   0.967   3.018   1.993  0.9940  0.7589  1.1310
 4272TIP3    H212823   0.896   3.049   2.123 -1.9275 -0.3497 -0.1154
 4273TIP3   OH212824   3.143   3.165   1.739 -0.0018 -0.0505  0.0440
 4273TIP3    H112825   3.081   3.101   1.704 -0.1255  0.9652 -1.6813
 4273TIP3    H212826   3.216   3.112   1.772  0.1949 -1.0990 -1.9280
 4274TIP3   OH212827   0.646   5.268   0.071  0.1341  0.0927  0.0095
 4274TIP3    H112828   0.620   5.338   0.012 -0.4036 -0.8277 -0.8834
 4274TIP3    H212829   0.565   5.218   0.086 -0.2559  1.3950  3.1150
 4275TIP3   OH212830   1.658   3.987   3.047 -0.1076  0.1328  0.0900
 4275TIP3    H112831   1.620   3.911   3.091 -0.5009  0.4106  0.2385
 4275TIP3    H212832   1.732   3.952   2.999 -0.8808 -0.5183 -0.6641
 4276TIP3   OH212833   4.998   2.029   4.618 -0.1919  0.3776  0.3715
 4276TIP3    H112834   4.938   2.065   4.553 -0.2254  2.8237  1.6324
 4276TIP3    H212835   4.948   1.961   4.662 -0.4037 -0.8281 -1.6208
 4277TIP3   OH212836   4.677   2.325   0.545  0.1418  0.3635 -0.1365
 4277TIP3    H112837   4.737   2.267   0.498 -0.0434  0.9088 -1.0749
 4277TIP3    H212838   4.722   2.344   0.628  0.1650 -1.1580  0.2271
 4278TIP3   OH212839   5.403   1.798   0.395  0.7147  0.1422 -0.1275
 4278TIP3    H112840   5.433   1.822   0.308  0.6530 -0.8504 -0.4292
 4278TIP3    H212841   5.441   1.712   0.412  0.7072  0.3116  0.8165
 4279TIP3   OH212842   0.197   5.925   2.672 -0.0885  0.1163 -0.1767
 4279TIP3    H112843   0.131   5.994   2.681 -1.4707 -1.2343  0.4842
 4279TIP3    H212844   0.157   5.861   2.614  1.8446  0.5761 -2.1411
 4280TIP3   OH212845   5.088   3.322   5.063 -0.3996 -0.2634  0.0777
 4280TIP3    H112846   5.105   3.416   5.053  0.6394 -0.5889 -1.5392
 4280TIP3    H212847   5.165   3.288   5.109  0.7665 -0.8054 -2.1648
 4281TIP3   OH212848   2.938   2.570   4.363  0.1392  0.3457 -0.9291
 4281TIP3    H112849   2.861   2.529   4.323  0.6410  2.1104 -4.0090
 4281TIP3    H212850   2.909   2.595   4.450 -2.5597  0.3039 -1.7206
 4282TIP3   OH212851   4.216   2.818   4.511  0.4555 -0.2535 -0.0467
 4282TIP3    H112852   4.264   2.747   4.553 -0.8346 -0.3724  1.3448
 4282TIP3    H212853   4.164   2.775   4.442  1.1927 -0.3381 -0.5572
 4283TIP3   OH212854   1.902   4.214   5.088  0.1839 -0.0667 -0.1182
 4283TIP3    H112855   1.897   4.138   5.145  0.3730 -1.0364 -1.3684
 4283TIP3    H212856   1.995   4.235   5.083  0.0354  1.1718  1.3579
 4284TIP3   OH212857   4.536   2.937   3.756 -0.2377  0.1679 -0.1925
 4284TIP3    H112858   4.609   2.988   3.791 -1.2179  1.7417 -0.3248
 4284TIP3    H212859   4.572   2.850   3.742  1.7335  0.9954 -0.6345
 4285TIP3   OH212860   1.173   2.313   4.994  0.0471  0.1598 -0.4194
 4285TIP3    H112861   1.261   2.348   4.978  0.0075  0.0220 -0.9773
 4285TIP3    H212862   1.159   2.252   4.922  0.2769 -1.3189  0.7315
 4286TIP3   OH212863   0.838   4.686   1.267  0.1990 -0.6709  0.5199
 4286TIP3    H112864   0.804   4.692   1.356  0.2053 -0.4315  0.5073
 4286TIP3    H212865   0.760   4.674   1.213  0.1304 -0.1312  0.4919
 4287TIP3   OH212866   3.449   1.489   3.194  0.0610 -0.3541  0.1368
 4287TIP3    H112867   3.505   1.412   3.198  0.6921 -0.0110 -1.3881
 4287TIP3    H212868   3.447   1.512   3.101  0.8136  2.1346  0.6640
 4288TIP3   OH212869   2.705   2.825   5.079 -0.2130  0.3292  0.0888
 4288TIP3    H112870   2.732   2.887   5.012 -0.9778  2.3050  1.5015
 4288TIP3    H212871   2.767   2.839   5.151 -1.0900  0.3160  0.8677
 4289TIP3   OH212872   3.196   0.765   1.839 -0.0423 -0.0746  0.1328
 4289TIP3    H112873   3.273   0.733   1.792  0.4526  0.6050  0.4520
 4289TIP3    H212874   3.190   0.709   1.917  0.0735 -0.1920  0.0564
 4290TIP3   OH212875   3.637   3.783   4.483  0.1256 -0.8209  0.3538
 4290TIP3    H112876   3.663   3.874   4.493  0.5476 -0.9161  0.1397
 4290TIP3    H212877   3.635   3.749   4.572  1.6864 -1.0653  0.3248
 4291TIP3   OH212878   0.759   2.629   0.002  0.4131 -0.0359 -0.7415
 4291TIP3    H112879   0.843   2.656   0.039 -0.4178  2.7671 -0.6876
 4291TIP3    H212880   0.708   2.597   0.077  0.0154  2.1848 -0.0110
 4292TIP3   OH212881   4.831   2.268   0.062  0.8077 -0.1987  0.3198
 4292TIP3    H112882   4.898   2.268  -0.007  1.7685 -0.4236  1.2415
 4292TIP3    H212883   4.779   2.189   0.044  0.2956  0.3814 -0.8494
 4293TIP3   OH212884   0.907   4.403   4.751  0.1903 -0.1355 -0.2343
 4293TIP3    H112885   0.870   4.335   4.807  0.9302 -0.4149 -0.0697
 4293TIP3    H212886   0.937   4.356   4.673 -4.1466  0.6431 -2.6987
 4294TIP3   OH212887   6.196   2.742   3.480  0.1248  0.4032 -0.0861
 4294TIP3    H112888   6.224   2.653   3.500  0.8875  0.5361 -0.5023
 4294TIP3    H212889   6.241   2.797   3.544  0.5887  0.5926 -0.5669
 4295TIP3   OH212890   4.002   4.077   2.531 -0.2741 -0.6770  0.1653
 4295TIP3    H112891   3.962   3.990   2.528 -2.8213  0.3447  1.6412
 4295TIP3    H212892   4.044   4.082   2.616 -0.5228 -0.3183  0.2704
 4296TIP3   OH212893   5.359   4.583   4.977  0.2566 -0.2948 -0.2299
 4296TIP3    H112894   5.368   4.582   5.073  1.7879 -0.8703 -0.3385
 4296TIP3    H212895   5.407   4.661   4.949  0.0662 -0.2899 -0.5435
 4297TIP3   OH212896   1.006   4.901   4.184  0.0310 -0.3434  0.1549
 4297TIP3    H112897   1.016   4.990   4.152 -1.5960 -0.3633 -0.4732
 4297TIP3    H212898   0.925   4.902   4.235  0.8723 -1.0786  1.5956
 4298TIP3   OH212899   1.253   1.185   1.619 -0.1995 -0.5626 -0.6060
 4298TIP3    H112900   1.271   1.118   1.553 -0.9978 -2.4682  0.9863
 4298TIP3    H212901   1.252   1.137   1.702  0.5526  1.6943  0.7939
 4299TIP3   OH212902   0.616   1.706   3.653 -0.5260  0.0213 -0.4394
 4299TIP3    H112903   0.540   1.692   3.596 -0.4259 -1.6278 -0.2083
 4299TIP3    H212904   0.663   1.623   3.651  1.0252  0.8593 -0.1840
 4300TIP3   OH212905   1.486   2.116   4.483  0.0086  0.2819 -0.3227
 4300TIP3    H112906   1.403   2.151   4.450  1.5028  0.4866 -4.4778
 4300TIP3    H212907   1.467   2.025   4.506 -1.4725  0.4773 -0.6813
 4301TIP3   OH212908   4.880   1.697   0.170  0.3439  0.2208 -0.1194
 4301TIP3    H112909   4.871   1.790   0.148  0.7702 -0.3574 -3.1933
 4301TIP3    H212910   4.794   1.671   0.202 -0.3937  1.2206 -1.2242
 4302TIP3   OH212911   3.113   5.661   0.949 -0.6956 -0.2079  0.2455
 4302TIP3    H112912   3.154   5.747   0.937  0.1695 -0.5265  0.8283
 4302TIP3    H212913   3.043   5.659   0.884  1.7542 -0.6482 -2.5836
 4303TIP3   OH212914   2.805   0.101   4.394 -0.5569 -0.1789  0.2159
 4303TIP3    H112915   2.822   0.195   4.394 -0.6116 -0.1615 -0.3292
 4303TIP3    H212916   2.709   0.095   4.389 -0.5144 -0.2489 -0.8102
 4304TIP3   OH212917   5.594   1.642   2.943  0.3179 -0.0363 -0.7035
 4304TIP3    H112918   5.659   1.645   2.873  1.6963  1.9932  0.5287
 4304TIP3    H212919   5.620   1.567   2.997  0.8191 -0.0693 -0.9792
 4305TIP3   OH212920   1.599   0.683   1.295 -0.0083  0.8385 -0.1861
 4305TIP3    H112921   1.611   0.664   1.202 -1.6260  1.5496 -0.5789
 4305TIP3    H212922   1.627   0.604   1.340  0.7835  0.4789 -1.2716
 4306TIP3   OH212923   3.733   5.635   3.830 -0.2644 -0.1304 -0.9835
 4306TIP3    H112924   3.804   5.691   3.797  1.3792 -1.6355 -0.2060
 4306TIP3    H212925   3.745   5.552   3.784 -2.5230  0.0167 -1.9722
 4307TIP3   OH212926   3.577   1.669   3.855  0.2635 -0.2753  0.7139
 4307TIP3    H112927   3.607   1.710   3.774 -0.1349  1.7541  1.5302
 4307TIP3    H212928   3.593   1.575   3.842  0.3934  0.0050 -1.6107
 4308TIP3   OH212929   4.999   2.664   2.126 -0.0554  0.6139 -0.5910
 4308TIP3    H112930   4.906   2.640   2.134 -0.5303  2.1427 -1.1930
 4308TIP3    H212931   5.018   2.712   2.207 -0.3974  2.0862 -1.3402
 4309TIP3   OH212932   3.839   4.499   0.453 -0.0544 -0.4175  0.2140
 4309TIP3    H112933   3.916   4.481   0.399  1.1245 -0.7436  1.9247
 4309TIP3    H212934   3.841   4.594   0.465 -0.7308 -0.2529 -0.8662
 4310TIP3   OH212935   1.050   2.245   2.626 -0.2214  0.2071  0.1336
 4310TIP3    H112936   1.025   2.307   2.558 -0.4573  0.5904  0.5663
 4310TIP3    H212937   0.988   2.172   2.616 -0.3273  0.3135  0.0153
 4311TIP3   OH212938   3.445   3.770   3.601  0.3329 -0.2099 -0.4328
 4311TIP3    H112939   3.519   3.744   3.656  0.5466 -1.8566 -1.4360
 4311TIP3    H212940   3.370   3.770   3.661  0.8812 -0.0196  0.2737
 4312TIP3   OH212941   4.256   1.268   1.360 -0.4419  0.2345  0.2558
 4312TIP3    H112942   4.173   1.290   1.403 -0.2890  0.4675  0.4374
 4312TIP3    H212943   4.254   1.173   1.350  0.4022 -0.0780  2.6103
 4313TIP3   OH212944   4.689   1.853   2.497  0.1726 -0.0310 -0.1879
 4313TIP3    H112945   4.657   1.918   2.435 -0.9643  0.3595  0.7852
 4313TIP3    H212946   4.664   1.769   2.458 -1.7090  0.2471  0.3207
 4314TIP3   OH212947   5.485   5.247   4.362  0.1584 -0.1042  0.1456
 4314TIP3    H112948   5.433   5.272   4.285  0.7887  1.9542  0.3321
 4314TIP3    H212949   5.519   5.160   4.340  0.5598  0.5488 -2.0498
 4315TIP3   OH212950   2.289   2.951   0.431 -0.6652 -0.2463 -0.1826
 4315TIP3    H112951   2.348   3.023   0.409 -0.9615 -0.6945 -2.7311
 4315TIP3    H212952   2.331   2.873   0.393 -3.1965 -0.4502 -2.9750
 4316TIP3   OH212953   0.848   3.729   3.692 -0.3685  0.5250 -0.7954
 4316TIP3    H112954   0.847   3.635   3.673  2.0175 -0.0565  1.4393
 4316TIP3    H212955   0.926   3.761   3.648 -0.3220  1.1458 -0.2678
 4317TIP3   OH212956   5.199   0.942   5.047  0.2317 -0.4343  0.0674
 4317TIP3    H112957   5.268   0.884   5.013 -0.3891 -0.6717 -0.8277
 4317TIP3    H212958   5.243   1.026   5.062  1.1390 -1.1050  1.3658
 4318TIP3   OH212959   1.043   4.487   2.016 -0.3405  0.0877  0.0106
 4318TIP3    H112960   1.088   4.403   2.017  0.2299  0.3899 -0.1033
 4318TIP3    H212961   0.956   4.467   1.981 -0.7478 -0.7119  1.3812
 4319TIP3   OH212962   1.632   0.370   2.779  0.1538 -0.2796  0.3774
 4319TIP3    H112963   1.714   0.388   2.733  1.0886  2.7801  2.9145
 4319TIP3    H212964   1.653   0.297   2.837  0.2059 -1.2939 -0.8615
 4320TIP3   OH212965   2.641   2.173   3.075 -0.1904  0.5181  0.0385
 4320TIP3    H112966   2.672   2.201   3.161 -1.5596 -0.8786  1.0358
 4320TIP3    H212967   2.574   2.237   3.052 -1.3254 -0.2986  1.0103
 4321TIP3   OH212968   1.787   1.287   4.348 -0.3322 -0.1216  0.1417
 4321TIP3    H112969   1.862   1.315   4.399 -0.6180 -1.1356  1.1820
 4321TIP3    H212970   1.754   1.366   4.306 -0.2587  0.8170  1.7866
 4322TIP3   OH212971   4.439   4.367   0.243  0.0804  0.4809  0.1778
 4322TIP3    H112972   4.470   4.278   0.260 -0.7445  0.2388  0.4977
 4322TIP3    H212973   4.473   4.419   0.316 -1.4181 -0.0698  1.3447
 4323TIP3   OH212974   1.216   4.255   2.825  0.5061 -0.0828  0.0545
 4323TIP3    H112975   1.196   4.319   2.757  0.4279  0.5724  0.6809
 4323TIP3    H212976   1.231   4.174   2.777 -0.8789  0.0396 -0.6490
 4324TIP3   OH212977   2.184   2.647   3.540 -0.1008  0.1966 -0.2417
 4324TIP3    H112978   2.251   2.579   3.532  0.4874  0.8081 -0.7302
 4324TIP3    H212979   2.233   2.729   3.530 -0.3711  0.8601  2.9194
 4325TIP3   OH212980   4.999   4.916   0.131 -0.1447 -0.1950  0.0608
 4325TIP3    H112981   4.993   4.970   0.052 -0.8452 -0.2453  0.0768
 4325TIP3    H212982   5.073   4.857   0.113  0.5637  0.6870  0.0064
 4326TIP3   OH212983   2.346   5.079   1.114  0.4017 -0.0317  0.3370
 4326TIP3    H112984   2.331   5.027   1.035  0.8074  1.4560 -0.7708
 4326TIP3    H212985   2.269   5.063   1.169  0.5790 -1.8733  0.1144
 4327TIP3   OH212986   0.237   5.226   1.640 -0.2086  0.9043 -0.8567
 4327TIP3    H112987   0.261   5.278   1.716 -0.1901  1.8700 -1.5050
 4327TIP3    H212988   0.291   5.147   1.646 -0.9948  0.4382  0.7070
 4328TIP3   OH212989   1.530   1.422   2.049 -0.0394  0.4179  0.3349
 4328TIP3    H112990   1.620   1.429   2.019 -0.0531 -1.5665 -0.2800
 4328TIP3    H212991   1.531   1.462   2.137  1.6357 -0.3711  0.7118
 4329TIP3   OH212992   5.366   3.862   1.186 -0.2366  0.2727  0.1487
 4329TIP3    H112993   5.292   3.915   1.157 -0.2017  1.8095  2.5860
 4329TIP3    H212994   5.441   3.922   1.181  0.4628 -0.6264 -0.2995
 4330TIP3   OH212995   1.374   4.748   0.929  0.4124 -0.2588 -0.0116
 4330TIP3    H112996   1.320   4.721   1.003  2.3640  0.5272  1.8345
 4330TIP3    H212997   1.405   4.667   0.890  0.3143 -0.6910  0.7951
 4331TIP3   OH212998   0.372   3.465   4.467  0.1543  0.4902 -0.3017
 4331TIP3    H112999   0.388   3.398   4.400  1.5028  0.4325  0.0455
 4331TIP3    H213000   0.355   3.416   4.547  2.1685  0.4969  0.1909
 4332TIP3   OH213001   4.016   4.379   3.892 -0.2608  0.1577  0.4983
 4332TIP3    H113002   4.045   4.288   3.880  1.7550  0.8129  0.0051
 4332TIP3    H213003   4.006   4.389   3.987 -0.9019 -0.6750  0.5305
 4333TIP3   OH213004   2.511   5.095   1.445 -0.1322 -0.6496 -0.4513
 4333TIP3    H113005   2.463   5.158   1.391 -0.3351  0.6513  1.1555
 4333TIP3    H213006   2.588   5.073   1.393  0.2029  1.3449 -0.8890
 4334TIP3   OH213007   3.959   4.085   3.864  0.1849 -0.6378 -0.3932
 4334TIP3    H113008   4.053   4.093   3.876 -0.1023 -0.1958  2.0519
 4334TIP3    H213009   3.933   4.014   3.923 -1.0986 -0.2753 -0.4878
 4335TIP3   OH213010   3.005   1.040   4.161  0.0907  0.4702 -0.3505
 4335TIP3    H113011   2.958   1.036   4.245 -0.3357 -0.8805 -0.6337
 4335TIP3    H213012   2.947   1.090   4.104 -0.3054  0.1147 -0.2619
 4336TIP3   OH213013   5.501   2.505   4.994 -0.0451  0.2565  0.0086
 4336TIP3    H113014   5.454   2.422   5.004 -0.5836  0.5411 -0.1110
 4336TIP3    H213015   5.546   2.497   4.910 -0.6592  0.3552 -0.3345
 4337TIP3   OH213016   1.658   0.991   0.552 -0.1191 -0.6072  0.1252
 4337TIP3    H113017   1.642   0.897   0.553  1.9102 -1.0069  0.6114
 4337TIP3    H213018   1.739   1.002   0.502 -0.9816  1.0389 -1.0246
 4338TIP3   OH213019   4.305   0.886   2.628  0.4973 -0.0656  0.3566
 4338TIP3    H113020   4.219   0.858   2.597 -0.3238  2.0170  0.6007
 4338TIP3    H213021   4.294   0.979   2.648  3.4563  0.9672 -2.0484
 4339TIP3   OH213022   3.174   2.559   3.967  0.4907 -0.4755  0.0275
 4339TIP3    H113023   3.186   2.587   3.877 -1.4815  2.7840  0.6090
 4339TIP3    H213024   3.084   2.528   3.971 -0.1666  1.4435  1.2498
 4340TIP3   OH213025   0.422   0.511   4.514 -0.0472  0.5242  0.2137
 4340TIP3    H113026   0.410   0.556   4.430 -1.8716 -0.7953 -0.2872
 4340TIP3    H213027   0.337   0.517   4.557  0.5418  0.1728  1.4784
 4341TIP3   OH213028   2.899   4.687   2.612 -0.1980  0.2843  0.6718
 4341TIP3    H113029   2.833   4.621   2.636 -0.2560  0.5551  1.2590
 4341TIP3    H213030   2.980   4.654   2.649 -0.0873  0.1906  0.3518
 4342TIP3   OH213031   2.544   4.801   4.078 -0.0070  0.1758 -0.3319
 4342TIP3    H113032   2.537   4.832   3.987  1.4815 -0.5774 -0.7371
 4342TIP3    H213033   2.618   4.849   4.114  0.4547 -0.7141 -0.0500
 4343TIP3   OH213034   2.882   3.965   2.578  0.6152 -0.1398  0.0630
 4343TIP3    H113035   2.885   4.060   2.584  0.2244 -0.1188 -0.0393
 4343TIP3    H213036   2.791   3.942   2.599  0.6166 -0.4635 -0.2735
 4344TIP3   OH213037   4.250   1.852   3.773  0.1864  0.1254  0.7455
 4344TIP3    H113038   4.196   1.929   3.756  0.3381 -0.2983 -2.3481
 4344TIP3    H213039   4.190   1.778   3.764  0.5279 -0.2054  1.1627
 4345TIP3   OH213040   5.040   3.730   4.964  0.6550  0.0964 -0.2852
 4345TIP3    H113041   5.125   3.696   4.938 -0.2198 -1.4453 -1.2974
 4345TIP3    H213042   4.981   3.655   4.958 -1.0675  1.4333 -1.0655
 4346TIP3   OH213043   1.286   2.284   2.369  0.3511  0.0875 -0.4715
 4346TIP3    H113044   1.213   2.336   2.403 -0.8128 -1.1534 -1.0074
 4346TIP3    H213045   1.261   2.194   2.386  2.4388 -0.3415  0.6548
 4347TIP3   OH213046   0.617   1.941   1.782  0.3663 -0.2441  0.2841
 4347TIP3    H113047   0.569   1.873   1.735 -0.2204  1.5479 -1.8583
 4347TIP3    H213048   0.556   1.970   1.850 -0.5607  0.1402 -0.6817
 4348TIP3   OH213049   1.742   1.836   3.205  0.0559 -0.1950 -0.0370
 4348TIP3    H113050   1.722   1.879   3.288 -0.8752 -1.2981  0.3330
 4348TIP3    H213051   1.732   1.742   3.224  0.2214 -0.4775 -1.2968
 4349TIP3   OH213052   4.449   5.280   0.493 -0.2618 -0.2395  0.2078
 4349TIP3    H113053   4.474   5.203   0.442  0.6877 -0.2794  0.7192
 4349TIP3    H213054   4.438   5.247   0.582 -1.9639 -0.1811  0.0453
 4350TIP3   OH213055   1.799   5.156   3.661 -0.4059 -0.3268  0.4381
 4350TIP3    H113056   1.757   5.238   3.687 -2.7914 -1.1176 -0.6323
 4350TIP3    H213057   1.764   5.091   3.723  1.4358 -0.6075  1.2573
 4351TIP3   OH213058   6.076   5.877   3.303  0.4680 -0.5076  0.1301
 4351TIP3    H113059   6.116   5.910   3.223  0.3274 -1.2141 -0.2403
 4351TIP3    H213060   6.147   5.834   3.350  0.7333  0.5870  0.7853
 4352TIP3   OH213061   1.487   2.135   1.677 -0.1759 -0.4051  0.1793
 4352TIP3    H113062   1.396   2.153   1.702 -0.8067 -0.0467 -2.1651
 4352TIP3    H213063   1.492   2.040   1.670 -0.8176 -0.3632 -1.1138
 4353TIP3   OH213064   4.453   1.292   4.299 -0.2996 -0.8131 -0.3547
 4353TIP3    H113065   4.370   1.317   4.339 -0.4872 -0.9924 -0.6287
 4353TIP3    H213066   4.446   1.320   4.208  0.4216  0.2699 -0.0915
 4354TIP3   OH213067   6.235   3.094   3.977 -0.1016 -0.6072  0.7067
 4354TIP3    H113068   6.325   3.063   3.966  0.1362  0.3966 -0.4643
 4354TIP3    H213069   6.245   3.184   4.008 -0.7349 -0.8846  1.7655
 4355TIP3   OH213070   0.629   2.483   2.405  0.2134  0.5814 -0.2098
 4355TIP3    H113071   0.550   2.497   2.457  0.3121 -0.3086  0.1826
 4355TIP3    H213072   0.600   2.429   2.331 -0.1128  2.5362 -1.5970
 4356TIP3   OH213073   3.555   4.507   1.636 -0.1889  0.2059 -0.0319
 4356TIP3    H113074   3.541   4.581   1.695  1.0445  0.6768 -0.3089
 4356TIP3    H213075   3.623   4.454   1.678  0.7817  0.6005 -1.0479
 4357TIP3   OH213076   1.869   0.242   3.121 -0.3064  0.2131 -0.1537
 4357TIP3    H113077   1.948   0.197   3.151 -1.9650 -1.5744  1.7992
 4357TIP3    H213078   1.846   0.197   3.039  1.4027  1.7347 -1.5861
 4358TIP3   OH213079   1.202   1.818   1.695 -0.4308 -0.1144 -0.4738
 4358TIP3    H113080   1.146   1.896   1.691  0.9454  0.9320 -0.0541
 4358TIP3    H213081   1.195   1.789   1.786 -0.4690 -0.1265 -0.4804
 4359TIP3   OH213082   0.101   0.573   1.071 -0.3998  0.5037 -0.0061
 4359TIP3    H113083   0.140   0.625   1.141 -0.6122  0.6758 -0.0141
 4359TIP3    H213084   0.023   0.623   1.046 -1.4224 -0.5356  0.9777
 4360TIP3   OH213085   3.427   4.956   1.914  0.2791 -0.5495  0.0913
 4360TIP3    H113086   3.333   4.956   1.932  0.0206 -0.4348 -1.1520
 4360TIP3    H213087   3.438   5.024   1.847  1.6619  1.4202  2.1737
 4361TIP3   OH213088   2.604   5.008   1.148 -0.4673  0.0497  0.4986
 4361TIP3    H113089   2.531   5.054   1.107  0.3849  1.9759  0.9970
 4361TIP3    H213090   2.650   4.967   1.075 -0.6136  0.9937 -0.1527
 4362TIP3   OH213091   5.413   1.983   4.945  0.1886 -1.0413 -0.2203
 4362TIP3    H113092   5.458   1.912   4.900  0.9271 -0.2721 -0.7299
 4362TIP3    H213093   5.359   2.024   4.877  0.8198 -0.2737 -0.2736
 4363TIP3   OH213094   6.069   3.432   2.410 -0.1320 -0.2705  0.3490
 4363TIP3    H113095   6.004   3.400   2.472  0.1240 -0.0380  0.7446
 4363TIP3    H213096   6.121   3.355   2.387 -1.2351 -0.6971 -0.8398
 4364TIP3   OH213097   2.770   4.320   3.867  0.1890  0.6742  0.1610
 4364TIP3    H113098   2.834   4.275   3.922  0.0401  0.4526  0.1551
 4364TIP3    H213099   2.744   4.255   3.801 -0.1930  0.6949  0.2867
 4365TIP3   OH213100   3.607   3.474   3.318  0.1476  0.5784 -0.9022
 4365TIP3    H113101   3.587   3.412   3.247 -0.9408 -0.7477  0.4898
 4365TIP3    H213102   3.527   3.477   3.370  1.9877 -1.4697  2.3916
 4366TIP3   OH213103   5.346   4.556   3.131 -0.4397  0.2613  0.2948
 4366TIP3    H113104   5.379   4.528   3.217  0.7947  1.7041  0.3288
 4366TIP3    H213105   5.314   4.645   3.145  0.5807  0.8438 -0.9118
 4367TIP3   OH213106   1.698   2.129   1.055  0.0344  0.1904 -0.2549
 4367TIP3    H113107   1.604   2.135   1.071  0.1956 -0.3213  0.9508
 4367TIP3    H213108   1.705   2.133   0.959 -1.3511 -1.3469 -0.4870
 4368TIP3   OH213109   2.445   0.663   0.971  0.3754  0.7697  0.4226
 4368TIP3    H113110   2.428   0.755   0.955 -1.0842  0.2851 -1.1859
 4368TIP3    H213111   2.387   0.639   1.043  0.1157  0.9219  0.2637
 4369TIP3   OH213112   0.712   1.380   1.310 -0.0860 -0.0838  0.0665
 4369TIP3    H113113   0.775   1.424   1.253 -1.3360 -0.0221 -1.3301
 4369TIP3    H213114   0.731   1.286   1.299  1.6705 -0.0414  1.9840
 4370TIP3   OH213115   2.374   3.575   3.431  0.4879  0.1134  0.1291
 4370TIP3    H113116   2.388   3.645   3.494 -0.9218  0.0751  0.5049
 4370TIP3    H213117   2.393   3.614   3.346  0.1160  0.8267  0.3747
 4371TIP3   OH213118   2.418   4.677   4.448 -0.1789 -0.3091  0.8036
 4371TIP3    H113119   2.386   4.749   4.393 -1.7468  0.2908  2.4242
 4371TIP3    H213120   2.512   4.695   4.457 -0.5763  1.7489  1.3998
 4372TIP3   OH213121   0.151   0.800   1.237 -0.1005  0.5389 -0.4764
 4372TIP3    H113122   0.216   0.839   1.179 -0.0072  0.0373 -0.7085
 4372TIP3    H213123   0.134   0.868   1.303  0.1585  0.9192 -0.8021
 4373TIP3   OH213124   4.446   4.385   3.896 -0.3678  0.2058  0.3414
 4373TIP3    H113125   4.376   4.324   3.874 -0.5731  0.5149  0.1122
 4373TIP3    H213126   4.424   4.416   3.983  0.5973 -1.2337  1.1292
 4374TIP3   OH213127   1.362   0.322   2.738 -0.6864 -0.3994 -0.4473
 4374TIP3    H113128   1.454   0.349   2.734 -0.9183  1.5055  2.9920
 4374TIP3    H213129   1.366   0.230   2.766  0.2393  0.0246  0.9430
 4375TIP3   OH213130   3.321   1.345   2.229 -0.2121 -0.0290 -0.2552
 4375TIP3    H113131   3.352   1.295   2.154  1.3804 -0.5381  0.6931
 4375TIP3    H213132   3.225   1.345   2.220 -0.1619 -1.7361 -1.2285
 4376TIP3   OH213133   4.512   4.654   2.927 -0.1240 -0.4204 -0.4612
 4376TIP3    H113134   4.541   4.590   2.991 -0.9362 -1.4003 -1.0335
 4376TIP3    H213135   4.570   4.640   2.852 -0.1518 -0.3236 -0.5001
 4377TIP3   OH213136   1.101   0.797   4.073  0.6405 -0.2026  0.0296
 4377TIP3    H113137   1.040   0.862   4.037  0.2234 -0.6780 -0.1303
 4377TIP3    H213138   1.145   0.760   3.997  0.1253 -0.8473  0.0430
 4378TIP3   OH213139   2.987   0.334   0.744  0.5105  0.1727  0.5866
 4378TIP3    H113140   2.904   0.304   0.707  0.8548 -1.1810  0.8383
 4378TIP3    H213141   3.012   0.409   0.690 -1.3638  1.2825  1.1418
 4379TIP3   OH213142   3.848   3.594   4.511  0.1853 -0.0173  0.3486
 4379TIP3    H113143   3.838   3.687   4.489  1.2561 -0.0866 -0.5435
 4379TIP3    H213144   3.913   3.593   4.581  0.3360 -0.1049  0.2076
 4380TIP3   OH213145   3.206   0.372   3.509 -0.2388  0.4744 -0.6907
 4380TIP3    H113146   3.260   0.435   3.556  0.6868 -1.4561  0.9860
 4380TIP3    H213147   3.270   0.316   3.464 -0.9070 -0.5753 -0.3684
 4381TIP3   OH213148   6.157   2.807   1.906  0.6884 -0.0485  0.1536
 4381TIP3    H113149   6.206   2.857   1.841  1.0739  1.4782  1.5547
 4381TIP3    H213150   6.077   2.779   1.860  1.5232 -0.0986 -1.3112
 4382TIP3   OH213151   4.257   4.452   3.149 -0.5978 -0.0586 -0.5707
 4382TIP3    H113152   4.271   4.358   3.135 -0.6053 -0.7295  3.0060
 4382TIP3    H213153   4.319   4.494   3.089  0.5091 -2.3783 -1.2014
 4383TIP3   OH213154   1.583   4.552   0.430 -0.5996  0.3865 -0.9906
 4383TIP3    H113155   1.564   4.595   0.347  2.0916 -1.9354 -3.0259
 4383TIP3    H213156   1.515   4.485   0.439 -0.4560  0.1397 -1.7327
 4384TIP3   OH213157   4.262   3.292   2.652  0.3008 -0.3636 -0.0165
 4384TIP3    H113158   4.285   3.235   2.579  2.8348  2.0216 -1.2815
 4384TIP3    H213159   4.347   3.317   2.690 -0.6046  2.6438  0.2774
 4385TIP3   OH213160   5.475   0.601   1.979 -0.1711  0.1988  0.6939
 4385TIP3    H113161   5.459   0.696   1.982 -2.8022 -0.1603  0.7268
 4385TIP3    H213162   5.427   0.567   2.054 -2.1651 -1.4475 -1.2006
 4386TIP3   OH213163   4.675   1.611   2.359  0.4499 -0.1883  0.3231
 4386TIP3    H113164   4.596   1.629   2.307  1.0044  0.3712 -0.3424
 4386TIP3    H213165   4.655   1.529   2.404 -0.4966 -0.0808  0.1341
 4387TIP3   OH213166   3.043   5.044   3.061 -0.7485  0.0923  0.3218
 4387TIP3    H113167   3.000   5.000   2.988  1.8693 -0.9598 -0.7331
 4387TIP3    H213168   3.052   5.135   3.033  0.6507 -0.3968 -0.9737
 4388TIP3   OH213169   1.134   0.481   4.412  0.5420  0.1831 -0.4009
 4388TIP3    H113170   1.161   0.496   4.321  0.4705 -0.9262 -0.6200
 4388TIP3    H213171   1.216   0.483   4.462  0.7701 -0.7643 -0.7206
 4389TIP3   OH213172   3.123   2.218   1.881  0.4939 -0.1197  0.0676
 4389TIP3    H113173   3.180   2.193   1.954 -1.4878  0.4132  1.8987
 4389TIP3    H213174   3.121   2.313   1.883  1.1476 -0.0513 -1.3327
 4390TIP3   OH213175   2.473   5.709   3.419 -0.3782  0.7319 -0.0595
 4390TIP3    H113176   2.555   5.722   3.371 -0.6365  1.6686 -0.2824
 4390TIP3    H213177   2.483   5.763   3.497  0.2632 -1.2116  1.2672
 4391TIP3   OH213178   6.173   3.300   1.346  0.2117 -0.6443 -0.0949
 4391TIP3    H113179   6.124   3.353   1.284  0.9152  0.2438  0.0793
 4391TIP3    H213180   6.158   3.342   1.431 -1.3919 -2.3050  0.5177
 4392TIP3   OH213181   3.620   4.285   0.416 -0.5286 -0.3144 -0.0567
 4392TIP3    H113182   3.534   4.328   0.410 -0.3296  0.2805  1.1253
 4392TIP3    H213183   3.683   4.357   0.414 -0.1207 -0.6502  0.4578
 4393TIP3   OH213184   2.054   1.333   2.002 -0.2823  0.1957  0.9173
 4393TIP3    H113185   1.988   1.271   2.033 -0.1600  0.6300  2.1096
 4393TIP3    H213186   2.096   1.289   1.928 -1.8104 -0.1326  0.2194
 4394TIP3   OH213187   0.657   2.022   5.002 -0.6943  0.6141  0.4414
 4394TIP3    H113188   0.746   2.034   5.035 -0.5602  0.5861  0.0976
 4394TIP3    H213189   0.605   2.000   5.079 -0.1376 -0.7973  0.4447
 4395TIP3   OH213190   2.710   4.066   1.618  0.4037  0.0969 -0.9908
 4395TIP3    H113191   2.738   3.980   1.587  1.2466 -0.2036  0.5168
 4395TIP3    H213192   2.785   4.100   1.666 -0.4793  0.9951 -0.2090
 4396TIP3   OH213193   5.928   3.808   2.563  0.1676  0.4009 -0.2872
 4396TIP3    H113194   5.940   3.748   2.490  0.3116 -1.2758  1.0276
 4396TIP3    H213195   5.844   3.850   2.547  0.1372 -0.0334 -1.3325
 4397TIP3   OH213196   2.040   1.520   3.983 -0.2648  0.4553  0.0875
 4397TIP3    H113197   2.069   1.531   3.893 -0.2748 -0.8031 -0.0894
 4397TIP3    H213198   1.955   1.476   3.975  0.6491 -1.5180  0.7304
 4398TIP3   OH213199   1.430   0.948   2.915  0.1737  0.5050  0.4740
 4398TIP3    H113200   1.519   0.943   2.881 -0.1327 -1.4334 -0.2301
 4398TIP3    H213201   1.439   0.946   3.010  0.8903  0.4340  0.4056
 4399TIP3   OH213202   3.224   3.145   2.252  0.3006 -0.1441 -0.2734
 4399TIP3    H113203   3.291   3.136   2.319 -0.5325  0.7912  0.7165
 4399TIP3    H213204   3.218   3.239   2.236  1.2784 -0.3955 -2.5320
 4400TIP3   OH213205   4.502   4.640   1.171 -0.2732  0.6132 -0.0554
 4400TIP3    H113206   4.527   4.609   1.258 -0.1679 -0.4378 -0.4493
 4400TIP3    H213207   4.408   4.623   1.166  0.0295 -0.9892 -0.7929
 4401TIP3   OH213208   6.004   4.280   4.286  0.2589  0.2879 -0.5567
 4401TIP3    H113209   6.093   4.252   4.262  0.2896  0.1321 -0.2651
 4401TIP3    H213210   5.961   4.199   4.316 -0.1008  0.2880 -1.0512
 4402TIP3   OH213211   5.509   4.032   1.897 -0.4777 -0.2006  0.0092
 4402TIP3    H113212   5.423   4.042   1.856  0.3499  1.0886 -1.5110
 4402TIP3    H213213   5.539   4.121   1.912  0.5613 -0.6361  0.6195
 4403TIP3   OH213214   3.349   3.541   4.661 -0.3642 -0.5317  0.3927
 4403TIP3    H113215   3.442   3.516   4.662 -0.1120  0.3720  1.0939
 4403TIP3    H213216   3.337   3.588   4.743 -1.3054 -0.1024  0.0151
 4404TIP3   OH213217   5.745   0.040   1.980 -0.3540  0.8158  0.7300
 4404TIP3    H113218   5.737  -0.053   1.997  2.0538  0.6561  1.3533
 4404TIP3    H213219   5.697   0.082   2.052 -0.7957  0.0934  0.8648
 4405TIP3   OH213220   3.517   3.069   5.025  0.1898 -0.2445 -0.4179
 4405TIP3    H113221   3.474   3.007   4.967 -1.1235  0.6442 -0.4266
 4405TIP3    H213222   3.494   3.155   4.990  0.8541  0.2763  0.3810
 4406TIP3   OH213223   3.363   3.878   1.928 -0.0709  0.0368  0.0629
 4406TIP3    H113224   3.420   3.842   1.996 -1.5846 -0.3697  1.1575
 4406TIP3    H213225   3.376   3.820   1.853  1.1704  0.1366  0.1895
 4407TIP3   OH213226   1.592   4.575   5.073  0.0871  0.6355  0.0986
 4407TIP3    H113227   1.682   4.563   5.103  0.3075 -0.2622 -0.8963
 4407TIP3    H213228   1.590   4.539   4.985 -0.7725  2.4115 -0.6565
 4408TIP3   OH213229   3.400   0.952   2.695  0.0577  0.3507 -0.2130
 4408TIP3    H113230   3.396   1.027   2.754  1.5216  0.2449  0.0605
 4408TIP3    H213231   3.492   0.924   2.697 -0.5002 -1.6389 -0.0725
 4409TIP3   OH213232   4.716   3.566   3.108  0.4145 -0.2587 -0.7259
 4409TIP3    H113233   4.763   3.607   3.181 -0.4971 -1.6283  0.7000
 4409TIP3    H213234   4.737   3.620   3.032  0.8252  1.6637  0.6810
 4410TIP3   OH213235   2.744   2.376   1.807 -0.4142  0.0916 -0.2603
 4410TIP3    H113236   2.800   2.408   1.736  1.7727 -1.8774  0.4729
 4410TIP3    H213237   2.740   2.450   1.868  0.5947  0.6336 -0.8110
 4411TIP3   OH213238   0.474   0.870   2.133  0.5612 -0.1959  0.4102
 4411TIP3    H113239   0.385   0.836   2.130  0.9550 -1.2777  0.5386
 4411TIP3    H213240   0.480   0.930   2.059  0.2146 -1.3738 -0.6144
 4412TIP3   OH213241   3.604   5.755   0.122  0.5693 -0.3390 -0.2891
 4412TIP3    H113242   3.553   5.700   0.181  1.9698 -0.9512  0.3942
 4412TIP3    H213243   3.540   5.793   0.063 -0.3623 -3.7728 -1.7015
 4413TIP3   OH213244   5.427   2.784   5.029 -0.1704  0.1136 -0.1138
 4413TIP3    H113245   5.481   2.705   5.031  0.3580  0.4560 -0.5614
 4413TIP3    H213246   5.475   2.847   5.084  0.1122  0.5593 -0.8633
 4414TIP3   OH213247   2.156   1.377   4.203  0.4062  0.1105 -0.0325
 4414TIP3    H113248   2.239   1.416   4.230 -0.6870  0.5776  3.1700
 4414TIP3    H213249   2.127   1.430   4.129  1.8366  1.5077  0.3445
 4415TIP3   OH213250   6.091   4.225   1.303 -0.2087 -0.0701 -0.5750
 4415TIP3    H113251   6.150   4.168   1.353 -2.7308 -0.8806  1.7418
 4415TIP3    H213252   6.149   4.284   1.256  2.4567 -0.7271  1.6042
 4416TIP3   OH213253   3.172   5.190   2.702  0.5847 -0.3029 -0.1718
 4416TIP3    H113254   3.221   5.110   2.722  0.4850 -0.4932 -0.6877
 4416TIP3    H213255   3.145   5.223   2.788  0.9597 -0.6100  0.0687
 4417TIP3   OH213256   2.797   0.621   2.659  0.6051  0.1554 -0.1337
 4417TIP3    H113257   2.785   0.700   2.607  1.6801  0.3705 -0.0736
 4417TIP3    H213258   2.717   0.570   2.644  0.8415  0.2569 -1.8869
 4418TIP3   OH213259   3.429   5.158   5.134 -0.2772  0.0739 -0.0164
 4418TIP3    H113260   3.335   5.147   5.147 -0.2566  0.5784  0.6860
 4418TIP3    H213261   3.449   5.242   5.176  0.4934 -0.0497 -0.1118
 4419TIP3   OH213262   4.116   4.308   2.372 -0.1210 -0.5307  0.3817
 4419TIP3    H113263   4.097   4.222   2.408 -0.2664 -1.1369 -1.0914
 4419TIP3    H213264   4.030   4.351   2.364 -0.1375 -0.5692  0.3484
 4420TIP3   OH213265   6.274   2.975   2.337  0.0112 -0.8820 -0.5568
 4420TIP3    H113266   6.334   2.900   2.340  0.6135 -0.5126 -2.3170
 4420TIP3    H213267   6.187   2.936   2.342  0.3310 -1.6447 -0.6713
 4421TIP3   OH213268   2.571   0.310   2.026  0.3706 -0.2134 -0.0072
 4421TIP3    H113269   2.519   0.339   2.101 -0.7612 -0.6813 -0.5797
 4421TIP3    H213270   2.507   0.269   1.968  1.4167 -0.9266 -0.6818
 4422TIP3   OH213271   4.222   0.164   0.931 -0.0277  1.0045  0.6038
 4422TIP3    H113272   4.140   0.124   0.900  0.2363  0.1749  0.9578
 4422TIP3    H213273   4.224   0.250   0.888 -0.8848  0.8720  0.2735
 4423TIP3   OH213274   3.650   5.463   2.186 -0.2850 -0.7843  0.4111
 4423TIP3    H113275   3.746   5.458   2.180 -0.2892  0.1966 -0.9545
 4423TIP3    H213276   3.619   5.389   2.135 -0.2669 -0.8944  0.5577
 4424TIP3   OH213277   3.680   4.567   3.897  0.7788 -0.0020 -0.2094
 4424TIP3    H113278   3.745   4.509   3.937  1.4909  0.4003 -0.7518
 4424TIP3    H213279   3.624   4.594   3.969  2.0946  0.7937  0.5554
 4425TIP3   OH213280   0.546   1.219   1.694  0.4285 -0.7640 -0.0153
 4425TIP3    H113281   0.541   1.184   1.605 -1.3654 -0.3314 -0.1142
 4425TIP3    H213282   0.629   1.266   1.696 -0.2538  0.6552 -2.0245
 4426TIP3   OH213283   0.795   5.967   3.963 -0.0130 -0.9467  0.2697
 4426TIP3    H113284   0.843   5.968   3.881 -0.9686 -0.5431 -0.3000
 4426TIP3    H213285   0.845   5.908   4.020  1.0870 -0.6133 -0.3255
 4427TIP3   OH213286   2.089   1.412   2.333  0.1287 -0.7180 -0.3565
 4427TIP3    H113287   2.161   1.454   2.380  0.0760  0.8458 -1.5442
 4427TIP3    H213288   2.081   1.464   2.253 -0.6659 -2.4276 -1.4425
 4428TIP3   OH213289   0.187   1.644   4.579 -0.0196 -0.5447 -0.8001
 4428TIP3    H113290   0.111   1.608   4.534 -0.6954  0.1785 -0.2550
 4428TIP3    H213291   0.258   1.583   4.557 -0.1916  0.0228 -3.2365
 4429TIP3   OH213292   2.799   0.248   2.526  0.2263 -0.6465 -0.0587
 4429TIP3    H113293   2.786   0.163   2.483  2.2324 -1.1649  0.2471
 4429TIP3    H213294   2.733   0.251   2.595 -1.0775 -1.1183 -1.2336
 4430TIP3   OH213295   3.589   3.397   2.718 -0.3142 -0.5089  0.3531
 4430TIP3    H113296   3.565   3.430   2.805 -2.4237 -1.2555  0.1291
 4430TIP3    H213297   3.573   3.303   2.724  0.5307 -0.7203 -0.5559
 4431TIP3   OH213298   0.132   1.912   2.647  0.1822  0.3200  0.1739
 4431TIP3    H113299   0.128   1.822   2.614  1.9262  0.0214  0.6873
 4431TIP3    H213300   0.108   1.905   2.739  2.5363 -0.0532  0.8417
 4432TIP3   OH213301   6.207   1.202   1.658  0.2090 -0.0816 -0.1488
 4432TIP3    H113302   6.218   1.251   1.739 -2.4233 -1.9592  1.4761
 4432TIP3    H213303   6.240   1.114   1.678  0.4132 -0.3314 -1.4584
 4433TIP3   OH213304   0.649   3.375   5.074 -0.1785  0.2865 -0.3004
 4433TIP3    H113305   0.731   3.393   5.119  0.5214 -3.2586  0.1152
 4433TIP3    H213306   0.581   3.400   5.137  0.7005 -0.2539  0.8953
 4434TIP3   OH213307   5.153   0.647   1.473  0.3319  0.0604  0.2444
 4434TIP3    H113308   5.197   0.659   1.557  1.8609  0.0723 -0.5293
 4434TIP3    H213309   5.224   0.634   1.410 -0.8171 -1.5918 -0.7980
 4435TIP3   OH213310   0.263   4.979   0.972  0.0542 -0.0589 -0.3127
 4435TIP3    H113311   0.330   5.014   0.914  0.1207 -1.1751 -0.9378
 4435TIP3    H213312   0.308   4.965   1.056  0.4833 -0.3498 -0.5898
 4436TIP3   OH213313   3.489   1.318   4.952  0.0013  0.2437 -0.2319
 4436TIP3    H113314   3.495   1.411   4.973 -0.6165  0.3222 -0.4099
 4436TIP3    H213315   3.437   1.280   5.023 -2.2194  0.5345 -1.6295
 4437TIP3   OH213316   0.354   3.621   2.883  0.1968  0.3516  0.3761
 4437TIP3    H113317   0.323   3.692   2.826  0.3926  1.3565  1.4746
 4437TIP3    H213318   0.337   3.653   2.972  2.3960  0.0310  0.9704
 4438TIP3   OH213319   0.304   5.442   1.089 -0.1662 -0.9329  0.0437
 4438TIP3    H113320   0.276   5.492   1.166 -0.8274 -3.6135  1.6864
 4438TIP3    H213321   0.339   5.507   1.029 -1.7181  1.5593  1.6703
 4439TIP3   OH213322   3.118   3.494   3.635 -0.2467 -0.5777 -0.2373
 4439TIP3    H113323   3.040   3.536   3.597 -0.0290  1.4882  1.3841
 4439TIP3    H213324   3.083   3.436   3.703 -0.4333  1.1864  1.2636
 4440TIP3   OH213325   4.871   0.898   4.663  0.1632  0.1645 -0.0101
 4440TIP3    H113326   4.944   0.891   4.725  1.1605  1.6338 -0.9652
 4440TIP3    H213327   4.810   0.830   4.691  1.6747 -0.8110  1.1106
 4441TIP3   OH213328   4.335   5.242   4.075 -0.1431  0.2180 -0.2911
 4441TIP3    H113329   4.325   5.263   4.168 -0.9526 -1.5422  0.0687
 4441TIP3    H213330   4.425   5.209   4.067 -1.0341 -2.6961  0.5973
 4442TIP3   OH213331   3.192   5.913   0.861 -0.1966 -0.0303  0.3523
 4442TIP3    H113332   3.213   5.951   0.775  1.2290 -0.3138  0.5437
 4442TIP3    H213333   3.132   5.976   0.901  1.9885  2.0436  0.6113
 4443TIP3   OH213334   3.425   2.242   4.835 -0.5045  0.0129  0.2378
 4443TIP3    H113335   3.474   2.193   4.769  0.8672 -1.5408  2.2587
 4443TIP3    H213336   3.417   2.330   4.799  3.0580  0.1231 -0.6315
 4444TIP3   OH213337   3.704   3.137   1.206 -0.5780  0.4282 -0.1742
 4444TIP3    H113338   3.650   3.107   1.134 -0.4465 -0.9532  0.2742
 4444TIP3    H213339   3.716   3.060   1.262  1.0002  0.9410  0.2696
 4445TIP3   OH213340   0.817   4.821   3.891 -0.2225 -0.1172  0.1615
 4445TIP3    H113341   0.857   4.800   3.807  0.2933  1.0245  0.1040
 4445TIP3    H213342   0.872   4.775   3.956  0.9740  1.0895  0.0511
 4446TIP3   OH213343   2.188   0.628   4.224  0.2870  0.9145  0.0337
 4446TIP3    H113344   2.153   0.545   4.258  1.8695  0.2329  0.0756
 4446TIP3    H213345   2.251   0.602   4.157  0.0367  2.1371 -0.6997
 4447TIP3   OH213346   4.332   0.742   0.710  0.1797 -0.1924  0.4560
 4447TIP3    H113347   4.380   0.713   0.633  0.2366 -0.5354  0.6183
 4447TIP3    H213348   4.394   0.732   0.782 -0.2593 -1.0479  0.7352
 4448TIP3   OH213349   2.834   0.417   0.440  0.5924  0.4017  0.1727
 4448TIP3    H113350   2.799   0.328   0.438 -0.9116  0.8575  2.5265
 4448TIP3    H213351   2.800   0.459   0.362  0.6476 -0.8312 -0.5322
 4449TIP3   OH213352   0.044   5.086   3.830 -0.1762 -0.3054  0.3072
 4449TIP3    H113353   0.136   5.071   3.849  0.5875  0.7974 -2.0990
 4449TIP3    H213354  -0.001   5.070   3.913  2.3877  1.1475  2.1163
 4450TIP3   OH213355   0.103   4.342   4.355 -0.2443  0.2957 -0.1483
 4450TIP3    H113356   0.160   4.419   4.349  0.3451  0.1704  2.6640
 4450TIP3    H213357   0.033   4.360   4.291  0.9582  2.1644 -1.0457
 4451TIP3   OH213358   0.446   0.221   0.794 -0.3223  0.3886 -0.5413
 4451TIP3    H113359   0.365   0.195   0.750 -0.3816  0.8660 -0.7248
 4451TIP3    H213360   0.449   0.316   0.783 -0.0124  0.4347 -0.0571
 4452TIP3   OH213361   5.089   0.752   0.381 -0.3998  0.4269 -0.2964
 4452TIP3    H113362   5.101   0.728   0.473 -1.1014  0.9920 -0.0545
 4452TIP3    H213363   5.153   0.698   0.335 -0.8672 -0.7616  0.3939
 4453TIP3   OH213364   2.789   2.633   1.186  0.4706 -0.4681  0.5686
 4453TIP3    H113365   2.695   2.631   1.169  0.3286  0.2246  1.2401
 4453TIP3    H213366   2.828   2.667   1.106 -0.0004  0.7279  0.8264
 4454TIP3   OH213367   1.485   0.112   1.084 -0.3862 -0.2326  0.4195
 4454TIP3    H113368   1.493   0.075   1.172  0.6011 -0.0350  0.4149
 4454TIP3    H213369   1.556   0.176   1.077 -0.7600  0.1207 -0.3441
 4455TIP3   OH213370   2.658   2.541   3.330  0.2072  0.3794 -0.4163
 4455TIP3    H113371   2.630   2.604   3.264  0.1529  0.0526 -0.7026
 4455TIP3    H213372   2.581   2.529   3.386 -0.8733 -1.8619 -2.2206
 4456TIP3   OH213373   2.663   5.638   1.413 -0.5359  0.4502  0.1292
 4456TIP3    H113374   2.677   5.695   1.489 -0.8165 -0.5779  0.9784
 4456TIP3    H213375   2.602   5.686   1.358 -1.1678  0.7613  1.0806
 4457TIP3   OH213376   2.189   4.271   0.480 -0.4300  0.1404 -0.0391
 4457TIP3    H113377   2.214   4.338   0.417 -0.1681  0.3845  0.3179
 4457TIP3    H213378   2.149   4.320   0.552  1.8592  0.1752  1.2914
 4458TIP3   OH213379   0.988   3.376   2.766  0.2271 -0.0505 -0.2528
 4458TIP3    H113380   1.032   3.308   2.817 -0.8869 -1.6652 -1.3245
 4458TIP3    H213381   0.926   3.415   2.827  1.3171  0.4713  0.5517
 4459TIP3   OH213382   0.680   0.049   0.791  0.4109 -0.3774 -0.4378
 4459TIP3    H113383   0.594   0.062   0.751  0.5825 -3.8297 -2.2816
 4459TIP3    H213384   0.726   0.132   0.777 -2.6857  1.7977  1.1507
 4460TIP3   OH213385   0.178   4.781   4.540  0.3424  1.0348  0.4734
 4460TIP3    H113386   0.226   4.826   4.470  0.5130 -0.1966 -0.2240
 4460TIP3    H213387   0.246   4.732   4.587 -0.2459 -1.2102 -0.8910
 4461TIP3   OH213388   3.229   1.343   3.327 -0.0761  0.3861 -0.1892
 4461TIP3    H113389   3.271   1.330   3.413 -0.4236 -0.4765 -0.1407
 4461TIP3    H213390   3.297   1.385   3.274  0.1381  0.9502  0.5040
 4462TIP3   OH213391   3.343   2.849   2.484 -0.0275 -0.0337  0.7562
 4462TIP3    H113392   3.251   2.827   2.470 -0.1246  1.2603 -1.0313
 4462TIP3    H213393   3.349   2.870   2.577 -1.6916  0.4248  0.7846
 4463TIP3   OH213394   1.986   2.806   1.597 -0.4091  0.0305  0.0982
 4463TIP3    H113395   2.012   2.898   1.599 -1.4495  0.3504 -0.4156
 4463TIP3    H213396   1.961   2.786   1.687 -0.5198  0.3515  0.1392
 4464TIP3   OH213397   2.880   5.131   4.297 -0.4407  0.5392  0.2599
 4464TIP3    H113398   2.893   5.213   4.345 -0.2140  1.1074 -0.7436
 4464TIP3    H213399   2.957   5.079   4.318 -1.1610  0.0598  1.8808
 4465TIP3   OH213400   4.872   0.928   3.505  0.0821  0.1596 -0.7802
 4465TIP3    H113401   4.957   0.971   3.516  0.0633  0.5246 -1.9573
 4465TIP3    H213402   4.878   0.885   3.419 -1.5061  1.6029 -1.6667
 4466TIP3   OH213403   2.994   4.589   2.887  0.2975  0.2762 -0.2350
 4466TIP3    H113404   2.974   4.679   2.914  1.7544  1.0052 -1.4103
 4466TIP3    H213405   3.046   4.554   2.959 -1.4784 -0.1958  0.9068
 4467TIP3   OH213406   0.924   1.865   2.729 -0.3990 -0.0916  1.0519
 4467TIP3    H113407   0.917   1.949   2.775 -1.6122 -0.7093  2.0424
 4467TIP3    H213408   1.017   1.843   2.735  0.4219  2.2165 -1.1947
 4468TIP3   OH213409   4.440   2.815   1.383  0.2434  0.3618 -0.4076
 4468TIP3    H113410   4.533   2.794   1.378  0.1265 -0.3633  0.1838
 4468TIP3    H213411   4.437   2.904   1.418  0.7088 -0.0879  0.8447
 4469TIP3   OH213412   1.723   4.247   3.178  0.0880 -0.8529  0.4386
 4469TIP3    H113413   1.654   4.299   3.218  0.2485 -1.8020  2.0488
 4469TIP3    H213414   1.680   4.165   3.154 -0.1465 -0.0922 -1.9895
 4470TIP3   OH213415   0.028   3.571   3.972 -0.1355  0.1634 -0.0651
 4470TIP3    H113416   0.058   3.633   4.038 -0.2687  1.2043 -0.9501
 4470TIP3    H213417  -0.000   3.626   3.899 -2.2166 -0.8540 -0.0918
 4471TIP3   OH213418   3.569   3.001   0.627  0.6390  0.2865 -0.5320
 4471TIP3    H113419   3.603   3.011   0.716  0.1927  0.5340 -0.3872
 4471TIP3    H213420   3.500   2.935   0.634  0.6472  0.2582 -0.7087
 4472TIP3   OH213421   0.852   1.973   4.614 -0.1217  0.5617  0.1335
 4472TIP3    H113422   0.897   1.976   4.699  1.0154 -0.0392 -0.4269
 4472TIP3    H213423   0.759   1.973   4.636  0.1102 -2.1828  1.5425
 4473TIP3   OH213424   0.453   5.521   1.345  0.0671 -0.2696  0.2367
 4473TIP3    H113425   0.502   5.505   1.426 -0.1399 -1.0407  0.2197
 4473TIP3    H213426   0.372   5.563   1.374 -0.0129 -0.5546  0.4370
 4474TIP3   OH213427   3.171   0.538   1.026  0.2947 -0.2886  0.2039
 4474TIP3    H113428   3.161   0.550   1.121  0.5402 -1.3154  0.3716
 4474TIP3    H213429   3.082   0.544   0.992  0.0485 -1.2020  0.6623
 4475TIP3   OH213430   4.208   5.212   3.159  0.3850 -0.3326  0.5105
 4475TIP3    H113431   4.256   5.149   3.106 -0.2162 -0.2782 -0.1137
 4475TIP3    H213432   4.199   5.289   3.102 -2.0439 -1.0005 -0.0894
 4476TIP3   OH213433   4.028   2.841   3.883 -0.3563  0.6662 -0.4183
 4476TIP3    H113434   3.990   2.899   3.949  1.9328  0.6769  1.0288
 4476TIP3    H213435   4.121   2.865   3.882  0.5329 -2.3356 -0.4137
 4477TIP3   OH213436   1.355   3.499   4.262  0.0908 -0.0766 -0.3224
 4477TIP3    H113437   1.446   3.476   4.281 -0.8490 -2.4666  2.0701
 4477TIP3    H213438   1.357   3.535   4.174  3.3379  0.0994 -0.3196
 4478TIP3   OH213439   4.252   3.823   2.723 -0.2434 -0.0856  0.3908
 4478TIP3    H113440   4.248   3.728   2.723 -0.2854 -0.1315  2.5288
 4478TIP3    H213441   4.184   3.850   2.785  1.6636  1.1591  2.0532
 4479TIP3   OH213442   0.412   2.753   2.327 -0.5615  0.0677 -0.3353
 4479TIP3    H113443   0.394   2.661   2.348  1.1225  0.2352  2.3389
 4479TIP3    H213444   0.328   2.797   2.339 -0.9943 -0.8513  0.1119
 4480TIP3   OH213445   5.835   4.731   1.647 -0.3418 -0.5053  0.2858
 4480TIP3    H113446   5.877   4.749   1.562 -0.3201 -2.6170 -0.1897
 4480TIP3    H213447   5.903   4.754   1.711 -0.1505  0.5655 -0.2726
 4481TIP3   OH213448   6.203   4.227   2.869 -0.4209 -0.3332  0.4433
 4481TIP3    H113449   6.156   4.150   2.900 -0.0358 -1.2702 -1.1486
 4481TIP3    H213450   6.278   4.235   2.927 -0.9961 -0.5698  1.2259
 4482TIP3   OH213451   6.211   1.722   0.480  0.1281  0.2526  0.0431
 4482TIP3    H113452   6.188   1.639   0.520 -0.7096  0.4390 -0.0294
 4482TIP3    H213453   6.132   1.748   0.433  0.4453  0.9943 -0.0881
 4483TIP3   OH213454   0.817   4.948   1.589  0.0084 -0.2419  0.1586
 4483TIP3    H113455   0.819   5.008   1.515 -0.2430 -0.1016  0.2654
 4483TIP3    H213456   0.758   4.988   1.652  0.1158 -0.4263  0.3811
 4484TIP3   OH213457   5.141   0.283   0.200  0.0140 -0.0908  0.2064
 4484TIP3    H113458   5.087   0.288   0.279 -0.9252 -1.0421 -0.3490
 4484TIP3    H213459   5.109   0.206   0.154  0.1908  0.7278 -1.3568
 4485TIP3   OH213460   1.205   2.730   0.903  0.3982 -0.3427 -0.0103
 4485TIP3    H113461   1.288   2.777   0.901  0.9499 -1.2933 -0.7991
 4485TIP3    H213462   1.229   2.640   0.927  0.0136 -1.3036 -2.8180
 4486TIP3   OH213463   5.422   1.987   0.834 -0.5511  0.8389 -0.3632
 4486TIP3    H113464   5.340   2.031   0.813 -0.7070  0.5860 -0.2845
 4486TIP3    H213465   5.414   1.900   0.794  0.1423  1.1989 -1.3426
 4487TIP3   OH213466   0.408   2.436   4.467  0.2776 -0.0267 -0.0916
 4487TIP3    H113467   0.422   2.345   4.493 -1.7728 -0.7574 -1.3054
 4487TIP3    H213468   0.342   2.468   4.528  0.4759  0.4259 -0.1159
 4488TIP3   OH213469   3.321   0.604   2.101 -0.4904 -0.4100 -0.3446
 4488TIP3    H113470   3.331   0.697   2.123  1.4506 -0.6022 -0.2569
 4488TIP3    H213471   3.410   0.568   2.108 -1.1505 -2.2029 -0.7203
 4489TIP3   OH213472   1.932   1.245   2.476  0.1059 -0.0728  0.0730
 4489TIP3    H113473   1.939   1.174   2.412  1.0822 -1.7581  1.9436
 4489TIP3    H213474   1.990   1.314   2.443 -1.4095  0.2535 -2.1535
 4490TIP3   OH213475   3.308   5.263   3.096 -0.0630 -0.2721 -0.6478
 4490TIP3    H113476   3.298   5.268   3.191 -2.1130 -0.2905 -0.8310
 4490TIP3    H213477   3.254   5.334   3.062 -2.2671 -2.4113 -1.9091
 4491TIP3   OH213478   3.237   4.244   4.964  0.5203  0.0585 -0.1086
 4491TIP3    H113479   3.227   4.336   4.988  1.0221 -0.1112  0.7559
 4491TIP3    H213480   3.274   4.246   4.876 -0.4094  0.6762 -0.5065
 4492TIP3   OH213481   6.309   2.875   3.697 -0.2877 -0.2050 -0.2396
 4492TIP3    H113482   6.361   2.856   3.776  1.3521  0.5361 -1.0944
 4492TIP3    H213483   6.224   2.902   3.731  0.0403 -0.9036  1.2473
 4493TIP3   OH213484   4.806   2.894   4.774 -0.0048  0.2475 -0.6865
 4493TIP3    H113485   4.879   2.835   4.756 -0.5336 -0.8275  0.5813
 4493TIP3    H213486   4.848   2.971   4.813  0.3788 -0.9878  1.4991
 4494TIP3   OH213487   6.144   5.081   0.475  0.1299  0.3338 -0.7075
 4494TIP3    H113488   6.058   5.041   0.484 -0.8264  2.1923 -1.1501
 4494TIP3    H213489   6.193   5.020   0.419 -0.5384 -1.2071  0.2969
 4495TIP3   OH213490   3.846   4.227   4.708  0.1831 -0.3114  0.2377
 4495TIP3    H113491   3.801   4.184   4.781 -1.4579 -0.5839 -0.9100
 4495TIP3    H213492   3.811   4.316   4.707  0.5751 -0.1551  0.0754
 4496TIP3   OH213493   3.219   2.004   2.667  0.4330  0.0674 -0.4479
 4496TIP3    H113494   3.162   1.950   2.612  1.7930 -2.0226  0.0892
 4496TIP3    H213495   3.191   1.985   2.757  2.0850 -1.2255 -0.1552
 4497TIP3   OH213496   4.380   3.087   2.516 -0.8509  0.1082  0.3686
 4497TIP3    H113497   4.458   3.115   2.563 -0.2119  0.5696 -0.8985
 4497TIP3    H213498   4.411   3.018   2.458 -1.5651 -0.2936  0.4534
 4498TIP3   OH213499   1.675   2.211   3.981  0.1892 -0.0603 -0.0157
 4498TIP3    H113500   1.580   2.203   3.969  0.2902  1.3620 -2.7726
 4498TIP3    H213501   1.685   2.265   4.060 -1.3437  0.4000 -0.1031
 4499TIP3   OH213502   1.968   3.771   1.436 -0.0931 -0.1143  0.7914
 4499TIP3    H113503   1.963   3.813   1.522 -1.4850  1.6051 -0.0707
 4499TIP3    H213504   1.934   3.836   1.375  0.0987 -1.5845 -0.9804
 4500TIP3   OH213505   2.867   2.687   3.524 -0.3365  0.4386  0.1770
 4500TIP3    H113506   2.956   2.681   3.490 -1.0577  0.8395 -1.8732
 4500TIP3    H213507   2.811   2.658   3.453 -1.8302 -1.1208  1.8679
 4501TIP3   OH213508   0.528   3.856   0.631  0.0280  0.3808  0.1381
 4501TIP3    H113509   0.501   3.848   0.722 -0.4967  1.6672  0.1049
 4501TIP3    H213510   0.523   3.766   0.596 -0.5776  0.0215  1.1335
 4502TIP3   OH213511   4.835   3.567   3.766 -0.2414 -0.2177 -0.0525
 4502TIP3    H113512   4.817   3.652   3.726 -0.1790  0.2925  0.9674
 4502TIP3    H213513   4.915   3.537   3.722  1.3150  1.5095  1.3736
 4503TIP3   OH213514   3.660   3.184   0.204  0.2148 -0.2949  0.0547
 4503TIP3    H113515   3.713   3.211   0.279  0.9032 -0.8231 -0.2348
 4503TIP3    H213516   3.711   3.117   0.161  0.0540  0.3407 -1.1798
 4504TIP3   OH213517   4.129   5.612   2.279 -0.1836  0.0885 -0.2258
 4504TIP3    H113518   4.177   5.535   2.250 -0.4393 -0.4586  0.7613
 4504TIP3    H213519   4.050   5.613   2.224  0.3117  0.2461 -0.9491
 4505TIP3   OH213520   1.076   4.500   3.403 -0.3347 -0.1661 -0.5464
 4505TIP3    H113521   1.161   4.457   3.414 -0.2729 -0.1824 -1.0990
 4505TIP3    H213522   1.094   4.574   3.346 -0.3183  0.9732  0.8790
 4506TIP3   OH213523   0.595   3.987   4.104 -0.3195 -0.2817 -0.1783
 4506TIP3    H113524   0.540   4.038   4.045 -2.2152 -1.0361  0.8670
 4506TIP3    H213525   0.649   3.934   4.045 -1.1102  0.0411 -1.2383
 4507TIP3   OH213526   1.096   0.865   3.676  0.4227 -0.5941  0.0110
 4507TIP3    H113527   1.139   0.799   3.731 -0.7549 -1.5665 -0.1914
 4507TIP3    H213528   1.006   0.834   3.668  0.3478 -0.0369 -1.7731
 4508TIP3   OH213529   1.310   0.564   2.577  0.3601  0.1791  0.1924
 4508TIP3    H113530   1.300   0.545   2.484 -1.2604 -0.3585  0.4399
 4508TIP3    H213531   1.360   0.490   2.612 -2.4449 -1.7618  0.4171
 4509TIP3   OH213532   0.489   2.276   2.247  0.2328  0.4936 -0.5906
 4509TIP3    H113533   0.430   2.223   2.301  0.9688  0.6001  0.3357
 4509TIP3    H213534   0.430   2.326   2.190 -0.6317  1.2309  0.8926
 4510TIP3   OH213535   0.495   5.869   3.158 -0.2064  0.2214 -0.2771
 4510TIP3    H113536   0.411   5.830   3.182 -0.4756  0.7500 -0.3476
 4510TIP3    H213537   0.490   5.881   3.063  0.0601 -0.0018 -0.3198
 4511TIP3   OH213538   5.947   3.223   0.393  0.6591  0.3753  0.0252
 4511TIP3    H113539   5.973   3.298   0.340 -1.4914  1.5902  0.5669
 4511TIP3    H213540   5.855   3.208   0.371  0.7696 -1.5169  0.6384
 4512TIP3   OH213541   2.264   0.806   4.433 -0.0502  0.0977  0.3112
 4512TIP3    H113542   2.313   0.881   4.401 -0.6358  0.1772 -0.4238
 4512TIP3    H213543   2.237   0.759   4.353  1.3104 -1.5604  0.7451
 4513TIP3   OH213544   5.889   1.740   1.880  0.1645 -0.0054 -0.6938
 4513TIP3    H113545   5.889   1.655   1.837  0.2075 -0.0867 -0.5336
 4513TIP3    H213546   5.977   1.750   1.915  0.6692  0.8306 -2.1263
 4514TIP3   OH213547   1.114   0.167   4.116  0.1944 -0.6004  0.1080
 4514TIP3    H113548   1.185   0.232   4.121 -1.9532  1.9123  0.3665
 4514TIP3    H213549   1.035   0.220   4.105 -1.7073 -3.2504  0.2350
 4515TIP3   OH213550   2.950   4.225   2.619  0.0197  0.0036 -0.2255
 4515TIP3    H113551   2.976   4.283   2.547  0.0917 -1.1551 -1.1636
 4515TIP3    H213552   2.880   4.273   2.664 -1.0948  0.1327 -1.9842
 4516TIP3   OH213553   2.044   4.305   0.723  0.3635  0.0020 -0.4728
 4516TIP3    H113554   2.021   4.395   0.746  1.8753  0.0919  0.7833
 4516TIP3    H213555   1.969   4.274   0.672  0.0899  2.1721 -1.5182
 4517TIP3   OH213556   2.625   4.165   3.693 -0.2493 -0.4822  0.0300
 4517TIP3    H113557   2.661   4.110   3.623 -0.9682 -0.1577 -0.6030
 4517TIP3    H213558   2.621   4.107   3.769  0.4069 -0.8773 -0.2267
 4518TIP3   OH213559   5.371   0.269   0.884 -0.2458  0.2323  0.1418
 4518TIP3    H113560   5.448   0.268   0.827 -0.3926 -0.3236 -0.0514
 4518TIP3    H213561   5.347   0.177   0.893 -2.1895  0.5175 -1.5632
 4519TIP3   OH213562   4.120   1.130   1.562 -0.2176 -0.4492 -0.5115
 4519TIP3    H113563   4.147   1.040   1.584 -0.7439 -0.3104  0.8197
 4519TIP3    H213564   4.130   1.178   1.644 -2.1103  0.1860 -0.6154
 4520TIP3   OH213565   4.867   3.208   2.826 -0.1844  0.1129  0.5936
 4520TIP3    H113566   4.857   3.114   2.843 -2.0759  0.3917  1.1736
 4520TIP3    H213567   4.863   3.249   2.912 -0.8859  0.8351  0.2308
 4521TIP3   OH213568   1.323   4.926   4.145  0.3484  0.3949  0.1089
 4521TIP3    H113569   1.230   4.914   4.164 -0.1179 -0.0509 -2.1796
 4521TIP3    H213570   1.332   5.019   4.127  0.6387  0.6790  1.6332
 4522TIP3   OH213571   0.663   3.595   4.103  0.1296 -0.2214 -0.9149
 4522TIP3    H113572   0.586   3.646   4.128 -0.2100 -2.1132  2.5571
 4522TIP3    H213573   0.628   3.523   4.051 -0.8549 -1.8687  1.8055
 4523TIP3   OH213574   1.892   3.534   1.671 -0.0548 -0.3964  0.0088
 4523TIP3    H113575   1.891   3.583   1.753 -1.0418  0.0383 -0.2457
 4523TIP3    H213576   1.984   3.531   1.646  0.1200  0.5697  0.4829
 4524TIP3   OH213577   3.756   1.095   0.023 -0.0030  0.7362 -0.3819
 4524TIP3    H113578   3.668   1.096   0.060  0.3147  0.4015  0.4297
 4524TIP3    H213579   3.779   1.187   0.010 -0.1399  0.8634  0.2482
 4525TIP3   OH213580   5.273   5.527   4.353  0.2468  0.6617 -0.0008
 4525TIP3    H113581   5.360   5.497   4.381  0.3053  1.0106  0.1996
 4525TIP3    H213582   5.239   5.455   4.300  0.4282  0.2851  0.3835
 4526TIP3   OH213583   3.585   0.441   4.314 -0.4020  0.3564 -0.6026
 4526TIP3    H113584   3.651   0.411   4.376  1.4994  1.5674 -1.9086
 4526TIP3    H213585   3.567   0.532   4.340  0.3792  0.8611 -1.7458
 4527TIP3   OH213586   2.768   2.274   3.318  0.1576  0.1473  0.0182
 4527TIP3    H113587   2.854   2.289   3.356  0.4481  0.6317 -0.8081
 4527TIP3    H213588   2.727   2.360   3.316  0.4550  0.2749 -1.4697
 4528TIP3   OH213589   5.552   2.456   1.871  0.1167 -0.9531  0.0481
 4528TIP3    H113590   5.645   2.460   1.850  0.1664 -0.9160  0.2681
 4528TIP3    H213591   5.509   2.441   1.787  0.2133  0.4700 -0.2832
 4529TIP3   OH213592   3.343   5.451   2.794  0.3461  0.1623 -0.2114
 4529TIP3    H113593   3.328   5.527   2.851 -0.2661  0.4032 -0.6908
 4529TIP3    H213594   3.368   5.381   2.854 -0.7460  0.2884  0.4192
 4530TIP3   OH213595   2.341   4.101   0.280 -0.2956  0.6059 -0.0623
 4530TIP3    H113596   2.326   4.152   0.200 -0.2798  1.3440  0.3888
 4530TIP3    H213597   2.431   4.124   0.306 -0.6319  1.1381  0.6855
 4531TIP3   OH213598   5.193   4.466   2.755 -0.0827 -0.8520  0.2418
 4531TIP3    H113599   5.284   4.468   2.784 -0.4588 -1.5247  1.5359
 4531TIP3    H213600   5.183   4.382   2.711  0.5211  0.2200 -2.0725
 4532TIP3   OH213601   5.215   1.615   2.058 -0.1315  0.4880  0.0543
 4532TIP3    H113602   5.219   1.653   1.971  1.1261  0.3061  0.0098
 4532TIP3    H213603   5.288   1.655   2.105  0.4418 -0.8684  0.3906
 4533TIP3   OH213604   4.733   5.136   2.840 -0.3436 -0.2961 -0.0898
 4533TIP3    H113605   4.647   5.154   2.804 -0.8477 -1.2749  0.5769
 4533TIP3    H213606   4.773   5.222   2.852 -1.3975  0.1959 -0.0009
 4534TIP3   OH213607   2.305   0.326   3.298 -0.1233  0.1689 -0.5513
 4534TIP3    H113608   2.233   0.362   3.350 -0.0702 -1.7345  0.9614
 4534TIP3    H213609   2.268   0.249   3.256  0.2626  0.8365 -2.1692
 4535TIP3   OH213610   0.743   5.675   2.743  0.2087  0.4015 -0.2597
 4535TIP3    H113611   0.725   5.765   2.715 -0.5425  0.2493 -0.2909
 4535TIP3    H213612   0.742   5.679   2.838 -1.8760  0.0664 -0.2229
 4536TIP3   OH213613   1.923   2.939   2.806 -0.2314 -0.0167 -0.2933
 4536TIP3    H113614   1.971   2.976   2.880 -0.3072  0.1148 -0.3086
 4536TIP3    H213615   1.986   2.939   2.734 -0.0213 -0.5658 -0.1111
 4537TIP3   OH213616   3.164   1.810   4.044 -0.4616  0.0036 -0.2664
 4537TIP3    H113617   3.176   1.891   3.994  1.6149  0.9199  1.5569
 4537TIP3    H213618   3.123   1.839   4.126 -2.1117 -1.2047 -0.6210
 4538TIP3   OH213619   0.521   1.504   4.041 -0.2173  0.1123  0.5592
 4538TIP3    H113620   0.481   1.568   3.981  0.2733 -0.0835  0.0134
 4538TIP3    H213621   0.529   1.551   4.124  1.9374  1.4490 -0.3318
 4539TIP3   OH213622   1.056   0.014   1.895  0.1477 -0.1444  0.1508
 4539TIP3    H113623   1.148   0.040   1.903 -0.1111  0.2798  2.2013
 4539TIP3    H213624   1.019   0.076   1.832  1.1507 -0.0448 -0.3674
 4540TIP3   OH213625   2.646   2.144   4.009  0.5648 -0.2127  0.2277
 4540TIP3    H113626   2.696   2.141   3.928  0.4618 -3.5844  0.1540
 4540TIP3    H213627   2.699   2.197   4.068  2.7190 -1.0941 -0.7975
 4541TIP3   OH213628   0.318   2.983   0.431 -0.0338  0.7076  0.0184
 4541TIP3    H113629   0.381   2.958   0.498 -1.3610  2.5413  2.0832
 4541TIP3    H213630   0.330   3.078   0.421 -2.9787  1.3061  1.1631
 4542TIP3   OH213631   3.078   0.833   2.418 -0.3677 -0.5000  0.2907
 4542TIP3    H113632   3.106   0.742   2.424  1.1605 -0.1773 -1.0726
 4542TIP3    H213633   3.092   0.868   2.506 -0.6727 -1.4853  0.7459
 4543TIP3   OH213634   0.448   2.690   3.120  0.4644 -0.6299 -0.1385
 4543TIP3    H113635   0.481   2.718   3.205 -0.3301  0.0099 -0.0318
 4543TIP3    H213636   0.432   2.596   3.130  1.0296 -0.6984  0.1890
 4544TIP3   OH213637   2.170   0.030   3.738 -0.3134  0.1922 -0.3155
 4544TIP3    H113638   2.167  -0.065   3.734  0.0197  0.1818 -0.3957
 4544TIP3    H213639   2.141   0.052   3.827 -3.3579  0.1833 -1.2180
 4545TIP3   OH213640   6.070   4.018   2.181 -0.4374  0.3145  0.2336
 4545TIP3    H113641   6.081   4.112   2.188  0.1602  0.3627 -1.0229
 4545TIP3    H213642   5.976   4.004   2.184 -0.5935  1.0719 -0.6687
 4546TIP3   OH213643   0.635   2.843   4.740  0.2407 -0.2371 -0.2912
 4546TIP3    H113644   0.674   2.804   4.662 -1.4727  0.9606 -1.8275
 4546TIP3    H213645   0.664   2.934   4.739  0.9310 -0.4048  1.0276
 4547TIP3   OH213646   2.966   0.812   1.692 -0.3074 -0.5223 -0.5938
 4547TIP3    H113647   3.047   0.810   1.743 -1.8999  1.9455  2.3894
 4547TIP3    H213648   2.897   0.798   1.757 -2.4994  2.5186 -2.0206
 4548TIP3   OH213649   0.777   3.189   3.415 -0.2386 -0.0898 -0.1085
 4548TIP3    H113650   0.842   3.259   3.407  0.5799 -0.9181 -1.0451
 4548TIP3    H213651   0.772   3.172   3.509  3.3291 -2.1062 -0.0986
 4549TIP3   OH213652   5.806   2.877   0.342  0.0048 -0.2423  0.7356
 4549TIP3    H113653   5.724   2.923   0.325  0.1376 -0.3828 -0.4074
 4549TIP3    H213654   5.853   2.882   0.258  0.2758 -1.9382  0.7605
 4550TIP3   OH213655   2.700   2.857   1.985 -0.0164  0.6339  0.2285
 4550TIP3    H113656   2.627   2.919   1.989 -1.1821 -0.6702 -0.0751
 4550TIP3    H213657   2.750   2.874   2.065 -0.3259  1.9028  0.1832
 4551TIP3   OH213658   4.857   4.119   0.136 -0.9255 -0.2931  0.0729
 4551TIP3    H113659   4.792   4.118   0.207 -1.1610 -1.5450 -0.1384
 4551TIP3    H213660   4.806   4.137   0.057 -1.1396 -1.8569 -0.1762
 4552TIP3   OH213661   1.560   0.860   3.506 -0.2471 -0.0501  0.1863
 4552TIP3    H113662   1.646   0.884   3.472 -0.9759 -0.4732 -2.1252
 4552TIP3    H213663   1.577   0.823   3.592  1.5464  2.6680  1.1148
 4553TIP3   OH213664   3.453   5.759   0.770 -0.0372 -0.4399 -0.2771
 4553TIP3    H113665   3.457   5.791   0.860 -0.8374 -0.9777 -0.0466
 4553TIP3    H213666   3.362   5.773   0.743  0.2457 -0.0627 -1.0892
 4554TIP3   OH213667   4.478   0.144   3.371  0.1069  0.3780 -0.5249
 4554TIP3    H113668   4.562   0.119   3.410 -1.2189 -2.6570  0.6468
 4554TIP3    H213669   4.455   0.226   3.415  1.3071 -0.0340  0.9565
 4555TIP3   OH213670   3.701   4.427   2.045  0.0999 -0.2116 -0.2937
 4555TIP3    H113671   3.715   4.385   2.129  0.9038  0.6019  0.0026
 4555TIP3    H213672   3.679   4.518   2.067 -2.8934 -0.7050 -0.8566
 4556TIP3   OH213673   2.775   0.608   4.818 -0.0014 -0.5404  0.3810
 4556TIP3    H113674   2.713   0.567   4.758  0.8845 -2.0200  0.4245
 4556TIP3    H213675   2.841   0.648   4.761  0.9075 -2.0513  0.3152
 4557TIP3   OH213676   4.464   3.169   3.140  0.1681  0.2534 -0.1350
 4557TIP3    H113677   4.504   3.094   3.184 -0.5023  0.2774  0.5351
 4557TIP3    H213678   4.492   3.245   3.190 -1.6623  0.1709  1.1019
 4558TIP3   OH213679   4.212   0.721   4.650  0.0116  0.5034  0.2865
 4558TIP3    H113680   4.159   0.757   4.579 -0.3393 -0.9593 -0.2159
 4558TIP3    H213681   4.201   0.783   4.722 -1.7946  0.6083 -0.0481
 4559TIP3   OH213682   4.914   2.645   3.396 -0.2837  0.3840 -0.3208
 4559TIP3    H113683   4.862   2.694   3.460 -0.0346  0.1061  0.1037
 4559TIP3    H213684   4.894   2.686   3.312 -0.9707  0.4625 -0.1289
 4560TIP3   OH213685   2.372   3.850   0.046 -0.1379 -0.1686 -0.3272
 4560TIP3    H113686   2.312   3.922   0.023  0.9511  1.1002  0.6573
 4560TIP3    H213687   2.318   3.771   0.041 -2.2705  1.0318  1.7709
 4561TIP3   OH213688   0.350   4.868   1.536 -0.5107 -0.2213  0.2123
 4561TIP3    H113689   0.311   4.786   1.567 -0.1869 -0.6811 -0.5567
 4561TIP3    H213690   0.385   4.909   1.615 -2.4626  0.1728  0.9112
 4562TIP3   OH213691   1.931   3.530   0.769  0.0891 -0.0762 -0.1649
 4562TIP3    H113692   1.910   3.620   0.742 -0.8869  0.0656  0.9985
 4562TIP3    H213693   1.977   3.539   0.852  0.8298 -0.6223 -0.5036
 4563TIP3   OH213694   2.619   4.654   1.628 -0.3339  0.0135 -0.6604
 4563TIP3    H113695   2.546   4.674   1.569 -1.4677 -0.8317  0.4035
 4563TIP3    H213696   2.648   4.739   1.660 -0.1826  0.4301 -1.8450
 4564TIP3   OH213697   1.233   5.807   4.549  0.2020 -0.9429 -0.2361
 4564TIP3    H113698   1.194   5.883   4.590 -0.3461 -1.4342  0.1740
 4564TIP3    H213699   1.290   5.843   4.481 -1.3834 -0.2087 -1.2305
 4565TIP3   OH213700   5.421   1.246   3.649  0.4935 -0.0388 -0.3173
 4565TIP3    H113701   5.366   1.228   3.726  0.9889 -3.1943 -0.5760
 4565TIP3    H213702   5.362   1.290   3.588 -1.0552 -1.0775  0.3629
 4566TIP3   OH213703   3.581   3.742   3.189  0.0974 -0.0207  0.1458
 4566TIP3    H113704   3.648   3.700   3.244 -0.1918  1.6362  1.8556
 4566TIP3    H213705   3.516   3.674   3.174  1.8949 -1.5548 -1.2002
 4567TIP3   OH213706   1.340   5.746   1.300 -0.1906 -0.4279  0.4089
 4567TIP3    H113707   1.402   5.816   1.317 -1.7481  0.9640  0.6115
 4567TIP3    H213708   1.357   5.720   1.209 -0.0974  0.7756  0.0650
 4568TIP3   OH213709   3.018   5.932   4.483  0.0511  0.2410  0.1493
 4568TIP3    H113710   3.109   5.902   4.489 -0.7878 -2.7041 -0.3941
 4568TIP3    H213711   2.987   5.931   4.573 -0.2823 -1.9156  0.0752
 4569TIP3   OH213712   0.878   0.113   4.888  0.3303 -0.1227 -0.4893
 4569TIP3    H113713   0.840   0.168   4.956  0.0536 -1.5115  0.5113
 4569TIP3    H213714   0.973   0.127   4.896  0.2180  1.0047 -0.9669
 4570TIP3   OH213715   0.878   1.095   0.868 -0.4782  0.0517 -0.0617
 4570TIP3    H113716   0.948   1.127   0.811  0.9459 -2.6170  0.0594
 4570TIP3    H213717   0.916   1.021   0.915 -2.2662  0.7653  2.7925
 4571TIP3   OH213718   3.053   0.293   4.653 -0.1936 -0.7959 -0.5171
 4571TIP3    H113719   2.962   0.284   4.681 -0.2834 -0.8971 -0.8363
 4571TIP3    H213720   3.096   0.340   4.725 -1.1972  2.1367 -1.6868
 4572TIP3   OH213721   5.455   5.612   1.998  0.3942 -0.2882 -0.1871
 4572TIP3    H113722   5.512   5.687   1.982 -0.4293 -0.2422 -3.6069
 4572TIP3    H213723   5.499   5.563   2.068  2.3092  1.9556  0.3136
 4573TIP3   OH213724   3.964   2.635   2.817 -0.1093 -0.0457  0.6033
 4573TIP3    H113725   4.014   2.707   2.856  2.3675 -0.3215 -1.7158
 4573TIP3    H213726   3.875   2.668   2.812  0.5896  2.1419  1.2820
 4574TIP3   OH213727   4.824   1.407   4.350 -0.1722 -0.2619 -0.2534
 4574TIP3    H113728   4.844   1.319   4.319  0.8506 -1.2504  2.8854
 4574TIP3    H213729   4.751   1.395   4.411  1.7635  0.4809  2.4259
 4575TIP3   OH213730   4.881   4.540   1.874 -0.1323  0.1956 -0.0492
 4575TIP3    H113731   4.942   4.603   1.913  0.1694  0.3914 -0.8193
 4575TIP3    H213732   4.800   4.590   1.862 -0.3094  0.0647  0.5398
 4576TIP3   OH213733   5.708   3.121   1.453  0.1179 -0.1060  0.1232
 4576TIP3    H113734   5.695   3.066   1.530 -0.4406 -1.6867 -1.0433
 4576TIP3    H213735   5.749   3.200   1.487  4.0814 -2.4392  1.6217
 4577TIP3   OH213736   4.420   5.132   2.413  0.1244 -0.2686 -0.0726
 4577TIP3    H113737   4.416   5.051   2.463 -0.3162 -0.3332 -0.2050
 4577TIP3    H213738   4.396   5.200   2.477 -1.4045 -0.4528 -0.4060
 4578TIP3   OH213739   0.485   3.387   4.851  0.4401  0.0861 -0.3402
 4578TIP3    H113740   0.558   3.415   4.795 -0.2264  0.8613 -0.8351
 4578TIP3    H213741   0.521   3.391   4.940  0.8701  0.8960 -0.5379
 4579TIP3   OH213742   1.402   5.541   0.361  0.1333 -0.5253  0.2027
 4579TIP3    H113743   1.418   5.561   0.269  0.1630 -1.3688  0.0175
 4579TIP3    H213744   1.416   5.447   0.368  0.5382 -0.4055  1.1613
 4580TIP3   OH213745   2.427   5.130   5.098  0.9108 -0.6331 -0.6872
 4580TIP3    H113746   2.483   5.118   5.175  1.0642  0.7261 -0.5650
 4580TIP3    H213747   2.343   5.091   5.123  0.1519  1.9549  1.1710
 4581TIP3   OH213748   5.491   3.225   0.745 -0.0582 -0.4513 -0.0098
 4581TIP3    H113749   5.411   3.202   0.792  0.0835  0.3286  0.6145
 4581TIP3    H213750   5.551   3.152   0.762 -0.5044 -0.8659 -0.1895
 4582TIP3   OH213751   4.265   3.777   3.101  0.2827  0.3491  0.3343
 4582TIP3    H113752   4.180   3.772   3.144  0.8006 -1.2107  1.2848
 4582TIP3    H213753   4.272   3.693   3.054  0.4463  1.3182 -1.4487
 4583TIP3   OH213754   1.444   2.106   1.365 -0.6645 -0.2970 -0.0722
 4583TIP3    H113755   1.395   2.098   1.447  0.6902 -0.1345  0.7781
 4583TIP3    H213756   1.527   2.061   1.382 -0.0013  0.5147 -1.0597
 4584TIP3   OH213757   2.346   3.435   3.760 -0.1118 -0.3087 -0.5850
 4584TIP3    H113758   2.268   3.442   3.704  0.0122 -0.6859 -0.8077
 4584TIP3    H213759   2.392   3.518   3.747 -0.7519  0.1438 -0.0340
 4585TIP3   OH213760   1.232   2.451   1.073  0.1551  0.2211  0.1508
 4585TIP3    H113761   1.221   2.509   1.148 -0.1092 -0.1781  0.4287
 4585TIP3    H213762   1.322   2.419   1.080  0.6594  1.4307 -0.6170
 4586TIP3   OH213763   1.052   3.531   3.026 -0.1185  0.6415 -0.1250
 4586TIP3    H113764   0.981   3.468   3.034  1.6588 -1.5633 -0.4759
 4586TIP3    H213765   1.131   3.481   3.048  1.5581  2.3874 -1.7057
 4587TIP3   OH213766   4.469   3.926   3.196 -0.2093  0.1760  0.3146
 4587TIP3    H113767   4.505   3.949   3.110 -1.3555 -0.1399 -0.2866
 4587TIP3    H213768   4.383   3.887   3.175 -2.3227  3.6181  1.7669
 4588TIP3   OH213769   4.495   1.979   1.526  0.5133  0.0294  0.1796
 4588TIP3    H113770   4.484   2.052   1.587  0.4939 -0.4160  0.7228
 4588TIP3    H213771   4.590   1.969   1.518  0.5165  0.1627  0.0416
 4589TIP3   OH213772   5.389   3.440   0.016 -0.1303 -0.4023 -0.3374
 4589TIP3    H113773   5.310   3.462   0.066 -0.7019  1.8540 -2.0085
 4589TIP3    H213774   5.377   3.487  -0.067  3.5555  1.1669 -0.1686
 4590TIP3   OH213775   0.928   3.859   2.495  0.6596  0.2055  0.2160
 4590TIP3    H113776   1.000   3.833   2.552  0.9644 -1.3514 -0.8031
 4590TIP3    H213777   0.850   3.818   2.534  0.7046 -0.0168  0.0750
 4591TIP3   OH213778   3.203   0.752   3.624  0.0037  0.5231 -0.0918
 4591TIP3    H113779   3.281   0.765   3.678  1.3499 -1.4096 -1.4422
 4591TIP3    H213780   3.236   0.726   3.539 -2.1211 -1.1418 -0.5124
 4592TIP3   OH213781   4.596   4.886   1.482 -0.3243 -0.5510  0.4014
 4592TIP3    H113782   4.625   4.969   1.521  0.3827 -0.9479  0.7432
 4592TIP3    H213783   4.536   4.912   1.413  0.5748  0.2963 -0.0926
 4593TIP3   OH213784   5.121   2.183   4.972 -0.0035 -0.3751 -0.4051
 4593TIP3    H113785   5.082   2.102   5.006  1.0700 -1.0731 -0.7570
 4593TIP3    H213786   5.055   2.219   4.913 -0.5197 -0.9696 -0.1997
 4594TIP3   OH213787   3.552   3.137   3.931  0.4175  0.4551 -0.1624
 4594TIP3    H113788   3.593   3.158   3.847  1.0597  0.5322  0.1685
 4594TIP3    H213789   3.458   3.140   3.913  0.5436 -1.2632 -1.3161
 4595TIP3   OH213790   2.929   0.238   3.346 -0.2056 -0.3949  0.1010
 4595TIP3    H113791   2.966   0.308   3.400  0.2316 -0.4243 -0.1555
 4595TIP3    H213792   2.881   0.284   3.277  1.8280 -0.2716 -1.3191
 4596TIP3   OH213793   5.009   4.300   2.540 -0.3293 -0.7796 -0.0995
 4596TIP3    H113794   4.935   4.267   2.590 -0.5673  3.0337  2.4527
 4596TIP3    H213795   5.084   4.252   2.576 -0.9568 -0.8135  1.2342
 4597TIP3   OH213796   5.975   1.758   2.988  0.1354  0.0274 -0.2404
 4597TIP3    H113797   5.959   1.665   2.974  2.4861 -0.4039 -0.3854
 4597TIP3    H213798   5.897   1.801   2.953 -0.4340 -1.8085 -1.3416
 4598TIP3   OH213799   0.515   1.532   1.184 -0.3055  0.4253  0.0150
 4598TIP3    H113800   0.569   1.595   1.136 -0.5760  1.7648  1.3692
 4598TIP3    H213801   0.577   1.479   1.234  0.0502 -1.6193 -2.4075
 4599TIP3   OH213802   0.350   3.569   1.889  0.2293  0.1582 -0.2653
 4599TIP3    H113803   0.266   3.589   1.847  0.6263  0.6748 -0.8373
 4599TIP3    H213804   0.392   3.507   1.830  0.2684 -0.0610 -0.0057
 4600TIP3   OH213805   3.428   3.432   4.251 -0.4720 -0.5773  0.2147
 4600TIP3    H113806   3.369   3.372   4.297  0.1502 -0.1763  1.6097
 4600TIP3    H213807   3.410   3.517   4.291 -0.4429 -0.0678 -0.8438
 4601TIP3   OH213808   5.839   5.920   4.763  0.0607 -0.4522  0.4220
 4601TIP3    H113809   5.919   5.878   4.732 -1.0775 -2.3897 -0.0841
 4601TIP3    H213810   5.772   5.895   4.699 -1.2591 -0.1308  1.6253
 4602TIP3   OH213811   5.866   0.013   3.506 -0.0265  0.0626 -0.2929
 4602TIP3    H113812   5.826   0.061   3.434 -0.3571  0.2773  0.0316
 4602TIP3    H213813   5.959   0.007   3.482  1.0177  4.6997  1.6242
 4603TIP3   OH213814   4.731   3.643   4.125 -0.3097 -0.8646 -0.3202
 4603TIP3    H113815   4.800   3.619   4.064 -0.2734  0.0261 -0.6447
 4603TIP3    H213816   4.751   3.733   4.151  0.1469 -1.4767  1.6541
 4604TIP3   OH213817   4.906   2.092   3.910 -0.2325  0.2232 -0.5409
 4604TIP3    H113818   4.823   2.050   3.887 -1.8058  2.0239  1.4593
 4604TIP3    H213819   4.970   2.021   3.910 -1.8777 -1.3253 -1.5796
 4605TIP3   OH213820   4.546   4.165   1.425 -0.0972  0.7217  0.2850
 4605TIP3    H113821   4.485   4.099   1.391  2.3044 -0.5717 -1.9016
 4605TIP3    H213822   4.590   4.121   1.498  0.3207  0.5005 -0.0940
 4606TIP3   OH213823   2.195   5.665   1.741 -0.9387  0.5172 -0.1160
 4606TIP3    H113824   2.265   5.601   1.729 -0.7345  0.6430  0.3980
 4606TIP3    H213825   2.115   5.617   1.718 -0.8306 -0.0508  0.6591
 4607TIP3   OH213826   2.045   1.628   0.099  0.6188 -0.6826  0.3186
 4607TIP3    H113827   1.973   1.633   0.162  0.2770  0.1929 -0.1294
 4607TIP3    H213828   2.024   1.694   0.032  1.9740 -0.1824  0.3428
 4608TIP3   OH213829   2.073   3.717   2.983  0.0996 -0.3969  0.2670
 4608TIP3    H113830   2.159   3.709   2.943  1.0447  2.0951  1.6215
 4608TIP3    H213831   2.037   3.628   2.980  2.2193 -1.2853 -1.3305
 4609TIP3   OH213832   3.654   1.435   3.756  0.1861 -0.0923  0.2706
 4609TIP3    H113833   3.579   1.421   3.697 -1.2596  1.3087  1.6764
 4609TIP3    H213834   3.678   1.347   3.785 -0.6074 -0.6076 -0.5752
 4610TIP3   OH213835   1.721   5.668   0.421 -0.1168 -0.1046  1.2510
 4610TIP3    H113836   1.637   5.647   0.379  1.0469 -0.1897 -1.2704
 4610TIP3    H213837   1.705   5.655   0.514 -2.6331 -1.0438  0.7918
 4611TIP3   OH213838   1.181   3.428   4.468 -0.2015  0.1224 -0.5153
 4611TIP3    H113839   1.222   3.434   4.382  0.7329 -0.8644 -0.1660
 4611TIP3    H213840   1.229   3.490   4.522  0.1291 -0.2556 -0.3713
 4612TIP3   OH213841   3.982   4.719   2.848  0.6333  0.6617 -0.5939
 4612TIP3    H113842   3.967   4.769   2.928 -0.5027 -1.4795  0.6227
 4612TIP3    H213843   4.077   4.721   2.837  0.6465  2.9535 -0.5830
 4613TIP3   OH213844   0.370   5.005   1.223  0.5271  0.1014  0.6998
 4613TIP3    H113845   0.463   4.990   1.238  0.0136 -1.9741  2.3775
 4613TIP3    H213846   0.350   5.087   1.268  1.7537  1.3511 -0.9003
 4614TIP3   OH213847   2.925   4.302   5.129  0.2319 -0.6900  0.4828
 4614TIP3    H113848   2.894   4.350   5.206  1.7561 -1.9432  1.9654
 4614TIP3    H213849   3.020   4.311   5.133  0.3139 -0.2586 -1.6548
 4615TIP3   OH213850   5.805   0.999   0.840  0.5301  0.2617 -0.0727
 4615TIP3    H113851   5.898   1.003   0.862  0.6463 -2.7845  0.4927
 4615TIP3    H213852   5.761   1.036   0.916  1.2098  3.0011 -0.8944
 4616TIP3   OH213853   0.780   2.247   3.990 -0.0487 -0.1908  0.3456
 4616TIP3    H113854   0.731   2.306   4.047 -1.1582 -0.9322  0.1944
 4616TIP3    H213855   0.844   2.205   4.049 -1.2477 -1.0266  1.1048
 4617TIP3   OH213856   0.810   4.240   4.932 -0.2427  0.1473 -0.2633
 4617TIP3    H113857   0.851   4.161   4.966 -2.6921 -1.0826  0.0822
 4617TIP3    H213858   0.716   4.226   4.947 -0.9578  2.0261 -2.4946
 4618TIP3   OH213859   2.684   0.154   3.908 -0.6625  0.2968  0.0968
 4618TIP3    H113860   2.736   0.074   3.909 -0.7317  0.2571  1.2873
 4618TIP3    H213861   2.687   0.183   3.816 -2.0672 -1.9943 -0.7732
 4619TIP3   OH213862   2.654   4.970   1.729  0.3832  0.1271 -0.1038
 4619TIP3    H113863   2.637   5.052   1.684 -0.0067  0.8540  1.2957
 4619TIP3    H213864   2.738   4.983   1.773  0.2661 -0.1761  0.2197
 4620TIP3   OH213865   5.884   3.664   0.404  0.0906  0.0641 -0.2996
 4620TIP3    H113866   5.910   3.595   0.343 -0.4534 -0.7340  0.3485
 4620TIP3    H213867   5.792   3.679   0.385 -0.3552 -0.9000  0.9605
 4621TIP3   OH213868   0.214   1.251   2.487 -1.0553  0.2552 -0.1166
 4621TIP3    H113869   0.295   1.210   2.460 -0.5302  2.4849 -2.3353
 4621TIP3    H213870   0.146   1.206   2.437 -0.6840  0.9481 -1.2756
 4622TIP3   OH213871   1.025   2.392   2.388  0.1421 -0.5146  0.2470
 4622TIP3    H113872   1.004   2.329   2.319  1.4138 -0.9094  0.2016
 4622TIP3    H213873   0.950   2.452   2.388 -1.3406 -2.2861  0.6458
 4623TIP3   OH213874   4.757   4.205   2.921  0.3349 -0.4815 -0.5847
 4623TIP3    H113875   4.767   4.211   3.016 -0.8902  0.8210 -0.5008
 4623TIP3    H213876   4.827   4.260   2.885  0.4036 -0.4465 -0.3955
 4624TIP3   OH213877   1.198   4.257   0.271  0.1498  0.1612 -0.0766
 4624TIP3    H113878   1.226   4.189   0.210 -0.0873  0.0074 -0.0122
 4624TIP3    H213879   1.109   4.279   0.243  0.6972  1.4361 -0.9918
 4625TIP3   OH213880   1.825   3.493   2.232  0.4504 -0.0022 -0.4416
 4625TIP3    H113881   1.849   3.406   2.262 -0.1672 -0.6787 -1.8014
 4625TIP3    H213882   1.908   3.534   2.208  0.5519 -1.3530 -2.6352
 4626TIP3   OH213883   2.702   0.818   3.580  0.1927 -0.2382  0.2748
 4626TIP3    H113884   2.684   0.754   3.511 -0.5199  0.0673  0.1683
 4626TIP3    H213885   2.760   0.772   3.641  0.6630 -0.5771 -0.4161
 4627TIP3   OH213886   2.297   5.787   3.820 -0.1687  0.2026  0.1556
 4627TIP3    H113887   2.354   5.863   3.812  1.9695 -1.4533 -1.4024
 4627TIP3    H213888   2.291   5.772   3.915 -0.5731  2.1950  0.4945
 4628TIP3   OH213889   5.513   3.216   3.781 -0.2569  0.3450 -0.4669
 4628TIP3    H113890   5.471   3.274   3.718  1.7792  1.8912 -0.5006
 4628TIP3    H213891   5.486   3.250   3.866 -2.3147 -1.2271 -0.3906
 4629TIP3   OH213892   5.022   2.728   4.867 -0.1009 -0.7911  0.6550
 4629TIP3    H113893   5.049   2.637   4.879  0.9593 -0.3151  2.1673
 4629TIP3    H213894   5.091   2.768   4.815  1.7289  0.1507  3.5939
 4630TIP3   OH213895   4.009   5.195   1.121 -0.0971  0.5130  0.0340
 4630TIP3    H113896   3.949   5.189   1.047  0.7005 -1.4965 -0.5100
 4630TIP3    H213897   4.008   5.288   1.145  0.4060  1.4767 -3.1655
 4631TIP3   OH213898   0.663   1.198   2.632 -0.3217 -0.1643  0.1117
 4631TIP3    H113899   0.687   1.152   2.552 -2.2850 -1.7012  0.3249
 4631TIP3    H213900   0.706   1.149   2.702 -0.6334 -0.3292  0.1861
 4632TIP3   OH213901   2.183   4.543   1.826  0.2985 -0.3871 -0.6241
 4632TIP3    H113902   2.103   4.520   1.779  0.4274  0.6569 -1.3695
 4632TIP3    H213903   2.182   4.638   1.830  2.6504 -0.1766 -2.7391
 4633TIP3   OH213904   3.379   5.560   1.435 -0.3349  0.2924  0.1725
 4633TIP3    H113905   3.403   5.474   1.470 -1.7383 -0.1305  0.1627
 4633TIP3    H213906   3.435   5.622   1.482  0.2834 -0.5733  0.6056
 4634TIP3   OH213907   1.604   3.553   1.479 -0.2696 -0.0330  0.0947
 4634TIP3    H113908   1.606   3.609   1.556  2.7139  0.1490 -0.0015
 4634TIP3    H213909   1.619   3.612   1.405  2.1872 -0.7360 -0.0711
 4635TIP3   OH213910   6.194   0.077   3.656 -0.7752 -0.1978 -0.1016
 4635TIP3    H113911   6.153   0.152   3.699  1.0908  2.1700 -2.2099
 4635TIP3    H213912   6.285   0.079   3.684 -0.1484 -0.2252 -1.9832
 4636TIP3   OH213913   2.944   0.063   2.033 -0.2554 -0.5551  0.3976
 4636TIP3    H113914   2.991  -0.008   1.988  0.8685 -0.1219  0.8330
 4636TIP3    H213915   3.007   0.095   2.098 -0.4152  1.3959 -0.3534
 4637TIP3   OH213916   2.465   0.133   4.100 -0.6037  0.0971  0.2209
 4637TIP3    H113917   2.546   0.167   4.062  0.7254 -2.3394  0.6527
 4637TIP3    H213918   2.443   0.057   4.045 -1.2949 -0.6374  1.4618
 4638TIP3   OH213919   1.951   3.545   1.208  0.0055 -0.4476  0.2488
 4638TIP3    H113920   2.011   3.568   1.137 -1.8684 -0.3490 -1.3612
 4638TIP3    H213921   1.950   3.623   1.264 -0.9419  0.7804 -1.3923
 4639TIP3   OH213922   4.325   2.201   4.423  0.2323 -0.3089  0.1921
 4639TIP3    H113923   4.244   2.237   4.389  0.4031  0.5375  0.6768
 4639TIP3    H213924   4.340   2.123   4.369 -1.0728 -0.6776  0.3279
 4640TIP3   OH213925   5.535   3.402   1.119 -0.1573  0.2730  0.1446
 4640TIP3    H113926   5.555   3.444   1.035  0.7248 -0.4654 -0.0227
 4640TIP3    H213927   5.440   3.389   1.117 -0.0016 -0.8404 -1.2757
 4641TIP3   OH213928   1.358   5.826   5.182 -0.0507 -0.4597 -0.3400
 4641TIP3    H113929   1.382   5.746   5.228 -1.5405 -0.4112  0.6211
 4641TIP3    H213930   1.312   5.796   5.104 -1.5310 -0.5912  0.5429
 4642TIP3   OH213931   4.025   2.755   1.940 -0.0063  0.3947 -0.4747
 4642TIP3    H113932   4.064   2.697   1.875  0.2798  1.5086 -1.3222
 4642TIP3    H213933   4.095   2.771   2.003  0.0778  0.2510 -0.5311
 4643TIP3   OH213934   0.114   3.560   3.131 -0.1147 -0.0698  0.1742
 4643TIP3    H113935   0.136   3.653   3.140 -0.3506  0.2125 -1.6922
 4643TIP3    H213936   0.050   3.544   3.200 -3.3682  2.3370 -1.9874
 4644TIP3   OH213937   6.319   0.338   3.594  0.6362  0.5162  0.2297
 4644TIP3    H113938   6.403   0.295   3.581  1.1807  1.8475 -0.9658
 4644TIP3    H213939   6.286   0.303   3.677  2.4843  0.1425  0.8541
 4645TIP3   OH213940   5.705   5.438   0.917 -0.2951 -0.4476  0.4403
 4645TIP3    H113941   5.748   5.354   0.929 -1.2283 -1.0533 -0.2732
 4645TIP3    H213942   5.695   5.446   0.822  0.0152  0.5913  0.4839
 4646TIP3   OH213943   4.655   1.403   2.549  0.0893  0.2888 -0.1358
 4646TIP3    H113944   4.713   1.445   2.612  0.0555 -0.2658  0.2628
 4646TIP3    H213945   4.713   1.352   2.493 -0.0397 -0.6151  0.5312
 4647TIP3   OH213946   5.750   1.553   2.406 -0.2403 -0.3302 -0.6561
 4647TIP3    H113947   5.699   1.476   2.382 -0.6327 -0.3153  0.1021
 4647TIP3    H213948   5.795   1.578   2.325 -0.7643 -0.8504 -1.1193
 4648TIP3   OH213949   4.985   5.161   2.169  0.2088 -0.0094  0.1061
 4648TIP3    H113950   5.052   5.177   2.102  1.5221 -0.6304  1.2406
 4648TIP3    H213951   4.944   5.079   2.142 -1.2009  1.1202 -1.4273
 4649TIP3   OH213952   4.094   1.080   4.326  0.3208 -0.5057  0.1384
 4649TIP3    H113953   4.025   1.033   4.373 -0.3469 -0.1171 -0.4316
 4649TIP3    H213954   4.143   1.011   4.279 -0.8514 -0.6317 -0.9514
 4650TIP3   OH213955   0.594   4.376   0.879 -0.3765 -0.2922  0.4445
 4650TIP3    H113956   0.567   4.399   0.790 -2.9292 -0.9662  0.9379
 4650TIP3    H213957   0.581   4.456   0.930  3.9083  1.0323 -0.1510
 4651TIP3   OH213958   1.012   2.997   3.224 -0.1032 -0.0595  0.1516
 4651TIP3    H113959   1.086   2.938   3.209 -0.3081 -0.2934  0.0498
 4651TIP3    H213960   1.050   3.072   3.269  0.3208  0.1312 -0.5060
 4652TIP3   OH213961   3.448   0.859   2.131 -0.2776 -0.3010  0.4498
 4652TIP3    H113962   3.497   0.832   2.053 -1.0005 -0.7791  0.1518
 4652TIP3    H213963   3.515   0.876   2.197  0.2433 -3.1281  0.7657
 4653TIP3   OH213964   2.276   3.869   0.444 -0.5469  0.0977  0.3226
 4653TIP3    H113965   2.258   3.920   0.523  1.1853  2.2103 -0.5454
 4653TIP3    H213966   2.251   3.927   0.372 -0.6755 -1.2055 -0.7112
 4654TIP3   OH213967   1.595   0.362   0.512 -0.5107  0.7236  0.2613
 4654TIP3    H113968   1.558   0.291   0.460 -2.1027  1.1115  0.7961
 4654TIP3    H213969   1.614   0.431   0.449  0.6771 -0.0035 -0.2094
 4655TIP3   OH213970   6.125   4.234   3.687  0.1205  0.4991 -0.0686
 4655TIP3    H113971   6.109   4.219   3.780  1.6927 -0.0638  0.1459
 4655TIP3    H213972   6.054   4.187   3.642  0.6438 -1.1994  0.8016
 4656TIP3   OH213973   6.030   1.454   0.382  0.3625 -0.1839 -0.2963
 4656TIP3    H113974   6.096   1.482   0.319  1.5741  0.6136  1.2548
 4656TIP3    H213975   5.962   1.521   0.378 -0.0972 -0.7060 -1.4914
 4657TIP3   OH213976   6.236  -0.002   4.671 -0.0049 -0.5538  0.1320
 4657TIP3    H113977   6.221   0.021   4.579  2.0957 -1.4866 -0.5032
 4657TIP3    H213978   6.281   0.074   4.708 -0.8274 -0.1889  0.4066
 4658TIP3   OH213979   5.404   0.738   4.904 -0.0404  0.1786  0.2709
 4658TIP3    H113980   5.369   0.650   4.893 -0.7712  0.6342 -1.4212
 4658TIP3    H213981   5.496   0.731   4.878 -0.1081 -0.0763  0.0962
 4659TIP3   OH213982   5.752   0.657   4.556  0.3379 -0.0137  0.1540
 4659TIP3    H113983   5.819   0.702   4.504 -1.0308  1.0233 -0.7976
 4659TIP3    H213984   5.781   0.667   4.646  1.4636  0.4175 -0.2333
 4660TIP3   OH213985   0.743   2.600   3.425  0.1172 -0.0984 -0.2330
 4660TIP3    H113986   0.652   2.614   3.399 -0.1711 -1.2844  0.0828
 4660TIP3    H213987   0.745   2.618   3.518 -0.0966 -1.3087  0.0255
 4661TIP3   OH213988   4.319   3.720   4.906  0.2135 -0.1401  0.5393
 4661TIP3    H113989   4.399   3.669   4.910  0.9492  0.6656 -2.0667
 4661TIP3    H213990   4.250   3.657   4.885  0.5880 -0.4976  0.3809
 4662TIP3   OH213991   3.329   0.819   0.243  0.0140 -0.0372 -0.4596
 4662TIP3    H113992   3.375   0.736   0.253 -1.1425 -0.6751 -0.2064
 4662TIP3    H213993   3.250   0.797   0.193 -2.3729  0.0617  2.9126
 4663TIP3   OH213994   2.562   0.201   2.845  0.9128 -0.6241 -0.3738
 4663TIP3    H113995   2.604   0.195   2.931 -0.6802  1.7726  0.6831
 4663TIP3    H213996   2.496   0.269   2.856 -1.0311 -1.9650 -2.8375
 4664TIP3   OH213997   0.551   1.011   4.510  0.5526 -0.2472  0.0632
 4664TIP3    H113998   0.645   0.998   4.496  0.5348 -0.0849 -0.2242
 4664TIP3    H213999   0.511   0.932   4.475  0.6445 -0.7533  1.0783
 4665TIP3   OH214000   5.267   5.894   4.018 -0.5326  0.9787 -0.3270
 4665TIP3    H114001   5.219   5.858   4.093  2.1916  0.8545  1.4801
 4665TIP3    H214002   5.314   5.969   4.053  0.0008  1.5693 -2.2041
 4666TIP3   OH214003   2.333   2.630   4.122  0.2132 -0.1040 -0.1483
 4666TIP3    H114004   2.267   2.628   4.192  0.6049  0.1168  0.2254
 4666TIP3    H214005   2.290   2.676   4.050 -0.5229 -1.1320 -0.3927
 4667TIP3   OH214006   2.736   4.010   4.017  0.2030 -0.0649  0.6093
 4667TIP3    H114007   2.721   4.089   4.069  0.6180 -0.2936  1.0741
 4667TIP3    H214008   2.651   3.991   3.978 -0.0276  0.3052  0.9271
 4668TIP3   OH214009   4.655   0.079   0.374  0.3245  0.4757  0.3150
 4668TIP3    H114010   4.719   0.074   0.304  0.3195 -0.4334  0.3637
 4668TIP3    H214011   4.573   0.103   0.330  0.6619  1.5816  0.2470
 4669TIP3   OH214012   3.738   1.586   2.804  0.1681 -0.4532  0.4551
 4669TIP3    H114013   3.816   1.531   2.799  0.2929 -0.1980 -0.8302
 4669TIP3    H214014   3.691   1.568   2.722 -0.9495 -0.3428  1.0542
 4670TIP3   OH214015   2.545   2.083   0.649 -0.3366 -0.0214 -0.3473
 4670TIP3    H114016   2.471   2.058   0.704  1.3067 -1.9215  1.1642
 4670TIP3    H214017   2.524   2.048   0.562 -1.1862 -0.5420  0.0589
 4671TIP3   OH214018   5.461   0.289   2.419  0.0089 -0.6854 -0.4861
 4671TIP3    H114019   5.373   0.254   2.411  0.4576 -2.0863  0.2321
 4671TIP3    H214020   5.504   0.232   2.483  0.9291  0.9934  0.4655
 4672TIP3   OH214021   1.496   5.093   1.340 -0.4163  0.0275 -0.5079
 4672TIP3    H114022   1.573   5.067   1.390 -0.9505  0.6061  0.6537
 4672TIP3    H214023   1.490   5.187   1.352  0.2415  0.4420 -2.8668
 4673TIP3   OH214024   2.830   1.241   0.269  0.1983 -0.5506 -0.4187
 4673TIP3    H114025   2.808   1.312   0.330 -0.3570 -1.9777  1.0873
 4673TIP3    H214026   2.746   1.210   0.237  0.3697 -1.3180 -0.1373
 4674TIP3   OH214027   0.261   4.368   1.508 -0.4779 -0.3326 -0.2908
 4674TIP3    H114028   0.207   4.315   1.449  1.6357 -1.2505 -1.5425
 4674TIP3    H214029   0.268   4.315   1.588 -0.9338 -0.4654 -0.3328
 4675TIP3   OH214030   3.100   1.645   3.495 -0.0438 -0.2647 -0.9434
 4675TIP3    H114031   3.156   1.626   3.570 -2.7901 -0.9145  1.0731
 4675TIP3    H214032   3.161   1.668   3.425  2.6551  0.3338  1.4366
 4676TIP3   OH214033   0.390   5.632   4.001 -0.9000 -0.3277  0.3865
 4676TIP3    H114034   0.430   5.555   3.960  0.0252 -0.4520  1.4925
 4676TIP3    H214035   0.463   5.679   4.041 -1.5282  0.8451  0.1990
 4677TIP3   OH214036   4.414   3.941   1.347 -0.3455 -0.0303 -0.5469
 4677TIP3    H114037   4.484   3.883   1.317 -0.2297  1.1757 -2.7444
 4677TIP3    H214038   4.354   3.948   1.273 -1.6992  0.6680  0.5578
 4678TIP3   OH214039   1.710   0.534   4.801 -0.0077  0.5394 -0.2582
 4678TIP3    H114040   1.793   0.507   4.841  0.5669  1.7799 -0.5951
 4678TIP3    H214041   1.663   0.451   4.788  0.4302 -0.0520  1.5139
 4679TIP3   OH214042   1.124   1.487   3.451  0.0346  0.4618 -0.2033
 4679TIP3    H114043   1.147   1.475   3.359 -1.6115  0.9602 -0.7250
 4679TIP3    H214044   1.182   1.428   3.499  1.4757  0.7841 -1.4826
 4680TIP3   OH214045   4.900   2.945   4.486  0.1748  0.0866  0.1530
 4680TIP3    H114046   4.882   3.039   4.488 -1.4538 -0.1985  0.2745
 4680TIP3    H214047   4.941   2.930   4.401  1.0543  0.9830  0.3929
 4681TIP3   OH214048   2.625   1.625   1.206  0.5176  0.2015 -0.2963
 4681TIP3    H114049   2.645   1.717   1.192 -0.4527  0.5448  0.4874
 4681TIP3    H214050   2.668   1.580   1.133  2.4729  1.0734  0.2391
 4682TIP3   OH214051   3.208   5.271   1.716  0.2448 -0.1221  0.0718
 4682TIP3    H114052   3.282   5.228   1.759 -0.1091 -0.0465  0.7683
 4682TIP3    H214053   3.239   5.361   1.702  0.4408 -0.2035 -0.0280
 4683TIP3   OH214054   0.512   5.610   4.916  0.1254  0.2993  0.0978
 4683TIP3    H114055   0.517   5.521   4.882 -1.9903 -0.0141  0.4431
 4683TIP3    H214056   0.467   5.601   5.000  0.0991  1.6816  0.2616
 4684TIP3   OH214057   2.985   5.780   3.022 -0.0379 -0.9753  0.1481
 4684TIP3    H114058   2.909   5.836   3.039 -0.1181 -0.8614 -0.5531
 4684TIP3    H214059   3.029   5.772   3.106 -0.6691 -0.8018  0.4964
 4685TIP3   OH214060   1.988   5.653   1.328 -0.1754  0.2966  0.5600
 4685TIP3    H114061   2.074   5.626   1.297  0.4123  2.0015  0.6430
 4685TIP3    H214062   1.948   5.697   1.253 -1.0891 -0.6585  0.4539
 4686TIP3   OH214063   0.344   1.799   3.992 -0.8991  0.0369  0.2172
 4686TIP3    H114064   0.404   1.833   3.927 -2.2554  1.4825 -0.3296
 4686TIP3    H214065   0.381   1.827   4.076  0.2503 -0.8721  0.0488
 4687TIP3   OH214066   2.319   4.702  -0.004  0.2395 -0.4692  0.1560
 4687TIP3    H114067   2.365   4.653   0.063  0.3622 -0.4384  0.0952
 4687TIP3    H214068   2.296   4.785   0.038 -1.8723 -1.3800  0.9568
 4688TIP3   OH214069   3.314   1.920   4.556 -0.3470 -0.0167  0.4001
 4688TIP3    H114070   3.400   1.932   4.596 -0.8186  0.6072  1.2591
 4688TIP3    H214071   3.275   1.848   4.605 -1.2931  1.3558  1.7485
 4689TIP3   OH214072   2.690   5.258   4.150 -0.4799 -0.3110 -0.0462
 4689TIP3    H114073   2.688   5.197   4.077  1.1094  0.0193 -0.4125
 4689TIP3    H214074   2.729   5.208   4.222  1.2532  0.3447 -0.4786
 4690TIP3   OH214075   2.551   4.174   2.422 -0.0751 -0.0091  0.3936
 4690TIP3    H114076   2.532   4.081   2.437 -1.4918  0.3625  1.0432
 4690TIP3    H214077   2.488   4.202   2.355 -0.9155  0.9035  1.5247
 4691TIP3   OH214078   0.693   1.233   3.102 -0.1432 -0.1580  0.0753
 4691TIP3    H114079   0.786   1.249   3.116 -0.3651  0.4479  0.9187
 4691TIP3    H214080   0.677   1.147   3.141 -0.1713  0.2604  1.0094
 4692TIP3   OH214081   4.949   3.121   3.510 -0.1732  0.2147 -0.0130
 4692TIP3    H114082   4.892   3.079   3.446 -0.5257  1.3275 -0.4404
 4692TIP3    H214083   4.948   3.213   3.487  2.3586  0.1917 -0.4448
 4693TIP3   OH214084   3.813   5.524   1.663 -0.3849  0.2849  0.3824
 4693TIP3    H114085   3.882   5.583   1.693  1.1117 -0.6823 -0.9394
 4693TIP3    H214086   3.786   5.559   1.578  0.1567 -0.5973 -0.1768
 4694TIP3   OH214087   0.807   1.828   3.314 -1.0862  0.2517  0.6876
 4694TIP3    H114088   0.798   1.842   3.408  0.8422  0.7060  0.8378
 4694TIP3    H214089   0.846   1.741   3.306 -0.9879  0.3253  0.3200
 4695TIP3   OH214090   3.428   4.711   1.779  0.7817 -0.2849 -0.1521
 4695TIP3    H114091   3.411   4.786   1.836  0.5887 -0.3699 -0.0948
 4695TIP3    H214092   3.413   4.743   1.691  0.1379 -0.4030 -0.0922
 4696TIP3   OH214093   4.083   5.693   4.250  0.2396 -0.0374  0.5758
 4696TIP3    H114094   3.988   5.677   4.253 -0.1735  2.0762  0.1486
 4696TIP3    H214095   4.098   5.732   4.164  1.6027 -0.7604  0.4550
 4697TIP3   OH214096   5.343   4.049   5.195  0.1284 -0.1242  0.2458
 4697TIP3    H114097   5.331   4.130   5.146 -0.3311 -0.7015 -0.6205
 4697TIP3    H214098   5.260   4.003   5.186  1.7483 -2.9327 -3.4822
 4698TIP3   OH214099   0.095   0.489   4.309 -0.4578 -0.1582 -1.1548
 4698TIP3    H114100   0.102   0.585   4.306 -1.8296 -0.0224 -0.5574
 4698TIP3    H214101   0.182   0.458   4.283  0.7344  1.2685  0.8762
 4699TIP3   OH214102   3.553   1.498   1.367  0.2359  0.7299 -0.0648
 4699TIP3    H114103   3.570   1.404   1.362  0.6160  0.8056 -0.3444
 4699TIP3    H214104   3.460   1.505   1.388  0.2949  0.2914  0.3627
 4700TIP3   OH214105   6.157   3.694   0.206 -0.3336  0.5954  0.0376
 4700TIP3    H114106   6.088   3.718   0.143 -0.5016 -2.0429 -0.9206
 4700TIP3    H214107   6.223   3.762   0.196 -1.4706  1.5846 -1.1928
 4701TIP3   OH214108   3.820   1.139   4.545 -0.2588  0.2782  0.0630
 4701TIP3    H114109   3.889   1.189   4.588 -0.4388 -0.4084  1.1774
 4701TIP3    H214110   3.741   1.193   4.555 -0.2635  0.2033  0.4284
 4702TIP3   OH214111   1.670   2.951   4.567  0.6624  0.3597 -0.2631
 4702TIP3    H114112   1.727   2.886   4.607 -1.0229 -0.5568  0.7164
 4702TIP3    H214113   1.609   2.976   4.636 -0.3121  1.1129 -1.3641
 4703TIP3   OH214114   4.547   2.933   2.337 -0.0898  0.5880  0.0869
 4703TIP3    H114115   4.597   2.996   2.285 -0.7538  1.3260  0.3205
 4703TIP3    H214116   4.495   2.885   2.272  0.6030  0.1023 -0.1145
 4704TIP3   OH214117   5.797   1.500   5.059  0.1162 -0.0859  0.1372
 4704TIP3    H114118   5.885   1.497   5.096 -0.2524  0.4187  1.0862
 4704TIP3    H214119   5.805   1.557   4.982  0.6170 -0.0329  0.2291
 4705TIP3   OH214120   4.907   5.023   1.274  0.4489  0.2780  0.3368
 4705TIP3    H114121   4.994   4.986   1.283  1.1520  0.8203 -3.1215
 4705TIP3    H214122   4.908   5.101   1.330  2.0027  0.0426  0.6667
 4706TIP3   OH214123   3.989   4.281   2.117 -0.1674  0.2807 -0.1769
 4706TIP3    H114124   3.966   4.188   2.126 -1.6284  0.4356 -1.7647
 4706TIP3    H214125   3.984   4.316   2.205 -1.7423 -0.7038  0.1644
 4707TIP3   OH214126   5.479   4.203   0.336  0.1315 -0.2959  0.1762
 4707TIP3    H114127   5.443   4.114   0.344  0.8167 -0.8347 -2.1432
 4707TIP3    H214128   5.571   4.190   0.313  0.1499  1.0235 -0.5846
 4708TIP3   OH214129   0.722   5.062   3.985  0.2837  0.6363  0.3923
 4708TIP3    H114130   0.725   4.969   3.965  2.5803  0.8931 -0.7174
 4708TIP3    H214131   0.729   5.106   3.900 -1.4790  1.8746  0.8184
 4709TIP3   OH214132   4.661   0.644   2.556 -0.2303  0.4976  0.0956
 4709TIP3    H114133   4.739   0.700   2.563 -0.7369  1.2363 -0.1483
 4709TIP3    H214134   4.599   0.695   2.504 -0.6427 -0.3565 -0.2616
 4710TIP3   OH214135   0.995   0.614   4.656  0.2648 -0.6365  0.0301
 4710TIP3    H114136   0.952   0.532   4.632  0.8599 -0.6687 -0.9908
 4710TIP3    H214137   0.932   0.659   4.713 -0.0524 -1.8030  0.6279
 4711TIP3   OH214138   1.068   4.495   4.364 -0.1922 -0.1584 -0.2140
 4711TIP3    H114139   1.129   4.565   4.343  0.4471 -0.6151  0.0904
 4711TIP3    H214140   0.982   4.537   4.364  0.2534  0.7918  0.7206
 4712TIP3   OH214141   3.757   6.003   0.106 -0.1729  0.6236  0.6080
 4712TIP3    H114142   3.814   6.015   0.182  0.7927 -0.6682  0.1261
 4712TIP3    H214143   3.715   5.918   0.122 -1.2383  1.1046  0.4725
 4713TIP3   OH214144   5.060   3.925   2.637 -0.8147  0.4712  0.5414
 4713TIP3    H114145   5.149   3.936   2.671 -0.0873 -1.7188 -0.4532
 4713TIP3    H214146   5.012   4.001   2.670  1.3756  1.6483  1.2169
 4714TIP3   OH214147   5.714   3.020   2.423  0.3962 -0.1137  0.4340
 4714TIP3    H114148   5.747   2.949   2.477 -0.0090 -0.0926  0.7163
 4714TIP3    H214149   5.777   3.027   2.351 -1.0631 -2.6855 -1.2519
 4715TIP3   OH214150   1.047   1.753   0.428  0.0570  0.2183  0.1257
 4715TIP3    H114151   1.071   1.737   0.519 -1.7548  1.6247  0.9170
 4715TIP3    H214152   0.989   1.680   0.406  0.0718  0.1586  0.2797
 4716TIP3   OH214153   1.775   5.517   0.017 -0.1835 -0.4575  0.6340
 4716TIP3    H114154   1.807   5.466  -0.057 -0.5471  2.2254 -1.5463
 4716TIP3    H214155   1.839   5.502   0.086  0.1016 -3.1689 -0.1103
 4717TIP3   OH214156   0.280   2.059   4.417 -0.3057 -0.0314 -0.6208
 4717TIP3    H114157   0.188   2.066   4.389 -0.1682 -0.5423 -1.2399
 4717TIP3    H214158   0.276   2.052   4.512 -0.8308  1.2441 -0.5316
 4718TIP3   OH214159   1.201   2.458   1.769 -0.2537  0.2639  0.0605
 4718TIP3    H114160   1.236   2.428   1.685  0.6604 -0.0075  0.5166
 4718TIP3    H214161   1.226   2.389   1.830  0.5061  1.2020  0.8433
 4719TIP3   OH214162   0.742   1.725   2.531 -0.2231  0.0828  0.2050
 4719TIP3    H114163   0.817   1.685   2.577  0.3210 -0.5643 -1.2016
 4719TIP3    H214164   0.753   1.819   2.545  2.0590  0.1801 -1.6799
 4720TIP3   OH214165   4.517   4.734   1.701  0.2140 -0.6702 -0.0873
 4720TIP3    H114166   4.558   4.789   1.635 -0.7046  1.0238  0.7128
 4720TIP3    H214167   4.570   4.654   1.701  1.7625  0.3089 -1.0783
 4721TIP3   OH214168   3.813   2.420   2.112  0.3076 -0.2011 -0.0749
 4721TIP3    H114169   3.898   2.379   2.125 -0.3971 -1.3866  1.0170
 4721TIP3    H214170   3.757   2.349   2.079  0.0325  0.8520 -2.0359
 4722TIP3   OH214171   4.686   1.092   1.974  0.1213 -0.4388 -0.0835
 4722TIP3    H114172   4.642   1.075   2.058  0.8525  0.0400  0.4124
 4722TIP3    H214173   4.709   1.185   1.978  0.1004 -0.3918 -0.8572
 4723TIP3   OH214174   4.591   2.741   4.791  0.3100 -0.1379 -0.3718
 4723TIP3    H114175   4.667   2.800   4.790  0.9945 -0.9502  0.6361
 4723TIP3    H214176   4.616   2.672   4.852 -1.5191 -0.0732  0.5386
 4724TIP3   OH214177   3.530   2.118   4.591 -0.6841  0.5273 -0.4807
 4724TIP3    H114178   3.456   2.097   4.534  0.2487  0.5357 -1.7222
 4724TIP3    H214179   3.571   2.194   4.551  0.3731  0.1485 -0.1607
 4725TIP3   OH214180   5.262   4.158   4.877 -0.0847  0.2933 -0.2870
 4725TIP3    H114181   5.200   4.086   4.870  1.5954 -1.1362 -1.2825
 4725TIP3    H214182   5.336   4.121   4.926  1.0727  1.1318 -1.3569
 4726TIP3   OH214183   3.228   1.931   0.947 -0.0901  0.2316  0.1611
 4726TIP3    H114184   3.310   1.980   0.958 -0.4787  0.9529 -0.0967
 4726TIP3    H214185   3.160   1.991   0.978 -0.3520 -1.2027  2.6613
 4727TIP3   OH214186   4.659   4.800   0.913  0.3102 -0.1797  0.3942
 4727TIP3    H114187   4.705   4.798   0.997  0.2883  1.1298  0.4564
 4727TIP3    H214188   4.588   4.736   0.923  0.2324  0.0469  1.4168
 4728TIP3   OH214189   6.026   5.141   4.034 -0.3004  0.0046  0.2979
 4728TIP3    H114190   5.960   5.075   4.051  0.4070 -0.2067  2.4973
 4728TIP3    H214191   5.977   5.223   4.027 -0.9441 -0.4067 -0.0993
 4729TIP3   OH214192   5.507   1.268   1.901 -1.0199  0.5272 -0.1383
 4729TIP3    H114193   5.517   1.202   1.833 -0.0699 -0.1652  0.6476
 4729TIP3    H214194   5.471   1.220   1.976 -3.3541  1.5351 -0.5312
 4730TIP3   OH214195   1.605   0.269   2.147 -0.2785 -0.5910  0.3482
 4730TIP3    H114196   1.594   0.246   2.054  1.2186 -0.6990  0.1668
 4730TIP3    H214197   1.643   0.357   2.146  1.5039 -1.3012  0.7510
 4731TIP3   OH214198   1.941   2.592   4.799  0.6088 -0.0069  0.4851
 4731TIP3    H114199   1.939   2.516   4.856  0.5179  0.7679  1.5466
 4731TIP3    H214200   2.009   2.649   4.836  0.0670  0.8202  0.2484
 4732TIP3   OH214201   0.044   0.236   2.843  0.4639  0.0911  0.2225
 4732TIP3    H114202   0.120   0.185   2.871  0.7227 -0.1133 -0.7989
 4732TIP3    H214203   0.037   0.307   2.907  0.0331 -1.2566  1.7425
 4733TIP3   OH214204   0.342   2.823   4.664  0.6557 -0.3540  0.1196
 4733TIP3    H114205   0.426   2.801   4.704  0.6959  0.4576  0.5085
 4733TIP3    H214206   0.363   2.845   4.573  0.8373 -0.3441  0.1640
 4734TIP3   OH214207   2.875   0.307   4.075  0.1100 -0.0785  0.0422
 4734TIP3    H114208   2.828   0.238   4.028 -1.6528 -0.3855  2.1068
 4734TIP3    H214209   2.967   0.293   4.052 -0.3465 -2.1630 -0.7733
 4735TIP3   OH214210   2.552   3.622   3.683 -0.0941 -0.7605  0.1755
 4735TIP3    H114211   2.622   3.562   3.659  1.1348  0.7046 -0.1007
 4735TIP3    H214212   2.549   3.685   3.611  0.1996  0.7873  1.4610
 4736TIP3   OH214213   2.507   2.434   0.913 -0.3396  0.1251 -0.4030
 4736TIP3    H114214   2.441   2.376   0.876  1.3275 -1.4423 -1.0636
 4736TIP3    H214215   2.562   2.458   0.839  0.3594  0.6815  0.2792
 4737TIP3   OH214216   2.814   3.210   3.011 -0.0472 -0.1219 -0.7983
 4737TIP3    H114217   2.756   3.278   2.978 -1.1240 -0.1648  0.8541
 4737TIP3    H214218   2.803   3.137   2.950  0.3073  0.7866 -1.9794
 4738TIP3   OH214219   2.768   2.855   4.509 -0.5404 -0.0523  0.3843
 4738TIP3    H114220   2.736   2.804   4.434  0.7006 -0.4397  0.0875
 4738TIP3    H214221   2.743   2.945   4.490 -0.6678 -0.2193 -0.2550
 4739TIP3   OH214222   3.481   3.954   3.331  0.2347 -0.5729  0.1737
 4739TIP3    H114223   3.551   3.902   3.292  1.2449  1.3846 -0.7509
 4739TIP3    H214224   3.478   3.925   3.422  1.5885 -1.3890 -0.0125
 4740TIP3   OH214225   2.489   3.690   4.193 -0.2414  0.2161 -0.8258
 4740TIP3    H114226   2.517   3.676   4.102  0.6159 -3.1550 -0.1883
 4740TIP3    H214227   2.412   3.635   4.203 -0.3839  0.6249  0.4646
 4741TIP3   OH214228   3.951   0.243   2.764 -0.4727  0.1846 -0.1494
 4741TIP3    H114229   3.965   0.277   2.675 -3.2009  1.5391 -0.1499
 4741TIP3    H214230   3.998   0.304   2.821 -2.3285  1.9656 -0.4186
 4742TIP3   OH214231   0.578   4.834   0.253  0.3709 -0.7105 -0.2292
 4742TIP3    H114232   0.625   4.784   0.320  0.6260  1.7923  1.5886
 4742TIP3    H214233   0.631   4.913   0.241 -1.5893  0.5988 -0.6753
 4743TIP3   OH214234   3.706   2.223   4.216 -0.2702 -0.5025 -1.1230
 4743TIP3    H114235   3.780   2.217   4.276 -1.4608 -1.8272  0.3130
 4743TIP3    H214236   3.677   2.314   4.222  0.4991 -0.2788 -0.7686
 4744TIP3   OH214237   1.884   5.512   4.921  0.1307  0.2734 -0.2013
 4744TIP3    H114238   1.834   5.436   4.892  2.7732 -0.7027 -2.5928
 4744TIP3    H214239   1.872   5.577   4.852 -0.3444  1.2770  0.7834
 4745TIP3   OH214240   1.938   0.526   2.783 -0.6929  0.0804 -0.3505
 4745TIP3    H114241   1.943   0.508   2.877 -0.3528 -1.5546 -0.6550
 4745TIP3    H214242   1.990   0.605   2.771 -0.0266 -0.1778  0.7122
 4746TIP3   OH214243   5.555   4.891   2.565  0.3208 -0.8052  0.1887
 4746TIP3    H114244   5.494   4.897   2.640  0.8468 -0.9105  0.6325
 4746TIP3    H214245   5.624   4.833   2.596  0.3124 -1.2113 -0.5495
 4747TIP3   OH214246   0.253   3.687   4.971 -0.2060 -0.7121  0.7708
 4747TIP3    H114247   0.172   3.703   4.922 -0.1112 -0.4763  0.6934
 4747TIP3    H214248   0.263   3.592   4.968 -0.4332 -0.7365  0.7041
 4748TIP3   OH214249   0.973   2.138   0.928  0.0275  0.3123  0.2492
 4748TIP3    H114250   0.954   2.064   0.872  1.2845  1.4723 -1.8552
 4748TIP3    H214251   0.997   2.100   1.013  0.8740 -1.6892 -0.8397
 4749TIP3   OH214252   2.969   3.638   1.196 -0.2018  0.0560 -0.2743
 4749TIP3    H114253   2.950   3.730   1.178 -0.0311  0.1662  0.0922
 4749TIP3    H214254   2.941   3.625   1.287 -3.0050 -1.0168 -1.1828
 4750TIP3   OH214255   5.521   1.530   0.441 -0.6006 -0.4327  0.2327
 4750TIP3    H114256   5.583   1.565   0.505 -0.5953  0.2352 -0.1361
 4750TIP3    H214257   5.470   1.466   0.490 -0.0242 -0.5485  0.6922
 4751TIP3   OH214258   3.463   3.570   2.546  0.3866  0.3264  0.0905
 4751TIP3    H114259   3.506   3.506   2.603  0.3938  0.0762 -0.1904
 4751TIP3    H214260   3.377   3.532   2.527  0.9805 -0.3681 -1.3524
 4752TIP3   OH214261   3.068   5.460   3.325  0.7308 -0.0242 -0.1284
 4752TIP3    H114262   3.044   5.482   3.415 -0.6394  0.0141 -0.4880
 4752TIP3    H214263   3.141   5.518   3.305 -0.8223  2.0851 -0.0147
 4753TIP3   OH214264   4.204   3.872   3.863  0.0058  0.2444 -0.2116
 4753TIP3    H114265   4.161   3.881   3.778 -0.3605  2.2856  0.1464
 4753TIP3    H214266   4.136   3.837   3.921  0.2088 -0.9915 -0.6913
 4754TIP3   OH214267   1.558   4.389   3.767 -0.1742  0.9533  0.4371
 4754TIP3    H114268   1.557   4.346   3.852  0.3235 -1.6675 -0.7917
 4754TIP3    H214269   1.635   4.446   3.770  1.3679 -1.0478  0.9036
 4755TIP3   OH214270   6.085   0.056   0.298 -0.1164 -0.0242  0.4399
 4755TIP3    H114271   6.070  -0.004   0.371  0.5349 -0.2465  0.3933
 4755TIP3    H214272   6.152   0.116   0.330  0.8400 -0.6822 -0.2887
 4756TIP3   OH214273   3.956   0.876   0.544 -0.5189 -0.4096 -0.1438
 4756TIP3    H114274   3.920   0.842   0.626  0.0870  1.2647  0.8646
 4756TIP3    H214275   3.971   0.969   0.562 -0.5627  0.0319 -2.2392
 4757TIP3   OH214276   3.551   2.589   3.399 -0.2462 -0.5577  0.4427
 4757TIP3    H114277   3.556   2.607   3.493 -0.9998  0.8178  0.2269
 4757TIP3    H214278   3.565   2.674   3.357 -1.6474 -0.8448 -0.6556
 4758TIP3   OH214279   1.932   4.574   0.702  0.2376 -0.7917  0.8025
 4758TIP3    H114280   1.878   4.614   0.633 -1.1817 -1.5391  1.4263
 4758TIP3    H214281   1.947   4.645   0.764 -0.9544 -0.7956  1.1329
 4759TIP3   OH214282   2.606   5.902   4.221 -0.2233  0.0769 -0.3915
 4759TIP3    H114283   2.545   5.976   4.228  0.3411  0.5140  0.0793
 4759TIP3    H214284   2.564   5.831   4.268 -0.3854  0.3683 -0.0935
 4760TIP3   OH214285   0.474   4.192   0.290 -0.4406 -0.5821  0.6565
 4760TIP3    H114286   0.542   4.204   0.356 -0.8504 -1.1573  1.1898
 4760TIP3    H214287   0.412   4.131   0.329 -0.1682 -1.7495 -0.6598
 4761TIP3   OH214288   5.816   3.958   2.233  0.3847  0.6230  0.6205
 4761TIP3    H114289   5.796   3.958   2.327  0.0716 -0.5488  0.5689
 4761TIP3    H214290   5.739   3.918   2.192  0.8966  0.3007 -0.0474
 4762TIP3   OH214291   4.675   2.175   4.975 -0.1660 -0.2811  0.6428
 4762TIP3    H114292   4.671   2.170   5.071  0.0181 -1.5387  0.5927
 4762TIP3    H214293   4.588   2.150   4.946 -0.7769  1.8048  0.5043
 4763TIP3   OH214294   2.910   2.732   2.679  0.3492  0.3587  0.6987
 4763TIP3    H114295   2.849   2.694   2.743 -0.5627  0.4608 -0.0844
 4763TIP3    H214296   2.855   2.790   2.626  1.2191  0.7598  0.2257
 4764TIP3   OH214297   5.610   1.016   3.850 -0.0631  0.5051 -0.1081
 4764TIP3    H114298   5.693   0.978   3.879  0.7588  0.2727 -2.5241
 4764TIP3    H214299   5.611   1.006   3.755 -2.5959  1.0871 -0.2720
 4765TIP3   OH214300   5.681   0.449   2.011 -0.0538 -0.2503 -0.5297
 4765TIP3    H114301   5.605   0.503   2.029 -0.3862 -0.3398 -1.5633
 4765TIP3    H214302   5.645   0.369   1.972  0.4414 -1.1518  0.8099
 4766TIP3   OH214303   5.320   4.803   3.294  0.4294 -0.0827  0.4367
 4766TIP3    H114304   5.306   4.892   3.326  0.9807 -0.1873  1.0005
 4766TIP3    H214305   5.261   4.749   3.346  1.7393 -0.3278  1.7339
 4767TIP3   OH214306   2.524   2.631   1.102 -0.2168  0.0255 -0.1986
 4767TIP3    H114307   2.528   2.564   1.034  2.2965  0.9864 -1.1241
 4767TIP3    H214308   2.481   2.706   1.061  0.6662  0.3609 -0.5362
 4768TIP3   OH214309   2.549   0.529   2.620  0.0042 -0.3872 -0.1916
 4768TIP3    H114310   2.480   0.595   2.632  0.7483  0.3758 -0.0601
 4768TIP3    H214311   2.501   0.445   2.617 -0.8636  0.0445  0.7598
 4769TIP3   OH214312   5.017   2.921   2.301 -0.2100  0.1454 -0.7679
 4769TIP3    H114313   4.956   2.990   2.328  0.1334  0.7645 -1.5552
 4769TIP3    H214314   5.027   2.933   2.207  0.8381 -0.1766 -0.7080
 4770TIP3   OH214315   5.728   0.219   1.580 -0.2405  0.6567 -0.2717
 4770TIP3    H114316   5.708   0.268   1.500 -0.9166  0.1219 -0.4394
 4770TIP3    H214317   5.658   0.242   1.640 -1.1986 -0.8987 -0.7152
 4771TIP3   OH214318   3.153   1.906   1.494  0.0498 -0.5759 -0.0946
 4771TIP3    H114319   3.182   1.940   1.578 -1.4326 -0.2698  0.3085
 4771TIP3    H214320   3.225   1.926   1.434  0.8067 -0.1482  0.9314
 4772TIP3   OH214321   1.733   4.754   0.237  0.3823  0.3160 -0.1708
 4772TIP3    H114322   1.701   4.797   0.317  0.3820  2.6379 -1.3230
 4772TIP3    H214323   1.665   4.691   0.215 -1.0554  1.7042  0.1080
 4773TIP3   OH214324   2.149   3.701   3.746  0.2189  0.0532  0.1913
 4773TIP3    H114325   2.090   3.758   3.697 -0.5757 -0.2234  0.7902
 4773TIP3    H214326   2.226   3.755   3.763 -0.2128  0.7075  0.1153
 4774TIP3   OH214327   4.314   5.017   2.972 -0.0481  0.6089 -0.1052
 4774TIP3    H114328   4.389   5.068   2.942 -0.3328  0.7769 -0.5422
 4774TIP3    H214329   4.245   5.035   2.907  0.1627 -1.1367 -0.8613
 4775TIP3   OH214330   2.602   5.881   0.938  0.4582 -0.5685 -0.0000
 4775TIP3    H114331   2.551   5.847   0.865  0.3006 -2.1707  0.8222
 4775TIP3    H214332   2.643   5.804   0.977  0.6021  0.2603  1.5645
 4776TIP3   OH214333   3.546   2.810   0.435  0.6645 -0.2290  0.4136
 4776TIP3    H114334   3.618   2.779   0.379 -0.2873  1.7729 -2.1036
 4776TIP3    H214335   3.574   2.896   0.465 -0.1572  0.0363  0.4333
 4777TIP3   OH214336   0.676   3.947   4.729  0.1534  0.0935 -0.2503
 4777TIP3    H114337   0.661   3.873   4.670  0.7969  0.2128 -0.5646
 4777TIP3    H214338   0.765   3.934   4.761  0.1214  0.5171  0.0104
 4778TIP3   OH214339   4.674   5.333   2.564  0.0613  0.7122 -0.8791
 4778TIP3    H114340   4.708   5.260   2.511 -0.9648  0.0502 -0.6649
 4778TIP3    H214341   4.752   5.380   2.594  0.7536 -0.3733 -0.9237
 4779TIP3   OH214342   2.487   1.695   0.841  0.6034 -0.3608 -0.2049
 4779TIP3    H114343   2.464   1.771   0.896 -0.8866  0.0169 -1.2806
 4779TIP3    H214344   2.454   1.620   0.890  0.7093 -0.1806  0.1504
 4780TIP3   OH214345   5.874   5.456   2.385 -0.1003  0.3703  0.6469
 4780TIP3    H114346   5.784   5.487   2.400 -0.6532 -0.1871 -1.2215
 4780TIP3    H214347   5.909   5.518   2.320 -0.0267 -0.8501 -0.5170
 4781TIP3   OH214348   3.111   1.036   3.615  0.2098  0.1226  0.6991
 4781TIP3    H114349   3.106   0.944   3.590 -2.8163  0.7726 -1.7759
 4781TIP3    H214350   3.030   1.053   3.663  1.0383  1.3575  1.7318
 4782TIP3   OH214351   2.297   5.536   4.781 -0.6286  0.5543  0.5583
 4782TIP3    H114352   2.365   5.603   4.775  0.1614 -0.2127  0.7566
 4782TIP3    H214353   2.237   5.568   4.849 -1.0352  1.7146 -0.3140
 4783TIP3   OH214354   1.495   5.448   0.113 -0.1592  0.0255 -0.2222
 4783TIP3    H114355   1.451   5.530   0.093  0.1026  0.2750  0.2045
 4783TIP3    H214356   1.578   5.452   0.066 -0.9022 -0.7880 -1.6742
 4784TIP3   OH214357   4.414   1.350   4.020 -0.4156 -0.2801 -0.4774
 4784TIP3    H114358   4.383   1.263   3.995 -2.4718  0.5882 -1.2242
 4784TIP3    H214359   4.365   1.410   3.963  1.7844  1.3317 -0.7930
 4785TIP3   OH214360   4.639   1.128   0.753 -0.2988 -0.0617  0.3804
 4785TIP3    H114361   4.546   1.104   0.757 -0.2310 -0.4313 -0.1741
 4785TIP3    H214362   4.659   1.129   0.660  1.1494 -3.5812  0.4990
 4786TIP3   OH214363   6.224   0.276   4.296  0.2340  0.5548  0.0969
 4786TIP3    H114364   6.188   0.291   4.383  0.4391  0.0345  0.2744
 4786TIP3    H214365   6.313   0.312   4.300  0.9492 -1.1529  0.7091
 4787TIP3   OH214366   3.951   3.972   3.093  0.0848 -0.0140  0.0809
 4787TIP3    H114367   3.966   3.918   3.015 -2.6889 -1.5963  0.4802
 4787TIP3    H214368   3.967   4.062   3.064  1.9207 -0.7840 -1.4703
 4788TIP3   OH214369   0.267   1.105   1.100 -0.2919 -0.4628 -0.3504
 4788TIP3    H114370   0.345   1.136   1.053 -1.3620  0.1549 -1.7855
 4788TIP3    H214371   0.254   1.169   1.169  0.5716 -0.6795  0.0301
 4789TIP3   OH214372   5.589   2.217   0.139  0.0774 -0.2626  0.0558
 4789TIP3    H114373   5.536   2.243   0.214 -1.5568  0.7003 -1.3585
 4789TIP3    H214374   5.678   2.213   0.173 -0.5004  0.9474  1.8543
 4790TIP3   OH214375   4.006   4.241   3.031 -0.1187  0.0063  0.2530
 4790TIP3    H114376   3.943   4.304   2.997  0.5190  1.2300  1.2742
 4790TIP3    H214377   4.021   4.268   3.122  2.1671 -0.0054 -0.0665
 4791TIP3   OH214378   6.293   3.417   4.699  0.0106 -0.1768 -0.1460
 4791TIP3    H114379   6.378   3.375   4.686  0.2705  0.1147  0.5399
 4791TIP3    H214380   6.229   3.349   4.679  0.3629 -0.0283 -1.9604
 4792TIP3   OH214381   5.284   2.328   2.993  0.1652  0.5716  0.7815
 4792TIP3    H114382   5.325   2.368   3.070  0.9069  1.5091 -0.0865
 4792TIP3    H214383   5.336   2.250   2.976  0.0846  0.4359  1.1396
 4793TIP3   OH214384   0.727   5.330   0.772 -0.1919  0.5638 -0.0503
 4793TIP3    H114385   0.735   5.285   0.688  1.0048  0.8345 -0.1013
 4793TIP3    H214386   0.802   5.298   0.823  0.2289  1.8659  0.1928
 4794TIP3   OH214387   3.960   2.924   1.701  0.0910 -0.0263 -0.1707
 4794TIP3    H114388   3.891   2.881   1.651  0.8170 -1.6816  0.2055
 4794TIP3    H214389   3.979   2.864   1.773  0.4936  1.3688  0.9406
 4795TIP3   OH214390   3.222   4.971   3.482  0.5444  0.2743  0.3074
 4795TIP3    H114391   3.183   4.989   3.397  0.3948  3.0386  0.8631
 4795TIP3    H214392   3.281   4.897   3.466 -2.3212 -1.8894 -1.2663
 4796TIP3   OH214393   4.041   4.552   4.952 -0.9377  0.2005 -0.1423
 4796TIP3    H114394   4.034   4.522   5.043 -1.2273 -1.3632 -0.6420
 4796TIP3    H214395   4.117   4.506   4.918 -1.2182  0.2696 -0.8695
 4797TIP3   OH214396   0.015   1.729   1.328 -0.2151  0.2737 -0.6064
 4797TIP3    H114397   0.045   1.819   1.314  0.8163  0.2692  1.2193
 4797TIP3    H214398   0.095   1.676   1.325 -0.0833  0.0509  2.7623
 4798TIP3   OH214399   2.001   0.022   4.517 -0.3129 -0.3732  0.6734
 4798TIP3    H114400   2.031   0.012   4.607  0.1250 -0.9785  0.4690
 4798TIP3    H214401   1.911  -0.009   4.519  0.0871 -1.6411  0.6674
 4799TIP3   OH214402   3.447   1.199   0.472 -0.4026  0.1073  0.1140
 4799TIP3    H114403   3.523   1.160   0.430 -0.4539 -0.4015  0.4742
 4799TIP3    H214404   3.372   1.158   0.428 -0.4564 -0.7522  0.9690
 4800TIP3   OH214405   1.107   3.551   1.572 -0.4265  0.0857  0.5960
 4800TIP3    H114406   1.146   3.625   1.524  0.9331 -0.8615  0.2041
 4800TIP3    H214407   1.032   3.526   1.518  0.3382 -0.1451 -0.3854
 4801TIP3   OH214408   3.667   2.759   4.177  0.2888 -0.1778  0.4191
 4801TIP3    H114409   3.671   2.846   4.216 -0.9851  0.0869 -0.0100
 4801TIP3    H214410   3.754   2.746   4.139  0.5843  0.7783  0.7349
 4802TIP3   OH214411   6.105   1.493   4.319 -0.1371 -0.1490 -0.3445
 4802TIP3    H114412   6.150   1.416   4.285 -0.2143  0.2520 -1.3890
 4802TIP3    H214413   6.158   1.567   4.290 -0.3033  0.2162  0.2689
 4803TIP3   OH214414   4.267   3.150   3.485 -0.5901 -0.8809 -0.1887
 4803TIP3    H114415   4.345   3.200   3.506  0.4079 -1.9340 -1.2533
 4803TIP3    H214416   4.236   3.185   3.402  0.4859 -2.3715 -1.2739
 4804TIP3   OH214417   4.140   1.724   4.859 -0.0623  0.0793  0.0409
 4804TIP3    H114418   4.087   1.749   4.935  0.9500  1.0935  0.4279
 4804TIP3    H214419   4.167   1.634   4.879 -1.7687 -0.5411 -0.2589
 4805TIP3   OH214420   1.301   5.250   0.133  0.3511  0.0587 -0.0723
 4805TIP3    H114421   1.250   5.237   0.053 -0.0514 -0.4014  0.2585
 4805TIP3    H214422   1.359   5.324   0.112 -0.2142  0.3713 -0.5602
 4806TIP3   OH214423   2.980   4.545   3.451  0.3769  0.3319 -0.7010
 4806TIP3    H114424   2.995   4.520   3.542  0.8021 -2.1928 -1.3943
 4806TIP3    H214425   2.940   4.632   3.457 -0.8035 -0.2831  1.9527
 4807TIP3   OH214426   0.891   5.671   2.973 -0.1564 -0.6579 -0.0509
 4807TIP3    H114427   0.874   5.730   3.047  0.5641 -1.1272  0.5076
 4807TIP3    H214428   0.837   5.594   2.992  0.2866 -0.9174  0.1686
 4808TIP3   OH214429   4.698   0.074   4.899  0.5036 -0.1139 -0.5916
 4808TIP3    H114430   4.622   0.056   4.843  0.6007 -1.2223 -0.3924
 4808TIP3    H214431   4.700   0.000   4.960 -0.2176  1.5596  1.5872
 4809TIP3   OH214432   4.282   3.193   0.894 -0.2171  0.0187 -0.7351
 4809TIP3    H114433   4.204   3.236   0.859 -0.2554  1.7133  1.2409
 4809TIP3    H214434   4.266   3.099   0.882 -2.4743  0.3410 -0.5418
 4810TIP3   OH214435   4.803   5.328   1.851 -0.4964 -0.1427  0.2311
 4810TIP3    H114436   4.889   5.368   1.839 -0.2210 -0.8388 -0.2337
 4810TIP3    H214437   4.764   5.374   1.926  0.1332  0.4143  0.2213
 4811TIP3   OH214438   5.400   2.225   3.748 -0.2418  0.1610 -0.2237
 4811TIP3    H114439   5.460   2.293   3.719  0.3624 -0.5725 -0.7248
 4811TIP3    H214440   5.337   2.270   3.804  1.8062  0.6736  1.8231
 4812TIP3   OH214441   0.860   2.778   4.540 -0.3853 -0.0591 -0.0864
 4812TIP3    H114442   0.868   2.687   4.513 -2.1754 -0.2194 -0.1481
 4812TIP3    H214443   0.907   2.827   4.472  3.3251 -1.0267  1.4902
 4813TIP3   OH214444   2.074   3.218   2.577 -0.2464  0.4863 -0.3747
 4813TIP3    H114445   2.098   3.127   2.593 -1.1019  0.3913  0.4795
 4813TIP3    H214446   2.117   3.241   2.495  0.5584 -0.4649 -0.2253
 4814TIP3   OH214447   4.982   3.689   1.605  0.0539 -0.0599 -0.0183
 4814TIP3    H114448   4.972   3.732   1.690 -0.3389 -0.3812  0.1000
 4814TIP3    H214449   4.930   3.742   1.545  0.1753  0.0570 -0.0204
 4815TIP3   OH214450   0.127   3.282   1.734  0.2428  0.0842 -0.0242
 4815TIP3    H114451   0.136   3.375   1.713  0.5775  0.3271  1.1131
 4815TIP3    H214452   0.212   3.257   1.770  0.4981 -0.9423 -1.2512
 4816TIP3   OH214453   3.337   3.646   4.385 -0.7209  0.5809  0.1182
 4816TIP3    H114454   3.292   3.729   4.397  0.8459  1.2605  1.7290
 4816TIP3    H214455   3.344   3.610   4.474  1.5950  0.3933 -0.0817
 4817TIP3   OH214456   3.904   0.900   1.819 -0.4256 -0.4095  0.3647
 4817TIP3    H114457   3.858   0.983   1.804  1.3267  0.4915 -0.3468
 4817TIP3    H214458   3.997   0.923   1.815  0.1224 -2.5015 -0.3861
 4818TIP3   OH214459   0.758   4.731   2.448 -0.3793 -0.0614 -0.5825
 4818TIP3    H114460   0.799   4.692   2.371  0.1427 -2.1608  0.6913
 4818TIP3    H214461   0.735   4.657   2.504  0.5776  1.4409  1.9698
 4819TIP3   OH214462   5.139   3.955   0.581  0.1327 -0.6749 -0.2747
 4819TIP3    H114463   5.114   4.047   0.582 -1.2638 -1.0283 -0.0871
 4819TIP3    H214464   5.158   3.935   0.673  1.9154 -0.2186 -0.5198
 4820TIP3   OH214465   2.540   1.018   1.749 -0.2132  0.7875  0.0964
 4820TIP3    H114466   2.603   1.006   1.678  1.3698  0.9569  1.4241
 4820TIP3    H214467   2.467   0.960   1.726  0.5800  0.2950 -1.2944
 4821TIP3   OH214468   4.611   3.682   1.585  0.1488  0.6407  0.3304
 4821TIP3    H114469   4.632   3.666   1.677  1.9592  2.1950  0.2546
 4821TIP3    H214470   4.695   3.706   1.545 -0.7575  0.9335 -1.5172
 4822TIP3   OH214471   5.971   2.693   1.001  1.0047 -0.5526 -0.3802
 4822TIP3    H114472   5.900   2.678   1.062  0.0645  1.8002 -0.7666
 4822TIP3    H214473   5.929   2.691   0.915  1.6040 -0.2678 -0.6858
 4823TIP3   OH214474   5.877   3.308   4.420 -0.1709 -0.0281 -0.0109
 4823TIP3    H114475   5.890   3.343   4.508 -3.1379  0.7594  0.2349
 4823TIP3    H214476   5.805   3.361   4.384 -1.4890 -2.6650 -1.5269
 4824TIP3   OH214477   1.536   5.659   1.959  0.2858  0.0332 -0.4737
 4824TIP3    H114478   1.579   5.574   1.967  1.2885  0.6393  0.9807
 4824TIP3    H214479   1.467   5.658   2.025 -1.1489 -0.4445 -1.9292
 4825TIP3   OH214480   6.251   4.153   4.209  0.3171 -0.4510  0.2746
 4825TIP3    H114481   6.343   4.147   4.183 -0.0806 -1.9941 -0.9696
 4825TIP3    H214482   6.230   4.066   4.243 -0.4913  0.1101  1.2636
 4826TIP3   OH214483   4.583   0.622   3.698 -0.0140  0.0963 -0.0027
 4826TIP3    H114484   4.547   0.648   3.614  0.3719 -0.2789 -0.2890
 4826TIP3    H214485   4.625   0.701   3.732 -1.7235  0.7525  0.6861
 4827TIP3   OH214486   6.116   1.354   1.078 -0.4704 -0.1437 -0.1498
 4827TIP3    H114487   6.209   1.328   1.081 -0.5116 -0.2784  0.0236
 4827TIP3    H214488   6.114   1.441   1.118 -0.1877  0.5772 -1.6509
 4828TIP3   OH214489   4.237   5.029   0.393 -0.0031  0.2448  0.0208
 4828TIP3    H114490   4.320   5.008   0.436 -0.0832 -0.5047 -0.1757
 4828TIP3    H214491   4.262   5.080   0.316  0.2402  0.4205  0.2145
 4829TIP3   OH214492   5.736   2.733   1.361 -0.6335  0.1615  0.6359
 4829TIP3    H114493   5.791   2.797   1.406 -0.6611 -0.0470  0.9745
 4829TIP3    H214494   5.670   2.785   1.316  1.2707  0.5979 -1.8268
 4830TIP3   OH214495   3.513   5.853   1.021 -0.1528  0.2336  0.0948
 4830TIP3    H114496   3.597   5.891   1.047  0.6271 -2.4298  1.8854
 4830TIP3    H214497   3.452   5.880   1.091 -0.0022 -0.4245  0.4833
 4831TIP3   OH214498   4.702   2.047   2.318 -0.3128 -0.5940 -0.4398
 4831TIP3    H114499   4.788   2.087   2.303 -0.6384  0.3133  0.0147
 4831TIP3    H214500   4.641   2.121   2.315 -0.9901 -1.1260 -0.0244
 4832TIP3   OH214501   5.748   2.114   1.271  0.1969 -0.2210  0.4281
 4832TIP3    H114502   5.705   2.061   1.339  1.0878  0.0423  1.2085
 4832TIP3    H214503   5.699   2.196   1.271  0.4207 -0.0775  1.0306
 4833TIP3   OH214504   1.914   0.630   4.381  0.0111 -0.0663 -0.3331
 4833TIP3    H114505   1.882   0.554   4.332  0.8213 -0.5515 -0.1310
 4833TIP3    H214506   1.985   0.595   4.435 -0.0472  0.7096  0.2594
 4834TIP3   OH214507   0.838   0.240   2.355  0.5041 -0.5495  0.1323
 4834TIP3    H114508   0.830   0.145   2.361  1.1583 -0.5779  0.6440
 4834TIP3    H214509   0.765   0.274   2.407  0.4184 -0.7753  0.1574
 4835TIP3   OH214510   0.071   2.608   4.181 -0.1275  0.2356 -0.0154
 4835TIP3    H114511   0.123   2.688   4.168  0.9807 -0.6247 -1.0698
 4835TIP3    H214512   0.131   2.537   4.163 -1.2964 -0.8435  0.1994
 4836TIP3   OH214513   1.248   3.005   2.404 -0.2754  0.0650 -0.2380
 4836TIP3    H114514   1.184   2.962   2.461  0.7988 -1.9246 -0.4300
 4836TIP3    H214515   1.321   3.026   2.462 -0.0514 -0.0423 -0.4792
 4837TIP3   OH214516   2.584   5.681   4.966 -0.1784  0.0354  0.3152
 4837TIP3    H114517   2.559   5.591   4.987  2.1262 -0.7654 -0.0969
 4837TIP3    H214518   2.521   5.735   5.014 -1.1375 -1.7802  1.2102
 4838TIP3   OH214519   0.158   3.712   4.226  0.1095  0.3808  0.1824
 4838TIP3    H114520   0.149   3.721   4.321  1.8927  0.4770  0.3816
 4838TIP3    H214521   0.104   3.782   4.190  0.1690  0.9500  1.1733
 4839TIP3   OH214522   4.470   2.176   0.439  0.0512  0.2896 -0.5678
 4839TIP3    H114523   4.390   2.166   0.489 -0.6745  1.6433 -1.3838
 4839TIP3    H214524   4.520   2.243   0.486 -0.2149  0.8896 -1.1186
 4840TIP3   OH214525   2.881   1.462   1.966 -0.1891  0.3122  0.2435
 4840TIP3    H114526   2.868   1.502   1.881  1.2668  1.3581  0.4709
 4840TIP3    H214527   2.965   1.497   1.997  0.3444 -1.6406  1.1910
 4841TIP3   OH214528   0.930   2.134   2.281  0.3575 -0.1105 -0.2361
 4841TIP3    H114529   0.883   2.184   2.213 -1.3364 -0.0559  0.9088
 4841TIP3    H214530   0.860   2.099   2.337  1.6600 -1.2379  0.7385
 4842TIP3   OH214531   0.061   1.750   3.531 -0.4164 -0.2869 -0.0922
 4842TIP3    H114532   0.136   1.809   3.531  0.0332 -0.8508 -0.3438
 4842TIP3    H214533   0.023   1.760   3.619  1.0958 -1.4147  0.7374
 4843TIP3   OH214534   3.476   0.988   3.296  0.6146  0.2106 -0.0476
 4843TIP3    H114535   3.397   0.935   3.283  0.5480  0.6004 -1.3791
 4843TIP3    H214536   3.528   0.938   3.360 -0.3404 -0.4504  0.2395
 4844TIP3   OH214537   4.334   0.824   4.021 -0.0143 -0.0715 -0.4620
 4844TIP3    H114538   4.423   0.836   3.988  0.2830 -1.8611 -0.3736
 4844TIP3    H214539   4.341   0.840   4.115  0.3673 -0.9248 -0.3414
 4845TIP3   OH214540   3.277   1.624   4.773 -0.3159 -0.6012  0.5311
 4845TIP3    H114541   3.236   1.709   4.793  1.5627  0.5511 -0.2755
 4845TIP3    H214542   3.318   1.598   4.855  0.2079 -0.0641  0.4494
 4846TIP3   OH214543   3.203   4.536   0.033  0.2005  0.0854  0.4457
 4846TIP3    H114544   3.291   4.555   0.064  0.5575 -0.5702 -0.1204
 4846TIP3    H214545   3.202   4.441   0.019 -0.6408  0.0633  0.5793
 4847TIP3   OH214546   2.277   4.751   3.109 -0.0655  0.2612  0.0461
 4847TIP3    H114547   2.276   4.685   3.178 -1.8746 -1.7262 -1.7215
 4847TIP3    H214548   2.351   4.727   3.053 -1.6875 -1.4545 -1.5189
 4848TIP3   OH214549   3.492   1.040   0.098  0.8326 -0.1099  0.3989
 4848TIP3    H114550   3.404   1.022   0.064  2.0313  0.3882 -3.3701
 4848TIP3    H214551   3.513   0.962   0.150 -1.0495 -1.1830 -0.3215
 4849TIP3   OH214552   5.067   2.392   2.138 -0.1154  0.2445  0.4880
 4849TIP3    H114553   5.146   2.376   2.087  0.0417  0.4375  0.6690
 4849TIP3    H214554   5.037   2.478   2.110 -1.2484 -0.5320 -0.8637
 4850TIP3   OH214555   1.044   1.281   3.970  0.0554 -0.1847 -0.1663
 4850TIP3    H114556   1.058   1.285   3.876 -0.4862 -0.4024 -0.2620
 4850TIP3    H214557   1.127   1.250   4.006  0.6023  0.8851 -0.4694
 4851TIP3   OH214558   2.238   1.219   1.798 -0.1187  0.0305 -0.0688
 4851TIP3    H114559   2.236   1.127   1.823  1.0423  0.2604  0.9810
 4851TIP3    H214560   2.327   1.232   1.763  0.4827  1.1948  1.7621
 4852TIP3   OH214561   6.141   1.685   3.404  0.2161 -0.0606 -0.0678
 4852TIP3    H114562   6.206   1.737   3.451  0.7276 -0.1584 -0.6519
 4852TIP3    H214563   6.167   1.594   3.420  1.1625 -0.0845 -1.5620
 4853TIP3   OH214564   3.958   4.414   1.883 -0.5300 -0.0404  0.4968
 4853TIP3    H114565   3.958   4.364   1.964 -0.7990  0.3274  0.7288
 4853TIP3    H214566   3.894   4.483   1.898  0.4644  0.9081  0.5181
 4854TIP3   OH214567   2.631   0.500   3.827  0.2686 -0.9143  0.4322
 4854TIP3    H114568   2.674   0.418   3.802  1.4655  0.0310 -0.7871
 4854TIP3    H214569   2.591   0.532   3.746  1.9661  0.9159  0.2376
 4855TIP3   OH214570   4.509  -0.003   1.524  0.3086 -0.4539  0.2563
 4855TIP3    H114571   4.497   0.064   1.456 -0.2193 -0.5118  0.2853
 4855TIP3    H214572   4.480   0.040   1.604 -3.5260 -1.7449 -0.2018
 4856TIP3   OH214573   2.347   4.567   3.708 -0.8754  0.2664 -0.7701
 4856TIP3    H114574   2.302   4.512   3.645 -2.4838  1.0220 -0.3289
 4856TIP3    H214575   2.393   4.632   3.656  0.8867 -1.2955 -1.2889
 4857TIP3   OH214576   4.092   1.288   1.795  0.3116  0.4074 -0.2032
 4857TIP3    H114577   4.009   1.330   1.817 -0.3764 -0.8580 -0.3019
 4857TIP3    H214578   4.136   1.351   1.738 -1.5324  0.2467 -1.9458
 4858TIP3   OH214579   5.056   0.782   4.485 -0.7935  0.0098 -0.1999
 4858TIP3    H114580   4.983   0.798   4.544 -1.3384 -2.6733 -0.0295
 4858TIP3    H214581   5.115   0.725   4.534  1.2911  1.7758 -0.4844
 4859TIP3   OH214582   1.887   0.101   3.859  0.4875 -0.4140  0.4825
 4859TIP3    H114583   1.908   0.168   3.794 -1.1955 -0.6636 -0.3748
 4859TIP3    H214584   1.885   0.019   3.810 -0.6941 -0.6274  0.8516
 4860TIP3   OH214585   0.539   0.416   2.450 -0.4092 -0.1774  0.1616
 4860TIP3    H114586   0.491   0.333   2.444  2.9866 -2.4111  1.1288
 4860TIP3    H214587   0.518   0.449   2.537  0.0117 -1.2949  0.7056
 4861TIP3   OH214588   4.319   0.023   3.593 -0.3901 -0.1193  0.6165
 4861TIP3    H114589   4.413   0.013   3.579 -0.1530  4.0289 -2.8622
 4861TIP3    H214590   4.279  -0.026   3.521 -0.6910  0.5005  0.3533
 4862TIP3   OH214591   1.961   2.521   3.469 -0.4074 -0.0683  0.1935
 4862TIP3    H114592   1.888   2.583   3.461 -0.8005 -0.6038 -0.5394
 4862TIP3    H214593   2.032   2.572   3.508 -0.4658  1.0767 -1.1122
 4863TIP3   OH214594   1.925   3.033   0.066 -0.2162  0.0744  0.5182
 4863TIP3    H114595   1.901   2.953   0.020  1.0695  0.4228 -0.8135
 4863TIP3    H214596   1.842   3.064   0.104 -0.5624 -2.4102  2.0106
 4864TIP3   OH214597   1.559   4.561   0.134 -0.0333  0.1491  0.1249
 4864TIP3    H114598   1.463   4.559   0.129 -0.1766 -0.5584  2.1746
 4864TIP3    H214599   1.588   4.529   0.049 -1.6401 -0.5736 -0.1915
 4865TIP3   OH214600   2.444   4.277   2.989 -0.1085  0.0409  0.0264
 4865TIP3    H114601   2.392   4.197   2.995 -0.2922  0.2639  2.5744
 4865TIP3    H214602   2.521   4.253   2.936 -0.3878 -1.6746  0.3650
 4866TIP3   OH214603   2.076   0.165   4.089  0.4769 -0.2521 -0.4590
 4866TIP3    H114604   2.098   0.073   4.080  0.4541 -0.1753 -1.4874
 4866TIP3    H214605   1.991   0.174   4.045 -0.1224  0.0341  0.7217
 4867TIP3   OH214606   5.330   4.910   2.732  0.4142 -0.3036 -0.1050
 4867TIP3    H114607   5.275   4.988   2.743  1.1992  0.4972 -1.5811
 4867TIP3    H214608   5.324   4.865   2.816 -1.9891  0.0716 -0.0089
 4868TIP3   OH214609   0.308   4.865   2.418 -0.3543 -0.0604 -0.2906
 4868TIP3    H114610   0.350   4.780   2.435 -0.0031  0.1914  0.1234
 4868TIP3    H214611   0.217   4.851   2.445  0.0400  0.1247  1.2553
 4869TIP3   OH214612   1.356   1.743   2.383  0.5352  0.1199  0.1491
 4869TIP3    H114613   1.296   1.736   2.309  0.8648  0.2811 -0.1318
 4869TIP3    H214614   1.380   1.835   2.386  0.4025  0.1430  0.5522
 4870TIP3   OH214615   2.341   2.271   3.616  0.2643 -0.4812  0.6278
 4870TIP3    H114616   2.388   2.246   3.696 -0.9999  0.6645  1.7863
 4870TIP3    H214617   2.249   2.252   3.636 -0.1414  0.4436 -0.3174
 4871TIP3   OH214618   2.422   1.450   4.235 -0.3726  0.0699 -0.0798
 4871TIP3    H114619   2.434   1.419   4.146 -0.0385  0.2399 -0.0945
 4871TIP3    H214620   2.405   1.544   4.226  1.5622  0.4847  0.1395
 4872TIP3   OH214621   1.981   0.169   3.531  0.5233  0.3027 -0.7859
 4872TIP3    H114622   2.026   0.241   3.575 -0.2783  0.1952  0.2430
 4872TIP3    H214623   1.925   0.213   3.466  0.6460  0.5458 -0.7315
 4873TIP3   OH214624   2.451   4.032   1.737  0.4251 -0.0286 -0.6081
 4873TIP3    H114625   2.542   4.033   1.708  0.4734  0.7143 -0.4692
 4873TIP3    H214626   2.425   4.124   1.735 -0.1496 -0.1740 -0.1197
 4874TIP3   OH214627   1.838  -0.019   1.914  0.0866 -0.2113 -0.0956
 4874TIP3    H114628   1.877   0.067   1.902 -0.4250  0.1867  0.8835
 4874TIP3    H214629   1.829  -0.027   2.009  0.4281 -1.4872 -0.1609
 4875TIP3   OH214630   5.277   5.908   2.561 -0.4756  0.3062  0.0267
 4875TIP3    H114631   5.298   5.944   2.475  0.4016 -0.0191  0.1020
 4875TIP3    H214632   5.356   5.921   2.613 -0.7225 -0.2129  0.5463
 4876TIP3   OH214633   4.796   3.640   1.111  0.1009  0.4756  0.0731
 4876TIP3    H114634   4.858   3.606   1.175  0.2399  0.2952 -0.1568
 4876TIP3    H214635   4.837   3.720   1.078 -1.3464  2.3654  2.4720
 4877TIP3   OH214636   3.874   4.520   0.771 -0.6868 -0.2781  0.1424
 4877TIP3    H114637   3.859   4.433   0.808 -1.5052  0.1046  0.7459
 4877TIP3    H214638   3.861   4.507   0.677  0.0447 -0.9742  0.1245
 4878TIP3   OH214639   3.847   1.119   0.587 -0.0428 -0.0207 -0.1190
 4878TIP3    H114640   3.784   1.075   0.644  0.7519  0.3666  1.1113
 4878TIP3    H214641   3.798   1.137   0.507 -0.9904 -1.2312  0.1538
 4879TIP3   OH214642   3.958   2.436   5.095 -0.2352 -0.0826 -0.1613
 4879TIP3    H114643   4.039   2.487   5.096 -1.6739  2.3453  0.0844
 4879TIP3    H214644   3.959   2.388   5.178  0.4599  0.7387  0.3225
 4880TIP3   OH214645   0.293   3.680   1.462  0.0442  0.0006  0.5669
 4880TIP3    H114646   0.242   3.632   1.528  0.9125 -2.6546 -0.5706
 4880TIP3    H214647   0.294   3.623   1.386  1.5558  1.6703 -0.7520
 4881TIP3   OH214648   6.008   2.705   4.360  0.4212 -0.1940  0.1152
 4881TIP3    H114649   5.969   2.620   4.381 -2.3217  0.5212 -1.5468
 4881TIP3    H214650   6.057   2.689   4.279 -1.9615  0.1385 -1.4970
 4882TIP3   OH214651   5.459   1.704   2.108  0.1413  0.2637  0.4592
 4882TIP3    H114652   5.486   1.612   2.110 -1.5091 -0.2628 -0.0318
 4882TIP3    H214653   5.507   1.741   2.034 -2.4577 -1.3638 -2.2379
 4883TIP3   OH214654   1.714   2.010   3.414  0.0687  0.0733  0.0884
 4883TIP3    H114655   1.719   2.084   3.474  1.9771 -1.2934  1.7366
 4883TIP3    H214656   1.621   1.984   3.415 -0.6884  2.4926 -0.7219
 4884TIP3   OH214657   2.878   0.749   0.193 -0.3587 -0.3004 -0.7817
 4884TIP3    H114658   2.816   0.809   0.152 -0.0681  2.5407  2.4912
 4884TIP3    H214659   2.826   0.670   0.211 -1.2105 -0.5196 -3.6645
 4885TIP3   OH214660   0.548   3.367   3.993  0.3521 -0.5841 -0.3038
 4885TIP3    H114661   0.607   3.299   4.027 -1.9218 -1.8480  1.3861
 4885TIP3    H214662   0.515   3.332   3.911  0.1652 -0.9810 -0.0669
 4886TIP3   OH214663   1.133   4.788   1.865  0.2964  0.1301  0.2632
 4886TIP3    H114664   1.169   4.803   1.953 -0.1919 -0.1038  0.5065
 4886TIP3    H214665   1.047   4.829   1.867 -0.9876 -2.3533  0.8737
 4887TIP3   OH214666   0.662   4.899   2.120  0.0973 -0.8008 -0.9234
 4887TIP3    H114667   0.575   4.860   2.125  0.1900 -0.8857  0.9833
 4887TIP3    H214668   0.720   4.827   2.097  0.1108 -1.6699  1.4871
 4888TIP3   OH214669   1.797   4.052   3.480  0.3990  0.0704  0.2334
 4888TIP3    H114670   1.759   3.993   3.546  3.1514  0.5488  2.4454
 4888TIP3    H214671   1.820   4.131   3.530  1.1013  1.1246 -1.6749
 4889TIP3   OH214672   4.808   4.414   3.494 -0.1163 -0.6747  0.4532
 4889TIP3    H114673   4.895   4.376   3.483  0.0304  0.0641 -1.3296
 4889TIP3    H214674   4.758   4.347   3.541  0.6024 -2.3554 -1.0688
 4890TIP3   OH214675   5.999   3.939   0.316  0.3462  0.2224 -0.0596
 4890TIP3    H114676   6.017   3.853   0.353  1.4031  0.3908 -0.1348
 4890TIP3    H214677   6.086   3.974   0.294  0.0187  1.7183  0.8870
 4891TIP3   OH214678   4.360   2.705   4.205  0.4979 -0.4867 -0.1892
 4891TIP3    H114679   4.273   2.664   4.199  0.8678 -1.1864 -1.2236
 4891TIP3    H214680   4.346   2.795   4.176  0.2127 -0.7660 -0.9512
 4892TIP3   OH214681   1.372   2.121   3.007 -0.8318 -0.4164  0.1066
 4892TIP3    H114682   1.282   2.107   2.976 -0.5294 -0.2474 -0.8650
 4892TIP3    H214683   1.362   2.183   3.079 -1.3532  0.9625 -1.0936
 4893TIP3   OH214684   4.802   4.964   3.199 -0.1945  0.0646 -0.0960
 4893TIP3    H114685   4.752   5.046   3.195 -0.7563 -0.2920 -0.4564
 4893TIP3    H214686   4.748   4.905   3.251 -0.5059 -0.5575 -1.0890
 4894TIP3   OH214687   6.224   1.263   1.918  0.0081 -0.6095  0.1177
 4894TIP3    H114688   6.237   1.321   1.993  1.6107 -0.6757 -0.0730
 4894TIP3    H214689   6.139   1.222   1.934 -0.9352  1.3861  0.5134
 4895TIP3   OH214690   1.328   1.504   1.317  0.4840 -0.2691  0.1698
 4895TIP3    H114691   1.412   1.527   1.356 -0.0496  0.2853  1.0216
 4895TIP3    H214692   1.263   1.554   1.367 -0.2987 -0.1956 -0.8797
 4896TIP3   OH214693   1.056   0.393   2.400 -0.6727  0.1300 -0.1581
 4896TIP3    H114694   1.000   0.320   2.372 -0.0396  0.5004 -2.7061
 4896TIP3    H214695   1.012   0.471   2.364  0.1204  0.6854  0.0563
 4897TIP3   OH214696   6.081   2.778   2.164  0.2590  0.1926  0.1767
 4897TIP3    H114697   6.006   2.732   2.127  1.1128 -0.4215 -0.8602
 4897TIP3    H214698   6.122   2.822   2.089  0.3296  1.3966  0.9004
 4898TIP3   OH214699   1.106   0.590   1.141 -0.2737 -0.4275  0.4737
 4898TIP3    H114700   1.115   0.495   1.132 -0.4521 -0.3931 -0.0875
 4898TIP3    H214701   1.018   0.609   1.109 -0.6099 -0.1862  1.5014
 4899TIP3   OH214702   1.811   1.563   4.162 -0.0827  0.7178 -0.3955
 4899TIP3    H114703   1.758   1.605   4.229  0.3224 -1.8729  1.7331
 4899TIP3    H214704   1.896   1.606   4.168  0.1603  0.0696  1.3216
 4900TIP3   OH214705   1.252   2.897   1.418 -0.1585  0.5944 -0.1767
 4900TIP3    H114706   1.326   2.853   1.378 -0.6077 -0.4618  0.1159
 4900TIP3    H214707   1.260   2.988   1.390  0.8892  0.3689 -0.6528
 4901TIP3   OH214708   2.092   5.576   0.477 -0.2608  0.3620  0.4210
 4901TIP3    H114709   2.154   5.649   0.473 -0.9872  1.0111  0.7167
 4901TIP3    H214710   2.043   5.583   0.395  0.6672 -0.7147 -0.2422
 4902TIP3   OH214711   1.100   5.201   4.520  0.5991  0.1980 -0.0567
 4902TIP3    H114712   1.146   5.134   4.571 -0.4068  1.0088  2.0756
 4902TIP3    H214713   1.086   5.161   4.434  2.6330 -1.1566  0.1754
 4903TIP3   OH214714   1.443   5.336   3.572 -0.1334  0.1358 -0.6315
 4903TIP3    H114715   1.428   5.264   3.632 -1.7004  0.5415 -0.4825
 4903TIP3    H214716   1.521   5.380   3.605 -0.7543  0.1328  0.8968
 4904TIP3   OH214717   3.850   0.799   2.272  0.2231 -0.3639  0.0813
 4904TIP3    H114718   3.841   0.704   2.267  0.2834 -0.3610 -0.0740
 4904TIP3    H214719   3.910   0.822   2.201 -1.0211 -0.0277 -0.8964
 4905TIP3   OH214720   0.881   1.626   2.954  0.0385  0.5589 -0.3351
 4905TIP3    H114721   0.906   1.559   2.890  1.9586  0.3067  0.5937
 4905TIP3    H214722   0.805   1.669   2.915 -0.8324 -1.6590 -1.2981
 4906TIP3   OH214723   6.176   4.648   4.242 -0.2803  0.8323 -0.3616
 4906TIP3    H114724   6.187   4.602   4.158  3.1817  0.6494  0.0870
 4906TIP3    H214725   6.163   4.578   4.306 -0.5979  0.8442 -0.4095
 4907TIP3   OH214726   1.452   4.864   0.638  0.2112 -0.3611  0.3841
 4907TIP3    H114727   1.448   4.861   0.734  0.5312  1.5848  0.5106
 4907TIP3    H214728   1.413   4.782   0.609 -5.6849  1.3240  2.0984
 4908TIP3   OH214729   1.250   4.757   3.536 -0.7854 -0.2197 -0.0087
 4908TIP3    H114730   1.300   4.721   3.463  0.6618  0.7206  0.4884
 4908TIP3    H214731   1.243   4.684   3.598  1.8906  0.1757  0.8706
 4909TIP3   OH214732   5.079   5.249   4.252 -0.9199  0.0082  0.4658
 4909TIP3    H114733   5.093   5.165   4.209 -0.9389 -0.2414  0.9423
 4909TIP3    H214734   5.102   5.234   4.343 -1.7994  0.2777  0.7440
 4910TIP3   OH214735   5.514   3.929   0.124  0.3721 -0.4456  0.0887
 4910TIP3    H114736   5.519   3.946   0.030  0.9621 -0.9716  0.0218
 4910TIP3    H214737   5.429   3.965   0.150  0.6539  0.6435 -0.4443
 4911TIP3   OH214738   0.070   2.158   2.063  0.7835  0.1001  0.5841
 4911TIP3    H114739   0.006   2.100   2.023  0.1057  0.4471  1.1454
 4911TIP3    H214740   0.067   2.238   2.011  2.3931 -0.6691 -0.7707
 4912TIP3   OH214741   2.092   4.155   3.008 -0.3602 -0.6438  0.5168
 4912TIP3    H114742   2.145   4.231   3.033 -0.4266 -0.5755  0.4486
 4912TIP3    H214743   2.154   4.082   3.006 -0.2217 -0.5193  0.2037
 4913TIP3   OH214744   2.394   4.810   1.541  0.0614 -0.8541  1.2227
 4913TIP3    H114745   2.300   4.808   1.525  0.1506  1.8679 -0.2760
 4913TIP3    H214746   2.406   4.880   1.605  1.2232  1.3353 -1.1873
 4914TIP3   OH214747   1.721   0.482   1.491  0.1887  0.1133  1.1640
 4914TIP3    H114748   1.774   0.458   1.415 -0.3468 -0.9874  1.1198
 4914TIP3    H214749   1.783   0.516   1.555  0.7200  0.4517  0.4802
 4915TIP3   OH214750   5.555   5.242   3.124 -0.5064 -0.3056  0.2200
 4915TIP3    H114751   5.484   5.299   3.154  0.3583  0.7681  0.3072
 4915TIP3    H214752   5.553   5.168   3.185 -1.1380  0.0275  0.6259
 4916TIP3   OH214753   2.351   3.560   2.335  0.0951 -0.1018 -0.0585
 4916TIP3    H114754   2.368   3.595   2.422  0.3097  0.9285 -0.4956
 4916TIP3    H214755   2.404   3.614   2.276  0.7577 -1.4341 -0.7432
 4917TIP3   OH214756   5.793   4.718   2.377 -0.5614  0.0699 -0.2257
 4917TIP3    H114757   5.723   4.737   2.315 -0.6553 -1.9614 -0.8193
 4917TIP3    H214758   5.760   4.643   2.427 -0.9637  2.2622  3.0874
 4918TIP3   OH214759   3.788   1.540   1.517 -0.3579  0.1474 -0.0274
 4918TIP3    H114760   3.852   1.471   1.499 -1.3197 -0.4604 -1.3099
 4918TIP3    H214761   3.715   1.521   1.458 -1.2161  1.5094  0.5387
 4919TIP3   OH214762   3.012   5.954   4.113 -0.0374  0.2262  0.6508
 4919TIP3    H114763   2.963   5.872   4.118 -0.9415  0.7574  0.7512
 4919TIP3    H214764   2.979   6.007   4.185  0.7567  0.5739  0.7749
 4920TIP3   OH214765   1.745   1.576   4.768 -0.1413 -0.2455  0.5864
 4920TIP3    H114766   1.757   1.488   4.803  0.5400 -0.2360  0.3805
 4920TIP3    H214767   1.793   1.633   4.829  2.9384 -0.4255 -1.4268
 4921TIP3   OH214768   1.731   3.658   4.924  0.5392  0.3119  0.2094
 4921TIP3    H114769   1.735   3.750   4.898 -0.8592  0.5143  0.6400
 4921TIP3    H214770   1.654   3.652   4.981  0.2698 -1.2270 -0.2578
 4922TIP3   OH214771   2.895   1.579   1.650 -0.1121 -0.2114 -0.5222
 4922TIP3    H114772   2.970   1.528   1.620 -0.3433 -0.4045 -0.7735
 4922TIP3    H214773   2.849   1.604   1.570 -0.0054  0.3882 -0.4013
 4923TIP3   OH214774   4.659   1.609   2.033  0.5425 -0.3648 -0.3772
 4923TIP3    H114775   4.685   1.645   1.949  0.3046 -0.4578 -0.4924
 4923TIP3    H214776   4.635   1.685   2.086 -2.3434 -0.4356 -1.4121
 4924TIP3   OH214777   1.577   4.437   4.842 -0.0318 -0.1417  0.2271
 4924TIP3    H114778   1.578   4.466   4.751 -2.3204 -0.4695  0.0228
 4924TIP3    H214779   1.653   4.380   4.850 -0.0569 -0.5119 -1.6480
 4925TIP3   OH214780   2.603   3.889   0.698 -0.5428  0.3146 -0.0316
 4925TIP3    H114781   2.600   3.928   0.611 -0.0812 -0.9674 -0.6537
 4925TIP3    H214782   2.611   3.963   0.758  0.3229  1.1587 -1.1497
 4926TIP3   OH214783   2.750   3.525   4.248 -0.3886 -0.1194 -0.5886
 4926TIP3    H114784   2.718   3.463   4.182 -2.0136 -2.0005  1.8111
 4926TIP3    H214785   2.700   3.605   4.232 -0.5483 -0.4302 -1.7694
 4927TIP3   OH214786   3.954   0.975   4.813  0.1402 -0.0263 -0.5784
 4927TIP3    H114787   4.036   1.024   4.805 -0.5251  1.2109 -0.2135
 4927TIP3    H214788   3.979   0.891   4.849  1.2338  0.3935 -0.3204
 4928TIP3   OH214789   5.094   4.110   4.542 -0.3477 -0.2436 -0.0081
 4928TIP3    H114790   5.161   4.120   4.474 -0.4340  0.3871 -0.0085
 4928TIP3    H214791   5.130   4.045   4.602 -0.0393 -0.4146 -0.3788
 4929TIP3   OH214792   6.193   2.526   1.766  0.4741 -0.4680 -0.3282
 4929TIP3    H114793   6.111   2.485   1.736  1.3482 -0.2995 -3.3169
 4929TIP3    H214794   6.257   2.455   1.765  0.7966 -0.1800 -0.0581
 4930TIP3   OH214795   2.322   0.683   2.749  0.5331 -0.2105 -0.3631
 4930TIP3    H114796   2.363   0.770   2.750  0.2697 -0.0484 -1.4505
 4930TIP3    H214797   2.229   0.701   2.733  0.0917 -0.6049  1.5039
 4931TIP3   OH214798   0.948   2.083   3.777 -0.0243  0.4273  0.2886
 4931TIP3    H114799   0.989   2.142   3.840  1.9383  1.2295 -1.6071
 4931TIP3    H214800   0.888   2.139   3.728  0.6893  0.5210 -0.4952
 4932TIP3   OH214801   1.895   4.446   1.192  0.3752 -0.2413 -0.2104
 4932TIP3    H114802   1.851   4.425   1.275  1.7432  2.2617  1.2718
 4932TIP3    H214803   1.827   4.437   1.126 -1.7211  0.9929  1.6483
 4933TIP3   OH214804   2.030   0.249   1.167  0.1429 -0.0130  0.5306
 4933TIP3    H114805   2.004   0.329   1.213  1.8573  1.4891 -0.9368
 4933TIP3    H214806   1.991   0.258   1.080 -0.3135 -1.2087  0.5891
 4934TIP3   OH214807   0.152   2.779   3.401 -0.0574  0.4240  0.3381
 4934TIP3    H114808   0.119   2.716   3.337  1.2855  0.2488 -0.2169
 4934TIP3    H214809   0.202   2.727   3.464  1.7055  0.9705 -0.5525
 4935TIP3   OH214810   0.530   3.584   3.531  0.2407 -0.4805  0.0084
 4935TIP3    H114811   0.595   3.654   3.536 -2.4537  2.2807 -0.4168
 4935TIP3    H214812   0.527   3.561   3.438  1.0161 -1.0772  0.1236
 4936TIP3   OH214813   5.468   3.666   1.974 -0.2165 -0.2068  0.7545
 4936TIP3    H114814   5.549   3.661   1.923 -1.1410  1.0932 -0.9558
 4936TIP3    H214815   5.452   3.576   2.003  2.2601 -0.3644  1.9234
 4937TIP3   OH214816   5.005   3.812   3.795  0.2739  0.8963  0.4315
 4937TIP3    H114817   4.993   3.907   3.788 -1.3294  0.6862 -0.1284
 4937TIP3    H214818   4.944   3.775   3.731  1.2047 -0.5116  0.3081
 4938TIP3   OH214819   0.848   1.858   2.078  0.1416 -0.0659  0.3080
 4938TIP3    H114820   0.852   1.794   2.008 -2.5140  0.0668 -0.0550
 4938TIP3    H214821   0.833   1.942   2.033  1.5195  0.5222  0.8922
 4939TIP3   OH214822   5.868   3.325   1.913  0.6527 -0.1009 -0.2487
 4939TIP3    H114823   5.891   3.232   1.913 -0.6935 -0.4568  0.4141
 4939TIP3    H214824   5.917   3.361   1.987  1.1990 -0.2607 -0.5219
 4940TIP3   OH214825   1.606   3.694   0.944 -1.1649  0.2699 -0.1377
 4940TIP3    H114826   1.576   3.737   1.024 -1.3340  1.3699 -0.7819
 4940TIP3    H214827   1.593   3.600   0.961  1.2247  0.2644  2.1063
 4941TIP3   OH214828   1.501   0.926   4.564 -0.1320  0.1891  0.1030
 4941TIP3    H114829   1.575   0.867   4.565 -0.3419 -0.0677  0.9104
 4941TIP3    H214830   1.529   0.999   4.508  0.8066  0.2034  0.5764
 4942TIP3   OH214831   0.680   4.236   4.615 -0.0733 -0.4563 -0.2215
 4942TIP3    H114832   0.650   4.167   4.674  0.6565 -1.2794 -0.7796
 4942TIP3    H214833   0.765   4.205   4.584 -0.4732 -0.0851 -1.7623
 4943TIP3   OH214834   0.117   0.589   4.568  0.3123  0.6565  0.0975
 4943TIP3    H114835   0.096   0.526   4.500 -1.7753  0.8383  0.5076
 4943TIP3    H214836   0.083   0.673   4.535  1.4692  1.2344  0.3188
 4944TIP3   OH214837   4.081   0.713   2.503  0.1182  0.4555 -0.0045
 4944TIP3    H114838   4.018   0.774   2.542  0.5031  0.5799  0.4346
 4944TIP3    H214839   4.054   0.706   2.412 -0.7365  0.2410  0.2537
 4945TIP3   OH214840   3.575   2.280   0.301 -0.2702  0.1170 -0.2389
 4945TIP3    H114841   3.492   2.235   0.314  0.0553 -0.2894  0.5204
 4945TIP3    H214842   3.613   2.287   0.389 -0.0807  1.4373 -0.4051
 4946TIP3   OH214843   1.313   3.624   2.447 -0.1000  0.1640  0.2804
 4946TIP3    H114844   1.232   3.583   2.478 -0.2907 -0.2947 -0.7651
 4946TIP3    H214845   1.383   3.567   2.479 -0.2348  0.2106  0.6550
 4947TIP3   OH214846   4.694   3.854   1.841 -0.2364  0.1750 -0.0095
 4947TIP3    H114847   4.645   3.856   1.923 -0.3227 -2.6209  0.0869
 4947TIP3    H214848   4.759   3.785   1.853  1.7057  1.6735 -1.2867
 4948TIP3   OH214849   3.829   4.974   0.947 -0.1772  0.0985 -0.2330
 4948TIP3    H114850   3.761   5.028   0.988  0.6153 -0.1439  1.4778
 4948TIP3    H214851   3.805   4.884   0.970  2.1983  0.0904  3.0633
 4949TIP3   OH214852   0.571   3.600   0.981  1.0820  0.1888  0.0864
 4949TIP3    H114853   0.488   3.558   1.003  0.7955 -0.0080 -1.2877
 4949TIP3    H214854   0.622   3.596   1.062 -0.6871  1.4354  1.3432
 4950TIP3   OH214855   0.896   0.743   3.004  0.0319 -0.2197 -0.4028
 4950TIP3    H114856   0.935   0.830   3.006  0.3243 -0.3698  0.7939
 4950TIP3    H214857   0.824   0.750   2.940  0.7782  0.5677 -1.1820
 4951TIP3   OH214858   4.516   4.173   2.585  0.3495 -0.0394  0.4229
 4951TIP3    H114859   4.443   4.212   2.536  0.4488  0.1290  0.4088
 4951TIP3    H214860   4.551   4.105   2.527  0.9428  0.6571 -0.0507
 4952TIP3   OH214861   6.072   0.750   1.510  0.2539  0.1976 -0.4471
 4952TIP3    H114862   6.113   0.821   1.461 -1.7391  2.0526  0.3670
 4952TIP3    H214863   6.007   0.713   1.450 -0.9311  1.2705  0.1135
 4953TIP3   OH214864   5.138   2.400   4.507  0.3189 -0.3477  0.5669
 4953TIP3    H114865   5.221   2.368   4.471 -0.2983 -0.2234 -1.0451
 4953TIP3    H214866   5.072   2.371   4.445 -0.8211 -0.1107  1.6309
 4954TIP3   OH214867   2.992   2.399   2.303  0.5648  0.4447  0.4617
 4954TIP3    H114868   3.076   2.395   2.349  0.5434  1.8401  0.6834
 4954TIP3    H214869   2.933   2.345   2.356  1.5265 -1.3478 -0.2300
 4955TIP3   OH214870   0.966   1.480   4.798 -0.1141  0.6887  0.6952
 4955TIP3    H114871   0.950   1.541   4.727 -1.0568  0.5078  0.7378
 4955TIP3    H214872   1.057   1.494   4.822  0.7008 -0.2841 -1.5399
 4956TIP3   OH214873   4.515   0.904   1.547 -0.0020 -0.0048  0.1016
 4956TIP3    H114874   4.525   0.810   1.558 -0.1862  0.1151  1.4214
 4956TIP3    H214875   4.496   0.937   1.635  0.2759  1.2906 -0.3004
 4957TIP3   OH214876   4.138   4.161   4.627 -0.5436  0.3549 -0.4611
 4957TIP3    H114877   4.115   4.075   4.662  0.6958  0.3604  0.4339
 4957TIP3    H214878   4.059   4.213   4.640 -1.3299 -0.6434 -1.0682
 4958TIP3   OH214879   5.097   0.540   2.219  0.5746 -0.4569 -1.1519
 4958TIP3    H114880   5.045   0.568   2.143  0.3512  0.2634 -0.7516
 4958TIP3    H214881   5.036   0.489   2.273  0.3540  0.1323 -0.8308
 4959TIP3   OH214882   3.312   5.119   4.282  0.2360  0.2700 -0.6291
 4959TIP3    H114883   3.350   5.199   4.319 -0.2680 -0.0344  0.6099
 4959TIP3    H214884   3.277   5.073   4.358  0.8889 -1.3349 -1.2712
 4960TIP3   OH214885   3.727   5.782   2.948 -0.7133  0.2189  0.6381
 4960TIP3    H114886   3.750   5.690   2.959  0.4614  0.3386 -0.5740
 4960TIP3    H214887   3.760   5.825   3.027 -1.5125 -0.4149  1.3381
 4961TIP3   OH214888   4.809   1.887   4.784  0.0248  0.2362 -0.0840
 4961TIP3    H114889   4.716   1.890   4.762  0.4824 -1.7749 -2.7883
 4961TIP3    H214890   4.826   1.796   4.805  1.7847  0.0026 -2.1269
 4962TIP3   OH214891   0.052   3.955   4.978  0.5856 -0.5650 -0.2437
 4962TIP3    H114892   0.005   3.881   5.017 -1.3199  0.3636 -0.6709
 4962TIP3    H214893   0.010   3.969   4.893  0.1194  1.7112  0.2910
 4963TIP3   OH214894   2.728   0.281   3.668  0.2013 -0.2467 -0.0786
 4963TIP3    H114895   2.792   0.347   3.643  0.0406 -0.2169 -0.4244
 4963TIP3    H214896   2.657   0.291   3.604 -0.6744  0.4787  0.9641
 4964TIP3   OH214897   5.011   2.152   1.668 -0.4871 -0.3080  0.3222
 4964TIP3    H114898   4.939   2.216   1.670 -1.0377 -0.8796 -0.4448
 4964TIP3    H214899   4.980   2.083   1.609 -0.0651 -1.4690  1.4050
 4965TIP3   OH214900   1.303   4.292   1.790 -0.6815  0.4371  0.1288
 4965TIP3    H114901   1.330   4.245   1.712 -0.5105 -0.3672  0.6652
 4965TIP3    H214902   1.234   4.352   1.760 -0.5636  0.1943 -0.6410
 4966TIP3   OH214903   5.851   5.572   5.109  0.4008  0.1000 -0.1315
 4966TIP3    H114904   5.764   5.560   5.146  0.3578  1.3114  0.2155
 4966TIP3    H214905   5.842   5.549   5.017 -0.3785  0.5566 -0.1722
 4967TIP3   OH214906   0.941   3.115   2.292  0.2903 -0.2336 -0.7446
 4967TIP3    H114907   1.012   3.169   2.326  0.0211 -0.1157 -0.3669
 4967TIP3    H214908   0.868   3.131   2.351 -0.3716  0.4129 -1.7048
 4968TIP3   OH214909   2.741   4.499   0.386  0.2972 -0.4483 -0.1814
 4968TIP3    H114910   2.655   4.525   0.421 -0.4141 -2.5327 -0.2407
 4968TIP3    H214911   2.793   4.579   0.388 -1.0695  0.4654  1.6223
 4969TIP3   OH214912   2.616   2.817   3.979  0.1733 -0.0001 -0.5760
 4969TIP3    H114913   2.654   2.744   3.929  1.6563  0.5497 -0.3011
 4969TIP3    H214914   2.541   2.845   3.926 -0.3421 -1.6152 -0.7563
 4970TIP3   OH214915   1.740   2.979   4.300 -0.0480 -0.0137  0.3587
 4970TIP3    H114916   1.723   2.971   4.394 -0.8882  2.8809  0.5635
 4970TIP3    H214917   1.821   3.029   4.295 -0.5355  0.7332 -0.4155
 4971TIP3   OH214918   1.686   5.447   4.036 -0.1508  0.3231 -0.0276
 4971TIP3    H114919   1.627   5.497   3.979  0.0108  0.9661  0.3543
 4971TIP3    H214920   1.727   5.514   4.092 -1.4752 -0.3972  1.9306
 4972TIP3   OH214921   1.615   5.576   1.584 -0.0926 -0.1317 -0.4236
 4972TIP3    H114922   1.626   5.574   1.489  0.3175 -1.2042 -0.3673
 4972TIP3    H214923   1.525   5.548   1.598  0.1865 -1.0836 -0.4599
 4973TIP3   OH214924   2.797   0.037   3.529 -0.4508 -0.4201 -0.5342
 4973TIP3    H114925   2.804   0.090   3.450 -1.2728  0.0166 -0.3272
 4973TIP3    H214926   2.798   0.100   3.601  0.9082 -0.8591 -0.1517
 4974TIP3   OH214927   0.846   4.140   2.889  0.0936 -0.8506  0.2944
 4974TIP3    H114928   0.933   4.144   2.928  0.0475  0.0275  0.3293
 4974TIP3    H214929   0.804   4.066   2.932 -0.4459  0.8744  2.9892
 4975TIP3   OH214930   4.691   4.017   1.605 -0.1450 -0.4576  0.7263
 4975TIP3    H114931   4.698   3.952   1.675  1.5960 -0.2009  0.8365
 4975TIP3    H214932   4.759   4.081   1.626 -1.4763  1.1462  0.3442
 4976TIP3   OH214933   5.802   5.674   0.756 -0.4479 -0.9076 -0.0233
 4976TIP3    H114934   5.761   5.605   0.705  0.4307 -0.5312 -1.2896
 4976TIP3    H214935   5.733   5.739   0.769 -0.4453 -0.5537 -1.6013
 4977TIP3   OH214936   3.223   2.399   1.131 -0.1324 -0.5907  0.4588
 4977TIP3    H114937   3.287   2.330   1.118  1.0023  0.7215 -1.2782
 4977TIP3    H214938   3.186   2.415   1.044  0.3621  1.6460  0.6063
 4978TIP3   OH214939   3.487   0.382   0.051 -0.2752  0.2859  0.1501
 4978TIP3    H114940   3.540   0.313   0.091  0.3469  0.3477 -0.5454
 4978TIP3    H214941   3.550   0.440   0.010 -0.8551  0.6956 -0.1744
 4979TIP3   OH214942   4.766   3.220   3.690 -0.3731 -0.1245  0.5183
 4979TIP3    H114943   4.718   3.217   3.607  0.8406  2.0835 -0.3376
 4979TIP3    H214944   4.858   3.218   3.666  0.1285  3.3997  1.4528
 4980TIP3   OH214945   4.837   4.345   2.324 -0.3793  0.6751  0.1663
 4980TIP3    H114946   4.815   4.333   2.416 -1.5016 -0.1440 -0.1809
 4980TIP3    H214947   4.930   4.366   2.324 -0.5679  1.6469  1.5449
 4981TIP3   OH214948   0.422   2.916   3.757  0.2848 -0.4144 -0.4501
 4981TIP3    H114949   0.413   2.832   3.712 -2.0946 -0.4697 -0.0063
 4981TIP3    H214950   0.439   2.979   3.686 -2.9732 -0.5649 -1.5277
 4982TIP3   OH214951   1.806   2.461   3.731 -1.0124 -0.4051 -0.0375
 4982TIP3    H114952   1.750   2.532   3.762  0.5612  0.7401  0.3138
 4982TIP3    H214953   1.849   2.496   3.654 -0.8314 -1.2858 -0.3513
 4983TIP3   OH214954   0.194   3.023   4.509  0.6582 -0.2503 -0.4492
 4983TIP3    H114955   0.275   3.039   4.462  1.3904  2.4698  1.4785
 4983TIP3    H214956   0.128   3.072   4.460  1.3653  2.3231  0.9413
 4984TIP3   OH214957   2.228   0.409   0.275  0.1503  0.0887 -0.1854
 4984TIP3    H114958   2.214   0.352   0.199 -0.5430 -1.1890  0.8573
 4984TIP3    H214959   2.140   0.439   0.298  0.0675 -1.1154  1.2571
 4985TIP3   OH214960   1.446   0.067   1.390 -0.4922  0.6615  0.4082
 4985TIP3    H114961   1.511   0.002   1.418 -0.5319  0.4742  0.0736
 4985TIP3    H214962   1.498   0.139   1.355 -0.4505  0.7790  0.7069
 4986TIP3   OH214963   0.913   3.766   4.763  0.9931  0.2476  0.2879
 4986TIP3    H114964   0.971   3.764   4.687  1.4214  1.8029  0.5224
 4986TIP3    H214965   0.872   3.680   4.765  0.0398  0.5615 -2.3946
 4987TIP3   OH214966   5.850   4.724   3.278 -0.1187  0.3741 -0.4058
 4987TIP3    H114967   5.867   4.815   3.301 -0.5032  0.4347 -0.3479
 4987TIP3    H214968   5.761   4.725   3.241 -0.4481 -0.1023  0.3444
 4988TIP3   OH214969   6.078   4.900   4.336  0.0825 -0.2075 -0.2772
 4988TIP3    H114970   6.108   4.836   4.271  0.0021 -0.4783 -0.0472
 4988TIP3    H214971   6.146   4.901   4.403  0.7246  0.8939 -0.9028
 4989TIP3   OH214972   6.152   2.635   2.691 -0.2770  0.2180  0.0218
 4989TIP3    H114973   6.135   2.657   2.600 -2.1811 -0.5368  0.1636
 4989TIP3    H214974   6.136   2.541   2.697 -0.7650  0.3623  1.2630
 4990TIP3   OH214975   1.558   1.229   3.592 -0.1005 -0.0121  0.2066
 4990TIP3    H114976   1.561   1.320   3.620  2.7960  0.5425 -1.5054
 4990TIP3    H214977   1.607   1.182   3.660  2.9438  0.6203 -1.4038
 4991TIP3   OH214978   1.410   5.703   0.088  0.2773  0.2470 -0.0174
 4991TIP3    H114979   1.336   5.737   0.139  0.8440  2.2586 -0.4395
 4991TIP3    H214980   1.444   5.780   0.042  1.8478 -0.8847 -0.8192
 4992TIP3   OH214981   1.860   2.317   2.127  0.6224  0.3513 -0.1210
 4992TIP3    H114982   1.917   2.304   2.052  1.1872 -0.7821  0.4836
 4992TIP3    H214983   1.842   2.229   2.160 -0.1529  0.7899  0.6786
 4993TIP3   OH214984   1.058   2.565   2.691  0.2503  0.9610  0.5086
 4993TIP3    H114985   0.990   2.512   2.732  0.1228  1.0173  0.3737
 4993TIP3    H214986   1.011   2.616   2.625  0.4073  1.0791  0.4881
 4994TIP3   OH214987   1.383   1.053   0.426 -0.0804 -0.2478 -0.0291
 4994TIP3    H114988   1.469   1.038   0.466 -0.0205  1.0261  0.3680
 4994TIP3    H214989   1.401   1.058   0.333  0.6088  1.8586  0.1672
 4995TIP3   OH214990   0.741   0.097   1.475  0.3878  0.6564  0.3325
 4995TIP3    H114991   0.659   0.106   1.523 -1.0370  0.4300 -1.8852
 4995TIP3    H214992   0.753   0.182   1.432  2.9385  1.7213  2.8794
 4996TIP3   OH214993   4.827   3.117   2.394  0.2282  1.0893 -0.7269
 4996TIP3    H114994   4.882   3.186   2.429  0.6135 -0.3855  1.8534
 4996TIP3    H214995   4.758   3.105   2.460 -0.2294 -0.4716 -1.4332
 4997TIP3   OH214996   4.544   5.426   4.921  0.3604 -0.3742  0.3107
 4997TIP3    H114997   4.480   5.480   4.874  1.4239  0.1383 -0.5613
 4997TIP3    H214998   4.491   5.377   4.984 -1.0096 -0.5848 -0.9541
 4998TIP3   OH214999   4.910   1.261   4.728 -0.2724 -0.0082 -0.2586
 4998TIP3    H115000   4.850   1.297   4.794 -2.6962  0.3002 -2.4766
 4998TIP3    H215001   4.956   1.338   4.693  0.9992 -0.1694  0.9573
 4999TIP3   OH215002   4.080   1.085   5.120 -0.3168  0.0741  0.4636
 4999TIP3    H115003   4.169   1.064   5.094 -0.9076 -0.4701 -1.2681
 4999TIP3    H215004   4.058   1.163   5.068 -0.5415  0.7746  1.5802
 5000TIP3   OH215005   0.951   4.489   3.724 -0.2400 -0.3788 -0.4305
 5000TIP3    H115006   0.994   4.469   3.640  1.3657 -1.4226  0.5783
 5000TIP3    H215007   1.017   4.467   3.790 -1.9623 -0.8990  1.1800
 5001TIP3   OH215008   4.227   3.031   4.029  0.0606  0.1231  0.3020
 5001TIP3    H115009   4.180   3.094   4.083 -0.3326 -0.7725  1.0410
 5001TIP3    H215010   4.275   3.084   3.965  1.1421  1.2496  1.9829
 5002TIP3   OH215011   5.028   3.100   1.926  0.4743  0.2267  0.3844
 5002TIP3    H115012   4.936   3.120   1.913  0.5951  0.1419 -0.7246
 5002TIP3    H215013   5.035   3.006   1.906  0.7455  0.1666  0.7530
 5003TIP3   OH215014   3.532   3.356   1.701 -0.0283  0.1034 -0.2261
 5003TIP3    H115015   3.480   3.300   1.643  1.8942 -0.7398 -1.2185
 5003TIP3    H215016   3.612   3.373   1.652  1.3034  0.0791  1.8459
 5004TIP3   OH215017   1.010   5.001   2.396 -0.1582  0.4305  0.1394
 5004TIP3    H115018   1.097   5.040   2.408 -0.0660  0.9060 -1.8012
 5004TIP3    H215019   1.013   4.962   2.309 -1.6610 -0.2370  0.3541
 5005TIP3   OH215020   4.430   3.057   4.215  0.1150  0.5028  0.5987
 5005TIP3    H115021   4.338   3.056   4.190  0.0759 -0.4053  0.7308
 5005TIP3    H215022   4.469   3.126   4.162 -0.8304  1.5697  1.2418
 5006TIP3   OH215023   5.370   2.178   4.079 -0.4771 -0.2795 -0.4862
 5006TIP3    H115024   5.427   2.127   4.022  0.2592 -0.0997  0.0785
 5006TIP3    H215025   5.302   2.212   4.021 -0.1527 -0.7054 -1.1195
 5007TIP3   OH215026   3.583   1.276   3.520 -0.1758  0.1617  0.1058
 5007TIP3    H115027   3.489   1.278   3.501  0.0102  0.2842 -0.8593
 5007TIP3    H215028   3.625   1.275   3.434  0.7414  1.4292  0.5093
 5008TIP3   OH215029   5.337   0.037   1.330 -0.7819  0.2439  0.2900
 5008TIP3    H115030   5.245   0.063   1.331 -1.2333 -1.2330  0.9474
 5008TIP3    H215031   5.360   0.026   1.422 -0.4283 -0.9257  0.0806
 5009TIP3   OH215032   4.878   3.537   2.025  0.2305 -0.3372 -0.0143
 5009TIP3    H115033   4.905   3.594   2.097  0.9012 -1.3285  0.5506
 5009TIP3    H215034   4.851   3.456   2.069  1.9426 -1.4557 -0.9466
 5010TIP3   OH215035   5.611   4.837   3.910  0.3654 -0.3747 -0.1879
 5010TIP3    H115036   5.533   4.889   3.931 -0.2608 -1.7984  1.1331
 5010TIP3    H215037   5.587   4.747   3.932  2.1995 -0.9301 -0.3043
 5011TIP3   OH215038   3.209   5.930   1.804  0.4230  0.6617  0.5486
 5011TIP3    H115039   3.197   5.946   1.897  0.8668  0.3542  0.6600
 5011TIP3    H215040   3.276   5.861   1.799 -0.5664 -0.2948  0.0414
 5012TIP3   OH215041   0.459   4.417   5.089 -0.0600 -0.3329  0.5589
 5012TIP3    H115042   0.377   4.411   5.039  2.3438 -0.6898 -3.8255
 5012TIP3    H215043   0.503   4.333   5.075  1.5565  0.2432  1.8404
 5013TIP3   OH215044   0.668   4.534   0.075 -0.2371 -0.1293 -0.4553
 5013TIP3    H115045   0.730   4.603   0.098  0.6037 -0.1840 -2.3523
 5013TIP3    H215046   0.721   4.469   0.029 -1.8109  0.2551 -2.9618
 5014TIP3   OH215047   5.637   5.564   1.634 -0.7234 -0.4048 -0.1655
 5014TIP3    H115048   5.716   5.543   1.684 -1.8094 -1.6254  1.1157
 5014TIP3    H215049   5.670   5.610   1.557  1.1934 -0.4112  0.5737
 5015TIP3   OH215050   1.183   3.218   2.889  0.3210  0.0302  0.5047
 5015TIP3    H115051   1.155   3.129   2.911  0.6444  0.0773  1.1578
 5015TIP3    H215052   1.276   3.209   2.870  0.3198  0.2032  0.4179
 5016TIP3   OH215053   0.191   4.659   3.927  0.0553  0.1837  0.2930
 5016TIP3    H115054   0.204   4.710   3.847  1.5050  0.3090  0.5808
 5016TIP3    H215055   0.176   4.725   3.995 -1.7605  0.0588  0.0581
 5017TIP3   OH215056   3.682   2.661   2.801  0.1525  0.3378  0.3358
 5017TIP3    H115057   3.637   2.635   2.881  0.1929 -0.9436 -0.0351
 5017TIP3    H215058   3.633   2.616   2.731  1.1170  0.0987 -0.1987
 5018TIP3   OH215059   2.894   5.439   2.508 -0.7204 -0.0228  0.3594
 5018TIP3    H115060   2.983   5.469   2.528 -0.4957 -0.3851 -0.0719
 5018TIP3    H215061   2.838   5.497   2.559 -0.3515  1.9530 -1.2993
 5019TIP3   OH215062   2.233   0.054   2.189 -0.3297 -0.0316 -0.2443
 5019TIP3    H115063   2.298   0.015   2.247 -1.2058 -1.2152 -0.0250
 5019TIP3    H215064   2.258   0.023   2.102 -0.5543 -0.4340 -0.1678
 5020TIP3   OH215065   3.979   5.581   4.512 -0.4017  0.1200  0.2814
 5020TIP3    H115066   3.993   5.499   4.559 -2.7558 -0.8657 -0.6035
 5020TIP3    H215067   4.044   5.579   4.442 -0.8274 -1.3260 -0.1071
 5021TIP3   OH215068   2.611   0.025   2.631  0.6002  0.0288  0.4333
 5021TIP3    H115069   2.539  -0.035   2.650 -0.8035  1.4626 -0.0582
 5021TIP3    H215070   2.627   0.071   2.714  2.4106 -1.6824  1.1093
 5022TIP3   OH215071   4.075   2.682   3.139  0.3948 -0.3518 -0.0047
 5022TIP3    H115072   3.997   2.719   3.179  1.6461 -0.4826  2.8433
 5022TIP3    H215073   4.136   2.755   3.132  0.2840 -0.3890 -1.5280
 5023TIP3   OH215074   3.886   3.216   2.181 -0.6409  0.6491  0.0935
 5023TIP3    H115075   3.818   3.280   2.201 -0.3616  1.0032 -0.0749
 5023TIP3    H215076   3.947   3.263   2.125  0.0078  0.4903  0.6561
 5024TIP3   OH215077   5.381   2.499   0.590 -0.6835 -0.8399 -0.5823
 5024TIP3    H115078   5.292   2.534   0.597 -0.3450  0.0360 -0.5075
 5024TIP3    H215079   5.387   2.435   0.660 -0.7519  0.2609  0.4649
 5025TIP3   OH215080   4.875   1.035   4.953 -0.3398 -0.0992  0.4073
 5025TIP3    H115081   4.888   1.128   4.938 -1.0975 -0.0926 -0.2279
 5025TIP3    H215082   4.955   0.994   4.919 -0.7737  0.1715 -1.0008
 5026TIP3   OH215083   2.523   1.268   1.849  0.0603 -0.0570 -0.3249
 5026TIP3    H115084   2.560   1.317   1.775  1.9816  2.1299  1.9292
 5026TIP3    H215085   2.537   1.176   1.825 -2.4332  0.3124 -4.0977
 5027TIP3   OH215086   1.400   2.657   2.551  0.6458 -0.2375  0.7490
 5027TIP3    H115087   1.309   2.663   2.525  1.1879  0.6505 -1.1084
 5027TIP3    H215088   1.414   2.564   2.570 -0.3566 -0.5707 -0.0753
 5028TIP3   OH215089   5.716   3.961   2.505 -0.4335 -0.4342  0.2426
 5028TIP3    H115090   5.637   3.938   2.555 -1.0249 -0.7587 -0.8120
 5028TIP3    H215091   5.745   4.044   2.543 -1.5682 -0.0588  0.3167
 5029TIP3   OH215092   5.914   2.854   1.738 -0.9385  0.3149 -0.5175
 5029TIP3    H115093   5.845   2.920   1.728 -0.7080  0.3628 -2.1569
 5029TIP3    H215094   5.925   2.818   1.650  2.2687  1.4409 -0.6973
 5030TIP3   OH215095   2.493   1.140   1.056  0.1859  0.0144 -0.1242
 5030TIP3    H115096   2.400   1.151   1.037  0.3855 -0.9060 -1.7992
 5030TIP3    H215097   2.503   1.170   1.146 -1.6486  0.5277 -0.0612
 5031TIP3   OH215098   1.162   2.972   1.933 -0.0636  0.8382  0.7536
 5031TIP3    H115099   1.187   3.056   1.971  3.2191  0.0392  0.6337
 5031TIP3    H215100   1.194   2.975   1.843  0.9520 -0.8273  1.0126
 5032TIP3   OH215101   5.928   0.997   5.181  0.2828  0.4031  0.1120
 5032TIP3    H115102   5.852   1.046   5.211 -0.6648  0.0263 -1.5147
 5032TIP3    H215103   5.892   0.915   5.147  1.4083  0.1870 -0.6254
 5033TIP3   OH215104   1.027   3.088   3.572 -0.2514 -0.5346 -0.1603
 5033TIP3    H115105   0.994   3.004   3.539 -2.2440 -0.1316  0.6436
 5033TIP3    H215106   1.079   3.123   3.500  0.6856 -2.4489 -0.4987
 5034TIP3   OH215107   4.787   4.478   0.048 -0.1025  0.5589 -0.8951
 5034TIP3    H115108   4.729   4.431  -0.013 -0.7670 -0.1436  0.2306
 5034TIP3    H215109   4.875   4.463   0.014 -0.3809 -0.6858 -1.1316
 5035TIP3   OH215110   3.571   3.448   0.706  0.0286  0.1467  1.0199
 5035TIP3    H115111   3.595   3.444   0.799 -2.1016 -3.0841  1.6241
 5035TIP3    H215112   3.630   3.386   0.663  0.7807  1.3759  0.2260
 5036TIP3   OH215113   5.674   2.789   3.846 -0.3503  0.2556 -0.5661
 5036TIP3    H115114   5.754   2.811   3.799  0.4164 -1.0589  0.0508
 5036TIP3    H215115   5.704   2.753   3.930 -1.5221 -1.2539 -0.7397
 5037TIP3   OH215116   5.605   0.557   3.156 -0.0292 -0.1627 -0.4289
 5037TIP3    H115117   5.625   0.581   3.065 -0.8733  1.9668 -0.1069
 5037TIP3    H215118   5.549   0.628   3.187 -1.8159 -2.1115  1.0051
 5038TIP3   OH215119   5.159   1.119   1.866  0.0149 -0.4207  0.4894
 5038TIP3    H115120   5.178   1.207   1.899  0.9275 -0.4769  0.1249
 5038TIP3    H215121   5.088   1.133   1.803  0.0939  0.0465  0.4975
 5039TIP3   OH215122   5.036   3.624   2.685 -0.6379 -0.0423  0.1897
 5039TIP3    H115123   5.026   3.719   2.694 -0.2838 -0.0533  0.7792
 5039TIP3    H215124   5.094   3.612   2.610  0.7515  0.2829  1.1724
 5040TIP3   OH215125   2.190   2.683   2.867  0.0694 -0.1124 -0.1473
 5040TIP3    H115126   2.146   2.745   2.808 -0.9105  2.2122  2.7793
 5040TIP3    H215127   2.273   2.726   2.889  0.0858 -0.5528  0.7020
 5041TIP3   OH215128   6.232   3.387   2.986 -0.2544  0.6439  0.2826
 5041TIP3    H115129   6.211   3.404   3.078  0.2601 -0.1486  0.5514
 5041TIP3    H215130   6.323   3.415   2.977 -0.2431  0.5324  0.0569
 5042TIP3   OH215131   3.659   2.704   3.122  0.4988  0.2792 -0.2656
 5042TIP3    H115132   3.686   2.618   3.153  0.5312  0.4747  0.2630
 5042TIP3    H215133   3.729   2.763   3.153 -0.3120  0.7292  0.7618
 5043TIP3   OH215134   3.303   2.376   0.414 -0.9777 -0.5159  0.3491
 5043TIP3    H115135   3.313   2.281   0.409  0.4597 -0.3204 -1.1251
 5043TIP3    H215136   3.279   2.402   0.325 -1.6497  0.4951  0.8099
 5044TIP3   OH215137   4.926   0.364   1.701 -0.0873  0.0644 -0.4853
 5044TIP3    H115138   4.978   0.311   1.762  1.2732  0.3460 -1.3697
 5044TIP3    H215139   4.883   0.300   1.644 -2.5183 -0.2972  1.5412
 5045TIP3   OH215140   1.406   4.548   2.227 -0.1327  0.1153  0.3048
 5045TIP3    H115141   1.494   4.512   2.237  0.9922  1.9649 -1.9296
 5045TIP3    H215142   1.371   4.506   2.148 -0.5663  0.6395  0.2086
 5046TIP3   OH215143   1.912   4.523   4.549 -0.3119  0.4622  0.4763
 5046TIP3    H115144   1.891   4.531   4.642  0.6293  1.7604  0.5998
 5046TIP3    H215145   2.007   4.533   4.544 -0.2847 -0.0984 -0.5827
 5047TIP3   OH215146   4.608   3.615   0.200  0.1599 -0.5764 -0.0907
 5047TIP3    H115147   4.602   3.604   0.295 -0.5102  1.6238  0.1704
 5047TIP3    H215148   4.519   3.601   0.168  0.5218 -2.0820 -0.5426
 5048TIP3   OH215149   2.460   3.678   5.136 -0.4383  0.2184  0.5660
 5048TIP3    H115150   2.446   3.737   5.210  0.1935  1.4800 -0.2882
 5048TIP3    H215151   2.526   3.722   5.083 -2.5210  0.4911 -1.9704
 5049TIP3   OH215152   4.276   1.482   4.647  0.3926  0.4293 -0.3758
 5049TIP3    H115153   4.218   1.489   4.571 -1.3375  1.1289  0.9445
 5049TIP3    H215154   4.262   1.393   4.680 -0.8829  0.9667  0.6203
 5050TIP3   OH215155   2.625   1.879   4.415  0.3222 -0.3667  0.1114
 5050TIP3    H115156   2.561   1.935   4.459 -0.6198  0.0533 -1.6835
 5050TIP3    H215157   2.706   1.892   4.464 -0.6986 -0.0919  1.8091
 5051TIP3   OH215158   0.527   3.277   0.121  0.8226 -0.1746  0.1311
 5051TIP3    H115159   0.522   3.182   0.128 -1.5698 -0.3302 -2.0627
 5051TIP3    H215160   0.438   3.307   0.136  0.9318  1.4295 -1.9156
 5052TIP3   OH215161   4.211   0.906   1.709  0.4446  0.1052  0.1082
 5052TIP3    H115162   4.194   0.813   1.727 -1.1907  0.6204  1.4580
 5052TIP3    H215163   4.295   0.923   1.750  0.3511 -0.5816  0.6010
 5053TIP3   OH215164   4.346   1.796   1.705  0.1335  0.5196 -0.0962
 5053TIP3    H115165   4.396   1.807   1.624  1.8868  2.0085  1.0993
 5053TIP3    H215166   4.332   1.885   1.737 -1.2222 -0.0029  0.8624
 5054TIP3   OH215167   4.859   1.037   2.865 -0.4073  0.2414 -0.2985
 5054TIP3    H115168   4.882   1.122   2.903  1.9712  0.2584 -1.5837
 5054TIP3    H215169   4.942   1.002   2.832 -1.7388 -1.3702 -2.1924
 5055TIP3   OH215170   0.082   5.926   1.595  0.4771  0.5285 -0.4939
 5055TIP3    H115171  -0.013   5.934   1.606  0.4104  1.7645 -1.6879
 5055TIP3    H215172   0.104   5.841   1.634 -1.0690  0.3414  0.0409
 5056TIP3   OH215173   2.806   2.900   2.255  0.3144  0.1019  0.1106
 5056TIP3    H115174   2.791   2.961   2.328  1.3552  0.5996 -0.0740
 5056TIP3    H215175   2.829   2.818   2.298 -0.6289 -0.0452  0.3555
 5057TIP3   OH215176   2.275   0.281   3.957 -0.5037 -0.3393 -0.8731
 5057TIP3    H115177   2.192   0.245   3.990  0.0076 -0.8917 -0.1557
 5057TIP3    H215178   2.343   0.232   4.003  0.2638 -1.1896 -2.7761
 5058TIP3   OH215179   5.886   2.117   3.903 -0.0075  0.5020  0.5564
 5058TIP3    H115180   5.923   2.202   3.880 -0.6966  0.7613  0.3965
 5058TIP3    H215181   5.791   2.132   3.905 -0.0748  0.0158  1.6226
 5059TIP3   OH215182   1.496   2.379   2.907 -0.1123 -0.1128 -0.3708
 5059TIP3    H115183   1.558   2.427   2.853  0.4746 -0.4306  0.0102
 5059TIP3    H215184   1.432   2.344   2.845 -0.7637  1.4463 -0.6166
 5060TIP3   OH215185   5.366   1.585   1.421 -0.0094  0.1002  0.0253
 5060TIP3    H115186   5.302   1.514   1.431  0.0572  0.0430  0.0473
 5060TIP3    H215187   5.367   1.602   1.327 -1.1524  1.1163  0.1832
 5061TIP3   OH215188   3.179   1.987   2.939 -0.3626  0.2320  0.2395
 5061TIP3    H115189   3.154   2.077   2.960  1.3199  1.6390 -3.0730
 5061TIP3    H215190   3.113   1.934   2.983 -1.9177  3.0681  1.6674
 5062TIP3   OH215191   1.109   5.757   3.824 -0.1241 -0.5269 -1.0056
 5062TIP3    H115192   1.197   5.795   3.817 -0.5679  0.4467 -1.3331
 5062TIP3    H215193   1.061   5.792   3.749 -1.0173 -0.4680 -0.4212
 5063TIP3   OH215194   0.337   3.382   3.141 -0.4076 -0.0586  0.2838
 5063TIP3    H115195   0.303   3.295   3.120 -0.7055  0.0154  0.4509
 5063TIP3    H215196   0.259   3.438   3.142  0.0371  0.7575 -2.4740
 5064TIP3   OH215197   1.416   4.420   2.536 -0.1159  0.6372  0.1108
 5064TIP3    H115198   1.448   4.345   2.585 -0.1604  0.7031  0.2400
 5064TIP3    H215199   1.492   4.479   2.530 -0.4773  1.2650  1.3142
 5065TIP3   OH215200   1.717   3.370   3.781 -0.5032 -0.1241  0.3364
 5065TIP3    H115201   1.778   3.413   3.721 -0.0092 -2.9724 -1.4397
 5065TIP3    H215202   1.631   3.407   3.760 -0.1192 -0.0355 -1.1581
 5066TIP3   OH215203   3.837   4.725   4.874 -0.0753 -0.2510  0.3060
 5066TIP3    H115204   3.768   4.680   4.824 -0.2839  0.2337  0.1488
 5066TIP3    H215205   3.902   4.657   4.892 -0.2511 -0.5536 -0.1688
 5067TIP3   OH215206   0.247   2.973   0.151 -0.1170  0.1273  0.8917
 5067TIP3    H115207   0.163   3.018   0.153 -0.7055 -0.9212  0.7636
 5067TIP3    H215208   0.271   2.961   0.243 -0.8573 -0.8929  0.9638
 5068TIP3   OH215209   5.310   0.692   3.731 -0.1161  0.2147  0.6380
 5068TIP3    H115210   5.218   0.716   3.719 -0.1075  0.5123  1.1211
 5068TIP3    H215211   5.330   0.719   3.821 -0.3202 -2.3050  1.5164
 5069TIP3   OH215212   0.715   0.151   0.510  0.4867  0.2940  0.2750
 5069TIP3    H115213   0.763   0.187   0.585  1.1500 -0.3259  0.1652
 5069TIP3    H215214   0.764   0.182   0.434  1.8986 -1.8733  0.2036
 5070TIP3   OH215215   1.438   1.253   4.169  0.6388 -0.2513 -0.2317
 5070TIP3    H115216   1.423   1.324   4.232 -1.0710 -0.9542  0.2187
 5070TIP3    H215217   1.456   1.298   4.086 -1.0407  0.7510 -0.0972
 5071TIP3   OH215218   0.084   4.481   2.172  0.4369  0.0917 -0.1584
 5071TIP3    H115219   0.094   4.468   2.267  0.8862 -1.7142 -0.4157
 5071TIP3    H215220  -0.003   4.447   2.153  0.4660  0.1799 -0.4402
 5072TIP3   OH215221   3.506   5.730   2.607  0.2573 -0.4901 -0.9765
 5072TIP3    H115222   3.578   5.769   2.657 -0.5368 -2.8574  2.3410
 5072TIP3    H215223   3.538   5.642   2.585 -0.9603 -0.9676 -0.8992
 5073TIP3   OH215224   4.115   4.687   1.826  0.2551 -0.0496 -0.1149
 5073TIP3    H115225   4.020   4.678   1.838  0.1616 -0.7941 -1.2623
 5073TIP3    H215226   4.139   4.614   1.768  1.6990 -0.4780  0.9670
 5074TIP3   OH215227   5.709   5.561   3.984  0.3615  0.1365  0.0221
 5074TIP3    H115228   5.637   5.618   3.958  0.4680  0.8462  1.2021
 5074TIP3    H215229   5.706   5.560   4.080  0.3352 -1.8995  0.0372
 5075TIP3   OH215230   3.603   1.837   0.674  0.0069  0.4532  0.3381
 5075TIP3    H115231   3.673   1.901   0.687  0.7653 -0.4555  0.8133
 5075TIP3    H215232   3.575   1.849   0.583  1.3405  0.2740 -0.1079
 5076TIP3   OH215233   5.069   3.212   3.269 -0.0358  0.2154 -0.1599
 5076TIP3    H115234   5.129   3.211   3.194  0.9084  1.8191  0.5159
 5076TIP3    H215235   5.114   3.159   3.336  0.1826  0.6192  0.0168
 5077TIP3   OH215236   0.751   3.583   0.762 -0.2370 -0.3953  0.0824
 5077TIP3    H115237   0.731   3.601   0.854  0.1500  1.2783 -0.1304
 5077TIP3    H215238   0.805   3.657   0.734 -1.9471  0.1519 -2.0384
 5078TIP3   OH215239   2.005   4.840   0.809  0.0972  0.0475  0.6669
 5078TIP3    H115240   2.051   4.892   0.743  1.9838  0.1258  1.9762
 5078TIP3    H215241   1.915   4.872   0.805  0.0975 -0.0396 -1.9216
 5079TIP3   OH215242   0.054   3.431   0.423  1.1779 -0.5393  0.7590
 5079TIP3    H115243   0.017   3.428   0.334 -1.7127  2.1579  1.6714
 5079TIP3    H215244   0.034   3.346   0.461 -2.1408 -0.0711  0.3348
 5080TIP3   OH215245   5.737   1.225   3.269  0.3453  0.5081 -0.4488
 5080TIP3    H115246   5.692   1.144   3.246 -0.1926  0.8770 -0.7155
 5080TIP3    H215247   5.673   1.273   3.322  0.2152  1.2748 -1.2806
 5081TIP3   OH215248   2.086   1.334   1.584 -0.5577 -0.0155 -0.0217
 5081TIP3    H115249   2.138   1.302   1.657  0.3368  0.4759 -0.4199
 5081TIP3    H215250   2.049   1.255   1.544 -0.8607 -0.3000  0.8062
 5082TIP3   OH215251   1.338   1.310   4.681  0.5225 -0.1079  0.5487
 5082TIP3    H115252   1.395   1.264   4.618  2.4446  1.8551  0.7300
 5082TIP3    H215253   1.271   1.352   4.627  1.2825  0.3436 -0.0645
 5083TIP3   OH215254   2.447   0.493   3.138  0.2452  0.1350  0.5193
 5083TIP3    H115255   2.376   0.445   3.179 -0.6557  0.5575 -0.5015
 5083TIP3    H215256   2.487   0.543   3.209  0.8522 -1.6458  1.4940
 5084TIP3   OH215257   1.518   3.050   3.726 -0.4188  0.0121 -0.5376
 5084TIP3    H115258   1.508   3.126   3.669  1.5269  0.6334 -0.1042
 5084TIP3    H215259   1.432   3.007   3.723 -1.0142  1.2075 -2.2085
 5085TIP3   OH215260   5.768   5.664   0.322  0.3755 -0.0507  0.1312
 5085TIP3    H115261   5.739   5.725   0.255 -0.2492 -0.0315  0.4181
 5085TIP3    H215262   5.688   5.636   0.366  0.7694 -0.1402  0.8057
 5086TIP3   OH215263   1.342   0.961   0.999  0.4019 -0.5307  0.6295
 5086TIP3    H115264   1.309   0.871   0.997  0.2842 -0.4795  0.1258
 5086TIP3    H215265   1.270   1.013   0.961 -0.7179  0.1623  3.4639
 5087TIP3   OH215266   5.055   4.649   5.020  0.5130  0.3969 -0.5434
 5087TIP3    H115267   5.020   4.635   5.108  1.1423  0.0261 -0.3499
 5087TIP3    H215268   5.095   4.565   4.997  1.8428  0.9944 -0.4999
 5088TIP3   OH215269   1.527   3.357   2.184  0.0964  0.5061  0.2588
 5088TIP3    H115270   1.605   3.373   2.132  0.1283  1.0770  0.4838
 5088TIP3    H215271   1.465   3.317   2.123 -0.5215  2.7860 -0.6995
 5089TIP3   OH215272   0.867   2.506   4.539 -0.5064 -0.0184 -0.0433
 5089TIP3    H115273   0.819   2.452   4.601  2.0902 -0.4034  1.7856
 5089TIP3    H215274   0.954   2.517   4.578 -0.0296  3.2024 -1.6430
 5090TIP3   OH215275   6.265   3.406   3.271  0.0890 -0.2826  0.5303
 5090TIP3    H115276   6.305   3.332   3.226  0.2862  0.1077  0.0496
 5090TIP3    H215277   6.280   3.389   3.364  1.9394  0.1657  0.3531
 5091TIP3   OH215278   1.350   5.606   3.635  0.2594  0.2548  0.5598
 5091TIP3    H115279   1.360   5.538   3.569  1.1285  0.4756  0.4389
 5091TIP3    H215280   1.274   5.657   3.607 -0.5422 -0.7960  0.7886
 5092TIP3   OH215281   5.507   4.614   4.262 -0.6487  0.8870 -0.2556
 5092TIP3    H115282   5.594   4.598   4.226 -1.4820 -2.2770 -1.1857
 5092TIP3    H215283   5.511   4.577   4.350 -1.1137  0.4807 -0.4022
 5093TIP3   OH215284   3.343   5.414   2.262 -0.2914 -0.0281  0.0312
 5093TIP3    H115285   3.302   5.344   2.312 -2.6378  1.1002 -0.1725
 5093TIP3    H215286   3.400   5.459   2.324  0.2140 -1.2648  0.4942
 5094TIP3   OH215287   0.887   1.324   3.419 -0.4962  0.1502  0.1791
 5094TIP3    H115288   0.931   1.380   3.482 -0.6615  0.7263 -0.2108
 5094TIP3    H215289   0.833   1.384   3.367 -1.5419 -0.4966  0.4772
 5095TIP3   OH215290   1.113   3.545   0.776 -0.7259 -0.0874  0.3968
 5095TIP3    H115291   1.086   3.609   0.710  0.4295  0.5040  0.4847
 5095TIP3    H215292   1.193   3.506   0.741 -0.6486 -0.4812  0.9984
 5096TIP3   OH215293   3.954   1.064   3.820 -0.1809 -0.1095 -1.4501
 5096TIP3    H115294   4.008   0.986   3.808 -0.3814 -0.3430 -0.8678
 5096TIP3    H215295   3.983   1.101   3.904  0.4722  0.8980 -2.0895
 5097TIP3   OH215296   1.969   0.893   3.602  0.0303  0.3196  0.1357
 5097TIP3    H115297   1.976   0.899   3.698 -2.5849  0.7864  0.3699
 5097TIP3    H215298   1.933   0.806   3.587  0.6327  0.1665 -0.4818
 5098TIP3   OH215299   0.913   1.060   0.156  0.0276  0.8438 -0.2132
 5098TIP3    H115300   0.926   1.035   0.064 -3.2154  0.5400 -0.6780
 5098TIP3    H215301   0.933   1.153   0.158 -1.3403  1.2133 -1.6337
 5099TIP3   OH215302   6.260   0.576   0.244  0.3273 -0.2879  0.6489
 5099TIP3    H115303   6.315   0.655   0.248  0.7627 -0.4781 -0.8993
 5099TIP3    H215304   6.322   0.504   0.235 -0.1518 -0.5312 -0.8697
 5100TIP3   OH215305   2.555   5.099   2.589 -0.3083 -0.2386 -0.0614
 5100TIP3    H115306   2.552   5.173   2.649 -0.0696  1.5845 -2.1670
 5100TIP3    H215307   2.640   5.107   2.546  0.0895 -2.2710  0.2261
 5101TIP3   OH215308   5.135   0.838   3.324  0.1686  0.3074 -0.2226
 5101TIP3    H115309   5.111   0.745   3.330 -1.3750  0.5350 -2.0747
 5101TIP3    H215310   5.066   0.877   3.271  0.9908  2.4699  0.2148
 5102TIP3   OH215311   0.866   4.457   4.076  0.1613 -0.3608  0.0849
 5102TIP3    H115312   0.932   4.521   4.050  1.7776 -1.1517  1.9821
 5102TIP3    H215313   0.786   4.488   4.035  1.3162  1.6688 -0.8218
 5103TIP3   OH215314   2.106   0.888   1.884  0.7052 -0.0244 -0.0452
 5103TIP3    H115315   2.022   0.893   1.929  1.8995 -1.0370  2.4399
 5103TIP3    H215316   2.170   0.918   1.948  2.3907 -0.3399 -1.4946
 5104TIP3   OH215317   3.468   4.199   0.679 -0.1161 -0.4147  0.3745
 5104TIP3    H115318   3.476   4.293   0.661 -0.9458 -0.3267  0.4359
 5104TIP3    H215319   3.466   4.193   0.774  1.7743 -0.6708  0.4484
 5105TIP3   OH215320   1.956   3.064   1.349 -0.2087 -0.2632 -0.1695
 5105TIP3    H115321   2.010   3.124   1.296 -1.0567  0.3869 -0.3209
 5105TIP3    H215322   1.970   2.978   1.309  1.8656 -0.3954  0.7075
 5106TIP3   OH215323   4.311   2.883   0.674 -0.4446 -0.7465  0.4284
 5106TIP3    H115324   4.275   2.812   0.622 -2.7649  0.7589 -0.1750
 5106TIP3    H215325   4.257   2.885   0.753  0.5694 -0.5735  1.1465
 5107TIP3   OH215326   4.360   3.504   2.285 -0.6801 -0.0601 -0.7310
 5107TIP3    H115327   4.276   3.459   2.294 -1.1230  1.0350  0.9014
 5107TIP3    H215328   4.425   3.436   2.303 -1.2871 -0.4166  0.1920
 5108TIP3   OH215329   0.929   3.733   1.223 -0.1498 -0.2545  0.2242
 5108TIP3    H115330   0.990   3.777   1.282 -1.6727  1.3988  0.6217
 5108TIP3    H215331   0.858   3.795   1.211 -1.4076 -1.8331 -0.8304
 5109TIP3   OH215332   0.250   5.350   2.856  0.2447 -0.1633 -0.0493
 5109TIP3    H115333   0.160   5.376   2.837  0.2828  2.1028  2.1891
 5109TIP3    H215334   0.244   5.304   2.940  1.2282  1.1925  0.8188
 5110TIP3   OH215335   2.588   4.115   4.943  0.3329 -0.4179 -0.2009
 5110TIP3    H115336   2.613   4.061   4.868 -0.2666 -0.8981 -0.0579
 5110TIP3    H215337   2.538   4.057   5.000  1.5722 -0.3213  1.0453
 5111TIP3   OH215338   1.811   2.564   5.146 -0.2962  0.3983  0.3852
 5111TIP3    H115339   1.872   2.581   5.218 -0.7169 -0.0985  0.8666
 5111TIP3    H215340   1.822   2.639   5.088  1.2284  0.0244  0.1404
 5112TIP3   OH215341   4.263   4.236   4.397 -0.6302 -0.3194 -0.2112
 5112TIP3    H115342   4.321   4.307   4.427 -1.2884  0.2091 -0.1682
 5112TIP3    H215343   4.221   4.204   4.477 -1.9433  0.6966 -0.4637
 5113TIP3   OH215344   4.675   1.097   3.779 -0.4447  0.0683 -0.2270
 5113TIP3    H115345   4.694   1.140   3.862 -0.4133  0.7303 -0.5720
 5113TIP3    H215346   4.620   1.159   3.731  0.0028 -0.0690 -0.9294
 5114TIP3   OH215347   1.581   0.633   2.719  0.3833  0.4358 -0.8677
 5114TIP3    H115348   1.631   0.620   2.639  3.3178  1.1258  0.7055
 5114TIP3    H215349   1.562   0.545   2.751 -1.3357  0.1445 -2.5208
 5115TIP3   OH215350   0.708   1.160   2.176 -0.1086 -0.0404  0.5072
 5115TIP3    H115351   0.730   1.125   2.090  0.9160 -0.8822  1.0761
 5115TIP3    H215352   0.614   1.172   2.174  0.0663  1.5107 -1.2782
 5116TIP3   OH215353   4.163   2.903   1.493  0.3844  0.2017 -0.0896
 5116TIP3    H115354   4.114   2.878   1.571 -0.6707 -1.1085 -1.1293
 5116TIP3    H215355   4.237   2.953   1.527 -0.5958  0.5774  1.6690
 5117TIP3   OH215356   3.511   3.063   3.021  0.1581  0.7198  0.1046
 5117TIP3    H115357   3.511   3.152   3.056  0.3990  0.1142  1.7697
 5117TIP3    H215358   3.601   3.048   2.993  0.6618  0.3181  1.8061
 5118TIP3   OH215359   4.038   3.335   0.008  0.0945 -0.2339 -0.4210
 5118TIP3    H115360   4.083   3.372   0.084  0.8965  0.3333 -1.1493
 5118TIP3    H215361   4.104   3.281  -0.035 -0.5622 -1.1369 -0.3285
 5119TIP3   OH215362   1.922   3.590   4.397 -0.4334 -0.0146 -0.5118
 5119TIP3    H115363   1.837   3.595   4.440  0.0372  1.5504  0.3064
 5119TIP3    H215364   1.903   3.610   4.305 -1.0023 -0.1006 -0.4196
 5120TIP3   OH215365   5.546   2.077   2.500 -0.3532  0.0716 -0.3163
 5120TIP3    H115366   5.482   2.087   2.570  0.5885  0.2371  0.5521
 5120TIP3    H215367   5.502   2.024   2.434 -1.0570 -0.6069  0.6748
 5121TIP3   OH215368   0.246   0.709   4.810  0.2491  0.1523 -0.3920
 5121TIP3    H115369   0.218   0.799   4.798  1.4606  0.3654 -1.9061
 5121TIP3    H215370   0.197   0.660   4.744 -0.8750 -0.4413  0.8303
 5122TIP3   OH215371   5.872   2.454   4.155 -0.3227  0.4237  0.1407
 5122TIP3    H115372   5.945   2.420   4.207  0.2625  2.3968  0.7073
 5122TIP3    H215373   5.804   2.388   4.162  0.6124 -0.4386  1.4600
 5123TIP3   OH215374   2.501   3.052   1.981  0.4859  0.2679  0.1856
 5123TIP3    H115375   2.423   3.028   1.930 -0.0427 -1.5620  1.7422
 5123TIP3    H215376   2.477   3.135   2.023  0.0606  0.6108 -0.7128
 5124TIP3   OH215377   3.216   5.746   0.255  0.3332  0.0073 -0.0601
 5124TIP3    H115378   3.309   5.722   0.254 -0.0650 -1.6827 -0.1480
 5124TIP3    H215379   3.189   5.739   0.163 -0.0745 -0.3454  0.0846
 5125TIP3   OH215380   5.786   2.925   2.114 -0.3635 -0.5434  0.2235
 5125TIP3    H115381   5.865   2.968   2.082 -0.6123  0.4852  0.9358
 5125TIP3    H215382   5.779   2.845   2.062  0.7941 -0.3346 -0.2778
 5126TIP3   OH215383   1.922   3.404   4.945  0.0218 -0.0730 -0.4335
 5126TIP3    H115384   1.867   3.461   4.998  0.0861 -0.7178  0.3391
 5126TIP3    H215385   1.861   3.357   4.889 -0.1844 -0.5643  0.2065
 5127TIP3   OH215386   2.905   3.198   2.717  0.4780  0.2515  0.4770
 5127TIP3    H115387   2.850   3.136   2.766 -1.2343  0.4637 -1.0415
 5127TIP3    H215388   2.865   3.284   2.734  1.8364  0.7510  1.2613
 5128TIP3   OH215389   3.040   0.701   4.045 -0.2274 -0.0974  0.4080
 5128TIP3    H115390   2.986   0.658   4.112  0.9560  0.5829  1.8574
 5128TIP3    H215391   3.072   0.781   4.087 -0.7657  1.2253 -1.5589
 5129TIP3   OH215392   5.356   4.754   1.772 -0.2223 -0.1211 -0.0643
 5129TIP3    H115393   5.434   4.778   1.722 -1.4930  1.2236 -1.5157
 5129TIP3    H215394   5.386   4.751   1.863  1.3896  0.9291 -0.5204
 5130TIP3   OH215395   2.435   2.732   2.670 -0.1270  0.3461  0.0710
 5130TIP3    H115396   2.489   2.782   2.609 -0.8070  0.4666 -0.4388
 5130TIP3    H215397   2.347   2.734   2.633 -0.2226 -1.0477  0.1372
 5131TIP3   OH215398   1.765   5.295   4.805  0.1726  0.4069 -0.2463
 5131TIP3    H115399   1.720   5.236   4.744  0.2010 -1.4364  1.4134
 5131TIP3    H215400   1.697   5.325   4.865  0.2238  1.8668 -0.8811
 5132TIP3   OH215401   0.723   5.580   0.452 -0.0116 -0.4123 -0.1773
 5132TIP3    H115402   0.753   5.600   0.363  0.1008  0.9180  0.1385
 5132TIP3    H215403   0.800   5.545   0.495  0.5853  1.0547  0.0239
 5133TIP3   OH215404   5.644   5.126   3.830  0.0586  0.9320 -0.2300
 5133TIP3    H115405   5.728   5.130   3.784 -0.7882 -1.4428 -2.2068
 5133TIP3    H215406   5.658   5.062   3.900 -0.7152 -1.7132 -2.3208
 5134TIP3   OH215407   5.396   3.269   4.884 -0.0728  0.0447  0.3089
 5134TIP3    H115408   5.397   3.248   4.977 -1.1155 -2.0784 -0.0980
 5134TIP3    H215409   5.312   3.312   4.869  0.0626  0.3184  0.3332
 5135TIP3   OH215410   3.101   0.210   3.824  0.1913  0.1846 -0.3504
 5135TIP3    H115411   3.145   0.236   3.904  1.2165  0.3262 -0.9442
 5135TIP3    H215412   3.130   0.273   3.758 -2.3504  1.4477 -0.3897
 5136TIP3   OH215413   0.928   3.089   2.985 -0.1028  0.5852 -0.1883
 5136TIP3    H115414   0.967   3.073   3.071 -2.0533 -0.9536  0.4932
 5136TIP3    H215415   0.991   3.053   2.923  0.2869 -0.4139  0.7590
 5137TIP3   OH215416   2.191   4.465   2.444 -1.1064  0.2211 -0.3852
 5137TIP3    H115417   2.134   4.497   2.513  1.4843  1.2073  1.4786
 5137TIP3    H215418   2.193   4.370   2.457 -0.5901  0.3964  1.0261
 5138TIP3   OH215419   5.373   3.606   2.738  0.2163  0.4424 -0.3637
 5138TIP3    H115420   5.323   3.636   2.661 -1.3462  2.8513  1.4317
 5138TIP3    H215421   5.325   3.529   2.768  0.8565 -0.5419 -1.7742
 5139TIP3   OH215422   4.261   1.985   4.246  0.0056  0.1707  0.6702
 5139TIP3    H115423   4.356   1.999   4.242  0.0617  0.7185  2.6826
 5139TIP3    H215424   4.251   1.889   4.243  0.7188  0.0570  1.4970
 5140TIP3   OH215425   5.360   0.485   2.198 -0.1476  0.1967 -0.1426
 5140TIP3    H115426   5.275   0.528   2.207  0.1179  0.7144 -0.0482
 5140TIP3    H215427   5.365   0.425   2.272 -0.3105  0.3775  0.0168
 5141TIP3   OH215428   2.995   4.990   0.798 -0.0806  0.2190 -0.3963
 5141TIP3    H115429   3.029   4.917   0.747  3.3306  0.8268  0.7281
 5141TIP3    H215430   2.942   4.949   0.866 -0.1110 -0.9971 -1.1159
 5142TIP3   OH215431   4.155   2.635   4.764 -0.3750  1.1765 -0.1852
 5142TIP3    H115432   4.235   2.642   4.712  0.0203 -1.0812  0.0245
 5142TIP3    H215433   4.177   2.674   4.848  1.6606 -2.1216  1.0158
 5143TIP3   OH215434   2.114   0.707   0.156 -0.5522 -0.2083 -0.1749
 5143TIP3    H115435   2.038   0.760   0.134 -0.0615  0.1053 -1.1665
 5143TIP3    H215436   2.083   0.649   0.226 -0.9547  1.7100  1.3285
 5144TIP3   OH215437   5.354   3.766   2.962 -0.6089 -0.4000  0.0562
 5144TIP3    H115438   5.417   3.719   2.908  0.1431  0.1185  0.4673
 5144TIP3    H215439   5.341   3.711   3.039 -3.0442 -2.0357 -1.3669
 5145TIP3   OH215440   5.371   0.044   3.985  0.2316  0.0104  0.1498
 5145TIP3    H115441   5.350   0.121   3.933  0.0510 -1.1744 -1.6322
 5145TIP3    H215442   5.287   0.002   4.002  0.3531  0.0321  0.8225
 5146TIP3   OH215443   3.507   5.914   2.377  0.0260 -0.0684  0.4175
 5146TIP3    H115444   3.574   5.852   2.405  0.6849 -0.0533 -1.0450
 5146TIP3    H215445   3.483   5.885   2.289  0.3562  1.7204 -0.3135
 5147TIP3   OH215446   0.663   0.211   3.533  0.3968 -0.2581  0.2411
 5147TIP3    H115447   0.743   0.237   3.579  1.0764 -0.5093 -0.7693
 5147TIP3    H215448   0.651   0.278   3.466 -0.6532  0.1729  0.8292
 5148TIP3   OH215449   0.454   4.781   3.786  0.0075  0.4807  1.0154
 5148TIP3    H115450   0.529   4.819   3.741 -0.0599  0.2746  0.7231
 5148TIP3    H215451   0.488   4.756   3.872  0.5438 -0.5267  0.5317
 5149TIP3   OH215452   0.934   4.185   0.221  0.0649 -0.1670 -0.1929
 5149TIP3    H115453   1.003   4.126   0.191 -0.6601  0.1602 -2.8309
 5149TIP3    H215454   0.870   4.128   0.263  0.4069 -0.9450 -0.7082
 5150TIP3   OH215455   4.048   1.642   4.555 -0.6954  0.0592 -0.0053
 5150TIP3    H115456   3.981   1.710   4.553 -0.5248  0.3144  1.6219
 5150TIP3    H215457   4.051   1.613   4.646  1.0670 -0.2778 -0.1208
 5151TIP3   OH215458   1.120   4.998   3.799  0.2304  0.3700  0.3728
 5151TIP3    H115459   1.117   4.948   3.881  0.7250  1.4428  1.0644
 5151TIP3    H215460   1.076   4.941   3.735 -1.3480  0.0654  1.6614
 5152TIP3   OH215461   0.437   4.221   0.009  0.1640 -0.1276 -0.4563
 5152TIP3    H115462   0.342   4.223   0.021  0.2541  1.3689  0.2433
 5152TIP3    H215463   0.472   4.214   0.098  0.7290  0.2063 -0.6513
 5153TIP3   OH215464   0.523   1.272   4.315  0.5311  0.6041 -0.4889
 5153TIP3    H115465   0.482   1.204   4.368  0.7232  1.4055  0.7280
 5153TIP3    H215466   0.604   1.294   4.361  1.5289  0.2403 -1.9584
 5154TIP3   OH215467   5.314   1.756   1.161 -0.2995 -0.0387 -0.5105
 5154TIP3    H115468   5.268   1.810   1.225 -1.7857 -0.5761 -1.0840
 5154TIP3    H215469   5.275   1.781   1.077  1.0070  0.0246 -1.1157
 5155TIP3   OH215470   3.585   0.541   2.135  0.4788 -0.3898 -0.5046
 5155TIP3    H115471   3.610   0.478   2.202  2.7512  1.6014  0.6671
 5155TIP3    H215472   3.602   0.495   2.052  0.9694 -1.7127  0.2902
 5156TIP3   OH215473   2.613   4.240   0.256  0.1913  0.2156  0.7523
 5156TIP3    H115474   2.597   4.214   0.165  1.2697  0.5399  0.4545
 5156TIP3    H215475   2.681   4.307   0.250 -1.5114  2.1357  1.5940
 5157TIP3   OH215476   0.255   0.437   0.495 -0.0933 -0.1213  0.4576
 5157TIP3    H115477   0.273   0.402   0.582 -2.1098 -0.0706  0.9261
 5157TIP3    H215478   0.190   0.377   0.458  0.5893 -0.0356 -0.9619
 5158TIP3   OH215479   6.213   1.451   2.921  0.2144 -0.0798  0.4036
 5158TIP3    H115480   6.190   1.358   2.929  0.5557 -0.2808 -0.6897
 5158TIP3    H215481   6.202   1.470   2.827  1.4910  0.6205  0.3746
 5159TIP3   OH215482   3.605   3.776   2.430  0.1387  0.8738 -0.5721
 5159TIP3    H115483   3.536   3.826   2.388  0.3496  2.1110  0.4994
 5159TIP3    H215484   3.559   3.709   2.481 -0.2453  1.2853 -0.3756
 5160TIP3   OH215485   5.617   2.120   4.800  0.2723 -0.3563 -0.3507
 5160TIP3    H115486   5.650   2.042   4.846 -1.3673 -2.0849 -1.9543
 5160TIP3    H215487   5.529   2.132   4.834  0.0285 -0.0307 -1.0790
 5161TIP3   OH215488   3.209   3.560   0.330 -0.1446  0.0813 -0.2853
 5161TIP3    H115489   3.159   3.544   0.249 -0.3780  0.3522 -0.1977
 5161TIP3    H215490   3.146   3.603   0.388  0.1756  0.3756 -0.1526
 5162TIP3   OH215491   3.852   1.829   4.519 -0.1886 -0.2883  0.3113
 5162TIP3    H115492   3.794   1.830   4.443  1.6832  0.5167 -1.1821
 5162TIP3    H215493   3.802   1.874   4.587 -2.1831 -1.6300 -0.1732
 5163TIP3   OH215494   0.624   2.715   1.506  0.1184  0.1970  0.9761
 5163TIP3    H115495   0.697   2.777   1.508 -0.6144  1.1570 -0.3116
 5163TIP3    H215496   0.545   2.770   1.507 -0.5815 -0.4747 -2.3656
 5164TIP3   OH215497   2.967   4.536   1.751  0.0742  0.8927 -0.6090
 5164TIP3    H115498   3.040   4.547   1.690  0.6222 -0.4549 -0.2341
 5164TIP3    H215499   2.902   4.487   1.702  0.5107 -0.1837 -0.1356
 5165TIP3   OH215500   3.566   1.285   1.868  0.5805 -0.1908 -0.1970
 5165TIP3    H115501   3.554   1.272   1.774  1.6406 -0.5776 -0.2925
 5165TIP3    H215502   3.490   1.242   1.908  1.1422 -1.8452 -0.7903
 5166TIP3   OH215503   2.723   1.720   1.498  0.3149  0.0684  0.1903
 5166TIP3    H115504   2.655   1.719   1.565 -0.6862 -0.0034 -0.7986
 5166TIP3    H215505   2.713   1.805   1.455  1.1205  0.2240  0.2946
 5167TIP3   OH215506   0.817   4.006   2.092  0.8539  0.3669  0.0602
 5167TIP3    H115507   0.844   4.016   2.183  1.0415 -2.5984  0.4430
 5167TIP3    H215508   0.737   3.954   2.097  0.5286  0.6822 -1.4718
 5168TIP3   OH215509   1.006   2.816   3.953 -0.3070  0.5366 -0.1555
 5168TIP3    H115510   0.975   2.730   3.979  1.0650  0.0318 -0.1009
 5168TIP3    H215511   1.100   2.805   3.942 -0.1504  1.9642 -0.4270
 5169TIP3   OH215512   4.585   3.597   0.960 -0.5133 -0.2588  0.5683
 5169TIP3    H115513   4.650   3.594   1.031 -0.1297 -0.3029  0.2155
 5169TIP3    H215514   4.617   3.664   0.901  0.0028 -1.3132 -0.3764
 5170TIP3   OH215515   2.455   2.150   3.390  0.4138  0.7177 -0.3304
 5170TIP3    H115516   2.416   2.196   3.464 -1.6275 -1.9277  0.3867
 5170TIP3    H215517   2.527   2.100   3.428  0.8478  1.1365 -0.5901
 5171TIP3   OH215518   2.783   4.908   4.189 -0.2250  0.3149 -0.2420
 5171TIP3    H115519   2.827   4.929   4.106 -3.1910  1.5473 -1.6866
 5171TIP3    H215520   2.801   4.984   4.245 -0.6060  0.8892 -0.8735
 5172TIP3   OH215521   0.509   3.940   2.421  0.3166 -0.0561 -0.2574
 5172TIP3    H115522   0.561   3.954   2.500 -0.5154 -0.5672  0.4034
 5172TIP3    H215523   0.548   3.862   2.381 -0.2460 -0.7649  0.5267
 5173TIP3   OH215524   3.173   5.436   2.579 -0.0065 -0.2178  0.4029
 5173TIP3    H115525   3.144   5.347   2.600 -0.2364 -0.6633 -1.5308
 5173TIP3    H215526   3.239   5.456   2.645  0.7557 -2.2208  0.3276
 5174TIP3   OH215527   2.834   4.154   4.740  0.4139 -0.2505 -0.4327
 5174TIP3    H115528   2.818   4.092   4.669  1.2306 -0.8525 -0.1055
 5174TIP3    H215529   2.853   4.237   4.696  2.2631 -0.9168 -1.0053
 5175TIP3   OH215530   0.972   2.680   0.372  0.9282 -0.4767  0.6277
 5175TIP3    H115531   0.972   2.606   0.433 -1.0174 -0.9369  0.1199
 5175TIP3    H215532   0.889   2.674   0.326  0.1506  2.7054  1.3789
 5176TIP3   OH215533   0.320   0.534   5.013  0.3063  0.0441  0.2521
 5176TIP3    H115534   0.304   0.606   4.952 -0.2288 -0.5674 -0.3491
 5176TIP3    H215535   0.244   0.534   5.071 -0.1049 -0.5497 -0.2749
 5177TIP3   OH215536   1.168   3.119   4.194 -0.2872  0.1907 -0.4102
 5177TIP3    H115537   1.214   3.197   4.163 -0.0183  0.6887  1.1726
 5177TIP3    H215538   1.102   3.153   4.255 -1.5964 -0.6603 -1.3052
 5178TIP3   OH215539   0.104   3.545   0.802 -0.5553  0.4948 -0.1929
 5178TIP3    H115540   0.017   3.509   0.782 -0.2898 -1.6251  1.9978
 5178TIP3    H215541   0.165   3.481   0.764 -0.0210  0.3705  0.8362
 5179TIP3   OH215542   4.427   0.358   2.504  0.6139  0.1435 -0.3905
 5179TIP3    H115543   4.445   0.377   2.596 -1.0162 -0.2579  0.0311
 5179TIP3    H215544   4.441   0.442   2.460  1.0562  0.4266  0.2723
 5180TIP3   OH215545   3.624   3.688   0.951 -0.0259  0.2262 -0.3615
 5180TIP3    H115546   3.669   3.770   0.969  1.4886  0.0213 -2.8294
 5180TIP3    H215547   3.664   3.655   0.871 -1.6282 -2.1879 -0.2804
 5181TIP3   OH215548   3.636   0.050   2.215 -0.1759 -0.3876 -0.0973
 5181TIP3    H115549   3.654   0.036   2.308 -2.0001  1.2190  0.5726
 5181TIP3    H215550   3.687  -0.018   2.170  3.0164  0.5072  1.8312
 5182TIP3   OH215551   2.774   2.637   2.884  0.6212 -0.6284  0.0249
 5182TIP3    H115552   2.806   2.568   2.941 -1.3621 -1.5610  0.1121
 5182TIP3    H215553   2.692   2.602   2.848 -0.2138  1.4918 -0.2860
 5183TIP3   OH215554   6.086   4.925   1.214  0.0705 -0.2287 -0.9461
 5183TIP3    H115555   6.087   5.008   1.262  1.7509 -0.5972 -0.2822
 5183TIP3    H215556   6.124   4.946   1.129  2.0466 -0.6026 -0.1977
 5184TIP3   OH215557   0.586   1.990   4.728 -0.0954  0.5605  0.0482
 5184TIP3    H115558   0.533   1.911   4.722  0.0477  0.5625 -2.0535
 5184TIP3    H215559   0.618   1.991   4.818 -0.9278 -1.2155  0.4066
 5185TIP3   OH215560   0.568   5.553   0.823  0.0966  0.6357  0.0440
 5185TIP3    H115561   0.575   5.596   0.908 -1.4917  0.6852  0.1681
 5185TIP3    H215562   0.645   5.496   0.819  2.3270  3.4245 -0.1393
 5186TIP3   OH215563   0.140   0.206   0.956 -0.3612  0.0445  0.1877
 5186TIP3    H115564   0.049   0.206   0.986 -0.6954 -0.1846 -0.7729
 5186TIP3    H215565   0.162   0.113   0.947 -0.0101  0.0984  0.4632
 5187TIP3   OH215566   0.024   1.270   0.572 -0.2600 -0.4621  0.6871
 5187TIP3    H115567   0.090   1.339   0.586 -2.0189  1.4101  0.3049
 5187TIP3    H215568   0.018   1.225   0.656  1.3307 -0.5490  0.7893
 5188TIP3   OH215569   5.462   2.539   0.056  0.0557  0.0253  0.3473
 5188TIP3    H115570   5.550   2.556   0.022  0.7869 -0.9179  1.6937
 5188TIP3    H215571   5.463   2.575   0.145 -1.1292  0.5523  0.1714
 5189TIP3   OH215572   3.167   3.280   1.171  0.7424  0.1272  0.2660
 5189TIP3    H115573   3.144   3.357   1.222 -0.3093  0.3043 -0.4519
 5189TIP3    H215574   3.196   3.314   1.086  2.0910 -0.1877  0.5639
 5190TIP3   OH215575   4.892   1.298   2.491 -0.3536 -0.6691  0.1101
 5190TIP3    H115576   4.924   1.230   2.550 -1.1780 -2.3015 -1.2225
 5190TIP3    H215577   4.969   1.350   2.470  0.1101 -0.5533  1.9231
 5191TIP3   OH215578   3.259   3.361   0.900  0.0584  0.2946  0.1007
 5191TIP3    H115579   3.311   3.291   0.860  1.2861  1.7132 -0.9067
 5191TIP3    H215580   3.324   3.412   0.949 -0.4506  1.8513 -0.8049
 5192TIP3   OH215581   1.069   3.182   5.062 -0.5614  0.3614 -0.3674
 5192TIP3    H115582   1.157   3.215   5.043  0.3954 -0.9041  1.5786
 5192TIP3    H215583   1.025   3.256   5.103 -0.5026  1.0669 -1.5200
 5193TIP3   OH215584   5.222   3.804   3.630  0.0149  0.2614 -0.0095
 5193TIP3    H115585   5.165   3.805   3.707 -0.7207 -0.7750 -0.5182
 5193TIP3    H215586   5.199   3.723   3.584  3.3007 -1.2729  0.8140
 5194TIP3   OH215587   0.985   5.417   3.068  0.3922 -0.3831 -0.1630
 5194TIP3    H115588   0.947   5.404   2.981 -0.3632  0.1260  0.0741
 5194TIP3    H215589   1.064   5.363   3.068  0.7959  0.1569 -1.4114
 5195TIP3   OH215590   3.534   2.693   0.145 -0.1078 -0.3183 -0.1040
 5195TIP3    H115591   3.467   2.747   0.188  0.2006 -0.1618  0.1856
 5195TIP3    H215592   3.593   2.757   0.105  0.0915 -0.4457 -0.0152
 5196TIP3   OH215593   5.236   2.275   0.859  0.0595  0.2495  0.4199
 5196TIP3    H115594   5.226   2.370   0.853 -0.5834  0.2617  1.5258
 5196TIP3    H215595   5.211   2.244   0.772 -0.5161  1.0348  0.2892
 5197TIP3   OH215596   3.190   4.848   2.680  0.4065 -0.3743  0.3753
 5197TIP3    H115597   3.231   4.762   2.670 -0.8598 -1.0123  0.4781
 5197TIP3    H215598   3.204   4.890   2.595  1.2083 -0.5953  0.3859
 5198TIP3   OH215599   2.525   0.146   4.353  0.8146 -0.2459 -0.0799
 5198TIP3    H115600   2.502   0.135   4.260  1.0929 -0.9002 -0.0814
 5198TIP3    H215601   2.444   0.125   4.400  0.8588 -0.5865 -0.1525
 5199TIP3   OH215602   1.258   5.420   3.836  0.6847  0.2606 -0.1700
 5199TIP3    H115603   1.183   5.367   3.806  1.0347 -0.8913  0.8943
 5199TIP3    H215604   1.265   5.490   3.771 -1.8376  0.9033  0.1504
 5200TIP3   OH215605   5.756   0.344   2.245 -0.0872  0.0438 -0.4708
 5200TIP3    H115606   5.757   0.429   2.289  0.2585  0.1982 -0.7717
 5200TIP3    H215607   5.707   0.360   2.164 -0.9925 -0.3140 -0.0025
 5201TIP3   OH215608   1.087   2.010   0.295 -0.1862  0.3347  0.2492
 5201TIP3    H115609   0.998   2.031   0.266 -0.3869 -0.4875  0.2458
 5201TIP3    H215610   1.079   1.924   0.336  0.2543  1.0742  1.9758
 5202TIP3   OH215611   6.181   0.196   3.106 -0.0305  0.1702 -0.1239
 5202TIP3    H115612   6.177   0.225   3.197  0.5440  0.6269 -0.2426
 5202TIP3    H215613   6.267   0.156   3.097 -0.9958 -2.1740  0.1887
 5203TIP3   OH215614   4.607   4.383   4.228 -0.2445  0.1805 -0.3872
 5203TIP3    H115615   4.613   4.306   4.171 -0.3514 -0.0039 -0.1501
 5203TIP3    H215616   4.519   4.417   4.213  0.4191  1.3811 -1.9275
 5204TIP3   OH215617   2.151   2.471   5.111  0.3907 -0.4939  0.0621
 5204TIP3    H115618   2.083   2.410   5.141  0.1776 -0.6348 -0.6806
 5204TIP3    H215619   2.103   2.541   5.067  0.7082 -0.4397 -0.2027
 5205TIP3   OH215620   0.039   4.919   2.513 -0.5951  0.4777  0.0919
 5205TIP3    H115621  -0.027   4.909   2.581 -0.2400  0.6627  0.4726
 5205TIP3    H215622  -0.010   4.918   2.431 -0.8046 -1.9772  0.2001
 5206TIP3   OH215623   4.492   5.555   3.508  0.0798 -0.4532  0.0267
 5206TIP3    H115624   4.473   5.498   3.583 -0.9554 -0.9096 -0.5596
 5206TIP3    H215625   4.504   5.495   3.435  0.4401  0.0219 -0.3108
 5207TIP3   OH215626   5.381   1.261   1.280  0.0106 -0.3139 -0.2550
 5207TIP3    H115627   5.314   1.265   1.211  1.1315 -0.0519 -1.3544
 5207TIP3    H215628   5.349   1.194   1.340 -1.4866  0.1586 -0.4834
 5208TIP3   OH215629   3.936   1.776   4.234  0.5864  0.1198  0.1020
 5208TIP3    H115630   3.850   1.820   4.229  0.2355 -0.2483  1.9910
 5208TIP3    H215631   3.958   1.779   4.327  1.8123 -1.3498 -0.1083
 5209TIP3   OH215632   6.126   0.348   1.907 -0.8123  0.1575 -0.1576
 5209TIP3    H115633   6.119   0.348   2.003 -0.6926  0.1427 -0.1493
 5209TIP3    H215634   6.048   0.300   1.878 -0.9917  0.4022 -0.0783
 5210TIP3   OH215635   5.824   1.623   0.392 -0.1083  0.3370  0.3513
 5210TIP3    H115636   5.780   1.608   0.308 -0.4303 -1.5177  0.8169
 5210TIP3    H215637   5.753   1.620   0.457  0.5036 -1.3590  0.9795
 5211TIP3   OH215638   5.199   2.685   1.734  0.2131 -0.5454 -0.2202
 5211TIP3    H115639   5.162   2.658   1.651 -2.0793  0.3730  0.4217
 5211TIP3    H215640   5.288   2.714   1.713 -0.9459  1.5517 -2.7267
 5212TIP3   OH215641   5.179   1.340   4.497 -0.0263 -0.5345 -0.0966
 5212TIP3    H115642   5.187   1.371   4.407 -2.1196 -0.8413 -0.4274
 5212TIP3    H215643   5.232   1.260   4.500 -0.7444 -1.0697 -1.3431
 5213TIP3   OH215644   2.279   3.666   3.200 -0.2663 -0.5633  0.2047
 5213TIP3    H115645   2.248   3.653   3.110  0.7716 -1.0897 -0.0932
 5213TIP3    H215646   2.228   3.740   3.232 -0.6216 -0.3382 -0.8344
 5214TIP3   OH215647   6.126   3.782   2.737  0.1884  0.2388  0.0763
 5214TIP3    H115648   6.061   3.797   2.668  1.7131  0.0071 -1.4730
 5214TIP3    H215649   6.110   3.693   2.765  1.4122 -0.7868 -2.1624
 5215TIP3   OH215650   4.510   4.812   4.781  0.7594 -0.2182 -0.0930
 5215TIP3    H115651   4.534   4.746   4.846 -2.6475 -0.6300  0.9658
 5215TIP3    H215652   4.478   4.762   4.706 -0.0364  0.2057 -0.0506
 5216TIP3   OH215653   0.547   4.677   0.716 -0.2879  0.9517  0.2696
 5216TIP3    H115654   0.610   4.726   0.768  0.5365 -2.1886  2.5401
 5216TIP3    H215655   0.469   4.671   0.770 -0.2042 -0.5204  0.2866
 5217TIP3   OH215656   5.151   2.985   5.117 -0.1648  0.1740 -0.3990
 5217TIP3    H115657   5.169   2.903   5.162 -0.5925  1.5964  2.6621
 5217TIP3    H215658   5.162   2.965   5.024 -2.1470 -3.8073  0.0163
 5218TIP3   OH215659   2.551   3.252   0.973  0.0371 -0.0232  0.5062
 5218TIP3    H115660   2.603   3.309   0.916  0.7555  0.2772  1.4395
 5218TIP3    H215661   2.513   3.188   0.914  0.4078  0.5443 -0.3732
 5219TIP3   OH215662   5.632   0.603   1.469  0.3285 -0.3609 -0.5627
 5219TIP3    H115663   5.592   0.595   1.556  0.0484  0.8266 -0.5711
 5219TIP3    H215664   5.712   0.654   1.484 -1.4223  2.9404 -1.4202
 5220TIP3   OH215665   2.846   2.175   1.973  0.6065 -0.3191  0.2165
 5220TIP3    H115666   2.805   2.232   1.908 -1.2399 -0.6918  0.9866
 5220TIP3    H215667   2.939   2.182   1.955  0.2127  0.1314 -2.0227
 5221TIP3   OH215668   0.397   5.043   0.408  0.3622 -0.1595 -0.2803
 5221TIP3    H115669   0.362   5.018   0.323 -0.7004  1.3346 -0.3237
 5221TIP3    H215670   0.378   5.137   0.415  1.1967 -0.0677  1.2423
 5222TIP3   OH215671   5.582   0.233   4.828 -0.5485  0.5670  0.2789
 5222TIP3    H115672   5.651   0.221   4.893  0.0227 -0.8002 -0.5331
 5222TIP3    H215673   5.623   0.282   4.757  0.1865 -1.7692 -1.0071
 5223TIP3   OH215674   5.648   4.583   4.564 -0.1217  0.0565 -0.2303
 5223TIP3    H115675   5.659   4.491   4.541 -1.5593  0.0693 -1.1069
 5223TIP3    H215676   5.644   4.583   4.660 -3.5161 -1.3240 -0.2277
 5224TIP3   OH215677   2.221   2.665   1.931  0.6040  0.2207 -0.1122
 5224TIP3    H115678   2.166   2.606   1.983 -2.0252  0.8931 -1.9129
 5224TIP3    H215679   2.204   2.752   1.967  0.1096  0.4820 -0.9460
 5225TIP3   OH215680   1.742   0.256   4.976  0.5370  0.0318 -0.3297
 5225TIP3    H115681   1.770   0.312   5.049 -0.1357 -1.2052  0.9248
 5225TIP3    H215682   1.819   0.203   4.956  0.2602 -0.7893  0.6470
 5226TIP3   OH215683   0.606   5.078   4.216 -0.2150  0.1570 -0.4224
 5226TIP3    H115684   0.644   5.076   4.128 -0.9326  2.1564 -0.8221
 5226TIP3    H215685   0.515   5.104   4.203 -1.0668 -1.9629  0.7394
 5227TIP3   OH215686   1.909   3.123   1.670 -0.2420 -0.0265 -0.3198
 5227TIP3    H115687   1.847   3.078   1.727  0.7135 -1.4491 -0.3512
 5227TIP3    H215688   1.866   3.125   1.584 -0.9224  0.4980  0.0215
 5228TIP3   OH215689   1.554   4.080   0.283  0.3222 -0.6308  0.4004
 5228TIP3    H115690   1.489   4.072   0.213 -0.2668  1.1066  0.6929
 5228TIP3    H215691   1.564   3.991   0.317 -0.6809 -1.2036 -0.7317
 5229TIP3   OH215692   2.743   3.266   4.989 -0.6814  0.1006 -0.0922
 5229TIP3    H115693   2.735   3.301   4.900 -0.3043  0.8805  0.1675
 5229TIP3    H215694   2.677   3.314   5.039  0.8977  1.6537  0.6091
 5230TIP3   OH215695   0.868   1.773   1.633  0.1343  0.2208  0.2450
 5230TIP3    H115696   0.907   1.755   1.719 -1.1185  1.6163  1.1643
 5230TIP3    H215697   0.803   1.704   1.622 -0.9980  1.0756  1.3144
 5231TIP3   OH215698   1.959   2.995   2.321 -0.0846 -0.5677  0.8990
 5231TIP3    H115699   1.981   2.940   2.246 -1.0318 -0.8664  0.8244
 5231TIP3    H215700   2.023   2.971   2.388  0.6508 -0.4328  0.2545
 5232TIP3   OH215701   2.032   5.280   0.086 -0.2770  0.2564  0.5893
 5232TIP3    H115702   2.107   5.336   0.105 -0.4113  0.7305 -0.2395
 5232TIP3    H215703   2.064   5.218   0.020 -1.2582  2.0558 -1.7044
 5233TIP3   OH215704   0.265   2.187   3.040 -0.3121 -0.1008  0.3536
 5233TIP3    H115705   0.233   2.271   3.006 -0.4867  0.1430  1.1016
 5233TIP3    H215706   0.252   2.193   3.134  0.2170 -0.7445  0.4732
 5234TIP3   OH215707   5.531   4.984   4.733  0.2653  0.6169  0.2035
 5234TIP3    H115708   5.612   5.029   4.709 -0.3938  1.6592 -0.1530
 5234TIP3    H215709   5.487   4.970   4.649 -0.3822  0.9801  0.4790
 5235TIP3   OH215710   0.604   0.039   1.972 -0.5413 -0.4574  0.0878
 5235TIP3    H115711   0.647   0.018   2.055  0.5147  1.2656  0.0055
 5235TIP3    H215712   0.527   0.089   1.996  1.4122  2.8344  0.0068
 5236TIP3   OH215713   4.745   2.161   1.854  0.2345 -0.1492  0.1573
 5236TIP3    H115714   4.825   2.214   1.855  1.2379 -1.4307 -2.7083
 5236TIP3    H215715   4.776   2.070   1.852 -1.2273 -0.6704 -1.3956
 5237TIP3   OH215716   5.876   0.720   1.345  0.0153 -0.5686  0.2606
 5237TIP3    H115717   5.857   0.698   1.254  1.4945 -2.0207  0.2634
 5237TIP3    H215718   5.837   0.807   1.357 -0.9575 -0.7135 -1.4823
 5238TIP3   OH215719   1.034   3.640   0.451 -0.3380 -0.0174  0.5126
 5238TIP3    H115720   0.963   3.585   0.484 -1.3466  0.2418 -1.1003
 5238TIP3    H215721   1.105   3.578   0.431 -0.4994 -0.4116  1.1498
 5239TIP3   OH215722   1.688   1.016   2.434 -0.3738 -0.0003 -0.6950
 5239TIP3    H115723   1.648   1.083   2.378 -1.8137 -0.9576 -0.8789
 5239TIP3    H215724   1.648   0.934   2.405  0.6296 -0.8163  0.1662
 5240TIP3   OH215725   1.772   0.025   1.546  0.4123 -0.3479  0.2584
 5240TIP3    H115726   1.726   0.060   1.470 -0.9171 -0.4229  0.9908
 5240TIP3    H215727   1.799   0.102   1.596  0.6542 -0.3094  0.0667
 5241TIP3   OH215728   0.468   3.995   1.925 -0.3507 -0.0680 -0.1255
 5241TIP3    H115729   0.534   4.030   1.866 -1.1178  0.8258 -0.4972
 5241TIP3    H215730   0.500   3.909   1.950  1.0409  0.4307 -0.1265
 5242TIP3   OH215731   5.044   5.580   0.032 -0.2657 -0.5183 -0.3984
 5242TIP3    H115732   5.010   5.554   0.117  2.2282 -0.9266  0.5828
 5242TIP3    H215733   5.054   5.498  -0.016  1.7090 -0.7862  0.3490
 5243TIP3   OH215734   2.711   5.717   2.449 -0.3883  0.3176 -1.0462
 5243TIP3    H115735   2.701   5.809   2.425  1.2321  0.2811 -2.0361
 5243TIP3    H215736   2.740   5.674   2.369  0.6975 -0.6794 -0.1604
 5244TIP3   OH215737   3.248   5.016   2.156  0.3822  0.3945  0.7000
 5244TIP3    H115738   3.213   4.948   2.099 -1.1680  1.4469  0.3317
 5244TIP3    H215739   3.249   5.095   2.102 -2.2744  1.7072  2.3443
 5245TIP3   OH215740   4.765   4.954   2.622  0.0466  0.2104  0.2681
 5245TIP3    H115741   4.774   5.021   2.689 -0.6487  1.6517 -1.0237
 5245TIP3    H215742   4.684   4.907   2.645 -0.2766  0.8067  0.3645
 5246TIP3   OH215743   2.715   5.342   0.546 -0.7425  0.1426 -0.4309
 5246TIP3    H115744   2.728   5.271   0.609  0.8006 -0.0822 -0.9678
 5246TIP3    H215745   2.782   5.327   0.479 -2.1174  0.5689 -1.9627
 5247TIP3   OH215746   4.499   2.548   0.587  0.3250 -0.0614  0.2329
 5247TIP3    H115747   4.537   2.468   0.552  0.7413  0.0732  0.3766
 5247TIP3    H215748   4.574   2.605   0.605 -0.0647  1.4096 -2.3270
 5248TIP3   OH215749   3.392   3.812   2.696  0.0977 -0.7500 -0.1924
 5248TIP3    H115750   3.364   3.789   2.785  0.3179 -0.8619 -0.1524
 5248TIP3    H215751   3.365   3.737   2.643  0.4392 -0.9167 -0.1317
 5249TIP3   OH215752   1.005   2.439   3.776 -0.0744  0.0458  0.6281
 5249TIP3    H115753   0.913   2.449   3.801 -0.0075 -0.7806  1.2282
 5249TIP3    H215754   1.038   2.370   3.833  0.8164  0.0550  0.1343
 5250TIP3   OH215755   0.823   2.083   1.274 -0.9835  0.3018  0.7050
 5250TIP3    H115756   0.853   2.007   1.225 -1.0929  0.8045 -0.1638
 5250TIP3    H215757   0.784   2.047   1.354  1.6852 -0.4096  1.8042
 5251TIP3   OH215758   3.121   2.354   3.623 -0.2348 -0.2483 -0.9338
 5251TIP3    H115759   3.215   2.348   3.641 -0.5240 -2.3207  0.1414
 5251TIP3    H215760   3.107   2.446   3.602  1.5993  0.6860  1.4627
 5252TIP3   OH215761   4.244   5.364   2.170  0.6685  0.0372  0.0304
 5252TIP3    H115762   4.332   5.347   2.204 -0.1864 -0.6597  2.0836
 5252TIP3    H215763   4.217   5.280   2.133 -0.1285 -0.6156  1.9478
 5253TIP3   OH215764   5.165   4.396   4.967 -0.9792 -0.7229 -0.3023
 5253TIP3    H115765   5.201   4.319   4.924  1.2640 -1.4453  2.5159
 5253TIP3    H215766   5.233   4.463   4.958 -1.8946  0.1752 -0.7111
 5254TIP3   OH215767   0.849   0.660   1.035  0.1793 -0.8052  0.0287
 5254TIP3    H115768   0.826   0.704   1.117 -0.2561 -0.9585 -0.0081
 5254TIP3    H215769   0.773   0.674   0.979  0.0637 -1.5612 -0.0029
 5255TIP3   OH215770   4.187   4.826   3.095 -0.2680  0.1681 -0.5428
 5255TIP3    H115771   4.212   4.889   3.026 -1.3065  0.5753 -0.5655
 5255TIP3    H215772   4.257   4.833   3.160 -1.4533  3.0906  0.5968
 5256TIP3   OH215773   3.022   4.556   0.245  0.5465 -0.4471 -0.2151
 5256TIP3    H115774   3.090   4.541   0.179  0.0642 -0.3530 -0.7365
 5256TIP3    H215775   3.008   4.470   0.285 -0.1555 -0.8216 -1.2093
 5257TIP3   OH215776   3.705   4.030   2.520  0.8863  0.2917  0.1505
 5257TIP3    H115777   3.704   3.944   2.477 -1.0177  0.3821 -0.0443
 5257TIP3    H215778   3.758   4.085   2.462  1.2727 -0.4701 -0.2435
 5258TIP3   OH215779   6.209   3.048   4.801 -0.6244 -0.6671 -0.0742
 5258TIP3    H115780   6.139   2.983   4.805 -0.4878 -0.8280 -0.2806
 5258TIP3    H215781   6.289   2.997   4.808 -0.5372 -0.4366  0.6826
 5259TIP3   OH215782   2.936   2.726   4.669  0.0144 -0.0095 -0.0802
 5259TIP3    H115783   2.858   2.763   4.628 -1.2305 -1.7342  0.6392
 5259TIP3    H215784   3.006   2.788   4.648 -1.3708  1.1515 -1.4441
 5260TIP3   OH215785   5.643   4.087   3.090  0.2699 -0.1003 -0.1083
 5260TIP3    H115786   5.572   4.069   3.151  0.0333 -0.7964 -0.5704
 5260TIP3    H215787   5.697   4.008   3.092 -0.3297 -0.5760 -1.5823
 5261TIP3   OH215788   6.172   2.670   2.404  0.4163 -0.0160 -0.1362
 5261TIP3    H115789   6.170   2.575   2.393  0.4245 -0.2398  1.4474
 5261TIP3    H215790   6.177   2.706   2.316  0.0500 -1.4806 -0.7683
 5262TIP3   OH215791   4.825   5.641   0.650  0.4949  0.4850  0.1684
 5262TIP3    H115792   4.748   5.660   0.596 -0.6430  0.4753  1.6826
 5262TIP3    H215793   4.863   5.563   0.611 -1.1067 -0.3461  0.1703
 5263TIP3   OH215794   0.812   3.652   2.627  0.6221 -0.0220  0.0467
 5263TIP3    H115795   0.900   3.617   2.643  0.8969  0.4463 -0.4182
 5263TIP3    H215796   0.768   3.582   2.578  1.3679  0.4847 -1.4067
 5264TIP3   OH215797   2.664   2.811   4.258 -0.4596  0.0108  0.1768
 5264TIP3    H115798   2.587   2.866   4.272 -0.9711 -0.5952 -0.2239
 5264TIP3    H215799   2.650   2.771   4.172 -0.0884 -0.7474  0.4613
 5265TIP3   OH215800   2.126   5.603   4.974  0.4862 -0.0343 -0.4810
 5265TIP3    H115801   2.173   5.558   5.044  0.4084 -1.5678 -1.3729
 5265TIP3    H215802   2.048   5.550   4.959  0.1541  0.6446 -1.2728
 5266TIP3   OH215803   0.863   2.374   0.194  0.2676 -0.1023  0.3772
 5266TIP3    H115804   0.791   2.312   0.191  1.1917 -1.2710  1.5070
 5266TIP3    H215805   0.822   2.457   0.221 -0.8484 -0.3882 -0.3582
 5267TIP3   OH215806   3.355   2.972   2.759 -0.4754  0.2208 -0.0898
 5267TIP3    H115807   3.262   2.954   2.748 -0.5729  1.1744 -1.0053
 5267TIP3    H215808   3.387   2.902   2.815 -1.2101 -1.5712 -1.8272
 5268TIP3   OH215809   1.359   4.309   3.040 -0.3691 -0.1333  0.3867
 5268TIP3    H115810   1.398   4.222   3.036  2.1154  0.9175 -0.5219
 5268TIP3    H215811   1.288   4.308   2.976 -0.3273 -1.4509  0.3528
 5269TIP3   OH215812   1.590   3.074   1.038  0.4058 -0.2878  0.3592
 5269TIP3    H115813   1.617   2.983   1.026  1.2636  0.0425 -0.3515
 5269TIP3    H215814   1.653   3.110   1.100  2.4735  0.7914 -2.1419
 5270TIP3   OH215815   0.629   0.841   1.520  0.1900 -0.1782  0.5922
 5270TIP3    H115816   0.569   0.827   1.593  0.1915 -1.1339  0.4132
 5270TIP3    H215817   0.716   0.840   1.560  0.1537  0.0197  0.6783
 5271TIP3   OH215818   2.397   3.684   1.572 -0.1813  0.0961 -0.2647
 5271TIP3    H115819   2.389   3.629   1.494  1.6473 -0.1683 -0.3221
 5271TIP3    H215820   2.359   3.768   1.546 -0.8831 -0.4258 -0.9580
 5272TIP3   OH215821   3.506   1.553   2.651 -0.1297 -0.0915  0.1234
 5272TIP3    H115822   3.449   1.497   2.598 -2.4088  0.2215  2.0787
 5272TIP3    H215823   3.507   1.637   2.604  0.8889 -0.8387 -1.2658
 5273TIP3   OH215824   0.185   2.682   1.794  0.4031  0.1783 -0.1205
 5273TIP3    H115825   0.244   2.694   1.719  1.7732 -0.9799  0.7155
 5273TIP3    H215826   0.146   2.596   1.780  0.8248 -0.1340  0.5867
 5274TIP3   OH215827   1.232   2.073   4.693  0.7664  0.0696  0.1475
 5274TIP3    H115828   1.226   2.098   4.601 -2.0523  0.7679  0.4467
 5274TIP3    H215829   1.176   2.135   4.739  0.6760 -1.3634  2.0986
 5275TIP3   OH215830   1.418   5.057   3.411  0.1584 -0.2757  0.7507
 5275TIP3    H115831   1.401   5.041   3.504 -1.2785 -1.4606  0.3190
 5275TIP3    H215832   1.385   5.146   3.396 -0.3955 -0.4005  1.1917
 5276TIP3   OH215833   4.823   0.972   0.903 -0.2940  0.0491 -0.2004
 5276TIP3    H115834   4.749   1.012   0.856 -0.6537 -1.8928 -1.3528
 5276TIP3    H215835   4.835   1.029   0.979 -0.8429  2.2792 -1.6745
 5277TIP3   OH215836   5.813   1.834   2.144 -0.3133  0.4651 -0.3294
 5277TIP3    H115837   5.811   1.745   2.180  1.5132  0.0553 -1.1046
 5277TIP3    H215838   5.858   1.825   2.060  0.9075  2.2630  0.0569
 5278TIP3   OH215839   1.068   0.226   3.250  0.0274 -0.3837  0.2285
 5278TIP3    H115840   1.110   0.304   3.213 -0.9542 -0.5016 -1.2464
 5278TIP3    H215841   0.998   0.206   3.188  1.9112 -4.0487 -0.9399
 5279TIP3   OH215842   5.644   2.527   3.422 -0.1910  0.3527 -0.2570
 5279TIP3    H115843   5.710   2.584   3.383  0.5261  0.5751  1.2263
 5279TIP3    H215844   5.609   2.578   3.496 -0.8402 -0.4229 -0.0155
 5280TIP3   OH215845   5.502   4.143   0.884 -0.6733  0.1899 -0.2491
 5280TIP3    H115846   5.564   4.073   0.862 -0.7610  0.3527 -1.0758
 5280TIP3    H215847   5.528   4.215   0.827 -2.5078 -0.2167 -1.6931
 5281TIP3   OH215848   4.088   4.650   2.564 -0.5478 -0.1964 -0.3688
 5281TIP3    H115849   4.166   4.674   2.616 -0.2487 -0.3728 -0.7353
 5281TIP3    H215850   4.036   4.596   2.623 -0.0961 -0.5895 -0.3282
 5282TIP3   OH215851   0.555   3.738   1.937  0.0445  0.1531  0.4110
 5282TIP3    H115852   0.609   3.659   1.934  0.5476  0.4993  0.1911
 5282TIP3    H215853   0.466   3.706   1.923 -0.1696 -0.7355  3.1674
 5283TIP3   OH215854   5.618   4.412   0.516  0.2151  0.0458  0.2210
 5283TIP3    H115855   5.596   4.334   0.466 -1.6966 -1.0317  2.5395
 5283TIP3    H215856   5.546   4.473   0.499  0.2108  0.1590  0.6270
 5284TIP3   OH215857   0.080   5.053   1.479 -0.4113  0.1901 -0.6434
 5284TIP3    H115858   0.145   5.090   1.539  0.6681  0.9754 -2.2234
 5284TIP3    H215859   0.121   5.059   1.393 -2.4805  0.4262 -1.6615
 5285TIP3   OH215860   4.686   0.244   1.948  0.1261 -0.4407 -0.0290
 5285TIP3    H115861   4.637   0.182   2.003  0.7707 -1.4271 -0.5385
 5285TIP3    H215862   4.667   0.329   1.987 -0.9091 -0.9306  0.6008
 5286TIP3   OH215863   6.330   0.579   1.959  0.2620  0.4779  0.0582
 5286TIP3    H115864   6.263   0.516   1.932 -0.4588  0.3292  2.0410
 5286TIP3    H215865   6.394   0.526   2.006 -1.3191  1.3538  3.4811
 5287TIP3   OH215866   2.627   1.620   3.973 -0.1869  0.3094  0.9047
 5287TIP3    H115867   2.651   1.611   4.066  1.6744 -0.7891  0.3676
 5287TIP3    H215868   2.661   1.706   3.948  1.4256 -0.3591  0.6904
 5288TIP3   OH215869   3.911   5.824   0.867  0.4442  0.5792  0.2310
 5288TIP3    H115870   3.950   5.869   0.792 -2.4266  4.4278  0.7362
 5288TIP3    H215871   3.847   5.764   0.828 -2.2219  3.6966 -0.7234
 5289TIP3   OH215872   4.000   5.967   2.100 -0.5135 -0.0889  0.3146
 5289TIP3    H115873   3.964   5.958   2.012 -0.4610  0.2152  0.2599
 5289TIP3    H215874   4.092   5.990   2.086 -0.5188  0.0170  0.4455
 5290TIP3   OH215875   4.267   5.805   1.184 -0.4816  0.2448 -0.2814
 5290TIP3    H115876   4.277   5.870   1.253 -1.0674  1.2040 -1.0808
 5290TIP3    H215877   4.276   5.720   1.229  0.2826  0.8631  0.7698
 5291TIP3   OH215878   3.632   2.081   3.541 -0.8138 -0.2319 -0.2656
 5291TIP3    H115879   3.614   1.989   3.519 -1.9738 -0.0720 -0.0602
 5291TIP3    H215880   3.595   2.092   3.629 -0.4873  0.3741 -0.1989
 5292TIP3   OH215881   0.953   2.936   0.500 -0.0809  0.0115  0.1290
 5292TIP3    H115882   0.883   2.983   0.454  0.6644 -0.0368 -1.0995
 5292TIP3    H215883   0.967   2.857   0.449  2.2934  1.0118 -0.9109
 5293TIP3   OH215884   3.032   0.531   2.771 -0.2077  0.4019 -0.0945
 5293TIP3    H115885   2.954   0.573   2.735 -0.5710  0.2102  0.4492
 5293TIP3    H215886   3.105   0.583   2.737 -0.6002  0.9235 -0.1606
 5294TIP3   OH215887   5.952   5.356   4.347 -0.3598 -0.4994 -0.4809
 5294TIP3    H115888   5.862   5.389   4.353 -0.5652 -1.1708  0.2541
 5294TIP3    H215889   5.993   5.382   4.429  0.0020 -0.5604 -0.6408
 5295TIP3   OH215890   2.912   0.146   2.930 -0.0682 -0.5991  0.5217
 5295TIP3    H115891   2.872   0.176   2.848 -1.6618  0.7537  1.7265
 5295TIP3    H215892   2.996   0.109   2.903  0.0662  1.0255 -1.5882
 5296TIP3   OH215893   1.862   1.967   2.367 -0.4786  0.4283  0.1793
 5296TIP3    H115894   1.941   1.996   2.413 -0.8676 -0.6641  1.5962
 5296TIP3    H215895   1.794   1.967   2.434 -0.9897 -1.5257 -0.2841
 5297TIP3   OH215896   3.761   1.785   3.668 -0.1108  0.0392  0.2144
 5297TIP3    H115897   3.818   1.761   3.741  0.9358 -0.1516 -0.6384
 5297TIP3    H215898   3.821   1.812   3.598 -1.1358  2.3436  0.1293
 5298TIP3   OH215899   2.166   3.159   2.016 -0.4820 -0.1432  0.4456
 5298TIP3    H115900   2.246   3.201   2.046 -1.8634  2.2553  1.0110
 5298TIP3    H215901   2.165   3.174   1.922  0.0437 -0.8229  0.3190
 5299TIP3   OH215902   5.501   5.542   3.459  0.1665 -0.0217 -0.8323
 5299TIP3    H115903   5.590   5.557   3.428  1.1929  0.6182  2.0962
 5299TIP3    H215904   5.478   5.621   3.507 -1.1172 -1.0409  0.3170
 5300TIP3   OH215905   4.217   1.291   3.769  0.3076  0.4353  0.0199
 5300TIP3    H115906   4.175   1.235   3.704  2.7339  0.0975 -1.3518
 5300TIP3    H215907   4.204   1.380   3.735  1.1891  0.2880 -0.7544
 5301TIP3   OH215908   2.517   0.270   0.434 -0.2859  0.1055 -0.1753
 5301TIP3    H115909   2.497   0.259   0.527 -1.2088 -1.3169 -0.5015
 5301TIP3    H215910   2.490   0.359   0.414  0.4138  0.6103  1.0253
 5302TIP3   OH215911   2.254   5.576   4.298 -0.2226 -0.8533 -0.1899
 5302TIP3    H115912   2.255   5.609   4.388 -0.1559  1.0757 -0.8518
 5302TIP3    H215913   2.313   5.501   4.299 -0.2480 -0.8849  1.3739
 5303TIP3   OH215914   5.437   2.731   4.091  0.2712 -0.0517 -0.1111
 5303TIP3    H115915   5.521   2.686   4.075  0.7397  0.8382 -0.2261
 5303TIP3    H215916   5.427   2.731   4.186 -0.5873 -1.9062 -0.1710
 5304TIP3   OH215917   0.490   2.221   4.630  0.0796  0.0440 -0.3829
 5304TIP3    H115918   0.433   2.251   4.701  1.2320 -0.1168  0.6648
 5304TIP3    H215919   0.512   2.131   4.655  0.9408  0.1750 -0.6448
 5305TIP3   OH215920   5.434   5.397   0.967 -0.7844 -0.5338 -0.4295
 5305TIP3    H115921   5.427   5.306   0.995 -2.4531 -0.1531  0.5585
 5305TIP3    H215922   5.524   5.407   0.937 -0.6605 -2.5771 -0.8475
 5306TIP3   OH215923   4.268   4.325   2.057 -0.5534  0.1208  0.2651
 5306TIP3    H115924   4.312   4.261   2.113  0.6603  1.1893  0.5877
 5306TIP3    H215925   4.180   4.332   2.093  0.3048  1.0664  2.3394
 5307TIP3   OH215926   1.315   1.600   3.240  0.2381  0.2308  0.7536
 5307TIP3    H115927   1.269   1.684   3.245 -0.1711  0.2423 -2.0933
 5307TIP3    H215928   1.248   1.537   3.216  1.2737 -0.0825 -1.5433
 5308TIP3   OH215929   5.888   5.014   0.102 -0.1870  0.2239 -0.7696
 5308TIP3    H115930   5.828   5.073   0.057 -1.0932 -1.9286 -2.5160
 5308TIP3    H215931   5.833   4.942   0.132  0.7186  0.6261  2.2063
 5309TIP3   OH215932   2.229   1.172   0.474  0.5507  0.7534 -0.2300
 5309TIP3    H115933   2.184   1.240   0.524 -1.0634 -0.9205  0.7218
 5309TIP3    H215934   2.181   1.168   0.391  1.7305  1.8979 -1.0042
 5310TIP3   OH215935   4.028   0.474   4.626 -0.2492  0.7119 -0.1591
 5310TIP3    H115936   4.105   0.531   4.621 -0.2739  0.8066  0.5239
 5310TIP3    H215937   4.056   0.392   4.584  0.1313  0.8434 -0.1625
 5311TIP3   OH215938   0.309   5.026   4.877  0.2847  0.5257 -0.2035
 5311TIP3    H115939   0.270   5.074   4.803 -3.3695  0.9852  1.8034
 5311TIP3    H215940   0.264   4.942   4.877 -0.1214  0.7093  1.7056
 5312TIP3   OH215941   0.987   5.450   4.590  0.5696 -0.5585 -0.7765
 5312TIP3    H115942   0.940   5.446   4.673 -1.9277 -0.3075 -2.0993
 5312TIP3    H215943   1.001   5.359   4.565 -0.8151 -0.6798 -1.1862
 5313TIP3   OH215944   5.325   3.641   0.953  0.8058  0.8746 -0.4754
 5313TIP3    H115945   5.390   3.692   1.002  0.6534  0.7672 -0.1578
 5313TIP3    H215946   5.356   3.644   0.862  0.6207  1.8058 -0.5211
 5314TIP3   OH215947   3.945   2.237   2.595 -0.0797  0.1169  0.6152
 5314TIP3    H115948   3.960   2.331   2.602  3.0921 -0.3079  0.7279
 5314TIP3    H215949   3.939   2.220   2.501  0.4940  0.2834  0.5496
 5315TIP3   OH215950   3.800   0.160   4.310  0.2115  0.0321 -0.0779
 5315TIP3    H115951   3.798   0.244   4.264 -0.1335  0.1366  0.1256
 5315TIP3    H215952   3.729   0.109   4.271 -0.0681  0.1144  0.3286
 5316TIP3   OH215953   1.162   2.765   2.116  0.0404  0.4216 -0.1136
 5316TIP3    H115954   1.130   2.684   2.077  0.9802 -0.0906  0.1551
 5316TIP3    H215955   1.109   2.834   2.076 -2.0598 -0.4579  1.0048
 5317TIP3   OH215956   4.501   4.847   0.375  0.5761 -0.5337  0.8524
 5317TIP3    H115957   4.553   4.927   0.366  1.8765 -1.3180  1.0862
 5317TIP3    H215958   4.481   4.820   0.285  1.0475 -0.5025  0.7335
 5318TIP3   OH215959   2.693   1.981   0.858  0.8225 -0.2792 -0.3757
 5318TIP3    H115960   2.717   2.070   0.885 -0.3261  0.0878 -0.5257
 5318TIP3    H215961   2.648   1.992   0.774 -0.4047 -0.8596  0.1790
 5319TIP3   OH215962   6.283   1.451   5.016 -0.0111  0.1552 -0.2436
 5319TIP3    H115963   6.362   1.500   4.991  0.4481  0.3589  1.4825
 5319TIP3    H215964   6.225   1.458   4.940  0.9689  1.4337 -0.9073
 5320TIP3   OH215965   4.218   4.063   3.357  0.0393 -0.3950 -0.4643
 5320TIP3    H115966   4.124   4.059   3.343  0.1834 -2.4002 -1.1467
 5320TIP3    H215967   4.254   4.086   3.271  0.2608 -1.5008 -0.6825
 5321TIP3   OH215968   5.147   1.037   3.604  0.0694  0.3302 -0.2900
 5321TIP3    H115969   5.092   1.109   3.635 -0.0069  0.4802 -0.7623
 5321TIP3    H215970   5.148   0.974   3.677 -2.0202 -0.4070 -0.8260
 5322TIP3   OH215971   3.096   1.427   1.525  0.8182 -0.2743  0.1748
 5322TIP3    H115972   3.136   1.462   1.446  1.3845 -0.9631  0.1451
 5322TIP3    H215973   3.036   1.359   1.494  1.4346 -0.9155  0.3523
 5323TIP3   OH215974   5.707   3.661   1.215 -0.0397  0.3701 -0.2986
 5323TIP3    H115975   5.646   3.587   1.217  0.0647  0.2714 -0.8183
 5323TIP3    H215976   5.768   3.641   1.145 -0.6393  1.4445 -1.1564
 5324TIP3   OH215977   0.521   3.553   3.254  0.1567 -0.4238 -0.0693
 5324TIP3    H115978   0.456   3.490   3.223  0.7062 -1.2336  0.3797
 5324TIP3    H215979   0.605   3.516   3.225  0.4503  0.4297 -0.3470
 5325TIP3   OH215980   0.110   4.126   4.530  0.0518 -0.1570  0.2574
 5325TIP3    H115981   0.098   4.201   4.472  0.3763  0.0342  0.4297
 5325TIP3    H215982   0.200   4.097   4.512  0.3313  0.2113  1.0137
 5326TIP3   OH215983   4.085   3.151   5.162 -0.1166  0.1464 -0.3176
 5326TIP3    H115984   4.107   3.096   5.087  2.1386  0.7317 -0.1487
 5326TIP3    H215985   3.993   3.131   5.180 -0.3840 -0.8593 -2.4939
 5327TIP3   OH215986   4.678   1.459   0.574  0.0869  0.4218  0.2707
 5327TIP3    H115987   4.593   1.471   0.532  1.1086  2.5452 -1.3831
 5327TIP3    H215988   4.677   1.520   0.648  0.8016  1.9575 -0.9114
 5328TIP3   OH215989   3.805   4.431   0.147 -0.2397  0.6695 -0.2713
 5328TIP3    H115990   3.889   4.442   0.190 -1.0828  1.6661  1.2016
 5328TIP3    H215991   3.793   4.336   0.142  0.6753  0.5268  0.0872
 5329TIP3   OH215992   1.220   4.170   4.367 -0.3877  0.1265  0.0830
 5329TIP3    H115993   1.176   4.098   4.321 -0.3000  1.0315 -1.5067
 5329TIP3    H215994   1.311   4.143   4.373 -0.5056 -0.2460  0.2493
 5330TIP3   OH215995   2.719   2.413   1.380  0.7068  0.5308  0.1471
 5330TIP3    H115996   2.769   2.344   1.423  1.2295 -0.1284 -1.4284
 5330TIP3    H215997   2.782   2.453   1.319 -0.0858  1.1968 -0.2476
 5331TIP3   OH215998   6.299   0.562   1.577  0.1406 -0.3515  0.0115
 5331TIP3    H115999   6.363   0.589   1.511 -0.1608 -0.3299 -0.2758
 5331TIP3    H216000   6.221   0.615   1.559 -0.1547 -0.7820 -0.0084
 5332TIP3   OH216001   3.014   5.504   0.123  0.5614  0.3933  0.0184
 5332TIP3    H116002   3.047   5.560   0.053 -0.8896 -3.0868 -3.8872
 5332TIP3    H216003   3.076   5.430   0.125 -0.3391 -0.3694  1.3061
 5333TIP3   OH216004   3.076   2.970   2.704 -0.4507  0.2720  0.7310
 5333TIP3    H116005   3.041   2.918   2.632  1.0680 -0.3123  0.3704
 5333TIP3    H216006   3.048   3.060   2.685  0.8408  0.3111 -1.2205
 5334TIP3   OH216007   3.806   1.753   3.948  0.2038 -0.2239  0.1543
 5334TIP3    H116008   3.835   1.710   4.028  1.3461  1.7833  0.8967
 5334TIP3    H216009   3.719   1.717   3.932  0.4429 -1.5729  1.5917
 5335TIP3   OH216010   5.180   5.390   0.836  0.3658  0.6895  0.4722
 5335TIP3    H116011   5.267   5.404   0.873  0.8844 -0.7605 -0.0882
 5335TIP3    H216012   5.124   5.374   0.911  0.9191  0.1434  0.7849
 5336TIP3   OH216013   6.307   2.275   1.181 -0.5153 -0.5267 -0.0287
 5336TIP3    H116014   6.293   2.246   1.091  2.0185  0.7050 -0.9033
 5336TIP3    H216015   6.390   2.235   1.206 -0.9739 -0.5104  1.6596
 5337TIP3   OH216016   4.522   1.828   4.743 -0.1737  0.1846 -0.4477
 5337TIP3    H116017   4.489   1.743   4.773  0.9264 -0.4182 -0.8897
 5337TIP3    H216018   4.447   1.870   4.701 -0.7913 -0.4695 -0.0195
 5338TIP3   OH216019   1.961   3.506   2.514  0.1530 -0.7521  0.1816
 5338TIP3    H116020   2.002   3.420   2.502  2.1654  0.0629  0.7041
 5338TIP3    H216021   1.956   3.516   2.609  0.6498 -0.0043  0.1395
 5339TIP3   OH216022   2.422   0.824   3.939 -0.1838  1.2342 -0.2317
 5339TIP3    H116023   2.392   0.745   3.983  0.7599  0.5957 -0.6828
 5339TIP3    H216024   2.346   0.882   3.936 -1.3755 -0.3155 -1.3615
 5340TIP3   OH216025   3.143   4.941   1.400  0.4613  0.6465  0.2914
 5340TIP3    H116026   3.231   4.972   1.417  0.7194  0.6478 -1.0114
 5340TIP3    H216027   3.090   4.980   1.470  1.2663  1.6687  0.3482
 5341TIP3   OH216028   0.952   1.311   2.787 -0.1644  0.2184  0.2351
 5341TIP3    H116029   0.903   1.231   2.771  0.2177  0.1107 -0.4316
 5341TIP3    H216030   1.028   1.283   2.838 -0.3537  0.2537  0.5373
 5342TIP3   OH216031   1.993   5.346   1.958 -0.1847 -0.8645 -0.4966
 5342TIP3    H116032   1.971   5.327   1.867 -1.1902 -2.1165 -0.0280
 5342TIP3    H216033   1.983   5.440   1.967 -0.1758 -0.7427 -1.6542
 5343TIP3   OH216034   5.559   1.356   2.426  0.0673  0.0510 -0.9193
 5343TIP3    H116035   5.466   1.335   2.437 -0.0408  1.6494  2.3589
 5343TIP3    H216036   5.602   1.314   2.501  1.1912  3.2306  0.3789
 5344TIP3   OH216037   5.385   1.812   4.655 -0.3095  0.0836  0.0772
 5344TIP3    H116038   5.352   1.789   4.568  0.0058 -0.9810  0.2345
 5344TIP3    H216039   5.332   1.888   4.681 -1.4960 -0.5687 -0.3760
 5345TIP3   OH216040   6.099   5.358   0.395 -0.1548  0.0276  0.1336
 5345TIP3    H116041   6.157   5.424   0.433  0.9338 -1.4925  1.2469
 5345TIP3    H216042   6.120   5.278   0.443 -2.0819 -0.9331 -0.5456
 5346TIP3   OH216043   4.290   2.236   5.074  0.3781  0.1576  0.5616
 5346TIP3    H116044   4.313   2.183   4.998  0.0268 -1.3729  1.4695
 5346TIP3    H216045   4.195   2.228   5.080  0.2532  1.3842  0.3908
 5347TIP3   OH216046   3.641   0.132   1.795  0.0357 -0.3500  0.4166
 5347TIP3    H116047   3.651   0.042   1.763  3.8296 -0.1715  0.6227
 5347TIP3    H216048   3.602   0.179   1.721 -1.7363 -2.0323  0.1993
 5348TIP3   OH216049   5.444   2.482   4.532  0.0651 -0.1271 -0.3357
 5348TIP3    H116050   5.443   2.405   4.475 -0.4342  0.2244 -0.8139
 5348TIP3    H216051   5.494   2.547   4.483  4.5092 -1.4845  1.9247
 5349TIP3   OH216052   0.102   5.681   3.644 -0.9493  0.1261  0.0643
 5349TIP3    H116053   0.106   5.588   3.669 -1.6774  0.1819  0.4091
 5349TIP3    H216054   0.193   5.704   3.622 -0.7390 -0.6279  0.1119
 5350TIP3   OH216055   2.088   2.313   2.337  0.4472  0.5469  0.4494
 5350TIP3    H116056   2.128   2.230   2.363  1.9171  1.1687  0.2995
 5350TIP3    H216057   2.064   2.301   2.245 -0.3722 -0.0634  0.7315
 5351TIP3   OH216058   3.156   2.056   2.123 -0.2871 -0.5251 -0.0755
 5351TIP3    H116059   3.147   1.978   2.179  1.1899 -0.3509  0.4225
 5351TIP3    H216060   3.129   2.129   2.179  1.2809 -0.3397  0.4740
 5352TIP3   OH216061   2.348   5.774   0.799 -0.1394  0.2452 -0.1441
 5352TIP3    H116062   2.384   5.685   0.800  1.5895  0.8872  0.9442
 5352TIP3    H216063   2.258   5.764   0.827  0.1828 -1.1184  0.5059
 5353TIP3   OH216064   1.382   5.460   1.737 -0.5737 -0.3459  0.4834
 5353TIP3    H116065   1.385   5.463   1.833  2.4382 -0.4031  0.4996
 5353TIP3    H216066   1.378   5.367   1.716 -0.2662 -0.3813  0.5744
 5354TIP3   OH216067   5.437   4.354   2.436 -0.0807 -0.0865  0.1567
 5354TIP3    H116068   5.380   4.354   2.513  1.2887 -0.3652  1.2018
 5354TIP3    H216069   5.408   4.279   2.385 -0.5752 -0.2965  0.7267
 5355TIP3   OH216070   0.654   1.370   4.735  0.1607 -0.1931 -0.6844
 5355TIP3    H116071   0.734   1.407   4.773  0.3816  0.1015 -1.4299
 5355TIP3    H216072   0.657   1.278   4.760  1.4507 -0.5052 -1.8360
 5356TIP3   OH216073   2.778   0.569   4.125 -0.1236  0.0979 -0.7337
 5356TIP3    H116074   2.690   0.556   4.162  0.4384  1.7586  1.3796
 5356TIP3    H216075   2.811   0.480   4.112 -1.8982 -0.5631 -1.0898
 5357TIP3   OH216076   2.914   3.207   4.299  0.2901 -0.1264 -0.1658
 5357TIP3    H116077   2.904   3.288   4.251  1.0607 -0.0454 -0.1967
 5357TIP3    H216078   2.944   3.143   4.234  0.9023 -0.1258  0.1163
 5358TIP3   OH216079   2.446   0.015   3.705  0.4088  0.0384 -0.0250
 5358TIP3    H116080   2.459  -0.021   3.793  2.0294  1.5913  0.4239
 5358TIP3    H216081   2.352   0.034   3.701  0.3300  0.0776  1.4325
 5359TIP3   OH216082   1.695   5.449   4.359 -0.1048  0.3203 -0.2205
 5359TIP3    H116083   1.657   5.367   4.390  1.5299  0.3310  2.0964
 5359TIP3    H216084   1.788   5.444   4.383  0.3227  2.3063 -1.2001
 5360TIP3   OH216085   5.132   0.120   0.920  0.3422 -0.3546  0.1280
 5360TIP3    H116086   5.076   0.150   0.991  1.4029  0.4860  0.6400
 5360TIP3    H216087   5.071   0.095   0.850 -0.6917 -0.6657  1.1141
 5361TIP3   OH216088   4.944   4.732   4.048 -0.1212  0.1065  0.3151
 5361TIP3    H116089   4.901   4.810   4.083 -1.0175 -0.1532 -0.1674
 5361TIP3    H216090   4.983   4.760   3.965  0.6607  0.3417  0.7526
 5362TIP3   OH216091   5.518   1.248   5.087  0.3030 -0.2605  0.1514
 5362TIP3    H116092   5.500   1.339   5.066  0.1691 -0.4161 -0.4181
 5362TIP3    H216093   5.432   1.206   5.089  0.3661 -0.3815  0.3825
 5363TIP3   OH216094   5.937   2.204   4.513  0.3528 -0.4794  0.0559
 5363TIP3    H116095   5.964   2.236   4.427  0.4418 -0.2140  0.1805
 5363TIP3    H216096   6.018   2.175   4.555  0.1729 -1.5995 -0.3522
 5364TIP3   OH216097   4.804   5.794   3.334  0.1648 -0.0078  0.4945
 5364TIP3    H116098   4.865   5.857   3.296  0.4836 -0.9314 -0.6051
 5364TIP3    H216099   4.721   5.810   3.288  0.0758  0.0208  0.6626
 5365TIP3   OH216100   0.720   1.352   3.924 -0.2597  0.3820  0.1732
 5365TIP3    H116101   0.790   1.383   3.982 -0.8828  1.2610  0.4829
 5365TIP3    H216102   0.643   1.401   3.952 -0.4728  1.2056 -1.7227
 5366TIP3   OH216103   5.474   3.180   1.301  0.7117  1.2023 -0.4613
 5366TIP3    H116104   5.504   3.214   1.217  2.8867 -0.1580 -0.3191
 5366TIP3    H216105   5.553   3.150   1.345 -0.5342  0.4616  1.4492
 5367TIP3   OH216106   2.285   1.939   0.475  0.4860  0.0441  0.0675
 5367TIP3    H116107   2.379   1.945   0.459  0.4969 -0.3249  0.0077
 5367TIP3    H216108   2.254   1.870   0.417  0.3701 -0.6245  0.9123
 5368TIP3   OH216109   2.215   2.811   3.238  0.0590  0.7440  0.2057
 5368TIP3    H116110   2.248   2.841   3.323 -1.5367 -2.8106  2.3081
 5368TIP3    H216111   2.121   2.800   3.251 -0.0111 -1.3846 -1.4987
 5369TIP3   OH216112   4.305   3.519   3.016 -0.3683  0.7342 -0.2882
 5369TIP3    H116113   4.323   3.532   3.109  0.2438  2.5868 -0.6230
 5369TIP3    H216114   4.390   3.496   2.978 -0.7308 -0.6432 -0.3258
 5370TIP3   OH216115   2.068   1.126   4.644  0.7526 -0.1739  0.1686
 5370TIP3    H116116   2.114   1.109   4.562 -0.1269 -0.1895 -0.3422
 5370TIP3    H216117   1.986   1.076   4.636  1.1460 -1.1116  1.5442
 5371TIP3   OH216118   1.568   5.449   0.893  0.2587  0.3911 -0.5073
 5371TIP3    H116119   1.487   5.406   0.865  0.6587  0.3271 -1.6176
 5371TIP3    H216120   1.603   5.393   0.962 -0.7370  0.5258  0.1324
 5372TIP3   OH216121   2.123   4.811   2.224 -0.3008  0.6491 -0.1191
 5372TIP3    H116122   2.088   4.900   2.223 -3.5387 -0.4298  1.6407
 5372TIP3    H216123   2.107   4.780   2.313 -0.5385 -2.1245 -1.0377
 5373TIP3   OH216124   2.684   2.480   0.651 -0.4181  0.7442  0.0536
 5373TIP3    H116125   2.615   2.448   0.593  1.0734 -3.0031  0.0203
 5373TIP3    H216126   2.761   2.487   0.594  0.8125 -1.9815  1.2031
 5374TIP3   OH216127   2.951   3.350   0.531  0.1204 -0.4511 -0.3562
 5374TIP3    H116128   2.977   3.409   0.601 -1.8691  1.2599 -0.9557
 5374TIP3    H216129   2.881   3.296   0.569  0.1059 -0.5853 -0.5659
 5375TIP3   OH216130   4.327   4.594   1.992 -0.0459  0.2204 -0.2136
 5375TIP3    H116131   4.306   4.504   2.017  0.9464 -0.3458 -1.3066
 5375TIP3    H216132   4.247   4.627   1.951 -0.2126 -0.4006 -0.3990
 5376TIP3   OH216133   4.206   4.746   0.352 -0.3574  0.2781 -0.2830
 5376TIP3    H116134   4.283   4.722   0.300 -0.6894  1.2526 -1.2611
 5376TIP3    H216135   4.187   4.837   0.327 -0.7609  0.6567  1.2769
 5377TIP3   OH216136   6.360   4.208   2.655  0.2970 -0.3507  0.1074
 5377TIP3    H116137   6.295   4.197   2.725 -1.0497  0.3302 -0.9805
 5377TIP3    H216138   6.363   4.124   2.611  1.1603 -0.7884  0.9472
 5378TIP3   OH216139   5.186   2.705   3.475  1.0254  0.5210 -0.0932
 5378TIP3    H116140   5.187   2.726   3.381  2.0614 -0.6568 -0.3789
 5378TIP3    H216141   5.102   2.661   3.488  0.1595  2.0777 -0.0964
 5379TIP3   OH216142   0.687   4.705   1.512 -0.1704 -0.2581 -0.1101
 5379TIP3    H116143   0.726   4.768   1.572 -0.2069  1.1502 -1.5063
 5379TIP3    H216144   0.593   4.707   1.531 -0.1965  0.2770 -0.2758
 5380TIP3   OH216145   3.150   3.447   0.078 -0.1870 -0.0349 -0.1485
 5380TIP3    H116146   3.245   3.450   0.069 -0.1580 -2.9062 -1.9608
 5380TIP3    H216147   3.117   3.481  -0.005 -0.6058 -1.8825 -0.7822
 5381TIP3   OH216148   4.014   4.684   1.129 -0.1078 -0.4834 -0.5913
 5381TIP3    H116149   4.025   4.666   1.035 -0.3137 -0.0679 -0.6989
 5381TIP3    H216150   4.052   4.772   1.141 -1.5577  0.1795 -0.6159
 5382TIP3   OH216151   5.283   0.576   0.276 -0.3007 -0.8893 -0.6274
 5382TIP3    H116152   5.315   0.579   0.186  1.2214 -0.4673 -0.1024
 5382TIP3    H216153   5.300   0.486   0.304  1.5908 -0.3924  0.0067
 5383TIP3   OH216154   3.388   4.698   4.670 -0.8993 -0.2029  0.3636
 5383TIP3    H116155   3.468   4.750   4.655 -1.1969  0.1943  0.1283
 5383TIP3    H216156   3.337   4.750   4.732 -1.0707 -0.3543  0.3485
 5384TIP3   OH216157   2.176   3.094   1.653 -0.1443 -0.2392 -0.1775
 5384TIP3    H116158   2.082   3.101   1.638 -0.2100 -1.7757 -0.7315
 5384TIP3    H216159   2.215   3.161   1.597 -0.8755 -0.2140 -0.6662
 5385TIP3   OH216160   5.710   3.598   1.858 -0.0037  0.0795  0.2527
 5385TIP3    H116161   5.802   3.612   1.882  0.2526  1.1095 -1.2010
 5385TIP3    H216162   5.708   3.511   1.818  0.0299 -0.5785  1.6236
 5386TIP3   OH216163   5.565   3.841   2.714 -0.0614 -0.0770  0.4633
 5386TIP3    H116164   5.639   3.787   2.742  0.0673 -0.1450 -0.0032
 5386TIP3    H216165   5.502   3.778   2.678 -1.3159 -0.3009  2.8034
 5387TIP3   OH216166   0.966   1.198   3.108 -0.5907 -0.1808  0.4006
 5387TIP3    H116167   1.014   1.159   3.181 -1.2664 -0.4455  0.7106
 5387TIP3    H216168   0.997   1.152   3.031  0.6457  0.5785  0.4224
 5388TIP3   OH216169   3.704   2.340   4.692  0.4698  0.4763 -0.1155
 5388TIP3    H116170   3.792   2.361   4.721 -0.0956  3.0245  0.0339
 5388TIP3    H216171   3.651   2.415   4.719 -1.5706 -0.5399 -1.0209
 5389TIP3   OH216172   5.403   3.329   4.024  0.0397  0.0923 -0.5293
 5389TIP3    H116173   5.326   3.298   3.977 -0.1385 -0.1502 -0.0844
 5389TIP3    H216174   5.370   3.356   4.110  0.5092 -0.4174 -0.1816
 5390TIP3   OH216175   1.431   4.116   3.678 -0.2378 -0.5661  0.7638
 5390TIP3    H116176   1.470   4.200   3.703 -0.7634  0.2411 -0.9985
 5390TIP3    H216177   1.453   4.058   3.751 -0.1186  1.1541  2.1821
 5391TIP3   OH216178   3.180   4.983   3.760 -0.1173  0.2346  0.6614
 5391TIP3    H116179   3.181   4.996   3.665 -1.0837 -2.5470  0.1847
 5391TIP3    H216180   3.269   5.005   3.788  0.0053  1.7511 -0.7561
 5392TIP3   OH216181   0.931   3.984   4.950 -0.1541  0.1316  0.3575
 5392TIP3    H116182   1.019   4.020   4.966  0.0706 -0.6539  0.9379
 5392TIP3    H216183   0.945   3.916   4.885  0.2327 -2.2340  2.7310
 5393TIP3   OH216184   3.188   1.721   1.097 -0.0665 -0.4949  0.3856
 5393TIP3    H116185   3.190   1.784   1.025  0.9287  1.6639  2.1735
 5393TIP3    H216186   3.111   1.747   1.149  0.2936 -0.8272  1.0890
 5394TIP3   OH216187   3.288   1.533   1.286  0.3685 -0.4335  0.2441
 5394TIP3    H116188   3.331   1.467   1.232  1.6597  1.3904 -1.1107
 5394TIP3    H216189   3.228   1.577   1.225  1.3471  1.2191  0.3952
 5395TIP3   OH216190   4.631   2.475   1.473  0.2476 -0.2571 -0.0091
 5395TIP3    H116191   4.601   2.436   1.392  0.1195 -0.2600  0.0394
 5395TIP3    H216192   4.688   2.409   1.513  0.0257 -0.3959  0.0762
 5396TIP3   OH216193   1.826   2.724   1.807 -0.0431 -0.5688 -0.1920
 5396TIP3    H116194   1.839   2.771   1.890 -0.7541 -0.3972 -0.1693
 5396TIP3    H216195   1.813   2.633   1.832 -1.3462 -0.3567 -0.0079
 5397TIP3   OH216196   2.097   5.631   2.655 -0.2435  0.1047  0.0958
 5397TIP3    H116197   2.092   5.556   2.715 -0.5552 -0.0612 -0.1404
 5397TIP3    H216198   2.050   5.603   2.577 -0.6790  0.6786  0.1457
 5398TIP3   OH216199   0.511   4.176   1.435 -0.1320 -0.3623  0.4125
 5398TIP3    H116200   0.467   4.256   1.466  2.7809  1.3897  0.4289
 5398TIP3    H216201   0.487   4.109   1.499 -1.2007  0.9698  1.4726
 5399TIP3   OH216202   4.510   2.293   3.854  0.1540 -0.1214  0.2142
 5399TIP3    H116203   4.429   2.283   3.805 -0.3450  0.1060  0.9716
 5399TIP3    H216204   4.579   2.293   3.787 -0.5866  1.4294 -0.6126
 5400TIP3   OH216205   0.313   3.092   1.594 -0.4154 -0.0635 -0.9621
 5400TIP3    H116206   0.285   3.177   1.560 -0.8035 -0.1841 -0.9460
 5400TIP3    H216207   0.261   3.079   1.673  1.9584  1.1911  0.9571
 5401TIP3   OH216208   5.342   3.212   5.144 -0.0686 -0.9152  0.0050
 5401TIP3    H116209   5.308   3.127   5.173 -1.0461 -0.0908  1.4287
 5401TIP3    H216210   5.408   3.235   5.208 -1.1061  0.2053  0.7163
 5402TIP3   OH216211   0.937   3.858   3.361 -0.1262  0.1598  0.5777
 5402TIP3    H116212   0.955   3.820   3.276 -0.6617 -1.0609  0.9906
 5402TIP3    H216213   0.900   3.944   3.342 -0.3016 -0.1239 -0.4122
 5403TIP3   OH216214   1.431   1.469   4.354 -0.2230  0.4432 -0.0435
 5403TIP3    H116215   1.520   1.500   4.372 -0.0121  0.3323 -0.8430
 5403TIP3    H216216   1.394   1.450   4.440  0.1131  1.6025  0.3813
 5404TIP3   OH216217   3.778   5.752   4.057 -0.1079  0.1805 -0.1478
 5404TIP3    H116218   3.805   5.674   4.105  2.0247  0.7589 -0.2810
 5404TIP3    H216219   3.734   5.719   3.978 -0.6225 -0.8312  0.5521
 5405TIP3   OH216220   1.271   5.539   4.358 -0.3079 -0.4632 -0.6452
 5405TIP3    H116221   1.246   5.517   4.268 -0.8093  0.0910 -0.6461
 5405TIP3    H216222   1.355   5.584   4.349 -0.0240 -1.0080 -0.7729
 5406TIP3   OH216223   1.603   0.916   1.437  0.4637  0.0959 -0.0755
 5406TIP3    H116224   1.577   0.850   1.373  0.1394 -0.3466  0.5038
 5406TIP3    H216225   1.558   0.891   1.517  1.2396  0.3687  0.4585
 5407TIP3   OH216226   3.795   5.487   4.765 -0.2413  0.2464  0.2346
 5407TIP3    H116227   3.700   5.476   4.767 -0.2082  0.0043  0.9534
 5407TIP3    H216228   3.808   5.582   4.757 -0.5323  0.1658 -1.4051
 5408TIP3   OH216229   6.299   4.941   4.485  0.7526 -0.7642  0.3570
 5408TIP3    H116230   6.362   4.877   4.519  2.2886  0.6688  0.3130
 5408TIP3    H216231   6.353   5.010   4.447 -0.8527  0.6213  0.4950
 5409TIP3   OH216232   5.570   2.803   1.814 -0.0611 -0.4373 -0.1280
 5409TIP3    H116233   5.615   2.734   1.862 -0.4132  0.8950  2.2865
 5409TIP3    H216234   5.521   2.851   1.881  0.3820  2.3127 -1.6005
 5410TIP3   OH216235   5.243   4.134   1.342  0.1171 -1.2482  0.5938
 5410TIP3    H116236   5.320   4.118   1.287 -0.5230  0.5905 -0.9264
 5410TIP3    H216237   5.237   4.229   1.349 -2.8726 -1.2242 -0.6590
 5411TIP3   OH216238   2.759   0.513   0.772  1.0363 -0.2263  0.0354
 5411TIP3    H116239   2.791   0.566   0.699  0.5051 -0.9681 -0.7627
 5411TIP3    H216240   2.664   0.516   0.765  0.9728 -0.0143  0.9214
 5412TIP3   OH216241   4.818   4.408   1.582 -0.2053  0.4184 -0.3733
 5412TIP3    H116242   4.749   4.358   1.626  0.0226 -0.3237 -0.8429
 5412TIP3    H216243   4.886   4.343   1.563 -0.0861  0.8212 -1.3803
 5413TIP3   OH216244   3.545   1.737   4.595 -0.3700 -0.0606  0.2900
 5413TIP3    H116245   3.499   1.783   4.666 -0.8864  0.4003 -0.3304
 5413TIP3    H216246   3.601   1.674   4.640 -1.5086 -0.5386  1.0829
 5414TIP3   OH216247   2.987   1.053   5.070  0.1385 -0.3437 -0.1815
 5414TIP3    H116248   3.018   1.141   5.050 -1.1744 -0.0813 -1.1922
 5414TIP3    H216249   2.892   1.062   5.076  0.0960 -1.3822  1.4407
 5415TIP3   OH216250   5.289   2.060   4.697 -0.8475 -0.6317  0.0450
 5415TIP3    H116251   5.301   2.152   4.720 -0.1406 -1.1953  2.1879
 5415TIP3    H216252   5.205   2.057   4.652 -0.2965  1.2192 -1.2082
 5416TIP3   OH216253   4.365   1.737   2.024 -0.0864  0.0734 -0.4144
 5416TIP3    H116254   4.292   1.798   2.018 -1.6386 -1.7069 -0.8561
 5416TIP3    H216255   4.395   1.726   1.933  1.2082  1.2824 -0.1665
 5417TIP3   OH216256   0.977   2.411   1.014 -0.3008 -0.1398  0.3111
 5417TIP3    H116257   1.069   2.420   1.039 -0.8082  2.0472  1.6946
 5417TIP3    H216258   0.974   2.334   0.958  2.3671 -0.2588  0.2386
 5418TIP3   OH216259   3.715   2.886   2.599  0.1120  0.0635 -0.3858
 5418TIP3    H116260   3.678   2.831   2.668 -0.5571  1.1218  0.1157
 5418TIP3    H216261   3.807   2.897   2.623 -0.5125  1.9420  1.3905
 5419TIP3   OH216262   1.064   3.875   4.528 -0.5102 -0.8056  0.8746
 5419TIP3    H116263   1.094   3.857   4.439 -1.3963  0.7437  0.2372
 5419TIP3    H216264   1.145   3.884   4.579  0.0121 -1.0109  0.0944
 5420TIP3   OH216265   5.264   0.109   3.197 -0.0278  0.0214  0.2482
 5420TIP3    H116266   5.340   0.165   3.181 -0.3682  0.9633  1.7834
 5420TIP3    H216267   5.298   0.020   3.187  0.2744  0.3765 -3.3717
 5421TIP3   OH216268   3.872   3.776   4.960 -0.2988  0.0072  0.0850
 5421TIP3    H116269   3.924   3.700   4.932 -1.4826 -0.8461  0.1219
 5421TIP3    H216270   3.930   3.824   5.019  0.8026 -0.3641 -0.6706
 5422TIP3   OH216271   0.477   3.181   2.690 -0.1601  0.1120 -0.0575
 5422TIP3    H116272   0.473   3.262   2.639 -0.6381  1.2781  1.7378
 5422TIP3    H216273   0.545   3.196   2.755  0.5091 -1.3780 -0.3710
 5423TIP3   OH216274   2.015   0.524   4.654  0.0480  0.3690  0.6536
 5423TIP3    H116275   1.987   0.443   4.610  0.2969  0.7796 -0.2540
 5423TIP3    H216276   2.014   0.500   4.747  1.8316 -1.2213  0.3196
 5424TIP3   OH216277   2.858   4.386   4.563  0.2756 -0.3370 -0.3918
 5424TIP3    H116278   2.772   4.356   4.534  0.6824 -1.3840 -0.5701
 5424TIP3    H216279   2.845   4.478   4.586 -0.8688 -0.4597 -0.4878
 5425TIP3   OH216280   5.836   3.217   5.043 -0.0549 -0.7269  0.1254
 5425TIP3    H116281   5.888   3.202   4.964  0.9922 -1.6079  0.9578
 5425TIP3    H216282   5.860   3.306   5.070 -0.2607 -0.4993 -0.4143
 5426TIP3   OH216283   5.992   4.084   2.669  0.0950 -0.0695 -0.4496
 5426TIP3    H116284   5.983   4.009   2.611 -1.2989 -0.8955  0.7470
 5426TIP3    H216285   6.027   4.047   2.750  2.4130  1.1219 -0.8302
 5427TIP3   OH216286   1.590   4.799   3.656 -0.9633  0.3328  0.3280
 5427TIP3    H116287   1.620   4.886   3.682  0.9139 -0.5084  1.2112
 5427TIP3    H216288   1.521   4.778   3.719 -0.8294  0.8510  0.6537
 5428TIP3   OH216289   1.534   4.285   4.564  0.1526  0.2914  0.0089
 5428TIP3    H116290   1.496   4.258   4.648  1.2757 -0.5902  0.2556
 5428TIP3    H216291   1.527   4.207   4.509  1.6219  0.0925  0.0752
 5429TIP3   OH216292   5.829   2.267   1.928  0.2363  0.5986  0.4992
 5429TIP3    H116293   5.821   2.350   1.881  0.1775  2.5305  3.6194
 5429TIP3    H216294   5.923   2.251   1.934  0.2391  0.2083 -0.3951
 5430TIP3   OH216295   3.186   4.075   0.820  0.4135  0.0879 -0.4281
 5430TIP3    H116296   3.227   3.991   0.837 -1.3944 -0.6203  0.7347
 5430TIP3    H216297   3.246   4.139   0.859  0.4055 -0.9036  1.3338
 5431TIP3   OH216298   1.588   1.202   3.306  0.1367 -0.3539 -0.4183
 5431TIP3    H116299   1.572   1.295   3.290  2.1659 -0.0390 -0.8867
 5431TIP3    H216300   1.589   1.193   3.401  1.3050  0.3938 -0.3439
 5432TIP3   OH216301   6.207   2.050   1.891 -0.5585 -0.3356  0.3690
 5432TIP3    H116302   6.258   1.969   1.888  2.7057  1.6237 -1.2037
 5432TIP3    H216303   6.135   2.034   1.829 -1.2802 -2.7018  1.6704
 5433TIP3   OH216304   5.599   4.246   2.148  0.3192 -0.7270 -0.4250
 5433TIP3    H116305   5.676   4.249   2.204 -0.3725  0.0516  0.5029
 5433TIP3    H216306   5.538   4.188   2.193 -0.6113  0.6422  0.1478
 5434TIP3   OH216307   3.305   3.040   3.224  0.0253  0.2760  0.5401
 5434TIP3    H116308   3.381   3.062   3.169 -0.7617  1.5119 -0.0874
 5434TIP3    H216309   3.241   3.004   3.162  0.2854 -1.3263  1.1550
 5435TIP3   OH216310   2.779   1.353   3.534  0.2770  0.6596 -0.4101
 5435TIP3    H116311   2.780   1.448   3.521 -1.5203  0.5867 -1.5290
 5435TIP3    H216312   2.865   1.324   3.504  1.1776  1.9921  0.7561
 5436TIP3   OH216313   3.083   4.365   0.964 -0.0671 -0.3668 -0.0530
 5436TIP3    H116314   3.025   4.311   1.018 -0.4868 -1.1074 -1.2065
 5436TIP3    H216315   3.164   4.370   1.014  0.1732 -2.5269 -0.1203
 5437TIP3   OH216316   5.486   0.979   0.954 -0.4735 -0.4268  0.2828
 5437TIP3    H116317   5.517   1.063   0.921  1.9996  0.5001  4.2576
 5437TIP3    H216318   5.392   0.992   0.966 -0.4918  0.9993 -1.0567
 5438TIP3   OH216319   3.901   5.276   3.547  0.2188  0.3739  0.4752
 5438TIP3    H116320   3.903   5.181   3.532  2.4721  0.1297  1.9642
 5438TIP3    H216321   3.888   5.313   3.459 -1.4260 -1.2831 -0.0521
 5439TIP3   OH216322   4.878   5.597   2.546 -0.0788  0.3696 -0.2359
 5439TIP3    H116323   4.830   5.629   2.622 -0.4408  1.2325 -0.8121
 5439TIP3    H216324   4.966   5.577   2.579 -0.7287 -0.9517  0.7649
 5440TIP3   OH216325   2.111   2.114   3.415 -0.6229  0.6338 -0.0476
 5440TIP3    H116326   2.130   2.168   3.491  0.7091  1.1916 -0.7532
 5440TIP3    H216327   2.113   2.024   3.449 -1.7486  0.9447  0.9028
 5441TIP3   OH216328   5.533   4.228   1.575 -0.2805 -0.1324 -0.1723
 5441TIP3    H116329   5.445   4.243   1.541  0.2029 -0.1149 -1.4810
 5441TIP3    H216330   5.591   4.245   1.500  0.9482  1.3080  1.0509
 5442TIP3   OH216331   3.523   3.943   0.548 -0.4338 -0.8466  0.2958
 5442TIP3    H116332   3.448   3.884   0.550 -0.4561 -0.8332 -0.0483
 5442TIP3    H216333   3.496   4.019   0.599 -1.6083  0.2691 -1.8278
 5443TIP3   OH216334   3.682   0.891   1.276 -0.1200  0.2029  0.7421
 5443TIP3    H116335   3.607   0.929   1.230  0.1908  0.0448  0.0896
 5443TIP3    H216336   3.739   0.859   1.206 -0.2019 -1.1491  1.2532
 5444TIP3   OH216337   4.309   5.811   2.315 -0.1906  0.7357 -0.1416
 5444TIP3    H116338   4.236   5.750   2.312  1.0243 -0.7769  0.0008
 5444TIP3    H216339   4.323   5.836   2.224  0.3542 -0.5293 -0.4242
 5445TIP3   OH216340   1.475   5.623   2.552  0.3529  0.1041  0.1864
 5445TIP3    H116341   1.432   5.629   2.637 -1.1036  2.4491 -0.6201
 5445TIP3    H216342   1.449   5.703   2.506 -2.6522 -2.9489 -4.2017
 5446TIP3   OH216343   3.880   1.882   2.879  0.4762 -0.4265 -0.0770
 5446TIP3    H116344   3.829   1.823   2.824  1.2216 -0.1362 -1.1223
 5446TIP3    H216345   3.935   1.825   2.932 -0.1869 -0.7098  0.3132
 5447TIP3   OH216346   2.584   1.666   3.280 -0.1923  0.3963 -0.1428
 5447TIP3    H116347   2.508   1.624   3.239 -0.9446  1.3768  0.2213
 5447TIP3    H216348   2.555   1.755   3.300  0.3118  0.1415  2.0217
 5448TIP3   OH216349   4.346   2.581   1.461  0.2302 -0.0007  0.1360
 5448TIP3    H116350   4.430   2.535   1.456  0.7160  0.5393  2.3841
 5448TIP3    H216351   4.369   2.674   1.453 -0.3029  0.0893 -0.4242
 5449TIP3   OH216352   2.597   0.162   3.139  0.2685 -0.8259  0.5236
 5449TIP3    H116353   2.678   0.211   3.152  0.2394  0.0502 -2.0226
 5449TIP3    H216354   2.618   0.073   3.166  2.0315 -0.5827  0.0846
 5450TIP3   OH216355   0.190   1.916   2.893 -0.0195  0.1017 -0.2818
 5450TIP3    H116356   0.285   1.920   2.903 -0.0932  2.1083  0.1082
 5450TIP3    H216357   0.157   1.981   2.956 -1.2920  3.5643 -4.0956
 5451TIP3   OH216358   5.261   1.943   5.175  0.0325 -0.1574 -0.1175
 5451TIP3    H116359   5.316   1.964   5.100  0.7460 -0.7723  0.2249
 5451TIP3    H216360   5.319   1.954   5.251  0.5637 -3.5763  0.0916
 5452TIP3   OH216361   2.832   4.255   0.640 -0.0480  0.1729  0.2347
 5452TIP3    H116362   2.821   4.334   0.693 -0.9903 -0.1069  0.4848
 5452TIP3    H216363   2.744   4.217   0.635  0.5584 -1.4285  1.0158
 5453TIP3   OH216364   2.712   2.908   0.018  0.0948  0.3648  0.1844
 5453TIP3    H116365   2.793   2.884  -0.027  0.2317 -0.6879  0.9590
 5453TIP3    H216366   2.735   2.986   0.069  0.8297 -0.2958  0.9043
 5454TIP3   OH216367   1.605   0.051   3.276  0.0564 -0.0553 -0.0932
 5454TIP3    H116368   1.671   0.103   3.322 -0.9207  0.6110  0.5832
 5454TIP3    H216369   1.607  -0.034   3.321 -0.5096  0.4170  0.8670
 5455TIP3   OH216370   4.615   3.005   0.115  0.4201  0.0188  0.1438
 5455TIP3    H116371   4.658   2.929   0.155 -0.9787 -0.2430  1.2134
 5455TIP3    H216372   4.688   3.059   0.083  1.4698 -1.3149  0.1717
 5456TIP3   OH216373   1.797   5.421   3.289 -0.1490  0.1291  0.1213
 5456TIP3    H116374   1.839   5.340   3.318  1.4148  0.4458 -1.1291
 5456TIP3    H216375   1.868   5.485   3.285 -1.4315  1.7338  1.5509
 5457TIP3   OH216376   5.071   4.902   1.590  0.1881  0.6821 -0.4794
 5457TIP3    H116377   5.002   4.838   1.577  0.8077  0.0211 -0.5542
 5457TIP3    H216378   5.039   4.958   1.661  0.4851 -0.9527  1.0265
 5458TIP3   OH216379   4.347   1.055   5.022 -0.2242 -0.0553  0.1926
 5458TIP3    H116380   4.434   1.041   4.985 -0.9305  0.9371 -2.0609
 5458TIP3    H216381   4.364   1.093   5.109  1.6338  1.2210 -0.6398
 5459TIP3   OH216382   2.271   2.262   4.946  0.1705  0.5555 -0.0351
 5459TIP3    H116383   2.226   2.344   4.965 -1.9049 -0.5910  0.2731
 5459TIP3    H216384   2.325   2.246   5.024 -1.3891  0.3785  1.0470
 5460TIP3   OH216385   5.975   4.409   2.802 -0.3087  0.5804 -0.0455
 5460TIP3    H116386   6.051   4.355   2.784 -0.4884  0.8265 -1.6492
 5460TIP3    H216387   5.999   4.459   2.880  0.9329  0.2203 -0.1824
 5461TIP3   OH216388   1.920   2.404   4.356 -0.0638  0.1987  0.0188
 5461TIP3    H116389   1.965   2.322   4.376 -0.5511 -0.3836 -1.1582
 5461TIP3    H216390   1.841   2.377   4.309 -0.8662  1.2783  0.6978
 5462TIP3   OH216391   3.304   0.145   1.873  0.7341 -0.1252  0.1812
 5462TIP3    H116392   3.230   0.117   1.819  0.0646  0.4040  0.8021
 5462TIP3    H216393   3.364   0.070   1.873  0.5425 -0.3000 -0.9108
 5463TIP3   OH216394   4.633   0.533   3.192  0.0437 -0.4195 -0.3114
 5463TIP3    H116395   4.699   0.602   3.183 -1.8102  1.3432 -1.2252
 5463TIP3    H216396   4.660   0.465   3.130  1.4933 -0.1896  0.0374
 5464TIP3   OH216397   4.161   2.969   4.960 -0.1595  0.0908 -0.4751
 5464TIP3    H116398   4.136   2.888   5.005  0.4824  0.4566  0.5730
 5464TIP3    H216399   4.250   2.953   4.929 -0.2017  0.2271 -0.6653
 5465TIP3   OH216400   0.247   4.947   2.986  0.6206  0.2479  0.4942
 5465TIP3    H116401   0.172   4.889   2.994  1.2092 -1.1659 -2.7392
 5465TIP3    H216402   0.210   5.035   2.991 -0.9649 -0.4024  0.7031
 5466TIP3   OH216403   5.969   2.415   0.662 -0.1412  0.0713 -0.4903
 5466TIP3    H116404   6.039   2.454   0.713 -1.9643 -0.1696  2.4817
 5466TIP3    H216405   5.909   2.487   0.642 -0.4835 -0.1816 -0.4042
 5467TIP3   OH216406   3.545   4.775   0.723 -0.0602  0.0283  0.3674
 5467TIP3    H116407   3.466   4.827   0.735 -0.7686 -0.9525  0.1248
 5467TIP3    H216408   3.609   4.836   0.685 -2.1487 -0.1497 -4.1232
 5468TIP3   OH216409   0.807   0.283   5.073 -0.2972 -0.4073 -0.6088
 5468TIP3    H116410   0.717   0.317   5.068  0.1035  0.7415 -0.2501
 5468TIP3    H216411   0.836   0.305   5.161 -0.4310 -2.8280  0.0967
 5469TIP3   OH216412   1.846   1.917   2.737  0.0113  0.6973  0.0911
 5469TIP3    H116413   1.773   1.872   2.778 -0.4828  1.7488  0.4081
 5469TIP3    H216414   1.840   2.007   2.769  0.6283  1.1342 -0.9576
 5470TIP3   OH216415   0.971   2.619   3.291 -0.3080 -0.2652  0.0601
 5470TIP3    H116416   0.878   2.634   3.310 -0.7854 -1.3081 -1.2930
 5470TIP3    H216417   0.983   2.525   3.304  1.1923  0.1865  2.6116
 5471TIP3   OH216418   0.844   0.400   2.106 -0.2770  0.6927 -0.3899
 5471TIP3    H116419   0.837   0.347   2.185 -1.1140  1.9731  0.4449
 5471TIP3    H216420   0.922   0.453   2.119  0.8660 -0.6356 -1.4597
 5472TIP3   OH216421   5.173   5.624   2.585 -0.0013  0.3514 -0.0544
 5472TIP3    H116422   5.158   5.618   2.491 -0.0441  2.4414 -0.2417
 5472TIP3    H216423   5.220   5.707   2.597 -1.2154  0.8515  1.8577
 5473TIP3   OH216424   3.392   3.119   0.835 -0.2699 -0.3954 -0.0236
 5473TIP3    H116425   3.487   3.130   0.843 -0.4075  0.5805  0.4132
 5473TIP3    H216426   3.381   3.054   0.765  0.6843  0.6907 -1.2294
 5474TIP3   OH216427   3.616   0.299   4.555  0.1834  1.2523 -0.1926
 5474TIP3    H116428   3.674   0.260   4.620  0.2517  1.0512 -0.3781
 5474TIP3    H216429   3.594   0.385   4.592 -0.0773  0.9868  0.2753
 5475TIP3   OH216430   4.303   0.266   3.751 -0.5275  0.0113  0.6453
 5475TIP3    H116431   4.348   0.324   3.690 -0.5383  0.8005  1.3585
 5475TIP3    H216432   4.345   0.181   3.740  0.9841  0.6732  1.1297
 5476TIP3   OH216433   3.971   3.874   1.204  0.5277 -0.6220  0.7827
 5476TIP3    H116434   4.051   3.902   1.250  0.4459  0.8045  0.1231
 5476TIP3    H216435   4.003   3.838   1.121  0.5032  0.4323  0.2867
 5477TIP3   OH216436   4.896   5.203   4.681  0.4149  0.1711 -0.1576
 5477TIP3    H116437   4.878   5.296   4.668  0.0031  0.1263  0.0842
 5477TIP3    H216438   4.906   5.193   4.775 -1.8193 -0.4134  0.0769
 5478TIP3   OH216439   1.906   4.926   4.928  0.2641  0.1390  0.1562
 5478TIP3    H116440   1.827   4.948   4.880  0.7139 -0.7855 -1.0748
 5478TIP3    H216441   1.930   4.839   4.895  1.7075  0.3433  0.6101
 5479TIP3   OH216442   3.792   5.175   0.387 -0.3859 -0.7719 -0.0012
 5479TIP3    H116443   3.858   5.179   0.455  0.8920 -0.4567 -1.2030
 5479TIP3    H216444   3.784   5.266   0.356 -1.7492 -0.7208  0.4527
 5480TIP3   OH216445   3.506   4.386   3.809  1.0909  0.0446 -0.2866
 5480TIP3    H116446   3.562   4.353   3.879  2.1391 -0.8266 -1.4824
 5480TIP3    H216447   3.522   4.480   3.807  0.3837  0.2220  1.1814
 5481TIP3   OH216448   6.052   1.968   3.293 -0.0955  0.5116 -0.6927
 5481TIP3    H116449   5.963   1.936   3.309  1.4318 -3.9514  0.4875
 5481TIP3    H216450   6.094   1.965   3.379  1.4598  1.7272 -1.3607
 5482TIP3   OH216451   1.155   4.120   3.201  0.4053 -0.0194  0.0568
 5482TIP3    H116452   1.211   4.175   3.256 -0.8239 -0.1510  1.5070
 5482TIP3    H216453   1.078   4.175   3.183  0.2270 -0.4345 -0.4749
 5483TIP3   OH216454   4.939   3.092   0.443 -0.0827 -0.4665 -0.1497
 5483TIP3    H116455   4.952   3.179   0.405 -0.5593 -0.5007 -0.3914
 5483TIP3    H216456   4.993   3.093   0.523  0.2631 -0.1075 -0.3812
 5484TIP3   OH216457   5.239   1.628   5.025  0.2244  0.2282  0.5324
 5484TIP3    H116458   5.255   1.721   5.007 -0.7632  0.3379  0.1667
 5484TIP3    H216459   5.172   1.627   5.093  1.4387 -0.2254  1.7820
 5485TIP3   OH216460   3.392   4.132   2.048  0.1483 -0.9239  0.3297
 5485TIP3    H116461   3.361   4.050   2.011 -0.3787 -0.3370 -0.5730
 5485TIP3    H216462   3.429   4.180   1.974  0.2098 -0.2330  0.7930
 5486TIP3   OH216463  -0.004   3.759   3.317 -0.0154  0.6739  0.1673
 5486TIP3    H116464   0.054   3.835   3.329 -0.2017  0.8466 -0.0219
 5486TIP3    H216465   0.019   3.701   3.389 -0.0324  1.0105  0.4481
 5487TIP3   OH216466   3.973   5.914   1.852  0.2104 -0.8987  0.1701
 5487TIP3    H116467   4.019   5.842   1.809 -1.1071 -2.3575  1.0748
 5487TIP3    H216468   3.898   5.932   1.796  0.1764 -0.6790  0.2827
 5488TIP3   OH216469   4.227   2.697   3.645 -0.0741  0.4771 -0.7191
 5488TIP3    H116470   4.285   2.697   3.721  0.1165 -0.8100 -0.8538
 5488TIP3    H216471   4.252   2.776   3.597 -0.1201  1.2500  0.4756
 5489TIP3   OH216472   6.146   0.222   1.424 -0.0568 -0.3794 -0.2502
 5489TIP3    H116473   6.074   0.276   1.391  0.0693 -0.7547 -1.1497
 5489TIP3    H216474   6.225   0.272   1.404  0.1380 -1.3201 -2.0077
 5490TIP3   OH216475   0.926   1.559   2.683  0.3350  0.4647 -0.1385
 5490TIP3    H116476   1.015   1.589   2.664  0.4602 -0.2874 -0.7824
 5490TIP3    H216477   0.937   1.468   2.710 -0.1163  0.7501  1.0442
 5491TIP3   OH216478   4.198   5.348   0.354 -0.1514 -0.4091  0.4852
 5491TIP3    H116479   4.283   5.338   0.398  0.5526 -2.7154 -1.2096
 5491TIP3    H216480   4.135   5.307   0.413  0.4186 -1.3567  0.4660
 5492TIP3   OH216481   1.755   1.084   3.133  0.1475  0.1607 -0.0895
 5492TIP3    H116482   1.716   1.098   3.046 -0.3170  0.2282  0.1286
 5492TIP3    H216483   1.681   1.087   3.193  0.3554 -0.7543  0.2293
 5493TIP3   OH216484   3.315   5.595   3.015  0.3287 -0.1710  0.4297
 5493TIP3    H116485   3.288   5.687   3.014  0.0595 -0.2546 -0.3854
 5493TIP3    H216486   3.391   5.593   3.074 -0.1499  0.4272  1.0877
 5494TIP3   OH216487   2.746   0.312   4.652 -0.0195  0.3653 -0.3879
 5494TIP3    H116488   2.717   0.222   4.638  2.2890 -0.9956  2.6001
 5494TIP3    H216489   2.664   0.362   4.660 -1.3793 -1.6238 -1.0985
 5495TIP3   OH216490   5.390   3.649   1.354 -0.6736  0.1233  0.0286
 5495TIP3    H116491   5.385   3.726   1.297 -2.1563  0.6749  0.8364
 5495TIP3    H216492   5.474   3.658   1.399  0.7868 -0.5991 -2.3488
 5496TIP3   OH216493   5.776   4.819   2.979  0.3380 -0.1387  0.1036
 5496TIP3    H116494   5.821   4.750   3.027 -1.3676 -1.5270 -0.1792
 5496TIP3    H216495   5.763   4.783   2.891 -1.2958  0.1837  0.1726
 5497TIP3   OH216496   0.084   2.781   4.478 -0.3385 -0.0537 -0.0261
 5497TIP3    H116497   0.120   2.865   4.508  0.5744 -0.2487 -0.5345
 5497TIP3    H216498   0.158   2.737   4.436 -0.2423 -1.9596  1.9295
 5498TIP3   OH216499   1.887   4.058   4.656  0.5051  0.2700  0.1670
 5498TIP3    H116500   1.837   4.049   4.575  1.1201 -2.3692  0.0148
 5498TIP3    H216501   1.976   4.074   4.626  0.6342 -0.1500  0.3272
 5499TIP3   OH216502   4.099   4.960   1.918  0.0301  0.1211 -0.0881
 5499TIP3    H116503   4.155   4.938   1.993  0.4506  0.2328 -0.3616
 5499TIP3    H216504   4.102   4.882   1.862  1.0995  0.6340 -0.8047
 5500TIP3   OH216505   3.094   5.761   3.283 -0.2762  0.2088 -0.3435
 5500TIP3    H116506   3.178   5.753   3.327  0.6478  0.9172 -1.8886
 5500TIP3    H216507   3.050   5.833   3.328  0.2238  0.2547  0.0756
 5501TIP3   OH216508   6.122   4.597   3.295 -0.0918 -0.4292 -0.3731
 5501TIP3    H116509   6.050   4.659   3.307  1.3817  1.3549 -0.2192
 5501TIP3    H216510   6.134   4.557   3.381 -0.5187 -0.3145 -0.2564
 5502TIP3   OH216511   4.017   2.581   1.139 -0.3563  0.6860 -0.4368
 5502TIP3    H116512   4.055   2.669   1.148  1.4819 -0.1842  1.0887
 5502TIP3    H216513   4.062   2.544   1.062  0.2929  0.4370  0.0523
 5503TIP3   OH216514   0.715   1.039   2.426 -0.0019  0.2024  0.3215
 5503TIP3    H116515   0.749   0.952   2.450  2.8248  1.5167  1.6230
 5503TIP3    H216516   0.716   1.039   2.330  2.0101 -0.5474  0.2837
 5504TIP3   OH216517   2.833   1.274   2.926 -0.7192 -0.0207  0.1521
 5504TIP3    H116518   2.794   1.286   3.012 -0.8360 -0.5406  0.1755
 5504TIP3    H216519   2.923   1.305   2.935 -0.7908  0.1116  0.4043
 5505TIP3   OH216520   5.921   0.203   1.826 -0.3158 -0.5166  0.3036
 5505TIP3    H116521   5.870   0.199   1.746 -0.4007  0.9523  0.2499
 5505TIP3    H216522   5.866   0.161   1.892 -0.4775 -1.2392 -0.2863
 5506TIP3   OH216523   6.312   5.582   1.536  0.1458  0.4531  0.2724
 5506TIP3    H116524   6.243   5.647   1.547  0.2190  0.4909  0.5208
 5506TIP3    H216525   6.393   5.633   1.535  0.3377  0.2607  2.0609
 5507TIP3   OH216526   3.426   0.399   2.471 -0.4842  1.1595 -0.3842
 5507TIP3    H116527   3.377   0.343   2.532  0.0976  1.2886  0.2113
 5507TIP3    H216528   3.358   0.438   2.415 -1.1348  1.6846  0.7177
 5508TIP3   OH216529   5.043   5.703   4.506  0.0731  0.1665 -0.1549
 5508TIP3    H116530   5.095   5.704   4.586 -0.0240  1.0712 -0.0939
 5508TIP3    H216531   4.953   5.692   4.535 -0.2168  2.4892  0.0530
 5509TIP3   OH216532   0.857   4.749   0.065  0.0282  0.8776  0.4229
 5509TIP3    H116533   0.770   4.780   0.039 -0.1620  1.8768  2.0961
 5509TIP3    H216534   0.917   4.812   0.027  0.2228 -0.7191 -2.1448
 5510TIP3   OH216535   4.647   1.467   4.625  0.0356 -0.3247 -0.9143
 5510TIP3    H116536   4.598   1.531   4.573 -1.2446 -1.0659 -0.6757
 5510TIP3    H216537   4.580   1.407   4.658  0.9933 -0.7130  0.3936
 5511TIP3   OH216538   0.176   4.396   2.479 -0.4974 -0.0610 -0.4088
 5511TIP3    H116539   0.133   4.313   2.502 -0.9640 -0.0679 -1.2754
 5511TIP3    H216540   0.162   4.451   2.556 -1.5512 -0.2653 -0.4337
 5512TIP3   OH216541  -0.006   5.506   4.527  0.5279  0.0701 -0.5289
 5512TIP3    H116542  -0.060   5.441   4.482  0.9315 -0.2800 -0.5051
 5512TIP3    H216543   0.082   5.491   4.494  0.5024  1.1613 -1.1800
 5513TIP3   OH216544   0.427   5.806   1.998  0.4057  0.2629 -0.2674
 5513TIP3    H116545   0.464   5.882   2.043 -1.1423 -0.6563  2.8018
 5513TIP3    H216546   0.477   5.731   2.031  0.0519 -0.3565 -1.0854
 5514TIP3   OH216547   4.951   1.962   5.014  0.3817  0.0143  0.5054
 5514TIP3    H116548   4.876   1.921   5.057 -0.6173  0.6594 -0.5609
 5514TIP3    H216549   4.926   1.966   4.921  0.9149  1.9875  0.4032
 5515TIP3   OH216550   5.316   0.371   1.594 -0.1905 -0.5222  0.0136
 5515TIP3    H116551   5.346   0.281   1.604  0.2492 -0.6964 -2.2514
 5515TIP3    H216552   5.288   0.377   1.503  0.8525  1.9234 -0.2415
 5516TIP3   OH216553   1.586   3.346   1.657 -0.2379 -0.1587  0.4347
 5516TIP3    H116554   1.630   3.367   1.574  1.0034 -0.1086  1.0802
 5516TIP3    H216555   1.505   3.397   1.654 -0.2559 -0.2179 -0.7741
 5517TIP3   OH216556   6.357   1.556   1.846  0.0272 -0.2648  0.1068
 5517TIP3    H116557   6.304   1.479   1.869  2.1449 -2.3788 -1.5463
 5517TIP3    H216558   6.320   1.586   1.763 -0.2039 -0.0636  0.2792
 5518TIP3   OH216559   4.132   2.979   3.111  0.6982  0.0794 -0.2030
 5518TIP3    H116560   4.107   3.058   3.063 -0.9738 -1.2790 -1.6972
 5518TIP3    H216561   4.090   2.989   3.197  2.2164  1.6906  0.4313
 5519TIP3   OH216562   4.408   3.195   1.139 -0.4276 -0.2905 -0.4271
 5519TIP3    H116563   4.341   3.221   1.202 -2.2939  1.1453 -2.8417
 5519TIP3    H216564   4.361   3.185   1.056  2.4091  1.6360 -2.4678
 5520TIP3   OH216565   5.164   5.169   4.513  0.3634 -0.2270 -0.3154
 5520TIP3    H116566   5.090   5.144   4.569  1.1014 -0.5284  0.5410
 5520TIP3    H216567   5.194   5.253   4.549 -0.9882  1.1107 -2.0855
 5521TIP3   OH216568   6.106   4.453   4.466 -1.0443  0.4711  0.2282
 5521TIP3    H116569   6.041   4.401   4.419 -0.3743  0.0112 -0.2112
 5521TIP3    H216570   6.148   4.390   4.526  1.2958 -0.0976 -1.8527
 5522TIP3   OH216571   0.389   3.954   4.713 -0.8238 -0.1001  0.0512
 5522TIP3    H116572   0.483   3.970   4.714 -1.1174  1.9781 -0.7824
 5522TIP3    H216573   0.360   3.973   4.803 -0.4310 -1.1023  0.4062
 5523TIP3   OH216574   0.033   5.264   0.421  0.4420 -0.9089  0.1549
 5523TIP3    H116575  -0.034   5.213   0.466  1.6007 -0.7062  2.2783
 5523TIP3    H216576   0.076   5.314   0.491  1.5300  0.4461 -1.3821
 5524TIP3   OH216577   6.082   5.139   3.585  0.6980 -0.0690  0.0173
 5524TIP3    H116578   6.157   5.197   3.601  0.7932 -0.2148  0.1027
 5524TIP3    H216579   6.053   5.161   3.497 -0.5065  1.5016  0.7541
 5525TIP3   OH216580   4.646   1.256   1.552 -0.6447  0.4070 -0.4099
 5525TIP3    H116581   4.685   1.342   1.568  0.5405  0.2439 -2.2059
 5525TIP3    H216582   4.558   1.263   1.589  0.0585  1.7436  1.1746
 5526TIP3   OH216583   0.999   4.595   0.263  0.3439 -0.9538  0.1308
 5526TIP3    H116584   1.091   4.603   0.237  0.0435 -1.3637 -1.1374
 5526TIP3    H216585   0.951   4.644   0.196 -0.4228 -1.4748  0.2870
 5527TIP3   OH216586   2.140   0.684   1.722 -0.0407  0.0004 -0.3136
 5527TIP3    H116587   2.203   0.729   1.665 -0.9131  0.8397 -0.6364
 5527TIP3    H216588   2.114   0.750   1.786 -1.4239  0.0216 -0.8620
 5528TIP3   OH216589   2.684   4.159   2.885 -0.2960 -0.2695  0.1186
 5528TIP3    H116590   2.698   4.249   2.858 -0.0870 -0.8889 -2.0555
 5528TIP3    H216591   2.770   4.129   2.915 -0.1456 -0.0058 -0.0448
 5529TIP3   OH216592   4.255   1.750   0.267 -0.1037  0.2707 -0.1360
 5529TIP3    H116593   4.281   1.666   0.229  0.6725  0.0258  0.8882
 5529TIP3    H216594   4.162   1.756   0.248 -0.1205 -0.6996 -0.4623
 5530TIP3   OH216595   5.674   5.038   4.349  1.0498 -0.3657  0.0651
 5530TIP3    H116596   5.740   5.085   4.400  1.8203 -0.4314 -0.8364
 5530TIP3    H216597   5.693   4.945   4.365  2.2546 -0.4244 -1.4590
 5531TIP3   OH216598   2.893   4.705   2.249 -0.0560 -0.2007  0.1329
 5531TIP3    H116599   2.819   4.645   2.250 -0.4446  0.2134 -1.5682
 5531TIP3    H216600   2.864   4.780   2.301 -0.5606 -0.3353  0.0505
 5532TIP3   OH216601   4.851   0.066   3.486 -0.4281 -0.1916  0.4054
 5532TIP3    H116602   4.942   0.037   3.474 -0.9047 -1.2150 -1.0645
 5532TIP3    H216603   4.835   0.125   3.413 -0.4495  1.4135  1.6489
 5533TIP3   OH216604   3.399   2.597   0.836  0.2223  0.0442 -0.4745
 5533TIP3    H116605   3.395   2.522   0.777 -1.7612  0.0369 -0.3980
 5533TIP3    H216606   3.326   2.583   0.897 -0.5738  2.3316 -0.8312
 5534TIP3   OH216607   3.915   1.092   2.770  0.7392  0.3494 -0.4949
 5534TIP3    H116608   3.855   1.018   2.761  1.7890 -0.4037 -1.6709
 5534TIP3    H216609   3.989   1.070   2.713  1.3000  2.0930 -0.5073
 5535TIP3   OH216610   1.745   1.388   0.688  0.2468 -0.0954  0.3155
 5535TIP3    H116611   1.815   1.355   0.743  1.2347  1.1849 -0.1139
 5535TIP3    H216612   1.745   1.332   0.611  0.4449 -0.4274  0.5576
 5536TIP3   OH216613   1.339   4.838   2.323 -0.1663  0.3954  0.4350
 5536TIP3    H116614   1.407   4.903   2.335  1.1356 -0.3622 -2.1347
 5536TIP3    H216615   1.385   4.754   2.325 -1.1771 -0.2013 -0.1784
 5537TIP3   OH216616   1.720   4.287   0.262  0.1547  0.3955 -0.0656
 5537TIP3    H116617   1.660   4.213   0.265  0.8389 -0.1360  1.0606
 5537TIP3    H216618   1.675   4.353   0.209 -0.4409 -0.8281 -1.1304
 5538TIP3   OH216619   3.169   0.747   3.029  0.7310  0.5819 -0.8462
 5538TIP3    H116620   3.224   0.821   3.007  0.1067  1.0153 -0.9675
 5538TIP3    H216621   3.093   0.755   2.971 -0.8691  1.6536  1.2660
 5539TIP3   OH216622   3.465   4.105   5.149 -0.7025 -0.0270 -0.3002
 5539TIP3    H116623   3.369   4.113   5.142 -0.6900  0.3446 -0.0787
 5539TIP3    H216624   3.497   4.193   5.129 -0.4989  0.2720  1.2118
 5540TIP3   OH216625   0.908   0.347   4.106 -0.0905  0.2437  0.1248
 5540TIP3    H116626   0.935   0.411   4.041 -2.0764  1.0942  0.0909
 5540TIP3    H216627   0.817   0.328   4.086  0.2458 -2.1975  0.4862
 5541TIP3   OH216628   0.854   4.390   2.793  0.4999  0.3060 -0.0414
 5541TIP3    H116629   0.841   4.441   2.872  0.2651  1.2895 -0.6978
 5541TIP3    H216630   0.869   4.301   2.824 -0.5081  0.5003  1.0654
 5542TIP3   OH216631   3.161   0.399   1.932  0.5819 -0.1775 -0.6393
 5542TIP3    H116632   3.222   0.327   1.950  1.9451  1.2505  0.8872
 5542TIP3    H216633   3.203   0.475   1.972 -1.6860  1.1195 -0.5782
 5543TIP3   OH216634   2.841   4.818   5.050 -0.0901  0.0788 -0.1515
 5543TIP3    H116635   2.752   4.853   5.042 -0.4340 -0.8496 -0.5282
 5543TIP3    H216636   2.841   4.771   5.134  0.0983  0.2407 -0.0615
 5544TIP3   OH216637   4.149   0.633   3.085 -0.4100 -0.3124  0.1166
 5544TIP3    H116638   4.215   0.626   3.016 -0.5687 -0.4451 -0.0229
 5544TIP3    H216639   4.199   0.651   3.164 -0.3955  2.8198 -0.4899
 5545TIP3   OH216640   1.965   0.495   4.947  0.2153  0.3784 -0.4503
 5545TIP3    H116641   1.933   0.490   5.037  0.0724  1.1460 -0.4473
 5545TIP3    H216642   2.051   0.537   4.955  0.4242 -0.0163 -0.6228
 5546TIP3   OH216643   3.192   5.244   4.881  0.7327 -0.3285  0.1986
 5546TIP3    H116644   3.181   5.271   4.972 -0.5558 -0.5577  0.1277
 5546TIP3    H216645   3.144   5.309   4.830  1.0985 -0.4296 -0.2887
 5547TIP3   OH216646   2.222   1.817   4.678  0.4179 -0.6104  0.3255
 5547TIP3    H116647   2.189   1.769   4.753 -1.9840  3.1116  1.9701
 5547TIP3    H216648   2.308   1.850   4.706 -0.0466 -0.0402  1.1143
 5548TIP3   OH216649   2.917   3.703   3.650  0.4529 -0.7869 -0.1219
 5548TIP3    H116650   2.897   3.795   3.666  0.9308 -0.7297  0.1476
 5548TIP3    H216651   2.888   3.658   3.730  0.7291 -0.7994 -0.0292
 5549TIP3   OH216652   5.199   0.580   4.624  0.0565 -0.6630  0.3344
 5549TIP3    H116653   5.216   0.583   4.718  1.6098 -0.7950  0.0803
 5549TIP3    H216654   5.170   0.490   4.608 -0.0320 -0.6936  0.6579
 5550TIP3   OH216655   2.490   4.594   0.720  0.0015 -0.4892 -0.0978
 5550TIP3    H116656   2.396   4.603   0.732  0.1352 -0.7337  1.2627
 5550TIP3    H216657   2.503   4.597   0.625 -1.3754 -0.5288 -0.2954
 5551TIP3   OH216658   2.998   4.906   4.016  0.4005 -0.1218 -0.1962
 5551TIP3    H116659   3.025   4.997   4.002  1.9476 -0.9346 -3.4998
 5551TIP3    H216660   3.070   4.854   3.980  0.3204 -2.7995  3.0083
 5552TIP3   OH216661   3.093   1.599   3.839 -0.1583 -0.4236 -0.4069
 5552TIP3    H116662   3.121   1.666   3.901  2.0636 -0.7404 -0.9795
 5552TIP3    H216663   3.174   1.570   3.797 -1.4541 -0.9670 -2.6950
 5553TIP3   OH216664   6.016   1.860   1.276  0.1545 -0.1803 -0.3486
 5553TIP3    H116665   6.030   1.947   1.240 -1.3317  0.4974  0.5947
 5553TIP3    H216666   5.986   1.875   1.366  2.2350 -1.7548  0.6971
 5554TIP3   OH216667   3.606   5.776   2.103  0.8338  0.1688  0.7204
 5554TIP3    H116668   3.653   5.710   2.052  0.0146  1.6030 -2.1371
 5554TIP3    H216669   3.532   5.729   2.141  1.9658 -1.1406  1.4086
 5555TIP3   OH216670   5.414   3.807   3.880 -0.0607 -0.5844  0.2754
 5555TIP3    H116671   5.396   3.814   3.786 -0.1808  1.4490  0.4083
 5555TIP3    H216672   5.345   3.858   3.922  1.9768  1.6085  1.2037
 5556TIP3   OH216673   0.284   2.552   0.386  0.0610  0.1452 -0.0753
 5556TIP3    H116674   0.316   2.600   0.462  0.8053 -1.2147  0.5091
 5556TIP3    H216675   0.359   2.499   0.358 -0.5720 -0.2925 -1.0047
 5557TIP3   OH216676   3.701   1.160   2.149  0.2564 -0.5433 -0.4604
 5557TIP3    H116677   3.741   1.237   2.191 -2.5426 -0.1375  1.7277
 5557TIP3    H216678   3.655   1.196   2.073  0.4300 -0.3713 -0.4880
 5558TIP3   OH216679   5.131   0.930   3.850  0.4826  0.5552  0.1574
 5558TIP3    H116680   5.214   0.937   3.897  1.1379  0.4106 -0.9530
 5558TIP3    H216681   5.065   0.925   3.919  1.2710  1.9914  1.0722
 5559TIP3   OH216682   4.058   5.456   1.155 -0.4340 -0.6613  0.3029
 5559TIP3    H116683   4.033   5.548   1.149  0.1989 -0.5018  0.0198
 5559TIP3    H216684   4.144   5.457   1.197  0.9463 -0.8756 -2.2779
 5560TIP3   OH216685   4.846   2.250   1.176  0.0307 -0.2818  0.1560
 5560TIP3    H116686   4.914   2.190   1.145  0.8171 -0.8578  2.7022
 5560TIP3    H216687   4.764   2.210   1.147  0.6703 -1.1228 -0.5439
 5561TIP3   OH216688   0.510   2.721   3.379 -0.7085 -0.0458  0.1376
 5561TIP3    H116689   0.563   2.801   3.383 -0.0500 -0.2552 -2.5012
 5561TIP3    H216690   0.445   2.732   3.448  1.7728  0.9294  2.4797
 5562TIP3   OH216691   5.203   5.420   4.613  0.2797 -0.0656  0.4772
 5562TIP3    H116692   5.214   5.484   4.542  0.7007  1.1489  1.6092
 5562TIP3    H216693   5.290   5.383   4.626  0.1581 -0.4473  0.2354
 5563TIP3   OH216694   4.657   1.907   0.488 -0.2278  0.4439  0.1860
 5563TIP3    H116695   4.581   1.959   0.515  0.8693  1.6581  1.0478
 5563TIP3    H216696   4.619   1.830   0.446 -1.9318  1.1138  0.4018
 5564TIP3   OH216697   4.499   3.261   4.446 -0.4519  0.4898  0.0996
 5564TIP3    H116698   4.464   3.191   4.501  0.5223  1.5750  2.2200
 5564TIP3    H216699   4.491   3.228   4.357 -0.1766 -2.2499  1.0117
 5565TIP3   OH216700   3.164   0.057   2.846 -0.1288 -0.2674 -0.8112
 5565TIP3    H116701   3.200   0.054   2.935 -0.2467 -1.3462 -0.7763
 5565TIP3    H216702   3.169  -0.034   2.816 -5.0363 -1.1293  0.1145
 5566TIP3   OH216703   0.426   3.162   1.237  0.3083  0.0017  0.0945
 5566TIP3    H116704   0.339   3.140   1.270  0.1794 -0.4395 -0.5168
 5566TIP3    H216705   0.479   3.083   1.254  1.4627  1.3145  3.3169
 5567TIP3   OH216706   2.487   5.724   4.707 -0.0737 -0.8752  0.0059
 5567TIP3    H116707   2.449   5.812   4.701  0.1688 -0.8613 -2.0492
 5567TIP3    H216708   2.533   5.724   4.791 -2.1061  0.0985  1.2162
 5568TIP3   OH216709   0.313   2.256   4.857 -0.0174  0.0338 -0.0699
 5568TIP3    H116710   0.288   2.271   4.949  1.9564  1.9899  0.2511
 5568TIP3    H216711   0.299   2.341   4.815  2.4753  0.2243 -0.6703
 5569TIP3   OH216712   0.794   0.365   1.630  0.2021  0.5830 -0.1867
 5569TIP3    H116713   0.787   0.348   1.724  1.0012  0.6744 -0.1095
 5569TIP3    H216714   0.738   0.442   1.615 -0.7468 -0.0446  0.0283
 5570TIP3   OH216715   5.054   0.039   0.100 -0.5923  0.1032  0.5048
 5570TIP3    H116716   5.090  -0.015   0.029 -1.2850 -0.0910  0.2906
 5570TIP3    H216717   5.029  -0.023   0.168 -3.0326 -0.0932 -0.4454
 5571TIP3   OH216718   3.445   4.180   0.170 -0.0091 -0.1768  0.4498
 5571TIP3    H116719   3.424   4.258   0.223  0.8111  1.6926 -1.8225
 5571TIP3    H216720   3.377   4.117   0.193 -0.8249  1.2574  2.2357
 5572TIP3   OH216721   3.264   1.456   2.534 -0.3609  0.2509  0.4350
 5572TIP3    H116722   3.221   1.484   2.615 -1.2141  0.0998  0.0433
 5572TIP3    H216723   3.204   1.394   2.495 -1.2805  2.3014 -1.6747
 5573TIP3   OH216724   1.225   1.901   2.754 -0.3171 -0.4903  0.4275
 5573TIP3    H116725   1.195   1.991   2.766  0.5399 -0.3552  1.7117
 5573TIP3    H216726   1.320   1.908   2.747 -0.1084 -1.3997  1.9306
 5574TIP3   OH216727   2.776   3.232   1.302 -0.2179  0.6648 -0.0826
 5574TIP3    H116728   2.760   3.150   1.255  0.6724  1.1435 -1.2840
 5574TIP3    H216729   2.852   3.215   1.356 -1.4170  0.0244  1.4622
 5575TIP3   OH216730   6.157   0.462   3.951 -0.0621  0.0195  0.6119
 5575TIP3    H116731   6.225   0.442   4.015 -0.6135  1.3818  1.6679
 5575TIP3    H216732   6.204   0.497   3.875  0.5538 -1.1261  0.4430
 5576TIP3   OH216733   2.472   1.172   3.095 -0.2051 -0.2988 -0.0812
 5576TIP3    H116734   2.517   1.257   3.096 -1.4794  0.3999  0.0540
 5576TIP3    H216735   2.425   1.168   3.179  1.0431 -1.8344  0.5962
 5577TIP3   OH216736   1.054   0.800   0.587  0.3895  0.2050  0.0234
 5577TIP3    H116737   1.118   0.864   0.616 -0.2711  0.1650  1.6630
 5577TIP3    H216738   0.971   0.847   0.585  0.2958  0.0394 -1.2744
 5578TIP3   OH216739   3.089   3.913   4.141 -0.0400 -0.1092  0.3191
 5578TIP3    H116740   3.022   3.872   4.196  0.9351  0.9153  2.3753
 5578TIP3    H216741   3.157   3.942   4.202  1.7684 -0.0975 -1.5861
 5579TIP3   OH216742   6.122   2.922   1.023 -0.6804  0.0773  0.1121
 5579TIP3    H116743   6.078   3.003   0.999  0.5251  0.3475 -1.3264
 5579TIP3    H216744   6.065   2.853   0.990 -0.3858  0.4096 -1.1578
 5580TIP3   OH216745   2.297   0.914   0.558 -0.6047  0.6308 -0.7829
 5580TIP3    H116746   2.273   1.004   0.537  1.0081  1.1432 -0.6288
 5580TIP3    H216747   2.286   0.908   0.653  0.2945  1.0277 -0.6380
 5581TIP3   OH216748   1.179   3.274   1.879 -0.3525 -0.0290 -0.7546
 5581TIP3    H116749   1.209   3.332   1.809 -1.2056 -0.0724 -1.1711
 5581TIP3    H216750   1.217   3.310   1.959 -0.1637  0.5897 -1.1215
 5582TIP3   OH216751   2.013   2.539   2.058  0.6334 -0.2017 -0.1978
 5582TIP3    H116752   2.016   2.470   2.124 -2.4472 -0.5624 -0.2961
 5582TIP3    H216753   1.982   2.495   1.978  1.1779  0.8202 -1.0040
 5583TIP3   OH216754   0.115   3.994   4.125 -0.2642 -0.9517 -0.5044
 5583TIP3    H116755   0.201   3.997   4.167 -1.1021 -0.6340  1.3045
 5583TIP3    H216756   0.127   4.039   4.041  1.4225 -1.3557 -0.5165
 5584TIP3   OH216757   5.365   1.121   3.936 -0.3293  0.2433 -0.2031
 5584TIP3    H116758   5.361   1.083   4.024 -3.4013 -1.4010 -0.8785
 5584TIP3    H216759   5.448   1.091   3.900  0.1997 -0.5018  1.5405
 5585TIP3   OH216760   3.120   4.023   5.075 -0.1742  0.6446 -0.5982
 5585TIP3    H116761   3.140   4.107   5.034 -1.1302  0.9251 -0.5238
 5585TIP3    H216762   3.042   3.991   5.029 -0.2073  0.1160 -0.1914
 5586TIP3   OH216763   3.235   5.266   3.363 -0.0856 -0.5341  0.3835
 5586TIP3    H116764   3.213   5.244   3.453  0.1259  0.5948  0.7276
 5586TIP3    H216765   3.169   5.330   3.337 -0.3617 -1.1185 -0.3953
 5587TIP3   OH216766   3.462   0.831   3.758  0.4046 -0.1509 -0.5690
 5587TIP3    H116767   3.458   0.836   3.853  0.2513 -1.3430 -0.4954
 5587TIP3    H216768   3.528   0.894   3.733  0.8486 -0.2291  0.3760
 5588TIP3   OH216769   0.822   5.233   5.042 -0.3184 -0.5173  0.0166
 5588TIP3    H116770   0.816   5.146   5.001 -1.6314 -0.7346  0.6357
 5588TIP3    H216771   0.895   5.225   5.103 -0.0841 -1.0176 -0.3120
 5589TIP3   OH216772   5.675   2.587   1.576  0.3097 -0.7467 -0.5224
 5589TIP3    H116773   5.620   2.513   1.549 -1.8387  0.5984 -0.0804
 5589TIP3    H216774   5.713   2.620   1.494 -0.1010 -1.2783 -0.9302
 5590TIP3   OH216775   1.128   3.246   3.327 -0.4939 -0.5346 -0.4487
 5590TIP3    H116776   1.203   3.281   3.279  0.3152 -0.2459  0.9692
 5590TIP3    H216777   1.069   3.321   3.338  0.2804 -0.0657  0.7657
 5591TIP3   OH216778   2.580   1.166   1.487  0.3910  0.7855  0.7384
 5591TIP3    H116779   2.590   1.218   1.567  2.7491  1.4425  0.0853
 5591TIP3    H216780   2.612   1.079   1.512  1.2875  1.0349  0.4974
 5592TIP3   OH216781   5.085   3.182   1.236 -0.1020 -0.6136  0.1296
 5592TIP3    H116782   5.167   3.229   1.224 -0.6775  0.2272 -0.6154
 5592TIP3    H216783   5.081   3.165   1.331  0.6280 -0.1121  0.2582
 5593TIP3   OH216784   1.142   0.087   5.090 -1.1403 -0.5450  0.0587
 5593TIP3    H116785   1.170   0.099   5.181  0.9779 -1.9808 -0.3336
 5593TIP3    H216786   1.175   0.164   5.045  0.4784 -1.2291  0.0036
 5594TIP3   OH216787   4.796   5.749   4.927 -0.9247  0.1744 -0.3676
 5594TIP3    H116788   4.735   5.817   4.955 -0.2968  0.1841  1.0777
 5594TIP3    H216789   4.882   5.785   4.949 -0.6037 -1.2366  0.8229
 5595TIP3   OH216790   2.216   4.258   3.974  0.1028  0.8661  0.1771
 5595TIP3    H116791   2.275   4.332   3.957  1.3718 -0.2298 -0.3291
 5595TIP3    H216792   2.271   4.193   4.017 -0.4087 -0.6722 -1.3929
 5596TIP3   OH216793   3.012   4.303   0.423  0.3241  0.0742  0.2723
 5596TIP3    H116794   3.064   4.234   0.465 -0.8342 -2.1486 -1.6936
 5596TIP3    H216795   2.935   4.312   0.479  1.8381  2.1354  2.2352
 5597TIP3   OH216796   3.719   3.963   3.752 -0.6337 -0.6076 -0.1966
 5597TIP3    H116797   3.799   4.009   3.778 -0.7545  0.1658 -1.1795
 5597TIP3    H216798   3.732   3.874   3.786  0.1906 -0.2255  0.5416
 5598TIP3   OH216799   0.602   2.595   2.847  0.3259 -0.0608  0.0464
 5598TIP3    H116800   0.551   2.628   2.774 -1.1576  1.1323  1.5350
 5598TIP3    H216801   0.552   2.520   2.880  0.4516  0.0260  0.4473
 5599TIP3   OH216802   3.748   3.361   4.353 -0.0280 -0.1330  0.2082
 5599TIP3    H116803   3.704   3.288   4.308 -0.6711 -0.0463  0.6802
 5599TIP3    H216804   3.737   3.436   4.294  2.9353 -0.9426 -1.5674
 5600TIP3   OH216805   4.756   4.661   4.612  0.2902  0.4398 -0.0494
 5600TIP3    H116806   4.731   4.671   4.520  2.1868  1.1352 -0.5407
 5600TIP3    H216807   4.759   4.751   4.646  1.3926  0.3372  0.1576
 5601TIP3   OH216808   1.127   3.878   3.592  0.0017 -0.1033 -0.4830
 5601TIP3    H116809   1.065   3.888   3.520 -0.8207  1.6058  0.4124
 5601TIP3    H216810   1.210   3.910   3.557 -0.1110 -0.3759 -1.0103
 5602TIP3   OH216811   0.917   0.948   3.921 -0.5603 -0.1214  0.6201
 5602TIP3    H116812   0.873   0.904   3.848 -0.9831  0.2265  0.6644
 5602TIP3    H216813   0.895   1.041   3.910  2.6490  0.5819 -1.1514
 5603TIP3   OH216814   6.300   0.951   3.740  0.1154  0.1410  0.4795
 5603TIP3    H116815   6.276   0.951   3.647 -0.4217 -1.8773  0.5617
 5603TIP3    H216816   6.288   1.042   3.768  2.2881  1.2867 -1.8782
 5604TIP3   OH216817   4.663   0.621   1.335  1.0287 -0.2658 -0.0608
 5604TIP3    H116818   4.636   0.656   1.250 -0.8909 -1.0071  0.1962
 5604TIP3    H216819   4.732   0.681   1.365 -2.2586  3.6066  0.5179
 5605TIP3   OH216820   1.469   2.162   4.789  0.6015 -0.3553  0.6269
 5605TIP3    H116821   1.516   2.168   4.706 -0.1423  2.2883  0.2986
 5605TIP3    H216822   1.401   2.097   4.774  0.3333  0.2399 -0.9303
 5606TIP3   OH216823   1.044   5.887   1.956  1.0809  0.4900 -0.1759
 5606TIP3    H116824   0.990   5.825   2.005 -0.4077  0.0335 -2.2421
 5606TIP3    H216825   1.133   5.851   1.962  0.3660 -1.5019 -0.7476
 5607TIP3   OH216826   1.381   2.846   2.914 -0.1039  0.0207 -0.0388
 5607TIP3    H116827   1.372   2.751   2.919  1.3454 -0.0993  0.7051
 5607TIP3    H216828   1.473   2.861   2.894  0.1447  1.2937  1.7996
 5608TIP3   OH216829   1.902   1.212   1.783  0.2969 -0.4041  0.5030
 5608TIP3    H116830   1.959   1.153   1.733 -1.1671 -0.8078 -0.7393
 5608TIP3    H216831   1.814   1.194   1.752 -0.2725  2.0941  0.4337
 5609TIP3   OH216832   3.048   1.881   2.482 -0.1456 -0.7613 -0.0023
 5609TIP3    H116833   2.954   1.866   2.468 -0.1756  0.1486 -0.9130
 5609TIP3    H216834   3.091   1.806   2.440 -0.3943  0.0392 -1.7902
 5610TIP3   OH216835   1.758   3.011   0.592  0.4683 -0.1972  0.8521
 5610TIP3    H116836   1.764   3.093   0.544  1.6951  0.4508  2.0716
 5610TIP3    H216837   1.843   2.969   0.578  2.0697  1.3270  4.6680
 5611TIP3   OH216838   2.582   1.491   2.714 -0.0319  0.0141 -0.6534
 5611TIP3    H116839   2.542   1.411   2.682  0.2499 -0.1533 -0.5890
 5611TIP3    H216840   2.663   1.463   2.756  0.5221  0.4133 -1.4327
 5612TIP3   OH216841   2.317   4.006   3.036  0.0481  0.4827  0.3243
 5612TIP3    H116842   2.390   3.945   3.030 -0.5043 -0.4246  2.1860
 5612TIP3    H216843   2.279   3.991   3.123 -1.2625  2.1716  0.1133
 5613TIP3   OH216844   3.540   1.507   1.674 -0.1624  0.3305 -0.8070
 5613TIP3    H116845   3.563   1.563   1.749 -0.7040 -1.0881  0.4851
 5613TIP3    H216846   3.618   1.509   1.618  0.4526  1.0407  0.0361
 5614TIP3   OH216847   4.317   3.872   2.059  0.5490 -0.5944 -0.5519
 5614TIP3    H116848   4.339   3.894   1.968 -0.8693 -1.7018 -1.1895
 5614TIP3    H216849   4.301   3.778   2.058 -0.1096 -0.5145  0.7219
 5615TIP3   OH216850   3.706   2.630   0.748 -1.0610  0.1966 -0.3658
 5615TIP3    H116851   3.752   2.658   0.669 -1.1253  1.4527  0.0107
 5615TIP3    H216852   3.618   2.610   0.719 -0.9319  0.1201 -0.7047
 5616TIP3   OH216853   5.601   4.833   3.301 -0.2557 -0.5453 -0.3020
 5616TIP3    H116854   5.590   4.792   3.386 -0.8479  1.9815  0.9399
 5616TIP3    H216855   5.516   4.822   3.258 -0.2047 -1.1352 -0.2611
 5617TIP3   OH216856   4.118   1.365   1.114  0.2166  0.6941  0.0134
 5617TIP3    H116857   4.120   1.450   1.070 -1.5261 -0.3258 -2.2680
 5617TIP3    H216858   4.201   1.360   1.161  1.0069  3.0475 -0.9777
 5618TIP3   OH216859   5.242   5.842   3.527  0.3734 -0.2400 -0.0822
 5618TIP3    H116860   5.336   5.840   3.544 -0.0266 -0.9713  2.2641
 5618TIP3    H216861   5.206   5.895   3.598 -1.2161 -1.8322  0.3567
 5619TIP3   OH216862   5.584   3.863   3.342 -0.6141  0.3243  0.6352
 5619TIP3    H116863   5.586   3.846   3.248 -1.2361 -0.1768  0.7041
 5619TIP3    H216864   5.652   3.929   3.356 -0.6323  0.5324 -0.1885
 5620TIP3   OH216865   0.712   1.540   0.968 -0.0851 -0.3068 -0.4081
 5620TIP3    H116866   0.661   1.545   0.887 -2.4364  0.0920  1.0161
 5620TIP3    H216867   0.740   1.449   0.973 -0.9392 -0.6159 -1.0746
 5621TIP3   OH216868   3.451   1.814   2.543 -0.2752 -0.1509 -0.1580
 5621TIP3    H116869   3.541   1.841   2.564 -0.2274  0.1946 -0.7924
 5621TIP3    H216870   3.397   1.885   2.578 -0.2403  0.0976 -0.6114
 5622TIP3   OH216871   3.973   1.224   3.593 -0.5391  0.1482  0.2274
 5622TIP3    H116872   3.963   1.169   3.671 -0.3312  0.6175  0.5943
 5622TIP3    H216873   3.932   1.174   3.522 -0.8830 -0.2105  0.6738
 5623TIP3   OH216874   4.574   1.726   3.001  0.4101 -0.0007  0.5624
 5623TIP3    H116875   4.597   1.792   2.936  1.9249 -1.0571 -0.0117
 5623TIP3    H216876   4.652   1.673   3.011 -0.7204 -1.6476  1.1019
 5624TIP3   OH216877   3.466   2.457   3.168  0.1032  0.4281  0.5720
 5624TIP3    H116878   3.524   2.383   3.153 -1.2706 -0.5249 -0.2738
 5624TIP3    H216879   3.513   2.513   3.230  3.0235  0.9575 -1.8679
 5625TIP3   OH216880   6.192   1.685   3.128 -0.0632 -0.3686  0.0561
 5625TIP3    H116881   6.102   1.710   3.107 -0.8858 -2.5549  0.6417
 5625TIP3    H216882   6.195   1.683   3.223  0.2825 -1.2560  0.0429
 5626TIP3   OH216883   2.394   2.876   3.828  0.1122  0.3468  0.2236
 5626TIP3    H116884   2.319   2.824   3.856  1.0515 -0.0391  2.1950
 5626TIP3    H216885   2.376   2.964   3.860  0.8542  0.0631  1.5102
 5627TIP3   OH216886   4.138   2.329   0.170 -0.3164  0.4952 -0.8807
 5627TIP3    H116887   4.090   2.395   0.121 -0.7895  1.0102  0.2408
 5627TIP3    H216888   4.080   2.253   0.172 -1.5194  1.3859  1.1738
 5628TIP3   OH216889   4.381   2.361   4.783 -0.3762 -0.2082  0.6118
 5628TIP3    H116890   4.452   2.413   4.822 -0.8540 -0.8826  2.4971
 5628TIP3    H216891   4.406   2.351   4.692  0.7594  1.5751  0.6830
 5629TIP3   OH216892   2.791   5.471   3.270 -0.2758  0.1441  0.3186
 5629TIP3    H116893   2.768   5.564   3.274 -0.5232  0.0456  1.7726
 5629TIP3    H216894   2.887   5.470   3.264 -0.3418  0.4869 -1.4137
 5630TIP3   OH216895   0.290   3.408   0.144  0.0451  0.3044  0.3270
 5630TIP3    H116896   0.340   3.484   0.173  1.8070 -0.1835 -1.1610
 5630TIP3    H216897   0.260   3.432   0.056 -0.6128 -0.1764  0.4185
 5631TIP3   OH216898   0.600   2.952   1.294 -0.6728 -0.1730 -0.0632
 5631TIP3    H116899   0.671   3.017   1.295 -1.5192  0.8113 -1.1169
 5631TIP3    H216900   0.645   2.868   1.281  0.3446  0.3626 -0.1372
 5632TIP3   OH216901   4.694   5.098   5.124 -0.5051  0.1102 -0.2315
 5632TIP3    H116902   4.742   5.140   5.053  0.4134 -0.3483  0.0971
 5632TIP3    H216903   4.749   5.023   5.148  0.3244  1.4020  2.3621
 5633TIP3   OH216904   5.216   4.703   1.044 -0.0610 -0.1928 -0.8345
 5633TIP3    H116905   5.279   4.639   1.010  1.0745  0.1673  0.4998
 5633TIP3    H216906   5.209   4.682   1.137 -1.0421  0.5194 -0.7337
 5634TIP3   OH216907   1.599   3.343   3.284 -0.5269  0.3105  0.1715
 5634TIP3    H116908   1.576   3.253   3.306 -0.6501 -0.2156 -1.9092
 5634TIP3    H216909   1.661   3.335   3.211  0.3437  1.8977  0.6683
 5635TIP3   OH216910   1.186   3.595   3.466 -0.0324  0.3382 -0.3674
 5635TIP3    H116911   1.153   3.570   3.552  0.5374  1.6051  0.2459
 5635TIP3    H216912   1.182   3.690   3.466 -0.0377  0.3539 -1.7655
 5636TIP3   OH216913   4.442   0.458   1.164 -0.4634 -0.3331  0.5543
 5636TIP3    H116914   4.380   0.419   1.102 -0.4121 -0.4066  0.5495
 5636TIP3    H216915   4.522   0.471   1.113 -0.5563 -0.0006  0.4920
 5637TIP3   OH216916   0.240   0.366   1.673  0.7199 -0.5271  0.4544
 5637TIP3    H116917   0.243   0.424   1.596 -0.0854 -2.5536 -1.1908
 5637TIP3    H216918   0.147   0.351   1.688  0.8909 -0.5407  1.5470
 5638TIP3   OH216919   4.625   4.121   3.440 -0.2407  0.2603  0.4284
 5638TIP3    H116920   4.531   4.105   3.430  0.1941 -2.1190 -0.5460
 5638TIP3    H216921   4.657   4.047   3.492  1.6647 -1.2141 -2.5663
 5639TIP3   OH216922   2.217   3.582   4.310  0.1312 -0.2933 -0.3301
 5639TIP3    H116923   2.131   3.591   4.350  0.3793  0.2456  0.0877
 5639TIP3    H216924   2.227   3.488   4.296 -0.3717 -0.3912 -0.0490
 5640TIP3   OH216925   3.838   0.471   1.411  0.0498  0.3610  0.2967
 5640TIP3    H116926   3.913   0.422   1.446  2.3490  3.3114 -0.0552
 5640TIP3    H216927   3.785   0.490   1.488 -0.6442 -2.0994  0.5056
 5641TIP3   OH216928   4.435   2.932   2.944  0.4892  0.1987  0.1917
 5641TIP3    H116929   4.449   3.018   2.904 -0.4376  0.1261 -0.3169
 5641TIP3    H216930   4.436   2.949   3.038  2.2509  0.4440  0.1747
 5642TIP3   OH216931   5.726   4.137   3.694 -0.5454  0.4884  0.0349
 5642TIP3    H116932   5.746   4.063   3.636 -0.2038  1.5015 -1.1888
 5642TIP3    H216933   5.713   4.097   3.780  2.5701 -0.7395  0.0694
 5643TIP3   OH216934   5.924   1.036   4.446 -0.4179  0.3265 -0.3489
 5643TIP3    H116935   5.916   1.125   4.413  1.9438  0.5031 -0.6124
 5643TIP3    H216936   5.893   1.041   4.537 -2.7654  0.7940 -1.1096
 5644TIP3   OH216937   1.409   0.692   3.348  0.4760  0.0322  0.3171
 5644TIP3    H116938   1.436   0.758   3.283 -0.2689  0.1104  0.0721
 5644TIP3    H216939   1.431   0.732   3.433  0.7070  0.2829  0.1418
 5645TIP3   OH216940   4.845   1.010   2.366 -0.0383  0.0947 -0.4148
 5645TIP3    H116941   4.879   0.995   2.278  0.5563 -2.1566  0.1328
 5645TIP3    H216942   4.829   1.104   2.370  0.7983  0.3841 -2.6015
 5646TIP3   OH216943   2.525   3.411   5.061 -0.9250 -0.4526 -0.5292
 5646TIP3    H116944   2.477   3.374   5.135  1.0295  0.8904  1.5077
 5646TIP3    H216945   2.531   3.504   5.080 -0.0095 -0.1363 -2.1873
 5647TIP3   OH216946   3.535   1.190   1.604  0.1090  0.3595 -0.6691
 5647TIP3    H116947   3.440   1.173   1.604 -0.1056  1.4429 -1.4226
 5647TIP3    H216948   3.560   1.187   1.512  0.5694  1.2531 -0.5920
 5648TIP3   OH216949   0.991   0.996   1.349  0.2036 -0.1812 -0.0939
 5648TIP3    H116950   0.972   1.015   1.441  0.8797 -0.5862  0.1349
 5648TIP3    H216951   1.086   0.982   1.346  0.0186 -1.4158 -0.6274
 5649TIP3   OH216952   2.370   4.671   1.081  0.6462 -0.4053  0.1787
 5649TIP3    H116953   2.392   4.695   1.171 -1.7612  0.5812  0.5818
 5649TIP3    H216954   2.277   4.692   1.072  0.4338 -1.8842 -2.0991
 5650TIP3   OH216955   3.210   3.641   0.833  0.4949  0.6766 -0.3800
 5650TIP3    H116956   3.156   3.601   0.901 -0.7502  2.3447 -0.3331
 5650TIP3    H216957   3.233   3.727   0.868  2.3590  0.4060 -0.8505
 5651TIP3   OH216958   1.254   5.299   3.387  0.6919 -0.3362  0.4222
 5651TIP3    H116959   1.182   5.350   3.424  1.2109 -0.5231  1.7732
 5651TIP3    H216960   1.327   5.314   3.447  1.7157 -0.3411 -0.7822
 5652TIP3   OH216961   0.339   5.489   0.066 -0.0716  0.6561  0.0905
 5652TIP3    H116962   0.282   5.419   0.099  1.1722 -0.4809 -0.1023
 5652TIP3    H216963   0.388   5.518   0.143  1.8227 -1.0413 -0.3728
 5653TIP3   OH216964   0.621   1.004   0.199 -0.0900  0.7768  0.0696
 5653TIP3    H116965   0.711   0.994   0.168  0.1070 -0.7260  1.0037
 5653TIP3    H216966   0.631   1.024   0.292 -0.7100  1.6598 -0.0486
 5654TIP3   OH216967   4.612   3.768   1.267 -0.2356 -0.5506  0.2168
 5654TIP3    H116968   4.683   3.716   1.228 -0.3409 -0.1974 -0.4567
 5654TIP3    H216969   4.576   3.711   1.334 -1.4366 -2.0639 -1.6059
 5655TIP3   OH216970   2.779   4.452   2.152  0.7070 -0.2296  0.2617
 5655TIP3    H116971   2.732   4.506   2.089  0.2203 -2.1396 -1.0946
 5655TIP3    H216972   2.854   4.417   2.103  0.8675 -0.9707  1.0121
 5656TIP3   OH216973   0.396   0.174   3.524  0.3260  0.3950  0.3956
 5656TIP3    H116974   0.381   0.129   3.441 -1.3692  1.8751 -0.1568
 5656TIP3    H216975   0.488   0.156   3.545  0.6426 -0.4487 -1.5241
 5657TIP3   OH216976   3.656   3.980   2.158  0.3066 -0.6924  0.2703
 5657TIP3    H116977   3.740   3.935   2.150  0.3527 -0.3701 -1.2492
 5657TIP3    H216978   3.678   4.065   2.197  0.6070 -0.8274  0.3970
 5658TIP3   OH216979   0.521   1.835   3.285 -0.2600  0.3418  0.1427
 5658TIP3    H116980   0.609   1.802   3.264 -1.1685  0.0572 -4.0288
 5658TIP3    H216981   0.521   1.925   3.252 -1.0033  1.0785  1.9873
 5659TIP3   OH216982   5.565   2.715   3.619 -0.1197  0.4816 -0.1021
 5659TIP3    H116983   5.615   2.740   3.696  0.1636  0.2540 -0.2088
 5659TIP3    H216984   5.515   2.793   3.596  0.4983  0.8430 -0.2374
 5660TIP3   OH216985   5.673   0.614   4.887 -0.0439 -0.1031  0.2781
 5660TIP3    H116986   5.736   0.554   4.848  0.2797  0.5771 -0.2729
 5660TIP3    H216987   5.659   0.580   4.976 -0.2669 -1.2658 -0.1913
 5661TIP3   OH216988   6.352   4.424   4.090  0.1525  0.0470 -0.1404
 5661TIP3    H116989   6.398   4.346   4.059 -0.8408 -0.6832  0.1637
 5661TIP3    H216990   6.276   4.431   4.032  0.8381  1.4931 -0.9229
 5662TIP3   OH216991   0.638   5.314   1.664  0.3153 -0.2190  0.3531
 5662TIP3    H116992   0.650   5.243   1.602 -3.2873  0.0582 -0.9087
 5662TIP3    H216993   0.726   5.333   1.697  2.0324 -2.1569 -2.6590
 5663TIP3   OH216994   3.764   4.870   5.118  0.8663 -0.6722  0.0651
 5663TIP3    H116995   3.770   4.823   5.035  1.1296 -0.9125  0.2179
 5663TIP3    H216996   3.851   4.909   5.130  0.5432  0.1686 -0.2408
 5664TIP3   OH216997   1.961   0.380   0.191  0.2619 -1.0793  0.3977
 5664TIP3    H116998   1.959   0.307   0.129 -0.3788 -1.7906  1.2203
 5664TIP3    H216999   1.945   0.339   0.276 -0.1039  0.0215  0.8809
 5665TIP3   OH217000   6.079   4.019   0.984 -0.6357 -0.1987  0.0418
 5665TIP3    H117001   6.172   3.995   0.994 -0.6730  0.1829  1.7552
 5665TIP3    H217002   6.078   4.114   0.993 -1.1905 -0.2017  0.0378
 5666TIP3   OH217003   1.462   4.836   3.941 -0.1807  0.0908 -1.1930
 5666TIP3    H117004   1.445   4.746   3.967 -1.3591  0.7154  0.3629
 5666TIP3    H217005   1.428   4.889   4.014  2.3705  1.7365 -1.0881
 5667TIP3   OH217006   6.031   1.074   2.404 -0.2907  0.2644 -0.1227
 5667TIP3    H117007   6.127   1.070   2.402 -0.2127  0.6992  1.3485
 5667TIP3    H217008   6.009   1.140   2.338  0.3478 -0.5141 -1.1481
 5668TIP3   OH217009   1.177   0.635   4.869  0.1684  0.6426  0.0176
 5668TIP3    H117010   1.128   0.613   4.789 -1.3029  0.8347  0.8261
 5668TIP3    H217011   1.238   0.703   4.841  1.7831 -1.3116 -1.5686
 5669TIP3   OH217012   3.794   2.024   3.941 -0.5381 -0.4351  0.1096
 5669TIP3    H117013   3.792   1.932   3.966  2.4354 -0.8911 -0.9268
 5669TIP3    H217014   3.866   2.061   3.992 -0.0329  0.6734 -1.3339
 5670TIP3   OH217015   1.731   1.354   4.917 -0.1645 -0.1016 -0.4453
 5670TIP3    H117016   1.669   1.375   4.988 -0.1634  0.7196 -0.6791
 5670TIP3    H217017   1.803   1.308   4.961 -0.6028 -0.4435 -0.0645
 5671TIP3   OH217018   3.001   3.339   0.840  0.0527  0.1442 -0.2006
 5671TIP3    H117019   3.090   3.349   0.873 -0.1132  0.7123  0.0768
 5671TIP3    H217020   2.994   3.246   0.818  0.4733 -0.0527  0.4721
 5672TIP3   OH217021   4.463   5.037   3.447  0.1649  0.3523  0.3864
 5672TIP3    H117022   4.493   5.005   3.362 -0.8442 -0.6959  0.3900
 5672TIP3    H217023   4.543   5.047   3.499  0.6697 -0.4135 -0.2247
 5673TIP3   OH217024   5.878   3.599   0.040 -0.1608  0.5215 -0.7008
 5673TIP3    H117025   5.898   3.672  -0.018 -0.1948  1.0942 -0.0053
 5673TIP3    H217026   5.782   3.598   0.046 -0.2276 -0.3187 -1.6250
 5674TIP3   OH217027   5.219   5.800   3.236  0.3540  0.4025 -0.5381
 5674TIP3    H117028   5.230   5.786   3.330 -0.7512 -1.2880 -0.6197
 5674TIP3    H217029   5.294   5.854   3.210  0.5613  1.0706  1.3344
 5675TIP3   OH217030   3.713   5.318   1.240 -0.5865 -0.2455  0.0011
 5675TIP3    H117031   3.697   5.411   1.259  0.5800 -0.1790  0.7229
 5675TIP3    H217032   3.791   5.296   1.291 -1.2786 -1.8268  0.4224
 5676TIP3   OH217033   4.640   2.593   1.062  0.2505  0.1265 -0.2332
 5676TIP3    H117034   4.588   2.666   1.028 -0.8404 -0.4501  0.1481
 5676TIP3    H217035   4.578   2.543   1.116  1.6749  0.4816  1.8335
 5677TIP3   OH217036   0.823   4.396   0.357  0.5195 -0.1029 -0.1903
 5677TIP3    H117037   0.885   4.458   0.318  0.3055 -0.4479 -1.1041
 5677TIP3    H217038   0.826   4.320   0.299  1.0504 -1.1125  1.1053
 5678TIP3   OH217039   4.745   4.227   3.222  0.1646 -0.1547 -0.0779
 5678TIP3    H117040   4.691   4.203   3.297  0.7987 -2.3123 -0.2352
 5678TIP3    H217041   4.833   4.239   3.259  0.8365 -2.8314 -0.5943
 5679TIP3   OH217042   3.130   1.706   0.298  0.0184 -0.5698 -0.1630
 5679TIP3    H117043   3.115   1.795   0.331  0.9723 -0.8262  1.0530
 5679TIP3    H217044   3.139   1.717   0.204 -4.0480  0.0415 -0.6651
 5680TIP3   OH217045   2.154   4.835   1.777  0.4929 -0.2900 -0.3180
 5680TIP3    H117046   2.241   4.870   1.794  0.2699 -0.2824  0.9505
 5680TIP3    H217047   2.148   4.827   1.682  2.2300 -1.1961 -0.3844
 5681TIP3   OH217048   5.784   4.895   1.103  0.2230 -0.2334 -0.0346
 5681TIP3    H117049   5.694   4.887   1.073  0.2173  2.5705 -1.0811
 5681TIP3    H217050   5.832   4.828   1.054 -1.0589 -0.8861 -0.4404
 5682TIP3   OH217051   5.305   1.279   2.421 -0.3416 -0.3777 -0.2421
 5682TIP3    H117052   5.247   1.356   2.424 -0.4763 -0.5040  1.5712
 5682TIP3    H217053   5.249   1.209   2.386 -1.1070 -0.3356  0.8593
 5683TIP3   OH217054   4.259   5.767   0.771  0.6593 -0.3097 -0.5915
 5683TIP3    H117055   4.338   5.738   0.727  0.2647  0.2474 -1.6917
 5683TIP3    H217056   4.218   5.686   0.803  2.7720 -0.4928  2.0379
 5684TIP3   OH217057   4.768   3.760   2.901 -0.3207 -0.2683  0.4778
 5684TIP3    H117058   4.732   3.747   2.813 -1.1938 -1.2566  0.9524
 5684TIP3    H217059   4.709   3.823   2.942 -0.5355 -0.6073  0.6965
 5685TIP3   OH217060   0.833   2.139   2.788 -0.1939  0.3264 -0.3251
 5685TIP3    H117061   0.832   2.214   2.728 -1.5187  1.0018  0.5128
 5685TIP3    H217062   0.744   2.133   2.821  0.1371 -1.0189  0.3927
 5686TIP3   OH217063   5.788   5.022   5.007  0.3753 -0.1656 -0.0356
 5686TIP3    H117064   5.801   4.976   4.924  0.1240 -0.1762 -0.0711
 5686TIP3    H217065   5.868   5.073   5.019 -0.0702  0.7889 -0.8995
 5687TIP3   OH217066   1.489   0.380   4.210  0.1371 -0.5727  0.5232
 5687TIP3    H117067   1.583   0.378   4.231 -0.0038 -1.7116  1.1477
 5687TIP3    H217068   1.446   0.384   4.295 -0.4058 -2.2033  0.3520
 5688TIP3   OH217069   0.736   2.288   3.582  0.4373  0.1985  0.1485
 5688TIP3    H117070   0.641   2.279   3.578  0.5708 -1.5640 -0.0007
 5688TIP3    H217071   0.751   2.368   3.632 -1.1169  0.6387 -0.0336
 5689TIP3   OH217072   2.988   1.096   0.445 -0.1733 -0.1763 -0.1962
 5689TIP3    H117073   3.062   1.102   0.384 -0.4062 -0.4599 -0.5134
 5689TIP3    H217074   2.913   1.125   0.393 -0.1834  0.7863  0.3248
 5690TIP3   OH217075   1.627   1.844   0.771  0.2469  0.0396  0.0684
 5690TIP3    H117076   1.675   1.927   0.763  0.8667 -0.2995  0.2399
 5690TIP3    H217077   1.573   1.856   0.849 -1.4484  1.1545 -1.1911
 5691TIP3   OH217078   5.407   1.710   3.760  0.3859  0.1763 -0.1607
 5691TIP3    H117079   5.408   1.804   3.745 -0.0984  0.2308  0.1147
 5691TIP3    H217080   5.409   1.672   3.672  2.6975  0.3905 -0.2554
 5692TIP3   OH217081   1.145   0.279   4.697 -0.1330  0.2534  0.1171
 5692TIP3    H117082   1.179   0.311   4.781 -1.0672  2.6627 -0.3508
 5692TIP3    H217083   1.054   0.307   4.695 -0.0240  0.6379 -1.8623
 5693TIP3   OH217084   4.014   4.967   4.664  0.1613  0.1094 -0.3398
 5693TIP3    H117085   4.048   5.019   4.737  0.6014  0.9711 -1.1342
 5693TIP3    H217086   4.051   4.879   4.678  2.0960  0.7987 -0.7080
 5694TIP3   OH217087   1.752   5.011   2.719  0.3507 -0.2298  0.1364
 5694TIP3    H117088   1.841   5.011   2.753  0.7421 -2.5540 -0.7097
 5694TIP3    H217089   1.704   4.949   2.774 -0.2198 -0.4606 -0.5963
 5695TIP3   OH217090   4.834   3.080   3.201 -0.2695 -0.1999 -0.3973
 5695TIP3    H117091   4.799   3.154   3.151 -0.5208  0.1897  0.3521
 5695TIP3    H217092   4.925   3.104   3.219  0.0418 -0.6565 -1.2543
 5696TIP3   OH217093   5.127   1.893   3.678  0.1845  0.2856  0.3354
 5696TIP3    H117094   5.121   1.797   3.682  0.0558  0.3380  2.3925
 5696TIP3    H217095   5.108   1.922   3.767 -2.4265  2.4126 -0.7720
 5697TIP3   OH217096   0.796   3.388   4.227  0.5637 -0.5459  0.5552
 5697TIP3    H117097   0.753   3.472   4.208  2.8436  0.5103 -0.2571
 5697TIP3    H217098   0.742   3.323   4.182 -1.8607  0.2989  2.0802
 5698TIP3   OH217099   5.558   0.163   1.211 -0.7676  0.1341  0.0230
 5698TIP3    H117100   5.491   0.106   1.248 -2.0694  1.2533 -0.4940
 5698TIP3    H217101   5.551   0.244   1.262  0.0442  0.3344 -0.1733
 5699TIP3   OH217102   0.492   1.111   5.172 -0.2692 -0.3074  0.2834
 5699TIP3    H117103   0.512   1.019   5.192 -0.1422 -0.4785 -0.6059
 5699TIP3    H217104   0.557   1.136   5.106  0.6767  0.8901  1.5967
 5700TIP3   OH217105   4.150   0.522   4.010  0.4589 -0.4330  0.5061
 5700TIP3    H117106   4.239   0.556   4.019  0.6519 -0.8472  0.1868
 5700TIP3    H217107   4.131   0.481   4.095  0.7126 -0.6790  0.4425
 5701TIP3   OH217108   3.465   0.739   3.475 -1.1683 -0.1844  0.5397
 5701TIP3    H117109   3.552   0.779   3.472 -0.0190 -2.4750  1.1596
 5701TIP3    H217110   3.435   0.754   3.564 -1.0542 -0.0997  0.5654
 5702TIP3   OH217111   2.710   1.590   0.689  0.2889  0.0903 -0.1186
 5702TIP3    H117112   2.709   1.545   0.774  0.5541  0.4332  0.0672
 5702TIP3    H217113   2.633   1.646   0.691  1.2591  1.4440  0.6315
 5703TIP3   OH217114   5.048   4.986   3.420 -0.3266  0.2204  0.0442
 5703TIP3    H117115   4.985   4.961   3.352 -1.1096 -0.5643  1.0174
 5703TIP3    H217116   5.046   4.913   3.482  1.0980  0.4722  0.4164
 5704TIP3   OH217117   4.159   0.292   0.646  0.2829 -0.5994 -0.5423
 5704TIP3    H117118   4.200   0.291   0.560 -0.8421 -0.0964 -1.0999
 5704TIP3    H217119   4.167   0.383   0.675 -0.2178 -0.5536 -0.5468
 5705TIP3   OH217120   2.674   3.098   4.403 -0.5991  0.3883  1.0027
 5705TIP3    H117121   2.743   3.161   4.379 -0.6139  0.6878  1.7049
 5705TIP3    H217122   2.623   3.087   4.323 -0.8629  1.6274  0.9713
 5706TIP3   OH217123   3.880   2.569   1.371  0.2146  0.3281  1.1957
 5706TIP3    H117124   3.796   2.590   1.329 -0.9858 -1.8848  2.3168
 5706TIP3    H217125   3.941   2.555   1.298 -0.5188  1.4206  0.3487
 5707TIP3   OH217126   2.620   4.976   3.264  0.3058  0.8632 -0.5738
 5707TIP3    H117127   2.674   5.049   3.295 -0.2458  0.4205  1.5880
 5707TIP3    H217128   2.683   4.908   3.240  0.7721  1.4675 -1.1101
 5708TIP3   OH217129   1.133   4.618   2.444  0.2171  0.0885  0.1386
 5708TIP3    H117130   1.166   4.672   2.372  2.0232  0.8694  1.4720
 5708TIP3    H217131   1.037   4.623   2.436  0.3387  2.5557 -0.4630
 5709TIP3   OH217132   1.480   1.837   4.584 -0.1687  0.0305  0.0747
 5709TIP3    H117133   1.557   1.841   4.528  0.1670  0.3862  0.5494
 5709TIP3    H217134   1.514   1.849   4.673 -0.5656 -1.5374  0.4588
 5710TIP3   OH217135   4.454   5.397   0.124  0.5219 -0.0312 -0.4006
 5710TIP3    H117136   4.404   5.317   0.140 -0.6960  1.1117  2.1968
 5710TIP3    H217137   4.409   5.439   0.050 -0.3738 -0.5675 -0.1769
 5711TIP3   OH217138   4.410   4.663   4.509 -0.1073  0.3932  0.1002
 5711TIP3    H117139   4.335   4.612   4.540  0.1184  1.2862  2.2840
 5711TIP3    H217140   4.480   4.598   4.497 -0.2136 -0.0257  1.5395
 5712TIP3   OH217141   0.384   1.272   0.500 -0.3893 -0.2241  0.0989
 5712TIP3    H117142   0.312   1.326   0.467 -0.6691 -0.4256  0.3682
 5712TIP3    H217143   0.343   1.215   0.566  0.0319 -0.2905  0.3076
 5713TIP3   OH217144   0.622   2.559   0.549  0.5096  0.6219 -0.0720
 5713TIP3    H117145   0.676   2.628   0.588  0.5764  0.2488  0.5062
 5713TIP3    H217146   0.532   2.587   0.564  0.5191 -0.1202  1.4653
 5714TIP3   OH217147   0.741   1.382   4.458  0.5008  0.0638 -0.3182
 5714TIP3    H117148   0.808   1.451   4.451 -1.0140  1.4336 -2.8717
 5714TIP3    H217149   0.720   1.378   4.551  3.2936  0.3630  0.3992
 5715TIP3   OH217150   0.437   1.641   3.437 -0.1026 -0.0719  0.2941
 5715TIP3    H117151   0.461   1.709   3.374 -0.2252  1.6076  1.9645
 5715TIP3    H217152   0.438   1.560   3.387  5.4752  0.2350 -0.7373
 5716TIP3   OH217153   3.600   4.299   1.819  0.7595  0.2775 -0.3550
 5716TIP3    H117154   3.619   4.354   1.895 -1.0021 -0.4244  0.6623
 5716TIP3    H217155   3.631   4.212   1.844 -0.7048 -0.1687  0.0090
 5717TIP3   OH217156   2.752   4.864   3.732 -0.1026 -0.0476  0.0100
 5717TIP3    H117157   2.665   4.896   3.755  0.4752  1.6762 -0.0644
 5717TIP3    H217158   2.762   4.784   3.783 -1.2299  0.4234  1.0299
 5718TIP3   OH217159   5.092   3.600   4.023  0.3626  0.1230  0.0296
 5718TIP3    H117160   5.140   3.644   4.094  1.9809  1.2121 -1.6447
 5718TIP3    H217161   5.110   3.653   3.946 -1.5242 -0.9052 -1.1993
 5719TIP3   OH217162   1.269   0.519   0.649  0.5493 -0.5513 -0.2068
 5719TIP3    H117163   1.188   0.500   0.697  0.0995 -1.9041 -1.4584
 5719TIP3    H217164   1.241   0.574   0.576  0.8693 -0.4793 -0.2761
 5720TIP3   OH217165   4.054   4.476   4.159  0.3271 -0.5356  0.3484
 5720TIP3    H117166   4.098   4.561   4.160 -0.6027 -0.0374  0.6885
 5720TIP3    H217167   3.965   4.495   4.188  0.0045 -1.5784  0.0957
 5721TIP3   OH217168   2.522   1.634   4.514 -0.0636 -0.8609 -0.1323
 5721TIP3    H117169   2.541   1.728   4.519 -1.3116 -0.5934 -0.0939
 5721TIP3    H217170   2.588   1.600   4.453  2.9296 -0.7028  2.7539
 5722TIP3   OH217171   3.683   3.523   4.945  0.0828  0.6656 -0.4856
 5722TIP3    H117172   3.673   3.529   4.850 -0.8687 -0.5433 -0.4821
 5722TIP3    H217173   3.618   3.583   4.980  0.8269  1.5572 -0.5780
 5723TIP3   OH217174   3.295   4.614   2.918 -0.1217  0.1968  0.5552
 5723TIP3    H117175   3.365   4.626   2.982 -1.4973  1.8640  1.8439
 5723TIP3    H217176   3.241   4.693   2.927 -1.0052 -0.0532 -1.8769
 5724TIP3   OH217177   0.875   3.877   0.836  0.3734 -0.1808 -0.3446
 5724TIP3    H117178   0.811   3.940   0.868 -0.1776 -0.1106 -1.5244
 5724TIP3    H217179   0.959   3.908   0.871  0.0238  0.8268 -0.3583
 5725TIP3   OH217180   4.137   1.206   0.543  0.2531  0.0325  0.3221
 5725TIP3    H117181   4.129   1.202   0.447  1.2999 -0.0980  0.2224
 5725TIP3    H217182   4.195   1.133   0.565 -2.0385 -1.5820  1.3642
 5726TIP3   OH217183   6.085   5.918   4.988  0.0877 -0.0718  0.6400
 5726TIP3    H117184   5.990   5.912   4.980  0.2817 -1.2595 -1.9623
 5726TIP3    H217185   6.111   5.981   4.920  1.2894 -1.5877 -0.3730
 5727TIP3   OH217186   2.122   0.502  -0.021 -0.5349  0.2454 -0.3512
 5727TIP3    H117187   2.059   0.462   0.040  1.8768 -1.1509  1.3855
 5727TIP3    H217188   2.145   0.586   0.020 -0.0112 -0.0277 -0.0747
 5728TIP3   OH217189   1.290   3.978   1.723 -0.0270  0.1450  1.0114
 5728TIP3    H117190   1.217   3.923   1.750 -0.5949  0.4138  0.0843
 5728TIP3    H217191   1.250   4.049   1.674  0.9795 -1.0168 -1.7114
 5729TIP3   OH217192   5.738   2.467   2.234  0.1804  0.0949  0.2568
 5729TIP3    H117193   5.724   2.556   2.202  0.8057 -0.2554 -1.0965
 5729TIP3    H217194   5.810   2.433   2.180  0.4142 -0.9959  1.2142
 5730TIP3   OH217195   5.199   2.688   5.141  0.1693 -0.4237 -0.1281
 5730TIP3    H117196   5.256   2.724   5.073  2.4137 -1.9239  0.8268
 5730TIP3    H217197   5.213   2.594   5.137  1.5709 -0.5083  3.2668
 5731TIP3   OH217198   4.517   5.320   1.468  0.0508 -0.0566 -0.2720
 5731TIP3    H117199   4.466   5.259   1.521 -0.7779  1.2724  0.5283
 5731TIP3    H217200   4.505   5.289   1.378  1.4724 -2.3305  0.2451
 5732TIP3   OH217201   4.372   3.865   3.484  0.1904  0.1116  0.2405
 5732TIP3    H117202   4.309   3.932   3.459  0.7668  0.6330  0.1817
 5732TIP3    H217203   4.426   3.852   3.406  1.7299  1.4459  1.0319
 5733TIP3   OH217204   3.593   0.715   4.181  0.0815  0.6442 -0.0608
 5733TIP3    H117205   3.509   0.692   4.221  0.1330  1.5052  0.5899
 5733TIP3    H217206   3.576   0.798   4.136  0.4001  0.4399 -0.5629
 5734TIP3   OH217207   0.328   4.823   4.307  0.5008  0.1784  0.5571
 5734TIP3    H117208   0.316   4.901   4.252 -4.0785 -0.0066  0.8815
 5734TIP3    H217209   0.276   4.755   4.264  2.0870 -1.9262  1.7840
 5735TIP3   OH217210   2.564   1.362   3.343  0.0611 -0.0340  0.7361
 5735TIP3    H117211   2.611   1.323   3.416  0.9315 -0.2769  0.0586
 5735TIP3    H217212   2.530   1.445   3.378  0.0872 -0.3533  1.5378
 5736TIP3   OH217213   3.055   3.628   4.265  0.5941  0.3037  0.0594
 5736TIP3    H117214   3.050   3.590   4.352 -0.6293 -2.1477 -0.9650
 5736TIP3    H217215   2.969   3.665   4.250  1.0370  1.3993  0.1437
 5737TIP3   OH217216   4.643   3.147   2.642  0.2547  0.6494  0.4224
 5737TIP3    H117217   4.733   3.126   2.668  0.2730  1.0104  0.6625
 5737TIP3    H217218   4.598   3.164   2.725 -0.1000  0.2284  0.3186
 5738TIP3   OH217219   1.033   2.894   2.559 -0.3697 -0.9484  0.1848
 5738TIP3    H117220   1.051   2.828   2.492 -2.1356 -1.2035 -0.0917
 5738TIP3    H217221   0.954   2.938   2.529  1.7978  2.7816 -0.7003
 5739TIP3   OH217222   5.607   1.361   4.318  0.2150  0.0902  0.4537
 5739TIP3    H117223   5.574   1.381   4.230  0.1926  0.8402  0.6202
 5739TIP3    H217224   5.571   1.431   4.373 -0.1677 -0.6532  1.1560
 5740TIP3   OH217225   3.811   0.509   3.887 -0.2079 -0.2971 -0.0321
 5740TIP3    H117226   3.844   0.595   3.914  0.9659 -1.1064  1.2853
 5740TIP3    H217227   3.887   0.467   3.845 -0.4935 -1.0280  0.1785
 5741TIP3   OH217228   0.427   0.868   1.095 -0.4776 -0.2666 -0.0707
 5741TIP3    H117229   0.506   0.900   1.051 -0.0623  0.6335  1.2760
 5741TIP3    H217230   0.366   0.942   1.091 -0.4299 -0.1703  0.8547
 5742TIP3   OH217231   4.271   4.849   2.462 -0.4987  0.4825 -0.4169
 5742TIP3    H117232   4.284   4.882   2.373 -1.7976  0.2559 -0.7118
 5742TIP3    H217233   4.288   4.756   2.456  1.7468  0.8117  0.1074
 5743TIP3   OH217234   5.943   4.636   2.069  0.1776 -0.0839  0.0711
 5743TIP3    H117235   5.919   4.728   2.079 -0.7131 -0.3352  0.3628
 5743TIP3    H217236   5.873   4.598   2.016 -0.5526 -1.0193  1.6431
 5744TIP3   OH217237   5.109   5.097   2.748 -0.1651  0.0484  0.6861
 5744TIP3    H117238   5.074   5.018   2.708  0.0090  0.4872 -0.3897
 5744TIP3    H217239   5.053   5.113   2.823 -1.1309 -0.2825  0.0603
 5745TIP3   OH217240   2.112   4.500   0.094  0.4942  0.0983  0.2099
 5745TIP3    H117241   2.085   4.461   0.011  1.0007  1.0646 -0.4178
 5745TIP3    H217242   2.066   4.584   0.097  0.9636  0.3417  0.6169
 5746TIP3   OH217243   5.696   3.965   4.513  0.0266 -0.1350  0.4282
 5746TIP3    H117244   5.631   4.009   4.567  0.4914  0.7044  0.3258
 5746TIP3    H217245   5.778   4.012   4.530  0.2379 -0.0287 -0.7968
 5747TIP3   OH217246   6.059   4.478   4.970 -0.5845 -0.3690  0.4535
 5747TIP3    H117247   5.967   4.497   4.987 -0.3064  0.4762  1.0890
 5747TIP3    H217248   6.101   4.564   4.969  0.3884 -0.8149  1.3744
 5748TIP3   OH217249   6.050   3.401   2.118 -0.4824 -0.0338 -0.1701
 5748TIP3    H117250   6.128   3.407   2.063  0.2782  2.8015  1.0517
 5748TIP3    H217251   6.073   3.450   2.197 -3.1316 -0.0943  0.7222
 5749TIP3   OH217252   3.815   2.619   4.436 -0.0922  0.2768  0.0063
 5749TIP3    H117253   3.727   2.656   4.442 -0.2941 -0.1302 -0.3993
 5749TIP3    H217254   3.819   2.554   4.506 -1.8292 -3.1986 -2.7834
 5750TIP3   OH217255   6.310   1.466   4.556  0.2079 -0.0470  0.2857
 5750TIP3    H117256   6.360   1.420   4.623 -0.7179  0.1554  1.1401
 5750TIP3    H217257   6.271   1.396   4.503  0.1251 -0.2202  0.5737
 5751TIP3   OH217258   4.973   1.271   3.003 -0.4553  0.0625 -0.3929
 5751TIP3    H117259   4.941   1.361   2.992 -1.1486 -0.2322 -0.8925
 5751TIP3    H217260   5.004   1.267   3.093  1.0913  1.2594 -0.8209
 5752TIP3   OH217261   4.665   3.353   0.159 -0.3189  0.0010 -0.5744
 5752TIP3    H117262   4.689   3.330   0.070 -1.4830  0.3310 -0.9917
 5752TIP3    H217263   4.660   3.449   0.159  1.4251  0.1407  0.3300
 5753TIP3   OH217264   3.755   2.347   3.530  0.1297  0.0984  0.5758
 5753TIP3    H117265   3.691   2.289   3.573  0.9285 -1.1983  0.0667
 5753TIP3    H217266   3.827   2.289   3.504  0.1629  0.9948 -1.5763
 5754TIP3   OH217267   5.148   4.923   1.297  0.4013  0.0348 -0.4703
 5754TIP3    H117268   5.213   4.984   1.332 -0.8322  0.5757  0.9503
 5754TIP3    H217269   5.160   4.843   1.347 -1.2150  0.7371  1.1406
 5755TIP3   OH217270   3.556   4.396   5.178  0.8309  0.0572 -0.1016
 5755TIP3    H117271   3.496   4.460   5.214  0.6362 -0.7406  1.0658
 5755TIP3    H217272   3.576   4.427   5.090 -1.1625  0.4254 -0.4614
 5756TIP3   OH217273   4.667   2.234   3.633 -0.0329 -0.1349 -0.0681
 5756TIP3    H117274   4.703   2.297   3.570  1.9456  1.0153  2.0236
 5756TIP3    H217275   4.721   2.156   3.621  0.8084  0.3211  0.5948
 5757TIP3   OH217276   2.754   3.607   3.299  0.1630  0.5993 -0.3472
 5757TIP3    H117277   2.765   3.513   3.317 -0.1073  0.0831 -2.5598
 5757TIP3    H217278   2.838   3.646   3.322  0.1236 -0.0837  1.0629
 5758TIP3   OH217279   2.072   2.198   3.681  0.4762 -0.5826  0.5070
 5758TIP3    H117280   2.063   2.241   3.766 -3.3286  3.0532 -1.3794
 5758TIP3    H217281   2.006   2.129   3.682 -2.1630  1.7275 -0.4422
 5759TIP3   OH217282   2.477   5.390   3.467  0.1452 -0.1071 -0.3443
 5759TIP3    H117283   2.547   5.361   3.525  0.4632  0.6117 -0.3594
 5759TIP3    H217284   2.498   5.481   3.448 -0.7218  0.0745 -0.4621
 5760TIP3   OH217285   2.454   1.529   1.403 -0.5655  0.0777 -0.4889
 5760TIP3    H117286   2.369   1.573   1.396  0.5207  2.2569 -0.6364
 5760TIP3    H217287   2.516   1.591   1.366  1.4301 -0.4937  1.6888
 5761TIP3   OH217288   5.975   5.273   1.549  0.2442 -0.0126  0.0979
 5761TIP3    H117289   5.915   5.200   1.538  0.4132 -0.4295  1.7903
 5761TIP3    H217290   5.982   5.286   1.643  1.0328  1.5202 -0.1285
 5762TIP3   OH217291   2.735   0.590   3.431  0.5953  0.2204 -0.8169
 5762TIP3    H117292   2.719   0.496   3.429 -2.5445  0.6450 -0.1950
 5762TIP3    H217293   2.765   0.611   3.342 -0.5639 -1.1039 -1.5675
 5763TIP3   OH217294   4.210   0.026   4.634  0.3018 -0.2340 -0.3528
 5763TIP3    H117295   4.135   0.069   4.592 -0.5562  0.0232  1.3582
 5763TIP3    H217296   4.171  -0.036   4.695  1.5068 -0.8554 -0.1844
 5764TIP3   OH217297   4.234   5.249   4.370 -0.0498 -0.2244 -0.0579
 5764TIP3    H117298   4.173   5.321   4.386 -0.0711 -0.3295  0.3341
 5764TIP3    H217299   4.266   5.225   4.457 -2.8564 -3.1859  0.3663
 5765TIP3   OH217300   2.709   0.471   1.614 -0.4069 -0.6407 -0.1133
 5765TIP3    H117301   2.656   0.486   1.536 -0.5187 -1.8074 -0.2784
 5765TIP3    H217302   2.710   0.376   1.624 -1.1315 -0.4851  1.8094
 5766TIP3   OH217303   5.503   4.079   4.680  0.3214  0.0402 -0.4802
 5766TIP3    H117304   5.584   4.120   4.710  1.7997 -2.0115 -1.4656
 5766TIP3    H217305   5.467   4.037   4.758 -0.7212  2.2632  0.3247
 5767TIP3   OH217306   4.866   5.875   2.930 -0.1382 -0.4885 -0.0293
 5767TIP3    H117307   4.854   5.889   2.836  0.4647  1.5928  0.1368
 5767TIP3    H217308   4.960   5.860   2.940  0.4520  2.7572  0.4810
 5768TIP3   OH217309   4.003   4.983   0.543  0.3440 -1.0166 -0.1605
 5768TIP3    H117310   4.028   4.966   0.634 -0.1080 -2.8372 -0.3452
 5768TIP3    H217311   4.086   5.006   0.500  0.7843 -1.4717  0.4158
 5769TIP3   OH217312   4.448   4.587   2.319  0.0453 -0.1826  0.9780
 5769TIP3    H117313   4.371   4.616   2.270 -0.1377  0.8971  1.8733
 5769TIP3    H217314   4.502   4.542   2.253 -0.2219  1.1488 -0.2142
 5770TIP3   OH217315   2.462   5.414   5.015  0.0856 -0.5942 -0.0497
 5770TIP3    H117316   2.395   5.434   5.080 -0.1305  0.5125 -0.5911
 5770TIP3    H217317   2.484   5.322   5.030 -2.5885 -1.4387 -0.7976
 5771TIP3   OH217318   1.290   3.504   0.432 -0.3567 -0.0876  0.4836
 5771TIP3    H117319   1.336   3.506   0.516  1.5221  0.2956 -0.4976
 5771TIP3    H217320   1.339   3.442   0.379 -0.7825  0.5622 -0.7178
 5772TIP3   OH217321   4.812   2.530   5.124  0.0188  0.0275  0.5007
 5772TIP3    H117322   4.844   2.607   5.077 -1.2240 -0.5788 -1.4367
 5772TIP3    H217323   4.726   2.557   5.157 -0.1529 -0.3330  0.3514
 5773TIP3   OH217324   0.250   4.637   1.589 -0.0530  0.0874 -0.0768
 5773TIP3    H117325   0.198   4.640   1.669 -0.5065 -1.8500 -0.2376
 5773TIP3    H217326   0.256   4.543   1.568  2.3931  0.3290 -0.8051
 5774TIP3   OH217327   2.020   0.816   2.993 -0.6825  0.3132 -0.2551
 5774TIP3    H117328   2.054   0.905   2.994 -0.2461  0.1437  0.5189
 5774TIP3    H217329   1.929   0.824   3.022  0.0737  0.2422  2.3509
 5775TIP3   OH217330   4.102   1.957   0.992 -0.1110 -0.1607  0.2044
 5775TIP3    H117331   4.082   2.047   1.018  0.3312  0.1221 -0.4160
 5775TIP3    H217332   4.174   1.965   0.930  0.6280 -1.0189  0.9217
 5776TIP3   OH217333   5.161   3.858   0.822  0.7482  0.1957 -0.1768
 5776TIP3    H117334   5.206   3.777   0.842  0.6232 -0.2853 -1.7344
 5776TIP3    H217335   5.186   3.918   0.892  2.4366 -0.5700 -0.0918
 5777TIP3   OH217336   0.620   4.808   1.011  0.1295 -0.3496  0.1491
 5777TIP3    H117337   0.647   4.836   0.924 -0.3244 -0.4598 -0.0268
 5777TIP3    H217338   0.655   4.876   1.070  0.7445 -0.4665 -0.0792
 5778TIP3   OH217339   0.826   3.862   1.514  0.4195 -0.7307  0.1524
 5778TIP3    H117340   0.740   3.831   1.487 -0.1365 -0.4299  1.5016
 5778TIP3    H217341   0.843   3.938   1.457 -1.3459  0.7608  1.5148
 5779TIP3   OH217342   5.142   5.744   4.225  0.2497 -0.7759 -0.2417
 5779TIP3    H117343   5.190   5.663   4.245  2.3068  0.1431 -1.0990
 5779TIP3    H217344   5.077   5.751   4.295 -0.2729 -3.3556 -0.3724
 5780TIP3   OH217345   1.411   2.407   4.891 -0.5418  0.2001 -0.0561
 5780TIP3    H117346   1.480   2.416   4.956 -0.2067  2.1071 -0.6096
 5780TIP3    H217347   1.440   2.334   4.835 -0.2659 -0.6770  1.1834
 5781TIP3   OH217348   1.768   2.481   0.920 -0.6514 -0.3346  0.1882
 5781TIP3    H117349   1.678   2.449   0.920 -0.2807 -1.5120 -1.1913
 5781TIP3    H217350   1.789   2.493   0.827  0.9399 -1.1011  0.4149
 5782TIP3   OH217351   3.627   5.096   3.388  0.2308 -0.4700  0.1232
 5782TIP3    H117352   3.596   5.085   3.478  0.9665  2.5937  0.8783
 5782TIP3    H217353   3.719   5.070   3.391  0.4523  0.3279  0.4671
 5783TIP3   OH217354   5.384   5.097   2.010  0.4513  0.1558 -0.0282
 5783TIP3    H117355   5.478   5.109   2.026  0.4589  1.3586 -0.8776
 5783TIP3    H217356   5.350   5.064   2.093  1.2014  2.1000  1.1291
 5784TIP3   OH217357   2.717   0.831   4.962  0.1605  0.0867 -0.0625
 5784TIP3    H117358   2.746   0.893   4.896  0.9283 -0.9482 -0.7299
 5784TIP3    H217359   2.730   0.745   4.922 -0.4403 -0.5283  1.0046
 5785TIP3   OH217360   5.723   2.679   0.835  0.1424 -0.3093 -0.1284
 5785TIP3    H117361   5.654   2.742   0.815 -0.9753 -1.1987  0.7883
 5785TIP3    H217362   5.697   2.641   0.919  1.9175 -0.4539  0.3929
 5786TIP3   OH217363   1.771   5.838   0.905 -0.7428 -0.1250 -0.1459
 5786TIP3    H117364   1.712   5.879   0.969 -1.1138  0.8371 -1.0727
 5786TIP3    H217365   1.792   5.908   0.843  0.6258 -0.7069 -0.3738
 5787TIP3   OH217366   0.714   3.575   1.199  0.2595 -0.4895 -0.0809
 5787TIP3    H117367   0.686   3.588   1.290  0.8237  0.4249 -0.0276
 5787TIP3    H217368   0.797   3.623   1.192  0.8074 -1.4981 -0.7704
 5788TIP3   OH217369   2.236   3.308   4.313 -0.0006 -0.1636  0.2161
 5788TIP3    H117370   2.292   3.258   4.373 -0.7522 -0.7611  0.4332
 5788TIP3    H217371   2.275   3.293   4.227  0.0141 -0.8017  0.3301
 5789TIP3   OH217372   1.358   4.376   0.458  0.9415  0.0970 -0.2312
 5789TIP3    H117373   1.330   4.338   0.375  0.8335 -1.6714  0.5781
 5789TIP3    H217374   1.373   4.301   0.515  2.3993  1.2011  0.9275
 5790TIP3   OH217375   6.123   0.531   0.891  0.2013  0.2890  0.1527
 5790TIP3    H117376   6.049   0.508   0.833 -0.7595  1.5299  0.8421
 5790TIP3    H217377   6.158   0.612   0.854  0.8263  0.0498  0.2102
 5791TIP3   OH217378   5.950   4.906   2.056  0.2451 -0.1064 -1.0713
 5791TIP3    H117379   6.003   4.975   2.096  1.0740 -2.0218  1.4120
 5791TIP3    H217380   6.011   4.861   1.997 -0.0542  0.6862 -2.0144
 5792TIP3   OH217381   2.034   4.857   3.176  0.0431 -0.1387 -0.5225
 5792TIP3    H117382   2.111   4.816   3.135 -0.2011 -0.3547 -0.7705
 5792TIP3    H217383   2.015   4.931   3.119  0.1052 -0.0492 -0.4264
 5793TIP3   OH217384   5.692   5.615   4.850 -0.4938 -0.2085 -0.3970
 5793TIP3    H117385   5.610   5.571   4.872 -0.1063 -1.3032 -1.0851
 5793TIP3    H217386   5.665   5.692   4.800 -1.0799 -1.0732 -1.4519
 5794TIP3   OH217387   0.889   0.183   3.060  0.1700 -0.4497 -0.4226
 5794TIP3    H117388   0.940   0.144   2.989  2.4840  1.2891  0.1418
 5794TIP3    H217389   0.807   0.210   3.019  0.5183 -1.4997 -1.8854
 5795TIP3   OH217390   2.354   1.711   4.167 -0.1137 -0.1901  0.1867
 5795TIP3    H117391   2.278   1.760   4.138 -0.4752  0.1348  1.6086
 5795TIP3    H217392   2.429   1.762   4.137 -0.4598  0.1654 -0.0802
 5796TIP3   OH217393   6.197   3.753   5.077  0.4612 -0.4294  0.8512
 5796TIP3    H117394   6.202   3.659   5.092 -0.3851 -1.1180 -2.3522
 5796TIP3    H217395   6.103   3.774   5.084  0.4616 -0.1462  0.1427
 5797TIP3   OH217396   3.255   3.698   3.401  0.5128 -0.1820  0.1474
 5797TIP3    H117397   3.324   3.723   3.463  0.5944 -0.2810  0.0972
 5797TIP3    H217398   3.269   3.754   3.325  0.4215 -0.0706  0.2131
 5798TIP3   OH217399   1.992   0.800   4.158  0.4883  0.4909 -0.9735
 5798TIP3    H117400   1.907   0.758   4.150 -0.7291  1.7489  3.0418
 5798TIP3    H217401   2.047   0.735   4.202 -0.2019  1.5366  1.5839
 5799TIP3   OH217402   6.269   1.918   4.882 -0.5071 -0.5732 -0.3182
 5799TIP3    H117403   6.283   2.007   4.913  0.7349 -1.2338  1.1930
 5799TIP3    H217404   6.356   1.889   4.854 -0.6319 -1.7166  0.4242
 5800TIP3   OH217405   3.757   1.666   4.919 -0.6548  0.1716 -0.2348
 5800TIP3    H117406   3.675   1.657   4.968  0.0131 -1.4509  0.6784
 5800TIP3    H217407   3.813   1.719   4.976 -0.9361  0.9659 -0.6905
 5801TIP3   OH217408   5.720   1.978   4.291  0.4871  0.0695  0.3137
 5801TIP3    H117409   5.711   2.020   4.377 -1.6211 -1.7996  1.0891
 5801TIP3    H217410   5.660   2.028   4.234 -1.6467 -1.4272  1.1182
 5802TIP3   OH217411   2.842   2.640   3.822  0.0222  0.1657 -0.0928
 5802TIP3    H117412   2.870   2.549   3.826 -0.6449 -0.0595 -0.6057
 5802TIP3    H217413   2.837   2.660   3.729  1.3347  1.0936  0.0036
 5803TIP3   OH217414   0.773   3.735   0.016 -0.4186 -0.0591  0.3855
 5803TIP3    H117415   0.704   3.798   0.039  0.7832  0.6481  2.2680
 5803TIP3    H217416   0.835   3.786  -0.036 -0.7179 -0.3803 -0.2910
 5804TIP3   OH217417   3.746   2.538   4.935 -0.1421  0.6468 -0.0425
 5804TIP3    H117418   3.785   2.531   5.022  1.1712  0.5629 -0.6182
 5804TIP3    H217419   3.818   2.523   4.874 -0.9876  0.9202 -1.1617
 5805TIP3   OH217420   3.779   1.127   1.714  1.0290 -0.2350 -0.1392
 5805TIP3    H117421   3.827   1.180   1.651  0.3586  0.4089 -0.1233
 5805TIP3    H217422   3.687   1.139   1.691  0.8514 -1.3361 -0.0791
 5806TIP3   OH217423   5.242   0.612   1.737 -0.0152 -0.0504  0.5517
 5806TIP3    H117424   5.231   0.537   1.678  0.6487 -0.6858  1.2144
 5806TIP3    H217425   5.200   0.585   1.819 -2.9002  1.6626 -0.2200
 5807TIP3   OH217426   3.485   4.314   2.273 -0.2017 -0.3431 -0.1994
 5807TIP3    H117427   3.416   4.380   2.270 -0.9031 -1.0989 -1.4122
 5807TIP3    H217428   3.451   4.241   2.221  2.1998 -0.0558 -2.4038
 5808TIP3   OH217429   3.410   4.794   1.526 -0.1121  0.7719  0.0634
 5808TIP3    H117430   3.405   4.881   1.485  0.9822  1.0935  0.5702
 5808TIP3    H217431   3.484   4.752   1.481 -0.7576  0.0277 -0.3079
 5809TIP3   OH217432   1.926   0.130   4.806  0.2265  0.0444  0.3700
 5809TIP3    H117433   1.984   0.054   4.811 -0.3250 -0.3876  0.2700
 5809TIP3    H217434   1.953   0.176   4.727  0.4255 -0.1577  0.3200
 5810TIP3   OH217435   1.883   0.589   2.025 -0.0749 -0.1461 -0.1234
 5810TIP3    H117436   1.974   0.561   2.018 -0.2478 -0.5787 -0.7121
 5810TIP3    H217437   1.878   0.667   1.969 -0.5744 -1.4274 -1.9621
 5811TIP3   OH217438   5.746   1.384   0.696  0.2253 -0.5459 -0.2036
 5811TIP3    H117439   5.799   1.410   0.621 -0.0462 -0.6174 -0.4213
 5811TIP3    H217440   5.744   1.461   0.752 -0.0627 -0.3019 -0.5509
 5812TIP3   OH217441   0.532   5.248   0.962  0.0683 -0.7290  0.4739
 5812TIP3    H117442   0.593   5.300   0.909  2.1616 -1.0144  2.4464
 5812TIP3    H217443   0.469   5.312   0.997  1.5512  0.2589  1.4444
 5813TIP3   OH217444   4.489   5.531   0.753 -0.2715 -0.6029  0.3052
 5813TIP3    H117445   4.530   5.567   0.832 -0.1565  0.1206 -0.0713
 5813TIP3    H217446   4.502   5.436   0.760  1.1073 -0.4323  0.4090
 5814TIP3   OH217447   3.141   5.568   1.606 -0.3120  0.5210  0.0799
 5814TIP3    H117448   3.166   5.499   1.544 -1.5618  0.3212 -0.2355
 5814TIP3    H217449   3.056   5.600   1.574 -1.2175  0.1075  1.9103
 5815TIP3   OH217450   4.358   5.457   4.654  0.0646 -0.8072  0.3295
 5815TIP3    H117451   4.360   5.542   4.698  1.9092 -0.4879 -0.2987
 5815TIP3    H217452   4.296   5.469   4.582  1.1991  0.4317 -0.4970
 5816TIP3   OH217453   1.551   0.228   3.095 -0.6127 -0.0001 -0.0081
 5816TIP3    H117454   1.557   0.171   3.171  2.1951  0.4633  0.2318
 5816TIP3    H217455   1.589   0.176   3.024 -0.4696  0.6247 -0.3948
 5817TIP3   OH217456   4.644   0.236   0.593  0.5385 -0.1589 -0.3726
 5817TIP3    H117457   4.632   0.320   0.548  0.9688  0.2178  0.2023
 5817TIP3    H217458   4.660   0.173   0.522 -0.1831  0.1681 -0.8369
 5818TIP3   OH217459   6.046   1.481   5.150 -0.4038  0.1750 -0.0536
 5818TIP3    H117460   6.088   1.543   5.210  0.4604 -0.7895  0.3802
 5818TIP3    H217461   6.115   1.457   5.088 -1.2950  1.1721 -1.4802
 5819TIP3   OH217462   0.451   4.520   1.369  0.2988  0.1516 -0.4523
 5819TIP3    H117463   0.432   4.544   1.278  0.1221 -1.6607 -0.9269
 5819TIP3    H217464   0.383   4.458   1.392 -0.5624  1.7073  1.4798
 5820TIP3   OH217465   5.760   1.425   1.943  0.0000 -0.0723  0.3677
 5820TIP3    H117466   5.676   1.437   1.898 -1.5015  1.4029  3.2816
 5820TIP3    H217467   5.794   1.343   1.908 -2.3791 -0.4280 -1.3569
 5821TIP3   OH217468   2.349   3.617   2.607 -0.0813  0.9522  0.5206
 5821TIP3    H117469   2.297   3.545   2.642 -0.8358  0.9811 -0.5097
 5821TIP3    H217470   2.403   3.645   2.681 -0.9321  0.3833  1.3831
 5822TIP3   OH217471   5.606   3.259   2.298  0.3538 -0.3579 -0.3333
 5822TIP3    H117472   5.652   3.183   2.334  1.6845  0.2827 -0.6455
 5822TIP3    H217473   5.514   3.242   2.318  0.6860 -1.7612  0.1383
 5823TIP3   OH217474   5.149   0.368   4.072 -0.2641  0.0328  0.2476
 5823TIP3    H117475   5.136   0.441   4.012  1.0178 -0.4581 -0.6654
 5823TIP3    H217476   5.066   0.320   4.070 -1.1003  1.3992  0.8250
 5824TIP3   OH217477   2.251   0.937   0.849  0.4559 -0.2941  0.6240
 5824TIP3    H117478   2.250   1.033   0.854  0.4390 -0.2518 -0.1784
 5824TIP3    H217479   2.162   0.913   0.822 -0.0478 -0.6486  2.4030
 5825TIP3   OH217480   0.469   0.176   3.954 -0.1797  0.1294  0.2762
 5825TIP3    H117481   0.388   0.134   3.982  0.7099 -1.1529  1.0539
 5825TIP3    H217482   0.526   0.104   3.928  0.4506  1.0523 -1.0153
 5826TIP3   OH217483   4.736   4.961   4.657  0.0427 -0.3732 -0.0655
 5826TIP3    H117484   4.649   4.945   4.692 -0.1196 -1.3436 -0.8596
 5826TIP3    H217485   4.759   5.049   4.687 -0.9579 -0.3446  0.6435
 5827TIP3   OH217486   3.412   1.901   1.240  0.1921 -0.7583  0.3038
 5827TIP3    H117487   3.468   1.836   1.281 -0.3280 -1.4342 -0.0285
 5827TIP3    H217488   3.362   1.851   1.175  0.0580  0.0438 -0.2213
 5828TIP3   OH217489   1.742   0.744   2.961  0.0965 -0.3976 -0.1126
 5828TIP3    H117490   1.762   0.658   2.999 -1.4631 -0.6358  0.2315
 5828TIP3    H217491   1.698   0.725   2.879  0.8523  0.0988 -0.6432
 5829TIP3   OH217492   2.267   4.464   0.308  0.0032 -0.1550 -0.4195
 5829TIP3    H117493   2.346   4.473   0.254 -0.8631 -0.7790 -1.8644
 5829TIP3    H217494   2.197   4.502   0.255 -0.6756  0.5043  0.8916
 5830TIP3   OH217495   3.710   4.124   4.904 -0.0909  0.4222 -0.2129
 5830TIP3    H117496   3.694   4.033   4.930  1.4974  0.1921  0.0568
 5830TIP3    H217497   3.735   4.168   4.985 -0.4715  1.0094 -0.4130
 5831TIP3   OH217498   3.086   4.993   1.676  0.1241  0.1243  0.3264
 5831TIP3    H117499   3.101   5.082   1.708 -0.7074  0.4238 -0.0788
 5831TIP3    H217500   3.029   4.954   1.743  1.2365 -0.4274  0.9810
 5832TIP3   OH217501   3.617   3.869   4.913  0.2270  0.0221 -0.3039
 5832TIP3    H117502   3.561   3.794   4.934  0.3552  0.1186  0.3949
 5832TIP3    H217503   3.706   3.839   4.935  0.3228  0.2455 -0.3885
 5833TIP3   OH217504   3.692   3.194   3.705  0.0524 -0.3605 -0.1468
 5833TIP3    H117505   3.737   3.272   3.672 -0.0242 -0.1754  0.1717
 5833TIP3    H217506   3.740   3.120   3.667  2.8784 -0.3038  2.8164
 5834TIP3   OH217507   5.721   5.371   2.983  0.3556  0.3476 -0.0899
 5834TIP3    H117508   5.757   5.336   2.902  1.2367  0.0231  0.4332
 5834TIP3    H217509   5.671   5.298   3.021  1.8550 -0.2692  0.7953
 5835TIP3   OH217510   0.090   2.016   0.849 -0.5326  0.1350  0.3699
 5835TIP3    H117511   0.069   2.017   0.756 -0.2112  0.9769  0.2916
 5835TIP3    H217512   0.010   2.047   0.892  0.1086  2.3009  0.1523
 5836TIP3   OH217513   2.187   3.082   3.159  0.1691 -0.2634  0.2084
 5836TIP3    H117514   2.268   3.096   3.207 -0.1389 -0.9152  0.9509
 5836TIP3    H217515   2.181   2.987   3.149  0.7305 -0.1310 -2.0439
 5837TIP3   OH217516   2.191   5.220   0.490  0.0885  0.0542  0.5736
 5837TIP3    H117517   2.254   5.241   0.422 -0.4684 -0.7362 -0.2138
 5837TIP3    H217518   2.108   5.258   0.459  0.2100  1.3287  1.7304
 5838TIP3   OH217519   0.918   0.557   0.297  0.1697  0.2807  0.5545
 5838TIP3    H117520   0.940   0.648   0.281  1.9507  0.0151  1.2852
 5838TIP3    H217521   0.979   0.507   0.243 -0.2391 -0.4912  0.7882
 5839TIP3   OH217522   0.651   2.936   3.369 -0.5552  0.4635 -0.0388
 5839TIP3    H117523   0.693   2.912   3.286  0.7292 -0.1059  0.7464
 5839TIP3    H217524   0.662   3.031   3.374 -3.4637  1.0227 -1.9793
 5840TIP3   OH217525   4.980   1.481   1.939 -0.3700 -0.2918  0.2148
 5840TIP3    H117526   5.041   1.532   1.991  0.2966 -1.0499  0.1928
 5840TIP3    H217527   5.004   1.500   1.848  2.0018 -2.9871  0.1346
 5841TIP3   OH217528   6.344   2.859   0.466  0.7041 -0.6758 -0.4334
 5841TIP3    H117529   6.282   2.929   0.447 -0.2827 -1.3947  0.0751
 5841TIP3    H217530   6.398   2.853   0.387 -0.2675 -0.4507 -1.1333
 5842TIP3   OH217531   5.492   5.122   0.772  0.1036 -0.3899  0.0636
 5842TIP3    H117532   5.442   5.041   0.759 -0.7237 -0.0107  0.7478
 5842TIP3    H217533   5.552   5.125   0.697 -0.7869 -0.9505 -0.7085
 5843TIP3   OH217534   4.580   4.807   2.396  0.2335 -0.2658 -0.1561
 5843TIP3    H117535   4.546   4.836   2.480  0.1866  0.6322 -0.4637
 5843TIP3    H217536   4.552   4.716   2.387 -0.6837 -0.0365  0.3155
 5844TIP3   OH217537   5.491   1.607   3.521 -0.0919 -0.2247 -0.0461
 5844TIP3    H117538   5.487   1.645   3.433  2.1819 -0.8924 -0.4870
 5844TIP3    H217539   5.553   1.535   3.513 -2.4149 -2.5752  1.3174
 5845TIP3   OH217540   5.124   0.853   1.923  0.3516  0.1848  0.6304
 5845TIP3    H117541   5.152   0.937   1.888  0.3970 -0.2442 -0.4170
 5845TIP3    H217542   5.094   0.804   1.846  0.1291 -0.6740  1.2487
 5846TIP3   OH217543   0.665   5.707   4.094  0.4815  0.1752 -0.1321
 5846TIP3    H117544   0.749   5.729   4.135  0.4540  2.3207 -1.0703
 5846TIP3    H217545   0.685   5.701   4.000 -0.5285  1.7846 -0.5066
 5847TIP3   OH217546   1.548   2.637   0.363  0.1370 -0.4863 -0.6469
 5847TIP3    H117547   1.539   2.562   0.421  1.1667  1.1240  1.7513
 5847TIP3    H217548   1.461   2.648   0.324 -1.8295  0.4557  3.4690
 5848TIP3   OH217549   1.814   4.634   2.967  0.2254  0.5722  0.1710
 5848TIP3    H117550   1.760   4.556   2.980 -1.2003  1.4872 -0.0414
 5848TIP3    H217551   1.806   4.683   3.049  3.2181 -0.6650  1.3465
 5849TIP3   OH217552   5.036   3.578   1.262 -0.1937  0.4238 -0.0179
 5849TIP3    H117553   5.067   3.664   1.288 -0.8202  0.3470  1.0206
 5849TIP3    H217554   5.062   3.520   1.333  0.3769 -0.2945 -0.7848
 5850TIP3   OH217555   3.538   5.811   1.498 -0.3834 -0.0451  0.4558
 5850TIP3    H117556   3.589   5.871   1.443 -0.5555 -0.1515  0.1824
 5850TIP3    H217557   3.539   5.852   1.584  2.3423 -1.2630  1.1293
 5851TIP3   OH217558   5.621   5.957   0.382  0.0045 -0.2188 -0.2693
 5851TIP3    H117559   5.590   5.882   0.433  0.7502 -0.4623 -0.1607
 5851TIP3    H217560   5.632   5.922   0.293 -0.9410  0.1114 -0.5260
 5852TIP3   OH217561   4.456   5.007   0.608  0.5545 -0.0651 -0.3626
 5852TIP3    H117562   4.436   4.914   0.613 -0.1198  0.0512 -0.6945
 5852TIP3    H217563   4.543   5.016   0.647 -0.2886 -0.5176  1.7393
 5853TIP3   OH217564   3.878   3.763   0.341  0.0543  0.6224  1.2414
 5853TIP3    H117565   3.878   3.854   0.371 -0.5818  1.1649 -0.3015
 5853TIP3    H217566   3.811   3.720   0.396  0.5816  0.9845  2.1913
 5854TIP3   OH217567   4.665   1.529   1.569  0.2910 -0.2000  0.0890
 5854TIP3    H117568   4.711   1.593   1.623 -1.7629  1.6289 -0.2046
 5854TIP3    H217569   4.655   1.571   1.484 -0.3737 -1.2543 -0.3836
 5855TIP3   OH217570   0.184   3.878   1.737  0.4834 -0.1042  0.0737
 5855TIP3    H117571   0.158   3.891   1.828 -0.3090  0.2188 -0.1861
 5855TIP3    H217572   0.142   3.795   1.713 -0.6358  0.5937 -0.4538
 5856TIP3   OH217573   4.528   5.389   3.758  0.6309 -0.3244 -0.2064
 5856TIP3    H117574   4.623   5.377   3.754  0.6255 -0.5957  0.3252
 5856TIP3    H217575   4.511   5.413   3.849  0.1566 -0.5639 -0.2280
 5857TIP3   OH217576   0.368   5.588   0.661 -0.3600 -0.1029  0.0524
 5857TIP3    H117577   0.437   5.539   0.706  0.0394  1.3135  1.0335
 5857TIP3    H217578   0.412   5.666   0.627 -1.1311 -0.0520 -0.8851
 5858TIP3   OH217579   2.570   5.389   1.474 -0.3817  0.2589 -0.0342
 5858TIP3    H117580   2.523   5.361   1.396 -2.8958  0.1867  1.3760
 5858TIP3    H217581   2.607   5.474   1.451  1.6207 -1.1156 -2.2213
 5859TIP3   OH217582   0.343   3.692   3.758  0.1073  0.1446 -0.2892
 5859TIP3    H117583   0.415   3.695   3.695  0.3867 -1.9212 -0.1232
 5859TIP3    H217584   0.344   3.603   3.792 -2.8008 -0.0901 -0.5820
 5860TIP3   OH217585   1.110   4.159   1.598  0.7105  0.3950  0.1779
 5860TIP3    H117586   1.040   4.179   1.660  1.2490  1.5806  0.4239
 5860TIP3    H217587   1.086   4.205   1.518  0.2716 -0.7330 -0.3684
 5861TIP3   OH217588   5.131   3.390   0.131 -0.0954 -0.3094 -0.2058
 5861TIP3    H117589   5.117   3.383   0.226 -2.0995  0.2457 -0.4155
 5861TIP3    H217590   5.106   3.304   0.097 -1.1226  0.0306 -0.3688
 5862TIP3   OH217591   4.189   1.486   2.698 -0.5561 -0.2328  0.4947
 5862TIP3    H117592   4.182   1.581   2.697 -0.2272 -0.1460 -2.5664
 5862TIP3    H217593   4.106   1.455   2.662 -0.4705 -1.0894  0.9989
 5863TIP3   OH217594   6.124   4.271   3.277  0.6019  0.2445 -0.2595
 5863TIP3    H117595   6.130   4.365   3.263  0.9225  0.2611 -0.0140
 5863TIP3    H217596   6.164   4.232   3.199 -0.0553  0.3001 -0.6324
 5864TIP3   OH217597   1.473   3.836   1.597 -0.3599  0.8569  0.0843
 5864TIP3    H117598   1.409   3.894   1.638 -0.3919  0.2424  0.9241
 5864TIP3    H217599   1.420   3.778   1.541 -0.5322  0.4533  0.6552
 5865TIP3   OH217600   1.071   4.115   0.950  0.0728  0.0389 -0.2978
 5865TIP3    H117601   0.992   4.162   0.925  0.0095  0.4602  0.6277
 5865TIP3    H217602   1.069   4.115   1.046  0.5533 -1.0523 -0.2786
 5866TIP3   OH217603   4.411   1.446   5.115 -0.1772  0.0654 -0.5553
 5866TIP3    H117604   4.353   1.469   5.188 -0.1288  0.0883 -0.5243
 5866TIP3    H217605   4.497   1.475   5.143  0.1870 -1.5990  0.1717
 5867TIP3   OH217606   4.010   2.364   3.125 -0.1960 -0.3636  0.9064
 5867TIP3    H117607   4.057   2.437   3.085 -1.4662  0.5645  1.0323
 5867TIP3    H217608   3.996   2.303   3.053  1.6844 -0.9569  0.9899
 5868TIP3   OH217609   1.943   1.172   3.514  0.5832  0.2610  0.1448
 5868TIP3    H117610   1.958   1.083   3.546 -0.2587  0.1399  0.2086
 5868TIP3    H217611   1.928   1.224   3.593 -2.7284 -0.2622 -0.0029
 5869TIP3   OH217612   0.208   2.080   0.237  0.2312 -0.2395  0.8424
 5869TIP3    H117613   0.199   2.026   0.315  0.0381 -0.8631  0.4068
 5869TIP3    H217614   0.158   2.032   0.170  0.1315  0.4393  0.4223
 5870TIP3   OH217615   4.138   1.473   4.162 -0.1667 -0.2749 -0.5029
 5870TIP3    H117616   4.219   1.516   4.135  0.0931 -1.3675 -1.5437
 5870TIP3    H217617   4.087   1.542   4.205  1.7808  0.1522  1.2294
 5871TIP3   OH217618   6.109   3.817   0.559 -0.1440 -0.7159  0.0137
 5871TIP3    H117619   6.064   3.733   0.549  0.7561 -1.4586  1.9207
 5871TIP3    H217620   6.038   3.880   0.574 -0.6566 -1.7161  2.0591
 5872TIP3   OH217621   4.083   2.104   3.058  0.5546  0.2235  0.3475
 5872TIP3    H117622   4.157   2.153   3.023  0.7833 -1.6167 -1.9308
 5872TIP3    H217623   4.010   2.127   3.000  0.1676 -0.5828  0.5043
 5873TIP3   OH217624   3.845   4.782   0.469  0.2490  0.2924 -0.2956
 5873TIP3    H117625   3.813   4.857   0.520 -0.9725 -1.5729  1.8540
 5873TIP3    H217626   3.931   4.809   0.438  0.1688  2.3088  1.0548
 5874TIP3   OH217627   0.497   2.019   3.047 -0.1991 -0.0283  0.0219
 5874TIP3    H117628   0.431   2.081   3.077  0.3423  0.0418  1.1118
 5874TIP3    H217629   0.536   2.061   2.970 -1.0448  0.1660 -0.3119
 5875TIP3   OH217630   4.008   1.341   2.399 -0.1275 -0.0779  0.0675
 5875TIP3    H117631   3.967   1.365   2.316  1.1740  0.3359 -0.4795
 5875TIP3    H217632   4.102   1.349   2.383  0.2044 -1.2653  1.1940
 5876TIP3   OH217633   4.843   4.904   3.638  0.7691  0.7842  1.2217
 5876TIP3    H117634   4.801   4.977   3.594  0.4753  0.2545  0.6187
 5876TIP3    H217635   4.771   4.845   3.662  1.0009  0.6960  1.7310
 5877TIP3   OH217636   3.137   2.904   4.599 -0.1898 -0.4142  0.1897
 5877TIP3    H117637   3.187   2.916   4.518  0.5682  1.1825  0.8478
 5877TIP3    H217638   3.098   2.990   4.616 -0.9389 -0.9225  1.1472
 5878TIP3   OH217639   4.882   3.081   4.948 -0.2344 -0.1581  0.4928
 5878TIP3    H117640   4.838   3.156   4.908 -0.6732 -0.4403  0.4365
 5878TIP3    H217641   4.975   3.104   4.947 -0.3791  0.4523  0.6231
 5879TIP3   OH217642   3.714   3.926   0.026  0.0519 -0.4862  0.1546
 5879TIP3    H117643   3.743   4.015   0.042  0.5973 -0.6401  0.0394
 5879TIP3    H217644   3.662   3.903   0.103  1.2940 -0.6522  0.9727
 5880TIP3   OH217645   6.124   0.766   4.961  0.2858  0.1449 -0.0711
 5880TIP3    H117646   6.157   0.801   4.879 -1.2242  0.5596 -0.5301
 5880TIP3    H217647   6.091   0.842   5.009  0.6458 -0.1654  0.6972
 5881TIP3   OH217648   4.244   2.513   2.974 -0.2702 -0.3749 -0.4937
 5881TIP3    H117649   4.312   2.518   3.041  0.4651 -0.7878 -1.2051
 5881TIP3    H217650   4.193   2.593   2.988 -0.2516 -0.5367  0.6712
 5882TIP3   OH217651   1.750   5.742   3.655 -0.4021  0.1055  0.1092
 5882TIP3    H117652   1.675   5.796   3.680  0.9643  2.2754 -0.2533
 5882TIP3    H217653   1.725   5.703   3.571 -1.9406 -0.9931  1.0119
 5883TIP3   OH217654   0.403   4.197   4.496  0.0953  0.2076  0.4521
 5883TIP3    H117655   0.484   4.208   4.547  0.5760 -0.0996 -0.2292
 5883TIP3    H217656   0.350   4.274   4.518  0.6981  0.5657  0.6805
 5884TIP3   OH217657   6.226   4.382   1.663 -0.5824  0.2042 -0.0328
 5884TIP3    H117658   6.244   4.415   1.574  2.7279 -0.3453  0.3161
 5884TIP3    H217659   6.234   4.287   1.655 -0.5833  0.1347  0.7702
 5885TIP3   OH217660   0.692   1.015   3.251  0.5589  0.2622  0.1182
 5885TIP3    H117661   0.635   0.940   3.236  0.3632  0.7823 -2.0762
 5885TIP3    H217662   0.763   0.981   3.305 -0.1023 -1.2001  0.1186
 5886TIP3   OH217663   2.933   2.879   3.938  0.3718 -0.2887  0.1910
 5886TIP3    H117664   2.947   2.808   4.002 -2.4121 -0.9910  0.1672
 5886TIP3    H217665   2.872   2.841   3.874  1.3943  1.1128 -1.6981
 5887TIP3   OH217666   1.295   5.817   4.923  0.2746 -0.1928  0.4659
 5887TIP3    H117667   1.225   5.794   4.862  0.4230  1.2816 -0.3066
 5887TIP3    H217668   1.269   5.901   4.960  1.2080 -0.0532  0.8416
 5888TIP3   OH217669   0.348   1.990   0.887  0.2218 -0.3130 -0.3036
 5888TIP3    H117670   0.341   1.963   0.979  0.3828  2.6754  0.6945
 5888TIP3    H217671   0.257   2.006   0.860  0.1543 -1.4303 -0.7741
 5889TIP3   OH217672   0.151   2.384   3.339  0.2670 -0.2488  0.0375
 5889TIP3    H117673   0.096   2.444   3.390  1.0163  0.0869  0.4724
 5889TIP3    H217674   0.165   2.310   3.398  1.0050  0.0670  0.2592
 5890TIP3   OH217675   4.812   2.816   3.198  0.7163 -0.3206  0.5304
 5890TIP3    H117676   4.754   2.792   3.125  0.6444 -0.6229  0.6877
 5890TIP3    H217677   4.822   2.911   3.189 -0.7362 -0.0796  1.1851
 5891TIP3   OH217678   5.677   0.643   4.112 -0.2778  0.0082 -0.1493
 5891TIP3    H117679   5.632   0.564   4.080 -1.1450  1.1360 -1.8664
 5891TIP3    H217680   5.711   0.685   4.033  0.0678  1.4316  0.7169
 5892TIP3   OH217681   4.024   2.246   1.549 -0.1832 -0.3589 -0.1825
 5892TIP3    H117682   4.035   2.339   1.529  0.0113 -0.1398  0.8860
 5892TIP3    H217683   4.030   2.241   1.645  0.1334 -1.5119 -0.2488
 5893TIP3   OH217684   2.565   5.405   4.742  0.3926  0.0678 -0.0768
 5893TIP3    H117685   2.476   5.383   4.716  0.5004  1.1119 -1.4673
 5893TIP3    H217686   2.559   5.423   4.836 -1.2457  1.7804 -0.4345
 5894TIP3   OH217687   2.761   5.597   0.400  0.9615 -0.5238  0.3547
 5894TIP3    H117688   2.781   5.520   0.453 -1.6629 -1.1310  0.6450
 5894TIP3    H217689   2.727   5.560   0.318  1.1444  0.3647 -0.1323
 5895TIP3   OH217690   1.148   5.182   1.936  0.3208 -0.4165 -0.1009
 5895TIP3    H117691   1.203   5.130   1.995 -0.0578 -2.3935 -1.3855
 5895TIP3    H217692   1.204   5.202   1.862  0.9293  2.4466  1.0152
 5896TIP3   OH217693   5.330   1.585   2.595  0.0405  0.2917 -0.0400
 5896TIP3    H117694   5.291   1.644   2.660 -0.5828 -0.9769  0.7770
 5896TIP3    H217695   5.387   1.642   2.543  0.2705  1.4310  1.3737
 5897TIP3   OH217696   5.344   2.331   4.744 -0.3257  0.1286 -0.7188
 5897TIP3    H117697   5.358   2.367   4.656 -0.1337  0.3733 -0.5902
 5897TIP3    H217698   5.306   2.403   4.794  0.8176  0.4229 -0.2422
 5898TIP3   OH217699   1.328   2.274   3.242 -0.2594  0.8000  0.1987
 5898TIP3    H117700   1.236   2.298   3.254 -0.2783  0.1366  1.6936
 5898TIP3    H217701   1.373   2.356   3.224 -1.1023  1.1618 -0.3157
 5899TIP3   OH217702   0.303   2.186   1.612  0.4176  0.2350  0.6525
 5899TIP3    H117703   0.288   2.095   1.587  0.0962  0.9563 -2.1565
 5899TIP3    H217704   0.393   2.204   1.584 -0.6758  1.7063 -2.4196
 5900TIP3   OH217705   2.213   4.611   3.343 -0.3430  0.2240 -0.3156
 5900TIP3    H117706   2.138   4.625   3.401 -0.0404  1.5068 -0.1986
 5900TIP3    H217707   2.288   4.643   3.394 -0.0628  1.3222 -1.3592
 5901TIP3   OH217708   4.599   2.839   5.144  0.2732  0.2879 -0.0403
 5901TIP3    H117709   4.692   2.829   5.124  0.7379  0.3546  1.9136
 5901TIP3    H217710   4.580   2.931   5.126  0.9070  0.5785  0.7393
 5902TIP3   OH217711   1.253   1.252   0.981  0.1193  0.1060  0.3491
 5902TIP3    H117712   1.198   1.248   0.903  0.7033  1.7961 -0.2080
 5902TIP3    H217713   1.336   1.287   0.950  0.9834 -0.9145  1.4444
 5903TIP3   OH217714   2.736   0.590   2.185 -0.3614 -0.3396  0.0607
 5903TIP3    H117715   2.788   0.664   2.155 -0.7201 -0.5190 -1.0499
 5903TIP3    H217716   2.789   0.513   2.164 -0.4717 -0.4502  0.1858
 5904TIP3   OH217717   1.759   3.194   5.124  0.0691  0.6047  0.4098
 5904TIP3    H117718   1.692   3.174   5.190 -0.6636 -0.7862 -0.7003
 5904TIP3    H217719   1.842   3.167   5.165 -0.4692 -1.1169  0.4660
 5905TIP3   OH217720   4.537   5.053   4.216  0.6239 -0.0556 -0.3738
 5905TIP3    H117721   4.461   5.038   4.273  0.6582  1.1823  0.0189
 5905TIP3    H217722   4.529   4.986   4.148 -1.2262  0.5146 -0.7555
 5906TIP3   OH217723   4.708   2.059   0.251 -0.1619  0.1684  0.1217
 5906TIP3    H117724   4.686   2.031   0.339 -0.1879 -0.6989 -0.1543
 5906TIP3    H217725   4.634   2.114   0.224 -1.2138 -1.3175 -0.1545
 5907TIP3   OH217726   0.611   4.812   2.795  0.7344  0.1858  0.2057
 5907TIP3    H117727   0.693   4.825   2.843  0.4870 -0.3208  0.7643
 5907TIP3    H217728   0.598   4.895   2.749  2.2592 -0.1708 -0.9670
 5908TIP3   OH217729   0.962   1.020   4.295 -0.8921 -0.2446  0.4718
 5908TIP3    H117730   0.893   1.051   4.235 -0.7574 -2.1927 -0.7852
 5908TIP3    H217731   1.036   1.001   4.238  0.9941  2.3855  1.8701
 5909TIP3   OH217732   4.848   0.358   1.360 -0.3424  0.3581  0.0277
 5909TIP3    H117733   4.796   0.435   1.334 -0.2658  1.0644  1.8042
 5909TIP3    H217734   4.813   0.333   1.445  1.2030 -0.0997  0.5710
 5910TIP3   OH217735   4.138   0.853   3.800 -0.2348  0.2841 -0.1655
 5910TIP3    H117736   4.184   0.856   3.716 -0.7174 -0.6887 -0.4781
 5910TIP3    H217737   4.201   0.813   3.860  0.2119  1.2329  0.0223
 5911TIP3   OH217738   3.440   2.815   2.970  0.0002 -0.0043 -0.2090
 5911TIP3    H117739   3.516   2.762   2.996 -0.6154 -0.9637 -0.3060
 5911TIP3    H217740   3.472   2.905   2.970  1.1954 -0.4098 -0.4296
 5912TIP3   OH217741   4.542   1.146   2.435  0.2432  0.0640  0.6161
 5912TIP3    H117742   4.600   1.136   2.510 -0.4697 -0.4035  1.1153
 5912TIP3    H217743   4.454   1.137   2.471 -0.0744 -2.1103 -0.5676
 5913TIP3   OH217744   1.268   5.206   2.379  1.1532 -0.5139  0.5765
 5913TIP3    H117745   1.274   5.171   2.468  0.9016 -1.1899  0.3327
 5913TIP3    H217746   1.325   5.149   2.327  4.4973  2.1792  0.9523
 5914TIP3   OH217747   5.440   5.295   4.656 -0.5042 -0.5651 -0.0096
 5914TIP3    H117748   5.471   5.285   4.566  0.8608  0.6590  0.2755
 5914TIP3    H217749   5.488   5.228   4.705  0.0450 -0.1300  0.0628
 5915TIP3   OH217750   0.927   2.157   5.038 -0.0329  0.3510 -0.0375
 5915TIP3    H117751   1.012   2.152   5.081 -0.3866 -1.0930  0.5526
 5915TIP3    H217752   0.889   2.239   5.070  0.1253 -0.1922  1.6769
 5916TIP3   OH217753   3.583   3.938   1.532  0.3536  0.2354  0.1554
 5916TIP3    H117754   3.646   3.968   1.466  0.5219 -0.7197 -0.1379
 5916TIP3    H217755   3.523   3.881   1.484 -0.1339  0.3445  0.6296
 5917TIP3   OH217756   0.141   0.705   0.762 -0.6443  0.2153 -0.2694
 5917TIP3    H117757   0.075   0.703   0.692 -1.0589 -1.0449  0.1224
 5917TIP3    H217758   0.165   0.613   0.774  0.6751  0.5922  0.0935
 5918TIP3   OH217759   3.402   0.621   0.859  1.0040 -0.4730 -0.0416
 5918TIP3    H117760   3.370   0.697   0.811  1.7455  0.2636  0.6121
 5918TIP3    H217761   3.325   0.589   0.906  0.7278 -0.0212 -0.1790
 5919TIP3   OH217762   0.718   4.655   0.464 -0.1864  0.0463 -0.2291
 5919TIP3    H117763   0.662   4.641   0.540  0.0578  0.4632  0.0358
 5919TIP3    H217764   0.740   4.567   0.433 -1.1282 -0.1172 -0.4466
 5920TIP3   OH217765   1.364   4.602   4.059  0.7125 -0.3641  0.9716
 5920TIP3    H117766   1.324   4.652   4.130  1.7741  0.4079  1.0472
 5920TIP3    H217767   1.345   4.510   4.081 -1.4828 -0.0393  0.7006
 5921TIP3   OH217768   5.134   4.995   4.184 -0.3839  0.3851 -1.0927
 5921TIP3    H117769   5.165   4.962   4.099  1.4671 -0.5255 -0.1303
 5921TIP3    H217770   5.213   5.000   4.237 -1.6446 -0.1437  0.9361
 5922TIP3   OH217771   3.762   3.554   1.160 -0.0863 -0.4495 -0.3458
 5922TIP3    H117772   3.705   3.578   1.234 -2.0147 -1.6142 -1.3810
 5922TIP3    H217773   3.722   3.595   1.084  2.0172  0.9397 -0.7860
 5923TIP3   OH217774   4.967   1.651   0.745  0.1054 -0.1644  0.0143
 5923TIP3    H117775   4.966   1.739   0.709 -1.3059 -0.3952 -0.5787
 5923TIP3    H217776   4.961   1.593   0.669 -1.2815 -0.6922  0.4723
 5924TIP3   OH217777   0.785   2.332   1.546 -0.5237  0.0752 -0.7050
 5924TIP3    H117778   0.825   2.404   1.594 -0.7467  0.7057 -1.4426
 5924TIP3    H217779   0.851   2.263   1.547  0.3375  0.8571 -1.3230
 5925TIP3   OH217780   3.342   1.397   0.960 -0.0566  0.0674 -0.0971
 5925TIP3    H117781   3.361   1.368   0.871 -1.1124  0.1537 -0.3578
 5925TIP3    H217782   3.378   1.486   0.964  0.0950  0.0210 -0.3959
 5926TIP3   OH217783   5.228   1.417   3.498  0.0497 -0.0293 -0.0914
 5926TIP3    H117784   5.183   1.476   3.437 -0.7461 -0.5511 -0.0268
 5926TIP3    H217785   5.316   1.454   3.507 -0.2197  0.7575 -0.5818
 5927TIP3   OH217786   1.292   0.470   2.323 -0.1893  0.0930 -0.3751
 5927TIP3    H117787   1.210   0.425   2.337 -0.1912 -0.5879 -2.2687
 5927TIP3    H217788   1.301   0.476   2.228  0.4571  2.9207 -0.2484
 5928TIP3   OH217789   0.254   3.314   3.411 -0.6479 -0.5346  0.3955
 5928TIP3    H117790   0.327   3.266   3.371 -0.3575 -0.1509  0.4612
 5928TIP3    H217791   0.177   3.285   3.362 -0.3056 -0.1160 -0.4040
 5929TIP3   OH217792   5.934   2.894   4.563 -0.1859  0.6726  0.7350
 5929TIP3    H117793   5.966   2.820   4.511  0.1103  1.4102 -0.1676
 5929TIP3    H217794   5.973   2.881   4.650  0.5643  0.2314  0.3411
 5930TIP3   OH217795   4.976   1.223   2.176 -0.2285  0.2425  0.0678
 5930TIP3    H117796   4.891   1.183   2.157 -1.4407  2.2155  0.9938
 5930TIP3    H217797   4.962   1.317   2.163  1.6572  0.6790  0.8094
 5931TIP3   OH217798   3.013   2.328   5.141  0.1737  0.1648  0.0155
 5931TIP3    H117799   2.932   2.279   5.124  0.0174  1.0221 -2.0006
 5931TIP3    H217800   3.077   2.290   5.081  1.2837 -0.4465  1.5390
 5932TIP3   OH217801   0.548   4.197   4.923  0.0784  0.3378  0.3144
 5932TIP3    H117802   0.496   4.242   4.856 -2.0438  1.8804  2.7836
 5932TIP3    H217803   0.496   4.120   4.946  1.6806 -1.2136 -0.9476
 5933TIP3   OH217804   2.541   3.428   0.679  0.3531 -0.2444 -0.7744
 5933TIP3    H117805   2.574   3.360   0.621  0.3715 -0.8745 -0.0424
 5933TIP3    H217806   2.620   3.471   0.712  0.3155  1.3394 -2.6013
 5934TIP3   OH217807   0.213   2.174   1.221  0.1223 -0.0748 -0.1445
 5934TIP3    H117808   0.211   2.217   1.136 -0.2002  0.0832 -0.0596
 5934TIP3    H217809   0.269   2.098   1.208  0.1687  0.0114 -0.4669
 5935TIP3   OH217810   3.298   1.870   1.940  0.3831  0.1361  0.0591
 5935TIP3    H117811   3.254   1.934   1.996 -1.1288 -1.0067  0.2178
 5935TIP3    H217812   3.258   1.882   1.854 -0.4012 -1.0373  0.2464
 5936TIP3   OH217813   5.339   3.053   1.690 -0.3637 -0.2576  0.2971
 5936TIP3    H117814   5.346   3.126   1.628 -0.1829 -0.3406  0.2221
 5936TIP3    H217815   5.357   3.093   1.776  0.1181 -0.2887  0.2129
 5937TIP3   OH217816   4.704   1.885   4.137 -0.1525 -0.1348  0.3825
 5937TIP3    H117817   4.702   1.790   4.137  2.3068 -0.2452  0.4794
 5937TIP3    H217818   4.714   1.908   4.044  0.6431 -0.0617  0.4775
 5938TIP3   OH217819   3.465   0.297   4.114  0.0830  0.1593  0.0935
 5938TIP3    H117820   3.494   0.357   4.045 -0.5244  0.9309  0.5056
 5938TIP3    H217821   3.496   0.337   4.195 -1.2111  0.4546  0.4543
 5939TIP3   OH217822   4.331   2.794   3.232 -0.1477 -0.4488 -0.1278
 5939TIP3    H117823   4.381   2.740   3.293  0.0852  0.2321  0.3058
 5939TIP3    H217824   4.286   2.858   3.288  1.0706  1.0056 -0.7328
 5940TIP3   OH217825   0.872   5.274   1.417  0.0761  0.4481 -0.4785
 5940TIP3    H117826   0.782   5.250   1.394 -0.0067  0.5191 -0.2416
 5940TIP3    H217827   0.885   5.360   1.376 -0.5061  1.1574  0.7537
 5941TIP3   OH217828   2.434   0.455   2.880  0.4696  0.5178 -0.1996
 5941TIP3    H117829   2.452   0.461   2.974  0.2276 -1.3857  0.0266
 5941TIP3    H217830   2.410   0.544   2.854  1.0905  1.1958  1.4195
 5942TIP3   OH217831   2.870   3.182   2.421  0.5127  0.3548  0.2722
 5942TIP3    H117832   2.907   3.267   2.396 -0.4951  0.7342  0.0029
 5942TIP3    H217833   2.800   3.204   2.483 -0.6900 -0.1342 -0.8469
 5943TIP3   OH217834   1.373   5.112   1.051  0.1065 -0.0690  0.1671
 5943TIP3    H117835   1.342   5.168   0.980  0.6753 -0.0523 -0.0767
 5943TIP3    H217836   1.445   5.161   1.091 -1.3238  0.7337  1.9328
 5944TIP3   OH217837   1.992   4.735   2.783  0.1090 -0.0420  0.2659
 5944TIP3    H117838   1.998   4.830   2.793  0.5843 -0.0202 -0.2110
 5944TIP3    H217839   1.934   4.707   2.854  0.2916  0.5557  0.6541
 5945TIP3   OH217840   2.912   2.138   4.784  0.3681  0.5242  0.1940
 5945TIP3    H117841   3.003   2.167   4.781  0.0469  1.5340 -0.6594
 5945TIP3    H217842   2.864   2.213   4.819 -0.3480  0.6651 -1.0135
 5946TIP3   OH217843   5.781   1.636   4.797 -0.2894  0.1389 -0.0307
 5946TIP3    H117844   5.787   1.582   4.718  0.3593 -1.2026  0.8914
 5946TIP3    H217845   5.845   1.705   4.784  1.2155 -1.1742  0.1105
 5947TIP3   OH217846   2.998   3.822   2.771 -0.2872 -0.3818  0.0539
 5947TIP3    H117847   3.089   3.847   2.759 -0.0095 -2.0349 -1.7529
 5947TIP3    H217848   2.949   3.878   2.712 -0.0990 -1.2928 -1.0084
 5948TIP3   OH217849   4.689   3.854   2.117  0.8485  0.2300 -0.8439
 5948TIP3    H117850   4.725   3.787   2.175 -0.3639  0.9015  0.7835
 5948TIP3    H217851   4.754   3.925   2.120  0.0687  0.9561  1.1379
 5949TIP3   OH217852   1.008   1.178   4.763  0.1464 -0.1620 -0.0549
 5949TIP3    H117853   0.929   1.231   4.766 -0.6312 -1.2921  1.6648
 5949TIP3    H217854   1.068   1.220   4.825  0.2113 -0.2919 -0.0286
 5950TIP3   OH217855   5.060   5.547   1.159 -0.0411  0.7416 -0.0808
 5950TIP3    H117856   5.016   5.626   1.129  0.9952  0.8751 -1.3638
 5950TIP3    H217857   5.153   5.571   1.161  0.1597 -0.0365  0.8926
 5951TIP3   OH217858   0.962   5.507   3.858  0.1286 -0.5399  0.4176
 5951TIP3    H117859   1.034   5.466   3.811 -0.1263 -0.5242  0.0049
 5951TIP3    H217860   0.993   5.595   3.877  0.1863 -0.5024  0.1583
 5952TIP3   OH217861   3.022   1.238   0.678 -0.1021  0.0645  0.1631
 5952TIP3    H117862   2.984   1.208   0.596  0.1190  1.2019 -0.3717
 5952TIP3    H217863   2.987   1.178   0.744 -1.0144 -0.2936 -0.6270
 5953TIP3   OH217864   4.307   5.947   0.510  0.0668  0.1107 -0.2450
 5953TIP3    H117865   4.225   5.899   0.500  0.3308 -1.1877  2.6856
 5953TIP3    H217866   4.375   5.879   0.509  0.7555  0.7566  0.7719
 5954TIP3   OH217867   5.148   3.760   0.039  0.1537 -0.4908  0.5602
 5954TIP3    H117868   5.114   3.801   0.119 -1.6539  1.2762 -0.9843
 5954TIP3    H217869   5.084   3.692   0.018  0.4374 -0.7240  0.4529
 5955TIP3   OH217870   4.487   3.934   3.907 -0.3314  0.1504  0.3431
 5955TIP3    H117871   4.396   3.904   3.907 -0.6527  1.0712  1.3973
 5955TIP3    H217872   4.538   3.854   3.921 -1.1570 -0.0131  2.9249
 5956TIP3   OH217873   4.757   2.251   2.636 -0.0044 -0.1930  0.2584
 5956TIP3    H117874   4.769   2.303   2.715 -0.2068  0.0238  0.1510
 5956TIP3    H217875   4.841   2.256   2.590 -0.7196  2.1599 -0.9958
 5957TIP3   OH217876   1.415   2.661   1.860  0.8094  0.1065 -0.4553
 5957TIP3    H117877   1.358   2.715   1.804 -1.6150 -0.2103  1.4838
 5957TIP3    H217878   1.448   2.593   1.803 -0.4092  0.5983 -1.8179
 5958TIP3   OH217879   4.706   0.367   4.849  0.3502 -0.5405 -0.0546
 5958TIP3    H117880   4.776   0.418   4.890 -0.1597  0.1442 -0.0232
 5958TIP3    H217881   4.699   0.288   4.903 -0.3588  0.3725  1.2235
 5959TIP3   OH217882   3.712   1.926   4.264 -0.2570  0.0125  0.8125
 5959TIP3    H117883   3.623   1.892   4.256 -0.3178 -0.0435  1.6231
 5959TIP3    H217884   3.701   2.021   4.264 -0.3444  0.0032  1.1794
 5960TIP3   OH217885   5.615   3.726   1.483 -0.1316 -0.3143 -0.0914
 5960TIP3    H117886   5.628   3.812   1.524  0.9703 -0.8259  0.7088
 5960TIP3    H217887   5.670   3.728   1.405  0.4266 -0.5207  0.2918
 5961TIP3   OH217888   2.283   2.788   2.320  0.2204  0.1644 -0.2379
 5961TIP3    H117889   2.234   2.835   2.253 -0.3823 -1.3607 -0.9091
 5961TIP3    H217890   2.246   2.819   2.403  0.7583  1.8334 -0.5775
 5962TIP3   OH217891   1.507   1.092   1.149 -0.1577  0.6739 -0.0656
 5962TIP3    H117892   1.456   1.032   1.094 -0.6506  1.4861 -0.5161
 5962TIP3    H217893   1.441   1.143   1.195  0.2439 -0.0412  1.3766
 5963TIP3   OH217894   1.651   3.120   1.371 -0.4341 -0.3360  0.5968
 5963TIP3    H117895   1.738   3.151   1.347  0.3655 -0.8551  2.5737
 5963TIP3    H217896   1.602   3.200   1.391 -0.1601 -0.0806  0.2537
 5964TIP3   OH217897   1.681   5.424   1.955  0.0900  0.8247  0.1937
 5964TIP3    H117898   1.686   5.339   1.999 -0.8105 -0.1346 -1.4861
 5964TIP3    H217899   1.709   5.408   1.866  2.1933  2.8102  0.3971
 5965TIP3   OH217900   4.986   0.627   1.989  0.7228  0.3770  0.3301
 5965TIP3    H117901   4.904   0.657   1.949  0.0795 -0.6361  0.8522
 5965TIP3    H217902   5.042   0.705   1.990 -0.7984  1.5072  1.3864
 5966TIP3   OH217903   5.167   3.143   3.022  0.2769  0.4626 -0.1873
 5966TIP3    H117904   5.260   3.140   2.998  0.4715  2.6459  0.0564
 5966TIP3    H217905   5.132   3.060   2.991  1.8962  0.3789 -2.0556
 5967TIP3   OH217906   1.855   1.327   3.979 -0.3258  0.5015  0.2589
 5967TIP3    H117907   1.824   1.237   3.993  0.0869  0.1606 -0.8529
 5967TIP3    H217908   1.828   1.374   4.057 -1.8716 -0.2424  0.2176
 5968TIP3   OH217909   3.754   5.729   3.528 -0.8621 -0.4119  0.7174
 5968TIP3    H117910   3.741   5.824   3.528 -1.0238 -0.4271  1.5524
 5968TIP3    H217911   3.829   5.716   3.586  1.0166 -0.5741 -1.5921
 5969TIP3   OH217912   4.033   3.154   1.476 -0.1372 -0.1778 -0.0592
 5969TIP3    H117913   3.977   3.193   1.543 -1.3438 -1.0359 -0.5467
 5969TIP3    H217914   4.021   3.060   1.486 -0.1240 -0.3278 -1.2989
 5970TIP3   OH217915   5.103   1.318   3.246 -0.1344 -0.3009 -0.1850
 5970TIP3    H117916   5.137   1.394   3.199  0.7566  1.2142  2.6740
 5970TIP3    H217917   5.172   1.252   3.237  0.5936  0.4123  0.0070
 5971TIP3   OH217918   6.083   2.833   3.235 -0.1594  0.4370 -0.2267
 5971TIP3    H117919   6.161   2.882   3.208 -1.1688  1.3567 -1.5858
 5971TIP3    H217920   6.112   2.783   3.312  1.6209  1.1383 -0.3893
 5972TIP3   OH217921   5.147   5.401   2.742 -0.1387  0.4285 -1.1680
 5972TIP3    H117922   5.196   5.478   2.715  0.8345  0.8650  1.5332
 5972TIP3    H217923   5.214   5.336   2.766 -0.9028 -0.2777 -0.8628
 5973TIP3   OH217924   0.491   2.960   4.432 -0.1755 -0.5819  0.0991
 5973TIP3    H117925   0.544   2.909   4.370 -0.9242  0.1891 -1.2140
 5973TIP3    H217926   0.547   3.033   4.458 -0.0254 -0.6515 -0.0291
 5974TIP3   OH217927   0.454   3.836   0.886  0.0161  0.8221  0.6837
 5974TIP3    H117928   0.478   3.916   0.932 -1.3690  1.4033  0.4552
 5974TIP3    H217929   0.513   3.769   0.920  1.5350  2.0230  0.5349
 5975TIP3   OH217930   4.547   2.455   1.745 -0.1809 -0.0129 -0.6603
 5975TIP3    H117931   4.624   2.450   1.802 -0.4944  1.6149 -0.0635
 5975TIP3    H217932   4.582   2.486   1.661 -0.1465  0.4686 -0.4690
 5976TIP3   OH217933   3.158   3.174   0.169 -0.5290  0.1886  0.1768
 5976TIP3    H117934   3.119   3.201   0.252  0.5868  2.3435  0.0867
 5976TIP3    H217935   3.156   3.254   0.115  2.0900 -0.1243 -0.5215
 5977TIP3   OH217936   0.277   4.407   0.245 -0.3125  0.3292  0.1965
 5977TIP3    H117937   0.317   4.491   0.269 -0.9379  0.1237  2.1810
 5977TIP3    H217938   0.346   4.343   0.257 -0.0484  0.4530 -0.5940
 5978TIP3   OH217939   4.071   0.183   3.566 -0.1853  0.4871 -0.0540
 5978TIP3    H117940   4.154   0.135   3.574 -1.1972 -1.8242 -2.0837
 5978TIP3    H217941   4.008   0.117   3.537 -2.3570  2.5427 -0.3461
 5979TIP3   OH217942   4.181   4.324   4.860 -0.5371 -0.5071  0.1962
 5979TIP3    H117943   4.168   4.262   4.788 -0.9006 -0.6387  0.3760
 5979TIP3    H217944   4.155   4.276   4.939 -0.7747 -0.1395  0.3434
 5980TIP3   OH217945   0.655   4.512   4.627 -0.0099 -0.3254  0.1863
 5980TIP3    H117946   0.677   4.419   4.622  1.0052 -0.1500  0.9839
 5980TIP3    H217947   0.731   4.556   4.587 -0.7518  0.1419 -0.7453
 5981TIP3   OH217948   4.790   1.520   1.165  0.0504  0.3685 -0.5103
 5981TIP3    H117949   4.827   1.474   1.240  0.3753 -1.1362 -1.5480
 5981TIP3    H217950   4.696   1.527   1.184  0.1407  0.0563  0.0543
 5982TIP3   OH217951   2.627   0.979   2.983  0.5239  0.3037  0.4238
 5982TIP3    H117952   2.583   1.058   3.015  1.5709  1.4923 -0.8964
 5982TIP3    H217953   2.680   0.949   3.057 -0.1166  0.6555  1.0357
 5983TIP3   OH217954   0.125   3.400   2.714 -0.3177 -0.2987 -0.0873
 5983TIP3    H117955   0.212   3.396   2.674 -0.3123  2.1603 -0.4590
 5983TIP3    H217956   0.141   3.387   2.808 -0.0455 -3.4696 -0.4511
 5984TIP3   OH217957   2.477   4.411   1.100  0.0507  0.4819  0.3709
 5984TIP3    H117958   2.436   4.352   1.037  0.3178  0.2380  0.4230
 5984TIP3    H217959   2.441   4.497   1.078  1.1252  0.6213 -0.9720
 5985TIP3   OH217960   0.565   4.196   3.519  0.2030 -0.4712 -0.0570
 5985TIP3    H117961   0.578   4.106   3.549 -1.0396 -0.3863  0.7806
 5985TIP3    H217962   0.563   4.189   3.424 -0.1110 -1.3651  0.0047
 5986TIP3   OH217963   5.728   0.644   3.801  0.1782 -0.2389  0.0320
 5986TIP3    H117964   5.775   0.561   3.790 -1.9452 -1.5332  0.1829
 5986TIP3    H217965   5.778   0.707   3.749  1.1300 -1.9132 -1.1703
 5987TIP3   OH217966   2.961   3.488   1.694  0.0886 -0.1960  0.0192
 5987TIP3    H117967   3.008   3.441   1.763 -0.9011  0.1510  0.9558
 5987TIP3    H217968   2.904   3.549   1.741  0.5973  1.2398 -1.1367
 5988TIP3   OH217969   5.257   3.477   0.522  0.2142  0.1637  0.4580
 5988TIP3    H117970   5.324   3.419   0.486 -1.5080 -2.0497  0.5204
 5988TIP3    H217971   5.305   3.548   0.563  2.4245 -0.4194 -0.9412
 5989TIP3   OH217972   0.784   1.335   1.776  0.3551 -0.0355  0.2205
 5989TIP3    H117973   0.703   1.317   1.824 -0.0999 -1.0277 -0.8662
 5989TIP3    H217974   0.854   1.307   1.835 -0.1214  0.0807  0.8521
 5990TIP3   OH217975   0.229   2.507   2.311  0.0648  0.1875 -0.0599
 5990TIP3    H117976   0.257   2.500   2.220 -2.1013  3.4851 -1.1507
 5990TIP3    H217977   0.167   2.435   2.323  0.2435 -0.1755 -1.2296
 5991TIP3   OH217978   3.283   5.896   2.735  0.0644  0.2141 -0.7391
 5991TIP3    H117979   3.282   5.800   2.736 -2.0292  0.1711 -1.1779
 5991TIP3    H217980   3.342   5.921   2.806  0.6642 -1.4020 -0.6397
 5992TIP3   OH217981   0.100   1.191   3.528 -0.1672 -0.0052 -0.1334
 5992TIP3    H117982   0.017   1.185   3.575 -0.6666  2.3777 -0.6010
 5992TIP3    H217983   0.166   1.202   3.597 -0.5737  0.7128  0.1511
 5993TIP3   OH217984   5.383   5.160   1.703  0.3001 -0.2198  0.0227
 5993TIP3    H117985   5.358   5.103   1.776  1.2414  0.2826  0.7594
 5993TIP3    H217986   5.437   5.228   1.743 -0.7537  1.1788 -0.8282
 5994TIP3   OH217987   5.711   5.430   0.045  0.4874 -0.5001 -0.3522
 5994TIP3    H117988   5.774   5.462   0.109  0.8063 -0.5108 -0.6580
 5994TIP3    H217989   5.660   5.508   0.021  0.7001 -0.3948 -0.4619
 5995TIP3   OH217990   1.490   2.916   1.285  0.5486 -0.2652  0.5894
 5995TIP3    H117991   1.534   2.881   1.207  0.0585 -0.9580  0.6121
 5995TIP3    H217992   1.542   2.992   1.310 -0.1703  0.9313 -1.3329
 5996TIP3   OH217993   0.116   5.661   2.572  0.3043 -0.3022 -0.5942
 5996TIP3    H117994   0.178   5.620   2.512  0.0591  0.7204 -1.5685
 5996TIP3    H217995   0.030   5.639   2.537  0.1678  1.2348 -1.2970
 5997TIP3   OH217996   4.691   5.131   1.705 -0.9202 -0.0030 -0.2740
 5997TIP3    H117997   4.725   5.188   1.774 -2.6437  1.5383 -0.6199
 5997TIP3    H217998   4.768   5.085   1.672  0.1671  0.3449  1.6388
 5998TIP3   OH217999   2.930   3.042   1.619 -0.1612  0.0904 -1.0604
 5998TIP3    H118000   2.844   3.041   1.662  0.1826 -0.8676 -0.3637
 5998TIP3    H218001   2.910   3.023   1.527 -0.5913 -1.6314 -0.6455
 5999TIP3   OH218002   5.355   0.874   1.719 -0.4751 -0.1047 -0.1860
 5999TIP3    H118003   5.349   0.907   1.809 -0.0942  2.5538 -1.0346
 5999TIP3    H218004   5.339   0.780   1.727  2.8902 -0.6672  3.1254
 6000TIP3   OH218005   2.648   3.595   1.626  0.3767  0.3447 -0.0867
 6000TIP3    H118006   2.683   3.680   1.656 -0.9531  1.2620 -1.0358
 6000TIP3    H218007   2.556   3.612   1.608  0.3488 -1.0283 -1.3910
 6001TIP3   OH218008   0.579   3.929   4.386  0.3008  0.3192 -0.2635
 6001TIP3    H118009   0.569   4.014   4.428 -0.9632 -0.4324  1.0801
 6001TIP3    H218010   0.564   3.946   4.293 -2.3071  1.2413  0.2457
 6002TIP3   OH218011   5.789   1.927   4.885  0.3089  0.3691  0.0664
 6002TIP3    H118012   5.857   1.923   4.952 -0.2689 -0.0199  0.6425
 6002TIP3    H218013   5.837   1.946   4.804  1.0645  0.4174  0.5099
 6003TIP3   OH218014   6.041   2.496   0.201 -0.5264 -0.0382  0.1262
 6003TIP3    H118015   5.953   2.511   0.234 -0.4472  0.2627  0.2055
 6003TIP3    H218016   6.095   2.487   0.280 -0.2933  0.9286  0.0951
 6004TIP3   OH218017   5.495   5.789   1.729  0.5891 -0.3047  0.3872
 6004TIP3    H118018   5.493   5.799   1.824  1.9433  0.1171  0.3892
 6004TIP3    H218019   5.537   5.704   1.714  2.1219  0.4679  0.1566
 6005TIP3   OH218020   4.882   0.264   3.680 -0.2825 -0.0695  0.1632
 6005TIP3    H118021   4.976   0.268   3.699 -0.5117 -0.2880  1.3600
 6005TIP3    H218022   4.871   0.181   3.634  0.1425  0.0670 -0.1997
 6006TIP3   OH218023   1.151   2.401   3.534  0.2512 -0.4063  0.1562
 6006TIP3    H118024   1.236   2.377   3.570  0.6351  2.5661  1.4849
 6006TIP3    H218025   1.095   2.416   3.610 -0.5715  0.6153 -0.6134
 6007TIP3   OH218026   3.745   3.988   1.285  0.3487 -0.3957  0.4765
 6007TIP3    H118027   3.820   3.951   1.239  0.1821  1.5352 -1.5552
 6007TIP3    H218028   3.781   4.062   1.334 -0.1870  0.5604 -0.5298
 6008TIP3   OH218029   3.873   0.590   0.134 -0.1418  0.0776  0.2923
 6008TIP3    H118030   3.899   0.664   0.189  2.8988 -2.5563  2.8535
 6008TIP3    H218031   3.862   0.517   0.196 -1.2290 -2.0582 -2.2144
 6009TIP3   OH218032   2.466   1.600   4.989  0.3630 -0.4940 -0.4020
 6009TIP3    H118033   2.453   1.554   5.071  1.7468  1.2192  0.8735
 6009TIP3    H218034   2.378   1.623   4.959 -0.1329  0.1458  1.4272
 6010TIP3   OH218035   4.308   4.571   0.552  0.4796 -0.7414 -0.2828
 6010TIP3    H118036   4.278   4.642   0.495 -0.1265 -0.1770  0.7224
 6010TIP3    H218037   4.258   4.494   0.522  0.1816 -0.4587 -0.5224
 6011TIP3   OH218038   5.703   2.244   3.343  0.0486 -0.2585  0.5706
 6011TIP3    H118039   5.770   2.192   3.387 -0.8870 -1.7708  0.2495
 6011TIP3    H218040   5.693   2.322   3.398  0.7211 -0.9108  1.6370
 6012TIP3   OH218041   0.430   2.970   3.069 -0.0153  0.7508 -0.4460
 6012TIP3    H118042   0.429   2.879   3.097 -1.5891  0.7032 -0.5886
 6012TIP3    H218043   0.501   2.975   3.005  0.3634 -0.2601 -0.1173
 6013TIP3   OH218044   1.170   0.365   1.576 -0.2628  0.7564 -0.1103
 6013TIP3    H118045   1.164   0.430   1.646 -2.2897 -0.3865  0.9025
 6013TIP3    H218046   1.234   0.301   1.608  0.6636  1.4935 -0.4574
 6014TIP3   OH218047   3.076   1.669   4.498  0.2603  0.0144 -0.3068
 6014TIP3    H118048   3.059   1.687   4.590  1.1810 -0.5644 -0.0164
 6014TIP3    H218049   3.166   1.636   4.496  0.1685 -0.1978 -1.3816
 6015TIP3   OH218050   3.559   4.471   0.022 -0.1711 -0.4917 -0.0347
 6015TIP3    H118051   3.639   4.441   0.065 -2.1130 -1.0735  3.4682
 6015TIP3    H218052   3.523   4.393  -0.020  1.4805 -0.0197 -2.5546
 6016TIP3   OH218053   0.475   3.111   3.584 -0.5452  0.2592  0.2463
 6016TIP3    H118054   0.486   3.203   3.606  1.3189  0.4753 -1.2949
 6016TIP3    H218055   0.482   3.108   3.488 -0.6765 -1.4701  0.2543
 6017TIP3   OH218056   1.733   4.390   0.983  0.3487 -0.8963  0.0823
 6017TIP3    H118057   1.722   4.398   0.888  0.2372  0.3909  0.1836
 6017TIP3    H218058   1.810   4.334   0.993  2.6964  1.9015 -0.8878
 6018TIP3   OH218059   4.163   5.502   0.812  0.2227  0.1091  0.2236
 6018TIP3    H118060   4.171   5.406   0.811  2.1223  0.1650  2.1229
 6018TIP3    H218061   4.190   5.529   0.724  3.2415 -1.0078  0.6795
 6019TIP3   OH218062   3.881   3.837   2.161 -0.1371  0.3013  0.2458
 6019TIP3    H118063   3.967   3.879   2.167  0.6012 -0.7800 -1.7310
 6019TIP3    H218064   3.898   3.756   2.111 -2.1750 -0.3243  0.5029
 6020TIP3   OH218065   0.047   1.968   3.138 -0.2744 -0.1138  0.1678
 6020TIP3    H118066  -0.025   1.941   3.082  1.1181  0.9437 -2.3042
 6020TIP3    H218067   0.085   1.885   3.170  0.2532 -0.9496 -2.3642
 6021TIP3   OH218068   0.668   3.798   3.379 -0.0965  0.1336  0.4799
 6021TIP3    H118069   0.763   3.784   3.373 -0.2071 -1.7151  1.8293
 6021TIP3    H218070   0.631   3.739   3.313 -0.3016  1.8519 -0.9916
 6022TIP3   OH218071   6.060   0.930   1.695  0.5227  0.3076 -0.1539
 6022TIP3    H118072   6.080   0.857   1.637  0.5511  0.9704 -1.0007
 6022TIP3    H218073   5.976   0.962   1.665 -0.1628 -0.2191  1.0993
 6023TIP3   OH218074   2.094   1.955   1.946  1.2341 -0.4404 -0.0967
 6023TIP3    H118075   2.180   1.982   1.977  2.1513 -2.7290 -0.4600
 6023TIP3    H218076   2.077   1.872   1.990 -1.0855  0.2035  0.4012
 6024TIP3   OH218077   3.375   2.375   3.536  0.6492  0.0099  0.3274
 6024TIP3    H118078   3.360   2.407   3.447  1.8220 -1.4057 -0.4155
 6024TIP3    H218079   3.451   2.425   3.566  0.7145 -0.0365  0.2417
 6025TIP3   OH218080   0.755   1.737   1.156  0.2595  0.2558 -0.4581
 6025TIP3    H118081   0.840   1.697   1.177  0.7062  1.1328 -0.5846
 6025TIP3    H218082   0.724   1.688   1.080 -0.1125 -1.1415  0.5422
 6026TIP3   OH218083   5.346   3.294   1.528  0.8247 -0.2385 -0.8737
 6026TIP3    H118084   5.415   3.350   1.565  1.8976 -1.7289 -0.5069
 6026TIP3    H218085   5.381   3.266   1.444  0.6874 -1.0120 -0.6825
 6027TIP3   OH218086   2.446   1.982   1.536 -0.1682 -0.5105  0.1873
 6027TIP3    H118087   2.371   2.042   1.526  0.6469  0.3686 -0.8751
 6027TIP3    H218088   2.448   1.932   1.455  2.0772  1.5127 -1.1586
 6028TIP3   OH218089   5.883   2.174   2.822  0.3727 -0.5946  0.3768
 6028TIP3    H118090   5.903   2.118   2.897 -0.8056  0.7443  1.7612
 6028TIP3    H218091   5.788   2.168   2.812  0.3056  0.5850  0.1236
 6029TIP3   OH218092   5.332   3.170   2.311  0.0330 -0.0310  0.3065
 6029TIP3    H118093   5.261   3.214   2.264 -0.2479 -0.0455  0.7126
 6029TIP3    H218094   5.306   3.078   2.313  0.5288 -0.1909 -0.3772
 6030TIP3   OH218095   3.223   3.560   1.247 -0.3336  0.5252 -0.3587
 6030TIP3    H118096   3.139   3.606   1.241 -0.5942  0.2276  0.7631
 6030TIP3    H218097   3.243   3.560   1.341  0.5568 -0.0607 -0.5422
 6031TIP3   OH218098   2.277   4.961   0.896 -0.3579  0.5618 -0.3057
 6031TIP3    H118099   2.215   4.943   0.825  0.3114  0.1196 -0.7886
 6031TIP3    H218100   2.363   4.941   0.859 -0.0477 -0.4264  0.8580
 6032TIP3   OH218101   2.957   0.711   2.109  0.1060 -0.0946  0.1027
 6032TIP3    H118102   3.016   0.786   2.108 -0.3698  0.2859 -0.6721
 6032TIP3    H218103   3.012   0.636   2.089  0.5793  0.0456  0.8452
 6033TIP3   OH218104   1.293   0.608   1.592  0.4102  0.1850 -0.0586
 6033TIP3    H118105   1.215   0.596   1.538  0.4427  0.2992 -0.1332
 6033TIP3    H218106   1.337   0.523   1.591  0.1934  0.0692  0.1337
 6034TIP3   OH218107   6.059   4.183   3.968  0.4847  0.3200  0.1684
 6034TIP3    H118108   6.120   4.125   4.014  1.3146  1.3931  0.4706
 6034TIP3    H218109   5.978   4.133   3.963  1.1639 -0.8562  0.4313
 6035TIP3   OH218110   5.871   2.338   3.746  0.6073  0.4881  0.3136
 6035TIP3    H118111   5.786   2.377   3.726 -0.2561 -0.6378  1.5825
 6035TIP3    H218112   5.898   2.297   3.664 -0.2090  0.6264 -0.0390
 6036TIP3   OH218113   2.479   0.116   1.044 -0.2658  0.4383 -0.1423
 6036TIP3    H118114   2.491   0.188   1.106 -0.3930  1.2485 -1.0282
 6036TIP3    H218115   2.567   0.086   1.025 -0.1149  1.1678 -0.6652
 6037TIP3   OH218116   3.211   4.494   3.353  0.1623 -0.1620 -0.4225
 6037TIP3    H118117   3.119   4.508   3.377  0.6829  1.7808  0.6505
 6037TIP3    H218118   3.244   4.434   3.419 -0.1319 -0.2303 -0.3339
 6038TIP3   OH218119   3.305   0.707   4.232 -0.4205  0.3155  0.0235
 6038TIP3    H118120   3.287   0.795   4.265 -0.0128 -0.1242  1.5223
 6038TIP3    H218121   3.227   0.656   4.258 -0.0892 -0.0402  0.3403
 6039TIP3   OH218122   6.253   0.184   4.049 -0.0055  0.5651  0.4680
 6039TIP3    H118123   6.178   0.134   4.015  1.8497 -3.0201  1.1445
 6039TIP3    H218124   6.222   0.221   4.132 -1.2651 -0.1112  0.3236
 6040TIP3   OH218125   3.604   0.298   1.284  0.1096  0.3414 -0.2364
 6040TIP3    H118126   3.533   0.323   1.225 -0.6832  0.3563  0.6786
 6040TIP3    H218127   3.684   0.318   1.237 -0.4959  0.2037 -1.3561
 6041TIP3   OH218128   4.610   2.802   2.567  0.3601  0.0039  0.4269
 6041TIP3    H118129   4.704   2.817   2.560  0.8195 -3.0010 -1.9040
 6041TIP3    H218130   4.573   2.843   2.489  0.4795 -2.7050 -1.1789
 6042TIP3   OH218131   3.837   4.844   4.297  0.1365 -0.6815  0.9878
 6042TIP3    H118132   3.931   4.853   4.314 -0.1493 -1.1556  3.1422
 6042TIP3    H218133   3.805   4.934   4.294  0.6165 -0.5184  0.3590
 6043TIP3   OH218134   5.672   1.916   0.030 -0.1358  0.0403 -0.0267
 6043TIP3    H118135   5.712   1.948   0.111 -0.6064 -3.2685  1.7094
 6043TIP3    H218136   5.746   1.892  -0.026  0.2295  3.6989 -1.3820
 6044TIP3   OH218137   1.375   4.168   0.899 -0.6955  0.3995  0.2738
 6044TIP3    H118138   1.400   4.173   0.806  1.3641 -2.2510  0.5710
 6044TIP3    H218139   1.280   4.158   0.898 -0.6861  0.1619 -1.5478
 6045TIP3   OH218140   2.575   3.231   1.479  0.0432  0.2950  0.7967
 6045TIP3    H118141   2.637   3.275   1.537  0.6234 -0.2222  0.5806
 6045TIP3    H218142   2.612   3.241   1.392 -0.4329  0.4063  0.6035
 6046TIP3   OH218143   3.175   5.526   5.029 -0.0051 -0.4495  0.0430
 6046TIP3    H118144   3.085   5.517   4.998  0.0086  1.8341 -0.8159
 6046TIP3    H218145   3.169   5.582   5.106  0.7381  0.3364 -0.4545
 6047TIP3   OH218146   3.111   4.508   4.014  0.3810  0.4262 -0.3350
 6047TIP3    H118147   3.127   4.425   4.060  0.2528  1.3799  1.5397
 6047TIP3    H218148   3.135   4.491   3.923  1.2524 -1.3900  0.2006
 6048TIP3   OH218149   1.959   1.572   1.659 -0.0119 -0.3166 -0.0540
 6048TIP3    H118150   1.976   1.479   1.645  0.0980 -0.2235 -0.5502
 6048TIP3    H218151   2.044   1.614   1.651  0.3019 -0.4076  2.2962
 6049TIP3   OH218152   4.814   0.288   3.324  0.2016  0.3434  0.0592
 6049TIP3    H118153   4.730   0.300   3.281  0.6723  1.2939 -0.6224
 6049TIP3    H218154   4.815   0.354   3.394 -0.3988 -0.9345  1.3234
 6050TIP3   OH218155   5.700   2.646   4.077  0.3015  0.2846 -0.1750
 6050TIP3    H118156   5.728   2.709   4.143  0.2538  1.0212 -0.8368
 6050TIP3    H218157   5.768   2.579   4.076  2.5062  2.3591 -2.2153
 6051TIP3   OH218158   6.326   4.620   4.630  0.6772 -0.1569 -1.0231
 6051TIP3    H118159   6.299   4.591   4.543  0.6797  0.0342 -1.0883
 6051TIP3    H218160   6.391   4.688   4.614  0.3114  0.2319 -0.8773
 6052TIP3   OH218161   1.916   2.294   3.898 -0.4119 -0.1632 -0.2741
 6052TIP3    H118162   1.838   2.250   3.931  0.1520 -1.2370 -0.3472
 6052TIP3    H218163   1.883   2.354   3.831 -1.4624  1.3066  1.4677
 6053TIP3   OH218164   1.776   1.113   0.135  0.5041  0.1735 -0.1267
 6053TIP3    H118165   1.748   1.172   0.065 -0.2836 -0.7848 -0.6351
 6053TIP3    H218166   1.872   1.117   0.133  0.4651  0.9827 -0.5330
 6054TIP3   OH218167   5.538   5.419   1.366 -0.2680  0.2810 -0.7541
 6054TIP3    H118168   5.585   5.346   1.326 -0.3332  0.7960 -1.8128
 6054TIP3    H218169   5.604   5.489   1.372  0.2021 -0.2873  1.6130
 6055TIP3   OH218170   4.948   4.168   0.440  0.1706 -0.3544  0.1683
 6055TIP3    H118171   4.920   4.245   0.488  0.7443  0.0690 -0.1620
 6055TIP3    H218172   4.938   4.192   0.347  1.0463 -0.4016  0.0521
 6056TIP3   OH218173   5.563   3.876   2.122  0.0737 -0.3440  0.1120
 6056TIP3    H118174   5.555   3.942   2.054  0.4511 -0.7188 -0.3078
 6056TIP3    H218175   5.530   3.795   2.082 -1.2833 -0.2274  0.9296
 6057TIP3   OH218176   0.811   5.060   2.554  0.1570 -0.2232 -0.0468
 6057TIP3    H118177   0.888   5.033   2.505 -0.5306 -0.9617 -0.7537
 6057TIP3    H218178   0.737   5.018   2.509 -0.5115 -0.9780  1.6300
 6058TIP3   OH218179   2.412   5.169   3.791  0.1466  0.1905  0.3440
 6058TIP3    H118180   2.332   5.148   3.840 -0.4538  0.9912 -0.2682
 6058TIP3    H218181   2.386   5.238   3.730  0.3778 -2.0235 -2.4613
 6059TIP3   OH218182   3.333   5.584   3.341 -0.0567  0.1169  0.0874
 6059TIP3    H118183   3.383   5.616   3.417 -0.3227  0.2846  0.1938
 6059TIP3    H218184   3.398   5.576   3.271 -0.3517  3.3523 -0.7187
 6060TIP3   OH218185   5.567   2.699   4.423  0.3475  0.0349  0.0465
 6060TIP3    H118186   5.515   2.763   4.473  1.5029 -0.2002  1.6190
 6060TIP3    H218187   5.604   2.750   4.351 -2.0493  0.1949 -1.1738
 6061TIP3   OH218188   5.589   3.521   4.896 -0.1625 -0.4245 -1.1380
 6061TIP3    H118189   5.555   3.438   4.862 -0.4053 -0.7100 -0.2163
 6061TIP3    H218190   5.654   3.495   4.962 -1.5527  0.0818  0.4911
 6062TIP3   OH218191   2.056   4.217   2.108  0.5187 -0.2760  0.5845
 6062TIP3    H118192   1.970   4.186   2.079  0.1583 -0.1614  1.4698
 6062TIP3    H218193   2.093   4.143   2.156 -0.1701  0.4699  2.3547
 6063TIP3   OH218194   1.380   0.481   2.055 -0.3298  0.2322 -0.3306
 6063TIP3    H118195   1.414   0.565   2.087  0.3671 -0.6237  1.2601
 6063TIP3    H218196   1.431   0.463   1.976  1.5527 -0.0312  0.8786
 6064TIP3   OH218197   1.352   5.653   1.028  0.7356 -0.0791  0.4535
 6064TIP3    H118198   1.420   5.605   0.980  1.2278 -1.1567  2.1379
 6064TIP3    H218199   1.277   5.594   1.029 -0.0646  0.8453 -0.8354
 6065TIP3   OH218200   0.415   4.758   2.070 -0.4440  0.2301  0.1172
 6065TIP3    H118201   0.323   4.775   2.050 -0.6665  0.7980  1.5434
 6065TIP3    H218202   0.413   4.687   2.135  0.0870  0.7088  0.6690
 6066TIP3   OH218203   3.424   4.690   0.171  0.6098  0.1187  0.7018
 6066TIP3    H118204   3.482   4.725   0.239 -0.0539  0.1390  1.2737
 6066TIP3    H218205   3.483   4.653   0.105  1.2613 -0.3129  1.5106
 6067TIP3   OH218206   1.411   0.460   2.995 -0.2491 -0.1734 -0.8920
 6067TIP3    H118207   1.386   0.407   2.919  1.2822 -1.8602 -0.2742
 6067TIP3    H218208   1.447   0.398   3.057  0.2630  1.4280  0.4820
 6068TIP3   OH218209   6.188   3.030   1.448  0.1449  0.5235  0.0360
 6068TIP3    H118210   6.235   2.964   1.397 -1.8994 -1.1684  0.2266
 6068TIP3    H218211   6.185   3.107   1.390  1.3627 -0.0015 -0.7549
 6069TIP3   OH218212   4.021   1.517   0.338 -0.3946 -0.8168  0.2750
 6069TIP3    H118213   3.933   1.522   0.374 -1.0851  1.0867 -1.4733
 6069TIP3    H218214   4.027   1.428   0.303 -1.9509 -0.7440 -0.2813
 6070TIP3   OH218215   3.530   4.946   4.558  0.1309 -0.3437 -0.5832
 6070TIP3    H118216   3.434   4.940   4.556  0.1442 -0.7625 -0.2616
 6070TIP3    H218217   3.549   4.980   4.646  0.3207 -1.4783 -0.1609
 6071TIP3   OH218218   5.933   5.657   3.861  0.5133 -0.1911  1.0764
 6071TIP3    H118219   5.967   5.570   3.844  0.6881 -0.4246  2.5537
 6071TIP3    H218220   5.861   5.644   3.923  0.3063  0.6781  1.0392
 6072TIP3   OH218221   4.823   4.096   4.602  0.3510 -0.1050  0.1864
 6072TIP3    H118222   4.907   4.130   4.571 -0.5293  0.7024 -1.4203
 6072TIP3    H218223   4.773   4.174   4.626 -0.8585 -0.3482 -1.3725
 6073TIP3   OH218224   4.454   1.484   0.877 -0.1368  0.1840 -0.2461
 6073TIP3    H118225   4.540   1.527   0.879  0.8324 -1.7015  0.9110
 6073TIP3    H218226   4.400   1.536   0.937  1.0592 -0.2722  1.2761
 6074TIP3   OH218227   4.603   0.983   3.411 -0.4415 -0.3168  0.1526
 6074TIP3    H118228   4.689   0.977   3.453 -0.8083  0.3821  1.0525
 6074TIP3    H218229   4.615   0.943   3.325  0.8217 -0.0778  0.1967
 6075TIP3   OH218230   6.164   2.036   4.572  0.2211  0.3232  0.4411
 6075TIP3    H118231   6.143   2.035   4.666 -3.0240  0.3318 -0.1879
 6075TIP3    H218232   6.156   1.944   4.545  0.9469  0.3558  0.0806
 6076TIP3   OH218233   4.901   4.078   1.050 -0.7085 -0.6741  0.1501
 6076TIP3    H118234   4.972   4.028   1.090  0.4074  0.9938  0.3544
 6076TIP3    H218235   4.862   4.127   1.123  0.4327  1.3032 -0.4801
 6077TIP3   OH218236   4.732   0.088   0.087  0.1254 -0.0989 -0.6414
 6077TIP3    H118237   4.800   0.074   0.022 -0.3932 -3.2824 -0.6501
 6077TIP3    H218238   4.658   0.035   0.056 -1.4561  1.2321  0.6738
 6078TIP3   OH218239   1.379   1.394   2.369  0.3937 -0.5236 -0.1180
 6078TIP3    H118240   1.430   1.463   2.412 -0.1555  0.3081 -0.7548
 6078TIP3    H218241   1.328   1.354   2.439  1.7627 -1.2624  0.5068
 6079TIP3   OH218242   2.167   4.135   3.742  0.8889  0.2650  0.3026
 6079TIP3    H118243   2.188   4.188   3.820  1.4128 -1.4883  1.4155
 6079TIP3    H218244   2.072   4.123   3.746  1.0219 -0.6551  1.2904
 6080TIP3   OH218245   0.757   5.766   1.862 -0.6828 -0.0396  0.1627
 6080TIP3    H118246   0.689   5.702   1.886 -1.4805  0.1317 -1.4809
 6080TIP3    H218247   0.711   5.830   1.808  0.4495  1.0438  0.4464
 6081TIP3   OH218248   2.298   4.954   3.589  0.3040  0.9305 -0.1105
 6081TIP3    H118249   2.267   4.976   3.502  2.0592 -0.1218 -1.0826
 6081TIP3    H218250   2.386   4.993   3.594 -0.2725  2.1214  1.7311
 6082TIP3   OH218251   2.911   5.855   4.720 -0.4489 -0.0600 -0.0295
 6082TIP3    H118252   2.841   5.849   4.656 -0.8474  1.5675  0.2131
 6082TIP3    H218253   2.894   5.784   4.782 -1.1228 -0.4748 -0.6790
 6083TIP3   OH218254   5.664   2.554   0.605  0.7240 -0.0266  0.3793
 6083TIP3    H118255   5.697   2.577   0.692  2.1050  0.9994 -0.3688
 6083TIP3    H218256   5.572   2.531   0.619  0.4409  1.7929  1.8534
 6084TIP3   OH218257   1.542   5.822   1.681  0.4986 -0.0464 -0.3011
 6084TIP3    H118258   1.496   5.809   1.763 -2.5042  0.1446 -1.7991
 6084TIP3    H218259   1.591   5.741   1.666 -0.8713 -1.0542  0.5331
 6085TIP3   OH218260   5.103   0.164   1.813 -0.0470 -0.5744  0.2168
 6085TIP3    H118261   5.155   0.084   1.806 -0.7305 -1.2165  1.8340
 6085TIP3    H218262   5.057   0.155   1.897 -0.9213  1.0572 -0.0442
 6086TIP3   OH218263   1.951   5.894   3.759 -0.6310  0.3910 -0.1199
 6086TIP3    H118264   1.883   5.833   3.730 -0.1914 -0.4513  0.5802
 6086TIP3    H218265   2.001   5.913   3.680 -3.0321  2.9214 -1.2366
 6087TIP3   OH218266   2.518   2.499   3.936 -0.2915  0.1684 -0.4232
 6087TIP3    H118267   2.479   2.412   3.931 -0.6329  0.3526 -1.0680
 6087TIP3    H218268   2.467   2.545   4.003 -0.3417 -0.0040 -0.3428
 6088TIP3   OH218269   4.278   4.281   3.535  0.0727  0.6832 -0.0303
 6088TIP3    H118270   4.211   4.349   3.538  0.8561  1.4631  0.3885
 6088TIP3    H218271   4.241   4.213   3.480 -1.0122  1.1478  0.1038
 6089TIP3   OH218272   2.308   5.772   0.511  0.0041  0.2612  0.0067
 6089TIP3    H118273   2.333   5.761   0.603 -2.3599  0.7251  0.7772
 6089TIP3    H218274   2.305   5.867   0.498 -1.4375  0.2299  0.0076
 6090TIP3   OH218275   4.499   2.075   1.964  1.0536 -0.4803 -0.1777
 6090TIP3    H118276   4.581   2.113   1.933  1.8526 -0.3594  1.9189
 6090TIP3    H218277   4.479   2.123   2.045 -1.4651 -0.0453 -0.9663
 6091TIP3   OH218278   2.101   3.470   2.128  0.1107 -0.0931 -0.4466
 6091TIP3    H118279   2.155   3.537   2.087 -0.2093  0.4658  0.0395
 6091TIP3    H218280   2.060   3.424   2.055  0.2702  0.2895 -0.7802
 6092TIP3   OH218281   4.092   0.427   3.376  0.2606  0.2675  0.3971
 6092TIP3    H118282   4.057   0.454   3.292  1.2652 -0.9986 -0.4665
 6092TIP3    H218283   4.073   0.333   3.381 -0.3084  0.4309  1.8648
 6093TIP3   OH218284   0.259   5.666   1.479 -0.5231  0.5883  0.0049
 6093TIP3    H118285   0.295   5.622   1.556 -1.4372  0.3054  0.2800
 6093TIP3    H218286   0.325   5.731   1.455  0.0709  0.2195  0.6186
 6094TIP3   OH218287   5.226   0.764   2.372  0.6393 -0.0745  0.0487
 6094TIP3    H118288   5.285   0.720   2.434  0.0517 -0.1765  0.5490
 6094TIP3    H218289   5.169   0.694   2.341 -0.4826  0.3649  1.0562
 6095TIP3   OH218290   3.635   2.006   0.219  0.5887  0.4278  0.1620
 6095TIP3    H118291   3.575   1.981   0.149  0.6812 -0.3934  0.3714
 6095TIP3    H218292   3.591   2.077   0.265 -0.4945 -0.5694  0.6905
 6096TIP3   OH218293   2.489   0.768   4.227  0.0621 -0.4661 -0.2612
 6096TIP3    H118294   2.545   0.750   4.303 -1.0847 -0.0666  0.7115
 6096TIP3    H218295   2.490   0.687   4.176  1.5236 -0.4538 -0.2755
 6097TIP3   OH218296   5.660   1.962   3.590 -0.0144  0.6242  0.5719
 6097TIP3    H118297   5.644   1.877   3.631  0.0482  0.2686 -0.1252
 6097TIP3    H218298   5.572   1.998   3.576 -0.2372 -0.6526 -1.8408
 6098TIP3   OH218299   2.062   0.526   3.077  0.1771 -0.2337  0.5142
 6098TIP3    H118300   2.067   0.622   3.078 -1.4096 -0.1326  0.8077
 6098TIP3    H218301   2.072   0.501   3.169  1.2355 -0.4147  0.3668
 6099TIP3   OH218302   1.108   3.457   3.707  0.3231 -0.1548 -0.1404
 6099TIP3    H118303   1.046   3.487   3.773  0.9215  0.1907  0.2721
 6099TIP3    H218304   1.125   3.366   3.729  1.2467  0.2170  0.7715
 6100TIP3   OH218305   5.726   5.202   1.208 -0.1007  0.5142 -0.1800
 6100TIP3    H118306   5.648   5.167   1.164 -1.1189  1.0767  1.0775
 6100TIP3    H218307   5.794   5.204   1.141 -1.2799  0.3342 -1.4170
 6101TIP3   OH218308   2.679   1.363   3.795  0.3852  0.4047 -0.0041
 6101TIP3    H118309   2.705   1.359   3.703 -0.9340 -0.3066 -0.3768
 6101TIP3    H218310   2.663   1.456   3.812  2.2743  0.7766  0.0301
 6102TIP3   OH218311   6.195   1.102   4.288 -0.5988  0.0366  0.4907
 6102TIP3    H118312   6.277   1.102   4.339 -0.8780 -1.1965  0.9538
 6102TIP3    H218313   6.126   1.094   4.353 -1.0178 -0.5111 -0.0162
 6103TIP3   OH218314   3.049   0.016   0.669  0.4084 -0.0348  0.2199
 6103TIP3    H118315   2.974   0.072   0.688  0.5014  0.0008  0.4890
 6103TIP3    H218316   3.047  -0.050   0.738 -0.4510 -1.1423 -0.8162
 6104TIP3   OH218317   3.311   1.882   3.775 -0.2655  0.2583 -0.1597
 6104TIP3    H118318   3.273   1.961   3.734  0.1802  0.3120 -0.4817
 6104TIP3    H218319   3.402   1.906   3.792  1.1678 -1.4901 -4.0751
 6105TIP3   OH218320   0.357   3.403   2.551  0.0519  0.0488  0.6028
 6105TIP3    H118321   0.359   3.372   2.461 -2.5906 -0.1645  0.5428
 6105TIP3    H218322   0.408   3.484   2.550 -0.8414  0.6325 -1.3434
 6106TIP3   OH218323   5.045   2.074   1.065  0.1088  0.2361 -0.2756
 6106TIP3    H118324   5.105   2.009   1.030  0.4329  0.9838 -1.1495
 6106TIP3    H218325   4.993   2.103   0.990  0.1412  1.1569  0.0329
 6107TIP3   OH218326   4.857   2.374   0.796 -0.2125  0.1637  0.4173
 6107TIP3    H118327   4.901   2.426   0.864 -2.3770  0.3292  1.7665
 6107TIP3    H218328   4.879   2.283   0.817  0.1152  0.2823  0.5905
 6108TIP3   OH218329   2.851   1.881   0.609 -0.0382  0.4615 -0.4657
 6108TIP3    H118330   2.793   1.894   0.684 -0.4507 -0.0845 -0.6773
 6108TIP3    H218331   2.879   1.969   0.585  1.1560  0.5575  1.1207
 6109TIP3   OH218332   4.353   5.170   3.709  0.7541 -0.4661 -0.0317
 6109TIP3    H118333   4.311   5.226   3.774  1.8308  0.2846  0.0441
 6109TIP3    H218334   4.447   5.187   3.720  1.2893 -3.5249  1.1589
 6110TIP3   OH218335   5.228   3.376   4.279 -0.4001  0.4674 -0.3913
 6110TIP3    H118336   5.169   3.369   4.204 -1.3609  0.4349  0.3515
 6110TIP3    H218337   5.203   3.303   4.336 -0.0677  0.8195  0.2196
 6111TIP3   OH218338   6.007   2.399   1.623 -0.3533  0.0584 -0.1663
 6111TIP3    H118339   5.991   2.305   1.625 -0.2461  0.0116 -1.1256
 6111TIP3    H218340   6.043   2.416   1.536 -0.9811  1.0810 -0.2474
 6112TIP3   OH218341   3.855   3.296   4.965 -0.1761 -0.3327  0.0739
 6112TIP3    H118342   3.811   3.229   5.018  0.0087 -0.1642  0.4434
 6112TIP3    H218343   3.785   3.354   4.936 -0.1130  0.4222  1.3577
 6113TIP3   OH218344   0.791   4.526   3.037  0.2070  0.2562  0.0216
 6113TIP3    H118345   0.858   4.595   3.037 -0.2740  0.7294 -0.1165
 6113TIP3    H218346   0.738   4.544   3.114  0.4752 -0.3554  0.3526
 6114TIP3   OH218347   5.481   4.478   1.758  0.2822  0.3307 -0.2764
 6114TIP3    H118348   5.470   4.423   1.680  0.7317 -0.1843  0.0142
 6114TIP3    H218349   5.395   4.518   1.771  0.9364  2.8029 -2.7595
 6115TIP3   OH218350   6.190   0.207   0.518 -0.3624 -0.0733 -0.6261
 6115TIP3    H118351   6.113   0.244   0.559 -1.1153  0.9241 -2.7997
 6115TIP3    H218352   6.218   0.137   0.578 -1.1004  1.5170  1.7224
 6116TIP3   OH218353   4.400   5.661   4.860  0.0007  0.5624  0.6804
 6116TIP3    H118354   4.459   5.734   4.840 -0.4359  0.7139 -0.1018
 6116TIP3    H218355   4.325   5.702   4.904  0.3483  0.4081  1.4194
 6117TIP3   OH218356   6.123   5.205   1.309 -0.4734 -0.2355 -0.4370
 6117TIP3    H118357   6.058   5.221   1.378 -0.9268 -1.4728 -0.5394
 6117TIP3    H218358   6.190   5.272   1.323 -0.0261 -1.0469  1.8757
 6118TIP3   OH218359   2.795   5.050   1.434 -0.0664 -0.2836 -0.1559
 6118TIP3    H118360   2.830   5.137   1.451  0.4715 -0.3229 -0.9714
 6118TIP3    H218361   2.729   5.036   1.502 -1.4042  1.4669 -1.0252
 6119TIP3   OH218362   6.102   1.579   1.218  0.0242 -0.1657 -0.2457
 6119TIP3    H118363   6.179   1.622   1.255  0.4818 -0.4544 -0.8416
 6119TIP3    H218364   6.048   1.651   1.183 -0.0646  0.0491  0.3245
 6120TIP3   OH218365   0.622   3.712   3.007 -0.3107  0.3545  0.1681
 6120TIP3    H118366   0.675   3.670   3.075  1.1014  0.4570 -0.8231
 6120TIP3    H218367   0.534   3.677   3.021  0.1566 -0.4358  1.3780
 6121TIP3   OH218368   3.038   5.761   2.331 -0.6163  0.9974 -0.2592
 6121TIP3    H118369   2.973   5.695   2.308 -0.8185  1.3170 -0.6228
 6121TIP3    H218370   3.118   5.712   2.350 -1.3049  0.4867  1.5014
 6122TIP3   OH218371   1.435   0.878   4.107  0.1374  0.2608 -0.0686
 6122TIP3    H118372   1.499   0.933   4.152  0.3414 -0.3350  0.3710
 6122TIP3    H218373   1.482   0.797   4.087  0.7059  1.2248 -3.1679
 6123TIP3   OH218374   4.159   2.834   2.889  0.1155  0.2638 -0.3609
 6123TIP3    H118375   4.131   2.860   2.977  1.6583 -0.9514  0.5577
 6123TIP3    H218376   4.251   2.861   2.885  0.4850 -1.0125 -1.0229
 6124TIP3   OH218377   5.276   1.703   4.429  0.4716  0.4914  0.0173
 6124TIP3    H118378   5.232   1.644   4.367  1.0021 -0.3737  0.4562
 6124TIP3    H218379   5.263   1.790   4.391 -0.9257  0.1860 -0.2870
 6125TIP3   OH218380   1.876   4.571   1.602  0.3345  0.0007 -0.2178
 6125TIP3    H118381   1.948   4.585   1.541  1.4700  0.3357  1.1502
 6125TIP3    H218382   1.799   4.608   1.558  1.1745  0.4608 -1.3293
 6126TIP3   OH218383   2.986   1.846   4.311 -0.0546  0.4810 -0.7031
 6126TIP3    H118384   3.041   1.780   4.353 -2.3671 -0.4461  1.1153
 6126TIP3    H218385   3.023   1.930   4.339  0.7935 -0.0964 -0.0682
 6127TIP3   OH218386   4.995   2.380   3.741  0.1539  0.2527  0.2224
 6127TIP3    H118387   5.003   2.354   3.649 -0.7226 -0.1049  0.2442
 6127TIP3    H218388   4.952   2.306   3.784 -2.0886  1.5358  0.3411
 6128TIP3   OH218389   2.439   1.944   2.980 -0.0182 -0.0256  0.6608
 6128TIP3    H118390   2.492   2.024   2.983 -0.7550  0.4430  1.9626
 6128TIP3    H218391   2.360   1.970   2.932  0.0528 -0.1620  0.4719
 6129TIP3   OH218392   6.003   5.745   0.462 -0.1079 -0.1463 -0.0915
 6129TIP3    H118393   6.017   5.696   0.544  1.2362  1.2836  0.5919
 6129TIP3    H218394   5.931   5.700   0.419  1.2834 -2.9416  0.3109
 6130TIP3   OH218395   1.941   4.972   3.900  0.2778 -0.0141 -0.3113
 6130TIP3    H118396   1.960   5.053   3.851  0.5493  0.0709 -0.0646
 6130TIP3    H218397   1.850   4.952   3.877  1.0553 -1.2694 -2.7003
 6131TIP3   OH218398   5.518   2.526   2.943 -0.1300 -0.3264 -0.2926
 6131TIP3    H118399   5.594   2.486   2.899 -1.0386 -0.6305 -1.6295
 6131TIP3    H218400   5.529   2.502   3.035  1.2791 -0.5518 -0.4979
 6132TIP3   OH218401   1.133   1.406   3.191  0.3905  0.2332 -0.5496
 6132TIP3    H118402   1.194   1.375   3.124 -0.6212 -0.4174 -1.1955
 6132TIP3    H218403   1.058   1.346   3.185  0.6879 -0.4956  1.8523
 6133TIP3   OH218404   2.233   0.953   3.816 -0.4712 -0.1779  0.4641
 6133TIP3    H118405   2.203   1.017   3.881 -0.8301 -0.3501  0.4722
 6133TIP3    H218406   2.280   1.005   3.751 -0.7152  0.0896  0.4985
 6134TIP3   OH218407   3.652   2.984   4.361 -0.2026 -0.5793 -0.5294
 6134TIP3    H118408   3.740   3.021   4.366  0.7655 -2.6753 -0.6522
 6134TIP3    H218409   3.601   3.047   4.310  1.0856  0.9068 -0.0341
 6135TIP3   OH218410   1.813   0.620   4.054 -0.9731 -0.3050  0.1786
 6135TIP3    H118411   1.867   0.585   3.984 -0.2302 -0.3076  0.7364
 6135TIP3    H218412   1.783   0.543   4.103 -1.3672 -0.2957 -0.0461
 6136TIP3   OH218413   1.024   2.285   0.403 -0.7560  0.7087  0.0256
 6136TIP3    H118414   1.047   2.198   0.370 -2.1681 -0.8342  2.7179
 6136TIP3    H218415   0.952   2.314   0.347 -1.1002 -0.4500 -0.1580
 6137TIP3   OH218416   6.009   4.212   0.500  0.5645  0.0374  0.2988
 6137TIP3    H118417   5.978   4.303   0.495 -0.4979 -0.1265  2.8286
 6137TIP3    H218418   6.071   4.212   0.572 -0.3586 -1.4709  1.1246
 6138TIP3   OH218419   2.184   2.108   1.711 -0.3634  0.4031 -0.1126
 6138TIP3    H118420   2.145   2.078   1.629  0.4818 -0.7900 -0.1171
 6138TIP3    H218421   2.156   2.042   1.776  1.1046 -0.1557 -0.0038
 6139TIP3   OH218422   0.426   3.959   1.606 -0.1154  0.1078 -0.1264
 6139TIP3    H118423   0.444   3.920   1.691 -0.1840  1.5817  0.5888
 6139TIP3    H218424   0.330   3.961   1.601 -0.1199 -0.7310 -0.6184
 6140TIP3   OH218425   3.586   2.246   3.302 -0.7488 -0.2420 -0.3548
 6140TIP3    H118426   3.627   2.329   3.324  1.1610 -1.1297 -0.3677
 6140TIP3    H218427   3.617   2.185   3.369 -2.0325 -0.9879 -0.3958
 6141TIP3   OH218428   5.293   2.735   3.219 -0.1483 -0.9186 -0.0607
 6141TIP3    H118429   5.342   2.653   3.211  1.4245  0.0146 -0.3148
 6141TIP3    H218430   5.345   2.788   3.279 -2.3119 -0.9119  1.9437
 6142TIP3   OH218431   2.680   3.387   3.980 -0.3876  0.3958  0.1485
 6142TIP3    H118432   2.726   3.416   3.901  1.2472  0.1158  0.9494
 6142TIP3    H218433   2.681   3.291   3.975  1.6735  0.2866  1.5041
 6143TIP3   OH218434   3.325   4.349   3.570  0.4711 -0.4049 -0.1953
 6143TIP3    H118435   3.408   4.301   3.568 -0.7465 -2.8463  1.7133
 6143TIP3    H218436   3.332   4.407   3.646  0.1772 -1.2082  0.4612
 6144TIP3   OH218437   5.950   5.845   1.217  0.4244  0.1790 -0.7900
 6144TIP3    H118438   5.867   5.832   1.171 -1.3908 -0.4416  2.3539
 6144TIP3    H218439   5.990   5.758   1.218 -0.0804 -0.0604 -0.3148
 6145TIP3   OH218440   3.749   3.592   1.598  0.2288  0.3414  0.0736
 6145TIP3    H118441   3.735   3.524   1.531 -0.3820 -0.0369  0.5691
 6145TIP3    H218442   3.839   3.621   1.584  0.4666 -0.4918 -0.2220
 6146TIP3   OH218443   3.317   5.836   4.620  0.3523  0.0456 -0.0096
 6146TIP3    H118444   3.410   5.856   4.615  0.7853 -1.9734 -1.7270
 6146TIP3    H218445   3.309   5.751   4.577 -2.1754 -0.2462  0.8851
 6147TIP3   OH218446   1.292   4.592   1.161  0.4467 -0.3011 -0.1214
 6147TIP3    H118447   1.336   4.511   1.185  0.2803 -0.3982 -0.1385
 6147TIP3    H218448   1.235   4.612   1.235  0.1118 -0.4720 -0.3271
 6148TIP3   OH218449   5.954   5.544   1.524 -0.2467 -0.1159 -0.0296
 6148TIP3    H118450   6.028   5.588   1.481 -0.3797 -0.1850 -0.3341
 6148TIP3    H218451   5.974   5.451   1.516  1.0651 -0.1353  2.4063
 6149TIP3   OH218452   5.503   2.206   3.097  0.0611  0.3224  0.0954
 6149TIP3    H118453   5.496   2.157   3.179  1.9925 -0.0796  0.0782
 6149TIP3    H218454   5.559   2.281   3.119 -0.3337  0.8429 -0.6069
 6150TIP3   OH218455   0.282   5.143   1.963  0.3661 -0.1264  0.2403
 6150TIP3    H118456   0.296   5.091   2.042  1.0749  0.0146  0.2151
 6150TIP3    H218457   0.318   5.229   1.985  1.3740 -0.3376 -0.5281
 6151TIP3   OH218458   2.206   1.722   1.638  0.0982  0.1333  0.0853
 6151TIP3    H118459   2.212   1.814   1.611  0.4962 -0.2837 -1.3232
 6151TIP3    H218460   2.263   1.716   1.714  2.8058  0.3766 -1.7811
 6152TIP3   OH218461   3.457   4.475   0.630 -0.2954  0.0502  0.4300
 6152TIP3    H118462   3.479   4.557   0.674 -0.8239  0.7607 -0.5760
 6152TIP3    H218463   3.363   4.482   0.614  0.0207  0.1942 -1.5343
 6153TIP3   OH218464   0.423   3.902   3.346  0.0722 -0.1416  0.6839
 6153TIP3    H118465   0.509   3.860   3.353  0.6528  1.1272  1.7464
 6153TIP3    H218466   0.399   3.922   3.437 -1.8926 -1.4691  0.5043
 6154TIP3   OH218467   1.976   3.276   3.860  0.0303 -0.2147 -0.7551
 6154TIP3    H118468   1.892   3.321   3.867  0.7974  1.1106  0.3644
 6154TIP3    H218469   2.041   3.345   3.870  1.2591 -1.4337 -0.0334
 6155TIP3   OH218470   0.419   3.779   1.159 -0.1884  0.1293 -0.3983
 6155TIP3    H118471   0.391   3.714   1.095 -0.5671  0.0353 -0.1382
 6155TIP3    H218472   0.412   3.734   1.244 -0.8770  0.6504 -0.1764
 6156TIP3   OH218473   2.958   3.783   0.124 -0.2747  0.8114  0.6223
 6156TIP3    H118474   2.909   3.830   0.191 -2.5648 -0.0631 -0.3457
 6156TIP3    H218475   2.976   3.697   0.163  1.1349  1.3363  1.2087
 6157TIP3   OH218476   1.181   5.421   1.419  0.5653 -0.4111 -0.1074
 6157TIP3    H118477   1.164   5.484   1.489  0.4185 -0.7905  0.1977
 6157TIP3    H218478   1.147   5.338   1.452  0.6732 -0.6328 -0.5478
 6158TIP3   OH218479   1.876   2.349   4.960 -0.4484 -0.4172  0.0208
 6158TIP3    H118480   1.866   2.381   5.049 -0.4807 -1.1249  0.2789
 6158TIP3    H218481   1.900   2.257   4.970 -0.2054 -0.4427 -0.6970
 6159TIP3   OH218482   0.980   1.235   1.130  0.1565 -0.0006  0.4554
 6159TIP3    H118483   1.005   1.144   1.139 -0.6185 -0.2211  0.4133
 6159TIP3    H218484   1.007   1.259   1.041 -0.4769 -0.4598  0.1332
 6160TIP3   OH218485   0.130   0.087   3.668  0.0846 -0.6264 -0.0440
 6160TIP3    H118486   0.128  -0.009   3.673  0.5397 -0.5812  2.9040
 6160TIP3    H218487   0.219   0.107   3.639  0.4410 -1.1007  0.6904
 6161TIP3   OH218488   3.640   2.127   2.833 -0.1812  0.1931  0.1471
 6161TIP3    H118489   3.655   2.169   2.918  0.5162 -0.5678  0.4147
 6161TIP3    H218490   3.595   2.045   2.855 -1.0042  0.5013 -0.3218
 6162TIP3   OH218491   0.340   1.188   4.527  0.0358  0.0281 -0.4540
 6162TIP3    H118492   0.328   1.205   4.620  0.8905 -1.3831 -0.0497
 6162TIP3    H218493   0.391   1.107   4.524  3.9694  2.3156 -2.0520
 6163TIP3   OH218494   0.027   2.722   0.704 -0.0568 -0.1258 -0.0494
 6163TIP3    H118495   0.092   2.763   0.762  0.7684 -1.2364 -0.1607
 6163TIP3    H218496   0.030   2.775   0.624  2.2858 -1.3600 -0.8726
 6164TIP3   OH218497   2.153   1.996   4.926 -0.6030 -0.0896 -0.3393
 6164TIP3    H118498   2.191   2.083   4.932 -1.0762  0.1704 -0.9958
 6164TIP3    H218499   2.066   2.005   4.965 -0.3799 -0.4441  0.2514
 6165TIP3   OH218500   4.694   1.626   0.816 -0.2891  0.2438 -0.5430
 6165TIP3    H118501   4.665   1.715   0.835 -1.1960 -0.1010 -0.2978
 6165TIP3    H218502   4.789   1.635   0.801 -0.2520  1.1440  0.1342
 6166TIP3   OH218503   0.570   5.045   4.732 -0.2212  0.2125 -0.6555
 6166TIP3    H118504   0.503   5.114   4.736 -0.5975 -0.1137 -1.2300
 6166TIP3    H218505   0.523   4.967   4.703  0.2821 -0.1900 -0.4002
 6167TIP3   OH218506   0.939   2.495   1.697 -0.4288 -0.3670  0.8743
 6167TIP3    H118507   0.929   2.590   1.699  2.7178  0.1149 -0.4355
 6167TIP3    H218508   1.034   2.481   1.695 -0.7923 -3.4690 -0.6232
 6168TIP3   OH218509   5.729   5.659   1.898 -0.4800  0.1917  0.2508
 6168TIP3    H118510   5.756   5.669   1.990 -0.5724 -0.3783  0.3432
 6168TIP3    H218511   5.805   5.687   1.848 -1.0173  2.1790  0.4798
 6169TIP3   OH218512   4.216   0.750   0.997  0.3201  0.0850 -0.4202
 6169TIP3    H118513   4.306   0.779   0.983  0.5470 -0.0453  0.6233
 6169TIP3    H218514   4.217   0.713   1.086 -0.7081 -0.1225 -0.4833
 6170TIP3   OH218515   1.405   2.465   3.956 -0.3423  0.2606 -0.1075
 6170TIP3    H118516   1.361   2.430   4.033 -1.3829  1.3025 -0.1924
 6170TIP3    H218517   1.485   2.505   3.990 -1.3110  1.6628  0.6399
 6171TIP3   OH218518   2.348   0.469   4.448  0.0443  0.1631 -0.7854
 6171TIP3    H118519   2.308   0.544   4.493  2.2755  0.8096  0.2325
 6171TIP3    H218520   2.274   0.423   4.409 -1.7605  1.0034  1.4072
 6172TIP3   OH218521   4.551   2.389   2.932 -0.1978 -0.6297  0.2692
 6172TIP3    H118522   4.581   2.464   2.881  0.4453 -1.4826 -0.6430
 6172TIP3    H218523   4.511   2.427   3.010 -0.0264  0.6582 -0.2558
 6173TIP3   OH218524   3.408   3.050   0.185 -0.1409  0.1373  0.0321
 6173TIP3    H118525   3.491   3.098   0.187  0.3349 -0.6375 -0.3896
 6173TIP3    H218526   3.341   3.117   0.197  0.4911  0.9595 -0.8222
 6174TIP3   OH218527   1.006   1.672   3.591 -0.3450  0.0411 -0.1832
 6174TIP3    H118528   0.934   1.628   3.637 -0.2506  1.1554  1.0921
 6174TIP3    H218529   1.043   1.605   3.535 -1.1823 -1.0760  0.5559
 6175TIP3   OH218530   3.529   3.901   0.259 -0.3285 -0.1621  0.4409
 6175TIP3    H118531   3.444   3.939   0.239  0.0795  0.4230 -0.2092
 6175TIP3    H218532   3.533   3.902   0.355 -0.5745  0.9008  0.4559
 6176TIP3   OH218533   4.348   4.358   2.486 -0.2739  0.7175  0.0335
 6176TIP3    H118534   4.267   4.366   2.435 -0.6750 -0.0624  0.5372
 6176TIP3    H218535   4.411   4.413   2.439 -0.7317  0.2936 -1.1026
 6177TIP3   OH218536   2.119   4.807   4.312 -1.0814 -0.1990 -0.0237
 6177TIP3    H118537   2.186   4.854   4.261 -1.7826 -0.3194 -1.0898
 6177TIP3    H218538   2.079   4.874   4.367 -0.2577 -0.0781  0.4468
 6178TIP3   OH218539   4.574   3.960   3.647 -0.2893  0.4083  0.3090
 6178TIP3    H118540   4.561   3.989   3.738 -0.5124 -1.1885  0.8150
 6178TIP3    H218541   4.489   3.928   3.619 -0.0817  0.3578 -0.2802
 6179TIP3   OH218542   1.200   0.662   0.405 -0.2496 -0.0059 -0.5493
 6179TIP3    H118543   1.268   0.725   0.381 -0.4159  0.5914  0.5202
 6179TIP3    H218544   1.127   0.715   0.437 -1.5344 -0.5997 -2.3437
 6180TIP3   OH218545   2.752   1.995   1.635  0.3982 -0.0698 -0.0561
 6180TIP3    H118546   2.799   1.911   1.640 -1.0598 -0.8288  2.0134
 6180TIP3    H218547   2.814   2.054   1.591  1.8051 -1.9757 -0.7880
 6181TIP3   OH218548   0.716   2.357   1.851 -0.2986  0.2267  0.4055
 6181TIP3    H118549   0.627   2.385   1.833 -0.4207 -0.1399  0.4349
 6181TIP3    H218550   0.771   2.424   1.810 -0.5793  1.6468  2.2623
 6182TIP3   OH218551   3.474   2.034   0.837  0.2809 -0.6267  0.0311
 6182TIP3    H118552   3.427   2.079   0.767  0.5942  0.3084  0.4076
 6182TIP3    H218553   3.521   1.963   0.792  0.7207  0.1469 -0.7631
 6183TIP3   OH218554   3.092   1.413   4.132  0.1147 -0.0278  0.3176
 6183TIP3    H118555   3.012   1.376   4.169  1.0207 -1.0401  1.3452
 6183TIP3    H218556   3.063   1.490   4.085 -1.4600 -0.3356  0.7229
 6184TIP3   OH218557   4.735   2.053   3.371 -0.2036 -0.0135 -0.3550
 6184TIP3    H118558   4.816   2.095   3.341  0.9153 -1.2824  0.7505
 6184TIP3    H218559   4.665   2.100   3.325  1.2298  0.0920 -2.5784
 6185TIP3   OH218560   6.219   5.572   0.842  0.2362  0.8018  0.7175
 6185TIP3    H118561   6.163   5.646   0.819 -0.8034  0.1717  1.1335
 6185TIP3    H218562   6.181   5.538   0.923  2.2846  1.4139  2.0080
 6186TIP3   OH218563   4.146   2.516   0.905 -0.1180  0.0062  0.0495
 6186TIP3    H118564   4.094   2.477   0.835  0.8919 -0.7016 -0.3153
 6186TIP3    H218565   4.224   2.549   0.862  0.2872  0.0097  0.7690
 6187TIP3   OH218566  -0.013   0.642   0.538 -0.1437  0.2111  0.2358
 6187TIP3    H118567   0.040   0.679   0.468 -1.8381 -0.2729 -1.3870
 6187TIP3    H218568  -0.008   0.547   0.525 -0.8637  0.1356  0.4443
 6188TIP3   OH218569   0.514   0.718   1.780 -0.1333 -0.2464 -0.4215
 6188TIP3    H118570   0.501   0.629   1.814  0.4455  0.0721  0.6779
 6188TIP3    H218571   0.608   0.725   1.766  0.2999  1.1456  2.3889
 6189TIP3   OH218572   4.612   0.519   0.921  0.2665  0.4373 -0.5613
 6189TIP3    H118573   4.613   0.486   0.831  2.5802  1.7637 -1.0951
 6189TIP3    H218574   4.570   0.604   0.915 -0.4758  0.1020 -0.1970
 6190TIP3   OH218575   0.795   1.220   0.520 -0.4600  0.4226  0.4625
 6190TIP3    H118576   0.735   1.230   0.593 -0.5380  0.1042  0.4449
 6190TIP3    H218577   0.742   1.180   0.451 -0.2690  0.2873  0.3930
 6191TIP3   OH218578   5.570   3.632   4.054 -0.4965  0.1240 -0.3788
 6191TIP3    H118579   5.599   3.556   4.004 -1.8125 -0.8839  0.3540
 6191TIP3    H218580   5.523   3.687   3.990 -2.6856 -1.4350 -0.2096
 6192TIP3   OH218581   3.185   5.921   4.846 -0.3292  0.2332  0.5665
 6192TIP3    H118582   3.236   5.914   4.765  0.0377 -0.5667  0.8588
 6192TIP3    H218583   3.095   5.901   4.820 -0.0056 -1.3405  0.5830
 6193TIP3   OH218584   0.999   3.253   4.351 -0.4771  0.1135 -0.1700
 6193TIP3    H118585   0.942   3.317   4.307 -0.5313  0.6634  0.6862
 6193TIP3    H218586   1.064   3.305   4.397  0.6705 -0.5109 -1.0304
 6194TIP3   OH218587   6.298   1.433   2.371  0.2286  0.1680 -0.4119
 6194TIP3    H118588   6.249   1.431   2.453  0.9251 -0.0079  0.0021
 6194TIP3    H218589   6.320   1.342   2.354 -2.2222 -0.1910 -2.2220
 6195TIP3   OH218590   0.530   1.601   4.991 -0.5573  0.5637  0.6269
 6195TIP3    H118591   0.619   1.632   4.973  0.0149 -1.8635 -1.3183
 6195TIP3    H218592   0.538   1.553   5.073  0.7996 -2.3124 -1.0254
 6196TIP3   OH218593   2.872   0.980   2.267  0.3267 -0.1704  0.3310
 6196TIP3    H118594   2.938   0.976   2.198  1.7977  2.5009  1.4413
 6196TIP3    H218595   2.905   0.921   2.336  0.5485 -0.3040  0.1095
 6197TIP3   OH218596   2.129   4.143   1.196 -0.4425  0.2209 -0.2675
 6197TIP3    H118597   2.049   4.152   1.143 -0.8029 -2.1540 -0.2218
 6197TIP3    H218598   2.097   4.136   1.286 -0.1558 -0.2361 -0.2003
 6198TIP3   OH218599   2.420   3.023   4.227  0.3055  0.0615  0.0290
 6198TIP3    H118600   2.347   3.019   4.289  0.9414 -0.2107  0.7763
 6198TIP3    H218601   2.383   3.066   4.149 -1.2662 -2.1040 -0.4957
 6199TIP3   OH218602   2.718   0.638   5.171 -0.2018 -0.1527 -0.0926
 6199TIP3    H118603   2.706   0.713   5.113  1.3398  0.2394  0.0280
 6199TIP3    H218604   2.640   0.637   5.226 -0.9858  0.3837 -1.1542
 6200TIP3   OH218605   3.686   3.398   2.237 -0.3314 -0.0926 -0.7172
 6200TIP3    H118606   3.594   3.425   2.238 -0.2296  0.3101  1.0181
 6200TIP3    H218607   3.732   3.467   2.284  0.3716 -1.7429  1.1816
 6201TIP3   OH218608   4.343   1.228   0.782 -0.1244 -0.2528  0.3215
 6201TIP3    H118609   4.297   1.294   0.730 -0.4166 -1.1749 -0.6331
 6201TIP3    H218610   4.372   1.274   0.860 -1.5115  0.6749  0.3143
 6202TIP3   OH218611   5.780   3.274   0.815 -0.0613 -0.0053  0.5292
 6202TIP3    H118612   5.784   3.340   0.745 -0.3526 -0.9012 -0.3553
 6202TIP3    H218613   5.810   3.321   0.893 -1.8621  1.6541  0.3097
 6203TIP3   OH218614  -0.026   5.441   1.302 -0.1912  0.6785 -0.3764
 6203TIP3    H118615  -0.016   5.490   1.383 -1.7238  1.1075 -0.4084
 6203TIP3    H218616   0.053   5.461   1.252  0.4927  0.8848  0.7585
 6204TIP3   OH218617   1.155   3.534   0.057 -0.4696 -0.0902  0.4289
 6204TIP3    H118618   1.245   3.547   0.090 -0.0631 -0.6194 -0.4367
 6204TIP3    H218619   1.162   3.460  -0.003 -0.8114  1.8891 -2.2207
 6205TIP3   OH218620   0.900   3.003   4.340  0.0177  0.0348 -0.8016
 6205TIP3    H118621   0.974   2.989   4.282  1.1712  1.0111  0.3744
 6205TIP3    H218622   0.905   3.095   4.364 -1.2638 -0.0089 -0.2848
 6206TIP3   OH218623   1.506   1.815   1.025  0.3854 -0.0133  0.0877
 6206TIP3    H118624   1.451   1.744   0.991  0.3792  0.2544 -0.4772
 6206TIP3    H218625   1.498   1.808   1.120 -0.1258 -0.3682  0.0256
 6207TIP3   OH218626   4.351   3.527   3.942 -0.2512 -0.2394  0.2342
 6207TIP3    H118627   4.288   3.590   3.975  0.1362 -0.4253  1.3650
 6207TIP3    H218628   4.407   3.506   4.017  1.2168 -0.0154 -0.7487
 6208TIP3   OH218629   2.674   3.851   1.873  0.4711 -0.3004  0.1660
 6208TIP3    H118630   2.580   3.844   1.888 -0.1057  1.1933 -2.2404
 6208TIP3    H218631   2.703   3.920   1.933 -0.0751 -0.2760  0.4104
 6209TIP3   OH218632   4.482   4.173   2.162 -0.0815 -0.0804 -0.0315
 6209TIP3    H118633   4.538   4.168   2.085 -0.0028  1.0312 -0.0605
 6209TIP3    H218634   4.513   4.103   2.219  1.0066  0.2118 -0.2540
 6210TIP3   OH218635   0.668   2.995   1.851  0.0147 -0.1384 -0.0493
 6210TIP3    H118636   0.724   2.991   1.929 -1.2897 -1.2234  0.8847
 6210TIP3    H218637   0.580   2.975   1.884 -0.4094 -1.6941 -1.9295
 6211TIP3   OH218638   4.008   2.078   4.137 -0.3442 -0.0848 -0.1866
 6211TIP3    H118639   4.100   2.063   4.161 -0.3075  1.1371  0.5121
 6211TIP3    H218640   3.964   2.095   4.220 -1.4505 -1.7403 -0.3981
 6212TIP3   OH218641   3.742   1.848   3.374  0.4301  0.5015  0.2151
 6212TIP3    H118642   3.742   1.930   3.324 -0.1055  0.8552  0.7831
 6212TIP3    H218643   3.714   1.782   3.311  2.0228  0.5297 -0.5810
 6213TIP3   OH218644   4.963   1.052   0.590  0.1523 -0.1424  0.2297
 6213TIP3    H118645   4.883   1.104   0.580  1.0367  1.2881  0.2397
 6213TIP3    H218646   4.933   0.965   0.615 -1.6402 -0.7001 -3.2415
 6214TIP3   OH218647   1.856   3.078   4.887  0.0392  0.1048  0.3660
 6214TIP3    H118648   1.824   3.110   4.972  2.5302 -0.5545  1.6328
 6214TIP3    H218649   1.822   3.142   4.824 -0.9964  1.2163  1.9524
 6215TIP3   OH218650   4.718   1.905   0.926 -0.0700 -0.3876  0.1682
 6215TIP3    H118651   4.635   1.915   0.971  0.2112  0.0596  0.6042
 6215TIP3    H218652   4.779   1.872   0.992  0.5872  1.2043  0.4102
 6216TIP3   OH218653   5.066   2.831   1.911  0.1851  0.5395  0.1491
 6216TIP3    H118654   5.111   2.780   1.843 -0.7348  0.2065 -0.2271
 6216TIP3    H218655   5.064   2.773   1.987  1.2935  0.9444  0.5128
 6217TIP3   OH218656   2.463   1.133   4.499  0.4329  0.3554  0.0975
 6217TIP3    H118657   2.368   1.142   4.508  0.0855 -1.9300 -0.5917
 6217TIP3    H218658   2.494   1.112   4.587  0.4212  1.7987  0.4629
 6218TIP3   OH218659   2.447   1.338   3.985 -0.1578  0.3304  0.4616
 6218TIP3    H118660   2.527   1.324   3.934  0.4511  1.9709  0.8801
 6218TIP3    H218661   2.390   1.388   3.926 -0.0971  0.8242  0.8142
 6219TIP3   OH218662   3.928   5.412   2.220  0.5299 -0.6038  0.3044
 6219TIP3    H118663   3.978   5.403   2.301 -0.4802 -1.8690  0.8268
 6219TIP3    H218664   3.964   5.346   2.162 -1.1102 -2.2273  1.0333
 6220TIP3   OH218665   3.956   5.789   3.691 -0.3294 -0.1706 -0.2816
 6220TIP3    H118666   3.985   5.877   3.667 -1.4134  0.0059 -1.0351
 6220TIP3    H218667   4.035   5.744   3.720  0.6955  0.2973 -2.2063
 6221TIP3   OH218668   5.116   2.637   0.605  0.4703  0.4762 -0.4964
 6221TIP3    H118669   5.102   2.720   0.651  2.1255  0.5175  0.0033
 6221TIP3    H218670   5.113   2.660   0.512  0.1535  0.9471 -0.3721
 6222TIP3   OH218671   3.386   4.710   3.348  0.6490  0.2102  0.1085
 6222TIP3    H118672   3.319   4.641   3.349  0.9584 -0.0802  0.9171
 6222TIP3    H218673   3.355   4.772   3.281 -0.1255 -0.2185  0.0615
 6223TIP3   OH218674   5.888   2.091   2.184 -0.0768 -0.6162 -0.1710
 6223TIP3    H118675   5.813   2.133   2.226 -0.2614 -0.1568 -0.9283
 6223TIP3    H218676   5.849   2.019   2.133 -0.1160  0.0722 -1.1534
 6224TIP3   OH218677   3.919   5.329   1.431 -0.1479 -0.2029  0.7245
 6224TIP3    H118678   3.998   5.350   1.381  0.2188 -0.4653  1.1813
 6224TIP3    H218679   3.918   5.233   1.435 -0.2709 -0.1899  1.0598
 6225TIP3   OH218680   0.914   4.115   3.659  0.6449  0.8399 -0.1854
 6225TIP3    H118681   0.998   4.069   3.657 -0.0152 -0.3986 -1.8189
 6225TIP3    H218682   0.886   4.117   3.567 -2.2326 -1.0017  0.5074
 6226TIP3   OH218683   1.403   3.350   3.830  0.0591 -0.2492  0.6181
 6226TIP3    H118684   1.415   3.324   3.922 -1.4142 -0.3438  0.8203
 6226TIP3    H218685   1.327   3.299   3.801  1.4734 -1.4259 -1.1687
 6227TIP3   OH218686   0.705   1.977   0.597  0.2967 -0.3464 -0.1772
 6227TIP3    H118687   0.674   2.064   0.621 -1.5749 -1.3864  1.4448
 6227TIP3    H218688   0.793   1.972   0.633  0.9878  1.3102 -1.4905
 6228TIP3   OH218689   4.677   5.416   0.439 -0.0895  0.3525  0.0674
 6228TIP3    H118690   4.708   5.400   0.528  0.3525  2.0332  0.2665
 6228TIP3    H218691   4.590   5.378   0.436 -0.0815  0.2152  1.1993
 6229TIP3   OH218692   0.707   2.362   3.204  0.7352  0.2442 -0.3001
 6229TIP3    H118693   0.730   2.273   3.231  0.3705  0.3088  0.2397
 6229TIP3    H218694   0.763   2.418   3.257  0.1951  0.3638  0.1561
 6230TIP3   OH218695   2.331   3.637   2.918  0.2532 -0.2023  0.1829
 6230TIP3    H118696   2.418   3.677   2.911  0.7551 -0.8852  1.9204
 6230TIP3    H218697   2.349   3.544   2.931 -0.8018 -0.5726 -0.9043
 6231TIP3   OH218698   5.872   2.995   3.993 -0.5130  0.0945  0.1086
 6231TIP3    H118699   5.856   2.926   4.057 -0.6151  0.6309  0.6722
 6231TIP3    H218700   5.913   3.065   4.043  0.3800  0.1160 -0.6309
 6232TIP3   OH218701   4.250   5.958   3.245  0.9470 -0.3254  0.5839
 6232TIP3    H118702   4.343   5.983   3.250  0.4662  1.9723 -0.7022
 6232TIP3    H218703   4.249   5.866   3.274  3.6667 -0.5705  0.2302
 6233TIP3   OH218704   1.941   2.226   1.143 -0.4193  0.3160 -0.0723
 6233TIP3    H118705   1.855   2.185   1.132 -0.7962  1.0484  0.0962
 6233TIP3    H218706   1.986   2.210   1.060 -0.1180 -1.4394  0.3990
 6234TIP3   OH218707   4.629   3.062   1.155  0.3074  0.4075 -0.1404
 6234TIP3    H118708   4.683   3.089   1.080  0.1878  0.9391 -0.0423
 6234TIP3    H218709   4.565   3.132   1.165  0.3823  0.3914  0.5179
 6235TIP3   OH218710   4.522   3.518   0.479  0.0434 -0.4610  0.2470
 6235TIP3    H118711   4.605   3.488   0.515  0.6386 -0.9263 -1.3971
 6235TIP3    H218712   4.489   3.580   0.543  2.4468  0.9777  0.2136
 6236TIP3   OH218713   2.680   2.317   0.235 -0.6781  0.4919  0.3719
 6236TIP3    H118714   2.590   2.294   0.211  0.2659 -1.0620 -2.2230
 6236TIP3    H218715   2.719   2.350   0.153  1.0819  1.2339  1.4456
 6237TIP3   OH218716   0.903   4.871   0.529  0.0430  0.5133 -0.0809
 6237TIP3    H118717   0.848   4.796   0.506 -0.5583  0.9328 -0.0570
 6237TIP3    H218718   0.934   4.905   0.445  0.1725  0.3337 -0.1032
 6238TIP3   OH218719   2.312   2.563   3.097 -0.3071  0.7142 -0.6102
 6238TIP3    H118720   2.268   2.567   3.012 -0.7482 -1.8801 -0.6007
 6238TIP3    H218721   2.274   2.634   3.147  0.4381  2.7474 -2.7368
 6239TIP3   OH218722   2.065   3.577   0.156  0.0302  0.0514 -0.2760
 6239TIP3    H118723   2.075   3.567   0.251 -0.8797  1.1508 -0.0449
 6239TIP3    H218724   2.154   3.570   0.122  0.8265  2.8093  0.9932
 6240TIP3   OH218725   2.509   5.420   4.319 -0.1866 -0.8062 -0.2112
 6240TIP3    H118726   2.552   5.392   4.238  0.9346 -0.6860  0.3208
 6240TIP3    H218727   2.523   5.347   4.380  1.0733  0.0596  0.5913
 6241TIP3   OH218728   5.382   0.994   0.569  0.8909 -0.5469  0.2114
 6241TIP3    H118729   5.476   0.976   0.561  1.1620  0.0478  1.6657
 6241TIP3    H218730   5.344   0.910   0.596  1.0060 -0.7760 -0.3255
 6242TIP3   OH218731   4.764   0.348   4.553  0.1830 -0.0020 -0.0745
 6242TIP3    H118732   4.699   0.387   4.612 -0.5693 -0.0224 -0.8602
 6242TIP3    H218733   4.788   0.265   4.595  1.2977  0.9609  1.2772
 6243TIP3   OH218734   2.844   0.641   3.178 -0.1063  0.8525 -0.2424
 6243TIP3    H118735   2.926   0.603   3.145 -0.6720 -1.6036  0.9284
 6243TIP3    H218736   2.793   0.660   3.099 -0.7872 -3.3617 -1.0587
 6244TIP3   OH218737   2.544   1.953   0.413  0.2022  0.0025  0.3565
 6244TIP3    H118738   2.555   2.000   0.330 -1.2997  0.2267  0.2639
 6244TIP3    H218739   2.611   1.884   0.410  1.0139  0.7929 -0.4555
 6245TIP3   OH218740   1.664   1.520   4.494  0.2999  0.1305  0.0876
 6245TIP3    H118741   1.631   1.541   4.581  0.2302  3.5308 -0.6060
 6245TIP3    H218742   1.758   1.540   4.499  0.2382  0.6418 -0.6738
 6246TIP3   OH218743   3.281   5.659   2.456 -0.3815 -0.6774  0.0878
 6246TIP3    H118744   3.246   5.586   2.507 -1.2472  0.5135  1.2674
 6246TIP3    H218745   3.338   5.706   2.517 -0.5192  0.1274 -0.3921
 6247TIP3   OH218746   3.398   3.921   2.285  0.5780 -0.0419 -0.2442
 6247TIP3    H118747   3.363   4.009   2.300  1.9394  0.3083  1.1377
 6247TIP3    H218748   3.469   3.935   2.221 -0.9350 -0.5793 -2.1414
 6248TIP3   OH218749   4.069   0.476   5.092  0.2789 -0.5090  0.1493
 6248TIP3    H118750   3.981   0.506   5.067  0.7192  0.4069 -0.3676
 6248TIP3    H218751   4.122   0.490   5.013  0.8606 -1.1886  0.4134
 6249TIP3   OH218752   1.070   5.756   2.801  0.1995 -0.1852  0.9794
 6249TIP3    H118753   1.022   5.746   2.719  1.8107 -0.1875  0.0064
 6249TIP3    H218754   1.008   5.726   2.868 -1.3223  0.2719 -0.1520
 6250TIP3   OH218755   1.475   3.555   2.732  1.0266 -0.3288 -0.0869
 6250TIP3    H118756   1.531   3.582   2.805  1.4570  0.9635 -0.8522
 6250TIP3    H218757   1.529   3.495   2.681  0.6138 -1.4853  0.8001
 6251TIP3   OH218758   1.979   1.971   0.524  0.4830  0.5105 -0.0383
 6251TIP3    H118759   2.068   1.935   0.519  0.2340  0.0501 -1.9069
 6251TIP3    H218760   1.974   2.032   0.449 -1.1690 -0.4651 -0.7715
 6252TIP3   OH218761   1.616   3.227   4.031 -0.5571 -0.2676  0.1193
 6252TIP3    H118762   1.599   3.133   4.039 -2.3935 -0.0479 -0.5674
 6252TIP3    H218763   1.648   3.238   3.941  0.4432 -0.3122  0.4575
 6253TIP3   OH218764   3.153   2.283   4.905 -0.2499  0.5672  0.1660
 6253TIP3    H118765   3.136   2.370   4.867 -1.3352 -0.3087 -1.4769
 6253TIP3    H218766   3.188   2.233   4.832  1.0551 -0.2108  1.2833
 6254TIP3   OH218767   2.324   4.385   1.361 -0.2754  0.0906 -0.3783
 6254TIP3    H118768   2.350   4.399   1.270 -1.0988  2.5464 -0.2884
 6254TIP3    H218769   2.405   4.356   1.404  0.4598  0.2539 -1.6038
 6255TIP3   OH218770   0.821   5.780   3.476 -0.1730  0.1334  0.0529
 6255TIP3    H118771   0.789   5.738   3.397 -1.1092  0.4170  0.2661
 6255TIP3    H218772   0.765   5.857   3.487  0.0517  0.1905  0.8931
 6256TIP3   OH218773   0.618   4.963   3.635  0.4094  0.3232 -0.0178
 6256TIP3    H118774   0.658   4.920   3.560  0.3125 -0.9023  0.6036
 6256TIP3    H218775   0.690   4.980   3.695  0.5221  1.5130 -0.4682
 6257TIP3   OH218776   3.812   5.760   3.227  0.0892  0.1773  0.0905
 6257TIP3    H118777   3.784   5.744   3.317  0.3319 -0.5653  0.0407
 6257TIP3    H218778   3.901   5.794   3.236 -0.2709  1.1250  0.1755
 6258TIP3   OH218779   0.238   3.706   4.507 -0.3690 -0.8263  0.2065
 6258TIP3    H118780   0.279   3.621   4.491  0.8318 -0.2342  0.0763
 6258TIP3    H218781   0.310   3.765   4.525 -1.0865  0.4200 -0.8186
 6259TIP3   OH218782   2.704   5.708   3.762  0.3988  0.4123  0.1311
 6259TIP3    H118783   2.663   5.781   3.809  0.4224 -0.4815  1.6018
 6259TIP3    H218784   2.753   5.750   3.692 -0.1188  1.7662  0.5380
 6260TIP3   OH218785   2.826   2.620   1.913 -0.2535 -0.0917  0.0720
 6260TIP3    H118786   2.907   2.664   1.886 -0.3545  0.2279  0.2814
 6260TIP3    H218787   2.771   2.691   1.946 -1.0458 -0.1419 -1.0699
 6261TIP3   OH218788   0.184   4.829   1.952  0.4694 -0.1695  0.1281
 6261TIP3    H118789   0.145   4.782   1.879 -0.7619  0.2344  0.5075
 6261TIP3    H218790   0.174   4.921   1.930  2.5496 -0.0279 -0.4426
 6262TIP3   OH218791   0.732   3.110   2.786 -0.2373  0.0230 -0.3727
 6262TIP3    H118792   0.709   3.025   2.824  1.3158 -0.7610 -1.0811
 6262TIP3    H218793   0.811   3.137   2.834  0.5850 -0.0356 -1.6517
 6263TIP3   OH218794   1.697   5.864   2.065 -0.0538  0.4497 -0.4357
 6263TIP3    H118795   1.730   5.914   1.990 -1.8814  0.5219 -1.2444
 6263TIP3    H218796   1.636   5.801   2.027 -0.4052 -0.0546  0.9120
 6264TIP3   OH218797   5.955   2.287   0.955 -0.7839 -0.0049  0.1962
 6264TIP3    H118798   5.884   2.270   0.893 -0.8894 -1.1795  0.6303
 6264TIP3    H218799   5.999   2.365   0.920 -2.5460  1.0337  0.1543
 6265TIP3   OH218800   5.293   0.716   1.007  0.1238 -0.0826  0.3316
 6265TIP3    H118801   5.286   0.622   1.023  0.3073  0.0066  0.9559
 6265TIP3    H218802   5.371   0.743   1.056  3.3384 -0.4914 -3.9840
 6266TIP3   OH218803   2.695   4.674   4.397 -0.3854  0.3385 -0.3294
 6266TIP3    H118804   2.704   4.761   4.435 -0.7378 -0.3278  1.3512
 6266TIP3    H218805   2.749   4.677   4.317  2.7703  0.9766  1.6345
 6267TIP3   OH218806   4.220   2.607   0.570 -0.0180 -0.1598  0.4824
 6267TIP3    H118807   4.167   2.532   0.541 -0.8654  0.8167 -0.6043
 6267TIP3    H218808   4.310   2.580   0.555 -0.3244 -0.8451 -0.2082
 6268TIP3   OH218809   2.347   3.568   0.126 -0.0787 -0.5156 -0.1069
 6268TIP3    H118810   2.420   3.505   0.127 -0.2566 -0.7392 -0.7898
 6268TIP3    H218811   2.383   3.646   0.167  0.4399 -0.7426 -0.1164
 6269TIP3   OH218812   2.786   1.782   1.011  0.0843  0.5577  0.3327
 6269TIP3    H118813   2.736   1.705   0.985 -1.2947  1.4452  0.2561
 6269TIP3    H218814   2.781   1.841   0.936 -1.3461  1.8880  1.4049
 6270TIP3   OH218815   0.644   3.152   2.197  0.0465 -0.1847 -0.2035
 6270TIP3    H118816   0.608   3.064   2.207  0.7013 -0.2475  1.9692
 6270TIP3    H218817   0.681   3.153   2.108 -1.1065 -1.6410 -0.7315
 6271TIP3   OH218818   3.527   1.475   2.929  0.5686  0.3622 -0.1659
 6271TIP3    H118819   3.616   1.510   2.931 -0.1440  2.3609 -0.5118
 6271TIP3    H218820   3.496   1.496   2.840  0.3264 -1.9486 -0.6944
 6272TIP3   OH218821   0.946   0.719   4.336  0.1048  0.3939  0.2678
 6272TIP3    H118822   0.993   0.642   4.368  1.3136 -0.0799 -2.4062
 6272TIP3    H218823   0.992   0.793   4.376 -0.4493 -0.1630  2.0705
 6273TIP3   OH218824   1.576   0.418   2.450  0.1508 -0.0538 -0.5658
 6273TIP3    H118825   1.564   0.447   2.359  0.8148 -0.2002 -0.7024
 6273TIP3    H218826   1.660   0.455   2.476  0.4675 -0.9044 -0.3668
 6274TIP3   OH218827   1.352   5.196   1.741  0.0941 -0.1179 -0.6859
 6274TIP3    H118828   1.359   5.154   1.655  1.7283  2.1898 -1.7801
 6274TIP3    H218829   1.417   5.150   1.795 -0.1334 -0.8285 -1.0024
 6275TIP3   OH218830   6.185   5.654   1.134 -0.7101 -0.2131  0.0545
 6275TIP3    H118831   6.274   5.656   1.169  0.0392  0.2323 -1.7962
 6275TIP3    H218832   6.145   5.578   1.176  0.4086 -0.2196  1.1821
 6276TIP3   OH218833   2.319   3.961   0.919 -0.0449  0.2774 -0.2081
 6276TIP3    H118834   2.365   3.886   0.882 -0.1522  0.7293 -1.3191
 6276TIP3    H218835   2.257   3.987   0.850  0.4345  1.7563 -0.1164
 6277TIP3   OH218836   6.026   1.774   4.883  0.2007 -0.5183 -0.1497
 6277TIP3    H118837   6.000   1.795   4.972  2.0463  0.3425  0.2286
 6277TIP3    H218838   6.108   1.822   4.869  0.9641 -2.1161 -1.6365
 6278TIP3   OH218839   2.588   3.619   0.946  0.2926 -0.4900 -0.9456
 6278TIP3    H118840   2.647   3.576   0.884  1.4331  0.1340 -0.3238
 6278TIP3    H218841   2.600   3.572   1.028  2.1189  1.4026 -0.0541
 6279TIP3   OH218842   1.139   1.725   5.012  0.1008  0.5110  0.4815
 6279TIP3    H118843   1.187   1.663   4.957 -1.6202 -0.2729 -0.1810
 6279TIP3    H218844   1.107   1.672   5.085  0.2262  1.0262  0.9184
 6280TIP3   OH218845   0.582   0.538   1.059 -0.0473 -0.1911 -0.1236
 6280TIP3    H118846   0.663   0.503   1.096 -0.1197  1.3252  1.5660
 6280TIP3    H218847   0.542   0.587   1.130 -2.4245 -0.8040 -0.9442
 6281TIP3   OH218848   4.616   3.421   5.081  0.3030  0.5371 -0.3717
 6281TIP3    H118849   4.544   3.437   5.020 -0.5185 -1.3110  0.0319
 6281TIP3    H218850   4.588   3.463   5.162  1.3483  2.9026 -1.1487
 6282TIP3   OH218851   0.296   3.471   5.157 -0.4619  0.4544 -0.1050
 6282TIP3    H118852   0.268   3.390   5.115  0.4693  0.2733 -0.4119
 6282TIP3    H218853   0.344   3.443   5.235  1.0293  0.6353 -0.9219
 6283TIP3   OH218854   1.377   3.640   0.185 -0.0261  0.3328  0.4473
 6283TIP3    H118855   1.449   3.698   0.211 -0.2161  0.6996  0.1572
 6283TIP3    H218856   1.351   3.596   0.266  1.0340 -0.3776  0.4234
 6284TIP3   OH218857   2.857   1.956   4.563  0.5170  0.1607  0.1218
 6284TIP3    H118858   2.846   2.031   4.621  1.9113 -1.0032  2.0228
 6284TIP3    H218859   2.899   1.992   4.485  1.1400  1.3801  0.9835
 6285TIP3   OH218860   2.879   2.179   1.438  0.5158 -0.2567 -0.1012
 6285TIP3    H118861   2.935   2.255   1.456 -0.6249  0.5493  0.2049
 6285TIP3    H218862   2.933   2.121   1.385  0.7435  1.7446 -2.2496
 6286TIP3   OH218863   1.812   4.679   3.273  0.2920 -0.1206  0.1734
 6286TIP3    H118864   1.870   4.748   3.243  0.1637  0.2823  0.8486
 6286TIP3    H218865   1.727   4.721   3.283  0.0022 -0.5837 -0.2912
 6287TIP3   OH218866   0.584   2.854   0.341  0.8982  0.0817  0.5547
 6287TIP3    H118867   0.646   2.926   0.341  0.3513  0.6128 -1.7558
 6287TIP3    H218868   0.548   2.853   0.430  1.5276  2.0941  0.8648
 6288TIP3   OH218869   2.278   0.452   1.521 -0.2112  0.4833 -0.1261
 6288TIP3    H118870   2.367   0.481   1.542 -0.0940  0.9322 -1.1881
 6288TIP3    H218871   2.285   0.414   1.434 -1.0370  0.3920 -0.1607
 6289TIP3   OH218872   5.347   5.330   4.132  0.0600  0.4582  0.2126
 6289TIP3    H118873   5.411   5.362   4.069 -1.3905 -0.7310 -1.9641
 6289TIP3    H218874   5.262   5.351   4.094 -0.8989  0.3936  2.1597
 6290TIP3   OH218875   0.816   0.026   2.677  0.2933  0.6384 -0.3087
 6290TIP3    H118876   0.881  -0.020   2.624  0.2286  0.1968 -0.0160
 6290TIP3    H218877   0.867   0.068   2.746  0.4494  1.7760 -1.0961
 6291TIP3   OH218878   3.262   4.491   1.912  0.1238  0.3171  0.0333
 6291TIP3    H118879   3.194   4.517   1.849 -0.4479  0.3371  0.6466
 6291TIP3    H218880   3.329   4.559   1.904  0.4247 -0.1021 -1.1106
 6292TIP3   OH218881   0.731   1.546   1.597 -0.2214  0.8117  0.2885
 6292TIP3    H118882   0.737   1.492   1.676 -1.8877  0.3285  0.1269
 6292TIP3    H218883   0.759   1.488   1.526  1.9767  1.4619  0.5514
 6293TIP3   OH218884   6.074   1.786   0.186  0.1087  0.0301  0.0153
 6293TIP3    H118885   6.064   1.871   0.143  1.4976 -0.4405 -1.3258
 6293TIP3    H218886   6.010   1.787   0.257 -0.1902  2.0233 -0.2350
 6294TIP3   OH218887   6.225   3.092   2.088  0.2255  0.7792  0.2424
 6294TIP3    H118888   6.241   3.027   2.157  0.8618  0.7876  0.1099
 6294TIP3    H218889   6.304   3.147   2.088 -0.2565  1.4711  0.2624
 6295TIP3   OH218890   5.113   0.574   3.322  0.1138  0.0163 -0.8305
 6295TIP3    H118891   5.180   0.508   3.338  2.0377  2.3258  1.3510
 6295TIP3    H218892   5.034   0.538   3.363  0.9461 -1.1747 -0.2275
 6296TIP3   OH218893   0.003   5.105   5.113 -0.2329  0.0973 -0.2760
 6296TIP3    H118894   0.033   5.167   5.047 -1.6712  0.9022 -0.2169
 6296TIP3    H218895   0.031   5.143   5.196  2.0523 -1.1846 -0.3879
 6297TIP3   OH218896   4.400   4.190   2.821  0.6758 -0.1770  0.3489
 6297TIP3    H118897   4.453   4.201   2.743  0.9591  0.7390  0.6601
 6297TIP3    H218898   4.316   4.228   2.799  0.0484 -1.7906 -0.2069
 6298TIP3   OH218899   6.297   5.774   2.810 -0.1005 -0.0425  0.6469
 6298TIP3    H118900   6.323   5.780   2.902 -0.6640 -1.2673  0.9048
 6298TIP3    H218901   6.379   5.783   2.761  0.3433 -0.3786  1.3094
 6299TIP3   OH218902   4.949   1.953   2.407 -0.0813  0.1429 -0.3219
 6299TIP3    H118903   4.933   1.941   2.314 -0.3514 -1.0546 -0.1380
 6299TIP3    H218904   4.875   1.909   2.450  1.1107 -1.1880  0.4740
 6300TIP3   OH218905   3.221   1.204   1.147 -0.2095  0.6780 -0.1864
 6300TIP3    H118906   3.255   1.264   1.081 -0.5905  0.9188 -0.1658
 6300TIP3    H218907   3.152   1.253   1.192 -0.1351  0.4254  0.2135
 6301TIP3   OH218908   2.938   5.634   1.419  0.4296  0.1720  0.4085
 6301TIP3    H118909   2.996   5.673   1.355  0.6770  0.0400  0.5505
 6301TIP3    H218910   2.850   5.649   1.385  0.3162  3.1993  1.7230
 6302TIP3   OH218911   4.995   5.291   1.053 -0.3345  0.2210 -0.0411
 6302TIP3    H118912   5.040   5.237   1.117  0.4434 -0.8899 -1.4838
 6302TIP3    H218913   4.994   5.379   1.092  0.0102 -0.4411  1.5207
 6303TIP3   OH218914   5.625   1.058   4.395  0.0079  0.3414 -1.1277
 6303TIP3    H118915   5.720   1.049   4.384 -0.0895 -0.8196 -1.0600
 6303TIP3    H218916   5.613   1.148   4.427  1.1709  0.1290 -0.0499
 6304TIP3   OH218917   1.771   5.244   1.735 -0.0649 -0.7868  0.1975
 6304TIP3    H118918   1.702   5.180   1.749  0.4439 -1.5029 -0.4786
 6304TIP3    H218919   1.834   5.199   1.678  0.4808  0.1828  0.0163
 6305TIP3   OH218920   5.796   1.881   3.357 -0.3472  0.3950  0.6169
 6305TIP3    H118921   5.755   1.915   3.436 -0.3152  0.4292  0.6187
 6305TIP3    H218922   5.729   1.892   3.289  0.2544  2.0455  0.2440
 6306TIP3   OH218923   0.378   5.253   1.400 -0.0636 -0.2036  0.2752
 6306TIP3    H118924   0.311   5.280   1.462 -0.7877 -1.0847 -0.0986
 6306TIP3    H218925   0.427   5.334   1.381  1.5793 -0.2504  3.5590
 6307TIP3   OH218926   2.451   5.644   0.289  0.2838  0.1171  0.2493
 6307TIP3    H118927   2.484   5.710   0.227 -0.9683  0.5314 -0.0023
 6307TIP3    H218928   2.400   5.694   0.352 -0.8029 -0.6068 -0.0272
 6308TIP3   OH218929   2.870   3.838   1.651 -0.4155 -0.3327  0.4477
 6308TIP3    H118930   2.820   3.836   1.732 -0.8335  1.7404  0.3101
 6308TIP3    H218931   2.961   3.844   1.679 -0.4246 -1.4296  0.7310
 6309TIP3   OH218932   0.464   3.795   5.125 -0.6718 -0.1360  0.5190
 6309TIP3    H118933   0.401   3.731   5.092  0.1625 -0.3681 -0.6700
 6309TIP3    H218934   0.549   3.763   5.096 -0.3093  2.1845 -1.3431
 6310TIP3   OH218935   1.983   5.438   3.979  0.3230 -0.4453 -0.6896
 6310TIP3    H118936   1.974   5.530   4.005  0.5965 -1.0295  1.7180
 6310TIP3    H218937   1.893   5.405   3.975  0.2369 -0.1530 -1.3507
 6311TIP3   OH218938   1.712   3.282   0.497 -0.5286  0.0309 -0.0122
 6311TIP3    H118939   1.622   3.297   0.466 -0.6223  0.6477  0.5518
 6311TIP3    H218940   1.719   3.333   0.577  0.6888  0.8915 -0.6321
 6312TIP3   OH218941   5.936   1.950   4.110 -0.5988 -0.1798  0.1668
 6312TIP3    H118942   5.857   1.920   4.155 -0.5134 -1.1633 -0.3300
 6312TIP3    H218943   5.905   2.017   4.049 -0.9556 -0.1304  0.3990
 6313TIP3   OH218944   4.750   3.067   3.934  0.4452 -0.4154  0.0870
 6313TIP3    H118945   4.816   3.129   3.966  0.9725 -1.8204  1.8874
 6313TIP3    H218946   4.711   3.030   4.013 -1.4697 -0.7458 -0.9436
 6314TIP3   OH218947   1.232   2.238   0.827  0.1623  0.4288  0.5713
 6314TIP3    H118948   1.143   2.228   0.861 -0.6097 -1.1151 -1.7299
 6314TIP3    H218949   1.281   2.166   0.867  0.3883  1.1594  1.6777
 6315TIP3   OH218950   3.818   4.683   3.518  0.7931 -1.7504  0.1472
 6315TIP3    H118951   3.759   4.657   3.448  0.9264  0.8728 -1.0552
 6315TIP3    H218952   3.895   4.717   3.473  0.4766  0.9496  1.4111
 6316TIP3   OH218953   3.560   0.514   4.711 -0.3953 -0.0104 -0.1450
 6316TIP3    H118954   3.646   0.536   4.745  1.0582 -0.5355 -3.2011
 6316TIP3    H218955   3.510   0.596   4.716  0.1617  0.2593  1.7808
 6317TIP3   OH218956   1.182   0.520   4.152 -0.7140 -0.0404  0.0663
 6317TIP3    H118957   1.103   0.559   4.114  0.0123  0.6747 -0.7784
 6317TIP3    H218958   1.218   0.467   4.081 -0.2859 -0.1304  0.3469
 6318TIP3   OH218959   6.249   4.478   2.663  0.0807  0.2625  0.3159
 6318TIP3    H118960   6.270   4.392   2.700  0.0344 -0.3025 -0.9429
 6318TIP3    H218961   6.320   4.535   2.694  1.1384 -0.6471 -0.3515
 6319TIP3   OH218962   4.666   4.335   4.716  0.3507  0.4582 -0.0478
 6319TIP3    H118963   4.724   4.314   4.790  0.2675  1.8575  0.4349
 6319TIP3    H218964   4.607   4.402   4.750  0.4361  1.2729 -1.4552
 6320TIP3   OH218965   5.260   2.852   1.347  0.1449  0.0333 -0.3604
 6320TIP3    H118966   5.317   2.836   1.423  0.1055  0.6687 -0.1908
 6320TIP3    H218967   5.284   2.784   1.284  1.3704  0.5234 -0.4465
 6321TIP3   OH218968   0.361   2.054   2.595 -0.2670 -0.2940 -0.2675
 6321TIP3    H118969   0.341   2.148   2.601 -0.6789 -0.4345  0.8529
 6321TIP3    H218970   0.277   2.011   2.612  0.2290 -0.8622  0.8576
 6322TIP3   OH218971   0.139   3.201   0.790  0.6297 -0.5852  0.4837
 6322TIP3    H118972   0.114   3.213   0.698 -1.3242 -0.3566  0.9845
 6322TIP3    H218973   0.225   3.242   0.797  0.2604  0.5568 -0.9785
 6323TIP3   OH218974   2.673   4.084   0.909  0.1493 -0.1196 -0.5807
 6323TIP3    H118975   2.635   4.026   0.975  0.0517  1.2159  0.5843
 6323TIP3    H218976   2.727   4.145   0.960 -0.5323  1.4249 -1.6455
 6324TIP3   OH218977   3.546   0.708   3.015  0.0635  0.3247 -0.1989
 6324TIP3    H118978   3.570   0.616   3.007 -0.2295  0.2893 -0.6878
 6324TIP3    H218979   3.451   0.708   3.026  0.0082  0.5901 -0.6451
 6325TIP3   OH218980   0.637   1.042   0.996  0.2356 -0.3700 -0.1358
 6325TIP3    H118981   0.604   1.131   1.005 -1.1414 -0.5786 -2.3425
 6325TIP3    H218982   0.713   1.050   0.939 -0.5104 -0.6817 -1.2036
 6326TIP3   OH218983   0.284   5.202   4.662  0.3183  0.0918  0.0736
 6326TIP3    H118984   0.320   5.178   4.576 -1.6574 -2.7844 -0.1128
 6326TIP3    H218985   0.261   5.295   4.653  0.3191 -0.0718 -2.4887
 6327TIP3   OH218986   4.675   3.048   0.475 -0.6787  0.4132  0.2627
 6327TIP3    H118987   4.766   3.063   0.449 -1.1867  0.8096 -1.4746
 6327TIP3    H218988   4.632   3.133   0.460 -1.5619 -0.0766 -0.0466
 6328TIP3   OH218989   1.321   2.901   5.155 -0.3188  0.4033  0.0554
 6328TIP3    H118990   1.376   2.950   5.094 -0.3992 -0.0636 -0.4034
 6328TIP3    H218991   1.262   2.851   5.098 -0.3612 -0.0704  0.5134
 6329TIP3   OH218992   4.873   3.704   2.257 -0.0062 -0.0603 -0.0685
 6329TIP3    H118993   4.872   3.663   2.343 -0.5815  0.7800  0.3374
 6329TIP3    H218994   4.940   3.773   2.264  0.3474 -0.3558 -0.4744
 6330TIP3   OH218995   0.162   2.409   2.900 -1.2184 -0.0172 -0.1396
 6330TIP3    H118996   0.120   2.361   2.829  0.0101  0.2779 -1.0999
 6330TIP3    H218997   0.171   2.499   2.866  0.4686 -0.1536 -0.1107
 6331TIP3   OH218998   4.125   2.533   1.815  0.3862  0.9836 -0.1888
 6331TIP3    H118999   4.210   2.573   1.828  0.0585  2.0666 -1.1857
 6331TIP3    H219000   4.120   2.516   1.720 -0.0079 -0.2409  0.0293
 6332TIP3   OH219001   3.215   1.254   4.664 -0.4223 -0.3368 -0.1810
 6332TIP3    H119002   3.202   1.291   4.576 -0.7251 -0.0817 -0.0337
 6332TIP3    H219003   3.198   1.327   4.723 -1.2093 -0.7543  0.1230
 6333TIP3   OH219004   1.324   3.681   2.182  0.2828 -0.2879 -0.4511
 6333TIP3    H119005   1.258   3.747   2.165  0.1155 -0.5593 -0.8940
 6333TIP3    H219006   1.312   3.657   2.273  0.8696  0.8614 -0.0517
 6334TIP3   OH219007   3.898   3.866   4.034 -0.0081  0.2160 -0.3706
 6334TIP3    H119008   3.846   3.796   3.996 -0.1020 -0.3449  0.7304
 6334TIP3    H219009   3.939   3.826   4.111  0.5323  1.1702 -0.1426
 6335TIP3   OH219010   1.209   3.853   3.887 -0.1777  1.0065  0.1268
 6335TIP3    H119011   1.157   3.914   3.940  0.3691  1.7122 -0.1312
 6335TIP3    H219012   1.173   3.861   3.799 -0.6025  0.3836  0.2405
 6336TIP3   OH219013   2.806   1.800   2.451 -0.0914  0.1888 -0.2998
 6336TIP3    H119014   2.726   1.793   2.398 -0.7352 -1.0962  0.7832
 6336TIP3    H219015   2.775   1.831   2.536  0.6267  0.0374  0.0144
 6337TIP3   OH219016   4.462   0.448   5.041 -0.1829  0.2398 -0.2159
 6337TIP3    H119017   4.410   0.507   4.987 -1.0356 -0.5891 -0.3369
 6337TIP3    H219018   4.496   0.383   4.979 -1.7134 -1.1124  0.2641
 6338TIP3   OH219019   6.011   4.771   0.830  0.1836  0.1339 -0.1742
 6338TIP3    H119020   6.086   4.754   0.773  0.8488 -1.0381  0.9649
 6338TIP3    H219021   6.026   4.858   0.865  1.8174 -0.6232  1.1332
 6339TIP3   OH219022   5.701   3.184   0.279 -0.0628 -0.1769  0.3009
 6339TIP3    H119023   5.617   3.228   0.276 -0.0664 -0.2261 -0.6635
 6339TIP3    H219024   5.713   3.149   0.191  0.3610 -1.3042  0.7843
 6340TIP3   OH219025   1.631   5.243   2.399  0.1515  0.1369  0.1570
 6340TIP3    H119026   1.651   5.316   2.340  2.7568  0.1131  0.8858
 6340TIP3    H219027   1.560   5.275   2.455 -0.2890  1.2447 -0.9914
 6341TIP3   OH219028   4.109   5.586   0.176 -0.0345 -0.1143 -0.0594
 6341TIP3    H119029   4.156   5.530   0.237  1.6528 -0.0738 -1.2752
 6341TIP3    H219030   4.158   5.668   0.175 -2.3998  1.4741  1.6169
 6342TIP3   OH219031   6.190   3.483   5.128 -0.0788  0.2181 -0.4791
 6342TIP3    H119032   6.202   3.389   5.118  1.5908  0.4806 -1.2519
 6342TIP3    H219033   6.110   3.491   5.179 -0.0227 -1.6244 -0.0203
 6343TIP3   OH219034   0.729   1.698   0.106  0.2361 -0.4852 -0.0186
 6343TIP3    H119035   0.778   1.624   0.140 -0.6983 -0.1139  2.3453
 6343TIP3    H219036   0.712   1.753   0.182 -1.6099  0.6896 -1.1769
 6344TIP3   OH219037   1.871   2.812   3.626 -0.3084  0.2253  0.2004
 6344TIP3    H119038   1.877   2.902   3.657  0.4453  0.2403  0.0299
 6344TIP3    H219039   1.920   2.811   3.544  0.1093 -0.4370  0.4421
 6345TIP3   OH219040   3.815   5.029   2.079 -0.1266 -1.0614  0.1730
 6345TIP3    H119041   3.898   4.983   2.093  0.2532  0.5065  4.6270
 6345TIP3    H219042   3.750   4.975   2.124 -0.5074  0.3162  1.3257
 6346TIP3   OH219043   3.665   3.184   4.621 -0.5718  0.1029 -0.4519
 6346TIP3    H119044   3.741   3.164   4.676 -1.8391  0.2591  1.4697
 6346TIP3    H219045   3.643   3.101   4.579 -1.6268 -0.9878  2.0471
 6347TIP3   OH219046   3.243   2.994   3.752 -0.2491 -0.1137  0.3518
 6347TIP3    H119047   3.311   3.007   3.686 -0.3011 -1.6664 -0.0516
 6347TIP3    H219048   3.210   3.082   3.770  0.2837  0.4239 -1.1341
 6348TIP3   OH219049   2.648   5.151   2.244 -0.2670 -0.0066  0.1992
 6348TIP3    H119050   2.683   5.137   2.156  0.4070  1.0256  0.2858
 6348TIP3    H219051   2.725   5.155   2.301 -0.5436  1.3602  0.5283
 6349TIP3   OH219052   2.768   4.366   1.094  0.0552  0.1410  0.4106
 6349TIP3    H119053   2.678   4.391   1.114  0.2851  0.8681  0.5878
 6349TIP3    H219054   2.781   4.283   1.140 -0.3331  0.3398  0.8871
 6350TIP3   OH219055   2.365   2.763   1.346 -0.1441 -0.3005  0.2308
 6350TIP3    H119056   2.428   2.759   1.418  0.9984  0.4234 -0.6983
 6350TIP3    H219057   2.399   2.703   1.280 -0.0165  0.6557 -0.5874
 6351TIP3   OH219058   0.888   5.434   2.795  0.0587  0.2782 -0.2239
 6351TIP3    H119059   0.835   5.513   2.801 -0.8115 -0.1083 -2.1730
 6351TIP3    H219060   0.923   5.435   2.706  1.4287 -0.6759  0.2780
 6352TIP3   OH219061   5.752   4.222   2.590  0.3226 -0.2229  0.1083
 6352TIP3    H119062   5.700   4.232   2.670  0.4893  0.2369  0.1582
 6352TIP3    H219063   5.842   4.212   2.621  0.9034  3.2521 -0.0880
 6353TIP3   OH219064   2.656   1.662   4.773  0.2949  0.1302  0.7221
 6353TIP3    H119065   2.604   1.678   4.694  0.1490  1.0343  0.9935
 6353TIP3    H219066   2.592   1.647   4.842  0.4116 -2.3501  0.3819
 6354TIP3   OH219067   0.496   0.794   4.703  0.2276 -0.7053 -0.0480
 6354TIP3    H119068   0.518   0.737   4.629 -1.7740  0.6947 -1.8328
 6354TIP3    H219069   0.418   0.756   4.741 -1.5155  1.0310 -1.6573
 6355TIP3   OH219070   0.314   0.952   4.167  0.3260  0.4417  0.0273
 6355TIP3    H119071   0.291   1.043   4.145 -0.6586  0.3380  0.5645
 6355TIP3    H219072   0.338   0.912   4.084 -0.3043  0.8937 -0.3756
 6356TIP3   OH219073   1.336   2.864   4.583 -0.5182 -0.1792  0.1979
 6356TIP3    H119074   1.375   2.938   4.630 -2.1875  0.7766  0.1566
 6356TIP3    H219075   1.307   2.902   4.500 -0.7301 -1.0490 -0.1302
 6357TIP3   OH219076   3.562   5.064   3.684 -0.2902 -0.3028 -0.1723
 6357TIP3    H119077   3.639   5.062   3.740  2.0385  0.8645 -3.0684
 6357TIP3    H219078   3.547   4.973   3.660  1.3822 -0.3799 -1.0150
 6358TIP3   OH219079   6.160   0.564   4.243  0.2757  0.1871  0.2703
 6358TIP3    H119080   6.190   0.477   4.268 -1.0640 -0.0448  1.1613
 6358TIP3    H219081   6.189   0.621   4.315 -2.0765 -0.1883  1.6004
 6359TIP3   OH219082   5.096   3.410   1.480 -0.7252  0.5051 -0.2997
 6359TIP3    H119083   5.166   3.358   1.520 -1.1607  0.1561  0.0096
 6359TIP3    H219084   5.040   3.436   1.553 -0.2948  1.7609 -0.3969
 6360TIP3   OH219085   1.642   1.973   0.441  0.0494  0.0689  0.1943
 6360TIP3    H119086   1.551   1.953   0.419 -0.2566  0.8337  0.7231
 6360TIP3    H219087   1.640   2.063   0.472  0.9363 -0.0102  0.5089
 6361TIP3   OH219088   0.960   3.247   0.308  0.0119  0.3802 -0.0067
 6361TIP3    H119089   1.031   3.228   0.369  0.8510  0.5323 -0.9158
 6361TIP3    H219090   0.970   3.339   0.286 -1.2784  0.7554  0.8565
 6362TIP3   OH219091   1.161   3.789   1.908  0.1149  0.0337  0.4834
 6362TIP3    H119092   1.090   3.777   1.845  1.1740 -0.4502 -0.6537
 6362TIP3    H219093   1.119   3.831   1.983 -1.3315 -0.0699 -0.2273
 6363TIP3   OH219094   4.757   2.739   3.594  0.1493  0.6332 -0.1021
 6363TIP3    H119095   4.816   2.794   3.646 -0.2284  0.8284  0.1262
 6363TIP3    H219096   4.724   2.674   3.656  1.1667 -0.3269 -0.5391
 6364TIP3   OH219097   1.239   0.133   4.490 -0.0206  0.3756  0.5239
 6364TIP3    H119098   1.164   0.095   4.444  0.9041 -1.8400  0.7358
 6364TIP3    H219099   1.200   0.198   4.549 -1.7360 -0.5659  0.5013
 6365TIP3   OH219100   1.552   0.413   1.860 -0.5023  0.2338  0.1505
 6365TIP3    H119101   1.610   0.488   1.855  0.3015 -0.2296  1.8211
 6365TIP3    H219102   1.586   0.351   1.796  0.1251  0.4345  0.2885
 6366TIP3   OH219103   4.043   1.579   3.305 -0.0369 -0.2455  0.2461
 6366TIP3    H119104   3.965   1.565   3.358 -0.0002 -2.4699 -0.2100
 6366TIP3    H219105   4.011   1.623   3.226 -0.7416 -0.6715  0.2888
 6367TIP3   OH219106   0.783   3.066   4.666 -0.3304  0.3750 -0.5137
 6367TIP3    H119107   0.837   3.134   4.706  1.0169 -0.9799  0.0524
 6367TIP3    H219108   0.726   3.114   4.605  1.5030  1.8776 -1.1383
 6368TIP3   OH219109   3.619   4.868   4.824 -0.2507 -0.1875 -0.2318
 6368TIP3    H119110   3.596   4.959   4.842  2.4225  0.7917 -1.2745
 6368TIP3    H219111   3.714   4.863   4.836 -0.3729 -3.0565  0.4914
 6369TIP3   OH219112   3.583   3.119   2.713  0.2278  0.4500 -0.7206
 6369TIP3    H119113   3.647   3.055   2.684  1.2186  1.8594 -1.8249
 6369TIP3    H219114   3.503   3.068   2.730  1.6613 -1.3694  0.9430
 6370TIP3   OH219115   6.284   3.647   4.426  0.1483  0.0133  0.4826
 6370TIP3    H119116   6.318   3.565   4.389 -1.7332 -0.4418 -0.3426
 6370TIP3    H219117   6.225   3.682   4.359  0.8607  2.0435  0.8429
 6371TIP3   OH219118   2.370   4.221   0.032 -0.0504 -0.1308  0.0905
 6371TIP3    H119119   2.439   4.159   0.011  0.9442 -0.0427  2.6960
 6371TIP3    H219120   2.398   4.303  -0.009  0.2474 -0.6238 -0.7060
 6372TIP3   OH219121   3.247   4.865   3.158  0.4333  0.1659  0.6783
 6372TIP3    H119122   3.169   4.914   3.133 -0.4743 -1.6908 -0.3169
 6372TIP3    H219123   3.320   4.919   3.124 -0.5895 -0.0384 -2.1689
 6373TIP3   OH219124   2.561   0.927   3.331 -0.1161 -0.0718  0.1873
 6373TIP3    H119125   2.637   0.952   3.278 -1.3556  0.6022 -1.3793
 6373TIP3    H219126   2.563   0.985   3.407  0.6831  0.2510 -0.0786
 6374TIP3   OH219127   4.846   0.553   4.385 -0.4437  1.0718  0.0074
 6374TIP3    H119128   4.814   0.480   4.438  2.0837  0.6633  1.1380
 6374TIP3    H219129   4.900   0.604   4.445  1.5005  1.3130 -1.8372
 6375TIP3   OH219130   5.490   5.520   2.724  0.0155  0.6529 -0.2592
 6375TIP3    H119131   5.565   5.532   2.783 -0.7813  2.5213  0.4436
 6375TIP3    H219132   5.447   5.441   2.756  1.9260 -0.7667 -1.0026
 6376TIP3   OH219133   0.484   0.543   3.169  0.1669  0.4800 -0.6325
 6376TIP3    H119134   0.445   0.549   3.082  0.1994 -0.4057 -0.7096
 6376TIP3    H219135   0.413   0.514   3.226  0.0653  1.3471 -0.2916
 6377TIP3   OH219136   1.721   3.767   4.470 -0.2820  0.0763  0.1823
 6377TIP3    H119137   1.750   3.761   4.561  1.2717  0.1254 -0.2768
 6377TIP3    H219138   1.642   3.821   4.473 -0.1896  0.1661  1.4858
 6378TIP3   OH219139   0.861   5.452   3.321 -0.8253 -0.3666  0.4552
 6378TIP3    H119140   0.892   5.427   3.234 -0.5187 -1.8071  0.9572
 6378TIP3    H219141   0.782   5.503   3.304  0.8568  2.0356 -0.7866
 6379TIP3   OH219142   3.367   5.059   0.987 -0.9402  0.4858 -0.0628
 6379TIP3    H119143   3.344   5.032   0.898 -0.6492  1.6628 -0.5219
 6379TIP3    H219144   3.312   5.136   1.004 -2.6217 -0.9759  1.6555
 6380TIP3   OH219145   2.445   0.109   4.949  0.3562  0.4804 -0.0421
 6380TIP3    H119146   2.513   0.148   5.005 -0.2598 -0.2861  1.2891
 6380TIP3    H219147   2.421   0.180   4.889  3.1487  0.4378 -1.3817
 6381TIP3   OH219148   0.663   0.092   4.709  0.5011  0.0227 -0.3957
 6381TIP3    H119149   0.605   0.055   4.776  0.2004  0.4405 -0.4250
 6381TIP3    H219150   0.749   0.097   4.751  0.1190  1.1823  0.2905
 6382TIP3   OH219151   1.751   3.952   4.873 -0.5514  0.5684 -0.1934
 6382TIP3    H119152   1.786   3.989   4.792  0.7380  1.6800  0.8292
 6382TIP3    H219153   1.702   4.023   4.913 -1.0645  0.0695  0.0770
 6383TIP3   OH219154   4.364   3.235   3.871  0.4312 -0.4390 -0.3510
 6383TIP3    H119155   4.321   3.263   3.790  0.9343  1.7102  0.0758
 6383TIP3    H219156   4.394   3.316   3.912  1.7211 -1.6076  1.1470
 6384TIP3   OH219157   3.294   2.708   4.191  0.0085  0.4583 -0.8028
 6384TIP3    H119158   3.389   2.712   4.200 -0.0782 -0.7364  1.3525
 6384TIP3    H219159   3.279   2.636   4.130  0.4972  0.2269 -0.6588
 6385TIP3   OH219160   0.456   5.044   0.790  0.1019  0.1058 -0.3363
 6385TIP3    H119161   0.483   5.063   0.700 -0.6194  0.3457 -0.5063
 6385TIP3    H219162   0.515   5.096   0.845  0.1716  0.3974 -0.6893
 6386TIP3   OH219163   3.258   3.277   3.862 -0.1868 -0.0892  0.0122
 6386TIP3    H119164   3.190   3.344   3.866 -0.3070 -0.1368 -1.1203
 6386TIP3    H219165   3.336   3.324   3.834  0.0380 -0.2000  0.4440
 6387TIP3   OH219166   2.640   5.805   1.605 -0.3984  0.1376 -0.4940
 6387TIP3    H119167   2.544   5.807   1.606 -0.4274  1.6777 -1.9762
 6387TIP3    H219168   2.666   5.886   1.649  0.2895 -0.6976  0.7308
 6388TIP3   OH219169   3.518   1.622   0.251  0.1286 -0.3941 -0.2585
 6388TIP3    H119170   3.490   1.531   0.261  0.2126 -0.4719 -0.7039
 6388TIP3    H219171   3.611   1.616   0.229  0.2270 -0.1852  0.0968
 6389TIP3   OH219172   5.018   4.441   0.344 -0.1760 -0.2730 -0.0134
 6389TIP3    H119173   4.937   4.398   0.314 -0.5670  0.7442 -0.4520
 6389TIP3    H219174   4.989   4.509   0.403  0.4982 -1.0690  1.2773
 6390TIP3   OH219175   3.420   0.381   1.096 -0.1218  0.5224  0.2144
 6390TIP3    H119176   3.424   0.464   1.143 -0.0450  1.2908 -1.1037
 6390TIP3    H219177   3.329   0.374   1.067  0.3120  1.1263 -1.3549
 6391TIP3   OH219178   2.514   1.362   0.457 -0.0493 -0.5345  0.2643
 6391TIP3    H119179   2.427   1.378   0.493 -0.7092 -1.7144 -0.7381
 6391TIP3    H219180   2.522   1.422   0.383  0.6163  0.6381  1.2407
 6392TIP3   OH219181   3.341   5.686   2.176  0.5888  0.8545 -0.0255
 6392TIP3    H119182   3.326   5.593   2.159  2.0173  0.7789 -1.0437
 6392TIP3    H219183   3.330   5.695   2.271  1.4978 -0.5779  0.2467
 6393TIP3   OH219184   1.234   4.803   0.184  0.1707  0.4359  0.1855
 6393TIP3    H119185   1.304   4.787   0.121  1.8685 -0.6955  2.2844
 6393TIP3    H219186   1.240   4.732   0.247 -2.2976  0.8158  0.9614
 6394TIP3   OH219187   0.378   0.533   3.944 -0.4422 -0.0909 -0.2175
 6394TIP3    H119188   0.289   0.538   3.977 -0.6047  0.1034 -0.6716
 6394TIP3    H219189   0.375   0.464   3.877 -0.6448  0.9994 -1.3835
 6395TIP3   OH219190   3.537   2.036   3.858  0.1536 -0.6419  0.0712
 6395TIP3    H119191   3.615   2.016   3.911  0.8369 -0.8461 -0.9808
 6395TIP3    H219192   3.526   2.130   3.868  1.3852 -0.3687 -0.8496
 6396TIP3   OH219193   4.709   2.782   1.409 -0.4037 -0.2919 -0.7497
 6396TIP3    H119194   4.788   2.824   1.375  0.7075 -0.3058  1.5808
 6396TIP3    H219195   4.732   2.689   1.413 -0.3308 -0.2332  0.3941
 6397TIP3   OH219196   0.872   3.095   1.312 -0.2955  0.1883  0.2887
 6397TIP3    H119197   0.937   3.047   1.260 -0.4496  1.3869 -1.0586
 6397TIP3    H219198   0.852   3.173   1.261 -1.0028  1.0790  1.8270
 6398TIP3   OH219199   1.245   2.678   0.594 -0.1889 -0.6696  0.2264
 6398TIP3    H119200   1.238   2.589   0.559  0.8137 -0.6791  0.0067
 6398TIP3    H219201   1.226   2.668   0.688 -0.4747 -1.0464  0.1327
 6399TIP3   OH219202   1.362   3.242   1.010 -0.3458  0.0332 -0.4311
 6399TIP3    H119203   1.280   3.199   1.033 -0.1668 -0.3627 -0.5301
 6399TIP3    H219204   1.419   3.172   0.980 -0.3531  0.4388 -1.4577
 6400TIP3   OH219205   6.155   4.990   0.943 -1.0435 -0.3773 -0.1591
 6400TIP3    H119206   6.140   5.083   0.960 -1.4201 -0.3955 -0.3772
 6400TIP3    H219207   6.227   4.989   0.880 -1.0924 -0.2276 -0.2197
 6401TIP3   OH219208   5.046   1.003   0.335 -0.6791 -0.1210  0.0520
 6401TIP3    H119209   5.066   0.918   0.375 -2.4846 -0.9980 -0.8198
 6401TIP3    H219210   5.051   1.065   0.408  1.4616 -0.7853  0.5687
 6402TIP3   OH219211   3.748   1.173   0.336  0.0056  0.1511  0.5181
 6402TIP3    H119212   3.820   1.187   0.274 -0.0523  1.3614  0.7130
 6402TIP3    H219213   3.728   1.079   0.327  0.0566  0.2641 -1.2385
 6403TIP3   OH219214   4.777   5.705   1.698  0.2088  0.3733  0.1604
 6403TIP3    H119215   4.757   5.766   1.626  0.2725  0.9171  0.6030
 6403TIP3    H219216   4.736   5.623   1.670 -0.0516  0.6655 -0.3491
 6404TIP3   OH219217   4.405   1.505   3.609  0.0924  0.4289 -0.2896
 6404TIP3    H119218   4.314   1.508   3.577  0.0883 -2.4313 -0.8578
 6404TIP3    H219219   4.458   1.518   3.532  0.0625 -2.9070 -1.0515
 6405TIP3   OH219220   2.938   0.450   3.572 -0.6797 -0.2659  0.3060
 6405TIP3    H119221   2.947   0.544   3.589 -0.1335 -0.2135 -0.2056
 6405TIP3    H219222   3.027   0.421   3.554 -0.7275 -1.0587  1.2709
 6406TIP3   OH219223   0.760   5.098   4.545  0.0874  0.2932 -0.6695
 6406TIP3    H119224   0.784   5.011   4.515 -0.9109  0.2727 -1.4713
 6406TIP3    H219225   0.700   5.082   4.618 -1.5123  0.2413 -1.9350
 6407TIP3   OH219226   5.620   5.071   0.553  0.4384 -1.1113 -0.2521
 6407TIP3    H119227   5.562   5.087   0.479  0.4392 -0.1022 -0.0598
 6407TIP3    H219228   5.706   5.101   0.522  0.4242 -0.6186  0.1660
 6408TIP3   OH219229   3.735   4.682   2.385  0.1335  0.2514 -0.2229
 6408TIP3    H119230   3.651   4.723   2.367 -0.1060  0.5169  1.3793
 6408TIP3    H219231   3.759   4.713   2.472  2.2518  0.7726 -0.9262
 6409TIP3   OH219232   0.522   2.578   3.911 -0.0644 -0.2865  0.6828
 6409TIP3    H119233   0.533   2.507   3.975 -1.6628  0.2874  1.6549
 6409TIP3    H219234   0.427   2.591   3.905 -0.0408 -0.7774 -2.3868
 6410TIP3   OH219235   2.603   4.782   2.277  0.7396 -0.6034  0.1579
 6410TIP3    H119236   2.532   4.729   2.314 -0.7812  1.7473  0.8077
 6410TIP3    H219237   2.638   4.831   2.352  0.9331  0.5874 -0.6825
 6411TIP3   OH219238   1.188   1.247   2.923  0.1091 -0.2582  0.2905
 6411TIP3    H119239   1.230   1.298   2.854  0.4414 -0.2927  0.4640
 6411TIP3    H219240   1.260   1.215   2.977 -0.0966 -0.8814  0.2061
 6412TIP3   OH219241   1.446   5.141   3.106  0.0929 -0.0812  0.1677
 6412TIP3    H119242   1.528   5.127   3.152 -0.7097  0.0033  1.6869
 6412TIP3    H219243   1.411   5.053   3.091 -0.8216 -0.0606  1.9802
 6413TIP3   OH219244   4.676   0.328   2.410  0.1838  0.0168 -0.0702
 6413TIP3    H119245   4.721   0.293   2.487 -1.9076 -2.1469  0.3034
 6413TIP3    H219246   4.583   0.324   2.433 -0.5360 -0.9161 -2.7418
 6414TIP3   OH219247   3.415   3.465   0.066 -0.2541 -0.0460 -1.1728
 6414TIP3    H119248   3.484   3.529   0.083 -1.5159  1.5064 -1.6286
 6414TIP3    H219249   3.457   3.398   0.013  1.0414  0.5548 -0.9500
 6415TIP3   OH219250   6.137   5.793   1.457 -0.2943 -0.3219 -0.2513
 6415TIP3    H119251   6.090   5.859   1.506 -0.7899 -0.5403 -0.4253
 6415TIP3    H219252   6.179   5.841   1.385 -0.6178 -0.1914 -0.3535
 6416TIP3   OH219253   1.585   3.066   1.654  0.2598  0.3510  0.2360
 6416TIP3    H119254   1.582   3.161   1.666 -0.2730  0.4380 -0.5210
 6416TIP3    H219255   1.594   3.053   1.560 -0.0762 -0.3554  0.2911
 6417TIP3   OH219256   0.124   3.174   2.428 -0.5562 -0.1405  0.3405
 6417TIP3    H119257   0.092   3.263   2.417  1.7697  0.7858  0.3719
 6417TIP3    H219258   0.064   3.120   2.378 -0.6176  1.7590 -1.7970
 6418TIP3   OH219259   4.103   3.361   2.007  0.3081  0.0188  0.6401
 6418TIP3    H119260   4.038   3.385   1.940  0.3755  1.1668  0.9659
 6418TIP3    H219261   4.177   3.327   1.957  1.0558  2.4301 -0.0716
 6419TIP3   OH219262   1.856   5.692   2.817 -0.1750  0.3236  0.7695
 6419TIP3    H119263   1.832   5.668   2.728 -0.1945 -0.0337  0.8655
 6419TIP3    H219264   1.883   5.783   2.812  0.7431  0.0363  0.2221
 6420TIP3   OH219265   3.375   0.092   1.378  0.0698  0.5118  0.3126
 6420TIP3    H119266   3.286   0.112   1.408 -0.9709 -1.1297 -1.3938
 6420TIP3    H219267   3.414   0.042   1.450 -0.0126  2.0355  1.4592
 6421TIP3   OH219268   2.363   0.366   4.863 -0.0369 -0.0964 -0.8598
 6421TIP3    H119269   2.293   0.319   4.818  1.3179 -1.7526 -1.3211
 6421TIP3    H219270   2.410   0.412   4.793  1.0658 -1.3402 -0.9731
 6422TIP3   OH219271   1.396   1.651   0.708  0.6045 -0.6088 -0.5987
 6422TIP3    H119272   1.474   1.595   0.710  1.0588  0.0081 -0.5534
 6422TIP3    H219273   1.370   1.660   0.799  0.8812 -0.2774 -0.5500
 6423TIP3   OH219274   0.143   5.091   3.312 -0.1506  0.4264  0.3249
 6423TIP3    H119275   0.050   5.087   3.336 -0.0605 -0.2330  0.6111
 6423TIP3    H219276   0.176   5.170   3.355 -0.7213  1.0085 -0.3065
 6424TIP3   OH219277   6.305   4.778   1.420  0.1502  0.1133 -0.0640
 6424TIP3    H119278   6.293   4.866   1.456 -0.8419 -0.0228 -0.0379
 6424TIP3    H219279   6.400   4.768   1.412  0.3054  0.8453  0.7651
 6425TIP3   OH219280   1.262   5.744   1.883  0.0979 -0.0658  0.3370
 6425TIP3    H119281   1.344   5.694   1.877  0.7294  0.9467  0.2396
 6425TIP3    H219282   1.205   5.704   1.817  0.2936 -1.1530  0.7971
 6426TIP3   OH219283   0.581   2.327   0.094  0.3484  0.0162  0.0058
 6426TIP3    H119284   0.522   2.251   0.099  1.2921 -0.8969 -1.7373
 6426TIP3    H219285   0.530   2.399   0.131 -0.7112 -1.3694  1.3985
 6427TIP3   OH219286   0.485   5.317   4.826 -0.3154  0.3896 -0.2828
 6427TIP3    H119287   0.430   5.293   4.901 -1.3844  0.4583 -1.0377
 6427TIP3    H219288   0.424   5.329   4.754  0.7289  0.0754 -1.2415
 6428TIP3   OH219289   1.987   3.119   4.322 -0.3327 -0.4930  0.1756
 6428TIP3    H119290   1.979   3.200   4.373  1.3752  0.0056 -0.2722
 6428TIP3    H219291   2.069   3.079   4.353  0.1401 -0.7643 -1.3311
 6429TIP3   OH219292   6.043   1.267   2.210  0.0947  0.4832 -0.0862
 6429TIP3    H119293   5.977   1.330   2.183 -0.6669 -0.2396  0.0384
 6429TIP3    H219294   6.126   1.308   2.189 -0.4145  1.0818 -0.9680
 6430TIP3   OH219295   1.877   4.269   3.725  0.0393 -0.0643 -0.0783
 6430TIP3    H119296   1.839   4.353   3.752  0.9164  0.4490 -0.4047
 6430TIP3    H219297   1.909   4.284   3.637  0.0606 -0.7990 -0.2037
 6431TIP3   OH219298   5.178   3.080   0.614  0.5488  0.3155 -0.5319
 6431TIP3    H119299   5.244   3.106   0.679 -1.7516 -0.6300  2.3998
 6431TIP3    H219300   5.223   3.015   0.560  2.4984  0.8587  0.3463
 6432TIP3   OH219301   1.590   4.056   1.044 -0.1338  0.6046  0.7584
 6432TIP3    H119302   1.543   3.996   1.103 -1.0008  1.1490  0.6334
 6432TIP3    H219303   1.528   4.075   0.975  0.1658  1.5817  0.7432
 6433TIP3   OH219304   5.469   2.327   0.363  0.0110 -0.3932 -0.1390
 6433TIP3    H119305   5.444   2.411   0.400  1.0146 -0.3618  0.4811
 6433TIP3    H219306   5.463   2.266   0.436  0.3252 -0.6610 -0.3353
 6434TIP3   OH219307   4.246   4.686   4.269 -0.1783  1.1009  0.1817
 6434TIP3    H119308   4.210   4.773   4.252  0.4426  1.8067  2.1594
 6434TIP3    H219309   4.293   4.696   4.352  0.3565 -1.0024  0.1764
 6435TIP3   OH219310   3.036   1.746   2.110 -0.2397  0.6662  0.2409
 6435TIP3    H119311   2.954   1.788   2.082  0.2960  2.3399  1.0519
 6435TIP3    H219312   3.070   1.704   2.031 -2.1314 -0.5544 -0.0045
 6436TIP3   OH219313   0.960   4.815   3.619 -0.1690 -0.2361  0.2147
 6436TIP3    H119314   1.037   4.778   3.576  0.7567  0.9242  0.8326
 6436TIP3    H219315   0.904   4.844   3.547 -0.7161 -2.3146 -0.2832
 6437TIP3   OH219316   5.496   3.135   4.323 -0.2441  0.8245 -0.3714
 6437TIP3    H119317   5.589   3.119   4.337 -0.6468 -1.4498  0.1779
 6437TIP3    H219318   5.491   3.170   4.234  1.0652 -0.0696 -0.8348
 6438TIP3   OH219319   0.753   5.188   0.545  0.5057 -0.3614 -0.1516
 6438TIP3    H119320   0.837   5.199   0.499 -0.2136 -0.8102 -1.6331
 6438TIP3    H219321   0.694   5.151   0.479 -1.0695  0.6124  0.6604
 6439TIP3   OH219322   4.334   1.249   3.121 -0.0400  0.2478  0.0819
 6439TIP3    H119323   4.311   1.339   3.144  1.5477  0.5538  0.5425
 6439TIP3    H219324   4.411   1.257   3.065  0.5313 -0.8482  0.6896
 6440TIP3   OH219325   2.173   5.130   2.438 -0.2686 -0.2183 -0.3209
 6440TIP3    H119326   2.091   5.080   2.442 -0.7541  0.6773  1.5592
 6440TIP3    H219327   2.235   5.078   2.488 -0.0923 -0.1721 -0.4921
 6441TIP3   OH219328   0.436   2.393   2.896  0.2367 -0.0106  0.3409
 6441TIP3    H119329   0.343   2.399   2.877  0.4427  0.6578 -0.4819
 6441TIP3    H219330   0.441   2.399   2.992 -0.5754 -0.2804  0.4058
 6442TIP3   OH219331   4.679   5.469   2.069  0.4397  0.2996  0.3065
 6442TIP3    H119332   4.616   5.539   2.060  1.2202  1.2723  1.8914
 6442TIP3    H219333   4.635   5.404   2.125  1.2985  1.7134  2.8049
 6443TIP3   OH219334   3.146   5.213   0.793 -0.7401 -0.1564  0.1615
 6443TIP3    H119335   3.092   5.136   0.775  0.0192 -0.4097 -1.1901
 6443TIP3    H219336   3.108   5.282   0.738 -2.0318  0.7646  2.0973
 6444TIP3   OH219337   3.817   1.537   4.123 -0.2439  0.3705 -0.3215
 6444TIP3    H119338   3.822   1.531   4.218 -0.5861  1.8470 -0.1888
 6444TIP3    H219339   3.761   1.463   4.097  1.3346 -1.1456  0.4229
 6445TIP3   OH219340   0.034   4.328   5.145 -0.1078  0.1769 -0.6548
 6445TIP3    H119341  -0.030   4.395   5.169 -0.6782 -0.3792 -0.5935
 6445TIP3    H219342   0.087   4.368   5.076 -1.4936  0.1118 -1.7858
 6446TIP3   OH219343   4.316   0.065   4.910 -0.1035 -0.0868  0.1229
 6446TIP3    H119344   4.264   0.112   4.974  0.8522 -2.0942  2.5289
 6446TIP3    H219345   4.267  -0.015   4.893  0.5968 -0.4631 -0.1686
 6447TIP3   OH219346   0.830   4.334   2.354 -0.2883  0.6331 -0.1072
 6447TIP3    H119347   0.752   4.357   2.405 -0.9949 -0.2431 -0.7619
 6447TIP3    H219348   0.804   4.349   2.263  0.7225  1.5020 -0.2643
 6448TIP3   OH219349   6.226   1.482   0.677  0.5418 -0.5166 -0.3268
 6448TIP3    H119350   6.219   1.407   0.618 -0.5295  0.3050 -1.2844
 6448TIP3    H219351   6.150   1.476   0.734  1.3095 -1.0281  0.6955
 6449TIP3   OH219352   2.772   0.025   0.923  0.3774 -0.7884  0.6984
 6449TIP3    H119353   2.756   0.077   0.844  2.0790 -1.8722 -0.4248
 6449TIP3    H219354   2.804  -0.059   0.890 -0.6340 -1.9463  2.5204
 6450TIP3   OH219355   0.764   2.895   2.450 -0.7631 -0.8650  0.3398
 6450TIP3    H119356   0.691   2.954   2.472 -0.8443 -1.2711  1.2032
 6450TIP3    H219357   0.762   2.889   2.355 -2.1299 -1.1861  0.3633
 6451TIP3   OH219358   6.334   1.356   1.304  0.3542 -0.4382 -0.2570
 6451TIP3    H119359   6.401   1.337   1.370 -0.8731 -0.0712  1.1582
 6451TIP3    H219360   6.262   1.297   1.326 -0.2626  0.0172 -1.0031
 6452TIP3   OH219361   0.619   1.749   2.237  0.1966 -0.5914  0.7563
 6452TIP3    H119362   0.591   1.836   2.265 -2.4274 -0.8765 -0.6850
 6452TIP3    H219363   0.698   1.764   2.185 -0.0720  0.9167  0.7597
 6453TIP3   OH219364   5.880   3.976   0.569  0.1018  0.2231 -0.3325
 6453TIP3    H119365   5.824   3.932   0.505 -0.7223 -0.0305  0.5458
 6453TIP3    H219366   5.906   4.057   0.526 -1.2481  0.5280 -0.6353
 6454TIP3   OH219367   0.254   0.577   3.614 -0.4322 -0.6204  0.5456
 6454TIP3    H119368   0.271   0.665   3.646  0.5641 -1.0707  1.3385
 6454TIP3    H219369   0.301   0.520   3.675 -0.3399 -1.6518 -0.4493
 6455TIP3   OH219370   4.949   5.665   4.033  0.3164  0.0172 -0.0541
 6455TIP3    H119371   4.935   5.609   4.109 -0.6881  0.5516  0.1601
 6455TIP3    H219372   5.038   5.699   4.044  1.4324 -2.3819 -0.7555
 6456TIP3   OH219373   4.284   5.479   1.616 -0.1672  0.0156 -0.1606
 6456TIP3    H119374   4.272   5.554   1.557 -0.3091 -0.8652 -1.2723
 6456TIP3    H219375   4.201   5.471   1.662 -0.1889  0.4646 -0.1121
 6457TIP3   OH219376   6.309   3.275   3.578 -0.2480  0.3168  0.3155
 6457TIP3    H119377   6.345   3.330   3.648 -0.7317  0.9927  0.0428
 6457TIP3    H219378   6.368   3.200   3.574  1.7447  1.8429 -0.7809
 6458TIP3   OH219379   0.023   2.873   2.861  0.0792  0.7376  0.1629
 6458TIP3    H119380   0.007   2.913   2.947  0.7662  0.1365  0.5805
 6458TIP3    H219381   0.010   2.945   2.799 -1.5389  0.9185  0.6560
 6459TIP3   OH219382   2.044   3.663   2.310  0.4360  0.4048  0.0141
 6459TIP3    H119383   2.006   3.609   2.379 -1.0049  0.1254 -0.9682
 6459TIP3    H219384   2.089   3.601   2.253 -1.7582  0.0943 -1.4674
 6460TIP3   OH219385   4.709   1.822   3.507  1.3561 -0.6278  0.1228
 6460TIP3    H119386   4.721   1.912   3.476 -2.0323  0.9561  2.7888
 6460TIP3    H219387   4.622   1.796   3.476  0.3752 -1.1905  2.9763
 6461TIP3   OH219388   1.533   2.328   0.891 -0.7366 -0.2336 -0.4406
 6461TIP3    H119389   1.507   2.321   0.982 -1.5268  0.9435 -0.5601
 6461TIP3    H219390   1.504   2.245   0.851 -1.4774 -0.2446  0.1114
 6462TIP3   OH219391   0.246   4.089   2.445 -0.6563 -0.3619  0.6143
 6462TIP3    H119392   0.333   4.049   2.444 -0.7872 -0.6544  0.2814
 6462TIP3    H219393   0.186   4.015   2.430 -0.9625 -0.1731  0.8999
 6463TIP3   OH219394   2.578   3.920   1.106 -0.3206 -0.1836  0.0180
 6463TIP3    H119395   2.555   3.834   1.070  1.1623 -1.0416  1.0390
 6463TIP3    H219396   2.495   3.954   1.140 -1.4009 -0.1581 -2.3885
 6464TIP3   OH219397   5.147   2.356   1.126 -0.0060 -0.0745  0.0896
 6464TIP3    H119398   5.162   2.316   1.040 -1.9363  0.4055 -0.5208
 6464TIP3    H219399   5.142   2.282   1.187 -2.0155 -0.7065 -0.7813
 6465TIP3   OH219400   2.850   4.223   3.435  0.2040 -0.0769  0.8635
 6465TIP3    H119401   2.939   4.191   3.447  1.4287  3.1416  1.4420
 6465TIP3    H219402   2.846   4.303   3.487 -2.9057  0.1688  0.4604
 6466TIP3   OH219403   4.512   0.060   3.843  0.0636 -0.1343 -0.2209
 6466TIP3    H119404   4.542   0.139   3.799  0.3880 -0.0233  0.1912
 6466TIP3    H219405   4.427   0.084   3.881  0.3225  0.1266  0.2016
 6467TIP3   OH219406   4.013   3.612   2.082 -0.2403  0.0597  0.0679
 6467TIP3    H119407   4.107   3.615   2.062 -0.3102 -0.9254 -0.4844
 6467TIP3    H219408   3.976   3.555   2.015 -1.5213  1.7426 -0.7097
 6468TIP3   OH219409   2.175   0.004   0.651  0.4147 -0.1283 -0.4057
 6468TIP3    H119410   2.102   0.004   0.589  0.1512  0.1673 -0.0973
 6468TIP3    H219411   2.253   0.012   0.596  0.1648  0.4757 -0.6759
 6469TIP3   OH219412   3.835   1.253   4.260 -0.1824 -0.6627 -1.0397
 6469TIP3    H119413   3.828   1.205   4.342 -1.6969 -0.7288 -1.1870
 6469TIP3    H219414   3.855   1.343   4.286 -0.0736 -0.8014 -0.6374
 6470TIP3   OH219415   0.495   5.542   3.704 -0.1875 -0.0667  0.7189
 6470TIP3    H119416   0.459   5.553   3.616  0.2637 -1.7768  0.2916
 6470TIP3    H219417   0.589   5.559   3.694  0.1202 -1.7374  0.5301
 6471TIP3   OH219418   1.373   5.737   2.180 -0.4441 -0.2333  0.4863
 6471TIP3    H119419   1.329   5.821   2.192  1.6464  0.7144  2.0654
 6471TIP3    H219420   1.305   5.672   2.195 -1.6120  1.1620  1.5178
 6472TIP3   OH219421   4.084   0.010   2.836 -0.2956  0.1667 -0.2772
 6472TIP3    H119422   4.100   0.001   2.930 -0.0515 -0.2240 -0.3535
 6472TIP3    H219423   4.038   0.093   2.828  0.4656  0.6388  0.0946
 6473TIP3   OH219424   0.632   4.099   3.829  0.0493  0.7221  0.3927
 6473TIP3    H119425   0.721   4.135   3.839  1.1391 -1.9821  1.5137
 6473TIP3    H219426   0.634   4.054   3.745  0.6403 -1.4083  1.4714
 6474TIP3   OH219427   4.854   2.485   0.226  0.2994  0.6130  0.1329
 6474TIP3    H119428   4.787   2.534   0.178 -0.2328  0.9342  1.1863
 6474TIP3    H219429   4.861   2.402   0.178 -0.4000  0.8254 -0.3585
 6475TIP3   OH219430   5.495   1.912   4.000 -0.3593  0.4988  0.0934
 6475TIP3    H119431   5.401   1.893   4.006 -0.3849  0.9248  1.5337
 6475TIP3    H219432   5.537   1.831   4.029 -0.1386 -0.6646 -3.0937
 6476TIP3   OH219433   1.691   0.122   3.581  0.6351 -0.4390 -0.3776
 6476TIP3    H119434   1.784   0.120   3.561  0.6013  1.0124 -0.7737
 6476TIP3    H219435   1.659   0.036   3.552  2.3347 -2.2665  2.6421
 6477TIP3   OH219436   1.948   0.533   3.831  0.4603  0.2250  0.7160
 6477TIP3    H119437   1.880   0.524   3.764 -0.7799 -0.8304  2.0416
 6477TIP3    H219438   2.022   0.484   3.796 -0.0497 -0.0479 -0.0257
 6478TIP3   OH219439   3.217   2.352   2.148  0.7663  0.0535  0.5587
 6478TIP3    H119440   3.260   2.386   2.226  0.6952 -0.8819  1.0205
 6478TIP3    H219441   3.125   2.344   2.172  1.1530 -3.0626  1.4734
 6479TIP3   OH219442   1.336   5.876   0.488  0.4995 -0.7544  0.5120
 6479TIP3    H119443   1.277   5.802   0.502  0.0018 -0.9290 -1.9942
 6479TIP3    H219444   1.280   5.954   0.495  0.2938 -0.8328 -0.1196
 6480TIP3   OH219445   3.359   4.402   1.089  0.0108  0.2017 -0.0647
 6480TIP3    H119446   3.336   4.391   1.182  0.0943  0.3739 -0.0224
 6480TIP3    H219447   3.422   4.474   1.089 -0.7791  0.9205 -0.3604
 6481TIP3   OH219448   3.600   4.483   4.242 -0.1261  0.3725 -0.1138
 6481TIP3    H119449   3.582   4.536   4.319  1.6207  2.0900 -0.8000
 6481TIP3    H219450   3.538   4.515   4.176 -1.2981 -0.7715  0.3901
 6482TIP3   OH219451   5.104   3.405   4.779  0.6424 -0.2727  0.0752
 6482TIP3    H119452   5.072   3.355   4.853  0.6319 -0.1452  0.1584
 6482TIP3    H219453   5.026   3.425   4.727  0.6397 -0.2972  0.0705
 6483TIP3   OH219454   4.806   5.393   0.187 -0.1599 -0.0610  0.5386
 6483TIP3    H119455   4.749   5.441   0.126  0.9429  2.2116  1.1973
 6483TIP3    H219456   4.777   5.420   0.274  1.5251  0.7637  0.8940
 6484TIP3   OH219457   1.532   5.102   4.731 -0.2333 -0.0548  0.1964
 6484TIP3    H119458   1.476   5.174   4.759  1.4867  1.0681  0.8901
 6484TIP3    H219459   1.502   5.027   4.783 -2.3237 -0.0030 -0.8470
 6485TIP3   OH219460   4.571   4.109   0.274 -0.5073  0.2292 -0.2552
 6485TIP3    H119461   4.574   4.107   0.370  0.4943 -0.2798 -0.2783
 6485TIP3    H219462   4.508   4.042   0.250  1.3353 -1.6962  0.0122
 6486TIP3   OH219463   4.686   1.948   3.852  0.2212  0.0503  0.6702
 6486TIP3    H119464   4.682   1.878   3.787  0.4788 -0.5522  1.2841
 6486TIP3    H219465   4.596   1.962   3.879  0.1013  0.3744  0.1186
 6487TIP3   OH219466   0.441   3.306   1.765  0.3277  0.3015 -0.1767
 6487TIP3    H119467   0.408   3.325   1.677 -1.7888 -4.2787 -0.6580
 6487TIP3    H219468   0.516   3.248   1.751 -0.3638 -0.9276  0.9638
 6488TIP3   OH219469   0.436   4.201   4.016  0.1989 -0.0673 -0.1577
 6488TIP3    H119470   0.393   4.284   4.038  0.8088 -0.2953  2.2895
 6488TIP3    H219471   0.472   4.214   3.929 -1.3213  1.5609 -0.5865
 6489TIP3   OH219472   5.948   3.363   3.374 -0.5912 -0.3656  0.1279
 6489TIP3    H119473   6.013   3.306   3.416 -0.3686 -0.7100 -0.6691
 6489TIP3    H219474   5.934   3.324   3.288  1.0165  1.8248 -1.2200
 6490TIP3   OH219475   3.915   2.902   1.257 -0.6580 -0.3525  0.1006
 6490TIP3    H119476   3.970   2.886   1.181 -0.7482  0.0049 -0.0422
 6490TIP3    H219477   3.948   2.842   1.324 -0.0398 -0.0783  0.0488
 6491TIP3   OH219478   3.694   4.410   1.403 -0.1946 -0.1257  0.4378
 6491TIP3    H119479   3.674   4.465   1.479  1.3416  1.5128 -0.2753
 6491TIP3    H219480   3.771   4.360   1.430  1.4761  1.7567 -0.5371
 6492TIP3   OH219481   4.406   4.191   3.118 -0.7351 -0.8223 -0.3242
 6492TIP3    H119482   4.464   4.223   3.049  0.5003 -2.2981 -0.0325
 6492TIP3    H219483   4.462   4.134   3.171 -1.8746 -0.4209  1.3820
 6493TIP3   OH219484   3.682   2.157   2.172  0.0930 -0.4216 -0.1158
 6493TIP3    H119485   3.731   2.117   2.100  0.8726 -1.7752  1.1313
 6493TIP3    H219486   3.591   2.159   2.140  0.6550  0.5377 -1.7692
 6494TIP3   OH219487   3.802   0.403   0.339  0.1656  0.0521  0.3911
 6494TIP3    H119488   3.835   0.314   0.348  1.6046  0.5333  0.1663
 6494TIP3    H219489   3.711   0.399   0.370  0.5542 -1.2496  1.4507
 6495TIP3   OH219490   2.426   3.260   2.106  0.5920 -0.6745 -0.0464
 6495TIP3    H119491   2.466   3.311   2.036 -1.2234  0.2592 -0.4776
 6495TIP3    H219492   2.456   3.301   2.187  0.5625 -0.0341 -0.3558
 6496TIP3   OH219493   0.417   3.885   0.195  0.2191  0.2964  0.0796
 6496TIP3    H119494   0.346   3.885   0.130  1.3520  1.4932 -1.2401
 6496TIP3    H219495   0.375   3.860   0.277 -1.8962  1.6961 -0.4925
 6497TIP3   OH219496   4.590   4.342   1.712  0.8393  0.1824 -0.4611
 6497TIP3    H119497   4.618   4.408   1.776  0.9646 -0.7425  0.4664
 6497TIP3    H219498   4.559   4.269   1.766 -2.6828  0.8295 -1.4203
 6498TIP3   OH219499   1.259   2.596   2.917 -0.9225 -0.2328  0.4510
 6498TIP3    H119500   1.258   2.515   2.969 -2.0382 -0.2117  0.4872
 6498TIP3    H219501   1.198   2.580   2.846 -1.1184  0.5664  0.4280
 6499TIP3   OH219502   4.521   1.052   4.422 -0.2140 -0.5610  0.1410
 6499TIP3    H119503   4.504   1.141   4.392 -0.8926 -0.3097  1.2306
 6499TIP3    H219504   4.590   1.062   4.488  1.4662 -1.1394 -1.4198
 6500TIP3   OH219505   0.496   1.246   3.480  0.0727 -0.7776  0.0169
 6500TIP3    H119506   0.447   1.300   3.419 -0.8898 -0.7800  0.7789
 6500TIP3    H219507   0.576   1.223   3.432 -0.1480  0.1437 -0.8225
 6501TIP3   OH219508   5.985   3.212   4.172 -0.2558  0.2365 -0.0976
 6501TIP3    H119509   5.958   3.236   4.261 -0.9492 -0.2433 -0.1732
 6501TIP3    H219510   6.039   3.285   4.143 -0.1538  0.4709  0.6591
 6502TIP3   OH219511   0.495   3.199   0.964 -0.0684  0.6661  0.7265
 6502TIP3    H119512   0.467   3.175   1.052  0.2970  0.9054  0.9112
 6502TIP3    H219513   0.455   3.134   0.907 -0.3353  0.5313  1.0666
 6503TIP3   OH219514   5.022   3.708   4.296 -0.1955  0.2812  0.6289
 6503TIP3    H119515   5.111   3.740   4.308  0.2974 -0.3772 -1.0558
 6503TIP3    H219516   4.967   3.782   4.323  0.8889  1.6785 -0.7982
 6504TIP3   OH219517   2.819   1.058   2.743  0.4248  0.1108 -0.1845
 6504TIP3    H119518   2.752   1.022   2.684  0.5894 -0.4782 -0.0187
 6504TIP3    H219519   2.772   1.123   2.796  0.3402  0.8769 -1.1689
 6505TIP3   OH219520   1.871   3.335   1.454 -0.8881  0.3415 -0.0357
 6505TIP3    H119521   1.881   3.405   1.518 -0.7026 -0.9394  1.3942
 6505TIP3    H219522   1.960   3.319   1.421 -0.7302 -0.0897  0.5957
 6506TIP3   OH219523   2.808   1.250   4.563 -0.0141  0.4563  0.3429
 6506TIP3    H119524   2.818   1.315   4.633  0.8851 -0.5041  1.1475
 6506TIP3    H219525   2.762   1.296   4.493 -0.2137  1.6804  1.2553
 6507TIP3   OH219526   3.815   5.245   4.871  0.4245  0.0167 -0.0551
 6507TIP3    H119527   3.794   5.323   4.821 -0.2346 -0.3660 -0.3893
 6507TIP3    H219528   3.910   5.249   4.884  0.3032  1.2510  0.5735
 6508TIP3   OH219529   1.266   4.941   2.067 -0.0543  0.9499 -0.5968
 6508TIP3    H119530   1.357   4.942   2.037 -0.0158  1.3651 -0.4764
 6508TIP3    H219531   1.271   4.907   2.156 -0.1693 -0.2876 -1.0525
 6509TIP3   OH219532   0.301   0.097   4.334  0.4004  0.3237 -0.0033
 6509TIP3    H119533   0.307   0.084   4.240 -1.7796  1.3326 -0.3483
 6509TIP3    H219534   0.210   0.078   4.356  0.5524  1.2743  1.6851
 6510TIP3   OH219535   0.037   0.746   3.985 -0.6486 -0.9442  0.4403
 6510TIP3    H119536   0.021   0.711   3.898 -1.1576 -0.3835  0.3000
 6510TIP3    H219537  -0.009   0.829   3.986  1.1602  0.1015  0.5122
 6511TIP3   OH219538   4.343   3.841   0.364 -0.0967 -0.0983 -0.0623
 6511TIP3    H119539   4.282   3.775   0.397  0.3578  0.0976  1.2181
 6511TIP3    H219540   4.380   3.803   0.285  0.0434 -1.3201  0.5685
 6512TIP3   OH219541   1.055   0.593   1.420  0.2395 -0.4602 -0.5100
 6512TIP3    H119542   1.089   0.602   1.330  0.2755 -0.3794 -0.4880
 6512TIP3    H219543   1.053   0.498   1.434  1.8718 -0.4497  0.0224
 6513TIP3   OH219544   4.073   2.263   1.027  0.2771  0.2504 -0.9711
 6513TIP3    H119545   4.111   2.351   1.019 -1.7854  1.4217  0.9496
 6513TIP3    H219546   3.989   2.269   0.981  0.2170 -0.8024 -1.0313
 6514TIP3   OH219547   0.856   1.480   3.705  0.4298  0.2621 -0.5159
 6514TIP3    H119548   0.903   1.399   3.687 -0.8531  0.0376 -3.2941
 6514TIP3    H219549   0.824   1.470   3.795  0.6746 -2.1164 -0.6366
 6515TIP3   OH219550   0.181   3.018   4.834 -0.4271 -0.5832 -0.1327
 6515TIP3    H119551   0.183   2.989   4.743  0.1916 -0.2232 -0.2443
 6515TIP3    H219552   0.235   2.954   4.880 -1.8048 -1.5265  0.2311
 6516TIP3   OH219553   4.286   4.922   2.156  0.3323  0.3910  0.1115
 6516TIP3    H119554   4.248   5.000   2.196  0.0165  0.4527 -0.3064
 6516TIP3    H219555   4.355   4.956   2.098  1.4147  0.2505  1.2732
 6517TIP3   OH219556   3.428   2.177   2.054  0.1109  0.1306 -0.3592
 6517TIP3    H119557   3.354   2.179   2.114  0.3658 -1.4022  0.0466
 6517TIP3    H219558   3.397   2.125   1.979  1.1744 -1.8362  0.4665
 6518TIP3   OH219559   6.122   4.485   3.552  0.8981  0.5090 -0.1244
 6518TIP3    H119560   6.191   4.523   3.606  1.1203 -0.4347  0.2748
 6518TIP3    H219561   6.114   4.395   3.583  0.8715  0.0148 -1.5065
 6519TIP3   OH219562   4.253   1.913   2.939  0.0690 -0.0721 -0.3219
 6519TIP3    H119563   4.178   1.963   2.970 -0.0185 -0.4423  0.0655
 6519TIP3    H219564   4.328   1.970   2.954  0.1393 -0.5604  1.3557
 6520TIP3   OH219565   4.485   5.917   0.066 -0.5627 -0.0035 -0.7187
 6520TIP3    H119566   4.516   5.920  -0.025 -0.6822  0.8316 -0.7318
 6520TIP3    H219567   4.560   5.944   0.118 -0.7834  0.4477 -0.6351
 6521TIP3   OH219568   1.342   5.456   2.002 -0.0837 -0.3391  0.0543
 6521TIP3    H119569   1.248   5.457   1.985 -0.2150 -0.2551  0.7727
 6521TIP3    H219570   1.350   5.466   2.097  0.6566 -0.1513 -0.0213
 6522TIP3   OH219571   2.214   5.283   1.762  0.0519  0.0440 -0.0380
 6522TIP3    H119572   2.140   5.330   1.724 -0.9897 -1.5331 -0.0500
 6522TIP3    H219573   2.195   5.279   1.856  0.2905 -0.0466  0.0081
 6523TIP3   OH219574   1.107   2.106   2.902  0.1458 -0.2188  0.2216
 6523TIP3    H119575   1.074   2.043   2.966 -1.3633  0.5637  0.2595
 6523TIP3    H219576   1.028   2.151   2.870  0.9795  0.2123 -1.3322
 6524TIP3   OH219577   5.396   5.109   4.959  0.3601 -0.0412  0.5895
 6524TIP3    H119578   5.454   5.068   4.895 -0.6758 -0.7533  0.0905
 6524TIP3    H219579   5.456   5.154   5.019  1.4516 -1.0178  0.2819
 6525TIP3   OH219580   5.478   0.125   4.464  0.3053 -0.5584 -0.2216
 6525TIP3    H119581   5.572   0.134   4.478  0.0072  1.6077  0.9538
 6525TIP3    H219582   5.451   0.054   4.523  1.0089 -0.2364  0.5073
 6526TIP3   OH219583   0.331   4.008   4.966  0.7728 -0.3070  0.3314
 6526TIP3    H119584   0.236   4.013   4.962  0.7905 -0.5575 -0.9615
 6526TIP3    H219585   0.350   3.931   5.018  0.2955  0.4569  1.6858
 6527TIP3   OH219586   3.406   5.302   1.235 -0.1801 -0.0655  0.9486
 6527TIP3    H119587   3.497   5.311   1.263 -0.1982  0.2610  0.9051
 6527TIP3    H219588   3.393   5.373   1.173  0.1900 -1.4246 -0.7951
 6528TIP3   OH219589   2.481   5.369   0.378 -0.0480 -0.0285 -0.6968
 6528TIP3    H119590   2.470   5.458   0.345  0.1898  0.0464 -0.5784
 6528TIP3    H219591   2.550   5.376   0.444 -1.1654 -0.0103  0.5013
 6529TIP3   OH219592   6.137   0.977   3.501  0.1507  0.2713 -0.3439
 6529TIP3    H119593   6.120   1.071   3.512 -0.1621  0.1399  0.3385
 6529TIP3    H219594   6.120   0.961   3.408  0.3236  0.9135 -0.4938
 6530TIP3   OH219595   3.655   4.715   4.453 -0.2887  0.2017  0.1281
 6530TIP3    H119596   3.701   4.732   4.371 -2.6733  0.7221 -1.1823
 6530TIP3    H219597   3.640   4.802   4.491  0.0810  0.0159  0.7147
 6531TIP3   OH219598   2.550   3.860   3.113 -0.3125  0.4201 -0.8846
 6531TIP3    H119599   2.557   3.904   3.197 -0.8841 -2.5269  0.8564
 6531TIP3    H219600   2.631   3.881   3.067  1.1620  0.1351  1.4616
 6532TIP3   OH219601   4.630   5.473   2.885 -0.5315  0.1910  0.1264
 6532TIP3    H119602   4.719   5.440   2.891 -0.5996 -0.3925 -1.5652
 6532TIP3    H219603   4.635   5.545   2.821 -1.4379 -0.5427 -0.8019
 6533TIP3   OH219604   0.578   0.935   3.615 -0.2171 -0.3493  0.2095
 6533TIP3    H119605   0.490   0.918   3.580 -0.9802  0.6642  1.5342
 6533TIP3    H219606   0.562   0.970   3.702  1.5171  0.0918  0.3742
 6534TIP3   OH219607   5.693   1.609   0.152  0.3887  0.3789 -0.2924
 6534TIP3    H119608   5.708   1.615   0.058 -0.5556  1.2695 -0.4077
 6534TIP3    H219609   5.648   1.690   0.174 -1.0875 -0.6258  0.5902
 6535TIP3   OH219610   2.644   2.952   1.480 -0.2907 -0.3981 -0.5457
 6535TIP3    H119611   2.600   2.967   1.396 -0.0819 -1.1431 -0.7979
 6535TIP3    H219612   2.617   3.026   1.535 -1.3981 -0.5443 -0.8773
 6536TIP3   OH219613   3.252   1.057   0.323 -0.3824  0.1469 -0.1141
 6536TIP3    H119614   3.239   1.070   0.229 -3.9191  0.8124  0.3124
 6536TIP3    H219615   3.275   0.965   0.332 -1.2539 -0.2524 -1.5957
 6537TIP3   OH219616   2.407   2.249   0.291  0.4160  0.0534 -0.3281
 6537TIP3    H119617   2.369   2.220   0.374  1.5684 -0.9373 -0.1253
 6537TIP3    H219618   2.347   2.317   0.260 -0.2562  0.1523  1.1085
 6538TIP3   OH219619   4.072   1.916   0.606  0.9193 -0.0242  0.6989
 6538TIP3    H119620   4.099   1.845   0.664  2.9882 -0.7153 -0.9552
 6538TIP3    H219621   4.036   1.872   0.529 -0.2478  0.8188  0.7396
 6539TIP3   OH219622   2.795   2.981   2.845  0.0321 -0.2158 -0.2960
 6539TIP3    H119623   2.861   2.913   2.832 -0.5472 -0.8097 -0.1716
 6539TIP3    H219624   2.712   2.934   2.851 -0.1801  0.3354  1.6728
 6540TIP3   OH219625   0.797   5.485   1.262 -0.2246  0.3182  0.3768
 6540TIP3    H119626   0.845   5.563   1.287 -1.7779  1.0209  1.3746
 6540TIP3    H219627   0.709   5.517   1.240 -0.7604 -1.0755  0.3607
 6541TIP3   OH219628   0.769   3.527   4.824 -0.0876  0.5709  0.4843
 6541TIP3    H119629   0.744   3.520   4.732 -4.0329  1.3466  1.3385
 6541TIP3    H219630   0.794   3.438   4.849 -1.0313 -0.0951 -0.8243
 6542TIP3   OH219631   5.731   2.576   1.114  0.2796  0.1576  0.4243
 6542TIP3    H119632   5.750   2.492   1.157 -2.4127 -0.1045  1.2853
 6542TIP3    H219633   5.719   2.638   1.185  0.1895  0.7825 -0.1216
 6543TIP3   OH219634   5.922   4.528   0.758 -0.1096  0.4973  0.3620
 6543TIP3    H119635   5.954   4.617   0.775  1.4774 -0.0637  0.4439
 6543TIP3    H219636   5.898   4.530   0.665  1.2056  0.6616  0.0013
 6544TIP3   OH219637   2.708   3.386   2.826 -0.4198 -1.2886 -0.2105
 6544TIP3    H119638   2.665   3.453   2.879  1.5519 -0.4875  0.4526
 6544TIP3    H219639   2.722   3.427   2.741  1.9218 -0.3030  0.5679
 6545TIP3   OH219640   0.345   0.315   1.094  0.6995 -0.0320  0.4734
 6545TIP3    H119641   0.415   0.306   1.029  0.2138 -1.4024  0.1079
 6545TIP3    H219642   0.264   0.305   1.044  0.1602  2.3508  0.7547
 6546TIP3   OH219643   4.017   2.494   2.572  0.0908  0.1965  0.1875
 6546TIP3    H119644   3.960   2.549   2.519 -1.6503 -1.7892 -0.1232
 6546TIP3    H219645   4.008   2.529   2.661 -3.4806 -1.3401  0.5780
 6547TIP3   OH219646   5.909   4.254   4.957  1.0547 -0.2108  0.1729
 6547TIP3    H119647   5.914   4.340   4.914 -2.4484  0.0040 -0.0746
 6547TIP3    H219648   5.896   4.274   5.049  1.4827 -0.5216  0.3024
 6548TIP3   OH219649   6.086   2.346   2.776 -0.4352  0.0089  0.0018
 6548TIP3    H119650   6.009   2.290   2.769 -0.3890 -0.0601  0.0389
 6548TIP3    H219651   6.107   2.346   2.869 -0.8062  0.5916  0.0911
 6549TIP3   OH219652   4.437   4.465   4.873  0.3135  0.5903  0.3892
 6549TIP3    H119653   4.435   4.456   4.968  0.1854 -1.3902  0.2513
 6549TIP3    H219654   4.345   4.460   4.847  0.2445  2.3048  0.2114
 6550TIP3   OH219655   3.322   2.826   0.700  0.0786  0.9348  0.4303
 6550TIP3    H119656   3.369   2.750   0.732 -0.4478 -0.0161 -0.9636
 6550TIP3    H219657   3.250   2.839   0.762  0.5017  0.6475  0.9826
 6551TIP3   OH219658   5.331   0.467   0.681  0.0060 -0.5312 -0.0441
 6551TIP3    H119659   5.305   0.400   0.743 -1.0963 -1.8930 -1.8611
 6551TIP3    H219660   5.404   0.428   0.633  2.1620  1.2525  1.5598
 6552TIP3   OH219661   5.094   1.886   3.949 -0.5972  0.2046 -0.0318
 6552TIP3    H119662   5.028   1.875   4.018 -2.7887  0.3378 -1.9484
 6552TIP3    H219663   5.166   1.829   3.975 -2.3038 -1.5012  1.2346
 6553TIP3   OH219664   1.144   1.088   1.870  0.2516 -0.0213 -0.0147
 6553TIP3    H119665   1.165   1.147   1.942 -0.9088  0.8346 -0.3325
 6553TIP3    H219666   1.133   1.003   1.911 -0.0274  0.3828  0.7829
 6554TIP3   OH219667   2.173   5.546   3.750  0.2319 -0.0826  0.4524
 6554TIP3    H119668   2.237   5.613   3.773  0.6542 -0.8587  1.6714
 6554TIP3    H219669   2.123   5.532   3.830 -0.0419 -0.9946  0.1415
 6555TIP3   OH219670   5.380   2.357   2.087 -0.1442  0.1116 -0.1028
 6555TIP3    H119671   5.446   2.331   2.152 -2.0372 -1.2201  1.3919
 6555TIP3    H219672   5.430   2.401   2.019  2.7175 -3.2411 -0.4537
 6556TIP3   OH219673   3.689   3.940   3.002 -0.0808 -0.0429 -0.4990
 6556TIP3    H119674   3.648   3.878   3.063 -0.8998  0.1691 -0.8189
 6556TIP3    H219675   3.757   3.983   3.054 -0.3920 -0.2624  0.1064
 6557TIP3   OH219676   4.604   4.368   0.505 -0.2601  0.2201 -0.1529
 6557TIP3    H119677   4.691   4.361   0.543 -0.2761  0.3638 -0.0893
 6557TIP3    H219678   4.571   4.453   0.535 -1.1403 -0.6028  1.3547
 6558TIP3   OH219679   3.005   5.674   0.422 -0.5402  0.2819  0.0813
 6558TIP3    H119680   2.929   5.651   0.370  0.5848 -2.0164 -0.6933
 6558TIP3    H219681   3.074   5.693   0.357 -0.6438  3.5107  0.7253
 6559TIP3   OH219682   4.779   0.383   2.991 -0.1815 -0.4407 -0.2397
 6559TIP3    H119683   4.848   0.367   2.926 -0.3516  1.9680 -1.1231
 6559TIP3    H219684   4.795   0.319   3.059  0.4151 -2.6581 -2.3373
 6560TIP3   OH219685   0.946   4.562   2.260  0.2288 -0.1706 -0.1372
 6560TIP3    H119686   0.987   4.548   2.174  1.0456 -0.9411  0.3710
 6560TIP3    H219687   0.932   4.474   2.295 -0.2239  0.1365  0.4682
 6561TIP3   OH219688   0.794   2.937   1.511 -0.2105 -0.1472  0.9823
 6561TIP3    H119689   0.728   2.990   1.557  0.5379 -0.2072  2.1842
 6561TIP3    H219690   0.825   2.993   1.440 -0.1734  0.6437  1.6080
 6562TIP3   OH219691   4.720   0.306   4.236 -0.0314 -0.3704  0.3358
 6562TIP3    H119692   4.795   0.262   4.276 -0.2169 -1.8976 -0.8866
 6562TIP3    H219693   4.751   0.333   4.150 -0.6381 -0.2733  0.1416
 6563TIP3   OH219694   1.193   5.453   4.100 -0.2116 -0.0923 -0.3820
 6563TIP3    H119695   1.239   5.450   4.015 -2.4241 -0.8847 -1.6422
 6563TIP3    H219696   1.100   5.456   4.076 -0.8641  1.9525  2.0338
 6564TIP3   OH219697   3.089   2.956   3.496  0.4629 -0.5476 -0.7211
 6564TIP3    H119698   3.164   2.960   3.555 -0.0050 -0.9978 -0.0840
 6564TIP3    H219699   3.013   2.966   3.553  0.0605  1.5155 -1.5466
 6565TIP3   OH219700   5.076   5.875   0.453 -0.0895 -0.4970 -0.7712
 6565TIP3    H119701   5.041   5.959   0.480 -0.1088 -1.0622  1.0716
 6565TIP3    H219702   5.072   5.820   0.531 -1.0144 -2.5430 -2.1653
 6566TIP3   OH219703   0.256   4.906   0.167 -0.1608 -0.2993 -0.0620
 6566TIP3    H119704   0.258   4.813   0.191 -0.8858 -0.4623 -0.5949
 6566TIP3    H219705   0.221   4.906   0.077  0.8071  0.4152 -0.4533
 6567TIP3   OH219706   4.200   3.560   2.740  0.1354  0.1540  0.1607
 6567TIP3    H119707   4.200   3.521   2.828  1.9405  1.2354  0.6905
 6567TIP3    H219708   4.198   3.486   2.681 -1.8181 -0.5971  1.0766
 6568TIP3   OH219709   3.725   2.719   0.993  0.4037  0.3844 -0.8572
 6568TIP3    H119710   3.809   2.765   0.994  1.3494 -1.2582 -0.4998
 6568TIP3    H219711   3.716   2.688   0.903  1.1409 -1.0635 -0.4544
 6569TIP3   OH219712   1.353   2.999   2.137  0.0914 -0.3743  0.0016
 6569TIP3    H119713   1.295   2.955   2.075  0.2848  1.4773 -1.5764
 6569TIP3    H219714   1.305   2.996   2.220 -1.7339 -0.0203 -0.9808
 6570TIP3   OH219715   3.214   2.551   4.439  0.6937 -0.2463 -0.2940
 6570TIP3    H119716   3.126   2.521   4.414  1.0530 -1.0215 -0.6993
 6570TIP3    H219717   3.245   2.598   4.362  1.4955 -1.9497 -1.0686
 6571TIP3   OH219718   3.489   4.988   3.142 -0.4717 -0.2528 -0.3707
 6571TIP3    H119719   3.532   5.012   3.224  1.3778 -0.2273 -1.2863
 6571TIP3    H219720   3.506   5.063   3.084 -0.8325 -0.7147 -1.0836
 6572TIP3   OH219721   1.135   4.950   3.371  0.2586  0.1938 -0.0331
 6572TIP3    H119722   1.161   4.878   3.428 -1.1376 -1.8451 -1.8006
 6572TIP3    H219723   1.212   5.007   3.367  1.3266 -1.0484  1.6273
 6573TIP3   OH219724   5.096   3.976   5.092  0.7373  0.7217 -0.0556
 6573TIP3    H119725   5.032   4.046   5.105 -1.0833 -1.0408  1.0399
 6573TIP3    H219726   5.061   3.926   5.018  1.5107  0.4248 -0.2265
 6574TIP3   OH219727   1.391   4.228   4.782 -0.3401  0.2136 -0.1743
 6574TIP3    H119728   1.348   4.159   4.832  0.5461 -0.8107 -0.7761
 6574TIP3    H219729   1.443   4.276   4.847  0.1786 -0.6047  0.0231
 6575TIP3   OH219730   5.121   0.250   1.391 -0.4212  0.0669  0.0812
 6575TIP3    H119731   5.099   0.182   1.454 -0.7876  0.0669 -0.0436
 6575TIP3    H219732   5.040   0.300   1.380 -1.9406 -2.7269 -3.8842
 6576TIP3   OH219733   3.424   5.011   2.606  0.8341  0.1405  0.7600
 6576TIP3    H119734   3.491   5.053   2.554 -0.5362 -0.6110 -1.8005
 6576TIP3    H219735   3.468   4.985   2.687  3.7633 -0.8315 -1.0138
 6577TIP3   OH219736   4.467   5.197   2.827 -0.0135  0.0408 -0.1356
 6577TIP3    H119737   4.400   5.187   2.760  0.6294  0.3455 -0.8419
 6577TIP3    H219738   4.493   5.289   2.821 -0.5733  0.3013  1.1513
 6578TIP3   OH219739   2.630   4.305   1.835  0.0117  0.0872  0.2636
 6578TIP3    H119740   2.618   4.393   1.870  0.8979 -0.2705  1.5379
 6578TIP3    H219741   2.668   4.255   1.907  0.1327 -1.1811 -0.6370
 6579TIP3   OH219742   4.420   4.407   1.482 -0.0661  0.5629 -0.8982
 6579TIP3    H119743   4.449   4.330   1.433  0.3942 -0.8240  1.3875
 6579TIP3    H219744   4.481   4.414   1.555 -1.9285  1.2109  0.7027
 6580TIP3   OH219745   4.548   0.540   1.574  0.4936 -0.0161 -0.2657
 6580TIP3    H119746   4.456   0.516   1.567 -0.3466  2.5578  0.9200
 6580TIP3    H219747   4.572   0.570   1.486 -0.3988  1.1154 -0.1412
 6581TIP3   OH219748   4.813   4.589   3.217  0.7128  0.4143  0.3611
 6581TIP3    H119749   4.822   4.540   3.298 -1.0445 -0.8553 -0.1578
 6581TIP3    H219750   4.748   4.656   3.236 -0.1278 -0.2456 -0.1251
 6582TIP3   OH219751   0.849   0.255   0.291  0.0554  0.2345  0.0907
 6582TIP3    H119752   0.792   0.327   0.320 -1.3321 -0.8413  0.1621
 6582TIP3    H219753   0.822   0.238   0.201 -0.0434 -0.5675  0.2639
 6583TIP3   OH219754   4.635   2.744   2.973  0.1470  0.1044 -0.5958
 6583TIP3    H119755   4.556   2.794   2.955 -0.0634 -0.4732 -1.3482
 6583TIP3    H219756   4.646   2.688   2.896  1.4757  0.4083 -0.6567
 6584TIP3   OH219757   1.224   2.398   0.570 -0.1064 -0.4814 -0.3739
 6584TIP3    H119758   1.144   2.370   0.526 -0.1554  0.6911 -1.0982
 6584TIP3    H219759   1.230   2.344   0.648 -1.0351 -1.3172 -0.8672
 6585TIP3   OH219760   4.752   2.269   1.586  0.6492 -0.3139 -0.2108
 6585TIP3    H119761   4.712   2.227   1.662 -2.4100  0.7649 -1.0854
 6585TIP3    H219762   4.762   2.198   1.522 -0.7503 -0.4634 -0.2780
 6586TIP3   OH219763   1.953   4.913   0.481  0.3898 -0.4190  0.3752
 6586TIP3    H119764   1.869   4.868   0.485  0.0078  0.2962  0.5300
 6586TIP3    H219765   1.940   4.983   0.417  0.0531  1.3009  2.2117
 6587TIP3   OH219766   5.179   3.239   2.100 -0.8603  0.1791  0.4425
 6587TIP3    H119767   5.254   3.260   2.045  0.5157 -0.8636  1.8318
 6587TIP3    H219768   5.125   3.182   2.046 -0.4413  0.5907 -0.4283
 6588TIP3   OH219769   5.107   0.036   3.408  0.0913 -0.2574  0.1344
 6588TIP3    H119770   5.164   0.081   3.347 -0.0583  0.1613  0.2981
 6588TIP3    H219771   5.164   0.007   3.479  0.1396 -0.0596  0.1755
 6589TIP3   OH219772   2.499   3.809   0.303 -0.5839 -0.0086  0.1627
 6589TIP3    H119773   2.453   3.849   0.230  0.3786  0.3421 -0.2750
 6589TIP3    H219774   2.452   3.839   0.381 -1.7556 -0.5683 -0.2994
 6590TIP3   OH219775   2.790   0.905   1.899 -0.2680 -0.4005 -0.3851
 6590TIP3    H119776   2.776   0.998   1.881  0.4474  0.1795  1.7095
 6590TIP3    H219777   2.854   0.904   1.970 -0.7110 -2.4869  0.0524
 6591TIP3   OH219778   3.021   0.348   1.263 -0.1201  0.2030 -0.2552
 6591TIP3    H119779   3.036   0.280   1.330 -0.3018  0.2543 -0.1603
 6591TIP3    H219780   3.012   0.299   1.182 -1.0634  0.0365 -0.0665
 6592TIP3   OH219781   6.230   5.548   0.538  0.4320  0.6398 -0.6289
 6592TIP3    H119782   6.291   5.574   0.469  2.7818 -0.1772  1.0332
 6592TIP3    H219783   6.276   5.566   0.619 -1.0445 -1.1803  0.7036
 6593TIP3   OH219784   6.020   3.552   4.538  0.3717 -0.2526  0.1424
 6593TIP3    H119785   6.106   3.568   4.575  0.6468 -0.4740 -0.3948
 6593TIP3    H219786   6.001   3.631   4.487  1.9433 -1.6898 -2.9169
 6594TIP3   OH219787   4.511   4.010   0.591  0.3334 -0.3288  0.0421
 6594TIP3    H119788   4.537   4.079   0.653  1.4007 -0.3085 -0.4050
 6594TIP3    H219789   4.594   3.981   0.553 -0.0777 -2.0062  0.3694
 6595TIP3   OH219790   1.622   2.963   3.969  0.1529  0.2940  0.4868
 6595TIP3    H119791   1.603   2.994   3.880  0.1967  1.1424  0.7605
 6595TIP3    H219792   1.696   2.903   3.959  0.7165  1.0466  0.0488
 6596TIP3   OH219793   6.197   3.112   2.970 -0.2268 -0.3388 -0.2698
 6596TIP3    H119794   6.247   3.193   2.977 -1.0404  0.1677 -0.1529
 6596TIP3    H219795   6.161   3.114   2.881  0.5250 -1.0517 -0.6081
 6597TIP3   OH219796   5.124   0.839   2.739  0.2748 -0.1138  0.0029
 6597TIP3    H119797   5.154   0.749   2.748 -0.7427 -0.2698  2.9826
 6597TIP3    H219798   5.205   0.891   2.737  0.8490 -1.0138 -0.5605
 6598TIP3   OH219799   2.536   2.875   2.469  0.1751  0.1699 -0.3825
 6598TIP3    H119800   2.464   2.935   2.449  1.6714  1.4045 -2.4452
 6598TIP3    H219801   2.534   2.811   2.398 -0.8569 -1.8055  1.3250
 6599TIP3   OH219802   3.347   2.106   0.262  0.2709  0.6860  0.1245
 6599TIP3    H119803   3.293   2.103   0.183 -0.8170  0.5792  0.8535
 6599TIP3    H219804   3.319   2.031   0.314 -0.6491  2.0033  1.6246
 6600TIP3   OH219805   5.603   4.380   0.786  0.3322 -0.2968  0.1970
 6600TIP3    H119806   5.606   4.389   0.691  0.2403 -0.9648  0.1250
 6600TIP3    H219807   5.694   4.365   0.812  0.2873 -0.6634  0.1513
 6601TIP3   OH219808   5.958   4.060   4.596  0.2412 -0.3840  0.1118
 6601TIP3    H119809   6.010   4.134   4.628  0.0272 -0.2594  0.1807
 6601TIP3    H219810   5.999   3.983   4.634  1.5787 -0.4645 -1.4295
 6602TIP3   OH219811   4.726   4.232   1.199 -0.0819  0.1529  0.0951
 6602TIP3    H119812   4.676   4.294   1.146  0.1214  0.8381  0.6891
 6602TIP3    H219813   4.660   4.181   1.246 -0.2506  1.1452  0.9826
 6603TIP3   OH219814   1.142   2.648   4.421 -0.0566 -0.6117  0.3389
 6603TIP3    H119815   1.137   2.571   4.364 -0.7427 -0.1872 -0.1880
 6603TIP3    H219816   1.195   2.711   4.372 -1.6987  0.2311 -0.4352
 6604TIP3   OH219817   2.892   1.884   3.525  0.1662  0.7010  0.6262
 6604TIP3    H119818   2.947   1.935   3.584 -0.0993  0.7477  0.8352
 6604TIP3    H219819   2.833   1.947   3.486  0.4813  0.7005  0.1496
 6605TIP3   OH219820   3.888   4.420   3.385 -0.0853  0.4258  0.5335
 6605TIP3    H119821   3.931   4.453   3.463  0.3331  1.4126 -0.0925
 6605TIP3    H219822   3.913   4.481   3.316  0.5068 -1.0747 -0.6356
 6606TIP3   OH219823   1.304   2.932   0.467 -0.0835  0.2111 -0.1390
 6606TIP3    H119824   1.226   2.985   0.484  0.5325  0.8351  0.8829
 6606TIP3    H219825   1.283   2.846   0.503 -0.2177  0.4462  0.3565
 6607TIP3   OH219826   2.165   1.731   0.348 -0.3882  0.3086  0.5113
 6607TIP3    H119827   2.136   1.657   0.295 -0.6007  0.7574 -0.0012
 6607TIP3    H219828   2.156   1.700   0.438 -0.2041 -0.3908  0.2948
 6608TIP3   OH219829   2.396   2.737   4.398  0.4505 -0.2216 -0.4613
 6608TIP3    H119830   2.306   2.705   4.400 -0.7196  2.7467 -0.2943
 6608TIP3    H219831   2.438   2.689   4.327 -0.4474 -3.5005  1.0645
 6609TIP3   OH219832   4.858   4.115   4.225 -0.1542  0.2024  0.2532
 6609TIP3    H119833   4.770   4.151   4.239 -0.6391  0.1954 -2.2443
 6609TIP3    H219834   4.855   4.029   4.266 -1.5598 -0.0516 -0.2993
 6610TIP3   OH219835   6.271   1.972   5.198 -0.0940 -0.4085  0.1306
 6610TIP3    H119836   6.249   2.012   5.114  0.0815 -0.4733  0.0513
 6610TIP3    H219837   6.367   1.974   5.201 -0.1185  0.8265  0.9297
 6611TIP3   OH219838   2.808   2.234   0.762 -0.7289 -0.7234  0.5705
 6611TIP3    H119839   2.784   2.223   0.670 -0.3805  0.6416  0.2864
 6611TIP3    H219840   2.752   2.306   0.792  1.2908  0.9781  0.5155
 6612TIP3   OH219841   5.883   3.890   1.392  0.0532  0.3868 -0.1172
 6612TIP3    H119842   5.942   3.845   1.332 -0.3081 -0.6726  0.3149
 6612TIP3    H219843   5.827   3.944   1.335 -0.5007 -0.8545 -0.7713
 6613TIP3   OH219844   5.462   1.428   4.045 -0.0532  0.0154 -0.1986
 6613TIP3    H119845   5.522   1.375   3.992  1.5910  1.2129  0.3650
 6613TIP3    H219846   5.375   1.400   4.018  0.7446 -1.3849 -1.4940
 6614TIP3   OH219847   4.946   0.373   0.435 -0.7470 -0.0041  0.3726
 6614TIP3    H119848   4.869   0.416   0.398 -0.8372 -0.4306  0.0630
 6614TIP3    H219849   4.990   0.442   0.485 -0.0306  0.8883 -1.4234
 6615TIP3   OH219850   3.400   2.254   1.645  0.1541  0.3710 -0.0268
 6615TIP3    H119851   3.411   2.327   1.706  1.0210  0.0366  0.2388
 6615TIP3    H219852   3.414   2.293   1.558  1.9490  0.2998  0.1927
 6616TIP3   OH219853   4.953   2.887   1.318 -0.2428 -0.1537 -0.1846
 6616TIP3    H119854   5.023   2.942   1.285 -0.8473  1.1871  0.6642
 6616TIP3    H219855   4.947   2.908   1.411 -0.7567 -1.3893  0.0935
 6617TIP3   OH219856   3.953   5.291   1.725 -0.1731  0.0691  0.4920
 6617TIP3    H119857   3.908   5.353   1.669  0.9557  0.6573  0.2157
 6617TIP3    H219858   3.989   5.225   1.665  1.8194  1.1884  0.3659
 6618TIP3   OH219859   1.253   5.585   4.706  0.2970 -0.1008  0.1623
 6618TIP3    H119860   1.182   5.545   4.657 -0.7578  1.2784  0.5082
 6618TIP3    H219861   1.273   5.665   4.659 -1.8326  2.1033  2.7091
 6619TIP3   OH219862   5.489   5.728   0.402 -0.0615 -0.2560  0.0888
 6619TIP3    H119863   5.469   5.646   0.449  0.2075 -0.3439  0.0531
 6619TIP3    H219864   5.406   5.754   0.363 -1.0219  1.3161  2.9001
 6620TIP3   OH219865   4.476   5.137   2.007  0.0728 -0.2052 -0.7488
 6620TIP3    H119866   4.452   5.177   1.924  1.1091  0.5448 -0.7111
 6620TIP3    H219867   4.497   5.046   1.985  1.4107  0.2558 -1.5388
 6621TIP3   OH219868   1.968   3.327   3.434 -0.4558 -0.0645 -0.6913
 6621TIP3    H119869   2.029   3.380   3.486  1.4364  0.5914 -3.3322
 6621TIP3    H219870   1.882   3.362   3.454  0.3304  1.0346  0.9631
 6622TIP3   OH219871   6.027   4.914   2.826 -0.0937 -0.1022  0.3399
 6622TIP3    H119872   6.026   4.840   2.765  1.1354  0.4552 -0.3900
 6622TIP3    H219873   6.064   4.878   2.906  0.8780 -0.2009 -0.1398
 6623TIP3   OH219874   5.266   4.675   4.139  0.0230  0.2014  0.0428
 6623TIP3    H119875   5.331   4.631   4.194  2.1647  3.9052  0.8042
 6623TIP3    H219876   5.189   4.684   4.195  1.2989  1.6720  1.6535
 6624TIP3   OH219877   0.543   1.107   1.442  0.2476 -0.4202 -0.5821
 6624TIP3    H119878   0.515   1.016   1.429  1.1964 -1.1694  2.0169
 6624TIP3    H219879   0.628   1.112   1.396  1.7058 -1.8459  1.7580
 6625TIP3   OH219880   3.907   1.203   1.246  0.3985 -0.2857  0.3814
 6625TIP3    H119881   3.941   1.130   1.194 -0.1886  0.0548 -0.4914
 6625TIP3    H219882   3.969   1.274   1.231 -0.7164  0.3801 -1.3236
 6626TIP3   OH219883   0.438   0.111   2.410 -0.0679  0.2055  0.1900
 6626TIP3    H119884   0.344   0.126   2.413  0.1506  1.9695 -0.6121
 6626TIP3    H219885   0.449   0.042   2.344 -0.8146 -0.4428  0.7221
 6627TIP3   OH219886   5.377   0.907   3.003  0.0622  0.2845  0.5097
 6627TIP3    H119887   5.459   0.895   2.955  0.8351 -1.0966  2.0715
 6627TIP3    H219888   5.319   0.839   2.968 -0.1684  0.7809 -0.0775
 6628TIP3   OH219889   5.879   1.193   1.798  0.2213  0.0538 -0.9542
 6628TIP3    H119890   5.837   1.120   1.843  1.5579 -0.8458 -1.1224
 6628TIP3    H219891   5.934   1.152   1.731  2.1749  1.0936 -0.0681
 6629TIP3   OH219892   3.507   4.565   2.568 -0.0583  0.0982 -0.2756
 6629TIP3    H119893   3.587   4.553   2.517  1.4971  1.6283  1.6695
 6629TIP3    H219894   3.489   4.478   2.605  0.3655 -0.3763 -1.1476
 6630TIP3   OH219895   0.313   0.476   1.323  0.0307  0.1468 -0.2693
 6630TIP3    H119896   0.380   0.541   1.301  1.0843 -0.9410 -0.4034
 6630TIP3    H219897   0.335   0.400   1.270  0.2521 -1.1410  1.5703
 6631TIP3   OH219898   2.384   5.276   2.272  0.4005  0.4762  0.5051
 6631TIP3    H119899   2.469   5.235   2.258 -0.3315 -0.3394 -2.1917
 6631TIP3    H219900   2.381   5.348   2.208 -1.2728 -0.1214 -0.1441
 6632TIP3   OH219901   5.309   0.400   3.360 -0.1688  0.7031 -0.1936
 6632TIP3    H119902   5.356   0.407   3.444  1.2340  1.7542 -1.0163
 6632TIP3    H219903   5.375   0.423   3.294 -1.4590  0.6909 -1.5371
 6633TIP3   OH219904   4.698   2.889   4.151 -0.0822 -0.2076  0.4987
 6633TIP3    H119905   4.675   2.796   4.140  0.5952 -0.5089  1.4645
 6633TIP3    H219906   4.653   2.915   4.231  1.5093 -0.3531  1.4966
 6634TIP3   OH219907   5.041   4.691   4.389 -0.2443  0.2732 -0.0424
 6634TIP3    H119908   5.031   4.728   4.476 -0.4366 -1.6528  0.7963
 6634TIP3    H219909   4.957   4.709   4.346 -0.9669 -0.6412  0.9399
 6635TIP3   OH219910   3.336   1.632   3.679 -0.0395 -0.1320 -0.0970
 6635TIP3    H119911   3.344   1.708   3.737 -0.0195  0.2631 -0.6158
 6635TIP3    H219912   3.407   1.642   3.616 -1.0735  0.3483 -1.2268
 6636TIP3   OH219913   3.169   2.923   2.003 -0.3168  0.5856 -0.2443
 6636TIP3    H119914   3.239   2.968   1.957 -1.2639  0.1369 -2.2338
 6636TIP3    H219915   3.100   2.990   2.013 -0.1838  0.6333  0.3890
 6637TIP3   OH219916   0.201   1.033   0.299 -0.0428  0.3592 -0.3728
 6637TIP3    H119917   0.263   1.012   0.229 -0.4742 -0.8291 -0.4286
 6637TIP3    H219918   0.246   1.098   0.353  0.2802  1.3354 -1.7612
 6638TIP3   OH219919   3.186   4.298   2.100  0.1474 -0.1745 -0.2126
 6638TIP3    H119920   3.214   4.357   2.029  1.6276  0.1142  0.5586
 6638TIP3    H219921   3.219   4.212   2.074  0.1468 -0.1874 -0.1704
 6639TIP3   OH219922   0.722   3.162   4.053  0.1170  0.5257  0.0160
 6639TIP3    H119923   0.805   3.158   4.006  0.3425 -0.2225  0.4652
 6639TIP3    H219924   0.689   3.072   4.052  0.0946  0.5023  1.2150
 6640TIP3   OH219925   5.900   3.180   2.267  0.4218  0.5506  0.3221
 6640TIP3    H119926   5.955   3.139   2.200 -1.1697 -1.0443 -0.1041
 6640TIP3    H219927   5.878   3.266   2.229 -0.8810 -0.5220 -1.5319
 6641TIP3   OH219928   5.325   3.513   3.186 -0.2515 -0.3837 -0.3253
 6641TIP3    H119929   5.364   3.480   3.267 -0.7463 -0.2536 -0.0251
 6641TIP3    H219930   5.349   3.449   3.120 -1.8048 -1.7606  0.3811
 6642TIP3   OH219931   0.271   2.304   5.131  0.5961  0.2598  0.0132
 6642TIP3    H119932   0.341   2.274   5.189 -0.8666  0.0269  1.7261
 6642TIP3    H219933   0.230   2.376   5.177 -0.3725  0.3292 -0.9130
 6643TIP3   OH219934   3.620   4.759   1.305 -0.5601  0.1033  0.2546
 6643TIP3    H119935   3.712   4.739   1.323 -0.0593  0.9171 -1.2404
 6643TIP3    H219936   3.600   4.709   1.226 -1.1890  0.5248  0.1452
 6644TIP3   OH219937   4.566   1.142   0.228  0.0502 -0.1737 -0.2350
 6644TIP3    H119938   4.500   1.115   0.164 -0.2223 -1.3202  0.4937
 6644TIP3    H219939   4.590   1.231   0.202 -2.0046  0.3915 -0.3491
 6645TIP3   OH219940   5.102   2.689   4.554 -0.1842 -0.2405  0.0784
 6645TIP3    H119941   5.007   2.681   4.554 -0.2169  0.0726 -0.8490
 6645TIP3    H219942   5.134   2.600   4.536 -0.3468 -0.0913 -1.0377
   6.34440   5.98156   5.18018   0.00000   0.00000  -2.11481   0.00000  -2.11481  -2.99077
