Title t= 159.00000 step= 79500
19927
    1ASP      N    1   1.690   0.355   3.016
    1ASP    HT1    2   1.612   0.289   2.998
    1ASP    HT2    3   1.655   0.432   3.075
    1ASP    HT3    4   1.764   0.308   3.071
    1ASP     CA    5   1.744   0.412   2.888
    1ASP     HA    6   1.826   0.343   2.873
    1ASP     CB    7   1.629   0.412   2.785
    1ASP    HB1    8   1.571   0.506   2.799
    1ASP    HB2    9   1.571   0.318   2.779
    1ASP     CG   10   1.687   0.422   2.643
    1ASP    OD1   11   1.813   0.429   2.621
    1ASP    OD2   12   1.610   0.419   2.548
    1ASP      C   13   1.813   0.549   2.919
    1ASP      O   14   1.845   0.591   3.026
    2ALA      N   15   1.856   0.616   2.816
    2ALA     HN   16   1.836   0.578   2.725
    2ALA     CA   17   1.941   0.733   2.817
    2ALA     HA   18   1.921   0.781   2.912
    2ALA     CB   19   2.087   0.708   2.811
    2ALA    HB1   20   2.114   0.658   2.716
    2ALA    HB2   21   2.118   0.640   2.892
    2ALA    HB3   22   2.159   0.791   2.826
    2ALA      C   23   1.890   0.837   2.716
    2ALA      O   24   1.819   0.806   2.622
    3ASP      N   25   1.926   0.964   2.736
    3ASP     HN   26   1.970   0.975   2.825
    3ASP     CA   27   1.887   1.080   2.666
    3ASP     HA   28   1.783   1.096   2.689
    3ASP     CB   29   1.956   1.211   2.716
    3ASP    HB1   30   1.920   1.296   2.654
    3ASP    HB2   31   2.065   1.194   2.717
    3ASP     CG   32   1.913   1.258   2.851
    3ASP    OD1   33   1.798   1.233   2.899
    3ASP    OD2   34   1.995   1.329   2.915
    3ASP      C   35   1.894   1.086   2.510
    3ASP      O   36   1.984   1.033   2.447
    4GLY      N   37   1.794   1.156   2.456
    4GLY     HN   38   1.721   1.188   2.515
    4GLY     CA   39   1.801   1.217   2.324
    4GLY    HA1   40   1.715   1.193   2.264
    4GLY    HA2   41   1.901   1.218   2.282
    4GLY      C   42   1.786   1.364   2.346
    4GLY      O   43   1.790   1.402   2.462
    5PRO      N   44   1.756   1.441   2.241
    5PRO     CD   45   1.788   1.406   2.102
    5PRO    HD1   46   1.707   1.343   2.060
    5PRO    HD2   47   1.885   1.351   2.098
    5PRO     CA   48   1.736   1.589   2.245
    5PRO     HA   49   1.824   1.638   2.284
    5PRO     CB   50   1.702   1.625   2.101
    5PRO    HB1   51   1.720   1.731   2.076
    5PRO    HB2   52   1.598   1.605   2.069
    5PRO     CG   53   1.796   1.538   2.024
    5PRO    HG1   54   1.760   1.514   1.921
    5PRO    HG2   55   1.898   1.579   2.036
    5PRO      C   56   1.620   1.610   2.348
    5PRO      O   57   1.528   1.525   2.350
    6GLY      N   58   1.623   1.709   2.440
    6GLY     HN   59   1.702   1.770   2.438
    6GLY     CA   60   1.514   1.744   2.527
    6GLY    HA1   61   1.530   1.839   2.576
    6GLY    HA2   62   1.497   1.662   2.595
    6GLY      C   63   1.378   1.759   2.468
    6GLY      O   64   1.358   1.782   2.347
    7ASP      N   65   1.270   1.769   2.548
    7ASP     HN   66   1.277   1.752   2.646
    7ASP     CA   67   1.144   1.823   2.503
    7ASP     HA   68   1.120   1.788   2.404
    7ASP     CB   69   1.037   1.766   2.597
    7ASP    HB1   70   1.053   1.794   2.703
    7ASP    HB2   71   1.051   1.656   2.601
    7ASP     CG   72   0.894   1.768   2.555
    7ASP    OD1   73   0.866   1.797   2.440
    7ASP    OD2   74   0.805   1.735   2.643
    7ASP      C   75   1.130   1.976   2.527
    7ASP      O   76   1.177   2.021   2.629
    8PRO      N   77   1.069   2.056   2.438
    8PRO     CD   78   1.054   2.036   2.294
    8PRO    HD1   79   0.968   1.968   2.276
    8PRO    HD2   80   1.149   1.988   2.261
    8PRO     CA   81   1.052   2.194   2.464
    8PRO     HA   82   1.152   2.234   2.461
    8PRO     CB   83   0.969   2.249   2.347
    8PRO    HB1   84   0.986   2.358   2.332
    8PRO    HB2   85   0.867   2.211   2.370
    8PRO     CG   86   1.034   2.168   2.234
    8PRO    HG1   87   0.979   2.170   2.137
    8PRO    HG2   88   1.127   2.222   2.207
    8PRO      C   89   0.987   2.239   2.597
    8PRO      O   90   0.883   2.180   2.640
    9ASP      N   91   1.045   2.342   2.665
    9ASP     HN   92   1.120   2.394   2.623
    9ASP     CA   93   1.015   2.388   2.797
    9ASP     HA   94   1.028   2.306   2.865
    9ASP     CB   95   1.111   2.492   2.840
    9ASP    HB1   96   1.065   2.540   2.930
    9ASP    HB2   97   1.120   2.565   2.757
    9ASP     CG   98   1.244   2.448   2.878
    9ASP    OD1   99   1.285   2.333   2.876
    9ASP    OD2  100   1.323   2.542   2.927
    9ASP      C  101   0.872   2.440   2.809
    9ASP      O  102   0.827   2.516   2.724
   10ALA      N  103   0.799   2.403   2.916
   10ALA     HN  104   0.823   2.338   2.988
   10ALA     CA  105   0.661   2.464   2.940
   10ALA     HA  106   0.621   2.488   2.843
   10ALA     CB  107   0.556   2.372   3.013
   10ALA    HB1  108   0.572   2.377   3.123
   10ALA    HB2  109   0.569   2.264   2.992
   10ALA    HB3  110   0.460   2.418   2.980
   10ALA      C  111   0.680   2.598   3.013
   10ALA      O  112   0.775   2.612   3.081
   11GLY      N  113   0.587   2.697   3.001
   11GLY     HN  114   0.502   2.674   2.954
   11GLY     CA  115   0.613   2.829   3.064
   11GLY    HA1  116   0.712   2.868   3.044
   11GLY    HA2  117   0.585   2.820   3.168
   11GLY      C  118   0.525   2.930   3.002
   11GLY    OT1  119   0.404   2.945   3.030
   11GLY    OT2  120   0.583   3.010   2.917
   12SOD    SOD  121   5.354   2.350   4.317
   13SOD    SOD  122  -0.003   2.214   4.578
   14SOD    SOD  123   0.864   0.186   3.066
   15SOD    SOD  124   0.136   1.773   0.933
   16SOD    SOD  125   0.848   3.363   2.746
   17SOD    SOD  126   2.650   2.211   4.974
   18SOD    SOD  127   1.150   3.258   0.911
   19SOD    SOD  128   1.784   1.389   0.452
   20SOD    SOD  129   0.410   5.521   2.184
   21SOD    SOD  130   3.912   3.536   2.756
   22SOD    SOD  131   0.382   3.068   2.586
   23SOD    SOD  132   1.947   5.009   2.098
   24SOD    SOD  133   3.156   0.684   3.512
   25SOD    SOD  134   4.047   5.920   1.879
   26SOD    SOD  135   0.012   4.415   1.571
   27SOD    SOD  136   0.319   3.420   3.646
   28SOD    SOD  137   3.356   0.382   4.950
   29SOD    SOD  138   6.283   2.399   0.353
   30SOD    SOD  139   1.862   1.572   3.700
   31SOD    SOD  140   2.850   3.549   0.906
   32SOD    SOD  141   1.005   4.059   4.731
   33SOD    SOD  142   5.342   0.684   3.578
   34CLA    CLA  143   0.672   3.980   4.410
   35CLA    CLA  144   0.080   2.110   1.760
   36CLA    CLA  145   5.731   5.881   2.944
   37CLA    CLA  146   2.077   3.882   2.538
   38CLA    CLA  147   3.019   2.884   5.112
   39CLA    CLA  148   3.029   5.277   1.822
   40CLA    CLA  149   3.555   3.359   0.083
   41CLA    CLA  150   5.595   2.162   4.885
   42CLA    CLA  151   4.082   0.278   5.023
   43CLA    CLA  152   4.956   4.506   2.717
   44CLA    CLA  153   4.098   1.312   0.327
   45CLA    CLA  154   6.338   2.729   3.678
   46CLA    CLA  155   5.463   0.068   1.303
   47CLA    CLA  156   0.290   1.073   1.201
   48CLA    CLA  157   4.427   0.905   3.313
   49CLA    CLA  158   5.744   3.778   2.203
   50CLA    CLA  159   5.027   0.981   4.059
   51CLA    CLA  160   3.320   4.647   4.509
   52TIP3   OH2  161   5.655   1.784   0.390
   52TIP3    H1  162   5.660   1.847   0.318
   52TIP3    H2  163   5.598   1.715   0.358
   53TIP3   OH2  164   1.237   2.807   0.021
   53TIP3    H1  165   1.196   2.885  -0.017
   53TIP3    H2  166   1.303   2.781  -0.043
   54TIP3   OH2  167   4.385   4.132   4.054
   54TIP3    H1  168   4.339   4.084   4.122
   54TIP3    H2  169   4.462   4.167   4.098
   55TIP3   OH2  170   4.113   4.226   1.195
   55TIP3    H1  171   4.184   4.188   1.142
   55TIP3    H2  172   4.155   4.248   1.278
   56TIP3   OH2  173   5.114   5.377   0.346
   56TIP3    H1  174   5.165   5.301   0.373
   56TIP3    H2  175   5.180   5.444   0.324
   57TIP3   OH2  176   2.577   2.538   2.748
   57TIP3    H1  177   2.643   2.586   2.798
   57TIP3    H2  178   2.593   2.446   2.770
   58TIP3   OH2  179   3.473   4.502   3.116
   58TIP3    H1  180   3.443   4.416   3.088
   58TIP3    H2  181   3.526   4.534   3.043
   59TIP3   OH2  182   4.455   5.917   0.837
   59TIP3    H1  183   4.510   5.859   0.891
   59TIP3    H2  184   4.453   6.000   0.885
   60TIP3   OH2  185   4.429   1.093   0.613
   60TIP3    H1  186   4.423   1.150   0.537
   60TIP3    H2  187   4.414   1.151   0.688
   61TIP3   OH2  188   6.228   4.310   3.992
   61TIP3    H1  189   6.323   4.310   4.005
   61TIP3    H2  190   6.217   4.310   3.897
   62TIP3   OH2  191   3.063   5.448   3.738
   62TIP3    H1  192   2.974   5.480   3.755
   62TIP3    H2  193   3.117   5.489   3.805
   63TIP3   OH2  194   2.529   5.490   2.631
   63TIP3    H1  195   2.479   5.550   2.687
   63TIP3    H2  196   2.556   5.420   2.690
   64TIP3   OH2  197   1.871   1.915   2.344
   64TIP3    H1  198   1.790   1.952   2.308
   64TIP3    H2  199   1.855   1.909   2.438
   65TIP3   OH2  200   1.899   5.573   5.071
   65TIP3    H1  201   1.936   5.555   4.984
   65TIP3    H2  202   1.914   5.666   5.084
   66TIP3   OH2  203   3.192   1.302   0.862
   66TIP3    H1  204   3.236   1.324   0.780
   66TIP3    H2  205   3.106   1.342   0.854
   67TIP3   OH2  206   0.440   1.086   0.657
   67TIP3    H1  207   0.484   1.131   0.729
   67TIP3    H2  208   0.358   1.134   0.646
   68TIP3   OH2  209   2.346   4.188   1.796
   68TIP3    H1  210   2.387   4.195   1.883
   68TIP3    H2  211   2.342   4.094   1.779
   69TIP3   OH2  212   4.403   3.723   4.226
   69TIP3    H1  213   4.376   3.760   4.310
   69TIP3    H2  214   4.465   3.786   4.190
   70TIP3   OH2  215   1.614   3.252   1.741
   70TIP3    H1  216   1.614   3.159   1.763
   70TIP3    H2  217   1.675   3.292   1.803
   71TIP3   OH2  218   1.232   4.239   3.935
   71TIP3    H1  219   1.228   4.149   3.967
   71TIP3    H2  220   1.141   4.267   3.930
   72TIP3   OH2  221   2.249   3.048   3.765
   72TIP3    H1  222   2.227   2.971   3.817
   72TIP3    H2  223   2.333   3.026   3.725
   73TIP3   OH2  224   3.563   3.087   3.600
   73TIP3    H1  225   3.641   3.125   3.559
   73TIP3    H2  226   3.521   3.161   3.644
   74TIP3   OH2  227   6.062   2.147   1.323
   74TIP3    H1  228   6.131   2.146   1.258
   74TIP3    H2  229   6.093   2.089   1.392
   75TIP3   OH2  230   2.014   2.373   4.528
   75TIP3    H1  231   2.007   2.420   4.611
   75TIP3    H2  232   2.049   2.287   4.551
   76TIP3   OH2  233   2.304   2.111   3.606
   76TIP3    H1  234   2.374   2.064   3.652
   76TIP3    H2  235   2.302   2.197   3.648
   77TIP3   OH2  236   1.626   2.816   3.521
   77TIP3    H1  237   1.605   2.907   3.500
   77TIP3    H2  238   1.691   2.792   3.455
   78TIP3   OH2  239   3.271   1.812   3.805
   78TIP3    H1  240   3.336   1.743   3.802
   78TIP3    H2  241   3.253   1.823   3.899
   79TIP3   OH2  242   0.137   3.431   4.057
   79TIP3    H1  243   0.183   3.362   4.105
   79TIP3    H2  244   0.154   3.511   4.106
   80TIP3   OH2  245   1.182   0.750   0.357
   80TIP3    H1  246   1.139   0.790   0.282
   80TIP3    H2  247   1.193   0.822   0.420
   81TIP3   OH2  248   5.445   4.024   1.346
   81TIP3    H1  249   5.361   4.070   1.337
   81TIP3    H2  250   5.420   3.936   1.376
   82TIP3   OH2  251   4.853   0.910   1.730
   82TIP3    H1  252   4.946   0.891   1.715
   82TIP3    H2  253   4.817   0.922   1.642
   83TIP3   OH2  254   4.222   0.738   2.828
   83TIP3    H1  255   4.180   0.660   2.791
   83TIP3    H2  256   4.171   0.811   2.792
   84TIP3   OH2  257   2.895   0.591   3.176
   84TIP3    H1  258   2.907   0.609   3.083
   84TIP3    H2  259   2.847   0.509   3.179
   85TIP3   OH2  260   2.316   0.611   1.800
   85TIP3    H1  261   2.272   0.690   1.770
   85TIP3    H2  262   2.246   0.549   1.819
   86TIP3   OH2  263   3.635   1.090   4.339
   86TIP3    H1  264   3.714   1.054   4.381
   86TIP3    H2  265   3.637   1.183   4.359
   87TIP3   OH2  266   3.099   4.446   1.498
   87TIP3    H1  267   3.143   4.364   1.478
   87TIP3    H2  268   3.096   4.450   1.593
   88TIP3   OH2  269   1.397   0.567   2.462
   88TIP3    H1  270   1.453   0.505   2.509
   88TIP3    H2  271   1.453   0.643   2.447
   89TIP3   OH2  272   1.935   3.704   3.256
   89TIP3    H1  273   1.962   3.636   3.318
   89TIP3    H2  274   2.003   3.771   3.264
   90TIP3   OH2  275   0.818   0.135   1.272
   90TIP3    H1  276   0.877   0.101   1.204
   90TIP3    H2  277   0.730   0.120   1.237
   91TIP3   OH2  278   0.202   3.470   3.069
   91TIP3    H1  279   0.172   3.444   2.983
   91TIP3    H2  280   0.290   3.432   3.076
   92TIP3   OH2  281   5.691   5.622   1.394
   92TIP3    H1  282   5.688   5.703   1.445
   92TIP3    H2  283   5.770   5.577   1.426
   93TIP3   OH2  284   2.390   5.188   3.170
   93TIP3    H1  285   2.483   5.196   3.148
   93TIP3    H2  286   2.367   5.099   3.142
   94TIP3   OH2  287   0.701   5.855   2.270
   94TIP3    H1  288   0.715   5.761   2.257
   94TIP3    H2  289   0.781   5.896   2.236
   95TIP3   OH2  290   0.103   2.185   4.045
   95TIP3    H1  291   0.166   2.138   4.100
   95TIP3    H2  292   0.019   2.143   4.065
   96TIP3   OH2  293   2.715   3.546   4.547
   96TIP3    H1  294   2.713   3.590   4.462
   96TIP3    H2  295   2.626   3.515   4.560
   97TIP3   OH2  296   0.974   5.688   4.280
   97TIP3    H1  297   0.944   5.683   4.189
   97TIP3    H2  298   0.917   5.754   4.321
   98TIP3   OH2  299   0.745   4.346   1.437
   98TIP3    H1  300   0.773   4.436   1.453
   98TIP3    H2  301   0.656   4.354   1.402
   99TIP3   OH2  302   5.364   0.597   0.726
   99TIP3    H1  303   5.426   0.662   0.759
   99TIP3    H2  304   5.399   0.572   0.640
  100TIP3   OH2  305   5.542   5.738   0.344
  100TIP3    H1  306   5.538   5.801   0.272
  100TIP3    H2  307   5.594   5.666   0.311
  101TIP3   OH2  308   2.806   0.118   3.355
  101TIP3    H1  309   2.773   0.028   3.344
  101TIP3    H2  310   2.901   0.108   3.362
  102TIP3   OH2  311   4.650   2.884   4.472
  102TIP3    H1  312   4.584   2.943   4.509
  102TIP3    H2  313   4.734   2.922   4.500
  103TIP3   OH2  314   5.497   5.271   3.383
  103TIP3    H1  315   5.463   5.197   3.433
  103TIP3    H2  316   5.502   5.239   3.293
  104TIP3   OH2  317   0.733   0.397   1.303
  104TIP3    H1  318   0.787   0.318   1.300
  104TIP3    H2  319   0.796   0.469   1.313
  105TIP3   OH2  320   5.026   5.576   2.324
  105TIP3    H1  321   5.076   5.641   2.275
  105TIP3    H2  322   5.028   5.498   2.269
  106TIP3   OH2  323   0.841   3.113   0.977
  106TIP3    H1  324   0.854   3.019   0.964
  106TIP3    H2  325   0.901   3.136   1.048
  107TIP3   OH2  326   1.188   3.013   0.619
  107TIP3    H1  327   1.178   2.969   0.703
  107TIP3    H2  328   1.231   3.096   0.640
  108TIP3   OH2  329   4.871   2.050   2.686
  108TIP3    H1  330   4.965   2.048   2.666
  108TIP3    H2  331   4.839   1.965   2.658
  109TIP3   OH2  332   4.876   1.457   2.597
  109TIP3    H1  333   4.794   1.429   2.556
  109TIP3    H2  334   4.862   1.441   2.691
  110TIP3   OH2  335   0.946   2.086   3.804
  110TIP3    H1  336   0.968   2.002   3.764
  110TIP3    H2  337   0.852   2.080   3.823
  111TIP3   OH2  338   6.328   3.161   1.455
  111TIP3    H1  339   6.245   3.202   1.431
  111TIP3    H2  340   6.332   3.081   1.403
  112TIP3   OH2  341   3.169   1.469   3.871
  112TIP3    H1  342   3.191   1.422   3.790
  112TIP3    H2  343   3.090   1.518   3.849
  113TIP3   OH2  344   2.486   3.627   2.880
  113TIP3    H1  345   2.419   3.575   2.835
  113TIP3    H2  346   2.492   3.589   2.967
  114TIP3   OH2  347   4.221   5.845   3.154
  114TIP3    H1  348   4.157   5.875   3.089
  114TIP3    H2  349   4.179   5.770   3.196
  115TIP3   OH2  350   6.060   4.088   3.538
  115TIP3    H1  351   6.005   4.058   3.465
  115TIP3    H2  352   6.011   4.062   3.616
  116TIP3   OH2  353   0.899  -0.017   3.483
  116TIP3    H1  354   0.818  -0.039   3.437
  116TIP3    H2  355   0.934   0.058   3.436
  117TIP3   OH2  356   3.011   1.845   3.022
  117TIP3    H1  357   3.034   1.808   2.937
  117TIP3    H2  358   3.073   1.805   3.084
  118TIP3   OH2  359   4.918   5.270   0.577
  118TIP3    H1  360   4.992   5.281   0.517
  118TIP3    H2  361   4.959   5.258   0.663
  119TIP3   OH2  362   4.143   3.942   4.177
  119TIP3    H1  363   4.132   3.883   4.251
  119TIP3    H2  364   4.076   4.010   4.191
  120TIP3   OH2  365   2.900   0.615   0.626
  120TIP3    H1  366   2.831   0.615   0.692
  120TIP3    H2  367   2.906   0.707   0.599
  121TIP3   OH2  368   1.384   5.917   0.426
  121TIP3    H1  369   1.372   6.009   0.406
  121TIP3    H2  370   1.385   5.873   0.341
  122TIP3   OH2  371   0.149   1.868   4.210
  122TIP3    H1  372   0.215   1.936   4.198
  122TIP3    H2  373   0.200   1.787   4.219
  123TIP3   OH2  374   3.630   2.301   2.977
  123TIP3    H1  375   3.633   2.209   3.000
  123TIP3    H2  376   3.698   2.342   3.030
  124TIP3   OH2  377   4.101   5.638   2.833
  124TIP3    H1  378   4.147   5.563   2.872
  124TIP3    H2  379   4.154   5.714   2.858
  125TIP3   OH2  380   4.256   0.274   2.266
  125TIP3    H1  381   4.180   0.314   2.224
  125TIP3    H2  382   4.242   0.287   2.360
  126TIP3   OH2  383   2.213   1.437   0.740
  126TIP3    H1  384   2.261   1.354   0.742
  126TIP3    H2  385   2.175   1.445   0.827
  127TIP3   OH2  386   4.546   1.032   2.610
  127TIP3    H1  387   4.622   1.034   2.667
  127TIP3    H2  388   4.514   0.942   2.616
  128TIP3   OH2  389   6.304   1.304   1.965
  128TIP3    H1  390   6.278   1.221   1.926
  128TIP3    H2  391   6.308   1.286   2.059
  129TIP3   OH2  392   4.463   3.828   3.906
  129TIP3    H1  393   4.372   3.801   3.916
  129TIP3    H2  394   4.463   3.886   3.830
  130TIP3   OH2  395   3.601   4.796   1.213
  130TIP3    H1  396   3.687   4.799   1.170
  130TIP3    H2  397   3.620   4.816   1.305
  131TIP3   OH2  398   0.675   5.323   4.607
  131TIP3    H1  399   0.681   5.400   4.550
  131TIP3    H2  400   0.732   5.259   4.567
  132TIP3   OH2  401   5.484   0.598   4.789
  132TIP3    H1  402   5.413   0.536   4.802
  132TIP3    H2  403   5.558   0.561   4.837
  133TIP3   OH2  404   0.019   0.833   4.882
  133TIP3    H1  405   0.005   0.753   4.932
  133TIP3    H2  406   0.104   0.821   4.840
  134TIP3   OH2  407   0.034   3.287   0.672
  134TIP3    H1  408   0.009   3.221   0.607
  134TIP3    H2  409  -0.049   3.321   0.705
  135TIP3   OH2  410   5.012   5.696   3.986
  135TIP3    H1  411   4.964   5.677   3.905
  135TIP3    H2  412   4.956   5.758   4.033
  136TIP3   OH2  413   6.139   5.262   0.758
  136TIP3    H1  414   6.076   5.323   0.719
  136TIP3    H2  415   6.217   5.316   0.775
  137TIP3   OH2  416   5.050   1.326   0.061
  137TIP3    H1  417   5.144   1.310   0.052
  137TIP3    H2  418   5.030   1.300   0.151
  138TIP3   OH2  419   2.536   3.268   1.819
  138TIP3    H1  420   2.627   3.298   1.819
  138TIP3    H2  421   2.506   3.281   1.729
  139TIP3   OH2  422   3.153   5.255   4.195
  139TIP3    H1  423   3.245   5.233   4.177
  139TIP3    H2  424   3.112   5.171   4.215
  140TIP3   OH2  425   0.783   2.242   1.690
  140TIP3    H1  426   0.723   2.206   1.755
  140TIP3    H2  427   0.762   2.336   1.687
  141TIP3   OH2  428   6.159   2.512   3.566
  141TIP3    H1  429   6.195   2.563   3.638
  141TIP3    H2  430   6.115   2.438   3.608
  142TIP3   OH2  431   3.348   0.401   4.195
  142TIP3    H1  432   3.378   0.453   4.120
  142TIP3    H2  433   3.405   0.430   4.267
  143TIP3   OH2  434   2.957   3.407   0.227
  143TIP3    H1  435   2.959   3.451   0.312
  143TIP3    H2  436   2.905   3.465   0.171
  144TIP3   OH2  437   0.659   2.201   4.889
  144TIP3    H1  438   0.613   2.254   4.954
  144TIP3    H2  439   0.714   2.263   4.842
  145TIP3   OH2  440   2.567   5.681   2.410
  145TIP3    H1  441   2.586   5.608   2.469
  145TIP3    H2  442   2.536   5.751   2.467
  146TIP3   OH2  443   2.209   2.209   3.869
  146TIP3    H1  444   2.304   2.199   3.871
  146TIP3    H2  445   2.195   2.295   3.828
  147TIP3   OH2  446   4.411   1.628   2.428
  147TIP3    H1  447   4.492   1.627   2.376
  147TIP3    H2  448   4.374   1.541   2.416
  148TIP3   OH2  449   1.080   5.316   2.501
  148TIP3    H1  450   1.047   5.226   2.500
  148TIP3    H2  451   1.138   5.323   2.426
  149TIP3   OH2  452   6.114   3.722   3.877
  149TIP3    H1  453   6.083   3.693   3.791
  149TIP3    H2  454   6.036   3.755   3.921
  150TIP3   OH2  455   1.534  -0.007   4.554
  150TIP3    H1  456   1.620  -0.049   4.556
  150TIP3    H2  457   1.481  -0.063   4.497
  151TIP3   OH2  458   5.075   1.811   3.837
  151TIP3    H1  459   5.008   1.819   3.769
  151TIP3    H2  460   5.156   1.793   3.790
  152TIP3   OH2  461   2.519   3.377   1.223
  152TIP3    H1  462   2.543   3.284   1.225
  152TIP3    H2  463   2.433   3.379   1.181
  153TIP3   OH2  464   5.507   5.091   1.348
  153TIP3    H1  465   5.526   5.038   1.426
  153TIP3    H2  466   5.591   5.100   1.304
  154TIP3   OH2  467   5.926   3.312   3.248
  154TIP3    H1  468   5.957   3.235   3.201
  154TIP3    H2  469   5.890   3.369   3.181
  155TIP3   OH2  470   3.746   1.271   4.581
  155TIP3    H1  471   3.730   1.338   4.648
  155TIP3    H2  472   3.811   1.213   4.619
  156TIP3   OH2  473   4.419   5.744   3.581
  156TIP3    H1  474   4.503   5.701   3.564
  156TIP3    H2  475   4.360   5.705   3.517
  157TIP3   OH2  476   2.486   1.379   2.629
  157TIP3    H1  477   2.547   1.357   2.699
  157TIP3    H2  478   2.408   1.412   2.674
  158TIP3   OH2  479   5.417   2.210   4.494
  158TIP3    H1  480   5.398   2.221   4.587
  158TIP3    H2  481   5.441   2.118   4.486
  159TIP3   OH2  482   6.201   2.450   0.986
  159TIP3    H1  483   6.248   2.383   1.037
  159TIP3    H2  484   6.114   2.453   1.027
  160TIP3   OH2  485   0.077   1.025   0.974
  160TIP3    H1  486   0.148   1.016   1.038
  160TIP3    H2  487   0.057   1.119   0.974
  161TIP3   OH2  488   1.207   4.378   2.572
  161TIP3    H1  489   1.231   4.471   2.569
  161TIP3    H2  490   1.177   4.358   2.484
  162TIP3   OH2  491   3.609   3.005   0.213
  162TIP3    H1  492   3.682   3.063   0.191
  162TIP3    H2  493   3.555   3.056   0.274
  163TIP3   OH2  494   2.219   5.914   3.804
  163TIP3    H1  495   2.151   5.923   3.737
  163TIP3    H2  496   2.234   5.819   3.811
  164TIP3   OH2  497   6.106   0.462   2.554
  164TIP3    H1  498   6.154   0.505   2.625
  164TIP3    H2  499   6.031   0.519   2.539
  165TIP3   OH2  500   5.692   4.024   0.731
  165TIP3    H1  501   5.660   4.034   0.821
  165TIP3    H2  502   5.737   4.106   0.712
  166TIP3   OH2  503   5.299   1.728   4.403
  166TIP3    H1  504   5.244   1.691   4.472
  166TIP3    H2  505   5.241   1.785   4.353
  167TIP3   OH2  506   5.122   3.920   2.235
  167TIP3    H1  507   5.150   4.011   2.237
  167TIP3    H2  508   5.177   3.878   2.169
  168TIP3   OH2  509   1.622   1.554   4.065
  168TIP3    H1  510   1.605   1.464   4.094
  168TIP3    H2  511   1.553   1.572   4.001
  169TIP3   OH2  512   4.539   0.787   0.312
  169TIP3    H1  513   4.473   0.718   0.317
  169TIP3    H2  514   4.556   0.811   0.403
  170TIP3   OH2  515   1.430   0.988   3.786
  170TIP3    H1  516   1.513   0.980   3.832
  170TIP3    H2  517   1.415   1.083   3.779
  171TIP3   OH2  518   0.278   0.292   4.426
  171TIP3    H1  519   0.264   0.256   4.514
  171TIP3    H2  520   0.325   0.374   4.440
  172TIP3   OH2  521   6.195   4.588   1.147
  172TIP3    H1  522   6.193   4.564   1.054
  172TIP3    H2  523   6.196   4.683   1.147
  173TIP3   OH2  524   4.568   2.931   0.145
  173TIP3    H1  525   4.602   2.880   0.219
  173TIP3    H2  526   4.563   2.867   0.073
  174TIP3   OH2  527   0.711   4.848   3.981
  174TIP3    H1  528   0.724   4.753   3.986
  174TIP3    H2  529   0.641   4.860   3.917
  175TIP3   OH2  530   5.744   5.906   1.397
  175TIP3    H1  531   5.686   5.982   1.391
  175TIP3    H2  532   5.830   5.938   1.371
  176TIP3   OH2  533   0.600   4.070   1.314
  176TIP3    H1  534   0.543   4.004   1.275
  176TIP3    H2  535   0.550   4.152   1.308
  177TIP3   OH2  536   4.429   5.489   1.573
  177TIP3    H1  537   4.490   5.426   1.535
  177TIP3    H2  538   4.443   5.481   1.667
  178TIP3   OH2  539   5.930   1.060   2.022
  178TIP3    H1  540   5.885   0.983   2.056
  178TIP3    H2  541   5.955   1.035   1.933
  179TIP3   OH2  542   4.453   1.566   1.581
  179TIP3    H1  543   4.526   1.611   1.540
  179TIP3    H2  544   4.414   1.515   1.510
  180TIP3   OH2  545   4.891   3.753   3.123
  180TIP3    H1  546   4.880   3.846   3.143
  180TIP3    H2  547   4.824   3.735   3.057
  181TIP3   OH2  548   6.146   3.680   1.468
  181TIP3    H1  549   6.081   3.620   1.431
  181TIP3    H2  550   6.223   3.626   1.482
  182TIP3   OH2  551   0.864   4.955   5.008
  182TIP3    H1  552   0.862   4.890   4.938
  182TIP3    H2  553   0.892   5.035   4.965
  183TIP3   OH2  554   0.699   1.675   1.819
  183TIP3    H1  555   0.679   1.718   1.902
  183TIP3    H2  556   0.695   1.744   1.754
  184TIP3   OH2  557   4.518   4.466   1.851
  184TIP3    H1  558   4.530   4.559   1.834
  184TIP3    H2  559   4.599   4.437   1.892
  185TIP3   OH2  560   4.583   0.618   3.824
  185TIP3    H1  561   4.508   0.656   3.868
  185TIP3    H2  562   4.566   0.524   3.823
  186TIP3   OH2  563   4.312   3.429   0.000
  186TIP3    H1  564   4.234   3.452  -0.050
  186TIP3    H2  565   4.279   3.404   0.086
  187TIP3   OH2  566   2.465   1.422   2.090
  187TIP3    H1  567   2.491   1.423   2.182
  187TIP3    H2  568   2.474   1.330   2.064
  188TIP3   OH2  569   4.158   3.908   3.158
  188TIP3    H1  570   4.190   3.823   3.127
  188TIP3    H2  571   4.066   3.910   3.130
  189TIP3   OH2  572   4.100   0.473   3.491
  189TIP3    H1  573   4.154   0.445   3.565
  189TIP3    H2  574   4.134   0.558   3.466
  190TIP3   OH2  575   0.771   1.436   1.535
  190TIP3    H1  576   0.824   1.515   1.542
  190TIP3    H2  577   0.685   1.468   1.507
  191TIP3   OH2  578   3.375   5.688   3.485
  191TIP3    H1  579   3.419   5.618   3.436
  191TIP3    H2  580   3.292   5.649   3.512
  192TIP3   OH2  581   5.830   4.837   4.791
  192TIP3    H1  582   5.862   4.751   4.818
  192TIP3    H2  583   5.891   4.899   4.831
  193TIP3   OH2  584   4.994   3.458   0.567
  193TIP3    H1  585   5.017   3.517   0.495
  193TIP3    H2  586   4.917   3.411   0.535
  194TIP3   OH2  587   1.761   0.671   1.071
  194TIP3    H1  588   1.746   0.650   1.163
  194TIP3    H2  589   1.682   0.717   1.044
  195TIP3   OH2  590   5.193   2.494   1.837
  195TIP3    H1  591   5.275   2.490   1.787
  195TIP3    H2  592   5.221   2.498   1.929
  196TIP3   OH2  593   3.224   5.944   0.547
  196TIP3    H1  594   3.247   5.950   0.640
  196TIP3    H2  595   3.302   5.908   0.506
  197TIP3   OH2  596   5.225   2.078   3.335
  197TIP3    H1  597   5.258   2.107   3.420
  197TIP3    H2  598   5.299   2.033   3.295
  198TIP3   OH2  599   2.800   1.523   0.152
  198TIP3    H1  600   2.882   1.566   0.128
  198TIP3    H2  601   2.769   1.483   0.070
  199TIP3   OH2  602   5.514   4.430   3.418
  199TIP3    H1  603   5.584   4.481   3.459
  199TIP3    H2  604   5.548   4.340   3.416
  200TIP3   OH2  605   1.044   1.779   0.607
  200TIP3    H1  606   0.969   1.772   0.665
  200TIP3    H2  607   1.089   1.695   0.615
  201TIP3   OH2  608   6.389   3.667   2.810
  201TIP3    H1  609   6.444   3.621   2.746
  201TIP3    H2  610   6.331   3.599   2.846
  202TIP3   OH2  611   4.819   4.221   5.186
  202TIP3    H1  612   4.914   4.219   5.196
  202TIP3    H2  613   4.804   4.276   5.109
  203TIP3   OH2  614   5.445   4.483   1.791
  203TIP3    H1  615   5.397   4.432   1.857
  203TIP3    H2  616   5.423   4.574   1.811
  204TIP3   OH2  617   2.689   4.059   3.721
  204TIP3    H1  618   2.741   3.979   3.716
  204TIP3    H2  619   2.743   4.121   3.769
  205TIP3   OH2  620   4.665   3.042   3.084
  205TIP3    H1  621   4.712   3.112   3.129
  205TIP3    H2  622   4.713   2.962   3.108
  206TIP3   OH2  623   3.311   5.509   4.691
  206TIP3    H1  624   3.261   5.427   4.690
  206TIP3    H2  625   3.392   5.486   4.736
  207TIP3   OH2  626   1.743   1.151   0.875
  207TIP3    H1  627   1.669   1.097   0.847
  207TIP3    H2  628   1.817   1.090   0.879
  208TIP3   OH2  629   0.095   0.969   0.690
  208TIP3    H1  630   0.005   0.943   0.673
  208TIP3    H2  631   0.102   0.973   0.786
  209TIP3   OH2  632   4.454   0.236   4.147
  209TIP3    H1  633   4.497   0.156   4.178
  209TIP3    H2  634   4.393   0.259   4.218
  210TIP3   OH2  635   3.357   4.386   1.891
  210TIP3    H1  636   3.300   4.319   1.929
  210TIP3    H2  637   3.400   4.342   1.818
  211TIP3   OH2  638   4.709   2.021   0.990
  211TIP3    H1  639   4.615   2.033   0.981
  211TIP3    H2  640   4.734   1.972   0.911
  212TIP3   OH2  641   4.363   3.326   4.524
  212TIP3    H1  642   4.407   3.410   4.539
  212TIP3    H2  643   4.295   3.346   4.459
  213TIP3   OH2  644   0.072   2.662   0.002
  213TIP3    H1  645   0.078   2.578   0.047
  213TIP3    H2  646   0.020   2.717   0.060
  214TIP3   OH2  647   2.014   1.524   4.426
  214TIP3    H1  648   2.073   1.599   4.437
  214TIP3    H2  649   2.036   1.465   4.499
  215TIP3   OH2  650   1.813   2.623   0.482
  215TIP3    H1  651   1.765   2.705   0.471
  215TIP3    H2  652   1.746   2.557   0.497
  216TIP3   OH2  653   3.947   0.968   3.026
  216TIP3    H1  654   3.917   1.054   3.057
  216TIP3    H2  655   4.037   0.961   3.058
  217TIP3   OH2  656   3.562   1.481   4.143
  217TIP3    H1  657   3.513   1.431   4.077
  217TIP3    H2  658   3.574   1.567   4.104
  218TIP3   OH2  659   4.997   1.555   3.989
  218TIP3    H1  660   4.930   1.556   3.920
  218TIP3    H2  661   5.064   1.615   3.958
  219TIP3   OH2  662   3.151   0.541   0.611
  219TIP3    H1  663   3.160   0.449   0.585
  219TIP3    H2  664   3.058   0.552   0.628
  220TIP3   OH2  665   2.372   5.457   2.398
  220TIP3    H1  666   2.446   5.480   2.455
  220TIP3    H2  667   2.310   5.528   2.410
  221TIP3   OH2  668   2.057   3.972   0.981
  221TIP3    H1  669   1.980   4.009   0.938
  221TIP3    H2  670   2.129   3.988   0.920
  222TIP3   OH2  671   4.946   1.738  -0.012
  222TIP3    H1  672   4.933   1.777   0.074
  222TIP3    H2  673   5.040   1.741  -0.026
  223TIP3   OH2  674   3.367   4.798   1.660
  223TIP3    H1  675   3.372   4.747   1.740
  223TIP3    H2  676   3.450   4.780   1.615
  224TIP3   OH2  677   5.256   1.956   2.983
  224TIP3    H1  678   5.245   2.004   3.065
  224TIP3    H2  679   5.218   2.014   2.916
  225TIP3   OH2  680   4.784   4.347   4.895
  225TIP3    H1  681   4.751   4.270   4.848
  225TIP3    H2  682   4.879   4.341   4.886
  226TIP3   OH2  683   4.303   4.505   1.177
  226TIP3    H1  684   4.259   4.422   1.155
  226TIP3    H2  685   4.318   4.499   1.271
  227TIP3   OH2  686   0.961   1.638   1.549
  227TIP3    H1  687   0.938   1.701   1.617
  227TIP3    H2  688   1.021   1.577   1.592
  228TIP3   OH2  689   5.830   1.610   0.059
  228TIP3    H1  690   5.920   1.639   0.071
  228TIP3    H2  691   5.785   1.636   0.139
  229TIP3   OH2  692   4.917   0.144   5.012
  229TIP3    H1  693   4.950   0.148   5.102
  229TIP3    H2  694   4.889   0.234   4.994
  230TIP3   OH2  695   5.053   4.878   4.496
  230TIP3    H1  696   4.961   4.902   4.487
  230TIP3    H2  697   5.076   4.901   4.586
  231TIP3   OH2  698   5.597   0.261   2.769
  231TIP3    H1  699   5.624   0.171   2.787
  231TIP3    H2  700   5.526   0.278   2.830
  232TIP3   OH2  701   1.208   5.932   3.412
  232TIP3    H1  702   1.152   5.917   3.488
  232TIP3    H2  703   1.264   5.855   3.407
  233TIP3   OH2  704   2.008   0.179   1.818
  233TIP3    H1  705   1.972   0.215   1.899
  233TIP3    H2  706   1.974   0.236   1.749
  234TIP3   OH2  707   5.291   2.913   3.090
  234TIP3    H1  708   5.205   2.885   3.060
  234TIP3    H2  709   5.301   2.872   3.176
  235TIP3   OH2  710   2.840   3.248  -0.035
  235TIP3    H1  711   2.931   3.217  -0.028
  235TIP3    H2  712   2.789   3.186   0.017
  236TIP3   OH2  713   5.310   3.733   3.628
  236TIP3    H1  714   5.310   3.708   3.720
  236TIP3    H2  715   5.346   3.657   3.582
  237TIP3   OH2  716   2.698   2.848   3.353
  237TIP3    H1  717   2.663   2.932   3.325
  237TIP3    H2  718   2.654   2.784   3.297
  238TIP3   OH2  719   1.426   2.581   4.698
  238TIP3    H1  720   1.501   2.635   4.676
  238TIP3    H2  721   1.412   2.526   4.621
  239TIP3   OH2  722   4.149   5.348   2.940
  239TIP3    H1  723   4.088   5.280   2.913
  239TIP3    H2  724   4.219   5.346   2.875
  240TIP3   OH2  725   2.823   5.281   3.350
  240TIP3    H1  726   2.782   5.228   3.282
  240TIP3    H2  727   2.802   5.371   3.327
  241TIP3   OH2  728   1.800   5.102   1.578
  241TIP3    H1  729   1.836   5.117   1.666
  241TIP3    H2  730   1.741   5.027   1.589
  242TIP3   OH2  731   5.603   5.759   4.870
  242TIP3    H1  732   5.600   5.726   4.780
  242TIP3    H2  733   5.689   5.732   4.902
  243TIP3   OH2  734   0.090   5.895   4.979
  243TIP3    H1  735  -0.001   5.865   4.971
  243TIP3    H2  736   0.124   5.847   5.055
  244TIP3   OH2  737   4.257   5.522   4.005
  244TIP3    H1  738   4.229   5.554   3.920
  244TIP3    H2  739   4.313   5.447   3.986
  245TIP3   OH2  740   5.045   0.325   2.813
  245TIP3    H1  741   5.002   0.239   2.817
  245TIP3    H2  742   5.133   0.306   2.781
  246TIP3   OH2  743   2.671   0.937   2.328
  246TIP3    H1  744   2.632   1.002   2.387
  246TIP3    H2  745   2.670   0.979   2.242
  247TIP3   OH2  746   5.617   4.729   2.982
  247TIP3    H1  747   5.701   4.710   3.025
  247TIP3    H2  748   5.565   4.650   2.996
  248TIP3   OH2  749   1.884   4.083   0.828
  248TIP3    H1  750   1.869   4.033   0.748
  248TIP3    H2  751   1.801   4.129   0.844
  249TIP3   OH2  752   0.995   3.728   3.880
  249TIP3    H1  753   0.939   3.683   3.816
  249TIP3    H2  754   1.069   3.669   3.892
  250TIP3   OH2  755   2.110   3.742   1.961
  250TIP3    H1  756   2.185   3.799   1.946
  250TIP3    H2  757   2.039   3.803   1.983
  251TIP3   OH2  758   2.205   3.303   3.749
  251TIP3    H1  759   2.234   3.215   3.772
  251TIP3    H2  760   2.218   3.308   3.654
  252TIP3   OH2  761   2.648   1.081   2.643
  252TIP3    H1  762   2.559   1.117   2.644
  252TIP3    H2  763   2.636   0.988   2.660
  253TIP3   OH2  764   6.046   0.667   4.362
  253TIP3    H1  765   6.119   0.608   4.344
  253TIP3    H2  766   5.996   0.669   4.281
  254TIP3   OH2  767   0.800   2.861   3.398
  254TIP3    H1  768   0.726   2.819   3.441
  254TIP3    H2  769   0.844   2.791   3.351
  255TIP3   OH2  770   2.725   4.425   0.672
  255TIP3    H1  771   2.757   4.358   0.611
  255TIP3    H2  772   2.771   4.505   0.646
  256TIP3   OH2  773   3.885   2.525   4.818
  256TIP3    H1  774   3.808   2.540   4.873
  256TIP3    H2  775   3.883   2.431   4.799
  257TIP3   OH2  776   3.252   1.615   0.819
  257TIP3    H1  777   3.211   1.671   0.753
  257TIP3    H2  778   3.305   1.553   0.768
  258TIP3   OH2  779   4.115   0.117   4.485
  258TIP3    H1  780   4.191   0.088   4.535
  258TIP3    H2  781   4.119   0.067   4.403
  259TIP3   OH2  782   4.965   3.872   4.394
  259TIP3    H1  783   5.054   3.904   4.407
  259TIP3    H2  784   4.942   3.831   4.477
  260TIP3   OH2  785   1.627   3.874   2.474
  260TIP3    H1  786   1.534   3.889   2.490
  260TIP3    H2  787   1.652   3.805   2.536
  261TIP3   OH2  788   2.595   4.954   1.974
  261TIP3    H1  789   2.637   4.895   1.912
  261TIP3    H2  790   2.663   4.972   2.039
  262TIP3   OH2  791   5.331   4.812   1.573
  262TIP3    H1  792   5.241   4.843   1.569
  262TIP3    H2  793   5.357   4.822   1.665
  263TIP3   OH2  794   5.700   2.172   0.538
  263TIP3    H1  795   5.714   2.103   0.603
  263TIP3    H2  796   5.642   2.133   0.473
  264TIP3   OH2  797   4.246   0.995   3.816
  264TIP3    H1  798   4.319   1.056   3.824
  264TIP3    H2  799   4.219   0.978   3.906
  265TIP3   OH2  800   1.592   0.639   4.136
  265TIP3    H1  801   1.647   0.716   4.154
  265TIP3    H2  802   1.505   0.664   4.166
  266TIP3   OH2  803   4.917   3.866   3.918
  266TIP3    H1  804   4.869   3.803   3.864
  266TIP3    H2  805   4.905   3.950   3.875
  267TIP3   OH2  806   2.323   0.023   1.422
  267TIP3    H1  807   2.274   0.103   1.441
  267TIP3    H2  808   2.261  -0.030   1.372
  268TIP3   OH2  809   1.304   5.311   4.663
  268TIP3    H1  810   1.258   5.236   4.700
  268TIP3    H2  811   1.235   5.362   4.620
  269TIP3   OH2  812   1.214   1.531   2.797
  269TIP3    H1  813   1.251   1.524   2.709
  269TIP3    H2  814   1.238   1.619   2.826
  270TIP3   OH2  815   2.163   5.653   0.701
  270TIP3    H1  816   2.221   5.730   0.706
  270TIP3    H2  817   2.177   5.608   0.785
  271TIP3   OH2  818   1.247   4.742   2.794
  271TIP3    H1  819   1.279   4.829   2.819
  271TIP3    H2  820   1.271   4.686   2.868
  272TIP3   OH2  821   2.446   4.014   4.319
  272TIP3    H1  822   2.505   3.990   4.390
  272TIP3    H2  823   2.390   3.937   4.307
  273TIP3   OH2  824   1.001   2.256   3.478
  273TIP3    H1  825   0.987   2.172   3.433
  273TIP3    H2  826   1.076   2.239   3.535
  274TIP3   OH2  827   0.608   4.327  -0.014
  274TIP3    H1  828   0.682   4.375   0.024
  274TIP3    H2  829   0.531   4.362   0.031
  275TIP3   OH2  830   2.058   1.988   3.767
  275TIP3    H1  831   1.975   2.020   3.732
  275TIP3    H2  832   2.116   2.064   3.765
  276TIP3   OH2  833  -0.018   5.313   3.127
  276TIP3    H1  834   0.063   5.344   3.086
  276TIP3    H2  835  -0.044   5.236   3.076
  277TIP3   OH2  836   0.830   1.925   4.224
  277TIP3    H1  837   0.854   1.890   4.139
  277TIP3    H2  838   0.801   2.015   4.207
  278TIP3   OH2  839   4.411   3.760   3.319
  278TIP3    H1  840   4.498   3.788   3.348
  278TIP3    H2  841   4.418   3.755   3.224
  279TIP3   OH2  842   4.057   5.943   0.643
  279TIP3    H1  843   4.111   6.021   0.640
  279TIP3    H2  844   4.114   5.876   0.680
  280TIP3   OH2  845   1.822   2.321   2.321
  280TIP3    H1  846   1.840   2.401   2.273
  280TIP3    H2  847   1.820   2.347   2.413
  281TIP3   OH2  848   0.867   1.024   2.683
  281TIP3    H1  849   0.903   0.971   2.753
  281TIP3    H2  850   0.775   0.999   2.678
  282TIP3   OH2  851   2.020   1.097   3.564
  282TIP3    H1  852   1.998   1.088   3.657
  282TIP3    H2  853   1.938   1.080   3.518
  283TIP3   OH2  854   1.081   0.500   1.183
  283TIP3    H1  855   1.078   0.532   1.274
  283TIP3    H2  856   0.996   0.524   1.147
  284TIP3   OH2  857   6.033   5.160   4.489
  284TIP3    H1  858   6.003   5.217   4.559
  284TIP3    H2  859   5.974   5.084   4.492
  285TIP3   OH2  860   1.991   2.779   1.603
  285TIP3    H1  861   1.910   2.805   1.560
  285TIP3    H2  862   1.971   2.693   1.642
  286TIP3   OH2  863  -0.007   3.525   1.559
  286TIP3    H1  864   0.001   3.432   1.579
  286TIP3    H2  865   0.083   3.554   1.543
  287TIP3   OH2  866   6.323   5.483   2.228
  287TIP3    H1  867   6.272   5.519   2.155
  287TIP3    H2  868   6.258   5.465   2.296
  288TIP3   OH2  869   2.912   0.550   4.374
  288TIP3    H1  870   2.960   0.481   4.328
  288TIP3    H2  871   2.906   0.621   4.309
  289TIP3   OH2  872   2.854   2.344   1.261
  289TIP3    H1  873   2.872   2.425   1.214
  289TIP3    H2  874   2.791   2.369   1.329
  290TIP3   OH2  875   2.922   5.292   2.914
  290TIP3    H1  876   2.879   5.255   2.837
  290TIP3    H2  877   2.872   5.258   2.988
  291TIP3   OH2  878   2.718   1.855   2.429
  291TIP3    H1  879   2.670   1.935   2.452
  291TIP3    H2  880   2.703   1.796   2.503
  292TIP3   OH2  881   4.546   3.180   1.850
  292TIP3    H1  882   4.574   3.132   1.773
  292TIP3    H2  883   4.553   3.272   1.825
  293TIP3   OH2  884   5.228   1.713   2.804
  293TIP3    H1  885   5.220   1.787   2.744
  293TIP3    H2  886   5.235   1.637   2.747
  294TIP3   OH2  887   2.987   5.729   5.071
  294TIP3    H1  888   3.020   5.648   5.031
  294TIP3    H2  889   2.915   5.756   5.014
  295TIP3   OH2  890   3.770   1.280   3.693
  295TIP3    H1  891   3.847   1.317   3.736
  295TIP3    H2  892   3.722   1.237   3.765
  296TIP3   OH2  893   5.137   0.886   1.719
  296TIP3    H1  894   5.185   0.825   1.775
  296TIP3    H2  895   5.192   0.896   1.641
  297TIP3   OH2  896   2.807   5.436   1.154
  297TIP3    H1  897   2.773   5.515   1.198
  297TIP3    H2  898   2.728   5.387   1.130
  298TIP3   OH2  899   2.596   0.175   4.660
  298TIP3    H1  900   2.569   0.187   4.751
  298TIP3    H2  901   2.679   0.129   4.665
  299TIP3   OH2  902   3.965   2.403   1.976
  299TIP3    H1  903   3.949   2.434   2.065
  299TIP3    H2  904   4.060   2.392   1.971
  300TIP3   OH2  905   5.587   2.305   2.833
  300TIP3    H1  906   5.605   2.342   2.746
  300TIP3    H2  907   5.577   2.382   2.890
  301TIP3   OH2  908   1.604   0.780   2.180
  301TIP3    H1  909   1.685   0.820   2.148
  301TIP3    H2  910   1.601   0.694   2.138
  302TIP3   OH2  911   0.266   3.115   3.436
  302TIP3    H1  912   0.213   3.188   3.468
  302TIP3    H2  913   0.355   3.149   3.433
  303TIP3   OH2  914   5.153   4.911   4.203
  303TIP3    H1  915   5.157   4.903   4.299
  303TIP3    H2  916   5.208   4.986   4.183
  304TIP3   OH2  917   2.160   4.318   1.014
  304TIP3    H1  918   2.202   4.368   0.945
  304TIP3    H2  919   2.168   4.373   1.092
  305TIP3   OH2  920   5.277   1.754   3.635
  305TIP3    H1  921   5.266   1.754   3.539
  305TIP3    H2  922   5.346   1.818   3.651
  306TIP3   OH2  923   0.256   5.816   4.160
  306TIP3    H1  924   0.192   5.788   4.226
  306TIP3    H2  925   0.228   5.904   4.135
  307TIP3   OH2  926   1.291   5.558   1.508
  307TIP3    H1  927   1.357   5.618   1.542
  307TIP3    H2  928   1.299   5.480   1.563
  308TIP3   OH2  929   6.209   0.395   1.910
  308TIP3    H1  930   6.128   0.418   1.864
  308TIP3    H2  931   6.188   0.313   1.955
  309TIP3   OH2  932   1.432   4.493   4.485
  309TIP3    H1  933   1.375   4.432   4.439
  309TIP3    H2  934   1.514   4.446   4.496
  310TIP3   OH2  935   0.963   5.103   3.108
  310TIP3    H1  936   1.004   5.120   3.023
  310TIP3    H2  937   1.036   5.106   3.170
  311TIP3   OH2  938   4.145   4.975  -0.002
  311TIP3    H1  939   4.053   4.997  -0.019
  311TIP3    H2  940   4.146   4.947   0.089
  312TIP3   OH2  941   3.409   0.971   4.379
  312TIP3    H1  942   3.386   1.002   4.467
  312TIP3    H2  943   3.482   1.028   4.353
  313TIP3   OH2  944   4.644   3.730   4.785
  313TIP3    H1  945   4.620   3.787   4.711
  313TIP3    H2  946   4.736   3.708   4.771
  314TIP3   OH2  947   6.024   2.748   4.870
  314TIP3    H1  948   6.028   2.665   4.823
  314TIP3    H2  949   6.006   2.813   4.803
  315TIP3   OH2  950   0.959   2.407   1.874
  315TIP3    H1  951   0.890   2.441   1.931
  315TIP3    H2  952   0.918   2.337   1.825
  316TIP3   OH2  953   2.479   0.458   3.259
  316TIP3    H1  954   2.525   0.410   3.191
  316TIP3    H2  955   2.386   0.446   3.238
  317TIP3   OH2  956   4.535   3.561   2.038
  317TIP3    H1  957   4.540   3.569   1.943
  317TIP3    H2  958   4.621   3.590   2.069
  318TIP3   OH2  959   2.428   0.424   2.892
  318TIP3    H1  960   2.516   0.423   2.854
  318TIP3    H2  961   2.370   0.422   2.816
  319TIP3   OH2  962   0.967   0.595   5.009
  319TIP3    H1  963   1.012   0.679   5.012
  319TIP3    H2  964   0.874   0.617   4.999
  320TIP3   OH2  965   0.420   2.187   0.933
  320TIP3    H1  966   0.509   2.151   0.934
  320TIP3    H2  967   0.409   2.225   1.021
  321TIP3   OH2  968   3.399   3.103  -0.016
  321TIP3    H1  969   3.405   3.158  -0.095
  321TIP3    H2  970   3.439   3.156   0.053
  322TIP3   OH2  971   2.529   5.230   4.253
  322TIP3    H1  972   2.579   5.275   4.185
  322TIP3    H2  973   2.447   5.205   4.211
  323TIP3   OH2  974   1.524   3.817   3.803
  323TIP3    H1  975   1.587   3.864   3.858
  323TIP3    H2  976   1.442   3.864   3.813
  324TIP3   OH2  977   0.765   5.367   3.435
  324TIP3    H1  978   0.788   5.288   3.386
  324TIP3    H2  979   0.678   5.390   3.402
  325TIP3   OH2  980   2.457   2.545   3.015
  325TIP3    H1  981   2.468   2.541   2.920
  325TIP3    H2  982   2.437   2.454   3.041
  326TIP3   OH2  983   2.656   4.892   4.849
  326TIP3    H1  984   2.703   4.975   4.855
  326TIP3    H2  985   2.565   4.918   4.831
  327TIP3   OH2  986   5.936   5.598   2.991
  327TIP3    H1  987   5.974   5.537   2.927
  327TIP3    H2  988   5.963   5.684   2.961
  328TIP3   OH2  989   2.072   1.526   2.330
  328TIP3    H1  990   2.087   1.473   2.252
  328TIP3    H2  991   2.076   1.617   2.299
  329TIP3   OH2  992   0.790   1.457   2.621
  329TIP3    H1  993   0.872   1.409   2.610
  329TIP3    H2  994   0.817   1.543   2.654
  330TIP3   OH2  995   1.097   4.242   5.075
  330TIP3    H1  996   1.021   4.235   5.019
  330TIP3    H2  997   1.089   4.169   5.137
  331TIP3   OH2  998   2.168   3.817   1.541
  331TIP3    H1  999   2.096   3.786   1.486
  331TIP3    H2 1000   2.240   3.757   1.523
  332TIP3   OH2 1001   2.812   0.328   3.168
  332TIP3    H1 1002   2.811   0.245   3.214
  332TIP3    H2 1003   2.769   0.309   3.084
  333TIP3   OH2 1004   5.696   3.283   5.205
  333TIP3    H1 1005   5.750   3.215   5.166
  333TIP3    H2 1006   5.684   3.347   5.135
  334TIP3   OH2 1007   5.531   1.857   2.951
  334TIP3    H1 1008   5.477   1.789   2.991
  334TIP3    H2 1009   5.478   1.937   2.956
  335TIP3   OH2 1010   1.081   1.189   1.430
  335TIP3    H1 1011   1.121   1.113   1.472
  335TIP3    H2 1012   1.027   1.228   1.499
  336TIP3   OH2 1013   3.528   5.654   1.429
  336TIP3    H1 1014   3.622   5.666   1.435
  336TIP3    H2 1015   3.512   5.565   1.461
  337TIP3   OH2 1016   1.250   2.040   4.342
  337TIP3    H1 1017   1.325   1.986   4.318
  337TIP3    H2 1018   1.255   2.047   4.438
  338TIP3   OH2 1019   5.098   1.397   4.866
  338TIP3    H1 1020   5.104   1.394   4.771
  338TIP3    H2 1021   5.055   1.480   4.886
  339TIP3   OH2 1022   0.826   3.903   4.008
  339TIP3    H1 1023   0.814   3.995   3.985
  339TIP3    H2 1024   0.879   3.868   3.937
  340TIP3   OH2 1025   5.549   2.694   1.556
  340TIP3    H1 1026   5.502   2.755   1.498
  340TIP3    H2 1027   5.491   2.684   1.631
  341TIP3   OH2 1028   4.325   3.145   0.119
  341TIP3    H1 1029   4.320   3.052   0.140
  341TIP3    H2 1030   4.411   3.172   0.153
  342TIP3   OH2 1031   1.583   4.457   4.876
  342TIP3    H1 1032   1.489   4.455   4.894
  342TIP3    H2 1033   1.616   4.374   4.911
  343TIP3   OH2 1034   1.563   5.161   4.626
  343TIP3    H1 1035   1.502   5.089   4.608
  343TIP3    H2 1036   1.507   5.233   4.656
  344TIP3   OH2 1037   1.486   5.533   4.668
  344TIP3    H1 1038   1.521   5.526   4.757
  344TIP3    H2 1039   1.451   5.446   4.650
  345TIP3   OH2 1040   6.135   1.410   0.308
  345TIP3    H1 1041   6.150   1.368   0.224
  345TIP3    H2 1042   6.093   1.343   0.362
  346TIP3   OH2 1043   1.370   5.837   4.939
  346TIP3    H1 1044   1.280   5.862   4.921
  346TIP3    H2 1045   1.415   5.843   4.855
  347TIP3   OH2 1046   2.106   5.024   4.608
  347TIP3    H1 1047   2.060   4.948   4.643
  347TIP3    H2 1048   2.121   5.002   4.516
  348TIP3   OH2 1049   5.934   3.976   0.979
  348TIP3    H1 1050   5.860   4.037   0.970
  348TIP3    H2 1051   6.010   4.033   0.996
  349TIP3   OH2 1052   5.839   4.402   3.700
  349TIP3    H1 1053   5.775   4.470   3.678
  349TIP3    H2 1054   5.878   4.377   3.616
  350TIP3   OH2 1055   5.592   0.386   1.767
  350TIP3    H1 1056   5.591   0.335   1.686
  350TIP3    H2 1057   5.499   0.406   1.783
  351TIP3   OH2 1058   0.179   3.779   3.764
  351TIP3    H1 1059   0.229   3.765   3.844
  351TIP3    H2 1060   0.161   3.690   3.731
  352TIP3   OH2 1061   4.792   5.486   2.765
  352TIP3    H1 1062   4.815   5.578   2.781
  352TIP3    H2 1063   4.738   5.490   2.686
  353TIP3   OH2 1064   0.662   4.412   3.358
  353TIP3    H1 1065   0.723   4.485   3.346
  353TIP3    H2 1066   0.637   4.416   3.450
  354TIP3   OH2 1067   3.875   3.094   1.926
  354TIP3    H1 1068   3.828   3.011   1.923
  354TIP3    H2 1069   3.870   3.128   1.837
  355TIP3   OH2 1070   0.884   3.712   1.178
  355TIP3    H1 1071   0.915   3.744   1.093
  355TIP3    H2 1072   0.945   3.750   1.241
  356TIP3   OH2 1073   0.810   4.577   3.972
  356TIP3    H1 1074   0.898   4.539   3.982
  356TIP3    H2 1075   0.775   4.535   3.894
  357TIP3   OH2 1076   0.726   3.489   3.455
  357TIP3    H1 1077   0.799   3.542   3.425
  357TIP3    H2 1078   0.752   3.399   3.437
  358TIP3   OH2 1079   2.580   3.633   0.254
  358TIP3    H1 1080   2.506   3.625   0.194
  358TIP3    H2 1081   2.571   3.720   0.293
  359TIP3   OH2 1082   0.495   0.303   1.384
  359TIP3    H1 1083   0.573   0.357   1.398
  359TIP3    H2 1084   0.514   0.253   1.305
  360TIP3   OH2 1085   1.081   4.363   3.597
  360TIP3    H1 1086   1.129   4.346   3.516
  360TIP3    H2 1087   1.014   4.296   3.600
  361TIP3   OH2 1088   3.004   0.928   0.742
  361TIP3    H1 1089   2.960   0.923   0.657
  361TIP3    H2 1090   2.951   0.991   0.792
  362TIP3   OH2 1091   1.047   5.887   3.626
  362TIP3    H1 1092   1.042   5.939   3.706
  362TIP3    H2 1093   1.101   5.812   3.649
  363TIP3   OH2 1094   5.594   1.741   1.532
  363TIP3    H1 1095   5.681   1.726   1.495
  363TIP3    H2 1096   5.544   1.780   1.460
  364TIP3   OH2 1097   5.034   1.278   0.310
  364TIP3    H1 1098   5.022   1.356   0.364
  364TIP3    H2 1099   4.963   1.219   0.336
  365TIP3   OH2 1100   2.104   5.243   0.660
  365TIP3    H1 1101   2.110   5.221   0.753
  365TIP3    H2 1102   2.038   5.183   0.626
  366TIP3   OH2 1103   1.084   0.830   4.401
  366TIP3    H1 1104   1.129   0.762   4.349
  366TIP3    H2 1105   1.153   0.868   4.455
  367TIP3   OH2 1106   5.438   0.792   2.968
  367TIP3    H1 1107   5.347   0.798   2.942
  367TIP3    H2 1108   5.454   0.699   2.981
  368TIP3   OH2 1109   3.062   1.176   3.377
  368TIP3    H1 1110   2.968   1.169   3.359
  368TIP3    H2 1111   3.101   1.108   3.321
  369TIP3   OH2 1112   5.186   3.075   3.623
  369TIP3    H1 1113   5.213   3.111   3.707
  369TIP3    H2 1114   5.092   3.095   3.618
  370TIP3   OH2 1115   3.570   1.759   1.098
  370TIP3    H1 1116   3.554   1.742   1.005
  370TIP3    H2 1117   3.618   1.841   1.100
  371TIP3   OH2 1118   5.931   0.501   1.856
  371TIP3    H1 1119   5.872   0.565   1.896
  371TIP3    H2 1120   5.901   0.495   1.765
  372TIP3   OH2 1121   2.434   0.290   0.786
  372TIP3    H1 1122   2.438   0.297   0.690
  372TIP3    H2 1123   2.340   0.293   0.806
  373TIP3   OH2 1124   2.521   1.129   3.372
  373TIP3    H1 1125   2.441   1.171   3.342
  373TIP3    H2 1126   2.492   1.051   3.418
  374TIP3   OH2 1127   4.662   1.780   0.377
  374TIP3    H1 1128   4.663   1.754   0.285
  374TIP3    H2 1129   4.695   1.703   0.423
  375TIP3   OH2 1130   1.377   5.035   4.972
  375TIP3    H1 1131   1.430   4.970   4.925
  375TIP3    H2 1132   1.328   4.983   5.036
  376TIP3   OH2 1133   3.761   3.128   0.548
  376TIP3    H1 1134   3.775   3.192   0.478
  376TIP3    H2 1135   3.823   3.057   0.528
  377TIP3   OH2 1136   2.115   0.688   0.178
  377TIP3    H1 1137   2.104   0.699   0.272
  377TIP3    H2 1138   2.026   0.692   0.143
  378TIP3   OH2 1139   2.166   2.600   1.123
  378TIP3    H1 1140   2.205   2.517   1.149
  378TIP3    H2 1141   2.082   2.577   1.084
  379TIP3   OH2 1142   1.285   5.938   0.136
  379TIP3    H1 1143   1.343   5.959   0.063
  379TIP3    H2 1144   1.311   5.849   0.162
  380TIP3   OH2 1145   3.985   5.218   0.963
  380TIP3    H1 1146   4.044   5.244   0.892
  380TIP3    H2 1147   3.983   5.295   1.021
  381TIP3   OH2 1148   1.572   4.591   3.681
  381TIP3    H1 1149   1.489   4.548   3.658
  381TIP3    H2 1150   1.566   4.677   3.641
  382TIP3   OH2 1151   0.473   2.646   2.142
  382TIP3    H1 1152   0.384   2.677   2.160
  382TIP3    H2 1153   0.466   2.601   2.057
  383TIP3   OH2 1154   5.040   3.775   1.130
  383TIP3    H1 1155   5.049   3.721   1.052
  383TIP3    H2 1156   4.998   3.855   1.098
  384TIP3   OH2 1157   0.326   3.417   1.825
  384TIP3    H1 1158   0.274   3.491   1.858
  384TIP3    H2 1159   0.261   3.358   1.787
  385TIP3   OH2 1160   5.652   1.477   3.214
  385TIP3    H1 1161   5.677   1.463   3.122
  385TIP3    H2 1162   5.726   1.443   3.264
  386TIP3   OH2 1163   2.277   4.753   4.083
  386TIP3    H1 1164   2.182   4.742   4.082
  386TIP3    H2 1165   2.292   4.827   4.142
  387TIP3   OH2 1166   1.154   2.558   2.223
  387TIP3    H1 1167   1.190   2.523   2.141
  387TIP3    H2 1168   1.059   2.550   2.213
  388TIP3   OH2 1169   1.573   2.641   2.851
  388TIP3    H1 1170   1.577   2.719   2.907
  388TIP3    H2 1171   1.491   2.598   2.876
  389TIP3   OH2 1172   5.119   0.339   4.096
  389TIP3    H1 1173   5.196   0.368   4.146
  389TIP3    H2 1174   5.104   0.410   4.033
  390TIP3   OH2 1175   4.108   2.823   4.990
  390TIP3    H1 1176   4.191   2.803   5.033
  390TIP3    H2 1177   4.115   2.917   4.969
  391TIP3   OH2 1178   5.504   0.801   0.532
  391TIP3    H1 1179   5.422   0.758   0.507
  391TIP3    H2 1180   5.499   0.887   0.491
  392TIP3   OH2 1181   2.468   0.671   3.048
  392TIP3    H1 1182   2.386   0.664   3.096
  392TIP3    H2 1183   2.460   0.608   2.977
  393TIP3   OH2 1184   2.801   1.177   3.322
  393TIP3    H1 1185   2.785   1.155   3.231
  393TIP3    H2 1186   2.714   1.178   3.362
  394TIP3   OH2 1187   4.352   0.448   4.662
  394TIP3    H1 1188   4.425   0.388   4.646
  394TIP3    H2 1189   4.298   0.404   4.727
  395TIP3   OH2 1190   5.591   4.182   3.301
  395TIP3    H1 1191   5.497   4.165   3.312
  395TIP3    H2 1192   5.634   4.103   3.333
  396TIP3   OH2 1193   4.228   2.241   2.195
  396TIP3    H1 1194   4.168   2.172   2.226
  396TIP3    H2 1195   4.190   2.322   2.228
  397TIP3   OH2 1196   4.844   0.651   1.343
  397TIP3    H1 1197   4.802   0.607   1.269
  397TIP3    H2 1198   4.849   0.583   1.411
  398TIP3   OH2 1199   2.940   4.152   5.107
  398TIP3    H1 1200   2.889   4.155   5.026
  398TIP3    H2 1201   2.953   4.058   5.124
  399TIP3   OH2 1202   2.741   4.025   4.405
  399TIP3    H1 1203   2.783   4.111   4.413
  399TIP3    H2 1204   2.704   4.026   4.316
  400TIP3   OH2 1205   5.460   2.322   3.539
  400TIP3    H1 1206   5.548   2.305   3.506
  400TIP3    H2 1207   5.426   2.236   3.563
  401TIP3   OH2 1208   5.116   4.671   2.209
  401TIP3    H1 1209   5.073   4.631   2.285
  401TIP3    H2 1210   5.151   4.753   2.242
  402TIP3   OH2 1211   3.740   5.613  -0.011
  402TIP3    H1 1212   3.688   5.648   0.062
  402TIP3    H2 1213   3.831   5.626   0.016
  403TIP3   OH2 1214   5.427   4.267   2.650
  403TIP3    H1 1215   5.478   4.316   2.714
  403TIP3    H2 1216   5.388   4.195   2.701
  404TIP3   OH2 1217   0.315   2.828   2.632
  404TIP3    H1 1218   0.354   2.773   2.564
  404TIP3    H2 1219   0.242   2.775   2.665
  405TIP3   OH2 1220   4.328   2.908   1.118
  405TIP3    H1 1221   4.356   2.998   1.139
  405TIP3    H2 1222   4.404   2.854   1.142
  406TIP3   OH2 1223   4.877   0.189   3.413
  406TIP3    H1 1224   4.836   0.214   3.497
  406TIP3    H2 1225   4.815   0.220   3.347
  407TIP3   OH2 1226   1.367   1.931   1.684
  407TIP3    H1 1227   1.443   1.987   1.702
  407TIP3    H2 1228   1.323   1.974   1.610
  408TIP3   OH2 1229   0.499   2.989   1.434
  408TIP3    H1 1230   0.531   2.912   1.387
  408TIP3    H2 1231   0.405   2.992   1.414
  409TIP3   OH2 1232   1.076   0.359   3.751
  409TIP3    H1 1233   1.130   0.300   3.698
  409TIP3    H2 1234   1.085   0.326   3.841
  410TIP3   OH2 1235   4.169   1.957   4.863
  410TIP3    H1 1236   4.206   2.034   4.907
  410TIP3    H2 1237   4.160   1.984   4.772
  411TIP3   OH2 1238   5.107   3.474   5.067
  411TIP3    H1 1239   5.126   3.391   5.025
  411TIP3    H2 1240   5.190   3.521   5.068
  412TIP3   OH2 1241   0.674   4.115   2.755
  412TIP3    H1 1242   0.628   4.080   2.679
  412TIP3    H2 1243   0.606   4.123   2.822
  413TIP3   OH2 1244   4.856   5.656   4.925
  413TIP3    H1 1245   4.825   5.704   4.847
  413TIP3    H2 1246   4.951   5.651   4.914
  414TIP3   OH2 1247   1.182   5.031   1.584
  414TIP3    H1 1248   1.121   5.096   1.619
  414TIP3    H2 1249   1.129   4.953   1.572
  415TIP3   OH2 1250   5.174   3.778   2.493
  415TIP3    H1 1251   5.164   3.866   2.455
  415TIP3    H2 1252   5.208   3.725   2.420
  416TIP3   OH2 1253   5.696   4.877   2.392
  416TIP3    H1 1254   5.750   4.820   2.338
  416TIP3    H2 1255   5.610   4.835   2.392
  417TIP3   OH2 1256   6.010   3.012   5.069
  417TIP3    H1 1257   5.983   2.953   4.999
  417TIP3    H2 1258   6.099   3.038   5.044
  418TIP3   OH2 1259   5.061   1.735   1.883
  418TIP3    H1 1260   5.014   1.774   1.956
  418TIP3    H2 1261   5.150   1.772   1.889
  419TIP3   OH2 1262   4.027   3.111   3.021
  419TIP3    H1 1263   3.983   3.026   3.016
  419TIP3    H2 1264   4.121   3.090   3.017
  420TIP3   OH2 1265   1.889   2.314   4.255
  420TIP3    H1 1266   1.963   2.304   4.195
  420TIP3    H2 1267   1.928   2.320   4.341
  421TIP3   OH2 1268   3.284   1.798   1.919
  421TIP3    H1 1269   3.216   1.771   1.981
  421TIP3    H2 1270   3.331   1.718   1.898
  422TIP3   OH2 1271   5.902   1.937   0.757
  422TIP3    H1 1272   5.808   1.941   0.739
  422TIP3    H2 1273   5.923   1.844   0.750
  423TIP3   OH2 1274   2.004   0.701   0.968
  423TIP3    H1 1275   1.918   0.696   1.010
  423TIP3    H2 1276   2.067   0.696   1.040
  424TIP3   OH2 1277   2.052   1.861   2.915
  424TIP3    H1 1278   2.079   1.899   2.831
  424TIP3    H2 1279   1.992   1.790   2.891
  425TIP3   OH2 1280   3.704   0.393   1.845
  425TIP3    H1 1281   3.786   0.443   1.844
  425TIP3    H2 1282   3.636   0.459   1.858
  426TIP3   OH2 1283   6.199   5.500   1.296
  426TIP3    H1 1284   6.125   5.561   1.298
  426TIP3    H2 1285   6.189   5.453   1.213
  427TIP3   OH2 1286   0.858   5.282   3.688
  427TIP3    H1 1287   0.872   5.253   3.598
  427TIP3    H2 1288   0.942   5.263   3.731
  428TIP3   OH2 1289   2.214   0.722   1.151
  428TIP3    H1 1290   2.278   0.772   1.101
  428TIP3    H2 1291   2.226   0.751   1.241
  429TIP3   OH2 1292   0.769   0.483   4.639
  429TIP3    H1 1293   0.802   0.437   4.716
  429TIP3    H2 1294   0.837   0.547   4.618
  430TIP3   OH2 1295   3.564   5.768   2.592
  430TIP3    H1 1296   3.591   5.715   2.667
  430TIP3    H2 1297   3.493   5.717   2.551
  431TIP3   OH2 1298   1.102   3.661   4.373
  431TIP3    H1 1299   1.023   3.694   4.330
  431TIP3    H2 1300   1.070   3.601   4.441
  432TIP3   OH2 1301   0.470   0.112   0.909
  432TIP3    H1 1302   0.496   0.143   0.822
  432TIP3    H2 1303   0.420   0.184   0.946
  433TIP3   OH2 1304  -0.036   1.525   3.002
  433TIP3    H1 1305   0.005   1.441   2.984
  433TIP3    H2 1306   0.037   1.583   3.025
  434TIP3   OH2 1307   5.587   4.471   0.378
  434TIP3    H1 1308   5.598   4.549   0.323
  434TIP3    H2 1309   5.550   4.504   0.459
  435TIP3   OH2 1310   5.016   0.422   3.392
  435TIP3    H1 1311   5.042   0.421   3.300
  435TIP3    H2 1312   4.974   0.338   3.407
  436TIP3   OH2 1313   4.286   2.595   2.751
  436TIP3    H1 1314   4.314   2.525   2.810
  436TIP3    H2 1315   4.331   2.576   2.669
  437TIP3   OH2 1316   3.363   0.250   0.256
  437TIP3    H1 1317   3.291   0.187   0.261
  437TIP3    H2 1318   3.430   0.207   0.203
  438TIP3   OH2 1319   4.466   5.214   4.650
  438TIP3    H1 1320   4.447   5.150   4.719
  438TIP3    H2 1321   4.561   5.207   4.638
  439TIP3   OH2 1322   0.159   3.983   1.322
  439TIP3    H1 1323   0.092   3.927   1.282
  439TIP3    H2 1324   0.209   4.016   1.247
  440TIP3   OH2 1325   2.400   4.153   0.111
  440TIP3    H1 1326   2.325   4.211   0.123
  440TIP3    H2 1327   2.440   4.182   0.029
  441TIP3   OH2 1328   5.839   1.356   3.384
  441TIP3    H1 1329   5.774   1.324   3.446
  441TIP3    H2 1330   5.892   1.279   3.362
  442TIP3   OH2 1331   2.154   1.752   1.194
  442TIP3    H1 1332   2.156   1.797   1.109
  442TIP3    H2 1333   2.237   1.775   1.235
  443TIP3   OH2 1334   4.530   0.595   4.493
  443TIP3    H1 1335   4.521   0.686   4.465
  443TIP3    H2 1336   4.601   0.596   4.557
  444TIP3   OH2 1337   3.739   2.905   3.472
  444TIP3    H1 1338   3.761   2.896   3.565
  444TIP3    H2 1339   3.665   2.966   3.471
  445TIP3   OH2 1340   0.405   2.547   3.548
  445TIP3    H1 1341   0.394   2.565   3.455
  445TIP3    H2 1342   0.318   2.527   3.580
  446TIP3   OH2 1343   3.836   3.175   1.662
  446TIP3    H1 1344   3.838   3.270   1.654
  446TIP3    H2 1345   3.875   3.143   1.581
  447TIP3   OH2 1346   2.664   0.273   2.910
  447TIP3    H1 1347   2.573   0.271   2.941
  447TIP3    H2 1348   2.677   0.186   2.870
  448TIP3   OH2 1349   2.232   2.752   2.216
  448TIP3    H1 1350   2.283   2.781   2.292
  448TIP3    H2 1351   2.213   2.660   2.234
  449TIP3   OH2 1352   3.774   0.192   2.280
  449TIP3    H1 1353   3.813   0.181   2.367
  449TIP3    H2 1354   3.823   0.131   2.224
  450TIP3   OH2 1355   2.557   0.516   1.853
  450TIP3    H1 1356   2.528   0.425   1.850
  450TIP3    H2 1357   2.476   0.567   1.863
  451TIP3   OH2 1358   1.156   2.636   4.690
  451TIP3    H1 1359   1.154   2.724   4.653
  451TIP3    H2 1360   1.249   2.616   4.700
  452TIP3   OH2 1361   2.685   1.405   2.839
  452TIP3    H1 1362   2.711   1.481   2.891
  452TIP3    H2 1363   2.624   1.357   2.895
  453TIP3   OH2 1364   6.150   4.897   1.120
  453TIP3    H1 1365   6.173   4.906   1.028
  453TIP3    H2 1366   6.146   4.987   1.153
  454TIP3   OH2 1367   1.928   3.393   3.413
  454TIP3    H1 1368   1.859   3.452   3.444
  454TIP3    H2 1369   1.886   3.344   3.341
  455TIP3   OH2 1370   4.503   1.567   4.283
  455TIP3    H1 1371   4.488   1.660   4.267
  455TIP3    H2 1372   4.511   1.529   4.196
  456TIP3   OH2 1373   2.821   2.953   4.822
  456TIP3    H1 1374   2.866   2.937   4.904
  456TIP3    H2 1375   2.876   3.016   4.776
  457TIP3   OH2 1376   4.753   1.111   1.962
  457TIP3    H1 1377   4.811   1.037   1.939
  457TIP3    H2 1378   4.808   1.169   2.015
  458TIP3   OH2 1379   1.431   4.112   1.721
  458TIP3    H1 1380   1.419   4.108   1.626
  458TIP3    H2 1381   1.462   4.024   1.744
  459TIP3   OH2 1382   2.867   4.402   2.719
  459TIP3    H1 1383   2.813   4.331   2.754
  459TIP3    H2 1384   2.896   4.371   2.634
  460TIP3   OH2 1385   4.860   3.886   2.887
  460TIP3    H1 1386   4.806   3.807   2.888
  460TIP3    H2 1387   4.946   3.856   2.859
  461TIP3   OH2 1388   0.617   3.701   0.236
  461TIP3    H1 1389   0.595   3.724   0.327
  461TIP3    H2 1390   0.533   3.706   0.190
  462TIP3   OH2 1391   1.242   3.010   2.071
  462TIP3    H1 1392   1.263   2.927   2.115
  462TIP3    H2 1393   1.200   3.063   2.139
  463TIP3   OH2 1394   5.897   2.825   0.123
  463TIP3    H1 1395   5.823   2.864   0.076
  463TIP3    H2 1396   5.906   2.738   0.085
  464TIP3   OH2 1397   5.147   3.855   2.898
  464TIP3    H1 1398   5.145   3.851   2.993
  464TIP3    H2 1399   5.239   3.864   2.875
  465TIP3   OH2 1400   0.322   3.626   3.522
  465TIP3    H1 1401   0.296   3.625   3.430
  465TIP3    H2 1402   0.396   3.686   3.525
  466TIP3   OH2 1403   4.985   3.534   2.122
  466TIP3    H1 1404   4.897   3.536   2.159
  466TIP3    H2 1405   4.978   3.473   2.048
  467TIP3   OH2 1406   3.184   4.203   4.989
  467TIP3    H1 1407   3.156   4.242   4.906
  467TIP3    H2 1408   3.102   4.180   5.033
  468TIP3   OH2 1409   1.729   4.353   3.741
  468TIP3    H1 1410   1.668   4.419   3.772
  468TIP3    H2 1411   1.675   4.274   3.732
  469TIP3   OH2 1412   0.265   0.747   1.120
  469TIP3    H1 1413   0.341   0.705   1.160
  469TIP3    H2 1414   0.293   0.837   1.102
  470TIP3   OH2 1415   1.885   2.453   1.412
  470TIP3    H1 1416   1.896   2.369   1.369
  470TIP3    H2 1417   1.844   2.509   1.345
  471TIP3   OH2 1418   4.048   5.687   4.811
  471TIP3    H1 1419   3.998   5.653   4.736
  471TIP3    H2 1420   4.069   5.777   4.786
  472TIP3   OH2 1421   0.174   5.841   0.379
  472TIP3    H1 1422   0.097   5.892   0.352
  472TIP3    H2 1423   0.233   5.846   0.304
  473TIP3   OH2 1424   0.932   0.636   0.623
  473TIP3    H1 1425   0.856   0.599   0.579
  473TIP3    H2 1426   1.005   0.581   0.595
  474TIP3   OH2 1427   2.376   4.903   4.831
  474TIP3    H1 1428   2.375   4.889   4.736
  474TIP3    H2 1429   2.326   4.984   4.843
  475TIP3   OH2 1430   1.933   5.482   2.293
  475TIP3    H1 1431   1.932   5.475   2.389
  475TIP3    H2 1432   1.844   5.510   2.270
  476TIP3   OH2 1433   3.631   2.582   4.251
  476TIP3    H1 1434   3.717   2.580   4.294
  476TIP3    H2 1435   3.634   2.509   4.189
  477TIP3   OH2 1436   0.377   5.309   2.116
  477TIP3    H1 1437   0.441   5.241   2.097
  477TIP3    H2 1438   0.300   5.262   2.147
  478TIP3   OH2 1439   2.191   1.341   1.265
  478TIP3    H1 1440   2.200   1.270   1.202
  478TIP3    H2 1441   2.277   1.382   1.267
  479TIP3   OH2 1442   4.048   3.556   3.795
  479TIP3    H1 1443   4.115   3.613   3.833
  479TIP3    H2 1444   4.050   3.477   3.848
  480TIP3   OH2 1445   4.419   3.127   2.786
  480TIP3    H1 1446   4.376   3.076   2.718
  480TIP3    H2 1447   4.431   3.213   2.747
  481TIP3   OH2 1448   3.782   4.545   1.463
  481TIP3    H1 1449   3.785   4.477   1.395
  481TIP3    H2 1450   3.766   4.497   1.544
  482TIP3   OH2 1451   1.712   0.492   2.307
  482TIP3    H1 1452   1.662   0.491   2.389
  482TIP3    H2 1453   1.772   0.417   2.314
  483TIP3   OH2 1454   3.499   3.032   2.575
  483TIP3    H1 1455   3.509   2.940   2.550
  483TIP3    H2 1456   3.443   3.070   2.507
  484TIP3   OH2 1457   3.653   1.441   1.817
  484TIP3    H1 1458   3.625   1.485   1.737
  484TIP3    H2 1459   3.679   1.353   1.789
  485TIP3   OH2 1460   3.073   2.102   3.512
  485TIP3    H1 1461   3.164   2.129   3.513
  485TIP3    H2 1462   3.023   2.183   3.518
  486TIP3   OH2 1463   1.001   5.258   1.104
  486TIP3    H1 1464   1.020   5.310   1.026
  486TIP3    H2 1465   0.936   5.309   1.152
  487TIP3   OH2 1466   0.541   3.317   3.972
  487TIP3    H1 1467   0.581   3.361   4.048
  487TIP3    H2 1468   0.613   3.267   3.934
  488TIP3   OH2 1469   3.821   0.759   1.598
  488TIP3    H1 1470   3.779   0.727   1.678
  488TIP3    H2 1471   3.900   0.705   1.589
  489TIP3   OH2 1472   1.898   2.513   2.098
  489TIP3    H1 1473   1.844   2.528   2.021
  489TIP3    H2 1474   1.913   2.600   2.135
  490TIP3   OH2 1475   4.913   4.343   3.648
  490TIP3    H1 1476   4.930   4.289   3.572
  490TIP3    H2 1477   4.973   4.417   3.640
  491TIP3   OH2 1478   5.198   2.365   0.015
  491TIP3    H1 1479   5.257   2.437  -0.009
  491TIP3    H2 1480   5.240   2.324   0.090
  492TIP3   OH2 1481   5.059   5.669   0.166
  492TIP3    H1 1482   5.074   5.727   0.091
  492TIP3    H2 1483   5.090   5.720   0.242
  493TIP3   OH2 1484   0.439   0.337   3.580
  493TIP3    H1 1485   0.400   0.254   3.608
  493TIP3    H2 1486   0.369   0.382   3.532
  494TIP3   OH2 1487   5.960   0.070   4.887
  494TIP3    H1 1488   5.969   0.101   4.977
  494TIP3    H2 1489   5.920   0.143   4.840
  495TIP3   OH2 1490   0.598   0.402   1.050
  495TIP3    H1 1491   0.687   0.426   1.023
  495TIP3    H2 1492   0.603   0.395   1.145
  496TIP3   OH2 1493   0.832   1.950   0.285
  496TIP3    H1 1494   0.897   1.981   0.348
  496TIP3    H2 1495   0.771   2.023   0.275
  497TIP3   OH2 1496   3.917   5.502   3.024
  497TIP3    H1 1497   3.972   5.437   2.980
  497TIP3    H2 1498   3.954   5.586   2.998
  498TIP3   OH2 1499   0.359   2.231   3.581
  498TIP3    H1 1500   0.279   2.187   3.610
  498TIP3    H2 1501   0.333   2.322   3.567
  499TIP3   OH2 1502   1.115   4.322   2.282
  499TIP3    H1 1503   1.184   4.257   2.269
  499TIP3    H2 1504   1.050   4.300   2.215
  500TIP3   OH2 1505   6.238   2.159   4.212
  500TIP3    H1 1506   6.259   2.135   4.302
  500TIP3    H2 1507   6.276   2.246   4.200
  501TIP3   OH2 1508   1.695   3.562   4.151
  501TIP3    H1 1509   1.770   3.621   4.143
  501TIP3    H2 1510   1.690   3.542   4.244
  502TIP3   OH2 1511   3.872   4.985   3.038
  502TIP3    H1 1512   3.848   4.934   3.115
  502TIP3    H2 1513   3.807   5.056   3.034
  503TIP3   OH2 1514   0.159   5.278   3.344
  503TIP3    H1 1515   0.205   5.362   3.347
  503TIP3    H2 1516   0.071   5.300   3.316
  504TIP3   OH2 1517   4.986   2.514   0.912
  504TIP3    H1 1518   4.924   2.462   0.861
  504TIP3    H2 1519   4.994   2.469   0.995
  505TIP3   OH2 1520   1.374   5.316   3.445
  505TIP3    H1 1521   1.351   5.224   3.454
  505TIP3    H2 1522   1.451   5.317   3.389
  506TIP3   OH2 1523   0.876   3.832   4.261
  506TIP3    H1 1524   0.848   3.840   4.170
  506TIP3    H2 1525   0.814   3.885   4.310
  507TIP3   OH2 1526   4.376   0.714   3.979
  507TIP3    H1 1527   4.389   0.658   4.056
  507TIP3    H2 1528   4.342   0.796   4.015
  508TIP3   OH2 1529   6.133   2.189   4.692
  508TIP3    H1 1530   6.123   2.235   4.775
  508TIP3    H2 1531   6.050   2.203   4.646
  509TIP3   OH2 1532   2.885   5.529   1.591
  509TIP3    H1 1533   2.927   5.460   1.643
  509TIP3    H2 1534   2.955   5.559   1.532
  510TIP3   OH2 1535   3.321   4.653   1.057
  510TIP3    H1 1536   3.363   4.568   1.072
  510TIP3    H2 1537   3.392   4.716   1.064
  511TIP3   OH2 1538   3.656   3.231   1.280
  511TIP3    H1 1539   3.621   3.163   1.338
  511TIP3    H2 1540   3.602   3.224   1.201
  512TIP3   OH2 1541   4.937   1.592   5.049
  512TIP3    H1 1542   4.986   1.661   5.005
  512TIP3    H2 1543   4.852   1.590   5.004
  513TIP3   OH2 1544   4.122   0.706   5.128
  513TIP3    H1 1545   4.158   0.793   5.111
  513TIP3    H2 1546   4.042   0.702   5.075
  514TIP3   OH2 1547   3.539   4.496   4.337
  514TIP3    H1 1548   3.593   4.475   4.413
  514TIP3    H2 1549   3.470   4.553   4.371
  515TIP3   OH2 1550   1.109   3.480   0.943
  515TIP3    H1 1551   1.025   3.527   0.940
  515TIP3    H2 1552   1.136   3.484   1.035
  516TIP3   OH2 1553   5.437   4.535   2.416
  516TIP3    H1 1554   5.449   4.587   2.496
  516TIP3    H2 1555   5.358   4.485   2.432
  517TIP3   OH2 1556   0.760   2.597   3.795
  517TIP3    H1 1557   0.819   2.601   3.870
  517TIP3    H2 1558   0.802   2.538   3.733
  518TIP3   OH2 1559   1.714   0.720   0.278
  518TIP3    H1 1560   1.757   0.781   0.218
  518TIP3    H2 1561   1.634   0.694   0.233
  519TIP3   OH2 1562   2.533   4.281   4.376
  519TIP3    H1 1563   2.502   4.192   4.361
  519TIP3    H2 1564   2.477   4.336   4.322
  520TIP3   OH2 1565   4.997   5.724   4.637
  520TIP3    H1 1566   4.997   5.794   4.702
  520TIP3    H2 1567   5.088   5.718   4.609
  521TIP3   OH2 1568   2.758   5.174   4.861
  521TIP3    H1 1569   2.810   5.148   4.937
  521TIP3    H2 1570   2.807   5.246   4.822
  522TIP3   OH2 1571   0.825   2.386   0.489
  522TIP3    H1 1572   0.860   2.457   0.435
  522TIP3    H2 1573   0.836   2.416   0.579
  523TIP3   OH2 1574   0.315   5.923   4.830
  523TIP3    H1 1575   0.373   5.991   4.866
  523TIP3    H2 1576   0.240   5.921   4.890
  524TIP3   OH2 1577   5.114   2.533   0.262
  524TIP3    H1 1578   5.106   2.443   0.229
  524TIP3    H2 1579   5.065   2.586   0.199
  525TIP3   OH2 1580   5.732   1.705   2.047
  525TIP3    H1 1581   5.808   1.647   2.052
  525TIP3    H2 1582   5.746   1.756   1.966
  526TIP3   OH2 1583   0.973   5.827   4.596
  526TIP3    H1 1584   1.053   5.773   4.590
  526TIP3    H2 1585   0.948   5.842   4.505
  527TIP3   OH2 1586   2.685   1.572   1.196
  527TIP3    H1 1587   2.670   1.642   1.259
  527TIP3    H2 1588   2.768   1.533   1.222
  528TIP3   OH2 1589   0.233   1.840   0.609
  528TIP3    H1 1590   0.211   1.757   0.651
  528TIP3    H2 1591   0.223   1.906   0.678
  529TIP3   OH2 1592   4.984   2.788   5.119
  529TIP3    H1 1593   4.999   2.781   5.214
  529TIP3    H2 1594   4.889   2.780   5.110
  530TIP3   OH2 1595   0.858   2.108   1.468
  530TIP3    H1 1596   0.839   2.161   1.546
  530TIP3    H2 1597   0.925   2.158   1.421
  531TIP3   OH2 1598   5.855   5.868   1.139
  531TIP3    H1 1599   5.807   5.789   1.163
  531TIP3    H2 1600   5.788   5.927   1.105
  532TIP3   OH2 1601   1.009   5.468   1.425
  532TIP3    H1 1602   1.014   5.378   1.459
  532TIP3    H2 1603   1.092   5.508   1.453
  533TIP3   OH2 1604   0.870   4.649   0.477
  533TIP3    H1 1605   0.796   4.601   0.515
  533TIP3    H2 1606   0.894   4.713   0.544
  534TIP3   OH2 1607   5.579   2.133   0.800
  534TIP3    H1 1608   5.564   2.123   0.894
  534TIP3    H2 1609   5.493   2.116   0.761
  535TIP3   OH2 1610   0.459   5.040   1.221
  535TIP3    H1 1611   0.478   5.062   1.312
  535TIP3    H2 1612   0.475   5.121   1.172
  536TIP3   OH2 1613   2.816   4.958   2.905
  536TIP3    H1 1614   2.748   4.916   2.853
  536TIP3    H2 1615   2.854   4.888   2.957
  537TIP3   OH2 1616   4.460   4.520   2.185
  537TIP3    H1 1617   4.536   4.504   2.131
  537TIP3    H2 1618   4.405   4.443   2.173
  538TIP3   OH2 1619   1.423   2.295   2.097
  538TIP3    H1 1620   1.457   2.284   2.186
  538TIP3    H2 1621   1.344   2.348   2.107
  539TIP3   OH2 1622   5.436   3.145   2.128
  539TIP3    H1 1623   5.369   3.156   2.059
  539TIP3    H2 1624   5.411   3.209   2.195
  540TIP3   OH2 1625   0.419   3.270   2.493
  540TIP3    H1 1626   0.483   3.342   2.494
  540TIP3    H2 1627   0.345   3.304   2.442
  541TIP3   OH2 1628   3.514   2.560   0.859
  541TIP3    H1 1629   3.449   2.628   0.842
  541TIP3    H2 1630   3.506   2.500   0.785
  542TIP3   OH2 1631   4.799   0.687   4.182
  542TIP3    H1 1632   4.738   0.624   4.146
  542TIP3    H2 1633   4.771   0.771   4.147
  543TIP3   OH2 1634   3.307   3.535   0.602
  543TIP3    H1 1635   3.312   3.549   0.507
  543TIP3    H2 1636   3.396   3.511   0.627
  544TIP3   OH2 1637   6.114   3.572   1.736
  544TIP3    H1 1638   6.185   3.567   1.671
  544TIP3    H2 1639   6.126   3.657   1.779
  545TIP3   OH2 1640   3.641   2.025   3.021
  545TIP3    H1 1641   3.696   2.010   2.944
  545TIP3    H2 1642   3.562   1.974   3.005
  546TIP3   OH2 1643   2.947   3.398   3.941
  546TIP3    H1 1644   3.005   3.439   4.006
  546TIP3    H2 1645   2.871   3.370   3.991
  547TIP3   OH2 1646   0.864   4.947   0.871
  547TIP3    H1 1647   0.908   4.987   0.796
  547TIP3    H2 1648   0.858   4.854   0.849
  548TIP3   OH2 1649   1.459   2.094   0.955
  548TIP3    H1 1650   1.414   2.095   0.871
  548TIP3    H2 1651   1.519   2.020   0.950
  549TIP3   OH2 1652   6.346   0.043   1.006
  549TIP3    H1 1653   6.355   0.130   1.045
  549TIP3    H2 1654   6.306  -0.010   1.075
  550TIP3   OH2 1655   5.607   1.099   0.475
  550TIP3    H1 1656   5.665   1.070   0.545
  550TIP3    H2 1657   5.666   1.140   0.411
  551TIP3   OH2 1658   3.609   0.499   4.668
  551TIP3    H1 1659   3.535   0.523   4.612
  551TIP3    H2 1660   3.671   0.456   4.610
  552TIP3   OH2 1661   1.032   0.980   1.267
  552TIP3    H1 1662   1.028   1.060   1.320
  552TIP3    H2 1663   1.115   0.939   1.291
  553TIP3   OH2 1664   2.584   3.256   3.793
  553TIP3    H1 1665   2.608   3.346   3.770
  553TIP3    H2 1666   2.628   3.202   3.727
  554TIP3   OH2 1667   0.858   0.733   2.784
  554TIP3    H1 1668   0.866   0.642   2.754
  554TIP3    H2 1669   0.764   0.747   2.794
  555TIP3   OH2 1670   0.563   3.425   2.206
  555TIP3    H1 1671   0.604   3.339   2.215
  555TIP3    H2 1672   0.472   3.406   2.183
  556TIP3   OH2 1673   1.178   5.763   0.828
  556TIP3    H1 1674   1.128   5.844   0.838
  556TIP3    H2 1675   1.206   5.765   0.736
  557TIP3   OH2 1676   5.653   4.385   4.860
  557TIP3    H1 1677   5.683   4.373   4.950
  557TIP3    H2 1678   5.616   4.301   4.835
  558TIP3   OH2 1679   1.664   3.844   4.643
  558TIP3    H1 1680   1.680   3.749   4.646
  558TIP3    H2 1681   1.706   3.878   4.722
  559TIP3   OH2 1682   0.557   5.064   2.825
  559TIP3    H1 1683   0.497   5.036   2.894
  559TIP3    H2 1684   0.583   4.983   2.782
  560TIP3   OH2 1685   5.672   2.379   4.536
  560TIP3    H1 1686   5.635   2.386   4.448
  560TIP3    H2 1687   5.596   2.373   4.594
  561TIP3   OH2 1688   2.854   4.782   3.857
  561TIP3    H1 1689   2.850   4.759   3.764
  561TIP3    H2 1690   2.766   4.814   3.877
  562TIP3   OH2 1691   0.055   2.440   0.551
  562TIP3    H1 1692   0.097   2.526   0.546
  562TIP3    H2 1693   0.010   2.441   0.635
  563TIP3   OH2 1694   2.913   3.826   4.508
  563TIP3    H1 1695   2.988   3.843   4.451
  563TIP3    H2 1696   2.837   3.857   4.458
  564TIP3   OH2 1697   2.744   4.116   2.023
  564TIP3    H1 1698   2.682   4.043   2.016
  564TIP3    H2 1699   2.689   4.194   2.033
  565TIP3   OH2 1700   4.918   1.308   2.089
  565TIP3    H1 1701   4.895   1.281   2.178
  565TIP3    H2 1702   4.913   1.403   2.090
  566TIP3   OH2 1703   6.121   2.458   1.840
  566TIP3    H1 1704   6.175   2.399   1.893
  566TIP3    H2 1705   6.068   2.400   1.785
  567TIP3   OH2 1706   2.588   2.538   1.230
  567TIP3    H1 1707   2.626   2.516   1.315
  567TIP3    H2 1708   2.527   2.467   1.211
  568TIP3   OH2 1709   0.784   1.150   1.291
  568TIP3    H1 1710   0.745   1.122   1.373
  568TIP3    H2 1711   0.852   1.084   1.273
  569TIP3   OH2 1712   0.928   5.620   2.611
  569TIP3    H1 1713   0.948   5.576   2.693
  569TIP3    H2 1714   0.974   5.704   2.617
  570TIP3   OH2 1715   5.525   2.170   3.957
  570TIP3    H1 1716   5.546   2.102   3.894
  570TIP3    H2 1717   5.575   2.246   3.928
  571TIP3   OH2 1718   0.089   2.917   0.491
  571TIP3    H1 1719   0.117   2.989   0.434
  571TIP3    H2 1720  -0.006   2.926   0.496
  572TIP3   OH2 1721   6.117   4.421   1.575
  572TIP3    H1 1722   6.051   4.482   1.607
  572TIP3    H2 1723   6.072   4.336   1.573
  573TIP3   OH2 1724   1.393   3.919   2.105
  573TIP3    H1 1725   1.298   3.929   2.107
  573TIP3    H2 1726   1.409   3.830   2.137
  574TIP3   OH2 1727   6.093   2.440   3.865
  574TIP3    H1 1728   6.056   2.511   3.918
  574TIP3    H2 1729   6.186   2.440   3.885
  575TIP3   OH2 1730   0.057   5.852   1.227
  575TIP3    H1 1731   0.031   5.762   1.206
  575TIP3    H2 1732   0.148   5.858   1.198
  576TIP3   OH2 1733   0.839   4.697   1.747
  576TIP3    H1 1734   0.792   4.615   1.737
  576TIP3    H2 1735   0.826   4.721   1.838
  577TIP3   OH2 1736   0.300   2.100   1.563
  577TIP3    H1 1737   0.219   2.113   1.613
  577TIP3    H2 1738   0.343   2.027   1.607
  578TIP3   OH2 1739   4.299   0.227   0.855
  578TIP3    H1 1740   4.215   0.233   0.899
  578TIP3    H2 1741   4.278   0.197   0.767
  579TIP3   OH2 1742   6.192   5.850   0.564
  579TIP3    H1 1743   6.146   5.852   0.648
  579TIP3    H2 1744   6.123   5.846   0.499
  580TIP3   OH2 1745   5.342   2.650   2.711
  580TIP3    H1 1746   5.284   2.721   2.683
  580TIP3    H2 1747   5.405   2.692   2.770
  581TIP3   OH2 1748   1.132   4.277   0.593
  581TIP3    H1 1749   1.093   4.329   0.523
  581TIP3    H2 1750   1.134   4.335   0.669
  582TIP3   OH2 1751   3.236   1.734   1.554
  582TIP3    H1 1752   3.296   1.720   1.480
  582TIP3    H2 1753   3.293   1.764   1.625
  583TIP3   OH2 1754   4.227   3.406   3.960
  583TIP3    H1 1755   4.314   3.376   3.986
  583TIP3    H2 1756   4.168   3.336   3.987
  584TIP3   OH2 1757   1.494   2.663   1.398
  584TIP3    H1 1758   1.534   2.631   1.479
  584TIP3    H2 1759   1.533   2.609   1.329
  585TIP3   OH2 1760   0.138   5.174   3.630
  585TIP3    H1 1761   0.089   5.247   3.667
  585TIP3    H2 1762   0.131   5.185   3.535
  586TIP3   OH2 1763   4.142   4.950   3.273
  586TIP3    H1 1764   4.181   4.952   3.185
  586TIP3    H2 1765   4.142   5.042   3.301
  587TIP3   OH2 1766   4.250   5.780   1.764
  587TIP3    H1 1767   4.229   5.698   1.809
  587TIP3    H2 1768   4.346   5.783   1.764
  588TIP3   OH2 1769   1.043   4.512   5.029
  588TIP3    H1 1770   1.065   4.424   4.998
  588TIP3    H2 1771   0.955   4.528   4.997
  589TIP3   OH2 1772   6.190   1.339   3.363
  589TIP3    H1 1773   6.254   1.279   3.324
  589TIP3    H2 1774   6.108   1.291   3.360
  590TIP3   OH2 1775   6.020   5.842   0.351
  590TIP3    H1 1776   5.961   5.771   0.327
  590TIP3    H2 1777   5.980   5.920   0.312
  591TIP3   OH2 1778   0.696   5.443   2.585
  591TIP3    H1 1779   0.767   5.507   2.588
  591TIP3    H2 1780   0.696   5.402   2.671
  592TIP3   OH2 1781   1.804   3.958   4.859
  592TIP3    H1 1782   1.898   3.946   4.844
  592TIP3    H2 1783   1.794   4.053   4.867
  593TIP3   OH2 1784   4.699   3.624   0.431
  593TIP3    H1 1785   4.722   3.704   0.384
  593TIP3    H2 1786   4.680   3.654   0.520
  594TIP3   OH2 1787   3.759   4.576   0.667
  594TIP3    H1 1788   3.852   4.598   0.673
  594TIP3    H2 1789   3.756   4.481   0.679
  595TIP3   OH2 1790   4.447   4.876   4.195
  595TIP3    H1 1791   4.512   4.852   4.129
  595TIP3    H2 1792   4.402   4.794   4.215
  596TIP3   OH2 1793   5.212   4.610   1.103
  596TIP3    H1 1794   5.156   4.580   1.174
  596TIP3    H2 1795   5.227   4.703   1.120
  597TIP3   OH2 1796   2.000   4.746   4.057
  597TIP3    H1 1797   1.928   4.747   3.995
  597TIP3    H2 1798   1.963   4.706   4.136
  598TIP3   OH2 1799   4.753   4.125   3.254
  598TIP3    H1 1800   4.831   4.131   3.199
  598TIP3    H2 1801   4.685   4.090   3.196
  599TIP3   OH2 1802   4.835   0.490   2.862
  599TIP3    H1 1803   4.825   0.518   2.771
  599TIP3    H2 1804   4.921   0.449   2.866
  600TIP3   OH2 1805   4.030   3.320   0.622
  600TIP3    H1 1806   4.027   3.227   0.646
  600TIP3    H2 1807   4.122   3.337   0.604
  601TIP3   OH2 1808   6.228   1.944   2.850
  601TIP3    H1 1809   6.223   1.918   2.758
  601TIP3    H2 1810   6.155   2.005   2.862
  602TIP3   OH2 1811   0.284   1.624   0.791
  602TIP3    H1 1812   0.374   1.639   0.762
  602TIP3    H2 1813   0.277   1.529   0.799
  603TIP3   OH2 1814   2.858   2.257   4.875
  603TIP3    H1 1815   2.870   2.213   4.791
  603TIP3    H2 1816   2.849   2.350   4.852
  604TIP3   OH2 1817   5.336   3.379   3.270
  604TIP3    H1 1818   5.291   3.295   3.266
  604TIP3    H2 1819   5.429   3.356   3.279
  605TIP3   OH2 1820   6.264   4.028   4.162
  605TIP3    H1 1821   6.332   4.085   4.125
  605TIP3    H2 1822   6.283   4.026   4.256
  606TIP3   OH2 1823   1.453   4.333   2.325
  606TIP3    H1 1824   1.458   4.309   2.418
  606TIP3    H2 1825   1.524   4.284   2.283
  607TIP3   OH2 1826   2.863   5.363   4.678
  607TIP3    H1 1827   2.881   5.291   4.617
  607TIP3    H2 1828   2.809   5.424   4.627
  608TIP3   OH2 1829   2.907   4.186   1.658
  608TIP3    H1 1830   2.982   4.199   1.600
  608TIP3    H2 1831   2.842   4.141   1.604
  609TIP3   OH2 1832   4.967   0.432   3.773
  609TIP3    H1 1833   4.943   0.522   3.749
  609TIP3    H2 1834   5.057   0.422   3.741
  610TIP3   OH2 1835   0.199   5.966   3.803
  610TIP3    H1 1836   0.119   5.921   3.778
  610TIP3    H2 1837   0.201   6.045   3.748
  611TIP3   OH2 1838   0.301   4.690   4.607
  611TIP3    H1 1839   0.371   4.751   4.583
  611TIP3    H2 1840   0.242   4.741   4.663
  612TIP3   OH2 1841   5.380   5.483   4.499
  612TIP3    H1 1842   5.385   5.531   4.417
  612TIP3    H2 1843   5.314   5.415   4.483
  613TIP3   OH2 1844   4.579   1.115   1.742
  613TIP3    H1 1845   4.561   1.207   1.759
  613TIP3    H2 1846   4.646   1.092   1.807
  614TIP3   OH2 1847   4.355   0.593   0.421
  614TIP3    H1 1848   4.401   0.594   0.505
  614TIP3    H2 1849   4.297   0.517   0.426
  615TIP3   OH2 1850   3.865   4.632   3.042
  615TIP3    H1 1851   3.932   4.582   3.088
  615TIP3    H2 1852   3.821   4.682   3.112
  616TIP3   OH2 1853   2.653   5.032   1.634
  616TIP3    H1 1854   2.740   4.996   1.647
  616TIP3    H2 1855   2.594   4.957   1.645
  617TIP3   OH2 1856   2.370   1.865   3.852
  617TIP3    H1 1857   2.391   1.909   3.934
  617TIP3    H2 1858   2.451   1.868   3.801
  618TIP3   OH2 1859   1.521   3.753   4.099
  618TIP3    H1 1860   1.569   3.670   4.110
  618TIP3    H2 1861   1.585   3.812   4.059
  619TIP3   OH2 1862   5.321   5.584   4.038
  619TIP3    H1 1863   5.255   5.649   4.062
  619TIP3    H2 1864   5.295   5.505   4.086
  620TIP3   OH2 1865   5.512   2.458   4.216
  620TIP3    H1 1866   5.536   2.445   4.124
  620TIP3    H2 1867   5.575   2.524   4.247
  621TIP3   OH2 1868   0.815   3.945   0.869
  621TIP3    H1 1869   0.827   4.032   0.830
  621TIP3    H2 1870   0.753   3.901   0.811
  622TIP3   OH2 1871   0.617   4.145   3.693
  622TIP3    H1 1872   0.574   4.082   3.751
  622TIP3    H2 1873   0.548   4.204   3.664
  623TIP3   OH2 1874   2.971   1.020   0.079
  623TIP3    H1 1875   2.984   1.110   0.048
  623TIP3    H2 1876   3.057   0.979   0.070
  624TIP3   OH2 1877   3.989   5.107   5.043
  624TIP3    H1 1878   4.057   5.174   5.039
  624TIP3    H2 1879   4.032   5.031   5.083
  625TIP3   OH2 1880   2.293   2.642   2.714
  625TIP3    H1 1881   2.368   2.668   2.769
  625TIP3    H2 1882   2.333   2.616   2.631
  626TIP3   OH2 1883   0.340   2.056   4.146
  626TIP3    H1 1884   0.392   2.088   4.220
  626TIP3    H2 1885   0.403   2.047   4.074
  627TIP3   OH2 1886   4.857   3.191   3.638
  627TIP3    H1 1887   4.832   3.277   3.605
  627TIP3    H2 1888   4.837   3.131   3.567
  628TIP3   OH2 1889   5.876   4.877   0.599
  628TIP3    H1 1890   5.910   4.946   0.656
  628TIP3    H2 1891   5.874   4.799   0.654
  629TIP3   OH2 1892   1.597   4.402   1.468
  629TIP3    H1 1893   1.643   4.485   1.482
  629TIP3    H2 1894   1.666   4.337   1.459
  630TIP3   OH2 1895   3.900   1.011   3.315
  630TIP3    H1 1896   3.961   0.981   3.248
  630TIP3    H2 1897   3.940   1.091   3.349
  631TIP3   OH2 1898   5.349   1.764   5.004
  631TIP3    H1 1899   5.267   1.769   4.955
  631TIP3    H2 1900   5.376   1.856   5.014
  632TIP3   OH2 1901   0.222   1.281   2.372
  632TIP3    H1 1902   0.224   1.186   2.361
  632TIP3    H2 1903   0.299   1.312   2.326
  633TIP3   OH2 1904   4.179   4.069   0.909
  633TIP3    H1 1905   4.101   4.120   0.889
  633TIP3    H2 1906   4.244   4.098   0.846
  634TIP3   OH2 1907   2.672   2.090   0.938
  634TIP3    H1 1908   2.607   2.062   1.003
  634TIP3    H2 1909   2.750   2.112   0.989
  635TIP3   OH2 1910   3.852   4.086   1.189
  635TIP3    H1 1911   3.850   4.057   1.280
  635TIP3    H2 1912   3.926   4.146   1.185
  636TIP3   OH2 1913   4.185   1.061   1.246
  636TIP3    H1 1914   4.183   1.096   1.335
  636TIP3    H2 1915   4.096   1.074   1.213
  637TIP3   OH2 1916   1.377   4.079   3.473
  637TIP3    H1 1917   1.461   4.092   3.429
  637TIP3    H2 1918   1.321   4.148   3.438
  638TIP3   OH2 1919   2.750   1.665   0.529
  638TIP3    H1 1920   2.709   1.674   0.443
  638TIP3    H2 1921   2.726   1.576   0.557
  639TIP3   OH2 1922   3.259   3.480   2.079
  639TIP3    H1 1923   3.279   3.408   2.019
  639TIP3    H2 1924   3.218   3.437   2.155
  640TIP3   OH2 1925   3.102   5.044   4.779
  640TIP3    H1 1926   3.025   4.992   4.756
  640TIP3    H2 1927   3.175   4.998   4.738
  641TIP3   OH2 1928   0.752   0.299   4.304
  641TIP3    H1 1929   0.721   0.272   4.391
  641TIP3    H2 1930   0.739   0.394   4.303
  642TIP3   OH2 1931  -0.020   4.179   1.144
  642TIP3    H1 1932  -0.098   4.131   1.115
  642TIP3    H2 1933   0.038   4.180   1.068
  643TIP3   OH2 1934   0.478   1.874   0.981
  643TIP3    H1 1935   0.497   1.966   0.963
  643TIP3    H2 1936   0.446   1.873   1.071
  644TIP3   OH2 1937   5.961   0.844   5.090
  644TIP3    H1 1938   5.955   0.895   5.170
  644TIP3    H2 1939   5.872   0.843   5.055
  645TIP3   OH2 1940   3.642   2.421   2.045
  645TIP3    H1 1941   3.648   2.345   1.987
  645TIP3    H2 1942   3.567   2.470   2.012
  646TIP3   OH2 1943   0.908   0.006   3.971
  646TIP3    H1 1944   0.890  -0.080   4.010
  646TIP3    H2 1945   0.889  -0.006   3.878
  647TIP3   OH2 1946   2.729   0.650   4.033
  647TIP3    H1 1947   2.800   0.599   3.994
  647TIP3    H2 1948   2.767   0.737   4.047
  648TIP3   OH2 1949   2.165   0.070   0.627
  648TIP3    H1 1950   2.107   0.011   0.580
  648TIP3    H2 1951   2.130   0.071   0.716
  649TIP3   OH2 1952   6.209   3.681   2.028
  649TIP3    H1 1953   6.142   3.614   2.040
  649TIP3    H2 1954   6.161   3.758   1.997
  650TIP3   OH2 1955   0.187   2.118   1.311
  650TIP3    H1 1956   0.126   2.192   1.319
  650TIP3    H2 1957   0.227   2.111   1.397
  651TIP3   OH2 1958   0.601   5.504   2.005
  651TIP3    H1 1959   0.680   5.450   2.007
  651TIP3    H2 1960   0.625   5.579   1.950
  652TIP3   OH2 1961   4.924   0.076   2.601
  652TIP3    H1 1962   4.833   0.076   2.631
  652TIP3    H2 1963   4.974   0.111   2.674
  653TIP3   OH2 1964   2.932   2.210   3.851
  653TIP3    H1 1965   2.995   2.211   3.779
  653TIP3    H2 1966   2.872   2.282   3.832
  654TIP3   OH2 1967   2.796   5.849   2.318
  654TIP3    H1 1968   2.744   5.775   2.350
  654TIP3    H2 1969   2.746   5.927   2.342
  655TIP3   OH2 1970   5.975   0.145   2.685
  655TIP3    H1 1971   5.932   0.215   2.736
  655TIP3    H2 1972   6.043   0.111   2.744
  656TIP3   OH2 1973   5.496   4.338   1.038
  656TIP3    H1 1974   5.542   4.259   1.012
  656TIP3    H2 1975   5.564   4.398   1.068
  657TIP3   OH2 1976   3.809   1.193   1.789
  657TIP3    H1 1977   3.829   1.188   1.883
  657TIP3    H2 1978   3.728   1.143   1.779
  658TIP3   OH2 1979   4.021   4.583   0.355
  658TIP3    H1 1980   4.014   4.677   0.339
  658TIP3    H2 1981   4.115   4.564   0.345
  659TIP3   OH2 1982   1.380   4.670   4.985
  659TIP3    H1 1983   1.355   4.625   5.066
  659TIP3    H2 1984   1.474   4.683   4.993
  660TIP3   OH2 1985   4.705   2.631   1.625
  660TIP3    H1 1986   4.734   2.554   1.576
  660TIP3    H2 1987   4.712   2.703   1.561
  661TIP3   OH2 1988   3.344   3.743   1.454
  661TIP3    H1 1989   3.271   3.689   1.485
  661TIP3    H2 1990   3.303   3.819   1.414
  662TIP3   OH2 1991   4.216   0.944   4.080
  662TIP3    H1 1992   4.129   0.926   4.117
  662TIP3    H2 1993   4.258   1.001   4.144
  663TIP3   OH2 1994   2.884   3.720   1.368
  663TIP3    H1 1995   2.957   3.670   1.405
  663TIP3    H2 1996   2.807   3.666   1.387
  664TIP3   OH2 1997   2.245   1.798   0.934
  664TIP3    H1 1998   2.296   1.863   0.885
  664TIP3    H2 1999   2.154   1.815   0.908
  665TIP3   OH2 2000   1.431   3.030   4.815
  665TIP3    H1 2001   1.460   3.042   4.905
  665TIP3    H2 2002   1.507   3.056   4.762
  666TIP3   OH2 2003   5.080   3.536   3.690
  666TIP3    H1 2004   5.104   3.613   3.743
  666TIP3    H2 2005   5.164   3.504   3.656
  667TIP3   OH2 2006   6.060   5.406   2.832
  667TIP3    H1 2007   6.060   5.310   2.832
  667TIP3    H2 2008   6.151   5.430   2.820
  668TIP3   OH2 2009   0.336   3.258   4.179
  668TIP3    H1 2010   0.412   3.255   4.238
  668TIP3    H2 2011   0.374   3.256   4.091
  669TIP3   OH2 2012   1.282   4.535   4.139
  669TIP3    H1 2013   1.305   4.490   4.057
  669TIP3    H2 2014   1.323   4.621   4.131
  670TIP3   OH2 2015   1.519   5.260   2.402
  670TIP3    H1 2016   1.512   5.287   2.310
  670TIP3    H2 2017   1.450   5.194   2.413
  671TIP3   OH2 2018   4.026   3.766   0.844
  671TIP3    H1 2019   3.960   3.711   0.802
  671TIP3    H2 2020   3.977   3.839   0.881
  672TIP3   OH2 2021   2.555   0.362   4.424
  672TIP3    H1 2022   2.601   0.311   4.358
  672TIP3    H2 2023   2.570   0.315   4.506
  673TIP3   OH2 2024   2.742   2.418   3.805
  673TIP3    H1 2025   2.752   2.413   3.710
  673TIP3    H2 2026   2.763   2.509   3.827
  674TIP3   OH2 2027   6.252   5.503   0.119
  674TIP3    H1 2028   6.203   5.467   0.194
  674TIP3    H2 2029   6.187   5.510   0.049
  675TIP3   OH2 2030   4.433   2.774   0.657
  675TIP3    H1 2031   4.428   2.870   0.649
  675TIP3    H2 2032   4.352   2.750   0.701
  676TIP3   OH2 2033   2.508   1.590   4.035
  676TIP3    H1 2034   2.421   1.625   4.055
  676TIP3    H2 2035   2.569   1.652   4.076
  677TIP3   OH2 2036   0.973   4.283   3.158
  677TIP3    H1 2037   0.966   4.378   3.147
  677TIP3    H2 2038   0.891   4.249   3.121
  678TIP3   OH2 2039   4.246   2.886   3.000
  678TIP3    H1 2040   4.305   2.929   3.062
  678TIP3    H2 2041   4.303   2.850   2.933
  679TIP3   OH2 2042   2.477   5.617   1.104
  679TIP3    H1 2043   2.467   5.627   1.198
  679TIP3    H2 2044   2.387   5.621   1.070
  680TIP3   OH2 2045   6.222   2.191   3.788
  680TIP3    H1 2046   6.197   2.240   3.867
  680TIP3    H2 2047   6.176   2.236   3.717
  681TIP3   OH2 2048   0.320   1.261   1.939
  681TIP3    H1 2049   0.256   1.275   2.009
  681TIP3    H2 2050   0.327   1.346   1.896
  682TIP3   OH2 2051   2.582   3.868   0.396
  682TIP3    H1 2052   2.670   3.860   0.432
  682TIP3    H2 2053   2.571   3.962   0.380
  683TIP3   OH2 2054   3.229   1.372   3.625
  683TIP3    H1 2055   3.314   1.366   3.581
  683TIP3    H2 2056   3.166   1.384   3.554
  684TIP3   OH2 2057   1.199   2.800   3.416
  684TIP3    H1 2058   1.144   2.745   3.472
  684TIP3    H2 2059   1.230   2.741   3.348
  685TIP3   OH2 2060   2.842   4.272   4.470
  685TIP3    H1 2061   2.768   4.322   4.503
  685TIP3    H2 2062   2.919   4.325   4.492
  686TIP3   OH2 2063   4.588   1.962   0.581
  686TIP3    H1 2064   4.641   1.942   0.504
  686TIP3    H2 2065   4.498   1.945   0.553
  687TIP3   OH2 2066   4.497   3.604   1.546
  687TIP3    H1 2067   4.541   3.681   1.584
  687TIP3    H2 2068   4.498   3.620   1.452
  688TIP3   OH2 2069   2.299   5.203   4.078
  688TIP3    H1 2070   2.289   5.112   4.051
  688TIP3    H2 2071   2.241   5.212   4.154
  689TIP3   OH2 2072   1.356   1.337   0.169
  689TIP3    H1 2073   1.378   1.391   0.245
  689TIP3    H2 2074   1.291   1.388   0.121
  690TIP3   OH2 2075   0.069   3.896   0.826
  690TIP3    H1 2076   0.086   3.815   0.874
  690TIP3    H2 2077   0.090   3.966   0.889
  691TIP3   OH2 2078   1.377   4.741   2.187
  691TIP3    H1 2079   1.379   4.654   2.146
  691TIP3    H2 2080   1.386   4.724   2.280
  692TIP3   OH2 2081   1.620   4.527   2.023
  692TIP3    H1 2082   1.703   4.490   2.054
  692TIP3    H2 2083   1.586   4.461   1.962
  693TIP3   OH2 2084   3.057   3.072   1.248
  693TIP3    H1 2085   3.111   3.089   1.325
  693TIP3    H2 2086   3.108   3.107   1.175
  694TIP3   OH2 2087   0.029   1.560   1.863
  694TIP3    H1 2088  -0.032   1.489   1.885
  694TIP3    H2 2089   0.115   1.517   1.859
  695TIP3   OH2 2090   1.871   0.986   2.018
  695TIP3    H1 2091   1.937   1.052   1.999
  695TIP3    H2 2092   1.919   0.903   2.021
  696TIP3   OH2 2093   0.707   1.942   2.302
  696TIP3    H1 2094   0.745   1.893   2.374
  696TIP3    H2 2095   0.658   2.012   2.345
  697TIP3   OH2 2096   0.576   2.359   2.519
  697TIP3    H1 2097   0.645   2.425   2.526
  697TIP3    H2 2098   0.524   2.371   2.599
  698TIP3   OH2 2099   1.034   5.032   3.363
  698TIP3    H1 2100   1.026   4.971   3.437
  698TIP3    H2 2101   0.946   5.069   3.354
  699TIP3   OH2 2102   1.997   3.731   3.596
  699TIP3    H1 2103   2.034   3.773   3.519
  699TIP3    H2 2104   2.004   3.797   3.665
  700TIP3   OH2 2105   1.234   3.118   2.571
  700TIP3    H1 2106   1.173   3.044   2.579
  700TIP3    H2 2107   1.316   3.086   2.608
  701TIP3   OH2 2108   3.492   0.829   1.008
  701TIP3    H1 2109   3.401   0.851   0.991
  701TIP3    H2 2110   3.514   0.875   1.089
  702TIP3   OH2 2111   2.514   1.322   3.040
  702TIP3    H1 2112   2.418   1.323   3.038
  702TIP3    H2 2113   2.537   1.239   3.081
  703TIP3   OH2 2114   5.129   3.671   1.694
  703TIP3    H1 2115   5.117   3.762   1.666
  703TIP3    H2 2116   5.145   3.677   1.788
  704TIP3   OH2 2117   3.173   4.423   2.884
  704TIP3    H1 2118   3.196   4.367   2.810
  704TIP3    H2 2119   3.155   4.509   2.845
  705TIP3   OH2 2120   4.663   5.363   4.452
  705TIP3    H1 2121   4.719   5.392   4.380
  705TIP3    H2 2122   4.720   5.363   4.529
  706TIP3   OH2 2123   3.522   5.643   2.331
  706TIP3    H1 2124   3.497   5.658   2.239
  706TIP3    H2 2125   3.438   5.639   2.377
  707TIP3   OH2 2126   4.181   2.996   1.638
  707TIP3    H1 2127   4.104   2.963   1.683
  707TIP3    H2 2128   4.249   2.930   1.656
  708TIP3   OH2 2129   2.647   0.406   1.427
  708TIP3    H1 2130   2.677   0.497   1.420
  708TIP3    H2 2131   2.559   0.413   1.465
  709TIP3   OH2 2132   2.140   2.331   1.205
  709TIP3    H1 2133   2.049   2.347   1.180
  709TIP3    H2 2134   2.134   2.282   1.287
  710TIP3   OH2 2135   3.161   5.743   4.765
  710TIP3    H1 2136   3.207   5.671   4.723
  710TIP3    H2 2137   3.226   5.781   4.825
  711TIP3   OH2 2138   5.711   0.911   1.205
  711TIP3    H1 2139   5.766   0.918   1.283
  711TIP3    H2 2140   5.747   0.836   1.157
  712TIP3   OH2 2141   5.030   5.140   1.144
  712TIP3    H1 2142   5.102   5.095   1.186
  712TIP3    H2 2143   4.961   5.143   1.210
  713TIP3   OH2 2144   1.212   1.001   4.580
  713TIP3    H1 2145   1.246   1.067   4.640
  713TIP3    H2 2146   1.117   1.007   4.589
  714TIP3   OH2 2147   1.888   0.923   0.560
  714TIP3    H1 2148   1.849   0.853   0.613
  714TIP3    H2 2149   1.814   0.981   0.539
  715TIP3   OH2 2150   5.120   3.423   1.173
  715TIP3    H1 2151   5.129   3.332   1.144
  715TIP3    H2 2152   5.083   3.469   1.098
  716TIP3   OH2 2153   0.321   2.829   1.225
  716TIP3    H1 2154   0.398   2.863   1.178
  716TIP3    H2 2155   0.307   2.742   1.187
  717TIP3   OH2 2156   5.465   1.576   0.017
  717TIP3    H1 2157   5.426   1.595   0.102
  717TIP3    H2 2158   5.391   1.566  -0.042
  718TIP3   OH2 2159   4.450   4.423   3.947
  718TIP3    H1 2160   4.458   4.358   4.017
  718TIP3    H2 2161   4.526   4.407   3.891
  719TIP3   OH2 2162   2.395   3.285   3.990
  719TIP3    H1 2163   2.470   3.268   3.933
  719TIP3    H2 2164   2.319   3.285   3.931
  720TIP3   OH2 2165   0.461   1.737   2.223
  720TIP3    H1 2166   0.508   1.784   2.292
  720TIP3    H2 2167   0.378   1.713   2.263
  721TIP3   OH2 2168   2.689   2.382   0.892
  721TIP3    H1 2169   2.627   2.363   0.963
  721TIP3    H2 2170   2.753   2.311   0.897
  722TIP3   OH2 2171   4.506   2.801   2.541
  722TIP3    H1 2172   4.518   2.814   2.635
  722TIP3    H2 2173   4.563   2.867   2.501
  723TIP3   OH2 2174   1.154   4.874   2.287
  723TIP3    H1 2175   1.120   4.784   2.297
  723TIP3    H2 2176   1.243   4.862   2.256
  724TIP3   OH2 2177   1.757   1.621   0.388
  724TIP3    H1 2178   1.804   1.701   0.362
  724TIP3    H2 2179   1.674   1.626   0.338
  725TIP3   OH2 2180   2.458   3.580   0.819
  725TIP3    H1 2181   2.495   3.648   0.875
  725TIP3    H2 2182   2.398   3.628   0.761
  726TIP3   OH2 2183   5.349   0.933   4.715
  726TIP3    H1 2184   5.383   0.892   4.635
  726TIP3    H2 2185   5.299   0.864   4.758
  727TIP3   OH2 2186   3.198   1.663   3.311
  727TIP3    H1 2187   3.193   1.660   3.407
  727TIP3    H2 2188   3.203   1.757   3.291
  728TIP3   OH2 2189   5.139   0.590   2.669
  728TIP3    H1 2190   5.101   0.554   2.589
  728TIP3    H2 2191   5.149   0.515   2.727
  729TIP3   OH2 2192   4.111   2.710   2.322
  729TIP3    H1 2193   4.106   2.736   2.414
  729TIP3    H2 2194   4.137   2.618   2.325
  730TIP3   OH2 2195   2.207  -0.022   3.444
  730TIP3    H1 2196   2.127  -0.003   3.493
  730TIP3    H2 2197   2.194   0.020   3.359
  731TIP3   OH2 2198   0.976   1.615   2.273
  731TIP3    H1 2199   1.018   1.559   2.338
  731TIP3    H2 2200   0.930   1.681   2.325
  732TIP3   OH2 2201   5.131   2.127   3.779
  732TIP3    H1 2202   5.090   2.047   3.812
  732TIP3    H2 2203   5.125   2.189   3.852
  733TIP3   OH2 2204   5.239   4.315   1.024
  733TIP3    H1 2205   5.190   4.366   1.088
  733TIP3    H2 2206   5.330   4.323   1.051
  734TIP3   OH2 2207   1.952   1.289   4.627
  734TIP3    H1 2208   1.866   1.247   4.634
  734TIP3    H2 2209   2.014   1.221   4.653
  735TIP3   OH2 2210   1.489   1.043   0.834
  735TIP3    H1 2211   1.469   0.955   0.802
  735TIP3    H2 2212   1.428   1.100   0.788
  736TIP3   OH2 2213   4.978   1.083   3.758
  736TIP3    H1 2214   5.043   1.075   3.689
  736TIP3    H2 2215   5.020   1.045   3.835
  737TIP3   OH2 2216   0.162   0.227   4.672
  737TIP3    H1 2217   0.199   0.187   4.751
  737TIP3    H2 2218   0.071   0.244   4.695
  738TIP3   OH2 2219   2.853   1.449   5.141
  738TIP3    H1 2220   2.857   1.545   5.146
  738TIP3    H2 2221   2.944   1.421   5.151
  739TIP3   OH2 2222   0.120   1.895   0.021
  739TIP3    H1 2223   0.148   1.836   0.091
  739TIP3    H2 2224   0.199   1.945  -0.001
  740TIP3   OH2 2225   1.789   4.634   3.885
  740TIP3    H1 2226   1.719   4.697   3.903
  740TIP3    H2 2227   1.776   4.609   3.793
  741TIP3   OH2 2228   1.183   3.799   2.818
  741TIP3    H1 2229   1.259   3.855   2.799
  741TIP3    H2 2230   1.125   3.855   2.869
  742TIP3   OH2 2231   4.968   2.321   5.136
  742TIP3    H1 2232   5.000   2.374   5.063
  742TIP3    H2 2233   5.035   2.331   5.204
  743TIP3   OH2 2234   5.110   0.699   1.323
  743TIP3    H1 2235   5.025   0.698   1.368
  743TIP3    H2 2236   5.087   0.705   1.230
  744TIP3   OH2 2237   3.217   5.214   3.265
  744TIP3    H1 2238   3.184   5.266   3.338
  744TIP3    H2 2239   3.299   5.177   3.297
  745TIP3   OH2 2240   4.818   3.542   1.837
  745TIP3    H1 2241   4.844   3.450   1.838
  745TIP3    H2 2242   4.817   3.566   1.744
  746TIP3   OH2 2243   1.884   0.330   1.624
  746TIP3    H1 2244   1.813   0.326   1.559
  746TIP3    H2 2245   1.941   0.400   1.593
  747TIP3   OH2 2246   4.343   4.552   0.685
  747TIP3    H1 2247   4.415   4.607   0.654
  747TIP3    H2 2248   4.343   4.564   0.780
  748TIP3   OH2 2249   2.832   2.371   2.797
  748TIP3    H1 2250   2.779   2.420   2.735
  748TIP3    H2 2251   2.854   2.290   2.752
  749TIP3   OH2 2252   3.908   1.866   3.880
  749TIP3    H1 2253   3.998   1.899   3.877
  749TIP3    H2 2254   3.853   1.945   3.875
  750TIP3   OH2 2255   5.599   1.024   2.882
  750TIP3    H1 2256   5.535   0.978   2.936
  750TIP3    H2 2257   5.548   1.091   2.837
  751TIP3   OH2 2258   0.268   4.198   3.831
  751TIP3    H1 2259   0.356   4.174   3.860
  751TIP3    H2 2260   0.242   4.126   3.773
  752TIP3   OH2 2261   5.610   5.632   4.604
  752TIP3    H1 2262   5.536   5.579   4.574
  752TIP3    H2 2263   5.675   5.624   4.534
  753TIP3   OH2 2264   3.858   3.753   1.595
  753TIP3    H1 2265   3.782   3.707   1.631
  753TIP3    H2 2266   3.878   3.707   1.514
  754TIP3   OH2 2267   4.815   0.517   4.576
  754TIP3    H1 2268   4.777   0.513   4.489
  754TIP3    H2 2269   4.903   0.481   4.566
  755TIP3   OH2 2270   5.312   1.323   0.806
  755TIP3    H1 2271   5.254   1.263   0.760
  755TIP3    H2 2272   5.399   1.286   0.797
  756TIP3   OH2 2273   3.151   5.395   3.490
  756TIP3    H1 2274   3.094   5.447   3.435
  756TIP3    H2 2275   3.123   5.414   3.579
  757TIP3   OH2 2276   1.571   4.964   2.527
  757TIP3    H1 2277   1.642   5.006   2.479
  757TIP3    H2 2278   1.598   4.967   2.619
  758TIP3   OH2 2279   2.350   5.877   0.715
  758TIP3    H1 2280   2.353   5.897   0.809
  758TIP3    H2 2281   2.437   5.901   0.683
  759TIP3   OH2 2282   4.271   5.282   0.352
  759TIP3    H1 2283   4.300   5.245   0.435
  759TIP3    H2 2284   4.331   5.355   0.337
  760TIP3   OH2 2285   1.616   0.118   0.972
  760TIP3    H1 2286   1.709   0.104   0.955
  760TIP3    H2 2287   1.613   0.201   1.019
  761TIP3   OH2 2288   4.563   2.568   4.756
  761TIP3    H1 2289   4.555   2.661   4.777
  761TIP3    H2 2290   4.653   2.546   4.778
  762TIP3   OH2 2291   1.309   2.417   0.097
  762TIP3    H1 2292   1.321   2.333   0.142
  762TIP3    H2 2293   1.360   2.408   0.016
  763TIP3   OH2 2294   1.811   5.290   4.188
  763TIP3    H1 2295   1.740   5.228   4.169
  763TIP3    H2 2296   1.796   5.317   4.279
  764TIP3   OH2 2297   0.882   3.586   0.774
  764TIP3    H1 2298   0.790   3.581   0.799
  764TIP3    H2 2299   0.882   3.639   0.695
  765TIP3   OH2 2300   5.867   1.549   3.784
  765TIP3    H1 2301   5.837   1.621   3.839
  765TIP3    H2 2302   5.839   1.470   3.829
  766TIP3   OH2 2303   3.729   3.640   1.131
  766TIP3    H1 2304   3.731   3.715   1.072
  766TIP3    H2 2305   3.639   3.635   1.162
  767TIP3   OH2 2306   3.190   1.950   3.284
  767TIP3    H1 2307   3.117   1.962   3.344
  767TIP3    H2 2308   3.251   2.021   3.305
  768TIP3   OH2 2309   5.879   4.768   3.427
  768TIP3    H1 2310   5.856   4.730   3.342
  768TIP3    H2 2311   5.884   4.862   3.410
  769TIP3   OH2 2312   3.369   4.740   2.247
  769TIP3    H1 2313   3.429   4.788   2.305
  769TIP3    H2 2314   3.426   4.692   2.187
  770TIP3   OH2 2315   0.591   0.775   2.866
  770TIP3    H1 2316   0.520   0.807   2.811
  770TIP3    H2 2317   0.586   0.828   2.945
  771TIP3   OH2 2318   2.095   3.152   5.008
  771TIP3    H1 2319   2.173   3.104   4.980
  771TIP3    H2 2320   2.121   3.193   5.091
  772TIP3   OH2 2321   2.545   1.682   5.083
  772TIP3    H1 2322   2.478   1.742   5.052
  772TIP3    H2 2323   2.525   1.599   5.040
  773TIP3   OH2 2324   6.290   5.270   2.742
  773TIP3    H1 2325   6.292   5.362   2.716
  773TIP3    H2 2326   6.330   5.269   2.829
  774TIP3   OH2 2327   3.904   3.044   3.282
  774TIP3    H1 2328   3.837   3.025   3.348
  774TIP3    H2 2329   3.983   3.063   3.333
  775TIP3   OH2 2330   4.185   2.699   4.081
  775TIP3    H1 2331   4.169   2.792   4.068
  775TIP3    H2 2332   4.265   2.681   4.031
  776TIP3   OH2 2333   2.597   0.140   1.487
  776TIP3    H1 2334   2.511   0.125   1.449
  776TIP3    H2 2335   2.607   0.235   1.487
  777TIP3   OH2 2336   5.988   0.715   1.658
  777TIP3    H1 2337   6.026   0.640   1.612
  777TIP3    H2 2338   5.900   0.724   1.622
  778TIP3   OH2 2339   0.457   0.167   2.346
  778TIP3    H1 2340   0.509   0.105   2.295
  778TIP3    H2 2341   0.370   0.163   2.306
  779TIP3   OH2 2342   5.942   4.242   4.863
  779TIP3    H1 2343   6.022   4.279   4.901
  779TIP3    H2 2344   5.957   4.247   4.768
  780TIP3   OH2 2345   5.864   2.529   2.354
  780TIP3    H1 2346   5.943   2.477   2.368
  780TIP3    H2 2347   5.848   2.572   2.439
  781TIP3   OH2 2348   0.691   3.760   1.766
  781TIP3    H1 2349   0.761   3.777   1.703
  781TIP3    H2 2350   0.667   3.668   1.751
  782TIP3   OH2 2351   3.516   1.833   1.617
  782TIP3    H1 2352   3.523   1.861   1.526
  782TIP3    H2 2353   3.496   1.913   1.665
  783TIP3   OH2 2354   2.989   3.309   2.794
  783TIP3    H1 2355   3.062   3.300   2.732
  783TIP3    H2 2356   3.017   3.260   2.872
  784TIP3   OH2 2357   1.611   3.638   1.867
  784TIP3    H1 2358   1.545   3.575   1.894
  784TIP3    H2 2359   1.688   3.586   1.848
  785TIP3   OH2 2360   5.264   5.781   4.570
  785TIP3    H1 2361   5.298   5.817   4.652
  785TIP3    H2 2362   5.312   5.828   4.501
  786TIP3   OH2 2363   1.440   4.868   0.163
  786TIP3    H1 2364   1.356   4.825   0.180
  786TIP3    H2 2365   1.441   4.882   0.069
  787TIP3   OH2 2366   5.477   0.775   1.306
  787TIP3    H1 2367   5.560   0.821   1.290
  787TIP3    H2 2368   5.437   0.766   1.220
  788TIP3   OH2 2369   2.847   1.067   1.149
  788TIP3    H1 2370   2.940   1.044   1.141
  788TIP3    H2 2371   2.836   1.143   1.091
  789TIP3   OH2 2372   4.503   5.635   2.712
  789TIP3    H1 2373   4.564   5.708   2.721
  789TIP3    H2 2374   4.477   5.637   2.620
  790TIP3   OH2 2375   2.095   5.931   3.535
  790TIP3    H1 2376   2.132   5.846   3.512
  790TIP3    H2 2377   2.011   5.934   3.489
  791TIP3   OH2 2378   2.815   2.881   1.720
  791TIP3    H1 2379   2.907   2.873   1.747
  791TIP3    H2 2380   2.765   2.878   1.802
  792TIP3   OH2 2381   5.675   2.565   5.176
  792TIP3    H1 2382   5.757   2.603   5.143
  792TIP3    H2 2383   5.613   2.577   5.104
  793TIP3   OH2 2384   1.709   2.873   0.475
  793TIP3    H1 2385   1.755   2.947   0.434
  793TIP3    H2 2386   1.616   2.896   0.470
  794TIP3   OH2 2387   3.646   4.817   2.829
  794TIP3    H1 2388   3.571   4.857   2.872
  794TIP3    H2 2389   3.722   4.861   2.867
  795TIP3   OH2 2390   2.921   1.355   0.344
  795TIP3    H1 2391   2.855   1.397   0.290
  795TIP3    H2 2392   2.999   1.410   0.335
  796TIP3   OH2 2393   1.221   5.877   4.380
  796TIP3    H1 2394   1.195   5.801   4.328
  796TIP3    H2 2395   1.157   5.944   4.359
  797TIP3   OH2 2396   3.298   5.362   1.979
  797TIP3    H1 2397   3.216   5.316   1.959
  797TIP3    H2 2398   3.283   5.400   2.065
  798TIP3   OH2 2399   1.953   0.033   4.482
  798TIP3    H1 2400   1.879  -0.028   4.485
  798TIP3    H2 2401   1.929   0.103   4.542
  799TIP3   OH2 2402   3.644   4.778   1.518
  799TIP3    H1 2403   3.703   4.813   1.584
  799TIP3    H2 2404   3.682   4.694   1.494
  800TIP3   OH2 2405   4.724   1.223   0.254
  800TIP3    H1 2406   4.660   1.156   0.230
  800TIP3    H2 2407   4.727   1.220   0.349
  801TIP3   OH2 2408   2.863   2.431   0.672
  801TIP3    H1 2409   2.798   2.405   0.737
  801TIP3    H2 2410   2.832   2.515   0.639
  802TIP3   OH2 2411   4.134   1.932   1.460
  802TIP3    H1 2412   4.220   1.903   1.490
  802TIP3    H2 2413   4.098   1.857   1.413
  803TIP3   OH2 2414   3.923   2.825   1.022
  803TIP3    H1 2415   3.905   2.909   0.981
  803TIP3    H2 2416   3.860   2.820   1.094
  804TIP3   OH2 2417   2.185   4.658   0.754
  804TIP3    H1 2418   2.201   4.717   0.827
  804TIP3    H2 2419   2.118   4.597   0.787
  805TIP3   OH2 2420   1.417   5.105   0.514
  805TIP3    H1 2421   1.432   5.066   0.600
  805TIP3    H2 2422   1.499   5.093   0.467
  806TIP3   OH2 2423   5.714   5.587   2.166
  806TIP3    H1 2424   5.766   5.605   2.088
  806TIP3    H2 2425   5.778   5.564   2.233
  807TIP3   OH2 2426   1.521   5.819   4.696
  807TIP3    H1 2427   1.603   5.866   4.684
  807TIP3    H2 2428   1.534   5.735   4.652
  808TIP3   OH2 2429   1.102   3.225   3.448
  808TIP3    H1 2430   1.108   3.175   3.529
  808TIP3    H2 2431   1.189   3.264   3.437
  809TIP3   OH2 2432   4.257   5.205   5.078
  809TIP3    H1 2433   4.336   5.151   5.080
  809TIP3    H2 2434   4.290   5.295   5.076
  810TIP3   OH2 2435   5.405   1.368   3.146
  810TIP3    H1 2436   5.443   1.286   3.113
  810TIP3    H2 2437   5.481   1.422   3.167
  811TIP3   OH2 2438   4.741   2.170   1.880
  811TIP3    H1 2439   4.789   2.253   1.877
  811TIP3    H2 2440   4.806   2.103   1.858
  812TIP3   OH2 2441   4.160   2.804   2.597
  812TIP3    H1 2442   4.091   2.838   2.653
  812TIP3    H2 2443   4.196   2.730   2.646
  813TIP3   OH2 2444   6.091   0.503   3.475
  813TIP3    H1 2445   6.136   0.579   3.439
  813TIP3    H2 2446   6.161   0.442   3.498
  814TIP3   OH2 2447   1.700   2.807   4.110
  814TIP3    H1 2448   1.751   2.863   4.051
  814TIP3    H2 2449   1.766   2.750   4.149
  815TIP3   OH2 2450   0.529   2.014   2.089
  815TIP3    H1 2451   0.591   1.997   2.160
  815TIP3    H2 2452   0.470   1.939   2.090
  816TIP3   OH2 2453   3.014   4.365   0.761
  816TIP3    H1 2454   3.060   4.396   0.840
  816TIP3    H2 2455   2.983   4.446   0.719
  817TIP3   OH2 2456   2.975   0.606   4.993
  817TIP3    H1 2457   3.051   0.660   5.015
  817TIP3    H2 2458   2.907   0.669   4.968
  818TIP3   OH2 2459   5.926   0.087   0.205
  818TIP3    H1 2460   5.976   0.105   0.126
  818TIP3    H2 2461   5.835   0.084   0.175
  819TIP3   OH2 2462   4.272   2.360   3.119
  819TIP3    H1 2463   4.234   2.437   3.162
  819TIP3    H2 2464   4.366   2.376   3.118
  820TIP3   OH2 2465   0.276   3.653   4.617
  820TIP3    H1 2466   0.352   3.697   4.655
  820TIP3    H2 2467   0.312   3.577   4.572
  821TIP3   OH2 2468   1.526   1.285   4.497
  821TIP3    H1 2469   1.610   1.238   4.506
  821TIP3    H2 2470   1.481   1.268   4.580
  822TIP3   OH2 2471   3.145   5.060   2.210
  822TIP3    H1 2472   3.235   5.091   2.211
  822TIP3    H2 2473   3.093   5.136   2.186
  823TIP3   OH2 2474   5.830   4.313  -0.026
  823TIP3    H1 2475   5.781   4.384  -0.065
  823TIP3    H2 2476   5.774   4.236  -0.036
  824TIP3   OH2 2477   3.198   0.619   0.297
  824TIP3    H1 2478   3.135   0.681   0.334
  824TIP3    H2 2479   3.251   0.590   0.372
  825TIP3   OH2 2480   3.013   5.193   0.770
  825TIP3    H1 2481   2.941   5.155   0.820
  825TIP3    H2 2482   3.015   5.144   0.688
  826TIP3   OH2 2483   1.043   3.500   3.123
  826TIP3    H1 2484   1.104   3.556   3.075
  826TIP3    H2 2485   1.078   3.496   3.212
  827TIP3   OH2 2486   2.880   1.170   0.820
  827TIP3    H1 2487   2.861   1.239   0.883
  827TIP3    H2 2488   2.924   1.216   0.748
  828TIP3   OH2 2489   0.465   5.891   2.441
  828TIP3    H1 2490   0.459   5.803   2.477
  828TIP3    H2 2491   0.557   5.902   2.418
  829TIP3   OH2 2492   3.534   4.898   0.637
  829TIP3    H1 2493   3.513   4.901   0.730
  829TIP3    H2 2494   3.456   4.860   0.596
  830TIP3   OH2 2495   3.377   4.093   0.124
  830TIP3    H1 2496   3.317   4.120   0.194
  830TIP3    H2 2497   3.367   3.998   0.120
  831TIP3   OH2 2498   3.881   0.677   0.280
  831TIP3    H1 2499   3.965   0.722   0.290
  831TIP3    H2 2500   3.870   0.629   0.362
  832TIP3   OH2 2501   0.658   1.930   4.869
  832TIP3    H1 2502   0.706   2.011   4.883
  832TIP3    H2 2503   0.701   1.888   4.795
  833TIP3   OH2 2504   5.096   5.611   1.964
  833TIP3    H1 2505   5.116   5.657   2.046
  833TIP3    H2 2506   5.177   5.616   1.913
  834TIP3   OH2 2507   1.653   0.555   2.049
  834TIP3    H1 2508   1.666   0.526   2.139
  834TIP3    H2 2509   1.602   0.484   2.008
  835TIP3   OH2 2510   5.394   3.893   4.679
  835TIP3    H1 2511   5.474   3.911   4.728
  835TIP3    H2 2512   5.411   3.809   4.636
  836TIP3   OH2 2513   3.861   5.558   0.650
  836TIP3    H1 2514   3.774   5.557   0.691
  836TIP3    H2 2515   3.875   5.650   0.627
  837TIP3   OH2 2516   0.248   3.904   5.104
  837TIP3    H1 2517   0.258   3.929   5.196
  837TIP3    H2 2518   0.225   3.985   5.059
  838TIP3   OH2 2519   1.013   4.775   4.102
  838TIP3    H1 2520   0.939   4.799   4.158
  838TIP3    H2 2521   1.085   4.758   4.163
  839TIP3   OH2 2522   4.270   0.418   2.560
  839TIP3    H1 2523   4.179   0.399   2.537
  839TIP3    H2 2524   4.286   0.366   2.638
  840TIP3   OH2 2525   2.751   5.409   0.859
  840TIP3    H1 2526   2.671   5.399   0.808
  840TIP3    H2 2527   2.756   5.503   0.877
  841TIP3   OH2 2528   3.887   5.654   4.584
  841TIP3    H1 2529   3.841   5.711   4.521
  841TIP3    H2 2530   3.922   5.583   4.532
  842TIP3   OH2 2531   3.098   1.801   2.527
  842TIP3    H1 2532   3.059   1.835   2.447
  842TIP3    H2 2533   3.065   1.712   2.535
  843TIP3   OH2 2534   6.043   5.130   1.764
  843TIP3    H1 2535   6.120   5.102   1.813
  843TIP3    H2 2536   5.970   5.083   1.805
  844TIP3   OH2 2537   4.615   0.907   3.781
  844TIP3    H1 2538   4.633   0.951   3.697
  844TIP3    H2 2539   4.611   0.814   3.759
  845TIP3   OH2 2540   5.271   2.020   0.420
  845TIP3    H1 2541   5.295   2.042   0.509
  845TIP3    H2 2542   5.181   1.986   0.427
  846TIP3   OH2 2543   2.979   4.968   1.920
  846TIP3    H1 2544   2.908   4.971   1.985
  846TIP3    H2 2545   3.006   5.059   1.909
  847TIP3   OH2 2546   4.187   1.373   5.086
  847TIP3    H1 2547   4.281   1.353   5.087
  847TIP3    H2 2548   4.172   1.420   5.168
  848TIP3   OH2 2549   0.630   0.133   1.789
  848TIP3    H1 2550   0.610   0.224   1.770
  848TIP3    H2 2551   0.652   0.095   1.704
  849TIP3   OH2 2552   6.295   3.806   1.221
  849TIP3    H1 2553   6.231   3.789   1.152
  849TIP3    H2 2554   6.259   3.761   1.298
  850TIP3   OH2 2555   2.518   4.239   3.546
  850TIP3    H1 2556   2.568   4.177   3.599
  850TIP3    H2 2557   2.583   4.276   3.485
  851TIP3   OH2 2558   0.261   4.675   4.118
  851TIP3    H1 2559   0.349   4.640   4.105
  851TIP3    H2 2560   0.225   4.683   4.029
  852TIP3   OH2 2561   1.673   5.566   4.361
  852TIP3    H1 2562   1.734   5.575   4.288
  852TIP3    H2 2563   1.718   5.511   4.424
  853TIP3   OH2 2564   2.169   3.708   4.921
  853TIP3    H1 2565   2.192   3.618   4.943
  853TIP3    H2 2566   2.108   3.735   4.990
  854TIP3   OH2 2567   2.576   2.780   2.603
  854TIP3    H1 2568   2.663   2.795   2.566
  854TIP3    H2 2569   2.580   2.691   2.638
  855TIP3   OH2 2570   2.583   5.286   1.103
  855TIP3    H1 2571   2.588   5.198   1.065
  855TIP3    H2 2572   2.518   5.331   1.050
  856TIP3   OH2 2573   1.535   1.862   1.261
  856TIP3    H1 2574   1.549   1.901   1.175
  856TIP3    H2 2575   1.613   1.807   1.276
  857TIP3   OH2 2576   2.681   2.989   3.989
  857TIP3    H1 2577   2.695   3.079   3.962
  857TIP3    H2 2578   2.759   2.942   3.958
  858TIP3   OH2 2579   2.839   4.288   0.141
  858TIP3    H1 2580   2.796   4.241   0.069
  858TIP3    H2 2581   2.823   4.381   0.122
  859TIP3   OH2 2582   4.060   2.767   1.784
  859TIP3    H1 2583   4.059   2.750   1.878
  859TIP3    H2 2584   4.152   2.776   1.762
  860TIP3   OH2 2585   5.436   4.703   5.204
  860TIP3    H1 2586   5.495   4.681   5.276
  860TIP3    H2 2587   5.468   4.787   5.171
  861TIP3   OH2 2588   3.793   2.092   1.677
  861TIP3    H1 2589   3.876   2.138   1.663
  861TIP3    H2 2590   3.819   2.003   1.702
  862TIP3   OH2 2591   2.493   2.987   0.781
  862TIP3    H1 2592   2.493   3.080   0.806
  862TIP3    H2 2593   2.564   2.979   0.717
  863TIP3   OH2 2594   5.155   0.458   0.869
  863TIP3    H1 2595   5.162   0.407   0.788
  863TIP3    H2 2596   5.240   0.501   0.877
  864TIP3   OH2 2597   4.755   5.887   4.763
  864TIP3    H1 2598   4.799   5.943   4.699
  864TIP3    H2 2599   4.666   5.921   4.769
  865TIP3   OH2 2600   3.011   5.753   0.421
  865TIP3    H1 2601   3.000   5.726   0.513
  865TIP3    H2 2602   3.090   5.807   0.421
  866TIP3   OH2 2603   3.791   6.024   4.513
  866TIP3    H1 2604   3.856   5.993   4.575
  866TIP3    H2 2605   3.710   5.982   4.540
  867TIP3   OH2 2606   6.028   2.287   3.622
  867TIP3    H1 2607   6.023   2.199   3.584
  867TIP3    H2 2608   5.940   2.322   3.612
  868TIP3   OH2 2609   2.698   3.692   4.262
  868TIP3    H1 2610   2.740   3.771   4.228
  868TIP3    H2 2611   2.627   3.725   4.317
  869TIP3   OH2 2612   1.936   0.643   2.444
  869TIP3    H1 2613   1.891   0.715   2.487
  869TIP3    H2 2614   1.895   0.564   2.480
  870TIP3   OH2 2615   5.317   2.405   0.468
  870TIP3    H1 2616   5.244   2.443   0.518
  870TIP3    H2 2617   5.274   2.352   0.401
  871TIP3   OH2 2618   3.165   1.512   0.305
  871TIP3    H1 2619   3.174   1.550   0.218
  871TIP3    H2 2620   3.206   1.576   0.364
  872TIP3   OH2 2621   3.975   4.308   4.880
  872TIP3    H1 2622   3.915   4.325   4.808
  872TIP3    H2 2623   3.923   4.259   4.944
  873TIP3   OH2 2624   5.381   2.363   5.006
  873TIP3    H1 2625   5.315   2.298   5.029
  873TIP3    H2 2626   5.457   2.311   4.979
  874TIP3   OH2 2627   3.144   3.009   1.529
  874TIP3    H1 2628   3.051   3.032   1.525
  874TIP3    H2 2629   3.152   2.929   1.477
  875TIP3   OH2 2630   2.387   4.946   1.567
  875TIP3    H1 2631   2.317   4.897   1.610
  875TIP3    H2 2632   2.366   4.941   1.474
  876TIP3   OH2 2633   5.451   1.377   0.322
  876TIP3    H1 2634   5.395   1.448   0.290
  876TIP3    H2 2635   5.406   1.346   0.401
  877TIP3   OH2 2636   4.470   1.355   5.025
  877TIP3    H1 2637   4.429   1.378   4.942
  877TIP3    H2 2638   4.541   1.296   5.002
  878TIP3   OH2 2639   0.991   2.001   0.480
  878TIP3    H1 2640   1.016   2.073   0.537
  878TIP3    H2 2641   1.036   1.925   0.516
  879TIP3   OH2 2642   4.212   2.171   3.378
  879TIP3    H1 2643   4.195   2.166   3.473
  879TIP3    H2 2644   4.292   2.223   3.371
  880TIP3   OH2 2645   3.660   3.430   4.170
  880TIP3    H1 2646   3.610   3.407   4.248
  880TIP3    H2 2647   3.715   3.503   4.196
  881TIP3   OH2 2648   1.825   1.155   0.400
  881TIP3    H1 2649   1.741   1.112   0.415
  881TIP3    H2 2650   1.891   1.087   0.416
  882TIP3   OH2 2651   0.497   1.779   2.781
  882TIP3    H1 2652   0.526   1.757   2.692
  882TIP3    H2 2653   0.412   1.735   2.789
  883TIP3   OH2 2654   2.629   2.183   1.558
  883TIP3    H1 2655   2.700   2.121   1.538
  883TIP3    H2 2656   2.549   2.137   1.531
  884TIP3   OH2 2657   2.188   1.920   0.142
  884TIP3    H1 2658   2.170   1.985   0.210
  884TIP3    H2 2659   2.226   1.970   0.070
  885TIP3   OH2 2660   2.412   1.872   3.056
  885TIP3    H1 2661   2.399   1.945   3.116
  885TIP3    H2 2662   2.494   1.831   3.086
  886TIP3   OH2 2663   0.237   5.773   0.846
  886TIP3    H1 2664   0.208   5.764   0.756
  886TIP3    H2 2665   0.256   5.867   0.857
  887TIP3   OH2 2666   5.144   3.444   1.542
  887TIP3    H1 2667   5.169   3.486   1.460
  887TIP3    H2 2668   5.130   3.517   1.603
  888TIP3   OH2 2669   3.164   2.510   1.901
  888TIP3    H1 2670   3.152   2.594   1.945
  888TIP3    H2 2671   3.080   2.465   1.913
  889TIP3   OH2 2672   2.356   1.012   0.248
  889TIP3    H1 2673   2.356   0.972   0.161
  889TIP3    H2 2674   2.437   1.064   0.250
  890TIP3   OH2 2675   6.264   3.306   2.723
  890TIP3    H1 2676   6.240   3.243   2.655
  890TIP3    H2 2677   6.236   3.391   2.688
  891TIP3   OH2 2678   3.721   4.322   0.566
  891TIP3    H1 2679   3.700   4.385   0.497
  891TIP3    H2 2680   3.803   4.283   0.538
  892TIP3   OH2 2681   4.385   1.365   3.572
  892TIP3    H1 2682   4.309   1.422   3.560
  892TIP3    H2 2683   4.355   1.278   3.547
  893TIP3   OH2 2684   0.155   0.453   2.082
  893TIP3    H1 2685   0.066   0.468   2.114
  893TIP3    H2 2686   0.143   0.421   1.992
  894TIP3   OH2 2687   4.741   2.369   2.164
  894TIP3    H1 2688   4.646   2.359   2.165
  894TIP3    H2 2689   4.759   2.416   2.083
  895TIP3   OH2 2690   3.743   5.661   1.059
  895TIP3    H1 2691   3.719   5.704   0.977
  895TIP3    H2 2692   3.660   5.646   1.104
  896TIP3   OH2 2693   0.921   3.237   2.069
  896TIP3    H1 2694   0.897   3.163   2.014
  896TIP3    H2 2695   0.949   3.198   2.152
  897TIP3   OH2 2696   3.026   0.800   2.149
  897TIP3    H1 2697   3.033   0.725   2.089
  897TIP3    H2 2698   3.018   0.760   2.235
  898TIP3   OH2 2699   5.522   5.348   3.906
  898TIP3    H1 2700   5.432   5.344   3.872
  898TIP3    H2 2701   5.543   5.441   3.906
  899TIP3   OH2 2702   1.087   3.784   1.771
  899TIP3    H1 2703   1.169   3.782   1.720
  899TIP3    H2 2704   1.018   3.777   1.705
  900TIP3   OH2 2705   1.532   1.731   0.680
  900TIP3    H1 2706   1.628   1.738   0.676
  900TIP3    H2 2707   1.501   1.798   0.619
  901TIP3   OH2 2708   0.236   2.755   4.877
  901TIP3    H1 2709   0.159   2.779   4.928
  901TIP3    H2 2710   0.286   2.836   4.869
  902TIP3   OH2 2711   1.252   0.380   5.007
  902TIP3    H1 2712   1.329   0.373   5.062
  902TIP3    H2 2713   1.178   0.362   5.065
  903TIP3   OH2 2714   0.232   0.387   0.455
  903TIP3    H1 2715   0.181   0.382   0.536
  903TIP3    H2 2716   0.281   0.469   0.462
  904TIP3   OH2 2717   2.113   4.174   2.629
  904TIP3    H1 2718   2.123   4.083   2.599
  904TIP3    H2 2719   2.025   4.198   2.602
  905TIP3   OH2 2720   1.448   3.455   5.096
  905TIP3    H1 2721   1.489   3.528   5.143
  905TIP3    H2 2722   1.389   3.416   5.161
  906TIP3   OH2 2723   3.690   4.330   3.723
  906TIP3    H1 2724   3.761   4.317   3.660
  906TIP3    H2 2725   3.689   4.250   3.775
  907TIP3   OH2 2726   5.502   5.577   4.252
  907TIP3    H1 2727   5.553   5.496   4.247
  907TIP3    H2 2728   5.448   5.577   4.173
  908TIP3   OH2 2729   1.308   5.008   2.854
  908TIP3    H1 2730   1.231   5.063   2.838
  908TIP3    H2 2731   1.331   5.027   2.945
  909TIP3   OH2 2732   4.780   1.320   3.480
  909TIP3    H1 2733   4.732   1.265   3.417
  909TIP3    H2 2734   4.871   1.291   3.472
  910TIP3   OH2 2735   5.130   0.165   5.213
  910TIP3    H1 2736   5.180   0.119   5.145
  910TIP3    H2 2737   5.120   0.254   5.179
  911TIP3   OH2 2738   5.167   0.952   4.339
  911TIP3    H1 2739   5.170   0.962   4.244
  911TIP3    H2 2740   5.258   0.932   4.363
  912TIP3   OH2 2741   1.369   0.784   1.698
  912TIP3    H1 2742   1.452   0.803   1.742
  912TIP3    H2 2743   1.302   0.807   1.762
  913TIP3   OH2 2744   1.921   3.992   1.938
  913TIP3    H1 2745   1.827   3.973   1.946
  913TIP3    H2 2746   1.934   4.004   1.844
  914TIP3   OH2 2747   3.229   3.303   2.629
  914TIP3    H1 2748   3.203   3.392   2.606
  914TIP3    H2 2749   3.266   3.311   2.717
  915TIP3   OH2 2750   0.582   3.521   1.732
  915TIP3    H1 2751   0.497   3.490   1.760
  915TIP3    H2 2752   0.640   3.507   1.807
  916TIP3   OH2 2753   6.273   4.736   4.740
  916TIP3    H1 2754   6.306   4.646   4.746
  916TIP3    H2 2755   6.340   4.789   4.783
  917TIP3   OH2 2756   3.167   3.769   0.736
  917TIP3    H1 2757   3.215   3.701   0.688
  917TIP3    H2 2758   3.204   3.765   0.825
  918TIP3   OH2 2759   3.968   5.409   1.290
  918TIP3    H1 2760   3.915   5.337   1.323
  918TIP3    H2 2761   4.025   5.433   1.363
  919TIP3   OH2 2762   4.637   1.676   4.483
  919TIP3    H1 2763   4.568   1.683   4.548
  919TIP3    H2 2764   4.604   1.613   4.419
  920TIP3   OH2 2765   1.761   3.491   1.095
  920TIP3    H1 2766   1.690   3.555   1.102
  920TIP3    H2 2767   1.839   3.542   1.076
  921TIP3   OH2 2768   5.383   3.761   1.382
  921TIP3    H1 2769   5.290   3.772   1.402
  921TIP3    H2 2770   5.385   3.692   1.316
  922TIP3   OH2 2771   0.825   3.901   3.190
  922TIP3    H1 2772   0.733   3.874   3.180
  922TIP3    H2 2773   0.826   3.952   3.271
  923TIP3   OH2 2774   4.795   4.906   4.177
  923TIP3    H1 2775   4.825   4.990   4.214
  923TIP3    H2 2776   4.748   4.864   4.249
  924TIP3   OH2 2777   5.600   3.330   3.314
  924TIP3    H1 2778   5.647   3.351   3.233
  924TIP3    H2 2779   5.643   3.382   3.381
  925TIP3   OH2 2780   3.921   0.588   1.908
  925TIP3    H1 2781   3.905   0.595   2.002
  925TIP3    H2 2782   3.852   0.642   1.868
  926TIP3   OH2 2783   4.471   1.053   4.688
  926TIP3    H1 2784   4.377   1.034   4.696
  926TIP3    H2 2785   4.479   1.103   4.607
  927TIP3   OH2 2786   0.961   1.734   1.830
  927TIP3    H1 2787   0.865   1.735   1.837
  927TIP3    H2 2788   0.992   1.753   1.919
  928TIP3   OH2 2789   0.040   1.176   3.232
  928TIP3    H1 2790   0.104   1.199   3.299
  928TIP3    H2 2791   0.092   1.138   3.161
  929TIP3   OH2 2792   5.905   4.519   5.126
  929TIP3    H1 2793   5.838   4.451   5.122
  929TIP3    H2 2794   5.975   4.481   5.180
  930TIP3   OH2 2795   4.758   2.187   4.306
  930TIP3    H1 2796   4.757   2.094   4.331
  930TIP3    H2 2797   4.819   2.191   4.232
  931TIP3   OH2 2798   0.489   4.542   3.996
  931TIP3    H1 2799   0.554   4.589   3.945
  931TIP3    H2 2800   0.426   4.509   3.932
  932TIP3   OH2 2801   0.476   3.175   1.930
  932TIP3    H1 2802   0.437   3.261   1.914
  932TIP3    H2 2803   0.481   3.134   1.843
  933TIP3   OH2 2804   1.912   5.055   2.639
  933TIP3    H1 2805   1.867   5.100   2.568
  933TIP3    H2 2806   1.849   4.990   2.670
  934TIP3   OH2 2807   4.264   2.060   2.770
  934TIP3    H1 2808   4.320   1.996   2.727
  934TIP3    H2 2809   4.281   2.048   2.863
  935TIP3   OH2 2810   3.066   5.345   0.385
  935TIP3    H1 2811   3.148   5.328   0.431
  935TIP3    H2 2812   3.013   5.395   0.447
  936TIP3   OH2 2813   4.615   2.639   3.765
  936TIP3    H1 2814   4.554   2.659   3.836
  936TIP3    H2 2815   4.580   2.686   3.689
  937TIP3   OH2 2816   4.993   2.975   4.454
  937TIP3    H1 2817   4.914   3.030   4.456
  937TIP3    H2 2818   5.063   3.035   4.431
  938TIP3   OH2 2819   6.189   5.262   5.185
  938TIP3    H1 2820   6.173   5.219   5.269
  938TIP3    H2 2821   6.271   5.224   5.154
  939TIP3   OH2 2822   3.960   1.581   0.466
  939TIP3    H1 2823   3.992   1.501   0.424
  939TIP3    H2 2824   3.908   1.549   0.540
  940TIP3   OH2 2825   6.084   4.356   1.287
  940TIP3    H1 2826   6.158   4.416   1.276
  940TIP3    H2 2827   6.060   4.364   1.380
  941TIP3   OH2 2828   2.995   2.992   3.005
  941TIP3    H1 2829   3.001   2.902   2.972
  941TIP3    H2 2830   2.902   3.004   3.024
  942TIP3   OH2 2831   6.248   0.475   3.191
  942TIP3    H1 2832   6.160   0.443   3.212
  942TIP3    H2 2833   6.306   0.401   3.211
  943TIP3   OH2 2834   5.121   4.327   2.915
  943TIP3    H1 2835   5.086   4.371   2.992
  943TIP3    H2 2836   5.093   4.381   2.841
  944TIP3   OH2 2837   2.722   3.544   4.991
  944TIP3    H1 2838   2.784   3.612   4.963
  944TIP3    H2 2839   2.638   3.571   4.952
  945TIP3   OH2 2840   3.945   3.695   3.320
  945TIP3    H1 2841   3.971   3.719   3.409
  945TIP3    H2 2842   3.897   3.771   3.287
  946TIP3   OH2 2843   5.540   5.678   3.262
  946TIP3    H1 2844   5.607   5.706   3.324
  946TIP3    H2 2845   5.590   5.644   3.187
  947TIP3   OH2 2846   5.594   1.120   2.153
  947TIP3    H1 2847   5.586   1.204   2.108
  947TIP3    H2 2848   5.675   1.128   2.203
  948TIP3   OH2 2849   4.171   0.701   4.511
  948TIP3    H1 2850   4.251   0.650   4.512
  948TIP3    H2 2851   4.138   0.693   4.421
  949TIP3   OH2 2852   1.209   4.525   1.402
  949TIP3    H1 2853   1.180   4.493   1.487
  949TIP3    H2 2854   1.158   4.604   1.387
  950TIP3   OH2 2855   3.903   5.753   2.656
  950TIP3    H1 2856   3.872   5.687   2.594
  950TIP3    H2 2857   3.963   5.705   2.713
  951TIP3   OH2 2858   0.093   4.329   3.549
  951TIP3    H1 2859   0.049   4.296   3.628
  951TIP3    H2 2860   0.052   4.282   3.477
  952TIP3   OH2 2861   3.876   4.118   1.641
  952TIP3    H1 2862   3.827   4.061   1.700
  952TIP3    H2 2863   3.958   4.071   1.625
  953TIP3   OH2 2864   1.551   4.002   3.197
  953TIP3    H1 2865   1.596   4.007   3.112
  953TIP3    H2 2866   1.534   4.094   3.219
  954TIP3   OH2 2867   0.435   0.805   2.156
  954TIP3    H1 2868   0.436   0.821   2.062
  954TIP3    H2 2869   0.422   0.891   2.195
  955TIP3   OH2 2870   2.100   1.945   4.042
  955TIP3    H1 2871   2.123   1.931   3.950
  955TIP3    H2 2872   2.007   1.968   4.039
  956TIP3   OH2 2873   1.396   1.145   2.000
  956TIP3    H1 2874   1.428   1.161   1.912
  956TIP3    H2 2875   1.408   1.227   2.047
  957TIP3   OH2 2876   0.703   1.944   3.649
  957TIP3    H1 2877   0.654   1.880   3.598
  957TIP3    H2 2878   0.705   2.023   3.594
  958TIP3   OH2 2879   4.792   4.647   3.773
  958TIP3    H1 2880   4.803   4.620   3.865
  958TIP3    H2 2881   4.881   4.654   3.740
  959TIP3   OH2 2882   4.398   0.687   3.593
  959TIP3    H1 2883   4.401   0.685   3.688
  959TIP3    H2 2884   4.305   0.692   3.572
  960TIP3   OH2 2885   1.120   0.423   0.577
  960TIP3    H1 2886   1.097   0.421   0.670
  960TIP3    H2 2887   1.172   0.344   0.563
  961TIP3   OH2 2888   4.421   5.127   0.162
  961TIP3    H1 2889   4.361   5.143   0.235
  961TIP3    H2 2890   4.429   5.032   0.158
  962TIP3   OH2 2891   0.871   2.803   1.562
  962TIP3    H1 2892   0.900   2.768   1.646
  962TIP3    H2 2893   0.864   2.897   1.576
  963TIP3   OH2 2894   5.140   1.887   4.249
  963TIP3    H1 2895   5.099   1.969   4.275
  963TIP3    H2 2896   5.198   1.911   4.177
  964TIP3   OH2 2897   3.055   5.752   2.328
  964TIP3    H1 2898   3.094   5.793   2.404
  964TIP3    H2 2899   2.965   5.786   2.326
  965TIP3   OH2 2900   1.125   1.065   3.908
  965TIP3    H1 2901   1.190   1.104   3.967
  965TIP3    H2 2902   1.141   0.971   3.913
  966TIP3   OH2 2903   4.379   3.714   0.516
  966TIP3    H1 2904   4.284   3.725   0.515
  966TIP3    H2 2905   4.408   3.754   0.434
  967TIP3   OH2 2906   4.915   1.681   3.623
  967TIP3    H1 2907   4.984   1.664   3.558
  967TIP3    H2 2908   4.902   1.598   3.667
  968TIP3   OH2 2909   4.504   1.508   2.019
  968TIP3    H1 2910   4.456   1.591   2.017
  968TIP3    H2 2911   4.471   1.463   2.097
  969TIP3   OH2 2912   1.584   2.057   3.545
  969TIP3    H1 2913   1.677   2.036   3.554
  969TIP3    H2 2914   1.561   2.028   3.456
  970TIP3   OH2 2915   5.250   5.103   1.343
  970TIP3    H1 2916   5.343   5.101   1.324
  970TIP3    H2 2917   5.228   5.196   1.349
  971TIP3   OH2 2918   4.957   4.186   0.495
  971TIP3    H1 2919   4.890   4.229   0.548
  971TIP3    H2 2920   4.944   4.221   0.406
  972TIP3   OH2 2921   6.263   4.096   1.424
  972TIP3    H1 2922   6.340   4.044   1.401
  972TIP3    H2 2923   6.235   4.135   1.341
  973TIP3   OH2 2924   5.923   3.592   3.721
  973TIP3    H1 2925   5.934   3.566   3.630
  973TIP3    H2 2926   5.835   3.631   3.724
  974TIP3   OH2 2927   2.513   5.947   2.593
  974TIP3    H1 2928   2.503   6.041   2.608
  974TIP3    H2 2929   2.467   5.906   2.667
  975TIP3   OH2 2930   6.329   5.512   0.824
  975TIP3    H1 2931   6.366   5.573   0.761
  975TIP3    H2 2932   6.401   5.492   0.884
  976TIP3   OH2 2933   5.662   4.416   4.174
  976TIP3    H1 2934   5.748   4.417   4.132
  976TIP3    H2 2935   5.680   4.439   4.265
  977TIP3   OH2 2936   3.470   4.161   2.138
  977TIP3    H1 2937   3.389   4.192   2.096
  977TIP3    H2 2938   3.530   4.145   2.066
  978TIP3   OH2 2939   3.090   0.247   0.663
  978TIP3    H1 2940   3.018   0.190   0.635
  978TIP3    H2 2941   3.048   0.309   0.723
  979TIP3   OH2 2942   6.195   0.969   4.112
  979TIP3    H1 2943   6.265   1.013   4.064
  979TIP3    H2 2944   6.144   1.040   4.150
  980TIP3   OH2 2945   0.986   4.090   3.582
  980TIP3    H1 2946   1.055   4.031   3.551
  980TIP3    H2 2947   0.905   4.052   3.548
  981TIP3   OH2 2948   4.912   0.753   1.957
  981TIP3    H1 2949   4.886   0.791   1.873
  981TIP3    H2 2950   5.005   0.735   1.947
  982TIP3   OH2 2951   3.430   3.295   3.734
  982TIP3    H1 2952   3.487   3.369   3.758
  982TIP3    H2 2953   3.345   3.318   3.771
  983TIP3   OH2 2954   1.720   2.672   4.907
  983TIP3    H1 2955   1.695   2.763   4.921
  983TIP3    H2 2956   1.682   2.625   4.981
  984TIP3   OH2 2957   4.487   1.067   0.193
  984TIP3    H1 2958   4.487   0.992   0.252
  984TIP3    H2 2959   4.484   1.143   0.251
  985TIP3   OH2 2960   0.643   5.331   2.832
  985TIP3    H1 2961   0.618   5.240   2.819
  985TIP3    H2 2962   0.727   5.327   2.877
  986TIP3   OH2 2963   0.358   5.736   3.700
  986TIP3    H1 2964   0.348   5.677   3.775
  986TIP3    H2 2965   0.292   5.804   3.714
  987TIP3   OH2 2966   3.744   4.784   0.426
  987TIP3    H1 2967   3.725   4.693   0.403
  987TIP3    H2 2968   3.769   4.780   0.518
  988TIP3   OH2 2969   2.738   3.182   2.470
  988TIP3    H1 2970   2.646   3.208   2.467
  988TIP3    H2 2971   2.736   3.096   2.512
  989TIP3   OH2 2972   5.638   1.697   3.711
  989TIP3    H1 2973   5.573   1.639   3.750
  989TIP3    H2 2974   5.717   1.643   3.705
  990TIP3   OH2 2975   0.300   3.908   0.333
  990TIP3    H1 2976   0.342   3.873   0.255
  990TIP3    H2 2977   0.361   3.974   0.366
  991TIP3   OH2 2978   2.415   0.069   0.975
  991TIP3    H1 2979   2.483   0.025   1.027
  991TIP3    H2 2980   2.390   0.145   1.028
  992TIP3   OH2 2981   0.868   0.732   3.401
  992TIP3    H1 2982   0.859   0.826   3.416
  992TIP3    H2 2983   0.863   0.693   3.488
  993TIP3   OH2 2984   0.458   1.169   2.952
  993TIP3    H1 2985   0.537   1.213   2.920
  993TIP3    H2 2986   0.446   1.204   3.040
  994TIP3   OH2 2987   4.938   2.706   3.406
  994TIP3    H1 2988   4.863   2.710   3.347
  994TIP3    H2 2989   5.003   2.654   3.359
  995TIP3   OH2 2990   5.377   1.087   3.048
  995TIP3    H1 2991   5.318   1.115   2.977
  995TIP3    H2 2992   5.351   0.997   3.067
  996TIP3   OH2 2993   0.873   3.446   4.111
  996TIP3    H1 2994   0.842   3.356   4.102
  996TIP3    H2 2995   0.926   3.462   4.032
  997TIP3   OH2 2996   4.515   2.535   5.123
  997TIP3    H1 2997   4.469   2.492   5.051
  997TIP3    H2 2998   4.570   2.466   5.160
  998TIP3   OH2 2999   2.325   5.355   2.121
  998TIP3    H1 3000   2.402   5.304   2.095
  998TIP3    H2 3001   2.351   5.398   2.202
  999TIP3   OH2 3002   1.283   1.238   5.066
  999TIP3    H1 3003   1.267   1.182   5.142
  999TIP3    H2 3004   1.359   1.198   5.023
 1000TIP3   OH2 3005   0.247   4.185   4.926
 1000TIP3    H1 3006   0.280   4.269   4.957
 1000TIP3    H2 3007   0.171   4.207   4.872
 1001TIP3   OH2 3008   4.760   0.555   1.101
 1001TIP3    H1 3009   4.766   0.601   1.017
 1001TIP3    H2 3010   4.723   0.470   1.078
 1002TIP3   OH2 3011   0.316   5.783   1.539
 1002TIP3    H1 3012   0.279   5.859   1.494
 1002TIP3    H2 3013   0.407   5.780   1.511
 1003TIP3   OH2 3014   3.569   1.449   2.739
 1003TIP3    H1 3015   3.552   1.479   2.649
 1003TIP3    H2 3016   3.664   1.448   2.747
 1004TIP3   OH2 3017   3.085   1.857   0.998
 1004TIP3    H1 3018   3.111   1.765   1.004
 1004TIP3    H2 3019   3.164   1.906   1.022
 1005TIP3   OH2 3020   0.396   5.597   4.364
 1005TIP3    H1 3021   0.388   5.661   4.436
 1005TIP3    H2 3022   0.484   5.562   4.374
 1006TIP3   OH2 3023   2.498   5.172   4.987
 1006TIP3    H1 3024   2.480   5.095   5.041
 1006TIP3    H2 3025   2.593   5.182   4.991
 1007TIP3   OH2 3026   4.151   2.619   4.792
 1007TIP3    H1 3027   4.170   2.713   4.790
 1007TIP3    H2 3028   4.061   2.614   4.824
 1008TIP3   OH2 3029   5.627   3.452   2.285
 1008TIP3    H1 3030   5.693   3.392   2.251
 1008TIP3    H2 3031   5.654   3.538   2.253
 1009TIP3   OH2 3032   3.126   4.129   3.941
 1009TIP3    H1 3033   3.100   4.106   3.852
 1009TIP3    H2 3034   3.212   4.090   3.952
 1010TIP3   OH2 3035   6.332   2.239   2.886
 1010TIP3    H1 3036   6.393   2.166   2.888
 1010TIP3    H2 3037   6.250   2.202   2.920
 1011TIP3   OH2 3038   4.934   0.161   1.903
 1011TIP3    H1 3039   4.920   0.133   1.813
 1011TIP3    H2 3040   5.020   0.126   1.926
 1012TIP3   OH2 3041   5.139   5.601   4.282
 1012TIP3    H1 3042   5.128   5.516   4.326
 1012TIP3    H2 3043   5.116   5.665   4.349
 1013TIP3   OH2 3044   3.567   3.423   0.476
 1013TIP3    H1 3045   3.538   3.491   0.414
 1013TIP3    H2 3046   3.661   3.415   0.460
 1014TIP3   OH2 3047   0.384   2.486   4.542
 1014TIP3    H1 3048   0.414   2.434   4.617
 1014TIP3    H2 3049   0.315   2.542   4.579
 1015TIP3   OH2 3050   0.914   5.218   4.530
 1015TIP3    H1 3051   0.941   5.307   4.552
 1015TIP3    H2 3052   0.892   5.221   4.437
 1016TIP3   OH2 3053   0.799   5.845   4.082
 1016TIP3    H1 3054   0.765   5.817   3.997
 1016TIP3    H2 3055   0.832   5.933   4.067
 1017TIP3   OH2 3056   4.781   5.579   4.575
 1017TIP3    H1 3057   4.858   5.635   4.584
 1017TIP3    H2 3058   4.722   5.626   4.517
 1018TIP3   OH2 3059   3.146   2.546   0.628
 1018TIP3    H1 3060   3.054   2.520   0.638
 1018TIP3    H2 3061   3.146   2.640   0.648
 1019TIP3   OH2 3062   0.340   4.817   5.049
 1019TIP3    H1 3063   0.404   4.822   4.978
 1019TIP3    H2 3064   0.259   4.789   5.006
 1020TIP3   OH2 3065   0.154   3.992   1.735
 1020TIP3    H1 3066   0.216   4.009   1.806
 1020TIP3    H2 3067   0.202   3.935   1.675
 1021TIP3   OH2 3068   5.011   2.703   0.453
 1021TIP3    H1 3069   5.018   2.611   0.481
 1021TIP3    H2 3070   5.084   2.715   0.393
 1022TIP3   OH2 3071   5.952   1.827   1.913
 1022TIP3    H1 3072   5.973   1.762   1.980
 1022TIP3    H2 3073   6.004   1.800   1.836
 1023TIP3   OH2 3074   1.231   1.329   4.129
 1023TIP3    H1 3075   1.259   1.416   4.101
 1023TIP3    H2 3076   1.313   1.279   4.136
 1024TIP3   OH2 3077   5.693   4.437   2.438
 1024TIP3    H1 3078   5.623   4.493   2.404
 1024TIP3    H2 3079   5.674   4.350   2.403
 1025TIP3   OH2 3080   0.989   0.616   3.183
 1025TIP3    H1 3081   1.018   0.688   3.128
 1025TIP3    H2 3082   0.986   0.653   3.271
 1026TIP3   OH2 3083   3.826   1.360   2.735
 1026TIP3    H1 3084   3.868   1.443   2.757
 1026TIP3    H2 3085   3.896   1.295   2.742
 1027TIP3   OH2 3086   3.554   1.075   0.883
 1027TIP3    H1 3087   3.464   1.049   0.866
 1027TIP3    H2 3088   3.586   1.011   0.947
 1028TIP3   OH2 3089   0.682   0.446   3.456
 1028TIP3    H1 3090   0.619   0.507   3.418
 1028TIP3    H2 3091   0.629   0.374   3.489
 1029TIP3   OH2 3092   6.114   5.062   3.525
 1029TIP3    H1 3093   6.144   5.017   3.604
 1029TIP3    H2 3094   6.104   5.153   3.551
 1030TIP3   OH2 3095   3.467   4.892   4.189
 1030TIP3    H1 3096   3.490   4.919   4.278
 1030TIP3    H2 3097   3.387   4.840   4.200
 1031TIP3   OH2 3098   5.283   2.372   2.668
 1031TIP3    H1 3099   5.311   2.455   2.706
 1031TIP3    H2 3100   5.218   2.397   2.602
 1032TIP3   OH2 3101   4.809   3.187   4.291
 1032TIP3    H1 3102   4.777   3.249   4.225
 1032TIP3    H2 3103   4.763   3.212   4.371
 1033TIP3   OH2 3104   2.662   5.821   2.855
 1033TIP3    H1 3105   2.680   5.775   2.937
 1033TIP3    H2 3106   2.651   5.752   2.790
 1034TIP3   OH2 3107   3.314   4.959   1.458
 1034TIP3    H1 3108   3.248   4.906   1.413
 1034TIP3    H2 3109   3.317   4.922   1.547
 1035TIP3   OH2 3110   3.497   1.525   3.269
 1035TIP3    H1 3111   3.458   1.442   3.295
 1035TIP3    H2 3112   3.528   1.510   3.179
 1036TIP3   OH2 3113   5.355   4.542   1.470
 1036TIP3    H1 3114   5.318   4.604   1.408
 1036TIP3    H2 3115   5.343   4.583   1.555
 1037TIP3   OH2 3116   3.396   4.106   5.134
 1037TIP3    H1 3117   3.319   4.136   5.085
 1037TIP3    H2 3118   3.427   4.184   5.179
 1038TIP3   OH2 3119   0.051   2.966   5.182
 1038TIP3    H1 3120   0.035   3.051   5.141
 1038TIP3    H2 3121   0.033   2.903   5.113
 1039TIP3   OH2 3122   5.482   1.793   4.179
 1039TIP3    H1 3123   5.434   1.767   4.257
 1039TIP3    H2 3124   5.417   1.840   4.126
 1040TIP3   OH2 3125   3.103   2.755   1.436
 1040TIP3    H1 3126   3.015   2.771   1.403
 1040TIP3    H2 3127   3.142   2.697   1.371
 1041TIP3   OH2 3128   4.892   2.244   3.514
 1041TIP3    H1 3129   4.839   2.324   3.519
 1041TIP3    H2 3130   4.942   2.254   3.433
 1042TIP3   OH2 3131   2.962   0.175   4.062
 1042TIP3    H1 3132   2.911   0.224   3.997
 1042TIP3    H2 3133   2.978   0.239   4.132
 1043TIP3   OH2 3134   0.972   5.514   2.847
 1043TIP3    H1 3135   1.050   5.567   2.865
 1043TIP3    H2 3136   0.960   5.462   2.927
 1044TIP3   OH2 3137   3.445   3.309   3.157
 1044TIP3    H1 3138   3.454   3.214   3.161
 1044TIP3    H2 3139   3.434   3.337   3.248
 1045TIP3   OH2 3140   5.931   3.508   1.374
 1045TIP3    H1 3141   5.844   3.482   1.406
 1045TIP3    H2 3142   5.912   3.573   1.306
 1046TIP3   OH2 3143   2.521   5.039   2.933
 1046TIP3    H1 3144   2.528   5.006   2.843
 1046TIP3    H2 3145   2.460   4.979   2.975
 1047TIP3   OH2 3146   3.514   4.737   5.244
 1047TIP3    H1 3147   3.438   4.779   5.204
 1047TIP3    H2 3148   3.517   4.650   5.204
 1048TIP3   OH2 3149   6.204  -0.018   4.764
 1048TIP3    H1 3150   6.228   0.051   4.702
 1048TIP3    H2 3151   6.114   0.003   4.790
 1049TIP3   OH2 3152   6.268   3.704   4.836
 1049TIP3    H1 3153   6.188   3.754   4.850
 1049TIP3    H2 3154   6.315   3.712   4.919
 1050TIP3   OH2 3155   2.646   2.077   3.004
 1050TIP3    H1 3156   2.660   1.985   2.981
 1050TIP3    H2 3157   2.720   2.100   3.059
 1051TIP3   OH2 3158   5.477   0.762   5.038
 1051TIP3    H1 3159   5.488   0.716   4.955
 1051TIP3    H2 3160   5.395   0.728   5.074
 1052TIP3   OH2 3161   2.455   0.743   4.303
 1052TIP3    H1 3162   2.516   0.817   4.298
 1052TIP3    H2 3163   2.496   0.683   4.366
 1053TIP3   OH2 3164   6.271   5.837   2.195
 1053TIP3    H1 3165   6.180   5.806   2.194
 1053TIP3    H2 3166   6.298   5.835   2.104
 1054TIP3   OH2 3167   0.841   2.840   0.930
 1054TIP3    H1 3168   0.927   2.827   0.890
 1054TIP3    H2 3169   0.826   2.761   0.982
 1055TIP3   OH2 3170   1.220   2.855   0.296
 1055TIP3    H1 3171   1.229   2.844   0.201
 1055TIP3    H2 3172   1.188   2.945   0.306
 1056TIP3   OH2 3173   3.543   3.967   0.866
 1056TIP3    H1 3174   3.504   4.042   0.910
 1056TIP3    H2 3175   3.596   4.005   0.796
 1057TIP3   OH2 3176   1.509   4.182   1.148
 1057TIP3    H1 3177   1.604   4.190   1.140
 1057TIP3    H2 3178   1.481   4.267   1.185
 1058TIP3   OH2 3179   0.102   3.138   4.722
 1058TIP3    H1 3180   0.197   3.136   4.717
 1058TIP3    H2 3181   0.076   3.209   4.664
 1059TIP3   OH2 3182   5.912   1.022   4.202
 1059TIP3    H1 3183   5.947   1.034   4.290
 1059TIP3    H2 3184   5.873   0.935   4.203
 1060TIP3   OH2 3185   4.856   4.878   3.557
 1060TIP3    H1 3186   4.897   4.927   3.486
 1060TIP3    H2 3187   4.829   4.795   3.518
 1061TIP3   OH2 3188   4.606   4.945   0.794
 1061TIP3    H1 3189   4.647   4.919   0.876
 1061TIP3    H2 3190   4.526   4.990   0.821
 1062TIP3   OH2 3191   1.348   3.929   2.550
 1062TIP3    H1 3192   1.261   3.947   2.513
 1062TIP3    H2 3193   1.338   3.948   2.644
 1063TIP3   OH2 3194   3.108   1.242   2.597
 1063TIP3    H1 3195   3.155   1.297   2.659
 1063TIP3    H2 3196   3.022   1.227   2.638
 1064TIP3   OH2 3197   0.137   4.906   0.769
 1064TIP3    H1 3198   0.134   4.899   0.673
 1064TIP3    H2 3199   0.231   4.910   0.789
 1065TIP3   OH2 3200   5.425   2.710   4.989
 1065TIP3    H1 3201   5.381   2.631   4.957
 1065TIP3    H2 3202   5.382   2.729   5.073
 1066TIP3   OH2 3203   6.113   0.791   1.357
 1066TIP3    H1 3204   6.165   0.823   1.283
 1066TIP3    H2 3205   6.072   0.869   1.393
 1067TIP3   OH2 3206   3.092   5.609   1.795
 1067TIP3    H1 3207   3.177   5.632   1.758
 1067TIP3    H2 3208   3.095   5.515   1.809
 1068TIP3   OH2 3209   4.119   3.852   1.516
 1068TIP3    H1 3210   4.141   3.764   1.546
 1068TIP3    H2 3211   4.063   3.838   1.440
 1069TIP3   OH2 3212   2.367   5.967   2.841
 1069TIP3    H1 3213   2.404   5.896   2.893
 1069TIP3    H2 3214   2.352   6.038   2.903
 1070TIP3   OH2 3215   2.071   3.594   1.351
 1070TIP3    H1 3216   1.976   3.592   1.362
 1070TIP3    H2 3217   2.086   3.563   1.262
 1071TIP3   OH2 3218   4.692   1.537   2.302
 1071TIP3    H1 3219   4.769   1.550   2.246
 1071TIP3    H2 3220   4.669   1.445   2.290
 1072TIP3   OH2 3221   4.015   0.303   4.695
 1072TIP3    H1 3222   4.064   0.250   4.633
 1072TIP3    H2 3223   4.066   0.299   4.776
 1073TIP3   OH2 3224   4.593   3.521   5.195
 1073TIP3    H1 3225   4.520   3.482   5.147
 1073TIP3    H2 3226   4.666   3.517   5.134
 1074TIP3   OH2 3227   5.188   2.338   2.239
 1074TIP3    H1 3228   5.263   2.383   2.201
 1074TIP3    H2 3229   5.130   2.408   2.270
 1075TIP3   OH2 3230   5.613   4.930   2.086
 1075TIP3    H1 3231   5.601   5.022   2.061
 1075TIP3    H2 3232   5.537   4.911   2.141
 1076TIP3   OH2 3233   4.616   4.859   3.098
 1076TIP3    H1 3234   4.675   4.887   3.028
 1076TIP3    H2 3235   4.529   4.864   3.058
 1077TIP3   OH2 3236   2.842   5.391   4.273
 1077TIP3    H1 3237   2.822   5.482   4.249
 1077TIP3    H2 3238   2.855   5.394   4.368
 1078TIP3   OH2 3239   3.486   0.110   1.073
 1078TIP3    H1 3240   3.504   0.027   1.118
 1078TIP3    H2 3241   3.558   0.119   1.010
 1079TIP3   OH2 3242   3.855   5.256   1.553
 1079TIP3    H1 3243   3.769   5.232   1.519
 1079TIP3    H2 3244   3.836   5.306   1.632
 1080TIP3   OH2 3245   2.951   1.347   4.730
 1080TIP3    H1 3246   3.011   1.380   4.797
 1080TIP3    H2 3247   2.970   1.254   4.723
 1081TIP3   OH2 3248   5.854   4.529   4.010
 1081TIP3    H1 3249   5.803   4.609   4.020
 1081TIP3    H2 3250   5.858   4.513   3.916
 1082TIP3   OH2 3251   2.156   0.274   3.956
 1082TIP3    H1 3252   2.233   0.320   3.924
 1082TIP3    H2 3253   2.102   0.341   3.998
 1083TIP3   OH2 3254   3.566  -0.026   5.169
 1083TIP3    H1 3255   3.625   0.048   5.150
 1083TIP3    H2 3256   3.544  -0.062   5.083
 1084TIP3   OH2 3257   5.344   0.078   4.057
 1084TIP3    H1 3258   5.434   0.097   4.082
 1084TIP3    H2 3259   5.305   0.041   4.136
 1085TIP3   OH2 3260   6.223   3.402   4.982
 1085TIP3    H1 3261   6.276   3.480   4.997
 1085TIP3    H2 3262   6.227   3.389   4.887
 1086TIP3   OH2 3263   1.633   4.519   2.924
 1086TIP3    H1 3264   1.698   4.501   2.992
 1086TIP3    H2 3265   1.676   4.493   2.842
 1087TIP3   OH2 3266   3.643   2.268   5.116
 1087TIP3    H1 3267   3.736   2.246   5.123
 1087TIP3    H2 3268   3.602   2.189   5.079
 1088TIP3   OH2 3269   2.341   4.775   2.125
 1088TIP3    H1 3270   2.249   4.766   2.102
 1088TIP3    H2 3271   2.387   4.722   2.060
 1089TIP3   OH2 3272   4.187   0.732   3.373
 1089TIP3    H1 3273   4.260   0.795   3.379
 1089TIP3    H2 3274   4.180   0.713   3.280
 1090TIP3   OH2 3275   2.165   0.943   1.518
 1090TIP3    H1 3276   2.136   0.949   1.609
 1090TIP3    H2 3277   2.116   1.012   1.473
 1091TIP3   OH2 3278   5.825   2.621   2.616
 1091TIP3    H1 3279   5.848   2.568   2.693
 1091TIP3    H2 3280   5.760   2.683   2.649
 1092TIP3   OH2 3281   2.447   1.957   0.773
 1092TIP3    H1 3282   2.512   1.918   0.714
 1092TIP3    H2 3283   2.491   2.034   0.810
 1093TIP3   OH2 3284   2.628   1.946   1.346
 1093TIP3    H1 3285   2.670   1.879   1.292
 1093TIP3    H2 3286   2.559   1.982   1.290
 1094TIP3   OH2 3287   2.608   1.137   1.290
 1094TIP3    H1 3288   2.691   1.090   1.279
 1094TIP3    H2 3289   2.571   1.102   1.371
 1095TIP3   OH2 3290   5.277   1.893   4.005
 1095TIP3    H1 3291   5.305   1.928   3.920
 1095TIP3    H2 3292   5.188   1.861   3.989
 1096TIP3   OH2 3293   0.313   2.165   2.117
 1096TIP3    H1 3294   0.339   2.213   2.196
 1096TIP3    H2 3295   0.392   2.118   2.090
 1097TIP3   OH2 3296   2.302   5.958   4.255
 1097TIP3    H1 3297   2.331   5.913   4.334
 1097TIP3    H2 3298   2.230   5.905   4.221
 1098TIP3   OH2 3299   1.345   2.639   0.392
 1098TIP3    H1 3300   1.303   2.717   0.355
 1098TIP3    H2 3301   1.289   2.566   0.367
 1099TIP3   OH2 3302   5.208   4.781  -0.010
 1099TIP3    H1 3303   5.224   4.846  -0.078
 1099TIP3    H2 3304   5.113   4.770  -0.009
 1100TIP3   OH2 3305   0.423   0.505   2.073
 1100TIP3    H1 3306   0.329   0.489   2.078
 1100TIP3    H2 3307   0.431   0.600   2.081
 1101TIP3   OH2 3308   3.048   2.033   5.008
 1101TIP3    H1 3309   3.065   2.048   4.915
 1101TIP3    H2 3310   3.039   2.120   5.045
 1102TIP3   OH2 3311   3.245   3.520   4.813
 1102TIP3    H1 3312   3.253   3.430   4.843
 1102TIP3    H2 3313   3.336   3.548   4.799
 1103TIP3   OH2 3314   0.726   0.856   3.775
 1103TIP3    H1 3315   0.662   0.802   3.821
 1103TIP3    H2 3316   0.758   0.917   3.842
 1104TIP3   OH2 3317   5.983   0.487   2.268
 1104TIP3    H1 3318   6.009   0.395   2.278
 1104TIP3    H2 3319   5.888   0.486   2.270
 1105TIP3   OH2 3320   1.758   0.966   0.092
 1105TIP3    H1 3321   1.849   0.989   0.114
 1105TIP3    H2 3322   1.740   1.016   0.012
 1106TIP3   OH2 3323   2.205   5.053   3.805
 1106TIP3    H1 3324   2.177   4.971   3.764
 1106TIP3    H2 3325   2.296   5.064   3.778
 1107TIP3   OH2 3326   0.283   0.145   1.547
 1107TIP3    H1 3327   0.329   0.203   1.487
 1107TIP3    H2 3328   0.304   0.057   1.517
 1108TIP3   OH2 3329   3.122   2.392   4.900
 1108TIP3    H1 3330   3.079   2.383   4.986
 1108TIP3    H2 3331   3.108   2.484   4.877
 1109TIP3   OH2 3332   5.341   0.755   2.518
 1109TIP3    H1 3333   5.294   0.683   2.559
 1109TIP3    H2 3334   5.320   0.831   2.572
 1110TIP3   OH2 3335   0.516   3.408   4.774
 1110TIP3    H1 3336   0.584   3.473   4.754
 1110TIP3    H2 3337   0.462   3.450   4.840
 1111TIP3   OH2 3338   4.759   4.987   1.031
 1111TIP3    H1 3339   4.759   4.971   1.126
 1111TIP3    H2 3340   4.738   5.080   1.022
 1112TIP3   OH2 3341   0.492   5.189   2.538
 1112TIP3    H1 3342   0.522   5.279   2.550
 1112TIP3    H2 3343   0.569   5.135   2.556
 1113TIP3   OH2 3344   5.813   5.579   4.115
 1113TIP3    H1 3345   5.738   5.594   4.058
 1113TIP3    H2 3346   5.883   5.633   4.079
 1114TIP3   OH2 3347   4.527   5.448   0.375
 1114TIP3    H1 3348   4.570   5.481   0.454
 1114TIP3    H2 3349   4.590   5.385   0.339
 1115TIP3   OH2 3350   0.959   2.601   4.888
 1115TIP3    H1 3351   1.026   2.606   4.820
 1115TIP3    H2 3352   1.004   2.627   4.968
 1116TIP3   OH2 3353   0.173   4.104   2.610
 1116TIP3    H1 3354   0.165   4.151   2.693
 1116TIP3    H2 3355   0.093   4.123   2.563
 1117TIP3   OH2 3356   4.998   4.697   1.304
 1117TIP3    H1 3357   4.977   4.657   1.388
 1117TIP3    H2 3358   4.918   4.740   1.277
 1118TIP3   OH2 3359   1.420   4.074   3.751
 1118TIP3    H1 3360   1.383   4.084   3.663
 1118TIP3    H2 3361   1.356   4.116   3.808
 1119TIP3   OH2 3362   1.284   5.510   2.304
 1119TIP3    H1 3363   1.349   5.502   2.373
 1119TIP3    H2 3364   1.238   5.591   2.322
 1120TIP3   OH2 3365   3.748   2.882   2.337
 1120TIP3    H1 3366   3.843   2.898   2.337
 1120TIP3    H2 3367   3.734   2.820   2.266
 1121TIP3   OH2 3368   1.199   0.408   3.201
 1121TIP3    H1 3369   1.124   0.459   3.230
 1121TIP3    H2 3370   1.250   0.468   3.146
 1122TIP3   OH2 3371   0.874   0.017   2.350
 1122TIP3    H1 3372   0.819   0.094   2.336
 1122TIP3    H2 3373   0.880   0.009   2.445
 1123TIP3   OH2 3374   3.742   1.557   4.474
 1123TIP3    H1 3375   3.691   1.556   4.555
 1123TIP3    H2 3376   3.831   1.579   4.502
 1124TIP3   OH2 3377   0.637   5.507   2.309
 1124TIP3    H1 3378   0.733   5.513   2.305
 1124TIP3    H2 3379   0.619   5.484   2.401
 1125TIP3   OH2 3380   0.686   4.431   3.002
 1125TIP3    H1 3381   0.704   4.525   3.004
 1125TIP3    H2 3382   0.613   4.420   3.063
 1126TIP3   OH2 3383   0.522   0.711   0.917
 1126TIP3    H1 3384   0.563   0.629   0.890
 1126TIP3    H2 3385   0.456   0.729   0.851
 1127TIP3   OH2 3386   2.873   0.070   2.567
 1127TIP3    H1 3387   2.845   0.149   2.613
 1127TIP3    H2 3388   2.914   0.102   2.487
 1128TIP3   OH2 3389   1.671   2.733   3.233
 1128TIP3    H1 3390   1.724   2.786   3.173
 1128TIP3    H2 3391   1.585   2.774   3.231
 1129TIP3   OH2 3392   3.695   4.971   3.911
 1129TIP3    H1 3393   3.624   4.907   3.909
 1129TIP3    H2 3394   3.775   4.919   3.917
 1130TIP3   OH2 3395   2.375   5.891   4.764
 1130TIP3    H1 3396   2.403   5.964   4.819
 1130TIP3    H2 3397   2.445   5.827   4.771
 1131TIP3   OH2 3398   0.568   4.106   4.150
 1131TIP3    H1 3399   0.640   4.165   4.130
 1131TIP3    H2 3400   0.596   4.058   4.228
 1132TIP3   OH2 3401   1.137   2.077   2.946
 1132TIP3    H1 3402   1.194   2.042   2.878
 1132TIP3    H2 3403   1.144   2.172   2.938
 1133TIP3   OH2 3404   5.209   1.599   1.472
 1133TIP3    H1 3405   5.157   1.584   1.393
 1133TIP3    H2 3406   5.152   1.570   1.543
 1134TIP3   OH2 3407   4.673   2.338   0.982
 1134TIP3    H1 3408   4.609   2.409   0.994
 1134TIP3    H2 3409   4.630   2.277   0.922
 1135TIP3   OH2 3410   5.770   1.459   2.973
 1135TIP3    H1 3411   5.789   1.547   2.941
 1135TIP3    H2 3412   5.856   1.422   2.995
 1136TIP3   OH2 3413   4.036   1.549   3.230
 1136TIP3    H1 3414   3.977   1.535   3.305
 1136TIP3    H2 3415   3.982   1.529   3.153
 1137TIP3   OH2 3416   0.086   2.589   1.541
 1137TIP3    H1 3417   0.029   2.588   1.464
 1137TIP3    H2 3418   0.161   2.536   1.517
 1138TIP3   OH2 3419   4.435   5.537   4.788
 1138TIP3    H1 3420   4.425   5.511   4.697
 1138TIP3    H2 3421   4.527   5.519   4.809
 1139TIP3   OH2 3422   5.440   5.902   3.816
 1139TIP3    H1 3423   5.489   5.889   3.735
 1139TIP3    H2 3424   5.355   5.861   3.799
 1140TIP3   OH2 3425   1.274   3.889   4.140
 1140TIP3    H1 3426   1.369   3.883   4.132
 1140TIP3    H2 3427   1.246   3.798   4.154
 1141TIP3   OH2 3428   1.945   0.721   2.044
 1141TIP3    H1 3429   1.880   0.712   1.975
 1141TIP3    H2 3430   1.939   0.639   2.094
 1142TIP3   OH2 3431   3.990   0.071   1.917
 1142TIP3    H1 3432   4.052   0.060   1.845
 1142TIP3    H2 3433   4.030   0.136   1.974
 1143TIP3   OH2 3434   5.843   2.994   4.103
 1143TIP3    H1 3435   5.753   2.962   4.098
 1143TIP3    H2 3436   5.842   3.061   4.172
 1144TIP3   OH2 3437   1.581   3.586   0.796
 1144TIP3    H1 3438   1.601   3.493   0.797
 1144TIP3    H2 3439   1.561   3.607   0.887
 1145TIP3   OH2 3440   3.190   3.271   0.763
 1145TIP3    H1 3441   3.145   3.302   0.685
 1145TIP3    H2 3442   3.282   3.293   0.748
 1146TIP3   OH2 3443   0.529   4.629   1.623
 1146TIP3    H1 3444   0.461   4.632   1.691
 1146TIP3    H2 3445   0.591   4.562   1.654
 1147TIP3   OH2 3446   5.594   4.775   1.506
 1147TIP3    H1 3447   5.502   4.792   1.528
 1147TIP3    H2 3448   5.596   4.774   1.410
 1148TIP3   OH2 3449   2.864   3.157   5.113
 1148TIP3    H1 3450   2.915   3.076   5.115
 1148TIP3    H2 3451   2.922   3.220   5.069
 1149TIP3   OH2 3452   5.976   3.225   2.117
 1149TIP3    H1 3453   6.038   3.157   2.143
 1149TIP3    H2 3454   5.892   3.180   2.113
 1150TIP3   OH2 3455   0.364   3.403   4.545
 1150TIP3    H1 3456   0.319   3.324   4.575
 1150TIP3    H2 3457   0.447   3.404   4.593
 1151TIP3   OH2 3458   2.492   2.221   0.652
 1151TIP3    H1 3459   2.527   2.246   0.737
 1151TIP3    H2 3460   2.487   2.303   0.603
 1152TIP3   OH2 3461   4.380   0.034   1.242
 1152TIP3    H1 3462   4.330   0.114   1.246
 1152TIP3    H2 3463   4.321  -0.034   1.276
 1153TIP3   OH2 3464   5.677   4.073   0.150
 1153TIP3    H1 3465   5.634   3.999   0.192
 1153TIP3    H2 3466   5.613   4.144   0.153
 1154TIP3   OH2 3467   3.704   4.344   1.663
 1154TIP3    H1 3468   3.649   4.271   1.694
 1154TIP3    H2 3469   3.769   4.303   1.606
 1155TIP3   OH2 3470   6.040   1.554   1.288
 1155TIP3    H1 3471   6.094   1.479   1.312
 1155TIP3    H2 3472   6.084   1.592   1.212
 1156TIP3   OH2 3473   2.176   0.131   3.206
 1156TIP3    H1 3474   2.216   0.192   3.144
 1156TIP3    H2 3475   2.169   0.181   3.288
 1157TIP3   OH2 3476   4.941   4.206   2.666
 1157TIP3    H1 3477   4.930   4.292   2.707
 1157TIP3    H2 3478   4.914   4.144   2.734
 1158TIP3   OH2 3479   0.276   2.779   3.182
 1158TIP3    H1 3480   0.255   2.825   3.263
 1158TIP3    H2 3481   0.282   2.847   3.116
 1159TIP3   OH2 3482   0.572   5.400   0.340
 1159TIP3    H1 3483   0.540   5.380   0.428
 1159TIP3    H2 3484   0.523   5.478   0.314
 1160TIP3   OH2 3485   4.637   2.985   2.373
 1160TIP3    H1 3486   4.675   3.051   2.431
 1160TIP3    H2 3487   4.622   3.031   2.291
 1161TIP3   OH2 3488   0.279   0.399   3.043
 1161TIP3    H1 3489   0.222   0.336   2.998
 1161TIP3    H2 3490   0.331   0.438   2.973
 1162TIP3   OH2 3491   3.103   4.485   1.756
 1162TIP3    H1 3492   3.045   4.421   1.798
 1162TIP3    H2 3493   3.186   4.476   1.803
 1163TIP3   OH2 3494   5.856   0.373   0.289
 1163TIP3    H1 3495   5.768   0.381   0.253
 1163TIP3    H2 3496   5.883   0.284   0.265
 1164TIP3   OH2 3497   2.739   2.012   2.093
 1164TIP3    H1 3498   2.704   1.934   2.137
 1164TIP3    H2 3499   2.687   2.019   2.012
 1165TIP3   OH2 3500   4.269   4.276   1.413
 1165TIP3    H1 3501   4.274   4.181   1.402
 1165TIP3    H2 3502   4.290   4.291   1.505
 1166TIP3   OH2 3503   1.960   1.995   1.176
 1166TIP3    H1 3504   1.981   2.046   1.098
 1166TIP3    H2 3505   2.006   1.911   1.163
 1167TIP3   OH2 3506   0.592   4.885   4.239
 1167TIP3    H1 3507   0.646   4.839   4.174
 1167TIP3    H2 3508   0.528   4.819   4.268
 1168TIP3   OH2 3509   4.939   0.557   0.549
 1168TIP3    H1 3510   4.964   0.596   0.465
 1168TIP3    H2 3511   4.909   0.469   0.527
 1169TIP3   OH2 3512   4.535   4.602   3.188
 1169TIP3    H1 3513   4.477   4.585   3.114
 1169TIP3    H2 3514   4.571   4.689   3.172
 1170TIP3   OH2 3515   5.812   5.858   0.162
 1170TIP3    H1 3516   5.770   5.773   0.172
 1170TIP3    H2 3517   5.742   5.921   0.174
 1171TIP3   OH2 3518   3.259   0.473   4.759
 1171TIP3    H1 3519   3.246   0.559   4.720
 1171TIP3    H2 3520   3.198   0.416   4.712
 1172TIP3   OH2 3521   5.552   4.383   0.036
 1172TIP3    H1 3522   5.485   4.347   0.094
 1172TIP3    H2 3523   5.580   4.464   0.079
 1173TIP3   OH2 3524   3.891   4.783   1.906
 1173TIP3    H1 3525   3.973   4.738   1.928
 1173TIP3    H2 3526   3.826   4.713   1.903
 1174TIP3   OH2 3527   0.909   5.531   2.359
 1174TIP3    H1 3528   0.980   5.594   2.346
 1174TIP3    H2 3529   0.894   5.531   2.454
 1175TIP3   OH2 3530   2.635  -0.019   1.100
 1175TIP3    H1 3531   2.671  -0.043   1.186
 1175TIP3    H2 3532   2.710  -0.025   1.041
 1176TIP3   OH2 3533   5.340   3.984   1.043
 1176TIP3    H1 3534   5.247   3.986   1.066
 1176TIP3    H2 3535   5.380   4.051   1.099
 1177TIP3   OH2 3536   1.331   0.967   3.202
 1177TIP3    H1 3537   1.255   1.016   3.233
 1177TIP3    H2 3538   1.403   1.030   3.203
 1178TIP3   OH2 3539   1.383   4.005   2.817
 1178TIP3    H1 3540   1.355   4.096   2.825
 1178TIP3    H2 3541   1.441   3.990   2.892
 1179TIP3   OH2 3542   4.167   4.037   0.453
 1179TIP3    H1 3543   4.235   4.088   0.410
 1179TIP3    H2 3544   4.202   4.019   0.540
 1180TIP3   OH2 3545   2.643   5.852   4.705
 1180TIP3    H1 3546   2.636   5.942   4.672
 1180TIP3    H2 3547   2.735   5.828   4.690
 1181TIP3   OH2 3548   5.578   4.113   2.482
 1181TIP3    H1 3549   5.534   4.173   2.543
 1181TIP3    H2 3550   5.520   4.038   2.476
 1182TIP3   OH2 3551   3.135   2.842   0.714
 1182TIP3    H1 3552   3.061   2.787   0.739
 1182TIP3    H2 3553   3.096   2.911   0.660
 1183TIP3   OH2 3554   4.838   3.352   4.566
 1183TIP3    H1 3555   4.862   3.411   4.495
 1183TIP3    H2 3556   4.863   3.398   4.646
 1184TIP3   OH2 3557   3.216   2.545   1.636
 1184TIP3    H1 3558   3.136   2.563   1.587
 1184TIP3    H2 3559   3.185   2.519   1.723
 1185TIP3   OH2 3560   6.097   5.236   3.879
 1185TIP3    H1 3561   6.015   5.238   3.829
 1185TIP3    H2 3562   6.075   5.279   3.962
 1186TIP3   OH2 3563   3.950   2.631   5.106
 1186TIP3    H1 3564   3.875   2.617   5.049
 1186TIP3    H2 3565   3.996   2.706   5.068
 1187TIP3   OH2 3566   2.474   5.666   0.187
 1187TIP3    H1 3567   2.546   5.643   0.246
 1187TIP3    H2 3568   2.401   5.610   0.214
 1188TIP3   OH2 3569   5.702   4.181   4.535
 1188TIP3    H1 3570   5.673   4.166   4.625
 1188TIP3    H2 3571   5.642   4.247   4.501
 1189TIP3   OH2 3572   0.819   0.535   1.788
 1189TIP3    H1 3573   0.751   0.498   1.845
 1189TIP3    H2 3574   0.869   0.594   1.845
 1190TIP3   OH2 3575   0.151   3.859   3.023
 1190TIP3    H1 3576   0.102   3.941   3.030
 1190TIP3    H2 3577   0.106   3.810   2.954
 1191TIP3   OH2 3578   1.521   1.571   4.477
 1191TIP3    H1 3579   1.518   1.514   4.401
 1191TIP3    H2 3580   1.607   1.554   4.516
 1192TIP3   OH2 3581   2.710   2.798   0.368
 1192TIP3    H1 3582   2.682   2.764   0.283
 1192TIP3    H2 3583   2.666   2.883   0.375
 1193TIP3   OH2 3584   4.112   5.277   1.864
 1193TIP3    H1 3585   4.047   5.210   1.888
 1193TIP3    H2 3586   4.161   5.292   1.945
 1194TIP3   OH2 3587   0.371   1.997   0.047
 1194TIP3    H1 3588   0.425   1.918   0.044
 1194TIP3    H2 3589   0.400   2.043   0.126
 1195TIP3   OH2 3590   5.895   0.465   0.532
 1195TIP3    H1 3591   5.883   0.426   0.446
 1195TIP3    H2 3592   5.983   0.439   0.560
 1196TIP3   OH2 3593   4.056   2.067   0.475
 1196TIP3    H1 3594   4.058   2.070   0.571
 1196TIP3    H2 3595   3.971   2.029   0.454
 1197TIP3   OH2 3596   2.812   2.415   4.508
 1197TIP3    H1 3597   2.724   2.443   4.484
 1197TIP3    H2 3598   2.845   2.485   4.565
 1198TIP3   OH2 3599   4.745   5.779   1.995
 1198TIP3    H1 3600   4.763   5.706   2.055
 1198TIP3    H2 3601   4.819   5.839   2.007
 1199TIP3   OH2 3602   0.253   0.686   4.339
 1199TIP3    H1 3603   0.338   0.644   4.349
 1199TIP3    H2 3604   0.208   0.633   4.273
 1200TIP3   OH2 3605   2.166   0.886   3.265
 1200TIP3    H1 3606   2.075   0.859   3.282
 1200TIP3    H2 3607   2.159   0.942   3.188
 1201TIP3   OH2 3608   1.921   3.057   1.411
 1201TIP3    H1 3609   2.002   3.056   1.361
 1201TIP3    H2 3610   1.887   2.967   1.405
 1202TIP3   OH2 3611   1.077   4.568   1.665
 1202TIP3    H1 3612   1.126   4.545   1.744
 1202TIP3    H2 3613   0.998   4.612   1.697
 1203TIP3   OH2 3614   0.849   2.588   1.078
 1203TIP3    H1 3615   0.761   2.552   1.088
 1203TIP3    H2 3616   0.852   2.662   1.139
 1204TIP3   OH2 3617   6.258   0.541   2.762
 1204TIP3    H1 3618   6.336   0.485   2.770
 1204TIP3    H2 3619   6.248   0.580   2.850
 1205TIP3   OH2 3620   5.384   1.634   1.234
 1205TIP3    H1 3621   5.383   1.713   1.288
 1205TIP3    H2 3622   5.355   1.564   1.294
 1206TIP3   OH2 3623   0.124   4.193   4.072
 1206TIP3    H1 3624   0.178   4.166   4.146
 1206TIP3    H2 3625   0.182   4.183   3.996
 1207TIP3   OH2 3626   2.192   5.486   1.179
 1207TIP3    H1 3627   2.193   5.500   1.084
 1207TIP3    H2 3628   2.107   5.445   1.196
 1208TIP3   OH2 3629   3.723   2.916   3.925
 1208TIP3    H1 3630   3.649   2.959   3.969
 1208TIP3    H2 3631   3.720   2.826   3.958
 1209TIP3   OH2 3632   2.758   2.995   3.695
 1209TIP3    H1 3633   2.833   3.039   3.736
 1209TIP3    H2 3634   2.797   2.940   3.628
 1210TIP3   OH2 3635   2.337   4.505   0.227
 1210TIP3    H1 3636   2.386   4.529   0.148
 1210TIP3    H2 3637   2.370   4.565   0.294
 1211TIP3   OH2 3638   3.502   5.324   4.324
 1211TIP3    H1 3639   3.463   5.237   4.315
 1211TIP3    H2 3640   3.569   5.328   4.256
 1212TIP3   OH2 3641   2.367   2.929   4.354
 1212TIP3    H1 3642   2.338   2.844   4.386
 1212TIP3    H2 3643   2.460   2.933   4.375
 1213TIP3   OH2 3644   4.819   2.991   3.453
 1213TIP3    H1 3645   4.772   2.909   3.439
 1213TIP3    H2 3646   4.866   3.006   3.371
 1214TIP3   OH2 3647   3.672   5.501   3.122
 1214TIP3    H1 3648   3.764   5.501   3.095
 1214TIP3    H2 3649   3.633   5.426   3.077
 1215TIP3   OH2 3650   2.080   2.982   2.829
 1215TIP3    H1 3651   2.001   2.931   2.841
 1215TIP3    H2 3652   2.104   2.969   2.737
 1216TIP3   OH2 3653   0.942   4.103   4.513
 1216TIP3    H1 3654   1.006   4.056   4.458
 1216TIP3    H2 3655   0.858   4.086   4.471
 1217TIP3   OH2 3656   5.080   2.378   4.884
 1217TIP3    H1 3657   5.040   2.368   4.798
 1217TIP3    H2 3658   5.106   2.470   4.889
 1218TIP3   OH2 3659   3.690   0.994   1.566
 1218TIP3    H1 3660   3.614   0.972   1.621
 1218TIP3    H2 3661   3.745   0.915   1.569
 1219TIP3   OH2 3662   6.319   0.206   0.375
 1219TIP3    H1 3663   6.371   0.285   0.390
 1219TIP3    H2 3664   6.318   0.162   0.460
 1220TIP3   OH2 3665   0.980   1.332   4.279
 1220TIP3    H1 3666   1.038   1.285   4.219
 1220TIP3    H2 3667   1.040   1.382   4.335
 1221TIP3   OH2 3668   5.826   1.972   1.475
 1221TIP3    H1 3669   5.880   1.893   1.477
 1221TIP3    H2 3670   5.801   1.987   1.566
 1222TIP3   OH2 3671   5.323   0.090   0.137
 1222TIP3    H1 3672   5.229   0.098   0.151
 1222TIP3    H2 3673   5.347   0.008   0.180
 1223TIP3   OH2 3674   4.814   1.073   0.987
 1223TIP3    H1 3675   4.784   1.096   1.075
 1223TIP3    H2 3676   4.756   1.002   0.959
 1224TIP3   OH2 3677   4.391   4.610   4.174
 1224TIP3    H1 3678   4.343   4.532   4.202
 1224TIP3    H2 3679   4.410   4.594   4.081
 1225TIP3   OH2 3680   0.173   1.647   2.335
 1225TIP3    H1 3681   0.153   1.555   2.354
 1225TIP3    H2 3682   0.128   1.665   2.253
 1226TIP3   OH2 3683   0.111   1.392   3.484
 1226TIP3    H1 3684   0.033   1.448   3.479
 1226TIP3    H2 3685   0.076   1.306   3.508
 1227TIP3   OH2 3686   2.912   2.024   2.835
 1227TIP3    H1 3687   2.835   1.981   2.796
 1227TIP3    H2 3688   2.932   1.971   2.912
 1228TIP3   OH2 3689   0.162   3.014   3.796
 1228TIP3    H1 3690   0.110   3.020   3.876
 1228TIP3    H2 3691   0.134   2.931   3.756
 1229TIP3   OH2 3692   0.801   1.978   2.793
 1229TIP3    H1 3693   0.778   1.903   2.738
 1229TIP3    H2 3694   0.850   2.036   2.736
 1230TIP3   OH2 3695   5.943   3.615   4.446
 1230TIP3    H1 3696   5.851   3.642   4.438
 1230TIP3    H2 3697   5.991   3.679   4.393
 1231TIP3   OH2 3698   4.792   1.227   3.996
 1231TIP3    H1 3699   4.770   1.167   3.925
 1231TIP3    H2 3700   4.836   1.173   4.061
 1232TIP3   OH2 3701   0.992   5.953   2.175
 1232TIP3    H1 3702   1.061   5.997   2.124
 1232TIP3    H2 3703   0.971   5.875   2.124
 1233TIP3   OH2 3704   5.598   5.868   4.297
 1233TIP3    H1 3705   5.506   5.890   4.280
 1233TIP3    H2 3706   5.595   5.777   4.325
 1234TIP3   OH2 3707   3.482   2.690   2.573
 1234TIP3    H1 3708   3.506   2.659   2.660
 1234TIP3    H2 3709   3.554   2.660   2.517
 1235TIP3   OH2 3710   0.561   0.737   4.656
 1235TIP3    H1 3711   0.535   0.647   4.633
 1235TIP3    H2 3712   0.480   0.787   4.653
 1236TIP3   OH2 3713   0.377   1.910   1.243
 1236TIP3    H1 3714   0.337   1.990   1.275
 1236TIP3    H2 3715   0.331   1.840   1.289
 1237TIP3   OH2 3716   6.191   3.114   0.144
 1237TIP3    H1 3717   6.106   3.146   0.176
 1237TIP3    H2 3718   6.206   3.163   0.063
 1238TIP3   OH2 3719   4.627   1.705   2.965
 1238TIP3    H1 3720   4.545   1.686   2.920
 1238TIP3    H2 3721   4.601   1.736   3.051
 1239TIP3   OH2 3722   3.098   1.385   1.874
 1239TIP3    H1 3723   3.076   1.443   1.802
 1239TIP3    H2 3724   3.175   1.424   1.915
 1240TIP3   OH2 3725   4.762   0.727   2.460
 1240TIP3    H1 3726   4.713   0.765   2.387
 1240TIP3    H2 3727   4.801   0.802   2.504
 1241TIP3   OH2 3728   4.865   2.230   2.466
 1241TIP3    H1 3729   4.816   2.159   2.508
 1241TIP3    H2 3730   4.884   2.198   2.378
 1242TIP3   OH2 3731   6.071   0.211   2.079
 1242TIP3    H1 3732   6.104   0.227   2.167
 1242TIP3    H2 3733   5.975   0.216   2.087
 1243TIP3   OH2 3734   3.402   3.338   5.027
 1243TIP3    H1 3735   3.380   3.373   5.114
 1243TIP3    H2 3736   3.359   3.252   5.025
 1244TIP3   OH2 3737   5.222   0.671   5.109
 1244TIP3    H1 3738   5.187   0.734   5.047
 1244TIP3    H2 3739   5.187   0.698   5.194
 1245TIP3   OH2 3740   5.700   5.344   5.124
 1245TIP3    H1 3741   5.647   5.413   5.164
 1245TIP3    H2 3742   5.741   5.300   5.198
 1246TIP3   OH2 3743   1.170   4.226   1.351
 1246TIP3    H1 3744   1.155   4.319   1.367
 1246TIP3    H2 3745   1.083   4.188   1.347
 1247TIP3   OH2 3746   0.869   2.429   4.298
 1247TIP3    H1 3747   0.778   2.451   4.313
 1247TIP3    H2 3748   0.887   2.455   4.208
 1248TIP3   OH2 3749   4.632   4.054   2.041
 1248TIP3    H1 3750   4.640   4.037   2.135
 1248TIP3    H2 3751   4.720   4.041   2.006
 1249TIP3   OH2 3752   1.250   3.396   0.471
 1249TIP3    H1 3753   1.288   3.482   0.485
 1249TIP3    H2 3754   1.304   3.357   0.402
 1250TIP3   OH2 3755   2.464   1.739   1.107
 1250TIP3    H1 3756   2.390   1.742   1.046
 1250TIP3    H2 3757   2.512   1.660   1.082
 1251TIP3   OH2 3758   3.414   4.230   3.076
 1251TIP3    H1 3759   3.458   4.186   3.003
 1251TIP3    H2 3760   3.328   4.189   3.079
 1252TIP3   OH2 3761   2.470   2.020   1.123
 1252TIP3    H1 3762   2.382   2.023   1.160
 1252TIP3    H2 3763   2.482   1.928   1.098
 1253TIP3   OH2 3764   2.927   1.458   1.284
 1253TIP3    H1 3765   2.958   1.548   1.287
 1253TIP3    H2 3766   2.980   1.412   1.349
 1254TIP3   OH2 3767   3.131   5.176   5.016
 1254TIP3    H1 3768   3.126   5.139   4.928
 1254TIP3    H2 3769   3.223   5.203   5.025
 1255TIP3   OH2 3770   0.567   1.234   0.852
 1255TIP3    H1 3771   0.627   1.307   0.864
 1255TIP3    H2 3772   0.582   1.178   0.928
 1256TIP3   OH2 3773   2.002   0.044   3.601
 1256TIP3    H1 3774   1.910   0.036   3.575
 1256TIP3    H2 3775   1.998   0.088   3.686
 1257TIP3   OH2 3776   1.520   2.776   2.583
 1257TIP3    H1 3777   1.598   2.724   2.607
 1257TIP3    H2 3778   1.446   2.718   2.603
 1258TIP3   OH2 3779   2.968   0.671   2.928
 1258TIP3    H1 3780   2.965   0.600   2.864
 1258TIP3    H2 3781   3.054   0.711   2.915
 1259TIP3   OH2 3782   4.897   5.207   3.056
 1259TIP3    H1 3783   4.824   5.260   3.088
 1259TIP3    H2 3784   4.936   5.169   3.134
 1260TIP3   OH2 3785   1.589   2.128   4.727
 1260TIP3    H1 3786   1.609   2.180   4.649
 1260TIP3    H2 3787   1.602   2.037   4.699
 1261TIP3   OH2 3788   3.041   3.867   2.600
 1261TIP3    H1 3789   3.057   3.917   2.520
 1261TIP3    H2 3790   2.997   3.788   2.570
 1262TIP3   OH2 3791   5.577   1.600   1.050
 1262TIP3    H1 3792   5.630   1.588   1.128
 1262TIP3    H2 3793   5.498   1.644   1.081
 1263TIP3   OH2 3794   5.574   1.513   1.658
 1263TIP3    H1 3795   5.577   1.452   1.584
 1263TIP3    H2 3796   5.601   1.597   1.620
 1264TIP3   OH2 3797   5.993   5.731   1.337
 1264TIP3    H1 3798   6.035   5.791   1.400
 1264TIP3    H2 3799   5.942   5.789   1.280
 1265TIP3   OH2 3800   0.390   3.882   3.384
 1265TIP3    H1 3801   0.337   3.834   3.320
 1265TIP3    H2 3802   0.369   3.974   3.369
 1266TIP3   OH2 3803   6.078   0.220   3.160
 1266TIP3    H1 3804   6.079   0.127   3.139
 1266TIP3    H2 3805   6.001   0.231   3.216
 1267TIP3   OH2 3806   0.218   4.061   1.997
 1267TIP3    H1 3807   0.269   3.981   2.012
 1267TIP3    H2 3808   0.264   4.129   2.046
 1268TIP3   OH2 3809   2.757   1.471   4.563
 1268TIP3    H1 3810   2.776   1.453   4.472
 1268TIP3    H2 3811   2.812   1.410   4.612
 1269TIP3   OH2 3812   0.718   3.791   2.053
 1269TIP3    H1 3813   0.720   3.747   1.968
 1269TIP3    H2 3814   0.700   3.883   2.032
 1270TIP3   OH2 3815   5.169   4.988   2.037
 1270TIP3    H1 3816   5.151   5.036   1.955
 1270TIP3    H2 3817   5.134   5.045   2.106
 1271TIP3   OH2 3818   2.262   1.192   3.416
 1271TIP3    H1 3819   2.283   1.265   3.474
 1271TIP3    H2 3820   2.183   1.154   3.453
 1272TIP3   OH2 3821   1.441   5.737   0.220
 1272TIP3    H1 3822   1.459   5.680   0.146
 1272TIP3    H2 3823   1.485   5.695   0.294
 1273TIP3   OH2 3824   4.231   4.592   2.300
 1273TIP3    H1 3825   4.314   4.608   2.256
 1273TIP3    H2 3826   4.233   4.499   2.321
 1274TIP3   OH2 3827   5.880   0.315   0.991
 1274TIP3    H1 3828   5.834   0.384   0.944
 1274TIP3    H2 3829   5.814   0.246   1.003
 1275TIP3   OH2 3830   0.524   5.854   4.276
 1275TIP3    H1 3831   0.553   5.782   4.219
 1275TIP3    H2 3832   0.435   5.874   4.246
 1276TIP3   OH2 3833   4.218   1.848   3.952
 1276TIP3    H1 3834   4.203   1.779   3.888
 1276TIP3    H2 3835   4.281   1.811   4.013
 1277TIP3   OH2 3836   1.506   1.961   4.224
 1277TIP3    H1 3837   1.453   1.933   4.149
 1277TIP3    H2 3838   1.505   2.057   4.219
 1278TIP3   OH2 3839   3.679   2.621   3.346
 1278TIP3    H1 3840   3.693   2.715   3.364
 1278TIP3    H2 3841   3.647   2.586   3.429
 1279TIP3   OH2 3842   2.982   2.278   4.319
 1279TIP3    H1 3843   2.922   2.329   4.374
 1279TIP3    H2 3844   3.037   2.231   4.382
 1280TIP3   OH2 3845   3.185   5.541   1.216
 1280TIP3    H1 3846   3.172   5.561   1.309
 1280TIP3    H2 3847   3.154   5.452   1.206
 1281TIP3   OH2 3848   4.969   0.003   1.360
 1281TIP3    H1 3849   5.032  -0.060   1.395
 1281TIP3    H2 3850   5.019   0.084   1.352
 1282TIP3   OH2 3851   1.639   3.154   2.867
 1282TIP3    H1 3852   1.733   3.169   2.866
 1282TIP3    H2 3853   1.605   3.218   2.930
 1283TIP3   OH2 3854   0.722   1.311   3.488
 1283TIP3    H1 3855   0.681   1.228   3.465
 1283TIP3    H2 3856   0.805   1.311   3.440
 1284TIP3   OH2 3857   0.484   5.333   1.439
 1284TIP3    H1 3858   0.536   5.332   1.358
 1284TIP3    H2 3859   0.532   5.275   1.499
 1285TIP3   OH2 3860   5.458   4.856   0.101
 1285TIP3    H1 3861   5.381   4.828   0.052
 1285TIP3    H2 3862   5.530   4.850   0.039
 1286TIP3   OH2 3863   6.123   2.054   0.046
 1286TIP3    H1 3864   6.170   2.132   0.017
 1286TIP3    H2 3865   6.167   2.029   0.128
 1287TIP3   OH2 3866   4.373   0.509   1.497
 1287TIP3    H1 3867   4.350   0.550   1.413
 1287TIP3    H2 3868   4.419   0.578   1.545
 1288TIP3   OH2 3869   1.531   1.700   2.857
 1288TIP3    H1 3870   1.567   1.614   2.833
 1288TIP3    H2 3871   1.608   1.752   2.880
 1289TIP3   OH2 3872   3.399   3.979   2.591
 1289TIP3    H1 3873   3.384   3.949   2.502
 1289TIP3    H2 3874   3.433   4.068   2.581
 1290TIP3   OH2 3875   4.995   4.903   3.991
 1290TIP3    H1 3876   5.072   4.915   4.047
 1290TIP3    H2 3877   4.928   4.869   4.049
 1291TIP3   OH2 3878   3.075   4.215   4.227
 1291TIP3    H1 3879   3.100   4.295   4.274
 1291TIP3    H2 3880   3.124   4.219   4.145
 1292TIP3   OH2 3881   3.740   0.456   0.875
 1292TIP3    H1 3882   3.817   0.409   0.843
 1292TIP3    H2 3883   3.666   0.413   0.832
 1293TIP3   OH2 3884   4.881   3.635   1.323
 1293TIP3    H1 3885   4.957   3.675   1.282
 1293TIP3    H2 3886   4.836   3.589   1.252
 1294TIP3   OH2 3887   3.605   4.139   4.115
 1294TIP3    H1 3888   3.635   4.064   4.064
 1294TIP3    H2 3889   3.661   4.211   4.087
 1295TIP3   OH2 3890   0.982   2.833   2.314
 1295TIP3    H1 3891   0.960   2.783   2.393
 1295TIP3    H2 3892   0.981   2.767   2.244
 1296TIP3   OH2 3893   1.053   3.832   0.952
 1296TIP3    H1 3894   1.110   3.803   0.880
 1296TIP3    H2 3895   0.967   3.844   0.910
 1297TIP3   OH2 3896   6.039   2.043   2.081
 1297TIP3    H1 3897   6.059   2.002   2.165
 1297TIP3    H2 3898   6.012   1.971   2.024
 1298TIP3   OH2 3899   5.200   3.152   1.013
 1298TIP3    H1 3900   5.119   3.146   0.963
 1298TIP3    H2 3901   5.266   3.177   0.948
 1299TIP3   OH2 3902   5.664   3.442   1.128
 1299TIP3    H1 3903   5.669   3.536   1.111
 1299TIP3    H2 3904   5.657   3.434   1.223
 1300TIP3   OH2 3905   4.016   4.312   0.818
 1300TIP3    H1 3906   4.013   4.373   0.744
 1300TIP3    H2 3907   3.997   4.366   0.895
 1301TIP3   OH2 3908   0.598   3.700   4.443
 1301TIP3    H1 3909   0.626   3.788   4.418
 1301TIP3    H2 3910   0.598   3.701   4.539
 1302TIP3   OH2 3911   5.170   2.473   4.265
 1302TIP3    H1 3912   5.193   2.565   4.251
 1302TIP3    H2 3913   5.088   2.476   4.314
 1303TIP3   OH2 3914   1.765   2.040   4.458
 1303TIP3    H1 3915   1.699   2.085   4.406
 1303TIP3    H2 3916   1.837   2.025   4.396
 1304TIP3   OH2 3917   3.913   3.712   4.779
 1304TIP3    H1 3918   3.984   3.660   4.816
 1304TIP3    H2 3919   3.885   3.663   4.701
 1305TIP3   OH2 3920   0.113   5.468   4.056
 1305TIP3    H1 3921   0.019   5.483   4.057
 1305TIP3    H2 3922   0.145   5.516   4.132
 1306TIP3   OH2 3923   5.468   0.799   1.905
 1306TIP3    H1 3924   5.472   0.829   1.996
 1306TIP3    H2 3925   5.544   0.838   1.863
 1307TIP3   OH2 3926   3.567   2.160   3.955
 1307TIP3    H1 3927   3.630   2.186   4.022
 1307TIP3    H2 3928   3.590   2.070   3.933
 1308TIP3   OH2 3929   1.750   4.116   1.427
 1308TIP3    H1 3930   1.708   4.073   1.501
 1308TIP3    H2 3931   1.778   4.045   1.370
 1309TIP3   OH2 3932   2.974   1.266   2.097
 1309TIP3    H1 3933   3.039   1.287   2.164
 1309TIP3    H2 3934   3.007   1.307   2.017
 1310TIP3   OH2 3935   0.107   5.713   0.617
 1310TIP3    H1 3936   0.162   5.746   0.546
 1310TIP3    H2 3937   0.018   5.721   0.584
 1311TIP3   OH2 3938   4.192   5.119   0.774
 1311TIP3    H1 3939   4.242   5.106   0.855
 1311TIP3    H2 3940   4.247   5.177   0.721
 1312TIP3   OH2 3941   0.787   5.152   1.686
 1312TIP3    H1 3942   0.724   5.221   1.707
 1312TIP3    H2 3943   0.747   5.072   1.721
 1313TIP3   OH2 3944   4.301   2.677   4.345
 1313TIP3    H1 3945   4.288   2.627   4.264
 1313TIP3    H2 3946   4.242   2.637   4.408
 1314TIP3   OH2 3947   1.318   1.452   3.510
 1314TIP3    H1 3948   1.242   1.491   3.554
 1314TIP3    H2 3949   1.304   1.358   3.519
 1315TIP3   OH2 3950   3.517   2.541   1.597
 1315TIP3    H1 3951   3.581   2.471   1.613
 1315TIP3    H2 3952   3.446   2.523   1.658
 1316TIP3   OH2 3953   3.941   3.625   1.332
 1316TIP3    H1 3954   3.998   3.560   1.291
 1316TIP3    H2 3955   3.876   3.645   1.265
 1317TIP3   OH2 3956   0.808   0.033   4.701
 1317TIP3    H1 3957   0.829   0.070   4.787
 1317TIP3    H2 3958   0.859   0.086   4.640
 1318TIP3   OH2 3959   3.498   3.621   2.821
 1318TIP3    H1 3960   3.489   3.581   2.908
 1318TIP3    H2 3961   3.422   3.678   2.813
 1319TIP3   OH2 3962   5.839   2.286   3.861
 1319TIP3    H1 3963   5.872   2.208   3.907
 1319TIP3    H2 3964   5.918   2.334   3.837
 1320TIP3   OH2 3965   2.668   0.407   5.011
 1320TIP3    H1 3966   2.574   0.418   5.025
 1320TIP3    H2 3967   2.705   0.399   5.099
 1321TIP3   OH2 3968   3.712   5.884   3.602
 1321TIP3    H1 3969   3.708   5.961   3.546
 1321TIP3    H2 3970   3.739   5.917   3.687
 1322TIP3   OH2 3971   4.848   0.637   0.060
 1322TIP3    H1 3972   4.779   0.574   0.082
 1322TIP3    H2 3973   4.856   0.630  -0.035
 1323TIP3   OH2 3974   4.767   3.345   0.464
 1323TIP3    H1 3975   4.709   3.420   0.458
 1323TIP3    H2 3976   4.715   3.278   0.510
 1324TIP3   OH2 3977   5.852   0.358   2.808
 1324TIP3    H1 3978   5.763   0.330   2.788
 1324TIP3    H2 3979   5.866   0.435   2.753
 1325TIP3   OH2 3980   2.450   4.334   0.718
 1325TIP3    H1 3981   2.380   4.366   0.662
 1325TIP3    H2 3982   2.526   4.389   0.696
 1326TIP3   OH2 3983   6.038   5.253  -0.050
 1326TIP3    H1 3984   6.045   5.329   0.008
 1326TIP3    H2 3985   6.103   5.191  -0.017
 1327TIP3   OH2 3986   0.045   1.610   1.427
 1327TIP3    H1 3987   0.095   1.537   1.464
 1327TIP3    H2 3988   0.044   1.676   1.497
 1328TIP3   OH2 3989   6.218   1.890   3.722
 1328TIP3    H1 3990   6.219   1.985   3.735
 1328TIP3    H2 3991   6.241   1.854   3.808
 1329TIP3   OH2 3992   2.048   2.144   2.261
 1329TIP3    H1 3993   2.031   2.052   2.282
 1329TIP3    H2 3994   1.970   2.190   2.293
 1330TIP3   OH2 3995   4.590   0.436   2.315
 1330TIP3    H1 3996   4.581   0.355   2.264
 1330TIP3    H2 3997   4.503   0.474   2.315
 1331TIP3   OH2 3998   5.327   4.091   1.655
 1331TIP3    H1 3999   5.385   4.165   1.636
 1331TIP3    H2 4000   5.384   4.014   1.649
 1332TIP3   OH2 4001   4.456   4.588   1.514
 1332TIP3    H1 4002   4.523   4.634   1.565
 1332TIP3    H2 4003   4.386   4.653   1.502
 1333TIP3   OH2 4004   4.181   0.238   1.377
 1333TIP3    H1 4005   4.100   0.226   1.327
 1333TIP3    H2 4006   4.174   0.176   1.449
 1334TIP3   OH2 4007   4.893   4.779   0.440
 1334TIP3    H1 4008   4.956   4.830   0.490
 1334TIP3    H2 4009   4.820   4.838   0.425
 1335TIP3   OH2 4010   5.633   2.419   2.585
 1335TIP3    H1 4011   5.706   2.477   2.564
 1335TIP3    H2 4012   5.556   2.464   2.550
 1336TIP3   OH2 4013   3.462   5.184   2.102
 1336TIP3    H1 4014   3.404   5.199   2.027
 1336TIP3    H2 4015   3.521   5.115   2.074
 1337TIP3   OH2 4016   2.867   1.086   3.633
 1337TIP3    H1 4017   2.801   1.156   3.629
 1337TIP3    H2 4018   2.898   1.077   3.543
 1338TIP3   OH2 4019   4.959   4.994   5.096
 1338TIP3    H1 4020   4.911   4.911   5.096
 1338TIP3    H2 4021   5.036   4.978   5.042
 1339TIP3   OH2 4022   3.080   1.512   1.632
 1339TIP3    H1 4023   3.118   1.597   1.612
 1339TIP3    H2 4024   3.097   1.459   1.554
 1340TIP3   OH2 4025   4.861   0.258   3.952
 1340TIP3    H1 4026   4.893   0.320   3.886
 1340TIP3    H2 4027   4.931   0.255   4.018
 1341TIP3   OH2 4028   6.290   3.051   3.349
 1341TIP3    H1 4029   6.281   3.056   3.253
 1341TIP3    H2 4030   6.374   3.094   3.367
 1342TIP3   OH2 4031   5.875   0.599   2.530
 1342TIP3    H1 4032   5.829   0.671   2.486
 1342TIP3    H2 4033   5.808   0.532   2.544
 1343TIP3   OH2 4034   6.112   0.373   0.644
 1343TIP3    H1 4035   6.200   0.342   0.621
 1343TIP3    H2 4036   6.085   0.319   0.718
 1344TIP3   OH2 4037   1.167   1.541   3.951
 1344TIP3    H1 4038   1.106   1.468   3.967
 1344TIP3    H2 4039   1.147   1.604   4.020
 1345TIP3   OH2 4040   1.861   1.777   3.846
 1345TIP3    H1 4041   1.920   1.852   3.835
 1345TIP3    H2 4042   1.805   1.800   3.919
 1346TIP3   OH2 4043   5.342   2.178   1.778
 1346TIP3    H1 4044   5.310   2.112   1.717
 1346TIP3    H2 4045   5.302   2.156   1.862
 1347TIP3   OH2 4046   2.381   4.441   4.745
 1347TIP3    H1 4047   2.461   4.389   4.745
 1347TIP3    H2 4048   2.406   4.524   4.785
 1348TIP3   OH2 4049   5.581   4.425   1.412
 1348TIP3    H1 4050   5.499   4.472   1.426
 1348TIP3    H2 4051   5.648   4.493   1.412
 1349TIP3   OH2 4052   3.594   4.461   3.419
 1349TIP3    H1 4053   3.675   4.510   3.435
 1349TIP3    H2 4054   3.589   4.455   3.324
 1350TIP3   OH2 4055   3.064   4.733   1.641
 1350TIP3    H1 4056   3.085   4.796   1.710
 1350TIP3    H2 4057   3.091   4.648   1.677
 1351TIP3   OH2 4058   0.587   3.075   4.570
 1351TIP3    H1 4059   0.682   3.074   4.563
 1351TIP3    H2 4060   0.561   2.983   4.562
 1352TIP3   OH2 4061   3.584   4.982   0.891
 1352TIP3    H1 4062   3.538   5.010   0.970
 1352TIP3    H2 4063   3.628   5.060   0.860
 1353TIP3   OH2 4064   3.134   4.828   3.605
 1353TIP3    H1 4065   3.161   4.804   3.516
 1353TIP3    H2 4066   3.119   4.922   3.600
 1354TIP3   OH2 4067   2.680   4.382   1.968
 1354TIP3    H1 4068   2.682   4.441   2.043
 1354TIP3    H2 4069   2.661   4.439   1.893
 1355TIP3   OH2 4070   0.569   2.398   5.043
 1355TIP3    H1 4071   0.607   2.442   5.119
 1355TIP3    H2 4072   0.506   2.461   5.009
 1356TIP3   OH2 4073   0.580   4.458   1.995
 1356TIP3    H1 4074   0.590   4.545   2.034
 1356TIP3    H2 4075   0.596   4.397   2.068
 1357TIP3   OH2 4076   4.916   0.787   2.228
 1357TIP3    H1 4077   4.925   0.780   2.133
 1357TIP3    H2 4078   4.882   0.702   2.256
 1358TIP3   OH2 4079   4.134   1.410   2.022
 1358TIP3    H1 4080   4.132   1.462   1.942
 1358TIP3    H2 4081   4.110   1.322   1.994
 1359TIP3   OH2 4082   4.216   1.481   0.976
 1359TIP3    H1 4083   4.135   1.523   0.946
 1359TIP3    H2 4084   4.188   1.398   1.014
 1360TIP3   OH2 4085   0.769   1.689   1.350
 1360TIP3    H1 4086   0.696   1.630   1.368
 1360TIP3    H2 4087   0.847   1.641   1.377
 1361TIP3   OH2 4088   2.259   5.474   0.236
 1361TIP3    H1 4089   2.253   5.379   0.233
 1361TIP3    H2 4090   2.214   5.499   0.317
 1362TIP3   OH2 4091   0.759   3.591   3.069
 1362TIP3    H1 4092   0.698   3.627   3.133
 1362TIP3    H2 4093   0.831   3.557   3.122
 1363TIP3   OH2 4094   1.062   0.372   0.874
 1363TIP3    H1 4095   0.978   0.414   0.889
 1363TIP3    H2 4096   1.079   0.322   0.955
 1364TIP3   OH2 4097   4.726   5.237   2.429
 1364TIP3    H1 4098   4.651   5.177   2.432
 1364TIP3    H2 4099   4.688   5.324   2.443
 1365TIP3   OH2 4100   3.928   3.099   5.181
 1365TIP3    H1 4101   3.897   3.103   5.091
 1365TIP3    H2 4102   4.016   3.137   5.177
 1366TIP3   OH2 4103   3.391   2.441   4.869
 1366TIP3    H1 4104   3.419   2.351   4.850
 1366TIP3    H2 4105   3.295   2.435   4.875
 1367TIP3   OH2 4106   1.142   3.067   4.040
 1367TIP3    H1 4107   1.091   3.041   4.116
 1367TIP3    H2 4108   1.232   3.043   4.062
 1368TIP3   OH2 4109   2.487   0.523   4.684
 1368TIP3    H1 4110   2.414   0.585   4.696
 1368TIP3    H2 4111   2.449   0.438   4.706
 1369TIP3   OH2 4112   2.423   4.737   0.379
 1369TIP3    H1 4113   2.343   4.765   0.423
 1369TIP3    H2 4114   2.447   4.811   0.324
 1370TIP3   OH2 4115   1.991   1.984   4.304
 1370TIP3    H1 4116   2.037   1.965   4.222
 1370TIP3    H2 4117   2.000   1.903   4.356
 1371TIP3   OH2 4118   2.247   1.204   0.022
 1371TIP3    H1 4119   2.191   1.152   0.080
 1371TIP3    H2 4120   2.186   1.256  -0.031
 1372TIP3   OH2 4121   2.106   3.459   1.597
 1372TIP3    H1 4122   2.105   3.364   1.585
 1372TIP3    H2 4123   2.088   3.495   1.510
 1373TIP3   OH2 4124   0.480   5.527   2.883
 1373TIP3    H1 4125   0.561   5.570   2.911
 1373TIP3    H2 4126   0.507   5.440   2.855
 1374TIP3   OH2 4127   4.705  -0.112   1.358
 1374TIP3    H1 4128   4.787  -0.063   1.350
 1374TIP3    H2 4129   4.636  -0.049   1.338
 1375TIP3   OH2 4130   5.436   5.765   0.785
 1375TIP3    H1 4131   5.353   5.776   0.739
 1375TIP3    H2 4132   5.426   5.682   0.832
 1376TIP3   OH2 4133   3.917   1.085   1.183
 1376TIP3    H1 4134   3.846   1.149   1.180
 1376TIP3    H2 4135   3.875   1.004   1.210
 1377TIP3   OH2 4136   2.708   2.271   1.834
 1377TIP3    H1 4137   2.700   2.257   1.740
 1377TIP3    H2 4138   2.670   2.193   1.874
 1378TIP3   OH2 4139   2.476   5.047   3.729
 1378TIP3    H1 4140   2.478   4.968   3.675
 1378TIP3    H2 4141   2.568   5.073   3.736
 1379TIP3   OH2 4142   3.992   1.054   3.697
 1379TIP3    H1 4143   4.004   0.970   3.653
 1379TIP3    H2 4144   4.014   1.036   3.789
 1380TIP3   OH2 4145   6.332   2.893   4.623
 1380TIP3    H1 4146   6.239   2.897   4.602
 1380TIP3    H2 4147   6.352   2.979   4.659
 1381TIP3   OH2 4148   2.433   5.893   0.066
 1381TIP3    H1 4149   2.446   5.806   0.104
 1381TIP3    H2 4150   2.338   5.901   0.055
 1382TIP3   OH2 4151   5.011   5.630   1.015
 1382TIP3    H1 4152   4.928   5.628   1.062
 1382TIP3    H2 4153   5.077   5.647   1.082
 1383TIP3   OH2 4154   4.612   0.477   4.096
 1383TIP3    H1 4155   4.540   0.423   4.127
 1383TIP3    H2 4156   4.653   0.426   4.027
 1384TIP3   OH2 4157   3.816   3.924   3.257
 1384TIP3    H1 4158   3.724   3.941   3.235
 1384TIP3    H2 4159   3.819   3.929   3.352
 1385TIP3   OH2 4160   1.935   1.204   3.170
 1385TIP3    H1 4161   1.900   1.225   3.083
 1385TIP3    H2 4162   1.967   1.288   3.203
 1386TIP3   OH2 4163   3.056   3.787   3.068
 1386TIP3    H1 4164   3.053   3.697   3.036
 1386TIP3    H2 4165   2.995   3.836   3.012
 1387TIP3   OH2 4166   0.483   4.763   0.078
 1387TIP3    H1 4167   0.554   4.720   0.126
 1387TIP3    H2 4168   0.495   4.856   0.096
 1388TIP3   OH2 4169   0.230   5.300   1.718
 1388TIP3    H1 4170   0.237   5.371   1.655
 1388TIP3    H2 4171   0.172   5.334   1.786
 1389TIP3   OH2 4172   2.042   5.189   0.949
 1389TIP3    H1 4173   1.985   5.265   0.939
 1389TIP3    H2 4174   1.996   5.132   1.010
 1390TIP3   OH2 4175   6.098   2.896   3.860
 1390TIP3    H1 4176   6.155   2.938   3.925
 1390TIP3    H2 4177   6.158   2.870   3.790
 1391TIP3   OH2 4178   3.847   2.281   3.477
 1391TIP3    H1 4179   3.766   2.234   3.455
 1391TIP3    H2 4180   3.912   2.248   3.415
 1392TIP3   OH2 4181   2.112   4.371   0.164
 1392TIP3    H1 4182   2.037   4.355   0.221
 1392TIP3    H2 4183   2.165   4.435   0.211
 1393TIP3   OH2 4184   2.238   3.440   4.934
 1393TIP3    H1 4185   2.322   3.460   4.891
 1393TIP3    H2 4186   2.222   3.348   4.914
 1394TIP3   OH2 4187   1.095   0.225   1.111
 1394TIP3    H1 4188   1.131   0.298   1.161
 1394TIP3    H2 4189   1.135   0.147   1.150
 1395TIP3   OH2 4190   3.245   2.031   2.516
 1395TIP3    H1 4191   3.284   2.054   2.601
 1395TIP3    H2 4192   3.183   1.961   2.537
 1396TIP3   OH2 4193   0.868   0.382   4.895
 1396TIP3    H1 4194   0.823   0.349   4.972
 1396TIP3    H2 4195   0.936   0.440   4.930
 1397TIP3   OH2 4196   3.328   3.788   1.887
 1397TIP3    H1 4197   3.388   3.771   1.959
 1397TIP3    H2 4198   3.340   3.715   1.827
 1398TIP3   OH2 4199   2.581   0.477   3.703
 1398TIP3    H1 4200   2.542   0.504   3.786
 1398TIP3    H2 4201   2.675   0.477   3.720
 1399TIP3   OH2 4202   1.415   5.691   3.062
 1399TIP3    H1 4203   1.348   5.638   3.019
 1399TIP3    H2 4204   1.429   5.649   3.146
 1400TIP3   OH2 4205   5.239   2.813   0.346
 1400TIP3    H1 4206   5.251   2.736   0.290
 1400TIP3    H2 4207   5.318   2.816   0.400
 1401TIP3   OH2 4208   6.203   1.904   0.614
 1401TIP3    H1 4209   6.110   1.899   0.593
 1401TIP3    H2 4210   6.247   1.908   0.529
 1402TIP3   OH2 4211   4.501   5.768   1.501
 1402TIP3    H1 4212   4.538   5.791   1.586
 1402TIP3    H2 4213   4.478   5.676   1.509
 1403TIP3   OH2 4214   4.467   3.984   1.836
 1403TIP3    H1 4215   4.528   3.935   1.781
 1403TIP3    H2 4216   4.520   4.018   1.907
 1404TIP3   OH2 4217   1.151   4.705   3.368
 1404TIP3    H1 4218   1.060   4.683   3.347
 1404TIP3    H2 4219   1.144   4.761   3.446
 1405TIP3   OH2 4220   2.179   4.365   2.306
 1405TIP3    H1 4221   2.275   4.374   2.301
 1405TIP3    H2 4222   2.156   4.321   2.224
 1406TIP3   OH2 4223   0.163   3.102   1.896
 1406TIP3    H1 4224   0.224   3.144   1.956
 1406TIP3    H2 4225   0.206   3.021   1.870
 1407TIP3   OH2 4226   2.716   3.818   2.776
 1407TIP3    H1 4227   2.660   3.741   2.772
 1407TIP3    H2 4228   2.728   3.843   2.684
 1408TIP3   OH2 4229   4.051   0.995   0.294
 1408TIP3    H1 4230   4.117   0.969   0.358
 1408TIP3    H2 4231   4.062   1.089   0.285
 1409TIP3   OH2 4232   2.508   5.534   3.773
 1409TIP3    H1 4233   2.595   5.495   3.770
 1409TIP3    H2 4234   2.455   5.479   3.716
 1410TIP3   OH2 4235   1.896   4.327   2.380
 1410TIP3    H1 4236   1.985   4.318   2.347
 1410TIP3    H2 4237   1.864   4.237   2.390
 1411TIP3   OH2 4238   4.325   5.020   4.831
 1411TIP3    H1 4239   4.376   4.959   4.884
 1411TIP3    H2 4240   4.242   4.975   4.814
 1412TIP3   OH2 4241   3.572   4.512   0.215
 1412TIP3    H1 4242   3.531   4.497   0.130
 1412TIP3    H2 4243   3.651   4.457   0.214
 1413TIP3   OH2 4244   0.249   0.626   3.745
 1413TIP3    H1 4245   0.184   0.606   3.678
 1413TIP3    H2 4246   0.244   0.553   3.806
 1414TIP3   OH2 4247   5.038   5.173   4.054
 1414TIP3    H1 4248   4.989   5.144   3.977
 1414TIP3    H2 4249   4.976   5.165   4.127
 1415TIP3   OH2 4250   5.474   4.798   3.581
 1415TIP3    H1 4251   5.433   4.870   3.629
 1415TIP3    H2 4252   5.422   4.790   3.501
 1416TIP3   OH2 4253   1.566   2.309   2.792
 1416TIP3    H1 4254   1.547   2.385   2.847
 1416TIP3    H2 4255   1.483   2.263   2.784
 1417TIP3   OH2 4256   4.082   4.599   1.962
 1417TIP3    H1 4257   4.075   4.504   1.963
 1417TIP3    H2 4258   4.066   4.626   2.053
 1418TIP3   OH2 4259   4.779   2.988   0.425
 1418TIP3    H1 4260   4.874   2.985   0.416
 1418TIP3    H2 4261   4.746   2.927   0.358
 1419TIP3   OH2 4262   5.000   4.553   2.417
 1419TIP3    H1 4263   5.074   4.495   2.434
 1419TIP3    H2 4264   4.963   4.571   2.504
 1420TIP3   OH2 4265   2.910   5.587   1.999
 1420TIP3    H1 4266   2.960   5.580   1.917
 1420TIP3    H2 4267   2.899   5.681   2.012
 1421TIP3   OH2 4268   4.864   1.667   0.784
 1421TIP3    H1 4269   4.877   1.605   0.856
 1421TIP3    H2 4270   4.774   1.699   0.796
 1422TIP3   OH2 4271   5.818   5.496   2.665
 1422TIP3    H1 4272   5.779   5.409   2.671
 1422TIP3    H2 4273   5.880   5.500   2.738
 1423TIP3   OH2 4274   4.058   4.816   2.249
 1423TIP3    H1 4275   4.128   4.755   2.271
 1423TIP3    H2 4276   4.017   4.837   2.332
 1424TIP3   OH2 4277   2.733   1.169   4.879
 1424TIP3    H1 4278   2.711   1.207   4.794
 1424TIP3    H2 4279   2.817   1.125   4.864
 1425TIP3   OH2 4280   0.260   2.368   1.498
 1425TIP3    H1 4281   0.180   2.371   1.446
 1425TIP3    H2 4282   0.269   2.276   1.524
 1426TIP3   OH2 4283   1.474   1.235   2.826
 1426TIP3    H1 4284   1.503   1.316   2.867
 1426TIP3    H2 4285   1.379   1.235   2.836
 1427TIP3   OH2 4286   3.613   2.645   2.821
 1427TIP3    H1 4287   3.638   2.738   2.819
 1427TIP3    H2 4288   3.696   2.598   2.831
 1428TIP3   OH2 4289   5.093   4.789   2.672
 1428TIP3    H1 4290   5.047   4.705   2.677
 1428TIP3    H2 4291   5.027   4.850   2.641
 1429TIP3   OH2 4292   2.251   3.304   4.227
 1429TIP3    H1 4293   2.321   3.310   4.162
 1429TIP3    H2 4294   2.209   3.220   4.210
 1430TIP3   OH2 4295   4.046   2.784   2.065
 1430TIP3    H1 4296   4.062   2.878   2.074
 1430TIP3    H2 4297   4.083   2.745   2.144
 1431TIP3   OH2 4298   4.608   4.952   4.718
 1431TIP3    H1 4299   4.570   4.914   4.797
 1431TIP3    H2 4300   4.681   5.005   4.748
 1432TIP3   OH2 4301   0.587   2.044   4.023
 1432TIP3    H1 4302   0.595   2.095   3.943
 1432TIP3    H2 4303   0.642   2.090   4.087
 1433TIP3   OH2 4304   1.038   5.103   1.826
 1433TIP3    H1 4305   0.945   5.094   1.804
 1433TIP3    H2 4306   1.039   5.113   1.922
 1434TIP3   OH2 4307   1.152   0.245   3.983
 1434TIP3    H1 4308   1.221   0.187   4.017
 1434TIP3    H2 4309   1.071   0.211   4.023
 1435TIP3   OH2 4310   4.070   0.413   1.743
 1435TIP3    H1 4311   4.053   0.460   1.825
 1435TIP3    H2 4312   4.156   0.372   1.757
 1436TIP3   OH2 4313   0.612   3.066   2.640
 1436TIP3    H1 4314   0.620   3.003   2.712
 1436TIP3    H2 4315   0.688   3.050   2.584
 1437TIP3   OH2 4316   1.847   1.195   5.028
 1437TIP3    H1 4317   1.907   1.132   5.067
 1437TIP3    H2 4318   1.872   1.279   5.067
 1438TIP3   OH2 4319   5.767   5.150   2.422
 1438TIP3    H1 4320   5.759   5.148   2.517
 1438TIP3    H2 4321   5.737   5.064   2.393
 1439TIP3   OH2 4322   4.695   0.111   3.012
 1439TIP3    H1 4323   4.669   0.045   3.076
 1439TIP3    H2 4324   4.744   0.062   2.946
 1440TIP3   OH2 4325   3.432   4.188   1.693
 1440TIP3    H1 4326   3.368   4.131   1.651
 1440TIP3    H2 4327   3.464   4.137   1.767
 1441TIP3   OH2 4328   2.927   4.631   1.978
 1441TIP3    H1 4329   3.005   4.606   1.929
 1441TIP3    H2 4330   2.960   4.674   2.057
 1442TIP3   OH2 4331   6.101   2.402   0.542
 1442TIP3    H1 4332   6.077   2.326   0.488
 1442TIP3    H2 4333   6.017   2.439   0.569
 1443TIP3   OH2 4334   2.550   4.197   1.053
 1443TIP3    H1 4335   2.612   4.231   0.988
 1443TIP3    H2 4336   2.490   4.142   1.002
 1444TIP3   OH2 4337   2.006   5.750   1.906
 1444TIP3    H1 4338   2.070   5.691   1.945
 1444TIP3    H2 4339   2.049   5.836   1.907
 1445TIP3   OH2 4340   3.121   4.578   2.550
 1445TIP3    H1 4341   3.212   4.567   2.523
 1445TIP3    H2 4342   3.090   4.489   2.566
 1446TIP3   OH2 4343   2.160   1.909   2.670
 1446TIP3    H1 4344   2.182   1.872   2.585
 1446TIP3    H2 4345   2.107   1.986   2.650
 1447TIP3   OH2 4346   2.510   4.603   4.115
 1447TIP3    H1 4347   2.449   4.672   4.091
 1447TIP3    H2 4348   2.455   4.525   4.128
 1448TIP3   OH2 4349   1.075   5.842   2.720
 1448TIP3    H1 4350   1.090   5.936   2.726
 1448TIP3    H2 4351   1.152   5.809   2.673
 1449TIP3   OH2 4352   3.926   2.148   4.213
 1449TIP3    H1 4353   4.015   2.112   4.213
 1449TIP3    H2 4354   3.870   2.073   4.236
 1450TIP3   OH2 4355   1.153   3.394   2.028
 1450TIP3    H1 4356   1.083   3.330   2.036
 1450TIP3    H2 4357   1.108   3.479   2.026
 1451TIP3   OH2 4358   4.583   1.804   2.256
 1451TIP3    H1 4359   4.536   1.745   2.197
 1451TIP3    H2 4360   4.600   1.882   2.203
 1452TIP3   OH2 4361   2.612   0.293   2.458
 1452TIP3    H1 4362   2.568   0.276   2.541
 1452TIP3    H2 4363   2.652   0.209   2.435
 1453TIP3   OH2 4364   1.833   4.660   1.811
 1453TIP3    H1 4365   1.742   4.640   1.833
 1453TIP3    H2 4366   1.884   4.618   1.880
 1454TIP3   OH2 4367   2.924   5.431   0.593
 1454TIP3    H1 4368   2.909   5.518   0.631
 1454TIP3    H2 4369   2.890   5.370   0.658
 1455TIP3   OH2 4370   4.272   3.366   0.540
 1455TIP3    H1 4371   4.322   3.427   0.486
 1455TIP3    H2 4372   4.328   3.349   0.616
 1456TIP3   OH2 4373   1.961   4.380   4.967
 1456TIP3    H1 4374   1.874   4.340   4.967
 1456TIP3    H2 4375   1.948   4.466   4.928
 1457TIP3   OH2 4376   1.355   4.026   1.405
 1457TIP3    H1 4377   1.421   4.047   1.339
 1457TIP3    H2 4378   1.296   4.100   1.405
 1458TIP3   OH2 4379   5.333   4.097   2.150
 1458TIP3    H1 4380   5.414   4.073   2.195
 1458TIP3    H2 4381   5.331   4.042   2.072
 1459TIP3   OH2 4382   4.393   5.302   3.561
 1459TIP3    H1 4383   4.401   5.377   3.619
 1459TIP3    H2 4384   4.392   5.226   3.619
 1460TIP3   OH2 4385   3.751   5.209   0.805
 1460TIP3    H1 4386   3.815   5.240   0.870
 1460TIP3    H2 4387   3.718   5.288   0.764
 1461TIP3   OH2 4388   0.560   1.690   0.799
 1461TIP3    H1 4389   0.624   1.742   0.751
 1461TIP3    H2 4390   0.523   1.750   0.864
 1462TIP3   OH2 4391   5.421   2.989   4.973
 1462TIP3    H1 4392   5.362   3.003   5.046
 1462TIP3    H2 4393   5.436   2.895   4.972
 1463TIP3   OH2 4394   4.360   5.550   0.605
 1463TIP3    H1 4395   4.282   5.577   0.653
 1463TIP3    H2 4396   4.375   5.619   0.540
 1464TIP3   OH2 4397   3.337   0.739   2.141
 1464TIP3    H1 4398   3.408   0.767   2.198
 1464TIP3    H2 4399   3.281   0.685   2.196
 1465TIP3   OH2 4400   3.815   3.427   0.760
 1465TIP3    H1 4401   3.887   3.375   0.724
 1465TIP3    H2 4402   3.799   3.494   0.694
 1466TIP3   OH2 4403   5.608   3.112   1.726
 1466TIP3    H1 4404   5.516   3.123   1.750
 1466TIP3    H2 4405   5.628   3.021   1.744
 1467TIP3   OH2 4406   1.864   2.248   1.241
 1467TIP3    H1 4407   1.865   2.153   1.233
 1467TIP3    H2 4408   1.784   2.275   1.197
 1468TIP3   OH2 4409   1.298   2.791   2.240
 1468TIP3    H1 4410   1.371   2.760   2.292
 1468TIP3    H2 4411   1.234   2.719   2.242
 1469TIP3   OH2 4412   3.882   1.713   4.126
 1469TIP3    H1 4413   3.970   1.688   4.152
 1469TIP3    H2 4414   3.892   1.750   4.039
 1470TIP3   OH2 4415   2.900   4.519   1.301
 1470TIP3    H1 4416   2.973   4.507   1.362
 1470TIP3    H2 4417   2.846   4.440   1.313
 1471TIP3   OH2 4418   3.562   3.739   4.647
 1471TIP3    H1 4419   3.548   3.758   4.740
 1471TIP3    H2 4420   3.585   3.646   4.646
 1472TIP3   OH2 4421   5.635   5.713   2.711
 1472TIP3    H1 4422   5.682   5.772   2.770
 1472TIP3    H2 4423   5.692   5.637   2.702
 1473TIP3   OH2 4424   2.962   2.629   2.362
 1473TIP3    H1 4425   2.918   2.647   2.279
 1473TIP3    H2 4426   2.977   2.534   2.362
 1474TIP3   OH2 4427   1.502   0.187   2.458
 1474TIP3    H1 4428   1.536   0.122   2.519
 1474TIP3    H2 4429   1.536   0.271   2.492
 1475TIP3   OH2 4430   2.701   3.334   3.416
 1475TIP3    H1 4431   2.743   3.304   3.497
 1475TIP3    H2 4432   2.770   3.328   3.350
 1476TIP3   OH2 4433   3.662   1.440   2.120
 1476TIP3    H1 4434   3.569   1.449   2.143
 1476TIP3    H2 4435   3.662   1.428   2.026
 1477TIP3   OH2 4436   0.446   1.906   1.691
 1477TIP3    H1 4437   0.446   1.848   1.767
 1477TIP3    H2 4438   0.531   1.889   1.649
 1478TIP3   OH2 4439   2.081   3.468   2.020
 1478TIP3    H1 4440   2.091   3.563   2.025
 1478TIP3    H2 4441   2.170   3.435   2.010
 1479TIP3   OH2 4442   4.255   0.296   3.212
 1479TIP3    H1 4443   4.300   0.326   3.291
 1479TIP3    H2 4444   4.313   0.320   3.140
 1480TIP3   OH2 4445   3.755   2.199   1.953
 1480TIP3    H1 4446   3.822   2.266   1.968
 1480TIP3    H2 4447   3.778   2.161   1.868
 1481TIP3   OH2 4448   4.985   2.514   2.230
 1481TIP3    H1 4449   4.894   2.485   2.232
 1481TIP3    H2 4450   5.003   2.530   2.137
 1482TIP3   OH2 4451   2.288   2.360   2.754
 1482TIP3    H1 4452   2.315   2.440   2.710
 1482TIP3    H2 4453   2.369   2.318   2.781
 1483TIP3   OH2 4454   3.111   1.169   2.906
 1483TIP3    H1 4455   3.158   1.237   2.858
 1483TIP3    H2 4456   3.033   1.152   2.854
 1484TIP3   OH2 4457   2.728   1.309   2.253
 1484TIP3    H1 4458   2.702   1.221   2.224
 1484TIP3    H2 4459   2.786   1.341   2.184
 1485TIP3   OH2 4460   1.725   2.504   3.616
 1485TIP3    H1 4461   1.791   2.542   3.559
 1485TIP3    H2 4462   1.642   2.533   3.580
 1486TIP3   OH2 4463   1.328   0.786   4.902
 1486TIP3    H1 4464   1.258   0.810   4.842
 1486TIP3    H2 4465   1.287   0.788   4.989
 1487TIP3   OH2 4466   2.126   2.217   4.126
 1487TIP3    H1 4467   2.159   2.231   4.038
 1487TIP3    H2 4468   2.102   2.124   4.128
 1488TIP3   OH2 4469   5.756   3.150   4.388
 1488TIP3    H1 4470   5.757   3.215   4.459
 1488TIP3    H2 4471   5.719   3.072   4.428
 1489TIP3   OH2 4472   2.086   0.498   1.509
 1489TIP3    H1 4473   2.059   0.516   1.599
 1489TIP3    H2 4474   2.164   0.552   1.497
 1490TIP3   OH2 4475   5.109   1.284   4.026
 1490TIP3    H1 4476   5.026   1.324   4.000
 1490TIP3    H2 4477   5.094   1.190   4.015
 1491TIP3   OH2 4478   1.498   4.505   0.552
 1491TIP3    H1 4479   1.522   4.462   0.470
 1491TIP3    H2 4480   1.478   4.595   0.526
 1492TIP3   OH2 4481   1.909   5.403   3.051
 1492TIP3    H1 4482   1.865   5.408   2.967
 1492TIP3    H2 4483   1.912   5.310   3.072
 1493TIP3   OH2 4484   4.274   4.152   2.406
 1493TIP3    H1 4485   4.239   4.099   2.478
 1493TIP3    H2 4486   4.369   4.153   2.420
 1494TIP3   OH2 4487   1.845   5.304   4.885
 1494TIP3    H1 4488   1.872   5.380   4.833
 1494TIP3    H2 4489   1.753   5.321   4.906
 1495TIP3   OH2 4490   0.205   5.571   2.060
 1495TIP3    H1 4491   0.164   5.561   1.974
 1495TIP3    H2 4492   0.137   5.548   2.123
 1496TIP3   OH2 4493   3.198   2.120   4.431
 1496TIP3    H1 4494   3.262   2.191   4.437
 1496TIP3    H2 4495   3.251   2.042   4.415
 1497TIP3   OH2 4496   0.412   0.360   1.789
 1497TIP3    H1 4497   0.322   0.385   1.810
 1497TIP3    H2 4498   0.459   0.444   1.780
 1498TIP3   OH2 4499   0.766   3.960   3.450
 1498TIP3    H1 4500   0.695   4.023   3.455
 1498TIP3    H2 4501   0.738   3.888   3.508
 1499TIP3   OH2 4502   5.139   0.949   0.206
 1499TIP3    H1 4503   5.143   1.037   0.171
 1499TIP3    H2 4504   5.221   0.908   0.179
 1500TIP3   OH2 4505   3.631   4.013   4.973
 1500TIP3    H1 4506   3.571   4.029   4.900
 1500TIP3    H2 4507   3.577   4.023   5.051
 1501TIP3   OH2 4508   2.830   1.856   1.168
 1501TIP3    H1 4509   2.850   1.942   1.129
 1501TIP3    H2 4510   2.915   1.815   1.180
 1502TIP3   OH2 4511   6.219   4.213   3.731
 1502TIP3    H1 4512   6.167   4.160   3.671
 1502TIP3    H2 4513   6.251   4.151   3.796
 1503TIP3   OH2 4514   2.237   5.456   3.138
 1503TIP3    H1 4515   2.174   5.406   3.189
 1503TIP3    H2 4516   2.275   5.392   3.078
 1504TIP3   OH2 4517   4.178   5.310   4.789
 1504TIP3    H1 4518   4.232   5.384   4.762
 1504TIP3    H2 4519   4.223   5.273   4.865
 1505TIP3   OH2 4520   4.599   2.037   2.107
 1505TIP3    H1 4521   4.541   2.112   2.117
 1505TIP3    H2 4522   4.671   2.070   2.053
 1506TIP3   OH2 4523   3.132   5.886   1.496
 1506TIP3    H1 4524   3.162   5.905   1.585
 1506TIP3    H2 4525   3.196   5.929   1.439
 1507TIP3   OH2 4526   4.445   2.106   1.016
 1507TIP3    H1 4527   4.432   2.159   0.938
 1507TIP3    H2 4528   4.372   2.130   1.074
 1508TIP3   OH2 4529   1.996   0.531   0.640
 1508TIP3    H1 4530   2.065   0.530   0.706
 1508TIP3    H2 4531   1.971   0.439   0.631
 1509TIP3   OH2 4532   3.881   1.457   0.711
 1509TIP3    H1 4533   3.814   1.411   0.762
 1509TIP3    H2 4534   3.948   1.391   0.695
 1510TIP3   OH2 4535   4.924   5.576   0.409
 1510TIP3    H1 4536   4.982   5.504   0.383
 1510TIP3    H2 4537   4.863   5.536   0.472
 1511TIP3   OH2 4538   4.025   1.491   0.073
 1511TIP3    H1 4539   4.085   1.562   0.096
 1511TIP3    H2 4540   4.057   1.416   0.123
 1512TIP3   OH2 4541   4.023   4.125   3.540
 1512TIP3    H1 4542   4.096   4.079   3.498
 1512TIP3    H2 4543   4.001   4.196   3.479
 1513TIP3   OH2 4544   4.112   1.467   2.453
 1513TIP3    H1 4545   4.121   1.562   2.443
 1513TIP3    H2 4546   4.025   1.447   2.416
 1514TIP3   OH2 4547   3.975   1.293   1.573
 1514TIP3    H1 4548   4.064   1.289   1.608
 1514TIP3    H2 4549   3.924   1.237   1.631
 1515TIP3   OH2 4550   3.875   3.372   1.036
 1515TIP3    H1 4551   3.814   3.438   1.068
 1515TIP3    H2 4552   3.872   3.380   0.941
 1516TIP3   OH2 4553   3.462   2.538   1.898
 1516TIP3    H1 4554   3.480   2.632   1.890
 1516TIP3    H2 4555   3.368   2.533   1.913
 1517TIP3   OH2 4556   2.794   4.716   1.559
 1517TIP3    H1 4557   2.889   4.717   1.559
 1517TIP3    H2 4558   2.769   4.768   1.483
 1518TIP3   OH2 4559   1.327   0.019   0.172
 1518TIP3    H1 4560   1.347   0.108   0.142
 1518TIP3    H2 4561   1.242   0.027   0.215
 1519TIP3   OH2 4562   4.366   1.767   2.012
 1519TIP3    H1 4563   4.322   1.776   1.927
 1519TIP3    H2 4564   4.296   1.775   2.077
 1520TIP3   OH2 4565   2.612   4.414   4.599
 1520TIP3    H1 4566   2.594   4.494   4.548
 1520TIP3    H2 4567   2.562   4.346   4.555
 1521TIP3   OH2 4568   5.875   1.099   1.497
 1521TIP3    H1 4569   5.798   1.052   1.527
 1521TIP3    H2 4570   5.842   1.184   1.470
 1522TIP3   OH2 4571   0.658   3.296   2.904
 1522TIP3    H1 4572   0.680   3.308   2.997
 1522TIP3    H2 4573   0.628   3.205   2.898
 1523TIP3   OH2 4574   0.534   2.045   2.861
 1523TIP3    H1 4575   0.493   1.974   2.810
 1523TIP3    H2 4576   0.628   2.032   2.848
 1524TIP3   OH2 4577   0.560   3.436   0.335
 1524TIP3    H1 4578   0.651   3.409   0.351
 1524TIP3    H2 4579   0.558   3.463   0.244
 1525TIP3   OH2 4580   2.929   3.077   3.894
 1525TIP3    H1 4581   3.005   3.019   3.900
 1525TIP3    H2 4582   2.948   3.148   3.956
 1526TIP3   OH2 4583   5.170   2.830   4.700
 1526TIP3    H1 4584   5.100   2.807   4.639
 1526TIP3    H2 4585   5.183   2.924   4.688
 1527TIP3   OH2 4586   2.872   1.312   1.050
 1527TIP3    H1 4587   2.868   1.344   1.140
 1527TIP3    H2 4588   2.879   1.392   0.997
 1528TIP3   OH2 4589   1.978   1.788   1.736
 1528TIP3    H1 4590   2.016   1.757   1.654
 1528TIP3    H2 4591   1.887   1.809   1.715
 1529TIP3   OH2 4592   2.225   4.553   2.697
 1529TIP3    H1 4593   2.145   4.573   2.649
 1529TIP3    H2 4594   2.296   4.584   2.641
 1530TIP3   OH2 4595   2.718   1.398   0.597
 1530TIP3    H1 4596   2.768   1.341   0.656
 1530TIP3    H2 4597   2.629   1.363   0.600
 1531TIP3   OH2 4598   4.061   0.487   3.930
 1531TIP3    H1 4599   4.098   0.508   4.016
 1531TIP3    H2 4600   4.070   0.567   3.879
 1532TIP3   OH2 4601   5.900   0.458   3.880
 1532TIP3    H1 4602   5.927   0.530   3.823
 1532TIP3    H2 4603   5.901   0.381   3.823
 1533TIP3   OH2 4604   4.836   4.670   3.320
 1533TIP3    H1 4605   4.750   4.659   3.280
 1533TIP3    H2 4606   4.895   4.684   3.245
 1534TIP3   OH2 4607   0.324   0.100   3.610
 1534TIP3    H1 4608   0.233   0.079   3.588
 1534TIP3    H2 4609   0.334   0.074   3.701
 1535TIP3   OH2 4610   5.417   3.306   5.126
 1535TIP3    H1 4611   5.474   3.340   5.195
 1535TIP3    H2 4612   5.465   3.323   5.045
 1536TIP3   OH2 4613   5.400   1.062   1.352
 1536TIP3    H1 4614   5.405   1.125   1.280
 1536TIP3    H2 4615   5.335   0.998   1.323
 1537TIP3   OH2 4616   5.965   1.381   4.587
 1537TIP3    H1 4617   5.927   1.413   4.669
 1537TIP3    H2 4618   5.925   1.435   4.519
 1538TIP3   OH2 4619   0.488   1.039   0.271
 1538TIP3    H1 4620   0.401   1.046   0.311
 1538TIP3    H2 4621   0.489   1.106   0.203
 1539TIP3   OH2 4622   6.185   2.390   3.148
 1539TIP3    H1 4623   6.196   2.305   3.192
 1539TIP3    H2 4624   6.117   2.434   3.199
 1540TIP3   OH2 4625   3.519   1.940   4.649
 1540TIP3    H1 4626   3.482   1.988   4.575
 1540TIP3    H2 4627   3.466   1.860   4.655
 1541TIP3   OH2 4628   5.374   5.071   3.599
 1541TIP3    H1 4629   5.356   5.145   3.657
 1541TIP3    H2 4630   5.288   5.036   3.577
 1542TIP3   OH2 4631   4.735   3.141   5.136
 1542TIP3    H1 4632   4.786   3.202   5.189
 1542TIP3    H2 4633   4.647   3.146   5.172
 1543TIP3   OH2 4634   5.178   4.084   1.297
 1543TIP3    H1 4635   5.178   4.161   1.353
 1543TIP3    H2 4636   5.133   4.112   1.217
 1544TIP3   OH2 4637   1.253   4.272   3.100
 1544TIP3    H1 4638   1.243   4.245   3.008
 1544TIP3    H2 4639   1.163   4.289   3.129
 1545TIP3   OH2 4640   1.364   2.071   4.878
 1545TIP3    H1 4641   1.453   2.066   4.841
 1545TIP3    H2 4642   1.370   2.135   4.948
 1546TIP3   OH2 4643   2.359   4.186   1.248
 1546TIP3    H1 4644   2.384   4.229   1.329
 1546TIP3    H2 4645   2.431   4.203   1.188
 1547TIP3   OH2 4646   4.062   0.356   0.218
 1547TIP3    H1 4647   3.985   0.308   0.185
 1547TIP3    H2 4648   4.127   0.288   0.234
 1548TIP3   OH2 4649   5.662   5.344   1.067
 1548TIP3    H1 4650   5.653   5.266   1.011
 1548TIP3    H2 4651   5.654   5.311   1.156
 1549TIP3   OH2 4652   4.071   2.289   1.409
 1549TIP3    H1 4653   4.021   2.236   1.347
 1549TIP3    H2 4654   4.052   2.249   1.495
 1550TIP3   OH2 4655   4.046   3.998   3.810
 1550TIP3    H1 4656   4.016   4.087   3.825
 1550TIP3    H2 4657   4.050   3.989   3.715
 1551TIP3   OH2 4658   6.090   5.579   1.733
 1551TIP3    H1 4659   6.122   5.654   1.683
 1551TIP3    H2 4660   6.108   5.503   1.677
 1552TIP3   OH2 4661   3.654   3.145   0.798
 1552TIP3    H1 4662   3.680   3.130   0.708
 1552TIP3    H2 4663   3.736   3.168   0.843
 1553TIP3   OH2 4664   4.780   4.572   2.015
 1553TIP3    H1 4665   4.874   4.588   2.001
 1553TIP3    H2 4666   4.777   4.492   2.067
 1554TIP3   OH2 4667   5.679   1.935   0.151
 1554TIP3    H1 4668   5.745   1.932   0.082
 1554TIP3    H2 4669   5.597   1.916   0.105
 1555TIP3   OH2 4670   5.220   4.834   0.424
 1555TIP3    H1 4671   5.195   4.822   0.332
 1555TIP3    H2 4672   5.193   4.753   0.467
 1556TIP3   OH2 4673   1.938   0.374   4.148
 1556TIP3    H1 4674   1.965   0.420   4.228
 1556TIP3    H2 4675   1.908   0.288   4.178
 1557TIP3   OH2 4676   6.368   1.419   2.247
 1557TIP3    H1 4677   6.309   1.345   2.256
 1557TIP3    H2 4678   6.456   1.382   2.260
 1558TIP3   OH2 4679   2.756   5.834   4.953
 1558TIP3    H1 4680   2.699   5.840   4.876
 1558TIP3    H2 4681   2.785   5.924   4.968
 1559TIP3   OH2 4682   2.296   5.238   0.434
 1559TIP3    H1 4683   2.260   5.296   0.500
 1559TIP3    H2 4684   2.357   5.293   0.384
 1560TIP3   OH2 4685   4.946   2.010   4.558
 1560TIP3    H1 4686   4.932   1.919   4.584
 1560TIP3    H2 4687   4.922   2.061   4.636
 1561TIP3   OH2 4688   4.044   1.476   4.822
 1561TIP3    H1 4689   4.067   1.424   4.745
 1561TIP3    H2 4690   4.118   1.464   4.881
 1562TIP3   OH2 4691   1.904  -0.003   1.395
 1562TIP3    H1 4692   1.972  -0.011   1.328
 1562TIP3    H2 4693   1.880   0.090   1.394
 1563TIP3   OH2 4694   2.392   0.922   2.198
 1563TIP3    H1 4695   2.459   0.950   2.260
 1563TIP3    H2 4696   2.325   0.990   2.202
 1564TIP3   OH2 4697   4.173   5.214   3.355
 1564TIP3    H1 4698   4.155   5.245   3.444
 1564TIP3    H2 4699   4.223   5.284   3.314
 1565TIP3   OH2 4700   0.872   2.127   3.042
 1565TIP3    H1 4701   0.824   2.083   2.972
 1565TIP3    H2 4702   0.953   2.078   3.051
 1566TIP3   OH2 4703   1.094   3.980   4.325
 1566TIP3    H1 4704   1.015   3.930   4.308
 1566TIP3    H2 4705   1.153   3.956   4.253
 1567TIP3   OH2 4706   1.984   1.964   0.600
 1567TIP3    H1 4707   1.976   1.894   0.536
 1567TIP3    H2 4708   2.069   2.003   0.584
 1568TIP3   OH2 4709   3.157   4.162   1.517
 1568TIP3    H1 4710   3.150   4.085   1.572
 1568TIP3    H2 4711   3.105   4.142   1.440
 1569TIP3   OH2 4712   2.964   3.925   3.407
 1569TIP3    H1 4713   2.959   4.000   3.466
 1569TIP3    H2 4714   3.048   3.885   3.427
 1570TIP3   OH2 4715   1.089   4.047   3.199
 1570TIP3    H1 4716   1.028   3.986   3.159
 1570TIP3    H2 4717   1.038   4.127   3.213
 1571TIP3   OH2 4718   3.300   0.228   3.403
 1571TIP3    H1 4719   3.333   0.251   3.316
 1571TIP3    H2 4720   3.321   0.135   3.412
 1572TIP3   OH2 4721   1.341   4.475   2.127
 1572TIP3    H1 4722   1.388   4.461   2.209
 1572TIP3    H2 4723   1.302   4.390   2.107
 1573TIP3   OH2 4724   0.732  -0.039   0.537
 1573TIP3    H1 4725   0.796   0.019   0.579
 1573TIP3    H2 4726   0.659   0.019   0.515
 1574TIP3   OH2 4727   5.503   4.842   0.517
 1574TIP3    H1 4728   5.416   4.841   0.476
 1574TIP3    H2 4729   5.513   4.754   0.553
 1575TIP3   OH2 4730   2.917   0.960   4.447
 1575TIP3    H1 4731   2.918   0.870   4.480
 1575TIP3    H2 4732   3.010   0.984   4.441
 1576TIP3   OH2 4733   4.487   5.039   5.128
 1576TIP3    H1 4734   4.559   5.096   5.152
 1576TIP3    H2 4735   4.529   4.960   5.093
 1577TIP3   OH2 4736   3.319   2.212   1.613
 1577TIP3    H1 4737   3.231   2.222   1.577
 1577TIP3    H2 4738   3.316   2.130   1.662
 1578TIP3   OH2 4739   1.756   3.665   2.238
 1578TIP3    H1 4740   1.666   3.696   2.250
 1578TIP3    H2 4741   1.747   3.583   2.190
 1579TIP3   OH2 4742   5.226   3.194   1.484
 1579TIP3    H1 4743   5.256   3.143   1.559
 1579TIP3    H2 4744   5.203   3.279   1.520
 1580TIP3   OH2 4745   5.846   2.207   0.895
 1580TIP3    H1 4746   5.916   2.142   0.881
 1580TIP3    H2 4747   5.779   2.183   0.832
 1581TIP3   OH2 4748   2.924   5.271   4.032
 1581TIP3    H1 4749   3.015   5.269   4.064
 1581TIP3    H2 4750   2.872   5.291   4.110
 1582TIP3   OH2 4751   0.821   0.936   0.348
 1582TIP3    H1 4752   0.763   0.867   0.381
 1582TIP3    H2 4753   0.797   1.014   0.398
 1583TIP3   OH2 4754   2.435   4.905   4.552
 1583TIP3    H1 4755   2.471   4.821   4.522
 1583TIP3    H2 4756   2.511   4.963   4.555
 1584TIP3   OH2 4757   1.763   2.135   2.916
 1584TIP3    H1 4758   1.722   2.216   2.884
 1584TIP3    H2 4759   1.825   2.164   2.983
 1585TIP3   OH2 4760   5.376   2.067   2.190
 1585TIP3    H1 4761   5.427   2.006   2.243
 1585TIP3    H2 4762   5.395   2.153   2.228
 1586TIP3   OH2 4763   3.025   2.388   2.158
 1586TIP3    H1 4764   3.018   2.312   2.216
 1586TIP3    H2 4765   3.119   2.404   2.152
 1587TIP3   OH2 4766   0.670   1.337   2.869
 1587TIP3    H1 4767   0.669   1.425   2.906
 1587TIP3    H2 4768   0.716   1.347   2.785
 1588TIP3   OH2 4769   3.065   3.443   4.193
 1588TIP3    H1 4770   3.122   3.371   4.218
 1588TIP3    H2 4771   2.992   3.439   4.255
 1589TIP3   OH2 4772   3.492   3.496   4.419
 1589TIP3    H1 4773   3.398   3.512   4.424
 1589TIP3    H2 4774   3.521   3.497   4.510
 1590TIP3   OH2 4775   5.674   0.946   1.830
 1590TIP3    H1 4776   5.631   1.030   1.814
 1590TIP3    H2 4777   5.767   0.966   1.823
 1591TIP3   OH2 4778   3.027   5.835   2.644
 1591TIP3    H1 4779   3.004   5.907   2.585
 1591TIP3    H2 4780   2.947   5.783   2.651
 1592TIP3   OH2 4781   1.441   1.631   3.869
 1592TIP3    H1 4782   1.347   1.618   3.875
 1592TIP3    H2 4783   1.456   1.717   3.910
 1593TIP3   OH2 4784   3.035   1.012   2.305
 1593TIP3    H1 4785   3.037   0.950   2.232
 1593TIP3    H2 4786   2.980   0.968   2.371
 1594TIP3   OH2 4787   1.696   5.744   0.424
 1594TIP3    H1 4788   1.772   5.685   0.424
 1594TIP3    H2 4789   1.629   5.695   0.472
 1595TIP3   OH2 4790   2.250   5.106   1.136
 1595TIP3    H1 4791   2.221   5.138   1.051
 1595TIP3    H2 4792   2.260   5.186   1.189
 1596TIP3   OH2 4793   2.074   4.373   4.341
 1596TIP3    H1 4794   2.063   4.286   4.302
 1596TIP3    H2 4795   2.011   4.428   4.296
 1597TIP3   OH2 4796   0.054   0.557   4.826
 1597TIP3    H1 4797   0.051   0.591   4.737
 1597TIP3    H2 4798  -0.002   0.479   4.824
 1598TIP3   OH2 4799   3.139   5.817   2.888
 1598TIP3    H1 4800   3.223   5.772   2.894
 1598TIP3    H2 4801   3.116   5.812   2.795
 1599TIP3   OH2 4802   3.831   4.301   4.088
 1599TIP3    H1 4803   3.851   4.365   4.157
 1599TIP3    H2 4804   3.833   4.352   4.007
 1600TIP3   OH2 4805   0.636   5.275   0.795
 1600TIP3    H1 4806   0.645   5.223   0.715
 1600TIP3    H2 4807   0.691   5.352   0.780
 1601TIP3   OH2 4808   6.066   4.403   4.180
 1601TIP3    H1 4809   5.997   4.455   4.140
 1601TIP3    H2 4810   6.117   4.370   4.107
 1602TIP3   OH2 4811   2.902   4.670   2.385
 1602TIP3    H1 4812   2.959   4.627   2.448
 1602TIP3    H2 4813   2.957   4.681   2.307
 1603TIP3   OH2 4814   1.148   3.549   5.160
 1603TIP3    H1 4815   1.142   3.454   5.145
 1603TIP3    H2 4816   1.169   3.586   5.074
 1604TIP3   OH2 4817   5.618   1.570   0.762
 1604TIP3    H1 4818   5.689   1.519   0.722
 1604TIP3    H2 4819   5.619   1.543   0.854
 1605TIP3   OH2 4820   4.866   3.386   0.881
 1605TIP3    H1 4821   4.910   3.304   0.856
 1605TIP3    H2 4822   4.795   3.395   0.817
 1606TIP3   OH2 4823   5.906   4.641   0.768
 1606TIP3    H1 4824   5.870   4.608   0.850
 1606TIP3    H2 4825   5.928   4.563   0.717
 1607TIP3   OH2 4826   0.362   4.257   2.297
 1607TIP3    H1 4827   0.448   4.298   2.281
 1607TIP3    H2 4828   0.374   4.165   2.273
 1608TIP3   OH2 4829   0.731   5.875   3.190
 1608TIP3    H1 4830   0.801   5.932   3.156
 1608TIP3    H2 4831   0.774   5.823   3.258
 1609TIP3   OH2 4832   4.339   5.803   4.968
 1609TIP3    H1 4833   4.286   5.850   5.033
 1609TIP3    H2 4834   4.279   5.788   4.895
 1610TIP3   OH2 4835   1.305   0.365   2.864
 1610TIP3    H1 4836   1.366   0.300   2.897
 1610TIP3    H2 4837   1.321   0.443   2.917
 1611TIP3   OH2 4838   0.592   1.065   1.078
 1611TIP3    H1 4839   0.503   1.081   1.109
 1611TIP3    H2 4840   0.648   1.086   1.152
 1612TIP3   OH2 4841   3.272   5.928   0.818
 1612TIP3    H1 4842   3.198   5.877   0.848
 1612TIP3    H2 4843   3.345   5.899   0.873
 1613TIP3   OH2 4844   0.600   3.024   4.116
 1613TIP3    H1 4845   0.637   2.941   4.148
 1613TIP3    H2 4846   0.512   3.000   4.085
 1614TIP3   OH2 4847   2.404   0.896   1.725
 1614TIP3    H1 4848   2.482   0.840   1.726
 1614TIP3    H2 4849   2.365   0.883   1.811
 1615TIP3   OH2 4850   5.613   0.616   3.857
 1615TIP3    H1 4851   5.633   0.542   3.800
 1615TIP3    H2 4852   5.653   0.691   3.814
 1616TIP3   OH2 4853   2.758   5.761   1.184
 1616TIP3    H1 4854   2.827   5.812   1.226
 1616TIP3    H2 4855   2.676   5.798   1.218
 1617TIP3   OH2 4856   2.846   2.066   1.442
 1617TIP3    H1 4857   2.892   1.997   1.489
 1617TIP3    H2 4858   2.771   2.022   1.402
 1618TIP3   OH2 4859   2.293   0.391   2.619
 1618TIP3    H1 4860   2.291   0.447   2.541
 1618TIP3    H2 4861   2.342   0.314   2.591
 1619TIP3   OH2 4862   0.672   5.036   2.266
 1619TIP3    H1 4863   0.757   5.014   2.226
 1619TIP3    H2 4864   0.611   5.038   2.193
 1620TIP3   OH2 4865   5.197   0.823   2.816
 1620TIP3    H1 4866   5.189   0.747   2.758
 1620TIP3    H2 4867   5.230   0.892   2.760
 1621TIP3   OH2 4868   1.029   1.482   2.985
 1621TIP3    H1 4869   1.097   1.479   2.917
 1621TIP3    H2 4870   0.973   1.555   2.959
 1622TIP3   OH2 4871   4.079   3.899   1.195
 1622TIP3    H1 4872   3.998   3.856   1.166
 1622TIP3    H2 4873   4.107   3.950   1.119
 1623TIP3   OH2 4874   6.235   1.404   3.862
 1623TIP3    H1 4875   6.193   1.478   3.819
 1623TIP3    H2 4876   6.329   1.421   3.853
 1624TIP3   OH2 4877   1.905   0.951   5.131
 1624TIP3    H1 4878   1.913   0.887   5.201
 1624TIP3    H2 4879   1.811   0.957   5.114
 1625TIP3   OH2 4880   6.064   2.320   4.926
 1625TIP3    H1 4881   5.973   2.314   4.954
 1625TIP3    H2 4882   6.068   2.399   4.873
 1626TIP3   OH2 4883   0.893   2.904   5.040
 1626TIP3    H1 4884   0.951   2.866   5.106
 1626TIP3    H2 4885   0.817   2.934   5.090
 1627TIP3   OH2 4886   0.863   1.546   3.549
 1627TIP3    H1 4887   0.812   1.487   3.494
 1627TIP3    H2 4888   0.846   1.633   3.512
 1628TIP3   OH2 4889   1.322   5.150   2.579
 1628TIP3    H1 4890   1.242   5.109   2.547
 1628TIP3    H2 4891   1.369   5.080   2.624
 1629TIP3   OH2 4892   2.252   0.286   1.425
 1629TIP3    H1 4893   2.182   0.344   1.454
 1629TIP3    H2 4894   2.330   0.318   1.471
 1630TIP3   OH2 4895   5.725   3.197   1.979
 1630TIP3    H1 4896   5.676   3.120   2.009
 1630TIP3    H2 4897   5.718   3.193   1.883
 1631TIP3   OH2 4898   1.163   3.171   4.870
 1631TIP3    H1 4899   1.206   3.087   4.885
 1631TIP3    H2 4900   1.070   3.150   4.861
 1632TIP3   OH2 4901   2.167   5.645   3.802
 1632TIP3    H1 4902   2.230   5.607   3.863
 1632TIP3    H2 4903   2.082   5.626   3.842
 1633TIP3   OH2 4904   1.758   3.836   5.111
 1633TIP3    H1 4905   1.850   3.815   5.126
 1633TIP3    H2 4906   1.754   3.867   5.021
 1634TIP3   OH2 4907   5.368   3.884   0.745
 1634TIP3    H1 4908   5.333   3.857   0.830
 1634TIP3    H2 4909   5.429   3.814   0.721
 1635TIP3   OH2 4910   0.978   2.776   2.945
 1635TIP3    H1 4911   0.938   2.708   2.999
 1635TIP3    H2 4912   1.060   2.737   2.915
 1636TIP3   OH2 4913   1.812   3.586   4.719
 1636TIP3    H1 4914   1.717   3.575   4.724
 1636TIP3    H2 4915   1.847   3.515   4.772
 1637TIP3   OH2 4916   4.960   2.262   3.043
 1637TIP3    H1 4917   4.937   2.339   2.990
 1637TIP3    H2 4918   4.890   2.199   3.024
 1638TIP3   OH2 4919   4.473   2.155   0.281
 1638TIP3    H1 4920   4.378   2.156   0.266
 1638TIP3    H2 4921   4.502   2.071   0.245
 1639TIP3   OH2 4922   5.066   1.154   0.971
 1639TIP3    H1 4923   4.977   1.118   0.964
 1639TIP3    H2 4924   5.110   1.126   0.891
 1640TIP3   OH2 4925   4.468   0.765   2.711
 1640TIP3    H1 4926   4.508   0.680   2.730
 1640TIP3    H2 4927   4.393   0.769   2.771
 1641TIP3   OH2 4928   1.997   1.403   0.521
 1641TIP3    H1 4929   2.041   1.411   0.606
 1641TIP3    H2 4930   2.068   1.398   0.457
 1642TIP3   OH2 4931   6.006   3.140   3.655
 1642TIP3    H1 4932   6.055   3.067   3.619
 1642TIP3    H2 4933   6.028   3.140   3.748
 1643TIP3   OH2 4934   4.365   5.287   2.773
 1643TIP3    H1 4935   4.452   5.295   2.811
 1643TIP3    H2 4936   4.364   5.350   2.702
 1644TIP3   OH2 4937   3.470   4.640   1.844
 1644TIP3    H1 4938   3.398   4.582   1.870
 1644TIP3    H2 4939   3.549   4.588   1.861
 1645TIP3   OH2 4940   0.867   4.201   2.586
 1645TIP3    H1 4941   0.834   4.175   2.672
 1645TIP3    H2 4942   0.846   4.294   2.579
 1646TIP3   OH2 4943   3.433   4.269   0.719
 1646TIP3    H1 4944   3.424   4.277   0.814
 1646TIP3    H2 4945   3.527   4.277   0.703
 1647TIP3   OH2 4946   0.823   2.383   4.797
 1647TIP3    H1 4947   0.849   2.468   4.831
 1647TIP3    H2 4948   0.845   2.386   4.704
 1648TIP3   OH2 4949   3.296   0.884   0.551
 1648TIP3    H1 4950   3.347   0.819   0.503
 1648TIP3    H2 4951   3.217   0.897   0.498
 1649TIP3   OH2 4952   4.762   2.415   1.467
 1649TIP3    H1 4953   4.810   2.335   1.491
 1649TIP3    H2 4954   4.671   2.386   1.456
 1650TIP3   OH2 4955   1.843   2.946   4.915
 1650TIP3    H1 4956   1.879   2.940   4.827
 1650TIP3    H2 4957   1.920   2.942   4.972
 1651TIP3   OH2 4958   3.757   2.361   3.753
 1651TIP3    H1 4959   3.796   2.448   3.762
 1651TIP3    H2 4960   3.776   2.335   3.663
 1652TIP3   OH2 4961   1.257   4.564   1.881
 1652TIP3    H1 4962   1.255   4.659   1.873
 1652TIP3    H2 4963   1.325   4.547   1.946
 1653TIP3   OH2 4964   3.834   2.692   4.520
 1653TIP3    H1 4965   3.760   2.650   4.563
 1653TIP3    H2 4966   3.863   2.629   4.454
 1654TIP3   OH2 4967   2.593   1.735   3.238
 1654TIP3    H1 4968   2.524   1.676   3.270
 1654TIP3    H2 4969   2.660   1.732   3.307
 1655TIP3   OH2 4970   4.714   1.623   4.901
 1655TIP3    H1 4971   4.697   1.569   4.824
 1655TIP3    H2 4972   4.677   1.708   4.879
 1656TIP3   OH2 4973   4.551   3.866   4.579
 1656TIP3    H1 4974   4.600   3.936   4.536
 1656TIP3    H2 4975   4.459   3.889   4.565
 1657TIP3   OH2 4976   6.235   1.368   1.046
 1657TIP3    H1 4977   6.218   1.462   1.044
 1657TIP3    H2 4978   6.330   1.360   1.047
 1658TIP3   OH2 4979   5.444   2.128   2.633
 1658TIP3    H1 4980   5.458   2.113   2.726
 1658TIP3    H2 4981   5.390   2.206   2.629
 1659TIP3   OH2 4982   0.161   0.919   1.746
 1659TIP3    H1 4983   0.139   0.890   1.834
 1659TIP3    H2 4984   0.088   0.888   1.692
 1660TIP3   OH2 4985   4.431   3.746   3.027
 1660TIP3    H1 4986   4.452   3.788   2.943
 1660TIP3    H2 4987   4.365   3.679   3.005
 1661TIP3   OH2 4988   5.283   1.203   0.165
 1661TIP3    H1 4989   5.259   1.232   0.253
 1661TIP3    H2 4990   5.378   1.194   0.168
 1662TIP3   OH2 4991   0.296   2.498   0.808
 1662TIP3    H1 4992   0.264   2.558   0.740
 1662TIP3    H2 4993   0.345   2.555   0.868
 1663TIP3   OH2 4994   4.160   2.514   3.575
 1663TIP3    H1 4995   4.108   2.437   3.601
 1663TIP3    H2 4996   4.136   2.581   3.638
 1664TIP3   OH2 4997   0.654   3.668   4.018
 1664TIP3    H1 4998   0.697   3.750   4.045
 1664TIP3    H2 4999   0.639   3.621   4.099
 1665TIP3   OH2 5000   3.361   1.892   0.341
 1665TIP3    H1 5001   3.361   1.962   0.276
 1665TIP3    H2 5002   3.272   1.857   0.338
 1666TIP3   OH2 5003   6.196   4.592   2.716
 1666TIP3    H1 5004   6.189   4.520   2.653
 1666TIP3    H2 5005   6.256   4.654   2.675
 1667TIP3   OH2 5006   5.843   4.244   2.034
 1667TIP3    H1 5007   5.801   4.159   2.031
 1667TIP3    H2 5008   5.925   4.230   2.082
 1668TIP3   OH2 5009   2.368   2.024   3.273
 1668TIP3    H1 5010   2.312   1.969   3.327
 1668TIP3    H2 5011   2.396   2.094   3.331
 1669TIP3   OH2 5012   5.789   5.218   0.570
 1669TIP3    H1 5013   5.769   5.126   0.584
 1669TIP3    H2 5014   5.857   5.218   0.503
 1670TIP3   OH2 5015   4.605   0.892   0.562
 1670TIP3    H1 5016   4.692   0.916   0.593
 1670TIP3    H2 5017   4.555   0.973   0.568
 1671TIP3   OH2 5018   0.128   0.434   0.724
 1671TIP3    H1 5019   0.172   0.421   0.808
 1671TIP3    H2 5020   0.070   0.508   0.738
 1672TIP3   OH2 5021   4.471   2.747   3.547
 1672TIP3    H1 5022   4.380   2.718   3.547
 1672TIP3    H2 5023   4.466   2.841   3.530
 1673TIP3   OH2 5024   3.651   0.598   1.092
 1673TIP3    H1 5025   3.676   0.535   1.024
 1673TIP3    H2 5026   3.615   0.672   1.044
 1674TIP3   OH2 5027   5.649   4.562   4.435
 1674TIP3    H1 5028   5.678   4.647   4.403
 1674TIP3    H2 5029   5.651   4.570   4.530
 1675TIP3   OH2 5030   1.598   1.029   0.437
 1675TIP3    H1 5031   1.517   1.044   0.486
 1675TIP3    H2 5032   1.575   0.964   0.371
 1676TIP3   OH2 5033   1.297   0.608   3.010
 1676TIP3    H1 5034   1.349   0.687   3.007
 1676TIP3    H2 5035   1.209   0.636   2.986
 1677TIP3   OH2 5036   4.385   2.200   1.504
 1677TIP3    H1 5037   4.421   2.261   1.439
 1677TIP3    H2 5038   4.297   2.232   1.520
 1678TIP3   OH2 5039   0.133   5.661   2.615
 1678TIP3    H1 5040   0.091   5.700   2.538
 1678TIP3    H2 5041   0.217   5.706   2.620
 1679TIP3   OH2 5042   2.558   4.092   0.634
 1679TIP3    H1 5043   2.637   4.113   0.584
 1679TIP3    H2 5044   2.521   4.177   0.656
 1680TIP3   OH2 5045   4.019   5.393   4.501
 1680TIP3    H1 5046   4.095   5.394   4.558
 1680TIP3    H2 5047   3.958   5.333   4.543
 1681TIP3   OH2 5048   5.975   0.974   1.760
 1681TIP3    H1 5049   5.963   0.879   1.765
 1681TIP3    H2 5050   5.946   0.997   1.672
 1682TIP3   OH2 5051   0.976   2.654   2.533
 1682TIP3    H1 5052   0.910   2.611   2.587
 1682TIP3    H2 5053   1.053   2.597   2.540
 1683TIP3   OH2 5054   1.482   4.360   5.188
 1683TIP3    H1 5055   1.529   4.443   5.193
 1683TIP3    H2 5056   1.400   4.381   5.143
 1684TIP3   OH2 5057   5.920   4.585   4.855
 1684TIP3    H1 5058   5.937   4.558   4.945
 1684TIP3    H2 5059   5.940   4.508   4.802
 1685TIP3   OH2 5060   1.456   5.991   0.690
 1685TIP3    H1 5061   1.434   5.961   0.602
 1685TIP3    H2 5062   1.380   6.044   0.717
 1686TIP3   OH2 5063   5.708   4.212   0.417
 1686TIP3    H1 5064   5.644   4.150   0.454
 1686TIP3    H2 5065   5.670   4.237   0.333
 1687TIP3   OH2 5066   2.260   4.015   2.324
 1687TIP3    H1 5067   2.303   4.056   2.399
 1687TIP3    H2 5068   2.181   3.975   2.360
 1688TIP3   OH2 5069   0.466   1.455   2.528
 1688TIP3    H1 5070   0.392   1.466   2.587
 1688TIP3    H2 5071   0.473   1.361   2.515
 1689TIP3   OH2 5072   0.833   4.628   1.438
 1689TIP3    H1 5073   0.761   4.608   1.378
 1689TIP3    H2 5074   0.909   4.642   1.382
 1690TIP3   OH2 5075   0.855   4.959   4.295
 1690TIP3    H1 5076   0.764   4.961   4.269
 1690TIP3    H2 5077   0.889   5.046   4.274
 1691TIP3   OH2 5078   5.299   5.961   1.502
 1691TIP3    H1 5079   5.261   5.874   1.513
 1691TIP3    H2 5080   5.335   5.961   1.413
 1692TIP3   OH2 5081   2.452   2.317   4.511
 1692TIP3    H1 5082   2.493   2.403   4.520
 1692TIP3    H2 5083   2.372   2.333   4.463
 1693TIP3   OH2 5084   3.302   4.388   1.143
 1693TIP3    H1 5085   3.307   4.293   1.130
 1693TIP3    H2 5086   3.347   4.403   1.226
 1694TIP3   OH2 5087   2.119   1.406   1.546
 1694TIP3    H1 5088   2.150   1.389   1.457
 1694TIP3    H2 5089   2.112   1.501   1.551
 1695TIP3   OH2 5090   5.263   4.942   0.996
 1695TIP3    H1 5091   5.248   4.894   1.077
 1695TIP3    H2 5092   5.341   4.903   0.958
 1696TIP3   OH2 5093   3.386   1.649   5.039
 1696TIP3    H1 5094   3.329   1.578   5.068
 1696TIP3    H2 5095   3.333   1.697   4.974
 1697TIP3   OH2 5096   6.293   5.386   3.749
 1697TIP3    H1 5097   6.236   5.459   3.773
 1697TIP3    H2 5098   6.248   5.309   3.785
 1698TIP3   OH2 5099   0.987   3.622   2.008
 1698TIP3    H1 5100   0.945   3.692   2.058
 1698TIP3    H2 5101   1.017   3.665   1.928
 1699TIP3   OH2 5102   0.161   1.315   1.059
 1699TIP3    H1 5103   0.220   1.334   0.986
 1699TIP3    H2 5104   0.217   1.271   1.124
 1700TIP3   OH2 5105   2.045   1.596   4.850
 1700TIP3    H1 5106   1.959   1.590   4.891
 1700TIP3    H2 5107   2.091   1.664   4.899
 1701TIP3   OH2 5108   0.642   0.828   4.272
 1701TIP3    H1 5109   0.725   0.830   4.319
 1701TIP3    H2 5110   0.593   0.903   4.305
 1702TIP3   OH2 5111   2.925   1.577   3.835
 1702TIP3    H1 5112   2.835   1.543   3.832
 1702TIP3    H2 5113   2.917   1.662   3.879
 1703TIP3   OH2 5114   1.665   5.276   1.386
 1703TIP3    H1 5115   1.716   5.217   1.442
 1703TIP3    H2 5116   1.594   5.222   1.351
 1704TIP3   OH2 5117   1.885   4.817   1.007
 1704TIP3    H1 5118   1.923   4.886   1.062
 1704TIP3    H2 5119   1.865   4.860   0.924
 1705TIP3   OH2 5120   4.397   1.046   2.938
 1705TIP3    H1 5121   4.465   0.982   2.961
 1705TIP3    H2 5122   4.426   1.082   2.854
 1706TIP3   OH2 5123   6.205   1.371   1.387
 1706TIP3    H1 5124   6.233   1.364   1.478
 1706TIP3    H2 5125   6.279   1.410   1.342
 1707TIP3   OH2 5126   2.006   1.154   1.420
 1707TIP3    H1 5127   2.038   1.231   1.374
 1707TIP3    H2 5128   1.922   1.180   1.456
 1708TIP3   OH2 5129   3.076   2.663   2.639
 1708TIP3    H1 5130   2.997   2.610   2.647
 1708TIP3    H2 5131   3.117   2.632   2.558
 1709TIP3   OH2 5132   5.412   5.566   3.649
 1709TIP3    H1 5133   5.415   5.642   3.591
 1709TIP3    H2 5134   5.322   5.534   3.643
 1710TIP3   OH2 5135   0.143   0.385   1.819
 1710TIP3    H1 5136   0.050   0.365   1.824
 1710TIP3    H2 5137   0.150   0.452   1.751
 1711TIP3   OH2 5138   2.826   0.391   4.805
 1711TIP3    H1 5139   2.762   0.375   4.875
 1711TIP3    H2 5140   2.821   0.486   4.791
 1712TIP3   OH2 5141   5.359   5.644   1.830
 1712TIP3    H1 5142   5.390   5.589   1.901
 1712TIP3    H2 5143   5.434   5.700   1.808
 1713TIP3   OH2 5144   1.670  -0.030   3.750
 1713TIP3    H1 5145   1.691  -0.040   3.657
 1713TIP3    H2 5146   1.660   0.064   3.763
 1714TIP3   OH2 5147   0.126   3.219   5.088
 1714TIP3    H1 5148   0.180   3.210   5.166
 1714TIP3    H2 5149   0.075   3.298   5.103
 1715TIP3   OH2 5150   2.102   3.687   0.808
 1715TIP3    H1 5151   2.141   3.699   0.895
 1715TIP3    H2 5152   2.018   3.644   0.826
 1716TIP3   OH2 5153   1.727   5.851   4.342
 1716TIP3    H1 5154   1.775   5.851   4.259
 1716TIP3    H2 5155   1.716   5.759   4.364
 1717TIP3   OH2 5156   3.507   3.653   0.306
 1717TIP3    H1 5157   3.560   3.646   0.227
 1717TIP3    H2 5158   3.517   3.744   0.334
 1718TIP3   OH2 5159   3.983   5.355   4.174
 1718TIP3    H1 5160   3.963   5.446   4.151
 1718TIP3    H2 5161   4.010   5.360   4.266
 1719TIP3   OH2 5162   4.412   3.005   4.554
 1719TIP3    H1 5163   4.386   3.007   4.462
 1719TIP3    H2 5164   4.402   3.096   4.583
 1720TIP3   OH2 5165   1.103   5.622   3.214
 1720TIP3    H1 5166   1.100   5.702   3.267
 1720TIP3    H2 5167   1.014   5.587   3.218
 1721TIP3   OH2 5168   1.392   0.211   3.731
 1721TIP3    H1 5169   1.360   0.218   3.641
 1721TIP3    H2 5170   1.330   0.152   3.775
 1722TIP3   OH2 5171   4.912   1.101  -0.009
 1722TIP3    H1 5172   4.959   1.184  -0.007
 1722TIP3    H2 5173   4.825   1.121   0.027
 1723TIP3   OH2 5174   1.098   2.390   1.020
 1723TIP3    H1 5175   1.047   2.471   1.026
 1723TIP3    H2 5176   1.064   2.335   1.090
 1724TIP3   OH2 5177   0.213   2.053   4.993
 1724TIP3    H1 5178   0.287   2.018   4.943
 1724TIP3    H2 5179   0.168   1.975   5.026
 1725TIP3   OH2 5180   5.311   0.597   0.442
 1725TIP3    H1 5181   5.230   0.648   0.440
 1725TIP3    H2 5182   5.290   0.517   0.394
 1726TIP3   OH2 5183   3.481   4.901   2.009
 1726TIP3    H1 5184   3.557   4.885   2.065
 1726TIP3    H2 5185   3.481   4.827   1.948
 1727TIP3   OH2 5186   5.628   5.880   2.473
 1727TIP3    H1 5187   5.687   5.831   2.532
 1727TIP3    H2 5188   5.550   5.897   2.526
 1728TIP3   OH2 5189   3.751   4.526   1.876
 1728TIP3    H1 5190   3.755   4.463   1.804
 1728TIP3    H2 5191   3.754   4.472   1.955
 1729TIP3   OH2 5192   2.273   3.951   2.043
 1729TIP3    H1 5193   2.246   3.952   2.135
 1729TIP3    H2 5194   2.303   4.040   2.025
 1730TIP3   OH2 5195   3.444   5.916   3.638
 1730TIP3    H1 5196   3.407   5.844   3.586
 1730TIP3    H2 5197   3.538   5.899   3.638
 1731TIP3   OH2 5198   4.449   3.896   2.815
 1731TIP3    H1 5199   4.485   3.884   2.727
 1731TIP3    H2 5200   4.374   3.954   2.802
 1732TIP3   OH2 5201   6.247   2.311   0.739
 1732TIP3    H1 5202   6.200   2.318   0.656
 1732TIP3    H2 5203   6.196   2.364   0.800
 1733TIP3   OH2 5204   0.106   4.432   1.035
 1733TIP3    H1 5205   0.027   4.417   1.087
 1733TIP3    H2 5206   0.110   4.527   1.024
 1734TIP3   OH2 5207   0.229   1.175   4.817
 1734TIP3    H1 5208   0.231   1.251   4.758
 1734TIP3    H2 5209   0.136   1.157   4.830
 1735TIP3   OH2 5210   3.393   2.918   3.748
 1735TIP3    H1 5211   3.475   2.963   3.770
 1735TIP3    H2 5212   3.408   2.827   3.773
 1736TIP3   OH2 5213   3.210   1.937   1.266
 1736TIP3    H1 5214   3.157   2.012   1.293
 1736TIP3    H2 5215   3.258   1.967   1.189
 1737TIP3   OH2 5216   5.654   0.238   0.643
 1737TIP3    H1 5217   5.665   0.332   0.627
 1737TIP3    H2 5218   5.656   0.199   0.556
 1738TIP3   OH2 5219   3.179   1.108   1.773
 1738TIP3    H1 5220   3.208   1.057   1.848
 1738TIP3    H2 5221   3.178   1.199   1.804
 1739TIP3   OH2 5222   6.075   0.202   0.863
 1739TIP3    H1 5223   6.128   0.166   0.934
 1739TIP3    H2 5224   6.015   0.263   0.907
 1740TIP3   OH2 5225   4.571   1.490   0.706
 1740TIP3    H1 5226   4.563   1.578   0.742
 1740TIP3    H2 5227   4.488   1.448   0.725
 1741TIP3   OH2 5228   4.187   2.579   3.304
 1741TIP3    H1 5229   4.184   2.674   3.304
 1741TIP3    H2 5230   4.176   2.554   3.396
 1742TIP3   OH2 5231   0.667   5.372   3.876
 1742TIP3    H1 5232   0.728   5.327   3.817
 1742TIP3    H2 5233   0.609   5.302   3.907
 1743TIP3   OH2 5234   4.223   5.197   3.997
 1743TIP3    H1 5235   4.143   5.246   4.014
 1743TIP3    H2 5236   4.270   5.199   4.081
 1744TIP3   OH2 5237   6.072   0.243   1.216
 1744TIP3    H1 5238   6.010   0.312   1.195
 1744TIP3    H2 5239   6.021   0.163   1.216
 1745TIP3   OH2 5240   3.678   3.915   3.973
 1745TIP3    H1 5241   3.628   3.838   3.998
 1745TIP3    H2 5242   3.769   3.891   3.991
 1746TIP3   OH2 5243   1.590   4.499   0.965
 1746TIP3    H1 5244   1.564   4.480   1.055
 1746TIP3    H2 5245   1.508   4.505   0.916
 1747TIP3   OH2 5246   5.964   2.339   2.581
 1747TIP3    H1 5247   5.977   2.244   2.571
 1747TIP3    H2 5248   5.916   2.347   2.663
 1748TIP3   OH2 5249   1.831   4.797   3.053
 1748TIP3    H1 5250   1.856   4.848   3.131
 1748TIP3    H2 5251   1.903   4.735   3.042
 1749TIP3   OH2 5252   3.658   4.886   2.296
 1749TIP3    H1 5253   3.651   4.938   2.376
 1749TIP3    H2 5254   3.686   4.800   2.325
 1750TIP3   OH2 5255   4.711   4.828   1.980
 1750TIP3    H1 5256   4.793   4.864   2.014
 1750TIP3    H2 5257   4.715   4.735   2.001
 1751TIP3   OH2 5258   0.644   0.526   0.723
 1751TIP3    H1 5259   0.638   0.541   0.628
 1751TIP3    H2 5260   0.605   0.440   0.736
 1752TIP3   OH2 5261   1.178   3.549   3.444
 1752TIP3    H1 5262   1.224   3.610   3.502
 1752TIP3    H2 5263   1.114   3.506   3.500
 1753TIP3   OH2 5264   1.701   2.773   4.644
 1753TIP3    H1 5265   1.772   2.837   4.639
 1753TIP3    H2 5266   1.719   2.725   4.725
 1754TIP3   OH2 5267   1.286   1.808   2.829
 1754TIP3    H1 5268   1.333   1.890   2.818
 1754TIP3    H2 5269   1.351   1.746   2.863
 1755TIP3   OH2 5270   1.196   5.944   2.461
 1755TIP3    H1 5271   1.252   5.967   2.388
 1755TIP3    H2 5272   1.198   6.020   2.519
 1756TIP3   OH2 5273   0.214   4.426   4.580
 1756TIP3    H1 5274   0.264   4.505   4.601
 1756TIP3    H2 5275   0.175   4.444   4.495
 1757TIP3   OH2 5276   0.788   2.913   2.798
 1757TIP3    H1 5277   0.845   2.855   2.849
 1757TIP3    H2 5278   0.717   2.935   2.859
 1758TIP3   OH2 5279   4.973   2.758   3.691
 1758TIP3    H1 5280   5.053   2.731   3.736
 1758TIP3    H2 5281   4.991   2.742   3.598
 1759TIP3   OH2 5282   3.035   5.998   3.612
 1759TIP3    H1 5283   3.068   6.069   3.666
 1759TIP3    H2 5284   3.040   5.921   3.669
 1760TIP3   OH2 5285   5.831   0.523   4.850
 1760TIP3    H1 5286   5.849   0.596   4.790
 1760TIP3    H2 5287   5.789   0.564   4.925
 1761TIP3   OH2 5288   5.931   3.413   3.514
 1761TIP3    H1 5289   5.952   3.392   3.423
 1761TIP3    H2 5290   5.945   3.331   3.562
 1762TIP3   OH2 5291   3.969   5.522   1.668
 1762TIP3    H1 5292   3.960   5.452   1.733
 1762TIP3    H2 5293   4.040   5.493   1.611
 1763TIP3   OH2 5294   4.798   2.900   4.207
 1763TIP3    H1 5295   4.797   2.990   4.240
 1763TIP3    H2 5296   4.740   2.852   4.265
 1764TIP3   OH2 5297   5.403   5.072   0.735
 1764TIP3    H1 5298   5.433   5.017   0.663
 1764TIP3    H2 5299   5.433   5.027   0.814
 1765TIP3   OH2 5300   0.359   4.416   5.016
 1765TIP3    H1 5301   0.396   4.461   4.940
 1765TIP3    H2 5302   0.428   4.420   5.082
 1766TIP3   OH2 5303   5.637   5.815   0.576
 1766TIP3    H1 5304   5.605   5.782   0.492
 1766TIP3    H2 5305   5.580   5.774   0.641
 1767TIP3   OH2 5306   3.836   3.352   0.382
 1767TIP3    H1 5307   3.912   3.346   0.441
 1767TIP3    H2 5308   3.861   3.301   0.305
 1768TIP3   OH2 5309   4.745   2.531   1.190
 1768TIP3    H1 5310   4.719   2.504   1.278
 1768TIP3    H2 5311   4.747   2.449   1.140
 1769TIP3   OH2 5312   2.841   4.569   4.492
 1769TIP3    H1 5313   2.935   4.571   4.475
 1769TIP3    H2 5314   2.801   4.582   4.407
 1770TIP3   OH2 5315   4.846   5.710   0.694
 1770TIP3    H1 5316   4.916   5.717   0.759
 1770TIP3    H2 5317   4.870   5.771   0.625
 1771TIP3   OH2 5318   4.262   3.207   3.000
 1771TIP3    H1 5319   4.318   3.252   3.063
 1771TIP3    H2 5320   4.321   3.178   2.931
 1772TIP3   OH2 5321   5.072   5.206   4.849
 1772TIP3    H1 5322   5.072   5.218   4.944
 1772TIP3    H2 5323   5.093   5.293   4.814
 1773TIP3   OH2 5324   2.774   2.866   4.205
 1773TIP3    H1 5325   2.866   2.848   4.185
 1773TIP3    H2 5326   2.739   2.906   4.125
 1774TIP3   OH2 5327   6.357   1.705   3.582
 1774TIP3    H1 5328   6.268   1.691   3.551
 1774TIP3    H2 5329   6.349   1.773   3.649
 1775TIP3   OH2 5330   1.698   4.182   3.024
 1775TIP3    H1 5331   1.756   4.234   3.081
 1775TIP3    H2 5332   1.758   4.125   2.976
 1776TIP3   OH2 5333   0.955   0.965   4.184
 1776TIP3    H1 5334   0.909   0.897   4.136
 1776TIP3    H2 5335   0.994   0.919   4.259
 1777TIP3   OH2 5336   0.466   3.739   0.855
 1777TIP3    H1 5337   0.393   3.686   0.824
 1777TIP3    H2 5338   0.535   3.676   0.873
 1778TIP3   OH2 5339   2.389   5.299   0.916
 1778TIP3    H1 5340   2.407   5.208   0.942
 1778TIP3    H2 5341   2.434   5.309   0.832
 1779TIP3   OH2 5342   1.359   0.786   3.615
 1779TIP3    H1 5343   1.385   0.839   3.690
 1779TIP3    H2 5344   1.266   0.804   3.603
 1780TIP3   OH2 5345   1.583   3.195   5.018
 1780TIP3    H1 5346   1.671   3.175   5.050
 1780TIP3    H2 5347   1.546   3.252   5.085
 1781TIP3   OH2 5348   5.290   5.791   3.190
 1781TIP3    H1 5349   5.204   5.749   3.188
 1781TIP3    H2 5350   5.347   5.728   3.234
 1782TIP3   OH2 5351   3.527   5.783   0.571
 1782TIP3    H1 5352   3.462   5.713   0.561
 1782TIP3    H2 5353   3.568   5.791   0.486
 1783TIP3   OH2 5354   6.013   0.584   0.179
 1783TIP3    H1 5355   5.988   0.500   0.216
 1783TIP3    H2 5356   5.944   0.644   0.206
 1784TIP3   OH2 5357   2.831   2.661   5.025
 1784TIP3    H1 5358   2.837   2.599   5.098
 1784TIP3    H2 5359   2.883   2.736   5.053
 1785TIP3   OH2 5360   0.480   4.405   4.232
 1785TIP3    H1 5361   0.499   4.445   4.147
 1785TIP3    H2 5362   0.388   4.379   4.226
 1786TIP3   OH2 5363   2.221   0.164   4.424
 1786TIP3    H1 5364   2.150   0.125   4.475
 1786TIP3    H2 5365   2.294   0.102   4.434
 1787TIP3   OH2 5366   4.624   5.228   1.709
 1787TIP3    H1 5367   4.535   5.255   1.729
 1787TIP3    H2 5368   4.679   5.280   1.768
 1788TIP3   OH2 5369   0.660   2.100   2.518
 1788TIP3    H1 5370   0.648   2.195   2.517
 1788TIP3    H2 5371   0.741   2.087   2.567
 1789TIP3   OH2 5372   3.353   3.632   3.647
 1789TIP3    H1 5373   3.369   3.724   3.668
 1789TIP3    H2 5374   3.329   3.591   3.730
 1790TIP3   OH2 5375   4.785   4.642   0.810
 1790TIP3    H1 5376   4.792   4.565   0.866
 1790TIP3    H2 5377   4.837   4.709   0.854
 1791TIP3   OH2 5378   1.258   4.925   1.322
 1791TIP3    H1 5379   1.189   4.912   1.257
 1791TIP3    H2 5380   1.234   5.007   1.366
 1792TIP3   OH2 5381   4.018   5.072   1.216
 1792TIP3    H1 5382   3.988   5.144   1.160
 1792TIP3    H2 5383   3.939   5.046   1.264
 1793TIP3   OH2 5384   1.148   2.634   5.105
 1793TIP3    H1 5385   1.146   2.546   5.142
 1793TIP3    H2 5386   1.241   2.651   5.089
 1794TIP3   OH2 5387   3.226   0.520   1.062
 1794TIP3    H1 5388   3.147   0.556   1.022
 1794TIP3    H2 5389   3.237   0.571   1.142
 1795TIP3   OH2 5390   2.700   4.449   1.688
 1795TIP3    H1 5391   2.781   4.397   1.689
 1795TIP3    H2 5392   2.730   4.539   1.670
 1796TIP3   OH2 5393   4.872   3.417   3.399
 1796TIP3    H1 5394   4.953   3.461   3.373
 1796TIP3    H2 5395   4.834   3.475   3.465
 1797TIP3   OH2 5396   1.307   4.897   4.645
 1797TIP3    H1 5397   1.282   4.813   4.683
 1797TIP3    H2 5398   1.227   4.949   4.647
 1798TIP3   OH2 5399   1.643   5.542   1.367
 1798TIP3    H1 5400   1.655   5.449   1.387
 1798TIP3    H2 5401   1.729   5.581   1.385
 1799TIP3   OH2 5402   1.962   3.666   1.745
 1799TIP3    H1 5403   2.021   3.693   1.815
 1799TIP3    H2 5404   2.019   3.619   1.683
 1800TIP3   OH2 5405   1.375   5.562   1.243
 1800TIP3    H1 5406   1.318   5.577   1.319
 1800TIP3    H2 5407   1.456   5.530   1.281
 1801TIP3   OH2 5408   0.160   0.934   4.496
 1801TIP3    H1 5409   0.071   0.917   4.467
 1801TIP3    H2 5410   0.211   0.859   4.466
 1802TIP3   OH2 5411   0.975   5.276   0.226
 1802TIP3    H1 5412   0.959   5.343   0.159
 1802TIP3    H2 5413   1.033   5.319   0.288
 1803TIP3   OH2 5414   1.298   0.559   0.829
 1803TIP3    H1 5415   1.236   0.490   0.855
 1803TIP3    H2 5416   1.355   0.517   0.765
 1804TIP3   OH2 5417   2.732   1.958   4.464
 1804TIP3    H1 5418   2.710   1.994   4.378
 1804TIP3    H2 5419   2.671   1.885   4.476
 1805TIP3   OH2 5420   2.011   1.488   0.118
 1805TIP3    H1 5421   2.041   1.467   0.030
 1805TIP3    H2 5422   2.072   1.442   0.176
 1806TIP3   OH2 5423   4.812   2.593   2.891
 1806TIP3    H1 5424   4.838   2.512   2.846
 1806TIP3    H2 5425   4.718   2.601   2.872
 1807TIP3   OH2 5426   1.542   1.892   2.001
 1807TIP3    H1 5427   1.607   1.957   2.029
 1807TIP3    H2 5428   1.518   1.918   1.912
 1808TIP3   OH2 5429   0.700   2.811   2.100
 1808TIP3    H1 5430   0.632   2.744   2.108
 1808TIP3    H2 5431   0.779   2.769   2.134
 1809TIP3   OH2 5432   2.841   5.644   2.638
 1809TIP3    H1 5433   2.809   5.619   2.725
 1809TIP3    H2 5434   2.881   5.565   2.603
 1810TIP3   OH2 5435   4.915   5.449   0.135
 1810TIP3    H1 5436   4.933   5.542   0.143
 1810TIP3    H2 5437   4.999   5.406   0.152
 1811TIP3   OH2 5438  -0.004   0.197   1.570
 1811TIP3    H1 5439  -0.007   0.285   1.533
 1811TIP3    H2 5440   0.086   0.167   1.555
 1812TIP3   OH2 5441   1.775   4.481   2.695
 1812TIP3    H1 5442   1.806   4.556   2.644
 1812TIP3    H2 5443   1.791   4.406   2.638
 1813TIP3   OH2 5444   2.319   0.952   3.728
 1813TIP3    H1 5445   2.375   0.912   3.660
 1813TIP3    H2 5446   2.249   0.994   3.679
 1814TIP3   OH2 5447   2.585   4.899   3.258
 1814TIP3    H1 5448   2.585   4.833   3.189
 1814TIP3    H2 5449   2.492   4.918   3.273
 1815TIP3   OH2 5450   0.409   4.777   2.605
 1815TIP3    H1 5451   0.382   4.706   2.547
 1815TIP3    H2 5452   0.373   4.856   2.566
 1816TIP3   OH2 5453   1.624   0.934   5.161
 1816TIP3    H1 5454   1.546   0.980   5.129
 1816TIP3    H2 5455   1.635   0.966   5.250
 1817TIP3   OH2 5456   2.046   2.543   4.078
 1817TIP3    H1 5457   2.139   2.555   4.060
 1817TIP3    H2 5458   2.036   2.567   4.170
 1818TIP3   OH2 5459   2.070   5.500   4.481
 1818TIP3    H1 5460   2.123   5.529   4.555
 1818TIP3    H2 5461   2.089   5.562   4.411
 1819TIP3   OH2 5462   3.754   4.121   0.759
 1819TIP3    H1 5463   3.836   4.153   0.795
 1819TIP3    H2 5464   3.740   4.174   0.680
 1820TIP3   OH2 5465   1.593   0.200   0.488
 1820TIP3    H1 5466   1.597   0.168   0.398
 1820TIP3    H2 5467   1.641   0.135   0.539
 1821TIP3   OH2 5468   5.597   2.953   4.500
 1821TIP3    H1 5469   5.535   2.919   4.435
 1821TIP3    H2 5470   5.563   2.923   4.584
 1822TIP3   OH2 5471   3.483   2.184   4.831
 1822TIP3    H1 5472   3.535   2.124   4.779
 1822TIP3    H2 5473   3.447   2.130   4.901
 1823TIP3   OH2 5474   1.582   3.607   3.396
 1823TIP3    H1 5475   1.561   3.518   3.366
 1823TIP3    H2 5476   1.658   3.594   3.453
 1824TIP3   OH2 5477   2.826   3.303   1.854
 1824TIP3    H1 5478   2.844   3.238   1.921
 1824TIP3    H2 5479   2.896   3.291   1.789
 1825TIP3   OH2 5480   1.311   3.341   2.237
 1825TIP3    H1 5481   1.238   3.313   2.182
 1825TIP3    H2 5482   1.389   3.310   2.191
 1826TIP3   OH2 5483   4.807   4.764   2.728
 1826TIP3    H1 5484   4.719   4.755   2.691
 1826TIP3    H2 5485   4.842   4.675   2.729
 1827TIP3   OH2 5486   1.416   2.423   4.270
 1827TIP3    H1 5487   1.449   2.483   4.336
 1827TIP3    H2 5488   1.321   2.430   4.277
 1828TIP3   OH2 5489   2.303   1.892   4.329
 1828TIP3    H1 5490   2.317   1.899   4.423
 1828TIP3    H2 5491   2.302   1.798   4.312
 1829TIP3   OH2 5492   1.452   5.742   1.910
 1829TIP3    H1 5493   1.425   5.828   1.875
 1829TIP3    H2 5494   1.547   5.741   1.899
 1830TIP3   OH2 5495   0.999   4.961   0.040
 1830TIP3    H1 5496   1.078   4.982   0.090
 1830TIP3    H2 5497   0.989   5.035  -0.020
 1831TIP3   OH2 5498   6.075   1.141   1.041
 1831TIP3    H1 5499   6.038   1.124   1.127
 1831TIP3    H2 5500   6.144   1.206   1.057
 1832TIP3   OH2 5501   2.458   1.574   1.845
 1832TIP3    H1 5502   2.383   1.533   1.802
 1832TIP3    H2 5503   2.445   1.558   1.938
 1833TIP3   OH2 5504   3.296   2.367   3.085
 1833TIP3    H1 5505   3.390   2.357   3.070
 1833TIP3    H2 5506   3.279   2.461   3.073
 1834TIP3   OH2 5507   6.257   0.262   2.781
 1834TIP3    H1 5508   6.347   0.282   2.755
 1834TIP3    H2 5509   6.214   0.347   2.787
 1835TIP3   OH2 5510   6.343   0.176   3.215
 1835TIP3    H1 5511   6.348   0.083   3.197
 1835TIP3    H2 5512   6.254   0.201   3.189
 1836TIP3   OH2 5513   3.794   0.147   1.752
 1836TIP3    H1 5514   3.853   0.136   1.827
 1836TIP3    H2 5515   3.746   0.228   1.770
 1837TIP3   OH2 5516   5.038   1.587   1.673
 1837TIP3    H1 5517   5.059   1.621   1.760
 1837TIP3    H2 5518   4.968   1.524   1.689
 1838TIP3   OH2 5519   2.832   5.837   2.017
 1838TIP3    H1 5520   2.788   5.883   2.089
 1838TIP3    H2 5521   2.900   5.898   1.988
 1839TIP3   OH2 5522   1.846   3.443   0.401
 1839TIP3    H1 5523   1.888   3.409   0.479
 1839TIP3    H2 5524   1.799   3.521   0.431
 1840TIP3   OH2 5525   1.318   4.362   4.927
 1840TIP3    H1 5526   1.262   4.329   4.997
 1840TIP3    H2 5527   1.274   4.336   4.846
 1841TIP3   OH2 5528   5.956   3.521   4.735
 1841TIP3    H1 5529   5.951   3.572   4.816
 1841TIP3    H2 5530   5.956   3.588   4.666
 1842TIP3   OH2 5531   3.861   1.079   2.411
 1842TIP3    H1 5532   3.837   0.993   2.377
 1842TIP3    H2 5533   3.778   1.119   2.439
 1843TIP3   OH2 5534   0.603   5.347   4.206
 1843TIP3    H1 5535   0.586   5.310   4.120
 1843TIP3    H2 5536   0.582   5.276   4.267
 1844TIP3   OH2 5537   1.936   5.860   5.095
 1844TIP3    H1 5538   1.878   5.900   5.031
 1844TIP3    H2 5539   1.908   5.896   5.179
 1845TIP3   OH2 5540   3.616   0.665   3.021
 1845TIP3    H1 5541   3.588   0.644   2.932
 1845TIP3    H2 5542   3.659   0.586   3.052
 1846TIP3   OH2 5543   1.166   5.709   0.370
 1846TIP3    H1 5544   1.255   5.736   0.392
 1846TIP3    H2 5545   1.142   5.645   0.437
 1847TIP3   OH2 5546   4.543   1.387   1.783
 1847TIP3    H1 5547   4.495   1.445   1.724
 1847TIP3    H2 5548   4.538   1.430   1.868
 1848TIP3   OH2 5549   0.180   3.694   0.451
 1848TIP3    H1 5550   0.226   3.610   0.451
 1848TIP3    H2 5551   0.231   3.749   0.392
 1849TIP3   OH2 5552   0.331   0.167   4.121
 1849TIP3    H1 5553   0.392   0.236   4.147
 1849TIP3    H2 5554   0.244   0.209   4.125
 1850TIP3   OH2 5555   5.931   4.369   2.693
 1850TIP3    H1 5556   5.874   4.336   2.624
 1850TIP3    H2 5557   6.020   4.360   2.657
 1851TIP3   OH2 5558   2.597   3.079   3.272
 1851TIP3    H1 5559   2.503   3.076   3.294
 1851TIP3    H2 5560   2.612   3.168   3.242
 1852TIP3   OH2 5561   2.652   5.620   3.339
 1852TIP3    H1 5562   2.682   5.685   3.276
 1852TIP3    H2 5563   2.642   5.668   3.421
 1853TIP3   OH2 5564   1.601   5.694   2.561
 1853TIP3    H1 5565   1.539   5.621   2.560
 1853TIP3    H2 5566   1.609   5.720   2.469
 1854TIP3   OH2 5567   3.047   4.444   1.039
 1854TIP3    H1 5568   3.137   4.424   1.065
 1854TIP3    H2 5569   3.010   4.489   1.115
 1855TIP3   OH2 5570   2.350   5.811   2.303
 1855TIP3    H1 5571   2.375   5.839   2.215
 1855TIP3    H2 5572   2.422   5.755   2.332
 1856TIP3   OH2 5573   3.790   0.998   0.173
 1856TIP3    H1 5574   3.873   0.955   0.192
 1856TIP3    H2 5575   3.724   0.945   0.218
 1857TIP3   OH2 5576   4.382   1.382   4.758
 1857TIP3    H1 5577   4.376   1.446   4.687
 1857TIP3    H2 5578   4.375   1.297   4.715
 1858TIP3   OH2 5579   4.010   5.334   0.189
 1858TIP3    H1 5580   4.102   5.359   0.200
 1858TIP3    H2 5581   3.967   5.368   0.267
 1859TIP3   OH2 5582   6.202   1.890   3.329
 1859TIP3    H1 5583   6.196   1.802   3.367
 1859TIP3    H2 5584   6.230   1.875   3.239
 1860TIP3   OH2 5585   5.335   4.081   3.293
 1860TIP3    H1 5586   5.321   4.125   3.209
 1860TIP3    H2 5587   5.313   3.989   3.275
 1861TIP3   OH2 5588   3.139   0.800   5.022
 1861TIP3    H1 5589   3.097   0.858   4.959
 1861TIP3    H2 5590   3.156   0.855   5.098
 1862TIP3   OH2 5591   1.746   0.219   4.615
 1862TIP3    H1 5592   1.732   0.290   4.679
 1862TIP3    H2 5593   1.707   0.142   4.657
 1863TIP3   OH2 5594   0.923   5.881   0.675
 1863TIP3    H1 5595   0.966   5.934   0.742
 1863TIP3    H2 5596   0.962   5.912   0.593
 1864TIP3   OH2 5597   1.184   5.250   3.017
 1864TIP3    H1 5598   1.211   5.320   3.075
 1864TIP3    H2 5599   1.171   5.292   2.932
 1865TIP3   OH2 5600   0.368   2.915   0.545
 1865TIP3    H1 5601   0.374   2.895   0.452
 1865TIP3    H2 5602   0.389   2.833   0.589
 1866TIP3   OH2 5603   4.789   3.100   0.057
 1866TIP3    H1 5604   4.833   3.152   0.124
 1866TIP3    H2 5605   4.712   3.064   0.101
 1867TIP3   OH2 5606   5.832   5.647   5.020
 1867TIP3    H1 5607   5.872   5.718   5.070
 1867TIP3    H2 5608   5.883   5.569   5.043
 1868TIP3   OH2 5609   5.549   3.587   0.796
 1868TIP3    H1 5610   5.644   3.584   0.789
 1868TIP3    H2 5611   5.532   3.625   0.882
 1869TIP3   OH2 5612   3.464   4.725   3.412
 1869TIP3    H1 5613   3.453   4.769   3.496
 1869TIP3    H2 5614   3.501   4.639   3.434
 1870TIP3   OH2 5615   4.525   1.782   1.200
 1870TIP3    H1 5616   4.493   1.863   1.162
 1870TIP3    H2 5617   4.474   1.713   1.156
 1871TIP3   OH2 5618   1.226   5.598   2.887
 1871TIP3    H1 5619   1.270   5.530   2.834
 1871TIP3    H2 5620   1.220   5.673   2.828
 1872TIP3   OH2 5621   0.829   3.010   1.962
 1872TIP3    H1 5622   0.760   2.962   2.008
 1872TIP3    H2 5623   0.875   2.943   1.911
 1873TIP3   OH2 5624   0.972   4.086   2.851
 1873TIP3    H1 5625   0.892   4.130   2.878
 1873TIP3    H2 5626   0.971   4.003   2.899
 1874TIP3   OH2 5627   5.729   2.007   4.653
 1874TIP3    H1 5628   5.687   2.045   4.730
 1874TIP3    H2 5629   5.780   2.079   4.615
 1875TIP3   OH2 5630   1.197   4.309   0.196
 1875TIP3    H1 5631   1.189   4.258   0.115
 1875TIP3    H2 5632   1.118   4.287   0.246
 1876TIP3   OH2 5633   5.133   1.319   1.891
 1876TIP3    H1 5634   5.066   1.323   1.960
 1876TIP3    H2 5635   5.085   1.294   1.812
 1877TIP3   OH2 5636   4.842   2.108   4.777
 1877TIP3    H1 5637   4.775   2.176   4.786
 1877TIP3    H2 5638   4.881   2.101   4.864
 1878TIP3   OH2 5639   2.535   5.882   4.115
 1878TIP3    H1 5640   2.510   5.866   4.024
 1878TIP3    H2 5641   2.452   5.890   4.162
 1879TIP3   OH2 5642   5.384   5.416   0.149
 1879TIP3    H1 5643   5.371   5.468   0.228
 1879TIP3    H2 5644   5.453   5.355   0.172
 1880TIP3   OH2 5645   0.377   0.899   2.706
 1880TIP3    H1 5646   0.352   0.989   2.727
 1880TIP3    H2 5647   0.309   0.845   2.747
 1881TIP3   OH2 5648   0.933   4.374   4.462
 1881TIP3    H1 5649   0.841   4.369   4.435
 1881TIP3    H2 5650   0.965   4.284   4.457
 1882TIP3   OH2 5651   0.613   4.360   2.252
 1882TIP3    H1 5652   0.618   4.429   2.318
 1882TIP3    H2 5653   0.696   4.312   2.261
 1883TIP3   OH2 5654   5.061   4.654   4.218
 1883TIP3    H1 5655   5.061   4.745   4.249
 1883TIP3    H2 5656   5.008   4.606   4.282
 1884TIP3   OH2 5657   0.445   2.231   3.842
 1884TIP3    H1 5658   0.363   2.183   3.835
 1884TIP3    H2 5659   0.454   2.278   3.759
 1885TIP3   OH2 5660   2.248   0.588   0.819
 1885TIP3    H1 5661   2.336   0.608   0.852
 1885TIP3    H2 5662   2.192   0.656   0.855
 1886TIP3   OH2 5663   3.542   2.110   2.122
 1886TIP3    H1 5664   3.469   2.169   2.137
 1886TIP3    H2 5665   3.612   2.165   2.087
 1887TIP3   OH2 5666   4.538   2.103   5.025
 1887TIP3    H1 5667   4.575   2.015   5.014
 1887TIP3    H2 5668   4.571   2.152   4.950
 1888TIP3   OH2 5669   1.397   0.774   2.710
 1888TIP3    H1 5670   1.322   0.729   2.670
 1888TIP3    H2 5671   1.433   0.829   2.640
 1889TIP3   OH2 5672   6.157   5.698   3.430
 1889TIP3    H1 5673   6.188   5.641   3.500
 1889TIP3    H2 5674   6.156   5.642   3.352
 1890TIP3   OH2 5675   2.859   2.514   4.781
 1890TIP3    H1 5676   2.854   2.566   4.862
 1890TIP3    H2 5677   2.945   2.534   4.745
 1891TIP3   OH2 5678   3.153   4.796   0.602
 1891TIP3    H1 5679   3.166   4.883   0.639
 1891TIP3    H2 5680   3.151   4.737   0.677
 1892TIP3   OH2 5681   4.051   0.326   2.093
 1892TIP3    H1 5682   4.108   0.391   2.051
 1892TIP3    H2 5683   3.962   0.359   2.079
 1893TIP3   OH2 5684   4.593   5.246   0.986
 1893TIP3    H1 5685   4.630   5.301   1.055
 1893TIP3    H2 5686   4.645   5.267   0.908
 1894TIP3   OH2 5687   2.991   5.027   4.245
 1894TIP3    H1 5688   3.023   4.947   4.288
 1894TIP3    H2 5689   2.916   4.998   4.194
 1895TIP3   OH2 5690   5.126   5.147   2.296
 1895TIP3    H1 5691   5.071   5.140   2.375
 1895TIP3    H2 5692   5.093   5.224   2.251
 1896TIP3   OH2 5693   0.042   3.108   2.166
 1896TIP3    H1 5694   0.046   3.097   2.071
 1896TIP3    H2 5695   0.061   3.021   2.201
 1897TIP3   OH2 5696   6.383   3.479   2.212
 1897TIP3    H1 5697   6.326   3.431   2.271
 1897TIP3    H2 5698   6.323   3.530   2.157
 1898TIP3   OH2 5699   2.521   3.108   2.026
 1898TIP3    H1 5700   2.436   3.064   2.018
 1898TIP3    H2 5701   2.525   3.165   1.949
 1899TIP3   OH2 5702   0.157   1.344   2.962
 1899TIP3    H1 5703   0.188   1.266   2.916
 1899TIP3    H2 5704   0.234   1.377   3.008
 1900TIP3   OH2 5705   3.514   2.867   0.522
 1900TIP3    H1 5706   3.433   2.831   0.486
 1900TIP3    H2 5707   3.508   2.961   0.505
 1901TIP3   OH2 5708   5.178   4.140   2.569
 1901TIP3    H1 5709   5.095   4.149   2.616
 1901TIP3    H2 5710   5.180   4.213   2.508
 1902TIP3   OH2 5711   3.678   3.482   2.403
 1902TIP3    H1 5712   3.735   3.526   2.341
 1902TIP3    H2 5713   3.673   3.392   2.371
 1903TIP3   OH2 5714   4.445   2.728   0.009
 1903TIP3    H1 5715   4.378   2.715   0.077
 1903TIP3    H2 5716   4.464   2.640  -0.023
 1904TIP3   OH2 5717   3.115   2.172   4.769
 1904TIP3    H1 5718   3.111   2.255   4.816
 1904TIP3    H2 5719   3.143   2.196   4.680
 1905TIP3   OH2 5720   4.393   1.789   4.837
 1905TIP3    H1 5721   4.380   1.744   4.920
 1905TIP3    H2 5722   4.316   1.844   4.827
 1906TIP3   OH2 5723   0.048   4.097   0.051
 1906TIP3    H1 5724  -0.016   4.121  -0.015
 1906TIP3    H2 5725   0.106   4.035   0.006
 1907TIP3   OH2 5726   4.649   2.311   0.113
 1907TIP3    H1 5727   4.647   2.281   0.022
 1907TIP3    H2 5728   4.589   2.253   0.159
 1908TIP3   OH2 5729   2.391   2.494   5.122
 1908TIP3    H1 5730   2.309   2.448   5.139
 1908TIP3    H2 5731   2.389   2.514   5.028
 1909TIP3   OH2 5732   1.152   5.419   0.371
 1909TIP3    H1 5733   1.157   5.388   0.461
 1909TIP3    H2 5734   1.232   5.470   0.359
 1910TIP3   OH2 5735   1.037   2.225   0.658
 1910TIP3    H1 5736   0.977   2.279   0.709
 1910TIP3    H2 5737   1.117   2.277   0.651
 1911TIP3   OH2 5738   1.860   5.147   3.239
 1911TIP3    H1 5739   1.942   5.174   3.279
 1911TIP3    H2 5740   1.840   5.062   3.279
 1912TIP3   OH2 5741   1.262   2.633   0.672
 1912TIP3    H1 5742   1.254   2.538   0.671
 1912TIP3    H2 5743   1.306   2.654   0.590
 1913TIP3   OH2 5744   4.004   1.632   0.884
 1913TIP3    H1 5745   3.936   1.573   0.853
 1913TIP3    H2 5746   4.055   1.654   0.805
 1914TIP3   OH2 5747   6.110   4.808   0.414
 1914TIP3    H1 5748   6.182   4.849   0.461
 1914TIP3    H2 5749   6.040   4.802   0.479
 1915TIP3   OH2 5750   4.730   4.501   5.096
 1915TIP3    H1 5751   4.653   4.474   5.146
 1915TIP3    H2 5752   4.730   4.444   5.019
 1916TIP3   OH2 5753   4.689   3.829   3.355
 1916TIP3    H1 5754   4.759   3.814   3.291
 1916TIP3    H2 5755   4.729   3.888   3.420
 1917TIP3   OH2 5756   5.882   5.249   0.294
 1917TIP3    H1 5757   5.932   5.171   0.267
 1917TIP3    H2 5758   5.939   5.323   0.272
 1918TIP3   OH2 5759   0.185   4.457   4.278
 1918TIP3    H1 5760   0.091   4.450   4.263
 1918TIP3    H2 5761   0.207   4.547   4.256
 1919TIP3   OH2 5762   4.409   2.593   2.145
 1919TIP3    H1 5763   4.367   2.585   2.231
 1919TIP3    H2 5764   4.412   2.504   2.112
 1920TIP3   OH2 5765   5.326   3.384   2.742
 1920TIP3    H1 5766   5.393   3.452   2.750
 1920TIP3    H2 5767   5.334   3.333   2.823
 1921TIP3   OH2 5768   4.425   1.254   0.398
 1921TIP3    H1 5769   4.443   1.345   0.375
 1921TIP3    H2 5770   4.330   1.247   0.391
 1922TIP3   OH2 5771   3.734   0.938   0.713
 1922TIP3    H1 5772   3.696   0.858   0.749
 1922TIP3    H2 5773   3.679   1.008   0.746
 1923TIP3   OH2 5774   5.896   0.342   3.343
 1923TIP3    H1 5775   5.972   0.385   3.382
 1923TIP3    H2 5776   5.824   0.403   3.358
 1924TIP3   OH2 5777   5.702   3.116   2.990
 1924TIP3    H1 5778   5.724   3.057   2.918
 1924TIP3    H2 5779   5.775   3.110   3.051
 1925TIP3   OH2 5780   0.413   1.212   4.160
 1925TIP3    H1 5781   0.416   1.299   4.121
 1925TIP3    H2 5782   0.411   1.152   4.085
 1926TIP3   OH2 5783   2.484   0.620   3.473
 1926TIP3    H1 5784   2.488   0.550   3.407
 1926TIP3    H2 5785   2.506   0.576   3.555
 1927TIP3   OH2 5786   0.962   2.921   0.506
 1927TIP3    H1 5787   0.902   2.995   0.508
 1927TIP3    H2 5788   1.048   2.958   0.526
 1928TIP3   OH2 5789   1.208   2.628   1.727
 1928TIP3    H1 5790   1.185   2.548   1.680
 1928TIP3    H2 5791   1.133   2.686   1.712
 1929TIP3   OH2 5792   3.084   4.042   3.678
 1929TIP3    H1 5793   3.021   3.971   3.691
 1929TIP3    H2 5794   3.036   4.106   3.626
 1930TIP3   OH2 5795   2.979   4.426   5.185
 1930TIP3    H1 5796   2.892   4.451   5.155
 1930TIP3    H2 5797   2.984   4.331   5.169
 1931TIP3   OH2 5798   1.275   1.137   0.661
 1931TIP3    H1 5799   1.236   1.082   0.729
 1931TIP3    H2 5800   1.229   1.113   0.581
 1932TIP3   OH2 5801   4.968   1.185   4.492
 1932TIP3    H1 5802   4.998   1.136   4.569
 1932TIP3    H2 5803   5.048   1.207   4.445
 1933TIP3   OH2 5804   2.082   2.224   1.720
 1933TIP3    H1 5805   2.176   2.214   1.735
 1933TIP3    H2 5806   2.042   2.160   1.779
 1934TIP3   OH2 5807   6.185   0.685   0.393
 1934TIP3    H1 5808   6.268   0.672   0.347
 1934TIP3    H2 5809   6.120   0.645   0.335
 1935TIP3   OH2 5810   3.496   5.314   0.221
 1935TIP3    H1 5811   3.560   5.289   0.154
 1935TIP3    H2 5812   3.414   5.327   0.173
 1936TIP3   OH2 5813   0.050   0.689   3.083
 1936TIP3    H1 5814   0.125   0.692   3.142
 1936TIP3    H2 5815  -0.001   0.613   3.112
 1937TIP3   OH2 5816   4.373   4.987   1.545
 1937TIP3    H1 5817   4.304   4.945   1.597
 1937TIP3    H2 5818   4.444   4.922   1.542
 1938TIP3   OH2 5819   0.022   3.926   0.520
 1938TIP3    H1 5820  -0.022   3.938   0.604
 1938TIP3    H2 5821   0.087   3.858   0.537
 1939TIP3   OH2 5822   5.794   2.560   4.275
 1939TIP3    H1 5823   5.812   2.653   4.259
 1939TIP3    H2 5824   5.852   2.537   4.348
 1940TIP3   OH2 5825   1.474   2.434   4.949
 1940TIP3    H1 5826   1.379   2.421   4.945
 1940TIP3    H2 5827   1.498   2.464   4.862
 1941TIP3   OH2 5828   0.332   5.563   2.403
 1941TIP3    H1 5829   0.245   5.601   2.415
 1941TIP3    H2 5830   0.373   5.569   2.490
 1942TIP3   OH2 5831   6.144   2.542   2.926
 1942TIP3    H1 5832   6.185   2.486   2.993
 1942TIP3    H2 5833   6.218   2.574   2.874
 1943TIP3   OH2 5834   5.340   4.381   2.014
 1943TIP3    H1 5835   5.359   4.293   2.046
 1943TIP3    H2 5836   5.392   4.439   2.069
 1944TIP3   OH2 5837   4.882   4.835   2.209
 1944TIP3    H1 5838   4.827   4.777   2.262
 1944TIP3    H2 5839   4.957   4.781   2.185
 1945TIP3   OH2 5840   4.648   1.248   2.854
 1945TIP3    H1 5841   4.699   1.312   2.904
 1945TIP3    H2 5842   4.710   1.179   2.833
 1946TIP3   OH2 5843   5.413   3.657   3.893
 1946TIP3    H1 5844   5.327   3.652   3.935
 1946TIP3    H2 5845   5.476   3.648   3.965
 1947TIP3   OH2 5846   5.384   1.482   1.850
 1947TIP3    H1 5847   5.433   1.475   1.768
 1947TIP3    H2 5848   5.294   1.458   1.827
 1948TIP3   OH2 5849   1.985   1.541   1.206
 1948TIP3    H1 5850   2.045   1.613   1.192
 1948TIP3    H2 5851   2.041   1.464   1.219
 1949TIP3   OH2 5852   0.812   3.878   0.111
 1949TIP3    H1 5853   0.769   3.946   0.059
 1949TIP3    H2 5854   0.743   3.813   0.127
 1950TIP3   OH2 5855   5.750   3.380   3.010
 1950TIP3    H1 5856   5.699   3.301   2.992
 1950TIP3    H2 5857   5.801   3.394   2.931
 1951TIP3   OH2 5858   5.269   1.017   2.617
 1951TIP3    H1 5859   5.247   1.042   2.527
 1951TIP3    H2 5860   5.365   1.020   2.620
 1952TIP3   OH2 5861   1.007   2.994   4.282
 1952TIP3    H1 5862   1.073   3.008   4.349
 1952TIP3    H2 5863   0.925   3.022   4.323
 1953TIP3   OH2 5864   5.179   3.096   2.345
 1953TIP3    H1 5865   5.233   3.149   2.403
 1953TIP3    H2 5866   5.099   3.079   2.396
 1954TIP3   OH2 5867   4.517   1.507   0.319
 1954TIP3    H1 5868   4.525   1.511   0.224
 1954TIP3    H2 5869   4.608   1.504   0.350
 1955TIP3   OH2 5870   4.257   0.494   1.970
 1955TIP3    H1 5871   4.228   0.584   1.956
 1955TIP3    H2 5872   4.352   0.501   1.980
 1956TIP3   OH2 5873   5.182   3.237   4.884
 1956TIP3    H1 5874   5.270   3.246   4.849
 1956TIP3    H2 5875   5.181   3.150   4.925
 1957TIP3   OH2 5876   3.287   5.234   1.428
 1957TIP3    H1 5877   3.306   5.142   1.409
 1957TIP3    H2 5878   3.225   5.260   1.360
 1958TIP3   OH2 5879   4.965   3.858   0.518
 1958TIP3    H1 5880   4.968   3.777   0.468
 1958TIP3    H2 5881   4.887   3.903   0.486
 1959TIP3   OH2 5882   5.380   4.617   4.677
 1959TIP3    H1 5883   5.476   4.625   4.675
 1959TIP3    H2 5884   5.350   4.702   4.709
 1960TIP3   OH2 5885   1.329   3.953   4.513
 1960TIP3    H1 5886   1.251   3.965   4.458
 1960TIP3    H2 5887   1.300   3.896   4.584
 1961TIP3   OH2 5888   3.283   5.028   5.242
 1961TIP3    H1 5889   3.201   5.045   5.196
 1961TIP3    H2 5890   3.351   5.037   5.175
 1962TIP3   OH2 5891   6.314   0.542   2.300
 1962TIP3    H1 5892   6.335   0.465   2.353
 1962TIP3    H2 5893   6.219   0.541   2.292
 1963TIP3   OH2 5894   1.067   0.773   2.250
 1963TIP3    H1 5895   1.141   0.787   2.309
 1963TIP3    H2 5896   0.992   0.812   2.296
 1964TIP3   OH2 5897   3.302   0.578   2.584
 1964TIP3    H1 5898   3.267   0.663   2.559
 1964TIP3    H2 5899   3.227   0.519   2.579
 1965TIP3   OH2 5900   3.912   5.261   3.263
 1965TIP3    H1 5901   3.919   5.245   3.357
 1965TIP3    H2 5902   4.002   5.258   3.231
 1966TIP3   OH2 5903   4.675   5.470   3.882
 1966TIP3    H1 5904   4.635   5.546   3.925
 1966TIP3    H2 5905   4.670   5.401   3.947
 1967TIP3   OH2 5906   3.767   2.868   4.752
 1967TIP3    H1 5907   3.779   2.806   4.824
 1967TIP3    H2 5908   3.789   2.819   4.673
 1968TIP3   OH2 5909   5.000   4.324   1.190
 1968TIP3    H1 5910   5.046   4.342   1.272
 1968TIP3    H2 5911   4.907   4.324   1.214
 1969TIP3   OH2 5912   1.500   5.969   1.349
 1969TIP3    H1 5913   1.559   5.900   1.378
 1969TIP3    H2 5914   1.527   5.987   1.259
 1970TIP3   OH2 5915   3.195   0.708   1.263
 1970TIP3    H1 5916   3.206   0.664   1.347
 1970TIP3    H2 5917   3.192   0.801   1.284
 1971TIP3   OH2 5918   4.000   5.595   3.384
 1971TIP3    H1 5919   3.976   5.539   3.310
 1971TIP3    H2 5920   3.934   5.576   3.451
 1972TIP3   OH2 5921   4.828   2.520   4.844
 1972TIP3    H1 5922   4.853   2.604   4.882
 1972TIP3    H2 5923   4.877   2.515   4.762
 1973TIP3   OH2 5924   1.300   3.419   3.175
 1973TIP3    H1 5925   1.328   3.445   3.263
 1973TIP3    H2 5926   1.295   3.501   3.126
 1974TIP3   OH2 5927   2.345   2.969   4.069
 1974TIP3    H1 5928   2.355   2.973   4.164
 1974TIP3    H2 5929   2.323   3.058   4.043
 1975TIP3   OH2 5930   2.488   2.302   0.008
 1975TIP3    H1 5931   2.574   2.332   0.036
 1975TIP3    H2 5932   2.479   2.335  -0.081
 1976TIP3   OH2 5933   1.943   2.784   2.189
 1976TIP3    H1 5934   1.915   2.841   2.260
 1976TIP3    H2 5935   2.038   2.792   2.188
 1977TIP3   OH2 5936   1.457   4.701   2.449
 1977TIP3    H1 5937   1.498   4.785   2.472
 1977TIP3    H2 5938   1.517   4.635   2.483
 1978TIP3   OH2 5939   6.103   1.636   2.555
 1978TIP3    H1 5940   6.067   1.634   2.644
 1978TIP3    H2 5941   6.162   1.711   2.554
 1979TIP3   OH2 5942   5.011   4.085   0.779
 1979TIP3    H1 5943   4.931   4.047   0.743
 1979TIP3    H2 5944   5.046   4.140   0.709
 1980TIP3   OH2 5945   0.797   4.201   0.276
 1980TIP3    H1 5946   0.868   4.232   0.219
 1980TIP3    H2 5947   0.722   4.256   0.252
 1981TIP3   OH2 5948   5.303   4.678   4.939
 1981TIP3    H1 5949   5.351   4.689   5.021
 1981TIP3    H2 5950   5.303   4.583   4.924
 1982TIP3   OH2 5951   1.299   3.811   1.571
 1982TIP3    H1 5952   1.278   3.888   1.519
 1982TIP3    H2 5953   1.395   3.814   1.579
 1983TIP3   OH2 5954   0.326   4.792   1.198
 1983TIP3    H1 5955   0.367   4.734   1.262
 1983TIP3    H2 5956   0.384   4.868   1.195
 1984TIP3   OH2 5957   1.892   0.431   3.879
 1984TIP3    H1 5958   1.902   0.403   3.970
 1984TIP3    H2 5959   1.810   0.482   3.879
 1985TIP3   OH2 5960   0.202   1.640   1.146
 1985TIP3    H1 5961   0.198   1.545   1.135
 1985TIP3    H2 5962   0.220   1.652   1.239
 1986TIP3   OH2 5963   0.799   5.730   1.623
 1986TIP3    H1 5964   0.755   5.814   1.637
 1986TIP3    H2 5965   0.878   5.753   1.574
 1987TIP3   OH2 5966   5.579   5.843   1.029
 1987TIP3    H1 5967   5.553   5.866   0.940
 1987TIP3    H2 5968   5.579   5.747   1.029
 1988TIP3   OH2 5969   2.265   1.652   2.738
 1988TIP3    H1 5970   2.243   1.744   2.723
 1988TIP3    H2 5971   2.351   1.655   2.779
 1989TIP3   OH2 5972   3.963   5.860   0.924
 1989TIP3    H1 5973   3.927   5.878   0.837
 1989TIP3    H2 5974   4.057   5.853   0.911
 1990TIP3   OH2 5975   1.559   1.220   2.574
 1990TIP3    H1 5976   1.533   1.244   2.663
 1990TIP3    H2 5977   1.476   1.205   2.528
 1991TIP3   OH2 5978   0.279   4.933   2.193
 1991TIP3    H1 5979   0.189   4.953   2.166
 1991TIP3    H2 5980   0.275   4.934   2.289
 1992TIP3   OH2 5981   5.741   4.708   5.251
 1992TIP3    H1 5982   5.781   4.795   5.257
 1992TIP3    H2 5983   5.798   4.659   5.193
 1993TIP3   OH2 5984   1.561   3.374   2.664
 1993TIP3    H1 5985   1.508   3.323   2.726
 1993TIP3    H2 5986   1.585   3.311   2.596
 1994TIP3   OH2 5987   3.622   0.639   2.081
 1994TIP3    H1 5988   3.590   0.715   2.129
 1994TIP3    H2 5989   3.559   0.570   2.101
 1995TIP3   OH2 5990   4.490   5.012   2.365
 1995TIP3    H1 5991   4.461   4.953   2.295
 1995TIP3    H2 5992   4.423   5.081   2.367
 1996TIP3   OH2 5993   1.870   5.843   1.243
 1996TIP3    H1 5994   1.891   5.775   1.307
 1996TIP3    H2 5995   1.784   5.817   1.209
 1997TIP3   OH2 5996   1.588   5.039   1.886
 1997TIP3    H1 5997   1.523   5.056   1.954
 1997TIP3    H2 5998   1.547   5.070   1.805
 1998TIP3   OH2 5999   3.236   5.337   0.166
 1998TIP3    H1 6000   3.167   5.300   0.221
 1998TIP3    H2 6001   3.228   5.291   0.083
 1999TIP3   OH2 6002   2.824   3.819   3.728
 1999TIP3    H1 6003   2.918   3.806   3.720
 1999TIP3    H2 6004   2.787   3.731   3.727
 2000TIP3   OH2 6005   2.056   1.770   2.231
 2000TIP3    H1 6006   1.996   1.837   2.261
 2000TIP3    H2 6007   2.069   1.788   2.137
 2001TIP3   OH2 6008   1.334   0.748   4.134
 2001TIP3    H1 6009   1.263   0.703   4.179
 2001TIP3    H2 6010   1.293   0.792   4.060
 2002TIP3   OH2 6011   4.546   0.249   0.387
 2002TIP3    H1 6012   4.520   0.159   0.405
 2002TIP3    H2 6013   4.558   0.288   0.474
 2003TIP3   OH2 6014   5.057   2.418   0.558
 2003TIP3    H1 6015   4.980   2.418   0.614
 2003TIP3    H2 6016   5.022   2.410   0.469
 2004TIP3   OH2 6017   5.504   0.257   2.056
 2004TIP3    H1 6018   5.489   0.351   2.047
 2004TIP3    H2 6019   5.514   0.226   1.966
 2005TIP3   OH2 6020   0.470   0.321   3.261
 2005TIP3    H1 6021   0.386   0.325   3.307
 2005TIP3    H2 6022   0.446   0.325   3.168
 2006TIP3   OH2 6023   4.742   0.895   4.030
 2006TIP3    H1 6024   4.828   0.938   4.022
 2006TIP3    H2 6025   4.711   0.889   3.940
 2007TIP3   OH2 6026   1.021   1.558   1.279
 2007TIP3    H1 6027   1.049   1.621   1.347
 2007TIP3    H2 6028   1.095   1.498   1.271
 2008TIP3   OH2 6029   0.878   1.698   5.094
 2008TIP3    H1 6030   0.973   1.710   5.091
 2008TIP3    H2 6031   0.851   1.744   5.174
 2009TIP3   OH2 6032   5.181   5.752   2.191
 2009TIP3    H1 6033   5.275   5.741   2.206
 2009TIP3    H2 6034   5.158   5.829   2.244
 2010TIP3   OH2 6035   4.482   0.357   3.030
 2010TIP3    H1 6036   4.530   0.439   3.023
 2010TIP3    H2 6037   4.548   0.294   3.060
 2011TIP3   OH2 6038   3.814   0.518   2.393
 2011TIP3    H1 6039   3.826   0.485   2.304
 2011TIP3    H2 6040   3.721   0.507   2.411
 2012TIP3   OH2 6041   3.155   4.732   1.376
 2012TIP3    H1 6042   3.144   4.694   1.463
 2012TIP3    H2 6043   3.195   4.662   1.325
 2013TIP3   OH2 6044   5.071   0.471   2.056
 2013TIP3    H1 6045   4.996   0.496   2.110
 2013TIP3    H2 6046   5.089   0.380   2.080
 2014TIP3   OH2 6047   6.156   4.785   3.096
 2014TIP3    H1 6048   6.149   4.823   3.008
 2014TIP3    H2 6049   6.136   4.858   3.155
 2015TIP3   OH2 6050   1.538   1.349   0.385
 2015TIP3    H1 6051   1.513   1.268   0.341
 2015TIP3    H2 6052   1.481   1.354   0.462
 2016TIP3   OH2 6053   0.342   2.512   4.930
 2016TIP3    H1 6054   0.270   2.461   4.967
 2016TIP3    H2 6055   0.307   2.601   4.923
 2017TIP3   OH2 6056   1.370   4.407   3.644
 2017TIP3    H1 6057   1.293   4.352   3.630
 2017TIP3    H2 6058   1.412   4.411   3.558
 2018TIP3   OH2 6059   0.104   5.122   5.067
 2018TIP3    H1 6060   0.121   5.073   5.147
 2018TIP3    H2 6061   0.183   5.109   5.014
 2019TIP3   OH2 6062   2.619   5.023   2.665
 2019TIP3    H1 6063   2.542   5.072   2.637
 2019TIP3    H2 6064   2.693   5.071   2.629
 2020TIP3   OH2 6065   0.483   3.138   0.403
 2020TIP3    H1 6066   0.459   3.219   0.448
 2020TIP3    H2 6067   0.444   3.069   0.456
 2021TIP3   OH2 6068   3.717   5.051   1.293
 2021TIP3    H1 6069   3.677   4.998   1.224
 2021TIP3    H2 6070   3.661   5.128   1.301
 2022TIP3   OH2 6071   6.049   2.015   3.533
 2022TIP3    H1 6072   6.092   1.970   3.606
 2022TIP3    H2 6073   6.080   1.969   3.455
 2023TIP3   OH2 6074   4.681   0.211   1.225
 2023TIP3    H1 6075   4.767   0.206   1.184
 2023TIP3    H2 6076   4.698   0.238   1.315
 2024TIP3   OH2 6077   0.692   0.016   2.037
 2024TIP3    H1 6078   0.775   0.047   2.073
 2024TIP3    H2 6079   0.671   0.078   1.967
 2025TIP3   OH2 6080   3.220   3.004   3.944
 2025TIP3    H1 6081   3.241   3.086   3.989
 2025TIP3    H2 6082   3.284   2.998   3.873
 2026TIP3   OH2 6083   5.959   5.520   0.977
 2026TIP3    H1 6084   5.893   5.528   1.046
 2026TIP3    H2 6085   5.908   5.506   0.897
 2027TIP3   OH2 6086   0.347   0.980   1.501
 2027TIP3    H1 6087   0.270   1.028   1.529
 2027TIP3    H2 6088   0.327   0.950   1.413
 2028TIP3   OH2 6089   6.197   2.636   1.282
 2028TIP3    H1 6090   6.136   2.709   1.274
 2028TIP3    H2 6091   6.146   2.559   1.256
 2029TIP3   OH2 6092   6.220   3.454   3.664
 2029TIP3    H1 6093   6.142   3.440   3.718
 2029TIP3    H2 6094   6.197   3.529   3.608
 2030TIP3   OH2 6095   4.484   2.821   4.797
 2030TIP3    H1 6096   4.427   2.834   4.721
 2030TIP3    H2 6097   4.463   2.894   4.855
 2031TIP3   OH2 6098   2.378   4.685   2.468
 2031TIP3    H1 6099   2.387   4.699   2.374
 2031TIP3    H2 6100   2.467   4.691   2.502
 2032TIP3   OH2 6101   4.732   4.424   2.491
 2032TIP3    H1 6102   4.728   4.335   2.455
 2032TIP3    H2 6103   4.792   4.418   2.565
 2033TIP3   OH2 6104   3.948   0.591   4.629
 2033TIP3    H1 6105   4.041   0.612   4.620
 2033TIP3    H2 6106   3.946   0.499   4.652
 2034TIP3   OH2 6107   3.320   1.679   4.689
 2034TIP3    H1 6108   3.266   1.615   4.642
 2034TIP3    H2 6109   3.267   1.704   4.764
 2035TIP3   OH2 6110   1.164   1.236   2.860
 2035TIP3    H1 6111   1.187   1.148   2.890
 2035TIP3    H2 6112   1.160   1.289   2.939
 2036TIP3   OH2 6113   1.381   3.805   3.252
 2036TIP3    H1 6114   1.459   3.759   3.283
 2036TIP3    H2 6115   1.411   3.894   3.234
 2037TIP3   OH2 6116   4.183   4.395   3.671
 2037TIP3    H1 6117   4.150   4.316   3.627
 2037TIP3    H2 6118   4.270   4.408   3.633
 2038TIP3   OH2 6119   5.315   3.477   3.543
 2038TIP3    H1 6120   5.310   3.479   3.447
 2038TIP3    H2 6121   5.380   3.410   3.562
 2039TIP3   OH2 6122   3.133   2.195   4.054
 2039TIP3    H1 6123   3.055   2.186   4.000
 2039TIP3    H2 6124   3.099   2.225   4.139
 2040TIP3   OH2 6125   5.288   1.350   4.506
 2040TIP3    H1 6126   5.383   1.360   4.511
 2040TIP3    H2 6127   5.273   1.308   4.422
 2041TIP3   OH2 6128   1.106   0.429   1.999
 2041TIP3    H1 6129   1.168   0.491   2.039
 2041TIP3    H2 6130   1.033   0.427   2.060
 2042TIP3   OH2 6131   3.674   0.289   4.496
 2042TIP3    H1 6132   3.596   0.234   4.491
 2042TIP3    H2 6133   3.742   0.240   4.449
 2043TIP3   OH2 6134   5.674   0.353   4.033
 2043TIP3    H1 6135   5.757   0.399   4.027
 2043TIP3    H2 6136   5.640   0.352   3.943
 2044TIP3   OH2 6137   4.591   1.198   3.331
 2044TIP3    H1 6138   4.520   1.137   3.311
 2044TIP3    H2 6139   4.568   1.278   3.284
 2045TIP3   OH2 6140   2.763   0.950   1.446
 2045TIP3    H1 6141   2.847   0.929   1.405
 2045TIP3    H2 6142   2.782   0.948   1.540
 2046TIP3   OH2 6143   3.007   3.546   2.928
 2046TIP3    H1 6144   3.070   3.556   2.856
 2046TIP3    H2 6145   2.948   3.477   2.899
 2047TIP3   OH2 6146   4.435   4.114   1.582
 2047TIP3    H1 6147   4.467   4.072   1.662
 2047TIP3    H2 6148   4.424   4.042   1.520
 2048TIP3   OH2 6149   6.114   3.299   1.699
 2048TIP3    H1 6150   6.081   3.381   1.736
 2048TIP3    H2 6151   6.063   3.287   1.619
 2049TIP3   OH2 6152   4.127   5.011   0.312
 2049TIP3    H1 6153   4.089   5.001   0.399
 2049TIP3    H2 6154   4.124   5.105   0.295
 2050TIP3   OH2 6155   2.658   1.960   2.722
 2050TIP3    H1 6156   2.625   2.011   2.796
 2050TIP3    H2 6157   2.612   1.997   2.646
 2051TIP3   OH2 6158   3.466   1.105   4.611
 2051TIP3    H1 6159   3.462   1.199   4.628
 2051TIP3    H2 6160   3.556   1.090   4.580
 2052TIP3   OH2 6161   1.022   4.611   4.380
 2052TIP3    H1 6162   1.019   4.525   4.422
 2052TIP3    H2 6163   0.956   4.662   4.427
 2053TIP3   OH2 6164   3.319   5.592   2.867
 2053TIP3    H1 6165   3.301   5.514   2.815
 2053TIP3    H2 6166   3.290   5.568   2.955
 2054TIP3   OH2 6167   1.089   2.577   0.092
 2054TIP3    H1 6168   1.116   2.661   0.056
 2054TIP3    H2 6169   1.172   2.534   0.116
 2055TIP3   OH2 6170   1.494   5.550   3.725
 2055TIP3    H1 6171   1.582   5.520   3.746
 2055TIP3    H2 6172   1.480   5.525   3.634
 2056TIP3   OH2 6173   0.029   1.721   2.104
 2056TIP3    H1 6174   0.041   1.804   2.058
 2056TIP3    H2 6175   0.009   1.658   2.036
 2057TIP3   OH2 6176   3.387   4.273   3.370
 2057TIP3    H1 6177   3.394   4.284   3.276
 2057TIP3    H2 6178   3.455   4.328   3.407
 2058TIP3   OH2 6179   5.354   2.466   1.576
 2058TIP3    H1 6180   5.311   2.409   1.512
 2058TIP3    H2 6181   5.448   2.457   1.556
 2059TIP3   OH2 6182   0.173   3.948   2.360
 2059TIP3    H1 6183   0.080   3.926   2.369
 2059TIP3    H2 6184   0.196   3.987   2.444
 2060TIP3   OH2 6185   2.554   0.363   1.009
 2060TIP3    H1 6186   2.471   0.384   1.052
 2060TIP3    H2 6187   2.529   0.316   0.929
 2061TIP3   OH2 6188   1.904   3.269   3.704
 2061TIP3    H1 6189   1.912   3.301   3.614
 2061TIP3    H2 6190   1.993   3.249   3.731
 2062TIP3   OH2 6191   3.924   1.793   2.731
 2062TIP3    H1 6192   3.951   1.881   2.757
 2062TIP3    H2 6193   3.865   1.764   2.801
 2063TIP3   OH2 6194   0.332   4.689   1.814
 2063TIP3    H1 6195   0.309   4.601   1.843
 2063TIP3    H2 6196   0.252   4.724   1.776
 2064TIP3   OH2 6197   3.016   0.359   4.605
 2064TIP3    H1 6198   2.941   0.390   4.657
 2064TIP3    H2 6199   2.980   0.345   4.518
 2065TIP3   OH2 6200   3.417   4.255   4.270
 2065TIP3    H1 6201   3.477   4.219   4.205
 2065TIP3    H2 6202   3.447   4.345   4.284
 2066TIP3   OH2 6203   6.239   0.577   4.126
 2066TIP3    H1 6204   6.330   0.577   4.096
 2066TIP3    H2 6205   6.235   0.505   4.190
 2067TIP3   OH2 6206   1.690   0.191   3.992
 2067TIP3    H1 6207   1.616   0.131   4.002
 2067TIP3    H2 6208   1.675   0.259   4.058
 2068TIP3   OH2 6209   3.660   0.551   4.333
 2068TIP3    H1 6210   3.722   0.538   4.261
 2068TIP3    H2 6211   3.670   0.474   4.388
 2069TIP3   OH2 6212   3.117   0.582   3.316
 2069TIP3    H1 6213   3.175   0.597   3.242
 2069TIP3    H2 6214   3.029   0.592   3.280
 2070TIP3   OH2 6215   0.692   5.744   3.867
 2070TIP3    H1 6216   0.601   5.760   3.892
 2070TIP3    H2 6217   0.687   5.712   3.777
 2071TIP3   OH2 6218   5.688   2.089   3.707
 2071TIP3    H1 6219   5.744   2.105   3.630
 2071TIP3    H2 6220   5.707   2.162   3.766
 2072TIP3   OH2 6221   0.152   5.303   0.538
 2072TIP3    H1 6222   0.097   5.343   0.605
 2072TIP3    H2 6223   0.093   5.245   0.490
 2073TIP3   OH2 6224   5.056   2.777   0.950
 2073TIP3    H1 6225   5.036   2.684   0.935
 2073TIP3    H2 6226   5.152   2.781   0.946
 2074TIP3   OH2 6227   2.673   2.061   0.131
 2074TIP3    H1 6228   2.748   2.049   0.073
 2074TIP3    H2 6229   2.680   2.151   0.163
 2075TIP3   OH2 6230   2.340   4.068   0.919
 2075TIP3    H1 6231   2.292   4.132   0.972
 2075TIP3    H2 6232   2.313   4.086   0.829
 2076TIP3   OH2 6233   1.547   5.764   1.617
 2076TIP3    H1 6234   1.524   5.778   1.709
 2076TIP3    H2 6235   1.600   5.840   1.593
 2077TIP3   OH2 6236   4.290   3.249   1.920
 2077TIP3    H1 6237   4.372   3.206   1.896
 2077TIP3    H2 6238   4.284   3.324   1.861
 2078TIP3   OH2 6239   4.058   4.560   1.660
 2078TIP3    H1 6240   4.131   4.498   1.664
 2078TIP3    H2 6241   4.014   4.550   1.744
 2079TIP3   OH2 6242   4.594   3.048   1.607
 2079TIP3    H1 6243   4.532   3.090   1.547
 2079TIP3    H2 6244   4.618   2.966   1.563
 2080TIP3   OH2 6245   3.959   2.944   2.782
 2080TIP3    H1 6246   3.890   2.919   2.722
 2080TIP3    H2 6247   3.934   2.905   2.866
 2081TIP3   OH2 6248   0.384   5.060   3.061
 2081TIP3    H1 6249   0.421   5.142   3.094
 2081TIP3    H2 6250   0.291   5.065   3.083
 2082TIP3   OH2 6251   3.232   0.982   0.041
 2082TIP3    H1 6252   3.293   0.980   0.114
 2082TIP3    H2 6253   3.211   0.889   0.025
 2083TIP3   OH2 6254   5.064   4.441   2.041
 2083TIP3    H1 6255   5.096   4.499   2.109
 2083TIP3    H2 6256   5.141   4.422   1.987
 2084TIP3   OH2 6257   0.092   1.490   0.139
 2084TIP3    H1 6258   0.145   1.419   0.101
 2084TIP3    H2 6259   0.015   1.446   0.174
 2085TIP3   OH2 6260   0.295   1.717   1.414
 2085TIP3    H1 6261   0.285   1.792   1.473
 2085TIP3    H2 6262   0.238   1.650   1.451
 2086TIP3   OH2 6263   4.777   2.041   2.970
 2086TIP3    H1 6264   4.809   2.037   2.880
 2086TIP3    H2 6265   4.835   1.983   3.019
 2087TIP3   OH2 6266   1.281   1.582   0.365
 2087TIP3    H1 6267   1.252   1.561   0.454
 2087TIP3    H2 6268   1.201   1.603   0.318
 2088TIP3   OH2 6269   1.442   5.497   2.562
 2088TIP3    H1 6270   1.470   5.477   2.652
 2088TIP3    H2 6271   1.455   5.415   2.514
 2089TIP3   OH2 6272   6.107   3.044   1.796
 2089TIP3    H1 6273   6.169   3.004   1.736
 2089TIP3    H2 6274   6.099   3.134   1.765
 2090TIP3   OH2 6275   2.598   3.896   1.993
 2090TIP3    H1 6276   2.654   3.833   1.947
 2090TIP3    H2 6277   2.519   3.900   1.939
 2091TIP3   OH2 6278   3.610   5.743   3.251
 2091TIP3    H1 6279   3.629   5.734   3.344
 2091TIP3    H2 6280   3.640   5.661   3.213
 2092TIP3   OH2 6281   0.316   4.070   4.273
 2092TIP3    H1 6282   0.292   3.988   4.231
 2092TIP3    H2 6283   0.408   4.085   4.248
 2093TIP3   OH2 6284   1.239   1.366   1.317
 2093TIP3    H1 6285   1.170   1.315   1.359
 2093TIP3    H2 6286   1.318   1.312   1.325
 2094TIP3   OH2 6287   5.997   5.222   2.590
 2094TIP3    H1 6288   6.047   5.151   2.631
 2094TIP3    H2 6289   5.932   5.247   2.655
 2095TIP3   OH2 6290   4.415   5.323   3.829
 2095TIP3    H1 6291   4.492   5.275   3.860
 2095TIP3    H2 6292   4.341   5.267   3.852
 2096TIP3   OH2 6293   2.562   0.141   4.944
 2096TIP3    H1 6294   2.628   0.118   5.009
 2096TIP3    H2 6295   2.547   0.235   4.957
 2097TIP3   OH2 6296   3.656   1.222   1.377
 2097TIP3    H1 6297   3.701   1.160   1.435
 2097TIP3    H2 6298   3.588   1.261   1.431
 2098TIP3   OH2 6299   4.212   2.450   2.366
 2098TIP3    H1 6300   4.146   2.423   2.430
 2098TIP3    H2 6301   4.286   2.479   2.420
 2099TIP3   OH2 6302   0.791   0.243   0.479
 2099TIP3    H1 6303   0.841   0.222   0.401
 2099TIP3    H2 6304   0.842   0.311   0.523
 2100TIP3   OH2 6305   1.801   1.011   4.816
 2100TIP3    H1 6306   1.850   0.933   4.843
 2100TIP3    H2 6307   1.772   1.050   4.899
 2101TIP3   OH2 6308   2.124   1.638   3.337
 2101TIP3    H1 6309   2.218   1.637   3.355
 2101TIP3    H2 6310   2.119   1.657   3.243
 2102TIP3   OH2 6311   1.298   5.053   3.447
 2102TIP3    H1 6312   1.203   5.050   3.435
 2102TIP3    H2 6313   1.314   5.000   3.525
 2103TIP3   OH2 6314   2.586   2.628   3.247
 2103TIP3    H1 6315   2.509   2.616   3.303
 2103TIP3    H2 6316   2.569   2.574   3.170
 2104TIP3   OH2 6317   3.404   5.855   1.052
 2104TIP3    H1 6318   3.355   5.879   1.131
 2104TIP3    H2 6319   3.441   5.769   1.073
 2105TIP3   OH2 6320   3.410   0.731   4.292
 2105TIP3    H1 6321   3.505   0.720   4.285
 2105TIP3    H2 6322   3.399   0.824   4.313
 2106TIP3   OH2 6323   4.925   1.791   0.549
 2106TIP3    H1 6324   4.902   1.882   0.527
 2106TIP3    H2 6325   4.887   1.777   0.636
 2107TIP3   OH2 6326   3.846   1.324   4.324
 2107TIP3    H1 6327   3.800   1.330   4.408
 2107TIP3    H2 6328   3.873   1.414   4.305
 2108TIP3   OH2 6329   1.192   5.514   4.881
 2108TIP3    H1 6330   1.145   5.564   4.948
 2108TIP3    H2 6331   1.195   5.424   4.916
 2109TIP3   OH2 6332   0.220   1.968   0.854
 2109TIP3    H1 6333   0.172   2.047   0.880
 2109TIP3    H2 6334   0.311   1.996   0.851
 2110TIP3   OH2 6335   1.332   2.558   3.875
 2110TIP3    H1 6336   1.363   2.633   3.823
 2110TIP3    H2 6337   1.408   2.500   3.882
 2111TIP3   OH2 6338   1.559   4.792   4.599
 2111TIP3    H1 6339   1.521   4.718   4.550
 2111TIP3    H2 6340   1.489   4.856   4.604
 2112TIP3   OH2 6341   3.956   4.431   4.519
 2112TIP3    H1 6342   4.042   4.418   4.559
 2112TIP3    H2 6343   3.897   4.451   4.592
 2113TIP3   OH2 6344   2.638   2.018   4.799
 2113TIP3    H1 6345   2.719   1.968   4.798
 2113TIP3    H2 6346   2.604   2.010   4.710
 2114TIP3   OH2 6347   2.632   3.239   4.685
 2114TIP3    H1 6348   2.599   3.166   4.737
 2114TIP3    H2 6349   2.713   3.264   4.729
 2115TIP3   OH2 6350   6.346   5.109   2.964
 2115TIP3    H1 6351   6.425   5.073   2.924
 2115TIP3    H2 6352   6.274   5.067   2.917
 2116TIP3   OH2 6353   4.417   0.631   2.450
 2116TIP3    H1 6354   4.379   0.550   2.483
 2116TIP3    H2 6355   4.423   0.687   2.528
 2117TIP3   OH2 6356   3.767   4.728   4.776
 2117TIP3    H1 6357   3.786   4.817   4.807
 2117TIP3    H2 6358   3.803   4.726   4.688
 2118TIP3   OH2 6359   5.024   0.698   1.049
 2118TIP3    H1 6360   5.108   0.712   1.006
 2118TIP3    H2 6361   4.962   0.685   0.976
 2119TIP3   OH2 6362   5.211   5.199   3.156
 2119TIP3    H1 6363   5.162   5.265   3.205
 2119TIP3    H2 6364   5.160   5.119   3.166
 2120TIP3   OH2 6365   4.819   2.442   1.925
 2120TIP3    H1 6366   4.795   2.533   1.941
 2120TIP3    H2 6367   4.845   2.441   1.832
 2121TIP3   OH2 6368   1.971   5.403   2.041
 2121TIP3    H1 6369   1.957   5.429   2.131
 2121TIP3    H2 6370   2.046   5.454   2.012
 2122TIP3   OH2 6371   0.411   1.530   5.198
 2122TIP3    H1 6372   0.403   1.455   5.138
 2122TIP3    H2 6373   0.502   1.528   5.227
 2123TIP3   OH2 6374   5.199   2.140   5.005
 2123TIP3    H1 6375   5.132   2.198   4.969
 2123TIP3    H2 6376   5.229   2.088   4.930
 2124TIP3   OH2 6377   3.668   2.162   0.169
 2124TIP3    H1 6378   3.726   2.207   0.230
 2124TIP3    H2 6379   3.710   2.077   0.154
 2125TIP3   OH2 6380   2.996   3.382   0.910
 2125TIP3    H1 6381   2.948   3.315   0.959
 2125TIP3    H2 6382   3.066   3.334   0.866
 2126TIP3   OH2 6383   3.257   3.288   4.295
 2126TIP3    H1 6384   3.248   3.321   4.385
 2126TIP3    H2 6385   3.292   3.199   4.306
 2127TIP3   OH2 6386   2.293   2.987   1.584
 2127TIP3    H1 6387   2.268   3.033   1.664
 2127TIP3    H2 6388   2.249   3.034   1.514
 2128TIP3   OH2 6389   2.448   5.647   3.078
 2128TIP3    H1 6390   2.512   5.651   3.149
 2128TIP3    H2 6391   2.379   5.588   3.110
 2129TIP3   OH2 6392   2.140   0.267   0.876
 2129TIP3    H1 6393   2.133   0.346   0.929
 2129TIP3    H2 6394   2.158   0.197   0.939
 2130TIP3   OH2 6395   4.200   2.092   0.227
 2130TIP3    H1 6396   4.201   2.011   0.176
 2130TIP3    H2 6397   4.158   2.067   0.310
 2131TIP3   OH2 6398   1.241   4.243   1.078
 2131TIP3    H1 6399   1.159   4.196   1.061
 2131TIP3    H2 6400   1.241   4.257   1.172
 2132TIP3   OH2 6401   4.010   4.688   3.310
 2132TIP3    H1 6402   4.090   4.640   3.289
 2132TIP3    H2 6403   4.031   4.779   3.287
 2133TIP3   OH2 6404   3.390   4.807   2.968
 2133TIP3    H1 6405   3.330   4.741   2.934
 2133TIP3    H2 6406   3.344   4.890   2.959
 2134TIP3   OH2 6407   0.478   5.049   2.041
 2134TIP3    H1 6408   0.460   5.034   1.948
 2134TIP3    H2 6409   0.406   5.004   2.087
 2135TIP3   OH2 6410   1.660   1.239   3.740
 2135TIP3    H1 6411   1.726   1.176   3.768
 2135TIP3    H2 6412   1.690   1.322   3.777
 2136TIP3   OH2 6413   0.906   0.190   0.208
 2136TIP3    H1 6414   0.907   0.284   0.226
 2136TIP3    H2 6415   0.864   0.182   0.122
 2137TIP3   OH2 6416   2.471   4.669   4.455
 2137TIP3    H1 6417   2.407   4.617   4.502
 2137TIP3    H2 6418   2.483   4.624   4.371
 2138TIP3   OH2 6419   4.961   5.793   1.769
 2138TIP3    H1 6420   4.992   5.882   1.785
 2138TIP3    H2 6421   5.039   5.745   1.742
 2139TIP3   OH2 6422   2.369   2.656   3.762
 2139TIP3    H1 6423   2.295   2.688   3.814
 2139TIP3    H2 6424   2.424   2.733   3.749
 2140TIP3   OH2 6425   1.481   1.952   0.499
 2140TIP3    H1 6426   1.483   1.884   0.432
 2140TIP3    H2 6427   1.561   2.002   0.485
 2141TIP3   OH2 6428   0.963   0.473   2.620
 2141TIP3    H1 6429   0.889   0.423   2.585
 2141TIP3    H2 6430   1.035   0.410   2.622
 2142TIP3   OH2 6431   3.188   0.537   2.280
 2142TIP3    H1 6432   3.106   0.529   2.327
 2142TIP3    H2 6433   3.184   0.470   2.211
 2143TIP3   OH2 6434   1.363   1.434   2.569
 2143TIP3    H1 6435   1.357   1.339   2.571
 2143TIP3    H2 6436   1.439   1.452   2.513
 2144TIP3   OH2 6437   1.188   5.233   0.587
 2144TIP3    H1 6438   1.224   5.276   0.664
 2144TIP3    H2 6439   1.264   5.194   0.543
 2145TIP3   OH2 6440   3.576   4.663   2.434
 2145TIP3    H1 6441   3.645   4.597   2.443
 2145TIP3    H2 6442   3.495   4.613   2.425
 2146TIP3   OH2 6443   4.584   4.953   1.770
 2146TIP3    H1 6444   4.620   5.040   1.751
 2146TIP3    H2 6445   4.622   4.929   1.854
 2147TIP3   OH2 6446   4.333   5.465   0.904
 2147TIP3    H1 6447   4.376   5.412   0.837
 2147TIP3    H2 6448   4.240   5.462   0.882
 2148TIP3   OH2 6449   0.381   4.636   0.546
 2148TIP3    H1 6450   0.310   4.624   0.608
 2148TIP3    H2 6451   0.349   4.596   0.465
 2149TIP3   OH2 6452   5.848   2.229   2.047
 2149TIP3    H1 6453   5.926   2.178   2.066
 2149TIP3    H2 6454   5.822   2.266   2.131
 2150TIP3   OH2 6455   4.729   2.727   1.879
 2150TIP3    H1 6456   4.740   2.683   1.794
 2150TIP3    H2 6457   4.787   2.803   1.875
 2151TIP3   OH2 6458   4.485   3.452   0.372
 2151TIP3    H1 6459   4.549   3.523   0.361
 2151TIP3    H2 6460   4.518   3.381   0.317
 2152TIP3   OH2 6461   5.829   3.200   4.851
 2152TIP3    H1 6462   5.906   3.148   4.830
 2152TIP3    H2 6463   5.858   3.260   4.921
 2153TIP3   OH2 6464   3.626   5.168   3.279
 2153TIP3    H1 6465   3.585   5.141   3.197
 2153TIP3    H2 6466   3.710   5.205   3.254
 2154TIP3   OH2 6467   6.331   4.204   1.668
 2154TIP3    H1 6468   6.303   4.184   1.579
 2154TIP3    H2 6469   6.364   4.120   1.702
 2155TIP3   OH2 6470   2.025   0.567   1.788
 2155TIP3    H1 6471   2.034   0.499   1.855
 2155TIP3    H2 6472   1.931   0.580   1.780
 2156TIP3   OH2 6473   4.217   4.156   1.812
 2156TIP3    H1 6474   4.299   4.111   1.791
 2156TIP3    H2 6475   4.235   4.248   1.794
 2157TIP3   OH2 6476   5.286   2.806   3.331
 2157TIP3    H1 6477   5.351   2.800   3.401
 2157TIP3    H2 6478   5.230   2.730   3.345
 2158TIP3   OH2 6479   0.729   1.056   1.841
 2158TIP3    H1 6480   0.690   1.107   1.911
 2158TIP3    H2 6481   0.789   0.996   1.885
 2159TIP3   OH2 6482   6.007   3.125   4.496
 2159TIP3    H1 6483   6.094   3.119   4.458
 2159TIP3    H2 6484   5.947   3.128   4.421
 2160TIP3   OH2 6485   2.459   1.169   2.392
 2160TIP3    H1 6486   2.532   1.194   2.449
 2160TIP3    H2 6487   2.383   1.215   2.428
 2161TIP3   OH2 6488   4.152   3.431   2.074
 2161TIP3    H1 6489   4.064   3.408   2.105
 2161TIP3    H2 6490   4.190   3.347   2.047
 2162TIP3   OH2 6491   5.018   2.645   1.987
 2162TIP3    H1 6492   4.995   2.727   1.944
 2162TIP3    H2 6493   5.062   2.594   1.919
 2163TIP3   OH2 6494   4.359   1.623   4.624
 2163TIP3    H1 6495   4.349   1.694   4.688
 2163TIP3    H2 6496   4.356   1.668   4.540
 2164TIP3   OH2 6497   5.376   4.664   2.644
 2164TIP3    H1 6498   5.435   4.738   2.659
 2164TIP3    H2 6499   5.289   4.697   2.667
 2165TIP3   OH2 6500   0.892   5.264   2.237
 2165TIP3    H1 6501   0.914   5.348   2.278
 2165TIP3    H2 6502   0.850   5.214   2.307
 2166TIP3   OH2 6503   6.174   5.523   3.218
 2166TIP3    H1 6504   6.207   5.579   3.148
 2166TIP3    H2 6505   6.226   5.443   3.211
 2167TIP3   OH2 6506   3.666   2.296   4.223
 2167TIP3    H1 6507   3.701   2.358   4.288
 2167TIP3    H2 6508   3.741   2.240   4.201
 2168TIP3   OH2 6509   1.221   3.688   3.061
 2168TIP3    H1 6510   1.214   3.754   2.991
 2168TIP3    H2 6511   1.268   3.733   3.131
 2169TIP3   OH2 6512   4.918   3.284   1.927
 2169TIP3    H1 6513   4.944   3.231   2.003
 2169TIP3    H2 6514   4.900   3.220   1.858
 2170TIP3   OH2 6515   4.454   4.913   3.364
 2170TIP3    H1 6516   4.367   4.896   3.399
 2170TIP3    H2 6517   4.513   4.867   3.424
 2171TIP3   OH2 6518   6.043   5.499   0.619
 2171TIP3    H1 6519   5.951   5.501   0.646
 2171TIP3    H2 6520   6.078   5.584   0.647
 2172TIP3   OH2 6521   1.639   3.264   1.463
 2172TIP3    H1 6522   1.603   3.345   1.430
 2172TIP3    H2 6523   1.615   3.262   1.556
 2173TIP3   OH2 6524   1.488   5.786   3.946
 2173TIP3    H1 6525   1.507   5.693   3.954
 2173TIP3    H2 6526   1.566   5.829   3.981
 2174TIP3   OH2 6527   2.909   0.157   4.437
 2174TIP3    H1 6528   2.838   0.192   4.383
 2174TIP3    H2 6529   2.951   0.091   4.382
 2175TIP3   OH2 6530   5.809   2.544   1.465
 2175TIP3    H1 6531   5.730   2.587   1.497
 2175TIP3    H2 6532   5.795   2.451   1.482
 2176TIP3   OH2 6533   1.576   4.870   3.578
 2176TIP3    H1 6534   1.488   4.909   3.568
 2176TIP3    H2 6535   1.607   4.858   3.489
 2177TIP3   OH2 6536   0.757   5.805   0.210
 2177TIP3    H1 6537   0.747   5.900   0.206
 2177TIP3    H2 6538   0.757   5.785   0.304
 2178TIP3   OH2 6539   3.812   1.717   2.457
 2178TIP3    H1 6540   3.850   1.765   2.530
 2178TIP3    H2 6541   3.815   1.778   2.384
 2179TIP3   OH2 6542   2.553   1.187   0.243
 2179TIP3    H1 6543   2.586   1.213   0.158
 2179TIP3    H2 6544   2.631   1.162   0.293
 2180TIP3   OH2 6545   4.835   1.930   3.955
 2180TIP3    H1 6546   4.909   1.870   3.949
 2180TIP3    H2 6547   4.853   1.984   4.031
 2181TIP3   OH2 6548   2.158   4.264   1.521
 2181TIP3    H1 6549   2.176   4.276   1.614
 2181TIP3    H2 6550   2.213   4.329   1.478
 2182TIP3   OH2 6551   6.070   0.758   2.176
 2182TIP3    H1 6552   6.042   0.678   2.222
 2182TIP3    H2 6553   6.083   0.729   2.085
 2183TIP3   OH2 6554   5.221   5.115   4.428
 2183TIP3    H1 6555   5.283   5.053   4.389
 2183TIP3    H2 6556   5.177   5.066   4.497
 2184TIP3   OH2 6557   3.528   4.086   4.453
 2184TIP3    H1 6558   3.538   4.002   4.407
 2184TIP3    H2 6559   3.520   4.151   4.383
 2185TIP3   OH2 6560   5.125   2.333   4.022
 2185TIP3    H1 6561   5.101   2.379   4.103
 2185TIP3    H2 6562   5.201   2.380   3.989
 2186TIP3   OH2 6563   1.459   2.890   4.250
 2186TIP3    H1 6564   1.412   2.809   4.229
 2186TIP3    H2 6565   1.535   2.888   4.191
 2187TIP3   OH2 6566   2.686   4.496   3.654
 2187TIP3    H1 6567   2.758   4.550   3.621
 2187TIP3    H2 6568   2.724   4.409   3.666
 2188TIP3   OH2 6569   6.070   3.884   2.867
 2188TIP3    H1 6570   6.108   3.963   2.829
 2188TIP3    H2 6571   6.048   3.829   2.792
 2189TIP3   OH2 6572   2.229   1.299   4.899
 2189TIP3    H1 6573   2.182   1.249   4.832
 2189TIP3    H2 6574   2.160   1.333   4.956
 2190TIP3   OH2 6575   1.829   3.042   0.682
 2190TIP3    H1 6576   1.811   2.976   0.615
 2190TIP3    H2 6577   1.911   3.012   0.723
 2191TIP3   OH2 6578   0.118   2.659   1.250
 2191TIP3    H1 6579   0.022   2.658   1.244
 2191TIP3    H2 6580   0.138   2.738   1.299
 2192TIP3   OH2 6581   0.531   0.651   0.108
 2192TIP3    H1 6582   0.541   0.672   0.015
 2192TIP3    H2 6583   0.566   0.562   0.116
 2193TIP3   OH2 6584   4.992   0.976   2.910
 2193TIP3    H1 6585   5.036   0.897   2.880
 2193TIP3    H2 6586   4.969   0.958   3.001
 2194TIP3   OH2 6587   6.255   2.742   3.342
 2194TIP3    H1 6588   6.340   2.785   3.353
 2194TIP3    H2 6589   6.227   2.722   3.431
 2195TIP3   OH2 6590   0.887   3.568   0.210
 2195TIP3    H1 6591   0.961   3.621   0.241
 2195TIP3    H2 6592   0.811   3.624   0.223
 2196TIP3   OH2 6593   2.433   2.909   2.787
 2196TIP3    H1 6594   2.506   2.869   2.739
 2196TIP3    H2 6595   2.426   2.997   2.751
 2197TIP3   OH2 6596   5.595   5.973   4.022
 2197TIP3    H1 6597   5.553   5.924   3.951
 2197TIP3    H2 6598   5.638   5.905   4.075
 2198TIP3   OH2 6599   0.889   2.609   3.318
 2198TIP3    H1 6600   0.847   2.638   3.236
 2198TIP3    H2 6601   0.921   2.522   3.298
 2199TIP3   OH2 6602   4.646   4.697   4.322
 2199TIP3    H1 6603   4.551   4.690   4.324
 2199TIP3    H2 6604   4.671   4.713   4.413
 2200TIP3   OH2 6605   1.879   0.100   5.052
 2200TIP3    H1 6606   1.938   0.033   5.015
 2200TIP3    H2 6607   1.814   0.115   4.984
 2201TIP3   OH2 6608   0.362   4.673   3.665
 2201TIP3    H1 6609   0.333   4.635   3.583
 2201TIP3    H2 6610   0.337   4.608   3.731
 2202TIP3   OH2 6611   1.553   5.279   4.968
 2202TIP3    H1 6612   1.500   5.358   4.959
 2202TIP3    H2 6613   1.489   5.208   4.981
 2203TIP3   OH2 6614   0.347   5.152   0.662
 2203TIP3    H1 6615   0.285   5.200   0.607
 2203TIP3    H2 6616   0.433   5.183   0.634
 2204TIP3   OH2 6617   6.166   3.300   4.730
 2204TIP3    H1 6618   6.167   3.264   4.641
 2204TIP3    H2 6619   6.101   3.370   4.726
 2205TIP3   OH2 6620   2.074   2.190   1.427
 2205TIP3    H1 6621   2.064   2.188   1.522
 2205TIP3    H2 6622   2.014   2.123   1.395
 2206TIP3   OH2 6623   5.986   1.149   3.359
 2206TIP3    H1 6624   5.991   1.070   3.304
 2206TIP3    H2 6625   6.008   1.118   3.447
 2207TIP3   OH2 6626   3.071   3.089   2.501
 2207TIP3    H1 6627   3.104   3.176   2.523
 2207TIP3    H2 6628   3.084   3.038   2.581
 2208TIP3   OH2 6629   4.545   5.653   5.099
 2208TIP3    H1 6630   4.485   5.711   5.052
 2208TIP3    H2 6631   4.625   5.655   5.047
 2209TIP3   OH2 6632   2.732   3.746   3.321
 2209TIP3    H1 6633   2.756   3.699   3.241
 2209TIP3    H2 6634   2.813   3.789   3.349
 2210TIP3   OH2 6635   6.244   5.103   0.037
 2210TIP3    H1 6636   6.320   5.141   0.082
 2210TIP3    H2 6637   6.277   5.082  -0.050
 2211TIP3   OH2 6638   2.314   4.100   3.031
 2211TIP3    H1 6639   2.294   4.100   2.937
 2211TIP3    H2 6640   2.388   4.039   3.039
 2212TIP3   OH2 6641   2.479   4.644   1.924
 2212TIP3    H1 6642   2.427   4.620   1.847
 2212TIP3    H2 6643   2.548   4.701   1.890
 2213TIP3   OH2 6644   5.447   0.290   1.528
 2213TIP3    H1 6645   5.478   0.234   1.458
 2213TIP3    H2 6646   5.387   0.352   1.485
 2214TIP3   OH2 6647   5.612   2.138   1.850
 2214TIP3    H1 6648   5.638   2.175   1.934
 2214TIP3    H2 6649   5.526   2.176   1.832
 2215TIP3   OH2 6650   6.367   1.904   0.401
 2215TIP3    H1 6651   6.446   1.891   0.454
 2215TIP3    H2 6652   6.369   1.833   0.337
 2216TIP3   OH2 6653   2.007   4.705   0.099
 2216TIP3    H1 6654   1.970   4.777   0.150
 2216TIP3    H2 6655   1.940   4.637   0.102
 2217TIP3   OH2 6656   0.172   0.516   0.984
 2217TIP3    H1 6657   0.208   0.588   1.036
 2217TIP3    H2 6658   0.077   0.527   0.991
 2218TIP3   OH2 6659   0.118   4.326   1.374
 2218TIP3    H1 6660   0.097   4.265   1.303
 2218TIP3    H2 6661   0.196   4.290   1.415
 2219TIP3   OH2 6662   1.372   5.726   3.366
 2219TIP3    H1 6663   1.357   5.656   3.430
 2219TIP3    H2 6664   1.468   5.733   3.361
 2220TIP3   OH2 6665   0.686   0.476   2.102
 2220TIP3    H1 6666   0.716   0.557   2.061
 2220TIP3    H2 6667   0.591   0.476   2.089
 2221TIP3   OH2 6668   3.415   1.646   1.335
 2221TIP3    H1 6669   3.352   1.640   1.263
 2221TIP3    H2 6670   3.500   1.632   1.294
 2222TIP3   OH2 6671   0.326   3.214   3.742
 2222TIP3    H1 6672   0.411   3.172   3.726
 2222TIP3    H2 6673   0.268   3.142   3.766
 2223TIP3   OH2 6674   3.879   0.694   4.980
 2223TIP3    H1 6675   3.799   0.733   4.945
 2223TIP3    H2 6676   3.865   0.599   4.973
 2224TIP3   OH2 6677   0.866   0.846   1.113
 2224TIP3    H1 6678   0.903   0.907   1.176
 2224TIP3    H2 6679   0.932   0.837   1.045
 2225TIP3   OH2 6680   2.721   2.665   0.598
 2225TIP3    H1 6681   2.750   2.733   0.659
 2225TIP3    H2 6682   2.692   2.713   0.521
 2226TIP3   OH2 6683   1.381   1.603   3.123
 2226TIP3    H1 6684   1.429   1.681   3.098
 2226TIP3    H2 6685   1.319   1.634   3.189
 2227TIP3   OH2 6686   1.487   5.302   2.995
 2227TIP3    H1 6687   1.498   5.366   3.065
 2227TIP3    H2 6688   1.401   5.263   3.009
 2228TIP3   OH2 6689   2.870   0.089   0.191
 2228TIP3    H1 6690   2.797   0.151   0.194
 2228TIP3    H2 6691   2.948   0.142   0.201
 2229TIP3   OH2 6692   5.012   0.769   4.529
 2229TIP3    H1 6693   5.060   0.820   4.464
 2229TIP3    H2 6694   4.990   0.687   4.484
 2230TIP3   OH2 6695   5.331   3.981   0.001
 2230TIP3    H1 6696   5.415   4.005  -0.038
 2230TIP3    H2 6697   5.344   3.994   0.095
 2231TIP3   OH2 6698   1.262   3.418   2.847
 2231TIP3    H1 6699   1.286   3.353   2.913
 2231TIP3    H2 6700   1.166   3.422   2.852
 2232TIP3   OH2 6701   3.171   3.702   1.047
 2232TIP3    H1 6702   3.137   3.628   1.098
 2232TIP3    H2 6703   3.246   3.666   1.001
 2233TIP3   OH2 6704   1.679   3.989   3.973
 2233TIP3    H1 6705   1.637   4.023   4.052
 2233TIP3    H2 6706   1.726   4.064   3.936
 2234TIP3   OH2 6707   1.435   5.168   1.303
 2234TIP3    H1 6708   1.415   5.091   1.249
 2234TIP3    H2 6709   1.350   5.207   1.321
 2235TIP3   OH2 6710   4.523   3.777   1.133
 2235TIP3    H1 6711   4.481   3.771   1.047
 2235TIP3    H2 6712   4.466   3.728   1.191
 2236TIP3   OH2 6713   4.614   0.653   3.434
 2236TIP3    H1 6714   4.587   0.703   3.356
 2236TIP3    H2 6715   4.561   0.690   3.505
 2237TIP3   OH2 6716   2.875   0.444   2.806
 2237TIP3    H1 6717   2.814   0.485   2.745
 2237TIP3    H2 6718   2.820   0.392   2.864
 2238TIP3   OH2 6719   3.179   1.387   1.412
 2238TIP3    H1 6720   3.248   1.336   1.456
 2238TIP3    H2 6721   3.213   1.401   1.323
 2239TIP3   OH2 6722   1.442   2.067   3.796
 2239TIP3    H1 6723   1.383   2.142   3.800
 2239TIP3    H2 6724   1.493   2.080   3.716
 2240TIP3   OH2 6725   1.440   1.043   4.930
 2240TIP3    H1 6726   1.493   1.059   4.852
 2240TIP3    H2 6727   1.417   0.950   4.925
 2241TIP3   OH2 6728   3.954   1.258   5.027
 2241TIP3    H1 6729   3.883   1.299   5.077
 2241TIP3    H2 6730   4.034   1.295   5.064
 2242TIP3   OH2 6731   5.734   2.791   3.050
 2242TIP3    H1 6732   5.830   2.795   3.051
 2242TIP3    H2 6733   5.709   2.789   3.143
 2243TIP3   OH2 6734   3.637   0.694   0.766
 2243TIP3    H1 6735   3.541   0.695   0.761
 2243TIP3    H2 6736   3.658   0.611   0.808
 2244TIP3   OH2 6737   2.542   2.685   0.183
 2244TIP3    H1 6738   2.470   2.697   0.121
 2244TIP3    H2 6739   2.620   2.676   0.128
 2245TIP3   OH2 6740   0.618   0.951   2.592
 2245TIP3    H1 6741   0.605   1.017   2.523
 2245TIP3    H2 6742   0.531   0.938   2.629
 2246TIP3   OH2 6743   0.596   0.149   3.900
 2246TIP3    H1 6744   0.644   0.110   3.973
 2246TIP3    H2 6745   0.638   0.113   3.822
 2247TIP3   OH2 6746   0.481   0.704   4.096
 2247TIP3    H1 6747   0.556   0.750   4.134
 2247TIP3    H2 6748   0.507   0.687   4.006
 2248TIP3   OH2 6749   0.557   4.064   1.696
 2248TIP3    H1 6750   0.634   4.073   1.639
 2248TIP3    H2 6751   0.565   3.976   1.733
 2249TIP3   OH2 6752   3.904   4.183   5.110
 2249TIP3    H1 6753   3.972   4.199   5.176
 2249TIP3    H2 6754   3.827   4.228   5.145
 2250TIP3   OH2 6755   0.670   3.794   1.402
 2250TIP3    H1 6756   0.687   3.779   1.309
 2250TIP3    H2 6757   0.664   3.889   1.411
 2251TIP3   OH2 6758   4.260   3.754   5.031
 2251TIP3    H1 6759   4.299   3.668   5.041
 2251TIP3    H2 6760   4.268   3.774   4.938
 2252TIP3   OH2 6761   2.982   2.723   3.061
 2252TIP3    H1 6762   3.006   2.631   3.071
 2252TIP3    H2 6763   2.943   2.747   3.145
 2253TIP3   OH2 6764   1.190   2.151   0.314
 2253TIP3    H1 6765   1.170   2.104   0.233
 2253TIP3    H2 6766   1.145   2.101   0.382
 2254TIP3   OH2 6767   3.592   2.295   1.682
 2254TIP3    H1 6768   3.509   2.248   1.675
 2254TIP3    H2 6769   3.656   2.226   1.701
 2255TIP3   OH2 6770   0.327   5.753   1.108
 2255TIP3    H1 6771   0.398   5.817   1.108
 2255TIP3    H2 6772   0.289   5.760   1.021
 2256TIP3   OH2 6773   3.794   0.387   0.385
 2256TIP3    H1 6774   3.837   0.421   0.307
 2256TIP3    H2 6775   3.862   0.387   0.452
 2257TIP3   OH2 6776   0.345   0.915   4.716
 2257TIP3    H1 6777   0.311   0.919   4.626
 2257TIP3    H2 6778   0.323   1.000   4.754
 2258TIP3   OH2 6779   5.162   3.248   0.071
 2258TIP3    H1 6780   5.251   3.214   0.065
 2258TIP3    H2 6781   5.108   3.171   0.085
 2259TIP3   OH2 6782   5.111   1.294   1.299
 2259TIP3    H1 6783   5.058   1.217   1.319
 2259TIP3    H2 6784   5.050   1.356   1.261
 2260TIP3   OH2 6785   5.719   2.088   2.956
 2260TIP3    H1 6786   5.735   2.036   2.877
 2260TIP3    H2 6787   5.684   2.171   2.924
 2261TIP3   OH2 6788   3.813   0.675   0.563
 2261TIP3    H1 6789   3.863   0.600   0.596
 2261TIP3    H2 6790   3.777   0.716   0.642
 2262TIP3   OH2 6791   4.986   5.175   0.841
 2262TIP3    H1 6792   4.910   5.116   0.841
 2262TIP3    H2 6793   5.010   5.181   0.934
 2263TIP3   OH2 6794   4.396   2.295   2.716
 2263TIP3    H1 6795   4.358   2.212   2.748
 2263TIP3    H2 6796   4.416   2.278   2.624
 2264TIP3   OH2 6797   5.031   2.602   3.998
 2264TIP3    H1 6798   4.940   2.619   3.976
 2264TIP3    H2 6799   5.071   2.576   3.915
 2265TIP3   OH2 6800   1.630   1.020   2.906
 2265TIP3    H1 6801   1.712   1.067   2.922
 2265TIP3    H2 6802   1.566   1.088   2.886
 2266TIP3   OH2 6803   4.480   5.738   2.280
 2266TIP3    H1 6804   4.497   5.821   2.235
 2266TIP3    H2 6805   4.537   5.675   2.236
 2267TIP3   OH2 6806   2.217   1.497   4.650
 2267TIP3    H1 6807   2.299   1.448   4.656
 2267TIP3    H2 6808   2.195   1.517   4.741
 2268TIP3   OH2 6809   5.797   5.436   0.745
 2268TIP3    H1 6810   5.768   5.377   0.675
 2268TIP3    H2 6811   5.723   5.439   0.806
 2269TIP3   OH2 6812   0.576   1.269   0.161
 2269TIP3    H1 6813   0.554   1.360   0.184
 2269TIP3    H2 6814   0.671   1.264   0.173
 2270TIP3   OH2 6815   2.854   3.681   4.739
 2270TIP3    H1 6816   2.881   3.757   4.687
 2270TIP3    H2 6817   2.815   3.621   4.675
 2271TIP3   OH2 6818   1.004   4.847   1.546
 2271TIP3    H1 6819   0.925   4.794   1.545
 2271TIP3    H2 6820   1.075   4.786   1.525
 2272TIP3   OH2 6821   2.201   1.702   3.089
 2272TIP3    H1 6822   2.146   1.742   3.022
 2272TIP3    H2 6823   2.280   1.757   3.091
 2273TIP3   OH2 6824   0.204   1.825   2.533
 2273TIP3    H1 6825   0.180   1.776   2.455
 2273TIP3    H2 6826   0.290   1.863   2.513
 2274TIP3   OH2 6827   0.854   5.652   0.781
 2274TIP3    H1 6828   0.860   5.743   0.755
 2274TIP3    H2 6829   0.827   5.605   0.702
 2275TIP3   OH2 6830   2.428   4.354   3.846
 2275TIP3    H1 6831   2.366   4.335   3.916
 2275TIP3    H2 6832   2.437   4.272   3.798
 2276TIP3   OH2 6833   4.107   1.317   4.589
 2276TIP3    H1 6834   4.111   1.222   4.593
 2276TIP3    H2 6835   4.129   1.338   4.498
 2277TIP3   OH2 6836   4.062   3.740   3.563
 2277TIP3    H1 6837   4.157   3.754   3.560
 2277TIP3    H2 6838   4.050   3.674   3.632
 2278TIP3   OH2 6839   2.180   2.546   1.867
 2278TIP3    H1 6840   2.167   2.456   1.894
 2278TIP3    H2 6841   2.237   2.541   1.790
 2279TIP3   OH2 6842   3.616   1.114   0.535
 2279TIP3    H1 6843   3.681   1.164   0.486
 2279TIP3    H2 6844   3.654   1.026   0.541
 2280TIP3   OH2 6845   5.372   1.536   2.404
 2280TIP3    H1 6846   5.441   1.580   2.354
 2280TIP3    H2 6847   5.402   1.445   2.410
 2281TIP3   OH2 6848   0.617   4.335   4.871
 2281TIP3    H1 6849   0.602   4.390   4.794
 2281TIP3    H2 6850   0.546   4.271   4.870
 2282TIP3   OH2 6851   0.839   1.720   0.780
 2282TIP3    H1 6852   0.882   1.678   0.855
 2282TIP3    H2 6853   0.821   1.809   0.810
 2283TIP3   OH2 6854   1.570   0.822   2.456
 2283TIP3    H1 6855   1.610   0.809   2.370
 2283TIP3    H2 6856   1.644   0.838   2.514
 2284TIP3   OH2 6857   4.463   2.228   2.455
 2284TIP3    H1 6858   4.444   2.264   2.368
 2284TIP3    H2 6859   4.536   2.168   2.440
 2285TIP3   OH2 6860   3.426   3.048   4.379
 2285TIP3    H1 6861   3.442   2.954   4.385
 2285TIP3    H2 6862   3.501   3.088   4.425
 2286TIP3   OH2 6863   4.000   0.809   3.573
 2286TIP3    H1 6864   4.070   0.776   3.517
 2286TIP3    H2 6865   3.924   0.816   3.515
 2287TIP3   OH2 6866   6.001   2.488   3.329
 2287TIP3    H1 6867   5.948   2.567   3.320
 2287TIP3    H2 6868   6.074   2.514   3.385
 2288TIP3   OH2 6869   2.397   0.836   0.037
 2288TIP3    H1 6870   2.422   0.755   0.082
 2288TIP3    H2 6871   2.309   0.819   0.005
 2289TIP3   OH2 6872   1.886   5.413   0.848
 2289TIP3    H1 6873   1.833   5.361   0.787
 2289TIP3    H2 6874   1.836   5.413   0.929
 2290TIP3   OH2 6875   0.122   3.513   3.781
 2290TIP3    H1 6876   0.034   3.501   3.747
 2290TIP3    H2 6877   0.125   3.462   3.861
 2291TIP3   OH2 6878   0.415   5.425   0.554
 2291TIP3    H1 6879   0.323   5.446   0.540
 2291TIP3    H2 6880   0.431   5.449   0.645
 2292TIP3   OH2 6881   3.809   0.415   2.154
 2292TIP3    H1 6882   3.716   0.427   2.133
 2292TIP3    H2 6883   3.812   0.336   2.208
 2293TIP3   OH2 6884   2.110   5.218   4.305
 2293TIP3    H1 6885   2.108   5.288   4.370
 2293TIP3    H2 6886   2.032   5.232   4.251
 2294TIP3   OH2 6887   6.093   1.205   0.773
 2294TIP3    H1 6888   6.114   1.125   0.723
 2294TIP3    H2 6889   6.070   1.173   0.860
 2295TIP3   OH2 6890   5.778   3.307   4.604
 2295TIP3    H1 6891   5.855   3.364   4.595
 2295TIP3    H2 6892   5.781   3.277   4.695
 2296TIP3   OH2 6893   4.621   5.942   3.852
 2296TIP3    H1 6894   4.661   6.013   3.903
 2296TIP3    H2 6895   4.626   5.866   3.909
 2297TIP3   OH2 6896   6.337   3.753   2.395
 2297TIP3    H1 6897   6.426   3.725   2.376
 2297TIP3    H2 6898   6.292   3.749   2.310
 2298TIP3   OH2 6899   4.137   4.989   1.995
 2298TIP3    H1 6900   4.108   4.939   2.072
 2298TIP3    H2 6901   4.228   4.962   1.982
 2299TIP3   OH2 6902   3.352   3.867   3.779
 2299TIP3    H1 6903   3.382   3.929   3.713
 2299TIP3    H2 6904   3.353   3.917   3.861
 2300TIP3   OH2 6905   0.521   0.091   4.431
 2300TIP3    H1 6906   0.453   0.129   4.375
 2300TIP3    H2 6907   0.540   0.159   4.495
 2301TIP3   OH2 6908   6.003   2.002   0.313
 2301TIP3    H1 6909   6.046   2.081   0.342
 2301TIP3    H2 6910   5.935   2.032   0.252
 2302TIP3   OH2 6911   3.698   1.920   4.056
 2302TIP3    H1 6912   3.680   1.887   3.968
 2302TIP3    H2 6913   3.753   1.853   4.096
 2303TIP3   OH2 6914   0.366   2.983   2.370
 2303TIP3    H1 6915   0.312   2.927   2.314
 2303TIP3    H2 6916   0.423   3.030   2.310
 2304TIP3   OH2 6917   1.334   1.256   1.752
 2304TIP3    H1 6918   1.335   1.344   1.792
 2304TIP3    H2 6919   1.265   1.260   1.687
 2305TIP3   OH2 6920   3.269   0.793   4.012
 2305TIP3    H1 6921   3.241   0.854   4.080
 2305TIP3    H2 6922   3.286   0.711   4.058
 2306TIP3   OH2 6923   5.432   0.907   4.362
 2306TIP3    H1 6924   5.394   0.833   4.410
 2306TIP3    H2 6925   5.522   0.881   4.343
 2307TIP3   OH2 6926   0.131   1.543   3.777
 2307TIP3    H1 6927   0.179   1.619   3.810
 2307TIP3    H2 6928   0.093   1.572   3.694
 2308TIP3   OH2 6929   4.573   5.549   3.458
 2308TIP3    H1 6930   4.595   5.491   3.531
 2308TIP3    H2 6931   4.493   5.513   3.421
 2309TIP3   OH2 6932   2.987   3.347   1.458
 2309TIP3    H1 6933   2.904   3.322   1.419
 2309TIP3    H2 6934   2.999   3.285   1.530
 2310TIP3   OH2 6935   2.541   1.481   2.364
 2310TIP3    H1 6936   2.611   1.424   2.334
 2310TIP3    H2 6937   2.529   1.458   2.457
 2311TIP3   OH2 6938   0.289   3.395   2.160
 2311TIP3    H1 6939   0.234   3.458   2.114
 2311TIP3    H2 6940   0.227   3.333   2.199
 2312TIP3   OH2 6941   1.646   3.287   3.638
 2312TIP3    H1 6942   1.628   3.380   3.650
 2312TIP3    H2 6943   1.726   3.272   3.689
 2313TIP3   OH2 6944   0.576   1.732   2.502
 2313TIP3    H1 6945   0.668   1.734   2.528
 2313TIP3    H2 6946   0.551   1.640   2.509
 2314TIP3   OH2 6947   6.236   1.659   0.336
 2314TIP3    H1 6948   6.157   1.710   0.353
 2314TIP3    H2 6949   6.205   1.574   0.307
 2315TIP3   OH2 6950   5.366   4.865   2.186
 2315TIP3    H1 6951   5.328   4.874   2.273
 2315TIP3    H2 6952   5.298   4.897   2.126
 2316TIP3   OH2 6953   0.534   1.764   3.515
 2316TIP3    H1 6954   0.463   1.828   3.513
 2316TIP3    H2 6955   0.499   1.688   3.470
 2317TIP3   OH2 6956   0.906   5.739   2.034
 2317TIP3    H1 6957   0.994   5.708   2.015
 2317TIP3    H2 6958   0.855   5.714   1.957
 2318TIP3   OH2 6959   4.317   2.321   0.503
 2318TIP3    H1 6960   4.338   2.266   0.427
 2318TIP3    H2 6961   4.288   2.259   0.570
 2319TIP3   OH2 6962   1.844   0.846   1.460
 2319TIP3    H1 6963   1.922   0.794   1.481
 2319TIP3    H2 6964   1.816   0.882   1.544
 2320TIP3   OH2 6965   3.055   4.197   0.546
 2320TIP3    H1 6966   3.092   4.165   0.628
 2320TIP3    H2 6967   3.104   4.276   0.525
 2321TIP3   OH2 6968   0.395   4.289   3.590
 2321TIP3    H1 6969   0.318   4.313   3.643
 2321TIP3    H2 6970   0.358   4.264   3.505
 2322TIP3   OH2 6971   4.277   1.100   3.534
 2322TIP3    H1 6972   4.339   1.047   3.483
 2322TIP3    H2 6973   4.257   1.047   3.611
 2323TIP3   OH2 6974   5.364   5.791   3.484
 2323TIP3    H1 6975   5.432   5.825   3.426
 2323TIP3    H2 6976   5.282   5.827   3.449
 2324TIP3   OH2 6977   5.963   3.558   2.280
 2324TIP3    H1 6978   5.922   3.643   2.263
 2324TIP3    H2 6979   5.977   3.521   2.193
 2325TIP3   OH2 6980   3.925   2.350   0.725
 2325TIP3    H1 6981   3.855   2.310   0.674
 2325TIP3    H2 6982   3.881   2.381   0.805
 2326TIP3   OH2 6983   1.043   2.406   4.031
 2326TIP3    H1 6984   1.134   2.376   4.029
 2326TIP3    H2 6985   1.030   2.450   3.947
 2327TIP3   OH2 6986   3.311   0.956   4.784
 2327TIP3    H1 6987   3.393   0.982   4.741
 2327TIP3    H2 6988   3.335   0.948   4.877
 2328TIP3   OH2 6989   1.644   0.599   3.879
 2328TIP3    H1 6990   1.578   0.537   3.846
 2328TIP3    H2 6991   1.632   0.600   3.974
 2329TIP3   OH2 6992   5.119   5.809   0.382
 2329TIP3    H1 6993   5.063   5.875   0.422
 2329TIP3    H2 6994   5.105   5.730   0.435
 2330TIP3   OH2 6995   3.762   2.111   2.344
 2330TIP3    H1 6996   3.710   2.167   2.285
 2330TIP3    H2 6997   3.753   2.023   2.308
 2331TIP3   OH2 6998   2.504   3.715   1.624
 2331TIP3    H1 6999   2.499   3.684   1.533
 2331TIP3    H2 7000   2.443   3.658   1.672
 2332TIP3   OH2 7001   6.317   1.705   0.765
 2332TIP3    H1 7002   6.279   1.623   0.733
 2332TIP3    H2 7003   6.261   1.774   0.728
 2333TIP3   OH2 7004   1.036   5.552   3.702
 2333TIP3    H1 7005   1.010   5.462   3.722
 2333TIP3    H2 7006   1.084   5.581   3.780
 2334TIP3   OH2 7007   0.895   1.767   3.979
 2334TIP3    H1 7008   0.954   1.794   3.908
 2334TIP3    H2 7009   0.895   1.672   3.975
 2335TIP3   OH2 7010   2.731   1.543   1.766
 2335TIP3    H1 7011   2.638   1.520   1.771
 2335TIP3    H2 7012   2.768   1.478   1.707
 2336TIP3   OH2 7013   5.186   3.676   1.961
 2336TIP3    H1 7014   5.267   3.656   2.008
 2336TIP3    H2 7015   5.117   3.660   2.026
 2337TIP3   OH2 7016   1.000   2.076   4.430
 2337TIP3    H1 7017   0.962   2.041   4.349
 2337TIP3    H2 7018   1.094   2.078   4.414
 2338TIP3   OH2 7019   0.684   3.326   2.586
 2338TIP3    H1 7020   0.710   3.276   2.509
 2338TIP3    H2 7021   0.634   3.265   2.639
 2339TIP3   OH2 7022   5.518   3.418   1.984
 2339TIP3    H1 7023   5.558   3.342   2.026
 2339TIP3    H2 7024   5.424   3.403   1.992
 2340TIP3   OH2 7025   2.523   0.065   3.948
 2340TIP3    H1 7026   2.463   0.000   3.912
 2340TIP3    H2 7027   2.575   0.094   3.873
 2341TIP3   OH2 7028   4.108   4.095   4.728
 2341TIP3    H1 7029   4.090   4.147   4.807
 2341TIP3    H2 7030   4.032   4.038   4.719
 2342TIP3   OH2 7031   1.746   3.227   4.543
 2342TIP3    H1 7032   1.704   3.276   4.614
 2342TIP3    H2 7033   1.830   3.270   4.531
 2343TIP3   OH2 7034   3.413   3.243   4.644
 2343TIP3    H1 7035   3.410   3.148   4.629
 2343TIP3    H2 7036   3.337   3.261   4.699
 2344TIP3   OH2 7037   3.779   1.250   0.350
 2344TIP3    H1 7038   3.867   1.259   0.388
 2344TIP3    H2 7039   3.790   1.187   0.279
 2345TIP3   OH2 7040   0.355   1.770   1.931
 2345TIP3    H1 7041   0.379   1.711   2.002
 2345TIP3    H2 7042   0.267   1.800   1.952
 2346TIP3   OH2 7043   3.632   4.660   4.150
 2346TIP3    H1 7044   3.571   4.734   4.157
 2346TIP3    H2 7045   3.603   4.598   4.216
 2347TIP3   OH2 7046   5.205   4.852   1.229
 2347TIP3    H1 7047   5.235   4.927   1.281
 2347TIP3    H2 7048   5.127   4.822   1.276
 2348TIP3   OH2 7049   3.576   2.422   0.614
 2348TIP3    H1 7050   3.619   2.338   0.602
 2348TIP3    H2 7051   3.500   2.419   0.557
 2349TIP3   OH2 7052   3.757   0.742   3.414
 2349TIP3    H1 7053   3.720   0.664   3.373
 2349TIP3    H2 7054   3.735   0.813   3.354
 2350TIP3   OH2 7055   6.318   2.975   1.221
 2350TIP3    H1 7056   6.228   3.002   1.235
 2350TIP3    H2 7057   6.326   2.963   1.127
 2351TIP3   OH2 7058   4.521   0.654   2.092
 2351TIP3    H1 7059   4.606   0.681   2.126
 2351TIP3    H2 7060   4.539   0.623   2.003
 2352TIP3   OH2 7061   1.030   3.198   3.735
 2352TIP3    H1 7062   0.963   3.131   3.732
 2352TIP3    H2 7063   1.070   3.189   3.822
 2353TIP3   OH2 7064   3.015   5.487   4.867
 2353TIP3    H1 7065   2.926   5.479   4.901
 2353TIP3    H2 7066   3.014   5.438   4.785
 2354TIP3   OH2 7067   0.112   2.658   4.671
 2354TIP3    H1 7068   0.153   2.678   4.755
 2354TIP3    H2 7069   0.075   2.741   4.643
 2355TIP3   OH2 7070   6.149   3.481   4.126
 2355TIP3    H1 7071   6.229   3.534   4.137
 2355TIP3    H2 7072   6.158   3.442   4.039
 2356TIP3   OH2 7073   3.775   0.451   3.081
 2356TIP3    H1 7074   3.854   0.454   3.027
 2356TIP3    H2 7075   3.796   0.390   3.152
 2357TIP3   OH2 7076   0.903   3.723   1.585
 2357TIP3    H1 7077   0.912   3.638   1.540
 2357TIP3    H2 7078   0.879   3.784   1.515
 2358TIP3   OH2 7079   0.356   0.571   2.389
 2358TIP3    H1 7080   0.411   0.592   2.313
 2358TIP3    H2 7081   0.413   0.588   2.464
 2359TIP3   OH2 7082   0.441   4.260   2.588
 2359TIP3    H1 7083   0.368   4.218   2.633
 2359TIP3    H2 7084   0.421   4.249   2.495
 2360TIP3   OH2 7085   5.415   2.766   4.367
 2360TIP3    H1 7086   5.337   2.733   4.323
 2360TIP3    H2 7087   5.438   2.698   4.430
 2361TIP3   OH2 7088   5.712   1.181   3.138
 2361TIP3    H1 7089   5.691   1.172   3.044
 2361TIP3    H2 7090   5.805   1.204   3.140
 2362TIP3   OH2 7091   3.901   4.868   2.508
 2362TIP3    H1 7092   3.906   4.811   2.585
 2362TIP3    H2 7093   3.822   4.919   2.520
 2363TIP3   OH2 7094   5.575   4.884   4.577
 2363TIP3    H1 7095   5.624   4.894   4.495
 2363TIP3    H2 7096   5.640   4.850   4.639
 2364TIP3   OH2 7097   3.207   2.991   2.040
 2364TIP3    H1 7098   3.285   2.935   2.046
 2364TIP3    H2 7099   3.161   2.978   2.123
 2365TIP3   OH2 7100   3.067   2.167   1.786
 2365TIP3    H1 7101   3.027   2.252   1.770
 2365TIP3    H2 7102   3.139   2.184   1.847
 2366TIP3   OH2 7103   1.504   5.282   2.119
 2366TIP3    H1 7104   1.510   5.334   2.039
 2366TIP3    H2 7105   1.451   5.206   2.094
 2367TIP3   OH2 7106   0.144   2.224   0.053
 2367TIP3    H1 7107   0.104   2.210  -0.032
 2367TIP3    H2 7108   0.192   2.143   0.071
 2368TIP3   OH2 7109   6.064   4.292   3.156
 2368TIP3    H1 7110   6.003   4.232   3.113
 2368TIP3    H2 7111   6.119   4.325   3.085
 2369TIP3   OH2 7112   4.448   4.178   4.409
 2369TIP3    H1 7113   4.404   4.214   4.332
 2369TIP3    H2 7114   4.397   4.100   4.431
 2370TIP3   OH2 7115   3.206   5.019   2.858
 2370TIP3    H1 7116   3.154   5.049   2.932
 2370TIP3    H2 7117   3.260   5.094   2.833
 2371TIP3   OH2 7118   5.447   3.398   0.629
 2371TIP3    H1 7119   5.482   3.470   0.683
 2371TIP3    H2 7120   5.352   3.404   0.641
 2372TIP3   OH2 7121   4.610   1.797   0.795
 2372TIP3    H1 7122   4.529   1.760   0.831
 2372TIP3    H2 7123   4.585   1.885   0.767
 2373TIP3   OH2 7124   2.092   0.707   3.542
 2373TIP3    H1 7125   2.067   0.672   3.457
 2373TIP3    H2 7126   2.124   0.631   3.591
 2374TIP3   OH2 7127   4.213   3.948   3.420
 2374TIP3    H1 7128   4.286   3.887   3.411
 2374TIP3    H2 7129   4.173   3.951   3.333
 2375TIP3   OH2 7130   3.445   0.074   1.530
 2375TIP3    H1 7131   3.517   0.065   1.467
 2375TIP3    H2 7132   3.375   0.019   1.494
 2376TIP3   OH2 7133   4.746   1.049   3.153
 2376TIP3    H1 7134   4.783   1.133   3.125
 2376TIP3    H2 7135   4.713   1.066   3.241
 2377TIP3   OH2 7136   2.280   0.091   1.755
 2377TIP3    H1 7137   2.326   0.019   1.712
 2377TIP3    H2 7138   2.188   0.079   1.732
 2378TIP3   OH2 7139   2.785   3.579   3.542
 2378TIP3    H1 7140   2.787   3.495   3.495
 2378TIP3    H2 7141   2.745   3.640   3.480
 2379TIP3   OH2 7142   5.413   5.236   2.597
 2379TIP3    H1 7143   5.367   5.215   2.679
 2379TIP3    H2 7144   5.387   5.326   2.577
 2380TIP3   OH2 7145   3.874   5.202   3.982
 2380TIP3    H1 7146   3.785   5.177   4.005
 2380TIP3    H2 7147   3.911   5.238   4.062
 2381TIP3   OH2 7148   2.498   1.656   2.886
 2381TIP3    H1 7149   2.586   1.658   2.925
 2381TIP3    H2 7150   2.442   1.695   2.953
 2382TIP3   OH2 7151   2.615   1.173   4.615
 2382TIP3    H1 7152   2.620   1.077   4.616
 2382TIP3    H2 7153   2.662   1.199   4.536
 2383TIP3   OH2 7154   6.056   1.238   1.710
 2383TIP3    H1 7155   6.140   1.275   1.681
 2383TIP3    H2 7156   6.070   1.143   1.707
 2384TIP3   OH2 7157   5.891   1.493   4.356
 2384TIP3    H1 7158   5.953   1.522   4.289
 2384TIP3    H2 7159   5.810   1.540   4.335
 2385TIP3   OH2 7160   3.347   3.234   1.334
 2385TIP3    H1 7161   3.350   3.274   1.247
 2385TIP3    H2 7162   3.385   3.147   1.323
 2386TIP3   OH2 7163   2.693   3.306   4.040
 2386TIP3    H1 7164   2.662   3.256   3.965
 2386TIP3    H2 7165   2.614   3.345   4.077
 2387TIP3   OH2 7166   0.041   0.177   3.765
 2387TIP3    H1 7167  -0.039   0.215   3.801
 2387TIP3    H2 7168   0.031   0.083   3.777
 2388TIP3   OH2 7169   3.312   4.740   5.064
 2388TIP3    H1 7170   3.318   4.694   4.980
 2388TIP3    H2 7171   3.218   4.751   5.079
 2389TIP3   OH2 7172   2.590   5.163   4.545
 2389TIP3    H1 7173   2.569   5.165   4.451
 2389TIP3    H2 7174   2.685   5.151   4.548
 2390TIP3   OH2 7175   0.346   4.211   3.301
 2390TIP3    H1 7176   0.274   4.171   3.252
 2390TIP3    H2 7177   0.344   4.303   3.276
 2391TIP3   OH2 7178   4.693   1.845   2.711
 2391TIP3    H1 7179   4.598   1.854   2.707
 2391TIP3    H2 7180   4.708   1.788   2.786
 2392TIP3   OH2 7181   5.623   1.470   4.269
 2392TIP3    H1 7182   5.586   1.452   4.355
 2392TIP3    H2 7183   5.669   1.390   4.245
 2393TIP3   OH2 7184   2.833   1.069   3.050
 2393TIP3    H1 7185   2.752   1.029   3.019
 2393TIP3    H2 7186   2.890   0.995   3.072
 2394TIP3   OH2 7187   3.313   3.088   2.347
 2394TIP3    H1 7188   3.246   3.070   2.412
 2394TIP3    H2 7189   3.315   3.010   2.292
 2395TIP3   OH2 7190   0.985   1.597   1.003
 2395TIP3    H1 7191   1.000   1.625   1.094
 2395TIP3    H2 7192   1.032   1.515   0.995
 2396TIP3   OH2 7193   5.850   3.420   3.956
 2396TIP3    H1 7194   5.896   3.457   3.880
 2396TIP3    H2 7195   5.843   3.493   4.017
 2397TIP3   OH2 7196   6.066   4.038   0.499
 2397TIP3    H1 7197   6.066   3.948   0.531
 2397TIP3    H2 7198   6.086   4.030   0.405
 2398TIP3   OH2 7199   0.179   0.387   2.747
 2398TIP3    H1 7200   0.166   0.371   2.653
 2398TIP3    H2 7201   0.265   0.429   2.752
 2399TIP3   OH2 7202   5.371   4.052   4.957
 2399TIP3    H1 7203   5.285   4.021   4.928
 2399TIP3    H2 7204   5.366   4.051   5.053
 2400TIP3   OH2 7205   4.750   3.475   2.781
 2400TIP3    H1 7206   4.839   3.439   2.779
 2400TIP3    H2 7207   4.695   3.401   2.754
 2401TIP3   OH2 7208   4.961   3.335   3.885
 2401TIP3    H1 7209   5.041   3.297   3.922
 2401TIP3    H2 7210   4.985   3.359   3.795
 2402TIP3   OH2 7211   3.393   2.579   0.279
 2402TIP3    H1 7212   3.331   2.571   0.207
 2402TIP3    H2 7213   3.465   2.632   0.242
 2403TIP3   OH2 7214   2.246   3.144   4.486
 2403TIP3    H1 7215   2.284   3.080   4.425
 2403TIP3    H2 7216   2.235   3.223   4.434
 2404TIP3   OH2 7217   1.642   5.522   2.185
 2404TIP3    H1 7218   1.591   5.447   2.156
 2404TIP3    H2 7219   1.663   5.570   2.105
 2405TIP3   OH2 7220   2.214   0.402   0.244
 2405TIP3    H1 7221   2.172   0.366   0.322
 2405TIP3    H2 7222   2.172   0.487   0.232
 2406TIP3   OH2 7223   2.807   5.008   2.180
 2406TIP3    H1 7224   2.853   4.959   2.248
 2406TIP3    H2 7225   2.846   5.096   2.183
 2407TIP3   OH2 7226   6.310   3.512   0.481
 2407TIP3    H1 7227   6.288   3.518   0.574
 2407TIP3    H2 7228   6.391   3.561   0.473
 2408TIP3   OH2 7229   0.149   2.232   0.806
 2408TIP3    H1 7230   0.202   2.311   0.790
 2408TIP3    H2 7231   0.059   2.260   0.789
 2409TIP3   OH2 7232   2.851   5.498   2.292
 2409TIP3    H1 7233   2.879   5.585   2.264
 2409TIP3    H2 7234   2.775   5.478   2.237
 2410TIP3   OH2 7235   3.531   5.973   2.825
 2410TIP3    H1 7236   3.483   5.964   2.742
 2410TIP3    H2 7237   3.536   5.883   2.859
 2411TIP3   OH2 7238   1.698   5.219   3.575
 2411TIP3    H1 7239   1.731   5.305   3.601
 2411TIP3    H2 7240   1.631   5.198   3.640
 2412TIP3   OH2 7241   3.135   1.733   4.881
 2412TIP3    H1 7242   3.081   1.810   4.861
 2412TIP3    H2 7243   3.079   1.678   4.934
 2413TIP3   OH2 7244   0.510   3.316   3.526
 2413TIP3    H1 7245   0.578   3.380   3.505
 2413TIP3    H2 7246   0.545   3.269   3.602
 2414TIP3   OH2 7247   4.729   2.745   0.303
 2414TIP3    H1 7248   4.783   2.697   0.366
 2414TIP3    H2 7249   4.712   2.682   0.233
 2415TIP3   OH2 7250   1.080   5.021   2.513
 2415TIP3    H1 7251   1.098   4.982   2.428
 2415TIP3    H2 7252   1.013   4.965   2.552
 2416TIP3   OH2 7253   4.710   0.407   3.514
 2416TIP3    H1 7254   4.737   0.386   3.604
 2416TIP3    H2 7255   4.691   0.500   3.515
 2417TIP3   OH2 7256   1.260   5.026   3.133
 2417TIP3    H1 7257   1.214   5.110   3.132
 2417TIP3    H2 7258   1.282   5.012   3.225
 2418TIP3   OH2 7259   3.428   1.110   3.480
 2418TIP3    H1 7260   3.442   1.176   3.412
 2418TIP3    H2 7261   3.516   1.081   3.504
 2419TIP3   OH2 7262   4.421   3.750   0.059
 2419TIP3    H1 7263   4.462   3.745  -0.027
 2419TIP3    H2 7264   4.363   3.673   0.063
 2420TIP3   OH2 7265   3.875   5.934   3.173
 2420TIP3    H1 7266   3.811   5.897   3.234
 2420TIP3    H2 7267   3.844   5.909   3.086
 2421TIP3   OH2 7268   1.769   1.503   4.597
 2421TIP3    H1 7269   1.794   1.544   4.680
 2421TIP3    H2 7270   1.842   1.524   4.538
 2422TIP3   OH2 7271   4.515   2.112   3.381
 2422TIP3    H1 7272   4.606   2.127   3.406
 2422TIP3    H2 7273   4.520   2.087   3.289
 2423TIP3   OH2 7274   0.655   1.880   0.584
 2423TIP3    H1 7275   0.676   1.973   0.595
 2423TIP3    H2 7276   0.699   1.855   0.503
 2424TIP3   OH2 7277   0.509   3.772   2.690
 2424TIP3    H1 7278   0.426   3.795   2.650
 2424TIP3    H2 7279   0.495   3.787   2.784
 2425TIP3   OH2 7280   0.895   3.402   4.957
 2425TIP3    H1 7281   0.889   3.373   5.048
 2425TIP3    H2 7282   0.852   3.333   4.906
 2426TIP3   OH2 7283   0.962   3.823   2.960
 2426TIP3    H1 7284   0.908   3.845   3.036
 2426TIP3    H2 7285   0.991   3.733   2.977
 2427TIP3   OH2 7286   5.732   4.437   3.211
 2427TIP3    H1 7287   5.736   4.388   3.129
 2427TIP3    H2 7288   5.639   4.436   3.235
 2428TIP3   OH2 7289   1.645   5.551   5.179
 2428TIP3    H1 7290   1.575   5.568   5.116
 2428TIP3    H2 7291   1.725   5.553   5.128
 2429TIP3   OH2 7292   1.364   1.329   3.097
 2429TIP3    H1 7293   1.348   1.423   3.091
 2429TIP3    H2 7294   1.457   1.321   3.115
 2430TIP3   OH2 7295   2.572   2.573   4.522
 2430TIP3    H1 7296   2.625   2.645   4.557
 2430TIP3    H2 7297   2.488   2.613   4.501
 2431TIP3   OH2 7298   2.021   2.590   2.635
 2431TIP3    H1 7299   2.107   2.614   2.668
 2431TIP3    H2 7300   1.969   2.569   2.713
 2432TIP3   OH2 7301   3.472   3.614   1.249
 2432TIP3    H1 7302   3.445   3.689   1.303
 2432TIP3    H2 7303   3.525   3.560   1.307
 2433TIP3   OH2 7304   2.683   4.852   4.431
 2433TIP3    H1 7305   2.626   4.776   4.442
 2433TIP3    H2 7306   2.676   4.873   4.338
 2434TIP3   OH2 7307   0.997   1.933   1.141
 2434TIP3    H1 7308   0.906   1.909   1.126
 2434TIP3    H2 7309   1.022   1.983   1.063
 2435TIP3   OH2 7310   5.815   0.215   2.127
 2435TIP3    H1 7311   5.763   0.268   2.066
 2435TIP3    H2 7312   5.751   0.180   2.189
 2436TIP3   OH2 7313   1.788   5.206   2.439
 2436TIP3    H1 7314   1.831   5.227   2.356
 2436TIP3    H2 7315   1.703   5.250   2.434
 2437TIP3   OH2 7316   3.059   2.239   3.106
 2437TIP3    H1 7317   3.089   2.156   3.069
 2437TIP3    H2 7318   3.140   2.288   3.123
 2438TIP3   OH2 7319   0.549   3.509   4.232
 2438TIP3    H1 7320   0.574   3.422   4.262
 2438TIP3    H2 7321   0.548   3.563   4.311
 2439TIP3   OH2 7322   1.586   1.125   3.238
 2439TIP3    H1 7323   1.594   1.189   3.308
 2439TIP3    H2 7324   1.623   1.168   3.161
 2440TIP3   OH2 7325   3.475   0.062   2.863
 2440TIP3    H1 7326   3.425   0.051   2.944
 2440TIP3    H2 7327   3.534  -0.013   2.860
 2441TIP3   OH2 7328   1.046   0.387   5.162
 2441TIP3    H1 7329   1.016   0.471   5.127
 2441TIP3    H2 7330   1.022   0.390   5.254
 2442TIP3   OH2 7331   2.339   5.656   1.759
 2442TIP3    H1 7332   2.418   5.707   1.745
 2442TIP3    H2 7333   2.347   5.582   1.699
 2443TIP3   OH2 7334   6.227   4.429   4.638
 2443TIP3    H1 7335   6.272   4.427   4.723
 2443TIP3    H2 7336   6.207   4.337   4.619
 2444TIP3   OH2 7337   0.394   3.732   3.979
 2444TIP3    H1 7338   0.333   3.725   4.052
 2444TIP3    H2 7339   0.480   3.715   4.017
 2445TIP3   OH2 7340   3.640   1.884   1.955
 2445TIP3    H1 7341   3.635   1.939   2.034
 2445TIP3    H2 7342   3.593   1.933   1.888
 2446TIP3   OH2 7343   4.954   3.105   2.535
 2446TIP3    H1 7344   5.004   3.096   2.616
 2446TIP3    H2 7345   4.926   3.197   2.535
 2447TIP3   OH2 7346   1.405   5.005   4.428
 2447TIP3    H1 7347   1.396   4.922   4.383
 2447TIP3    H2 7348   1.371   4.989   4.516
 2448TIP3   OH2 7349   1.397   0.392   0.633
 2448TIP3    H1 7350   1.370   0.309   0.672
 2448TIP3    H2 7351   1.462   0.368   0.567
 2449TIP3   OH2 7352   0.211   5.216   1.251
 2449TIP3    H1 7353   0.244   5.138   1.295
 2449TIP3    H2 7354   0.177   5.184   1.167
 2450TIP3   OH2 7355   5.936   2.576   0.703
 2450TIP3    H1 7356   5.949   2.545   0.793
 2450TIP3    H2 7357   5.842   2.593   0.696
 2451TIP3   OH2 7358   4.477   3.362   3.101
 2451TIP3    H1 7359   4.470   3.404   3.187
 2451TIP3    H2 7360   4.556   3.308   3.107
 2452TIP3   OH2 7361   2.910   1.509   0.859
 2452TIP3    H1 7362   2.984   1.507   0.798
 2452TIP3    H2 7363   2.871   1.596   0.846
 2453TIP3   OH2 7364   3.429   1.757   2.830
 2453TIP3    H1 7365   3.368   1.812   2.880
 2453TIP3    H2 7366   3.375   1.718   2.762
 2454TIP3   OH2 7367   4.686   5.801   2.823
 2454TIP3    H1 7368   4.714   5.808   2.914
 2454TIP3    H2 7369   4.761   5.761   2.778
 2455TIP3   OH2 7370   1.807   1.660   0.668
 2455TIP3    H1 7371   1.852   1.664   0.583
 2455TIP3    H2 7372   1.775   1.570   0.674
 2456TIP3   OH2 7373   1.569   5.165   3.840
 2456TIP3    H1 7374   1.648   5.130   3.881
 2456TIP3    H2 7375   1.537   5.231   3.901
 2457TIP3   OH2 7376   2.622   2.797   1.165
 2457TIP3    H1 7377   2.563   2.840   1.227
 2457TIP3    H2 7378   2.590   2.707   1.161
 2458TIP3   OH2 7379   5.856   0.068   1.545
 2458TIP3    H1 7380   5.789   0.005   1.518
 2458TIP3    H2 7381   5.914   0.074   1.469
 2459TIP3   OH2 7382   2.958   1.918   2.320
 2459TIP3    H1 7383   2.890   1.889   2.380
 2459TIP3    H2 7384   2.923   1.900   2.233
 2460TIP3   OH2 7385   6.342   1.122   0.456
 2460TIP3    H1 7386   6.326   1.216   0.459
 2460TIP3    H2 7387   6.363   1.098   0.546
 2461TIP3   OH2 7388   3.280   1.086   3.967
 2461TIP3    H1 7389   3.333   1.009   3.987
 2461TIP3    H2 7390   3.264   1.080   3.873
 2462TIP3   OH2 7391   4.280   2.158   4.985
 2462TIP3    H1 7392   4.275   2.251   4.964
 2462TIP3    H2 7393   4.369   2.144   5.016
 2463TIP3   OH2 7394   1.695   5.653   0.956
 2463TIP3    H1 7395   1.772   5.706   0.933
 2463TIP3    H2 7396   1.730   5.566   0.975
 2464TIP3   OH2 7397   4.421   0.852   0.884
 2464TIP3    H1 7398   4.468   0.934   0.869
 2464TIP3    H2 7399   4.329   0.877   0.891
 2465TIP3   OH2 7400   3.941   4.386   2.367
 2465TIP3    H1 7401   3.890   4.305   2.368
 2465TIP3    H2 7402   3.900   4.441   2.434
 2466TIP3   OH2 7403   2.807   2.853   2.439
 2466TIP3    H1 7404   2.872   2.783   2.442
 2466TIP3    H2 7405   2.803   2.879   2.347
 2467TIP3   OH2 7406   1.542   0.853   1.042
 2467TIP3    H1 7407   1.450   0.870   1.063
 2467TIP3    H2 7408   1.554   0.889   0.954
 2468TIP3   OH2 7409   5.358   2.468   0.875
 2468TIP3    H1 7410   5.329   2.543   0.823
 2468TIP3    H2 7411   5.422   2.423   0.819
 2469TIP3   OH2 7412   0.824   0.852   2.376
 2469TIP3    H1 7413   0.811   0.935   2.329
 2469TIP3    H2 7414   0.839   0.879   2.467
 2470TIP3   OH2 7415   4.022   0.827   0.973
 2470TIP3    H1 7416   4.066   0.855   1.054
 2470TIP3    H2 7417   3.970   0.903   0.947
 2471TIP3   OH2 7418   0.963   2.980   4.767
 2471TIP3    H1 7419   1.049   2.942   4.751
 2471TIP3    H2 7420   0.933   2.937   4.848
 2472TIP3   OH2 7421   1.269   1.575   0.882
 2472TIP3    H1 7422   1.247   1.502   0.940
 2472TIP3    H2 7423   1.354   1.605   0.912
 2473TIP3   OH2 7424   5.242   4.813   3.411
 2473TIP3    H1 7425   5.182   4.740   3.423
 2473TIP3    H2 7426   5.200   4.887   3.456
 2474TIP3   OH2 7427   5.201   0.714   1.952
 2474TIP3    H1 7428   5.231   0.627   1.927
 2474TIP3    H2 7429   5.282   0.764   1.966
 2475TIP3   OH2 7430   5.127   4.611   0.822
 2475TIP3    H1 7431   5.080   4.694   0.825
 2475TIP3    H2 7432   5.116   4.574   0.910
 2476TIP3   OH2 7433   4.007   3.934   1.824
 2476TIP3    H1 7434   3.997   3.884   1.743
 2476TIP3    H2 7435   4.069   4.004   1.801
 2477TIP3   OH2 7436   3.844   0.226   2.846
 2477TIP3    H1 7437   3.928   0.273   2.847
 2477TIP3    H2 7438   3.849   0.166   2.920
 2478TIP3   OH2 7439   5.668   0.396   4.480
 2478TIP3    H1 7440   5.598   0.414   4.542
 2478TIP3    H2 7441   5.638   0.434   4.398
 2479TIP3   OH2 7442   3.389   3.780   2.403
 2479TIP3    H1 7443   3.437   3.734   2.334
 2479TIP3    H2 7444   3.389   3.721   2.477
 2480TIP3   OH2 7445   3.500   4.749   3.890
 2480TIP3    H1 7446   3.557   4.688   3.843
 2480TIP3    H2 7447   3.452   4.695   3.952
 2481TIP3   OH2 7448   6.149   5.797   1.607
 2481TIP3    H1 7449   6.078   5.816   1.668
 2481TIP3    H2 7450   6.143   5.865   1.540
 2482TIP3   OH2 7451   6.231   4.396   2.941
 2482TIP3    H1 7452   6.325   4.395   2.955
 2482TIP3    H2 7453   6.215   4.473   2.887
 2483TIP3   OH2 7454   6.080   1.412   4.108
 2483TIP3    H1 7455   6.099   1.506   4.099
 2483TIP3    H2 7456   6.063   1.383   4.018
 2484TIP3   OH2 7457   4.825   0.372   4.822
 2484TIP3    H1 7458   4.787   0.425   4.752
 2484TIP3    H2 7459   4.749   0.342   4.873
 2485TIP3   OH2 7460   3.513   5.389   1.560
 2485TIP3    H1 7461   3.557   5.325   1.615
 2485TIP3    H2 7462   3.425   5.397   1.597
 2486TIP3   OH2 7463   6.073   0.150   3.574
 2486TIP3    H1 7464   6.149   0.209   3.575
 2486TIP3    H2 7465   6.105   0.071   3.530
 2487TIP3   OH2 7466   1.028   4.426   0.389
 2487TIP3    H1 7467   1.017   4.416   0.294
 2487TIP3    H2 7468   0.972   4.501   0.411
 2488TIP3   OH2 7469   5.800   3.094   0.883
 2488TIP3    H1 7470   5.863   3.166   0.886
 2488TIP3    H2 7471   5.746   3.113   0.807
 2489TIP3   OH2 7472   0.116   3.085   4.224
 2489TIP3    H1 7473   0.156   3.009   4.266
 2489TIP3    H2 7474   0.186   3.150   4.221
 2490TIP3   OH2 7475   3.806   6.000   1.166
 2490TIP3    H1 7476   3.812   5.978   1.073
 2490TIP3    H2 7477   3.825   5.917   1.211
 2491TIP3   OH2 7478   5.958   0.861   0.481
 2491TIP3    H1 7479   5.882   0.828   0.433
 2491TIP3    H2 7480   6.026   0.795   0.464
 2492TIP3   OH2 7481   5.589   3.514   4.724
 2492TIP3    H1 7482   5.512   3.510   4.668
 2492TIP3    H2 7483   5.657   3.467   4.676
 2493TIP3   OH2 7484   6.255   0.841   1.614
 2493TIP3    H1 7485   6.251   0.830   1.519
 2493TIP3    H2 7486   6.190   0.779   1.648
 2494TIP3   OH2 7487   2.713   4.059   1.465
 2494TIP3    H1 7488   2.635   4.093   1.508
 2494TIP3    H2 7489   2.683   3.982   1.417
 2495TIP3   OH2 7490   5.250   5.222   2.839
 2495TIP3    H1 7491   5.240   5.233   2.933
 2495TIP3    H2 7492   5.168   5.253   2.802
 2496TIP3   OH2 7493   0.305   4.875   0.311
 2496TIP3    H1 7494   0.368   4.937   0.275
 2496TIP3    H2 7495   0.293   4.810   0.241
 2497TIP3   OH2 7496   3.331   2.313   2.193
 2497TIP3    H1 7497   3.268   2.249   2.226
 2497TIP3    H2 7498   3.365   2.355   2.272
 2498TIP3   OH2 7499   2.739   0.216   4.233
 2498TIP3    H1 7500   2.785   0.156   4.174
 2498TIP3    H2 7501   2.647   0.208   4.207
 2499TIP3   OH2 7502   2.238   1.384   2.737
 2499TIP3    H1 7503   2.239   1.480   2.738
 2499TIP3    H2 7504   2.149   1.361   2.762
 2500TIP3   OH2 7505   2.099   5.292   3.847
 2500TIP3    H1 7506   2.175   5.345   3.825
 2500TIP3    H2 7507   2.134   5.205   3.865
 2501TIP3   OH2 7508   3.448   4.080   4.735
 2501TIP3    H1 7509   3.409   3.993   4.738
 2501TIP3    H2 7510   3.474   4.091   4.643
 2502TIP3   OH2 7511   6.109   3.546   1.066
 2502TIP3    H1 7512   6.188   3.559   1.118
 2502TIP3    H2 7513   6.098   3.628   1.017
 2503TIP3   OH2 7514   4.507   1.836   3.868
 2503TIP3    H1 7515   4.436   1.873   3.816
 2503TIP3    H2 7516   4.586   1.858   3.820
 2504TIP3   OH2 7517   0.712   4.187   3.159
 2504TIP3    H1 7518   0.664   4.186   3.076
 2504TIP3    H2 7519   0.653   4.231   3.220
 2505TIP3   OH2 7520   5.086   3.948   4.148
 2505TIP3    H1 7521   5.058   3.943   4.056
 2505TIP3    H2 7522   5.036   3.880   4.192
 2506TIP3   OH2 7523   1.176   3.956   3.898
 2506TIP3    H1 7524   1.107   3.903   3.859
 2506TIP3    H2 7525   1.178   3.929   3.990
 2507TIP3   OH2 7526   2.987   5.114   1.560
 2507TIP3    H1 7527   2.979   5.151   1.648
 2507TIP3    H2 7528   3.074   5.139   1.531
 2508TIP3   OH2 7529   5.867   1.680   1.474
 2508TIP3    H1 7530   5.937   1.636   1.426
 2508TIP3    H2 7531   5.866   1.638   1.560
 2509TIP3   OH2 7532   1.856   2.749   3.753
 2509TIP3    H1 7533   1.940   2.713   3.723
 2509TIP3    H2 7534   1.796   2.735   3.680
 2510TIP3   OH2 7535   2.005   2.168   0.195
 2510TIP3    H1 7536   2.061   2.225   0.248
 2510TIP3    H2 7537   2.026   2.192   0.104
 2511TIP3   OH2 7538   3.066   2.394   2.542
 2511TIP3    H1 7539   3.011   2.318   2.561
 2511TIP3    H2 7540   3.148   2.377   2.589
 2512TIP3   OH2 7541   3.908   5.834   1.380
 2512TIP3    H1 7542   3.961   5.868   1.451
 2512TIP3    H2 7543   3.856   5.765   1.420
 2513TIP3   OH2 7544   1.648   3.423   2.134
 2513TIP3    H1 7545   1.562   3.453   2.103
 2513TIP3    H2 7546   1.665   3.343   2.084
 2514TIP3   OH2 7547   6.150   1.880   4.650
 2514TIP3    H1 7548   6.224   1.820   4.660
 2514TIP3    H2 7549   6.188   1.967   4.666
 2515TIP3   OH2 7550   5.726   3.898   4.463
 2515TIP3    H1 7551   5.765   3.897   4.375
 2515TIP3    H2 7552   5.687   3.985   4.471
 2516TIP3   OH2 7553   1.213   1.512   1.603
 2516TIP3    H1 7554   1.239   1.562   1.680
 2516TIP3    H2 7555   1.288   1.520   1.543
 2517TIP3   OH2 7556   2.474   0.178   2.665
 2517TIP3    H1 7557   2.481   0.158   2.758
 2517TIP3    H2 7558   2.423   0.105   2.629
 2518TIP3   OH2 7559   3.323   1.624   4.255
 2518TIP3    H1 7560   3.408   1.645   4.292
 2518TIP3    H2 7561   3.333   1.536   4.219
 2519TIP3   OH2 7562   2.076   2.610   0.466
 2519TIP3    H1 7563   1.983   2.600   0.444
 2519TIP3    H2 7564   2.115   2.651   0.388
 2520TIP3   OH2 7565   1.856   0.977   4.097
 2520TIP3    H1 7566   1.896   0.890   4.096
 2520TIP3    H2 7567   1.777   0.966   4.151
 2521TIP3   OH2 7568   1.269   4.860   3.640
 2521TIP3    H1 7569   1.258   4.935   3.698
 2521TIP3    H2 7570   1.253   4.783   3.696
 2522TIP3   OH2 7571   0.172   1.200   4.419
 2522TIP3    H1 7572   0.162   1.105   4.422
 2522TIP3    H2 7573   0.083   1.235   4.427
 2523TIP3   OH2 7574   5.463   4.239   0.243
 2523TIP3    H1 7575   5.397   4.195   0.297
 2523TIP3    H2 7576   5.496   4.309   0.298
 2524TIP3   OH2 7577   4.951   3.932   3.615
 2524TIP3    H1 7578   4.958   4.005   3.677
 2524TIP3    H2 7579   4.882   3.959   3.554
 2525TIP3   OH2 7580   0.711   1.749   2.082
 2525TIP3    H1 7581   0.629   1.724   2.125
 2525TIP3    H2 7582   0.756   1.803   2.147
 2526TIP3   OH2 7583   1.371   1.509   5.095
 2526TIP3    H1 7584   1.348   1.417   5.080
 2526TIP3    H2 7585   1.438   1.527   5.028
 2527TIP3   OH2 7586   3.095   2.919   2.712
 2527TIP3    H1 7587   3.097   2.826   2.688
 2527TIP3    H2 7588   3.165   2.928   2.777
 2528TIP3   OH2 7589   0.141   5.560   0.263
 2528TIP3    H1 7590   0.114   5.644   0.299
 2528TIP3    H2 7591   0.065   5.529   0.213
 2529TIP3   OH2 7592   2.452   3.097  -0.004
 2529TIP3    H1 7593   2.526   3.062  -0.055
 2529TIP3    H2 7594   2.473   3.074   0.087
 2530TIP3   OH2 7595   1.998   3.323   1.303
 2530TIP3    H1 7596   2.018   3.365   1.220
 2530TIP3    H2 7597   1.953   3.242   1.279
 2531TIP3   OH2 7598   1.084   0.265   2.331
 2531TIP3    H1 7599   1.129   0.310   2.403
 2531TIP3    H2 7600   1.047   0.186   2.371
 2532TIP3   OH2 7601   2.995   4.940   1.338
 2532TIP3    H1 7602   3.047   4.860   1.333
 2532TIP3    H2 7603   3.003   4.968   1.429
 2533TIP3   OH2 7604   1.836   4.950   4.212
 2533TIP3    H1 7605   1.770   4.988   4.270
 2533TIP3    H2 7606   1.889   4.895   4.269
 2534TIP3   OH2 7607   4.951   1.426   0.620
 2534TIP3    H1 7608   4.897   1.352   0.651
 2534TIP3    H2 7609   4.973   1.474   0.699
 2535TIP3   OH2 7610   3.570   1.566   4.697
 2535TIP3    H1 7611   3.615   1.561   4.781
 2535TIP3    H2 7612   3.503   1.633   4.709
 2536TIP3   OH2 7613   5.680   5.299   3.006
 2536TIP3    H1 7614   5.741   5.289   3.079
 2536TIP3    H2 7615   5.642   5.386   3.019
 2537TIP3   OH2 7616   4.128   0.857   1.571
 2537TIP3    H1 7617   4.035   0.876   1.569
 2537TIP3    H2 7618   4.136   0.772   1.528
 2538TIP3   OH2 7619   3.620   5.088   1.629
 2538TIP3    H1 7620   3.712   5.063   1.628
 2538TIP3    H2 7621   3.572   5.009   1.603
 2539TIP3   OH2 7622   4.328   1.367   2.613
 2539TIP3    H1 7623   4.317   1.282   2.656
 2539TIP3    H2 7624   4.265   1.366   2.541
 2540TIP3   OH2 7625   2.322   3.637   0.126
 2540TIP3    H1 7626   2.249   3.575   0.127
 2540TIP3    H2 7627   2.286   3.715   0.084
 2541TIP3   OH2 7628   0.646   5.053   1.008
 2541TIP3    H1 7629   0.647   5.139   0.964
 2541TIP3    H2 7630   0.722   5.008   0.971
 2542TIP3   OH2 7631   2.116   2.012   3.441
 2542TIP3    H1 7632   2.152   2.067   3.510
 2542TIP3    H2 7633   2.074   1.939   3.486
 2543TIP3   OH2 7634   4.853   2.691   2.578
 2543TIP3    H1 7635   4.934   2.640   2.576
 2543TIP3    H2 7636   4.785   2.627   2.600
 2544TIP3   OH2 7637   3.969   5.053   3.752
 2544TIP3    H1 7638   4.062   5.051   3.774
 2544TIP3    H2 7639   3.928   5.102   3.823
 2545TIP3   OH2 7640   4.349   1.111   4.272
 2545TIP3    H1 7641   4.440   1.082   4.266
 2545TIP3    H2 7642   4.353   1.194   4.319
 2546TIP3   OH2 7643   6.127   3.256   2.946
 2546TIP3    H1 7644   6.178   3.285   2.869
 2546TIP3    H2 7645   6.037   3.252   2.914
 2547TIP3   OH2 7646   2.148   3.132   0.742
 2547TIP3    H1 7647   2.214   3.100   0.681
 2547TIP3    H2 7648   2.102   3.054   0.772
 2548TIP3   OH2 7649   2.076   4.099   0.038
 2548TIP3    H1 7650   2.102   4.183   0.077
 2548TIP3    H2 7651   2.070   4.117  -0.056
 2549TIP3   OH2 7652   1.792   4.909   0.722
 2549TIP3    H1 7653   1.841   4.893   0.642
 2549TIP3    H2 7654   1.713   4.857   0.713
 2550TIP3   OH2 7655   3.365   0.590   4.519
 2550TIP3    H1 7656   3.314   0.649   4.575
 2550TIP3    H2 7657   3.387   0.643   4.442
 2551TIP3   OH2 7658   2.136   5.871   2.725
 2551TIP3    H1 7659   2.224   5.885   2.760
 2551TIP3    H2 7660   2.078   5.915   2.787
 2552TIP3   OH2 7661   0.829   4.001   0.480
 2552TIP3    H1 7662   0.812   4.055   0.403
 2552TIP3    H2 7663   0.813   4.059   0.555
 2553TIP3   OH2 7664   1.351   4.526   0.273
 2553TIP3    H1 7665   1.411   4.455   0.248
 2553TIP3    H2 7666   1.264   4.490   0.259
 2554TIP3   OH2 7667   5.764   5.137   1.630
 2554TIP3    H1 7668   5.799   5.067   1.575
 2554TIP3    H2 7669   5.740   5.093   1.712
 2555TIP3   OH2 7670   0.543   4.066   0.424
 2555TIP3    H1 7671   0.567   4.126   0.495
 2555TIP3    H2 7672   0.571   4.110   0.344
 2556TIP3   OH2 7673   5.096   4.963   2.995
 2556TIP3    H1 7674   5.133   5.037   2.946
 2556TIP3    H2 7675   5.173   4.914   3.024
 2557TIP3   OH2 7676   1.482   3.083   2.200
 2557TIP3    H1 7677   1.490   3.055   2.109
 2557TIP3    H2 7678   1.500   3.004   2.251
 2558TIP3   OH2 7679   3.059   2.795   1.750
 2558TIP3    H1 7680   3.111   2.795   1.831
 2558TIP3    H2 7681   3.121   2.822   1.682
 2559TIP3   OH2 7682   5.374   0.555   1.752
 2559TIP3    H1 7683   5.402   0.624   1.812
 2559TIP3    H2 7684   5.371   0.598   1.667
 2560TIP3   OH2 7685   0.583   3.483   1.196
 2560TIP3    H1 7686   0.503   3.513   1.152
 2560TIP3    H2 7687   0.577   3.519   1.284
 2561TIP3   OH2 7688   1.574   0.343   1.121
 2561TIP3    H1 7689   1.503   0.406   1.115
 2561TIP3    H2 7690   1.649   0.388   1.083
 2562TIP3   OH2 7691   5.217   1.225   4.272
 2562TIP3    H1 7692   5.214   1.130   4.282
 2562TIP3    H2 7693   5.153   1.244   4.203
 2563TIP3   OH2 7694   4.460   0.881   1.814
 2563TIP3    H1 7695   4.521   0.886   1.888
 2563TIP3    H2 7696   4.468   0.967   1.771
 2564TIP3   OH2 7697   3.662   4.037   3.715
 2564TIP3    H1 7698   3.733   4.006   3.659
 2564TIP3    H2 7699   3.669   3.986   3.795
 2565TIP3   OH2 7700   3.267   5.536   5.007
 2565TIP3    H1 7701   3.203   5.552   4.939
 2565TIP3    H2 7702   3.216   5.505   5.082
 2566TIP3   OH2 7703   4.591   0.836   3.083
 2566TIP3    H1 7704   4.536   0.868   3.155
 2566TIP3    H2 7705   4.666   0.894   3.083
 2567TIP3   OH2 7706   3.449   0.507   1.846
 2567TIP3    H1 7707   3.376   0.548   1.893
 2567TIP3    H2 7708   3.450   0.550   1.761
 2568TIP3   OH2 7709   2.110   0.438   3.728
 2568TIP3    H1 7710   2.165   0.360   3.723
 2568TIP3    H2 7711   2.033   0.409   3.778
 2569TIP3   OH2 7712   5.850   4.975   4.540
 2569TIP3    H1 7713   5.855   4.915   4.466
 2569TIP3    H2 7714   5.846   4.919   4.617
 2570TIP3   OH2 7715   2.359   4.868   1.302
 2570TIP3    H1 7716   2.316   4.909   1.227
 2570TIP3    H2 7717   2.451   4.892   1.294
 2571TIP3   OH2 7718   2.158   4.569   3.583
 2571TIP3    H1 7719   2.253   4.574   3.576
 2571TIP3    H2 7720   2.142   4.554   3.676
 2572TIP3   OH2 7721   0.177   2.953   2.894
 2572TIP3    H1 7722   0.164   3.020   2.827
 2572TIP3    H2 7723   0.271   2.955   2.912
 2573TIP3   OH2 7724   0.069   1.819   1.594
 2573TIP3    H1 7725   0.031   1.885   1.535
 2573TIP3    H2 7726   0.099   1.870   1.669
 2574TIP3   OH2 7727   6.017   4.669   0.196
 2574TIP3    H1 7728   5.975   4.589   0.227
 2574TIP3    H2 7729   6.032   4.720   0.276
 2575TIP3   OH2 7730   0.945   5.486   4.490
 2575TIP3    H1 7731   0.926   5.534   4.410
 2575TIP3    H2 7732   1.005   5.543   4.539
 2576TIP3   OH2 7733   3.981   2.201   3.206
 2576TIP3    H1 7734   3.996   2.150   3.126
 2576TIP3    H2 7735   4.069   2.216   3.240
 2577TIP3   OH2 7736   2.291   0.407   4.340
 2577TIP3    H1 7737   2.253   0.339   4.395
 2577TIP3    H2 7738   2.379   0.420   4.376
 2578TIP3   OH2 7739   1.807   4.334   2.000
 2578TIP3    H1 7740   1.772   4.329   1.911
 2578TIP3    H2 7741   1.866   4.259   2.007
 2579TIP3   OH2 7742   0.902   2.358   0.038
 2579TIP3    H1 7743   0.944   2.443   0.053
 2579TIP3    H2 7744   0.953   2.317  -0.032
 2580TIP3   OH2 7745   3.582   2.353   2.704
 2580TIP3    H1 7746   3.610   2.355   2.795
 2580TIP3    H2 7747   3.656   2.315   2.656
 2581TIP3   OH2 7748   5.530   0.808   0.840
 2581TIP3    H1 7749   5.548   0.870   0.911
 2581TIP3    H2 7750   5.576   0.843   0.764
 2582TIP3   OH2 7751   1.883   4.889   0.244
 2582TIP3    H1 7752   1.883   4.899   0.339
 2582TIP3    H2 7753   1.800   4.845   0.225
 2583TIP3   OH2 7754   4.876   3.098   4.917
 2583TIP3    H1 7755   4.811   3.078   4.984
 2583TIP3    H2 7756   4.947   3.141   4.965
 2584TIP3   OH2 7757   2.368   1.104   2.730
 2584TIP3    H1 7758   2.337   1.194   2.731
 2584TIP3    H2 7759   2.317   1.061   2.799
 2585TIP3   OH2 7760   1.809   0.363   0.483
 2585TIP3    H1 7761   1.726   0.319   0.467
 2585TIP3    H2 7762   1.796   0.411   0.565
 2586TIP3   OH2 7763   5.031   1.570   1.229
 2586TIP3    H1 7764   4.995   1.642   1.281
 2586TIP3    H2 7765   5.082   1.613   1.161
 2587TIP3   OH2 7766   3.928   3.096   0.953
 2587TIP3    H1 7767   4.013   3.103   0.909
 2587TIP3    H2 7768   3.927   3.169   1.015
 2588TIP3   OH2 7769   5.807   2.157   3.481
 2588TIP3    H1 7770   5.854   2.074   3.488
 2588TIP3    H2 7771   5.773   2.158   3.392
 2589TIP3   OH2 7772   0.195   3.062   0.259
 2589TIP3    H1 7773   0.152   3.092   0.179
 2589TIP3    H2 7774   0.225   3.142   0.302
 2590TIP3   OH2 7775   3.138   1.487   4.602
 2590TIP3    H1 7776   3.062   1.429   4.613
 2590TIP3    H2 7777   3.131   1.517   4.511
 2591TIP3   OH2 7778   2.713   0.653   4.808
 2591TIP3    H1 7779   2.633   0.619   4.768
 2591TIP3    H2 7780   2.683   0.702   4.885
 2592TIP3   OH2 7781   1.322   5.747   2.672
 2592TIP3    H1 7782   1.361   5.664   2.646
 2592TIP3    H2 7783   1.385   5.813   2.644
 2593TIP3   OH2 7784   6.224   1.603   3.318
 2593TIP3    H1 7785   6.234   1.509   3.334
 2593TIP3    H2 7786   6.225   1.611   3.222
 2594TIP3   OH2 7787   1.414   3.178   3.736
 2594TIP3    H1 7788   1.362   3.257   3.749
 2594TIP3    H2 7789   1.483   3.204   3.675
 2595TIP3   OH2 7790   1.085   1.204   0.262
 2595TIP3    H1 7791   1.112   1.261   0.190
 2595TIP3    H2 7792   1.005   1.243   0.296
 2596TIP3   OH2 7793   3.682   3.086   3.142
 2596TIP3    H1 7794   3.661   3.155   3.079
 2596TIP3    H2 7795   3.773   3.101   3.165
 2597TIP3   OH2 7796   3.752   2.599   1.878
 2597TIP3    H1 7797   3.712   2.528   1.828
 2597TIP3    H2 7798   3.843   2.571   1.891
 2598TIP3   OH2 7799   3.246   5.628   0.825
 2598TIP3    H1 7800   3.178   5.657   0.887
 2598TIP3    H2 7801   3.272   5.541   0.857
 2599TIP3   OH2 7802   4.819   5.100   4.831
 2599TIP3    H1 7803   4.882   5.161   4.793
 2599TIP3    H2 7804   4.870   5.050   4.895
 2600TIP3   OH2 7805   2.895   4.539   3.989
 2600TIP3    H1 7806   2.892   4.475   3.918
 2600TIP3    H2 7807   2.882   4.624   3.946
 2601TIP3   OH2 7808   3.969   4.132   4.265
 2601TIP3    H1 7809   3.911   4.095   4.332
 2601TIP3    H2 7810   3.913   4.190   4.214
 2602TIP3   OH2 7811   5.153   5.715   4.912
 2602TIP3    H1 7812   5.227   5.771   4.890
 2602TIP3    H2 7813   5.157   5.706   5.008
 2603TIP3   OH2 7814   6.002   1.357   3.092
 2603TIP3    H1 7815   6.078   1.304   3.065
 2603TIP3    H2 7816   6.021   1.382   3.182
 2604TIP3   OH2 7817   0.097   2.693   4.379
 2604TIP3    H1 7818   0.096   2.676   4.473
 2604TIP3    H2 7819   0.169   2.754   4.366
 2605TIP3   OH2 7820   5.667   3.166   0.598
 2605TIP3    H1 7821   5.629   3.251   0.619
 2605TIP3    H2 7822   5.741   3.187   0.540
 2606TIP3   OH2 7823   4.712   2.727   3.250
 2606TIP3    H1 7824   4.702   2.636   3.222
 2606TIP3    H2 7825   4.636   2.772   3.213
 2607TIP3   OH2 7826   6.171   1.880   4.175
 2607TIP3    H1 7827   6.251   1.851   4.219
 2607TIP3    H2 7828   6.186   1.973   4.157
 2608TIP3   OH2 7829   2.320   4.389   4.181
 2608TIP3    H1 7830   2.313   4.306   4.134
 2608TIP3    H2 7831   2.263   4.379   4.257
 2609TIP3   OH2 7832   4.022   3.491   1.812
 2609TIP3    H1 7833   4.042   3.576   1.851
 2609TIP3    H2 7834   4.002   3.434   1.886
 2610TIP3   OH2 7835   5.592   4.276   2.203
 2610TIP3    H1 7836   5.537   4.261   2.279
 2610TIP3    H2 7837   5.626   4.189   2.180
 2611TIP3   OH2 7838   0.230   5.355   2.986
 2611TIP3    H1 7839   0.240   5.317   2.899
 2611TIP3    H2 7840   0.318   5.351   3.024
 2612TIP3   OH2 7841   6.151   3.783   0.951
 2612TIP3    H1 7842   6.091   3.858   0.954
 2612TIP3    H2 7843   6.183   3.783   0.861
 2613TIP3   OH2 7844   4.840   5.056   1.606
 2613TIP3    H1 7845   4.782   4.985   1.576
 2613TIP3    H2 7846   4.792   5.136   1.585
 2614TIP3   OH2 7847   1.414   0.105   0.714
 2614TIP3    H1 7848   1.396   0.023   0.669
 2614TIP3    H2 7849   1.466   0.080   0.790
 2615TIP3   OH2 7850   5.921   4.809   1.272
 2615TIP3    H1 7851   5.928   4.873   1.342
 2615TIP3    H2 7852   6.003   4.816   1.224
 2616TIP3   OH2 7853   1.427   3.441   1.896
 2616TIP3    H1 7854   1.429   3.353   1.861
 2616TIP3    H2 7855   1.340   3.450   1.934
 2617TIP3   OH2 7856   0.720   2.206   0.177
 2617TIP3    H1 7857   0.780   2.276   0.151
 2617TIP3    H2 7858   0.656   2.249   0.234
 2618TIP3   OH2 7859   4.401   4.224   2.740
 2618TIP3    H1 7860   4.444   4.279   2.675
 2618TIP3    H2 7861   4.357   4.157   2.689
 2619TIP3   OH2 7862   3.356   2.966   4.700
 2619TIP3    H1 7863   3.356   2.983   4.794
 2619TIP3    H2 7864   3.301   2.889   4.689
 2620TIP3   OH2 7865   1.025   3.239   0.507
 2620TIP3    H1 7866   0.994   3.271   0.592
 2620TIP3    H2 7867   1.108   3.285   0.493
 2621TIP3   OH2 7868   5.463   1.285   2.390
 2621TIP3    H1 7869   5.508   1.283   2.474
 2621TIP3    H2 7870   5.530   1.263   2.326
 2622TIP3   OH2 7871   3.896   1.870   0.979
 2622TIP3    H1 7872   3.945   1.804   0.930
 2622TIP3    H2 7873   3.821   1.891   0.923
 2623TIP3   OH2 7874   0.471   2.654   0.623
 2623TIP3    H1 7875   0.537   2.708   0.580
 2623TIP3    H2 7876   0.451   2.585   0.560
 2624TIP3   OH2 7877   0.474   1.634   4.802
 2624TIP3    H1 7878   0.483   1.540   4.788
 2624TIP3    H2 7879   0.559   1.671   4.776
 2625TIP3   OH2 7880   3.857   0.516   1.292
 2625TIP3    H1 7881   3.778   0.523   1.239
 2625TIP3    H2 7882   3.825   0.495   1.380
 2626TIP3   OH2 7883   1.900   0.600   4.677
 2626TIP3    H1 7884   1.951   0.543   4.618
 2626TIP3    H2 7885   1.824   0.546   4.702
 2627TIP3   OH2 7886   5.922   4.728  -0.055
 2627TIP3    H1 7887   5.933   4.717   0.039
 2627TIP3    H2 7888   6.011   4.727  -0.090
 2628TIP3   OH2 7889   4.375   2.159   4.095
 2628TIP3    H1 7890   4.387   2.235   4.152
 2628TIP3    H2 7891   4.464   2.135   4.070
 2629TIP3   OH2 7892   0.791   3.318   0.241
 2629TIP3    H1 7893   0.818   3.404   0.211
 2629TIP3    H2 7894   0.829   3.257   0.178
 2630TIP3   OH2 7895   2.327   0.956   4.623
 2630TIP3    H1 7896   2.332   1.036   4.570
 2630TIP3    H2 7897   2.416   0.945   4.658
 2631TIP3   OH2 7898   4.304   3.054   2.253
 2631TIP3    H1 7899   4.244   3.045   2.179
 2631TIP3    H2 7900   4.391   3.052   2.214
 2632TIP3   OH2 7901   5.065   3.543   4.401
 2632TIP3    H1 7902   5.122   3.618   4.382
 2632TIP3    H2 7903   5.104   3.502   4.478
 2633TIP3   OH2 7904   2.009   5.932   2.975
 2633TIP3    H1 7905   1.927   5.956   3.017
 2633TIP3    H2 7906   2.023   5.841   3.000
 2634TIP3   OH2 7907   6.193   4.364   2.562
 2634TIP3    H1 7908   6.170   4.273   2.543
 2634TIP3    H2 7909   6.273   4.379   2.512
 2635TIP3   OH2 7910   6.322   4.152   1.993
 2635TIP3    H1 7911   6.271   4.120   1.918
 2635TIP3    H2 7912   6.406   4.107   1.985
 2636TIP3   OH2 7913   5.341   4.395   5.205
 2636TIP3    H1 7914   5.353   4.384   5.110
 2636TIP3    H2 7915   5.427   4.418   5.238
 2637TIP3   OH2 7916   5.206   5.104   0.512
 2637TIP3    H1 7917   5.197   5.009   0.515
 2637TIP3    H2 7918   5.298   5.120   0.495
 2638TIP3   OH2 7919   4.630   3.316   4.832
 2638TIP3    H1 7920   4.707   3.371   4.846
 2638TIP3    H2 7921   4.665   3.235   4.796
 2639TIP3   OH2 7922   1.698   2.226   1.583
 2639TIP3    H1 7923   1.771   2.185   1.537
 2639TIP3    H2 7924   1.620   2.188   1.543
 2640TIP3   OH2 7925   1.685   0.409   0.719
 2640TIP3    H1 7926   1.591   0.406   0.707
 2640TIP3    H2 7927   1.712   0.317   0.725
 2641TIP3   OH2 7928   0.186   1.727   0.216
 2641TIP3    H1 7929   0.143   1.642   0.221
 2641TIP3    H2 7930   0.263   1.712   0.160
 2642TIP3   OH2 7931   2.796   4.460   4.807
 2642TIP3    H1 7932   2.743   4.440   4.730
 2642TIP3    H2 7933   2.856   4.530   4.778
 2643TIP3   OH2 7934   2.336   1.962   1.872
 2643TIP3    H1 7935   2.390   1.994   1.944
 2643TIP3    H2 7936   2.258   1.926   1.915
 2644TIP3   OH2 7937   2.093   3.099   4.140
 2644TIP3    H1 7938   2.048   3.095   4.056
 2644TIP3    H2 7939   2.023   3.103   4.205
 2645TIP3   OH2 7940   5.642   2.551   2.983
 2645TIP3    H1 7941   5.677   2.637   3.005
 2645TIP3    H2 7942   5.677   2.493   3.051
 2646TIP3   OH2 7943   5.789   2.126   3.211
 2646TIP3    H1 7944   5.772   2.094   3.122
 2646TIP3    H2 7945   5.838   2.055   3.253
 2647TIP3   OH2 7946   2.896   0.849   3.277
 2647TIP3    H1 7947   2.867   0.767   3.237
 2647TIP3    H2 7948   2.840   0.859   3.354
 2648TIP3   OH2 7949   2.317   3.540   1.753
 2648TIP3    H1 7950   2.332   3.502   1.840
 2648TIP3    H2 7951   2.241   3.493   1.719
 2649TIP3   OH2 7952   3.325   1.431   0.629
 2649TIP3    H1 7953   3.372   1.352   0.604
 2649TIP3    H2 7954   3.348   1.495   0.561
 2650TIP3   OH2 7955   0.918   4.165   1.492
 2650TIP3    H1 7956   0.934   4.186   1.584
 2650TIP3    H2 7957   0.843   4.219   1.468
 2651TIP3   OH2 7958   0.387   4.086   4.540
 2651TIP3    H1 7959   0.370   4.100   4.447
 2651TIP3    H2 7960   0.465   4.031   4.542
 2652TIP3   OH2 7961   4.251   5.577   2.193
 2652TIP3    H1 7962   4.173   5.625   2.221
 2652TIP3    H2 7963   4.322   5.641   2.199
 2653TIP3   OH2 7964   1.657   2.119   1.824
 2653TIP3    H1 7965   1.659   2.187   1.891
 2653TIP3    H2 7966   1.697   2.159   1.747
 2654TIP3   OH2 7967   3.608   4.625   2.138
 2654TIP3    H1 7968   3.578   4.558   2.199
 2654TIP3    H2 7969   3.703   4.625   2.146
 2655TIP3   OH2 7970   5.066   2.983   2.760
 2655TIP3    H1 7971   5.046   3.048   2.826
 2655TIP3    H2 7972   5.040   2.900   2.799
 2656TIP3   OH2 7973   4.409   2.416   3.461
 2656TIP3    H1 7974   4.340   2.409   3.526
 2656TIP3    H2 7975   4.382   2.489   3.405
 2657TIP3   OH2 7976   5.358   3.683   5.179
 2657TIP3    H1 7977   5.369   3.653   5.270
 2657TIP3    H2 7978   5.423   3.631   5.130
 2658TIP3   OH2 7979   1.733   1.227   4.127
 2658TIP3    H1 7980   1.809   1.226   4.186
 2658TIP3    H2 7981   1.736   1.142   4.084
 2659TIP3   OH2 7982   4.325   3.507   2.921
 2659TIP3    H1 7983   4.242   3.466   2.943
 2659TIP3    H2 7984   4.388   3.470   2.983
 2660TIP3   OH2 7985   5.810   2.779   2.262
 2660TIP3    H1 7986   5.852   2.790   2.176
 2660TIP3    H2 7987   5.844   2.695   2.294
 2661TIP3   OH2 7988   4.818   5.474   1.599
 2661TIP3    H1 7989   4.825   5.484   1.694
 2661TIP3    H2 7990   4.856   5.554   1.564
 2662TIP3   OH2 7991   4.880   4.317   1.832
 2662TIP3    H1 7992   4.889   4.386   1.898
 2662TIP3    H2 7993   4.882   4.236   1.883
 2663TIP3   OH2 7994   0.065   5.598   4.625
 2663TIP3    H1 7995   0.037   5.509   4.604
 2663TIP3    H2 7996   0.098   5.592   4.715
 2664TIP3   OH2 7997   3.688   5.186   4.661
 2664TIP3    H1 7998   3.704   5.270   4.703
 2664TIP3    H2 7999   3.597   5.166   4.682
 2665TIP3   OH2 8000   5.927   0.947   3.178
 2665TIP3    H1 8001   5.878   0.887   3.122
 2665TIP3    H2 8002   6.019   0.934   3.153
 2666TIP3   OH2 8003   3.011   1.325   0.627
 2666TIP3    H1 8004   3.106   1.314   0.630
 2666TIP3    H2 8005   2.994   1.369   0.544
 2667TIP3   OH2 8006   5.492   1.140   4.106
 2667TIP3    H1 8007   5.450   1.130   4.191
 2667TIP3    H2 8008   5.580   1.174   4.126
 2668TIP3   OH2 8009   5.710   3.817   0.558
 2668TIP3    H1 8010   5.722   3.887   0.622
 2668TIP3    H2 8011   5.733   3.737   0.605
 2669TIP3   OH2 8012   4.134   4.459   4.135
 2669TIP3    H1 8013   4.112   4.505   4.054
 2669TIP3    H2 8014   4.059   4.474   4.193
 2670TIP3   OH2 8015   4.173   3.163   3.723
 2670TIP3    H1 8016   4.221   3.239   3.692
 2670TIP3    H2 8017   4.091   3.199   3.757
 2671TIP3   OH2 8018   0.900   0.983   3.568
 2671TIP3    H1 8019   0.862   0.940   3.645
 2671TIP3    H2 8020   0.876   1.076   3.579
 2672TIP3   OH2 8021   2.361   2.351   2.040
 2672TIP3    H1 8022   2.451   2.376   2.064
 2672TIP3    H2 8023   2.368   2.324   1.949
 2673TIP3   OH2 8024   3.330   1.114   1.268
 2673TIP3    H1 8025   3.321   1.112   1.363
 2673TIP3    H2 8026   3.399   1.051   1.249
 2674TIP3   OH2 8027   1.121   5.093   4.714
 2674TIP3    H1 8028   1.081   5.121   4.796
 2674TIP3    H2 8029   1.060   5.121   4.646
 2675TIP3   OH2 8030   3.891   1.929   4.408
 2675TIP3    H1 8031   3.849   1.922   4.494
 2675TIP3    H2 8032   3.981   1.899   4.424
 2676TIP3   OH2 8033   3.615   1.186   3.901
 2676TIP3    H1 8034   3.544   1.237   3.942
 2676TIP3    H2 8035   3.600   1.096   3.930
 2677TIP3   OH2 8036   5.143   4.330   1.421
 2677TIP3    H1 8037   5.073   4.342   1.485
 2677TIP3    H2 8038   5.214   4.385   1.452
 2678TIP3   OH2 8039   0.067   1.089   1.448
 2678TIP3    H1 8040   0.085   1.067   1.356
 2678TIP3    H2 8041   0.021   1.013   1.482
 2679TIP3   OH2 8042   3.142  -0.015   3.913
 2679TIP3    H1 8043   3.088   0.064   3.918
 2679TIP3    H2 8044   3.232   0.017   3.917
 2680TIP3   OH2 8045   4.474   0.911   1.369
 2680TIP3    H1 8046   4.476   0.848   1.296
 2680TIP3    H2 8047   4.397   0.965   1.352
 2681TIP3   OH2 8048   2.085   4.032   3.152
 2681TIP3    H1 8049   2.034   4.101   3.194
 2681TIP3    H2 8050   2.157   4.078   3.109
 2682TIP3   OH2 8051   5.826   1.005   2.739
 2682TIP3    H1 8052   5.752   1.023   2.796
 2682TIP3    H2 8053   5.840   0.910   2.745
 2683TIP3   OH2 8054   1.841   4.042   2.417
 2683TIP3    H1 8055   1.906   3.982   2.452
 2683TIP3    H2 8056   1.757   3.998   2.433
 2684TIP3   OH2 8057   0.574   3.729   3.208
 2684TIP3    H1 8058   0.519   3.658   3.240
 2684TIP3    H2 8059   0.523   3.770   3.138
 2685TIP3   OH2 8060   0.682   1.492   5.027
 2685TIP3    H1 8061   0.609   1.552   5.013
 2685TIP3    H2 8062   0.756   1.548   5.050
 2686TIP3   OH2 8063   3.998   5.894   2.097
 2686TIP3    H1 8064   3.971   5.973   2.144
 2686TIP3    H2 8065   3.998   5.826   2.164
 2687TIP3   OH2 8066   4.152   4.293   2.221
 2687TIP3    H1 8067   4.075   4.296   2.278
 2687TIP3    H2 8068   4.215   4.238   2.268
 2688TIP3   OH2 8069   1.978   5.987   0.411
 2688TIP3    H1 8070   1.910   6.018   0.471
 2688TIP3    H2 8071   1.948   5.900   0.383
 2689TIP3   OH2 8072   5.724   2.963   5.111
 2689TIP3    H1 8073   5.804   2.984   5.160
 2689TIP3    H2 8074   5.753   2.948   5.022
 2690TIP3   OH2 8075   0.512   2.677   0.907
 2690TIP3    H1 8076   0.539   2.752   0.959
 2690TIP3    H2 8077   0.547   2.694   0.819
 2691TIP3   OH2 8078   4.350   1.686   0.828
 2691TIP3    H1 8079   4.279   1.746   0.807
 2691TIP3    H2 8080   4.308   1.612   0.871
 2692TIP3   OH2 8081   4.544   0.645   0.668
 2692TIP3    H1 8082   4.494   0.655   0.750
 2692TIP3    H2 8083   4.561   0.735   0.639
 2693TIP3   OH2 8084   4.513   5.455   1.954
 2693TIP3    H1 8085   4.425   5.465   1.916
 2693TIP3    H2 8086   4.517   5.364   1.983
 2694TIP3   OH2 8087   3.057   1.716   1.312
 2694TIP3    H1 8088   3.130   1.778   1.302
 2694TIP3    H2 8089   3.027   1.729   1.402
 2695TIP3   OH2 8090   4.593   3.825   2.545
 2695TIP3    H1 8091   4.687   3.805   2.541
 2695TIP3    H2 8092   4.550   3.744   2.517
 2696TIP3   OH2 8093   1.013   5.472   0.040
 2696TIP3    H1 8094   1.042   5.563   0.048
 2696TIP3    H2 8095   1.065   5.437  -0.032
 2697TIP3   OH2 8096   3.339   2.383   0.466
 2697TIP3    H1 8097   3.353   2.448   0.397
 2697TIP3    H2 8098   3.258   2.410   0.509
 2698TIP3   OH2 8099   2.651   4.686   2.517
 2698TIP3    H1 8100   2.686   4.690   2.606
 2698TIP3    H2 8101   2.728   4.674   2.462
 2699TIP3   OH2 8102   0.459   5.130   4.310
 2699TIP3    H1 8103   0.381   5.078   4.292
 2699TIP3    H2 8104   0.518   5.071   4.356
 2700TIP3   OH2 8105   2.954   4.152   2.236
 2700TIP3    H1 8106   2.976   4.060   2.224
 2700TIP3    H2 8107   2.878   4.167   2.179
 2701TIP3   OH2 8108   1.920   4.158   3.435
 2701TIP3    H1 8109   1.974   4.145   3.513
 2701TIP3    H2 8110   1.859   4.084   3.436
 2702TIP3   OH2 8111   6.187   3.361   0.883
 2702TIP3    H1 8112   6.259   3.326   0.935
 2702TIP3    H2 8113   6.127   3.399   0.947
 2703TIP3   OH2 8114   2.415   5.661   2.803
 2703TIP3    H1 8115   2.323   5.643   2.786
 2703TIP3    H2 8116   2.428   5.640   2.895
 2704TIP3   OH2 8117   4.106   1.999   2.556
 2704TIP3    H1 8118   4.145   2.032   2.637
 2704TIP3    H2 8119   4.150   1.915   2.540
 2705TIP3   OH2 8120   0.943   3.274   4.457
 2705TIP3    H1 8121   1.036   3.262   4.437
 2705TIP3    H2 8122   0.914   3.340   4.394
 2706TIP3   OH2 8123   1.855   2.688   0.772
 2706TIP3    H1 8124   1.764   2.656   0.768
 2706TIP3    H2 8125   1.884   2.688   0.681
 2707TIP3   OH2 8126   1.963   5.739   3.357
 2707TIP3    H1 8127   2.009   5.668   3.402
 2707TIP3    H2 8128   1.976   5.721   3.264
 2708TIP3   OH2 8129   5.369   2.867   3.695
 2708TIP3    H1 8130   5.442   2.889   3.637
 2708TIP3    H2 8131   5.305   2.937   3.680
 2709TIP3   OH2 8132   2.915   0.730   4.608
 2709TIP3    H1 8133   2.836   0.698   4.650
 2709TIP3    H2 8134   2.943   0.659   4.551
 2710TIP3   OH2 8135   5.358   3.379   4.073
 2710TIP3    H1 8136   5.280   3.363   4.126
 2710TIP3    H2 8137   5.431   3.360   4.131
 2711TIP3   OH2 8138   5.630   0.985   1.525
 2711TIP3    H1 8139   5.582   1.000   1.606
 2711TIP3    H2 8140   5.579   1.029   1.457
 2712TIP3   OH2 8141   3.480   3.665   2.090
 2712TIP3    H1 8142   3.404   3.617   2.122
 2712TIP3    H2 8143   3.515   3.611   2.019
 2713TIP3   OH2 8144   2.138   4.259   0.490
 2713TIP3    H1 8145   2.233   4.256   0.474
 2713TIP3    H2 8146   2.130   4.272   0.584
 2714TIP3   OH2 8147   1.783   5.478   3.623
 2714TIP3    H1 8148   1.813   5.518   3.705
 2714TIP3    H2 8149   1.859   5.481   3.565
 2715TIP3   OH2 8150   0.589   1.141   1.492
 2715TIP3    H1 8151   0.511   1.087   1.500
 2715TIP3    H2 8152   0.556   1.228   1.469
 2716TIP3   OH2 8153   2.709   0.782   3.485
 2716TIP3    H1 8154   2.691   0.847   3.553
 2716TIP3    H2 8155   2.626   0.737   3.472
 2717TIP3   OH2 8156   0.819   4.623   2.213
 2717TIP3    H1 8157   0.782   4.577   2.289
 2717TIP3    H2 8158   0.913   4.621   2.227
 2718TIP3   OH2 8159   6.084   2.805   1.025
 2718TIP3    H1 8160   6.078   2.711   1.040
 2718TIP3    H2 8161   5.994   2.837   1.032
 2719TIP3   OH2 8162   1.440   1.369   0.645
 2719TIP3    H1 8163   1.383   1.299   0.676
 2719TIP3    H2 8164   1.385   1.447   0.644
 2720TIP3   OH2 8165   4.373   1.631   2.894
 2720TIP3    H1 8166   4.283   1.651   2.919
 2720TIP3    H2 8167   4.372   1.537   2.872
 2721TIP3   OH2 8168   5.227   4.939   5.019
 2721TIP3    H1 8169   5.228   4.862   4.962
 2721TIP3    H2 8170   5.265   5.009   4.965
 2722TIP3   OH2 8171   5.453   0.883   2.182
 2722TIP3    H1 8172   5.365   0.920   2.170
 2722TIP3    H2 8173   5.512   0.958   2.177
 2723TIP3   OH2 8174   2.641   4.096   4.657
 2723TIP3    H1 8175   2.687   4.066   4.579
 2723TIP3    H2 8176   2.548   4.086   4.636
 2724TIP3   OH2 8177   2.662   2.830   1.995
 2724TIP3    H1 8178   2.613   2.911   2.005
 2724TIP3    H2 8179   2.596   2.764   1.974
 2725TIP3   OH2 8180   5.452   0.227   0.819
 2725TIP3    H1 8181   5.543   0.220   0.790
 2725TIP3    H2 8182   5.420   0.137   0.819
 2726TIP3   OH2 8183   4.418   4.338   0.538
 2726TIP3    H1 8184   4.511   4.349   0.560
 2726TIP3    H2 8185   4.376   4.416   0.572
 2727TIP3   OH2 8186   0.143   2.296   4.944
 2727TIP3    H1 8187   0.179   2.208   4.952
 2727TIP3    H2 8188   0.053   2.288   4.977
 2728TIP3   OH2 8189   1.268   1.721   1.319
 2728TIP3    H1 8190   1.226   1.800   1.353
 2728TIP3    H2 8191   1.360   1.746   1.307
 2729TIP3   OH2 8192   0.700   0.932   0.876
 2729TIP3    H1 8193   0.683   0.979   0.957
 2729TIP3    H2 8194   0.644   0.855   0.880
 2730TIP3   OH2 8195   6.080   2.517   4.732
 2730TIP3    H1 8196   6.163   2.484   4.698
 2730TIP3    H2 8197   6.018   2.506   4.660
 2731TIP3   OH2 8198   0.595   3.201   1.174
 2731TIP3    H1 8199   0.554   3.287   1.178
 2731TIP3    H2 8200   0.661   3.202   1.243
 2732TIP3   OH2 8201   0.877   1.194   3.067
 2732TIP3    H1 8202   0.922   1.278   3.054
 2732TIP3    H2 8203   0.799   1.200   3.012
 2733TIP3   OH2 8204   5.166   2.257   0.292
 2733TIP3    H1 8205   5.213   2.179   0.322
 2733TIP3    H2 8206   5.075   2.240   0.316
 2734TIP3   OH2 8207   5.515   1.989   5.128
 2734TIP3    H1 8208   5.487   2.052   5.194
 2734TIP3    H2 8209   5.541   2.043   5.053
 2735TIP3   OH2 8210   4.053   1.977   0.744
 2735TIP3    H1 8211   3.980   1.917   0.762
 2735TIP3    H2 8212   4.071   2.019   0.827
 2736TIP3   OH2 8213   0.628   5.164   0.537
 2736TIP3    H1 8214   0.637   5.160   0.442
 2736TIP3    H2 8215   0.605   5.075   0.563
 2737TIP3   OH2 8216   2.384   0.888   3.452
 2737TIP3    H1 8217   2.306   0.884   3.397
 2737TIP3    H2 8218   2.420   0.799   3.449
 2738TIP3   OH2 8219   5.608   4.453   2.747
 2738TIP3    H1 8220   5.559   4.535   2.742
 2738TIP3    H2 8221   5.630   4.433   2.656
 2739TIP3   OH2 8222   1.742   0.629   3.632
 2739TIP3    H1 8223   1.701   0.630   3.719
 2739TIP3    H2 8224   1.670   0.651   3.572
 2740TIP3   OH2 8225   0.841   0.560   0.933
 2740TIP3    H1 8226   0.897   0.636   0.950
 2740TIP3    H2 8227   0.800   0.579   0.849
 2741TIP3   OH2 8228   3.844   3.929   3.536
 2741TIP3    H1 8229   3.902   4.004   3.523
 2741TIP3    H2 8230   3.902   3.860   3.570
 2742TIP3   OH2 8231   4.280   1.400   4.350
 2742TIP3    H1 8232   4.337   1.477   4.342
 2742TIP3    H2 8233   4.214   1.411   4.282
 2743TIP3   OH2 8234   4.023   5.729   2.310
 2743TIP3    H1 8235   4.043   5.789   2.382
 2743TIP3    H2 8236   3.938   5.692   2.331
 2744TIP3   OH2 8237   1.558   3.300   0.745
 2744TIP3    H1 8238   1.594   3.274   0.829
 2744TIP3    H2 8239   1.630   3.287   0.683
 2745TIP3   OH2 8240   5.913   2.491   0.959
 2745TIP3    H1 8241   5.843   2.517   1.019
 2745TIP3    H2 8242   5.884   2.406   0.926
 2746TIP3   OH2 8243   4.515   5.087   4.034
 2746TIP3    H1 8244   4.451   5.059   4.100
 2746TIP3    H2 8245   4.545   5.006   3.994
 2747TIP3   OH2 8246   3.114   3.061   0.544
 2747TIP3    H1 8247   3.207   3.038   0.537
 2747TIP3    H2 8248   3.099   3.118   0.468
 2748TIP3   OH2 8249   3.437   0.676   1.592
 2748TIP3    H1 8250   3.472   0.681   1.503
 2748TIP3    H2 8251   3.343   0.688   1.581
 2749TIP3   OH2 8252   4.686   4.329   2.110
 2749TIP3    H1 8253   4.721   4.302   2.195
 2749TIP3    H2 8254   4.649   4.249   2.074
 2750TIP3   OH2 8255   3.774   0.827   4.659
 2750TIP3    H1 8256   3.834   0.754   4.645
 2750TIP3    H2 8257   3.722   0.802   4.735
 2751TIP3   OH2 8258   3.367   1.527   1.909
 2751TIP3    H1 8259   3.356   1.456   1.972
 2751TIP3    H2 8260   3.448   1.505   1.862
 2752TIP3   OH2 8261   1.512   1.718   0.307
 2752TIP3    H1 8262   1.445   1.665   0.351
 2752TIP3    H2 8263   1.473   1.741   0.223
 2753TIP3   OH2 8264   1.182   5.440   2.062
 2753TIP3    H1 8265   1.228   5.467   2.142
 2753TIP3    H2 8266   1.183   5.518   2.006
 2754TIP3   OH2 8267   2.371   3.674   4.044
 2754TIP3    H1 8268   2.322   3.603   4.002
 2754TIP3    H2 8269   2.313   3.705   4.113
 2755TIP3   OH2 8270   4.519   5.711   0.103
 2755TIP3    H1 8271   4.509   5.636   0.044
 2755TIP3    H2 8272   4.442   5.765   0.085
 2756TIP3   OH2 8273   3.468   3.164   0.407
 2756TIP3    H1 8274   3.534   3.232   0.423
 2756TIP3    H2 8275   3.394   3.211   0.369
 2757TIP3   OH2 8276   2.435   0.382   1.603
 2757TIP3    H1 8277   2.407   0.461   1.649
 2757TIP3    H2 8278   2.445   0.316   1.671
 2758TIP3   OH2 8279   4.006   5.678   0.041
 2758TIP3    H1 8280   4.053   5.725  -0.028
 2758TIP3    H2 8281   4.062   5.686   0.118
 2759TIP3   OH2 8282   6.075   3.355   0.314
 2759TIP3    H1 8283   6.167   3.379   0.307
 2759TIP3    H2 8284   6.029   3.417   0.257
 2760TIP3   OH2 8285   0.165   2.680   0.654
 2760TIP3    H1 8286   0.146   2.770   0.627
 2760TIP3    H2 8287   0.115   2.669   0.735
 2761TIP3   OH2 8288   0.852   3.191   4.022
 2761TIP3    H1 8289   0.784   3.129   3.994
 2761TIP3    H2 8290   0.919   3.135   4.063
 2762TIP3   OH2 8291   4.670   1.694   0.126
 2762TIP3    H1 8292   4.707   1.608   0.106
 2762TIP3    H2 8293   4.649   1.731   0.041
 2763TIP3   OH2 8294   5.964   5.818   4.482
 2763TIP3    H1 8295   5.973   5.799   4.388
 2763TIP3    H2 8296   5.997   5.740   4.526
 2764TIP3   OH2 8297   1.160   0.678   2.576
 2764TIP3    H1 8298   1.096   0.607   2.582
 2764TIP3    H2 8299   1.230   0.643   2.521
 2765TIP3   OH2 8300   6.298   2.899   1.633
 2765TIP3    H1 8301   6.332   2.813   1.610
 2765TIP3    H2 8302   6.238   2.921   1.561
 2766TIP3   OH2 8303   4.490   0.859   5.006
 2766TIP3    H1 8304   4.536   0.923   4.951
 2766TIP3    H2 8305   4.409   0.840   4.958
 2767TIP3   OH2 8306   3.256   0.073   1.298
 2767TIP3    H1 8307   3.231  -0.008   1.254
 2767TIP3    H2 8308   3.243   0.141   1.232
 2768TIP3   OH2 8309   6.098   1.066   0.319
 2768TIP3    H1 8310   6.188   1.070   0.351
 2768TIP3    H2 8311   6.065   0.983   0.352
 2769TIP3   OH2 8312   4.933   1.116   4.856
 2769TIP3    H1 8313   4.927   1.211   4.858
 2769TIP3    H2 8314   5.010   1.097   4.801
 2770TIP3   OH2 8315   5.540   1.551   5.076
 2770TIP3    H1 8316   5.485   1.499   5.135
 2770TIP3    H2 8317   5.480   1.616   5.038
 2771TIP3   OH2 8318   6.120   1.531   2.301
 2771TIP3    H1 8319   6.131   1.557   2.392
 2771TIP3    H2 8320   6.209   1.526   2.266
 2772TIP3   OH2 8321   4.534   0.596   5.069
 2772TIP3    H1 8322   4.538   0.674   5.014
 2772TIP3    H2 8323   4.451   0.554   5.046
 2773TIP3   OH2 8324   4.947   0.073   2.862
 2773TIP3    H1 8325   4.892  -0.004   2.845
 2773TIP3    H2 8326   4.975   0.062   2.953
 2774TIP3   OH2 8327   4.050   4.312   1.960
 2774TIP3    H1 8328   4.112   4.310   2.033
 2774TIP3    H2 8329   4.074   4.236   1.906
 2775TIP3   OH2 8330   0.247   3.623   2.333
 2775TIP3    H1 8331   0.323   3.653   2.282
 2775TIP3    H2 8332   0.209   3.553   2.280
 2776TIP3   OH2 8333   4.978   2.683   4.455
 2776TIP3    H1 8334   4.930   2.628   4.394
 2776TIP3    H2 8335   4.965   2.772   4.422
 2777TIP3   OH2 8336   4.598   2.400   0.489
 2777TIP3    H1 8337   4.517   2.350   0.483
 2777TIP3    H2 8338   4.575   2.479   0.539
 2778TIP3   OH2 8339   2.935   5.574   0.244
 2778TIP3    H1 8340   2.961   5.634   0.314
 2778TIP3    H2 8341   2.976   5.490   0.268
 2779TIP3   OH2 8342   1.742   4.649   1.179
 2779TIP3    H1 8343   1.821   4.686   1.140
 2779TIP3    H2 8344   1.677   4.650   1.109
 2780TIP3   OH2 8345   2.938   0.145   4.905
 2780TIP3    H1 8346   2.911   0.231   4.871
 2780TIP3    H2 8347   3.021   0.161   4.949
 2781TIP3   OH2 8348   0.848   5.702   5.135
 2781TIP3    H1 8349   0.762   5.745   5.135
 2781TIP3    H2 8350   0.873   5.699   5.043
 2782TIP3   OH2 8351   1.411   3.632   2.225
 2782TIP3    H1 8352   1.424   3.640   2.319
 2782TIP3    H2 8353   1.381   3.542   2.212
 2783TIP3   OH2 8354   0.111   3.678   1.001
 2783TIP3    H1 8355   0.204   3.665   0.986
 2783TIP3    H2 8356   0.103   3.695   1.095
 2784TIP3   OH2 8357   3.023   5.718   0.688
 2784TIP3    H1 8358   2.985   5.791   0.737
 2784TIP3    H2 8359   3.104   5.698   0.734
 2785TIP3   OH2 8360   6.299   2.708   0.862
 2785TIP3    H1 8361   6.277   2.621   0.895
 2785TIP3    H2 8362   6.237   2.767   0.906
 2786TIP3   OH2 8363   5.765   2.911   4.843
 2786TIP3    H1 8364   5.780   2.870   4.758
 2786TIP3    H2 8365   5.764   3.005   4.824
 2787TIP3   OH2 8366   5.312   2.805   0.971
 2787TIP3    H1 8367   5.369   2.752   1.026
 2787TIP3    H2 8368   5.340   2.895   0.986
 2788TIP3   OH2 8369   3.587   5.724   4.678
 2788TIP3    H1 8370   3.620   5.634   4.683
 2788TIP3    H2 8371   3.613   5.764   4.761
 2789TIP3   OH2 8372   5.646   4.045   2.089
 2789TIP3    H1 8373   5.633   4.030   1.995
 2789TIP3    H2 8374   5.675   3.959   2.123
 2790TIP3   OH2 8375   2.029   0.974   3.018
 2790TIP3    H1 8376   2.011   1.065   3.043
 2790TIP3    H2 8377   1.976   0.922   3.078
 2791TIP3   OH2 8378   5.638   3.117   2.365
 2791TIP3    H1 8379   5.622   3.205   2.400
 2791TIP3    H2 8380   5.706   3.081   2.422
 2792TIP3   OH2 8381   3.559   1.417   3.567
 2792TIP3    H1 8382   3.597   1.445   3.484
 2792TIP3    H2 8383   3.625   1.360   3.606
 2793TIP3   OH2 8384   4.314   0.475   0.100
 2793TIP3    H1 8385   4.284   0.535   0.031
 2793TIP3    H2 8386   4.233   0.450   0.146
 2794TIP3   OH2 8387   0.943   2.729   4.165
 2794TIP3    H1 8388   0.990   2.737   4.081
 2794TIP3    H2 8389   0.977   2.802   4.217
 2795TIP3   OH2 8390   4.965   1.856   3.007
 2795TIP3    H1 8391   5.036   1.884   2.949
 2795TIP3    H2 8392   4.975   1.761   3.013
 2796TIP3   OH2 8393   4.315   5.731   2.485
 2796TIP3    H1 8394   4.279   5.817   2.465
 2796TIP3    H2 8395   4.366   5.708   2.407
 2797TIP3   OH2 8396   4.149   1.628   3.550
 2797TIP3    H1 8397   4.079   1.594   3.494
 2797TIP3    H2 8398   4.168   1.714   3.514
 2798TIP3   OH2 8399   4.337   1.277   0.808
 2798TIP3    H1 8400   4.357   1.353   0.863
 2798TIP3    H2 8401   4.259   1.303   0.759
 2799TIP3   OH2 8402   2.142   3.244   0.223
 2799TIP3    H1 8403   2.120   3.336   0.227
 2799TIP3    H2 8404   2.200   3.229   0.298
 2800TIP3   OH2 8405   2.624   2.942   4.415
 2800TIP3    H1 8406   2.632   2.886   4.493
 2800TIP3    H2 8407   2.687   2.906   4.353
 2801TIP3   OH2 8408   3.839   0.387   3.643
 2801TIP3    H1 8409   3.849   0.411   3.551
 2801TIP3    H2 8410   3.927   0.397   3.681
 2802TIP3   OH2 8411   5.591   4.919   5.019
 2802TIP3    H1 8412   5.657   4.872   4.967
 2802TIP3    H2 8413   5.540   4.967   4.955
 2803TIP3   OH2 8414   2.559   5.746   1.981
 2803TIP3    H1 8415   2.578   5.690   1.906
 2803TIP3    H2 8416   2.640   5.795   1.995
 2804TIP3   OH2 8417   2.086   4.611   0.376
 2804TIP3    H1 8418   2.004   4.627   0.422
 2804TIP3    H2 8419   2.083   4.669   0.300
 2805TIP3   OH2 8420   2.042   5.189   5.024
 2805TIP3    H1 8421   1.979   5.237   4.970
 2805TIP3    H2 8422   2.105   5.153   4.962
 2806TIP3   OH2 8423   5.031   2.444   2.516
 2806TIP3    H1 8424   5.002   2.356   2.495
 2806TIP3    H2 8425   5.052   2.483   2.431
 2807TIP3   OH2 8426   5.134   5.315   1.523
 2807TIP3    H1 8427   5.099   5.347   1.606
 2807TIP3    H2 8428   5.206   5.374   1.503
 2808TIP3   OH2 8429   5.104   0.242   0.311
 2808TIP3    H1 8430   5.041   0.272   0.245
 2808TIP3    H2 8431   5.059   0.255   0.394
 2809TIP3   OH2 8432   0.185   2.142   3.107
 2809TIP3    H1 8433   0.105   2.120   3.154
 2809TIP3    H2 8434   0.230   2.204   3.164
 2810TIP3   OH2 8435   3.961   5.245   3.539
 2810TIP3    H1 8436   3.953   5.164   3.590
 2810TIP3    H2 8437   4.023   5.298   3.589
 2811TIP3   OH2 8438   3.419   4.304   3.865
 2811TIP3    H1 8439   3.415   4.233   3.801
 2811TIP3    H2 8440   3.496   4.354   3.840
 2812TIP3   OH2 8441   2.470   1.300   4.142
 2812TIP3    H1 8442   2.408   1.306   4.215
 2812TIP3    H2 8443   2.505   1.389   4.133
 2813TIP3   OH2 8444   4.480   1.927   4.407
 2813TIP3    H1 8445   4.572   1.901   4.403
 2813TIP3    H2 8446   4.473   1.980   4.486
 2814TIP3   OH2 8447   1.654   4.727   0.326
 2814TIP3    H1 8448   1.688   4.663   0.264
 2814TIP3    H2 8449   1.563   4.741   0.299
 2815TIP3   OH2 8450   5.174   2.288   0.786
 2815TIP3    H1 8451   5.236   2.358   0.809
 2815TIP3    H2 8452   5.127   2.322   0.711
 2816TIP3   OH2 8453   4.830   5.356   1.089
 2816TIP3    H1 8454   4.854   5.350   1.182
 2816TIP3    H2 8455   4.902   5.406   1.050
 2817TIP3   OH2 8456   1.738   4.225   4.962
 2817TIP3    H1 8457   1.747   4.202   5.054
 2817TIP3    H2 8458   1.664   4.174   4.930
 2818TIP3   OH2 8459   0.885   5.835   2.922
 2818TIP3    H1 8460   0.947   5.848   2.850
 2818TIP3    H2 8461   0.924   5.881   2.996
 2819TIP3   OH2 8462   4.042   2.335   1.069
 2819TIP3    H1 8463   4.052   2.412   1.013
 2819TIP3    H2 8464   3.957   2.347   1.111
 2820TIP3   OH2 8465   5.901   1.719   2.989
 2820TIP3    H1 8466   5.858   1.779   2.928
 2820TIP3    H2 8467   5.985   1.699   2.947
 2821TIP3   OH2 8468   4.430   1.709   3.373
 2821TIP3    H1 8469   4.382   1.770   3.429
 2821TIP3    H2 8470   4.476   1.652   3.433
 2822TIP3   OH2 8471   0.081   4.641   1.501
 2822TIP3    H1 8472   0.082   4.688   1.584
 2822TIP3    H2 8473   0.065   4.708   1.435
 2823TIP3   OH2 8474   0.138   4.171   4.632
 2823TIP3    H1 8475   0.231   4.149   4.633
 2823TIP3    H2 8476   0.134   4.257   4.591
 2824TIP3   OH2 8477   0.751   1.015   3.236
 2824TIP3    H1 8478   0.776   1.104   3.213
 2824TIP3    H2 8479   0.833   0.965   3.230
 2825TIP3   OH2 8480   1.255   4.628   4.724
 2825TIP3    H1 8481   1.276   4.629   4.817
 2825TIP3    H2 8482   1.326   4.578   4.684
 2826TIP3   OH2 8483   1.991   1.439   5.141
 2826TIP3    H1 8484   1.937   1.516   5.157
 2826TIP3    H2 8485   2.080   1.467   5.160
 2827TIP3   OH2 8486   4.797   5.149   2.164
 2827TIP3    H1 8487   4.804   5.201   2.244
 2827TIP3    H2 8488   4.830   5.063   2.188
 2828TIP3   OH2 8489   4.393   1.831   0.313
 2828TIP3    H1 8490   4.479   1.804   0.344
 2828TIP3    H2 8491   4.352   1.874   0.388
 2829TIP3   OH2 8492   2.520   2.740   4.190
 2829TIP3    H1 8493   2.611   2.767   4.202
 2829TIP3    H2 8494   2.470   2.821   4.198
 2830TIP3   OH2 8495   5.864   5.215   3.773
 2830TIP3    H1 8496   5.780   5.260   3.764
 2830TIP3    H2 8497   5.852   5.133   3.726
 2831TIP3   OH2 8498   4.049   1.233   2.253
 2831TIP3    H1 8499   3.985   1.204   2.318
 2831TIP3    H2 8500   4.035   1.327   2.246
 2832TIP3   OH2 8501   3.963   2.414   2.579
 2832TIP3    H1 8502   3.985   2.445   2.667
 2832TIP3    H2 8503   3.903   2.340   2.594
 2833TIP3   OH2 8504   0.188   1.598   4.526
 2833TIP3    H1 8505   0.249   1.631   4.461
 2833TIP3    H2 8506   0.102   1.629   4.496
 2834TIP3   OH2 8507   1.824   4.943   1.905
 2834TIP3    H1 8508   1.820   4.872   1.842
 2834TIP3    H2 8509   1.734   4.976   1.910
 2835TIP3   OH2 8510   0.350   2.645   2.893
 2835TIP3    H1 8511   0.282   2.609   2.950
 2835TIP3    H2 8512   0.313   2.727   2.861
 2836TIP3   OH2 8513   5.375   3.371   2.284
 2836TIP3    H1 8514   5.357   3.341   2.373
 2836TIP3    H2 8515   5.466   3.400   2.286
 2837TIP3   OH2 8516   0.667   2.737   4.164
 2837TIP3    H1 8517   0.650   2.651   4.127
 2837TIP3    H2 8518   0.761   2.737   4.184
 2838TIP3   OH2 8519   5.226   5.221   3.775
 2838TIP3    H1 8520   5.135   5.191   3.789
 2838TIP3    H2 8521   5.222   5.316   3.787
 2839TIP3   OH2 8522   1.800   0.423   0.994
 2839TIP3    H1 8523   1.800   0.515   1.022
 2839TIP3    H2 8524   1.807   0.426   0.899
 2840TIP3   OH2 8525   1.695   0.324   3.342
 2840TIP3    H1 8526   1.605   0.317   3.374
 2840TIP3    H2 8527   1.748   0.332   3.421
 2841TIP3   OH2 8528   2.943   4.558   0.571
 2841TIP3    H1 8529   2.962   4.533   0.480
 2841TIP3    H2 8530   2.976   4.648   0.578
 2842TIP3   OH2 8531   0.405   4.800   3.215
 2842TIP3    H1 8532   0.382   4.866   3.150
 2842TIP3    H2 8533   0.384   4.841   3.299
 2843TIP3   OH2 8534   2.330   5.495   3.978
 2843TIP3    H1 8535   2.319   5.407   4.014
 2843TIP3    H2 8536   2.415   5.493   3.935
 2844TIP3   OH2 8537   4.198   4.953   3.877
 2844TIP3    H1 8538   4.216   5.040   3.911
 2844TIP3    H2 8539   4.153   4.908   3.949
 2845TIP3   OH2 8540   0.606   4.838   4.908
 2845TIP3    H1 8541   0.641   4.817   4.995
 2845TIP3    H2 8542   0.681   4.825   4.850
 2846TIP3   OH2 8543   4.871   2.514   4.239
 2846TIP3    H1 8544   4.779   2.533   4.262
 2846TIP3    H2 8545   4.876   2.532   4.145
 2847TIP3   OH2 8546   0.961   1.778   3.229
 2847TIP3    H1 8547   0.916   1.695   3.218
 2847TIP3    H2 8548   1.019   1.784   3.154
 2848TIP3   OH2 8549   4.003   0.378   1.099
 2848TIP3    H1 8550   4.003   0.284   1.119
 2848TIP3    H2 8551   3.940   0.415   1.160
 2849TIP3   OH2 8552   0.313   0.949   2.416
 2849TIP3    H1 8553   0.239   0.888   2.407
 2849TIP3    H2 8554   0.325   0.959   2.510
 2850TIP3   OH2 8555   3.141   0.963   3.229
 2850TIP3    H1 8556   3.055   0.922   3.237
 2850TIP3    H2 8557   3.201   0.901   3.271
 2851TIP3   OH2 8558   2.896   3.729   0.769
 2851TIP3    H1 8559   2.852   3.814   0.768
 2851TIP3    H2 8560   2.988   3.750   0.756
 2852TIP3   OH2 8561   6.015   0.994   2.299
 2852TIP3    H1 8562   5.989   0.920   2.244
 2852TIP3    H2 8563   5.942   1.005   2.360
 2853TIP3   OH2 8564   5.658   4.614   4.700
 2853TIP3    H1 8565   5.749   4.645   4.703
 2853TIP3    H2 8566   5.660   4.531   4.746
 2854TIP3   OH2 8567   2.954   4.208   3.494
 2854TIP3    H1 8568   2.990   4.291   3.464
 2854TIP3    H2 8569   2.905   4.231   3.573
 2855TIP3   OH2 8570   1.446   3.134   3.330
 2855TIP3    H1 8571   1.497   3.115   3.409
 2855TIP3    H2 8572   1.395   3.055   3.314
 2856TIP3   OH2 8573   4.992   4.789   4.827
 2856TIP3    H1 8574   4.998   4.705   4.782
 2856TIP3    H2 8575   5.069   4.837   4.798
 2857TIP3   OH2 8576   0.654   3.273   3.176
 2857TIP3    H1 8577   0.714   3.210   3.218
 2857TIP3    H2 8578   0.568   3.231   3.182
 2858TIP3   OH2 8579   5.024   3.420   2.787
 2858TIP3    H1 8580   5.041   3.482   2.715
 2858TIP3    H2 8581   5.109   3.411   2.830
 2859TIP3   OH2 8582   3.382   5.432   3.726
 2859TIP3    H1 8583   3.331   5.496   3.775
 2859TIP3    H2 8584   3.334   5.420   3.644
 2860TIP3   OH2 8585   1.378   4.463   0.795
 2860TIP3    H1 8586   1.356   4.370   0.796
 2860TIP3    H2 8587   1.409   4.479   0.706
 2861TIP3   OH2 8588   1.290   2.296   4.063
 2861TIP3    H1 8589   1.377   2.321   4.033
 2861TIP3    H2 8590   1.284   2.332   4.151
 2862TIP3   OH2 8591   2.165   2.816   3.928
 2862TIP3    H1 8592   2.075   2.834   3.954
 2862TIP3    H2 8593   2.218   2.839   4.004
 2863TIP3   OH2 8594   4.736   5.558   3.242
 2863TIP3    H1 8595   4.703   5.479   3.198
 2863TIP3    H2 8596   4.704   5.550   3.332
 2864TIP3   OH2 8597   3.570   3.050   4.096
 2864TIP3    H1 8598   3.496   3.086   4.047
 2864TIP3    H2 8599   3.548   3.067   4.188
 2865TIP3   OH2 8600   4.956   4.109   3.066
 2865TIP3    H1 8601   4.936   4.075   2.979
 2865TIP3    H2 8602   5.051   4.123   3.065
 2866TIP3   OH2 8603   3.024   3.130   4.157
 2866TIP3    H1 8604   3.097   3.167   4.206
 2866TIP3    H2 8605   2.951   3.130   4.220
 2867TIP3   OH2 8606   4.390   0.739   1.165
 2867TIP3    H1 8607   4.418   0.763   1.077
 2867TIP3    H2 8608   4.327   0.668   1.151
 2868TIP3   OH2 8609   4.831   4.058   1.658
 2868TIP3    H1 8610   4.835   4.147   1.623
 2868TIP3    H2 8611   4.923   4.030   1.661
 2869TIP3   OH2 8612   6.196   4.718   1.898
 2869TIP3    H1 8613   6.153   4.764   1.826
 2869TIP3    H2 8614   6.127   4.663   1.935
 2870TIP3   OH2 8615   6.062   2.779   2.667
 2870TIP3    H1 8616   6.017   2.852   2.624
 2870TIP3    H2 8617   6.004   2.704   2.654
 2871TIP3   OH2 8618   2.164   0.879   5.015
 2871TIP3    H1 8619   2.229   0.947   5.029
 2871TIP3    H2 8620   2.083   0.916   5.051
 2872TIP3   OH2 8621   5.341   2.474   3.938
 2872TIP3    H1 8622   5.310   2.529   3.865
 2872TIP3    H2 8623   5.424   2.439   3.907
 2873TIP3   OH2 8624   6.291   3.755   4.083
 2873TIP3    H1 8625   6.260   3.720   4.000
 2873TIP3    H2 8626   6.271   3.849   4.078
 2874TIP3   OH2 8627   5.845   0.058   0.792
 2874TIP3    H1 8628   5.933   0.094   0.798
 2874TIP3    H2 8629   5.799   0.120   0.734
 2875TIP3   OH2 8630   3.714   0.853   3.673
 2875TIP3    H1 8631   3.699   0.942   3.642
 2875TIP3    H2 8632   3.739   0.804   3.594
 2876TIP3   OH2 8633   3.451   0.146   4.508
 2876TIP3    H1 8634   3.374   0.192   4.542
 2876TIP3    H2 8635   3.432   0.053   4.523
 2877TIP3   OH2 8636   2.412   0.210   0.140
 2877TIP3    H1 8637   2.468   0.250   0.207
 2877TIP3    H2 8638   2.329   0.256   0.149
 2878TIP3   OH2 8639   0.868   1.697   2.914
 2878TIP3    H1 8640   0.938   1.757   2.940
 2878TIP3    H2 8641   0.844   1.724   2.825
 2879TIP3   OH2 8642   1.092   3.098   0.280
 2879TIP3    H1 8643   1.030   3.082   0.209
 2879TIP3    H2 8644   1.040   3.142   0.347
 2880TIP3   OH2 8645   2.216   1.309   2.449
 2880TIP3    H1 8646   2.210   1.337   2.540
 2880TIP3    H2 8647   2.156   1.367   2.402
 2881TIP3   OH2 8648   4.714   6.036   0.462
 2881TIP3    H1 8649   4.620   6.021   0.464
 2881TIP3    H2 8650   4.749   5.967   0.406
 2882TIP3   OH2 8651   2.970   4.827   3.167
 2882TIP3    H1 8652   3.028   4.755   3.141
 2882TIP3    H2 8653   2.906   4.785   3.226
 2883TIP3   OH2 8654   5.210   4.412   2.534
 2883TIP3    H1 8655   5.279   4.361   2.577
 2883TIP3    H2 8656   5.156   4.445   2.606
 2884TIP3   OH2 8657   1.609   4.197   2.166
 2884TIP3    H1 8658   1.631   4.108   2.192
 2884TIP3    H2 8659   1.692   4.233   2.133
 2885TIP3   OH2 8660   0.868   2.597   2.206
 2885TIP3    H1 8661   0.796   2.598   2.270
 2885TIP3    H2 8662   0.845   2.527   2.145
 2886TIP3   OH2 8663   4.117   2.181   3.649
 2886TIP3    H1 8664   4.129   2.136   3.733
 2886TIP3    H2 8665   4.022   2.183   3.636
 2887TIP3   OH2 8666   3.627   5.186   4.108
 2887TIP3    H1 8667   3.579   5.235   4.041
 2887TIP3    H2 8668   3.590   5.098   4.104
 2888TIP3   OH2 8669   5.459   2.791   4.715
 2888TIP3    H1 8670   5.471   2.772   4.808
 2888TIP3    H2 8671   5.367   2.815   4.706
 2889TIP3   OH2 8672   0.092   3.318   0.311
 2889TIP3    H1 8673   0.067   3.410   0.300
 2889TIP3    H2 8674   0.032   3.284   0.378
 2890TIP3   OH2 8675   3.903   3.473   3.500
 2890TIP3    H1 8676   3.958   3.538   3.456
 2890TIP3    H2 8677   3.837   3.449   3.434
 2891TIP3   OH2 8678   3.526   2.162   3.604
 2891TIP3    H1 8679   3.434   2.137   3.616
 2891TIP3    H2 8680   3.573   2.114   3.673
 2892TIP3   OH2 8681   0.402   3.165   3.183
 2892TIP3    H1 8682   0.321   3.153   3.232
 2892TIP3    H2 8683   0.407   3.089   3.125
 2893TIP3   OH2 8684   2.701   3.024   0.584
 2893TIP3    H1 8685   2.714   3.023   0.489
 2893TIP3    H2 8686   2.753   3.099   0.614
 2894TIP3   OH2 8687   0.179   4.758   3.886
 2894TIP3    H1 8688   0.158   4.707   3.808
 2894TIP3    H2 8689   0.206   4.844   3.853
 2895TIP3   OH2 8690   1.501   5.809   1.099
 2895TIP3    H1 8691   1.496   5.738   1.163
 2895TIP3    H2 8692   1.576   5.787   1.044
 2896TIP3   OH2 8693   2.882   3.638   2.512
 2896TIP3    H1 8694   2.789   3.635   2.531
 2896TIP3    H2 8695   2.887   3.643   2.417
 2897TIP3   OH2 8696   2.023   1.719   0.498
 2897TIP3    H1 8697   2.012   1.680   0.412
 2897TIP3    H2 8698   2.111   1.694   0.525
 2898TIP3   OH2 8699   4.348   0.061   3.085
 2898TIP3    H1 8700   4.266   0.049   3.036
 2898TIP3    H2 8701   4.338   0.145   3.129
 2899TIP3   OH2 8702   0.667   2.894   0.686
 2899TIP3    H1 8703   0.682   2.942   0.605
 2899TIP3    H2 8704   0.755   2.875   0.720
 2900TIP3   OH2 8705   2.587   3.222   4.412
 2900TIP3    H1 8706   2.584   3.228   4.507
 2900TIP3    H2 8707   2.595   3.128   4.394
 2901TIP3   OH2 8708   3.639   3.471   1.425
 2901TIP3    H1 8709   3.715   3.459   1.483
 2901TIP3    H2 8710   3.636   3.391   1.373
 2902TIP3   OH2 8711   1.070   3.384   1.702
 2902TIP3    H1 8712   1.024   3.448   1.647
 2902TIP3    H2 8713   1.039   3.402   1.791
 2903TIP3   OH2 8714   5.364   5.500   3.044
 2903TIP3    H1 8715   5.349   5.445   3.121
 2903TIP3    H2 8716   5.455   5.528   3.052
 2904TIP3   OH2 8717   5.957   2.243   1.754
 2904TIP3    H1 8718   5.917   2.186   1.820
 2904TIP3    H2 8719   5.904   2.229   1.675
 2905TIP3   OH2 8720   4.700   3.292   2.436
 2905TIP3    H1 8721   4.631   3.343   2.477
 2905TIP3    H2 8722   4.781   3.334   2.463
 2906TIP3   OH2 8723   5.636   3.622   4.334
 2906TIP3    H1 8724   5.593   3.703   4.308
 2906TIP3    H2 8725   5.567   3.573   4.380
 2907TIP3   OH2 8726   3.487   1.970   1.374
 2907TIP3    H1 8727   3.400   1.975   1.335
 2907TIP3    H2 8728   3.547   1.986   1.302
 2908TIP3   OH2 8729   1.067   4.559   0.014
 2908TIP3    H1 8730   1.067   4.614  -0.064
 2908TIP3    H2 8731   1.017   4.609   0.079
 2909TIP3   OH2 8732   2.842   2.623   1.571
 2909TIP3    H1 8733   2.848   2.683   1.497
 2909TIP3    H2 8734   2.821   2.678   1.646
 2910TIP3   OH2 8735   2.181   1.368   0.279
 2910TIP3    H1 8736   2.185   1.276   0.304
 2910TIP3    H2 8737   2.238   1.412   0.343
 2911TIP3   OH2 8738   2.564   2.945   1.461
 2911TIP3    H1 8739   2.626   2.905   1.522
 2911TIP3    H2 8740   2.479   2.940   1.505
 2912TIP3   OH2 8741   2.463   3.320   1.550
 2912TIP3    H1 8742   2.411   3.400   1.563
 2912TIP3    H2 8743   2.397   3.253   1.530
 2913TIP3   OH2 8744   5.568   1.305   2.873
 2913TIP3    H1 8745   5.480   1.337   2.894
 2913TIP3    H2 8746   5.626   1.348   2.936
 2914TIP3   OH2 8747   3.433   0.966   0.256
 2914TIP3    H1 8748   3.435   1.055   0.292
 2914TIP3    H2 8749   3.504   0.921   0.301
 2915TIP3   OH2 8750   3.992   0.405   4.369
 2915TIP3    H1 8751   3.987   0.402   4.464
 2915TIP3    H2 8752   3.929   0.339   4.339
 2916TIP3   OH2 8753   5.814   1.826   3.940
 2916TIP3    H1 8754   5.877   1.774   3.990
 2916TIP3    H2 8755   5.734   1.773   3.940
 2917TIP3   OH2 8756   4.726   3.410   2.175
 2917TIP3    H1 8757   4.691   3.349   2.240
 2917TIP3    H2 8758   4.717   3.364   2.092
 2918TIP3   OH2 8759   0.691   3.271   0.841
 2918TIP3    H1 8760   0.631   3.222   0.785
 2918TIP3    H2 8761   0.716   3.208   0.909
 2919TIP3   OH2 8762   3.643   3.212   2.218
 2919TIP3    H1 8763   3.607   3.129   2.188
 2919TIP3    H2 8764   3.568   3.272   2.218
 2920TIP3   OH2 8765   4.098   1.280   0.666
 2920TIP3    H1 8766   4.124   1.302   0.576
 2920TIP3    H2 8767   4.077   1.187   0.662
 2921TIP3   OH2 8768   5.618   0.805   4.581
 2921TIP3    H1 8769   5.691   0.865   4.596
 2921TIP3    H2 8770   5.640   0.728   4.633
 2922TIP3   OH2 8771   0.624   4.446   2.724
 2922TIP3    H1 8772   0.622   4.425   2.818
 2922TIP3    H2 8773   0.568   4.380   2.684
 2923TIP3   OH2 8774   5.477   3.685   2.045
 2923TIP3    H1 8775   5.560   3.708   2.085
 2923TIP3    H2 8776   5.484   3.591   2.027
 2924TIP3   OH2 8777   1.119   1.794   4.615
 2924TIP3    H1 8778   1.072   1.738   4.676
 2924TIP3    H2 8779   1.059   1.805   4.541
 2925TIP3   OH2 8780   2.970   5.574   3.329
 2925TIP3    H1 8781   2.922   5.627   3.392
 2925TIP3    H2 8782   2.958   5.619   3.245
 2926TIP3   OH2 8783   2.739   3.416   1.064
 2926TIP3    H1 8784   2.806   3.393   1.129
 2926TIP3    H2 8785   2.656   3.397   1.107
 2927TIP3   OH2 8786   1.279   0.526   2.191
 2927TIP3    H1 8787   1.200   0.568   2.227
 2927TIP3    H2 8788   1.340   0.523   2.265
 2928TIP3   OH2 8789   2.593   4.889   3.943
 2928TIP3    H1 8790   2.586   4.802   3.903
 2928TIP3    H2 8791   2.531   4.942   3.894
 2929TIP3   OH2 8792   4.133   1.671   0.659
 2929TIP3    H1 8793   4.188   1.604   0.619
 2929TIP3    H2 8794   4.071   1.696   0.591
 2930TIP3   OH2 8795   3.697   5.179   2.977
 2930TIP3    H1 8796   3.699   5.175   2.881
 2930TIP3    H2 8797   3.636   5.251   2.996
 2931TIP3   OH2 8798   0.724   0.713   5.064
 2931TIP3    H1 8799   0.702   0.653   5.135
 2931TIP3    H2 8800   0.640   0.753   5.040
 2932TIP3   OH2 8801   4.611   4.366   1.527
 2932TIP3    H1 8802   4.584   4.275   1.539
 2932TIP3    H2 8803   4.528   4.414   1.521
 2933TIP3   OH2 8804   4.587   4.522   0.249
 2933TIP3    H1 8805   4.532   4.570   0.312
 2933TIP3    H2 8806   4.655   4.584   0.225
 2934TIP3   OH2 8807   0.193   1.781   3.366
 2934TIP3    H1 8808   0.157   1.759   3.452
 2934TIP3    H2 8809   0.136   1.736   3.304
 2935TIP3   OH2 8810   4.099   3.078   0.718
 2935TIP3    H1 8811   4.037   3.025   0.667
 2935TIP3    H2 8812   4.183   3.033   0.709
 2936TIP3   OH2 8813   4.376   3.643   4.798
 2936TIP3    H1 8814   4.391   3.548   4.797
 2936TIP3    H2 8815   4.463   3.681   4.800
 2937TIP3   OH2 8816   1.361   0.220   2.225
 2937TIP3    H1 8817   1.271   0.240   2.251
 2937TIP3    H2 8818   1.406   0.203   2.308
 2938TIP3   OH2 8819   2.765   5.515   2.888
 2938TIP3    H1 8820   2.672   5.499   2.902
 2938TIP3    H2 8821   2.808   5.434   2.915
 2939TIP3   OH2 8822   2.960   0.891   4.833
 2939TIP3    H1 8823   2.991   0.966   4.783
 2939TIP3    H2 8824   2.951   0.821   4.768
 2940TIP3   OH2 8825   3.262   5.394   1.668
 2940TIP3    H1 8826   3.209   5.352   1.736
 2940TIP3    H2 8827   3.277   5.325   1.604
 2941TIP3   OH2 8828   1.877   0.858   3.284
 2941TIP3    H1 8829   1.821   0.787   3.252
 2941TIP3    H2 8830   1.833   0.888   3.364
 2942TIP3   OH2 8831   1.272   4.816   0.962
 2942TIP3    H1 8832   1.234   4.730   0.977
 2942TIP3    H2 8833   1.204   4.878   0.987
 2943TIP3   OH2 8834   5.180   4.532   0.555
 2943TIP3    H1 8835   5.090   4.502   0.542
 2943TIP3    H2 8836   5.183   4.560   0.646
 2944TIP3   OH2 8837   6.300   4.030   5.036
 2944TIP3    H1 8838   6.217   3.998   5.071
 2944TIP3    H2 8839   6.280   4.055   4.946
 2945TIP3   OH2 8840   2.122   5.810   4.130
 2945TIP3    H1 8841   2.178   5.827   4.054
 2945TIP3    H2 8842   2.147   5.723   4.160
 2946TIP3   OH2 8843   6.161   5.681   4.727
 2946TIP3    H1 8844   6.223   5.668   4.656
 2946TIP3    H2 8845   6.075   5.674   4.686
 2947TIP3   OH2 8846   4.831   3.571   5.075
 2947TIP3    H1 8847   4.915   3.529   5.092
 2947TIP3    H2 8848   4.840   3.659   5.112
 2948TIP3   OH2 8849   3.291   5.630   0.515
 2948TIP3    H1 8850   3.202   5.648   0.485
 2948TIP3    H2 8851   3.280   5.602   0.606
 2949TIP3   OH2 8852   4.547   1.564   3.812
 2949TIP3    H1 8853   4.562   1.585   3.720
 2949TIP3    H2 8854   4.500   1.640   3.847
 2950TIP3   OH2 8855   2.681   5.229   0.140
 2950TIP3    H1 8856   2.641   5.254   0.057
 2950TIP3    H2 8857   2.683   5.134   0.138
 2951TIP3   OH2 8858   0.244   2.178   0.541
 2951TIP3    H1 8859   0.323   2.134   0.574
 2951TIP3    H2 8860   0.188   2.187   0.619
 2952TIP3   OH2 8861   6.026   2.059   2.601
 2952TIP3    H1 8862   6.109   2.105   2.586
 2952TIP3    H2 8863   6.017   2.002   2.525
 2953TIP3   OH2 8864   1.568   2.659   0.772
 2953TIP3    H1 8865   1.488   2.607   0.764
 2953TIP3    H2 8866   1.538   2.749   0.772
 2954TIP3   OH2 8867   2.968   3.605   0.401
 2954TIP3    H1 8868   3.060   3.630   0.388
 2954TIP3    H2 8869   2.920   3.687   0.396
 2955TIP3   OH2 8870   4.180   3.145   4.698
 2955TIP3    H1 8871   4.152   3.187   4.616
 2955TIP3    H2 8872   4.192   3.053   4.674
 2956TIP3   OH2 8873   4.875   0.913   0.657
 2956TIP3    H1 8874   4.858   0.952   0.743
 2956TIP3    H2 8875   4.968   0.889   0.661
 2957TIP3   OH2 8876   4.154   0.769   0.746
 2957TIP3    H1 8877   4.086   0.754   0.811
 2957TIP3    H2 8878   4.227   0.715   0.774
 2958TIP3   OH2 8879   2.245   0.306   4.673
 2958TIP3    H1 8880   2.262   0.308   4.578
 2958TIP3    H2 8881   2.216   0.216   4.690
 2959TIP3   OH2 8882   5.645   5.071   4.007
 2959TIP3    H1 8883   5.614   5.152   3.966
 2959TIP3    H2 8884   5.740   5.076   4.002
 2960TIP3   OH2 8885   1.873   3.805   4.026
 2960TIP3    H1 8886   1.809   3.874   4.011
 2960TIP3    H2 8887   1.951   3.832   3.976
 2961TIP3   OH2 8888   2.210   2.145   0.623
 2961TIP3    H1 8889   2.239   2.177   0.538
 2961TIP3    H2 8890   2.288   2.107   0.663
 2962TIP3   OH2 8891   4.013   5.121   2.854
 2962TIP3    H1 8892   3.933   5.160   2.818
 2962TIP3    H2 8893   3.983   5.067   2.926
 2963TIP3   OH2 8894   5.922   4.060   3.012
 2963TIP3    H1 8895   5.843   4.074   2.961
 2963TIP3    H2 8896   5.976   4.001   2.958
 2964TIP3   OH2 8897   4.693   0.854   0.889
 2964TIP3    H1 8898   4.738   0.781   0.846
 2964TIP3    H2 8899   4.609   0.818   0.915
 2965TIP3   OH2 8900   5.663   0.136   0.983
 2965TIP3    H1 8901   5.726   0.079   0.940
 2965TIP3    H2 8902   5.598   0.076   1.020
 2966TIP3   OH2 8903   0.223   1.161   2.743
 2966TIP3    H1 8904   0.218   1.249   2.705
 2966TIP3    H2 8905   0.138   1.122   2.721
 2967TIP3   OH2 8906   2.129   0.331   3.441
 2967TIP3    H1 8907   2.213   0.357   3.480
 2967TIP3    H2 8908   2.065   0.340   3.511
 2968TIP3   OH2 8909   3.758   3.596   3.750
 2968TIP3    H1 8910   3.834   3.579   3.695
 2968TIP3    H2 8911   3.696   3.641   3.693
 2969TIP3   OH2 8912   1.972   4.621   4.848
 2969TIP3    H1 8913   1.912   4.678   4.800
 2969TIP3    H2 8914   2.016   4.678   4.910
 2970TIP3   OH2 8915   1.852   1.867   2.591
 2970TIP3    H1 8916   1.805   1.857   2.674
 2970TIP3    H2 8917   1.909   1.790   2.587
 2971TIP3   OH2 8918   4.631   4.842   3.982
 2971TIP3    H1 8919   4.700   4.866   4.044
 2971TIP3    H2 8920   4.646   4.750   3.963
 2972TIP3   OH2 8921   1.299   2.168   3.337
 2972TIP3    H1 8922   1.328   2.210   3.256
 2972TIP3    H2 8923   1.343   2.217   3.407
 2973TIP3   OH2 8924   2.212   5.162   4.815
 2973TIP3    H1 8925   2.161   5.130   4.741
 2973TIP3    H2 8926   2.209   5.257   4.808
 2974TIP3   OH2 8927   0.122   2.552   3.250
 2974TIP3    H1 8928   0.034   2.587   3.233
 2974TIP3    H2 8929   0.179   2.629   3.246
 2975TIP3   OH2 8930   0.673   4.346   4.405
 2975TIP3    H1 8931   0.636   4.384   4.325
 2975TIP3    H2 8932   0.661   4.252   4.395
 2976TIP3   OH2 8933   4.531   5.730   1.794
 2976TIP3    H1 8934   4.619   5.764   1.777
 2976TIP3    H2 8935   4.539   5.682   1.877
 2977TIP3   OH2 8936   5.706   3.928   1.319
 2977TIP3    H1 8937   5.622   3.960   1.351
 2977TIP3    H2 8938   5.734   3.992   1.254
 2978TIP3   OH2 8939   0.801   1.316   0.311
 2978TIP3    H1 8940   0.831   1.394   0.358
 2978TIP3    H2 8941   0.750   1.267   0.375
 2979TIP3   OH2 8942   2.435   5.011   0.366
 2979TIP3    H1 8943   2.396   5.013   0.279
 2979TIP3    H2 8944   2.429   5.101   0.397
 2980TIP3   OH2 8945   5.716   0.720   4.081
 2980TIP3    H1 8946   5.793   0.664   4.083
 2980TIP3    H2 8947   5.658   0.679   4.016
 2981TIP3   OH2 8948   5.374   0.791   0.148
 2981TIP3    H1 8949   5.359   0.766   0.240
 2981TIP3    H2 8950   5.383   0.708   0.102
 2982TIP3   OH2 8951   5.105   1.714   4.826
 2982TIP3    H1 8952   5.037   1.756   4.773
 2982TIP3    H2 8953   5.152   1.657   4.764
 2983TIP3   OH2 8954   5.572   1.374   4.531
 2983TIP3    H1 8955   5.603   1.436   4.597
 2983TIP3    H2 8956   5.648   1.320   4.511
 2984TIP3   OH2 8957   0.721   5.508   4.831
 2984TIP3    H1 8958   0.734   5.447   4.904
 2984TIP3    H2 8959   0.682   5.454   4.762
 2985TIP3   OH2 8960   5.589   0.449   1.280
 2985TIP3    H1 8961   5.640   0.376   1.315
 2985TIP3    H2 8962   5.507   0.446   1.329
 2986TIP3   OH2 8963   1.625   3.346   3.293
 2986TIP3    H1 8964   1.639   3.365   3.200
 2986TIP3    H2 8965   1.575   3.265   3.294
 2987TIP3   OH2 8966   2.564   3.519   3.712
 2987TIP3    H1 8967   2.485   3.558   3.674
 2987TIP3    H2 8968   2.636   3.554   3.659
 2988TIP3   OH2 8969   3.381   3.837   5.137
 2988TIP3    H1 8970   3.343   3.824   5.224
 2988TIP3    H2 8971   3.404   3.930   5.135
 2989TIP3   OH2 8972   1.782   2.867   1.964
 2989TIP3    H1 8973   1.755   2.780   1.936
 2989TIP3    H2 8974   1.857   2.853   2.021
 2990TIP3   OH2 8975   3.673   2.929   2.872
 2990TIP3    H1 8976   3.620   2.995   2.916
 2990TIP3    H2 8977   3.756   2.930   2.919
 2991TIP3   OH2 8978   3.252   0.748   2.867
 2991TIP3    H1 8979   3.331   0.700   2.842
 2991TIP3    H2 8980   3.285   0.830   2.903
 2992TIP3   OH2 8981   5.950   4.417   0.309
 2992TIP3    H1 8982   5.860   4.410   0.341
 2992TIP3    H2 8983   5.944   4.393   0.216
 2993TIP3   OH2 8984   1.161   0.511   4.785
 2993TIP3    H1 8985   1.159   0.606   4.801
 2993TIP3    H2 8986   1.167   0.472   4.872
 2994TIP3   OH2 8987   1.636   2.456   3.050
 2994TIP3    H1 8988   1.646   2.550   3.064
 2994TIP3    H2 8989   1.721   2.419   3.072
 2995TIP3   OH2 8990   3.754   5.366   1.121
 2995TIP3    H1 8991   3.681   5.336   1.175
 2995TIP3    H2 8992   3.804   5.424   1.179
 2996TIP3   OH2 8993   1.493   4.258   3.244
 2996TIP3    H1 8994   1.419   4.259   3.182
 2996TIP3    H2 8995   1.531   4.345   3.237
 2997TIP3   OH2 8996   6.042   4.664   4.518
 2997TIP3    H1 8997   6.055   4.571   4.498
 2997TIP3    H2 8998   6.058   4.671   4.612
 2998TIP3   OH2 8999   4.469   2.794   1.990
 2998TIP3    H1 9000   4.549   2.770   1.943
 2998TIP3    H2 9001   4.447   2.717   2.042
 2999TIP3   OH2 9002   0.870   1.304   4.950
 2999TIP3    H1 9003   0.874   1.349   4.865
 2999TIP3    H2 9004   0.799   1.347   4.996
 3000TIP3   OH2 9005   4.614   1.415   1.030
 3000TIP3    H1 9006   4.545   1.370   1.078
 3000TIP3    H2 9007   4.622   1.500   1.073
 3001TIP3   OH2 9008   4.760   0.528   1.624
 3001TIP3    H1 9009   4.727   0.618   1.623
 3001TIP3    H2 9010   4.823   0.526   1.696
 3002TIP3   OH2 9011   4.183   4.687   0.975
 3002TIP3    H1 9012   4.146   4.753   1.033
 3002TIP3    H2 9013   4.247   4.641   1.028
 3003TIP3   OH2 9014   2.443   0.099   2.956
 3003TIP3    H1 9015   2.489   0.019   2.980
 3003TIP3    H2 9016   2.355   0.088   2.992
 3004TIP3   OH2 9017   0.256   4.942   4.235
 3004TIP3    H1 9018   0.241   4.978   4.147
 3004TIP3    H2 9019   0.249   4.847   4.223
 3005TIP3   OH2 9020   1.221   0.500   3.488
 3005TIP3    H1 9021   1.249   0.558   3.416
 3005TIP3    H2 9022   1.138   0.464   3.458
 3006TIP3   OH2 9023   0.370   4.374   2.924
 3006TIP3    H1 9024   0.369   4.431   3.000
 3006TIP3    H2 9025   0.389   4.432   2.850
 3007TIP3   OH2 9026   4.801   2.845   0.700
 3007TIP3    H1 9027   4.896   2.849   0.692
 3007TIP3    H2 9028   4.769   2.912   0.639
 3008TIP3   OH2 9029   4.559   0.199   0.112
 3008TIP3    H1 9030   4.564   0.236   0.201
 3008TIP3    H2 9031   4.592   0.109   0.122
 3009TIP3   OH2 9032   2.129   2.290   2.942
 3009TIP3    H1 9033   2.187   2.241   3.001
 3009TIP3    H2 9034   2.188   2.336   2.883
 3010TIP3   OH2 9035   5.942   3.390   5.003
 3010TIP3    H1 9036   5.928   3.405   5.096
 3010TIP3    H2 9037   6.037   3.390   4.993
 3011TIP3   OH2 9038   1.093   1.139   2.187
 3011TIP3    H1 9039   1.106   1.212   2.128
 3011TIP3    H2 9040   1.178   1.126   2.229
 3012TIP3   OH2 9041   3.407   5.159   3.479
 3012TIP3    H1 9042   3.483   5.197   3.434
 3012TIP3    H2 9043   3.438   5.142   3.568
 3013TIP3   OH2 9044   0.171   3.323   1.313
 3013TIP3    H1 9045   0.114   3.270   1.369
 3013TIP3    H2 9046   0.225   3.258   1.267
 3014TIP3   OH2 9047   6.260   3.083   4.926
 3014TIP3    H1 9048   6.329   3.083   4.859
 3014TIP3    H2 9049   6.275   3.164   4.975
 3015TIP3   OH2 9050   2.004   0.501   2.214
 3015TIP3    H1 9051   1.986   0.421   2.264
 3015TIP3    H2 9052   1.983   0.572   2.275
 3016TIP3   OH2 9053   2.613   1.106   0.661
 3016TIP3    H1 9054   2.570   1.021   0.653
 3016TIP3    H2 9055   2.654   1.104   0.748
 3017TIP3   OH2 9056   2.344   0.286   3.692
 3017TIP3    H1 9057   2.391   0.359   3.732
 3017TIP3    H2 9058   2.409   0.245   3.635
 3018TIP3   OH2 9059   4.798   4.927   4.516
 3018TIP3    H1 9060   4.710   4.950   4.485
 3018TIP3    H2 9061   4.796   4.948   4.610
 3019TIP3   OH2 9062   6.271   0.913   2.426
 3019TIP3    H1 9063   6.323   0.886   2.350
 3019TIP3    H2 9064   6.186   0.938   2.388
 3020TIP3   OH2 9065   3.907   1.155   2.032
 3020TIP3    H1 9066   3.938   1.066   2.016
 3020TIP3    H2 9067   3.940   1.176   2.120
 3021TIP3   OH2 9068   1.912   1.340   1.766
 3021TIP3    H1 9069   1.942   1.325   1.677
 3021TIP3    H2 9070   1.925   1.434   1.781
 3022TIP3   OH2 9071   5.600   0.712   2.722
 3022TIP3    H1 9072   5.556   0.660   2.790
 3022TIP3    H2 9073   5.561   0.799   2.730
 3023TIP3   OH2 9074   5.575   3.776   0.318
 3023TIP3    H1 9075   5.553   3.683   0.315
 3023TIP3    H2 9076   5.615   3.788   0.404
 3024TIP3   OH2 9077   0.297   0.909   3.754
 3024TIP3    H1 9078   0.251   0.827   3.772
 3024TIP3    H2 9079   0.366   0.885   3.691
 3025TIP3   OH2 9080   0.567   3.889   2.419
 3025TIP3    H1 9081   0.540   3.832   2.491
 3025TIP3    H2 9082   0.647   3.848   2.385
 3026TIP3   OH2 9083   3.596   3.673   3.542
 3026TIP3    H1 9084   3.602   3.767   3.521
 3026TIP3    H2 9085   3.505   3.662   3.572
 3027TIP3   OH2 9086   5.069   4.577   1.614
 3027TIP3    H1 9087   4.979   4.569   1.584
 3027TIP3    H2 9088   5.066   4.551   1.706
 3028TIP3   OH2 9089   4.960   5.969   3.021
 3028TIP3    H1 9090   4.882   6.013   2.985
 3028TIP3    H2 9091   4.942   5.876   3.008
 3029TIP3   OH2 9092   4.185   2.073   4.609
 3029TIP3    H1 9093   4.175   2.001   4.547
 3029TIP3    H2 9094   4.279   2.092   4.609
 3030TIP3   OH2 9095   2.318   3.905   0.133
 3030TIP3    H1 9096   2.237   3.932   0.177
 3030TIP3    H2 9097   2.364   3.987   0.115
 3031TIP3   OH2 9098   5.087   4.167   4.641
 3031TIP3    H1 9099   5.177   4.201   4.637
 3031TIP3    H2 9100   5.058   4.166   4.550
 3032TIP3   OH2 9101   3.383   5.932   3.297
 3032TIP3    H1 9102   3.450   5.876   3.255
 3032TIP3    H2 9103   3.357   5.883   3.375
 3033TIP3   OH2 9104   4.484   6.001   4.872
 3033TIP3    H1 9105   4.447   5.920   4.906
 3033TIP3    H2 9106   4.503   6.054   4.950
 3034TIP3   OH2 9107   1.435   2.976   0.481
 3034TIP3    H1 9108   1.412   3.002   0.570
 3034TIP3    H2 9109   1.364   2.918   0.453
 3035TIP3   OH2 9110   4.704   2.850   1.443
 3035TIP3    H1 9111   4.796   2.826   1.450
 3035TIP3    H2 9112   4.687   2.856   1.349
 3036TIP3   OH2 9113   4.159   5.441   1.485
 3036TIP3    H1 9114   4.180   5.355   1.451
 3036TIP3    H2 9115   4.244   5.480   1.506
 3037TIP3   OH2 9116   5.308   4.361   4.597
 3037TIP3    H1 9117   5.352   4.443   4.618
 3037TIP3    H2 9118   5.263   4.379   4.514
 3038TIP3   OH2 9119   5.657   1.845   0.673
 3038TIP3    H1 9120   5.650   1.759   0.715
 3038TIP3    H2 9121   5.646   1.827   0.579
 3039TIP3   OH2 9122   0.672   1.112   0.479
 3039TIP3    H1 9123   0.619   1.099   0.400
 3039TIP3    H2 9124   0.613   1.089   0.551
 3040TIP3   OH2 9125   2.407   1.980   2.142
 3040TIP3    H1 9126   2.460   1.925   2.200
 3040TIP3    H2 9127   2.378   2.052   2.197
 3041TIP3   OH2 9128   2.129   4.480   1.227
 3041TIP3    H1 9129   2.045   4.450   1.260
 3041TIP3    H2 9130   2.122   4.575   1.225
 3042TIP3   OH2 9131   1.088   3.102   2.296
 3042TIP3    H1 9132   1.137   3.094   2.377
 3042TIP3    H2 9133   1.052   3.014   2.281
 3043TIP3   OH2 9134   0.945   0.812   0.854
 3043TIP3    H1 9135   0.859   0.844   0.881
 3043TIP3    H2 9136   0.932   0.783   0.763
 3044TIP3   OH2 9137   4.520   4.319   2.971
 3044TIP3    H1 9138   4.472   4.311   2.888
 3044TIP3    H2 9139   4.560   4.233   2.984
 3045TIP3   OH2 9140   0.177   5.084   1.016
 3045TIP3    H1 9141   0.226   5.143   0.959
 3045TIP3    H2 9142   0.151   5.012   0.959
 3046TIP3   OH2 9143   2.540   0.372   0.540
 3046TIP3    H1 9144   2.630   0.400   0.520
 3046TIP3    H2 9145   2.494   0.381   0.456
 3047TIP3   OH2 9146   3.651   4.548   2.886
 3047TIP3    H1 9147   3.716   4.553   2.956
 3047TIP3    H2 9148   3.635   4.639   2.860
 3048TIP3   OH2 9149   0.398   4.292   1.855
 3048TIP3    H1 9150   0.451   4.344   1.916
 3048TIP3    H2 9151   0.462   4.260   1.791
 3049TIP3   OH2 9152   2.775   3.109   2.211
 3049TIP3    H1 9153   2.778   3.126   2.305
 3049TIP3    H2 9154   2.695   3.153   2.181
 3050TIP3   OH2 9155   2.381   1.984   4.090
 3050TIP3    H1 9156   2.315   2.053   4.085
 3050TIP3    H2 9157   2.367   1.943   4.175
 3051TIP3   OH2 9158   3.951   1.651   4.643
 3051TIP3    H1 9159   3.896   1.713   4.691
 3051TIP3    H2 9160   3.982   1.591   4.710
 3052TIP3   OH2 9161   0.403   3.996   2.264
 3052TIP3    H1 9162   0.462   3.948   2.322
 3052TIP3    H2 9163   0.316   3.960   2.284
 3053TIP3   OH2 9164   4.193   4.812   1.648
 3053TIP3    H1 9165   4.148   4.729   1.661
 3053TIP3    H2 9166   4.126   4.879   1.660
 3054TIP3   OH2 9167   2.077   1.491   3.685
 3054TIP3    H1 9168   2.136   1.498   3.760
 3054TIP3    H2 9169   2.134   1.498   3.608
 3055TIP3   OH2 9170   4.227   5.671   3.766
 3055TIP3    H1 9171   4.258   5.735   3.831
 3055TIP3    H2 9172   4.283   5.686   3.690
 3056TIP3   OH2 9173   6.199   4.852   0.841
 3056TIP3    H1 9174   6.193   4.762   0.810
 3056TIP3    H2 9175   6.289   4.879   0.821
 3057TIP3   OH2 9176   2.664   1.906   0.619
 3057TIP3    H1 9177   2.701   1.834   0.568
 3057TIP3    H2 9178   2.677   1.984   0.564
 3058TIP3   OH2 9179   0.149   5.497   3.607
 3058TIP3    H1 9180   0.061   5.470   3.633
 3058TIP3    H2 9181   0.199   5.498   3.689
 3059TIP3   OH2 9182   0.172   0.506   4.131
 3059TIP3    H1 9183   0.207   0.504   4.042
 3059TIP3    H2 9184   0.128   0.421   4.142
 3060TIP3   OH2 9185   2.968   4.667   0.882
 3060TIP3    H1 9186   3.052   4.679   0.837
 3060TIP3    H2 9187   2.979   4.587   0.933
 3061TIP3   OH2 9188   1.582   5.084   0.270
 3061TIP3    H1 9189   1.540   5.163   0.236
 3061TIP3    H2 9190   1.532   5.012   0.233
 3062TIP3   OH2 9191   4.712   4.991   0.394
 3062TIP3    H1 9192   4.631   4.957   0.433
 3062TIP3    H2 9193   4.691   5.082   0.373
 3063TIP3   OH2 9194   1.781   1.596   4.907
 3063TIP3    H1 9195   1.798   1.581   5.000
 3063TIP3    H2 9196   1.687   1.609   4.901
 3064TIP3   OH2 9197   4.887   5.678   5.199
 3064TIP3    H1 9198   4.860   5.664   5.108
 3064TIP3    H2 9199   4.979   5.651   5.201
 3065TIP3   OH2 9200   3.359   1.290   0.305
 3065TIP3    H1 9201   3.355   1.363   0.242
 3065TIP3    H2 9202   3.267   1.265   0.317
 3066TIP3   OH2 9203   3.427   0.315   1.259
 3066TIP3    H1 9204   3.440   0.278   1.171
 3066TIP3    H2 9205   3.401   0.240   1.313
 3067TIP3   OH2 9206   2.723   4.775   1.820
 3067TIP3    H1 9207   2.766   4.764   1.735
 3067TIP3    H2 9208   2.788   4.744   1.884
 3068TIP3   OH2 9209   3.846   5.038   0.006
 3068TIP3    H1 9210   3.838   5.059   0.099
 3068TIP3    H2 9211   3.818   5.118  -0.039
 3069TIP3   OH2 9212   1.539   3.594   4.668
 3069TIP3    H1 9213   1.476   3.630   4.731
 3069TIP3    H2 9214   1.496   3.604   4.583
 3070TIP3   OH2 9215   2.083   2.837   5.050
 3070TIP3    H1 9216   2.154   2.807   4.995
 3070TIP3    H2 9217   2.126   2.880   5.124
 3071TIP3   OH2 9218   3.044   3.609   5.002
 3071TIP3    H1 9219   3.011   3.698   5.015
 3071TIP3    H2 9220   3.106   3.616   4.930
 3072TIP3   OH2 9221   4.001   1.226   3.479
 3072TIP3    H1 9222   4.092   1.200   3.461
 3072TIP3    H2 9223   3.980   1.179   3.560
 3073TIP3   OH2 9224   1.464   4.456   1.224
 3073TIP3    H1 9225   1.398   4.483   1.288
 3073TIP3    H2 9226   1.538   4.429   1.277
 3074TIP3   OH2 9227   1.056   5.791   1.472
 3074TIP3    H1 9228   1.123   5.726   1.493
 3074TIP3    H2 9229   1.035   5.775   1.380
 3075TIP3   OH2 9230   4.596   3.627   3.536
 3075TIP3    H1 9231   4.641   3.604   3.617
 3075TIP3    H2 9232   4.658   3.682   3.489
 3076TIP3   OH2 9233   2.132   0.846   4.464
 3076TIP3    H1 9234   2.198   0.890   4.518
 3076TIP3    H2 9235   2.167   0.848   4.375
 3077TIP3   OH2 9236   4.799   3.933   1.342
 3077TIP3    H1 9237   4.817   3.839   1.348
 3077TIP3    H2 9238   4.877   3.975   1.378
 3078TIP3   OH2 9239   0.844   3.103   3.276
 3078TIP3    H1 9240   0.810   3.040   3.339
 3078TIP3    H2 9241   0.921   3.060   3.238
 3079TIP3   OH2 9242   1.590   2.878   2.975
 3079TIP3    H1 9243   1.685   2.881   2.981
 3079TIP3    H2 9244   1.566   2.954   2.922
 3080TIP3   OH2 9245   2.283   1.692   0.590
 3080TIP3    H1 9246   2.261   1.623   0.653
 3080TIP3    H2 9247   2.359   1.736   0.628
 3081TIP3   OH2 9248   0.084   1.924   1.118
 3081TIP3    H1 9249   0.147   1.973   1.171
 3081TIP3    H2 9250   0.012   1.905   1.179
 3082TIP3   OH2 9251   4.395   3.397   0.824
 3082TIP3    H1 9252   4.321   3.457   0.837
 3082TIP3    H2 9253   4.368   3.317   0.867
 3083TIP3   OH2 9254   4.544   2.517   2.776
 3083TIP3    H1 9255   4.488   2.442   2.760
 3083TIP3    H2 9256   4.587   2.534   2.692
 3084TIP3   OH2 9257   0.475   2.631   1.624
 3084TIP3    H1 9258   0.496   2.555   1.570
 3084TIP3    H2 9259   0.397   2.605   1.673
 3085TIP3   OH2 9260   1.747   4.174   2.647
 3085TIP3    H1 9261   1.804   4.131   2.711
 3085TIP3    H2 9262   1.722   4.105   2.586
 3086TIP3   OH2 9263   3.757   5.651   1.555
 3086TIP3    H1 9264   3.705   5.659   1.635
 3086TIP3    H2 9265   3.840   5.614   1.583
 3087TIP3   OH2 9266   6.200   5.143   4.888
 3087TIP3    H1 9267   6.170   5.233   4.901
 3087TIP3    H2 9268   6.276   5.134   4.946
 3088TIP3   OH2 9269   5.671   0.466   2.198
 3088TIP3    H1 9270   5.601   0.525   2.224
 3088TIP3    H2 9271   5.627   0.383   2.179
 3089TIP3   OH2 9272   5.308   3.025   1.687
 3089TIP3    H1 9273   5.282   3.007   1.778
 3089TIP3    H2 9274   5.300   2.941   1.642
 3090TIP3   OH2 9275   5.812   1.289   2.280
 3090TIP3    H1 9276   5.871   1.315   2.209
 3090TIP3    H2 9277   5.796   1.370   2.329
 3091TIP3   OH2 9278   3.925   2.114   1.222
 3091TIP3    H1 9279   3.942   2.021   1.205
 3091TIP3    H2 9280   3.831   2.124   1.209
 3092TIP3   OH2 9281   0.194   1.032   3.020
 3092TIP3    H1 9282   0.167   0.981   2.944
 3092TIP3    H2 9283   0.268   1.085   2.988
 3093TIP3   OH2 9284   3.616   4.923   2.575
 3093TIP3    H1 9285   3.522   4.936   2.573
 3093TIP3    H2 9286   3.631   4.864   2.649
 3094TIP3   OH2 9287   3.591   1.264   2.322
 3094TIP3    H1 9288   3.645   1.330   2.278
 3094TIP3    H2 9289   3.599   1.285   2.415
 3095TIP3   OH2 9290   3.385   1.633   0.430
 3095TIP3    H1 9291   3.385   1.728   0.434
 3095TIP3    H2 9292   3.438   1.611   0.353
 3096TIP3   OH2 9293   4.809   4.623   1.476
 3096TIP3    H1 9294   4.770   4.536   1.473
 3096TIP3    H2 9295   4.734   4.683   1.468
 3097TIP3   OH2 9296   4.413   3.019   3.201
 3097TIP3    H1 9297   4.488   3.037   3.145
 3097TIP3    H2 9298   4.413   3.091   3.264
 3098TIP3   OH2 9299   2.579   0.905   2.938
 3098TIP3    H1 9300   2.503   0.941   2.894
 3098TIP3    H2 9301   2.548   0.824   2.979
 3099TIP3   OH2 9302   4.153   4.858   4.123
 3099TIP3    H1 9303   4.076   4.801   4.124
 3099TIP3    H2 9304   4.165   4.883   4.215
 3100TIP3   OH2 9305   4.213   0.499   1.255
 3100TIP3    H1 9306   4.140   0.461   1.206
 3100TIP3    H2 9307   4.249   0.426   1.307
 3101TIP3   OH2 9308   0.952   0.476   2.208
 3101TIP3    H1 9309   0.859   0.452   2.205
 3101TIP3    H2 9310   0.993   0.404   2.256
 3102TIP3   OH2 9311   3.942   5.722   1.876
 3102TIP3    H1 9312   3.961   5.664   1.802
 3102TIP3    H2 9313   3.862   5.686   1.915
 3103TIP3   OH2 9314   4.209   0.668   3.097
 3103TIP3    H1 9315   4.294   0.703   3.123
 3103TIP3    H2 9316   4.189   0.712   3.014
 3104TIP3   OH2 9317   3.347   5.111   4.074
 3104TIP3    H1 9318   3.380   5.022   4.081
 3104TIP3    H2 9319   3.301   5.113   3.990
 3105TIP3   OH2 9320   1.078   5.376   4.175
 3105TIP3    H1 9321   1.148   5.432   4.209
 3105TIP3    H2 9322   1.029   5.432   4.115
 3106TIP3   OH2 9323   2.925   2.817   3.562
 3106TIP3    H1 9324   2.924   2.806   3.468
 3106TIP3    H2 9325   3.003   2.870   3.579
 3107TIP3   OH2 9326   5.268   2.870   2.201
 3107TIP3    H1 9327   5.267   2.952   2.249
 3107TIP3    H2 9328   5.188   2.825   2.227
 3108TIP3   OH2 9329   4.267   5.614   3.378
 3108TIP3    H1 9330   4.172   5.616   3.390
 3108TIP3    H2 9331   4.280   5.584   3.288
 3109TIP3   OH2 9332   5.210   2.843   2.556
 3109TIP3    H1 9333   5.158   2.817   2.480
 3109TIP3    H2 9334   5.157   2.909   2.600
 3110TIP3   OH2 9335   5.977   1.324   1.986
 3110TIP3    H1 9336   6.034   1.309   1.910
 3110TIP3    H2 9337   5.968   1.238   2.026
 3111TIP3   OH2 9338   4.415   4.750   1.221
 3111TIP3    H1 9339   4.337   4.802   1.203
 3111TIP3    H2 9340   4.386   4.659   1.215
 3112TIP3   OH2 9341   3.864   3.596   2.213
 3112TIP3    H1 9342   3.918   3.521   2.186
 3112TIP3    H2 9343   3.876   3.660   2.143
 3113TIP3   OH2 9344   1.802   0.984   1.724
 3113TIP3    H1 9345   1.894   0.965   1.740
 3113TIP3    H2 9346   1.771   1.023   1.806
 3114TIP3   OH2 9347   5.271   1.579   0.224
 3114TIP3    H1 9348   5.255   1.584   0.318
 3114TIP3    H2 9349   5.189   1.547   0.187
 3115TIP3   OH2 9350   0.088   4.162   0.345
 3115TIP3    H1 9351   0.091   4.107   0.266
 3115TIP3    H2 9352   0.027   4.118   0.403
 3116TIP3   OH2 9353   0.770   0.221   2.821
 3116TIP3    H1 9354   0.675   0.215   2.832
 3116TIP3    H2 9355   0.788   0.315   2.824
 3117TIP3   OH2 9356   3.145   2.456   3.487
 3117TIP3    H1 9357   3.063   2.453   3.437
 3117TIP3    H2 9358   3.125   2.406   3.567
 3118TIP3   OH2 9359   3.078   5.765   0.096
 3118TIP3    H1 9360   3.034   5.723   0.170
 3118TIP3    H2 9361   3.144   5.702   0.069
 3119TIP3   OH2 9362   2.371   0.624   3.776
 3119TIP3    H1 9363   2.295   0.677   3.753
 3119TIP3    H2 9364   2.407   0.665   3.854
 3120TIP3   OH2 9365   2.773   3.544   0.085
 3120TIP3    H1 9366   2.735   3.469   0.039
 3120TIP3    H2 9367   2.703   3.577   0.141
 3121TIP3   OH2 9368   4.426   4.440   3.540
 3121TIP3    H1 9369   4.486   4.444   3.615
 3121TIP3    H2 9370   4.482   4.419   3.465
 3122TIP3   OH2 9371   3.414   2.819   0.804
 3122TIP3    H1 9372   3.327   2.816   0.764
 3122TIP3    H2 9373   3.474   2.829   0.730
 3123TIP3   OH2 9374   3.837   3.579   4.541
 3123TIP3    H1 9375   3.769   3.512   4.546
 3123TIP3    H2 9376   3.845   3.599   4.448
 3124TIP3   OH2 9377   3.515   4.987   5.106
 3124TIP3    H1 9378   3.521   4.923   5.176
 3124TIP3    H2 9379   3.576   5.057   5.131
 3125TIP3   OH2 9380   0.151   1.108   2.123
 3125TIP3    H1 9381   0.060   1.112   2.153
 3125TIP3    H2 9382   0.152   1.038   2.059
 3126TIP3   OH2 9383   1.950   4.557   0.883
 3126TIP3    H1 9384   1.897   4.580   0.807
 3126TIP3    H2 9385   1.966   4.639   0.929
 3127TIP3   OH2 9386   2.177   5.764   1.049
 3127TIP3    H1 9387   2.200   5.849   1.012
 3127TIP3    H2 9388   2.201   5.770   1.141
 3128TIP3   OH2 9389   5.188   2.189   1.067
 3128TIP3    H1 9390   5.242   2.255   1.025
 3128TIP3    H2 9391   5.106   2.234   1.088
 3129TIP3   OH2 9392   4.626   4.031   1.116
 3129TIP3    H1 9393   4.569   3.954   1.125
 3129TIP3    H2 9394   4.702   4.010   1.170
 3130TIP3   OH2 9395   2.415   0.674   4.952
 3130TIP3    H1 9396   2.436   0.581   4.960
 3130TIP3    H2 9397   2.320   0.678   4.961
 3131TIP3   OH2 9398   2.262   4.862   0.926
 3131TIP3    H1 9399   2.338   4.823   0.970
 3131TIP3    H2 9400   2.230   4.927   0.989
 3132TIP3   OH2 9401   5.658   4.212   1.251
 3132TIP3    H1 9402   5.660   4.304   1.276
 3132TIP3    H2 9403   5.608   4.169   1.321
 3133TIP3   OH2 9404   3.129   4.803   3.875
 3133TIP3    H1 9405   3.035   4.809   3.894
 3133TIP3    H2 9406   3.133   4.785   3.781
 3134TIP3   OH2 9407   5.332   0.377   0.274
 3134TIP3    H1 9408   5.282   0.309   0.319
 3134TIP3    H2 9409   5.333   0.350   0.182
 3135TIP3   OH2 9410   0.723   3.006   0.437
 3135TIP3    H1 9411   0.771   2.968   0.363
 3135TIP3    H2 9412   0.653   3.057   0.396
 3136TIP3   OH2 9413   3.555   5.274   1.303
 3136TIP3    H1 9414   3.483   5.269   1.241
 3136TIP3    H2 9415   3.514   5.296   1.386
 3137TIP3   OH2 9416   4.310   2.791   1.765
 3137TIP3    H1 9417   4.363   2.713   1.747
 3137TIP3    H2 9418   4.344   2.824   1.848
 3138TIP3   OH2 9419   6.175   5.013   2.501
 3138TIP3    H1 9420   6.137   5.083   2.449
 3138TIP3    H2 9421   6.101   4.957   2.523
 3139TIP3   OH2 9422   5.481   5.051   4.817
 3139TIP3    H1 9423   5.527   5.018   4.739
 3139TIP3    H2 9424   5.454   5.140   4.793
 3140TIP3   OH2 9425   2.395   1.680   3.436
 3140TIP3    H1 9426   2.329   1.695   3.504
 3140TIP3    H2 9427   2.477   1.707   3.477
 3141TIP3   OH2 9428   1.645   0.165   4.897
 3141TIP3    H1 9429   1.555   0.145   4.871
 3141TIP3    H2 9430   1.640   0.252   4.935
 3142TIP3   OH2 9431   3.505   4.069   2.865
 3142TIP3    H1 9432   3.591   4.029   2.853
 3142TIP3    H2 9433   3.453   4.036   2.791
 3143TIP3   OH2 9434   0.981   2.401   1.335
 3143TIP3    H1 9435   0.970   2.490   1.300
 3143TIP3    H2 9436   0.917   2.348   1.287
 3144TIP3   OH2 9437   2.326   3.168   0.398
 3144TIP3    H1 9438   2.370   3.237   0.447
 3144TIP3    H2 9439   2.315   3.097   0.461
 3145TIP3   OH2 9440   2.793   3.151   0.366
 3145TIP3    H1 9441   2.881   3.171   0.336
 3145TIP3    H2 9442   2.749   3.236   0.372
 3146TIP3   OH2 9443   0.257  -0.059   3.215
 3146TIP3    H1 9444   0.189  -0.116   3.177
 3146TIP3    H2 9445   0.233   0.029   3.186
 3147TIP3   OH2 9446   1.185   3.954   5.115
 3147TIP3    H1 9447   1.279   3.970   5.120
 3147TIP3    H2 9448   1.167   3.896   5.189
 3148TIP3   OH2 9449   3.736   4.021   1.430
 3148TIP3    H1 9450   3.779   4.073   1.498
 3148TIP3    H2 9451   3.682   3.959   1.480
 3149TIP3   OH2 9452   3.962   0.721  -0.021
 3149TIP3    H1 9453   3.912   0.646   0.011
 3149TIP3    H2 9454   4.020   0.743   0.052
 3150TIP3   OH2 9455   1.634   1.239   1.819
 3150TIP3    H1 9456   1.727   1.246   1.839
 3150TIP3    H2 9457   1.613   1.321   1.775
 3151TIP3   OH2 9458   5.920   5.895   0.702
 3151TIP3    H1 9459   5.963   5.814   0.729
 3151TIP3    H2 9460   5.830   5.868   0.681
 3152TIP3   OH2 9461   1.502   4.936   1.108
 3152TIP3    H1 9462   1.510   4.880   1.185
 3152TIP3    H2 9463   1.441   4.890   1.051
 3153TIP3   OH2 9464   4.897   0.093   1.634
 3153TIP3    H1 9465   4.981   0.137   1.618
 3153TIP3    H2 9466   4.913   0.002   1.609
 3154TIP3   OH2 9467   3.923   0.182   1.308
 3154TIP3    H1 9468   3.920   0.251   1.374
 3154TIP3    H2 9469   3.901   0.102   1.357
 3155TIP3   OH2 9470   3.196   3.111   0.984
 3155TIP3    H1 9471   3.292   3.115   0.989
 3155TIP3    H2 9472   3.174   3.164   0.907
 3156TIP3   OH2 9473   4.847   0.763   0.314
 3156TIP3    H1 9474   4.863   0.721   0.230
 3156TIP3    H2 9475   4.753   0.782   0.314
 3157TIP3   OH2 9476   1.285   4.316   4.331
 3157TIP3    H1 9477   1.276   4.391   4.273
 3157TIP3    H2 9478   1.215   4.257   4.306
 3158TIP3   OH2 9479   5.903   1.111   3.793
 3158TIP3    H1 9480   5.954   1.134   3.715
 3158TIP3    H2 9481   5.934   1.024   3.817
 3159TIP3   OH2 9482   4.761   5.817   3.639
 3159TIP3    H1 9483   4.683   5.862   3.672
 3159TIP3    H2 9484   4.756   5.827   3.544
 3160TIP3   OH2 9485   1.240   3.212   1.564
 3160TIP3    H1 9486   1.300   3.172   1.627
 3160TIP3    H2 9487   1.183   3.267   1.617
 3161TIP3   OH2 9488   3.054   2.605   1.144
 3161TIP3    H1 9489   2.965   2.618   1.112
 3161TIP3    H2 9490   3.105   2.675   1.103
 3162TIP3   OH2 9491   5.651   5.419   3.577
 3162TIP3    H1 9492   5.570   5.458   3.610
 3162TIP3    H2 9493   5.623   5.345   3.523
 3163TIP3   OH2 9494   1.641   2.492   1.580
 3163TIP3    H1 9495   1.729   2.522   1.559
 3163TIP3    H2 9496   1.650   2.398   1.593
 3164TIP3   OH2 9497   0.282   2.219   2.854
 3164TIP3    H1 9498   0.329   2.137   2.839
 3164TIP3    H2 9499   0.223   2.200   2.927
 3165TIP3   OH2 9500   0.799   3.218   4.785
 3165TIP3    H1 9501   0.856   3.151   4.746
 3165TIP3    H2 9502   0.729   3.168   4.828
 3166TIP3   OH2 9503   5.915   1.433   0.964
 3166TIP3    H1 9504   5.867   1.397   0.889
 3166TIP3    H2 9505   6.003   1.395   0.956
 3167TIP3   OH2 9506   4.453   5.361   2.469
 3167TIP3    H1 9507   4.388   5.429   2.486
 3167TIP3    H2 9508   4.402   5.280   2.464
 3168TIP3   OH2 9509   0.880   1.980   4.673
 3168TIP3    H1 9510   0.913   2.001   4.585
 3168TIP3    H2 9511   0.945   2.018   4.732
 3169TIP3   OH2 9512   3.485   5.868   4.471
 3169TIP3    H1 9513   3.452   5.793   4.422
 3169TIP3    H2 9514   3.525   5.830   4.549
 3170TIP3   OH2 9515   4.502   0.195   2.199
 3170TIP3    H1 9516   4.503   0.116   2.145
 3170TIP3    H2 9517   4.409   0.216   2.209
 3171TIP3   OH2 9518   2.462   4.254   2.045
 3171TIP3    H1 9519   2.466   4.266   2.140
 3171TIP3    H2 9520   2.524   4.318   2.011
 3172TIP3   OH2 9521   5.128   5.778   0.807
 3172TIP3    H1 9522   5.104   5.719   0.879
 3172TIP3    H2 9523   5.085   5.861   0.830
 3173TIP3   OH2 9524   1.780   1.383   0.213
 3173TIP3    H1 9525   1.851   1.433   0.173
 3173TIP3    H2 9526   1.714   1.375   0.145
 3174TIP3   OH2 9527   6.148   4.623   3.931
 3174TIP3    H1 9528   6.055   4.643   3.937
 3174TIP3    H2 9529   6.184   4.644   4.017
 3175TIP3   OH2 9530   3.010   2.848   4.641
 3175TIP3    H1 9531   2.926   2.894   4.637
 3175TIP3    H2 9532   3.045   2.855   4.552
 3176TIP3   OH2 9533   0.028   2.340   1.367
 3176TIP3    H1 9534  -0.042   2.322   1.429
 3176TIP3    H2 9535  -0.017   2.364   1.286
 3177TIP3   OH2 9536   2.064   5.936   2.171
 3177TIP3    H1 9537   2.071   6.031   2.185
 3177TIP3    H2 9538   2.152   5.910   2.146
 3178TIP3   OH2 9539   1.148   1.431   2.147
 3178TIP3    H1 9540   1.112   1.505   2.196
 3178TIP3    H2 9541   1.078   1.407   2.085
 3179TIP3   OH2 9542   2.228   2.745   1.485
 3179TIP3    H1 9543   2.256   2.835   1.506
 3179TIP3    H2 9544   2.140   2.738   1.521
 3180TIP3   OH2 9545   3.418   1.370   4.607
 3180TIP3    H1 9546   3.491   1.415   4.650
 3180TIP3    H2 9547   3.340   1.402   4.652
 3181TIP3   OH2 9548   2.148   3.973   4.345
 3181TIP3    H1 9549   2.164   4.037   4.414
 3181TIP3    H2 9550   2.053   3.963   4.343
 3182TIP3   OH2 9551   6.068   2.647   2.051
 3182TIP3    H1 9552   5.973   2.641   2.038
 3182TIP3    H2 9553   6.106   2.589   1.985
 3183TIP3   OH2 9554   1.613   0.818   3.192
 3183TIP3    H1 9555   1.592   0.842   3.102
 3183TIP3    H2 9556   1.637   0.900   3.235
 3184TIP3   OH2 9557   0.587   3.211   4.313
 3184TIP3    H1 9558   0.603   3.135   4.258
 3184TIP3    H2 9559   0.586   3.176   4.402
 3185TIP3   OH2 9560   0.404   1.440   3.103
 3185TIP3    H1 9561   0.473   1.486   3.055
 3185TIP3    H2 9562   0.407   1.476   3.191
 3186TIP3   OH2 9563   2.599   5.723   5.132
 3186TIP3    H1 9564   2.591   5.789   5.201
 3186TIP3    H2 9565   2.662   5.760   5.070
 3187TIP3   OH2 9566   5.723   1.306   3.898
 3187TIP3    H1 9567   5.646   1.271   3.853
 3187TIP3    H2 9568   5.790   1.240   3.884
 3188TIP3   OH2 9569   1.916   0.693   4.109
 3188TIP3    H1 9570   1.928   0.628   4.040
 3188TIP3    H2 9571   2.002   0.701   4.150
 3189TIP3   OH2 9572   3.585   0.517   3.430
 3189TIP3    H1 9573   3.565   0.447   3.368
 3189TIP3    H2 9574   3.507   0.523   3.485
 3190TIP3   OH2 9575   2.743   2.404   2.079
 3190TIP3    H1 9576   2.837   2.391   2.086
 3190TIP3    H2 9577   2.722   2.377   1.989
 3191TIP3   OH2 9578   4.520   2.482   4.094
 3191TIP3    H1 9579   4.507   2.431   4.175
 3191TIP3    H2 9580   4.614   2.473   4.075
 3192TIP3   OH2 9581   5.611   1.617   2.278
 3192TIP3    H1 9582   5.691   1.567   2.296
 3192TIP3    H2 9583   5.639   1.687   2.220
 3193TIP3   OH2 9584   2.603   2.353   4.764
 3193TIP3    H1 9585   2.614   2.311   4.679
 3193TIP3    H2 9586   2.674   2.416   4.769
 3194TIP3   OH2 9587   6.237   2.237   1.984
 3194TIP3    H1 9588   6.307   2.200   1.930
 3194TIP3    H2 9589   6.184   2.162   2.009
 3195TIP3   OH2 9590   6.340   5.331   1.905
 3195TIP3    H1 9591   6.266   5.319   1.964
 3195TIP3    H2 9592   6.335   5.423   1.879
 3196TIP3   OH2 9593   5.154   0.346   3.166
 3196TIP3    H1 9594   5.177   0.259   3.199
 3196TIP3    H2 9595   5.126   0.331   3.076
 3197TIP3   OH2 9596   1.264   2.788   2.814
 3197TIP3    H1 9597   1.323   2.856   2.847
 3197TIP3    H2 9598   1.302   2.706   2.847
 3198TIP3   OH2 9599   0.311   4.520   0.306
 3198TIP3    H1 9600   0.230   4.487   0.267
 3198TIP3    H2 9601   0.361   4.555   0.233
 3199TIP3   OH2 9602   2.805   4.717   1.111
 3199TIP3    H1 9603   2.871   4.706   1.043
 3199TIP3    H2 9604   2.828   4.652   1.178
 3200TIP3   OH2 9605   3.907   2.971   3.746
 3200TIP3    H1 9606   3.832   2.957   3.805
 3200TIP3    H2 9607   3.885   3.051   3.698
 3201TIP3   OH2 9608   2.272   0.634   2.455
 3201TIP3    H1 9609   2.323   0.672   2.527
 3201TIP3    H2 9610   2.194   0.689   2.450
 3202TIP3   OH2 9611   2.074   1.164   2.004
 3202TIP3    H1 9612   2.086   1.258   2.020
 3202TIP3    H2 9613   2.117   1.122   2.078
 3203TIP3   OH2 9614   1.699   1.858   3.007
 3203TIP3    H1 9615   1.728   1.807   3.083
 3203TIP3    H2 9616   1.740   1.943   3.018
 3204TIP3   OH2 9617   3.527   3.695   4.930
 3204TIP3    H1 9618   3.466   3.703   5.003
 3204TIP3    H2 9619   3.612   3.718   4.967
 3205TIP3   OH2 9620   1.480   4.478   2.679
 3205TIP3    H1 9621   1.522   4.394   2.696
 3205TIP3    H2 9622   1.533   4.541   2.727
 3206TIP3   OH2 9623   3.789   2.873   2.597
 3206TIP3    H1 9624   3.774   2.854   2.504
 3206TIP3    H2 9625   3.702   2.890   2.633
 3207TIP3   OH2 9626   4.993   2.859   3.026
 3207TIP3    H1 9627   4.907   2.818   3.030
 3207TIP3    H2 9628   4.981   2.942   3.073
 3208TIP3   OH2 9629   6.110   2.987   2.293
 3208TIP3    H1 9630   6.168   2.992   2.217
 3208TIP3    H2 9631   6.090   2.894   2.302
 3209TIP3   OH2 9632   3.155   1.539   5.130
 3209TIP3    H1 9633   3.147   1.485   5.208
 3209TIP3    H2 9634   3.131   1.627   5.160
 3210TIP3   OH2 9635   5.064   4.562   3.709
 3210TIP3    H1 9636   5.108   4.641   3.679
 3210TIP3    H2 9637   5.101   4.546   3.796
 3211TIP3   OH2 9638   3.364   0.313   1.628
 3211TIP3    H1 9639   3.424   0.318   1.702
 3211TIP3    H2 9640   3.364   0.220   1.603
 3212TIP3   OH2 9641   4.690   3.675   3.910
 3212TIP3    H1 9642   4.664   3.586   3.932
 3212TIP3    H2 9643   4.609   3.725   3.910
 3213TIP3   OH2 9644   3.424   4.435   2.272
 3213TIP3    H1 9645   3.339   4.478   2.285
 3213TIP3    H2 9646   3.408   4.371   2.202
 3214TIP3   OH2 9647   4.645   0.363   0.624
 3214TIP3    H1 9648   4.650   0.329   0.714
 3214TIP3    H2 9649   4.632   0.457   0.635
 3215TIP3   OH2 9650   5.420   4.566   0.871
 3215TIP3    H1 9651   5.333   4.596   0.899
 3215TIP3    H2 9652   5.423   4.474   0.897
 3216TIP3   OH2 9653   5.815   5.003   3.002
 3216TIP3    H1 9654   5.844   4.976   3.089
 3216TIP3    H2 9655   5.744   4.943   2.980
 3217TIP3   OH2 9656   2.932   5.155   4.507
 3217TIP3    H1 9657   2.958   5.132   4.418
 3217TIP3    H2 9658   2.902   5.073   4.546
 3218TIP3   OH2 9659   4.275   5.678   4.570
 3218TIP3    H1 9660   4.315   5.691   4.656
 3218TIP3    H2 9661   4.278   5.584   4.555
 3219TIP3   OH2 9662   4.913   0.789   4.769
 3219TIP3    H1 9663   4.822   0.819   4.766
 3219TIP3    H2 9664   4.935   0.770   4.677
 3220TIP3   OH2 9665   1.794   2.806   1.393
 3220TIP3    H1 9666   1.700   2.816   1.381
 3220TIP3    H2 9667   1.820   2.741   1.328
 3221TIP3   OH2 9668   3.054   3.530   1.819
 3221TIP3    H1 9669   2.982   3.512   1.879
 3221TIP3    H2 9670   3.093   3.444   1.800
 3222TIP3   OH2 9671   3.118   1.290   2.328
 3222TIP3    H1 9672   3.129   1.300   2.423
 3222TIP3    H2 9673   3.071   1.207   2.318
 3223TIP3   OH2 9674   0.092   3.836   3.455
 3223TIP3    H1 9675   0.156   3.889   3.502
 3223TIP3    H2 9676   0.144   3.787   3.392
 3224TIP3   OH2 9677   6.141   5.427   2.434
 3224TIP3    H1 9678   6.151   5.387   2.521
 3224TIP3    H2 9679   6.068   5.379   2.395
 3225TIP3   OH2 9680   3.529   2.783   4.908
 3225TIP3    H1 9681   3.496   2.865   4.945
 3225TIP3    H2 9682   3.605   2.761   4.963
 3226TIP3   OH2 9683   2.887   1.816   3.935
 3226TIP3    H1 9684   2.829   1.886   3.908
 3226TIP3    H2 9685   2.940   1.854   4.006
 3227TIP3   OH2 9686   1.227   5.139   4.271
 3227TIP3    H1 9687   1.190   5.221   4.302
 3227TIP3    H2 9688   1.303   5.123   4.327
 3228TIP3   OH2 9689   5.163   0.786   0.727
 3228TIP3    H1 9690   5.229   0.724   0.759
 3228TIP3    H2 9691   5.121   0.741   0.654
 3229TIP3   OH2 9692   1.627   5.282   3.303
 3229TIP3    H1 9693   1.686   5.230   3.249
 3229TIP3    H2 9694   1.668   5.283   3.390
 3230TIP3   OH2 9695   1.627   2.138   0.008
 3230TIP3    H1 9696   1.656   2.058   0.051
 3230TIP3    H2 9697   1.708   2.187  -0.007
 3231TIP3   OH2 9698   5.909   3.019   3.127
 3231TIP3    H1 9699   5.910   2.963   3.204
 3231TIP3    H2 9700   5.966   2.974   3.064
 3232TIP3   OH2 9701   2.650   1.694   3.523
 3232TIP3    H1 9702   2.737   1.721   3.551
 3232TIP3    H2 9703   2.664   1.612   3.475
 3233TIP3   OH2 9704   0.753   2.643   0.144
 3233TIP3    H1 9705   0.692   2.576   0.112
 3233TIP3    H2 9706   0.813   2.658   0.072
 3234TIP3   OH2 9707   6.241   1.669   1.086
 3234TIP3    H1 9708   6.266   1.730   1.155
 3234TIP3    H2 9709   6.186   1.721   1.028
 3235TIP3   OH2 9710   6.172   0.768   3.393
 3235TIP3    H1 9711   6.163   0.810   3.308
 3235TIP3    H2 9712   6.234   0.823   3.440
 3236TIP3   OH2 9713   2.344   2.826   2.452
 3236TIP3    H1 9714   2.398   2.880   2.395
 3236TIP3    H2 9715   2.370   2.852   2.541
 3237TIP3   OH2 9716   4.536   3.538   2.429
 3237TIP3    H1 9717   4.486   3.520   2.509
 3237TIP3    H2 9718   4.480   3.505   2.358
 3238TIP3   OH2 9719   5.140   0.935   2.227
 3238TIP3    H1 9720   5.098   0.849   2.221
 3238TIP3    H2 9721   5.131   0.972   2.139
 3239TIP3   OH2 9722   4.299   0.388   4.357
 3239TIP3    H1 9723   4.321   0.304   4.397
 3239TIP3    H2 9724   4.220   0.417   4.402
 3240TIP3   OH2 9725   1.154   3.431   4.078
 3240TIP3    H1 9726   1.160   3.336   4.072
 3240TIP3    H2 9727   1.080   3.447   4.136
 3241TIP3   OH2 9728   2.118   1.058   4.198
 3241TIP3    H1 9729   2.031   1.052   4.158
 3241TIP3    H2 9730   2.176   1.014   4.137
 3242TIP3   OH2 9731   4.228   5.306   2.121
 3242TIP3    H1 9732   4.224   5.385   2.175
 3242TIP3    H2 9733   4.321   5.281   2.121
 3243TIP3   OH2 9734   6.128   1.149   4.738
 3243TIP3    H1 9735   6.079   1.160   4.656
 3243TIP3    H2 9736   6.078   1.084   4.788
 3244TIP3   OH2 9737   6.066   3.113   1.119
 3244TIP3    H1 9738   6.056   3.152   1.031
 3244TIP3    H2 9739   5.976   3.101   1.149
 3245TIP3   OH2 9740   0.413   1.982   3.091
 3245TIP3    H1 9741   0.464   2.023   3.021
 3245TIP3    H2 9742   0.327   2.023   3.085
 3246TIP3   OH2 9743   3.091   2.923   2.269
 3246TIP3    H1 9744   3.061   2.978   2.341
 3246TIP3    H2 9745   3.130   2.846   2.311
 3247TIP3   OH2 9746   2.257   4.787   0.069
 3247TIP3    H1 9747   2.323   4.727   0.034
 3247TIP3    H2 9748   2.186   4.730   0.098
 3248TIP3   OH2 9749   3.455   2.047   5.072
 3248TIP3    H1 9750   3.371   2.088   5.094
 3248TIP3    H2 9751   3.501   2.039   5.155
 3249TIP3   OH2 9752   3.276   1.366   2.756
 3249TIP3    H1 9753   3.367   1.362   2.725
 3249TIP3    H2 9754   3.253   1.458   2.749
 3250TIP3   OH2 9755   4.862   5.326   5.251
 3250TIP3    H1 9756   4.902   5.370   5.327
 3250TIP3    H2 9757   4.934   5.312   5.190
 3251TIP3   OH2 9758   5.540   5.296   1.595
 3251TIP3    H1 9759   5.626   5.255   1.592
 3251TIP3    H2 9760   5.487   5.237   1.648
 3252TIP3   OH2 9761   0.324   0.802   0.688
 3252TIP3    H1 9762   0.383   0.877   0.685
 3252TIP3    H2 9763   0.237   0.840   0.689
 3253TIP3   OH2 9764   3.111   0.130   1.539
 3253TIP3    H1 9765   3.020   0.128   1.511
 3253TIP3    H2 9766   3.160   0.101   1.462
 3254TIP3   OH2 9767   5.798   1.318   0.730
 3254TIP3    H1 9768   5.829   1.227   0.724
 3254TIP3    H2 9769   5.850   1.365   0.665
 3255TIP3   OH2 9770   4.644   5.858   1.273
 3255TIP3    H1 9771   4.626   5.830   1.362
 3255TIP3    H2 9772   4.562   5.895   1.242
 3256TIP3   OH2 9773   0.391   4.580   1.401
 3256TIP3    H1 9774   0.308   4.553   1.439
 3256TIP3    H2 9775   0.450   4.587   1.476
 3257TIP3   OH2 9776   5.415   4.495   4.046
 3257TIP3    H1 9777   5.493   4.475   4.097
 3257TIP3    H2 9778   5.432   4.456   3.960
 3258TIP3   OH2 9779   3.114   0.402   2.656
 3258TIP3    H1 9780   3.023   0.428   2.669
 3258TIP3    H2 9781   3.149   0.393   2.744
 3259TIP3   OH2 9782   1.886   3.710   4.297
 3259TIP3    H1 9783   1.870   3.779   4.233
 3259TIP3    H2 9784   1.959   3.660   4.260
 3260TIP3   OH2 9785   0.688   1.060   4.607
 3260TIP3    H1 9786   0.619   1.055   4.540
 3260TIP3    H2 9787   0.650   1.017   4.684
 3261TIP3   OH2 9788   0.397   4.647   2.835
 3261TIP3    H1 9789   0.402   4.692   2.751
 3261TIP3    H2 9790   0.327   4.694   2.882
 3262TIP3   OH2 9791   5.917   0.704   4.642
 3262TIP3    H1 9792   5.922   0.792   4.679
 3262TIP3    H2 9793   5.965   0.710   4.560
 3263TIP3   OH2 9794   1.384   4.538   3.337
 3263TIP3    H1 9795   1.467   4.574   3.304
 3263TIP3    H2 9796   1.316   4.593   3.298
 3264TIP3   OH2 9797   4.593   0.108   5.059
 3264TIP3    H1 9798   4.504   0.115   5.094
 3264TIP3    H2 9799   4.649   0.115   5.136
 3265TIP3   OH2 9800   3.704   1.729   2.925
 3265TIP3    H1 9801   3.616   1.743   2.892
 3265TIP3    H2 9802   3.695   1.735   3.020
 3266TIP3   OH2 9803   0.772   5.692   1.033
 3266TIP3    H1 9804   0.801   5.670   0.944
 3266TIP3    H2 9805   0.678   5.677   1.032
 3267TIP3   OH2 9806   1.425   3.864   4.792
 3267TIP3    H1 9807   1.388   3.787   4.836
 3267TIP3    H2 9808   1.498   3.829   4.741
 3268TIP3   OH2 9809   4.869   4.234   4.080
 3268TIP3    H1 9810   4.867   4.182   4.160
 3268TIP3    H2 9811   4.955   4.275   4.080
 3269TIP3   OH2 9812   5.581   2.871   0.258
 3269TIP3    H1 9813   5.627   2.807   0.314
 3269TIP3    H2 9814   5.650   2.909   0.204
 3270TIP3   OH2 9815   3.835   4.975   4.210
 3270TIP3    H1 9816   3.866   5.017   4.290
 3270TIP3    H2 9817   3.758   5.026   4.184
 3271TIP3   OH2 9818   6.311   3.847   0.278
 3271TIP3    H1 9819   6.316   3.856   0.373
 3271TIP3    H2 9820   6.398   3.816   0.252
 3272TIP3   OH2 9821   3.192   4.716   3.358
 3272TIP3    H1 9822   3.285   4.733   3.348
 3272TIP3    H2 9823   3.166   4.672   3.277
 3273TIP3   OH2 9824   1.886   5.068   1.143
 3273TIP3    H1 9825   1.876   4.993   1.202
 3273TIP3    H2 9826   1.797   5.089   1.115
 3274TIP3   OH2 9827   5.438   5.570   0.961
 3274TIP3    H1 9828   5.502   5.509   0.998
 3274TIP3    H2 9829   5.354   5.542   0.998
 3275TIP3   OH2 9830   5.330   5.750   2.898
 3275TIP3    H1 9831   5.348   5.672   2.949
 3275TIP3    H2 9832   5.390   5.746   2.823
 3276TIP3   OH2 9833   2.931   0.063   1.082
 3276TIP3    H1 9834   2.871   0.123   1.036
 3276TIP3    H2 9835   2.985   0.120   1.136
 3277TIP3   OH2 9836   3.786   2.861   5.046
 3277TIP3    H1 9837   3.877   2.889   5.033
 3277TIP3    H2 9838   3.773   2.867   5.140
 3278TIP3   OH2 9839   5.350   1.747   1.651
 3278TIP3    H1 9840   5.290   1.716   1.583
 3278TIP3    H2 9841   5.437   1.725   1.618
 3279TIP3   OH2 9842   4.038   2.686   3.086
 3279TIP3    H1 9843   4.101   2.661   3.154
 3279TIP3    H2 9844   4.091   2.719   3.014
 3280TIP3   OH2 9845   5.030   5.964   5.132
 3280TIP3    H1 9846   5.005   5.905   5.203
 3280TIP3    H2 9847   5.123   5.949   5.119
 3281TIP3   OH2 9848   2.578   1.245   3.682
 3281TIP3    H1 9849   2.562   1.236   3.588
 3281TIP3    H2 9850   2.498   1.212   3.724
 3282TIP3   OH2 9851   3.922   4.495   3.583
 3282TIP3    H1 9852   4.000   4.491   3.638
 3282TIP3    H2 9853   3.888   4.583   3.596
 3283TIP3   OH2 9854   4.875   1.061   5.132
 3283TIP3    H1 9855   4.839   1.147   5.155
 3283TIP3    H2 9856   4.891   1.066   5.038
 3284TIP3   OH2 9857   0.391   5.669   3.965
 3284TIP3    H1 9858   0.460   5.640   4.025
 3284TIP3    H2 9859   0.340   5.731   4.017
 3285TIP3   OH2 9860   3.875   2.889   3.040
 3285TIP3    H1 9861   3.859   2.929   3.126
 3285TIP3    H2 9862   3.895   2.798   3.060
 3286TIP3   OH2 9863   4.551   5.590   1.059
 3286TIP3    H1 9864   4.496   5.535   1.002
 3286TIP3    H2 9865   4.488   5.636   1.115
 3287TIP3   OH2 9866   3.259   0.463   1.431
 3287TIP3    H1 9867   3.324   0.434   1.367
 3287TIP3    H2 9868   3.280   0.415   1.511
 3288TIP3   OH2 9869   6.198   0.928   3.137
 3288TIP3    H1 9870   6.274   0.883   3.103
 3288TIP3    H2 9871   6.233   1.009   3.175
 3289TIP3   OH2 9872   3.345   3.022   2.783
 3289TIP3    H1 9873   3.412   3.028   2.715
 3289TIP3    H2 9874   3.331   3.113   2.811
 3290TIP3   OH2 9875   0.426   4.600   4.841
 3290TIP3    H1 9876   0.403   4.614   4.749
 3290TIP3    H2 9877   0.493   4.665   4.859
 3291TIP3   OH2 9878   1.445   4.396   3.926
 3291TIP3    H1 9879   1.372   4.342   3.956
 3291TIP3    H2 9880   1.417   4.429   3.840
 3292TIP3   OH2 9881   1.905   4.539   3.104
 3292TIP3    H1 9882   1.969   4.544   3.033
 3292TIP3    H2 9883   1.933   4.463   3.155
 3293TIP3   OH2 9884   5.333   0.536   3.775
 3293TIP3    H1 9885   5.266   0.527   3.843
 3293TIP3    H2 9886   5.416   0.535   3.823
 3294TIP3   OH2 9887   2.478   0.711   4.000
 3294TIP3    H1 9888   2.436   0.733   4.083
 3294TIP3    H2 9889   2.570   0.735   4.013
 3295TIP3   OH2 9890   2.526   0.426   3.973
 3295TIP3    H1 9891   2.511   0.514   4.009
 3295TIP3    H2 9892   2.489   0.367   4.038
 3296TIP3   OH2 9893   1.174   0.390   0.104
 3296TIP3    H1 9894   1.126   0.396   0.186
 3296TIP3    H2 9895   1.257   0.348   0.126
 3297TIP3   OH2 9896   4.048   1.003   5.050
 3297TIP3    H1 9897   3.969   0.952   5.064
 3297TIP3    H2 9898   4.017   1.094   5.043
 3298TIP3   OH2 9899   5.799   4.574   1.378
 3298TIP3    H1 9900   5.859   4.636   1.337
 3298TIP3    H2 9901   5.828   4.569   1.469
 3299TIP3   OH2 9902   2.729   0.365   0.122
 3299TIP3    H1 9903   2.708   0.361   0.216
 3299TIP3    H2 9904   2.753   0.456   0.106
 3300TIP3   OH2 9905   3.881   1.202   4.079
 3300TIP3    H1 9906   3.840   1.241   4.156
 3300TIP3    H2 9907   3.809   1.179   4.022
 3301TIP3   OH2 9908   2.422   2.274   3.084
 3301TIP3    H1 9909   2.490   2.213   3.053
 3301TIP3    H2 9910   2.410   2.251   3.176
 3302TIP3   OH2 9911   3.561   1.388   0.462
 3302TIP3    H1 9912   3.500   1.357   0.395
 3302TIP3    H2 9913   3.607   1.309   0.491
 3303TIP3   OH2 9914   4.330   0.630   4.244
 3303TIP3    H1 9915   4.368   0.695   4.302
 3303TIP3    H2 9916   4.378   0.549   4.264
 3304TIP3   OH2 9917   1.768   2.361   0.249
 3304TIP3    H1 9918   1.848   2.387   0.295
 3304TIP3    H2 9919   1.697   2.407   0.295
 3305TIP3   OH2 9920   2.415   5.931   0.371
 3305TIP3    H1 9921   2.461   5.883   0.302
 3305TIP3    H2 9922   2.477   5.935   0.443
 3306TIP3   OH2 9923   4.137   3.175   2.696
 3306TIP3    H1 9924   4.107   3.105   2.755
 3306TIP3    H2 9925   4.214   3.137   2.652
 3307TIP3   OH2 9926   6.007   4.869   4.011
 3307TIP3    H1 9927   5.973   4.951   4.045
 3307TIP3    H2 9928   6.076   4.844   4.073
 3308TIP3   OH2 9929   5.599   4.326   0.722
 3308TIP3    H1 9930   5.515   4.282   0.736
 3308TIP3    H2 9931   5.615   4.319   0.628
 3309TIP3   OH2 9932   5.243   1.985   1.583
 3309TIP3    H1 9933   5.309   1.924   1.619
 3309TIP3    H2 9934   5.233   1.958   1.492
 3310TIP3   OH2 9935   6.235   1.213   4.244
 3310TIP3    H1 9936   6.318   1.258   4.228
 3310TIP3    H2 9937   6.168   1.271   4.209
 3311TIP3   OH2 9938   3.088   4.435   4.529
 3311TIP3    H1 9939   3.155   4.503   4.527
 3311TIP3    H2 9940   3.129   4.361   4.573
 3312TIP3   OH2 9941   0.806   2.407   3.601
 3312TIP3    H1 9942   0.739   2.342   3.580
 3312TIP3    H2 9943   0.886   2.374   3.559
 3313TIP3   OH2 9944   2.689   3.331   2.984
 3313TIP3    H1 9945   2.713   3.241   2.963
 3313TIP3    H2 9946   2.731   3.348   3.068
 3314TIP3   OH2 9947   1.523   1.644   4.905
 3314TIP3    H1 9948   1.468   1.637   4.827
 3314TIP3    H2 9949   1.497   1.726   4.945
 3315TIP3   OH2 9950   3.940   3.290   3.797
 3315TIP3    H1 9951   3.897   3.356   3.742
 3315TIP3    H2 9952   3.888   3.289   3.878
 3316TIP3   OH2 9953   2.357   2.452   4.847
 3316TIP3    H1 9954   2.429   2.398   4.812
 3316TIP3    H2 9955   2.286   2.390   4.861
 3317TIP3   OH2 9956   2.353   5.410   1.596
 3317TIP3    H1 9957   2.426   5.347   1.598
 3317TIP3    H2 9958   2.305   5.390   1.516
 3318TIP3   OH2 9959   1.983   2.384   3.810
 3318TIP3    H1 9960   1.970   2.452   3.877
 3318TIP3    H2 9961   1.896   2.346   3.798
 3319TIP3   OH2 9962   0.871   4.821   2.546
 3319TIP3    H1 9963   0.831   4.771   2.617
 3319TIP3    H2 9964   0.934   4.761   2.506
 3320TIP3   OH2 9965   6.121   4.736   3.568
 3320TIP3    H1 9966   6.036   4.760   3.530
 3320TIP3    H2 9967   6.135   4.646   3.540
 3321TIP3   OH2 9968   4.707   4.035   3.536
 3321TIP3    H1 9969   4.669   4.070   3.617
 3321TIP3    H2 9970   4.709   4.110   3.477
 3322TIP3   OH2 9971   2.433   5.504   4.317
 3322TIP3    H1 9972   2.472   5.548   4.392
 3322TIP3    H2 9973   2.462   5.413   4.325
 3323TIP3   OH2 9974   2.017   5.062   2.314
 3323TIP3    H1 9975   2.080   4.996   2.344
 3323TIP3    H2 9976   1.946   5.059   2.378
 3324TIP3   OH2 9977   0.143   3.181   0.003
 3324TIP3    H1 9978   0.142   3.276   0.009
 3324TIP3    H2 9979   0.060   3.159  -0.040
 3325TIP3   OH2 9980   3.144   3.214   3.105
 3325TIP3    H1 9981   3.100   3.136   3.071
 3325TIP3    H2 9982   3.181   3.185   3.188
 3326TIP3   OH2 9983   5.657   1.614   4.026
 3326TIP3    H1 9984   5.661   1.548   4.095
 3326TIP3    H2 9985   5.585   1.671   4.051
 3327TIP3   OH2 9986   1.591   4.363   0.332
 3327TIP3    H1 9987   1.557   4.274   0.343
 3327TIP3    H2 9988   1.685   4.351   0.315
 3328TIP3   OH2 9989   5.109   5.072   3.532
 3328TIP3    H1 9990   5.070   5.043   3.450
 3328TIP3    H2 9991   5.072   5.159   3.547
 3329TIP3   OH2 9992   4.120   3.560   4.467
 3329TIP3    H1 9993   4.071   3.478   4.474
 3329TIP3    H2 9994   4.136   3.570   4.373
 3330TIP3   OH2 9995   3.777   2.858   1.853
 3330TIP3    H1 9996   3.847   2.857   1.788
 3330TIP3    H2 9997   3.774   2.768   1.886
 3331TIP3   OH2 9998   1.091   3.080   1.384
 3331TIP3    H1 9999   1.020   3.068   1.447
 3331TIP3    H210000   1.145   3.149   1.422
 3332TIP3   OH210001   0.650   2.727   4.940
 3332TIP3    H110002   0.636   2.683   5.024
 3332TIP3    H210003   0.742   2.753   4.942
 3333TIP3   OH210004   2.067   4.728   1.286
 3333TIP3    H110005   2.154   4.744   1.323
 3333TIP3    H210006   2.006   4.754   1.355
 3334TIP3   OH210007   2.099   5.061   1.372
 3334TIP3    H110008   2.152   5.134   1.403
 3334TIP3    H210009   2.132   5.043   1.284
 3335TIP3   OH210010   5.000   3.088   3.231
 3335TIP3    H110011   5.089   3.096   3.266
 3335TIP3    H210012   5.004   3.133   3.147
 3336TIP3   OH210013   3.970   0.340   3.283
 3336TIP3    H110014   3.990   0.418   3.334
 3336TIP3    H210015   4.056   0.301   3.265
 3337TIP3   OH210016   5.292   5.078   0.178
 3337TIP3    H110017   5.357   5.022   0.221
 3337TIP3    H210018   5.287   5.044   0.089
 3338TIP3   OH210019   0.685   2.169   0.573
 3338TIP3    H110020   0.753   2.224   0.536
 3338TIP3    H210021   0.648   2.221   0.645
 3339TIP3   OH210022   6.327   0.090   1.845
 3339TIP3    H110023   6.414   0.059   1.871
 3339TIP3    H210024   6.340   0.125   1.757
 3340TIP3   OH210025   3.883   2.243   4.850
 3340TIP3    H110026   3.938   2.165   4.854
 3340TIP3    H210027   3.847   2.251   4.938
 3341TIP3   OH210028   6.295   1.895   5.035
 3341TIP3    H110029   6.317   1.863   5.123
 3341TIP3    H210030   6.264   1.984   5.049
 3342TIP3   OH210031   4.634   4.034   3.018
 3342TIP3    H110032   4.563   3.973   3.002
 3342TIP3    H210033   4.714   3.984   3.003
 3343TIP3   OH210034   3.447   1.295   1.553
 3343TIP3    H110035   3.450   1.382   1.593
 3343TIP3    H210036   3.437   1.236   1.628
 3344TIP3   OH210037   5.175   2.731   1.666
 3344TIP3    H110038   5.157   2.639   1.646
 3344TIP3    H210039   5.243   2.729   1.733
 3345TIP3   OH210040   6.087   3.723   3.116
 3345TIP3    H110041   6.138   3.647   3.088
 3345TIP3    H210042   6.076   3.775   3.036
 3346TIP3   OH210043   1.740   2.277   3.310
 3346TIP3    H110044   1.654   2.311   3.334
 3346TIP3    H210045   1.721   2.196   3.263
 3347TIP3   OH210046   4.939   5.710   2.759
 3347TIP3    H110047   4.998   5.650   2.714
 3347TIP3    H210048   4.980   5.796   2.749
 3348TIP3   OH210049   5.969   3.934   2.394
 3348TIP3    H110050   5.929   3.888   2.321
 3348TIP3    H210051   6.025   4.000   2.354
 3349TIP3   OH210052   1.404   2.723   4.954
 3349TIP3    H110053   1.396   2.709   4.859
 3349TIP3    H210054   1.458   2.650   4.984
 3350TIP3   OH210055   2.017   4.053   1.664
 3350TIP3    H110056   2.064   3.974   1.637
 3350TIP3    H210057   2.046   4.121   1.602
 3351TIP3   OH210058   1.697   3.280   0.192
 3351TIP3    H110059   1.605   3.293   0.212
 3351TIP3    H210060   1.739   3.362   0.216
 3352TIP3   OH210061   1.808   2.559   3.944
 3352TIP3    H110062   1.885   2.564   4.001
 3352TIP3    H210063   1.828   2.619   3.871
 3353TIP3   OH210064   5.917   3.364   0.648
 3353TIP3    H110065   5.940   3.290   0.591
 3353TIP3    H210066   6.001   3.390   0.687
 3354TIP3   OH210067   6.309   2.155   3.266
 3354TIP3    H110068   6.294   2.077   3.319
 3354TIP3    H210069   6.330   2.223   3.330
 3355TIP3   OH210070   3.565   0.885   2.210
 3355TIP3    H110071   3.583   0.954   2.146
 3355TIP3    H210072   3.491   0.919   2.261
 3356TIP3   OH210073   3.084   5.453   2.743
 3356TIP3    H110074   3.043   5.396   2.807
 3356TIP3    H210075   3.029   5.445   2.665
 3357TIP3   OH210076   5.673   5.199   4.528
 3357TIP3    H110077   5.703   5.121   4.482
 3357TIP3    H210078   5.753   5.246   4.551
 3358TIP3   OH210079   0.683   5.807   2.629
 3358TIP3    H110080   0.739   5.760   2.567
 3358TIP3    H210081   0.701   5.899   2.613
 3359TIP3   OH210082   4.298   5.839   2.746
 3359TIP3    H110083   4.357   5.894   2.693
 3359TIP3    H210084   4.337   5.752   2.742
 3360TIP3   OH210085   2.853   2.323   3.509
 3360TIP3    H110086   2.820   2.393   3.453
 3360TIP3    H210087   2.781   2.261   3.515
 3361TIP3   OH210088   3.978   4.050   2.494
 3361TIP3    H110089   3.922   4.099   2.435
 3361TIP3    H210090   4.011   3.977   2.441
 3362TIP3   OH210091   4.820   1.721   2.468
 3362TIP3    H110092   4.791   1.714   2.559
 3362TIP3    H210093   4.757   1.669   2.419
 3363TIP3   OH210094   1.475   3.070   2.666
 3363TIP3    H110095   1.510   2.982   2.647
 3363TIP3    H210096   1.533   3.104   2.734
 3364TIP3   OH210097   5.944   4.127   1.213
 3364TIP3    H110098   5.854   4.143   1.239
 3364TIP3    H210099   5.987   4.212   1.222
 3365TIP3   OH210100   4.711   3.181   2.829
 3365TIP3    H110101   4.761   3.100   2.817
 3365TIP3    H210102   4.650   3.162   2.900
 3366TIP3   OH210103   0.810   3.852   2.652
 3366TIP3    H110104   0.818   3.931   2.706
 3366TIP3    H210105   0.718   3.827   2.658
 3367TIP3   OH210106   3.762   2.650   2.181
 3367TIP3    H110107   3.723   2.579   2.130
 3367TIP3    H210108   3.821   2.694   2.119
 3368TIP3   OH210109   6.112   1.380   4.925
 3368TIP3    H110110   6.062   1.447   4.879
 3368TIP3    H210111   6.121   1.309   4.862
 3369TIP3   OH210112   4.888   0.671   3.406
 3369TIP3    H110113   4.792   0.669   3.409
 3369TIP3    H210114   4.914   0.580   3.389
 3370TIP3   OH210115   5.361   1.617   3.026
 3370TIP3    H110116   5.322   1.674   2.960
 3370TIP3    H210117   5.372   1.533   2.982
 3371TIP3   OH210118   3.202   4.055   0.744
 3371TIP3    H110119   3.288   4.089   0.720
 3371TIP3    H210120   3.197   3.969   0.704
 3372TIP3   OH210121   6.186   5.353   1.061
 3372TIP3    H110122   6.226   5.423   1.009
 3372TIP3    H210123   6.096   5.347   1.028
 3373TIP3   OH210124   2.642   3.382   0.367
 3373TIP3    H110125   2.639   3.460   0.312
 3373TIP3    H210126   2.582   3.401   0.439
 3374TIP3   OH210127   3.116   3.321   5.068
 3374TIP3    H110128   3.161   3.349   5.147
 3374TIP3    H210129   3.069   3.399   5.038
 3375TIP3   OH210130   5.033   4.050   1.038
 3375TIP3    H110131   5.037   4.144   1.053
 3375TIP3    H210132   5.026   4.041   0.943
 3376TIP3   OH210133   0.372   1.988   3.454
 3376TIP3    H110134   0.349   2.070   3.498
 3376TIP3    H210135   0.290   1.957   3.416
 3377TIP3   OH210136   5.084   3.553   0.948
 3377TIP3    H110137   5.123   3.595   0.871
 3377TIP3    H210138   5.005   3.510   0.915
 3378TIP3   OH210139   1.020   3.534   2.662
 3378TIP3    H110140   1.069   3.511   2.583
 3378TIP3    H210141   1.056   3.619   2.688
 3379TIP3   OH210142   5.049   0.079   3.123
 3379TIP3    H110143   4.994   0.138   3.173
 3379TIP3    H210144   5.116   0.049   3.185
 3380TIP3   OH210145   3.582   3.204   1.757
 3380TIP3    H110146   3.547   3.251   1.681
 3380TIP3    H210147   3.676   3.197   1.739
 3381TIP3   OH210148   5.428   3.751   2.632
 3381TIP3    H110149   5.335   3.762   2.613
 3381TIP3    H210150   5.434   3.664   2.672
 3382TIP3   OH210151   1.336   0.243   1.765
 3382TIP3    H110152   1.353   0.295   1.843
 3382TIP3    H210153   1.264   0.288   1.721
 3383TIP3   OH210154   5.299   5.933   4.318
 3383TIP3    H110155   5.225   5.872   4.317
 3383TIP3    H210156   5.258   6.019   4.315
 3384TIP3   OH210157   3.090   0.352   1.716
 3384TIP3    H110158   3.124   0.298   1.645
 3384TIP3    H210159   3.150   0.426   1.721
 3385TIP3   OH210160   2.955   3.121   3.373
 3385TIP3    H110161   2.955   3.025   3.370
 3385TIP3    H210162   3.045   3.144   3.394
 3386TIP3   OH210163   0.920   5.204   4.924
 3386TIP3    H110164   0.834   5.245   4.926
 3386TIP3    H210165   0.977   5.263   4.974
 3387TIP3   OH210166   1.487   0.276   1.536
 3387TIP3    H110167   1.459   0.251   1.624
 3387TIP3    H210168   1.496   0.371   1.540
 3388TIP3   OH210169   5.841   2.518   1.975
 3388TIP3    H110170   5.832   2.432   2.017
 3388TIP3    H210171   5.881   2.499   1.890
 3389TIP3   OH210172   5.369   3.056   0.229
 3389TIP3    H110173   5.341   3.046   0.139
 3389TIP3    H210174   5.429   2.982   0.244
 3390TIP3   OH210175   3.309   0.600   5.044
 3390TIP3    H110176   3.386   0.648   5.076
 3390TIP3    H210177   3.249   0.667   5.014
 3391TIP3   OH210178   4.981   4.264   3.385
 3391TIP3    H110179   4.924   4.200   3.342
 3391TIP3    H210180   5.011   4.321   3.314
 3392TIP3   OH210181   3.358   2.149   3.371
 3392TIP3    H110182   3.445   2.113   3.384
 3392TIP3    H210183   3.373   2.242   3.351
 3393TIP3   OH210184   5.341   0.277   4.375
 3393TIP3    H110185   5.410   0.250   4.314
 3393TIP3    H210186   5.305   0.357   4.337
 3394TIP3   OH210187   1.820   1.901   0.797
 3394TIP3    H110188   1.814   1.806   0.786
 3394TIP3    H210189   1.893   1.927   0.741
 3395TIP3   OH210190   3.282   1.611   2.629
 3395TIP3    H110191   3.248   1.685   2.579
 3395TIP3    H210192   3.372   1.601   2.599
 3396TIP3   OH210193   4.436   1.936   3.594
 3396TIP3    H110194   4.520   1.897   3.616
 3396TIP3    H210195   4.449   1.973   3.507
 3397TIP3   OH210196   3.313   1.304   3.334
 3397TIP3    H110197   3.350   1.279   3.249
 3397TIP3    H210198   3.233   1.252   3.342
 3398TIP3   OH210199   2.161   2.115   4.532
 3398TIP3    H110200   2.100   2.074   4.593
 3398TIP3    H210201   2.148   2.069   4.450
 3399TIP3   OH210202   5.672   4.513   1.148
 3399TIP3    H110203   5.634   4.601   1.151
 3399TIP3    H210204   5.731   4.509   1.223
 3400TIP3   OH210205   1.735   1.672   1.281
 3400TIP3    H110206   1.668   1.613   1.245
 3400TIP3    H210207   1.817   1.622   1.275
 3401TIP3   OH210208   4.239   0.893   4.906
 3401TIP3    H110209   4.205   0.881   4.817
 3401TIP3    H210210   4.169   0.941   4.952
 3402TIP3   OH210211   5.135   5.564   2.597
 3402TIP3    H110212   5.225   5.561   2.564
 3402TIP3    H210213   5.080   5.571   2.519
 3403TIP3   OH210214   5.482   3.729   1.039
 3403TIP3    H110215   5.440   3.680   1.110
 3403TIP3    H210216   5.441   3.815   1.042
 3404TIP3   OH210217   4.990   0.456   1.777
 3404TIP3    H110218   5.033   0.402   1.711
 3404TIP3    H210219   5.047   0.451   1.853
 3405TIP3   OH210220   3.803   0.861   4.389
 3405TIP3    H110221   3.786   0.769   4.366
 3405TIP3    H210222   3.785   0.866   4.483
 3406TIP3   OH210223   3.466   1.785   0.823
 3406TIP3    H110224   3.519   1.748   0.753
 3406TIP3    H210225   3.386   1.732   0.822
 3407TIP3   OH210226   0.775   4.232   1.149
 3407TIP3    H110227   0.708   4.166   1.167
 3407TIP3    H210228   0.784   4.279   1.232
 3408TIP3   OH210229   6.140   0.491   1.598
 3408TIP3    H110230   6.084   0.413   1.595
 3408TIP3    H210231   6.211   0.472   1.538
 3409TIP3   OH210232   3.771   2.062   3.287
 3409TIP3    H110233   3.708   2.063   3.214
 3409TIP3    H210234   3.854   2.085   3.247
 3410TIP3   OH210235   3.820   1.858   0.703
 3410TIP3    H110236   3.751   1.791   0.698
 3410TIP3    H210237   3.825   1.894   0.615
 3411TIP3   OH210238   4.645   4.425   3.715
 3411TIP3    H110239   4.677   4.506   3.754
 3411TIP3    H210240   4.716   4.394   3.660
 3412TIP3   OH210241   0.550   0.785   0.334
 3412TIP3    H110242   0.538   0.736   0.252
 3412TIP3    H210243   0.531   0.875   0.310
 3413TIP3   OH210244   5.787   1.975   1.753
 3413TIP3    H110245   5.719   2.036   1.784
 3413TIP3    H210246   5.829   1.943   1.833
 3414TIP3   OH210247   3.577   2.765   0.120
 3414TIP3    H110248   3.591   2.854   0.152
 3414TIP3    H210249   3.554   2.775   0.028
 3415TIP3   OH210250   3.081   1.797   0.331
 3415TIP3    H110251   3.044   1.766   0.248
 3415TIP3    H210252   3.024   1.870   0.357
 3416TIP3   OH210253   1.444   0.388   2.005
 3416TIP3    H110254   1.429   0.314   2.064
 3416TIP3    H210255   1.376   0.451   2.028
 3417TIP3   OH210256   0.665   5.844   1.297
 3417TIP3    H110257   0.740   5.815   1.246
 3417TIP3    H210258   0.636   5.765   1.343
 3418TIP3   OH210259   2.054   2.178   2.687
 3418TIP3    H110260   2.092   2.253   2.641
 3418TIP3    H210261   2.060   2.201   2.780
 3419TIP3   OH210262   3.378   3.237   1.970
 3419TIP3    H110263   3.427   3.206   1.893
 3419TIP3    H210264   3.321   3.164   1.993
 3420TIP3   OH210265   2.020   4.541   1.987
 3420TIP3    H110266   1.966   4.469   2.019
 3420TIP3    H210267   2.093   4.498   1.943
 3421TIP3   OH210268   5.228   3.352   4.601
 3421TIP3    H110269   5.193   3.363   4.689
 3421TIP3    H210270   5.243   3.257   4.593
 3422TIP3   OH210271   1.742   5.960   4.578
 3422TIP3    H110272   1.819   6.014   4.557
 3422TIP3    H210273   1.721   5.916   4.495
 3423TIP3   OH210274   5.496   1.176   5.153
 3423TIP3    H110275   5.510   1.128   5.234
 3423TIP3    H210276   5.415   1.140   5.117
 3424TIP3   OH210277   1.550   2.937   0.770
 3424TIP3    H110278   1.532   2.971   0.858
 3424TIP3    H210279   1.643   2.955   0.755
 3425TIP3   OH210280   0.935   4.807   2.828
 3425TIP3    H110281   0.956   4.719   2.796
 3425TIP3    H210282   0.840   4.813   2.820
 3426TIP3   OH210283   3.070   4.162   0.173
 3426TIP3    H110284   2.981   4.194   0.185
 3426TIP3    H210285   3.091   4.185   0.082
 3427TIP3   OH210286   0.689   0.556   4.301
 3427TIP3    H110287   0.663   0.644   4.273
 3427TIP3    H210288   0.780   0.549   4.275
 3428TIP3   OH210289   2.805   3.531   2.015
 3428TIP3    H110290   2.715   3.503   2.035
 3428TIP3    H210291   2.859   3.476   2.072
 3429TIP3   OH210292   0.194   2.869   3.426
 3429TIP3    H110293   0.144   2.848   3.505
 3429TIP3    H210294   0.221   2.959   3.438
 3430TIP3   OH210295   1.641   3.901   1.993
 3430TIP3    H110296   1.654   3.809   1.970
 3430TIP3    H210297   1.559   3.903   2.042
 3431TIP3   OH210298   0.178   4.180   2.881
 3431TIP3    H110299   0.104   4.146   2.931
 3431TIP3    H210300   0.207   4.257   2.930
 3432TIP3   OH210301   1.328   0.265   4.559
 3432TIP3    H110302   1.374   0.300   4.636
 3432TIP3    H210303   1.397   0.250   4.494
 3433TIP3   OH210304   2.702   5.847   3.142
 3433TIP3    H110305   2.621   5.873   3.187
 3433TIP3    H210306   2.769   5.906   3.178
 3434TIP3   OH210307   0.727   4.735   1.992
 3434TIP3    H110308   0.766   4.670   2.050
 3434TIP3    H210309   0.643   4.757   2.033
 3435TIP3   OH210310   1.070   4.813   3.076
 3435TIP3    H110311   1.138   4.874   3.105
 3435TIP3    H210312   1.079   4.811   2.981
 3436TIP3   OH210313   6.118   1.105   1.347
 3436TIP3    H110314   6.184   1.174   1.352
 3436TIP3    H210315   6.046   1.136   1.402
 3437TIP3   OH210316   5.223   3.021   1.945
 3437TIP3    H110317   5.139   3.046   1.982
 3437TIP3    H210318   5.257   2.955   2.006
 3438TIP3   OH210319   2.459   2.163   0.303
 3438TIP3    H110320   2.494   2.154   0.214
 3438TIP3    H210321   2.427   2.076   0.326
 3439TIP3   OH210322   2.782   4.194   0.503
 3439TIP3    H110323   2.777   4.234   0.415
 3439TIP3    H210324   2.872   4.211   0.531
 3440TIP3   OH210325   3.278   0.972   2.009
 3440TIP3    H110326   3.295   1.033   2.081
 3440TIP3    H210327   3.295   0.886   2.047
 3441TIP3   OH210328   4.678   2.004   2.461
 3441TIP3    H110329   4.651   1.969   2.546
 3441TIP3    H210330   4.645   1.941   2.397
 3442TIP3   OH210331   1.266   2.964   5.040
 3442TIP3    H110332   1.263   2.880   4.993
 3442TIP3    H210333   1.186   2.964   5.093
 3443TIP3   OH210334   3.579   2.226   1.405
 3443TIP3    H110335   3.556   2.268   1.488
 3443TIP3    H210336   3.515   2.155   1.396
 3444TIP3   OH210337   3.225   5.444   3.103
 3444TIP3    H110338   3.145   5.485   3.069
 3444TIP3    H210339   3.193   5.380   3.168
 3445TIP3   OH210340   5.933   4.019   3.803
 3445TIP3    H110341   5.977   4.046   3.884
 3445TIP3    H210342   5.903   3.929   3.822
 3446TIP3   OH210343   3.607   2.373   1.160
 3446TIP3    H110344   3.600   2.306   1.228
 3446TIP3    H210345   3.637   2.451   1.207
 3447TIP3   OH210346   2.509   1.297   1.620
 3447TIP3    H110347   2.487   1.206   1.598
 3447TIP3    H210348   2.584   1.318   1.563
 3448TIP3   OH210349   4.997   4.983   3.300
 3448TIP3    H110350   5.015   4.915   3.235
 3448TIP3    H210351   4.905   5.003   3.288
 3449TIP3   OH210352   3.161   0.960   4.231
 3449TIP3    H110353   3.167   1.039   4.177
 3449TIP3    H210354   3.241   0.960   4.283
 3450TIP3   OH210355   3.632   0.832   0.408
 3450TIP3    H110356   3.553   0.783   0.430
 3450TIP3    H210357   3.703   0.780   0.445
 3451TIP3   OH210358   1.337   1.056   0.354
 3451TIP3    H110359   1.392   1.014   0.288
 3451TIP3    H210360   1.274   1.107   0.304
 3452TIP3   OH210361   6.040   1.677   4.014
 3452TIP3    H110362   6.072   1.753   4.062
 3452TIP3    H210363   6.101   1.668   3.940
 3453TIP3   OH210364   3.613   1.905   3.801
 3453TIP3    H110365   3.666   1.908   3.722
 3453TIP3    H210366   3.569   1.820   3.798
 3454TIP3   OH210367   3.637   0.904   3.195
 3454TIP3    H110368   3.635   0.835   3.129
 3454TIP3    H210369   3.651   0.985   3.145
 3455TIP3   OH210370   0.601   1.386   4.023
 3455TIP3    H110371   0.691   1.372   3.993
 3455TIP3    H210372   0.608   1.455   4.089
 3456TIP3   OH210373   0.605   1.188   5.084
 3456TIP3    H110374   0.523   1.202   5.037
 3456TIP3    H210375   0.636   1.103   5.053
 3457TIP3   OH210376   6.314   0.563   1.204
 3457TIP3    H110377   6.282   0.596   1.120
 3457TIP3    H210378   6.321   0.641   1.259
 3458TIP3   OH210379   0.439   5.323   5.017
 3458TIP3    H110380   0.451   5.238   4.974
 3458TIP3    H210381   0.396   5.378   4.951
 3459TIP3   OH210382   2.528   3.899   3.409
 3459TIP3    H110383   2.565   3.962   3.471
 3459TIP3    H210384   2.604   3.863   3.363
 3460TIP3   OH210385   2.174   4.567   3.873
 3460TIP3    H110386   2.192   4.651   3.916
 3460TIP3    H210387   2.257   4.520   3.878
 3461TIP3   OH210388   5.600   2.444   3.917
 3461TIP3    H110389   5.677   2.404   3.875
 3461TIP3    H210390   5.623   2.536   3.926
 3462TIP3   OH210391   6.266   4.194   3.367
 3462TIP3    H110392   6.212   4.228   3.296
 3462TIP3    H210393   6.212   4.126   3.407
 3463TIP3   OH210394   3.814   1.919   0.094
 3463TIP3    H110395   3.831   1.934   0.001
 3463TIP3    H210396   3.884   1.859   0.122
 3464TIP3   OH210397   6.161   0.659   1.944
 3464TIP3    H110398   6.213   0.579   1.946
 3464TIP3    H210399   6.085   0.638   1.890
 3465TIP3   OH210400   4.966   5.929   3.751
 3465TIP3    H110401   5.029   5.930   3.679
 3465TIP3    H210402   4.886   5.893   3.713
 3466TIP3   OH210403   6.187   5.383   0.365
 3466TIP3    H110404   6.158   5.434   0.440
 3466TIP3    H210405   6.203   5.296   0.401
 3467TIP3   OH210406   3.435   4.569   0.441
 3467TIP3    H110407   3.367   4.612   0.389
 3467TIP3    H210408   3.507   4.555   0.380
 3468TIP3   OH210409   6.073   0.404   4.953
 3468TIP3    H110410   5.996   0.420   4.899
 3468TIP3    H210411   6.147   0.427   4.896
 3469TIP3   OH210412   0.593   5.593   4.125
 3469TIP3    H110413   0.687   5.604   4.110
 3469TIP3    H210414   0.585   5.501   4.152
 3470TIP3   OH210415   2.743   4.808   0.612
 3470TIP3    H110416   2.768   4.750   0.685
 3470TIP3    H210417   2.655   4.779   0.588
 3471TIP3   OH210418   4.043   2.076   2.297
 3471TIP3    H110419   3.950   2.091   2.311
 3471TIP3    H210420   4.071   2.028   2.376
 3472TIP3   OH210421   2.870   2.137   4.626
 3472TIP3    H110422   2.859   2.218   4.576
 3472TIP3    H210423   2.839   2.068   4.567
 3473TIP3   OH210424   0.733   5.344   5.037
 3473TIP3    H110425   0.653   5.329   5.087
 3473TIP3    H210426   0.801   5.358   5.104
 3474TIP3   OH210427   1.963   5.890   2.495
 3474TIP3    H110428   2.037   5.886   2.556
 3474TIP3    H210429   1.999   5.933   2.417
 3475TIP3   OH210430   1.381   3.795   3.548
 3475TIP3    H110431   1.423   3.784   3.633
 3475TIP3    H210432   1.386   3.889   3.531
 3476TIP3   OH210433   2.297   0.958   2.957
 3476TIP3    H110434   2.333   1.000   3.035
 3476TIP3    H210435   2.203   0.955   2.973
 3477TIP3   OH210436   5.723   5.925   5.095
 3477TIP3    H110437   5.683   5.927   5.008
 3477TIP3    H210438   5.662   5.974   5.150
 3478TIP3   OH210439   0.625   5.972   2.872
 3478TIP3    H110440   0.699   5.948   2.928
 3478TIP3    H210441   0.641   5.924   2.791
 3479TIP3   OH210442   4.279   5.355  -0.006
 3479TIP3    H110443   4.183   5.353  -0.011
 3479TIP3    H210444   4.302   5.272   0.035
 3480TIP3   OH210445   4.444   2.413   4.577
 3480TIP3    H110446   4.457   2.476   4.647
 3480TIP3    H210447   4.358   2.435   4.541
 3481TIP3   OH210448   2.994   4.966   2.688
 3481TIP3    H110449   3.079   4.978   2.730
 3481TIP3    H210450   2.931   4.968   2.760
 3482TIP3   OH210451   1.798   3.778   1.579
 3482TIP3    H110452   1.781   3.699   1.527
 3482TIP3    H210453   1.840   3.745   1.659
 3483TIP3   OH210454   4.338   4.545   2.979
 3483TIP3    H110455   4.364   4.455   2.995
 3483TIP3    H210456   4.277   4.539   2.905
 3484TIP3   OH210457   3.312   2.107   3.764
 3484TIP3    H110458   3.362   2.136   3.841
 3484TIP3    H210459   3.277   2.022   3.788
 3485TIP3   OH210460   1.142   3.033   0.941
 3485TIP3    H110461   1.103   2.965   0.886
 3485TIP3    H210462   1.193   2.986   1.006
 3486TIP3   OH210463   4.625   0.350   4.460
 3486TIP3    H110464   4.566   0.275   4.447
 3486TIP3    H210465   4.573   0.426   4.434
 3487TIP3   OH210466   6.334   4.913   2.149
 3487TIP3    H110467   6.268   4.844   2.143
 3487TIP3    H210468   6.319   4.967   2.071
 3488TIP3   OH210469   2.594   4.536   0.382
 3488TIP3    H110470   2.566   4.481   0.455
 3488TIP3    H210471   2.540   4.615   0.390
 3489TIP3   OH210472   2.017   3.870   0.604
 3489TIP3    H110473   1.930   3.832   0.618
 3489TIP3    H210474   2.069   3.836   0.676
 3490TIP3   OH210475   4.228   5.206   1.353
 3490TIP3    H110476   4.179   5.144   1.298
 3490TIP3    H210477   4.256   5.274   1.292
 3491TIP3   OH210478   4.900   5.306   1.367
 3491TIP3    H110479   4.988   5.288   1.402
 3491TIP3    H210480   4.857   5.356   1.437
 3492TIP3   OH210481   1.701   0.334   4.369
 3492TIP3    H110482   1.708   0.277   4.446
 3492TIP3    H210483   1.672   0.277   4.299
 3493TIP3   OH210484   3.985   4.320   3.815
 3493TIP3    H110485   4.070   4.353   3.786
 3493TIP3    H210486   3.921   4.376   3.771
 3494TIP3   OH210487   3.158   5.951   5.022
 3494TIP3    H110488   3.235   5.917   4.976
 3494TIP3    H210489   3.104   5.874   5.039
 3495TIP3   OH210490   5.371   4.002   2.764
 3495TIP3    H110491   5.424   3.933   2.724
 3495TIP3    H210492   5.306   4.023   2.697
 3496TIP3   OH210493   2.241   5.349   2.877
 3496TIP3    H110494   2.164   5.292   2.880
 3496TIP3    H210495   2.219   5.416   2.813
 3497TIP3   OH210496   1.429   4.070   5.113
 3497TIP3    H110497   1.467   4.083   5.026
 3497TIP3    H210498   1.430   4.157   5.152
 3498TIP3   OH210499   1.736   1.800   4.119
 3498TIP3    H110500   1.701   1.713   4.102
 3498TIP3    H210501   1.659   1.853   4.141
 3499TIP3   OH210502   4.868   2.917   2.193
 3499TIP3    H110503   4.840   2.906   2.284
 3499TIP3    H210504   4.812   2.858   2.143
 3500TIP3   OH210505   4.063   3.217   2.364
 3500TIP3    H110506   4.024   3.190   2.447
 3500TIP3    H210507   4.124   3.147   2.341
 3501TIP3   OH210508   5.493   2.835   2.922
 3501TIP3    H110509   5.436   2.872   2.990
 3501TIP3    H210510   5.578   2.827   2.965
 3502TIP3   OH210511   5.198   5.967   2.796
 3502TIP3    H110512   5.214   6.048   2.845
 3502TIP3    H210513   5.258   5.903   2.834
 3503TIP3   OH210514   4.942   1.017   0.378
 3503TIP3    H110515   4.995   1.006   0.299
 3503TIP3    H210516   4.880   0.944   0.376
 3504TIP3   OH210517   3.781   4.159   2.312
 3504TIP3    H110518   3.689   4.159   2.338
 3504TIP3    H210519   3.779   4.166   2.216
 3505TIP3   OH210520   5.448   3.216  -0.024
 3505TIP3    H110521   5.480   3.129  -0.050
 3505TIP3    H210522   5.510   3.244   0.044
 3506TIP3   OH210523   4.281   0.425   3.717
 3506TIP3    H110524   4.298   0.333   3.740
 3506TIP3    H210525   4.241   0.462   3.795
 3507TIP3   OH210526   4.841   0.986   4.333
 3507TIP3    H110527   4.898   0.944   4.268
 3507TIP3    H210528   4.899   1.044   4.381
 3508TIP3   OH210529   1.875   4.531   4.207
 3508TIP3    H110530   1.856   4.466   4.140
 3508TIP3    H210531   1.790   4.567   4.231
 3509TIP3   OH210532   4.600   4.232   4.145
 3509TIP3    H110533   4.606   4.192   4.232
 3509TIP3    H210534   4.690   4.248   4.119
 3510TIP3   OH210535   0.212   1.684   3.020
 3510TIP3    H110536   0.286   1.672   3.079
 3510TIP3    H210537   0.246   1.662   2.933
 3511TIP3   OH210538   0.820   2.933   0.181
 3511TIP3    H110539   0.838   3.014   0.133
 3511TIP3    H210540   0.817   2.865   0.114
 3512TIP3   OH210541   1.241   0.421   4.198
 3512TIP3    H110542   1.206   0.359   4.134
 3512TIP3    H210543   1.328   0.387   4.220
 3513TIP3   OH210544   1.591   0.073   2.698
 3513TIP3    H110545   1.576   0.004   2.763
 3513TIP3    H210546   1.678   0.054   2.663
 3514TIP3   OH210547   2.439   2.176   5.108
 3514TIP3    H110548   2.355   2.177   5.062
 3514TIP3    H210549   2.416   2.179   5.201
 3515TIP3   OH210550   2.349   2.238   2.323
 3515TIP3    H110551   2.256   2.223   2.341
 3515TIP3    H210552   2.350   2.279   2.237
 3516TIP3   OH210553   2.510   4.093   5.069
 3516TIP3    H110554   2.503   4.185   5.041
 3516TIP3    H210555   2.563   4.097   5.149
 3517TIP3   OH210556   3.880   4.206   3.010
 3517TIP3    H110557   3.917   4.247   2.932
 3517TIP3    H210558   3.884   4.275   3.077
 3518TIP3   OH210559   5.974   2.597   4.043
 3518TIP3    H110560   5.882   2.615   4.028
 3518TIP3    H210561   5.977   2.553   4.127
 3519TIP3   OH210562   5.732   4.184   3.839
 3519TIP3    H110563   5.818   4.144   3.851
 3519TIP3    H210564   5.749   4.267   3.795
 3520TIP3   OH210565   0.359   0.619   0.464
 3520TIP3    H110566   0.371   0.655   0.551
 3520TIP3    H210567   0.405   0.680   0.406
 3521TIP3   OH210568   4.907   2.118   0.773
 3521TIP3    H110569   4.958   2.196   0.792
 3521TIP3    H210570   4.816   2.150   0.769
 3522TIP3   OH210571   1.533   4.868   3.289
 3522TIP3    H110572   1.550   4.828   3.203
 3522TIP3    H210573   1.438   4.876   3.293
 3523TIP3   OH210574   0.582   0.699   3.308
 3523TIP3    H110575   0.581   0.758   3.233
 3523TIP3    H210576   0.675   0.685   3.326
 3524TIP3   OH210577   0.072   4.910   3.174
 3524TIP3    H110578  -0.015   4.916   3.135
 3524TIP3    H210579   0.066   4.965   3.253
 3525TIP3   OH210580   3.914   3.318   2.161
 3525TIP3    H110581   3.971   3.259   2.210
 3525TIP3    H210582   3.828   3.275   2.164
 3526TIP3   OH210583   0.477   0.411   4.160
 3526TIP3    H110584   0.430   0.491   4.134
 3526TIP3    H210585   0.552   0.443   4.210
 3527TIP3   OH210586   2.226   1.160   1.066
 3527TIP3    H110587   2.278   1.097   1.116
 3527TIP3    H210588   2.285   1.190   0.997
 3528TIP3   OH210589   4.026   1.553   2.744
 3528TIP3    H110590   4.004   1.633   2.697
 3528TIP3    H210591   4.101   1.517   2.697
 3529TIP3   OH210592   2.651   0.916   0.952
 3529TIP3    H110593   2.721   0.891   1.012
 3529TIP3    H210594   2.642   1.010   0.964
 3530TIP3   OH210595   1.012   1.015   0.547
 3530TIP3    H110596   0.952   1.064   0.603
 3530TIP3    H210597   0.961   0.994   0.469
 3531TIP3   OH210598   0.973   0.207   4.570
 3531TIP3    H110599   1.056   0.179   4.608
 3531TIP3    H210600   0.987   0.300   4.550
 3532TIP3   OH210601   4.561   5.033   4.411
 3532TIP3    H110602   4.534   4.978   4.338
 3532TIP3    H210603   4.497   5.013   4.480
 3533TIP3   OH210604   2.752   1.383   1.497
 3533TIP3    H110605   2.822   1.323   1.523
 3533TIP3    H210606   2.773   1.407   1.406
 3534TIP3   OH210607   0.062   0.142   4.414
 3534TIP3    H110608   0.133   0.199   4.385
 3534TIP3    H210609   0.023   0.188   4.489
 3535TIP3   OH210610   4.882   1.856   2.084
 3535TIP3    H110611   4.894   1.927   2.147
 3535TIP3    H210612   4.787   1.845   2.077
 3536TIP3   OH210613   0.080   3.279   0.993
 3536TIP3    H110614   0.123   3.312   0.914
 3536TIP3    H210615   0.151   3.246   1.047
 3537TIP3   OH210616   2.729   4.304   3.942
 3537TIP3    H110617   2.757   4.285   4.031
 3537TIP3    H210618   2.643   4.344   3.951
 3538TIP3   OH210619   1.564   1.548   3.365
 3538TIP3    H110620   1.568   1.492   3.288
 3538TIP3    H210621   1.491   1.513   3.417
 3539TIP3   OH210622   0.735   1.331   2.389
 3539TIP3    H110623   0.747   1.392   2.462
 3539TIP3    H210624   0.736   1.386   2.311
 3540TIP3   OH210625   3.572   0.465   4.926
 3540TIP3    H110626   3.664   0.446   4.942
 3540TIP3    H210627   3.566   0.476   4.831
 3541TIP3   OH210628   0.195   1.125   0.158
 3541TIP3    H110629   0.157   1.064   0.221
 3541TIP3    H210630   0.164   1.093   0.073
 3542TIP3   OH210631   2.164   3.254   3.455
 3542TIP3    H110632   2.174   3.186   3.390
 3542TIP3    H210633   2.084   3.299   3.431
 3543TIP3   OH210634   5.536   5.422   2.321
 3543TIP3    H110635   5.628   5.444   2.333
 3543TIP3    H210636   5.532   5.326   2.331
 3544TIP3   OH210637   5.217   4.026   0.547
 3544TIP3    H110638   5.231   3.969   0.622
 3544TIP3    H210639   5.129   4.006   0.516
 3545TIP3   OH210640   3.240   0.258   0.958
 3545TIP3    H110641   3.208   0.344   0.984
 3545TIP3    H210642   3.317   0.244   1.012
 3546TIP3   OH210643   3.004   0.170   2.356
 3546TIP3    H110644   3.043   0.110   2.293
 3546TIP3    H210645   3.078   0.201   2.409
 3547TIP3   OH210646   3.235   3.522   4.494
 3547TIP3    H110647   3.192   3.484   4.571
 3547TIP3    H210648   3.200   3.610   4.488
 3548TIP3   OH210649   2.390   2.667   0.705
 3548TIP3    H110650   2.484   2.668   0.722
 3548TIP3    H210651   2.380   2.718   0.625
 3549TIP3   OH210652   2.869   3.868   0.436
 3549TIP3    H110653   2.894   3.856   0.528
 3549TIP3    H210654   2.878   3.962   0.421
 3550TIP3   OH210655   3.102   0.956   1.101
 3550TIP3    H110656   3.144   1.015   1.038
 3550TIP3    H210657   3.102   0.871   1.058
 3551TIP3   OH210658   2.470   0.478   0.296
 3551TIP3    H110659   2.386   0.434   0.300
 3551TIP3    H210660   2.473   0.516   0.207
 3552TIP3   OH210661   1.901   0.495   1.298
 3552TIP3    H110662   1.961   0.533   1.362
 3552TIP3    H210663   1.816   0.537   1.316
 3553TIP3   OH210664   3.374   0.080   3.746
 3553TIP3    H110665   3.457   0.124   3.730
 3553TIP3    H210666   3.369   0.012   3.679
 3554TIP3   OH210667   4.013   2.501   4.056
 3554TIP3    H110668   4.063   2.581   4.072
 3554TIP3    H210669   3.922   2.530   4.052
 3555TIP3   OH210670   1.649   4.242   0.823
 3555TIP3    H110671   1.553   4.244   0.821
 3555TIP3    H210672   1.673   4.317   0.877
 3556TIP3   OH210673   0.185   1.401   2.608
 3556TIP3    H110674   0.094   1.382   2.629
 3556TIP3    H210675   0.198   1.363   2.521
 3557TIP3   OH210676   4.756   5.995   0.090
 3557TIP3    H110677   4.852   5.994   0.082
 3557TIP3    H210678   4.737   5.926   0.154
 3558TIP3   OH210679   2.719   3.324   5.265
 3558TIP3    H110680   2.653   3.365   5.210
 3558TIP3    H210681   2.764   3.262   5.207
 3559TIP3   OH210682   5.984   3.759   4.889
 3559TIP3    H110683   6.000   3.708   4.968
 3559TIP3    H210684   6.008   3.849   4.912
 3560TIP3   OH210685   5.935   3.173   1.499
 3560TIP3    H110686   5.876   3.222   1.556
 3560TIP3    H210687   5.904   3.193   1.410
 3561TIP3   OH210688   4.392   5.207   4.241
 3561TIP3    H110689   4.453   5.155   4.294
 3561TIP3    H210690   4.418   5.297   4.257
 3562TIP3   OH210691   1.435   5.672   0.797
 3562TIP3    H110692   1.517   5.672   0.846
 3562TIP3    H210693   1.380   5.736   0.841
 3563TIP3   OH210694   0.533   1.554   1.460
 3563TIP3    H110695   0.475   1.627   1.439
 3563TIP3    H210696   0.496   1.480   1.413
 3564TIP3   OH210697   2.276   0.689   1.469
 3564TIP3    H110698   2.245   0.772   1.505
 3564TIP3    H210699   2.369   0.704   1.452
 3565TIP3   OH210700   0.985   4.844   3.587
 3565TIP3    H110701   0.904   4.887   3.614
 3565TIP3    H210702   1.043   4.852   3.662
 3566TIP3   OH210703   4.532   3.043   2.100
 3566TIP3    H110704   4.515   3.082   2.015
 3566TIP3    H210705   4.526   2.948   2.085
 3567TIP3   OH210706   3.585   1.053   0.012
 3567TIP3    H110707   3.513   1.025   0.068
 3567TIP3    H210708   3.664   1.035   0.063
 3568TIP3   OH210709   3.694   2.177   0.572
 3568TIP3    H110710   3.620   2.119   0.584
 3568TIP3    H210711   3.754   2.128   0.515
 3569TIP3   OH210712   5.654   2.603   0.691
 3569TIP3    H110713   5.602   2.526   0.671
 3569TIP3    H210714   5.630   2.626   0.781
 3570TIP3   OH210715   4.315   4.423   1.690
 3570TIP3    H110716   4.336   4.486   1.620
 3570TIP3    H210717   4.392   4.422   1.746
 3571TIP3   OH210718   2.491   2.895   3.837
 3571TIP3    H110719   2.571   2.941   3.863
 3571TIP3    H210720   2.439   2.890   3.917
 3572TIP3   OH210721   5.934   5.885   1.770
 3572TIP3    H110722   5.870   5.887   1.841
 3572TIP3    H210723   5.921   5.967   1.723
 3573TIP3   OH210724   4.463   3.482   3.355
 3573TIP3    H110725   4.439   3.574   3.348
 3573TIP3    H210726   4.531   3.480   3.423
 3574TIP3   OH210727   1.637   1.865   4.624
 3574TIP3    H110728   1.658   1.913   4.544
 3574TIP3    H210729   1.549   1.831   4.609
 3575TIP3   OH210730   6.213   4.922   5.172
 3575TIP3    H110731   6.301   4.949   5.145
 3575TIP3    H210732   6.181   4.867   5.100
 3576TIP3   OH210733   2.753   1.504   3.312
 3576TIP3    H110734   2.823   1.459   3.359
 3576TIP3    H210735   2.761   1.473   3.221
 3577TIP3   OH210736   3.004   0.529   1.312
 3577TIP3    H110737   3.075   0.558   1.256
 3577TIP3    H210738   3.045   0.512   1.397
 3578TIP3   OH210739   0.421   2.426   2.716
 3578TIP3    H110740   0.351   2.363   2.733
 3578TIP3    H210741   0.394   2.505   2.764
 3579TIP3   OH210742   5.611   2.718   0.932
 3579TIP3    H110743   5.560   2.786   0.888
 3579TIP3    H210744   5.690   2.763   0.962
 3580TIP3   OH210745   3.813   5.345   4.868
 3580TIP3    H110746   3.886   5.406   4.877
 3580TIP3    H210747   3.806   5.302   4.953
 3581TIP3   OH210748   6.183   5.695   2.460
 3581TIP3    H110749   6.154   5.604   2.468
 3581TIP3    H210750   6.177   5.714   2.366
 3582TIP3   OH210751   4.611   4.825   0.133
 3582TIP3    H110752   4.693   4.872   0.149
 3582TIP3    H210753   4.625   4.781   0.049
 3583TIP3   OH210754   1.672   3.696   3.152
 3583TIP3    H110755   1.651   3.693   3.245
 3583TIP3    H210756   1.763   3.727   3.149
 3584TIP3   OH210757   4.738   5.283   0.348
 3584TIP3    H110758   4.798   5.313   0.279
 3584TIP3    H210759   4.792   5.282   0.427
 3585TIP3   OH210760   0.137   1.967   2.036
 3585TIP3    H110761   0.194   2.027   2.085
 3585TIP3    H210762   0.116   2.015   1.955
 3586TIP3   OH210763   2.095   5.503   1.665
 3586TIP3    H110764   2.095   5.593   1.696
 3586TIP3    H210765   2.187   5.484   1.647
 3587TIP3   OH210766   2.082   4.032   1.277
 3587TIP3    H110767   2.145   4.096   1.310
 3587TIP3    H210768   2.098   4.030   1.182
 3588TIP3   OH210769   2.621   1.989   1.840
 3588TIP3    H110770   2.537   2.002   1.797
 3588TIP3    H210771   2.666   1.925   1.784
 3589TIP3   OH210772   4.534   4.349   0.052
 3589TIP3    H110773   4.618   4.332   0.009
 3589TIP3    H210774   4.558   4.396   0.132
 3590TIP3   OH210775   1.805   5.053   3.956
 3590TIP3    H110776   1.896   5.042   3.928
 3590TIP3    H210777   1.810   5.054   4.052
 3591TIP3   OH210778   1.733   4.581   0.108
 3591TIP3    H110779   1.767   4.504   0.062
 3591TIP3    H210780   1.674   4.622   0.045
 3592TIP3   OH210781   5.802   0.729   0.295
 3592TIP3    H110782   5.798   0.795   0.226
 3592TIP3    H210783   5.718   0.683   0.289
 3593TIP3   OH210784   3.873   0.198   0.117
 3593TIP3    H110785   3.905   0.154   0.039
 3593TIP3    H210786   3.824   0.131   0.164
 3594TIP3   OH210787   3.832   4.411   0.226
 3594TIP3    H110788   3.883   4.329   0.226
 3594TIP3    H210789   3.892   4.476   0.263
 3595TIP3   OH210790   1.649   5.144   1.027
 3595TIP3    H110791   1.583   5.087   1.065
 3595TIP3    H210792   1.656   5.116   0.936
 3596TIP3   OH210793   4.864   5.344   4.683
 3596TIP3    H110794   4.936   5.358   4.745
 3596TIP3    H210795   4.853   5.428   4.639
 3597TIP3   OH210796   0.591   2.458   1.041
 3597TIP3    H110797   0.541   2.528   0.999
 3597TIP3    H210798   0.526   2.408   1.090
 3598TIP3   OH210799   2.009   5.949   1.545
 3598TIP3    H110800   2.059   5.875   1.511
 3598TIP3    H210801   2.062   5.980   1.619
 3599TIP3   OH210802   2.295   5.381   3.654
 3599TIP3    H110803   2.365   5.360   3.592
 3599TIP3    H210804   2.229   5.315   3.639
 3600TIP3   OH210805   6.273   1.851   2.578
 3600TIP3    H110806   6.366   1.838   2.598
 3600TIP3    H210807   6.272   1.878   2.486
 3601TIP3   OH210808   1.785   5.172   0.716
 3601TIP3    H110809   1.793   5.151   0.623
 3601TIP3    H210810   1.799   5.089   0.761
 3602TIP3   OH210811   4.111   3.539   4.837
 3602TIP3    H110812   4.147   3.499   4.758
 3602TIP3    H210813   4.186   3.579   4.880
 3603TIP3   OH210814   4.227   5.736   0.796
 3603TIP3    H110815   4.239   5.674   0.867
 3603TIP3    H210816   4.289   5.807   0.816
 3604TIP3   OH210817   0.140   0.750   1.363
 3604TIP3    H110818   0.170   0.764   1.274
 3604TIP3    H210819   0.211   0.700   1.404
 3605TIP3   OH210820   1.809   4.768   4.702
 3605TIP3    H110821   1.832   4.856   4.732
 3605TIP3    H210822   1.724   4.780   4.659
 3606TIP3   OH210823   5.998   4.947   2.209
 3606TIP3    H110824   5.916   4.899   2.197
 3606TIP3    H210825   6.061   4.880   2.236
 3607TIP3   OH210826   4.345   4.684   3.781
 3607TIP3    H110827   4.315   4.756   3.837
 3607TIP3    H210828   4.360   4.611   3.842
 3608TIP3   OH210829   1.408   4.778   4.017
 3608TIP3    H110830   1.487   4.813   3.977
 3608TIP3    H210831   1.366   4.728   3.948
 3609TIP3   OH210832   4.528   5.178   2.058
 3609TIP3    H110833   4.478   5.097   2.073
 3609TIP3    H210834   4.614   5.160   2.098
 3610TIP3   OH210835   2.047   2.894   0.817
 3610TIP3    H110836   2.115   2.863   0.876
 3610TIP3    H210837   1.979   2.826   0.821
 3611TIP3   OH210838   5.039   5.612   1.335
 3611TIP3    H110839   5.083   5.534   1.300
 3611TIP3    H210840   4.954   5.615   1.291
 3612TIP3   OH210841   5.356   0.856   3.399
 3612TIP3    H110842   5.422   0.924   3.415
 3612TIP3    H210843   5.321   0.878   3.313
 3613TIP3   OH210844   0.094   0.770   2.599
 3613TIP3    H110845   0.086   0.680   2.567
 3613TIP3    H210846   0.020   0.816   2.559
 3614TIP3   OH210847   2.459   3.827   0.952
 3614TIP3    H110848   2.474   3.838   0.858
 3614TIP3    H210849   2.399   3.898   0.975
 3615TIP3   OH210850   5.554   1.405   2.102
 3615TIP3    H110851   5.570   1.456   2.181
 3615TIP3    H210852   5.497   1.460   2.049
 3616TIP3   OH210853   3.387   4.833   3.674
 3616TIP3    H110854   3.419   4.795   3.756
 3616TIP3    H210855   3.291   4.827   3.681
 3617TIP3   OH210856   3.321   4.918   4.674
 3617TIP3    H110857   3.389   4.884   4.733
 3617TIP3    H210858   3.302   4.845   4.615
 3618TIP3   OH210859   0.368   3.182   4.722
 3618TIP3    H110860   0.402   3.265   4.754
 3618TIP3    H210861   0.445   3.138   4.684
 3619TIP3   OH210862   1.568   0.717   3.449
 3619TIP3    H110863   1.566   0.772   3.371
 3619TIP3    H210864   1.500   0.755   3.506
 3620TIP3   OH210865   4.857   1.492   4.218
 3620TIP3    H110866   4.769   1.489   4.179
 3620TIP3    H210867   4.916   1.498   4.143
 3621TIP3   OH210868   4.299   0.225   1.938
 3621TIP3    H110869   4.285   0.309   1.982
 3621TIP3    H210870   4.341   0.249   1.856
 3622TIP3   OH210871   1.703   1.800   1.552
 3622TIP3    H110872   1.726   1.751   1.474
 3622TIP3    H210873   1.617   1.766   1.577
 3623TIP3   OH210874   2.613   5.265   2.325
 3623TIP3    H110875   2.607   5.327   2.253
 3623TIP3    H210876   2.547   5.198   2.306
 3624TIP3   OH210877   3.356   2.663   2.321
 3624TIP3    H110878   3.388   2.659   2.411
 3624TIP3    H210879   3.341   2.572   2.297
 3625TIP3   OH210880   5.914   5.477   1.512
 3625TIP3    H110881   5.950   5.563   1.491
 3625TIP3    H210882   5.986   5.429   1.552
 3626TIP3   OH210883   1.840   4.654   0.490
 3626TIP3    H110884   1.754   4.681   0.459
 3626TIP3    H210885   1.827   4.636   0.583
 3627TIP3   OH210886   3.807   1.780   1.694
 3627TIP3    H110887   3.853   1.728   1.628
 3627TIP3    H210888   3.721   1.797   1.655
 3628TIP3   OH210889   0.540   1.478   1.136
 3628TIP3    H110890   0.524   1.492   1.042
 3628TIP3    H210891   0.634   1.459   1.142
 3629TIP3   OH210892   2.764   3.975   0.770
 3629TIP3    H110893   2.818   4.044   0.809
 3629TIP3    H210894   2.690   4.022   0.732
 3630TIP3   OH210895   3.661   5.461   0.870
 3630TIP3    H110896   3.661   5.403   0.947
 3630TIP3    H210897   3.684   5.547   0.905
 3631TIP3   OH210898   1.068   2.799   0.785
 3631TIP3    H110899   1.043   2.820   0.695
 3631TIP3    H210900   1.141   2.738   0.776
 3632TIP3   OH210901   3.314   1.334   2.142
 3632TIP3    H110902   3.233   1.359   2.187
 3632TIP3    H210903   3.376   1.319   2.213
 3633TIP3   OH210904   6.148   4.451   0.917
 3633TIP3    H110905   6.231   4.427   0.876
 3633TIP3    H210906   6.093   4.374   0.905
 3634TIP3   OH210907   1.904   6.033   1.039
 3634TIP3    H110908   1.895   6.053   1.133
 3634TIP3    H210909   1.898   5.938   1.034
 3635TIP3   OH210910   0.471   5.343   0.018
 3635TIP3    H110911   0.561   5.318  -0.003
 3635TIP3    H210912   0.477   5.386   0.103
 3636TIP3   OH210913   4.787   3.623   2.379
 3636TIP3    H110914   4.705   3.575   2.394
 3636TIP3    H210915   4.777   3.661   2.292
 3637TIP3   OH210916   3.798   0.496   0.079
 3637TIP3    H110917   3.796   0.569   0.140
 3637TIP3    H210918   3.716   0.449   0.095
 3638TIP3   OH210919   4.017   0.666   2.184
 3638TIP3    H110920   4.108   0.684   2.206
 3638TIP3    H210921   3.968   0.690   2.263
 3639TIP3   OH210922   2.972   2.283   0.429
 3639TIP3    H110923   2.986   2.338   0.506
 3639TIP3    H210924   2.888   2.312   0.392
 3640TIP3   OH210925   0.068   5.509   4.878
 3640TIP3    H110926   0.016   5.549   4.948
 3640TIP3    H210927   0.158   5.517   4.909
 3641TIP3   OH210928   0.460   0.268   0.633
 3641TIP3    H110929   0.490   0.211   0.562
 3641TIP3    H210930   0.395   0.325   0.592
 3642TIP3   OH210931   0.457   3.491   2.967
 3642TIP3    H110932   0.552   3.489   2.958
 3642TIP3    H210933   0.424   3.487   2.877
 3643TIP3   OH210934   6.155   0.207   4.607
 3643TIP3    H110935   6.076   0.245   4.570
 3643TIP3    H210936   6.173   0.259   4.686
 3644TIP3   OH210937   5.159   2.457   3.566
 3644TIP3    H110938   5.232   2.396   3.578
 3644TIP3    H210939   5.089   2.404   3.530
 3645TIP3   OH210940   4.195   5.970   4.215
 3645TIP3    H110941   4.158   5.888   4.248
 3645TIP3    H210942   4.216   6.020   4.294
 3646TIP3   OH210943   5.471   4.605   2.148
 3646TIP3    H110944   5.459   4.564   2.233
 3646TIP3    H210945   5.460   4.699   2.165
 3647TIP3   OH210946   0.998   3.871   0.296
 3647TIP3    H110947   0.943   3.862   0.219
 3647TIP3    H210948   0.940   3.908   0.363
 3648TIP3   OH210949   5.970   5.068   1.461
 3648TIP3    H110950   5.981   5.119   1.540
 3648TIP3    H210951   6.008   5.122   1.391
 3649TIP3   OH210952   1.706   2.268   3.761
 3649TIP3    H110953   1.746   2.208   3.698
 3649TIP3    H210954   1.714   2.355   3.720
 3650TIP3   OH210955   5.793   2.347   5.024
 3650TIP3    H110956   5.732   2.289   4.977
 3650TIP3    H210957   5.738   2.399   5.082
 3651TIP3   OH210958   2.459   5.789   3.875
 3651TIP3    H110959   2.453   5.696   3.854
 3651TIP3    H210960   2.502   5.828   3.798
 3652TIP3   OH210961   2.731   5.108   3.634
 3652TIP3    H110962   2.706   5.193   3.598
 3652TIP3    H210963   2.818   5.122   3.671
 3653TIP3   OH210964   2.044   4.383   4.670
 3653TIP3    H110965   1.950   4.371   4.658
 3653TIP3    H210966   2.051   4.441   4.746
 3654TIP3   OH210967   2.184   2.903   4.775
 3654TIP3    H110968   2.231   2.986   4.784
 3654TIP3    H210969   2.240   2.839   4.818
 3655TIP3   OH210970   2.560   3.246   0.837
 3655TIP3    H110971   2.624   3.236   0.766
 3655TIP3    H210972   2.610   3.283   0.909
 3656TIP3   OH210973   0.046   5.333   4.573
 3656TIP3    H110974   0.036   5.263   4.638
 3656TIP3    H210975   0.132   5.317   4.534
 3657TIP3   OH210976   0.393   1.831   5.061
 3657TIP3    H110977   0.427   1.752   5.104
 3657TIP3    H210978   0.399   1.812   4.968
 3658TIP3   OH210979   5.402   2.508   3.165
 3658TIP3    H110980   5.423   2.420   3.196
 3658TIP3    H210981   5.478   2.534   3.112
 3659TIP3   OH210982   3.200   1.181   4.457
 3659TIP3    H110983   3.170   1.162   4.368
 3659TIP3    H210984   3.292   1.206   4.446
 3660TIP3   OH210985   1.595   3.023   3.869
 3660TIP3    H110986   1.543   3.084   3.817
 3660TIP3    H210987   1.550   3.019   3.953
 3661TIP3   OH210988   0.496   5.023   0.154
 3661TIP3    H110989   0.569   5.062   0.201
 3661TIP3    H210990   0.482   5.081   0.079
 3662TIP3   OH210991   1.133   1.970   4.092
 3662TIP3    H110992   1.088   2.041   4.045
 3662TIP3    H210993   1.176   2.014   4.166
 3663TIP3   OH210994   0.419   0.210   2.055
 3663TIP3    H110995   0.417   0.227   1.961
 3663TIP3    H210996   0.434   0.296   2.094
 3664TIP3   OH210997   3.697   2.563   1.327
 3664TIP3    H110998   3.648   2.591   1.405
 3664TIP3    H210999   3.773   2.517   1.362
 3665TIP3   OH211000   5.639   4.055   1.018
 3665TIP3    H111001   5.556   4.006   1.022
 3665TIP3    H211002   5.642   4.103   1.101
 3666TIP3   OH211003   4.100   1.955   1.836
 3666TIP3    H111004   4.142   1.884   1.787
 3666TIP3    H211005   4.033   1.911   1.888
 3667TIP3   OH211006   1.144   0.936   2.513
 3667TIP3    H111007   1.174   0.848   2.535
 3667TIP3    H211008   1.065   0.949   2.566
 3668TIP3   OH211009   1.117   5.899   4.915
 3668TIP3    H111010   1.103   5.971   4.854
 3668TIP3    H211011   1.050   5.835   4.892
 3669TIP3   OH211012   5.712   4.496   1.783
 3669TIP3    H111013   5.619   4.487   1.763
 3669TIP3    H211014   5.720   4.471   1.875
 3670TIP3   OH211015   5.849   4.957   1.871
 3670TIP3    H111016   5.833   4.959   1.965
 3670TIP3    H211017   5.781   4.900   1.836
 3671TIP3   OH211018   5.486   2.093   1.043
 3671TIP3    H111019   5.571   2.085   1.087
 3671TIP3    H211020   5.456   2.002   1.033
 3672TIP3   OH211021   2.790   4.186   4.856
 3672TIP3    H111022   2.776   4.280   4.847
 3672TIP3    H211023   2.763   4.149   4.772
 3673TIP3   OH211024   5.280   4.166   3.653
 3673TIP3    H111025   5.206   4.145   3.710
 3673TIP3    H211026   5.251   4.143   3.565
 3674TIP3   OH211027   4.304   0.498   0.854
 3674TIP3    H111028   4.209   0.507   0.848
 3674TIP3    H211029   4.320   0.404   0.852
 3675TIP3   OH211030   5.853   3.393   2.764
 3675TIP3    H111031   5.913   3.319   2.755
 3675TIP3    H211032   5.859   3.439   2.681
 3676TIP3   OH211033   2.949   4.132   0.900
 3676TIP3    H111034   2.968   4.220   0.869
 3676TIP3    H211035   3.033   4.086   0.898
 3677TIP3   OH211036   2.763   0.650   1.355
 3677TIP3    H111037   2.791   0.741   1.349
 3677TIP3    H211038   2.844   0.600   1.349
 3678TIP3   OH211039   0.837   4.209   2.315
 3678TIP3    H111040   0.876   4.128   2.281
 3678TIP3    H211041   0.851   4.204   2.410
 3679TIP3   OH211042   1.955   5.229   1.798
 3679TIP3    H111043   1.946   5.291   1.870
 3679TIP3    H211044   2.016   5.163   1.830
 3680TIP3   OH211045   3.373   5.294   4.991
 3680TIP3    H111046   3.393   5.233   4.921
 3680TIP3    H211047   3.367   5.379   4.948
 3681TIP3   OH211048   6.238   1.836   1.314
 3681TIP3    H111049   6.261   1.750   1.351
 3681TIP3    H211050   6.195   1.882   1.386
 3682TIP3   OH211051   2.795   3.237   0.730
 3682TIP3    H111052   2.876   3.229   0.780
 3682TIP3    H211053   2.784   3.330   0.715
 3683TIP3   OH211054   0.420   1.377   2.206
 3683TIP3    H111055   0.425   1.350   2.115
 3683TIP3    H211056   0.485   1.447   2.214
 3684TIP3   OH211057   5.374   4.167   0.776
 3684TIP3    H111058   5.378   4.071   0.769
 3684TIP3    H211059   5.283   4.185   0.796
 3685TIP3   OH211060   3.980   1.257   3.031
 3685TIP3    H111061   4.073   1.273   3.049
 3685TIP3    H211062   3.941   1.345   3.026
 3686TIP3   OH211063   0.889   1.461   1.944
 3686TIP3    H111064   0.906   1.555   1.939
 3686TIP3    H211065   0.819   1.446   1.881
 3687TIP3   OH211066   3.617   5.303   2.288
 3687TIP3    H111067   3.556   5.242   2.247
 3687TIP3    H211068   3.564   5.380   2.309
 3688TIP3   OH211069   1.447   5.048   1.643
 3688TIP3    H111070   1.460   5.142   1.631
 3688TIP3    H211071   1.357   5.032   1.616
 3689TIP3   OH211072   2.829   3.316   4.843
 3689TIP3    H111073   2.807   3.409   4.851
 3689TIP3    H211074   2.804   3.278   4.927
 3690TIP3   OH211075   4.445   5.945   0.547
 3690TIP3    H111076   4.476   5.903   0.627
 3690TIP3    H211077   4.414   5.873   0.492
 3691TIP3   OH211078   3.570   5.485   2.021
 3691TIP3    H111079   3.538   5.399   1.994
 3691TIP3    H211080   3.493   5.530   2.056
 3692TIP3   OH211081   5.360   5.886   4.886
 3692TIP3    H111082   5.377   5.973   4.850
 3692TIP3    H211083   5.447   5.847   4.897
 3693TIP3   OH211084   0.574   2.916   1.750
 3693TIP3    H111085   0.602   2.879   1.665
 3693TIP3    H211086   0.656   2.937   1.794
 3694TIP3   OH211087   5.171   3.423   3.040
 3694TIP3    H111088   5.256   3.407   3.081
 3694TIP3    H211089   5.128   3.486   3.098
 3695TIP3   OH211090   3.670   5.753   0.795
 3695TIP3    H111091   3.609   5.745   0.721
 3695TIP3    H211092   3.696   5.844   0.794
 3696TIP3   OH211093   4.555   2.000   3.119
 3696TIP3    H111094   4.597   1.926   3.163
 3696TIP3    H211095   4.611   2.017   3.043
 3697TIP3   OH211096   0.098   2.182   3.627
 3697TIP3    H111097   0.067   2.243   3.560
 3697TIP3    H211098   0.038   2.194   3.700
 3698TIP3   OH211099   4.198   1.107   1.505
 3698TIP3    H111100   4.185   1.022   1.547
 3698TIP3    H211101   4.231   1.164   1.576
 3699TIP3   OH211102   3.301   5.584   0.237
 3699TIP3    H111103   3.265   5.498   0.217
 3699TIP3    H211104   3.352   5.572   0.317
 3700TIP3   OH211105   2.273   3.156   4.778
 3700TIP3    H111106   2.283   3.148   4.683
 3700TIP3    H211107   2.363   3.155   4.812
 3701TIP3   OH211108   0.859   1.031   4.876
 3701TIP3    H111109   0.852   1.122   4.903
 3701TIP3    H211110   0.895   1.035   4.787
 3702TIP3   OH211111   3.146   2.695   3.892
 3702TIP3    H111112   3.233   2.667   3.920
 3702TIP3    H211113   3.162   2.756   3.820
 3703TIP3   OH211114   5.548   0.953   2.585
 3703TIP3    H111115   5.637   0.981   2.607
 3703TIP3    H211116   5.559   0.868   2.542
 3704TIP3   OH211117   2.475   0.104   3.488
 3704TIP3    H111118   2.387   0.066   3.492
 3704TIP3    H211119   2.507   0.082   3.401
 3705TIP3   OH211120   1.093   1.818   3.005
 3705TIP3    H111121   1.117   1.910   3.013
 3705TIP3    H211122   1.152   1.783   2.938
 3706TIP3   OH211123   5.886   4.931   2.588
 3706TIP3    H111124   5.812   4.923   2.528
 3706TIP3    H211125   5.874   4.861   2.651
 3707TIP3   OH211126   1.574   0.078   4.232
 3707TIP3    H111127   1.519   0.004   4.260
 3707TIP3    H211128   1.512   0.148   4.214
 3708TIP3   OH211129   4.015   4.311   2.818
 3708TIP3    H111130   4.039   4.398   2.787
 3708TIP3    H211131   4.093   4.279   2.864
 3709TIP3   OH211132   5.956   4.525   2.446
 3709TIP3    H111133   5.981   4.508   2.537
 3709TIP3    H211134   5.862   4.509   2.443
 3710TIP3   OH211135   3.328   0.557   0.807
 3710TIP3    H111136   3.261   0.555   0.738
 3710TIP3    H211137   3.279   0.549   0.889
 3711TIP3   OH211138   5.245   1.921   2.612
 3711TIP3    H111139   5.174   1.892   2.554
 3711TIP3    H211140   5.258   2.013   2.590
 3712TIP3   OH211141   0.304   3.029   4.986
 3712TIP3    H111142   0.323   2.994   5.073
 3712TIP3    H211143   0.219   3.072   4.996
 3713TIP3   OH211144   0.731   0.249   2.236
 3713TIP3    H111145   0.812   0.225   2.191
 3713TIP3    H211146   0.692   0.316   2.180
 3714TIP3   OH211147   4.495   5.223   1.442
 3714TIP3    H111148   4.401   5.218   1.424
 3714TIP3    H211149   4.508   5.165   1.518
 3715TIP3   OH211150   4.537   4.724   4.586
 3715TIP3    H111151   4.545   4.645   4.640
 3715TIP3    H211152   4.575   4.793   4.640
 3716TIP3   OH211153   3.277   1.034   1.539
 3716TIP3    H111154   3.230   1.073   1.613
 3716TIP3    H211155   3.282   0.941   1.560
 3717TIP3   OH211156   5.549   3.804   4.120
 3717TIP3    H111157   5.466   3.838   4.088
 3717TIP3    H211158   5.611   3.822   4.049
 3718TIP3   OH211159   3.906   1.776   1.963
 3718TIP3    H111160   3.841   1.818   1.909
 3718TIP3    H211161   3.877   1.685   1.970
 3719TIP3   OH211162   1.507   2.485   1.190
 3719TIP3    H111163   1.446   2.507   1.120
 3719TIP3    H211164   1.455   2.435   1.253
 3720TIP3   OH211165   4.233   0.750   1.862
 3720TIP3    H111166   4.315   0.799   1.849
 3720TIP3    H211167   4.197   0.740   1.774
 3721TIP3   OH211168   1.587   4.317   1.821
 3721TIP3    H111169   1.515   4.254   1.831
 3721TIP3    H211170   1.594   4.330   1.726
 3722TIP3   OH211171   4.790   4.518   2.997
 3722TIP3    H111172   4.723   4.451   3.013
 3722TIP3    H211173   4.805   4.515   2.903
 3723TIP3   OH211174   5.947   1.519   1.697
 3723TIP3    H111175   5.976   1.428   1.694
 3723TIP3    H211176   5.881   1.521   1.766
 3724TIP3   OH211177   3.163   5.584   1.485
 3724TIP3    H111178   3.194   5.511   1.539
 3724TIP3    H211179   3.215   5.659   1.512
 3725TIP3   OH211180   3.817   4.986   4.855
 3725TIP3    H111181   3.868   5.029   4.924
 3725TIP3    H211182   3.812   5.051   4.785
 3726TIP3   OH211183   1.937   4.312   3.222
 3726TIP3    H111184   1.903   4.256   3.292
 3726TIP3    H211185   2.026   4.333   3.249
 3727TIP3   OH211186   4.897   4.273   0.229
 3727TIP3    H111187   4.906   4.294   0.136
 3727TIP3    H211188   4.857   4.186   0.230
 3728TIP3   OH211189   0.311   4.911   3.493
 3728TIP3    H111190   0.217   4.898   3.483
 3728TIP3    H211191   0.336   4.855   3.567
 3729TIP3   OH211192   0.777   4.540   4.964
 3729TIP3    H111193   0.735   4.459   4.938
 3729TIP3    H211194   0.726   4.572   5.038
 3730TIP3   OH211195   5.810   0.726   3.059
 3730TIP3    H111196   5.829   0.739   2.966
 3730TIP3    H211197   5.802   0.631   3.069
 3731TIP3   OH211198   5.944   5.480   0.141
 3731TIP3    H111199   5.862   5.530   0.134
 3731TIP3    H211200   6.005   5.526   0.083
 3732TIP3   OH211201   5.842   4.007   4.216
 3732TIP3    H111202   5.790   4.081   4.247
 3732TIP3    H211203   5.910   4.046   4.162
 3733TIP3   OH211204   3.252   2.898   0.104
 3733TIP3    H111205   3.328   2.841   0.113
 3733TIP3    H211206   3.286   2.976   0.061
 3734TIP3   OH211207   0.552   5.904   1.934
 3734TIP3    H111208   0.591   5.895   1.848
 3734TIP3    H211209   0.540   5.999   1.946
 3735TIP3   OH211210   5.076   1.897   1.027
 3735TIP3    H111211   5.018   1.847   0.969
 3735TIP3    H211212   5.048   1.988   1.016
 3736TIP3   OH211213   0.274   1.749   3.916
 3736TIP3    H111214   0.256   1.820   3.977
 3736TIP3    H211215   0.367   1.756   3.897
 3737TIP3   OH211216   4.615   1.941   4.764
 3737TIP3    H111217   4.537   1.890   4.786
 3737TIP3    H211218   4.670   1.936   4.842
 3738TIP3   OH211219   4.702   4.133   3.823
 3738TIP3    H111220   4.762   4.165   3.890
 3738TIP3    H211221   4.638   4.203   3.812
 3739TIP3   OH211222   0.215   5.043   1.728
 3739TIP3    H111223   0.301   5.002   1.730
 3739TIP3    H211224   0.233   5.137   1.727
 3740TIP3   OH211225   1.677   0.465   4.758
 3740TIP3    H111226   1.671   0.433   4.849
 3740TIP3    H211227   1.591   0.503   4.741
 3741TIP3   OH211228   4.075   3.378   2.867
 3741TIP3    H111229   4.106   3.329   2.791
 3741TIP3    H211230   4.083   3.317   2.940
 3742TIP3   OH211231   6.135   1.684   2.863
 3742TIP3    H111232   6.170   1.773   2.872
 3742TIP3    H211233   6.200   1.628   2.906
 3743TIP3   OH211234   0.737   5.818   4.429
 3743TIP3    H111235   0.718   5.851   4.517
 3743TIP3    H211236   0.658   5.838   4.378
 3744TIP3   OH211237   1.483   3.410   4.439
 3744TIP3    H111238   1.556   3.469   4.458
 3744TIP3    H211239   1.523   3.338   4.391
 3745TIP3   OH211240   2.277   2.815   3.426
 3745TIP3    H111241   2.326   2.859   3.496
 3745TIP3    H211242   2.278   2.876   3.353
 3746TIP3   OH211243   2.843   5.166   0.976
 3746TIP3    H111244   2.837   5.262   0.983
 3746TIP3    H211245   2.794   5.134   1.052
 3747TIP3   OH211246   4.814   3.443   0.104
 3747TIP3    H111247   4.857   3.386   0.169
 3747TIP3    H211248   4.860   3.526   0.111
 3748TIP3   OH211249   1.548   3.852   1.676
 3748TIP3    H111250   1.625   3.821   1.629
 3748TIP3    H211251   1.540   3.792   1.751
 3749TIP3   OH211252   4.195   3.196   1.243
 3749TIP3    H111253   4.104   3.184   1.269
 3749TIP3    H211254   4.197   3.172   1.150
 3750TIP3   OH211255   6.302   5.530   2.807
 3750TIP3    H111256   6.322   5.578   2.887
 3750TIP3    H211257   6.375   5.549   2.748
 3751TIP3   OH211258   4.760   2.569   0.084
 3751TIP3    H111259   4.746   2.587  -0.009
 3751TIP3    H211260   4.718   2.484   0.098
 3752TIP3   OH211261   6.165   0.941   0.630
 3752TIP3    H111262   6.087   0.927   0.577
 3752TIP3    H211263   6.138   0.916   0.719
 3753TIP3   OH211264   3.796   4.022   1.966
 3753TIP3    H111265   3.878   4.002   1.920
 3753TIP3    H211266   3.783   3.947   2.024
 3754TIP3   OH211267   3.417   5.596   4.426
 3754TIP3    H111268   3.375   5.593   4.512
 3754TIP3    H211269   3.435   5.505   4.405
 3755TIP3   OH211270   6.010   5.779   2.165
 3755TIP3    H111271   5.940   5.844   2.170
 3755TIP3    H211272   5.980   5.718   2.098
 3756TIP3   OH211273   4.671   1.852   1.431
 3756TIP3    H111274   4.663   1.786   1.499
 3756TIP3    H211275   4.603   1.829   1.368
 3757TIP3   OH211276   4.374   4.144   0.721
 3757TIP3    H111277   4.374   4.212   0.654
 3757TIP3    H211278   4.440   4.082   0.692
 3758TIP3   OH211279   3.311   5.303   2.794
 3758TIP3    H111280   3.341   5.307   2.704
 3758TIP3    H211281   3.225   5.346   2.793
 3759TIP3   OH211282   3.850   2.638   3.731
 3759TIP3    H111283   3.795   2.699   3.682
 3759TIP3    H211284   3.932   2.686   3.744
 3760TIP3   OH211285   4.795   1.758   1.766
 3760TIP3    H111286   4.885   1.737   1.792
 3760TIP3    H211287   4.752   1.674   1.755
 3761TIP3   OH211288   3.474   1.553   1.605
 3761TIP3    H111289   3.447   1.563   1.514
 3761TIP3    H211290   3.481   1.642   1.638
 3762TIP3   OH211291   2.225   1.741   3.646
 3762TIP3    H111292   2.134   1.727   3.673
 3762TIP3    H211293   2.262   1.796   3.715
 3763TIP3   OH211294   5.299   0.782   1.513
 3763TIP3    H111295   5.379   0.777   1.461
 3763TIP3    H211296   5.232   0.740   1.459
 3764TIP3   OH211297   6.143   3.558   2.638
 3764TIP3    H111298   6.048   3.562   2.622
 3764TIP3    H211299   6.169   3.650   2.648
 3765TIP3   OH211300   5.562   3.302   4.257
 3765TIP3    H111301   5.538   3.210   4.242
 3765TIP3    H211302   5.643   3.297   4.308
 3766TIP3   OH211303   2.411   5.152   2.521
 3766TIP3    H111304   2.454   5.237   2.511
 3766TIP3    H211305   2.317   5.173   2.528
 3767TIP3   OH211306   3.825   3.943   4.498
 3767TIP3    H111307   3.741   3.908   4.468
 3767TIP3    H211308   3.809   3.974   4.587
 3768TIP3   OH211309   2.133   4.754   3.187
 3768TIP3    H111310   2.110   4.705   3.108
 3768TIP3    H211311   2.098   4.702   3.259
 3769TIP3   OH211312   4.867   3.825   1.880
 3769TIP3    H111313   4.863   3.730   1.875
 3769TIP3    H211314   4.847   3.856   1.792
 3770TIP3   OH211315   6.346   4.482   1.843
 3770TIP3    H111316   6.320   4.573   1.856
 3770TIP3    H211317   6.264   4.436   1.824
 3771TIP3   OH211318   5.113   3.023   5.082
 3771TIP3    H111319   5.091   3.037   5.174
 3771TIP3    H211320   5.087   2.932   5.065
 3772TIP3   OH211321   3.672   4.290   5.171
 3772TIP3    H111322   3.609   4.280   5.242
 3772TIP3    H211323   3.617   4.299   5.092
 3773TIP3   OH211324   4.642   2.751   2.226
 3773TIP3    H111325   4.555   2.719   2.201
 3773TIP3    H211326   4.625   2.814   2.296
 3774TIP3   OH211327   4.612   1.062   4.233
 3774TIP3    H111328   4.639   1.029   4.148
 3774TIP3    H211329   4.679   1.030   4.294
 3775TIP3   OH211330   3.751   2.635   3.971
 3775TIP3    H111331   3.693   2.559   3.974
 3775TIP3    H211332   3.786   2.634   3.882
 3776TIP3   OH211333   2.388   3.004   1.040
 3776TIP3    H111334   2.393   2.965   0.953
 3776TIP3    H211335   2.356   2.933   1.096
 3777TIP3   OH211336   4.659   2.135   1.565
 3777TIP3    H111337   4.588   2.177   1.516
 3777TIP3    H211338   4.667   2.048   1.524
 3778TIP3   OH211339   0.605   1.593   2.966
 3778TIP3    H111340   0.698   1.611   2.954
 3778TIP3    H211341   0.561   1.665   2.922
 3779TIP3   OH211342   5.970   0.577   4.116
 3779TIP3    H111343   5.949   0.513   4.049
 3779TIP3    H211344   6.062   0.599   4.102
 3780TIP3   OH211345   3.391   5.263   2.528
 3780TIP3    H111346   3.418   5.174   2.552
 3780TIP3    H211347   3.304   5.252   2.489
 3781TIP3   OH211348   4.235   0.353   0.469
 3781TIP3    H111349   4.220   0.335   0.376
 3781TIP3    H211350   4.256   0.268   0.507
 3782TIP3   OH211351   3.374   2.793   1.534
 3782TIP3    H111352   3.295   2.740   1.524
 3782TIP3    H211353   3.446   2.729   1.541
 3783TIP3   OH211354   4.750   1.170   0.526
 3783TIP3    H111355   4.748   1.206   0.614
 3783TIP3    H211356   4.823   1.108   0.526
 3784TIP3   OH211357   5.955   5.743   3.940
 3784TIP3    H111358   6.036   5.788   3.959
 3784TIP3    H211359   5.923   5.783   3.859
 3785TIP3   OH211360   5.320   2.030   4.782
 3785TIP3    H111361   5.335   1.963   4.716
 3785TIP3    H211362   5.407   2.051   4.815
 3786TIP3   OH211363   4.885   0.700   3.861
 3786TIP3    H111364   4.798   0.673   3.892
 3786TIP3    H211365   4.903   0.781   3.908
 3787TIP3   OH211366   1.775   5.937   2.178
 3787TIP3    H111367   1.862   5.908   2.151
 3787TIP3    H211368   1.727   5.949   2.096
 3788TIP3   OH211369   6.380   1.415   0.515
 3788TIP3    H111370   6.358   1.486   0.454
 3788TIP3    H211371   6.308   1.413   0.578
 3789TIP3   OH211372   1.156   0.514   1.472
 3789TIP3    H111373   1.132   0.607   1.470
 3789TIP3    H211374   1.141   0.487   1.562
 3790TIP3   OH211375   6.294   4.582   3.208
 3790TIP3    H111376   6.216   4.531   3.230
 3790TIP3    H211377   6.261   4.667   3.181
 3791TIP3   OH211378   6.115   5.742   2.738
 3791TIP3    H111379   6.136   5.673   2.801
 3791TIP3    H211380   6.152   5.710   2.655
 3792TIP3   OH211381   0.763   3.494   1.937
 3792TIP3    H111382   0.852   3.528   1.934
 3792TIP3    H211383   0.752   3.463   2.026
 3793TIP3   OH211384   0.288   3.986   3.638
 3793TIP3    H111385   0.232   3.926   3.688
 3793TIP3    H211386   0.351   3.930   3.594
 3794TIP3   OH211387   4.887   4.525   0.557
 3794TIP3    H111388   4.872   4.605   0.507
 3794TIP3    H211389   4.898   4.555   0.647
 3795TIP3   OH211390   5.751   1.235   4.148
 3795TIP3    H111391   5.836   1.193   4.161
 3795TIP3    H211392   5.755   1.271   4.059
 3796TIP3   OH211393   6.207   0.031   0.205
 3796TIP3    H111394   6.227   0.118   0.238
 3796TIP3    H211395   6.113   0.021   0.216
 3797TIP3   OH211396   6.286   5.036   1.890
 3797TIP3    H111397   6.319   5.121   1.919
 3797TIP3    H211398   6.337   5.016   1.811
 3798TIP3   OH211399   5.595   0.355   3.766
 3798TIP3    H111400   5.545   0.328   3.689
 3798TIP3    H211401   5.683   0.320   3.752
 3799TIP3   OH211402   3.512   2.768   4.423
 3799TIP3    H111403   3.458   2.723   4.488
 3799TIP3    H211404   3.555   2.697   4.375
 3800TIP3   OH211405   1.506   3.397   4.025
 3800TIP3    H111406   1.578   3.441   4.070
 3800TIP3    H211407   1.518   3.420   3.933
 3801TIP3   OH211408   2.395   2.044   2.800
 3801TIP3    H111409   2.374   2.005   2.885
 3801TIP3    H211410   2.334   2.002   2.739
 3802TIP3   OH211411   2.387   0.382   4.938
 3802TIP3    H111412   2.337   0.350   4.863
 3802TIP3    H211413   2.322   0.429   4.991
 3803TIP3   OH211414   3.441   0.431   2.131
 3803TIP3    H111415   3.356   0.423   2.087
 3803TIP3    H211416   3.447   0.353   2.186
 3804TIP3   OH211417   2.003   3.232   4.725
 3804TIP3    H111418   1.951   3.221   4.805
 3804TIP3    H211419   2.093   3.213   4.752
 3805TIP3   OH211420   4.838   1.607   3.361
 3805TIP3    H111421   4.902   1.678   3.368
 3805TIP3    H211422   4.883   1.531   3.398
 3806TIP3   OH211423   2.137   1.447   1.985
 3806TIP3    H111424   2.162   1.415   1.899
 3806TIP3    H211425   2.205   1.511   2.008
 3807TIP3   OH211426   6.263   4.766   4.157
 3807TIP3    H111427   6.226   4.706   4.222
 3807TIP3    H211428   6.352   4.734   4.143
 3808TIP3   OH211429   2.879   4.938   2.432
 3808TIP3    H111430   2.841   4.860   2.391
 3808TIP3    H211431   2.914   4.906   2.515
 3809TIP3   OH211432   2.171   4.831   1.674
 3809TIP3    H111433   2.088   4.826   1.627
 3809TIP3    H211434   2.149   4.875   1.756
 3810TIP3   OH211435   4.433   1.831   2.686
 3810TIP3    H111436   4.407   1.755   2.738
 3810TIP3    H211437   4.454   1.794   2.600
 3811TIP3   OH211438   4.735   3.736   2.129
 3811TIP3    H111439   4.735   3.814   2.185
 3811TIP3    H211440   4.783   3.763   2.051
 3812TIP3   OH211441   6.152   2.467   2.427
 3812TIP3    H111442   6.227   2.415   2.455
 3812TIP3    H211443   6.079   2.435   2.480
 3813TIP3   OH211444   1.090   1.926   1.398
 3813TIP3    H111445   1.080   1.927   1.303
 3813TIP3    H211446   1.003   1.904   1.431
 3814TIP3   OH211447   3.643   3.607   1.723
 3814TIP3    H111448   3.658   3.549   1.797
 3814TIP3    H211449   3.555   3.584   1.692
 3815TIP3   OH211450   0.542   2.370   0.732
 3815TIP3    H111451   0.478   2.440   0.732
 3815TIP3    H211452   0.501   2.300   0.783
 3816TIP3   OH211453   0.481   2.380   4.091
 3816TIP3    H111454   0.471   2.465   4.048
 3816TIP3    H211455   0.452   2.317   4.025
 3817TIP3   OH211456   2.304   2.939   2.048
 3817TIP3    H111457   2.256   2.924   1.967
 3817TIP3    H211458   2.285   2.862   2.103
 3818TIP3   OH211459   6.335   0.283   1.176
 3818TIP3    H111460   6.326   0.378   1.169
 3818TIP3    H211461   6.245   0.252   1.190
 3819TIP3   OH211462   3.208   4.836   1.885
 3819TIP3    H111463   3.281   4.871   1.936
 3819TIP3    H211464   3.134   4.892   1.907
 3820TIP3   OH211465   6.338   1.778   4.398
 3820TIP3    H111466   6.292   1.694   4.408
 3820TIP3    H211467   6.387   1.769   4.317
 3821TIP3   OH211468   4.234   4.974   4.401
 3821TIP3    H111469   4.191   5.037   4.458
 3821TIP3    H211470   4.264   5.026   4.326
 3822TIP3   OH211471   3.871   4.909   1.655
 3822TIP3    H111472   3.941   4.972   1.640
 3822TIP3    H211473   3.873   4.892   1.749
 3823TIP3   OH211474   2.764   5.517   4.959
 3823TIP3    H111475   2.721   5.560   5.033
 3823TIP3    H211476   2.692   5.482   4.907
 3824TIP3   OH211477   2.302   3.495   2.712
 3824TIP3    H111478   2.227   3.546   2.682
 3824TIP3    H211479   2.309   3.423   2.648
 3825TIP3   OH211480   0.067   4.863   1.306
 3825TIP3    H111481   0.008   4.886   1.234
 3825TIP3    H211482   0.148   4.835   1.263
 3826TIP3   OH211483   6.277   5.026   1.501
 3826TIP3    H111484   6.304   5.117   1.509
 3826TIP3    H211485   6.328   4.993   1.427
 3827TIP3   OH211486   3.593   3.539   0.889
 3827TIP3    H111487   3.682   3.507   0.876
 3827TIP3    H211488   3.538   3.476   0.842
 3828TIP3   OH211489   5.509   3.204   0.940
 3828TIP3    H111490   5.501   3.238   0.851
 3828TIP3    H211491   5.553   3.274   0.989
 3829TIP3   OH211492   2.773   4.652   2.773
 3829TIP3    H111493   2.811   4.569   2.745
 3829TIP3    H211494   2.782   4.652   2.868
 3830TIP3   OH211495   0.687   4.885   1.605
 3830TIP3    H111496   0.648   4.818   1.549
 3830TIP3    H211497   0.753   4.839   1.656
 3831TIP3   OH211498   4.694   2.452   2.513
 3831TIP3    H111499   4.716   2.512   2.442
 3831TIP3    H211500   4.748   2.374   2.497
 3832TIP3   OH211501   3.619   1.403   1.148
 3832TIP3    H111502   3.528   1.384   1.126
 3832TIP3    H211503   3.636   1.350   1.226
 3833TIP3   OH211504   4.117   0.057   4.202
 3833TIP3    H111505   4.183   0.121   4.175
 3833TIP3    H211506   4.151  -0.027   4.171
 3834TIP3   OH211507   0.793   5.575   1.836
 3834TIP3    H111508   0.820   5.490   1.801
 3834TIP3    H211509   0.779   5.629   1.759
 3835TIP3   OH211510   5.896   4.343   3.427
 3835TIP3    H111511   5.846   4.396   3.365
 3835TIP3    H211512   5.948   4.284   3.371
 3836TIP3   OH211513   1.628   5.508   4.011
 3836TIP3    H111514   1.722   5.503   4.025
 3836TIP3    H211515   1.592   5.438   4.066
 3837TIP3   OH211516   4.156   2.811   0.618
 3837TIP3    H111517   4.101   2.869   0.565
 3837TIP3    H211518   4.219   2.775   0.556
 3838TIP3   OH211519   6.138   4.014   1.856
 3838TIP3    H111520   6.122   3.985   1.766
 3838TIP3    H211521   6.058   3.992   1.903
 3839TIP3   OH211522   3.600   1.750   4.327
 3839TIP3    H111523   3.643   1.670   4.357
 3839TIP3    H211524   3.673   1.810   4.310
 3840TIP3   OH211525   1.730   1.170   1.229
 3840TIP3    H111526   1.759   1.082   1.206
 3840TIP3    H211527   1.704   1.208   1.145
 3841TIP3   OH211528   1.326   4.538   2.966
 3841TIP3    H111529   1.412   4.527   2.926
 3841TIP3    H211530   1.312   4.458   3.017
 3842TIP3   OH211531   4.556   4.082   2.498
 3842TIP3    H111532   4.581   3.993   2.521
 3842TIP3    H211533   4.636   4.122   2.465
 3843TIP3   OH211534   1.963   3.217   1.632
 3843TIP3    H111535   1.890   3.278   1.644
 3843TIP3    H211536   1.941   3.170   1.551
 3844TIP3   OH211537   2.228   1.374   3.053
 3844TIP3    H111538   2.152   1.342   3.004
 3844TIP3    H211539   2.231   1.468   3.036
 3845TIP3   OH211540  -0.037   2.788   2.972
 3845TIP3    H111541   0.045   2.832   2.950
 3845TIP3    H211542  -0.012   2.697   2.987
 3846TIP3   OH211543   3.987   4.731   1.424
 3846TIP3    H111544   3.938   4.789   1.482
 3846TIP3    H211545   3.942   4.647   1.430
 3847TIP3   OH211546   3.892   4.721   4.080
 3847TIP3    H111547   3.878   4.809   4.115
 3847TIP3    H211548   3.817   4.671   4.113
 3848TIP3   OH211549   0.243   0.093   2.949
 3848TIP3    H111550   0.283   0.064   2.866
 3848TIP3    H211551   0.150   0.072   2.940
 3849TIP3   OH211552   1.872   3.260   3.128
 3849TIP3    H111553   1.872   3.353   3.105
 3849TIP3    H211554   1.953   3.226   3.090
 3850TIP3   OH211555   4.975   1.176   3.352
 3850TIP3    H111556   4.979   1.082   3.369
 3850TIP3    H211557   5.055   1.211   3.390
 3851TIP3   OH211558   2.869   0.100   1.436
 3851TIP3    H111559   2.875   0.036   1.365
 3851TIP3    H211560   2.787   0.146   1.420
 3852TIP3   OH211561   4.818   1.421   1.713
 3852TIP3    H111562   4.733   1.388   1.741
 3852TIP3    H211563   4.867   1.343   1.689
 3853TIP3   OH211564   6.164   1.946   1.558
 3853TIP3    H111565   6.167   1.870   1.616
 3853TIP3    H211566   6.164   2.022   1.616
 3854TIP3   OH211567   0.269   5.831   1.943
 3854TIP3    H111568   0.278   5.754   1.999
 3854TIP3    H211569   0.358   5.854   1.919
 3855TIP3   OH211570   3.876   3.439   1.592
 3855TIP3    H111571   3.923   3.480   1.665
 3855TIP3    H211572   3.940   3.432   1.522
 3856TIP3   OH211573   6.227   1.307   0.056
 3856TIP3    H111574   6.162   1.236   0.054
 3856TIP3    H211575   6.233   1.337  -0.034
 3857TIP3   OH211576   0.341   3.515   1.050
 3857TIP3    H111577   0.273   3.471   1.101
 3857TIP3    H211578   0.351   3.462   0.971
 3858TIP3   OH211579   0.212   3.748   4.172
 3858TIP3    H111580   0.222   3.688   4.245
 3858TIP3    H211581   0.119   3.740   4.147
 3859TIP3   OH211582   3.909   1.467   3.446
 3859TIP3    H111583   3.923   1.378   3.477
 3859TIP3    H211584   3.835   1.499   3.497
 3860TIP3   OH211585   0.312   2.894   4.334
 3860TIP3    H111586   0.340   2.864   4.248
 3860TIP3    H211587   0.390   2.888   4.388
 3861TIP3   OH211588   5.895   3.348   1.039
 3861TIP3    H111589   5.957   3.417   1.061
 3861TIP3    H211590   5.809   3.388   1.054
 3862TIP3   OH211591   4.798   4.969   2.898
 3862TIP3    H111592   4.885   4.981   2.935
 3862TIP3    H211593   4.813   4.924   2.815
 3863TIP3   OH211594   3.324   0.114   1.995
 3863TIP3    H111595   3.401   0.061   2.015
 3863TIP3    H211596   3.290   0.076   1.913
 3864TIP3   OH211597   1.426   3.149   4.077
 3864TIP3    H111598   1.455   3.229   4.033
 3864TIP3    H211599   1.461   3.157   4.166
 3865TIP3   OH211600   2.106   2.369   2.490
 3865TIP3    H111601   2.083   2.457   2.520
 3865TIP3    H211602   2.130   2.381   2.398
 3866TIP3   OH211603   4.994   4.576   0.264
 3866TIP3    H111604   4.960   4.647   0.318
 3866TIP3    H211605   4.928   4.508   0.270
 3867TIP3   OH211606   2.851   5.117   5.105
 3867TIP3    H111607   2.945   5.127   5.088
 3867TIP3    H211608   2.843   5.133   5.199
 3868TIP3   OH211609   2.511   4.018   2.764
 3868TIP3    H111610   2.601   3.987   2.767
 3868TIP3    H211611   2.458   3.942   2.791
 3869TIP3   OH211612   0.960   0.375   3.454
 3869TIP3    H111613   0.983   0.374   3.546
 3869TIP3    H211614   0.870   0.406   3.452
 3870TIP3   OH211615   5.663   0.453   2.573
 3870TIP3    H111616   5.610   0.527   2.601
 3870TIP3    H211617   5.632   0.379   2.626
 3871TIP3   OH211618   5.565   0.359   4.976
 3871TIP3    H111619   5.597   0.271   4.959
 3871TIP3    H211620   5.571   0.369   5.071
 3872TIP3   OH211621   1.258   4.034   0.520
 3872TIP3    H111622   1.247   4.121   0.560
 3872TIP3    H211623   1.170   4.011   0.491
 3873TIP3   OH211624   1.487   1.321   4.210
 3873TIP3    H111625   1.494   1.307   4.304
 3873TIP3    H211626   1.556   1.267   4.172
 3874TIP3   OH211627   5.862   0.250   3.737
 3874TIP3    H111628   5.924   0.228   3.667
 3874TIP3    H211629   5.864   0.176   3.796
 3875TIP3   OH211630   5.569   1.971   2.429
 3875TIP3    H111631   5.551   2.059   2.462
 3875TIP3    H211632   5.545   1.913   2.501
 3876TIP3   OH211633   0.698   4.583   0.150
 3876TIP3    H111634   0.763   4.641   0.191
 3876TIP3    H211635   0.716   4.590   0.056
 3877TIP3   OH211636   5.597   0.057   1.800
 3877TIP3    H111637   5.619  -0.015   1.741
 3877TIP3    H211638   5.677   0.109   1.806
 3878TIP3   OH211639   3.183   5.435   2.389
 3878TIP3    H111640   3.151   5.501   2.328
 3878TIP3    H211641   3.104   5.390   2.419
 3879TIP3   OH211642   0.168   5.233   0.108
 3879TIP3    H111643   0.185   5.327   0.116
 3879TIP3    H211644   0.254   5.194   0.094
 3880TIP3   OH211645   5.889   3.768   0.344
 3880TIP3    H111646   5.821   3.809   0.399
 3880TIP3    H211647   5.894   3.824   0.267
 3881TIP3   OH211648   1.704   4.534   2.366
 3881TIP3    H111649   1.612   4.509   2.353
 3881TIP3    H211650   1.751   4.450   2.369
 3882TIP3   OH211651   6.223   4.098   2.524
 3882TIP3    H111652   6.185   4.089   2.437
 3882TIP3    H211653   6.220   4.010   2.561
 3883TIP3   OH211654   0.701   1.458   0.873
 3883TIP3    H111655   0.649   1.510   0.812
 3883TIP3    H211656   0.776   1.514   0.893
 3884TIP3   OH211657   5.233   2.499   1.111
 3884TIP3    H111658   5.299   2.513   1.179
 3884TIP3    H211659   5.283   2.484   1.031
 3885TIP3   OH211660   1.880   2.424   5.112
 3885TIP3    H111661   1.903   2.516   5.125
 3885TIP3    H211662   1.859   2.392   5.199
 3886TIP3   OH211663   0.852   5.551   4.029
 3886TIP3    H111664   0.801   5.497   3.968
 3886TIP3    H211665   0.877   5.628   3.977
 3887TIP3   OH211666   3.171   0.751   1.615
 3887TIP3    H111667   3.128   0.700   1.683
 3887TIP3    H211668   3.099   0.783   1.561
 3888TIP3   OH211669   1.065   4.387   0.849
 3888TIP3    H111670   0.980   4.408   0.887
 3888TIP3    H211671   1.116   4.350   0.921
 3889TIP3   OH211672   2.224   0.643   3.150
 3889TIP3    H111673   2.233   0.735   3.174
 3889TIP3    H211674   2.142   0.616   3.192
 3890TIP3   OH211675   5.973   3.701   3.385
 3890TIP3    H111676   5.949   3.794   3.385
 3890TIP3    H211677   5.982   3.678   3.292
 3891TIP3   OH211678   1.601   3.735   2.719
 3891TIP3    H111679   1.553   3.679   2.780
 3891TIP3    H211680   1.643   3.800   2.775
 3892TIP3   OH211681   2.018   0.283   0.015
 3892TIP3    H111682   1.956   0.309   0.083
 3892TIP3    H211683   2.103   0.281   0.059
 3893TIP3   OH211684   2.333   5.051   0.121
 3893TIP3    H111685   2.339   5.096   0.037
 3893TIP3    H211686   2.285   4.971   0.101
 3894TIP3   OH211687   2.000   2.522   0.113
 3894TIP3    H111688   1.920   2.576   0.117
 3894TIP3    H211689   2.017   2.512   0.020
 3895TIP3   OH211690   0.033   3.773   4.552
 3895TIP3    H111691   0.011   3.782   4.645
 3895TIP3    H211692   0.124   3.745   4.552
 3896TIP3   OH211693   3.270   4.718   4.092
 3896TIP3    H111694   3.183   4.680   4.106
 3896TIP3    H211695   3.263   4.763   4.008
 3897TIP3   OH211696   0.063   2.798   2.351
 3897TIP3    H111697  -0.005   2.754   2.300
 3897TIP3    H211698   0.026   2.804   2.439
 3898TIP3   OH211699   4.301   2.839   3.340
 3898TIP3    H111700   4.281   2.908   3.277
 3898TIP3    H211701   4.396   2.828   3.333
 3899TIP3   OH211702   5.549   3.117   2.734
 3899TIP3    H111703   5.540   3.168   2.653
 3899TIP3    H211704   5.588   3.034   2.706
 3900TIP3   OH211705   0.977   3.470   3.688
 3900TIP3    H111706   0.887   3.502   3.694
 3900TIP3    H211707   0.971   3.376   3.708
 3901TIP3   OH211708   1.703   3.101   1.211
 3901TIP3    H111709   1.736   3.107   1.301
 3901TIP3    H211710   1.781   3.082   1.158
 3902TIP3   OH211711   4.629   1.510   5.231
 3902TIP3    H111712   4.662   1.599   5.240
 3902TIP3    H211713   4.577   1.511   5.151
 3903TIP3   OH211714   0.151   4.699   0.998
 3903TIP3    H111715   0.172   4.758   0.926
 3903TIP3    H211716   0.222   4.713   1.062
 3904TIP3   OH211717   1.773   5.564   1.960
 3904TIP3    H111718   1.805   5.572   1.871
 3904TIP3    H211719   1.842   5.517   2.007
 3905TIP3   OH211720   0.954   2.359   3.213
 3905TIP3    H111721   0.975   2.301   3.286
 3905TIP3    H211722   0.935   2.300   3.140
 3906TIP3   OH211723   5.572   3.064   4.030
 3906TIP3    H111724   5.552   2.989   3.974
 3906TIP3    H211725   5.524   3.046   4.112
 3907TIP3   OH211726   3.309   1.953   2.999
 3907TIP3    H111727   3.275   2.036   2.964
 3907TIP3    H211728   3.273   1.949   3.087
 3908TIP3   OH211729   4.296   1.524   0.485
 3908TIP3    H111730   4.376   1.550   0.439
 3908TIP3    H211731   4.250   1.468   0.422
 3909TIP3   OH211732   5.101   3.362   4.191
 3909TIP3    H111733   5.012   3.379   4.162
 3909TIP3    H211734   5.113   3.421   4.266
 3910TIP3   OH211735   1.454   3.597   2.902
 3910TIP3    H111736   1.392   3.644   2.958
 3910TIP3    H211737   1.399   3.549   2.839
 3911TIP3   OH211738   1.903   4.027   2.853
 3911TIP3    H111739   1.975   4.064   2.802
 3911TIP3    H211740   1.922   3.933   2.857
 3912TIP3   OH211741   0.273   0.385   3.888
 3912TIP3    H111742   0.259   0.316   3.824
 3912TIP3    H211743   0.351   0.357   3.937
 3913TIP3   OH211744   4.751   1.289   0.771
 3913TIP3    H111745   4.768   1.285   0.865
 3913TIP3    H211746   4.677   1.349   0.763
 3914TIP3   OH211747   5.002   3.130   2.133
 3914TIP3    H111748   4.962   3.045   2.149
 3914TIP3    H211749   5.067   3.139   2.204
 3915TIP3   OH211750   3.512   1.176   1.830
 3915TIP3    H111751   3.545   1.162   1.919
 3915TIP3    H211752   3.480   1.090   1.802
 3916TIP3   OH211753   3.834   1.907   0.432
 3916TIP3    H111754   3.900   1.856   0.386
 3916TIP3    H211755   3.751   1.882   0.390
 3917TIP3   OH211756   1.975   0.971   0.944
 3917TIP3    H111757   1.961   0.877   0.945
 3917TIP3    H211758   1.982   0.996   1.036
 3918TIP3   OH211759   2.775   3.737   1.843
 3918TIP3    H111760   2.786   3.662   1.901
 3918TIP3    H211761   2.713   3.707   1.777
 3919TIP3   OH211762   2.281   4.487   4.508
 3919TIP3    H111763   2.199   4.458   4.469
 3919TIP3    H211764   2.278   4.453   4.598
 3920TIP3   OH211765   5.223   3.845   3.168
 3920TIP3    H111766   5.302   3.814   3.213
 3920TIP3    H211767   5.151   3.816   3.224
 3921TIP3   OH211768   2.433   5.035   2.182
 3921TIP3    H111769   2.375   4.959   2.184
 3921TIP3    H211770   2.491   5.019   2.108
 3922TIP3   OH211771   3.876   4.832   0.205
 3922TIP3    H111772   3.805   4.825   0.269
 3922TIP3    H211773   3.843   4.895   0.140
 3923TIP3   OH211774   4.871   1.735   4.631
 3923TIP3    H111775   4.892   1.673   4.562
 3923TIP3    H211776   4.777   1.750   4.622
 3924TIP3   OH211777   4.882   0.599   5.037
 3924TIP3    H111778   4.842   0.542   4.971
 3924TIP3    H211779   4.848   0.686   5.017
 3925TIP3   OH211780   4.999   1.940   2.446
 3925TIP3    H111781   4.983   1.847   2.431
 3925TIP3    H211782   4.914   1.982   2.436
 3926TIP3   OH211783   0.255   2.533   1.082
 3926TIP3    H111784   0.194   2.529   1.008
 3926TIP3    H211785   0.203   2.569   1.154
 3927TIP3   OH211786   4.624   1.442   4.055
 3927TIP3    H111787   4.584   1.476   3.975
 3927TIP3    H211788   4.682   1.372   4.025
 3928TIP3   OH211789   6.258   4.128   4.784
 3928TIP3    H111790   6.173   4.110   4.743
 3928TIP3    H211791   6.322   4.104   4.717
 3929TIP3   OH211792   2.437   5.893   4.499
 3929TIP3    H111793   2.448   5.892   4.595
 3929TIP3    H211794   2.523   5.919   4.466
 3930TIP3   OH211795   4.648   2.185   0.720
 3930TIP3    H111796   4.562   2.224   0.738
 3930TIP3    H211797   4.628   2.102   0.677
 3931TIP3   OH211798   0.268   4.189   0.524
 3931TIP3    H111799   0.211   4.180   0.447
 3931TIP3    H211800   0.317   4.106   0.527
 3932TIP3   OH211801   1.875   1.671   2.803
 3932TIP3    H111802   1.926   1.632   2.732
 3932TIP3    H211803   1.788   1.633   2.794
 3933TIP3   OH211804   4.279   1.130   1.921
 3933TIP3    H111805   4.209   1.073   1.954
 3933TIP3    H211806   4.358   1.077   1.928
 3934TIP3   OH211807   0.401   1.122   3.906
 3934TIP3    H111808   0.362   1.045   3.865
 3934TIP3    H211809   0.371   1.195   3.853
 3935TIP3   OH211810   1.489   2.496   2.434
 3935TIP3    H111811   1.491   2.443   2.514
 3935TIP3    H211812   1.581   2.512   2.414
 3936TIP3   OH211813   2.815   3.221   1.301
 3936TIP3    H111814   2.735   3.182   1.265
 3936TIP3    H211815   2.885   3.161   1.274
 3937TIP3   OH211816   1.991   4.119   2.168
 3937TIP3    H111817   1.961   4.074   2.088
 3937TIP3    H211818   1.972   4.056   2.238
 3938TIP3   OH211819   5.868   3.583   4.166
 3938TIP3    H111820   5.941   3.534   4.205
 3938TIP3    H211821   5.806   3.593   4.238
 3939TIP3   OH211822   2.182   3.137   3.041
 3939TIP3    H111823   2.154   3.075   2.974
 3939TIP3    H211824   2.178   3.223   2.998
 3940TIP3   OH211825   4.299   3.955   4.549
 3940TIP3    H111826   4.269   4.027   4.606
 3940TIP3    H211827   4.222   3.898   4.542
 3941TIP3   OH211828   3.062   4.336   3.121
 3941TIP3    H111829   3.098   4.248   3.108
 3941TIP3    H211830   3.055   4.372   3.033
 3942TIP3   OH211831   2.897   4.682   3.582
 3942TIP3    H111832   2.871   4.753   3.523
 3942TIP3    H211833   2.992   4.691   3.591
 3943TIP3   OH211834   3.410   5.845   0.279
 3943TIP3    H111835   3.362   5.763   0.267
 3943TIP3    H211836   3.502   5.819   0.276
 3944TIP3   OH211837   4.801   4.060   4.290
 3944TIP3    H111838   4.797   4.117   4.367
 3944TIP3    H211839   4.870   3.997   4.311
 3945TIP3   OH211840   4.324   3.941   3.656
 3945TIP3    H111841   4.278   3.952   3.572
 3945TIP3    H211842   4.334   4.030   3.690
 3946TIP3   OH211843   5.635   0.779   3.261
 3946TIP3    H111844   5.562   0.822   3.217
 3946TIP3    H211845   5.700   0.767   3.191
 3947TIP3   OH211846   2.943   5.185   3.775
 3947TIP3    H111847   2.921   5.195   3.868
 3947TIP3    H211848   3.038   5.189   3.772
 3948TIP3   OH211849   3.562   1.568   2.502
 3948TIP3    H111850   3.532   1.541   2.416
 3948TIP3    H211851   3.630   1.633   2.485
 3949TIP3   OH211852   3.497   0.622   1.323
 3949TIP3    H111853   3.509   0.527   1.319
 3949TIP3    H211854   3.521   0.652   1.235
 3950TIP3   OH211855   0.293   0.677   3.275
 3950TIP3    H111856   0.307   0.771   3.276
 3950TIP3    H211857   0.373   0.641   3.238
 3951TIP3   OH211858   0.647   4.575   0.614
 3951TIP3    H111859   0.647   4.566   0.709
 3951TIP3    H211860   0.561   4.611   0.593
 3952TIP3   OH211861   1.865   2.272   0.549
 3952TIP3    H111862   1.861   2.178   0.532
 3952TIP3    H211863   1.781   2.293   0.588
 3953TIP3   OH211864   6.045   5.043   0.253
 3953TIP3    H111865   6.073   4.970   0.308
 3953TIP3    H211866   6.097   5.034   0.173
 3954TIP3   OH211867   2.635   4.779   1.342
 3954TIP3    H111868   2.671   4.711   1.286
 3954TIP3    H211869   2.569   4.735   1.394
 3955TIP3   OH211870   5.787   4.731   2.181
 3955TIP3    H111871   5.765   4.642   2.152
 3955TIP3    H211872   5.735   4.788   2.124
 3956TIP3   OH211873   5.910   2.503   4.523
 3956TIP3    H111874   5.893   2.592   4.552
 3956TIP3    H211875   5.825   2.459   4.528
 3957TIP3   OH211876   4.014   0.394   2.517
 3957TIP3    H111877   3.943   0.335   2.543
 3957TIP3    H211878   3.971   0.463   2.467
 3958TIP3   OH211879   0.555   5.036   3.510
 3958TIP3    H111880   0.544   5.122   3.550
 3958TIP3    H211881   0.467   4.999   3.507
 3959TIP3   OH211882   1.490   0.666   0.140
 3959TIP3    H111883   1.539   0.610   0.079
 3959TIP3    H211884   1.430   0.607   0.184
 3960TIP3   OH211885   5.709   0.604   1.972
 3960TIP3    H111886   5.696   0.557   2.054
 3960TIP3    H211887   5.632   0.582   1.920
 3961TIP3   OH211888   4.291   5.418   3.162
 3961TIP3    H111889   4.383   5.419   3.135
 3961TIP3    H211890   4.243   5.396   3.083
 3962TIP3   OH211891   2.455   0.738   0.876
 3962TIP3    H111892   2.501   0.739   0.792
 3962TIP3    H211893   2.497   0.807   0.927
 3963TIP3   OH211894   2.689   5.305   1.711
 3963TIP3    H111895   2.778   5.314   1.744
 3963TIP3    H211896   2.680   5.211   1.692
 3964TIP3   OH211897   6.037   3.047   4.771
 3964TIP3    H111898   6.120   3.080   4.806
 3964TIP3    H211899   6.032   3.082   4.682
 3965TIP3   OH211900   3.849   2.128   3.862
 3965TIP3    H111901   3.899   2.165   3.935
 3965TIP3    H211902   3.797   2.200   3.829
 3966TIP3   OH211903   0.579   2.185   1.875
 3966TIP3    H111904   0.529   2.128   1.816
 3966TIP3    H211905   0.562   2.150   1.962
 3967TIP3   OH211906   1.661   4.724   4.268
 3967TIP3    H111907   1.700   4.796   4.219
 3967TIP3    H211908   1.588   4.764   4.316
 3968TIP3   OH211909   1.999   1.733   0.226
 3968TIP3    H111910   2.081   1.764   0.190
 3968TIP3    H211911   1.983   1.649   0.182
 3969TIP3   OH211912   1.365   3.911   0.807
 3969TIP3    H111913   1.421   3.921   0.730
 3969TIP3    H211914   1.301   3.845   0.782
 3970TIP3   OH211915   0.568   5.666   1.467
 3970TIP3    H111916   0.647   5.661   1.522
 3970TIP3    H211917   0.537   5.576   1.462
 3971TIP3   OH211918   0.155   5.793   2.334
 3971TIP3    H111919   0.214   5.805   2.260
 3971TIP3    H211920   0.067   5.797   2.296
 3972TIP3   OH211921   5.117   4.974   1.538
 3972TIP3    H111922   5.178   5.045   1.522
 3972TIP3    H211923   5.030   5.014   1.528
 3973TIP3   OH211924   0.505   4.897   0.587
 3973TIP3    H111925   0.436   4.961   0.605
 3973TIP3    H211926   0.458   4.818   0.560
 3974TIP3   OH211927   0.574   2.082   3.287
 3974TIP3    H111928   0.618   2.045   3.210
 3974TIP3    H211929   0.489   2.038   3.289
 3975TIP3   OH211930   0.261   3.837   1.541
 3975TIP3    H111931   0.208   3.856   1.463
 3975TIP3    H211932   0.305   3.754   1.521
 3976TIP3   OH211933   6.244   0.854   1.139
 3976TIP3    H111934   6.323   0.829   1.091
 3976TIP3    H211935   6.207   0.925   1.087
 3977TIP3   OH211936   5.055   4.728   1.886
 3977TIP3    H111937   5.013   4.797   1.834
 3977TIP3    H211938   5.099   4.775   1.957
 3978TIP3   OH211939   1.838   1.936   3.374
 3978TIP3    H111940   1.804   1.864   3.320
 3978TIP3    H211941   1.892   1.988   3.313
 3979TIP3   OH211942   2.294   4.136   3.368
 3979TIP3    H111943   2.370   4.170   3.415
 3979TIP3    H211944   2.331   4.087   3.295
 3980TIP3   OH211945   4.324   1.373   3.903
 3980TIP3    H111946   4.357   1.429   3.832
 3980TIP3    H211947   4.380   1.296   3.901
 3981TIP3   OH211948   0.698   5.914   5.058
 3981TIP3    H111949   0.770   5.956   5.011
 3981TIP3    H211950   0.665   5.982   5.117
 3982TIP3   OH211951   3.065   0.886   0.364
 3982TIP3    H111952   3.056   0.967   0.313
 3982TIP3    H211953   2.976   0.851   0.367
 3983TIP3   OH211954   3.142   5.384   0.951
 3983TIP3    H111955   3.097   5.313   0.904
 3983TIP3    H211956   3.072   5.432   0.995
 3984TIP3   OH211957   0.750   4.996   4.562
 3984TIP3    H111958   0.819   5.054   4.531
 3984TIP3    H211959   0.788   4.950   4.637
 3985TIP3   OH211960   5.473   2.935   2.497
 3985TIP3    H111961   5.382   2.911   2.479
 3985TIP3    H211962   5.495   2.999   2.430
 3986TIP3   OH211963   0.338   1.331   5.003
 3986TIP3    H111964   0.285   1.257   4.973
 3986TIP3    H211965   0.383   1.362   4.924
 3987TIP3   OH211966   4.010   1.357   1.307
 3987TIP3    H111967   4.092   1.317   1.279
 3987TIP3    H211968   3.994   1.319   1.393
 3988TIP3   OH211969   0.020   0.146   0.642
 3988TIP3    H111970   0.080   0.073   0.636
 3988TIP3    H211971   0.071   0.217   0.681
 3989TIP3   OH211972   5.169   2.134   1.994
 3989TIP3    H111973   5.200   2.171   2.076
 3989TIP3    H211974   5.209   2.047   1.990
 3990TIP3   OH211975   0.548   0.625   2.602
 3990TIP3    H111976   0.582   0.711   2.579
 3990TIP3    H211977   0.589   0.565   2.539
 3991TIP3   OH211978   3.284   2.847   0.394
 3991TIP3    H111979   3.197   2.808   0.395
 3991TIP3    H211980   3.286   2.902   0.315
 3992TIP3   OH211981   6.380   3.590   0.201
 3992TIP3    H111982   6.346   3.623   0.118
 3992TIP3    H211983   6.346   3.650   0.267
 3993TIP3   OH211984   1.039   5.091   2.803
 3993TIP3    H111985   0.989   5.010   2.805
 3993TIP3    H211986   1.039   5.117   2.711
 3994TIP3   OH211987   4.965   3.406   2.424
 3994TIP3    H111988   5.018   3.372   2.353
 3994TIP3    H211989   4.912   3.475   2.384
 3995TIP3   OH211990   2.226   0.898   3.991
 3995TIP3    H111991   2.239   0.901   3.897
 3995TIP3    H211992   2.209   0.806   4.011
 3996TIP3   OH211993   3.489   3.914   3.496
 3996TIP3    H111994   3.517   3.929   3.406
 3996TIP3    H211995   3.479   4.001   3.534
 3997TIP3   OH211996   4.924   5.897   3.300
 3997TIP3    H111997   4.934   5.930   3.211
 3997TIP3    H211998   4.845   5.940   3.333
 3998TIP3   OH211999   4.549   3.286   0.151
 3998TIP3    H112000   4.630   3.325   0.121
 3998TIP3    H212001   4.489   3.292   0.077
 3999TIP3   OH212002   0.347   0.307   1.040
 3999TIP3    H112003   0.425   0.362   1.037
 3999TIP3    H212004   0.276   0.365   1.013
 4000TIP3   OH212005   1.108   3.586   4.877
 4000TIP3    H112006   1.056   3.508   4.898
 4000TIP3    H212007   1.048   3.642   4.828
 4001TIP3   OH212008   4.657   3.844   1.689
 4001TIP3    H112009   4.721   3.774   1.701
 4001TIP3    H212010   4.710   3.920   1.665
 4002TIP3   OH212011   2.917   3.702   2.268
 4002TIP3    H112012   3.009   3.690   2.246
 4002TIP3    H212013   2.874   3.717   2.183
 4003TIP3   OH212014   1.108   0.206   4.828
 4003TIP3    H112015   1.174   0.240   4.889
 4003TIP3    H212016   1.032   0.262   4.842
 4004TIP3   OH212017   4.170   0.771   0.186
 4004TIP3    H112018   4.234   0.743   0.251
 4004TIP3    H212019   4.128   0.848   0.225
 4005TIP3   OH212020   4.372   1.636   5.089
 4005TIP3    H112021   4.407   1.551   5.063
 4005TIP3    H212022   4.310   1.615   5.159
 4006TIP3   OH212023   1.457   5.572   4.993
 4006TIP3    H112024   1.465   5.666   4.976
 4006TIP3    H212025   1.376   5.547   4.950
 4007TIP3   OH212026   0.829   2.194   4.137
 4007TIP3    H112027   0.855   2.268   4.192
 4007TIP3    H212028   0.809   2.232   4.052
 4008TIP3   OH212029   4.788   4.193   2.350
 4008TIP3    H112030   4.869   4.243   2.344
 4008TIP3    H212031   4.809   4.108   2.311
 4009TIP3   OH212032   2.465   5.441   3.416
 4009TIP3    H112033   2.548   5.487   3.406
 4009TIP3    H212034   2.477   5.360   3.368
 4010TIP3   OH212035   1.272   5.440   0.819
 4010TIP3    H112036   1.327   5.383   0.873
 4010TIP3    H212037   1.324   5.519   0.806
 4011TIP3   OH212038   2.787   4.228   4.197
 4011TIP3    H112039   2.789   4.295   4.266
 4011TIP3    H212040   2.876   4.193   4.196
 4012TIP3   OH212041   3.872   5.399   3.809
 4012TIP3    H112042   3.807   5.375   3.743
 4012TIP3    H212043   3.874   5.324   3.868
 4013TIP3   OH212044   0.817   1.571   4.287
 4013TIP3    H112045   0.763   1.543   4.361
 4013TIP3    H212046   0.884   1.503   4.281
 4014TIP3   OH212047   3.199   3.197   4.820
 4014TIP3    H112048   3.139   3.143   4.769
 4014TIP3    H212049   3.151   3.218   4.900
 4015TIP3   OH212050   1.520   0.369   4.156
 4015TIP3    H112051   1.546   0.450   4.198
 4015TIP3    H212052   1.474   0.397   4.077
 4016TIP3   OH212053   5.741   4.734   2.714
 4016TIP3    H112054   5.680   4.792   2.759
 4016TIP3    H212055   5.749   4.658   2.772
 4017TIP3   OH212056   4.547   5.993   2.706
 4017TIP3    H112057   4.580   5.963   2.621
 4017TIP3    H212058   4.583   5.931   2.769
 4018TIP3   OH212059   0.849   0.483   3.897
 4018TIP3    H112060   0.761   0.465   3.862
 4018TIP3    H212061   0.866   0.411   3.957
 4019TIP3   OH212062   5.176   0.194   1.337
 4019TIP3    H112063   5.253   0.149   1.303
 4019TIP3    H212064   5.146   0.249   1.265
 4020TIP3   OH212065   5.914   5.544   3.549
 4020TIP3    H112066   5.843   5.496   3.591
 4020TIP3    H212067   5.893   5.539   3.455
 4021TIP3   OH212068   2.735   5.432   3.583
 4021TIP3    H112069   2.814   5.391   3.546
 4021TIP3    H212070   2.740   5.523   3.554
 4022TIP3   OH212071   1.863   1.344   3.494
 4022TIP3    H112072   1.920   1.280   3.538
 4022TIP3    H212073   1.920   1.383   3.428
 4023TIP3   OH212074   4.632   0.317   3.811
 4023TIP3    H112075   4.592   0.243   3.766
 4023TIP3    H212076   4.694   0.277   3.872
 4024TIP3   OH212077   1.715   1.277   1.476
 4024TIP3    H112078   1.667   1.212   1.527
 4024TIP3    H212079   1.712   1.245   1.386
 4025TIP3   OH212080   2.496   2.929   3.560
 4025TIP3    H112081   2.564   2.884   3.509
 4025TIP3    H212082   2.536   2.943   3.646
 4026TIP3   OH212083   2.476   0.224   4.141
 4026TIP3    H112084   2.476   0.166   4.064
 4026TIP3    H212085   2.398   0.198   4.190
 4027TIP3   OH212086   0.661   5.099   1.411
 4027TIP3    H112087   0.665   5.051   1.494
 4027TIP3    H212088   0.733   5.063   1.359
 4028TIP3   OH212089   4.406   3.400   2.665
 4028TIP3    H112090   4.395   3.434   2.754
 4028TIP3    H212091   4.320   3.408   2.625
 4029TIP3   OH212092   1.687   2.346   4.572
 4029TIP3    H112093   1.757   2.300   4.617
 4029TIP3    H212094   1.732   2.415   4.523
 4030TIP3   OH212095   1.426   5.915   2.129
 4030TIP3    H112096   1.470   5.894   2.211
 4030TIP3    H212097   1.454   5.846   2.068
 4031TIP3   OH212098   4.695   5.091   1.307
 4031TIP3    H112099   4.784   5.123   1.317
 4031TIP3    H212100   4.640   5.168   1.322
 4032TIP3   OH212101  -0.010   5.016   4.356
 4032TIP3    H112102  -0.015   5.110   4.337
 4032TIP3    H212103   0.083   4.995   4.350
 4033TIP3   OH212104   2.215   2.272   0.863
 4033TIP3    H112105   2.210   2.360   0.826
 4033TIP3    H212106   2.227   2.215   0.787
 4034TIP3   OH212107   4.723   5.892   1.676
 4034TIP3    H112108   4.806   5.851   1.654
 4034TIP3    H212109   4.746   5.979   1.707
 4035TIP3   OH212110   5.317   5.494   1.603
 4035TIP3    H112111   5.329   5.538   1.687
 4035TIP3    H212112   5.390   5.433   1.597
 4036TIP3   OH212113   4.593   1.150   1.472
 4036TIP3    H112114   4.549   1.065   1.460
 4036TIP3    H212115   4.586   1.168   1.566
 4037TIP3   OH212116   0.991   4.632   1.178
 4037TIP3    H112117   1.076   4.609   1.140
 4037TIP3    H212118   0.927   4.592   1.121
 4038TIP3   OH212119   0.047   3.467   4.563
 4038TIP3    H112120   0.052   3.548   4.613
 4038TIP3    H212121  -0.040   3.470   4.522
 4039TIP3   OH212122   0.374   4.888   0.929
 4039TIP3    H112123   0.467   4.907   0.942
 4039TIP3    H212124   0.329   4.941   0.995
 4040TIP3   OH212125   1.982   4.973   0.512
 4040TIP3    H112126   2.059   4.928   0.547
 4040TIP3    H212127   2.015   5.020   0.435
 4041TIP3   OH212128   5.351   1.387   1.373
 4041TIP3    H112129   5.266   1.362   1.336
 4041TIP3    H212130   5.328   1.438   1.451
 4042TIP3   OH212131   5.992   1.391   2.730
 4042TIP3    H112132   5.981   1.358   2.819
 4042TIP3    H212133   5.925   1.459   2.721
 4043TIP3   OH212134   4.699   0.494   2.574
 4043TIP3    H112135   4.640   0.469   2.502
 4043TIP3    H212136   4.729   0.582   2.550
 4044TIP3   OH212137   1.225   3.416   2.491
 4044TIP3    H112138   1.246   3.374   2.408
 4044TIP3    H212139   1.218   3.344   2.554
 4045TIP3   OH212140   4.896   0.235   0.515
 4045TIP3    H112141   4.811   0.265   0.484
 4045TIP3    H212142   4.890   0.239   0.611
 4046TIP3   OH212143   1.937   3.433   4.920
 4046TIP3    H112144   2.029   3.415   4.941
 4046TIP3    H212145   1.893   3.435   5.004
 4047TIP3   OH212146   1.221   0.178   0.517
 4047TIP3    H112147   1.251   0.112   0.580
 4047TIP3    H212148   1.183   0.127   0.445
 4048TIP3   OH212149   3.100   1.588   2.126
 4048TIP3    H112150   3.048   1.629   2.057
 4048TIP3    H212151   3.141   1.662   2.172
 4049TIP3   OH212152   4.567   3.414   1.721
 4049TIP3    H112153   4.660   3.423   1.704
 4049TIP3    H212154   4.524   3.463   1.651
 4050TIP3   OH212155   6.064   3.453   0.051
 4050TIP3    H112156   6.117   3.387   0.006
 4050TIP3    H212157   6.108   3.536   0.032
 4051TIP3   OH212158   2.286   3.746   0.379
 4051TIP3    H112159   2.340   3.819   0.348
 4051TIP3    H212160   2.301   3.676   0.315
 4052TIP3   OH212161   0.015   0.448   1.445
 4052TIP3    H112162   0.011   0.483   1.357
 4052TIP3    H212163   0.108   0.452   1.468
 4053TIP3   OH212164   0.209   2.546   4.094
 4053TIP3    H112165   0.205   2.459   4.134
 4053TIP3    H212166   0.220   2.606   4.169
 4054TIP3   OH212167   2.899   0.174   1.808
 4054TIP3    H112168   2.915   0.197   1.900
 4054TIP3    H212169   2.947   0.240   1.758
 4055TIP3   OH212170   5.210   0.224   0.659
 4055TIP3    H112171   5.236   0.144   0.613
 4055TIP3    H212172   5.293   0.269   0.675
 4056TIP3   OH212173   3.425   2.886   2.173
 4056TIP3    H112174   3.413   2.813   2.234
 4056TIP3    H212175   3.475   2.849   2.101
 4057TIP3   OH212176   3.701   0.131   4.087
 4057TIP3    H112177   3.682   0.214   4.044
 4057TIP3    H212178   3.616   0.097   4.114
 4058TIP3   OH212179   5.913   5.515   3.267
 4058TIP3    H112180   5.899   5.574   3.193
 4058TIP3    H212181   6.000   5.478   3.252
 4059TIP3   OH212182   0.160   3.600   1.921
 4059TIP3    H112183   0.197   3.686   1.942
 4059TIP3    H212184   0.068   3.618   1.900
 4060TIP3   OH212185   0.258   5.477   1.231
 4060TIP3    H112186   0.263   5.383   1.250
 4060TIP3    H212187   0.193   5.511   1.292
 4061TIP3   OH212188   0.913   3.106   2.682
 4061TIP3    H112189   0.865   3.032   2.721
 4061TIP3    H212190   1.003   3.074   2.673
 4062TIP3   OH212191   3.552   0.964   1.279
 4062TIP3    H112192   3.612   0.906   1.326
 4062TIP3    H212193   3.581   1.052   1.301
 4063TIP3   OH212194   0.433   1.722   0.072
 4063TIP3    H112195   0.418   1.697  -0.019
 4063TIP3    H212196   0.528   1.732   0.078
 4064TIP3   OH212197   5.166   0.037   1.967
 4064TIP3    H112198   5.222  -0.001   1.900
 4064TIP3    H212199   5.226   0.080   2.028
 4065TIP3   OH212200   0.412   2.022   4.820
 4065TIP3    H112201   0.504   2.007   4.838
 4065TIP3    H212202   0.389   1.959   4.752
 4066TIP3   OH212203   1.911   2.976   3.912
 4066TIP3    H112204   1.834   3.033   3.906
 4066TIP3    H212205   1.901   2.914   3.840
 4067TIP3   OH212206   2.241   3.699   4.305
 4067TIP3    H112207   2.207   3.785   4.331
 4067TIP3    H212208   2.162   3.647   4.288
 4068TIP3   OH212209   4.346   4.380   4.817
 4068TIP3    H112210   4.378   4.291   4.834
 4068TIP3    H212211   4.302   4.373   4.732
 4069TIP3   OH212212   0.662   4.993   2.536
 4069TIP3    H112213   0.653   5.000   2.441
 4069TIP3    H212214   0.728   4.925   2.549
 4070TIP3   OH212215   2.056   4.329   0.742
 4070TIP3    H112216   2.004   4.256   0.776
 4070TIP3    H212217   2.038   4.401   0.803
 4071TIP3   OH212218   3.399   2.099   0.160
 4071TIP3    H112219   3.421   2.047   0.082
 4071TIP3    H212220   3.482   2.137   0.187
 4072TIP3   OH212221   1.935   1.702   3.517
 4072TIP3    H112222   1.977   1.673   3.436
 4072TIP3    H212223   1.882   1.777   3.491
 4073TIP3   OH212224   0.077   5.151   2.544
 4073TIP3    H112225   0.033   5.188   2.620
 4073TIP3    H212226   0.019   5.080   2.515
 4074TIP3   OH212227   0.880   4.958   1.322
 4074TIP3    H112228   0.939   4.955   1.247
 4074TIP3    H212229   0.935   4.985   1.395
 4075TIP3   OH212230   2.606   4.631   3.859
 4075TIP3    H112231   2.610   4.560   3.795
 4075TIP3    H212232   2.626   4.589   3.943
 4076TIP3   OH212233   0.356   4.387   1.063
 4076TIP3    H112234   0.265   4.416   1.063
 4076TIP3    H212235   0.380   4.383   0.971
 4077TIP3   OH212236   5.585   0.509   4.241
 4077TIP3    H112237   5.491   0.523   4.242
 4077TIP3    H212238   5.601   0.462   4.159
 4078TIP3   OH212239   1.829   2.015   1.439
 4078TIP3    H112240   1.802   1.947   1.499
 4078TIP3    H212241   1.824   1.975   1.352
 4079TIP3   OH212242   2.386   3.987   4.632
 4079TIP3    H112243   2.311   4.042   4.607
 4079TIP3    H212244   2.347   3.902   4.654
 4080TIP3   OH212245   5.598   5.318   4.247
 4080TIP3    H112246   5.611   5.261   4.172
 4080TIP3    H212247   5.573   5.259   4.318
 4081TIP3   OH212248   1.853   3.454   1.864
 4081TIP3    H112249   1.869   3.522   1.798
 4081TIP3    H212250   1.925   3.464   1.926
 4082TIP3   OH212251   2.938   5.251   2.137
 4082TIP3    H112252   2.956   5.266   2.044
 4082TIP3    H212253   2.905   5.335   2.169
 4083TIP3   OH212254   1.020   3.513   4.585
 4083TIP3    H112255   0.985   3.430   4.554
 4083TIP3    H212256   1.104   3.491   4.625
 4084TIP3   OH212257   0.110   2.387   4.689
 4084TIP3    H112258   0.125   2.365   4.781
 4084TIP3    H212259   0.119   2.483   4.686
 4085TIP3   OH212260   2.543   5.218   1.404
 4085TIP3    H112261   2.564   5.151   1.470
 4085TIP3    H212262   2.618   5.218   1.346
 4086TIP3   OH212263   3.133   2.707   4.867
 4086TIP3    H112264   3.107   2.758   4.791
 4086TIP3    H212265   3.102   2.757   4.942
 4087TIP3   OH212266   0.174   1.436   4.744
 4087TIP3    H112267   0.161   1.477   4.830
 4087TIP3    H212268   0.199   1.509   4.687
 4088TIP3   OH212269   0.798   2.282   1.170
 4088TIP3    H112270   0.722   2.341   1.171
 4088TIP3    H212271   0.765   2.202   1.129
 4089TIP3   OH212272   5.429   1.519   3.792
 4089TIP3    H112273   5.411   1.514   3.886
 4089TIP3    H212274   5.358   1.572   3.757
 4090TIP3   OH212275   0.869   4.689   0.854
 4090TIP3    H112276   0.825   4.633   0.919
 4090TIP3    H212277   0.950   4.643   0.834
 4091TIP3   OH212278   4.070   2.128   1.627
 4091TIP3    H112279   4.124   2.113   1.705
 4091TIP3    H212280   4.097   2.060   1.566
 4092TIP3   OH212281   3.304   0.591   3.127
 4092TIP3    H112282   3.267   0.611   3.041
 4092TIP3    H212283   3.391   0.630   3.125
 4093TIP3   OH212284   3.101   0.365   4.986
 4093TIP3    H112285   3.055   0.449   4.985
 4093TIP3    H212286   3.086   0.330   5.074
 4094TIP3   OH212287   1.543   0.564   4.431
 4094TIP3    H112288   1.622   0.613   4.412
 4094TIP3    H212289   1.573   0.480   4.464
 4095TIP3   OH212290   2.727   1.780   0.918
 4095TIP3    H112291   2.751   1.806   1.007
 4095TIP3    H212292   2.706   1.863   0.874
 4096TIP3   OH212293   2.905   4.900   4.592
 4096TIP3    H112294   2.825   4.864   4.555
 4096TIP3    H212295   2.968   4.896   4.520
 4097TIP3   OH212296   6.053   2.408   1.278
 4097TIP3    H112297   6.034   2.319   1.309
 4097TIP3    H212298   5.972   2.457   1.293
 4098TIP3   OH212299   4.855   1.297   3.053
 4098TIP3    H112300   4.928   1.309   3.115
 4098TIP3    H212301   4.876   1.354   2.980
 4099TIP3   OH212302   5.838   4.670   3.135
 4099TIP3    H112303   5.913   4.637   3.084
 4099TIP3    H212304   5.795   4.591   3.168
 4100TIP3   OH212305   3.109   3.035   3.641
 4100TIP3    H112306   3.116   3.114   3.695
 4100TIP3    H212307   3.195   2.994   3.648
 4101TIP3   OH212308   5.341   3.488   4.870
 4101TIP3    H112309   5.395   3.534   4.807
 4101TIP3    H212310   5.378   3.400   4.874
 4102TIP3   OH212311   5.858   2.771   4.552
 4102TIP3    H112312   5.904   2.753   4.470
 4102TIP3    H212313   5.782   2.823   4.527
 4103TIP3   OH212314   3.745   5.154   2.708
 4103TIP3    H112315   3.721   5.070   2.669
 4103TIP3    H212316   3.762   5.211   2.633
 4104TIP3   OH212317   3.312   2.463   0.025
 4104TIP3    H112318   3.325   2.455  -0.069
 4104TIP3    H212319   3.317   2.374   0.058
 4105TIP3   OH212320   0.197   2.569   2.309
 4105TIP3    H112321   0.148   2.649   2.326
 4105TIP3    H212322   0.155   2.531   2.232
 4106TIP3   OH212323   4.629   0.248   2.690
 4106TIP3    H112324   4.635   0.338   2.660
 4106TIP3    H212325   4.650   0.252   2.784
 4107TIP3   OH212326   0.836   0.726   1.583
 4107TIP3    H112327   0.860   0.660   1.648
 4107TIP3    H212328   0.748   0.755   1.609
 4108TIP3   OH212329   4.378   3.801   2.060
 4108TIP3    H112330   4.409   3.885   2.026
 4108TIP3    H212331   4.459   3.751   2.075
 4109TIP3   OH212332   2.744   1.731   2.972
 4109TIP3    H112333   2.840   1.728   2.972
 4109TIP3    H212334   2.721   1.749   3.063
 4110TIP3   OH212335   0.181   0.154   2.260
 4110TIP3    H112336   0.189   0.235   2.209
 4110TIP3    H212337   0.176   0.085   2.194
 4111TIP3   OH212338   5.525   0.307   3.344
 4111TIP3    H112339   5.531   0.256   3.426
 4111TIP3    H212340   5.500   0.395   3.373
 4112TIP3   OH212341   6.202   2.568   4.261
 4112TIP3    H112342   6.207   2.577   4.166
 4112TIP3    H212343   6.288   2.597   4.292
 4113TIP3   OH212344   0.779   3.137   5.172
 4113TIP3    H112345   0.688   3.144   5.143
 4113TIP3    H212346   0.800   3.224   5.206
 4114TIP3   OH212347   2.470   3.846   0.665
 4114TIP3    H112348   2.531   3.914   0.692
 4114TIP3    H212349   2.488   3.833   0.572
 4115TIP3   OH212350   3.513   4.192   1.015
 4115TIP3    H112351   3.566   4.270   1.026
 4115TIP3    H212352   3.522   4.144   1.098
 4116TIP3   OH212353   0.258   5.609   3.011
 4116TIP3    H112354   0.346   5.637   2.986
 4116TIP3    H212355   0.257   5.515   2.995
 4117TIP3   OH212356   2.080   2.224   3.265
 4117TIP3    H112357   2.048   2.289   3.328
 4117TIP3    H212358   2.107   2.150   3.319
 4118TIP3   OH212359   0.379   5.885   0.192
 4118TIP3    H112360   0.390   5.886   0.097
 4118TIP3    H212361   0.424   5.964   0.222
 4119TIP3   OH212362   3.174   0.321   2.089
 4119TIP3    H112363   3.081   0.315   2.068
 4119TIP3    H212364   3.216   0.256   2.032
 4120TIP3   OH212365   1.398   0.164   1.292
 4120TIP3    H112366   1.426   0.210   1.371
 4120TIP3    H212367   1.431   0.218   1.220
 4121TIP3   OH212368   3.417   3.335   2.283
 4121TIP3    H112369   3.379   3.365   2.200
 4121TIP3    H212370   3.364   3.259   2.308
 4122TIP3   OH212371   0.534   4.414   4.618
 4122TIP3    H112372   0.613   4.396   4.566
 4122TIP3    H212373   0.468   4.357   4.579
 4123TIP3   OH212374   5.149   4.102   4.380
 4123TIP3    H112375   5.097   4.101   4.300
 4123TIP3    H212376   5.240   4.111   4.350
 4124TIP3   OH212377   0.168   0.396   2.449
 4124TIP3    H112378   0.161   0.337   2.374
 4124TIP3    H212379   0.241   0.453   2.427
 4125TIP3   OH212380   3.100   3.542   2.637
 4125TIP3    H112381   3.018   3.565   2.592
 4125TIP3    H212382   3.167   3.593   2.591
 4126TIP3   OH212383   2.825   4.938   0.384
 4126TIP3    H112384   2.786   4.909   0.466
 4126TIP3    H212385   2.885   5.008   0.410
 4127TIP3   OH212386   5.343   5.222   1.028
 4127TIP3    H112387   5.342   5.240   0.933
 4127TIP3    H212388   5.322   5.129   1.035
 4128TIP3   OH212389   3.096   0.014   4.292
 4128TIP3    H112390   3.084  -0.039   4.213
 4128TIP3    H212391   3.092   0.105   4.261
 4129TIP3   OH212392   5.641   4.786   1.199
 4129TIP3    H112393   5.713   4.795   1.262
 4129TIP3    H212394   5.647   4.865   1.145
 4130TIP3   OH212395   3.511   0.397   0.440
 4130TIP3    H112396   3.605   0.394   0.425
 4130TIP3    H212397   3.474   0.339   0.373
 4131TIP3   OH212398   3.309   3.549   3.919
 4131TIP3    H112399   3.272   3.605   3.987
 4131TIP3    H212400   3.403   3.551   3.934
 4132TIP3   OH212401   4.731   1.336   4.462
 4132TIP3    H112402   4.755   1.252   4.500
 4132TIP3    H212403   4.805   1.358   4.405
 4133TIP3   OH212404   3.392   0.521   3.943
 4133TIP3    H112405   3.385   0.438   3.895
 4133TIP3    H212406   3.443   0.578   3.887
 4134TIP3   OH212407   5.509   1.158   1.745
 4134TIP3    H112408   5.467   1.176   1.829
 4134TIP3    H212409   5.580   1.222   1.739
 4135TIP3   OH212410   1.105   3.856   3.420
 4135TIP3    H112411   1.179   3.797   3.437
 4135TIP3    H212412   1.136   3.914   3.350
 4136TIP3   OH212413   5.547   5.016   3.217
 4136TIP3    H112414   5.576   5.037   3.128
 4136TIP3    H212415   5.461   4.975   3.205
 4137TIP3   OH212416   4.255   4.773   4.575
 4137TIP3    H112417   4.241   4.844   4.512
 4137TIP3    H212418   4.346   4.782   4.602
 4138TIP3   OH212419   2.190   3.179   1.745
 4138TIP3    H112420   2.103   3.196   1.708
 4138TIP3    H212421   2.194   3.233   1.824
 4139TIP3   OH212422   5.997   3.156   2.696
 4139TIP3    H112423   5.935   3.083   2.706
 4139TIP3    H212424   6.077   3.115   2.662
 4140TIP3   OH212425   1.962   5.331   1.297
 4140TIP3    H112426   1.971   5.240   1.267
 4140TIP3    H212427   1.917   5.324   1.381
 4141TIP3   OH212428   6.287   1.050   2.748
 4141TIP3    H112429   6.206   1.096   2.726
 4141TIP3    H212430   6.288   0.974   2.691
 4142TIP3   OH212431   2.613   0.871   4.589
 4142TIP3    H112432   2.608   0.775   4.583
 4142TIP3    H212433   2.649   0.898   4.504
 4143TIP3   OH212434   2.951   2.582   0.246
 4143TIP3    H112435   2.906   2.513   0.295
 4143TIP3    H212436   2.977   2.646   0.313
 4144TIP3   OH212437   0.119   2.400   2.531
 4144TIP3    H112438   0.121   2.306   2.515
 4144TIP3    H212439   0.144   2.439   2.447
 4145TIP3   OH212440   3.130   0.012   0.913
 4145TIP3    H112441   3.173   0.097   0.923
 4145TIP3    H212442   3.055   0.017   0.972
 4146TIP3   OH212443   1.745   4.893   1.309
 4146TIP3    H112444   1.758   4.803   1.280
 4146TIP3    H212445   1.665   4.890   1.361
 4147TIP3   OH212446   0.413   5.621   0.249
 4147TIP3    H112447   0.406   5.714   0.225
 4147TIP3    H212448   0.323   5.593   0.263
 4148TIP3   OH212449   3.882   4.584   2.208
 4148TIP3    H112450   3.956   4.625   2.252
 4148TIP3    H212451   3.898   4.490   2.217
 4149TIP3   OH212452  -0.012   4.050   4.427
 4149TIP3    H112453   0.004   3.964   4.464
 4149TIP3    H212454   0.040   4.110   4.481
 4150TIP3   OH212455   1.267   3.281   0.704
 4150TIP3    H112456   1.358   3.294   0.730
 4150TIP3    H212457   1.259   3.327   0.620
 4151TIP3   OH212458   2.992   0.609   0.946
 4151TIP3    H112459   2.951   0.531   0.908
 4151TIP3    H212460   2.949   0.682   0.901
 4152TIP3   OH212461   6.298   5.959   0.877
 4152TIP3    H112462   6.229   5.963   0.942
 4152TIP3    H212463   6.378   5.979   0.926
 4153TIP3   OH212464   5.631   3.257   3.843
 4153TIP3    H112465   5.681   3.331   3.878
 4153TIP3    H212466   5.616   3.200   3.919
 4154TIP3   OH212467   2.473   3.282   2.430
 4154TIP3    H112468   2.386   3.255   2.459
 4154TIP3    H212469   2.465   3.376   2.413
 4155TIP3   OH212470   1.564   2.203   2.471
 4155TIP3    H112471   1.633   2.232   2.531
 4155TIP3    H212472   1.486   2.195   2.527
 4156TIP3   OH212473   4.051   1.190   2.737
 4156TIP3    H112474   4.017   1.125   2.676
 4156TIP3    H212475   4.083   1.138   2.811
 4157TIP3   OH212476   3.059   0.927   1.385
 4157TIP3    H112477   3.040   0.947   1.294
 4157TIP3    H212478   3.112   1.000   1.416
 4158TIP3   OH212479   6.260   2.307   5.098
 4158TIP3    H112480   6.198   2.304   5.025
 4158TIP3    H212481   6.239   2.230   5.150
 4159TIP3   OH212482   2.770   1.138   0.406
 4159TIP3    H112483   2.751   1.151   0.499
 4159TIP3    H212484   2.821   1.216   0.381
 4160TIP3   OH212485   1.610   1.514   1.697
 4160TIP3    H112486   1.552   1.522   1.773
 4160TIP3    H212487   1.554   1.533   1.622
 4161TIP3   OH212488   4.284   4.583   3.319
 4161TIP3    H112489   4.305   4.531   3.396
 4161TIP3    H212490   4.367   4.619   3.291
 4162TIP3   OH212491   1.611   3.267   2.408
 4162TIP3    H112492   1.594   3.329   2.337
 4162TIP3    H212493   1.553   3.193   2.390
 4163TIP3   OH212494   0.131   5.621   4.321
 4163TIP3    H112495   0.227   5.626   4.315
 4163TIP3    H212496   0.114   5.612   4.415
 4164TIP3   OH212497   2.788   3.684   3.057
 4164TIP3    H112498   2.859   3.622   3.039
 4164TIP3    H212499   2.758   3.711   2.970
 4165TIP3   OH212500   3.708   0.744   1.849
 4165TIP3    H112501   3.632   0.792   1.815
 4165TIP3    H212502   3.686   0.727   1.941
 4166TIP3   OH212503   1.701   1.407   0.676
 4166TIP3    H112504   1.723   1.365   0.759
 4166TIP3    H212505   1.608   1.390   0.664
 4167TIP3   OH212506   3.052   2.661   0.019
 4167TIP3    H112507   3.021   2.617   0.098
 4167TIP3    H212508   3.108   2.732   0.051
 4168TIP3   OH212509   4.434   2.333   0.815
 4168TIP3    H112510   4.344   2.321   0.786
 4168TIP3    H212511   4.434   2.418   0.860
 4169TIP3   OH212512   0.503   2.453   1.932
 4169TIP3    H112513   0.494   2.363   1.900
 4169TIP3    H212514   0.423   2.496   1.903
 4170TIP3   OH212515   2.092   4.808   2.661
 4170TIP3    H112516   2.059   4.748   2.593
 4170TIP3    H212517   2.016   4.861   2.685
 4171TIP3   OH212518   1.564   1.487   1.199
 4171TIP3    H112519   1.543   1.546   1.128
 4171TIP3    H212520   1.522   1.404   1.175
 4172TIP3   OH212521   5.349   0.740   4.032
 4172TIP3    H112522   5.379   0.830   4.046
 4172TIP3    H212523   5.367   0.723   3.940
 4173TIP3   OH212524   3.653   1.763   3.192
 4173TIP3    H112525   3.700   1.846   3.197
 4173TIP3    H212526   3.574   1.776   3.245
 4174TIP3   OH212527   0.560   1.799   3.902
 4174TIP3    H112528   0.605   1.831   3.824
 4174TIP3    H212529   0.559   1.873   3.962
 4175TIP3   OH212530   5.738   5.236   4.878
 4175TIP3    H112531   5.652   5.231   4.838
 4175TIP3    H212532   5.724   5.284   4.960
 4176TIP3   OH212533   5.483   4.750   4.191
 4176TIP3    H112534   5.420   4.799   4.138
 4176TIP3    H212535   5.490   4.665   4.146
 4177TIP3   OH212536   0.796   1.399   1.181
 4177TIP3    H112537   0.878   1.439   1.207
 4177TIP3    H212538   0.795   1.314   1.226
 4178TIP3   OH212539   1.484   4.808   1.353
 4178TIP3    H112540   1.487   4.762   1.437
 4178TIP3    H212541   1.395   4.844   1.349
 4179TIP3   OH212542   0.728   0.006   0.903
 4179TIP3    H112543   0.637   0.000   0.933
 4179TIP3    H212544   0.738   0.096   0.874
 4180TIP3   OH212545   2.296   2.162   4.837
 4180TIP3    H112546   2.356   2.155   4.762
 4180TIP3    H212547   2.222   2.107   4.813
 4181TIP3   OH212548   0.458  -0.009   3.404
 4181TIP3    H112549   0.389  -0.036   3.344
 4181TIP3    H212550   0.413   0.035   3.476
 4182TIP3   OH212551   3.315   0.482   3.531
 4182TIP3    H112552   3.309   0.456   3.623
 4182TIP3    H212553   3.311   0.400   3.483
 4183TIP3   OH212554   1.842   1.527   1.538
 4183TIP3    H112555   1.820   1.435   1.521
 4183TIP3    H212556   1.773   1.558   1.597
 4184TIP3   OH212557   1.850   0.811   4.481
 4184TIP3    H112558   1.856   0.720   4.451
 4184TIP3    H212559   1.937   0.830   4.517
 4185TIP3   OH212560   5.178   5.398   1.235
 4185TIP3    H112561   5.262   5.441   1.254
 4185TIP3    H212562   5.198   5.336   1.165
 4186TIP3   OH212563   2.132   2.768   3.032
 4186TIP3    H112564   2.190   2.710   3.082
 4186TIP3    H212565   2.186   2.801   2.961
 4187TIP3   OH212566   0.883   3.704   4.770
 4187TIP3    H112567   0.809   3.763   4.787
 4187TIP3    H212568   0.843   3.628   4.726
 4188TIP3   OH212569   4.960   2.395   1.696
 4188TIP3    H112570   5.048   2.416   1.726
 4188TIP3    H212571   4.972   2.322   1.635
 4189TIP3   OH212572   4.159   3.513   0.882
 4189TIP3    H112573   4.123   3.595   0.850
 4189TIP3    H212574   4.146   3.516   0.977
 4190TIP3   OH212575   5.792   4.430   0.919
 4190TIP3    H112576   5.715   4.409   0.865
 4190TIP3    H212577   5.755   4.471   0.997
 4191TIP3   OH212578   2.137   3.011   1.298
 4191TIP3    H112579   2.161   2.918   1.305
 4191TIP3    H212580   2.107   3.021   1.207
 4192TIP3   OH212581   1.478   4.168   2.552
 4192TIP3    H112582   1.466   4.190   2.644
 4192TIP3    H212583   1.448   4.078   2.544
 4193TIP3   OH212584   5.524   4.273   1.635
 4193TIP3    H112585   5.561   4.323   1.563
 4193TIP3    H212586   5.479   4.338   1.690
 4194TIP3   OH212587   3.611   0.976   4.063
 4194TIP3    H112588   3.647   0.887   4.053
 4194TIP3    H212589   3.627   0.998   4.154
 4195TIP3   OH212590   5.539   2.132   1.543
 4195TIP3    H112591   5.456   2.126   1.495
 4195TIP3    H212592   5.514   2.138   1.635
 4196TIP3   OH212593   5.707   0.540   0.894
 4196TIP3    H112594   5.679   0.551   0.803
 4196TIP3    H212595   5.625   0.529   0.942
 4197TIP3   OH212596   3.197   5.955   4.331
 4197TIP3    H112597   3.207   5.983   4.423
 4197TIP3    H212598   3.198   5.860   4.335
 4198TIP3   OH212599   5.360   3.154   2.927
 4198TIP3    H112600   5.432   3.158   2.864
 4198TIP3    H212601   5.369   3.069   2.969
 4199TIP3   OH212602   2.056   1.687   1.484
 4199TIP3    H112603   1.975   1.637   1.473
 4199TIP3    H212604   2.089   1.698   1.395
 4200TIP3   OH212605   4.236   2.175   1.913
 4200TIP3    H112606   4.223   2.176   2.008
 4200TIP3    H212607   4.207   2.089   1.886
 4201TIP3   OH212608   1.513   5.354   0.168
 4201TIP3    H112609   1.600   5.393   0.177
 4201TIP3    H212610   1.466   5.414   0.110
 4202TIP3   OH212611   2.460   5.973   1.718
 4202TIP3    H112612   2.510   5.892   1.706
 4202TIP3    H212613   2.444   6.004   1.628
 4203TIP3   OH212614   4.082   4.583   3.900
 4203TIP3    H112615   4.073   4.631   3.817
 4203TIP3    H212616   4.011   4.616   3.954
 4204TIP3   OH212617   1.599   3.271   1.019
 4204TIP3    H112618   1.598   3.211   1.093
 4204TIP3    H212619   1.656   3.343   1.047
 4205TIP3   OH212620   2.332   3.677   2.502
 4205TIP3    H112621   2.251   3.729   2.509
 4205TIP3    H212622   2.361   3.691   2.412
 4206TIP3   OH212623   1.135   2.141   1.559
 4206TIP3    H112624   1.127   2.069   1.496
 4206TIP3    H212625   1.082   2.113   1.634
 4207TIP3   OH212626   2.811   4.445   3.039
 4207TIP3    H112627   2.736   4.391   3.014
 4207TIP3    H212628   2.876   4.381   3.070
 4208TIP3   OH212629   6.145   4.457   3.531
 4208TIP3    H112630   6.073   4.426   3.477
 4208TIP3    H212631   6.159   4.387   3.594
 4209TIP3   OH212632   0.069   3.678   5.096
 4209TIP3    H112633   0.013   3.722   5.159
 4209TIP3    H212634   0.153   3.724   5.102
 4210TIP3   OH212635   3.145   3.939   0.303
 4210TIP3    H112636   3.194   3.903   0.229
 4210TIP3    H212637   3.082   3.999   0.264
 4211TIP3   OH212638   4.179   2.403   3.864
 4211TIP3    H112639   4.160   2.314   3.832
 4211TIP3    H212640   4.126   2.411   3.943
 4212TIP3   OH212641   2.950   2.011   0.477
 4212TIP3    H112642   2.993   2.000   0.562
 4212TIP3    H212643   2.957   2.105   0.458
 4213TIP3   OH212644   0.485   3.695   2.201
 4213TIP3    H112645   0.559   3.745   2.166
 4213TIP3    H212646   0.514   3.603   2.198
 4214TIP3   OH212647   3.834   0.790   2.856
 4214TIP3    H112648   3.792   0.736   2.923
 4214TIP3    H212649   3.893   0.848   2.905
 4215TIP3   OH212650   1.285   2.693   4.131
 4215TIP3    H112651   1.277   2.622   4.195
 4215TIP3    H212652   1.296   2.648   4.047
 4216TIP3   OH212653   3.746   4.707   3.479
 4216TIP3    H112654   3.808   4.705   3.406
 4216TIP3    H212655   3.716   4.798   3.482
 4217TIP3   OH212656   5.716   0.630   5.083
 4217TIP3    H112657   5.648   0.601   5.143
 4217TIP3    H212658   5.682   0.712   5.045
 4218TIP3   OH212659   3.356   1.162   0.604
 4218TIP3    H112660   3.319   1.075   0.620
 4218TIP3    H212661   3.437   1.145   0.556
 4219TIP3   OH212662   6.007   5.208   2.289
 4219TIP3    H112663   5.926   5.202   2.339
 4219TIP3    H212664   6.011   5.125   2.240
 4220TIP3   OH212665   1.655   5.102   4.334
 4220TIP3    H112666   1.681   5.154   4.410
 4220TIP3    H212667   1.559   5.095   4.342
 4221TIP3   OH212668   1.337   3.189   3.022
 4221TIP3    H112669   1.262   3.148   2.979
 4221TIP3    H212670   1.302   3.225   3.103
 4222TIP3   OH212671   5.998   0.884   3.936
 4222TIP3    H112672   6.081   0.908   3.977
 4222TIP3    H212673   5.931   0.908   4.001
 4223TIP3   OH212674   3.288   3.378   0.276
 4223TIP3    H112675   3.360   3.395   0.215
 4223TIP3    H212676   3.245   3.464   0.286
 4224TIP3   OH212677   0.789   2.305   3.887
 4224TIP3    H112678   0.877   2.305   3.849
 4224TIP3    H212679   0.733   2.343   3.819
 4225TIP3   OH212680   2.405   4.256   0.431
 4225TIP3    H112681   2.379   4.346   0.414
 4225TIP3    H212682   2.423   4.219   0.345
 4226TIP3   OH212683   3.672   4.306   2.666
 4226TIP3    H112684   3.711   4.223   2.693
 4226TIP3    H212685   3.668   4.358   2.747
 4227TIP3   OH212686   2.164   0.030   4.726
 4227TIP3    H112687   2.146  -0.057   4.691
 4227TIP3    H212688   2.187   0.015   4.818
 4228TIP3   OH212689   0.413   3.827   0.078
 4228TIP3    H112690   0.349   3.822   0.007
 4228TIP3    H212691   0.473   3.897   0.051
 4229TIP3   OH212692   1.446   2.073   2.940
 4229TIP3    H112693   1.538   2.055   2.924
 4229TIP3    H212694   1.445   2.141   3.007
 4230TIP3   OH212695   4.598   0.287   0.979
 4230TIP3    H112696   4.628   0.257   1.065
 4230TIP3    H212697   4.504   0.268   0.977
 4231TIP3   OH212698   1.992   2.852   3.371
 4231TIP3    H112699   1.951   2.904   3.302
 4231TIP3    H212700   2.075   2.823   3.333
 4232TIP3   OH212701   1.866   0.392   3.585
 4232TIP3    H112702   1.805   0.334   3.629
 4232TIP3    H212703   1.837   0.480   3.608
 4233TIP3   OH212704   5.498   5.292   4.707
 4233TIP3    H112705   5.455   5.365   4.663
 4233TIP3    H212706   5.549   5.249   4.639
 4234TIP3   OH212707   5.822   0.512   3.545
 4234TIP3    H112708   5.913   0.526   3.516
 4234TIP3    H212709   5.830   0.447   3.614
 4235TIP3   OH212710   1.410   0.869   4.459
 4235TIP3    H112711   1.352   0.932   4.503
 4235TIP3    H212712   1.465   0.835   4.529
 4236TIP3   OH212713   1.878   5.384   1.578
 4236TIP3    H112714   1.947   5.420   1.634
 4236TIP3    H212715   1.858   5.299   1.616
 4237TIP3   OH212716   5.629   0.056   4.768
 4237TIP3    H112717   5.689   0.130   4.764
 4237TIP3    H212718   5.576   0.063   4.689
 4238TIP3   OH212719   5.293   1.400   2.842
 4238TIP3    H112720   5.266   1.309   2.850
 4238TIP3    H212721   5.249   1.432   2.763
 4239TIP3   OH212722   4.663   5.533   0.596
 4239TIP3    H112723   4.724   5.596   0.635
 4239TIP3    H212724   4.576   5.565   0.619
 4240TIP3   OH212725   3.952   4.970   0.812
 4240TIP3    H112726   4.032   5.016   0.834
 4240TIP3    H212727   3.884   5.038   0.814
 4241TIP3   OH212728   1.329   0.661   5.162
 4241TIP3    H112729   1.326   0.566   5.176
 4241TIP3    H212730   1.422   0.682   5.169
 4242TIP3   OH212731   5.776   5.767   3.393
 4242TIP3    H112732   5.847   5.782   3.330
 4242TIP3    H212733   5.818   5.724   3.467
 4243TIP3   OH212734   5.231   3.290   3.824
 4243TIP3    H112735   5.287   3.310   3.899
 4243TIP3    H212736   5.287   3.306   3.748
 4244TIP3   OH212737   1.309   5.560   4.211
 4244TIP3    H112738   1.320   5.521   4.125
 4244TIP3    H212739   1.323   5.653   4.197
 4245TIP3   OH212740   0.739   3.944   4.720
 4245TIP3    H112741   0.724   3.929   4.626
 4245TIP3    H212742   0.662   3.994   4.749
 4246TIP3   OH212743   2.599   1.168   1.008
 4246TIP3    H112744   2.604   1.149   1.102
 4246TIP3    H212745   2.584   1.262   1.004
 4247TIP3   OH212746   4.276   5.158   2.426
 4247TIP3    H112747   4.246   5.134   2.514
 4247TIP3    H212748   4.198   5.148   2.371
 4248TIP3   OH212749   3.857   2.857   0.009
 4248TIP3    H112750   3.880   2.912  -0.066
 4248TIP3    H212751   3.764   2.870   0.022
 4249TIP3   OH212752   2.448   5.330   4.715
 4249TIP3    H112753   2.433   5.269   4.787
 4249TIP3    H212754   2.498   5.280   4.650
 4250TIP3   OH212755   1.186   4.181   1.857
 4250TIP3    H112756   1.246   4.184   1.931
 4250TIP3    H212757   1.242   4.166   1.781
 4251TIP3   OH212758   0.266   1.644   2.771
 4251TIP3    H112759   0.255   1.701   2.695
 4251TIP3    H212760   0.208   1.570   2.755
 4252TIP3   OH212761   2.252   3.698   1.051
 4252TIP3    H112762   2.216   3.751   1.122
 4252TIP3    H212763   2.339   3.734   1.035
 4253TIP3   OH212764   6.265   0.636   0.652
 4253TIP3    H112765   6.235   0.693   0.581
 4253TIP3    H212766   6.207   0.560   0.648
 4254TIP3   OH212767   1.065   4.530   2.821
 4254TIP3    H112768   1.112   4.447   2.831
 4254TIP3    H212769   1.135   4.596   2.816
 4255TIP3   OH212770   1.562   0.540   3.166
 4255TIP3    H112771   1.576   0.630   3.137
 4255TIP3    H212772   1.561   0.545   3.262
 4256TIP3   OH212773   0.241   1.267   0.608
 4256TIP3    H112774   0.285   1.236   0.529
 4256TIP3    H212775   0.165   1.315   0.577
 4257TIP3   OH212776   5.536   2.927   3.498
 4257TIP3    H112777   5.580   2.874   3.430
 4257TIP3    H212778   5.604   2.985   3.531
 4258TIP3   OH212779   1.088   5.693   3.936
 4258TIP3    H112780   1.057   5.783   3.945
 4258TIP3    H212781   1.149   5.681   4.009
 4259TIP3   OH212782   4.411   5.907   4.532
 4259TIP3    H112783   4.324   5.869   4.547
 4259TIP3    H212784   4.396   6.001   4.531
 4260TIP3   OH212785   0.492   1.498   0.282
 4260TIP3    H112786   0.584   1.513   0.306
 4260TIP3    H212787   0.462   1.582   0.248
 4261TIP3   OH212788   2.336   4.449   1.401
 4261TIP3    H112789   2.277   4.463   1.327
 4261TIP3    H212790   2.423   4.461   1.365
 4262TIP3   OH212791   3.897   3.953   2.993
 4262TIP3    H112792   3.889   4.048   2.982
 4262TIP3    H212793   3.861   3.936   3.080
 4263TIP3   OH212794   1.220   5.357   2.758
 4263TIP3    H112795   1.132   5.388   2.737
 4263TIP3    H212796   1.245   5.304   2.682
 4264TIP3   OH212797   5.438   1.917   4.579
 4264TIP3    H112798   5.372   1.878   4.522
 4264TIP3    H212799   5.522   1.894   4.539
 4265TIP3   OH212800   2.909   0.338   2.093
 4265TIP3    H112801   2.928   0.303   2.180
 4265TIP3    H212802   2.823   0.379   2.102
 4266TIP3   OH212803   0.820   3.521   4.361
 4266TIP3    H112804   0.823   3.617   4.358
 4266TIP3    H212805   0.809   3.495   4.269
 4267TIP3   OH212806   5.964   2.783   4.302
 4267TIP3    H112807   6.047   2.738   4.287
 4267TIP3    H212808   5.962   2.852   4.236
 4268TIP3   OH212809   1.186   2.149   3.697
 4268TIP3    H112810   1.219   2.060   3.711
 4268TIP3    H212811   1.122   2.162   3.767
 4269TIP3   OH212812   0.548   4.026   2.049
 4269TIP3    H112813   0.514   3.990   2.131
 4269TIP3    H212814   0.474   4.075   2.013
 4270TIP3   OH212815   4.523   3.324   4.126
 4270TIP3    H112816   4.558   3.380   4.195
 4270TIP3    H212817   4.442   3.288   4.164
 4271TIP3   OH212818   4.114   3.471   1.180
 4271TIP3    H112819   4.168   3.420   1.240
 4271TIP3    H212820   4.058   3.407   1.137
 4272TIP3   OH212821   4.957   0.933   2.477
 4272TIP3    H112822   5.028   0.997   2.470
 4272TIP3    H212823   4.964   0.881   2.398
 4273TIP3   OH212824   1.776   2.609   1.857
 4273TIP3    H112825   1.842   2.568   1.800
 4273TIP3    H212826   1.694   2.566   1.834
 4274TIP3   OH212827   3.221   5.073   3.819
 4274TIP3    H112828   3.204   5.082   3.726
 4274TIP3    H212829   3.187   4.987   3.842
 4275TIP3   OH212830   6.164   4.703   5.035
 4275TIP3    H112831   6.119   4.695   4.951
 4275TIP3    H212832   6.165   4.613   5.070
 4276TIP3   OH212833   4.876   3.995   0.215
 4276TIP3    H112834   4.844   4.006   0.125
 4276TIP3    H212835   4.968   4.020   0.210
 4277TIP3   OH212836   1.513   3.646   1.078
 4277TIP3    H112837   1.441   3.586   1.101
 4277TIP3    H212838   1.480   3.732   1.104
 4278TIP3   OH212839   2.714   4.714   3.040
 4278TIP3    H112840   2.730   4.622   3.063
 4278TIP3    H212841   2.619   4.724   3.043
 4279TIP3   OH212842   2.856   0.821   2.493
 4279TIP3    H112843   2.808   0.837   2.574
 4279TIP3    H212844   2.798   0.852   2.424
 4280TIP3   OH212845   2.487   3.645   4.893
 4280TIP3    H112846   2.465   3.614   4.805
 4280TIP3    H212847   2.524   3.733   4.879
 4281TIP3   OH212848   0.168   4.466   5.200
 4281TIP3    H112849   0.235   4.437   5.138
 4281TIP3    H212850   0.093   4.410   5.181
 4282TIP3   OH212851   1.691   4.961   2.760
 4282TIP3    H112852   1.642   4.903   2.818
 4282TIP3    H212853   1.700   5.042   2.810
 4283TIP3   OH212854   3.468   4.438   1.352
 4283TIP3    H112855   3.561   4.460   1.343
 4283TIP3    H212856   3.449   4.454   1.444
 4284TIP3   OH212857   2.252   0.847   1.961
 4284TIP3    H112858   2.295   0.889   2.036
 4284TIP3    H212859   2.243   0.755   1.987
 4285TIP3   OH212860   4.713   1.587   1.525
 4285TIP3    H112861   4.759   1.578   1.441
 4285TIP3    H212862   4.747   1.516   1.579
 4286TIP3   OH212863   4.740   5.051   3.248
 4286TIP3    H112864   4.696   4.988   3.192
 4286TIP3    H212865   4.671   5.107   3.281
 4287TIP3   OH212866   2.441   1.479   4.901
 4287TIP3    H112867   2.363   1.426   4.887
 4287TIP3    H212868   2.501   1.452   4.832
 4288TIP3   OH212869   0.298   3.291   0.795
 4288TIP3    H112870   0.231   3.268   0.730
 4288TIP3    H212871   0.353   3.213   0.800
 4289TIP3   OH212872   1.026   1.267   1.714
 4289TIP3    H112873   1.074   1.338   1.672
 4289TIP3    H212874   0.961   1.312   1.769
 4290TIP3   OH212875   0.917   2.036   3.317
 4290TIP3    H112876   0.862   2.072   3.248
 4290TIP3    H212877   0.926   1.943   3.295
 4291TIP3   OH212878   4.675   5.267   0.716
 4291TIP3    H112879   4.724   5.347   0.698
 4291TIP3    H212880   4.720   5.199   0.665
 4292TIP3   OH212881   3.193   2.827   1.036
 4292TIP3    H112882   3.274   2.841   0.987
 4292TIP3    H212883   3.152   2.914   1.039
 4293TIP3   OH212884   0.814   2.395   0.805
 4293TIP3    H112885   0.811   2.445   0.887
 4293TIP3    H212886   0.724   2.395   0.773
 4294TIP3   OH212887   3.773   3.279   4.610
 4294TIP3    H112888   3.743   3.204   4.558
 4294TIP3    H212889   3.740   3.262   4.698
 4295TIP3   OH212890   2.828   4.795   5.198
 4295TIP3    H112891   2.846   4.882   5.162
 4295TIP3    H212892   2.914   4.759   5.218
 4296TIP3   OH212893   1.666   0.146   0.245
 4296TIP3    H112894   1.702   0.101   0.169
 4296TIP3    H212895   1.727   0.218   0.262
 4297TIP3   OH212896   1.865   0.388   0.227
 4297TIP3    H112897   1.837   0.474   0.194
 4297TIP3    H212898   1.869   0.400   0.322
 4298TIP3   OH212899   4.322   4.198   3.781
 4298TIP3    H112900   4.290   4.289   3.784
 4298TIP3    H212901   4.335   4.174   3.873
 4299TIP3   OH212902   5.806   4.392   2.939
 4299TIP3    H112903   5.900   4.411   2.937
 4299TIP3    H212904   5.774   4.418   2.853
 4300TIP3   OH212905   1.776   2.870   0.977
 4300TIP3    H112906   1.686   2.898   0.999
 4300TIP3    H212907   1.765   2.786   0.934
 4301TIP3   OH212908   1.299   0.043   2.722
 4301TIP3    H112909   1.377   0.091   2.693
 4301TIP3    H212910   1.324   0.003   2.805
 4302TIP3   OH212911   1.349   1.212   3.405
 4302TIP3    H112912   1.444   1.220   3.409
 4302TIP3    H212913   1.325   1.252   3.321
 4303TIP3   OH212914   3.577   5.662   5.019
 4303TIP3    H112915   3.589   5.648   5.113
 4303TIP3    H212916   3.664   5.685   4.987
 4304TIP3   OH212917   4.462   0.851   4.388
 4304TIP3    H112918   4.512   0.913   4.335
 4304TIP3    H212919   4.394   0.904   4.430
 4305TIP3   OH212920   3.693   5.871   2.004
 4305TIP3    H112921   3.754   5.921   1.950
 4305TIP3    H212922   3.735   5.868   2.090
 4306TIP3   OH212923   1.044   2.456   1.603
 4306TIP3    H112924   0.972   2.452   1.667
 4306TIP3    H212925   1.011   2.408   1.527
 4307TIP3   OH212926   0.028   1.550   4.941
 4307TIP3    H112927  -0.052   1.595   4.970
 4307TIP3    H212928   0.013   1.459   4.965
 4308TIP3   OH212929   0.636   3.169   3.742
 4308TIP3    H112930   0.713   3.161   3.686
 4308TIP3    H212931   0.599   3.081   3.746
 4309TIP3   OH212932   1.525   2.017   3.267
 4309TIP3    H112933   1.509   1.948   3.203
 4309TIP3    H212934   1.443   2.066   3.271
 4310TIP3   OH212935   5.905   5.615   1.941
 4310TIP3    H112936   5.851   5.551   1.895
 4310TIP3    H212937   5.967   5.645   1.875
 4311TIP3   OH212938   2.850   1.759   5.039
 4311TIP3    H112939   2.869   1.788   4.950
 4311TIP3    H212940   2.760   1.726   5.035
 4312TIP3   OH212941   0.304   4.987   2.461
 4312TIP3    H112942   0.234   5.051   2.467
 4312TIP3    H212943   0.382   5.033   2.491
 4313TIP3   OH212944   1.584   2.468   0.409
 4313TIP3    H112945   1.538   2.386   0.424
 4313TIP3    H212946   1.516   2.535   0.408
 4314TIP3   OH212947   2.186   5.474   0.897
 4314TIP3    H112948   2.110   5.431   0.858
 4314TIP3    H212949   2.252   5.406   0.904
 4315TIP3   OH212950   4.334   2.938   4.285
 4315TIP3    H112951   4.402   2.935   4.217
 4315TIP3    H212952   4.304   2.848   4.293
 4316TIP3   OH212953   5.934   2.693   5.113
 4316TIP3    H112954   5.941   2.781   5.150
 4316TIP3    H212955   5.970   2.701   5.025
 4317TIP3   OH212956   0.171   2.470   3.640
 4317TIP3    H112957   0.105   2.539   3.630
 4317TIP3    H212958   0.147   2.425   3.721
 4318TIP3   OH212959   2.815   0.005   4.655
 4318TIP3    H112960   2.848   0.061   4.585
 4318TIP3    H212961   2.854   0.040   4.735
 4319TIP3   OH212962   5.151   2.568   3.280
 4319TIP3    H112963   5.145   2.473   3.285
 4319TIP3    H212964   5.229   2.584   3.226
 4320TIP3   OH212965   4.414   0.077   3.432
 4320TIP3    H112966   4.372   0.151   3.388
 4320TIP3    H212967   4.351   0.050   3.499
 4321TIP3   OH212968   1.569   5.829   2.864
 4321TIP3    H112969   1.591   5.754   2.809
 4321TIP3    H212970   1.518   5.793   2.936
 4322TIP3   OH212971   1.982   1.177   0.133
 4322TIP3    H112972   2.019   1.129   0.207
 4322TIP3    H212973   1.945   1.257   0.172
 4323TIP3   OH212974   4.004   2.566   0.931
 4323TIP3    H112975   3.983   2.659   0.943
 4323TIP3    H212976   3.920   2.521   0.936
 4324TIP3   OH212977   5.059   5.097   1.789
 4324TIP3    H112978   4.989   5.071   1.728
 4324TIP3    H212979   5.025   5.176   1.831
 4325TIP3   OH212980   5.789   2.340   0.147
 4325TIP3    H112981   5.773   2.268   0.087
 4325TIP3    H212982   5.824   2.410   0.092
 4326TIP3   OH212983   0.723   5.027   1.923
 4326TIP3    H112984   0.763   4.953   1.968
 4326TIP3    H212985   0.640   5.040   1.969
 4327TIP3   OH212986   4.012   0.889   2.665
 4327TIP3    H112987   3.949   0.872   2.735
 4327TIP3    H212988   3.957   0.908   2.588
 4328TIP3   OH212989   1.081   5.322   3.856
 4328TIP3    H112990   1.167   5.356   3.881
 4328TIP3    H212991   1.046   5.285   3.937
 4329TIP3   OH212992   2.888   4.730   4.829
 4329TIP3    H112993   2.806   4.778   4.816
 4329TIP3    H212994   2.923   4.717   4.741
 4330TIP3   OH212995   3.964   2.483   0.494
 4330TIP3    H112996   3.955   2.452   0.585
 4330TIP3    H212997   3.892   2.546   0.483
 4331TIP3   OH212998   1.117   3.015   3.260
 4331TIP3    H112999   1.165   2.940   3.293
 4331TIP3    H213000   1.117   3.077   3.333
 4332TIP3   OH213001   1.356   0.693   1.325
 4332TIP3    H113002   1.345   0.617   1.269
 4332TIP3    H213003   1.355   0.768   1.266
 4333TIP3   OH213004   0.642   1.500   4.478
 4333TIP3    H113005   0.554   1.464   4.464
 4333TIP3    H213006   0.669   1.466   4.563
 4334TIP3   OH213007   5.133   3.960   1.782
 4334TIP3    H113008   5.186   3.920   1.851
 4334TIP3    H213009   5.191   4.026   1.743
 4335TIP3   OH213010   2.350   2.735   4.918
 4335TIP3    H113011   2.387   2.656   4.877
 4335TIP3    H213012   2.422   2.770   4.971
 4336TIP3   OH213013   0.701   3.870   4.988
 4336TIP3    H113014   0.702   3.911   5.074
 4336TIP3    H213015   0.682   3.941   4.927
 4337TIP3   OH213016   3.620   1.121   2.091
 4337TIP3    H113017   3.615   1.169   2.174
 4337TIP3    H213018   3.710   1.133   2.062
 4338TIP3   OH213019   4.662   1.776   3.233
 4338TIP3    H113020   4.584   1.745   3.279
 4338TIP3    H213021   4.733   1.722   3.269
 4339TIP3   OH213022   3.714   3.623   2.649
 4339TIP3    H113023   3.694   3.596   2.559
 4339TIP3    H213024   3.630   3.615   2.695
 4340TIP3   OH213025   3.151   3.766   4.372
 4340TIP3    H113026   3.180   3.733   4.287
 4340TIP3    H213027   3.184   3.856   4.375
 4341TIP3   OH213028   2.685   5.534   4.505
 4341TIP3    H113029   2.679   5.593   4.580
 4341TIP3    H213030   2.688   5.593   4.429
 4342TIP3   OH213031   0.106   5.581   1.776
 4342TIP3    H113032   0.161   5.543   1.708
 4342TIP3    H213033   0.055   5.649   1.731
 4343TIP3   OH213034   5.506   1.065   3.297
 4343TIP3    H113035   5.467   1.070   3.209
 4343TIP3    H213036   5.595   1.098   3.285
 4344TIP3   OH213037   0.729   1.550   0.527
 4344TIP3    H113038   0.702   1.621   0.468
 4344TIP3    H213039   0.761   1.595   0.605
 4345TIP3   OH213040   5.632   2.799   2.666
 4345TIP3    H113041   5.581   2.839   2.596
 4345TIP3    H213042   5.579   2.811   2.745
 4346TIP3   OH213043   1.889   2.940   2.397
 4346TIP3    H113044   1.909   2.907   2.485
 4346TIP3    H213045   1.865   3.032   2.411
 4347TIP3   OH213046   6.099   5.560   3.739
 4347TIP3    H113047   6.051   5.598   3.812
 4347TIP3    H213048   6.037   5.559   3.666
 4348TIP3   OH213049   4.642   2.635   0.661
 4348TIP3    H113050   4.566   2.691   0.645
 4348TIP3    H213051   4.713   2.696   0.678
 4349TIP3   OH213052   1.856   2.107   3.983
 4349TIP3    H113053   1.852   2.145   4.070
 4349TIP3    H213054   1.807   2.169   3.927
 4350TIP3   OH213055   0.510   4.026   4.878
 4350TIP3    H113056   0.435   4.085   4.883
 4350TIP3    H213057   0.487   3.953   4.936
 4351TIP3   OH213058   3.564   5.455   0.617
 4351TIP3    H113059   3.603   5.464   0.704
 4351TIP3    H213060   3.472   5.432   0.635
 4352TIP3   OH213061   4.215   2.083   1.240
 4352TIP3    H113062   4.197   2.044   1.326
 4352TIP3    H213063   4.142   2.143   1.226
 4353TIP3   OH213064   2.607   5.450   2.130
 4353TIP3    H113065   2.594   5.407   2.046
 4353TIP3    H213066   2.554   5.530   2.125
 4354TIP3   OH213067   0.933   4.692   0.231
 4354TIP3    H113068   0.893   4.777   0.214
 4354TIP3    H213069   0.918   4.676   0.324
 4355TIP3   OH213070   2.361   3.399   2.006
 4355TIP3    H113071   2.442   3.374   1.961
 4355TIP3    H213072   2.369   3.358   2.092
 4356TIP3   OH213073   5.360   3.929   0.275
 4356TIP3    H113074   5.440   3.878   0.264
 4356TIP3    H213075   5.361   3.956   0.367
 4357TIP3   OH213076   3.184   4.305   2.633
 4357TIP3    H113077   3.125   4.234   2.659
 4357TIP3    H213078   3.210   4.282   2.544
 4358TIP3   OH213079   0.147   0.732   2.265
 4358TIP3    H113080   0.231   0.686   2.264
 4358TIP3    H213081   0.081   0.662   2.266
 4359TIP3   OH213082   2.446   4.781   2.998
 4359TIP3    H113083   2.365   4.819   3.031
 4359TIP3    H213084   2.432   4.774   2.903
 4360TIP3   OH213085   3.475   4.601   0.716
 4360TIP3    H113086   3.568   4.622   0.705
 4360TIP3    H213087   3.446   4.571   0.630
 4361TIP3   OH213088   0.226   0.078   1.251
 4361TIP3    H113089   0.227   0.162   1.205
 4361TIP3    H213090   0.135   0.050   1.248
 4362TIP3   OH213091   3.508   2.458   3.522
 4362TIP3    H113092   3.415   2.437   3.511
 4362TIP3    H213093   3.545   2.381   3.565
 4363TIP3   OH213094   5.942   1.270   0.432
 4363TIP3    H113095   5.864   1.296   0.383
 4363TIP3    H213096   5.975   1.192   0.387
 4364TIP3   OH213097   4.026   5.119   2.296
 4364TIP3    H113098   4.022   5.131   2.201
 4364TIP3    H213099   4.012   5.025   2.309
 4365TIP3   OH213100   6.328   4.790   2.552
 4365TIP3    H113101   6.285   4.873   2.529
 4365TIP3    H213102   6.336   4.743   2.469
 4366TIP3   OH213103   2.573   1.939   3.643
 4366TIP3    H113104   2.604   2.012   3.590
 4366TIP3    H213105   2.614   1.862   3.604
 4367TIP3   OH213106   2.212   3.307   2.522
 4367TIP3    H113107   2.170   3.356   2.451
 4367TIP3    H213108   2.147   3.242   2.549
 4368TIP3   OH213109   1.919   2.964   4.648
 4368TIP3    H113110   2.011   2.957   4.672
 4368TIP3    H213111   1.911   3.051   4.609
 4369TIP3   OH213112   3.491   5.912   1.553
 4369TIP3    H113113   3.504   5.820   1.529
 4369TIP3    H213114   3.458   5.953   1.473
 4370TIP3   OH213115   5.515   5.492   1.989
 4370TIP3    H113116   5.581   5.461   1.928
 4370TIP3    H213117   5.564   5.516   2.067
 4371TIP3   OH213118   0.520   4.859   3.774
 4371TIP3    H113119   0.446   4.916   3.794
 4371TIP3    H213120   0.480   4.785   3.727
 4372TIP3   OH213121   2.110   5.137   3.509
 4372TIP3    H113122   2.171   5.085   3.561
 4372TIP3    H213123   2.028   5.134   3.559
 4373TIP3   OH213124   1.174   2.483   4.297
 4373TIP3    H113125   1.111   2.550   4.268
 4373TIP3    H213126   1.128   2.436   4.367
 4374TIP3   OH213127   5.162   1.024   1.964
 4374TIP3    H113128   5.140   0.982   1.881
 4374TIP3    H213129   5.246   1.067   1.948
 4375TIP3   OH213130   0.502   4.735   2.178
 4375TIP3    H113131   0.424   4.790   2.182
 4375TIP3    H213132   0.513   4.702   2.267
 4376TIP3   OH213133   3.671   3.511   5.121
 4376TIP3    H113134   3.751   3.466   5.094
 4376TIP3    H213135   3.631   3.539   5.039
 4377TIP3   OH213136   3.218   5.905   1.776
 4377TIP3    H113137   3.293   5.964   1.780
 4377TIP3    H213138   3.255   5.817   1.784
 4378TIP3   OH213139   3.304   3.272   2.875
 4378TIP3    H113140   3.233   3.282   2.938
 4378TIP3    H213141   3.384   3.285   2.927
 4379TIP3   OH213142   1.215   3.285   4.399
 4379TIP3    H113143   1.283   3.306   4.336
 4379TIP3    H213144   1.251   3.312   4.483
 4380TIP3   OH213145   0.549   2.720   0.323
 4380TIP3    H113146   0.636   2.689   0.299
 4380TIP3    H213147   0.528   2.787   0.258
 4381TIP3   OH213148   1.590   3.811   1.336
 4381TIP3    H113149   1.681   3.830   1.312
 4381TIP3    H213150   1.538   3.865   1.277
 4382TIP3   OH213151   0.402   3.968   0.674
 4382TIP3    H113152   0.384   3.910   0.747
 4382TIP3    H213153   0.384   3.915   0.596
 4383TIP3   OH213154   2.913   0.848   4.082
 4383TIP3    H113155   2.953   0.867   3.998
 4383TIP3    H213156   2.975   0.883   4.146
 4384TIP3   OH213157   1.860   4.094   0.176
 4384TIP3    H113158   1.847   4.189   0.171
 4384TIP3    H213159   1.945   4.080   0.134
 4385TIP3   OH213160   2.989   2.777   0.431
 4385TIP3    H113161   2.997   2.872   0.417
 4385TIP3    H213162   2.895   2.763   0.445
 4386TIP3   OH213163   2.658   5.606   0.374
 4386TIP3    H113164   2.662   5.650   0.459
 4386TIP3    H213165   2.747   5.573   0.359
 4387TIP3   OH213166   3.369   2.925   3.424
 4387TIP3    H113167   3.433   2.936   3.495
 4387TIP3    H213168   3.364   2.830   3.411
 4388TIP3   OH213169   4.871   4.321   1.575
 4388TIP3    H113170   4.781   4.331   1.544
 4388TIP3    H213171   4.864   4.326   1.671
 4389TIP3   OH213172   3.945   4.217   0.424
 4389TIP3    H113173   4.003   4.151   0.463
 4389TIP3    H213174   3.999   4.260   0.357
 4390TIP3   OH213175   4.042   0.222   3.818
 4390TIP3    H113176   4.126   0.182   3.842
 4390TIP3    H213177   4.039   0.303   3.869
 4391TIP3   OH213178   5.915   5.283   4.697
 4391TIP3    H113179   5.845   5.260   4.758
 4391TIP3    H213180   5.985   5.318   4.753
 4392TIP3   OH213181   1.065   2.525   3.777
 4392TIP3    H113182   1.159   2.532   3.793
 4392TIP3    H213183   1.058   2.517   3.681
 4393TIP3   OH213184   5.523   2.412   1.263
 4393TIP3    H113185   5.612   2.401   1.230
 4393TIP3    H213186   5.488   2.323   1.269
 4394TIP3   OH213187   4.310   0.739   2.227
 4394TIP3    H113188   4.380   0.711   2.168
 4394TIP3    H213189   4.340   0.711   2.314
 4395TIP3   OH213190   4.761   1.912   4.335
 4395TIP3    H113191   4.747   1.821   4.310
 4395TIP3    H213192   4.834   1.909   4.397
 4396TIP3   OH213193   0.101   4.611   0.626
 4396TIP3    H113194   0.006   4.615   0.636
 4396TIP3    H213195   0.128   4.535   0.678
 4397TIP3   OH213196   0.520   5.557   1.059
 4397TIP3    H113197   0.519   5.463   1.077
 4397TIP3    H213198   0.435   5.588   1.091
 4398TIP3   OH213199  -0.073   2.176   0.432
 4398TIP3    H113200  -0.107   2.088   0.413
 4398TIP3    H213201   0.018   2.162   0.456
 4399TIP3   OH213202   2.095   5.469   0.487
 4399TIP3    H113203   2.123   5.538   0.547
 4399TIP3    H213204   2.084   5.392   0.542
 4400TIP3   OH213205   0.582   1.064   3.464
 4400TIP3    H113206   0.616   1.009   3.394
 4400TIP3    H213207   0.571   1.005   3.539
 4401TIP3   OH213208   5.316   1.493   4.036
 4401TIP3    H113209   5.354   1.505   4.123
 4401TIP3    H213210   5.261   1.415   4.044
 4402TIP3   OH213211   2.802   0.487   1.729
 4402TIP3    H113212   2.721   0.471   1.777
 4402TIP3    H213213   2.817   0.406   1.680
 4403TIP3   OH213214   0.403   1.358   4.543
 4403TIP3    H113215   0.333   1.407   4.586
 4403TIP3    H213216   0.357   1.301   4.481
 4404TIP3   OH213217   4.810   3.360   1.557
 4404TIP3    H113218   4.876   3.312   1.608
 4404TIP3    H213219   4.859   3.404   1.489
 4405TIP3   OH213220   1.508   0.923   0.175
 4405TIP3    H113221   1.498   0.829   0.166
 4405TIP3    H213222   1.597   0.941   0.145
 4406TIP3   OH213223   4.785   3.102   4.671
 4406TIP3    H113224   4.803   3.111   4.764
 4406TIP3    H213225   4.824   3.180   4.631
 4407TIP3   OH213226   4.237   3.173   0.941
 4407TIP3    H113227   4.283   3.091   0.960
 4407TIP3    H213228   4.192   3.157   0.858
 4408TIP3   OH213229   4.043   0.557   0.895
 4408TIP3    H113230   4.019   0.486   0.954
 4408TIP3    H213231   4.017   0.636   0.942
 4409TIP3   OH213232   5.462   3.947   3.622
 4409TIP3    H113233   5.393   3.883   3.640
 4409TIP3    H213234   5.416   4.030   3.612
 4410TIP3   OH213235   2.921   1.657   1.931
 4410TIP3    H113236   2.852   1.616   1.878
 4410TIP3    H213237   2.968   1.714   1.871
 4411TIP3   OH213238   0.875   1.238   3.945
 4411TIP3    H113239   0.827   1.163   3.979
 4411TIP3    H213240   0.965   1.223   3.974
 4412TIP3   OH213241   3.996   3.683   2.953
 4412TIP3    H113242   3.960   3.771   2.963
 4412TIP3    H213243   4.082   3.688   2.994
 4413TIP3   OH213244   2.726   5.839   0.119
 4413TIP3    H113245   2.766   5.906   0.174
 4413TIP3    H213246   2.635   5.868   0.108
 4414TIP3   OH213247   3.788   4.727   4.375
 4414TIP3    H113248   3.776   4.810   4.329
 4414TIP3    H213249   3.727   4.732   4.449
 4415TIP3   OH213250   1.635   1.348   3.078
 4415TIP3    H113251   1.699   1.418   3.095
 4415TIP3    H213252   1.674   1.296   3.008
 4416TIP3   OH213253   1.459   0.190   2.984
 4416TIP3    H113254   1.399   0.167   3.055
 4416TIP3    H213255   1.483   0.105   2.946
 4417TIP3   OH213256   5.117   5.469   4.797
 4417TIP3    H113257   5.189   5.451   4.857
 4417TIP3    H213258   5.107   5.565   4.800
 4418TIP3   OH213259   3.520   3.573   3.092
 4418TIP3    H113260   3.494   3.484   3.114
 4418TIP3    H213261   3.615   3.569   3.081
 4419TIP3   OH213262   1.709   4.075   0.553
 4419TIP3    H113263   1.773   4.112   0.492
 4419TIP3    H213264   1.675   4.150   0.600
 4420TIP3   OH213265   0.876   0.673   2.023
 4420TIP3    H113266   0.907   0.660   2.113
 4420TIP3    H213267   0.883   0.767   2.009
 4421TIP3   OH213268   1.035   4.586   3.742
 4421TIP3    H113269   1.051   4.515   3.681
 4421TIP3    H213270   0.959   4.633   3.707
 4422TIP3   OH213271   1.152   1.957   3.435
 4422TIP3    H113272   1.080   1.996   3.385
 4422TIP3    H213273   1.224   2.021   3.427
 4423TIP3   OH213274   2.390   2.771   0.420
 4423TIP3    H113275   2.455   2.752   0.352
 4423TIP3    H213276   2.306   2.750   0.380
 4424TIP3   OH213277   3.354   4.140   3.629
 4424TIP3    H113278   3.264   4.108   3.633
 4424TIP3    H213279   3.353   4.208   3.562
 4425TIP3   OH213280   4.383   5.058   0.990
 4425TIP3    H113281   4.363   5.047   1.083
 4425TIP3    H213282   4.471   5.094   0.989
 4426TIP3   OH213283   0.610   1.211   2.023
 4426TIP3    H113284   0.533   1.167   2.058
 4426TIP3    H213285   0.645   1.261   2.097
 4427TIP3   OH213286   3.180   2.141   2.869
 4427TIP3    H113287   3.186   2.233   2.842
 4427TIP3    H213288   3.093   2.113   2.840
 4428TIP3   OH213289   1.040   1.391   5.169
 4428TIP3    H113290   1.113   1.396   5.107
 4428TIP3    H213291   0.967   1.357   5.117
 4429TIP3   OH213292   3.665   0.137   4.732
 4429TIP3    H113293   3.664   0.209   4.670
 4429TIP3    H213294   3.724   0.072   4.693
 4430TIP3   OH213295   5.446   2.264   3.243
 4430TIP3    H113296   5.399   2.182   3.255
 4430TIP3    H213297   5.532   2.237   3.209
 4431TIP3   OH213298   0.533   0.264   4.872
 4431TIP3    H113299   0.581   0.234   4.950
 4431TIP3    H213300   0.461   0.316   4.907
 4432TIP3   OH213301   2.256   2.407   3.628
 4432TIP3    H113302   2.326   2.455   3.585
 4432TIP3    H213303   2.199   2.475   3.664
 4433TIP3   OH213304   4.689   0.954   4.823
 4433TIP3    H113305   4.746   1.026   4.850
 4433TIP3    H213306   4.626   0.994   4.762
 4434TIP3   OH213307   1.850   0.646   5.077
 4434TIP3    H113308   1.788   0.699   5.027
 4434TIP3    H213309   1.933   0.654   5.030
 4435TIP3   OH213310   0.118   0.489   0.110
 4435TIP3    H113311   0.210   0.463   0.104
 4435TIP3    H213312   0.120   0.584   0.115
 4436TIP3   OH213313   6.088   5.984   1.036
 4436TIP3    H113314   6.105   6.066   1.082
 4436TIP3    H213315   6.013   5.945   1.083
 4437TIP3   OH213316   3.336   2.405   1.016
 4437TIP3    H113317   3.378   2.456   0.947
 4437TIP3    H213318   3.404   2.395   1.083
 4438TIP3   OH213319   3.462   0.974   5.031
 4438TIP3    H113320   3.506   0.932   5.104
 4438TIP3    H213321   3.520   1.046   5.005
 4439TIP3   OH213322   5.647   1.383   1.407
 4439TIP3    H113323   5.558   1.397   1.377
 4439TIP3    H213324   5.702   1.419   1.337
 4440TIP3   OH213325   5.561   2.944   0.725
 4440TIP3    H113326   5.623   2.972   0.657
 4440TIP3    H213327   5.486   3.003   0.714
 4441TIP3   OH213328   5.338   5.386   2.136
 4441TIP3    H113329   5.370   5.436   2.060
 4441TIP3    H213330   5.403   5.403   2.204
 4442TIP3   OH213331   4.092   3.619   0.567
 4442TIP3    H113332   4.001   3.646   0.573
 4442TIP3    H213333   4.093   3.529   0.600
 4443TIP3   OH213334   4.708   5.530   2.166
 4443TIP3    H113335   4.691   5.466   2.235
 4443TIP3    H213336   4.647   5.508   2.096
 4444TIP3   OH213337   5.315   0.714   1.007
 4444TIP3    H113338   5.382   0.744   0.946
 4444TIP3    H213339   5.347   0.629   1.039
 4445TIP3   OH213340   4.522   2.276   3.730
 4445TIP3    H113341   4.461   2.219   3.682
 4445TIP3    H213342   4.565   2.327   3.662
 4446TIP3   OH213343   4.803   2.080   1.248
 4446TIP3    H113344   4.753   2.011   1.293
 4446TIP3    H213345   4.803   2.053   1.156
 4447TIP3   OH213346   5.976   2.789   0.381
 4447TIP3    H113347   5.897   2.760   0.427
 4447TIP3    H213348   5.949   2.797   0.290
 4448TIP3   OH213349   0.507   3.712   4.725
 4448TIP3    H113350   0.542   3.783   4.778
 4448TIP3    H213351   0.493   3.640   4.786
 4449TIP3   OH213352   0.866   4.158   0.695
 4449TIP3    H113353   0.815   4.230   0.659
 4449TIP3    H213354   0.957   4.184   0.680
 4450TIP3   OH213355   0.755   3.618   3.736
 4450TIP3    H113356   0.703   3.602   3.814
 4450TIP3    H213357   0.691   3.637   3.667
 4451TIP3   OH213358   2.531   0.846   0.607
 4451TIP3    H113359   2.479   0.833   0.528
 4451TIP3    H213360   2.622   0.847   0.577
 4452TIP3   OH213361   3.039   1.266   4.192
 4452TIP3    H113362   3.028   1.344   4.245
 4452TIP3    H213363   2.974   1.275   4.122
 4453TIP3   OH213364   1.126   1.214   3.667
 4453TIP3    H113365   1.076   1.205   3.748
 4453TIP3    H213366   1.214   1.186   3.690
 4454TIP3   OH213367   1.199   0.755   3.333
 4454TIP3    H113368   1.161   0.803   3.406
 4454TIP3    H213369   1.227   0.823   3.272
 4455TIP3   OH213370   6.135   3.928   1.598
 4455TIP3    H113371   6.182   3.987   1.539
 4455TIP3    H213372   6.136   3.844   1.552
 4456TIP3   OH213373   1.977   3.752   0.034
 4456TIP3    H113374   2.002   3.840   0.062
 4456TIP3    H213375   1.884   3.760   0.010
 4457TIP3   OH213376   5.819   3.688   1.209
 4457TIP3    H113377   5.869   3.736   1.143
 4457TIP3    H213378   5.772   3.756   1.257
 4458TIP3   OH213379   4.737   3.470   1.144
 4458TIP3    H113380   4.745   3.400   1.079
 4458TIP3    H213381   4.697   3.427   1.220
 4459TIP3   OH213382   5.798   5.217   2.779
 4459TIP3    H113383   5.738   5.244   2.849
 4459TIP3    H213384   5.812   5.123   2.794
 4460TIP3   OH213385   0.701   1.339   1.782
 4460TIP3    H113386   0.716   1.351   1.688
 4460TIP3    H213387   0.693   1.244   1.793
 4461TIP3   OH213388   5.515   4.862   0.906
 4461TIP3    H113389   5.597   4.884   0.951
 4461TIP3    H213390   5.519   4.767   0.894
 4462TIP3   OH213391   5.784   1.925   2.755
 4462TIP3    H113392   5.702   1.918   2.707
 4462TIP3    H213393   5.848   1.950   2.689
 4463TIP3   OH213394   5.715   0.884   4.938
 4463TIP3    H113395   5.732   0.954   4.875
 4463TIP3    H213396   5.630   0.908   4.977
 4464TIP3   OH213397   3.469   0.586   2.797
 4464TIP3    H113398   3.501   0.501   2.825
 4464TIP3    H213399   3.417   0.567   2.719
 4465TIP3   OH213400   0.859   3.098   1.551
 4465TIP3    H113401   0.848   3.141   1.635
 4465TIP3    H213402   0.784   3.127   1.499
 4466TIP3   OH213403   6.211   3.138   2.503
 4466TIP3    H113404   6.159   3.193   2.444
 4466TIP3    H213405   6.194   3.048   2.473
 4467TIP3   OH213406   3.500   3.756   4.120
 4467TIP3    H113407   3.416   3.711   4.128
 4467TIP3    H213408   3.527   3.773   4.210
 4468TIP3   OH213409   1.253   5.287   5.019
 4468TIP3    H113410   1.297   5.204   5.002
 4468TIP3    H213411   1.243   5.290   5.114
 4469TIP3   OH213412   1.092   0.029   0.325
 4469TIP3    H113413   1.018   0.084   0.298
 4469TIP3    H213414   1.057  -0.060   0.325
 4470TIP3   OH213415   0.773   1.138   4.293
 4470TIP3    H113416   0.852   1.106   4.248
 4470TIP3    H213417   0.798   1.224   4.326
 4471TIP3   OH213418   5.211   1.161   2.384
 4471TIP3    H113419   5.297   1.199   2.364
 4471TIP3    H213420   5.185   1.116   2.303
 4472TIP3   OH213421   5.000   5.128   0.148
 4472TIP3    H113422   5.094   5.140   0.136
 4472TIP3    H213423   4.990   5.114   0.242
 4473TIP3   OH213424   1.276   5.841   4.094
 4473TIP3    H113425   1.338   5.833   4.021
 4473TIP3    H213426   1.291   5.930   4.128
 4474TIP3   OH213427   2.538   4.850   3.556
 4474TIP3    H113428   2.579   4.858   3.470
 4474TIP3    H213429   2.525   4.756   3.567
 4475TIP3   OH213430   2.180   5.575   4.217
 4475TIP3    H113431   2.189   5.547   4.126
 4475TIP3    H213432   2.267   5.561   4.255
 4476TIP3   OH213433   1.575   4.811   2.950
 4476TIP3    H113434   1.668   4.813   2.972
 4476TIP3    H213435   1.551   4.718   2.957
 4477TIP3   OH213436   3.879   3.143   4.910
 4477TIP3    H113437   3.885   3.084   4.835
 4477TIP3    H213438   3.787   3.169   4.912
 4478TIP3   OH213439   4.140   1.441   4.115
 4478TIP3    H113440   4.072   1.375   4.115
 4478TIP3    H213441   4.199   1.416   4.044
 4479TIP3   OH213442   3.236   2.221   5.120
 4479TIP3    H113443   3.235   2.310   5.083
 4479TIP3    H213444   3.230   2.235   5.215
 4480TIP3   OH213445   1.239   4.537   1.038
 4480TIP3    H113446   1.313   4.502   1.088
 4480TIP3    H213447   1.248   4.499   0.951
 4481TIP3   OH213448   0.213   4.911   4.782
 4481TIP3    H113449   0.283   4.922   4.718
 4481TIP3    H213450   0.137   4.953   4.742
 4482TIP3   OH213451   2.126   0.443   1.129
 4482TIP3    H113452   2.038   0.442   1.167
 4482TIP3    H213453   2.151   0.535   1.128
 4483TIP3   OH213454   5.731   1.880   4.992
 4483TIP3    H113455   5.653   1.884   5.047
 4483TIP3    H213456   5.703   1.916   4.908
 4484TIP3   OH213457   5.644   1.329   2.616
 4484TIP3    H113458   5.624   1.422   2.606
 4484TIP3    H213459   5.614   1.308   2.705
 4485TIP3   OH213460   4.430   4.900   2.107
 4485TIP3    H113461   4.383   4.849   2.041
 4485TIP3    H213462   4.522   4.880   2.093
 4486TIP3   OH213463   3.408   3.394   1.098
 4486TIP3    H113464   3.380   3.473   1.144
 4486TIP3    H213465   3.487   3.421   1.051
 4487TIP3   OH213466   0.939   1.779   4.419
 4487TIP3    H113467   0.902   1.833   4.349
 4487TIP3    H213468   0.931   1.689   4.386
 4488TIP3   OH213469   1.194   4.689   2.538
 4488TIP3    H113470   1.283   4.698   2.505
 4488TIP3    H213471   1.196   4.730   2.625
 4489TIP3   OH213472   5.050   2.161   4.354
 4489TIP3    H113473   5.059   2.125   4.443
 4489TIP3    H213474   4.955   2.164   4.340
 4490TIP3   OH213475   5.848   3.531   0.217
 4490TIP3    H113476   5.912   3.516   0.148
 4490TIP3    H213477   5.877   3.610   0.262
 4491TIP3   OH213478   4.777   2.932   2.692
 4491TIP3    H113479   4.830   3.002   2.655
 4491TIP3    H213480   4.793   2.857   2.636
 4492TIP3   OH213481   5.394   2.176   1.294
 4492TIP3    H113482   5.318   2.235   1.295
 4492TIP3    H213483   5.412   2.161   1.201
 4493TIP3   OH213484   3.495   3.031   1.076
 4493TIP3    H113485   3.570   3.042   1.018
 4493TIP3    H213486   3.492   2.936   1.093
 4494TIP3   OH213487   2.754   0.855   5.048
 4494TIP3    H113488   2.811   0.900   4.987
 4494TIP3    H213489   2.673   0.906   5.049
 4495TIP3   OH213490   1.892   1.802   4.727
 4495TIP3    H113491   1.814   1.844   4.691
 4495TIP3    H213492   1.860   1.720   4.764
 4496TIP3   OH213493   4.686   5.351   3.632
 4496TIP3    H113494   4.692   5.255   3.627
 4496TIP3    H213495   4.670   5.369   3.724
 4497TIP3   OH213496   0.725   3.119   2.384
 4497TIP3    H113497   0.800   3.060   2.372
 4497TIP3    H213498   0.673   3.106   2.304
 4498TIP3   OH213499   2.021   2.612   4.341
 4498TIP3    H113500   1.926   2.602   4.334
 4498TIP3    H213501   2.033   2.663   4.421
 4499TIP3   OH213502   4.872   0.609   0.820
 4499TIP3    H113503   4.838   0.646   0.739
 4499TIP3    H213504   4.933   0.540   0.792
 4500TIP3   OH213505   3.833   0.182   2.549
 4500TIP3    H113506   3.801   0.174   2.639
 4500TIP3    H213507   3.896   0.111   2.539
 4501TIP3   OH213508   0.437   5.694   2.659
 4501TIP3    H113509   0.522   5.736   2.648
 4501TIP3    H213510   0.442   5.652   2.745
 4502TIP3   OH213511   0.587   2.382   0.341
 4502TIP3    H113512   0.514   2.430   0.379
 4502TIP3    H213513   0.657   2.387   0.407
 4503TIP3   OH213514   4.827   1.158   2.304
 4503TIP3    H113515   4.732   1.158   2.304
 4503TIP3    H213516   4.852   1.066   2.303
 4504TIP3   OH213517   0.834   5.563   3.207
 4504TIP3    H113518   0.779   5.545   3.283
 4504TIP3    H213519   0.775   5.604   3.144
 4505TIP3   OH213520   3.089   1.593   2.862
 4505TIP3    H113521   3.096   1.534   2.937
 4505TIP3    H213522   3.044   1.542   2.795
 4506TIP3   OH213523   3.089   1.088   4.684
 4506TIP3    H113524   3.126   1.125   4.604
 4506TIP3    H213525   3.166   1.067   4.738
 4507TIP3   OH213526   1.034   3.231   1.140
 4507TIP3    H113527   1.062   3.183   1.218
 4507TIP3    H213528   0.999   3.314   1.174
 4508TIP3   OH213529   3.304   4.313   4.739
 4508TIP3    H113530   3.218   4.272   4.749
 4508TIP3    H213531   3.366   4.242   4.758
 4509TIP3   OH213532   5.811   0.239   1.861
 4509TIP3    H113533   5.740   0.295   1.827
 4509TIP3    H213534   5.875   0.301   1.896
 4510TIP3   OH213535   2.711   2.934   0.933
 4510TIP3    H113536   2.627   2.949   0.891
 4510TIP3    H213537   2.690   2.902   1.020
 4511TIP3   OH213538   2.589   4.781   2.257
 4511TIP3    H113539   2.523   4.782   2.188
 4511TIP3    H213540   2.578   4.865   2.301
 4512TIP3   OH213541   1.852   1.424   3.902
 4512TIP3    H113542   1.927   1.367   3.918
 4512TIP3    H213543   1.802   1.422   3.984
 4513TIP3   OH213544   0.006   2.219   1.084
 4513TIP3    H113545  -0.010   2.127   1.106
 4513TIP3    H213546   0.073   2.216   1.016
 4514TIP3   OH213547   2.154   2.845   1.818
 4514TIP3    H113548   2.103   2.848   1.736
 4514TIP3    H213549   2.135   2.759   1.855
 4515TIP3   OH213550   3.111   3.389   2.283
 4515TIP3    H113551   3.017   3.404   2.296
 4515TIP3    H213552   3.135   3.327   2.353
 4516TIP3   OH213553   2.655   1.242   5.128
 4516TIP3    H113554   2.652   1.213   5.037
 4516TIP3    H213555   2.731   1.300   5.132
 4517TIP3   OH213556   3.261   2.071   0.673
 4517TIP3    H113557   3.233   2.153   0.633
 4517TIP3    H213558   3.200   2.057   0.745
 4518TIP3   OH213559   3.055   5.272   1.255
 4518TIP3    H113560   3.064   5.215   1.178
 4518TIP3    H213561   2.961   5.271   1.274
 4519TIP3   OH213562   4.751   0.311   3.197
 4519TIP3    H113563   4.731   0.405   3.191
 4519TIP3    H213564   4.774   0.286   3.108
 4520TIP3   OH213565   4.159   1.816   4.491
 4520TIP3    H113566   4.155   1.751   4.420
 4520TIP3    H213567   4.108   1.777   4.562
 4521TIP3   OH213568   0.754   0.073   1.547
 4521TIP3    H113569   0.742   0.095   1.455
 4521TIP3    H213570   0.847   0.052   1.555
 4522TIP3   OH213571   1.613   4.855   3.853
 4522TIP3    H113572   1.664   4.926   3.891
 4522TIP3    H213573   1.617   4.870   3.759
 4523TIP3   OH213574   3.062   3.511   3.613
 4523TIP3    H113575   3.091   3.532   3.524
 4523TIP3    H213576   2.968   3.527   3.612
 4524TIP3   OH213577   1.671   1.501   2.755
 4524TIP3    H113578   1.710   1.422   2.791
 4524TIP3    H213579   1.684   1.493   2.660
 4525TIP3   OH213580   4.926   5.277   1.943
 4525TIP3    H113581   4.897   5.365   1.918
 4525TIP3    H213582   4.864   5.250   2.011
 4526TIP3   OH213583   4.874   3.693   4.178
 4526TIP3    H113584   4.815   3.736   4.116
 4526TIP3    H213585   4.850   3.729   4.264
 4527TIP3   OH213586   2.863   3.065   1.528
 4527TIP3    H113587   2.791   3.109   1.484
 4527TIP3    H213588   2.821   3.007   1.591
 4528TIP3   OH213589   5.977   5.040   0.805
 4528TIP3    H113590   6.014   5.127   0.791
 4528TIP3    H213591   6.053   4.983   0.817
 4529TIP3   OH213592   2.096   3.455   1.098
 4529TIP3    H113593   2.156   3.384   1.075
 4529TIP3    H213594   2.136   3.533   1.061
 4530TIP3   OH213595   1.870   5.610   2.554
 4530TIP3    H113596   1.777   5.634   2.561
 4530TIP3    H213597   1.917   5.692   2.569
 4531TIP3   OH213598   3.515   5.282   1.805
 4531TIP3    H113599   3.429   5.319   1.788
 4531TIP3    H213600   3.505   5.188   1.790
 4532TIP3   OH213601   2.102   2.976   0.247
 4532TIP3    H113602   2.041   2.996   0.319
 4532TIP3    H213603   2.167   3.046   0.251
 4533TIP3   OH213604   4.773   2.785   4.853
 4533TIP3    H113605   4.685   2.795   4.818
 4533TIP3    H213606   4.819   2.864   4.826
 4534TIP3   OH213607   3.141   3.788   2.105
 4534TIP3    H113608   3.124   3.866   2.053
 4534TIP3    H213609   3.200   3.735   2.052
 4535TIP3   OH213610   2.859   3.972   2.957
 4535TIP3    H113611   2.791   3.941   2.898
 4535TIP3    H213612   2.814   4.032   3.016
 4536TIP3   OH213613   1.297   2.590   3.201
 4536TIP3    H113614   1.301   2.567   3.108
 4536TIP3    H213615   1.344   2.520   3.246
 4537TIP3   OH213616   3.432   0.141   4.186
 4537TIP3    H113617   3.395   0.228   4.199
 4537TIP3    H213618   3.436   0.103   4.274
 4538TIP3   OH213619   2.170   0.549   4.872
 4538TIP3    H113620   2.186   0.632   4.827
 4538TIP3    H213621   2.148   0.487   4.802
 4539TIP3   OH213622   4.913   0.930   3.444
 4539TIP3    H113623   4.906   0.834   3.445
 4539TIP3    H213624   4.830   0.961   3.479
 4540TIP3   OH213625   4.964   2.874   1.825
 4540TIP3    H113626   4.926   2.961   1.825
 4540TIP3    H213627   5.025   2.875   1.751
 4541TIP3   OH213628   4.429   2.535   2.485
 4541TIP3    H113629   4.462   2.624   2.496
 4541TIP3    H213630   4.507   2.479   2.488
 4542TIP3   OH213631   3.265   0.139   2.679
 4542TIP3    H113632   3.342   0.131   2.735
 4542TIP3    H213633   3.217   0.214   2.714
 4543TIP3   OH213634   3.772   1.355   4.843
 4543TIP3    H113635   3.861   1.345   4.875
 4543TIP3    H213636   3.743   1.440   4.876
 4544TIP3   OH213637   2.786   0.319   1.148
 4544TIP3    H113638   2.698   0.344   1.119
 4544TIP3    H213639   2.795   0.358   1.235
 4545TIP3   OH213640   3.070   0.272   1.200
 4545TIP3    H113641   3.009   0.328   1.151
 4545TIP3    H213642   3.085   0.318   1.282
 4546TIP3   OH213643   1.926   0.234   2.067
 4546TIP3    H113644   1.912   0.186   2.148
 4546TIP3    H213645   1.878   0.316   2.079
 4547TIP3   OH213646   0.860   1.382   4.671
 4547TIP3    H113647   0.942   1.430   4.657
 4547TIP3    H213648   0.878   1.295   4.638
 4548TIP3   OH213649   2.850   1.496   4.285
 4548TIP3    H113650   2.937   1.529   4.307
 4548TIP3    H213651   2.803   1.573   4.253
 4549TIP3   OH213652   2.143   4.602   2.966
 4549TIP3    H113653   2.168   4.593   2.874
 4549TIP3    H213654   2.207   4.547   3.013
 4550TIP3   OH213655   1.387   4.751   0.474
 4550TIP3    H113656   1.361   4.832   0.430
 4550TIP3    H213657   1.380   4.684   0.406
 4551TIP3   OH213658   4.419   1.359   1.373
 4551TIP3    H113659   4.487   1.311   1.420
 4551TIP3    H213660   4.413   1.314   1.288
 4552TIP3   OH213661   4.438   5.472   4.332
 4552TIP3    H113662   4.444   5.567   4.344
 4552TIP3    H213663   4.495   5.436   4.400
 4553TIP3   OH213664   1.103   1.102   3.234
 4553TIP3    H113665   1.058   1.114   3.150
 4553TIP3    H213666   1.053   1.156   3.296
 4554TIP3   OH213667   3.898   0.329   1.525
 4554TIP3    H113668   3.807   0.322   1.554
 4554TIP3    H213669   3.943   0.373   1.597
 4555TIP3   OH213670   4.920   0.217   1.083
 4555TIP3    H113671   4.971   0.293   1.054
 4555TIP3    H213672   4.986   0.152   1.107
 4556TIP3   OH213673   2.657   1.083   4.062
 4556TIP3    H113674   2.608   1.163   4.081
 4556TIP3    H213675   2.734   1.113   4.014
 4557TIP3   OH213676   3.551   3.472   3.917
 4557TIP3    H113677   3.630   3.489   3.866
 4557TIP3    H213678   3.580   3.476   4.008
 4558TIP3   OH213679   5.768   5.287   3.282
 4558TIP3    H113680   5.829   5.358   3.304
 4558TIP3    H213681   5.688   5.309   3.330
 4559TIP3   OH213682   2.765   4.608   4.243
 4559TIP3    H113683   2.676   4.607   4.207
 4559TIP3    H213684   2.822   4.597   4.167
 4560TIP3   OH213685   3.648   1.472   0.869
 4560TIP3    H113686   3.660   1.491   0.962
 4560TIP3    H213687   3.565   1.425   0.864
 4561TIP3   OH213688   0.895   4.923   2.138
 4561TIP3    H113689   0.990   4.926   2.149
 4561TIP3    H213690   0.877   4.835   2.105
 4562TIP3   OH213691   2.536   3.928   2.270
 4562TIP3    H113692   2.441   3.943   2.277
 4562TIP3    H213693   2.554   3.932   2.176
 4563TIP3   OH213694   3.674   5.775   0.255
 4563TIP3    H113695   3.646   5.684   0.271
 4563TIP3    H213696   3.754   5.785   0.306
 4564TIP3   OH213697   1.988   0.377   4.530
 4564TIP3    H113698   1.958   0.432   4.457
 4564TIP3    H213699   1.908   0.337   4.564
 4565TIP3   OH213700   0.810   3.217   3.517
 4565TIP3    H113701   0.812   3.178   3.429
 4565TIP3    H213702   0.901   3.215   3.546
 4566TIP3   OH213703   5.201   3.366   0.751
 4566TIP3    H113704   5.184   3.423   0.826
 4566TIP3    H213705   5.126   3.380   0.693
 4567TIP3   OH213706   5.971   4.565   1.968
 4567TIP3    H113707   5.877   4.551   1.979
 4567TIP3    H213708   6.004   4.479   1.942
 4568TIP3   OH213709   5.285   0.307   1.859
 4568TIP3    H113710   5.224   0.298   1.933
 4568TIP3    H213711   5.284   0.400   1.839
 4569TIP3   OH213712   1.775   4.589   1.543
 4569TIP3    H113713   1.791   4.628   1.629
 4569TIP3    H213714   1.859   4.594   1.498
 4570TIP3   OH213715   0.607   2.156   1.367
 4570TIP3    H113716   0.564   2.077   1.397
 4570TIP3    H213717   0.695   2.151   1.404
 4571TIP3   OH213718   4.902   4.097   1.983
 4571TIP3    H113719   4.971   4.120   2.045
 4571TIP3    H213720   4.941   4.031   1.926
 4572TIP3   OH213721   5.202   2.967  -0.040
 4572TIP3    H113722   5.151   2.886  -0.036
 4572TIP3    H213723   5.255   2.958  -0.119
 4573TIP3   OH213724   4.811   5.546   1.858
 4573TIP3    H113725   4.772   5.631   1.880
 4573TIP3    H213726   4.904   5.557   1.875
 4574TIP3   OH213727   2.671   2.433   1.456
 4574TIP3    H113728   2.649   2.343   1.481
 4574TIP3    H213729   2.733   2.462   1.523
 4575TIP3   OH213730   6.104   5.011   3.237
 4575TIP3    H113731   6.030   5.071   3.224
 4575TIP3    H213732   6.125   5.020   3.330
 4576TIP3   OH213733   2.656   5.695   0.919
 4576TIP3    H113734   2.709   5.727   0.992
 4576TIP3    H213735   2.579   5.657   0.960
 4577TIP3   OH213736   5.185   1.625   0.465
 4577TIP3    H113737   5.234   1.591   0.540
 4577TIP3    H213738   5.126   1.690   0.503
 4578TIP3   OH213739   6.315   1.323   4.561
 4578TIP3    H113740   6.386   1.351   4.618
 4578TIP3    H213741   6.255   1.276   4.618
 4579TIP3   OH213742   5.233   2.636   3.756
 4579TIP3    H113743   5.206   2.582   3.681
 4579TIP3    H213744   5.262   2.719   3.717
 4580TIP3   OH213745   4.822   1.068   2.711
 4580TIP3    H113746   4.868   1.038   2.789
 4580TIP3    H213747   4.874   1.034   2.638
 4581TIP3   OH213748   0.298   1.487   4.027
 4581TIP3    H113749   0.393   1.488   4.018
 4581TIP3    H213750   0.271   1.576   4.005
 4582TIP3   OH213751   4.316   1.433   2.257
 4582TIP3    H113752   4.316   1.341   2.283
 4582TIP3    H213753   4.268   1.434   2.174
 4583TIP3   OH213754   3.791   1.876   4.687
 4583TIP3    H113755   3.782   1.907   4.778
 4583TIP3    H213756   3.701   1.875   4.654
 4584TIP3   OH213757   4.830   3.496   3.671
 4584TIP3    H113758   4.811   3.472   3.761
 4584TIP3    H213759   4.925   3.509   3.669
 4585TIP3   OH213760   0.105   4.337   2.407
 4585TIP3    H113761   0.067   4.377   2.329
 4585TIP3    H213762   0.191   4.306   2.379
 4586TIP3   OH213763   4.021   3.705   1.993
 4586TIP3    H113764   4.006   3.773   1.927
 4586TIP3    H213765   4.100   3.733   2.039
 4587TIP3   OH213766   0.257   5.507   3.282
 4587TIP3    H113767   0.247   5.592   3.327
 4587TIP3    H213768   0.282   5.531   3.193
 4588TIP3   OH213769   0.609   4.591   1.210
 4588TIP3    H113770   0.516   4.597   1.228
 4588TIP3    H213771   0.640   4.682   1.211
 4589TIP3   OH213772   3.510   2.807   1.892
 4589TIP3    H113773   3.467   2.860   1.825
 4589TIP3    H213774   3.604   2.822   1.877
 4590TIP3   OH213775   4.942   5.270   2.767
 4590TIP3    H113776   4.906   5.357   2.752
 4590TIP3    H213777   4.925   5.253   2.860
 4591TIP3   OH213778   4.458   2.969   5.041
 4591TIP3    H113779   4.410   2.899   5.084
 4591TIP3    H213780   4.548   2.961   5.073
 4592TIP3   OH213781   2.554   5.019   0.601
 4592TIP3    H113782   2.627   4.959   0.609
 4592TIP3    H213783   2.528   5.015   0.509
 4593TIP3   OH213784   0.724   5.142   0.273
 4593TIP3    H113785   0.819   5.149   0.265
 4593TIP3    H213786   0.693   5.232   0.280
 4594TIP3   OH213787   6.301   0.253   4.855
 4594TIP3    H113788   6.322   0.274   4.946
 4594TIP3    H213789   6.280   0.159   4.857
 4595TIP3   OH213790   6.243   5.592   5.099
 4595TIP3    H113791   6.166   5.539   5.122
 4595TIP3    H213792   6.305   5.578   5.171
 4596TIP3   OH213793   6.049   0.180   5.110
 4596TIP3    H113794   6.069   0.259   5.061
 4596TIP3    H213795   6.026   0.211   5.198
 4597TIP3   OH213796   3.640   0.958   2.750
 4597TIP3    H113797   3.571   0.904   2.713
 4597TIP3    H213798   3.697   0.897   2.796
 4598TIP3   OH213799   2.551   1.812   1.648
 4598TIP3    H113800   2.598   1.754   1.587
 4598TIP3    H213801   2.529   1.755   1.722
 4599TIP3   OH213802   5.659   5.575   3.033
 4599TIP3    H113803   5.754   5.572   3.033
 4599TIP3    H213804   5.638   5.666   3.012
 4600TIP3   OH213805   2.165   1.080   2.252
 4600TIP3    H113806   2.091   1.052   2.306
 4600TIP3    H213807   2.227   1.119   2.314
 4601TIP3   OH213808   5.518   2.095   0.337
 4601TIP3    H113809   5.426   2.073   0.349
 4601TIP3    H213810   5.538   2.069   0.247
 4602TIP3   OH213811   4.852   2.518   3.760
 4602TIP3    H113812   4.758   2.537   3.759
 4602TIP3    H213813   4.892   2.592   3.715
 4603TIP3   OH213814   0.539   1.186   2.455
 4603TIP3    H113815   0.523   1.165   2.363
 4603TIP3    H213816   0.611   1.249   2.453
 4604TIP3   OH213817   4.049   1.946   3.022
 4604TIP3    H113818   4.071   1.858   3.053
 4604TIP3    H213819   4.133   1.992   3.018
 4605TIP3   OH213820   4.997   3.102   0.837
 4605TIP3    H113821   4.934   3.083   0.907
 4605TIP3    H213822   4.980   3.035   0.772
 4606TIP3   OH213823   5.722   4.479   2.069
 4606TIP3    H113824   5.755   4.390   2.061
 4606TIP3    H213825   5.634   4.470   2.105
 4607TIP3   OH213826   3.394   2.664   4.679
 4607TIP3    H113827   3.360   2.587   4.724
 4607TIP3    H213828   3.433   2.717   4.749
 4608TIP3   OH213829   0.098   0.203   0.105
 4608TIP3    H113830   0.067   0.187   0.194
 4608TIP3    H213831   0.133   0.292   0.106
 4609TIP3   OH213832   5.746   0.816   0.037
 4609TIP3    H113833   5.830   0.796  -0.003
 4609TIP3    H213834   5.715   0.894  -0.008
 4610TIP3   OH213835   1.071   4.889   3.846
 4610TIP3    H113836   1.067   4.981   3.871
 4610TIP3    H213837   1.047   4.841   3.926
 4611TIP3   OH213838   4.033   4.478   0.619
 4611TIP3    H113839   4.105   4.539   0.635
 4611TIP3    H213840   4.005   4.496   0.530
 4612TIP3   OH213841   5.960   3.840   1.965
 4612TIP3    H113842   5.912   3.793   1.896
 4612TIP3    H213843   5.910   3.824   2.045
 4613TIP3   OH213844   0.489   0.499   4.481
 4613TIP3    H113845   0.534   0.430   4.529
 4613TIP3    H213846   0.553   0.529   4.417
 4614TIP3   OH213847   3.650   2.514   4.955
 4614TIP3    H113848   3.640   2.431   5.001
 4614TIP3    H213849   3.570   2.522   4.903
 4615TIP3   OH213850   4.707   3.906   0.410
 4615TIP3    H113851   4.749   3.951   0.337
 4615TIP3    H213852   4.619   3.886   0.378
 4616TIP3   OH213853   0.592   3.063   4.913
 4616TIP3    H113854   0.601   2.970   4.893
 4616TIP3    H213855   0.500   3.073   4.938
 4617TIP3   OH213856   4.845   5.904   2.283
 4617TIP3    H113857   4.923   5.903   2.339
 4617TIP3    H213858   4.877   5.932   2.197
 4618TIP3   OH213859   0.687   5.666   3.003
 4618TIP3    H113860   0.755   5.688   2.939
 4618TIP3    H213861   0.669   5.748   3.048
 4619TIP3   OH213862   4.562   5.716   4.417
 4619TIP3    H113863   4.619   5.751   4.348
 4619TIP3    H213864   4.504   5.789   4.439
 4620TIP3   OH213865   5.209   1.188   5.022
 4620TIP3    H113866   5.156   1.253   4.976
 4620TIP3    H213867   5.277   1.164   4.959
 4621TIP3   OH213868   2.535   0.694   2.143
 4621TIP3    H113869   2.486   0.774   2.164
 4621TIP3    H213870   2.469   0.635   2.104
 4622TIP3   OH213871   3.166   2.247   0.175
 4622TIP3    H113872   3.138   2.251   0.267
 4622TIP3    H213873   3.248   2.197   0.178
 4623TIP3   OH213874   2.045   3.897   3.822
 4623TIP3    H113875   2.131   3.883   3.781
 4623TIP3    H213876   2.026   3.989   3.804
 4624TIP3   OH213877   4.869   0.466   2.238
 4624TIP3    H113878   4.782   0.478   2.277
 4624TIP3    H213879   4.866   0.378   2.201
 4625TIP3   OH213880   3.783   4.996   2.077
 4625TIP3    H113881   3.777   4.944   2.157
 4625TIP3    H213882   3.832   4.941   2.016
 4626TIP3   OH213883   3.725   5.078   0.546
 4626TIP3    H113884   3.677   4.997   0.562
 4626TIP3    H213885   3.697   5.137   0.617
 4627TIP3   OH213886   6.251   3.501   3.055
 4627TIP3    H113887   6.222   3.411   3.066
 4627TIP3    H213888   6.346   3.497   3.066
 4628TIP3   OH213889   2.492   1.744   4.616
 4628TIP3    H113890   2.428   1.802   4.657
 4628TIP3    H213891   2.441   1.693   4.553
 4629TIP3   OH213892   1.410   2.309   3.128
 4629TIP3    H113893   1.490   2.360   3.112
 4629TIP3    H213894   1.359   2.319   3.047
 4630TIP3   OH213895   1.757   4.359   1.185
 4630TIP3    H113896   1.754   4.454   1.175
 4630TIP3    H213897   1.844   4.342   1.223
 4631TIP3   OH213898   1.419   0.514   4.703
 4631TIP3    H113899   1.337   0.478   4.736
 4631TIP3    H213900   1.397   0.550   4.617
 4632TIP3   OH213901   1.683   4.067   3.675
 4632TIP3    H113902   1.685   4.014   3.596
 4632TIP3    H213903   1.590   4.079   3.694
 4633TIP3   OH213904   3.864   2.554   2.905
 4633TIP3    H113905   3.914   2.617   2.958
 4633TIP3    H213906   3.873   2.471   2.953
 4634TIP3   OH213907   1.116   1.510   0.111
 4634TIP3    H113908   1.040   1.490   0.057
 4634TIP3    H213909   1.099   1.597   0.146
 4635TIP3   OH213910   5.190   0.913   3.171
 4635TIP3    H113911   5.114   0.858   3.156
 4635TIP3    H213912   5.160   1.002   3.152
 4636TIP3   OH213913   3.491   5.341   3.938
 4636TIP3    H113914   3.416   5.320   3.994
 4636TIP3    H213915   3.451   5.371   3.856
 4637TIP3   OH213916   5.051   1.591   3.019
 4637TIP3    H113917   5.080   1.509   3.060
 4637TIP3    H213918   5.129   1.622   2.972
 4638TIP3   OH213919   4.912   2.351   2.769
 4638TIP3    H113920   4.948   2.378   2.685
 4638TIP3    H213921   4.884   2.260   2.755
 4639TIP3   OH213922   5.470   5.772   2.238
 4639TIP3    H113923   5.513   5.800   2.318
 4639TIP3    H213924   5.529   5.706   2.201
 4640TIP3   OH213925   0.441   1.758   3.240
 4640TIP3    H113926   0.371   1.759   3.305
 4640TIP3    H213927   0.426   1.836   3.187
 4641TIP3   OH213928   2.415   2.280   3.399
 4641TIP3    H113929   2.423   2.375   3.393
 4641TIP3    H213930   2.355   2.265   3.472
 4642TIP3   OH213931   1.288   5.091   3.755
 4642TIP3    H113932   1.381   5.108   3.770
 4642TIP3    H213933   1.243   5.161   3.801
 4643TIP3   OH213934   5.295   3.183   2.567
 4643TIP3    H113935   5.289   3.268   2.610
 4643TIP3    H213936   5.310   3.121   2.639
 4644TIP3   OH213937   0.335   4.174   1.529
 4644TIP3    H113938   0.408   4.135   1.579
 4644TIP3    H213939   0.289   4.098   1.493
 4645TIP3   OH213940   2.993   3.875   5.011
 4645TIP3    H113941   3.033   3.884   4.925
 4645TIP3    H213942   2.899   3.868   4.993
 4646TIP3   OH213943   1.920   0.943   1.211
 4646TIP3    H113944   1.885   0.873   1.266
 4646TIP3    H213945   1.953   1.008   1.273
 4647TIP3   OH213946   1.984   3.352   4.482
 4647TIP3    H113947   2.013   3.438   4.510
 4647TIP3    H213948   2.011   3.293   4.552
 4648TIP3   OH213949   4.706   1.278   4.910
 4648TIP3    H113950   4.754   1.324   4.979
 4648TIP3    H213951   4.693   1.344   4.842
 4649TIP3   OH213952   5.312   2.172   4.168
 4649TIP3    H113953   5.228   2.186   4.125
 4649TIP3    H213954   5.377   2.185   4.099
 4650TIP3   OH213955   4.357   5.195   1.764
 4650TIP3    H113956   4.278   5.241   1.791
 4650TIP3    H213957   4.328   5.104   1.750
 4651TIP3   OH213958   0.251   3.626   2.631
 4651TIP3    H113959   0.250   3.628   2.536
 4651TIP3    H213960   0.325   3.569   2.654
 4652TIP3   OH213961   6.170   3.391   2.395
 4652TIP3    H113962   6.147   3.435   2.477
 4652TIP3    H213963   6.107   3.425   2.332
 4653TIP3   OH213964   0.991   0.167   3.273
 4653TIP3    H113965   0.990   0.241   3.333
 4653TIP3    H213966   1.084   0.152   3.255
 4654TIP3   OH213967   1.852   2.536   2.852
 4654TIP3    H113968   1.844   2.471   2.921
 4654TIP3    H213969   1.762   2.568   2.839
 4655TIP3   OH213970   4.564   1.064   2.342
 4655TIP3    H113971   4.470   1.070   2.322
 4655TIP3    H213972   4.570   1.083   2.436
 4656TIP3   OH213973   6.265   0.521   3.723
 4656TIP3    H113974   6.187   0.572   3.700
 4656TIP3    H213975   6.322   0.530   3.647
 4657TIP3   OH213976   3.119   2.730   2.050
 4657TIP3    H113977   3.043   2.678   2.076
 4657TIP3    H213978   3.124   2.800   2.116
 4658TIP3   OH213979   3.662   5.556   4.005
 4658TIP3    H113980   3.743   5.535   4.052
 4658TIP3    H213981   3.621   5.471   3.989
 4659TIP3   OH213982   3.768   5.097   0.263
 4659TIP3    H113983   3.798   5.188   0.275
 4659TIP3    H213984   3.735   5.072   0.349
 4660TIP3   OH213985   2.525   4.226   1.604
 4660TIP3    H113986   2.462   4.202   1.672
 4660TIP3    H213987   2.550   4.316   1.624
 4661TIP3   OH213988   1.544   2.957   1.063
 4661TIP3    H113989   1.475   2.912   1.112
 4661TIP3    H213990   1.582   3.018   1.126
 4662TIP3   OH213991   4.076   5.910   1.588
 4662TIP3    H113992   4.139   5.857   1.635
 4662TIP3    H213993   4.127   5.984   1.554
 4663TIP3   OH213994   6.149   0.278   2.322
 4663TIP3    H113995   6.127   0.337   2.394
 4663TIP3    H213996   6.110   0.194   2.346
 4664TIP3   OH213997   3.767   3.792   5.017
 4664TIP3    H113998   3.818   3.785   4.936
 4664TIP3    H213999   3.729   3.880   5.013
 4665TIP3   OH214000   2.398   3.457   4.435
 4665TIP3    H114001   2.313   3.448   4.392
 4665TIP3    H214002   2.462   3.432   4.368
 4666TIP3   OH214003   2.179   4.218   4.896
 4666TIP3    H114004   2.108   4.282   4.890
 4666TIP3    H214005   2.247   4.251   4.837
 4667TIP3   OH214006   4.744   1.537   0.479
 4667TIP3    H114007   4.829   1.504   0.510
 4667TIP3    H214008   4.686   1.525   0.554
 4668TIP3   OH214009   1.076   5.407   1.791
 4668TIP3    H114010   1.134   5.414   1.867
 4668TIP3    H214011   1.013   5.339   1.817
 4669TIP3   OH214012   1.008   5.396   0.825
 4669TIP3    H114013   0.986   5.475   0.875
 4669TIP3    H214014   1.103   5.399   0.814
 4670TIP3   OH214015   5.786   0.452   3.073
 4670TIP3    H114016   5.819   0.408   2.994
 4670TIP3    H214017   5.785   0.384   3.140
 4671TIP3   OH214018   0.969   5.936   0.402
 4671TIP3    H114019   0.909   5.943   0.328
 4671TIP3    H214020   1.035   5.873   0.373
 4672TIP3   OH214021   4.068   4.884   4.824
 4672TIP3    H114022   3.976   4.887   4.851
 4672TIP3    H214023   4.069   4.828   4.747
 4673TIP3   OH214024   0.887   5.073   3.897
 4673TIP3    H114025   0.863   5.065   3.805
 4673TIP3    H214026   0.843   5.000   3.940
 4674TIP3   OH214027   6.087   4.704   2.271
 4674TIP3    H114028   6.017   4.683   2.210
 4674TIP3    H214029   6.058   4.667   2.354
 4675TIP3   OH214030   1.418   5.333   1.682
 4675TIP3    H114031   1.389   5.324   1.773
 4675TIP3    H214032   1.494   5.392   1.686
 4676TIP3   OH214033   4.466   2.559   1.743
 4676TIP3    H114034   4.482   2.469   1.771
 4676TIP3    H214035   4.551   2.593   1.717
 4677TIP3   OH214036   2.887   5.674   4.694
 4677TIP3    H114037   2.868   5.632   4.778
 4677TIP3    H214038   2.971   5.718   4.706
 4678TIP3   OH214039   0.281   2.553   1.802
 4678TIP3    H114040   0.204   2.609   1.808
 4678TIP3    H214041   0.249   2.465   1.822
 4679TIP3   OH214042   2.377   1.543   0.368
 4679TIP3    H114043   2.449   1.482   0.381
 4679TIP3    H214044   2.379   1.601   0.444
 4680TIP3   OH214045   0.305   5.201   2.764
 4680TIP3    H114046   0.268   5.184   2.678
 4680TIP3    H214047   0.394   5.166   2.759
 4681TIP3   OH214048   3.651   0.345   3.937
 4681TIP3    H114049   3.603   0.428   3.938
 4681TIP3    H214050   3.740   0.369   3.962
 4682TIP3   OH214051   3.031   5.775   1.268
 4682TIP3    H114052   3.080   5.706   1.223
 4682TIP3    H214053   3.075   5.784   1.353
 4683TIP3   OH214054   5.539   1.834   3.488
 4683TIP3    H114055   5.496   1.766   3.437
 4683TIP3    H214056   5.571   1.790   3.567
 4684TIP3   OH214057   5.056   0.435   0.056
 4684TIP3    H114058   4.971   0.478   0.067
 4684TIP3    H214059   5.120   0.505   0.067
 4685TIP3   OH214060   5.304   0.484   1.374
 4685TIP3    H114061   5.258   0.446   1.299
 4685TIP3    H214062   5.272   0.574   1.379
 4686TIP3   OH214063   5.131   0.590   3.957
 4686TIP3    H114064   5.164   0.645   4.028
 4686TIP3    H214065   5.049   0.630   3.931
 4687TIP3   OH214066   4.066   1.115   4.392
 4687TIP3    H114067   4.074   1.064   4.312
 4687TIP3    H214068   3.995   1.176   4.374
 4688TIP3   OH214069   0.390   2.323   1.165
 4688TIP3    H114070   0.344   2.267   1.227
 4688TIP3    H214071   0.326   2.390   1.141
 4689TIP3   OH214072   1.426   1.149   1.364
 4689TIP3    H114073   1.499   1.161   1.302
 4689TIP3    H214074   1.468   1.144   1.450
 4690TIP3   OH214075   4.932   2.054   5.065
 4690TIP3    H114076   4.940   2.143   5.101
 4690TIP3    H214077   5.016   2.013   5.083
 4691TIP3   OH214078   0.972   3.911   1.386
 4691TIP3    H114079   1.067   3.898   1.385
 4691TIP3    H214080   0.960   4.003   1.406
 4692TIP3   OH214081   6.300   1.922   2.298
 4692TIP3    H114082   6.209   1.899   2.279
 4692TIP3    H214083   6.351   1.874   2.233
 4693TIP3   OH214084   2.715   5.106   3.160
 4693TIP3    H114085   2.683   5.028   3.205
 4693TIP3    H214086   2.738   5.076   3.072
 4694TIP3   OH214087   6.256   1.348   2.622
 4694TIP3    H114088   6.217   1.273   2.576
 4694TIP3    H214089   6.182   1.404   2.643
 4695TIP3   OH214090   5.705   4.126   2.870
 4695TIP3    H114091   5.651   4.144   2.793
 4695TIP3    H214092   5.729   4.213   2.903
 4696TIP3   OH214093   4.169   3.623   3.175
 4696TIP3    H114094   4.080   3.638   3.205
 4696TIP3    H214095   4.219   3.608   3.256
 4697TIP3   OH214096   4.068   5.519   5.022
 4697TIP3    H114097   4.161   5.503   5.007
 4697TIP3    H214098   4.043   5.581   4.953
 4698TIP3   OH214099   4.309   2.081   3.031
 4698TIP3    H114100   4.300   2.150   3.096
 4698TIP3    H214101   4.397   2.047   3.044
 4699TIP3   OH214102   2.866   5.801   1.674
 4699TIP3    H114103   2.946   5.796   1.725
 4699TIP3    H214104   2.865   5.721   1.622
 4700TIP3   OH214105   0.610   2.468   4.340
 4700TIP3    H114106   0.548   2.487   4.410
 4700TIP3    H214107   0.554   2.451   4.263
 4701TIP3   OH214108   4.550   1.909   1.768
 4701TIP3    H114109   4.621   1.938   1.710
 4701TIP3    H214110   4.595   1.857   1.835
 4702TIP3   OH214111   1.217   2.492   2.488
 4702TIP3    H114112   1.309   2.474   2.468
 4702TIP3    H214113   1.182   2.530   2.408
 4703TIP3   OH214114   3.366   3.530   1.773
 4703TIP3    H114115   3.271   3.537   1.780
 4703TIP3    H214116   3.381   3.442   1.739
 4704TIP3   OH214117   1.388   3.616   0.599
 4704TIP3    H114118   1.437   3.577   0.672
 4704TIP3    H214119   1.454   3.667   0.551
 4705TIP3   OH214120   2.015   1.654   2.567
 4705TIP3    H114121   2.023   1.604   2.486
 4705TIP3    H214122   2.091   1.628   2.619
 4706TIP3   OH214123   1.511   2.082   1.441
 4706TIP3    H114124   1.483   2.138   1.369
 4706TIP3    H214125   1.533   1.998   1.399
 4707TIP3   OH214126   4.296   1.880   0.577
 4707TIP3    H114127   4.217   1.916   0.618
 4707TIP3    H214128   4.297   1.788   0.605
 4708TIP3   OH214129   5.231   1.143   1.576
 4708TIP3    H114130   5.208   1.094   1.497
 4708TIP3    H214131   5.327   1.139   1.580
 4709TIP3   OH214132   4.098   3.111   3.457
 4709TIP3    H114133   4.172   3.160   3.421
 4709TIP3    H214134   4.121   3.097   3.549
 4710TIP3   OH214135   2.425   4.530   3.569
 4710TIP3    H114136   2.393   4.448   3.605
 4710TIP3    H214137   2.521   4.524   3.576
 4711TIP3   OH214138   5.534   4.128   4.046
 4711TIP3    H114139   5.545   4.214   4.007
 4711TIP3    H214140   5.569   4.067   3.981
 4712TIP3   OH214141   2.548   4.835   1.032
 4712TIP3    H114142   2.551   4.911   0.974
 4712TIP3    H214143   2.635   4.831   1.071
 4713TIP3   OH214144   1.603   0.734   4.960
 4713TIP3    H114145   1.512   0.706   4.946
 4713TIP3    H214146   1.597   0.802   5.027
 4714TIP3   OH214147   1.654   5.459   0.443
 4714TIP3    H114148   1.685   5.381   0.490
 4714TIP3    H214149   1.712   5.465   0.367
 4715TIP3   OH214150   4.724   4.316   1.251
 4715TIP3    H114151   4.643   4.353   1.288
 4715TIP3    H214152   4.701   4.225   1.231
 4716TIP3   OH214153   2.239   4.043   5.092
 4716TIP3    H114154   2.206   4.119   5.044
 4716TIP3    H214155   2.333   4.041   5.074
 4717TIP3   OH214156   5.058   2.892   0.640
 4717TIP3    H114157   5.150   2.911   0.660
 4717TIP3    H214158   5.060   2.851   0.554
 4718TIP3   OH214159   4.445   3.903   0.287
 4718TIP3    H114160   4.409   3.987   0.259
 4718TIP3    H214161   4.427   3.844   0.213
 4719TIP3   OH214162   2.470   0.052   4.451
 4719TIP3    H114163   2.508   0.096   4.527
 4719TIP3    H214164   2.473  -0.041   4.473
 4720TIP3   OH214165   5.649   5.711   1.694
 4720TIP3    H114166   5.727   5.755   1.726
 4720TIP3    H214167   5.594   5.782   1.659
 4721TIP3   OH214168   3.639   4.960   3.459
 4721TIP3    H114169   3.632   5.026   3.390
 4721TIP3    H214170   3.622   5.009   3.540
 4722TIP3   OH214171   1.377   1.875   3.993
 4722TIP3    H114172   1.411   1.918   3.915
 4722TIP3    H214173   1.290   1.912   4.006
 4723TIP3   OH214174   3.613   0.754   4.907
 4723TIP3    H114175   3.527   0.795   4.895
 4723TIP3    H214176   3.598   0.662   4.884
 4724TIP3   OH214177   1.655   3.928   3.440
 4724TIP3    H114178   1.630   3.835   3.442
 4724TIP3    H214179   1.622   3.960   3.356
 4725TIP3   OH214180   5.630   4.071   1.815
 4725TIP3    H114181   5.705   4.050   1.760
 4725TIP3    H214182   5.586   4.143   1.768
 4726TIP3   OH214183   1.540   3.536   1.457
 4726TIP3    H114184   1.539   3.607   1.393
 4726TIP3    H214185   1.455   3.541   1.500
 4727TIP3   OH214186   1.931   4.832   1.536
 4727TIP3    H114187   1.843   4.811   1.569
 4727TIP3    H214188   1.922   4.919   1.498
 4728TIP3   OH214189   1.434   3.923   1.110
 4728TIP3    H114190   1.400   4.010   1.131
 4728TIP3    H214191   1.465   3.931   1.019
 4729TIP3   OH214192   0.254   4.466   3.834
 4729TIP3    H114193   0.266   4.373   3.816
 4729TIP3    H214194   0.161   4.482   3.820
 4730TIP3   OH214195   3.106   1.168   0.299
 4730TIP3    H114196   3.097   1.109   0.375
 4730TIP3    H214197   3.032   1.228   0.308
 4731TIP3   OH214198   1.956   4.214   4.148
 4731TIP3    H114199   2.027   4.155   4.125
 4731TIP3    H214200   1.939   4.264   4.068
 4732TIP3   OH214201   6.242   6.033   2.399
 4732TIP3    H114202   6.178   5.994   2.459
 4732TIP3    H214203   6.252   5.969   2.329
 4733TIP3   OH214204   6.307   3.592   0.777
 4733TIP3    H114205   6.284   3.503   0.803
 4733TIP3    H214206   6.331   3.636   0.859
 4734TIP3   OH214207   1.313   3.623   3.935
 4734TIP3    H114208   1.312   3.567   4.013
 4734TIP3    H214209   1.384   3.685   3.950
 4735TIP3   OH214210   0.418   1.088   2.205
 4735TIP3    H114211   0.328   1.073   2.174
 4735TIP3    H214212   0.418   1.055   2.295
 4736TIP3   OH214213   3.349   4.967   2.582
 4736TIP3    H114214   3.297   4.933   2.654
 4736TIP3    H214215   3.289   5.026   2.535
 4737TIP3   OH214216   0.313   4.069   1.096
 4737TIP3    H114217   0.385   4.133   1.092
 4737TIP3    H214218   0.255   4.093   1.024
 4738TIP3   OH214219   1.094   5.595   1.039
 4738TIP3    H114220   1.097   5.640   0.955
 4738TIP3    H214221   1.185   5.591   1.068
 4739TIP3   OH214222   5.187   5.714   1.547
 4739TIP3    H114223   5.127   5.688   1.478
 4739TIP3    H214224   5.253   5.645   1.549
 4740TIP3   OH214225   2.461   3.493   3.109
 4740TIP3    H114226   2.422   3.447   3.184
 4740TIP3    H214227   2.510   3.424   3.063
 4741TIP3   OH214228   4.012   4.722   0.742
 4741TIP3    H114229   3.994   4.816   0.739
 4741TIP3    H214230   4.070   4.711   0.818
 4742TIP3   OH214231   0.572   1.626   4.138
 4742TIP3    H114232   0.655   1.629   4.187
 4742TIP3    H214233   0.583   1.693   4.070
 4743TIP3   OH214234   2.042   4.853   5.003
 4743TIP3    H114235   2.112   4.869   5.066
 4743TIP3    H214236   2.006   4.940   4.984
 4744TIP3   OH214237   2.149   5.889   4.609
 4744TIP3    H114238   2.170   5.875   4.701
 4744TIP3    H214239   2.231   5.872   4.562
 4745TIP3   OH214240   1.326   1.276   4.723
 4745TIP3    H114241   1.412   1.303   4.756
 4745TIP3    H214242   1.264   1.311   4.786
 4746TIP3   OH214243   6.195   1.525   4.394
 4746TIP3    H114244   6.101   1.507   4.397
 4746TIP3    H214245   6.233   1.466   4.459
 4747TIP3   OH214246   6.158   4.074   0.224
 4747TIP3    H114247   6.215   4.120   0.162
 4747TIP3    H214248   6.202   3.991   0.240
 4748TIP3   OH214249   1.573   1.074   1.583
 4748TIP3    H114250   1.519   1.125   1.644
 4748TIP3    H214251   1.638   1.031   1.640
 4749TIP3   OH214252   5.435   2.765   1.791
 4749TIP3    H114253   5.434   2.684   1.842
 4749TIP3    H214254   5.521   2.803   1.807
 4750TIP3   OH214255   4.132   4.428   3.155
 4750TIP3    H114256   4.202   4.490   3.176
 4750TIP3    H214257   4.173   4.365   3.095
 4751TIP3   OH214258   0.801   1.988   1.827
 4751TIP3    H114259   0.805   2.047   1.902
 4751TIP3    H214260   0.892   1.981   1.797
 4752TIP3   OH214261   5.032   0.382   4.495
 4752TIP3    H114262   5.059   0.322   4.425
 4752TIP3    H214263   5.063   0.340   4.576
 4753TIP3   OH214264   1.813   4.458   3.487
 4753TIP3    H114265   1.869   4.381   3.490
 4753TIP3    H214266   1.749   4.445   3.557
 4754TIP3   OH214267   0.850   4.115   3.851
 4754TIP3    H114268   0.916   4.112   3.783
 4754TIP3    H214269   0.769   4.135   3.805
 4755TIP3   OH214270   2.956   5.963   4.640
 4755TIP3    H114271   3.023   5.907   4.680
 4755TIP3    H214272   2.971   6.050   4.679
 4756TIP3   OH214273   5.469   0.129   4.551
 4756TIP3    H114274   5.523   0.057   4.519
 4756TIP3    H214275   5.416   0.155   4.476
 4757TIP3   OH214276   3.632   4.609   3.715
 4757TIP3    H114277   3.651   4.515   3.720
 4757TIP3    H214278   3.672   4.637   3.633
 4758TIP3   OH214279   3.574   5.529   0.345
 4758TIP3    H114280   3.590   5.499   0.435
 4758TIP3    H214281   3.550   5.450   0.297
 4759TIP3   OH214282   0.671   3.583   4.951
 4759TIP3    H114283   0.755   3.538   4.940
 4759TIP3    H214284   0.695   3.675   4.964
 4760TIP3   OH214285   1.275   2.115   1.140
 4760TIP3    H114286   1.237   2.032   1.112
 4760TIP3    H214287   1.356   2.122   1.091
 4761TIP3   OH214288   5.086   0.768   0.423
 4761TIP3    H114289   4.992   0.767   0.404
 4761TIP3    H214290   5.121   0.836   0.364
 4762TIP3   OH214291   6.132   5.323   1.611
 4762TIP3    H114292   6.207   5.280   1.569
 4762TIP3    H214293   6.098   5.257   1.672
 4763TIP3   OH214294   2.713   5.719   4.314
 4763TIP3    H114295   2.787   5.766   4.353
 4763TIP3    H214296   2.670   5.784   4.258
 4764TIP3   OH214297   2.723   2.463   0.339
 4764TIP3    H114298   2.650   2.401   0.345
 4764TIP3    H214299   2.685   2.547   0.366
 4765TIP3   OH214300   0.120   4.110   3.189
 4765TIP3    H114301   0.095   4.098   3.280
 4765TIP3    H214302   0.067   4.184   3.159
 4766TIP3   OH214303   2.422   2.281   1.199
 4766TIP3    H114304   2.449   2.190   1.183
 4766TIP3    H214305   2.329   2.283   1.176
 4767TIP3   OH214306   5.573   2.517   1.854
 4767TIP3    H114307   5.606   2.579   1.789
 4767TIP3    H214308   5.651   2.483   1.897
 4768TIP3   OH214309   5.063   4.308   4.883
 4768TIP3    H114310   5.139   4.366   4.872
 4768TIP3    H214311   5.066   4.251   4.806
 4769TIP3   OH214312   4.833   5.109   3.856
 4769TIP3    H114313   4.827   5.014   3.863
 4769TIP3    H214314   4.799   5.129   3.769
 4770TIP3   OH214315   0.584   2.443   1.401
 4770TIP3    H114316   0.553   2.468   1.315
 4770TIP3    H214317   0.563   2.350   1.409
 4771TIP3   OH214318   3.420   5.181   4.731
 4771TIP3    H114319   3.405   5.086   4.727
 4771TIP3    H214320   3.363   5.217   4.663
 4772TIP3   OH214321   6.350   5.868   1.931
 4772TIP3    H114322   6.325   5.954   1.898
 4772TIP3    H214323   6.444   5.861   1.912
 4773TIP3   OH214324   4.690   3.383   3.896
 4773TIP3    H114325   4.783   3.363   3.907
 4773TIP3    H214326   4.651   3.365   3.981
 4774TIP3   OH214327   2.665   4.144   2.428
 4774TIP3    H114328   2.681   4.064   2.379
 4774TIP3    H214329   2.570   4.154   2.430
 4775TIP3   OH214330   4.920   2.955   1.066
 4775TIP3    H114331   4.899   2.923   1.154
 4775TIP3    H214332   4.966   2.882   1.025
 4776TIP3   OH214333   2.935   1.937   1.817
 4776TIP3    H114334   2.982   2.009   1.774
 4776TIP3    H214335   2.903   1.974   1.899
 4777TIP3   OH214336   4.394   1.366   2.889
 4777TIP3    H114337   4.363   1.312   2.962
 4777TIP3    H214338   4.479   1.328   2.866
 4778TIP3   OH214339   2.323   1.179   0.785
 4778TIP3    H114340   2.234   1.144   0.780
 4778TIP3    H214341   2.376   1.106   0.816
 4779TIP3   OH214342   3.408   3.553   2.533
 4779TIP3    H114343   3.447   3.488   2.475
 4779TIP3    H214344   3.421   3.517   2.621
 4780TIP3   OH214345   2.115   1.862   1.961
 4780TIP3    H114346   2.054   1.935   1.950
 4780TIP3    H214347   2.102   1.808   1.883
 4781TIP3   OH214348   0.894   4.248   1.775
 4781TIP3    H114349   0.974   4.266   1.823
 4781TIP3    H214350   0.832   4.219   1.841
 4782TIP3   OH214351   2.040   4.790   2.116
 4782TIP3    H114352   1.996   4.759   2.195
 4782TIP3    H214353   2.011   4.730   2.048
 4783TIP3   OH214354   3.453   4.364   4.994
 4783TIP3    H114355   3.425   4.452   4.971
 4783TIP3    H214356   3.412   4.307   4.929
 4784TIP3   OH214357   6.035   4.117   4.042
 4784TIP3    H114358   6.041   4.212   4.049
 4784TIP3    H214359   6.118   4.084   4.077
 4785TIP3   OH214360   4.775   3.678   0.944
 4785TIP3    H114361   4.705   3.640   0.997
 4785TIP3    H214362   4.799   3.608   0.883
 4786TIP3   OH214363   3.443   5.606   1.167
 4786TIP3    H114364   3.361   5.558   1.176
 4786TIP3    H214365   3.472   5.620   1.257
 4787TIP3   OH214366   0.329   5.409   3.863
 4787TIP3    H114367   0.371   5.487   3.902
 4787TIP3    H214368   0.239   5.413   3.893
 4788TIP3   OH214369   5.904   5.052   4.172
 4788TIP3    H114370   5.942   5.139   4.179
 4788TIP3    H214371   5.949   5.001   4.239
 4789TIP3   OH214372   1.547   3.513   0.233
 4789TIP3    H114373   1.613   3.530   0.166
 4789TIP3    H214374   1.591   3.535   0.315
 4790TIP3   OH214375   0.714   0.244   3.215
 4790TIP3    H114376   0.621   0.263   3.230
 4790TIP3    H214377   0.757   0.275   3.295
 4791TIP3   OH214378   0.375   3.178   2.813
 4791TIP3    H114379   0.397   3.265   2.846
 4791TIP3    H214380   0.435   3.119   2.858
 4792TIP3   OH214381   5.495   2.700   2.162
 4792TIP3    H114382   5.460   2.789   2.163
 4792TIP3    H214383   5.587   2.711   2.137
 4793TIP3   OH214384   3.650   3.032   4.576
 4793TIP3    H114385   3.633   2.943   4.547
 4793TIP3    H214386   3.660   3.025   4.671
 4794TIP3   OH214387   5.161   2.144   2.441
 4794TIP3    H114388   5.181   2.186   2.358
 4794TIP3    H214389   5.142   2.053   2.417
 4795TIP3   OH214390   0.952   3.312   0.754
 4795TIP3    H114391   0.936   3.404   0.775
 4795TIP3    H214392   0.884   3.264   0.801
 4796TIP3   OH214393   2.328   1.092   5.049
 4796TIP3    H114394   2.348   1.143   5.127
 4796TIP3    H214395   2.299   1.156   4.985
 4797TIP3   OH214396   0.311   2.317   3.263
 4797TIP3    H114397   0.311   2.411   3.247
 4797TIP3    H214398   0.385   2.303   3.322
 4798TIP3   OH214399   6.120   4.327   1.905
 4798TIP3    H114400   6.094   4.271   1.832
 4798TIP3    H214401   6.176   4.272   1.959
 4799TIP3   OH214402   0.899   5.737   4.847
 4799TIP3    H114403   0.855   5.652   4.844
 4799TIP3    H214404   0.884   5.775   4.761
 4800TIP3   OH214405   6.084   1.735   0.044
 4800TIP3    H114406   6.049   1.824   0.054
 4800TIP3    H214407   6.176   1.748   0.021
 4801TIP3   OH214408   4.762   2.430   3.231
 4801TIP3    H114409   4.738   2.417   3.322
 4801TIP3    H214410   4.853   2.400   3.225
 4802TIP3   OH214411   1.250   5.932   3.103
 4802TIP3    H114412   1.251   5.930   3.198
 4802TIP3    H214413   1.267   5.842   3.076
 4803TIP3   OH214414   6.062   3.767   0.563
 4803TIP3    H114415   5.993   3.752   0.498
 4803TIP3    H214416   6.132   3.706   0.539
 4804TIP3   OH214417   5.329   5.551   0.390
 4804TIP3    H114418   5.363   5.640   0.376
 4804TIP3    H214419   5.321   5.544   0.485
 4805TIP3   OH214420   5.973   4.234   0.883
 4805TIP3    H114421   5.917   4.299   0.924
 4805TIP3    H214422   5.949   4.236   0.790
 4806TIP3   OH214423   0.430   5.769   2.193
 4806TIP3    H114424   0.461   5.827   2.263
 4806TIP3    H214425   0.480   5.796   2.116
 4807TIP3   OH214426   5.384   4.898   4.404
 4807TIP3    H114427   5.415   4.844   4.331
 4807TIP3    H214428   5.442   4.876   4.477
 4808TIP3   OH214429   1.222   3.685   0.801
 4808TIP3    H114430   1.172   3.608   0.830
 4808TIP3    H214431   1.262   3.657   0.719
 4809TIP3   OH214432   1.017   4.105   1.025
 4809TIP3    H114433   1.011   4.017   0.989
 4809TIP3    H214434   0.928   4.126   1.052
 4810TIP3   OH214435   3.146   2.152   2.291
 4810TIP3    H114436   3.191   2.112   2.365
 4810TIP3    H214437   3.063   2.104   2.284
 4811TIP3   OH214438   0.050   4.397   2.110
 4811TIP3    H114439   0.034   4.302   2.104
 4811TIP3    H214440   0.059   4.425   2.019
 4812TIP3   OH214441   2.119   1.111   0.390
 4812TIP3    H114442   2.107   1.069   0.475
 4812TIP3    H214443   2.192   1.065   0.349
 4813TIP3   OH214444   1.729   3.546   0.022
 4813TIP3    H114445   1.779   3.476  -0.018
 4813TIP3    H214446   1.652   3.557  -0.034
 4814TIP3   OH214447   0.336   2.899   1.840
 4814TIP3    H114448   0.427   2.896   1.812
 4814TIP3    H214449   0.299   2.816   1.810
 4815TIP3   OH214450   0.088   5.218   2.228
 4815TIP3    H114451   0.055   5.307   2.219
 4815TIP3    H214452   0.051   5.187   2.310
 4816TIP3   OH214453   3.067   0.051   3.124
 4816TIP3    H114454   3.075   0.144   3.145
 4816TIP3    H214455   3.149   0.013   3.155
 4817TIP3   OH214456   3.475   5.334   3.019
 4817TIP3    H114457   3.410   5.355   3.087
 4817TIP3    H214458   3.423   5.323   2.940
 4818TIP3   OH214459   5.767   0.849   2.109
 4818TIP3    H114460   5.688   0.886   2.070
 4818TIP3    H214461   5.785   0.771   2.056
 4819TIP3   OH214462   4.829   0.164   0.801
 4819TIP3    H114463   4.887   0.096   0.834
 4819TIP3    H214464   4.774   0.187   0.876
 4820TIP3   OH214465   4.995   1.446   0.921
 4820TIP3    H114466   5.023   1.356   0.908
 4820TIP3    H214467   5.072   1.491   0.956
 4821TIP3   OH214468   1.866   5.585   2.822
 4821TIP3    H114469   1.928   5.649   2.858
 4821TIP3    H214470   1.884   5.584   2.728
 4822TIP3   OH214471   2.719   4.427   0.961
 4822TIP3    H114472   2.795   4.372   0.978
 4822TIP3    H214473   2.712   4.430   0.865
 4823TIP3   OH214474   6.102   5.696   0.824
 4823TIP3    H114475   6.197   5.697   0.832
 4823TIP3    H214476   6.072   5.646   0.899
 4824TIP3   OH214477   0.159   3.367   2.831
 4824TIP3    H114478   0.068   3.346   2.809
 4824TIP3    H214479   0.208   3.290   2.802
 4825TIP3   OH214480   2.838   4.059   1.147
 4825TIP3    H114481   2.887   4.066   1.065
 4825TIP3    H214482   2.904   4.074   1.215
 4826TIP3   OH214483   1.427   0.321   3.388
 4826TIP3    H114484   1.352   0.293   3.335
 4826TIP3    H214485   1.395   0.397   3.437
 4827TIP3   OH214486   0.310   5.762   4.573
 4827TIP3    H114487   0.353   5.803   4.648
 4827TIP3    H214488   0.227   5.728   4.609
 4828TIP3   OH214489   2.334   1.071   4.355
 4828TIP3    H114490   2.401   1.016   4.313
 4828TIP3    H214491   2.261   1.068   4.294
 4829TIP3   OH214492   0.275   2.704   3.838
 4829TIP3    H114493   0.270   2.639   3.908
 4829TIP3    H214494   0.191   2.697   3.792
 4830TIP3   OH214495   5.454   2.299   2.344
 4830TIP3    H114496   5.461   2.264   2.433
 4830TIP3    H214497   5.429   2.390   2.356
 4831TIP3   OH214498   4.841   3.940   2.282
 4831TIP3    H114499   4.922   3.956   2.234
 4831TIP3    H214500   4.869   3.905   2.366
 4832TIP3   OH214501   1.054   2.012   1.788
 4832TIP3    H114502   1.074   1.920   1.806
 4832TIP3    H214503   1.122   2.061   1.836
 4833TIP3   OH214504   2.940   5.985   0.777
 4833TIP3    H114505   2.959   6.075   0.752
 4833TIP3    H214506   2.952   5.984   0.872
 4834TIP3   OH214507   1.967   2.008   3.135
 4834TIP3    H114508   2.036   2.069   3.160
 4834TIP3    H214509   2.007   1.954   3.067
 4835TIP3   OH214510   6.268   3.834   2.641
 4835TIP3    H114511   6.311   3.782   2.708
 4835TIP3    H214512   6.298   3.796   2.558
 4836TIP3   OH214513   5.786   3.962   1.601
 4836TIP3    H114514   5.853   3.896   1.622
 4836TIP3    H214515   5.765   3.947   1.509
 4837TIP3   OH214516   3.295   5.099   1.754
 4837TIP3    H114517   3.314   5.008   1.777
 4837TIP3    H214518   3.199   5.103   1.750
 4838TIP3   OH214519   3.221   5.597   3.898
 4838TIP3    H114520   3.223   5.690   3.876
 4838TIP3    H214521   3.228   5.595   3.994
 4839TIP3   OH214522   5.735   0.094   3.417
 4839TIP3    H114523   5.786   0.173   3.429
 4839TIP3    H214524   5.673   0.115   3.348
 4840TIP3   OH214525   2.086   2.711   4.588
 4840TIP3    H114526   2.104   2.789   4.639
 4840TIP3    H214527   2.040   2.652   4.648
 4841TIP3   OH214528   6.239   1.134   3.837
 4841TIP3    H114529   6.314   1.111   3.893
 4841TIP3    H214530   6.234   1.229   3.844
 4842TIP3   OH214531   1.357   3.653   4.494
 4842TIP3    H114532   1.271   3.683   4.464
 4842TIP3    H214533   1.366   3.565   4.458
 4843TIP3   OH214534   0.321   2.606   0.187
 4843TIP3    H114535   0.317   2.641   0.098
 4843TIP3    H214536   0.395   2.651   0.227
 4844TIP3   OH214537   6.423   2.471   2.089
 4844TIP3    H114538   6.476   2.438   2.017
 4844TIP3    H214539   6.351   2.409   2.097
 4845TIP3   OH214540   1.367   1.678   1.776
 4845TIP3    H114541   1.364   1.689   1.871
 4845TIP3    H214542   1.371   1.768   1.742
 4846TIP3   OH214543   1.200   0.916   0.816
 4846TIP3    H114544   1.248   0.841   0.779
 4846TIP3    H214545   1.111   0.884   0.826
 4847TIP3   OH214546   3.723   4.345   1.251
 4847TIP3    H114547   3.731   4.251   1.235
 4847TIP3    H214548   3.676   4.378   1.174
 4848TIP3   OH214549   2.788   5.586   0.020
 4848TIP3    H114550   2.856   5.589   0.087
 4848TIP3    H214551   2.731   5.660   0.041
 4849TIP3   OH214552   2.587   3.090   1.228
 4849TIP3    H114553   2.529   3.050   1.164
 4849TIP3    H214554   2.563   3.050   1.312
 4850TIP3   OH214555   3.644   2.536   4.617
 4850TIP3    H114556   3.630   2.445   4.643
 4850TIP3    H214557   3.561   2.580   4.638
 4851TIP3   OH214558   3.576   3.833   1.561
 4851TIP3    H114559   3.624   3.761   1.603
 4851TIP3    H214560   3.490   3.796   1.541
 4852TIP3   OH214561   4.294   4.674   0.250
 4852TIP3    H114562   4.378   4.674   0.295
 4852TIP3    H214563   4.313   4.639   0.163
 4853TIP3   OH214564   5.665   2.737   3.309
 4853TIP3    H114565   5.724   2.747   3.383
 4853TIP3    H214566   5.605   2.668   3.335
 4854TIP3   OH214567   3.753   5.640   3.490
 4854TIP3    H114568   3.664   5.607   3.500
 4854TIP3    H214569   3.760   5.710   3.555
 4855TIP3   OH214570   3.400   2.395   2.439
 4855TIP3    H114571   3.362   2.397   2.527
 4855TIP3    H214572   3.486   2.436   2.449
 4856TIP3   OH214573   2.626   1.784   0.278
 4856TIP3    H114574   2.651   1.868   0.240
 4856TIP3    H214575   2.641   1.721   0.207
 4857TIP3   OH214576   3.137   5.147   2.497
 4857TIP3    H114577   3.062   5.124   2.552
 4857TIP3    H214578   3.109   5.126   2.408
 4858TIP3   OH214579   5.795   5.435   2.375
 4858TIP3    H114580   5.807   5.342   2.398
 4858TIP3    H214581   5.807   5.482   2.458
 4859TIP3   OH214582   5.177   4.875   2.387
 4859TIP3    H114583   5.149   4.963   2.365
 4859TIP3    H214584   5.169   4.870   2.482
 4860TIP3   OH214585   4.293   3.770   2.488
 4860TIP3    H114586   4.377   3.807   2.461
 4860TIP3    H214587   4.254   3.737   2.408
 4861TIP3   OH214588   0.449   5.262   3.660
 4861TIP3    H114589   0.440   5.293   3.750
 4861TIP3    H214590   0.360   5.261   3.626
 4862TIP3   OH214591   5.742   1.562   4.611
 4862TIP3    H114592   5.797   1.640   4.614
 4862TIP3    H214593   5.712   1.550   4.701
 4863TIP3   OH214594   4.648   4.815   1.377
 4863TIP3    H114595   4.566   4.789   1.333
 4863TIP3    H214596   4.673   4.896   1.334
 4864TIP3   OH214597   4.394   5.284   0.620
 4864TIP3    H114598   4.387   5.377   0.597
 4864TIP3    H214599   4.487   5.270   0.635
 4865TIP3   OH214600   4.140   2.095   3.921
 4865TIP3    H114601   4.214   2.142   3.959
 4865TIP3    H214602   4.170   2.004   3.913
 4866TIP3   OH214603   0.872   4.521   2.620
 4866TIP3    H114604   0.936   4.519   2.690
 4866TIP3    H214605   0.793   4.484   2.659
 4867TIP3   OH214606   4.666   1.192   1.209
 4867TIP3    H114607   4.588   1.156   1.167
 4867TIP3    H214608   4.650   1.181   1.303
 4868TIP3   OH214609   0.115   4.861   0.507
 4868TIP3    H114610   0.187   4.883   0.448
 4868TIP3    H214611   0.120   4.765   0.517
 4869TIP3   OH214612   3.168   5.255   4.618
 4869TIP3    H114613   3.158   5.188   4.686
 4869TIP3    H214614   3.085   5.254   4.571
 4870TIP3   OH214615   5.841   2.857   3.776
 4870TIP3    H114616   5.934   2.848   3.795
 4870TIP3    H214617   5.831   2.948   3.748
 4871TIP3   OH214618   2.881   4.292   3.735
 4871TIP3    H114619   2.842   4.291   3.822
 4871TIP3    H214620   2.963   4.342   3.746
 4872TIP3   OH214621   5.369   3.535   1.224
 4872TIP3    H114622   5.422   3.459   1.252
 4872TIP3    H214623   5.283   3.498   1.203
 4873TIP3   OH214624   5.404   0.330   4.728
 4873TIP3    H114625   5.477   0.316   4.787
 4873TIP3    H214626   5.407   0.257   4.667
 4874TIP3   OH214627   5.809   2.374   3.131
 4874TIP3    H114628   5.794   2.279   3.138
 4874TIP3    H214629   5.865   2.395   3.206
 4875TIP3   OH214630   2.305   5.289   1.345
 4875TIP3    H114631   2.399   5.274   1.351
 4875TIP3    H214632   2.295   5.346   1.268
 4876TIP3   OH214633   2.966   3.955   1.914
 4876TIP3    H114634   2.905   4.015   1.958
 4876TIP3    H214635   2.910   3.890   1.872
 4877TIP3   OH214636   0.306   5.349   4.444
 4877TIP3    H114637   0.334   5.432   4.405
 4877TIP3    H214638   0.364   5.284   4.404
 4878TIP3   OH214639   0.656   5.959   1.660
 4878TIP3    H114640   0.612   6.004   1.587
 4878TIP3    H214641   0.698   6.029   1.709
 4879TIP3   OH214642   5.083   4.620   4.648
 4879TIP3    H114643   5.149   4.664   4.596
 4879TIP3    H214644   5.006   4.615   4.590
 4880TIP3   OH214645   2.724   4.301   3.385
 4880TIP3    H114646   2.733   4.380   3.332
 4880TIP3    H214647   2.811   4.288   3.423
 4881TIP3   OH214648   2.817   1.194   4.439
 4881TIP3    H114649   2.850   1.104   4.439
 4881TIP3    H214650   2.839   1.228   4.352
 4882TIP3   OH214651   1.613   2.005   2.290
 4882TIP3    H114652   1.520   1.983   2.282
 4882TIP3    H214653   1.616   2.072   2.358
 4883TIP3   OH214654   0.553   0.254   2.594
 4883TIP3    H114655   0.631   0.284   2.547
 4883TIP3    H214656   0.487   0.240   2.526
 4884TIP3   OH214657   5.721   0.689   1.593
 4884TIP3    H114658   5.680   0.766   1.553
 4884TIP3    H214659   5.653   0.621   1.590
 4885TIP3   OH214660   3.076   0.333   0.382
 4885TIP3    H114661   2.988   0.366   0.367
 4885TIP3    H214662   3.069   0.282   0.463
 4886TIP3   OH214663   2.693   3.068   2.954
 4886TIP3    H114664   2.639   2.999   2.992
 4886TIP3    H214665   2.702   3.043   2.862
 4887TIP3   OH214666   2.624   4.259   2.861
 4887TIP3    H114667   2.584   4.172   2.865
 4887TIP3    H214668   2.550   4.320   2.864
 4888TIP3   OH214669   1.828   3.716   0.780
 4888TIP3    H114670   1.737   3.697   0.756
 4888TIP3    H214671   1.827   3.720   0.876
 4889TIP3   OH214672   4.238   1.653   0.150
 4889TIP3    H114673   4.299   1.583   0.127
 4889TIP3    H214674   4.288   1.709   0.210
 4890TIP3   OH214675   3.780   4.062   2.706
 4890TIP3    H114676   3.840   4.082   2.633
 4890TIP3    H214677   3.834   4.071   2.784
 4891TIP3   OH214678   5.079   3.166   2.982
 4891TIP3    H114679   5.167   3.141   2.953
 4891TIP3    H214680   5.082   3.262   2.984
 4892TIP3   OH214681   2.431   2.837   3.056
 4892TIP3    H114682   2.475   2.754   3.074
 4892TIP3    H214683   2.413   2.835   2.962
 4893TIP3   OH214684   5.780   4.895   0.970
 4893TIP3    H114685   5.806   4.946   0.894
 4893TIP3    H214686   5.855   4.838   0.987
 4894TIP3   OH214687   3.440   2.284   4.393
 4894TIP3    H114688   3.453   2.274   4.299
 4894TIP3    H214689   3.528   2.288   4.429
 4895TIP3   OH214690   3.538   1.648   3.745
 4895TIP3    H114691   3.504   1.574   3.695
 4895TIP3    H214692   3.629   1.656   3.717
 4896TIP3   OH214693   2.098   1.098   4.747
 4896TIP3    H114694   2.040   1.055   4.811
 4896TIP3    H214695   2.152   1.027   4.713
 4897TIP3   OH214696  -0.033   5.126   0.422
 4897TIP3    H114697   0.000   5.101   0.336
 4897TIP3    H214698  -0.010   5.052   0.479
 4898TIP3   OH214699   0.504   0.161   2.887
 4898TIP3    H114700   0.419   0.156   2.931
 4898TIP3    H214701   0.482   0.164   2.794
 4899TIP3   OH214702   1.849   3.323   0.660
 4899TIP3    H114703   1.856   3.229   0.674
 4899TIP3    H214704   1.927   3.359   0.703
 4900TIP3   OH214705   1.227   1.688   3.348
 4900TIP3    H114706   1.292   1.695   3.417
 4900TIP3    H214707   1.180   1.772   3.351
 4901TIP3   OH214708   1.904   3.584   3.821
 4901TIP3    H114709   1.874   3.660   3.872
 4901TIP3    H214710   1.927   3.620   3.736
 4902TIP3   OH214711   2.337   4.974   4.266
 4902TIP3    H114712   2.366   4.946   4.353
 4902TIP3    H214713   2.256   5.023   4.283
 4903TIP3   OH214714   0.893   2.652   0.387
 4903TIP3    H114715   0.926   2.739   0.413
 4903TIP3    H214716   0.843   2.669   0.307
 4904TIP3   OH214717   3.817   0.391   4.962
 4904TIP3    H114718   3.851   0.344   4.886
 4904TIP3    H214719   3.893   0.406   5.017
 4905TIP3   OH214720   5.061   5.368   3.310
 4905TIP3    H114721   5.027   5.374   3.399
 4905TIP3    H214722   5.072   5.459   3.283
 4906TIP3   OH214723   0.278   3.563   1.438
 4906TIP3    H114724   0.237   3.481   1.409
 4906TIP3    H214725   0.372   3.549   1.424
 4907TIP3   OH214726   6.076   5.938   2.949
 4907TIP3    H114727   6.147   5.903   2.894
 4907TIP3    H214728   5.996   5.899   2.913
 4908TIP3   OH214729   3.779   0.557   4.102
 4908TIP3    H114730   3.874   0.573   4.096
 4908TIP3    H214731   3.741   0.620   4.041
 4909TIP3   OH214732   2.086   0.728   0.442
 4909TIP3    H114733   2.068   0.660   0.507
 4909TIP3    H214734   2.020   0.796   0.460
 4910TIP3   OH214735   1.170   3.665   2.397
 4910TIP3    H114736   1.244   3.718   2.429
 4910TIP3    H214737   1.198   3.575   2.411
 4911TIP3   OH214738   2.052   3.606   2.708
 4911TIP3    H114739   2.042   3.695   2.672
 4911TIP3    H214740   1.989   3.553   2.658
 4912TIP3   OH214741   1.966   3.769   2.923
 4912TIP3    H114742   1.998   3.731   3.006
 4912TIP3    H214743   1.988   3.703   2.857
 4913TIP3   OH214744   4.198   1.279   0.029
 4913TIP3    H114745   4.196   1.184   0.022
 4913TIP3    H214746   4.195   1.296   0.123
 4914TIP3   OH214747   4.628   1.303   3.691
 4914TIP3    H114748   4.546   1.342   3.660
 4914TIP3    H214749   4.690   1.319   3.620
 4915TIP3   OH214750   1.524   0.762   2.943
 4915TIP3    H114751   1.591   0.829   2.928
 4915TIP3    H214752   1.472   0.760   2.863
 4916TIP3   OH214753   3.536   1.483   3.008
 4916TIP3    H114754   3.504   1.399   3.038
 4916TIP3    H214755   3.549   1.472   2.914
 4917TIP3   OH214756   4.953   2.170   1.514
 4917TIP3    H114757   4.973   2.118   1.593
 4917TIP3    H214758   4.897   2.113   1.462
 4918TIP3   OH214759   3.009   3.909   4.093
 4918TIP3    H114760   2.914   3.908   4.099
 4918TIP3    H214761   3.030   3.996   4.060
 4919TIP3   OH214762   2.348   3.931   1.714
 4919TIP3    H114763   2.415   3.867   1.690
 4919TIP3    H214764   2.278   3.918   1.651
 4920TIP3   OH214765   4.806   5.636   1.181
 4920TIP3    H114766   4.738   5.590   1.131
 4920TIP3    H214767   4.767   5.722   1.200
 4921TIP3   OH214768   0.434   0.612   1.699
 4921TIP3    H114769   0.373   0.566   1.642
 4921TIP3    H214770   0.483   0.670   1.641
 4922TIP3   OH214771   2.515   0.786   1.354
 4922TIP3    H114772   2.540   0.853   1.418
 4922TIP3    H214773   2.597   0.742   1.333
 4923TIP3   OH214774   6.341   1.095   4.926
 4923TIP3    H114775   6.271   1.117   4.864
 4923TIP3    H214776   6.331   1.001   4.940
 4924TIP3   OH214777   6.324   0.049   2.924
 4924TIP3    H114778   6.351  -0.021   2.865
 4924TIP3    H214779   6.269   0.106   2.869
 4925TIP3   OH214780   3.573   0.319   2.895
 4925TIP3    H114781   3.668   0.314   2.884
 4925TIP3    H214782   3.543   0.229   2.883
 4926TIP3   OH214783   1.094   2.563   3.504
 4926TIP3    H114784   1.122   2.535   3.417
 4926TIP3    H214785   0.998   2.565   3.498
 4927TIP3   OH214786   1.543   2.407   3.937
 4927TIP3    H114787   1.613   2.468   3.961
 4927TIP3    H214788   1.585   2.343   3.879
 4928TIP3   OH214789   2.007   3.389   3.971
 4928TIP3    H114790   1.972   3.445   3.902
 4928TIP3    H214791   1.938   3.323   3.986
 4929TIP3   OH214792   4.932   1.767   1.437
 4929TIP3    H114793   4.937   1.737   1.528
 4929TIP3    H214794   4.842   1.799   1.427
 4930TIP3   OH214795   5.468   2.594   3.431
 4930TIP3    H114796   5.443   2.514   3.476
 4930TIP3    H214797   5.445   2.579   3.340
 4931TIP3   OH214798   2.908   1.218   1.634
 4931TIP3    H114799   2.856   1.154   1.683
 4931TIP3    H214800   2.995   1.214   1.675
 4932TIP3   OH214801   4.328   5.398   1.187
 4932TIP3    H114802   4.325   5.430   1.097
 4932TIP3    H214803   4.306   5.474   1.240
 4933TIP3   OH214804   2.373   2.220   1.783
 4933TIP3    H114805   2.368   2.245   1.690
 4933TIP3    H214806   2.343   2.129   1.785
 4934TIP3   OH214807   3.988   3.797   2.382
 4934TIP3    H114808   4.037   3.734   2.330
 4934TIP3    H214809   3.896   3.780   2.360
 4935TIP3   OH214810   1.582   1.263   5.070
 4935TIP3    H114811   1.658   1.211   5.091
 4935TIP3    H214812   1.595   1.291   4.980
 4936TIP3   OH214813   0.148   2.149   2.434
 4936TIP3    H114814   0.215   2.081   2.443
 4936TIP3    H214815   0.076   2.105   2.388
 4937TIP3   OH214816   5.513   0.260   3.042
 4937TIP3    H114817   5.511   0.251   3.137
 4937TIP3    H214818   5.427   0.231   3.012
 4938TIP3   OH214819   4.679   0.105   1.946
 4938TIP3    H114820   4.773   0.116   1.938
 4938TIP3    H214821   4.649   0.085   1.857
 4939TIP3   OH214822   4.986   3.647   0.070
 4939TIP3    H114823   5.017   3.603  -0.009
 4939TIP3    H214824   4.934   3.721   0.038
 4940TIP3   OH214825   5.176   5.485   3.801
 4940TIP3    H114826   5.106   5.541   3.768
 4940TIP3    H214827   5.219   5.538   3.868
 4941TIP3   OH214828   2.071   1.365   3.345
 4941TIP3    H114829   2.137   1.298   3.330
 4941TIP3    H214830   2.119   1.448   3.335
 4942TIP3   OH214831   1.396   2.879   1.272
 4942TIP3    H114832   1.422   2.804   1.327
 4942TIP3    H214833   1.425   2.956   1.321
 4943TIP3   OH214834   5.084   5.362   4.428
 4943TIP3    H114835   5.135   5.290   4.391
 4943TIP3    H214836   5.019   5.319   4.484
 4944TIP3   OH214837   1.618   0.825   4.635
 4944TIP3    H114838   1.692   0.854   4.582
 4944TIP3    H214839   1.656   0.803   4.720
 4945TIP3   OH214840   1.976   2.369   3.462
 4945TIP3    H114841   1.904   2.418   3.423
 4945TIP3    H214842   2.017   2.430   3.522
 4946TIP3   OH214843   4.515   2.681   3.049
 4946TIP3    H114844   4.457   2.611   3.020
 4946TIP3    H214845   4.534   2.731   2.969
 4947TIP3   OH214846   1.321   4.190   2.119
 4947TIP3    H114847   1.393   4.246   2.146
 4947TIP3    H214848   1.360   4.104   2.109
 4948TIP3   OH214849   3.315   2.657   3.410
 4948TIP3    H114850   3.374   2.590   3.377
 4948TIP3    H214851   3.246   2.608   3.455
 4949TIP3   OH214852   0.313   1.343   0.846
 4949TIP3    H114853   0.403   1.309   0.853
 4949TIP3    H214854   0.279   1.305   0.765
 4950TIP3   OH214855   4.006   1.765   0.237
 4950TIP3    H114856   4.087   1.751   0.189
 4950TIP3    H214857   4.006   1.697   0.305
 4951TIP3   OH214858   2.166   4.383   3.349
 4951TIP3    H114859   2.194   4.297   3.381
 4951TIP3    H214860   2.206   4.446   3.409
 4952TIP3   OH214861   5.338   4.176   3.012
 4952TIP3    H114862   5.370   4.111   2.950
 4952TIP3    H214863   5.267   4.220   2.966
 4953TIP3   OH214864   1.502   3.880   0.508
 4953TIP3    H114865   1.419   3.921   0.483
 4953TIP3    H214866   1.565   3.951   0.507
 4954TIP3   OH214867   1.328   0.968   1.178
 4954TIP3    H114868   1.280   1.036   1.131
 4954TIP3    H214869   1.349   1.008   1.263
 4955TIP3   OH214870   2.858   4.814   0.154
 4955TIP3    H114871   2.840   4.840   0.244
 4955TIP3    H214872   2.823   4.886   0.100
 4956TIP3   OH214873   2.315   0.264   1.144
 4956TIP3    H114874   2.244   0.328   1.133
 4956TIP3    H214875   2.304   0.233   1.234
 4957TIP3   OH214876   5.824   2.965   2.761
 4957TIP3    H114877   5.776   2.889   2.726
 4957TIP3    H214878   5.872   2.930   2.836
 4958TIP3   OH214879   4.608   1.335   2.543
 4958TIP3    H114880   4.651   1.281   2.610
 4958TIP3    H214881   4.518   1.345   2.574
 4959TIP3   OH214882   5.818   3.620   0.725
 4959TIP3    H114883   5.909   3.650   0.718
 4959TIP3    H214884   5.823   3.525   0.709
 4960TIP3   OH214885   0.768  -0.011   2.617
 4960TIP3    H114886   0.703   0.055   2.640
 4960TIP3    H214887   0.845   0.012   2.669
 4961TIP3   OH214888   1.603   1.270   3.459
 4961TIP3    H114889   1.565   1.268   3.547
 4961TIP3    H214890   1.695   1.291   3.473
 4962TIP3   OH214891   3.548   0.386   0.708
 4962TIP3    H114892   3.466   0.425   0.740
 4962TIP3    H214893   3.530   0.364   0.617
 4963TIP3   OH214894   3.552   1.918   2.568
 4963TIP3    H114895   3.512   1.993   2.611
 4963TIP3    H214896   3.575   1.858   2.639
 4964TIP3   OH214897   2.167   5.676   2.433
 4964TIP3    H114898   2.239   5.714   2.382
 4964TIP3    H214899   2.089   5.695   2.381
 4965TIP3   OH214900   3.785   0.123   3.303
 4965TIP3    H114901   3.854   0.189   3.309
 4965TIP3    H214902   3.749   0.118   3.392
 4966TIP3   OH214903   0.913   1.006   1.589
 4966TIP3    H114904   0.878   1.061   1.659
 4966TIP3    H214905   0.862   0.925   1.594
 4967TIP3   OH214906   1.269   3.410   3.708
 4967TIP3    H114907   1.174   3.413   3.701
 4967TIP3    H214908   1.288   3.446   3.795
 4968TIP3   OH214909   0.550   0.121   1.204
 4968TIP3    H114910   0.529   0.037   1.243
 4968TIP3    H214911   0.526   0.112   1.112
 4969TIP3   OH214912   1.280   3.539   1.522
 4969TIP3    H114913   1.264   3.473   1.590
 4969TIP3    H214914   1.281   3.622   1.569
 4970TIP3   OH214915   5.199   1.064   0.750
 4970TIP3    H114916   5.171   1.023   0.669
 4970TIP3    H214917   5.278   1.015   0.775
 4971TIP3   OH214918   4.225   4.262   4.292
 4971TIP3    H114919   4.154   4.203   4.265
 4971TIP3    H214920   4.201   4.347   4.255
 4972TIP3   OH214921   4.556   2.347   3.086
 4972TIP3    H114922   4.622   2.390   3.139
 4972TIP3    H214923   4.605   2.284   3.033
 4973TIP3   OH214924   5.847   0.853   3.518
 4973TIP3    H114925   5.792   0.864   3.440
 4973TIP3    H214926   5.930   0.820   3.484
 4974TIP3   OH214927   1.603   2.846   2.292
 4974TIP3    H114928   1.566   2.811   2.373
 4974TIP3    H214929   1.697   2.855   2.309
 4975TIP3   OH214930   3.240   5.872   3.844
 4975TIP3    H114931   3.202   5.938   3.903
 4975TIP3    H214932   3.292   5.923   3.782
 4976TIP3   OH214933   4.676   1.817   3.631
 4976TIP3    H114934   4.754   1.762   3.640
 4976TIP3    H214935   4.707   1.906   3.647
 4977TIP3   OH214936   2.957   5.654   3.039
 4977TIP3    H114937   3.006   5.717   2.984
 4977TIP3    H214938   2.886   5.624   2.982
 4978TIP3   OH214939   1.440   4.663   1.622
 4978TIP3    H114940   1.376   4.652   1.692
 4978TIP3    H214941   1.435   4.582   1.571
 4979TIP3   OH214942   5.082   5.365   2.154
 4979TIP3    H114943   5.178   5.369   2.145
 4979TIP3    H214944   5.048   5.402   2.073
 4980TIP3   OH214945   0.450   4.931   4.590
 4980TIP3    H114946   0.536   4.891   4.584
 4980TIP3    H214947   0.466   5.025   4.588
 4981TIP3   OH214948   0.474   4.017   3.900
 4981TIP3    H114949   0.482   3.923   3.886
 4981TIP3    H214950   0.489   4.030   3.994
 4982TIP3   OH214951   3.263   0.327   3.752
 4982TIP3    H114952   3.169   0.313   3.743
 4982TIP3    H214953   3.301   0.240   3.748
 4983TIP3   OH214954   0.239   2.059   3.845
 4983TIP3    H114955   0.197   2.098   3.922
 4983TIP3    H214956   0.190   2.093   3.771
 4984TIP3   OH214957   3.206   1.821   2.205
 4984TIP3    H114958   3.157   1.895   2.240
 4984TIP3    H214959   3.297   1.842   2.222
 4985TIP3   OH214960   4.856   3.646   1.598
 4985TIP3    H114961   4.866   3.635   1.503
 4985TIP3    H214962   4.945   3.640   1.632
 4986TIP3   OH214963   4.747   4.398   0.947
 4986TIP3    H114964   4.817   4.385   1.012
 4986TIP3    H214965   4.674   4.345   0.980
 4987TIP3   OH214966   3.303   5.944   2.622
 4987TIP3    H114967   3.343   5.923   2.538
 4987TIP3    H214968   3.249   5.867   2.642
 4988TIP3   OH214969   0.406   0.990   1.843
 4988TIP3    H114970   0.322   0.975   1.799
 4988TIP3    H214971   0.413   1.085   1.850
 4989TIP3   OH214972   3.181   3.981   1.743
 4989TIP3    H114973   3.212   3.893   1.765
 4989TIP3    H214974   3.093   3.986   1.779
 4990TIP3   OH214975   5.332   2.088   3.602
 4990TIP3    H114976   5.253   2.097   3.656
 4990TIP3    H214977   5.379   2.014   3.641
 4991TIP3   OH214978   2.666   4.529   2.194
 4991TIP3    H114979   2.739   4.521   2.255
 4991TIP3    H214980   2.654   4.623   2.183
 4992TIP3   OH214981   0.446   3.484   3.272
 4992TIP3    H114982   0.496   3.450   3.197
 4992TIP3    H214983   0.489   3.445   3.349
 4993TIP3   OH214984   1.246   3.007   4.405
 4993TIP3    H114985   1.314   2.981   4.342
 4993TIP3    H214986   1.254   3.102   4.411
 4994TIP3   OH214987   3.281   2.840   2.973
 4994TIP3    H114988   3.353   2.829   3.035
 4994TIP3    H214989   3.306   2.916   2.921
 4995TIP3   OH214990   3.879   5.070   4.453
 4995TIP3    H114991   3.941   5.057   4.524
 4995TIP3    H214992   3.821   5.139   4.485
 4996TIP3   OH214993   5.776   1.961   2.248
 4996TIP3    H114994   5.756   2.018   2.174
 4996TIP3    H214995   5.704   1.976   2.310
 4997TIP3   OH214996   3.090   2.315   1.070
 4997TIP3    H114997   3.096   2.395   1.122
 4997TIP3    H214998   3.169   2.316   1.015
 4998TIP3   OH214999   5.387   2.837   1.395
 4998TIP3    H115000   5.410   2.794   1.313
 4998TIP3    H215001   5.307   2.886   1.375
 4999TIP3   OH215002   5.359   1.575   0.711
 4999TIP3    H115003   5.450   1.558   0.735
 4999TIP3    H215004   5.309   1.510   0.759
 5000TIP3   OH215005   0.696   1.840   1.576
 5000TIP3    H115006   0.723   1.799   1.494
 5000TIP3    H215007   0.760   1.910   1.590
 5001TIP3   OH215008  -0.023   3.095   3.078
 5001TIP3    H115009  -0.107   3.119   3.039
 5001TIP3    H215010   0.026   3.053   3.006
 5002TIP3   OH215011   1.360   3.613   4.858
 5002TIP3    H115012   1.398   3.558   4.926
 5002TIP3    H215013   1.266   3.595   4.862
 5003TIP3   OH215014   5.752   1.719   2.549
 5003TIP3    H115015   5.699   1.742   2.473
 5003TIP3    H215016   5.697   1.740   2.624
 5004TIP3   OH215017   4.042   3.729   0.139
 5004TIP3    H115018   3.991   3.674   0.080
 5004TIP3    H215019   4.106   3.670   0.179
 5005TIP3   OH215020   0.129   3.072   2.619
 5005TIP3    H115021   0.088   3.134   2.559
 5005TIP3    H215022   0.091   2.987   2.595
 5006TIP3   OH215023   1.176   5.605   4.610
 5006TIP3    H115024   1.269   5.596   4.591
 5006TIP3    H215025   1.165   5.569   4.698
 5007TIP3   OH215026   2.474   3.160   2.682
 5007TIP3    H115027   2.448   3.208   2.760
 5007TIP3    H215028   2.488   3.228   2.615
 5008TIP3   OH215029   5.546   0.540   2.974
 5008TIP3    H115030   5.512   0.452   2.987
 5008TIP3    H215031   5.635   0.537   3.010
 5009TIP3   OH215032   2.002   0.533   3.256
 5009TIP3    H115033   2.024   0.453   3.304
 5009TIP3    H215034   1.915   0.516   3.220
 5010TIP3   OH215035   6.139   3.305   1.301
 5010TIP3    H115036   6.125   3.238   1.235
 5010TIP3    H215037   6.052   3.336   1.324
 5011TIP3   OH215038   1.372   3.177   0.330
 5011TIP3    H115039   1.294   3.124   0.310
 5011TIP3    H215040   1.427   3.119   0.383
 5012TIP3   OH215041   4.460   1.269   4.495
 5012TIP3    H115042   4.545   1.288   4.455
 5012TIP3    H215043   4.396   1.314   4.439
 5013TIP3   OH215044   0.951   0.874   5.079
 5013TIP3    H115045   0.930   0.937   5.010
 5013TIP3    H215046   0.882   0.808   5.073
 5014TIP3   OH215047   2.214   4.848   0.573
 5014TIP3    H115048   2.273   4.901   0.627
 5014TIP3    H215049   2.185   4.778   0.631
 5015TIP3   OH215050   2.566   2.826   5.027
 5015TIP3    H115051   2.639   2.765   5.033
 5015TIP3    H215052   2.571   2.876   5.109
 5016TIP3   OH215053   3.124   5.008   0.095
 5016TIP3    H115054   3.063   5.075   0.065
 5016TIP3    H215055   3.162   4.972   0.015
 5017TIP3   OH215056   3.545   5.079   3.696
 5017TIP3    H115057   3.606   5.067   3.769
 5017TIP3    H215058   3.486   5.004   3.701
 5018TIP3   OH215059   1.237   4.303   3.377
 5018TIP3    H115060   1.212   4.261   3.294
 5018TIP3    H215061   1.297   4.372   3.351
 5019TIP3   OH215062   1.077   0.181   2.967
 5019TIP3    H115063   1.145   0.121   2.996
 5019TIP3    H215064   1.120   0.266   2.962
 5020TIP3   OH215065   1.320   1.148   2.461
 5020TIP3    H115066   1.339   1.103   2.379
 5020TIP3    H215067   1.251   1.097   2.502
 5021TIP3   OH215068   3.043   3.423   0.590
 5021TIP3    H115069   3.121   3.469   0.620
 5021TIP3    H215070   3.010   3.477   0.518
 5022TIP3   OH215071   0.602   0.400   3.795
 5022TIP3    H115072   0.596   0.313   3.833
 5022TIP3    H215073   0.551   0.395   3.715
 5023TIP3   OH215074   2.722   5.686   0.626
 5023TIP3    H115075   2.663   5.693   0.701
 5023TIP3    H215076   2.787   5.756   0.640
 5024TIP3   OH215077   4.674   2.420   3.488
 5024TIP3    H115078   4.665   2.511   3.518
 5024TIP3    H215079   4.584   2.387   3.484
 5025TIP3   OH215080   1.099   0.822   4.764
 5025TIP3    H115081   1.004   0.819   4.762
 5025TIP3    H215082   1.125   0.812   4.672
 5026TIP3   OH215083   5.698   2.356   2.240
 5026TIP3    H115084   5.745   2.418   2.297
 5026TIP3    H215085   5.610   2.350   2.279
 5027TIP3   OH215086   2.629   5.524   1.495
 5027TIP3    H115087   2.602   5.432   1.506
 5027TIP3    H215088   2.719   5.526   1.525
 5028TIP3   OH215089   2.718   1.666   1.465
 5028TIP3    H115090   2.774   1.708   1.530
 5028TIP3    H215091   2.742   1.573   1.469
 5029TIP3   OH215092   2.685   1.669   2.666
 5029TIP3    H115093   2.653   1.746   2.712
 5029TIP3    H215094   2.622   1.600   2.686
 5030TIP3   OH215095   1.851   5.643   4.150
 5030TIP3    H115096   1.790   5.700   4.102
 5030TIP3    H215097   1.878   5.578   4.085
 5031TIP3   OH215098   4.606   0.446   1.941
 5031TIP3    H115099   4.655   0.367   1.962
 5031TIP3    H215100   4.612   0.453   1.845
 5032TIP3   OH215101   1.734   5.733   3.746
 5032TIP3    H115102   1.640   5.727   3.761
 5032TIP3    H215103   1.751   5.827   3.738
 5033TIP3   OH215104   6.056   5.073   2.893
 5033TIP3    H115105   5.983   5.052   2.951
 5033TIP3    H215106   6.059   5.000   2.830
 5034TIP3   OH215107   4.184   5.939   5.143
 5034TIP3    H115108   4.214   5.940   5.233
 5034TIP3    H215109   4.116   6.006   5.139
 5035TIP3   OH215110   1.441   0.787   0.698
 5035TIP3    H115111   1.486   0.745   0.624
 5035TIP3    H215112   1.403   0.715   0.747
 5036TIP3   OH215113   2.486   2.250   3.892
 5036TIP3    H115114   2.558   2.286   3.839
 5036TIP3    H215115   2.504   2.282   3.981
 5037TIP3   OH215116   2.279   2.011   1.307
 5037TIP3    H115117   2.293   2.019   1.401
 5037TIP3    H215118   2.184   2.016   1.296
 5038TIP3   OH215119   1.768   2.600   1.216
 5038TIP3    H115120   1.680   2.561   1.209
 5038TIP3    H215121   1.809   2.580   1.131
 5039TIP3   OH215122   5.512   3.017   1.113
 5039TIP3    H115123   5.525   3.072   1.036
 5039TIP3    H215124   5.446   3.063   1.165
 5040TIP3   OH215125   1.973   4.776   4.431
 5040TIP3    H115126   1.933   4.748   4.513
 5040TIP3    H215127   2.022   4.699   4.401
 5041TIP3   OH215128   1.882   5.007   3.613
 5041TIP3    H115129   1.838   4.922   3.604
 5041TIP3    H215130   1.811   5.069   3.628
 5042TIP3   OH215131   2.062   1.099   0.728
 5042TIP3    H115132   1.987   1.109   0.669
 5042TIP3    H215133   2.029   1.044   0.799
 5043TIP3   OH215134   5.862   3.525   2.527
 5043TIP3    H115135   5.887   3.523   2.434
 5043TIP3    H215136   5.830   3.614   2.541
 5044TIP3   OH215137   5.967   5.336   4.149
 5044TIP3    H115138   6.046   5.356   4.199
 5044TIP3    H215139   5.922   5.420   4.140
 5045TIP3   OH215140   1.633   4.865   1.602
 5045TIP3    H115141   1.585   4.783   1.609
 5045TIP3    H215142   1.568   4.933   1.620
 5046TIP3   OH215143   3.899   5.884   0.399
 5046TIP3    H115144   3.929   5.920   0.482
 5046TIP3    H215145   3.859   5.957   0.353
 5047TIP3   OH215146   5.436   4.577   0.595
 5047TIP3    H115147   5.435   4.564   0.690
 5047TIP3    H215148   5.359   4.530   0.564
 5048TIP3   OH215149   5.719   5.339   1.352
 5048TIP3    H115150   5.791   5.378   1.402
 5048TIP3    H215151   5.641   5.361   1.402
 5049TIP3   OH215152   5.213   1.611   0.996
 5049TIP3    H115153   5.293   1.608   1.048
 5049TIP3    H215154   5.230   1.676   0.928
 5050TIP3   OH215155   4.477   4.935   0.497
 5050TIP3    H115156   4.435   4.894   0.573
 5050TIP3    H215157   4.407   4.946   0.433
 5051TIP3   OH215158   3.244   4.411   4.073
 5051TIP3    H115159   3.315   4.348   4.079
 5051TIP3    H215160   3.218   4.410   3.981
 5052TIP3   OH215161   2.055   3.381   2.923
 5052TIP3    H115162   1.975   3.406   2.878
 5052TIP3    H215163   2.120   3.445   2.894
 5053TIP3   OH215164   0.986   1.261   3.430
 5053TIP3    H115165   1.042   1.225   3.499
 5053TIP3    H215166   1.032   1.340   3.402
 5054TIP3   OH215167   2.179   2.499   0.717
 5054TIP3    H115168   2.133   2.515   0.635
 5054TIP3    H215169   2.262   2.545   0.708
 5055TIP3   OH215170   5.181   1.146   2.850
 5055TIP3    H115171   5.096   1.108   2.871
 5055TIP3    H215172   5.199   1.117   2.760
 5056TIP3   OH215173   3.978   4.770   4.579
 5056TIP3    H115174   3.925   4.766   4.499
 5056TIP3    H215175   4.060   4.728   4.555
 5057TIP3   OH215176   2.716   1.732   2.102
 5057TIP3    H115177   2.661   1.655   2.086
 5057TIP3    H215178   2.798   1.712   2.056
 5058TIP3   OH215179   2.632   5.499   4.076
 5058TIP3    H115180   2.607   5.584   4.113
 5058TIP3    H215181   2.656   5.519   3.985
 5059TIP3   OH215182   1.193   4.260   2.838
 5059TIP3    H115183   1.113   4.209   2.824
 5059TIP3    H215184   1.214   4.295   2.751
 5060TIP3   OH215185   2.719   3.921   4.099
 5060TIP3    H115186   2.696   4.004   4.059
 5060TIP3    H215187   2.673   3.855   4.048
 5061TIP3   OH215188   3.989   3.703   5.183
 5061TIP3    H115189   4.054   3.691   5.114
 5061TIP3    H215190   3.907   3.719   5.137
 5062TIP3   OH215191   4.712   5.264   4.048
 5062TIP3    H115192   4.762   5.217   3.981
 5062TIP3    H215193   4.629   5.217   4.053
 5063TIP3   OH215194   5.669   3.455   4.974
 5063TIP3    H115195   5.761   3.440   4.952
 5063TIP3    H215196   5.634   3.503   4.899
 5064TIP3   OH215197   6.245   2.636   3.964
 5064TIP3    H115198   6.300   2.687   3.905
 5064TIP3    H215199   6.156   2.661   3.941
 5065TIP3   OH215200   2.338   1.428   3.550
 5065TIP3    H115201   2.386   1.496   3.503
 5065TIP3    H215202   2.347   1.453   3.642
 5066TIP3   OH215203   0.896   0.404   3.032
 5066TIP3    H115204   0.823   0.441   2.981
 5066TIP3    H215205   0.939   0.479   3.071
 5067TIP3   OH215206   0.536   1.457   3.605
 5067TIP3    H115207   0.614   1.407   3.580
 5067TIP3    H215208   0.571   1.532   3.653
 5068TIP3   OH215209   2.251   4.983   3.037
 5068TIP3    H115210   2.187   4.963   3.105
 5068TIP3    H215211   2.200   5.024   2.968
 5069TIP3   OH215212   1.978   2.144   1.956
 5069TIP3    H115213   2.037   2.182   2.022
 5069TIP3    H215214   1.891   2.148   1.996
 5070TIP3   OH215215   0.079   4.797   1.739
 5070TIP3    H115216   0.012   4.817   1.805
 5070TIP3    H215217   0.100   4.882   1.700
 5071TIP3   OH215218   4.274   5.878   3.957
 5071TIP3    H115219   4.300   5.811   4.021
 5071TIP3    H215220   4.268   5.959   4.008
 5072TIP3   OH215221   3.048   1.670   0.085
 5072TIP3    H115222   3.133   1.691   0.047
 5072TIP3    H215223   2.985   1.687   0.015
 5073TIP3   OH215224   5.943   5.575   4.591
 5073TIP3    H115225   5.928   5.498   4.645
 5073TIP3    H215226   5.908   5.552   4.505
 5074TIP3   OH215227   0.970   0.434   0.313
 5074TIP3    H115228   1.001   0.457   0.401
 5074TIP3    H215229   0.941   0.518   0.276
 5075TIP3   OH215230   1.785   2.277   2.651
 5075TIP3    H115231   1.848   2.208   2.673
 5075TIP3    H215232   1.727   2.281   2.728
 5076TIP3   OH215233   5.600   4.131   4.792
 5076TIP3    H115234   5.543   4.108   4.866
 5076TIP3    H215235   5.663   4.059   4.787
 5077TIP3   OH215236   1.214   2.909   4.677
 5077TIP3    H115237   1.288   2.943   4.726
 5077TIP3    H215238   1.223   2.945   4.589
 5078TIP3   OH215239   1.172   0.146   3.572
 5078TIP3    H115240   1.108   0.075   3.579
 5078TIP3    H215241   1.212   0.135   3.485
 5079TIP3   OH215242   4.578   0.068   3.671
 5079TIP3    H115243   4.565   0.065   3.576
 5079TIP3    H215244   4.495   0.036   3.707
 5080TIP3   OH215245   4.539   3.073   0.879
 5080TIP3    H115246   4.588   3.145   0.919
 5080TIP3    H215247   4.576   2.994   0.918
 5081TIP3   OH215248   0.241   2.765   2.087
 5081TIP3    H115249   0.273   2.815   2.012
 5081TIP3    H215250   0.145   2.766   2.078
 5082TIP3   OH215251   3.309   0.846   3.432
 5082TIP3    H115252   3.392   0.823   3.389
 5082TIP3    H215253   3.325   0.932   3.470
 5083TIP3   OH215254   2.111   5.564  -0.008
 5083TIP3    H115255   2.093   5.470  -0.015
 5083TIP3    H215256   2.129   5.579   0.085
 5084TIP3   OH215257   3.306   2.393   2.703
 5084TIP3    H115258   3.390   2.369   2.740
 5084TIP3    H215259   3.281   2.473   2.749
 5085TIP3   OH215260   6.003   5.444   5.155
 5085TIP3    H115261   5.978   5.464   5.245
 5085TIP3    H215262   6.059   5.367   5.162
 5086TIP3   OH215263   4.207   1.737   3.130
 5086TIP3    H115264   4.282   1.762   3.184
 5086TIP3    H215265   4.160   1.674   3.183
 5087TIP3   OH215266   6.016   5.922   3.487
 5087TIP3    H115267   6.078   5.850   3.473
 5087TIP3    H215268   5.989   5.947   3.399
 5088TIP3   OH215269   5.194   4.413   0.179
 5088TIP3    H115270   5.243   4.385   0.257
 5088TIP3    H215271   5.131   4.476   0.212
 5089TIP3   OH215272   1.376   3.282   1.337
 5089TIP3    H115273   1.324   3.268   1.416
 5089TIP3    H215274   1.467   3.277   1.367
 5090TIP3   OH215275   5.835   0.079   4.242
 5090TIP3    H115276   5.894   0.029   4.186
 5090TIP3    H215277   5.870   0.067   4.330
 5091TIP3   OH215278   5.772   2.264   1.526
 5091TIP3    H115279   5.812   2.226   1.447
 5091TIP3    H215280   5.682   2.232   1.525
 5092TIP3   OH215281   0.132   3.376   3.520
 5092TIP3    H115282   0.055   3.366   3.576
 5092TIP3    H215283   0.098   3.370   3.431
 5093TIP3   OH215284   1.570   0.627   0.503
 5093TIP3    H115285   1.512   0.614   0.427
 5093TIP3    H215286   1.652   0.659   0.465
 5094TIP3   OH215287  -0.006   1.852   3.079
 5094TIP3    H115288   0.074   1.811   3.048
 5094TIP3    H215289  -0.046   1.890   3.001
 5095TIP3   OH215290   5.434   4.446   3.038
 5095TIP3    H115291   5.433   4.351   3.050
 5095TIP3    H215292   5.372   4.479   3.102
 5096TIP3   OH215293   2.953   4.307   1.898
 5096TIP3    H115294   2.872   4.353   1.919
 5096TIP3    H215295   2.926   4.230   1.848
 5097TIP3   OH215296   0.697   4.468   1.754
 5097TIP3    H115297   0.668   4.458   1.845
 5097TIP3    H215298   0.735   4.384   1.731
 5098TIP3   OH215299   3.395   2.607   5.119
 5098TIP3    H115300   3.469   2.625   5.061
 5098TIP3    H215301   3.328   2.570   5.062
 5099TIP3   OH215302   1.418   0.430   3.887
 5099TIP3    H115303   1.347   0.493   3.879
 5099TIP3    H215304   1.390   0.356   3.833
 5100TIP3   OH215305   1.247   2.043   4.629
 5100TIP3    H115306   1.296   2.063   4.708
 5100TIP3    H215307   1.211   1.955   4.644
 5101TIP3   OH215308   3.366   2.993   1.745
 5101TIP3    H115309   3.332   2.960   1.662
 5101TIP3    H215310   3.441   3.047   1.720
 5102TIP3   OH215311   1.854   0.554   4.334
 5102TIP3    H115312   1.778   0.498   4.319
 5102TIP3    H215313   1.855   0.614   4.259
 5103TIP3   OH215314   2.326   3.632   1.400
 5103TIP3    H115315   2.247   3.588   1.369
 5103TIP3    H215316   2.332   3.711   1.346
 5104TIP3   OH215317   4.930   1.564   2.183
 5104TIP3    H115318   4.950   1.504   2.255
 5104TIP3    H215319   4.975   1.645   2.207
 5105TIP3   OH215320   2.832   2.085   3.211
 5105TIP3    H115321   2.869   2.015   3.265
 5105TIP3    H215322   2.907   2.143   3.193
 5106TIP3   OH215323   3.635   2.013   0.869
 5106TIP3    H115324   3.689   2.032   0.792
 5106TIP3    H215325   3.573   1.947   0.838
 5107TIP3   OH215326   1.818   4.906   3.353
 5107TIP3    H115327   1.737   4.865   3.321
 5107TIP3    H215328   1.879   4.833   3.365
 5108TIP3   OH215329   4.331   5.905   0.096
 5108TIP3    H115330   4.368   5.991   0.076
 5108TIP3    H215331   4.264   5.922   0.162
 5109TIP3   OH215332   4.380   3.591   4.537
 5109TIP3    H115333   4.289   3.608   4.515
 5109TIP3    H215334   4.393   3.636   4.621
 5110TIP3   OH215335   3.061   0.097   3.454
 5110TIP3    H115336   3.091   0.026   3.511
 5110TIP3    H215337   3.138   0.153   3.443
 5111TIP3   OH215338   1.280   2.945   3.817
 5111TIP3    H115339   1.336   2.871   3.793
 5111TIP3    H215340   1.341   3.019   3.826
 5112TIP3   OH215341   3.848   1.442   2.327
 5112TIP3    H115342   3.822   1.526   2.364
 5112TIP3    H215343   3.797   1.434   2.247
 5113TIP3   OH215344   2.869   3.140   1.024
 5113TIP3    H115345   2.932   3.082   1.068
 5113TIP3    H215346   2.801   3.081   0.992
 5114TIP3   OH215347   4.221   4.780   2.798
 5114TIP3    H115348   4.298   4.828   2.767
 5114TIP3    H215349   4.221   4.792   2.893
 5115TIP3   OH215350   2.296   0.083   2.111
 5115TIP3    H115351   2.293   0.018   2.041
 5115TIP3    H215352   2.223   0.059   2.169
 5116TIP3   OH215353   3.740   5.750   4.336
 5116TIP3    H115354   3.750   5.709   4.250
 5116TIP3    H215355   3.655   5.793   4.332
 5117TIP3   OH215356   3.443   2.776   4.146
 5117TIP3    H115357   3.364   2.813   4.186
 5117TIP3    H215358   3.495   2.744   4.219
 5118TIP3   OH215359   5.700   4.868   4.298
 5118TIP3    H115360   5.735   4.934   4.238
 5118TIP3    H215361   5.635   4.821   4.247
 5119TIP3   OH215362   2.079   3.973   4.803
 5119TIP3    H115363   2.133   4.042   4.841
 5119TIP3    H215364   2.132   3.894   4.810
 5120TIP3   OH215365   3.107   3.489   1.201
 5120TIP3    H115366   3.079   3.485   1.293
 5120TIP3    H215367   3.153   3.406   1.187
 5121TIP3   OH215368   5.215   4.986   4.709
 5121TIP3    H115369   5.177   5.067   4.742
 5121TIP3    H215370   5.306   4.987   4.740
 5122TIP3   OH215371   2.235   1.394   4.264
 5122TIP3    H115372   2.174   1.342   4.317
 5122TIP3    H215373   2.181   1.461   4.223
 5123TIP3   OH215374   5.187   4.604   3.963
 5123TIP3    H115375   5.150   4.647   4.040
 5123TIP3    H215376   5.261   4.554   3.997
 5124TIP3   OH215377   1.882   4.015   4.352
 5124TIP3    H115378   1.787   4.004   4.363
 5124TIP3    H215379   1.892   4.099   4.308
 5125TIP3   OH215380   0.480   2.328   2.264
 5125TIP3    H115381   0.507   2.311   2.354
 5125TIP3    H215382   0.473   2.423   2.259
 5126TIP3   OH215383   5.813   1.621   5.062
 5126TIP3    H115384   5.734   1.571   5.083
 5126TIP3    H215385   5.780   1.704   5.027
 5127TIP3   OH215386   1.147   4.857   0.308
 5127TIP3    H115387   1.091   4.796   0.260
 5127TIP3    H215388   1.093   4.886   0.381
 5128TIP3   OH215389   2.516   4.357   5.038
 5128TIP3    H115390   2.553   4.358   5.127
 5128TIP3    H215391   2.495   4.449   5.020
 5129TIP3   OH215392   0.299   3.619   4.886
 5129TIP3    H115393   0.237   3.631   4.958
 5129TIP3    H215394   0.252   3.650   4.809
 5130TIP3   OH215395   6.154   2.918   0.592
 5130TIP3    H115396   6.145   2.873   0.676
 5130TIP3    H215397   6.093   2.874   0.534
 5131TIP3   OH215398   3.019   0.864   3.620
 5131TIP3    H115399   2.979   0.950   3.632
 5131TIP3    H215400   3.102   0.869   3.667
 5132TIP3   OH215401   2.181   3.849   3.436
 5132TIP3    H115402   2.213   3.936   3.459
 5132TIP3    H215403   2.261   3.796   3.427
 5133TIP3   OH215404   6.145   4.116   2.259
 5133TIP3    H115405   6.212   4.094   2.195
 5133TIP3    H215406   6.140   4.211   2.258
 5134TIP3   OH215407   1.172   1.043   1.851
 5134TIP3    H115408   1.156   1.116   1.791
 5134TIP3    H215409   1.221   1.082   1.924
 5135TIP3   OH215410   1.351   1.675   4.682
 5135TIP3    H115411   1.402   1.649   4.605
 5135TIP3    H215412   1.274   1.718   4.646
 5136TIP3   OH215413   5.444   2.309   0.165
 5136TIP3    H115414   5.450   2.398   0.198
 5136TIP3    H215415   5.468   2.254   0.239
 5137TIP3   OH215416   2.765   3.405   2.299
 5137TIP3    H115417   2.705   3.453   2.356
 5137TIP3    H215418   2.780   3.322   2.344
 5138TIP3   OH215419   2.123   4.122   4.589
 5138TIP3    H115420   2.085   4.210   4.587
 5138TIP3    H215421   2.082   4.080   4.664
 5139TIP3   OH215422   2.306   1.189   3.931
 5139TIP3    H115423   2.313   1.098   3.902
 5139TIP3    H215424   2.357   1.193   4.012
 5140TIP3   OH215425   3.790   5.604   2.348
 5140TIP3    H115426   3.802   5.562   2.263
 5140TIP3    H215427   3.695   5.602   2.363
 5141TIP3   OH215428   6.363   0.013   2.418
 5141TIP3    H115429   6.423   0.069   2.370
 5141TIP3    H215430   6.308   0.073   2.468
 5142TIP3   OH215431   1.144   3.289   5.117
 5142TIP3    H115432   1.184   3.262   5.034
 5142TIP3    H215433   1.120   3.207   5.160
 5143TIP3   OH215434   0.089   0.755   0.272
 5143TIP3    H115435   0.148   0.754   0.196
 5143TIP3    H215436   0.128   0.819   0.332
 5144TIP3   OH215437   1.345   0.514   1.102
 5144TIP3    H115438   1.352   0.559   1.018
 5144TIP3    H215439   1.251   0.512   1.121
 5145TIP3   OH215440   6.046   1.107   0.046
 5145TIP3    H115441   6.085   1.088   0.131
 5145TIP3    H215442   6.013   1.023   0.016
 5146TIP3   OH215443   2.924   2.422   1.777
 5146TIP3    H115444   2.915   2.510   1.741
 5146TIP3    H215445   2.834   2.389   1.781
 5147TIP3   OH215446   0.051   0.251   4.101
 5147TIP3    H115447   0.018   0.270   4.013
 5147TIP3    H215448  -0.006   0.181   4.134
 5148TIP3   OH215449   4.128   1.837   2.156
 5148TIP3    H115450   4.065   1.811   2.089
 5148TIP3    H215451   4.091   1.915   2.195
 5149TIP3   OH215452   5.452   2.794   3.985
 5149TIP3    H115453   5.429   2.803   3.892
 5149TIP3    H215454   5.372   2.762   4.026
 5150TIP3   OH215455   3.127   5.551   2.138
 5150TIP3    H115456   3.103   5.619   2.202
 5150TIP3    H215457   3.049   5.543   2.083
 5151TIP3   OH215458   1.344   5.449   3.931
 5151TIP3    H115459   1.418   5.415   3.980
 5151TIP3    H215460   1.382   5.484   3.851
 5152TIP3   OH215461   0.533   4.631   4.416
 5152TIP3    H115462   0.514   4.573   4.490
 5152TIP3    H215463   0.523   4.575   4.339
 5153TIP3   OH215464   3.428   0.876   2.614
 5153TIP3    H115465   3.435   0.971   2.602
 5153TIP3    H215466   3.334   0.858   2.618
 5154TIP3   OH215467   4.817   5.478   4.234
 5154TIP3    H115468   4.822   5.407   4.169
 5154TIP3    H215469   4.897   5.528   4.221
 5155TIP3   OH215470   4.431   0.002   0.974
 5155TIP3    H115471   4.402   0.083   0.932
 5155TIP3    H215472   4.451   0.028   1.064
 5156TIP3   OH215473   5.491   1.543   3.408
 5156TIP3    H115474   5.518   1.500   3.489
 5156TIP3    H215475   5.568   1.536   3.351
 5157TIP3   OH215476   5.264   5.304   4.103
 5157TIP3    H115477   5.315   5.228   4.132
 5157TIP3    H215478   5.173   5.274   4.106
 5158TIP3   OH215479   3.886   4.504   4.261
 5158TIP3    H115480   3.893   4.459   4.345
 5158TIP3    H215481   3.838   4.584   4.281
 5159TIP3   OH215482   0.666   1.735   0.327
 5159TIP3    H115483   0.575   1.766   0.331
 5159TIP3    H215484   0.716   1.811   0.299
 5160TIP3   OH215485   4.168   1.748   2.436
 5160TIP3    H115486   4.263   1.740   2.450
 5160TIP3    H215487   4.159   1.760   2.341
 5161TIP3   OH215488   2.626   0.707   0.353
 5161TIP3    H115489   2.542   0.751   0.364
 5161TIP3    H215490   2.603   0.615   0.340
 5162TIP3   OH215491   1.961   5.628   0.312
 5162TIP3    H115492   1.990   5.563   0.376
 5162TIP3    H215493   2.042   5.663   0.275
 5163TIP3   OH215494   1.025   4.424   4.095
 5163TIP3    H115495   0.993   4.434   4.185
 5163TIP3    H215496   1.097   4.486   4.088
 5164TIP3   OH215497   3.793   5.347   1.815
 5164TIP3    H115498   3.816   5.316   1.902
 5164TIP3    H215499   3.698   5.345   1.812
 5165TIP3   OH215500   2.091   3.411   2.295
 5165TIP3    H115501   2.045   3.389   2.213
 5165TIP3    H215502   2.094   3.506   2.296
 5166TIP3   OH215503   4.060   2.868   4.614
 5166TIP3    H115504   4.007   2.802   4.569
 5166TIP3    H215505   3.998   2.914   4.670
 5167TIP3   OH215506   3.982   3.337   3.169
 5167TIP3    H115507   4.015   3.270   3.110
 5167TIP3    H215508   4.027   3.320   3.252
 5168TIP3   OH215509   5.779   1.797   1.058
 5168TIP3    H115510   5.686   1.783   1.041
 5168TIP3    H215511   5.806   1.719   1.107
 5169TIP3   OH215512   1.973   3.038   1.080
 5169TIP3    H115513   1.915   2.975   1.037
 5169TIP3    H215514   2.002   3.096   1.009
 5170TIP3   OH215515   5.793   1.223   1.800
 5170TIP3    H115516   5.889   1.227   1.801
 5170TIP3    H215517   5.766   1.309   1.833
 5171TIP3   OH215518   3.904   3.723   4.003
 5171TIP3    H115519   3.980   3.777   3.980
 5171TIP3    H215520   3.903   3.654   3.937
 5172TIP3   OH215521   1.914   0.199   3.081
 5172TIP3    H115522   1.976   0.182   3.152
 5172TIP3    H215523   1.897   0.113   3.042
 5173TIP3   OH215524   3.021   1.851   4.468
 5173TIP3    H115525   3.051   1.886   4.552
 5173TIP3    H215526   2.931   1.883   4.460
 5174TIP3   OH215527   2.260   5.518   4.752
 5174TIP3    H115528   2.332   5.458   4.730
 5174TIP3    H215529   2.298   5.578   4.816
 5175TIP3   OH215530   2.283   0.589   2.166
 5175TIP3    H115531   2.317   0.611   2.253
 5175TIP3    H215532   2.191   0.568   2.181
 5176TIP3   OH215533   5.514   5.941   1.681
 5176TIP3    H115534   5.512   6.033   1.705
 5176TIP3    H215535   5.430   5.926   1.637
 5177TIP3   OH215536   3.340   1.828   4.071
 5177TIP3    H115537   3.429   1.855   4.096
 5177TIP3    H215538   3.311   1.773   4.144
 5178TIP3   OH215539   5.696   1.273   0.271
 5178TIP3    H115540   5.710   1.310   0.184
 5178TIP3    H215541   5.603   1.286   0.288
 5179TIP3   OH215542   5.766   3.909   4.723
 5179TIP3    H115543   5.823   3.841   4.759
 5179TIP3    H215544   5.771   3.896   4.628
 5180TIP3   OH215545   1.264   5.538   3.540
 5180TIP3    H115546   1.303   5.454   3.514
 5180TIP3    H215547   1.176   5.515   3.570
 5181TIP3   OH215548   0.228   0.939   0.404
 5181TIP3    H115549   0.261   0.896   0.483
 5181TIP3    H215550   0.161   0.999   0.435
 5182TIP3   OH215551   3.351   5.930   2.351
 5182TIP3    H115552   3.352   6.026   2.355
 5182TIP3    H215553   3.376   5.909   2.261
 5183TIP3   OH215554   0.334  -0.033   2.119
 5183TIP3    H115555   0.375  -0.090   2.053
 5183TIP3    H215556   0.373   0.053   2.105
 5184TIP3   OH215557   5.082   3.065   0.382
 5184TIP3    H115558   5.136   3.141   0.403
 5184TIP3    H215559   5.144   2.992   0.376
 5185TIP3   OH215560   4.591   3.985   0.651
 5185TIP3    H115561   4.658   3.977   0.719
 5185TIP3    H215562   4.636   3.959   0.570
 5186TIP3   OH215563   0.538   0.909   3.108
 5186TIP3    H115564   0.497   0.976   3.053
 5186TIP3    H215565   0.614   0.954   3.147
 5187TIP3   OH215566   5.958   0.668   3.725
 5187TIP3    H115567   5.961   0.750   3.775
 5187TIP3    H215568   5.913   0.691   3.644
 5188TIP3   OH215569   2.169   2.447   2.209
 5188TIP3    H115570   2.214   2.424   2.128
 5188TIP3    H215571   2.076   2.441   2.187
 5189TIP3   OH215572   4.070   3.203   4.063
 5189TIP3    H115573   3.974   3.202   4.064
 5189TIP3    H215574   4.095   3.117   4.030
 5190TIP3   OH215575   1.498   5.294   4.108
 5190TIP3    H115576   1.489   5.202   4.086
 5190TIP3    H215577   1.480   5.299   4.202
 5191TIP3   OH215578   3.087   4.760   2.202
 5191TIP3    H115579   3.170   4.723   2.230
 5191TIP3    H215580   3.108   4.851   2.180
 5192TIP3   OH215581   2.311   4.296   2.803
 5192TIP3    H115582   2.225   4.300   2.762
 5192TIP3    H215583   2.365   4.357   2.752
 5193TIP3   OH215584   6.231   5.573   1.973
 5193TIP3    H115585   6.265   5.658   1.946
 5193TIP3    H215586   6.175   5.545   1.900
 5194TIP3   OH215587   5.648   3.678   3.734
 5194TIP3    H115588   5.554   3.672   3.755
 5194TIP3    H215589   5.671   3.768   3.756
 5195TIP3   OH215590   0.663   4.774   2.745
 5195TIP3    H115591   0.651   4.695   2.797
 5195TIP3    H215592   0.587   4.775   2.687
 5196TIP3   OH215593   5.483   4.048   0.502
 5196TIP3    H115594   5.524   3.982   0.557
 5196TIP3    H215595   5.390   4.045   0.526
 5197TIP3   OH215596   1.308   0.034   3.353
 5197TIP3    H115597   1.307   0.032   3.258
 5197TIP3    H215598   1.391  -0.006   3.378
 5198TIP3   OH215599   3.057   4.668   5.089
 5198TIP3    H115600   3.045   4.662   4.994
 5198TIP3    H215601   3.050   4.578   5.120
 5199TIP3   OH215602   0.759   1.821   1.067
 5199TIP3    H115603   0.668   1.819   1.036
 5199TIP3    H215604   0.762   1.754   1.136
 5200TIP3   OH215605   5.453   1.902   1.338
 5200TIP3    H115606   5.393   1.968   1.303
 5200TIP3    H215607   5.534   1.949   1.353
 5201TIP3   OH215608   3.317   2.232   1.915
 5201TIP3    H115609   3.328   2.308   1.857
 5201TIP3    H215610   3.324   2.268   2.003
 5202TIP3   OH215611   4.639   5.772   2.500
 5202TIP3    H115612   4.561   5.767   2.444
 5202TIP3    H215613   4.706   5.812   2.444
 5203TIP3   OH215614   3.409   1.300   4.954
 5203TIP3    H115615   3.431   1.333   5.041
 5203TIP3    H215616   3.476   1.235   4.935
 5204TIP3   OH215617   1.222   1.861   0.803
 5204TIP3    H115618   1.171   1.850   0.723
 5204TIP3    H215619   1.239   1.772   0.833
 5205TIP3   OH215620   5.121   0.895   4.921
 5205TIP3    H115621   5.071   0.883   4.841
 5205TIP3    H215622   5.109   0.987   4.944
 5206TIP3   OH215623   5.625   3.546   1.755
 5206TIP3    H115624   5.608   3.640   1.756
 5206TIP3    H215625   5.565   3.510   1.821
 5207TIP3   OH215626   5.778   5.936   2.232
 5207TIP3    H115627   5.734   5.888   2.303
 5207TIP3    H215628   5.786   6.026   2.266
 5208TIP3   OH215629   3.067   2.573   4.610
 5208TIP3    H115630   3.131   2.540   4.547
 5208TIP3    H215631   3.052   2.664   4.584
 5209TIP3   OH215632   3.094   0.224   0.118
 5209TIP3    H115633   3.156   0.248   0.050
 5209TIP3    H215634   3.119   0.278   0.194
 5210TIP3   OH215635   2.950   5.715   3.824
 5210TIP3    H115636   2.924   5.790   3.877
 5210TIP3    H215637   2.958   5.643   3.886
 5211TIP3   OH215638   1.554   5.508   2.814
 5211TIP3    H115639   1.547   5.448   2.888
 5211TIP3    H215640   1.644   5.540   2.818
 5212TIP3   OH215641   5.004   5.933   4.398
 5212TIP3    H115642   4.919   5.978   4.400
 5212TIP3    H215643   5.014   5.897   4.487
 5213TIP3   OH215644   2.405   5.110   1.838
 5213TIP3    H115645   2.476   5.063   1.879
 5213TIP3    H215646   2.389   5.064   1.755
 5214TIP3   OH215647   0.523   0.753   1.903
 5214TIP3    H115648   0.475   0.702   1.838
 5214TIP3    H215649   0.524   0.842   1.868
 5215TIP3   OH215650   4.206   2.433   1.854
 5215TIP3    H115651   4.245   2.346   1.866
 5215TIP3    H215652   4.281   2.493   1.857
 5216TIP3   OH215653   2.404   3.421   4.690
 5216TIP3    H115654   2.477   3.364   4.667
 5216TIP3    H215655   2.361   3.441   4.607
 5217TIP3   OH215656   2.630   0.526   2.660
 5217TIP3    H115657   2.614   0.500   2.570
 5217TIP3    H215658   2.605   0.619   2.663
 5218TIP3   OH215659   3.324   1.065   2.300
 5218TIP3    H115660   3.377   1.079   2.378
 5218TIP3    H215661   3.234   1.084   2.328
 5219TIP3   OH215662   3.925   2.123   2.853
 5219TIP3    H115663   3.987   2.191   2.825
 5219TIP3    H215664   3.976   2.066   2.910
 5220TIP3   OH215665   5.570   3.511   0.361
 5220TIP3    H115666   5.540   3.465   0.440
 5220TIP3    H215667   5.665   3.504   0.365
 5221TIP3   OH215668   2.300   3.823   2.824
 5221TIP3    H115669   2.269   3.823   2.733
 5221TIP3    H215670   2.365   3.752   2.827
 5222TIP3   OH215671   5.938   1.558   4.838
 5222TIP3    H115672   5.946   1.636   4.782
 5222TIP3    H215673   5.910   1.592   4.923
 5223TIP3   OH215674   2.036   1.322   0.937
 5223TIP3    H115675   2.084   1.260   0.993
 5223TIP3    H215676   2.023   1.275   0.855
 5224TIP3   OH215677   4.989   4.422   3.159
 5224TIP3    H115678   5.029   4.506   3.181
 5224TIP3    H215679   4.900   4.445   3.129
 5225TIP3   OH215680   4.075   3.833   4.441
 5225TIP3    H115681   3.996   3.882   4.465
 5225TIP3    H215682   4.058   3.743   4.469
 5226TIP3   OH215683   1.664   5.957   0.233
 5226TIP3    H115684   1.725   5.913   0.292
 5226TIP3    H215685   1.578   5.922   0.258
 5227TIP3   OH215686   4.853   3.118   1.698
 5227TIP3    H115687   4.760   3.095   1.702
 5227TIP3    H215688   4.878   3.103   1.607
 5228TIP3   OH215689   5.740   5.450   1.781
 5228TIP3    H115690   5.691   5.526   1.751
 5228TIP3    H215691   5.773   5.409   1.701
 5229TIP3   OH215692   3.875   0.046   4.940
 5229TIP3    H115693   3.817   0.089   4.877
 5229TIP3    H215694   3.929   0.118   4.975
 5230TIP3   OH215695   3.025   4.531   0.325
 5230TIP3    H115696   3.105   4.483   0.304
 5230TIP3    H215697   2.986   4.552   0.241
 5231TIP3   OH215698   4.221   3.569   0.303
 5231TIP3    H115699   4.163   3.578   0.379
 5231TIP3    H215700   4.304   3.540   0.340
 5232TIP3   OH215701   5.040   0.415   2.456
 5232TIP3    H115702   5.010   0.328   2.429
 5232TIP3    H215703   4.984   0.476   2.407
 5233TIP3   OH215704   3.193   4.236   2.042
 5233TIP3    H115705   3.106   4.227   2.003
 5233TIP3    H215706   3.181   4.213   2.134
 5234TIP3   OH215707   3.650   1.190   2.598
 5234TIP3    H115708   3.658   1.108   2.646
 5234TIP3    H215709   3.717   1.247   2.637
 5235TIP3   OH215710   4.703   3.221   1.327
 5235TIP3    H115711   4.657   3.220   1.411
 5235TIP3    H215712   4.791   3.188   1.348
 5236TIP3   OH215713   1.804   3.446   2.823
 5236TIP3    H115714   1.725   3.438   2.876
 5236TIP3    H215715   1.782   3.510   2.756
 5237TIP3   OH215716   1.212   3.991   0.183
 5237TIP3    H115717   1.252   3.904   0.185
 5237TIP3    H215718   1.123   3.977   0.215
 5238TIP3   OH215719   5.744   5.012   0.115
 5238TIP3    H115720   5.727   4.978   0.203
 5238TIP3    H215721   5.832   5.051   0.121
 5239TIP3   OH215722   2.819   2.232   2.579
 5239TIP3    H115723   2.828   2.223   2.484
 5239TIP3    H215724   2.750   2.169   2.602
 5240TIP3   OH215725   0.066   3.318   3.270
 5240TIP3    H115726   0.014   3.259   3.215
 5240TIP3    H215727   0.129   3.357   3.209
 5241TIP3   OH215728   0.336   1.275   0.361
 5241TIP3    H115729   0.304   1.246   0.276
 5241TIP3    H215730   0.396   1.347   0.341
 5242TIP3   OH215731   2.415   0.938   1.129
 5242TIP3    H115732   2.492   0.941   1.072
 5242TIP3    H215733   2.436   0.870   1.193
 5243TIP3   OH215734   1.669   2.353   0.735
 5243TIP3    H115735   1.664   2.280   0.797
 5243TIP3    H215736   1.617   2.422   0.776
 5244TIP3   OH215737   5.598   0.270   0.191
 5244TIP3    H115738   5.614   0.177   0.177
 5244TIP3    H215739   5.506   0.275   0.216
 5245TIP3   OH215740   2.366   2.561   1.627
 5245TIP3    H115741   2.362   2.484   1.570
 5245TIP3    H215742   2.332   2.633   1.573
 5246TIP3   OH215743   4.422   0.398   3.401
 5246TIP3    H115744   4.512   0.390   3.368
 5246TIP3    H215745   4.432   0.440   3.487
 5247TIP3   OH215746   2.568   3.055   0.265
 5247TIP3    H115747   2.644   3.099   0.303
 5247TIP3    H215748   2.493   3.089   0.316
 5248TIP3   OH215749   1.757   2.152   2.117
 5248TIP3    H115750   1.690   2.108   2.169
 5248TIP3    H215751   1.804   2.208   2.179
 5249TIP3   OH215752   5.625   3.923   3.849
 5249TIP3    H115753   5.556   3.945   3.787
 5249TIP3    H215754   5.688   3.995   3.842
 5250TIP3   OH215755   0.801   5.322   3.059
 5250TIP3    H115756   0.858   5.252   3.091
 5250TIP3    H215757   0.826   5.399   3.110
 5251TIP3   OH215758   5.655   1.962   4.298
 5251TIP3    H115759   5.608   1.896   4.246
 5251TIP3    H215760   5.734   1.917   4.327
 5252TIP3   OH215761   6.015   3.187   3.932
 5252TIP3    H115762   5.956   3.260   3.911
 5252TIP3    H215763   5.956   3.113   3.949
 5253TIP3   OH215764   0.743   2.525   1.675
 5253TIP3    H115765   0.738   2.542   1.581
 5253TIP3    H215766   0.662   2.561   1.710
 5254TIP3   OH215767   5.094   3.665   0.703
 5254TIP3    H115768   5.051   3.739   0.661
 5254TIP3    H215769   5.062   3.588   0.656
 5255TIP3   OH215770   3.706   4.811   3.198
 5255TIP3    H115771   3.671   4.845   3.280
 5255TIP3    H215772   3.640   4.747   3.169
 5256TIP3   OH215773   1.687   3.873   2.943
 5256TIP3    H115774   1.778   3.867   2.971
 5256TIP3    H215775   1.643   3.802   2.990
 5257TIP3   OH215776   2.319   2.664   4.453
 5257TIP3    H115777   2.304   2.592   4.391
 5257TIP3    H215778   2.234   2.675   4.496
 5258TIP3   OH215779   6.221   3.162   0.476
 5258TIP3    H115780   6.170   3.196   0.403
 5258TIP3    H215781   6.174   3.084   0.505
 5259TIP3   OH215782   3.009   5.970   1.051
 5259TIP3    H115783   3.064   6.047   1.065
 5259TIP3    H215784   3.044   5.903   1.109
 5260TIP3   OH215785   4.338   3.675   3.644
 5260TIP3    H115786   4.340   3.769   3.664
 5260TIP3    H215787   4.426   3.655   3.613
 5261TIP3   OH215788   1.635   1.894   1.013
 5261TIP3    H115789   1.602   1.805   0.998
 5261TIP3    H215790   1.712   1.901   0.956
 5262TIP3   OH215791   2.581   1.516   0.958
 5262TIP3    H115792   2.622   1.537   1.041
 5262TIP3    H215793   2.641   1.552   0.892
 5263TIP3   OH215794   2.632   3.862   2.522
 5263TIP3    H115795   2.607   3.866   2.430
 5263TIP3    H215796   2.557   3.819   2.565
 5264TIP3   OH215797   3.082   3.594   1.543
 5264TIP3    H115798   3.043   3.512   1.515
 5264TIP3    H215799   3.044   3.610   1.629
 5265TIP3   OH215800   4.097   2.953   3.964
 5265TIP3    H115801   4.028   2.962   3.898
 5265TIP3    H215802   4.176   2.938   3.913
 5266TIP3   OH215803   5.719   2.689   3.969
 5266TIP3    H115804   5.633   2.729   3.986
 5266TIP3    H215805   5.756   2.743   3.898
 5267TIP3   OH215806   4.241   4.251   2.955
 5267TIP3    H115807   4.270   4.188   3.021
 5267TIP3    H215808   4.290   4.228   2.876
 5268TIP3   OH215809   4.124   5.692   0.302
 5268TIP3    H115810   4.067   5.765   0.326
 5268TIP3    H215811   4.089   5.617   0.350
 5269TIP3   OH215812   1.673   0.914   3.870
 5269TIP3    H115813   1.734   0.882   3.804
 5269TIP3    H215814   1.652   0.837   3.922
 5270TIP3   OH215815   1.138   3.944   2.005
 5270TIP3    H115816   1.139   3.880   1.934
 5270TIP3    H215817   1.123   4.028   1.961
 5271TIP3   OH215818   4.210   2.563   0.441
 5271TIP3    H115819   4.251   2.476   0.448
 5271TIP3    H215820   4.118   2.547   0.460
 5272TIP3   OH215821   3.294   3.848   4.760
 5272TIP3    H115822   3.313   3.835   4.853
 5272TIP3    H215823   3.344   3.778   4.716
 5273TIP3   OH215824   3.342   1.336   1.085
 5273TIP3    H115825   3.331   1.253   1.131
 5273TIP3    H215826   3.281   1.331   1.011
 5274TIP3   OH215827   0.469   3.502   2.681
 5274TIP3    H115828   0.508   3.589   2.689
 5274TIP3    H215829   0.543   3.445   2.661
 5275TIP3   OH215830   1.053   1.854   3.689
 5275TIP3    H115831   1.081   1.763   3.683
 5275TIP3    H215832   1.060   1.887   3.599
 5276TIP3   OH215833   1.548   2.636   4.439
 5276TIP3    H115834   1.581   2.717   4.477
 5276TIP3    H215835   1.620   2.602   4.387
 5277TIP3   OH215836   5.053   3.598   3.261
 5277TIP3    H115837   5.071   3.660   3.332
 5277TIP3    H215838   4.989   3.642   3.206
 5278TIP3   OH215839   2.747   2.046   5.122
 5278TIP3    H115840   2.771   2.076   5.209
 5278TIP3    H215841   2.812   1.979   5.101
 5279TIP3   OH215842   0.432   1.958   2.464
 5279TIP3    H115843   0.485   2.038   2.465
 5279TIP3    H215844   0.490   1.891   2.502
 5280TIP3   OH215845   5.267   3.080   0.618
 5280TIP3    H115846   5.308   3.130   0.547
 5280TIP3    H215847   5.242   3.146   0.682
 5281TIP3   OH215848   5.593   1.273   3.534
 5281TIP3    H115849   5.552   1.244   3.616
 5281TIP3    H215850   5.520   1.281   3.473
 5282TIP3   OH215851   4.508   0.141   1.460
 5282TIP3    H115852   4.498   0.127   1.366
 5282TIP3    H215853   4.574   0.210   1.467
 5283TIP3   OH215854   1.922   0.294   2.378
 5283TIP3    H115855   1.979   0.217   2.383
 5283TIP3    H215856   1.906   0.316   2.470
 5284TIP3   OH215857   5.893   2.922   2.487
 5284TIP3    H115858   5.934   2.945   2.404
 5284TIP3    H215859   5.834   2.849   2.465
 5285TIP3   OH215860   4.171   1.674   4.245
 5285TIP3    H115861   4.233   1.733   4.203
 5285TIP3    H215862   4.152   1.607   4.178
 5286TIP3   OH215863   3.198   0.079   4.684
 5286TIP3    H115864   3.134   0.144   4.654
 5286TIP3    H215865   3.164  -0.004   4.652
 5287TIP3   OH215866   4.129   2.714   3.761
 5287TIP3    H115867   4.148   2.799   3.719
 5287TIP3    H215868   4.204   2.698   3.817
 5288TIP3   OH215869   0.985   4.478   4.720
 5288TIP3    H115870   1.058   4.537   4.697
 5288TIP3    H215871   0.942   4.460   4.636
 5289TIP3   OH215872   4.032   0.454   2.980
 5289TIP3    H115873   4.095   0.501   3.036
 5289TIP3    H215874   4.035   0.502   2.897
 5290TIP3   OH215875   1.791   2.196   4.880
 5290TIP3    H115876   1.780   2.276   4.932
 5290TIP3    H215877   1.702   2.175   4.849
 5291TIP3   OH215878   5.854   1.539   2.356
 5291TIP3    H115879   5.948   1.529   2.340
 5291TIP3    H215880   5.849   1.574   2.445
 5292TIP3   OH215881   0.489   5.201   4.014
 5292TIP3    H115882   0.490   5.108   4.035
 5292TIP3    H215883   0.396   5.223   4.010
 5293TIP3   OH215884   5.244   3.355   1.993
 5293TIP3    H115885   5.177   3.421   1.974
 5293TIP3    H215886   5.204   3.272   1.966
 5294TIP3   OH215887   4.716   1.881   5.004
 5294TIP3    H115888   4.796   1.926   5.028
 5294TIP3    H215889   4.722   1.795   5.047
 5295TIP3   OH215890   1.414   4.156   0.332
 5295TIP3    H115891   1.352   4.200   0.273
 5295TIP3    H215892   1.359   4.117   0.400
 5296TIP3   OH215893   2.306   1.503   3.843
 5296TIP3    H115894   2.343   1.569   3.901
 5296TIP3    H215895   2.305   1.423   3.895
 5297TIP3   OH215896   3.308   0.992   2.998
 5297TIP3    H115897   3.234   1.042   2.963
 5297TIP3    H215898   3.273   0.953   3.078
 5298TIP3   OH215899   2.811   2.668   2.147
 5298TIP3    H115900   2.760   2.590   2.123
 5298TIP3    H215901   2.774   2.738   2.093
 5299TIP3   OH215902   3.470   1.760   3.388
 5299TIP3    H115903   3.480   1.668   3.364
 5299TIP3    H215904   3.395   1.762   3.447
 5300TIP3   OH215905   1.365   5.018   2.070
 5300TIP3    H115906   1.280   5.061   2.081
 5300TIP3    H215907   1.349   4.926   2.094
 5301TIP3   OH215908   0.586   2.126   4.306
 5301TIP3    H115909   0.614   2.218   4.303
 5301TIP3    H215910   0.605   2.099   4.396
 5302TIP3   OH215911   3.984   1.021   0.706
 5302TIP3    H115912   3.892   0.996   0.700
 5302TIP3    H215913   4.030   0.940   0.725
 5303TIP3   OH215914   0.245   3.713   3.240
 5303TIP3    H115915   0.225   3.760   3.159
 5303TIP3    H215916   0.248   3.621   3.214
 5304TIP3   OH215917   0.797   4.276   4.098
 5304TIP3    H115918   0.857   4.349   4.084
 5304TIP3    H215919   0.804   4.225   4.017
 5305TIP3   OH215920   1.269   2.895   1.570
 5305TIP3    H115921   1.350   2.904   1.519
 5305TIP3    H215922   1.208   2.955   1.527
 5306TIP3   OH215923   5.758   2.298   1.168
 5306TIP3    H115924   5.735   2.209   1.193
 5306TIP3    H215925   5.796   2.289   1.081
 5307TIP3   OH215926   2.908   0.655   3.811
 5307TIP3    H115927   2.862   0.735   3.784
 5307TIP3    H215928   2.914   0.602   3.732
 5308TIP3   OH215929   5.030   2.936   4.073
 5308TIP3    H115930   4.997   2.970   3.990
 5308TIP3    H215931   4.951   2.918   4.124
 5309TIP3   OH215932   5.732   4.939   0.368
 5309TIP3    H115933   5.650   4.945   0.418
 5309TIP3    H215934   5.798   4.917   0.434
 5310TIP3   OH215935   1.696   0.237   1.367
 5310TIP3    H115936   1.659   0.255   1.281
 5310TIP3    H215937   1.628   0.265   1.429
 5311TIP3   OH215938   5.722   3.843   2.822
 5311TIP3    H115939   5.715   3.938   2.811
 5311TIP3    H215940   5.713   3.829   2.916
 5312TIP3   OH215941   2.565   5.825   3.557
 5312TIP3    H115942   2.475   5.794   3.565
 5312TIP3    H215943   2.567   5.908   3.604
 5313TIP3   OH215944  -0.003   1.284   1.628
 5313TIP3    H115945   0.070   1.336   1.663
 5313TIP3    H215946   0.039   1.220   1.570
 5314TIP3   OH215947   0.437   5.920   3.240
 5314TIP3    H115948   0.380   5.853   3.279
 5314TIP3    H215949   0.525   5.885   3.252
 5315TIP3   OH215950   2.415   1.435   0.090
 5315TIP3    H115951   2.382   1.349   0.066
 5315TIP3    H215952   2.382   1.450   0.178
 5316TIP3   OH215953   1.466   2.602   3.514
 5316TIP3    H115954   1.373   2.624   3.508
 5316TIP3    H215955   1.511   2.686   3.507
 5317TIP3   OH215956   2.103   0.268   0.459
 5317TIP3    H115957   2.162   0.230   0.525
 5317TIP3    H215958   2.017   0.264   0.499
 5318TIP3   OH215959   3.376   5.667   2.098
 5318TIP3    H115960   3.364   5.756   2.065
 5318TIP3    H215961   3.289   5.628   2.096
 5319TIP3   OH215962   3.152   2.305   3.720
 5319TIP3    H115963   3.225   2.243   3.715
 5319TIP3    H215964   3.183   2.376   3.777
 5320TIP3   OH215965   0.219   2.319   1.915
 5320TIP3    H115966   0.186   2.240   1.871
 5320TIP3    H215967   0.259   2.286   1.996
 5321TIP3   OH215968   3.435   1.235   3.099
 5321TIP3    H115969   3.524   1.218   3.069
 5321TIP3    H215970   3.381   1.169   3.055
 5322TIP3   OH215971   5.448   5.250   0.426
 5322TIP3    H115972   5.493   5.309   0.487
 5322TIP3    H215973   5.513   5.232   0.358
 5323TIP3   OH215974   1.871   3.861   1.329
 5323TIP3    H115975   1.941   3.926   1.318
 5323TIP3    H215976   1.860   3.852   1.423
 5324TIP3   OH215977   6.114   4.248   4.403
 5324TIP3    H115978   6.100   4.291   4.318
 5324TIP3    H215979   6.192   4.195   4.390
 5325TIP3   OH215980   0.819   0.772   4.754
 5325TIP3    H115981   0.733   0.755   4.717
 5325TIP3    H215982   0.802   0.823   4.833
 5326TIP3   OH215983   5.429   3.015   4.238
 5326TIP3    H115984   5.410   2.925   4.264
 5326TIP3    H215985   5.345   3.060   4.242
 5327TIP3   OH215986   1.397   1.264   3.790
 5327TIP3    H115987   1.490   1.261   3.766
 5327TIP3    H215988   1.371   1.355   3.774
 5328TIP3   OH215989   0.317   2.174   4.512
 5328TIP3    H115990   0.403   2.135   4.532
 5328TIP3    H215991   0.327   2.266   4.536
 5329TIP3   OH215992   3.674   5.888   2.303
 5329TIP3    H115993   3.648   5.798   2.284
 5329TIP3    H215994   3.614   5.916   2.372
 5330TIP3   OH215995   2.448   2.670   1.943
 5330TIP3    H115996   2.458   2.646   1.851
 5330TIP3    H215997   2.356   2.650   1.963
 5331TIP3   OH215998   2.543   5.323   2.851
 5331TIP3    H115999   2.576   5.234   2.864
 5331TIP3    H216000   2.448   5.315   2.859
 5332TIP3   OH216001   1.335   0.530   0.347
 5332TIP3    H116002   1.267   0.597   0.339
 5332TIP3    H216003   1.300   0.468   0.411
 5333TIP3   OH216004   5.336   1.157   0.498
 5333TIP3    H116005   5.301   1.179   0.584
 5333TIP3    H216006   5.431   1.161   0.509
 5334TIP3   OH216007   2.832   2.793   1.338
 5334TIP3    H116008   2.777   2.764   1.265
 5334TIP3    H216009   2.829   2.888   1.334
 5335TIP3   OH216010   4.066   5.469   0.847
 5335TIP3    H116011   4.049   5.535   0.914
 5335TIP3    H216012   3.990   5.472   0.790
 5336TIP3   OH216013   4.152   3.086   4.977
 5336TIP3    H116014   4.118   3.165   4.937
 5336TIP3    H216015   4.243   3.080   4.947
 5337TIP3   OH216016   4.207   1.896   3.446
 5337TIP3    H116017   4.259   1.914   3.524
 5337TIP3    H216018   4.218   1.973   3.391
 5338TIP3   OH216019   5.901   2.077   4.024
 5338TIP3    H116020   5.869   1.990   4.001
 5338TIP3    H216021   5.872   2.091   4.114
 5339TIP3   OH216022   5.324   2.057   0.716
 5339TIP3    H116023   5.297   1.967   0.732
 5339TIP3    H216024   5.252   2.110   0.749
 5340TIP3   OH216025   3.127   3.278   3.765
 5340TIP3    H116026   3.093   3.300   3.851
 5340TIP3    H216027   3.127   3.362   3.718
 5341TIP3   OH216028   6.186   3.712   3.548
 5341TIP3    H116029   6.261   3.755   3.506
 5341TIP3    H216030   6.121   3.703   3.477
 5342TIP3   OH216031   5.791   1.472   1.203
 5342TIP3    H116032   5.818   1.456   1.113
 5342TIP3    H216033   5.868   1.509   1.245
 5343TIP3   OH216034   5.338   5.884   2.548
 5343TIP3    H116035   5.367   5.930   2.626
 5343TIP3    H216036   5.279   5.816   2.580
 5344TIP3   OH216037   5.693   5.591   0.155
 5344TIP3    H116038   5.672   5.501   0.178
 5344TIP3    H216039   5.631   5.613   0.085
 5345TIP3   OH216040   1.121   4.880   4.377
 5345TIP3    H116041   1.046   4.824   4.358
 5345TIP3    H216042   1.093   4.968   4.352
 5346TIP3   OH216043   0.526   1.497   1.913
 5346TIP3    H116044   0.575   1.416   1.898
 5346TIP3    H216045   0.581   1.566   1.876
 5347TIP3   OH216046   0.438   0.450   2.768
 5347TIP3    H116047   0.463   0.374   2.716
 5347TIP3    H216048   0.479   0.524   2.723
 5348TIP3   OH216049   0.698   1.020   4.026
 5348TIP3    H116050   0.606   1.009   4.005
 5348TIP3    H216051   0.699   1.057   4.114
 5349TIP3   OH216052   1.759   0.674   1.817
 5349TIP3    H116053   1.687   0.641   1.869
 5349TIP3    H216054   1.727   0.757   1.781
 5350TIP3   OH216055   1.101   5.720   2.348
 5350TIP3    H116056   1.106   5.773   2.428
 5350TIP3    H216057   1.088   5.784   2.278
 5351TIP3   OH216058   0.681   4.656   3.574
 5351TIP3    H116059   0.631   4.734   3.551
 5351TIP3    H216060   0.764   4.666   3.527
 5352TIP3   OH216061   2.271   2.774   0.936
 5352TIP3    H116062   2.235   2.709   0.995
 5352TIP3    H216063   2.324   2.724   0.874
 5353TIP3   OH216064   0.417   3.792   2.994
 5353TIP3    H116065   0.330   3.832   2.996
 5353TIP3    H216066   0.401   3.698   2.989
 5354TIP3   OH216067   0.521   0.915   4.955
 5354TIP3    H116068   0.491   0.868   4.877
 5354TIP3    H216069   0.442   0.953   4.993
 5355TIP3   OH216070   2.413   2.052   4.602
 5355TIP3    H116071   2.319   2.066   4.587
 5355TIP3    H216072   2.457   2.115   4.545
 5356TIP3   OH216073   3.945   1.047   4.690
 5356TIP3    H116074   4.029   1.009   4.666
 5356TIP3    H216075   3.883   0.974   4.682
 5357TIP3   OH216076   1.870   5.744   4.736
 5357TIP3    H116077   1.816   5.800   4.680
 5357TIP3    H216078   1.930   5.805   4.780
 5358TIP3   OH216079   2.708   3.502   0.719
 5358TIP3    H116080   2.619   3.516   0.752
 5358TIP3    H216081   2.716   3.564   0.646
 5359TIP3   OH216082   5.114   1.334   3.137
 5359TIP3    H116083   5.124   1.313   3.230
 5359TIP3    H216084   5.201   1.361   3.110
 5360TIP3   OH216085   5.089   4.378   4.127
 5360TIP3    H116086   5.098   4.471   4.105
 5360TIP3    H216087   5.169   4.358   4.176
 5361TIP3   OH216088   3.074   3.224   1.761
 5361TIP3    H116089   3.050   3.171   1.837
 5361TIP3    H216090   3.134   3.169   1.711
 5362TIP3   OH216091   5.187   5.483  -0.021
 5362TIP3    H116092   5.123   5.543   0.017
 5362TIP3    H216093   5.250   5.468   0.050
 5363TIP3   OH216094   5.294   0.180   3.810
 5363TIP3    H116095   5.320   0.136   3.891
 5363TIP3    H216096   5.257   0.263   3.839
 5364TIP3   OH216097   5.010   1.900   0.302
 5364TIP3    H116098   4.952   1.941   0.366
 5364TIP3    H216099   5.013   1.808   0.328
 5365TIP3   OH216100   4.269   0.107   4.839
 5365TIP3    H116101   4.195   0.128   4.896
 5365TIP3    H216102   4.274   0.011   4.840
 5366TIP3   OH216103   2.297   3.829   3.748
 5366TIP3    H116104   2.316   3.786   3.664
 5366TIP3    H216105   2.271   3.757   3.806
 5367TIP3   OH216106   4.286   3.402   3.685
 5367TIP3    H116107   4.268   3.496   3.681
 5367TIP3    H216108   4.264   3.377   3.774
 5368TIP3   OH216109   5.146   3.655   3.934
 5368TIP3    H116110   5.072   3.716   3.939
 5368TIP3    H216111   5.110   3.571   3.963
 5369TIP3   OH216112   3.983   5.883   3.465
 5369TIP3    H116113   4.005   5.803   3.418
 5369TIP3    H216114   3.910   5.858   3.522
 5370TIP3   OH216115   1.852   5.695   1.679
 5370TIP3    H116116   1.918   5.728   1.739
 5370TIP3    H216117   1.789   5.767   1.671
 5371TIP3   OH216118   2.348   1.600   4.421
 5371TIP3    H116119   2.339   1.537   4.350
 5371TIP3    H216120   2.318   1.553   4.499
 5372TIP3   OH216121   0.782   4.176   2.009
 5372TIP3    H116122   0.837   4.137   2.076
 5372TIP3    H216123   0.693   4.149   2.033
 5373TIP3   OH216124   4.905   2.071   0.509
 5373TIP3    H116125   4.879   2.159   0.483
 5373TIP3    H216126   4.910   2.075   0.604
 5374TIP3   OH216127   3.915   1.542   2.988
 5374TIP3    H116128   3.952   1.545   2.900
 5374TIP3    H216129   3.856   1.617   2.991
 5375TIP3   OH216130   5.761   5.491   4.378
 5375TIP3    H116131   5.706   5.418   4.351
 5375TIP3    H216132   5.769   5.546   4.300
 5376TIP3   OH216133   2.084   5.116   0.299
 5376TIP3    H116134   2.115   5.070   0.221
 5376TIP3    H216135   2.163   5.149   0.341
 5377TIP3   OH216136   3.626   1.145   4.912
 5377TIP3    H116137   3.682   1.067   4.905
 5377TIP3    H216138   3.684   1.217   4.888
 5378TIP3   OH216139   3.776   2.558   0.224
 5378TIP3    H116140   3.725   2.621   0.173
 5378TIP3    H216141   3.737   2.560   0.311
 5379TIP3   OH216142   2.229   1.556   5.187
 5379TIP3    H116143   2.215   1.621   5.118
 5379TIP3    H216144   2.282   1.488   5.146
 5380TIP3   OH216145   2.657   1.988   4.194
 5380TIP3    H116146   2.713   2.015   4.121
 5380TIP3    H216147   2.568   2.008   4.165
 5381TIP3   OH216148   5.146   3.913   4.717
 5381TIP3    H116149   5.242   3.910   4.714
 5381TIP3    H216150   5.124   4.002   4.688
 5382TIP3   OH216151   2.619   1.091   2.093
 5382TIP3    H116152   2.542   1.126   2.048
 5382TIP3    H216153   2.681   1.073   2.024
 5383TIP3   OH216154   0.461   2.595   3.284
 5383TIP3    H116155   0.412   2.660   3.234
 5383TIP3    H216156   0.550   2.628   3.285
 5384TIP3   OH216157   3.337   5.667   1.722
 5384TIP3    H116158   3.424   5.671   1.763
 5384TIP3    H216159   3.329   5.577   1.692
 5385TIP3   OH216160   5.679   3.734   2.517
 5385TIP3    H116161   5.603   3.784   2.548
 5385TIP3    H216162   5.690   3.762   2.427
 5386TIP3   OH216163   5.612   1.371   4.854
 5386TIP3    H116164   5.559   1.293   4.873
 5386TIP3    H216165   5.583   1.436   4.917
 5387TIP3   OH216166   4.488   2.303   2.091
 5387TIP3    H116167   4.502   2.268   2.003
 5387TIP3    H216168   4.394   2.293   2.105
 5388TIP3   OH216169   5.458   2.668   1.167
 5388TIP3    H116170   5.524   2.672   1.098
 5388TIP3    H216171   5.480   2.590   1.217
 5389TIP3   OH216172   0.129   4.182   0.915
 5389TIP3    H116173   0.078   4.197   0.835
 5389TIP3    H216174   0.155   4.269   0.944
 5390TIP3   OH216175   4.020   5.171   0.556
 5390TIP3    H116176   4.057   5.149   0.642
 5390TIP3    H216177   3.946   5.112   0.546
 5391TIP3   OH216178   0.579   5.751   3.472
 5391TIP3    H116179   0.492   5.779   3.501
 5391TIP3    H216180   0.605   5.684   3.535
 5392TIP3   OH216181   0.446   2.038   0.636
 5392TIP3    H116182   0.466   1.949   0.607
 5392TIP3    H216183   0.526   2.088   0.621
 5393TIP3   OH216184   5.857   0.742   2.775
 5393TIP3    H116185   5.777   0.713   2.731
 5393TIP3    H216186   5.928   0.705   2.721
 5394TIP3   OH216187   3.594   3.799   4.376
 5394TIP3    H116188   3.677   3.752   4.384
 5394TIP3    H216189   3.554   3.791   4.463
 5395TIP3   OH216190   6.204   2.392   4.474
 5395TIP3    H116191   6.110   2.397   4.491
 5395TIP3    H216192   6.213   2.421   4.383
 5396TIP3   OH216193   0.529   1.068   4.364
 5396TIP3    H116194   0.471   1.124   4.314
 5396TIP3    H216195   0.616   1.105   4.351
 5397TIP3   OH216196   2.567   5.076   0.886
 5397TIP3    H116197   2.656   5.111   0.874
 5397TIP3    H216198   2.542   5.044   0.799
 5398TIP3   OH216199   6.345   2.356   3.435
 5398TIP3    H116200   6.284   2.415   3.478
 5398TIP3    H216201   6.409   2.415   3.393
 5399TIP3   OH216202   1.917   5.431   3.987
 5399TIP3    H116203   1.961   5.395   3.910
 5399TIP3    H216204   1.886   5.355   4.036
 5400TIP3   OH216205   4.764   4.558   4.040
 5400TIP3    H116206   4.716   4.603   4.109
 5400TIP3    H216207   4.794   4.476   4.081
 5401TIP3   OH216208   0.090   2.047   4.705
 5401TIP3    H116209   0.073   1.972   4.762
 5401TIP3    H216210   0.170   2.024   4.658
 5402TIP3   OH216211   5.407   5.035   4.121
 5402TIP3    H116212   5.453   5.049   4.038
 5402TIP3    H216213   5.472   4.993   4.177
 5403TIP3   OH216214   5.246   0.120   3.300
 5403TIP3    H116215   5.332   0.079   3.290
 5403TIP3    H216216   5.229   0.117   3.394
 5404TIP3   OH216217   5.219   2.711   4.151
 5404TIP3    H116218   5.170   2.793   4.154
 5404TIP3    H216219   5.175   2.658   4.084
 5405TIP3   OH216220   3.693   1.084   3.514
 5405TIP3    H116221   3.740   1.151   3.564
 5405TIP3    H216222   3.747   1.068   3.437
 5406TIP3   OH216223   3.196   4.696   2.795
 5406TIP3    H116224   3.151   4.698   2.710
 5406TIP3    H216225   3.126   4.708   2.860
 5407TIP3   OH216226   0.522   2.592   3.917
 5407TIP3    H116227   0.600   2.626   3.872
 5407TIP3    H216228   0.464   2.563   3.847
 5408TIP3   OH216229   5.841   0.987   4.643
 5408TIP3    H116230   5.823   1.061   4.701
 5408TIP3    H216231   5.810   1.015   4.557
 5409TIP3   OH216232   0.134   2.418   0.227
 5409TIP3    H116233   0.165   2.346   0.173
 5409TIP3    H216234   0.195   2.490   0.209
 5410TIP3   OH216235   4.779   3.450   4.190
 5410TIP3    H116236   4.707   3.474   4.249
 5410TIP3    H216237   4.829   3.531   4.179
 5411TIP3   OH216238   2.869   3.259   3.616
 5411TIP3    H116239   2.907   3.210   3.543
 5411TIP3    H216240   2.941   3.268   3.679
 5412TIP3   OH216241   0.595   4.378   0.290
 5412TIP3    H116242   0.506   4.390   0.324
 5412TIP3    H216243   0.616   4.460   0.246
 5413TIP3   OH216244   6.040   1.799   0.943
 5413TIP3    H116245   5.949   1.812   0.971
 5413TIP3    H216246   6.072   1.886   0.921
 5414TIP3   OH216247   2.104   2.669   3.599
 5414TIP3    H116248   2.154   2.687   3.678
 5414TIP3    H216249   2.135   2.736   3.536
 5415TIP3   OH216250   1.337   3.170   1.857
 5415TIP3    H116251   1.262   3.186   1.914
 5415TIP3    H216252   1.384   3.098   1.898
 5416TIP3   OH216253   0.089   0.615   3.517
 5416TIP3    H116254   0.168   0.634   3.466
 5416TIP3    H216255   0.032   0.690   3.504
 5417TIP3   OH216256   5.165   2.312   1.361
 5417TIP3    H116257   5.126   2.367   1.294
 5417TIP3    H216258   5.102   2.242   1.376
 5418TIP3   OH216259   4.319   2.946   3.798
 5418TIP3    H116260   4.252   3.004   3.761
 5418TIP3    H216261   4.391   3.004   3.821
 5419TIP3   OH216262   5.073   4.568   3.410
 5419TIP3    H116263   5.067   4.532   3.499
 5419TIP3    H216264   4.982   4.584   3.385
 5420TIP3   OH216265   6.085   4.383   0.542
 5420TIP3    H116266   6.014   4.333   0.582
 5420TIP3    H216267   6.058   4.395   0.451
 5421TIP3   OH216268   1.943   4.351   1.389
 5421TIP3    H116269   2.025   4.327   1.432
 5421TIP3    H216270   1.881   4.284   1.418
 5422TIP3   OH216271   3.399   2.161   4.149
 5422TIP3    H116272   3.315   2.154   4.103
 5422TIP3    H216273   3.465   2.152   4.081
 5423TIP3   OH216274   1.580   2.325   5.183
 5423TIP3    H116275   1.533   2.352   5.104
 5423TIP3    H216276   1.637   2.400   5.203
 5424TIP3   OH216277   4.558   3.157   0.405
 5424TIP3    H116278   4.634   3.102   0.425
 5424TIP3    H216279   4.572   3.184   0.314
 5425TIP3   OH216280   1.104   3.043   2.996
 5425TIP3    H116281   1.116   3.006   3.084
 5425TIP3    H216282   1.068   2.971   2.945
 5426TIP3   OH216283   0.999   3.943   4.932
 5426TIP3    H116284   0.934   3.915   4.996
 5426TIP3    H216285   1.076   3.965   4.983
 5427TIP3   OH216286   0.139   3.253   1.661
 5427TIP3    H116287   0.081   3.227   1.589
 5427TIP3    H216288   0.144   3.175   1.717
 5428TIP3   OH216289   1.656   0.696   1.319
 5428TIP3    H116290   1.564   0.719   1.308
 5428TIP3    H216291   1.688   0.756   1.386
 5429TIP3   OH216292   4.818   1.502   2.871
 5429TIP3    H116293   4.902   1.539   2.901
 5429TIP3    H216294   4.752   1.555   2.916
 5430TIP3   OH216295   3.910   3.410   4.993
 5430TIP3    H116296   3.987   3.447   4.949
 5430TIP3    H216297   3.915   3.316   4.974
 5431TIP3   OH216298   5.467   3.670   3.323
 5431TIP3    H116299   5.539   3.636   3.376
 5431TIP3    H216300   5.413   3.594   3.303
 5432TIP3   OH216301   0.964   2.141   4.906
 5432TIP3    H116302   0.887   2.192   4.934
 5432TIP3    H216303   1.006   2.196   4.840
 5433TIP3   OH216304   1.443   0.272   0.095
 5433TIP3    H116305   1.508   0.260   0.164
 5433TIP3    H216306   1.471   0.350   0.049
 5434TIP3   OH216307   5.570   1.198   0.755
 5434TIP3    H116308   5.577   1.127   0.818
 5434TIP3    H216309   5.640   1.258   0.779
 5435TIP3   OH216310   2.541   5.295   0.653
 5435TIP3    H116311   2.557   5.314   0.561
 5435TIP3    H216312   2.553   5.201   0.661
 5436TIP3   OH216313   2.023   5.161   2.869
 5436TIP3    H116314   2.028   5.108   2.789
 5436TIP3    H216315   1.934   5.147   2.902
 5437TIP3   OH216316   0.226   4.547   3.442
 5437TIP3    H116317   0.189   4.467   3.479
 5437TIP3    H216318   0.151   4.592   3.403
 5438TIP3   OH216319   3.344   4.096   0.395
 5438TIP3    H116320   3.286   4.020   0.400
 5438TIP3    H216321   3.297   4.165   0.442
 5439TIP3   OH216322   4.300   1.161   2.243
 5439TIP3    H116323   4.205   1.175   2.253
 5439TIP3    H216324   4.308   1.104   2.167
 5440TIP3   OH216325   3.804   2.204   2.614
 5440TIP3    H116326   3.806   2.162   2.528
 5440TIP3    H216327   3.849   2.143   2.672
 5441TIP3   OH216328   4.229   1.305   1.703
 5441TIP3    H116329   4.259   1.270   1.787
 5441TIP3    H216330   4.219   1.399   1.719
 5442TIP3   OH216331   0.720   3.810   0.647
 5442TIP3    H116332   0.750   3.875   0.583
 5442TIP3    H216333   0.632   3.786   0.617
 5443TIP3   OH216334   3.798   3.199   4.046
 5443TIP3    H116335   3.753   3.275   4.084
 5443TIP3    H216336   3.739   3.126   4.061
 5444TIP3   OH216337   2.455   2.401   0.431
 5444TIP3    H116338   2.414   2.435   0.351
 5444TIP3    H216339   2.460   2.307   0.416
 5445TIP3   OH216340   4.693   5.792   3.099
 5445TIP3    H116341   4.727   5.719   3.151
 5445TIP3    H216342   4.619   5.825   3.149
 5446TIP3   OH216343   0.166   5.415   0.987
 5446TIP3    H116344   0.239   5.375   0.940
 5446TIP3    H216345   0.203   5.442   1.071
 5447TIP3   OH216346   5.685   3.291   0.178
 5447TIP3    H116347   5.732   3.239   0.243
 5447TIP3    H216348   5.681   3.379   0.216
 5448TIP3   OH216349   4.471   1.145   3.854
 5448TIP3    H116350   4.534   1.190   3.797
 5448TIP3    H216351   4.508   1.057   3.865
 5449TIP3   OH216352   4.879   0.199   2.187
 5449TIP3    H116353   4.876   0.186   2.092
 5449TIP3    H216354   4.823   0.130   2.223
 5450TIP3   OH216355   0.485   4.084   2.917
 5450TIP3    H116356   0.499   3.996   2.951
 5450TIP3    H216357   0.390   4.091   2.905
 5451TIP3   OH216358   3.862   3.993   4.775
 5451TIP3    H116359   3.855   3.899   4.787
 5451TIP3    H216360   3.820   4.030   4.853
 5452TIP3   OH216361   4.987   2.067   1.789
 5452TIP3    H116362   5.048   2.105   1.852
 5452TIP3    H216363   5.035   1.995   1.749
 5453TIP3   OH216364   4.474   3.175   1.161
 5453TIP3    H116365   4.396   3.202   1.209
 5453TIP3    H216366   4.547   3.208   1.213
 5454TIP3   OH216367   4.623   4.683   1.709
 5454TIP3    H116368   4.604   4.777   1.713
 5454TIP3    H216369   4.713   4.676   1.741
 5455TIP3   OH216370   2.154   5.264   2.511
 5455TIP3    H116371   2.085   5.208   2.546
 5455TIP3    H216372   2.138   5.264   2.416
 5456TIP3   OH216373   0.624   4.283   0.596
 5456TIP3    H116374   0.626   4.374   0.569
 5456TIP3    H216375   0.561   4.281   0.669
 5457TIP3   OH216376   0.302   0.510   1.456
 5457TIP3    H116377   0.372   0.574   1.443
 5457TIP3    H216378   0.340   0.426   1.429
 5458TIP3   OH216379   0.161   0.811   2.867
 5458TIP3    H116380   0.121   0.785   2.784
 5458TIP3    H216381   0.112   0.764   2.934
 5459TIP3   OH216382   0.742   3.566   2.802
 5459TIP3    H116383   0.749   3.578   2.896
 5459TIP3    H216384   0.779   3.645   2.764
 5460TIP3   OH216385   3.657   2.025   1.150
 5460TIP3    H116386   3.667   2.060   1.062
 5460TIP3    H216387   3.734   1.969   1.163
 5461TIP3   OH216388   1.533   3.520   3.736
 5461TIP3    H116389   1.514   3.602   3.781
 5461TIP3    H216390   1.461   3.509   3.674
 5462TIP3   OH216391   5.763   2.402   0.403
 5462TIP3    H116392   5.773   2.360   0.318
 5462TIP3    H216393   5.732   2.333   0.461
 5463TIP3   OH216394   4.374   2.592   3.913
 5463TIP3    H116395   4.430   2.543   3.973
 5463TIP3    H216396   4.307   2.529   3.885
 5464TIP3   OH216397   4.222   0.904   0.519
 5464TIP3    H116398   4.274   0.969   0.566
 5464TIP3    H216399   4.186   0.848   0.588
 5465TIP3   OH216400   1.820   0.172   0.754
 5465TIP3    H116401   1.779   0.086   0.760
 5465TIP3    H216402   1.906   0.161   0.796
 5466TIP3   OH216403   1.724   5.874   4.033
 5466TIP3    H116404   1.775   5.894   3.955
 5466TIP3    H216405   1.682   5.957   4.056
 5467TIP3   OH216406   2.486   0.252   2.177
 5467TIP3    H116407   2.496   0.253   2.272
 5467TIP3    H216408   2.421   0.183   2.161
 5468TIP3   OH216409   4.597   1.540   3.500
 5468TIP3    H116410   4.541   1.465   3.477
 5468TIP3    H216411   4.679   1.524   3.453
 5469TIP3   OH216412   5.270   1.684   3.350
 5469TIP3    H116413   5.288   1.691   3.256
 5469TIP3    H216414   5.347   1.640   3.386
 5470TIP3   OH216415   5.963   1.805   4.384
 5470TIP3    H116416   6.052   1.804   4.349
 5470TIP3    H216417   5.973   1.831   4.475
 5471TIP3   OH216418   3.063   0.377   4.229
 5471TIP3    H116419   3.049   0.425   4.147
 5471TIP3    H216420   3.158   0.374   4.240
 5472TIP3   OH216421   3.224   3.799   3.444
 5472TIP3    H116422   3.228   3.767   3.534
 5472TIP3    H216423   3.310   3.839   3.428
 5473TIP3   OH216424   5.342   4.244   4.216
 5473TIP3    H116425   5.391   4.186   4.157
 5473TIP3    H216426   5.406   4.309   4.244
 5474TIP3   OH216427   5.923   4.025   3.309
 5474TIP3    H116428   5.932   4.018   3.214
 5474TIP3    H216429   5.829   4.032   3.325
 5475TIP3   OH216430   3.265   0.934   0.864
 5475TIP3    H116431   3.172   0.952   0.848
 5475TIP3    H216432   3.298   0.903   0.780
 5476TIP3   OH216433   2.131   5.827   4.892
 5476TIP3    H116434   2.210   5.772   4.894
 5476TIP3    H216435   2.083   5.804   4.971
 5477TIP3   OH216436   2.209   3.565   3.836
 5477TIP3    H116437   2.135   3.537   3.891
 5477TIP3    H216438   2.222   3.492   3.775
 5478TIP3   OH216439   3.997   0.227   0.819
 5478TIP3    H116440   3.958   0.191   0.898
 5478TIP3    H216441   3.971   0.167   0.749
 5479TIP3   OH216442   0.516   0.668   3.829
 5479TIP3    H116443   0.551   0.585   3.797
 5479TIP3    H216444   0.429   0.675   3.789
 5480TIP3   OH216445   1.715   3.078   3.499
 5480TIP3    H116446   1.807   3.065   3.523
 5480TIP3    H216447   1.689   3.156   3.548
 5481TIP3   OH216448   3.326   3.437   3.414
 5481TIP3    H116449   3.337   3.504   3.481
 5481TIP3    H216450   3.267   3.476   3.349
 5482TIP3   OH216451   1.120   2.882   1.182
 5482TIP3    H116452   1.087   2.950   1.241
 5482TIP3    H216453   1.205   2.857   1.218
 5483TIP3   OH216454   2.957   1.110   5.139
 5483TIP3    H116455   3.039   1.064   5.157
 5483TIP3    H216456   2.983   1.183   5.082
 5484TIP3   OH216457   1.960   4.662   3.386
 5484TIP3    H116458   1.901   4.597   3.424
 5484TIP3    H216459   2.036   4.662   3.445
 5485TIP3   OH216460   2.648   0.626   4.472
 5485TIP3    H116461   2.613   0.553   4.523
 5485TIP3    H216462   2.708   0.586   4.410
 5486TIP3   OH216463   4.983   1.682   4.372
 5486TIP3    H116464   4.924   1.624   4.324
 5486TIP3    H216465   5.023   1.736   4.303
 5487TIP3   OH216466   3.245   4.190   2.395
 5487TIP3    H116467   3.204   4.111   2.360
 5487TIP3    H216468   3.338   4.167   2.402
 5488TIP3   OH216469   0.075   2.408   3.880
 5488TIP3    H116470   0.057   2.468   3.952
 5488TIP3    H216471   0.089   2.324   3.922
 5489TIP3   OH216472   5.639   3.323   2.557
 5489TIP3    H116473   5.634   3.415   2.529
 5489TIP3    H216474   5.697   3.325   2.634
 5490TIP3   OH216475   0.387   1.795   0.380
 5490TIP3    H116476   0.310   1.803   0.323
 5490TIP3    H216477   0.353   1.810   0.468
 5491TIP3   OH216478   5.692   0.068   0.401
 5491TIP3    H116479   5.778   0.029   0.388
 5491TIP3    H216480   5.631   0.006   0.362
 5492TIP3   OH216481   6.095   5.271   2.036
 5492TIP3    H116482   6.103   5.252   2.129
 5492TIP3    H216483   6.002   5.262   2.017
 5493TIP3   OH216484   0.854   5.770   3.418
 5493TIP3    H116485   0.760   5.761   3.430
 5493TIP3    H216486   0.888   5.782   3.507
 5494TIP3   OH216487   1.095   5.589   5.167
 5494TIP3    H116488   1.009   5.629   5.176
 5494TIP3    H216489   1.141   5.613   5.248
 5495TIP3   OH216490   1.532   0.920   1.892
 5495TIP3    H116491   1.504   0.998   1.939
 5495TIP3    H216492   1.481   0.849   1.932
 5496TIP3   OH216493   0.545   3.199   0.123
 5496TIP3    H116494   0.541   3.206   0.219
 5496TIP3    H216495   0.527   3.287   0.091
 5497TIP3   OH216496   1.168   1.693   5.129
 5497TIP3    H116497   1.211   1.608   5.142
 5497TIP3    H216498   1.232   1.757   5.161
 5498TIP3   OH216499   0.004   5.299   1.433
 5498TIP3    H116500   0.092   5.314   1.400
 5498TIP3    H216501  -0.051   5.360   1.384
 5499TIP3   OH216502   3.932   3.260   1.340
 5499TIP3    H116503   3.849   3.284   1.299
 5499TIP3    H216504   3.910   3.185   1.395
 5500TIP3   OH216505   3.492   1.893   2.278
 5500TIP3    H116506   3.516   1.962   2.217
 5500TIP3    H216507   3.508   1.931   2.365
 5501TIP3   OH216508   0.242   5.522   1.522
 5501TIP3    H116509   0.321   5.485   1.481
 5501TIP3    H216510   0.258   5.616   1.525
 5502TIP3   OH216511   5.915   2.203   4.524
 5502TIP3    H116512   5.879   2.172   4.441
 5502TIP3    H216513   5.860   2.278   4.548
 5503TIP3   OH216514   2.474   1.417   4.627
 5503TIP3    H116515   2.501   1.326   4.637
 5503TIP3    H216516   2.524   1.449   4.551
 5504TIP3   OH216517   6.046   2.897   2.921
 5504TIP3    H116518   6.052   2.828   2.855
 5504TIP3    H216519   6.133   2.900   2.961
 5505TIP3   OH216520   4.168   5.686   4.213
 5505TIP3    H116521   4.222   5.679   4.292
 5505TIP3    H216522   4.201   5.617   4.155
 5506TIP3   OH216523   6.039   5.764   4.218
 5506TIP3    H116524   6.075   5.675   4.215
 5506TIP3    H216525   6.075   5.807   4.141
 5507TIP3   OH216526   4.453   1.958   0.098
 5507TIP3    H116527   4.503   1.892   0.050
 5507TIP3    H216528   4.405   1.908   0.164
 5508TIP3   OH216529   1.468   3.604   2.508
 5508TIP3    H116530   1.430   3.521   2.535
 5508TIP3    H216531   1.526   3.629   2.581
 5509TIP3   OH216532   3.677   1.127   2.986
 5509TIP3    H116533   3.676   1.097   2.895
 5509TIP3    H216534   3.763   1.168   2.996
 5510TIP3   OH216535   4.755   3.297   3.174
 5510TIP3    H116536   4.773   3.339   3.258
 5510TIP3    H216537   4.814   3.340   3.112
 5511TIP3   OH216538   5.701   2.684   0.410
 5511TIP3    H116539   5.665   2.685   0.498
 5511TIP3    H216540   5.705   2.591   0.386
 5512TIP3   OH216541   0.463   4.934   1.760
 5512TIP3    H116542   0.536   4.908   1.704
 5512TIP3    H216543   0.421   4.851   1.784
 5513TIP3   OH216544   1.752   5.520   0.155
 5513TIP3    H116545   1.740   5.542   0.063
 5513TIP3    H216546   1.819   5.582   0.186
 5514TIP3   OH216547   5.123   0.447   1.157
 5514TIP3    H116548   5.148   0.478   1.070
 5514TIP3    H216549   5.046   0.499   1.179
 5515TIP3   OH216550   1.102   1.460   3.251
 5515TIP3    H116551   1.116   1.551   3.277
 5515TIP3    H216552   1.086   1.465   3.156
 5516TIP3   OH216553   6.289   4.575   0.080
 5516TIP3    H116554   6.245   4.656   0.053
 5516TIP3    H216555   6.258   4.560   0.170
 5517TIP3   OH216556   1.210   0.296   2.594
 5517TIP3    H116557   1.268   0.338   2.658
 5517TIP3    H216558   1.235   0.204   2.595
 5518TIP3   OH216559   4.389   0.169   4.495
 5518TIP3    H116560   4.419   0.086   4.458
 5518TIP3    H216561   4.409   0.161   4.588
 5519TIP3   OH216562   5.044   5.648   3.261
 5519TIP3    H116563   5.006   5.727   3.299
 5519TIP3    H216564   4.981   5.620   3.195
 5520TIP3   OH216565   3.180   1.494   3.101
 5520TIP3    H116566   3.192   1.573   3.153
 5520TIP3    H216567   3.268   1.471   3.071
 5521TIP3   OH216568   4.635   5.313   3.113
 5521TIP3    H116569   4.582   5.262   3.174
 5521TIP3    H216570   4.618   5.274   3.027
 5522TIP3   OH216571   4.775   5.783   0.285
 5522TIP3    H116572   4.834   5.717   0.321
 5522TIP3    H216573   4.732   5.740   0.211
 5523TIP3   OH216574   4.472   4.440   2.591
 5523TIP3    H116575   4.539   4.442   2.522
 5523TIP3    H216576   4.511   4.490   2.663
 5524TIP3   OH216577   2.943   1.533   2.630
 5524TIP3    H116578   2.885   1.609   2.631
 5524TIP3    H216579   2.885   1.459   2.617
 5525TIP3   OH216580   1.631   0.937   4.250
 5525TIP3    H116581   1.545   0.902   4.276
 5525TIP3    H216582   1.649   1.004   4.315
 5526TIP3   OH216583   0.160   1.131   3.638
 5526TIP3    H116584   0.190   1.210   3.684
 5526TIP3    H216585   0.192   1.059   3.692
 5527TIP3   OH216586   4.912   3.224   0.261
 5527TIP3    H116587   4.985   3.174   0.297
 5527TIP3    H216588   4.864   3.255   0.337
 5528TIP3   OH216589   2.268   3.595   0.613
 5528TIP3    H116590   2.210   3.636   0.677
 5528TIP3    H216591   2.259   3.648   0.534
 5529TIP3   OH216592   2.982   3.397   4.544
 5529TIP3    H116593   2.953   3.377   4.455
 5529TIP3    H216594   2.915   3.456   4.578
 5530TIP3   OH216595   3.086   2.165   1.341
 5530TIP3    H116596   3.000   2.178   1.382
 5530TIP3    H216597   3.084   2.221   1.264
 5531TIP3   OH216598   2.606   3.735   3.930
 5531TIP3    H116599   2.616   3.642   3.907
 5531TIP3    H216600   2.518   3.740   3.969
 5532TIP3   OH216601   4.650   2.620   4.349
 5532TIP3    H116602   4.672   2.691   4.409
 5532TIP3    H216603   4.559   2.638   4.324
 5533TIP3   OH216604   6.206   2.249   1.596
 5533TIP3    H116605   6.125   2.250   1.647
 5533TIP3    H216606   6.274   2.230   1.661
 5534TIP3   OH216607   4.563   4.541   4.777
 5534TIP3    H116608   4.630   4.479   4.806
 5534TIP3    H216609   4.480   4.501   4.803
 5535TIP3   OH216610   4.341   2.532   1.268
 5535TIP3    H116611   4.282   2.604   1.246
 5535TIP3    H216612   4.313   2.505   1.356
 5536TIP3   OH216613   3.382   1.339   4.012
 5536TIP3    H116614   3.314   1.391   3.969
 5536TIP3    H216615   3.346   1.250   4.015
 5537TIP3   OH216616   4.116   3.068   4.411
 5537TIP3    H116617   4.116   3.008   4.486
 5537TIP3    H216618   4.168   3.023   4.344
 5538TIP3   OH216619   2.345   4.803   2.753
 5538TIP3    H116620   2.251   4.795   2.736
 5538TIP3    H216621   2.384   4.809   2.666
 5539TIP3   OH216622   4.264   1.758   1.714
 5539TIP3    H116623   4.308   1.691   1.661
 5539TIP3    H216624   4.321   1.835   1.706
 5540TIP3   OH216625   3.092   5.083   3.078
 5540TIP3    H116626   3.020   5.026   3.104
 5540TIP3    H216627   3.104   5.142   3.152
 5541TIP3   OH216628   3.516   4.892   4.849
 5541TIP3    H116629   3.609   4.916   4.856
 5541TIP3    H216630   3.480   4.913   4.935
 5542TIP3   OH216631   4.559   4.744   3.592
 5542TIP3    H116632   4.645   4.731   3.632
 5542TIP3    H216633   4.497   4.700   3.650
 5543TIP3   OH216634   5.741   0.216   1.296
 5543TIP3    H116635   5.656   0.179   1.317
 5543TIP3    H216636   5.768   0.171   1.216
 5544TIP3   OH216637   2.350   3.680   3.269
 5544TIP3    H116638   2.268   3.704   3.226
 5544TIP3    H216639   2.408   3.654   3.198
 5545TIP3   OH216640   2.415   3.690   3.543
 5545TIP3    H116641   2.391   3.651   3.459
 5545TIP3    H216642   2.476   3.761   3.521
 5546TIP3   OH216643   2.698   2.700   3.647
 5546TIP3    H116644   2.791   2.698   3.624
 5546TIP3    H216645   2.682   2.789   3.678
 5547TIP3   OH216646   3.321   3.795   3.146
 5547TIP3    H116647   3.358   3.715   3.109
 5547TIP3    H216648   3.230   3.773   3.164
 5548TIP3   OH216649   5.235   3.758   4.345
 5548TIP3    H116650   5.284   3.840   4.354
 5548TIP3    H216651   5.186   3.768   4.263
 5549TIP3   OH216652   4.757   2.063   3.670
 5549TIP3    H116653   4.815   2.118   3.619
 5549TIP3    H216654   4.748   2.108   3.754
 5550TIP3   OH216655   0.660   2.579   2.349
 5550TIP3    H116656   0.654   2.601   2.442
 5550TIP3    H216657   0.588   2.626   2.308
 5551TIP3   OH216658   5.936   1.513   0.573
 5551TIP3    H116659   5.948   1.450   0.502
 5551TIP3    H216660   5.952   1.598   0.533
 5552TIP3   OH216661   5.878   2.729   3.522
 5552TIP3    H116662   5.953   2.788   3.528
 5552TIP3    H216663   5.831   2.741   3.605
 5553TIP3   OH216664   3.487   4.013   1.880
 5553TIP3    H116665   3.403   3.969   1.866
 5553TIP3    H216666   3.536   3.954   1.937
 5554TIP3   OH216667   4.695   2.801   1.190
 5554TIP3    H116668   4.668   2.816   1.100
 5554TIP3    H216669   4.720   2.709   1.193
 5555TIP3   OH216670   1.935   5.053   0.052
 5555TIP3    H116671   1.853   5.058   0.003
 5555TIP3    H216672   1.912   5.008   0.133
 5556TIP3   OH216673   1.346   2.068   0.705
 5556TIP3    H116674   1.383   2.037   0.622
 5556TIP3    H216675   1.313   1.989   0.748
 5557TIP3   OH216676   2.676   0.154   3.688
 5557TIP3    H116677   2.640   0.236   3.656
 5557TIP3    H216678   2.666   0.093   3.615
 5558TIP3   OH216679   4.970   5.156   2.513
 5558TIP3    H116680   4.985   5.172   2.606
 5558TIP3    H216681   4.884   5.194   2.496
 5559TIP3   OH216682   0.549   3.047   2.157
 5559TIP3    H116683   0.525   3.102   2.082
 5559TIP3    H216684   0.583   2.967   2.118
 5560TIP3   OH216685   1.158   4.229   4.711
 5560TIP3    H116686   1.242   4.231   4.664
 5560TIP3    H216687   1.128   4.320   4.709
 5561TIP3   OH216688   0.722   1.628   3.308
 5561TIP3    H116689   0.661   1.687   3.352
 5561TIP3    H216690   0.667   1.581   3.244
 5562TIP3   OH216691   6.229   2.045   0.847
 5562TIP3    H116692   6.218   2.136   0.821
 5562TIP3    H216693   6.253   2.000   0.767
 5563TIP3   OH216694   1.659   4.742   4.947
 5563TIP3    H116695   1.663   4.646   4.950
 5563TIP3    H216696   1.647   4.762   4.854
 5564TIP3   OH216697   3.178   0.337   2.903
 5564TIP3    H116698   3.106   0.319   2.963
 5564TIP3    H216699   3.257   0.332   2.958
 5565TIP3   OH216700   1.948   5.707   0.937
 5565TIP3    H116701   1.963   5.642   0.868
 5565TIP3    H216702   2.030   5.710   0.985
 5566TIP3   OH216703   4.066   0.801   1.247
 5566TIP3    H116704   4.126   0.874   1.257
 5566TIP3    H216705   4.103   0.732   1.302
 5567TIP3   OH216706   4.738   0.395   0.297
 5567TIP3    H116707   4.667   0.351   0.343
 5567TIP3    H216708   4.695   0.440   0.224
 5568TIP3   OH216709   0.959   5.118   0.685
 5568TIP3    H116710   1.037   5.152   0.643
 5568TIP3    H216711   0.925   5.192   0.736
 5569TIP3   OH216712   1.942   0.795   4.856
 5569TIP3    H116713   2.033   0.776   4.876
 5569TIP3    H216714   1.920   0.736   4.784
 5570TIP3   OH216715   5.311   4.833   3.145
 5570TIP3    H116716   5.363   4.757   3.119
 5570TIP3    H216717   5.274   4.809   3.230
 5571TIP3   OH216718   1.792   0.698   0.683
 5571TIP3    H116719   1.873   0.646   0.690
 5571TIP3    H216720   1.730   0.639   0.641
 5572TIP3   OH216721   4.822   0.885   1.207
 5572TIP3    H116722   4.806   0.824   1.279
 5572TIP3    H216723   4.875   0.835   1.145
 5573TIP3   OH216724   4.971   2.813   1.496
 5573TIP3    H116725   5.048   2.792   1.549
 5573TIP3    H216726   4.979   2.756   1.419
 5574TIP3   OH216727   2.973   3.126   2.002
 5574TIP3    H116728   3.045   3.062   1.999
 5574TIP3    H216729   2.926   3.106   2.082
 5575TIP3   OH216730   3.469   0.904   1.809
 5575TIP3    H116731   3.408   0.890   1.882
 5575TIP3    H216732   3.444   0.840   1.744
 5576TIP3   OH216733   4.093   5.062   1.593
 5576TIP3    H116734   4.177   5.083   1.552
 5576TIP3    H216735   4.032   5.128   1.559
 5577TIP3   OH216736   1.020   5.244   1.574
 5577TIP3    H116737   0.931   5.216   1.597
 5577TIP3    H216738   1.043   5.307   1.643
 5578TIP3   OH216739   0.024   2.573   2.720
 5578TIP3    H116740   0.058   2.536   2.801
 5578TIP3    H216741   0.077   2.532   2.651
 5579TIP3   OH216742   3.320   5.316   0.710
 5579TIP3    H116743   3.324   5.289   0.618
 5579TIP3    H216744   3.231   5.292   0.738
 5580TIP3   OH216745   4.767   1.445   0.063
 5580TIP3    H116746   4.862   1.450   0.053
 5580TIP3    H216747   4.754   1.374   0.126
 5581TIP3   OH216748   4.868   3.444   4.831
 5581TIP3    H116749   4.935   3.390   4.872
 5581TIP3    H216750   4.827   3.491   4.903
 5582TIP3   OH216751   3.631   3.228   4.861
 5582TIP3    H116752   3.600   3.261   4.945
 5582TIP3    H216753   3.551   3.205   4.813
 5583TIP3   OH216754   2.573   3.532   2.488
 5583TIP3    H116755   2.483   3.555   2.508
 5583TIP3    H216756   2.608   3.496   2.570
 5584TIP3   OH216757   0.480   5.085   4.883
 5584TIP3    H116758   0.522   5.001   4.863
 5584TIP3    H216759   0.471   5.128   4.798
 5585TIP3   OH216760   5.691   4.608   3.574
 5585TIP3    H116761   5.613   4.662   3.587
 5585TIP3    H216762   5.753   4.664   3.527
 5586TIP3   OH216763   0.721   1.458   2.152
 5586TIP3    H116764   0.787   1.420   2.094
 5586TIP3    H216765   0.730   1.553   2.139
 5587TIP3   OH216766   2.422   5.657   1.362
 5587TIP3    H116767   2.472   5.605   1.425
 5587TIP3    H216768   2.477   5.733   1.345
 5588TIP3   OH216769   6.271   0.812  -0.015
 5588TIP3    H116770   6.260   0.750   0.058
 5588TIP3    H216771   6.350   0.861   0.008
 5589TIP3   OH216772   3.072   3.196   0.292
 5589TIP3    H116773   3.150   3.249   0.307
 5589TIP3    H216774   3.018   3.249   0.234
 5590TIP3   OH216775   3.850   5.545   2.077
 5590TIP3    H116776   3.915   5.478   2.098
 5590TIP3    H216777   3.775   5.496   2.043
 5591TIP3   OH216778   3.388   5.833   4.907
 5591TIP3    H116779   3.454   5.891   4.869
 5591TIP3    H216780   3.432   5.748   4.913
 5592TIP3   OH216781   5.694   1.129   4.409
 5592TIP3    H116782   5.724   1.131   4.318
 5592TIP3    H216783   5.621   1.067   4.409
 5593TIP3   OH216784   2.382   5.659   4.959
 5593TIP3    H116785   2.314   5.646   5.025
 5593TIP3    H216786   2.459   5.686   5.009
 5594TIP3   OH216787   0.795   4.461   1.034
 5594TIP3    H116788   0.796   4.370   1.061
 5594TIP3    H216789   0.731   4.503   1.091
 5595TIP3   OH216790   3.319   5.273   0.449
 5595TIP3    H116791   3.291   5.182   0.440
 5595TIP3    H216792   3.377   5.287   0.374
 5596TIP3   OH216793   6.096   5.418   4.866
 5596TIP3    H116794   6.161   5.475   4.824
 5596TIP3    H216795   6.064   5.469   4.940
 5597TIP3   OH216796   6.352   2.643   1.796
 5597TIP3    H116797   6.259   2.626   1.815
 5597TIP3    H216798   6.359   2.630   1.701
 5598TIP3   OH216799   5.940   5.897   3.202
 5598TIP3    H116800   5.856   5.916   3.161
 5598TIP3    H216801   6.001   5.886   3.129
 5599TIP3   OH216802   1.556   1.843   5.104
 5599TIP3    H116803   1.618   1.911   5.130
 5599TIP3    H216804   1.491   1.843   5.174
 5600TIP3   OH216805   3.776   5.772   4.866
 5600TIP3    H116806   3.851   5.728   4.825
 5600TIP3    H216807   3.808   5.860   4.886
 5601TIP3   OH216808   2.445   1.055   1.510
 5601TIP3    H116809   2.373   1.061   1.448
 5601TIP3    H216810   2.411   1.000   1.581
 5602TIP3   OH216811   2.728   1.710   4.141
 5602TIP3    H116812   2.698   1.793   4.179
 5602TIP3    H216813   2.784   1.737   4.068
 5603TIP3   OH216814   2.955   5.608   1.020
 5603TIP3    H116815   2.908   5.689   1.040
 5603TIP3    H216816   2.910   5.541   1.072
 5604TIP3   OH216817   6.269   0.832   4.345
 5604TIP3    H116818   6.190   0.777   4.338
 5604TIP3    H216819   6.274   0.878   4.261
 5605TIP3   OH216820   4.403   3.392   2.230
 5605TIP3    H116821   4.434   3.459   2.170
 5605TIP3    H216822   4.398   3.312   2.177
 5606TIP3   OH216823   4.170   3.157   0.369
 5606TIP3    H116824   4.221   3.185   0.445
 5606TIP3    H216825   4.211   3.202   0.295
 5607TIP3   OH216826   0.023   4.327   0.678
 5607TIP3    H116827  -0.051   4.329   0.617
 5607TIP3    H216828   0.100   4.327   0.621
 5608TIP3   OH216829   3.537  -0.007   1.776
 5608TIP3    H116830   3.613   0.048   1.797
 5608TIP3    H216831   3.510   0.023   1.689
 5609TIP3   OH216832   4.280   0.100   0.587
 5609TIP3    H116833   4.242   0.049   0.516
 5609TIP3    H216834   4.331   0.036   0.637
 5610TIP3   OH216835   0.171   4.734   2.972
 5610TIP3    H116836   0.172   4.778   3.057
 5610TIP3    H216837   0.091   4.681   2.973
 5611TIP3   OH216838   4.311   4.738   1.923
 5611TIP3    H116839   4.308   4.755   1.828
 5611TIP3    H216840   4.233   4.685   1.940
 5612TIP3   OH216841   0.741   3.492   4.641
 5612TIP3    H116842   0.757   3.503   4.547
 5612TIP3    H216843   0.780   3.407   4.662
 5613TIP3   OH216844   1.850   1.529   3.068
 5613TIP3    H116845   1.861   1.611   3.020
 5613TIP3    H216846   1.904   1.466   3.020
 5614TIP3   OH216847   4.128   4.822   1.202
 5614TIP3    H116848   4.108   4.913   1.182
 5614TIP3    H216849   4.070   4.800   1.276
 5615TIP3   OH216850   4.361   5.719   1.262
 5615TIP3    H116851   4.418   5.748   1.333
 5615TIP3    H216852   4.275   5.757   1.282
 5616TIP3   OH216853   3.472   2.739   1.111
 5616TIP3    H116854   3.386   2.698   1.120
 5616TIP3    H216855   3.524   2.676   1.061
 5617TIP3   OH216856   5.405   5.050   1.773
 5617TIP3    H116857   5.438   5.080   1.857
 5617TIP3    H216858   5.314   5.078   1.772
 5618TIP3   OH216859   0.858   3.027   4.513
 5618TIP3    H116860   0.879   2.993   4.600
 5618TIP3    H216861   0.885   3.119   4.516
 5619TIP3   OH216862   4.108   1.532   1.771
 5619TIP3    H116863   4.021   1.532   1.731
 5619TIP3    H216864   4.143   1.619   1.752
 5620TIP3   OH216865   4.212   1.312   3.165
 5620TIP3    H116866   4.298   1.349   3.145
 5620TIP3    H216867   4.160   1.387   3.192
 5621TIP3   OH216868  -0.012   1.588   4.164
 5621TIP3    H116869  -0.078   1.580   4.233
 5621TIP3    H216870   0.033   1.504   4.164
 5622TIP3   OH216871   3.445   1.584   2.261
 5622TIP3    H116872   3.357   1.563   2.230
 5622TIP3    H216873   3.457   1.676   2.239
 5623TIP3   OH216874   1.537   4.240   2.813
 5623TIP3    H116875   1.603   4.212   2.749
 5623TIP3    H216876   1.576   4.219   2.898
 5624TIP3   OH216877   0.562   5.666   5.019
 5624TIP3    H116878   0.594   5.747   5.058
 5624TIP3    H216879   0.624   5.648   4.948
 5625TIP3   OH216880   0.211   5.199   4.062
 5625TIP3    H116881   0.134   5.148   4.037
 5625TIP3    H216882   0.186   5.290   4.045
 5626TIP3   OH216883   2.944   1.904   4.768
 5626TIP3    H116884   2.884   1.840   4.728
 5626TIP3    H216885   2.929   1.985   4.719
 5627TIP3   OH216886   4.077   1.714   5.017
 5627TIP3    H116887   4.100   1.788   4.961
 5627TIP3    H216888   4.134   1.643   4.988
 5628TIP3   OH216889   4.375   1.212   1.108
 5628TIP3    H116890   4.314   1.164   1.163
 5628TIP3    H216891   4.334   1.214   1.022
 5629TIP3   OH216892   3.499   1.994   0.579
 5629TIP3    H116893   3.409   2.006   0.611
 5629TIP3    H216894   3.490   1.987   0.484
 5630TIP3   OH216895   0.634   3.227   1.464
 5630TIP3    H116896   0.607   3.142   1.430
 5630TIP3    H216897   0.562   3.254   1.521
 5631TIP3   OH216898   5.460   5.968   3.085
 5631TIP3    H116899   5.388   5.909   3.108
 5631TIP3    H216900   5.515   5.917   3.026
 5632TIP3   OH216901   0.577   2.936   1.025
 5632TIP3    H116902   0.591   3.028   1.048
 5632TIP3    H216903   0.659   2.910   0.982
 5633TIP3   OH216904   4.761   5.970   5.019
 5633TIP3    H116905   4.851   5.955   5.049
 5633TIP3    H216906   4.762   5.948   4.926
 5634TIP3   OH216907   1.270   0.635   4.424
 5634TIP3    H116908   1.286   0.567   4.359
 5634TIP3    H216909   1.354   0.681   4.432
 5635TIP3   OH216910   1.544   3.133   4.332
 5635TIP3    H116911   1.541   3.039   4.313
 5635TIP3    H216912   1.612   3.142   4.399
 5636TIP3   OH216913   3.017   5.075   0.526
 5636TIP3    H116914   3.077   5.002   0.509
 5636TIP3    H216915   3.018   5.126   0.446
 5637TIP3   OH216916   1.033   2.340   4.497
 5637TIP3    H116917   0.966   2.408   4.486
 5637TIP3    H216918   0.997   2.264   4.452
 5638TIP3   OH216919   1.535   3.005   1.479
 5638TIP3    H116920   1.586   3.087   1.482
 5638TIP3    H216921   1.546   2.967   1.566
 5639TIP3   OH216922   4.835   1.397   1.348
 5639TIP3    H116923   4.788   1.354   1.277
 5639TIP3    H216924   4.889   1.463   1.305
 5640TIP3   OH216925   5.505   3.212   4.863
 5640TIP3    H116926   5.598   3.233   4.872
 5640TIP3    H216927   5.498   3.121   4.892
 5641TIP3   OH216928   2.418   2.584   3.478
 5641TIP3    H116929   2.360   2.655   3.450
 5641TIP3    H216930   2.492   2.628   3.519
 5642TIP3   OH216931   1.659   4.925   5.158
 5642TIP3    H116932   1.751   4.952   5.165
 5642TIP3    H216933   1.661   4.851   5.096
 5643TIP3   OH216934   3.460   2.896   3.165
 5643TIP3    H116935   3.418   2.924   3.246
 5643TIP3    H216936   3.551   2.924   3.174
 5644TIP3   OH216937   4.052   0.564   2.734
 5644TIP3    H116938   4.091   0.485   2.696
 5644TIP3    H216939   3.985   0.590   2.672
 5645TIP3   OH216940   6.182   0.314   3.881
 5645TIP3    H116941   6.121   0.347   3.947
 5645TIP3    H216942   6.180   0.380   3.812
 5646TIP3   OH216943   3.639   4.454   1.023
 5646TIP3    H116944   3.586   4.506   0.963
 5646TIP3    H216945   3.729   4.477   1.001
 5647TIP3   OH216946   5.440   0.837   3.743
 5647TIP3    H116947   5.535   0.839   3.741
 5647TIP3    H216948   5.415   0.905   3.805
 5648TIP3   OH216949   1.887   2.132   3.568
 5648TIP3    H116950   1.866   2.088   3.486
 5648TIP3    H216951   1.918   2.218   3.543
 5649TIP3   OH216952   5.201   0.263   2.169
 5649TIP3    H116953   5.296   0.276   2.169
 5649TIP3    H216954   5.183   0.218   2.251
 5650TIP3   OH216955   4.526   5.656   4.009
 5650TIP3    H116956   4.448   5.604   4.028
 5650TIP3    H216957   4.527   5.723   4.077
 5651TIP3   OH216958   2.400   4.186   2.539
 5651TIP3    H116959   2.449   4.133   2.602
 5651TIP3    H216960   2.322   4.214   2.587
 5652TIP3   OH216961   2.409   1.468   1.319
 5652TIP3    H116962   2.486   1.442   1.370
 5652TIP3    H216963   2.422   1.561   1.301
 5653TIP3   OH216964   2.788   0.300   3.895
 5653TIP3    H116965   2.745   0.238   3.836
 5653TIP3    H216966   2.716   0.344   3.940
 5654TIP3   OH216967   0.278   5.748   3.426
 5654TIP3    H116968   0.210   5.814   3.440
 5654TIP3    H216969   0.289   5.707   3.512
 5655TIP3   OH216970   5.724   5.907   1.942
 5655TIP3    H116971   5.643   5.938   1.901
 5655TIP3    H216972   5.706   5.906   2.036
 5656TIP3   OH216973   4.360   3.194   1.488
 5656TIP3    H116974   4.295   3.199   1.419
 5656TIP3    H216975   4.322   3.135   1.553
 5657TIP3   OH216976   4.746   0.288   1.484
 5657TIP3    H116977   4.761   0.377   1.515
 5657TIP3    H216978   4.795   0.232   1.545
 5658TIP3   OH216979   4.492   5.872   4.173
 5658TIP3    H116980   4.512   5.961   4.143
 5658TIP3    H216981   4.442   5.885   4.253
 5659TIP3   OH216982   1.966   2.508   4.781
 5659TIP3    H116983   1.893   2.544   4.831
 5659TIP3    H216984   2.029   2.478   4.847
 5660TIP3   OH216985   2.335   3.020   3.243
 5660TIP3    H116986   2.365   2.951   3.183
 5660TIP3    H216987   2.310   3.092   3.185
 5661TIP3   OH216988   3.842   0.036   3.760
 5661TIP3    H116989   3.916   0.096   3.771
 5661TIP3    H216990   3.772   0.092   3.726
 5662TIP3   OH216991   3.536   3.910   0.389
 5662TIP3    H116992   3.624   3.943   0.366
 5662TIP3    H216993   3.478   3.984   0.369
 5663TIP3   OH216994   1.776   5.205   0.426
 5663TIP3    H116995   1.858   5.176   0.385
 5663TIP3    H216996   1.707   5.168   0.371
 5664TIP3   OH216997   4.222   3.432   2.432
 5664TIP3    H116998   4.156   3.368   2.407
 5664TIP3    H216999   4.286   3.430   2.361
 5665TIP3   OH217000   5.719   3.705   3.079
 5665TIP3    H117001   5.687   3.624   3.119
 5665TIP3    H217002   5.812   3.690   3.063
 5666TIP3   OH217003   3.590   3.483   4.678
 5666TIP3    H117004   3.657   3.455   4.741
 5666TIP3    H217005   3.540   3.404   4.660
 5667TIP3   OH217006   1.530   4.102   4.848
 5667TIP3    H117007   1.503   4.010   4.844
 5667TIP3    H217008   1.516   4.134   4.759
 5668TIP3   OH217009   4.528   4.237   0.953
 5668TIP3    H117010   4.556   4.159   1.001
 5668TIP3    H217011   4.478   4.204   0.879
 5669TIP3   OH217012   2.867   5.919   3.377
 5669TIP3    H117013   2.827   6.003   3.396
 5669TIP3    H217014   2.939   5.912   3.439
 5670TIP3   OH217015   3.190   0.731   4.667
 5670TIP3    H117016   3.220   0.819   4.689
 5670TIP3    H217017   3.097   0.741   4.647
 5671TIP3   OH217018   3.802   3.184   3.530
 5671TIP3    H117019   3.756   3.268   3.524
 5671TIP3    H217020   3.894   3.207   3.515
 5672TIP3   OH217021   5.269   5.769   1.109
 5672TIP3    H117022   5.280   5.839   1.173
 5672TIP3    H217023   5.343   5.779   1.049
 5673TIP3   OH217024   5.913   1.785   4.697
 5673TIP3    H117025   5.849   1.856   4.698
 5673TIP3    H217026   5.998   1.829   4.700
 5674TIP3   OH217027   0.596   5.700   0.477
 5674TIP3    H117028   0.540   5.658   0.411
 5674TIP3    H217029   0.612   5.631   0.541
 5675TIP3   OH217030   6.355   5.047   3.977
 5675TIP3    H117031   6.271   5.079   3.943
 5675TIP3    H217032   6.355   4.954   3.955
 5676TIP3   OH217033   0.497   4.326   1.290
 5676TIP3    H117034   0.430   4.358   1.351
 5676TIP3    H217035   0.459   4.339   1.204
 5677TIP3   OH217036   2.932   5.407   2.534
 5677TIP3    H117037   2.868   5.336   2.528
 5677TIP3    H217038   2.917   5.460   2.456
 5678TIP3   OH217039   2.507   3.763   4.453
 5678TIP3    H117040   2.473   3.808   4.531
 5678TIP3    H217041   2.435   3.706   4.426
 5679TIP3   OH217042   5.882   3.172   0.431
 5679TIP3    H117043   5.875   3.110   0.359
 5679TIP3    H217044   5.924   3.249   0.393
 5680TIP3   OH217045   2.699   4.979   4.182
 5680TIP3    H117046   2.642   5.054   4.197
 5680TIP3    H217047   2.654   4.926   4.116
 5681TIP3   OH217048   1.607   3.350   4.775
 5681TIP3    H117049   1.582   3.293   4.847
 5681TIP3    H217050   1.525   3.373   4.732
 5682TIP3   OH217051   1.168   5.732   1.936
 5682TIP3    H117052   1.263   5.733   1.932
 5682TIP3    H217053   1.141   5.793   1.868
 5683TIP3   OH217054   0.053   0.830   1.968
 5683TIP3    H117055   0.087   0.796   2.051
 5683TIP3    H217056  -0.026   0.779   1.952
 5684TIP3   OH217057   2.111   3.396   0.752
 5684TIP3    H117058   2.125   3.303   0.769
 5684TIP3    H217059   2.197   3.429   0.726
 5685TIP3   OH217060   1.657   0.245   3.716
 5685TIP3    H117061   1.562   0.243   3.715
 5685TIP3    H217062   1.681   0.248   3.808
 5686TIP3   OH217063   6.245   2.231   2.610
 5686TIP3    H117064   6.271   2.289   2.681
 5686TIP3    H217065   6.326   2.215   2.561
 5687TIP3   OH217066   3.893   4.600  -0.002
 5687TIP3    H117067   3.846   4.543   0.059
 5687TIP3    H217068   3.864   4.688   0.022
 5688TIP3   OH217069   2.232   4.410   1.827
 5688TIP3    H117070   2.285   4.331   1.829
 5688TIP3    H217071   2.290   4.477   1.792
 5689TIP3   OH217072   3.473   2.581   3.099
 5689TIP3    H117073   3.505   2.625   3.021
 5689TIP3    H217074   3.545   2.590   3.162
 5690TIP3   OH217075   0.243   0.950   3.278
 5690TIP3    H117076   0.283   1.024   3.323
 5690TIP3    H217077   0.225   0.983   3.190
 5691TIP3   OH217078   2.140   1.780   5.032
 5691TIP3    H117079   2.092   1.854   5.069
 5691TIP3    H217080   2.223   1.817   5.003
 5692TIP3   OH217081   0.856   4.759   4.783
 5692TIP3    H117082   0.859   4.682   4.839
 5692TIP3    H217083   0.848   4.724   4.694
 5693TIP3   OH217084   1.579   2.213   4.352
 5693TIP3    H117085   1.626   2.270   4.413
 5693TIP3    H217086   1.542   2.273   4.286
 5694TIP3   OH217087   3.538   3.975   3.216
 5694TIP3    H117088   3.509   4.056   3.175
 5694TIP3    H217089   3.489   3.906   3.171
 5695TIP3   OH217090   3.801   0.831   1.290
 5695TIP3    H117091   3.865   0.779   1.242
 5695TIP3    H217092   3.798   0.792   1.377
 5696TIP3   OH217093   4.957   3.092   1.407
 5696TIP3    H117094   5.046   3.114   1.383
 5696TIP3    H217095   4.961   3.000   1.435
 5697TIP3   OH217096   1.075   0.404   1.711
 5697TIP3    H117097   0.982   0.416   1.690
 5697TIP3    H217098   1.077   0.393   1.806
 5698TIP3   OH217099   3.800   3.193   0.162
 5698TIP3    H117100   3.769   3.263   0.104
 5698TIP3    H217101   3.869   3.149   0.112
 5699TIP3   OH217102   0.867   3.456   1.497
 5699TIP3    H117103   0.875   3.465   1.402
 5699TIP3    H217104   0.781   3.416   1.510
 5700TIP3   OH217105   4.198   0.977   3.126
 5700TIP3    H117106   4.244   0.970   3.210
 5700TIP3    H217107   4.257   1.027   3.070
 5701TIP3   OH217108   3.897   2.266   0.288
 5701TIP3    H117109   3.973   2.226   0.330
 5701TIP3    H217110   3.883   2.347   0.337
 5702TIP3   OH217111   4.614   2.791   0.934
 5702TIP3    H117112   4.679   2.805   0.865
 5702TIP3    H217113   4.546   2.739   0.892
 5703TIP3   OH217114   0.658   5.511   4.427
 5703TIP3    H117115   0.652   5.500   4.333
 5703TIP3    H217116   0.718   5.584   4.439
 5704TIP3   OH217117   1.569   2.598   0.120
 5704TIP3    H117118   1.490   2.601   0.174
 5704TIP3    H217119   1.582   2.505   0.102
 5705TIP3   OH217120   2.193   2.694   0.242
 5705TIP3    H117121   2.160   2.779   0.212
 5705TIP3    H217122   2.142   2.630   0.192
 5706TIP3   OH217123   1.306   0.770   1.995
 5706TIP3    H117124   1.238   0.821   2.040
 5706TIP3    H217125   1.315   0.690   2.048
 5707TIP3   OH217126   1.877   0.119   4.207
 5707TIP3    H117127   1.798   0.068   4.224
 5707TIP3    H217128   1.937   0.093   4.277
 5708TIP3   OH217129   0.403   2.131   0.305
 5708TIP3    H117130   0.375   2.108   0.394
 5708TIP3    H217131   0.449   2.214   0.315
 5709TIP3   OH217132   2.507   2.061   2.505
 5709TIP3    H117133   2.515   2.149   2.468
 5709TIP3    H217134   2.423   2.029   2.473
 5710TIP3   OH217135   2.242   0.686   4.654
 5710TIP3    H117136   2.176   0.698   4.586
 5710TIP3    H217137   2.277   0.773   4.670
 5711TIP3   OH217138   4.183   3.810   3.936
 5711TIP3    H117139   4.151   3.878   3.877
 5711TIP3    H217140   4.182   3.852   4.023
 5712TIP3   OH217141   4.814   2.438   0.716
 5712TIP3    H117142   4.753   2.510   0.699
 5712TIP3    H217143   4.758   2.361   0.721
 5713TIP3   OH217144   3.076   2.830   4.381
 5713TIP3    H117145   3.166   2.857   4.365
 5713TIP3    H217146   3.044   2.801   4.295
 5714TIP3   OH217147   1.301   5.443   3.200
 5714TIP3    H117148   1.239   5.516   3.212
 5714TIP3    H217149   1.328   5.420   3.289
 5715TIP3   OH217150   1.995   5.524   4.823
 5715TIP3    H117151   1.959   5.606   4.788
 5715TIP3    H217152   2.080   5.516   4.781
 5716TIP3   OH217153   5.727   5.091   1.185
 5716TIP3    H117154   5.801   5.039   1.154
 5716TIP3    H217155   5.765   5.177   1.205
 5717TIP3   OH217156   1.736   1.710   3.244
 5717TIP3    H117157   1.676   1.669   3.306
 5717TIP3    H217158   1.776   1.637   3.197
 5718TIP3   OH217159   1.084   4.017   2.474
 5718TIP3    H117160   1.028   3.974   2.409
 5718TIP3    H217161   1.025   4.037   2.547
 5719TIP3   OH217162   6.019   1.910   2.340
 5719TIP3    H117163   5.990   1.827   2.378
 5719TIP3    H217164   5.941   1.945   2.297
 5720TIP3   OH217165   1.659   0.424   5.041
 5720TIP3    H117166   1.588   0.410   5.104
 5720TIP3    H217167   1.697   0.508   5.066
 5721TIP3   OH217168   2.717   0.500   2.216
 5721TIP3    H117169   2.679   0.586   2.196
 5721TIP3    H217170   2.646   0.451   2.257
 5722TIP3   OH217171   2.105   0.022   2.800
 5722TIP3    H117172   2.153  -0.001   2.720
 5722TIP3    H217173   2.095   0.117   2.796
 5723TIP3   OH217174   5.185   1.918   0.085
 5723TIP3    H117175   5.136   1.958   0.013
 5723TIP3    H217176   5.127   1.925   0.160
 5724TIP3   OH217177   1.158   2.325   5.040
 5724TIP3    H117178   1.181   2.302   4.949
 5724TIP3    H217179   1.063   2.317   5.043
 5725TIP3   OH217180   4.214   4.317   4.577
 5725TIP3    H117181   4.234   4.320   4.483
 5725TIP3    H217182   4.191   4.226   4.594
 5726TIP3   OH217183   1.735   5.983   0.649
 5726TIP3    H117184   1.658   6.024   0.688
 5726TIP3    H217185   1.713   5.890   0.643
 5727TIP3   OH217186   4.710   3.681   2.938
 5727TIP3    H117187   4.615   3.678   2.949
 5727TIP3    H217188   4.730   3.608   2.879
 5728TIP3   OH217189   0.349   1.710   4.342
 5728TIP3    H117190   0.422   1.663   4.302
 5728TIP3    H217191   0.380   1.800   4.351
 5729TIP3   OH217192   6.016   0.533   1.268
 5729TIP3    H117193   6.032   0.613   1.319
 5729TIP3    H217194   6.095   0.481   1.279
 5730TIP3   OH217195   2.334   1.983   1.581
 5730TIP3    H117196   2.256   1.934   1.609
 5730TIP3    H217197   2.407   1.926   1.604
 5731TIP3   OH217198   6.250   0.626   0.927
 5731TIP3    H117199   6.157   0.646   0.942
 5731TIP3    H217200   6.261   0.635   0.832
 5732TIP3   OH217201   0.562   5.286   1.750
 5732TIP3    H117202   0.467   5.282   1.755
 5732TIP3    H217203   0.586   5.364   1.800
 5733TIP3   OH217204   0.243   0.876   4.124
 5733TIP3    H117205   0.329   0.842   4.102
 5733TIP3    H217206   0.218   0.829   4.204
 5734TIP3   OH217207   5.232   1.796   0.753
 5734TIP3    H117208   5.152   1.769   0.707
 5734TIP3    H217209   5.298   1.733   0.725
 5735TIP3   OH217210   2.393   1.900   4.946
 5735TIP3    H117211   2.461   1.926   4.885
 5735TIP3    H217212   2.367   1.981   4.991
 5736TIP3   OH217213   3.894   2.485   4.318
 5736TIP3    H117214   3.938   2.497   4.234
 5736TIP3    H217215   3.932   2.405   4.354
 5737TIP3   OH217216   2.703   3.386   2.706
 5737TIP3    H117217   2.784   3.336   2.695
 5737TIP3    H217218   2.690   3.391   2.801
 5738TIP3   OH217219   6.065   4.908   4.345
 5738TIP3    H117220   6.154   4.940   4.330
 5738TIP3    H217221   6.074   4.842   4.413
 5739TIP3   OH217222   0.635   2.206   3.514
 5739TIP3    H117223   0.637   2.172   3.425
 5739TIP3    H217224   0.549   2.179   3.548
 5740TIP3   OH217225   2.365   0.780   0.381
 5740TIP3    H117226   2.278   0.756   0.411
 5740TIP3    H217227   2.350   0.848   0.315
 5741TIP3   OH217228   2.404   1.902   0.378
 5741TIP3    H117229   2.340   1.844   0.420
 5741TIP3    H217230   2.478   1.845   0.358
 5742TIP3   OH217231   5.375   1.192   1.966
 5742TIP3    H117232   5.396   1.251   2.039
 5742TIP3    H217233   5.303   1.235   1.920
 5743TIP3   OH217234   1.951   4.146   3.749
 5743TIP3    H117235   1.869   4.123   3.705
 5743TIP3    H217236   1.931   4.227   3.795
 5744TIP3   OH217237   0.764   4.979   3.671
 5744TIP3    H117238   0.708   4.946   3.742
 5744TIP3    H217239   0.707   4.981   3.594
 5745TIP3   OH217240   0.737   2.414   2.070
 5745TIP3    H117241   0.692   2.340   2.109
 5745TIP3    H217242   0.672   2.453   2.011
 5746TIP3   OH217243   3.861   3.320   2.673
 5746TIP3    H117244   3.824   3.274   2.597
 5746TIP3    H217245   3.954   3.296   2.672
 5747TIP3   OH217246   3.414   4.992   1.105
 5747TIP3    H117247   3.336   5.026   1.150
 5747TIP3    H217248   3.454   4.932   1.168
 5748TIP3   OH217249   3.990   0.376   0.573
 5748TIP3    H117250   3.996   0.346   0.664
 5748TIP3    H217251   4.076   0.360   0.536
 5749TIP3   OH217252   1.462   1.551   1.443
 5749TIP3    H117253   1.398   1.594   1.385
 5749TIP3    H217254   1.513   1.495   1.384
 5750TIP3   OH217255   5.728   0.043   2.543
 5750TIP3    H117256   5.718  -0.047   2.575
 5750TIP3    H217257   5.777   0.088   2.612
 5751TIP3   OH217258   4.535   2.332   1.322
 5751TIP3    H117259   4.588   2.293   1.253
 5751TIP3    H217260   4.463   2.376   1.276
 5752TIP3   OH217261   3.634   4.185   0.141
 5752TIP3    H117262   3.541   4.174   0.162
 5752TIP3    H217263   3.634   4.235   0.059
 5753TIP3   OH217264   0.484   0.807   3.574
 5753TIP3    H117265   0.546   0.792   3.645
 5753TIP3    H217266   0.506   0.742   3.508
 5754TIP3   OH217267   5.024   2.500   4.637
 5754TIP3    H117268   5.028   2.579   4.584
 5754TIP3    H217269   4.950   2.450   4.601
 5755TIP3   OH217270   4.803   0.120   4.570
 5755TIP3    H117271   4.898   0.109   4.564
 5755TIP3    H217272   4.786   0.208   4.536
 5756TIP3   OH217273   3.667   3.421   1.964
 5756TIP3    H117274   3.698   3.410   2.054
 5756TIP3    H217275   3.579   3.383   1.964
 5757TIP3   OH217276   0.332   3.809   2.009
 5757TIP3    H117277   0.361   3.769   2.090
 5757TIP3    H217278   0.411   3.815   1.955
 5758TIP3   OH217279   2.020   2.043   4.774
 5758TIP3    H117280   1.951   2.091   4.819
 5758TIP3    H217281   1.989   1.952   4.772
 5759TIP3   OH217282   3.152   5.087   3.559
 5759TIP3    H117283   3.242   5.107   3.535
 5759TIP3    H217284   3.099   5.133   3.494
 5760TIP3   OH217285   4.676   5.082   3.637
 5760TIP3    H117286   4.583   5.058   3.639
 5760TIP3    H217287   4.722   5.002   3.612
 5761TIP3   OH217288   4.626   4.371   3.342
 5761TIP3    H117289   4.668   4.302   3.290
 5761TIP3    H217290   4.627   4.448   3.285
 5762TIP3   OH217291   3.515   4.212   2.459
 5762TIP3    H117292   3.569   4.249   2.529
 5762TIP3    H217293   3.509   4.282   2.394
 5763TIP3   OH217294   1.922   0.839   3.722
 5763TIP3    H117295   1.866   0.766   3.694
 5763TIP3    H217296   1.983   0.851   3.649
 5764TIP3   OH217297   6.000   3.493   2.004
 5764TIP3    H117298   5.935   3.430   2.035
 5764TIP3    H217299   6.055   3.443   1.944
 5765TIP3   OH217300   1.473   2.739   1.726
 5765TIP3    H117301   1.382   2.720   1.706
 5765TIP3    H217302   1.509   2.655   1.755
 5766TIP3   OH217303   4.901   2.999   3.831
 5766TIP3    H117304   4.917   2.921   3.778
 5766TIP3    H217305   4.890   3.070   3.767
 5767TIP3   OH217306   1.807   3.546   1.409
 5767TIP3    H117307   1.720   3.520   1.440
 5767TIP3    H217308   1.821   3.494   1.330
 5768TIP3   OH217309   0.677   2.081   0.920
 5768TIP3    H117310   0.726   2.006   0.955
 5768TIP3    H217311   0.744   2.138   0.884
 5769TIP3   OH217312   5.932   1.747   0.437
 5769TIP3    H117313   5.946   1.834   0.400
 5769TIP3    H217314   5.843   1.723   0.411
 5770TIP3   OH217315   4.210   3.594   1.584
 5770TIP3    H117316   4.302   3.573   1.598
 5770TIP3    H217317   4.165   3.550   1.656
 5771TIP3   OH217318   3.069   4.055   2.794
 5771TIP3    H117319   2.990   4.028   2.840
 5771TIP3    H217320   3.078   3.992   2.723
 5772TIP3   OH217321   3.436   2.012   1.802
 5772TIP3    H117322   3.425   2.096   1.848
 5772TIP3    H217323   3.375   1.953   1.844
 5773TIP3   OH217324   0.834   1.097   2.246
 5773TIP3    H117325   0.928   1.108   2.232
 5773TIP3    H217326   0.813   1.161   2.315
 5774TIP3   OH217327   5.626   0.206   2.345
 5774TIP3    H117328   5.666   0.152   2.414
 5774TIP3    H217329   5.641   0.296   2.373
 5775TIP3   OH217330   0.842   3.431   1.221
 5775TIP3    H117331   0.862   3.520   1.190
 5775TIP3    H217332   0.747   3.424   1.212
 5776TIP3   OH217333   0.631   4.467   3.758
 5776TIP3    H117334   0.574   4.404   3.715
 5776TIP3    H217335   0.653   4.530   3.689
 5777TIP3   OH217336   2.722   4.059   3.224
 5777TIP3    H117337   2.686   4.133   3.273
 5777TIP3    H217338   2.785   4.019   3.284
 5778TIP3   OH217339   4.233   4.833   3.563
 5778TIP3    H117340   4.277   4.767   3.616
 5778TIP3    H217341   4.165   4.784   3.516
 5779TIP3   OH217342   1.754   4.888   2.202
 5779TIP3    H117343   1.660   4.905   2.207
 5779TIP3    H217344   1.774   4.841   2.283
 5780TIP3   OH217345   3.989   2.964   0.453
 5780TIP3    H117346   3.975   2.888   0.396
 5780TIP3    H217347   4.052   3.018   0.406
 5781TIP3   OH217348   0.067   4.814   3.600
 5781TIP3    H117349   0.023   4.870   3.664
 5781TIP3    H217350  -0.004   4.766   3.556
 5782TIP3   OH217351   4.815   1.485   3.802
 5782TIP3    H117352   4.807   1.390   3.796
 5782TIP3    H217353   4.725   1.517   3.810
 5783TIP3   OH217354   3.534   0.310   3.247
 5783TIP3    H117355   3.575   0.230   3.280
 5783TIP3    H217356   3.556   0.312   3.154
 5784TIP3   OH217357   2.263   1.815   2.424
 5784TIP3    H117358   2.207   1.770   2.361
 5784TIP3    H217359   2.352   1.798   2.393
 5785TIP3   OH217360   5.419   2.735   0.522
 5785TIP3    H117361   5.470   2.806   0.560
 5785TIP3    H217362   5.374   2.695   0.596
 5786TIP3   OH217363   4.862   4.502   4.487
 5786TIP3    H117364   4.771   4.509   4.514
 5786TIP3    H217365   4.883   4.409   4.495
 5787TIP3   OH217366   2.793   0.875   0.473
 5787TIP3    H117367   2.744   0.808   0.426
 5787TIP3    H217368   2.766   0.958   0.433
 5788TIP3   OH217369   0.797   5.305   1.992
 5788TIP3    H117370   0.846   5.313   2.074
 5788TIP3    H217371   0.785   5.211   1.980
 5789TIP3   OH217372   0.755   5.103   3.327
 5789TIP3    H117373   0.759   5.020   3.280
 5789TIP3    H217374   0.663   5.111   3.353
 5790TIP3   OH217375   5.111   0.405   5.088
 5790TIP3    H117376   5.189   0.432   5.039
 5790TIP3    H217377   5.062   0.487   5.100
 5791TIP3   OH217378   1.977   5.454   3.436
 5791TIP3    H117379   2.065   5.426   3.411
 5791TIP3    H217380   1.919   5.407   3.376
 5792TIP3   OH217381   5.509   2.385   0.653
 5792TIP3    H117382   5.544   2.299   0.632
 5792TIP3    H217383   5.448   2.405   0.581
 5793TIP3   OH217384   2.061   3.522   4.199
 5793TIP3    H117385   2.096   3.442   4.237
 5793TIP3    H217386   2.038   3.498   4.109
 5794TIP3   OH217387   4.653   1.011   3.517
 5794TIP3    H117388   4.618   1.090   3.477
 5794TIP3    H217389   4.594   0.941   3.488
 5795TIP3   OH217390   0.619   5.301   1.175
 5795TIP3    H117391   0.662   5.216   1.171
 5795TIP3    H217392   0.689   5.364   1.194
 5796TIP3   OH217393   1.889   3.763   1.065
 5796TIP3    H117394   1.869   3.796   1.153
 5796TIP3    H217395   1.955   3.823   1.031
 5797TIP3   OH217396   4.887   5.935   4.140
 5797TIP3    H117397   4.827   5.992   4.187
 5797TIP3    H217398   4.935   5.889   4.208
 5798TIP3   OH217399   4.827   2.309   0.370
 5798TIP3    H117400   4.750   2.349   0.411
 5798TIP3    H217401   4.804   2.302   0.278
 5799TIP3   OH217402   4.490   0.230   4.812
 5799TIP3    H117403   4.547   0.198   4.881
 5799TIP3    H217404   4.402   0.200   4.837
 5800TIP3   OH217405   2.982   1.996   0.756
 5800TIP3    H117406   3.038   1.953   0.820
 5800TIP3    H217407   2.900   1.946   0.756
 5801TIP3   OH217408   5.814   5.022   3.301
 5801TIP3    H117409   5.727   4.996   3.272
 5801TIP3    H217410   5.807   5.116   3.318
 5802TIP3   OH217411   6.180   4.345   4.965
 5802TIP3    H117412   6.217   4.260   4.941
 5802TIP3    H217413   6.196   4.353   5.059
 5803TIP3   OH217414   1.214   1.122   0.970
 5803TIP3    H117415   1.236   1.048   0.913
 5803TIP3    H217416   1.122   1.139   0.953
 5804TIP3   OH217417   5.582   3.370   1.373
 5804TIP3    H117418   5.641   3.335   1.439
 5804TIP3    H217419   5.514   3.303   1.363
 5805TIP3   OH217420   1.650   1.298   4.785
 5805TIP3    H117421   1.722   1.269   4.841
 5805TIP3    H217422   1.690   1.359   4.723
 5806TIP3   OH217423   2.500   2.386   4.128
 5806TIP3    H117424   2.452   2.468   4.119
 5806TIP3    H217425   2.490   2.362   4.220
 5807TIP3   OH217426   4.491   2.308   4.327
 5807TIP3    H117427   4.479   2.327   4.420
 5807TIP3    H217428   4.568   2.250   4.324
 5808TIP3   OH217429   2.887   3.713   1.072
 5808TIP3    H117430   2.864   3.745   1.159
 5808TIP3    H217431   2.981   3.724   1.066
 5809TIP3   OH217432   5.573   3.552   2.761
 5809TIP3    H117433   5.641   3.525   2.822
 5809TIP3    H217434   5.617   3.616   2.704
 5810TIP3   OH217435   5.414   2.584   0.254
 5810TIP3    H117436   5.359   2.536   0.316
 5810TIP3    H217437   5.465   2.644   0.308
 5811TIP3   OH217438   3.945   5.412   0.431
 5811TIP3    H117439   3.987   5.339   0.476
 5811TIP3    H217440   3.899   5.459   0.501
 5812TIP3   OH217441   2.906   1.393   3.098
 5812TIP3    H117442   2.909   1.305   3.059
 5812TIP3    H217443   2.997   1.419   3.103
 5813TIP3   OH217444   2.456   4.418   2.320
 5813TIP3    H117445   2.456   4.469   2.401
 5813TIP3    H217446   2.511   4.469   2.260
 5814TIP3   OH217447   1.599   3.984   0.220
 5814TIP3    H117448   1.547   4.037   0.281
 5814TIP3    H217449   1.674   4.040   0.198
 5815TIP3   OH217450   5.309   1.034   3.917
 5815TIP3    H117451   5.371   1.046   3.989
 5815TIP3    H217452   5.226   1.014   3.960
 5816TIP3   OH217453   2.440   0.264   1.883
 5816TIP3    H117454   2.382   0.201   1.839
 5816TIP3    H217455   2.437   0.239   1.975
 5817TIP3   OH217456   2.193   0.387   1.932
 5817TIP3    H117457   2.278   0.361   1.968
 5817TIP3    H217458   2.146   0.305   1.918
 5818TIP3   OH217459   5.184   2.619   0.721
 5818TIP3    H117460   5.160   2.707   0.749
 5818TIP3    H217461   5.106   2.585   0.677
 5819TIP3   OH217462   3.773   0.949   5.049
 5819TIP3    H117463   3.748   0.857   5.035
 5819TIP3    H217464   3.763   0.962   5.143
 5820TIP3   OH217465   2.913   1.011   1.971
 5820TIP3    H117466   2.952   0.939   2.021
 5820TIP3    H217467   2.935   1.090   2.022
 5821TIP3   OH217468   4.516   1.027   2.058
 5821TIP3    H117469   4.553   1.025   2.146
 5821TIP3    H217470   4.588   1.058   2.003
 5822TIP3   OH217471   3.806   4.535   2.560
 5822TIP3    H117472   3.751   4.465   2.597
 5822TIP3    H217473   3.825   4.592   2.634
 5823TIP3   OH217474   0.350   1.173   3.379
 5823TIP3    H117475   0.427   1.143   3.427
 5823TIP3    H217476   0.333   1.261   3.413
 5824TIP3   OH217477   4.612   1.992   4.122
 5824TIP3    H117478   4.667   1.967   4.047
 5824TIP3    H217479   4.665   1.971   4.199
 5825TIP3   OH217480   1.547   3.357   3.002
 5825TIP3    H117481   1.509   3.442   2.980
 5825TIP3    H217482   1.471   3.299   3.013
 5826TIP3   OH217483   1.630   3.628   0.466
 5826TIP3    H117484   1.608   3.719   0.447
 5826TIP3    H217485   1.666   3.630   0.555
 5827TIP3   OH217486   5.803   2.193   4.286
 5827TIP3    H117487   5.748   2.269   4.265
 5827TIP3    H217488   5.746   2.118   4.269
 5828TIP3   OH217489   6.105   4.393   2.245
 5828TIP3    H117490   6.084   4.426   2.158
 5828TIP3    H217491   6.088   4.466   2.304
 5829TIP3   OH217492   6.324   5.788   3.723
 5829TIP3    H117493   6.275   5.857   3.679
 5829TIP3    H217494   6.272   5.709   3.707
 5830TIP3   OH217495   4.582   4.827   2.539
 5830TIP3    H117496   4.547   4.905   2.496
 5830TIP3    H217497   4.636   4.785   2.472
 5831TIP3   OH217498   1.062   5.766   0.048
 5831TIP3    H117499   1.117   5.825   0.100
 5831TIP3    H217500   0.972   5.790   0.072
 5832TIP3   OH217501   2.280   4.152   4.055
 5832TIP3    H117502   2.267   4.092   4.128
 5832TIP3    H217503   2.355   4.116   4.007
 5833TIP3   OH217504   0.026   1.788   4.792
 5833TIP3    H117505   0.048   1.704   4.832
 5833TIP3    H217506  -0.016   1.838   4.862
 5834TIP3   OH217507   4.203   0.964   4.573
 5834TIP3    H117508   4.204   0.873   4.545
 5834TIP3    H217509   4.143   1.007   4.511
 5835TIP3   OH217510   1.423   5.047   4.081
 5835TIP3    H117511   1.408   4.954   4.060
 5835TIP3    H217512   1.348   5.071   4.135
 5836TIP3   OH217513   2.437   5.900   3.241
 5836TIP3    H117514   2.414   5.942   3.324
 5836TIP3    H217515   2.357   5.904   3.189
 5837TIP3   OH217516   0.470   5.552   0.792
 5837TIP3    H117517   0.421   5.630   0.766
 5837TIP3    H217518   0.481   5.560   0.886
 5838TIP3   OH217519   0.969   0.513   4.277
 5838TIP3    H117520   0.976   0.510   4.372
 5838TIP3    H217521   1.002   0.427   4.248
 5839TIP3   OH217522   2.557   3.940   3.037
 5839TIP3    H117523   2.580   3.848   3.022
 5839TIP3    H217524   2.613   3.967   3.110
 5840TIP3   OH217525   0.851   0.647   1.298
 5840TIP3    H117526   0.840   0.680   1.387
 5840TIP3    H217527   0.814   0.715   1.242
 5841TIP3   OH217528   2.877   1.199   2.747
 5841TIP3    H117529   2.807   1.147   2.708
 5841TIP3    H217530   2.833   1.272   2.790
 5842TIP3   OH217531   4.287   3.231   4.211
 5842TIP3    H117532   4.294   3.147   4.256
 5842TIP3    H217533   4.208   3.223   4.157
 5843TIP3   OH217534   4.432   5.714   0.399
 5843TIP3    H117535   4.509   5.676   0.357
 5843TIP3    H217536   4.367   5.720   0.329
 5844TIP3   OH217537   5.802   5.274   2.004
 5844TIP3    H117538   5.813   5.357   2.051
 5844TIP3    H217539   5.815   5.296   1.912
 5845TIP3   OH217540   5.756   0.830   4.327
 5845TIP3    H117541   5.736   0.760   4.388
 5845TIP3    H217542   5.723   0.798   4.243
 5846TIP3   OH217543   3.349   0.156   0.727
 5846TIP3    H117544   3.279   0.164   0.662
 5846TIP3    H217545   3.308   0.184   0.809
 5847TIP3   OH217546   1.849   2.629   3.424
 5847TIP3    H117547   1.920   2.690   3.444
 5847TIP3    H217548   1.814   2.659   3.341
 5848TIP3   OH217549   6.034   2.722   3.137
 5848TIP3    H117550   6.100   2.727   3.206
 5848TIP3    H217551   6.064   2.650   3.081
 5849TIP3   OH217552  -0.023   5.717   3.053
 5849TIP3    H117553   0.063   5.682   3.078
 5849TIP3    H217554  -0.003   5.802   3.012
 5850TIP3   OH217555   6.016   4.138   4.622
 5850TIP3    H117556   5.944   4.076   4.614
 5850TIP3    H217557   6.040   4.159   4.531
 5851TIP3   OH217558   3.445   1.293   4.351
 5851TIP3    H117559   3.485   1.356   4.291
 5851TIP3    H217560   3.452   1.334   4.437
 5852TIP3   OH217561   3.766   0.781   3.942
 5852TIP3    H117562   3.739   0.799   3.853
 5852TIP3    H217563   3.853   0.821   3.950
 5853TIP3   OH217564   4.622   3.694   0.671
 5853TIP3    H117565   4.637   3.767   0.731
 5853TIP3    H217566   4.531   3.702   0.645
 5854TIP3   OH217567   4.332   0.286   1.681
 5854TIP3    H117568   4.354   0.207   1.632
 5854TIP3    H217569   4.355   0.358   1.622
 5855TIP3   OH217570   6.089   2.095   2.994
 5855TIP3    H117571   6.001   2.057   2.990
 5855TIP3    H217572   6.109   2.098   3.088
 5856TIP3   OH217573   0.108   4.657   2.292
 5856TIP3    H117574   0.083   4.605   2.216
 5856TIP3    H217575   0.135   4.742   2.256
 5857TIP3   OH217576   1.821   2.739   0.121
 5857TIP3    H117577   1.738   2.692   0.108
 5857TIP3    H217578   1.797   2.815   0.173
 5858TIP3   OH217579   4.091   3.266   0.050
 5858TIP3    H117580   4.168   3.211   0.066
 5858TIP3    H217581   4.055   3.232  -0.032
 5859TIP3   OH217582   4.336   3.825   0.915
 5859TIP3    H117583   4.261   3.771   0.888
 5859TIP3    H217584   4.300   3.913   0.924
 5860TIP3   OH217585   6.227   1.132   2.194
 5860TIP3    H117586   6.205   1.080   2.117
 5860TIP3    H217587   6.162   1.106   2.260
 5861TIP3   OH217588   3.633   3.204   2.884
 5861TIP3    H117589   3.611   3.163   2.801
 5861TIP3    H217590   3.720   3.241   2.871
 5862TIP3   OH217591   2.971   1.828   1.572
 5862TIP3    H117592   3.061   1.812   1.600
 5862TIP3    H217593   2.923   1.845   1.653
 5863TIP3   OH217594   5.530   1.815   2.694
 5863TIP3    H117595   5.536   1.807   2.789
 5863TIP3    H217596   5.445   1.857   2.679
 5864TIP3   OH217597   2.904   2.749   0.815
 5864TIP3    H117598   2.902   2.688   0.889
 5864TIP3    H217599   2.838   2.815   0.837
 5865TIP3   OH217600   5.656   5.844   3.655
 5865TIP3    H117601   5.703   5.845   3.738
 5865TIP3    H217602   5.724   5.832   3.589
 5866TIP3   OH217603   3.084   3.788   3.751
 5866TIP3    H117604   3.108   3.695   3.747
 5866TIP3    H217605   3.167   3.833   3.766
 5867TIP3   OH217606   4.114   2.745   1.207
 5867TIP3    H117607   4.181   2.812   1.195
 5867TIP3    H217608   4.051   2.761   1.137
 5868TIP3   OH217609   0.923   0.656   0.134
 5868TIP3    H117610   0.939   0.630   0.043
 5868TIP3    H217611   0.947   0.749   0.137
 5869TIP3   OH217612   0.346   1.861   4.620
 5869TIP3    H117613   0.421   1.860   4.560
 5869TIP3    H217614   0.316   1.770   4.623
 5870TIP3   OH217615   0.364   2.450   0.467
 5870TIP3    H117616   0.330   2.510   0.400
 5870TIP3    H217617   0.288   2.397   0.493
 5871TIP3   OH217618   4.183   3.581   4.205
 5871TIP3    H117619   4.246   3.654   4.196
 5871TIP3    H217620   4.216   3.514   4.145
 5872TIP3   OH217621   5.808   1.006   0.655
 5872TIP3    H117622   5.870   0.989   0.726
 5872TIP3    H217623   5.832   0.944   0.587
 5873TIP3   OH217624   5.382   3.560   4.533
 5873TIP3    H117625   5.352   3.616   4.462
 5873TIP3    H217626   5.318   3.489   4.537
 5874TIP3   OH217627   2.692   1.451   3.866
 5874TIP3    H117628   2.622   1.506   3.902
 5874TIP3    H217629   2.651   1.404   3.794
 5875TIP3   OH217630   1.138   1.986   5.043
 5875TIP3    H117631   1.071   2.049   5.017
 5875TIP3    H217632   1.207   1.995   4.976
 5876TIP3   OH217633   5.343   4.368   4.927
 5876TIP3    H117634   5.338   4.272   4.927
 5876TIP3    H217635   5.396   4.389   4.851
 5877TIP3   OH217636   4.273   2.530   1.533
 5877TIP3    H117637   4.357   2.552   1.572
 5877TIP3    H217638   4.215   2.514   1.608
 5878TIP3   OH217639   3.224   1.803   3.547
 5878TIP3    H117640   3.133   1.808   3.575
 5878TIP3    H217641   3.274   1.817   3.627
 5879TIP3   OH217642   2.241   3.239   1.413
 5879TIP3    H117643   2.191   3.163   1.382
 5879TIP3    H217644   2.204   3.313   1.365
 5880TIP3   OH217645   2.405   1.161   1.938
 5880TIP3    H117646   2.327   1.209   1.909
 5880TIP3    H217647   2.414   1.090   1.874
 5881TIP3   OH217648   1.917   5.612   1.395
 5881TIP3    H117649   1.900   5.593   1.487
 5881TIP3    H217650   1.958   5.532   1.362
 5882TIP3   OH217651   4.190   2.039   4.281
 5882TIP3    H117652   4.225   1.967   4.334
 5882TIP3    H217653   4.262   2.063   4.223
 5883TIP3   OH217654   2.333   2.797   1.240
 5883TIP3    H117655   2.336   2.775   1.333
 5883TIP3    H217656   2.271   2.735   1.202
 5884TIP3   OH217657   2.090   2.869   2.572
 5884TIP3    H117658   2.057   2.783   2.546
 5884TIP3    H217659   2.178   2.874   2.534
 5885TIP3   OH217660   0.710   1.725   4.676
 5885TIP3    H117661   0.778   1.674   4.721
 5885TIP3    H217662   0.757   1.797   4.634
 5886TIP3   OH217663   5.468   0.643   2.301
 5886TIP3    H117664   5.432   0.655   2.389
 5886TIP3    H217665   5.454   0.727   2.257
 5887TIP3   OH217666   3.091   0.333   3.199
 5887TIP3    H117667   3.142   0.394   3.254
 5887TIP3    H217668   3.000   0.360   3.213
 5888TIP3   OH217669   6.312   3.517   1.260
 5888TIP3    H117670   6.402   3.484   1.271
 5888TIP3    H217671   6.257   3.442   1.282
 5889TIP3   OH217672   6.127   4.872   1.667
 5889TIP3    H117673   6.187   4.926   1.616
 5889TIP3    H217674   6.089   4.933   1.731
 5890TIP3   OH217675   6.310   0.318   3.516
 5890TIP3    H117676   6.370   0.267   3.570
 5890TIP3    H217677   6.359   0.336   3.436
 5891TIP3   OH217678   0.991   5.814   1.191
 5891TIP3    H117679   0.996   5.735   1.136
 5891TIP3    H217680   0.928   5.870   1.146
 5892TIP3   OH217681   1.213   0.926   1.493
 5892TIP3    H117682   1.149   0.902   1.560
 5892TIP3    H217683   1.295   0.887   1.523
 5893TIP3   OH217684   3.238   4.715   0.323
 5893TIP3    H117685   3.195   4.742   0.404
 5893TIP3    H217686   3.166   4.692   0.265
 5894TIP3   OH217687   4.337   5.449   5.025
 5894TIP3    H117688   4.355   5.468   4.933
 5894TIP3    H217689   4.393   5.510   5.073
 5895TIP3   OH217690   3.558   5.467   4.828
 5895TIP3    H117691   3.551   5.530   4.900
 5895TIP3    H217692   3.630   5.410   4.852
 5896TIP3   OH217693   1.211   1.535   0.622
 5896TIP3    H117694   1.142   1.470   0.632
 5896TIP3    H217695   1.237   1.557   0.712
 5897TIP3   OH217696   3.850   3.752   0.324
 5897TIP3    H117697   3.822   3.844   0.321
 5897TIP3    H217698   3.927   3.750   0.267
 5898TIP3   OH217699   5.699   2.842   1.833
 5898TIP3    H117700   5.777   2.842   1.778
 5898TIP3    H217701   5.733   2.845   1.923
 5899TIP3   OH217702   0.947   0.941   1.975
 5899TIP3    H117703   0.935   0.991   2.056
 5899TIP3    H217704   1.027   0.977   1.936
 5900TIP3   OH217705   2.413   2.526   2.487
 5900TIP3    H117706   2.498   2.563   2.466
 5900TIP3    H217707   2.395   2.466   2.415
 5901TIP3   OH217708   5.776   1.830   3.231
 5901TIP3    H117709   5.728   1.786   3.161
 5901TIP3    H217710   5.838   1.764   3.263
 5902TIP3   OH217711   2.890   1.892   3.400
 5902TIP3    H117712   2.955   1.951   3.439
 5902TIP3    H217713   2.908   1.807   3.439
 5903TIP3   OH217714   0.462   3.521   3.805
 5903TIP3    H117715   0.489   3.449   3.861
 5903TIP3    H217716   0.428   3.587   3.866
 5904TIP3   OH217717   5.301   3.099   4.606
 5904TIP3    H117718   5.294   3.064   4.517
 5904TIP3    H217719   5.395   3.102   4.623
 5905TIP3   OH217720   6.353   4.547   3.753
 5905TIP3    H117721   6.291   4.602   3.800
 5905TIP3    H217722   6.302   4.510   3.680
 5906TIP3   OH217723   0.942   4.303   0.086
 5906TIP3    H117724   0.945   4.234   0.020
 5906TIP3    H217725   0.958   4.383   0.036
 5907TIP3   OH217726   0.446   3.083   0.750
 5907TIP3    H117727   0.400   3.039   0.679
 5907TIP3    H217728   0.518   3.024   0.772
 5908TIP3   OH217729   2.890   0.129   0.526
 5908TIP3    H117730   2.952   0.063   0.494
 5908TIP3    H217731   2.809   0.081   0.542
 5909TIP3   OH217732   2.554   5.354   0.395
 5909TIP3    H117733   2.573   5.448   0.404
 5909TIP3    H217734   2.609   5.325   0.322
 5910TIP3   OH217735   6.048   1.140   2.641
 5910TIP3    H117736   5.969   1.092   2.669
 5910TIP3    H217737   6.034   1.229   2.674
 5911TIP3   OH217738   0.089   5.743  -0.024
 5911TIP3    H117739   0.158   5.677  -0.031
 5911TIP3    H217740   0.038   5.716   0.053
 5912TIP3   OH217741   1.913   4.341   0.392
 5912TIP3    H117742   1.984   4.311   0.448
 5912TIP3    H217743   1.908   4.435   0.408
 5913TIP3   OH217744   0.023   5.027   4.646
 5913TIP3    H117745  -0.061   5.061   4.677
 5913TIP3    H217746   0.001   4.974   4.570
 5914TIP3   OH217747   0.216   3.538   4.338
 5914TIP3    H117748   0.155   3.517   4.408
 5914TIP3    H217749   0.289   3.477   4.351
 5915TIP3   OH217750   0.611   1.993   5.155
 5915TIP3    H117751   0.667   1.987   5.078
 5915TIP3    H217752   0.526   1.959   5.126
 5916TIP3   OH217753   1.039   4.978   1.104
 5916TIP3    H117754   0.972   4.952   1.041
 5916TIP3    H217755   1.030   5.073   1.112
 5917TIP3   OH217756   1.865   0.027   2.628
 5917TIP3    H117757   1.910   0.095   2.678
 5917TIP3    H217758   1.889  -0.055   2.671
 5918TIP3   OH217759   1.726   3.529   4.426
 5918TIP3    H117760   1.763   3.613   4.398
 5918TIP3    H217761   1.773   3.507   4.506
 5919TIP3   OH217762   3.848   3.625   4.260
 5919TIP3    H117763   3.942   3.607   4.267
 5919TIP3    H217764   3.838   3.667   4.175
 5920TIP3   OH217765   1.437   4.215   4.604
 5920TIP3    H117766   1.402   4.134   4.566
 5920TIP3    H217767   1.508   4.240   4.546
 5921TIP3   OH217768   5.676   3.551   3.466
 5921TIP3    H117769   5.764   3.516   3.457
 5921TIP3    H217770   5.665   3.566   3.560
 5922TIP3   OH217771   5.348   5.747   0.123
 5922TIP3    H117772   5.400   5.691   0.065
 5922TIP3    H217773   5.283   5.787   0.065
 5923TIP3   OH217774   4.862  -0.035   3.942
 5923TIP3    H117775   4.838   0.057   3.927
 5923TIP3    H217776   4.811  -0.060   4.019
 5924TIP3   OH217777   1.892   2.346   3.057
 5924TIP3    H117778   1.920   2.327   3.147
 5924TIP3    H217779   1.969   2.327   3.004
 5925TIP3   OH217780   6.269   2.897   1.981
 5925TIP3    H117781   6.315   2.829   1.930
 5925TIP3    H217782   6.213   2.941   1.917
 5926TIP3   OH217783   5.686   2.872   1.309
 5926TIP3    H117784   5.616   2.884   1.244
 5926TIP3    H217785   5.646   2.819   1.378
 5927TIP3   OH217786   2.946   1.687   3.569
 5927TIP3    H117787   2.956   1.618   3.504
 5927TIP3    H217788   2.953   1.643   3.653
 5928TIP3   OH217789   0.211   0.310   3.342
 5928TIP3    H117790   0.143   0.242   3.333
 5928TIP3    H217791   0.209   0.357   3.258
 5929TIP3   OH217792   2.879   2.450   3.054
 5929TIP3    H117793   2.936   2.380   3.085
 5929TIP3    H217794   2.848   2.420   2.969
 5930TIP3   OH217795   3.521   0.517   2.402
 5930TIP3    H117796   3.477   0.535   2.485
 5930TIP3    H217797   3.450   0.508   2.339
 5931TIP3   OH217798   2.982   1.269  -0.025
 5931TIP3    H117799   3.046   1.335   0.001
 5931TIP3    H217800   2.971   1.282  -0.120
 5932TIP3   OH217801   0.126   1.350   4.172
 5932TIP3    H117802   0.190   1.393   4.115
 5932TIP3    H217803   0.176   1.322   4.249
 5933TIP3   OH217804   2.273   1.689   4.074
 5933TIP3    H117805   2.275   1.783   4.057
 5933TIP3    H217806   2.181   1.669   4.088
 5934TIP3   OH217807   4.199   4.385   5.057
 5934TIP3    H117808   4.116   4.378   5.008
 5934TIP3    H217809   4.265   4.401   4.990
 5935TIP3   OH217810   5.573   5.605   3.906
 5935TIP3    H117811   5.564   5.627   3.814
 5935TIP3    H217812   5.491   5.634   3.947
 5936TIP3   OH217813   3.695   2.572   2.444
 5936TIP3    H117814   3.722   2.586   2.353
 5936TIP3    H217815   3.773   2.539   2.488
 5937TIP3   OH217816   0.047   0.007   3.512
 5937TIP3    H117817   0.047  -0.080   3.552
 5937TIP3    H217818  -0.022   0.003   3.446
 5938TIP3   OH217819   1.787   3.585   3.562
 5938TIP3    H117820   1.754   3.585   3.652
 5938TIP3    H217821   1.848   3.659   3.560
 5939TIP3   OH217822   5.277   3.107   3.358
 5939TIP3    H117823   5.240   3.099   3.446
 5939TIP3    H217824   5.343   3.038   3.353
 5940TIP3   OH217825   5.694   4.748   3.953
 5940TIP3    H117826   5.599   4.747   3.949
 5940TIP3    H217827   5.719   4.833   3.916
 5941TIP3   OH217828   1.246   4.836   1.839
 5941TIP3    H117829   1.193   4.893   1.783
 5941TIP3    H217830   1.312   4.893   1.876
 5942TIP3   OH217831   2.141   5.966   1.805
 5942TIP3    H117832   2.162   6.038   1.864
 5942TIP3    H217833   2.226   5.931   1.778
 5943TIP3   OH217834   1.148   0.974   3.504
 5943TIP3    H117835   1.059   0.990   3.536
 5943TIP3    H217836   1.164   1.046   3.442
 5944TIP3   OH217837   4.127   3.060   2.041
 5944TIP3    H117838   4.185   3.120   1.994
 5944TIP3    H217839   4.039   3.082   2.009
 5945TIP3   OH217840   2.805   2.997   2.675
 5945TIP3    H117841   2.896   3.005   2.703
 5945TIP3    H217842   2.810   2.950   2.591
 5946TIP3   OH217843   5.776   0.643   1.196
 5946TIP3    H117844   5.698   0.593   1.217
 5946TIP3    H217845   5.847   0.595   1.238
 5947TIP3   OH217846   2.843   2.519   3.322
 5947TIP3    H117847   2.760   2.566   3.314
 5947TIP3    H217848   2.862   2.487   3.234
 5948TIP3   OH217849   4.566   4.381   4.557
 5948TIP3    H117850   4.520   4.453   4.599
 5948TIP3    H217851   4.499   4.334   4.507
 5949TIP3   OH217852   2.849   0.339   0.879
 5949TIP3    H117853   2.809   0.340   0.966
 5949TIP3    H217854   2.833   0.251   0.846
 5950TIP3   OH217855   5.496   5.119   2.917
 5950TIP3    H117856   5.417   5.163   2.888
 5950TIP3    H217857   5.557   5.189   2.937
 5951TIP3   OH217858   1.733   3.186   1.998
 5951TIP3    H117859   1.801   3.238   1.954
 5951TIP3    H217860   1.740   3.099   1.958
 5952TIP3   OH217861   1.635   1.562   3.686
 5952TIP3    H117862   1.579   1.602   3.752
 5952TIP3    H217863   1.586   1.569   3.604
 5953TIP3   OH217864   0.410   4.491   3.197
 5953TIP3    H117865   0.374   4.573   3.231
 5953TIP3    H217866   0.486   4.474   3.253
 5954TIP3   OH217867   4.652   1.452   4.690
 5954TIP3    H117868   4.559   1.429   4.695
 5954TIP3    H217869   4.680   1.423   4.604
 5955TIP3   OH217870   1.595   4.456   4.158
 5955TIP3    H117871   1.567   4.544   4.183
 5955TIP3    H217872   1.545   4.437   4.078
 5956TIP3   OH217873   2.599   5.737   1.662
 5956TIP3    H117874   2.694   5.748   1.672
 5956TIP3    H217875   2.590   5.670   1.595
 5957TIP3   OH217876   4.508   4.159   4.936
 5957TIP3    H117877   4.542   4.072   4.956
 5957TIP3    H217878   4.481   4.194   5.021
 5958TIP3   OH217879   6.047   1.123   4.455
 5958TIP3    H117880   6.015   1.213   4.451
 5958TIP3    H217881   6.131   1.126   4.408
 5959TIP3   OH217882   3.228   0.726   3.734
 5959TIP3    H117883   3.170   0.667   3.783
 5959TIP3    H217884   3.294   0.753   3.798
 5960TIP3   OH217885   2.503   3.034   4.868
 5960TIP3    H117886   2.552   2.960   4.905
 5960TIP3    H217887   2.484   3.089   4.944
 5961TIP3   OH217888   5.569   0.629   3.488
 5961TIP3    H117889   5.583   0.686   3.413
 5961TIP3    H217890   5.653   0.586   3.503
 5962TIP3   OH217891   1.279   4.631   3.810
 5962TIP3    H117892   1.184   4.624   3.807
 5962TIP3    H217893   1.310   4.580   3.735
 5963TIP3   OH217894   1.719   5.831   1.882
 5963TIP3    H117895   1.777   5.755   1.885
 5963TIP3    H217896   1.773   5.903   1.914
 5964TIP3   OH217897   5.984   0.044   1.785
 5964TIP3    H117898   5.965   0.027   1.692
 5964TIP3    H217899   5.934   0.123   1.806
 5965TIP3   OH217900   4.716  -0.015   0.620
 5965TIP3    H117901   4.756   0.053   0.674
 5965TIP3    H217902   4.780  -0.035   0.553
 5966TIP3   OH217903   4.137   2.323   2.858
 5966TIP3    H117904   4.189   2.298   2.781
 5966TIP3    H217905   4.196   2.309   2.932
 5967TIP3   OH217906   4.509   2.284   1.822
 5967TIP3    H117907   4.450   2.219   1.783
 5967TIP3    H217908   4.597   2.250   1.805
 5968TIP3   OH217909   3.462   2.108   2.746
 5968TIP3    H117910   3.504   2.182   2.701
 5968TIP3    H217911   3.414   2.149   2.818
 5969TIP3   OH217912   5.024   4.151   3.812
 5969TIP3    H117913   4.965   4.218   3.777
 5969TIP3    H217914   5.016   4.159   3.907
 5970TIP3   OH217915   0.270   0.992   5.038
 5970TIP3    H117916   0.188   1.001   4.988
 5970TIP3    H217917   0.248   0.931   5.108
 5971TIP3   OH217918   5.130   1.546   4.565
 5971TIP3    H117919   5.090   1.589   4.490
 5971TIP3    H217920   5.183   1.476   4.527
 5972TIP3   OH217921   5.135   4.862   3.726
 5972TIP3    H117922   5.075   4.868   3.801
 5972TIP3    H217923   5.092   4.913   3.657
 5973TIP3   OH217924   4.398   3.092   0.624
 5973TIP3    H117925   4.467   3.085   0.690
 5973TIP3    H217926   4.444   3.124   0.546
 5974TIP3   OH217927   3.253   0.334   4.517
 5974TIP3    H117928   3.296   0.420   4.522
 5974TIP3    H217929   3.161   0.352   4.536
 5975TIP3   OH217930   0.866   3.787   2.389
 5975TIP3    H117931   0.934   3.721   2.400
 5975TIP3    H217932   0.846   3.816   2.478
 5976TIP3   OH217933   4.256   5.502   2.610
 5976TIP3    H117934   4.161   5.489   2.611
 5976TIP3    H217935   4.268   5.588   2.569
 5977TIP3   OH217936   2.066  -0.008   0.299
 5977TIP3    H117937   2.038   0.079   0.329
 5977TIP3    H217938   1.996  -0.066   0.329
 5978TIP3   OH217939   3.412   1.973   4.362
 5978TIP3    H117940   3.486   1.914   4.346
 5978TIP3    H217941   3.405   2.025   4.282
 5979TIP3   OH217942   5.142   0.240   4.717
 5979TIP3    H117943   5.233   0.266   4.711
 5979TIP3    H217944   5.101   0.304   4.775
 5980TIP3   OH217945   5.073   0.159   4.306
 5980TIP3    H117946   5.071   0.196   4.218
 5980TIP3    H217947   5.164   0.132   4.318
 5981TIP3   OH217948   2.256   4.053   0.654
 5981TIP3    H117949   2.209   3.996   0.593
 5981TIP3    H217950   2.347   4.047   0.626
 5982TIP3   OH217951   0.428   2.316   4.758
 5982TIP3    H117952   0.396   2.230   4.784
 5982TIP3    H217953   0.397   2.375   4.825
 5983TIP3   OH217954   4.339   4.199   0.306
 5983TIP3    H117955   4.404   4.231   0.243
 5983TIP3    H217956   4.357   4.248   0.386
 5984TIP3   OH217957   2.175   5.559   2.002
 5984TIP3    H117958   2.252   5.584   1.951
 5984TIP3    H217959   2.209   5.504   2.072
 5985TIP3   OH217960   1.090   1.438   2.474
 5985TIP3    H117961   1.185   1.439   2.483
 5985TIP3    H217962   1.061   1.371   2.537
 5986TIP3   OH217963   0.297   5.972   0.588
 5986TIP3    H117964   0.243   6.044   0.621
 5986TIP3    H217965   0.242   5.930   0.521
 5987TIP3   OH217966   1.041   0.501   4.556
 5987TIP3    H117967   1.090   0.570   4.510
 5987TIP3    H217968   1.087   0.490   4.639
 5988TIP3   OH217969   3.974   2.557   1.419
 5988TIP3    H117970   3.993   2.464   1.404
 5988TIP3    H217971   4.045   2.603   1.374
 5989TIP3   OH217972   2.967   3.154   4.680
 5989TIP3    H117973   2.925   3.221   4.735
 5989TIP3    H217974   2.988   3.200   4.599
 5990TIP3   OH217975   5.242   3.598   2.241
 5990TIP3    H117976   5.152   3.594   2.209
 5990TIP3    H217977   5.273   3.508   2.238
 5991TIP3   OH217978   2.613   0.783   1.857
 5991TIP3    H117979   2.584   0.785   1.948
 5991TIP3    H217980   2.629   0.691   1.839
 5992TIP3   OH217981   1.129   2.914   1.819
 5992TIP3    H117982   1.186   2.949   1.888
 5992TIP3    H217983   1.181   2.921   1.739
 5993TIP3   OH217984   5.136   2.651   4.909
 5993TIP3    H117985   5.145   2.720   4.843
 5993TIP3    H217986   5.078   2.689   4.975
 5994TIP3   OH217987   3.324   5.615   2.527
 5994TIP3    H117988   3.305   5.542   2.469
 5994TIP3    H217989   3.297   5.585   2.614
 5995TIP3   OH217990   4.512   5.541   2.975
 5995TIP3    H117991   4.579   5.603   3.005
 5995TIP3    H217992   4.514   5.549   2.880
 5996TIP3   OH217993   2.871   3.302   3.204
 5996TIP3    H117994   2.896   3.223   3.251
 5996TIP3    H217995   2.954   3.339   3.173
 5997TIP3   OH217996   5.097   1.483   3.447
 5997TIP3    H117997   5.151   1.552   3.408
 5997TIP3    H217998   5.155   1.407   3.452
 5998TIP3   OH217999   4.369   5.060   3.676
 5998TIP3    H118000   4.351   5.012   3.757
 5998TIP3    H218001   4.323   5.010   3.608
 5999TIP3   OH218002   1.093   4.608   2.287
 5999TIP3    H118003   1.118   4.518   2.269
 5999TIP3    H218004   1.131   4.627   2.373
 6000TIP3   OH218005   4.005   5.433   2.565
 6000TIP3    H118006   4.008   5.340   2.544
 6000TIP3    H218007   3.943   5.470   2.503
 6001TIP3   OH218008   5.296   1.880   1.905
 6001TIP3    H118009   5.305   1.826   1.826
 6001TIP3    H218010   5.385   1.884   1.941
 6002TIP3   OH218011   1.522   2.481   1.899
 6002TIP3    H118012   1.521   2.449   1.989
 6002TIP3    H218013   1.433   2.466   1.867
 6003TIP3   OH218014   2.499   4.520   3.157
 6003TIP3    H118015   2.424   4.470   3.122
 6003TIP3    H218016   2.470   4.611   3.154
 6004TIP3   OH218017   4.291   5.404   4.555
 6004TIP3    H118018   4.339   5.332   4.597
 6004TIP3    H218019   4.300   5.388   4.461
 6005TIP3   OH218020   4.292   0.502   5.019
 6005TIP3    H118021   4.242   0.421   5.027
 6005TIP3    H218022   4.230   0.570   5.046
 6006TIP3   OH218023   0.605   0.890   1.663
 6006TIP3    H118024   0.660   0.952   1.711
 6006TIP3    H218025   0.516   0.922   1.675
 6007TIP3   OH218026   2.162   5.772   1.357
 6007TIP3    H118027   2.248   5.729   1.355
 6007TIP3    H218028   2.100   5.700   1.351
 6008TIP3   OH218029   5.498   5.324   0.747
 6008TIP3    H118030   5.404   5.328   0.765
 6008TIP3    H218031   5.516   5.231   0.734
 6009TIP3   OH218032   2.941   0.607   3.538
 6009TIP3    H118033   2.912   0.521   3.506
 6009TIP3    H218034   2.866   0.664   3.524
 6010TIP3   OH218035   3.473   1.493   0.150
 6010TIP3    H118036   3.513   1.407   0.140
 6010TIP3    H218037   3.544   1.555   0.128
 6011TIP3   OH218038   3.196   3.706   4.117
 6011TIP3    H118039   3.131   3.637   4.128
 6011TIP3    H218040   3.146   3.782   4.088
 6012TIP3   OH218041   6.138   2.703   2.303
 6012TIP3    H118042   6.147   2.622   2.353
 6012TIP3    H218043   6.129   2.675   2.212
 6013TIP3   OH218044   2.246   4.952   2.402
 6013TIP3    H118045   2.271   4.871   2.446
 6013TIP3    H218046   2.319   5.011   2.416
 6014TIP3   OH218047   2.664   3.502   1.419
 6014TIP3    H118048   2.616   3.463   1.347
 6014TIP3    H218049   2.634   3.455   1.497
 6015TIP3   OH218050   4.548   3.339   3.626
 6015TIP3    H118051   4.592   3.371   3.705
 6015TIP3    H218052   4.456   3.361   3.639
 6016TIP3   OH218053   1.739   5.151   2.961
 6016TIP3    H118054   1.654   5.196   2.969
 6016TIP3    H218055   1.761   5.124   3.050
 6017TIP3   OH218056   3.156   4.610   3.106
 6017TIP3    H118057   3.245   4.594   3.074
 6017TIP3    H218058   3.110   4.527   3.091
 6018TIP3   OH218059   5.740   5.008   3.619
 6018TIP3    H118060   5.735   4.933   3.559
 6018TIP3    H218061   5.656   5.052   3.609
 6019TIP3   OH218062   1.766   3.008   3.224
 6019TIP3    H118063   1.724   3.033   3.306
 6019TIP3    H218064   1.804   3.089   3.190
 6020TIP3   OH218065   1.131   0.009   2.086
 6020TIP3    H118066   1.173  -0.059   2.140
 6020TIP3    H218067   1.183   0.088   2.104
 6021TIP3   OH218068   1.806   5.367   4.477
 6021TIP3    H118069   1.885   5.420   4.468
 6021TIP3    H218070   1.824   5.308   4.550
 6022TIP3   OH218071   3.696   3.646   0.114
 6022TIP3    H118072   3.709   3.552   0.125
 6022TIP3    H218073   3.773   3.687   0.155
 6023TIP3   OH218074   5.173   3.107   4.247
 6023TIP3    H118075   5.163   3.201   4.233
 6023TIP3    H218076   5.128   3.067   4.173
 6024TIP3   OH218077   1.042   1.768   0.207
 6024TIP3    H118078   0.962   1.807   0.243
 6024TIP3    H218079   1.095   1.843   0.179
 6025TIP3   OH218080   3.756   2.815   1.263
 6025TIP3    H118081   3.672   2.791   1.224
 6025TIP3    H218082   3.801   2.732   1.280
 6026TIP3   OH218083   3.980   4.331   3.356
 6026TIP3    H118084   3.946   4.405   3.407
 6026TIP3    H218085   4.028   4.372   3.284
 6027TIP3   OH218086   5.641   2.942   2.114
 6027TIP3    H118087   5.693   2.895   2.179
 6027TIP3    H218088   5.586   3.002   2.165
 6028TIP3   OH218089   2.060   1.262   4.017
 6028TIP3    H118090   2.080   1.226   4.104
 6028TIP3    H218091   2.135   1.237   3.963
 6029TIP3   OH218092   5.443   5.149   2.337
 6029TIP3    H118093   5.456   5.159   2.431
 6029TIP3    H218094   5.348   5.145   2.326
 6030TIP3   OH218095  -0.026   2.883   0.210
 6030TIP3    H118096  -0.076   2.959   0.180
 6030TIP3    H218097   0.048   2.921   0.258
 6031TIP3   OH218098   3.691   2.658   0.484
 6031TIP3    H118099   3.652   2.743   0.502
 6031TIP3    H218100   3.633   2.595   0.528
 6032TIP3   OH218101   2.430   3.370   0.554
 6032TIP3    H118102   2.424   3.335   0.643
 6032TIP3    H218103   2.402   3.461   0.561
 6033TIP3   OH218104   1.786   5.048   4.713
 6033TIP3    H118105   1.805   5.092   4.796
 6033TIP3    H218106   1.700   5.082   4.687
 6034TIP3   OH218107   0.098   1.126   4.006
 6034TIP3    H118108   0.096   1.198   4.069
 6034TIP3    H218109   0.170   1.071   4.035
 6035TIP3   OH218110   5.829   4.158   2.545
 6035TIP3    H118111   5.754   4.114   2.506
 6035TIP3    H218112   5.905   4.105   2.519
 6036TIP3   OH218113   5.338   0.699   4.519
 6036TIP3    H118114   5.430   0.691   4.546
 6036TIP3    H218115   5.294   0.626   4.564
 6037TIP3   OH218116   2.026   0.294   2.673
 6037TIP3    H118117   1.954   0.356   2.681
 6037TIP3    H218118   2.103   0.349   2.660
 6038TIP3   OH218119   3.788   4.302   2.047
 6038TIP3    H118120   3.756   4.224   2.003
 6038TIP3    H218121   3.881   4.306   2.026
 6039TIP3   OH218122   4.902   4.729   5.081
 6039TIP3    H118123   4.933   4.736   4.990
 6039TIP3    H218124   4.821   4.678   5.074
 6040TIP3   OH218125   2.331   3.692   2.226
 6040TIP3    H118126   2.375   3.724   2.147
 6040TIP3    H218127   2.238   3.691   2.203
 6041TIP3   OH218128   5.720   1.470   1.878
 6041TIP3    H118129   5.659   1.482   1.805
 6041TIP3    H218130   5.674   1.507   1.954
 6042TIP3   OH218131   2.828   5.681   3.561
 6042TIP3    H118132   2.858   5.696   3.651
 6042TIP3    H218133   2.781   5.762   3.537
 6043TIP3   OH218134   2.042   3.630   4.529
 6043TIP3    H118135   2.006   3.704   4.480
 6043TIP3    H218136   1.992   3.629   4.611
 6044TIP3   OH218137   4.737   2.316   3.917
 6044TIP3    H118138   4.654   2.344   3.878
 6044TIP3    H218139   4.802   2.377   3.882
 6045TIP3   OH218140   2.354   5.914   2.038
 6045TIP3    H118141   2.376   5.986   1.979
 6045TIP3    H218142   2.419   5.847   2.019
 6046TIP3   OH218143   2.285   3.279   1.019
 6046TIP3    H118144   2.322   3.326   0.944
 6046TIP3    H218145   2.319   3.190   1.011
 6047TIP3   OH218146   0.732   0.439   2.453
 6047TIP3    H118147   0.736   0.356   2.405
 6047TIP3    H218148   0.770   0.503   2.394
 6048TIP3   OH218149   2.491   3.166   5.121
 6048TIP3    H118150   2.548   3.112   5.175
 6048TIP3    H218151   2.440   3.218   5.183
 6049TIP3   OH218152   4.415   1.948   1.537
 6049TIP3    H118153   4.425   2.039   1.507
 6049TIP3    H218154   4.457   1.947   1.623
 6050TIP3   OH218155   3.771   3.165   2.456
 6050TIP3    H118156   3.711   3.162   2.381
 6050TIP3    H218157   3.756   3.082   2.501
 6051TIP3   OH218158   5.795   0.310   4.698
 6051TIP3    H118159   5.769   0.338   4.610
 6051TIP3    H218160   5.799   0.390   4.750
 6052TIP3   OH218161   0.896   0.259   4.071
 6052TIP3    H118162   0.859   0.174   4.048
 6052TIP3    H218163   0.845   0.287   4.148
 6053TIP3   OH218164   4.825   1.014   1.458
 6053TIP3    H118165   4.753   1.071   1.432
 6053TIP3    H218166   4.856   0.977   1.375
 6054TIP3   OH218167   4.308   3.679   1.307
 6054TIP3    H118168   4.252   3.632   1.246
 6054TIP3    H218169   4.282   3.648   1.394
 6055TIP3   OH218170   6.230   1.202   2.982
 6055TIP3    H118171   6.293   1.268   2.955
 6055TIP3    H218172   6.255   1.123   2.935
 6056TIP3   OH218173   2.411   3.335   3.353
 6056TIP3    H118174   2.339   3.309   3.411
 6056TIP3    H218175   2.490   3.305   3.397
 6057TIP3   OH218176   3.310   4.581   4.828
 6057TIP3    H118177   3.280   4.498   4.791
 6057TIP3    H218178   3.357   4.624   4.757
 6058TIP3   OH218179   5.422   5.530   1.311
 6058TIP3    H118180   5.496   5.566   1.359
 6058TIP3    H218181   5.369   5.607   1.288
 6059TIP3   OH218182   3.217   4.621   0.818
 6059TIP3    H118183   3.296   4.583   0.780
 6059TIP3    H218184   3.238   4.633   0.910
 6060TIP3   OH218185   1.975   2.516   0.962
 6060TIP3    H118186   1.927   2.556   0.890
 6060TIP3    H218187   2.033   2.452   0.920
 6061TIP3   OH218188   4.450   4.946   2.779
 6061TIP3    H118189   4.494   4.875   2.731
 6061TIP3    H218190   4.439   5.015   2.714
 6062TIP3   OH218191   1.744   5.403   1.069
 6062TIP3    H118192   1.722   5.310   1.065
 6062TIP3    H218193   1.707   5.434   1.152
 6063TIP3   OH218194   3.714   1.942   4.946
 6063TIP3    H118195   3.628   1.969   4.977
 6063TIP3    H218196   3.730   1.858   4.990
 6064TIP3   OH218197   2.518   4.426   2.619
 6064TIP3    H118198   2.560   4.354   2.572
 6064TIP3    H218199   2.590   4.478   2.652
 6065TIP3   OH218200   4.898   3.819   2.525
 6065TIP3    H118201   4.992   3.814   2.541
 6065TIP3    H218202   4.874   3.733   2.491
 6066TIP3   OH218203   5.631   5.304   0.185
 6066TIP3    H118204   5.710   5.280   0.234
 6066TIP3    H218205   5.646   5.269   0.097
 6067TIP3   OH218206   0.078   2.482   2.969
 6067TIP3    H118207   0.061   2.392   2.942
 6067TIP3    H218208   0.119   2.474   3.055
 6068TIP3   OH218209   0.513   5.293   3.147
 6068TIP3    H118210   0.598   5.284   3.103
 6068TIP3    H218211   0.528   5.357   3.216
 6069TIP3   OH218212   2.171   5.501   2.647
 6069TIP3    H118213   2.156   5.423   2.593
 6069TIP3    H218214   2.139   5.573   2.594
 6070TIP3   OH218215   3.405   0.172   4.845
 6070TIP3    H118216   3.348   0.146   4.773
 6070TIP3    H218217   3.492   0.141   4.820
 6071TIP3   OH218218   0.699   5.563   3.662
 6071TIP3    H118219   0.684   5.519   3.746
 6071TIP3    H218220   0.741   5.497   3.608
 6072TIP3   OH218221   4.330   0.210   3.885
 6072TIP3    H118222   4.336   0.118   3.858
 6072TIP3    H218223   4.407   0.224   3.940
 6073TIP3   OH218224   1.673   2.109   0.372
 6073TIP3    H118225   1.692   2.196   0.335
 6073TIP3    H218226   1.696   2.048   0.302
 6074TIP3   OH218227   5.447   5.948   1.239
 6074TIP3    H118228   5.522   5.996   1.274
 6074TIP3    H218229   5.479   5.906   1.160
 6075TIP3   OH218230   5.265   3.493   0.182
 6075TIP3    H118231   5.272   3.554   0.109
 6075TIP3    H218232   5.235   3.411   0.143
 6076TIP3   OH218233   1.322   2.309   1.335
 6076TIP3    H118234   1.286   2.256   1.263
 6076TIP3    H218235   1.245   2.332   1.387
 6077TIP3   OH218236   5.301   0.518   3.414
 6077TIP3    H118237   5.296   0.580   3.342
 6077TIP3    H218238   5.227   0.458   3.399
 6078TIP3   OH218239   0.920   2.695   1.329
 6078TIP3    H118240   1.015   2.695   1.328
 6078TIP3    H218241   0.896   2.727   1.416
 6079TIP3   OH218242   3.043   4.456   3.390
 6079TIP3    H118243   3.067   4.549   3.384
 6079TIP3    H218244   3.080   4.417   3.311
 6080TIP3   OH218245   4.981   1.191   1.683
 6080TIP3    H118246   4.927   1.113   1.672
 6080TIP3    H218247   5.054   1.179   1.623
 6081TIP3   OH218248   5.649   4.714   0.242
 6081TIP3    H118249   5.692   4.792   0.276
 6081TIP3    H218250   5.565   4.744   0.208
 6082TIP3   OH218251   0.077   4.693   4.971
 6082TIP3    H118252   0.106   4.638   5.044
 6082TIP3    H218253  -0.016   4.707   4.987
 6083TIP3   OH218254   4.050   3.585   2.576
 6083TIP3    H118255   4.121   3.531   2.541
 6083TIP3    H218256   4.045   3.660   2.517
 6084TIP3   OH218257   1.317   2.335   0.662
 6084TIP3    H118258   1.352   2.342   0.573
 6084TIP3    H218259   1.319   2.242   0.682
 6085TIP3   OH218260   0.232   4.403   1.648
 6085TIP3    H118261   0.284   4.345   1.592
 6085TIP3    H218262   0.241   4.365   1.736
 6086TIP3   OH218263   6.301   3.049   3.998
 6086TIP3    H118264   6.361   3.047   4.073
 6086TIP3    H218265   6.247   3.127   4.012
 6087TIP3   OH218266   0.623   2.711   3.547
 6087TIP3    H118267   0.537   2.668   3.549
 6087TIP3    H218268   0.680   2.655   3.599
 6088TIP3   OH218269   2.774   5.057   1.226
 6088TIP3    H118270   2.844   5.049   1.291
 6088TIP3    H218271   2.729   4.972   1.229
 6089TIP3   OH218272   4.510   1.426   3.193
 6089TIP3    H118273   4.460   1.505   3.212
 6089TIP3    H218274   4.590   1.456   3.150
 6090TIP3   OH218275   5.279   0.201   1.065
 6090TIP3    H118276   5.346   0.201   1.134
 6090TIP3    H218277   5.307   0.269   1.005
 6091TIP3   OH218278   1.209   0.603   3.755
 6091TIP3    H118279   1.167   0.523   3.723
 6091TIP3    H218280   1.252   0.640   3.678
 6092TIP3   OH218281   5.920   2.811   1.694
 6092TIP3    H118282   5.953   2.771   1.613
 6092TIP3    H218283   5.974   2.889   1.706
 6093TIP3   OH218284   0.401   2.617   2.488
 6093TIP3    H118285   0.344   2.583   2.419
 6093TIP3    H218286   0.408   2.544   2.550
 6094TIP3   OH218287   2.741   5.996   0.354
 6094TIP3    H118288   2.816   5.954   0.396
 6094TIP3    H218289   2.751   6.089   0.373
 6095TIP3   OH218290   5.950   4.632   1.669
 6095TIP3    H118291   5.975   4.724   1.670
 6095TIP3    H218292   5.868   4.628   1.719
 6096TIP3   OH218293   0.306   1.506   1.771
 6096TIP3    H118294   0.263   1.587   1.798
 6096TIP3    H218295   0.398   1.519   1.793
 6097TIP3   OH218296   2.792   5.178   2.516
 6097TIP3    H118297   2.820   5.086   2.516
 6097TIP3    H218298   2.737   5.187   2.438
 6098TIP3   OH218299   4.313   4.001   1.360
 6098TIP3    H118300   4.245   3.958   1.411
 6098TIP3    H218301   4.320   3.950   1.280
 6099TIP3   OH218302   4.973   5.349   3.589
 6099TIP3    H118303   5.006   5.425   3.638
 6099TIP3    H218304   4.878   5.363   3.586
 6100TIP3   OH218305   3.884   4.528   0.983
 6100TIP3    H118306   3.942   4.551   1.055
 6100TIP3    H218307   3.854   4.612   0.949
 6101TIP3   OH218308   2.258   2.417   4.320
 6101TIP3    H118309   2.240   2.375   4.235
 6101TIP3    H218310   2.172   2.444   4.352
 6102TIP3   OH218311  -0.021   1.739   3.947
 6102TIP3    H118312  -0.019   1.669   4.012
 6102TIP3    H218313   0.065   1.736   3.905
 6103TIP3   OH218314   2.130   4.841   3.659
 6103TIP3    H118315   2.043   4.880   3.647
 6103TIP3    H218316   2.114   4.747   3.664
 6104TIP3   OH218317   5.940   5.050   4.956
 6104TIP3    H118318   6.026   5.089   4.939
 6104TIP3    H218319   5.879   5.123   4.951
 6105TIP3   OH218320   3.930   1.834   1.257
 6105TIP3    H118321   3.923   1.839   1.162
 6105TIP3    H218322   3.902   1.745   1.279
 6106TIP3   OH218323   2.801   0.940   1.715
 6106TIP3    H118324   2.854   0.941   1.795
 6106TIP3    H218325   2.733   0.875   1.732
 6107TIP3   OH218326   2.912   5.894   4.392
 6107TIP3    H118327   2.913   5.974   4.339
 6107TIP3    H218328   2.922   5.925   4.482
 6108TIP3   OH218329   0.634   0.711   2.304
 6108TIP3    H118330   0.576   0.765   2.250
 6108TIP3    H218331   0.713   0.764   2.314
 6109TIP3   OH218332   3.716   0.211   5.145
 6109TIP3    H118333   3.731   0.253   5.060
 6109TIP3    H218334   3.675   0.279   5.199
 6110TIP3   OH218335   4.928   0.825   3.151
 6110TIP3    H118336   4.921   0.770   3.229
 6110TIP3    H218337   4.867   0.897   3.166
 6111TIP3   OH218338   5.874   3.811   4.003
 6111TIP3    H118339   5.862   3.727   4.048
 6111TIP3    H218340   5.863   3.877   4.071
 6112TIP3   OH218341   4.517   2.883   2.833
 6112TIP3    H118342   4.609   2.903   2.816
 6112TIP3    H218343   4.474   2.968   2.837
 6113TIP3   OH218344   0.052   0.247   5.125
 6113TIP3    H118345   0.035   0.253   5.219
 6113TIP3    H218346   0.094   0.162   5.114
 6114TIP3   OH218347   0.954   1.213   0.965
 6114TIP3    H118348   0.914   1.193   0.881
 6114TIP3    H218349   0.905   1.288   0.999
 6115TIP3   OH218350   3.737   2.264   4.591
 6115TIP3    H118351   3.738   2.219   4.676
 6115TIP3    H218352   3.828   2.266   4.564
 6116TIP3   OH218353   1.127   0.792   3.957
 6116TIP3    H118354   1.055   0.750   4.004
 6116TIP3    H218355   1.162   0.724   3.900
 6117TIP3   OH218356   4.197   4.499   2.732
 6117TIP3    H118357   4.276   4.470   2.687
 6117TIP3    H218358   4.199   4.594   2.728
 6118TIP3   OH218359   1.407   1.374   2.160
 6118TIP3    H118360   1.319   1.409   2.170
 6118TIP3    H218361   1.458   1.415   2.229
 6119TIP3   OH218362   3.722   1.893   3.509
 6119TIP3    H118363   3.637   1.865   3.475
 6119TIP3    H218364   3.757   1.951   3.442
 6120TIP3   OH218365   5.480   3.870   1.633
 6120TIP3    H118366   5.435   3.818   1.566
 6120TIP3    H218367   5.566   3.889   1.595
 6121TIP3   OH218368   3.983   1.368   3.870
 6121TIP3    H118369   4.056   1.320   3.830
 6121TIP3    H218370   3.961   1.318   3.949
 6122TIP3   OH218371   2.071   2.073   0.939
 6122TIP3    H118372   2.007   2.081   0.868
 6122TIP3    H218373   2.139   2.136   0.918
 6123TIP3   OH218374   2.777   2.701   2.876
 6123TIP3    H118375   2.813   2.656   2.952
 6123TIP3    H218376   2.846   2.761   2.849
 6124TIP3   OH218377   0.339   0.356   0.177
 6124TIP3    H118378   0.314   0.346   0.268
 6124TIP3    H218379   0.435   0.348   0.178
 6125TIP3   OH218380   5.473   4.316   3.805
 6125TIP3    H118381   5.554   4.267   3.791
 6125TIP3    H218382   5.404   4.260   3.767
 6126TIP3   OH218383   1.781   4.314   0.003
 6126TIP3    H118384   1.703   4.259   0.001
 6126TIP3    H218385   1.787   4.350  -0.086
 6127TIP3   OH218386   2.210   0.645   4.204
 6127TIP3    H118387   2.275   0.682   4.264
 6127TIP3    H218388   2.221   0.550   4.212
 6128TIP3   OH218389   3.551   3.025   1.455
 6128TIP3    H118390   3.628   2.969   1.448
 6128TIP3    H218391   3.479   2.965   1.475
 6129TIP3   OH218392   4.207   3.677   2.221
 6129TIP3    H118393   4.269   3.732   2.173
 6129TIP3    H218394   4.192   3.601   2.164
 6130TIP3   OH218395   3.269   4.401   0.243
 6130TIP3    H118396   3.215   4.388   0.165
 6130TIP3    H218397   3.283   4.313   0.278
 6131TIP3   OH218398   5.264   1.268   3.377
 6131TIP3    H118399   5.305   1.309   3.301
 6131TIP3    H218400   5.278   1.174   3.363
 6132TIP3   OH218401   2.692   0.110   0.773
 6132TIP3    H118402   2.603   0.119   0.806
 6132TIP3    H218403   2.686   0.131   0.680
 6133TIP3   OH218404   0.601   0.277   4.596
 6133TIP3    H118405   0.577   0.236   4.679
 6133TIP3    H218406   0.657   0.351   4.621
 6134TIP3   OH218407   5.193   5.318   0.717
 6134TIP3    H118408   5.201   5.246   0.654
 6134TIP3    H218409   5.125   5.289   0.778
 6135TIP3   OH218410   3.849  -0.023   1.527
 6135TIP3    H118411   3.834   0.040   1.597
 6135TIP3    H218412   3.944  -0.025   1.516
 6136TIP3   OH218413   3.832   3.922   0.968
 6136TIP3    H118414   3.842   3.996   1.027
 6136TIP3    H218415   3.762   3.948   0.908
 6137TIP3   OH218416   3.798   4.027   0.276
 6137TIP3    H118417   3.744   4.095   0.236
 6137TIP3    H218418   3.863   4.075   0.328
 6138TIP3   OH218419   3.642   5.359   3.663
 6138TIP3    H118420   3.623   5.267   3.680
 6138TIP3    H218421   3.559   5.404   3.676
 6139TIP3   OH218422   3.384   4.478   2.569
 6139TIP3    H118423   3.454   4.479   2.634
 6139TIP3    H218424   3.336   4.397   2.587
 6140TIP3   OH218425   3.811   3.504   3.051
 6140TIP3    H118426   3.870   3.439   3.090
 6140TIP3    H218427   3.868   3.578   3.031
 6141TIP3   OH218428   5.050   0.158   2.374
 6141TIP3    H118429   4.980   0.187   2.316
 6141TIP3    H218430   5.005   0.114   2.446
 6142TIP3   OH218431   1.467   2.324   3.484
 6142TIP3    H118432   1.465   2.419   3.498
 6142TIP3    H218433   1.512   2.289   3.561
 6143TIP3   OH218434   5.365   0.500   2.090
 6143TIP3    H118435   5.390   0.554   2.164
 6143TIP3    H218436   5.269   0.494   2.095
 6144TIP3   OH218437  -0.004   0.615   4.532
 6144TIP3    H118438   0.081   0.582   4.504
 6144TIP3    H218439  -0.013   0.699   4.486
 6145TIP3   OH218440   4.742   2.392   4.536
 6145TIP3    H118441   4.731   2.382   4.441
 6145TIP3    H218442   4.666   2.443   4.564
 6146TIP3   OH218443   0.831   1.149   0.737
 6146TIP3    H118444   0.794   1.076   0.786
 6146TIP3    H218445   0.758   1.185   0.687
 6147TIP3   OH218446   6.035   4.793   2.831
 6147TIP3    H118447   5.941   4.779   2.822
 6147TIP3    H218448   6.075   4.722   2.780
 6148TIP3   OH218449   1.828   3.130   5.146
 6148TIP3    H118450   1.894   3.200   5.146
 6148TIP3    H218451   1.859   3.067   5.082
 6149TIP3   OH218452   1.193   3.865   1.177
 6149TIP3    H118453   1.124   3.856   1.110
 6149TIP3    H218454   1.269   3.896   1.128
 6150TIP3   OH218455   2.323   1.147   3.154
 6150TIP3    H118456   2.278   1.130   3.238
 6150TIP3    H218457   2.277   1.223   3.118
 6151TIP3   OH218458   2.760   0.375   3.489
 6151TIP3    H118459   2.773   0.286   3.456
 6151TIP3    H218460   2.695   0.413   3.430
 6152TIP3   OH218461   3.222   2.478   4.417
 6152TIP3    H118462   3.169   2.463   4.339
 6152TIP3    H218463   3.285   2.406   4.418
 6153TIP3   OH218464   3.402   3.738   0.901
 6153TIP3    H118465   3.460   3.813   0.889
 6153TIP3    H218466   3.459   3.662   0.893
 6154TIP3   OH218467   2.503   1.730   2.283
 6154TIP3    H118468   2.510   1.640   2.314
 6154TIP3    H218469   2.587   1.747   2.241
 6155TIP3   OH218470   3.044   1.665   0.596
 6155TIP3    H118471   3.088   1.706   0.522
 6155TIP3    H218472   2.951   1.685   0.583
 6156TIP3   OH218473   3.545   2.443   3.948
 6156TIP3    H118474   3.559   2.380   3.878
 6156TIP3    H218475   3.526   2.390   4.025
 6157TIP3   OH218476   0.255   0.049   1.803
 6157TIP3    H118477   0.269   0.102   1.725
 6157TIP3    H218478   0.328  -0.013   1.803
 6158TIP3   OH218479   2.286   4.385   3.072
 6158TIP3    H118480   2.269   4.316   3.137
 6158TIP3    H218481   2.310   4.337   2.992
 6159TIP3   OH218482   6.331   2.823   2.613
 6159TIP3    H118483   6.238   2.821   2.634
 6159TIP3    H218484   6.365   2.740   2.645
 6160TIP3   OH218485   4.068   1.243   0.980
 6160TIP3    H118486   3.988   1.230   1.032
 6160TIP3    H218487   4.036   1.266   0.893
 6161TIP3   OH218488   1.747   1.080   4.542
 6161TIP3    H118489   1.773   0.999   4.500
 6161TIP3    H218490   1.750   1.061   4.636
 6162TIP3   OH218491   1.138   1.442   4.524
 6162TIP3    H118492   1.167   1.533   4.527
 6162TIP3    H218493   1.208   1.393   4.568
 6163TIP3   OH218494   4.290   4.985   3.010
 6163TIP3    H118495   4.261   5.072   3.037
 6163TIP3    H218496   4.355   5.001   2.941
 6164TIP3   OH218497   3.061   2.846   3.307
 6164TIP3    H118498   3.069   2.888   3.221
 6164TIP3    H218499   3.149   2.811   3.324
 6165TIP3   OH218500   6.158   0.434   4.364
 6165TIP3    H118501   6.198   0.377   4.430
 6165TIP3    H218502   6.064   0.428   4.380
 6166TIP3   OH218503   4.301   3.023   2.534
 6166TIP3    H118504   4.271   2.932   2.538
 6166TIP3    H218505   4.327   3.036   2.443
 6167TIP3   OH218506   5.442   3.867   2.292
 6167TIP3    H118507   5.533   3.856   2.265
 6167TIP3    H218508   5.394   3.797   2.246
 6168TIP3   OH218509   4.589   4.695   0.627
 6168TIP3    H118510   4.660   4.664   0.683
 6168TIP3    H218511   4.597   4.790   0.629
 6169TIP3   OH218512   2.139   5.111   2.003
 6169TIP3    H118513   2.213   5.109   1.942
 6169TIP3    H218514   2.163   5.177   2.068
 6170TIP3   OH218515   3.617   5.814   3.996
 6170TIP3    H118516   3.616   5.718   3.999
 6170TIP3    H218517   3.552   5.840   4.061
 6171TIP3   OH218518   4.022   3.319   4.493
 6171TIP3    H118519   3.958   3.291   4.558
 6171TIP3    H218520   4.040   3.240   4.441
 6172TIP3   OH218521   0.913   0.693   4.081
 6172TIP3    H118522   0.884   0.647   4.003
 6172TIP3    H218523   0.940   0.623   4.141
 6173TIP3   OH218524   5.964   3.776   2.645
 6173TIP3    H118525   5.955   3.835   2.571
 6173TIP3    H218526   5.887   3.794   2.700
 6174TIP3   OH218527   1.357   2.464   0.928
 6174TIP3    H118528   1.348   2.429   0.840
 6174TIP3    H218529   1.279   2.434   0.975
 6175TIP3   OH218530   5.914   3.082   0.194
 6175TIP3    H118531   5.902   3.109   0.103
 6175TIP3    H218532   5.926   2.987   0.189
 6176TIP3   OH218533   5.140   0.234   1.602
 6176TIP3    H118534   5.180   0.223   1.516
 6176TIP3    H218535   5.214   0.232   1.663
 6177TIP3   OH218536   0.381   5.272   0.902
 6177TIP3    H118537   0.370   5.221   0.822
 6177TIP3    H218538   0.465   5.316   0.893
 6178TIP3   OH218539   1.953   2.495   1.672
 6178TIP3    H118540   1.938   2.487   1.578
 6178TIP3    H218541   1.999   2.414   1.696
 6179TIP3   OH218542   0.825   2.245   5.176
 6179TIP3    H118543   0.771   2.264   5.099
 6179TIP3    H218544   0.762   2.241   5.249
 6180TIP3   OH218545   2.340   4.614   1.658
 6180TIP3    H118546   2.310   4.558   1.587
 6180TIP3    H218547   2.289   4.695   1.648
 6181TIP3   OH218548   5.296   0.145   2.920
 6181TIP3    H118549   5.280   0.071   2.978
 6181TIP3    H218550   5.267   0.114   2.834
 6182TIP3   OH218551   0.624   3.750   3.502
 6182TIP3    H118552   0.607   3.784   3.414
 6182TIP3    H218553   0.655   3.660   3.487
 6183TIP3   OH218554   5.472   1.236   3.762
 6183TIP3    H118555   5.433   1.324   3.765
 6183TIP3    H218556   5.424   1.186   3.828
 6184TIP3   OH218557   6.031   2.286   0.311
 6184TIP3    H118558   5.950   2.336   0.303
 6184TIP3    H218559   6.077   2.300   0.229
 6185TIP3   OH218560   0.983   3.303   2.943
 6185TIP3    H118561   0.997   3.214   2.975
 6185TIP3    H218562   0.997   3.359   3.020
 6186TIP3   OH218563   5.485   2.398   4.728
 6186TIP3    H118564   5.400   2.421   4.766
 6186TIP3    H218565   5.512   2.320   4.777
 6187TIP3   OH218566   0.577   1.843   4.434
 6187TIP3    H118567   0.602   1.787   4.507
 6187TIP3    H218568   0.652   1.840   4.375
 6188TIP3   OH218569   2.646   2.815   4.657
 6188TIP3    H118570   2.567   2.811   4.710
 6188TIP3    H218571   2.715   2.841   4.718
 6189TIP3   OH218572   3.799   3.646   0.601
 6189TIP3    H118573   3.722   3.599   0.569
 6189TIP3    H218574   3.800   3.727   0.550
 6190TIP3   OH218575   5.589   0.178   4.215
 6190TIP3    H118576   5.611   0.252   4.158
 6190TIP3    H218577   5.668   0.124   4.215
 6191TIP3   OH218578   0.680   2.706   2.585
 6191TIP3    H118579   0.724   2.791   2.578
 6191TIP3    H218580   0.681   2.686   2.678
 6192TIP3   OH218581   1.538   1.647   0.938
 6192TIP3    H118582   1.529   1.680   0.849
 6192TIP3    H218583   1.619   1.597   0.937
 6193TIP3   OH218584   0.800   4.627   3.303
 6193TIP3    H118585   0.772   4.714   3.273
 6193TIP3    H218586   0.850   4.592   3.229
 6194TIP3   OH218587   0.791   4.866   3.167
 6194TIP3    H118588   0.866   4.925   3.163
 6194TIP3    H218589   0.770   4.848   3.076
 6195TIP3   OH218590   2.815   2.201   2.280
 6195TIP3    H118591   2.805   2.129   2.218
 6195TIP3    H218592   2.756   2.269   2.248
 6196TIP3   OH218593   4.535   3.114   3.862
 6196TIP3    H118594   4.618   3.114   3.815
 6196TIP3    H218595   4.532   3.199   3.906
 6197TIP3   OH218596   1.135   5.174   2.132
 6197TIP3    H118597   1.164   5.265   2.122
 6197TIP3    H218598   1.058   5.180   2.189
 6198TIP3   OH218599   5.560   0.573   0.228
 6198TIP3    H118600   5.529   0.496   0.276
 6198TIP3    H218601   5.505   0.575   0.149
 6199TIP3   OH218602   0.616   2.749   1.363
 6199TIP3    H118603   0.584   2.675   1.413
 6199TIP3    H218604   0.711   2.747   1.372
 6200TIP3   OH218605   4.463   2.110   4.612
 6200TIP3    H118606   4.519   2.057   4.669
 6200TIP3    H218607   4.500   2.198   4.617
 6201TIP3   OH218608   6.167   2.383   0.104
 6201TIP3    H118609   6.230   2.367   0.034
 6201TIP3    H218610   6.112   2.454   0.071
 6202TIP3   OH218611   3.029   1.470   3.399
 6202TIP3    H118612   3.063   1.490   3.312
 6202TIP3    H218613   3.026   1.375   3.402
 6203TIP3   OH218614   4.216   2.663   0.183
 6203TIP3    H118615   4.239   2.622   0.266
 6203TIP3    H218616   4.137   2.714   0.202
 6204TIP3   OH218617   4.687   4.657   2.323
 6204TIP3    H118618   4.717   4.573   2.359
 6204TIP3    H218619   4.617   4.634   2.262
 6205TIP3   OH218620   3.138   1.336   4.948
 6205TIP3    H118621   3.224   1.308   4.917
 6205TIP3    H218622   3.154   1.421   4.989
 6206TIP3   OH218623   1.763   5.194   2.176
 6206TIP3    H118624   1.676   5.159   2.195
 6206TIP3    H218625   1.747   5.276   2.129
 6207TIP3   OH218626   5.819   3.113   1.239
 6207TIP3    H118627   5.757   3.049   1.274
 6207TIP3    H218628   5.766   3.167   1.180
 6208TIP3   OH218629   5.788   1.141   5.177
 6208TIP3    H118630   5.701   1.181   5.166
 6208TIP3    H218631   5.770   1.053   5.210
 6209TIP3   OH218632   5.064   0.514   4.798
 6209TIP3    H118633   4.973   0.483   4.800
 6209TIP3    H218634   5.059   0.606   4.825
 6210TIP3   OH218635   2.549   4.486   1.209
 6210TIP3    H118636   2.611   4.422   1.243
 6210TIP3    H218637   2.577   4.500   1.118
 6211TIP3   OH218638   5.961   0.637   0.951
 6211TIP3    H118639   5.983   0.628   1.044
 6211TIP3    H218640   5.871   0.607   0.945
 6212TIP3   OH218641   6.176   5.877   3.995
 6212TIP3    H118642   6.185   5.972   3.984
 6212TIP3    H218643   6.244   5.840   3.938
 6213TIP3   OH218644   0.314   3.404   0.445
 6213TIP3    H118645   0.386   3.425   0.385
 6213TIP3    H218646   0.247   3.364   0.389
 6214TIP3   OH218647   1.947   4.358   3.932
 6214TIP3    H118648   2.028   4.408   3.919
 6214TIP3    H218649   1.881   4.408   3.884
 6215TIP3   OH218650   2.529   3.483   4.187
 6215TIP3    H118651   2.457   3.530   4.145
 6215TIP3    H218652   2.593   3.550   4.208
 6216TIP3   OH218653   5.301   0.526   4.236
 6216TIP3    H118654   5.216   0.556   4.267
 6216TIP3    H218655   5.328   0.592   4.172
 6217TIP3   OH218656   3.602   0.583   3.764
 6217TIP3    H118657   3.656   0.533   3.703
 6217TIP3    H218658   3.624   0.675   3.747
 6218TIP3   OH218659   3.276   1.610   1.092
 6218TIP3    H118660   3.321   1.526   1.100
 6218TIP3    H218661   3.273   1.627   0.997
 6219TIP3   OH218662   5.480   1.918   3.782
 6219TIP3    H118663   5.524   1.834   3.788
 6219TIP3    H218664   5.545   1.978   3.745
 6220TIP3   OH218665   5.936   1.616   3.377
 6220TIP3    H118666   5.890   1.533   3.393
 6220TIP3    H218667   6.027   1.589   3.361
 6221TIP3   OH218668   3.853   0.178   4.325
 6221TIP3    H118669   3.940   0.139   4.317
 6221TIP3    H218670   3.807   0.148   4.246
 6222TIP3   OH218671   1.921   0.238   1.168
 6222TIP3    H118672   1.889   0.274   1.251
 6222TIP3    H218673   1.905   0.308   1.104
 6223TIP3   OH218674   5.707   0.874   3.748
 6223TIP3    H118675   5.746   0.868   3.661
 6223TIP3    H218676   5.752   0.947   3.790
 6224TIP3   OH218677   0.085   2.078   4.410
 6224TIP3    H118678   0.170   2.090   4.451
 6224TIP3    H218679   0.090   1.993   4.367
 6225TIP3   OH218680   1.758   2.531   4.268
 6225TIP3    H118681   1.687   2.534   4.203
 6225TIP3    H218682   1.781   2.438   4.274
 6226TIP3   OH218683   3.361   2.979   5.030
 6226TIP3    H118684   3.266   2.974   5.019
 6226TIP3    H218685   3.375   2.977   5.125
 6227TIP3   OH218686   3.616   3.386   3.503
 6227TIP3    H118687   3.526   3.377   3.536
 6227TIP3    H218688   3.623   3.478   3.478
 6228TIP3   OH218689   3.084   5.039   1.077
 6228TIP3    H118690   3.035   4.993   1.146
 6228TIP3    H218691   3.023   5.046   1.004
 6229TIP3   OH218692   0.440   2.898   3.749
 6229TIP3    H118693   0.374   2.846   3.795
 6229TIP3    H218694   0.493   2.833   3.702
 6230TIP3   OH218695   1.923   1.291   4.315
 6230TIP3    H118696   1.947   1.380   4.341
 6230TIP3    H218697   1.927   1.241   4.396
 6231TIP3   OH218698   4.661   3.916   5.000
 6231TIP3    H118699   4.610   3.884   5.075
 6231TIP3    H218700   4.650   3.848   4.934
 6232TIP3   OH218701   1.230   1.004   2.944
 6232TIP3    H118702   1.278   0.976   3.021
 6232TIP3    H218703   1.297   1.019   2.877
 6233TIP3   OH218704   6.100   2.935   1.460
 6233TIP3    H118705   6.043   2.882   1.404
 6233TIP3    H218706   6.049   3.014   1.477
 6234TIP3   OH218707   5.764   0.804   2.390
 6234TIP3    H118708   5.741   0.794   2.298
 6234TIP3    H218709   5.776   0.898   2.402
 6235TIP3   OH218710   2.087   0.977   1.769
 6235TIP3    H118711   2.121   0.921   1.838
 6235TIP3    H218712   2.098   1.066   1.802
 6236TIP3   OH218713   5.987   4.031   5.038
 6236TIP3    H118714   5.926   4.021   5.111
 6236TIP3    H218715   5.942   4.089   4.976
 6237TIP3   OH218716   5.737   5.587   1.133
 6237TIP3    H118717   5.710   5.499   1.108
 6237TIP3    H218718   5.716   5.594   1.226
 6238TIP3   OH218719   3.793   5.261   2.088
 6238TIP3    H118720   3.716   5.272   2.144
 6238TIP3    H218721   3.805   5.166   2.083
 6239TIP3   OH218722   2.490   5.381   1.896
 6239TIP3    H118723   2.428   5.323   1.852
 6239TIP3    H218724   2.561   5.393   1.833
 6240TIP3   OH218725   3.653   1.569   4.961
 6240TIP3    H118726   3.730   1.612   4.998
 6240TIP3    H218727   3.579   1.602   5.011
 6241TIP3   OH218728   1.834   1.531   0.951
 6241TIP3    H118729   1.905   1.466   0.959
 6241TIP3    H218730   1.841   1.584   1.030
 6242TIP3   OH218731   1.451   4.911   0.732
 6242TIP3    H118732   1.405   4.894   0.814
 6242TIP3    H218733   1.426   4.838   0.675
 6243TIP3   OH218734   0.616   3.830   1.079
 6243TIP3    H118735   0.707   3.855   1.062
 6243TIP3    H218736   0.579   3.812   0.993
 6244TIP3   OH218737   6.126   3.424   4.426
 6244TIP3    H118738   6.054   3.484   4.448
 6244TIP3    H218739   6.144   3.441   4.334
 6245TIP3   OH218740   1.241   3.366   4.708
 6245TIP3    H118741   1.273   3.438   4.762
 6245TIP3    H218742   1.225   3.295   4.770
 6246TIP3   OH218743   0.425   5.225   4.656
 6246TIP3    H118744   0.517   5.247   4.642
 6246TIP3    H218745   0.377   5.280   4.594
 6247TIP3   OH218746   3.964   2.758   0.246
 6247TIP3    H118747   3.935   2.811   0.172
 6247TIP3    H218748   3.911   2.678   0.239
 6248TIP3   OH218749   5.115   0.708   3.595
 6248TIP3    H118750   5.040   0.680   3.542
 6248TIP3    H218751   5.078   0.773   3.656
 6249TIP3   OH218752   1.776   2.521   2.533
 6249TIP3    H118753   1.795   2.441   2.582
 6249TIP3    H218754   1.857   2.572   2.538
 6250TIP3   OH218755   5.070   3.624   0.362
 6250TIP3    H118756   5.121   3.550   0.329
 6250TIP3    H218757   5.071   3.687   0.291
 6251TIP3   OH218758   0.481   3.467   0.058
 6251TIP3    H118759   0.400   3.491   0.014
 6251TIP3    H218760   0.550   3.513   0.010
 6252TIP3   OH218761   2.318   2.978   0.584
 6252TIP3    H118762   2.364   2.975   0.668
 6252TIP3    H218763   2.350   2.901   0.537
 6253TIP3   OH218764   6.205   0.425   0.057
 6253TIP3    H118765   6.148   0.503   0.058
 6253TIP3    H218766   6.288   0.456   0.093
 6254TIP3   OH218767   2.723   4.286   1.298
 6254TIP3    H118768   2.726   4.223   1.370
 6254TIP3    H218769   2.710   4.232   1.220
 6255TIP3   OH218770   4.717   0.591   3.114
 6255TIP3    H118771   4.748   0.580   3.024
 6255TIP3    H218772   4.666   0.672   3.112
 6256TIP3   OH218773   1.626   5.508   1.671
 6256TIP3    H118774   1.717   5.484   1.654
 6256TIP3    H218775   1.605   5.573   1.604
 6257TIP3   OH218776   0.855   2.976   3.699
 6257TIP3    H118777   0.905   2.917   3.756
 6257TIP3    H218778   0.813   2.919   3.636
 6258TIP3   OH218779   5.433   2.551   2.448
 6258TIP3    H118780   5.441   2.604   2.528
 6258TIP3    H218781   5.398   2.612   2.383
 6259TIP3   OH218782   3.251   4.031   4.371
 6259TIP3    H118783   3.336   4.077   4.376
 6259TIP3    H218784   3.197   4.089   4.317
 6260TIP3   OH218785   3.960   0.946   4.185
 6260TIP3    H118786   3.898   0.985   4.124
 6260TIP3    H218787   3.910   0.930   4.265
 6261TIP3   OH218788   2.950   0.580   2.372
 6261TIP3    H118789   2.878   0.548   2.319
 6261TIP3    H218790   2.912   0.649   2.427
 6262TIP3   OH218791   1.201   1.538   4.850
 6262TIP3    H118792   1.260   1.591   4.796
 6262TIP3    H218793   1.235   1.547   4.939
 6263TIP3   OH218794   3.990   2.249   4.468
 6263TIP3    H118795   4.073   2.222   4.508
 6263TIP3    H218796   3.958   2.171   4.424
 6264TIP3   OH218797   0.835   5.446   1.224
 6264TIP3    H118798   0.806   5.534   1.199
 6264TIP3    H218799   0.902   5.461   1.291
 6265TIP3   OH218800   3.716   3.853   2.497
 6265TIP3    H118801   3.740   3.795   2.569
 6265TIP3    H218802   3.714   3.940   2.536
 6266TIP3   OH218803   4.608   3.896   4.153
 6266TIP3    H118804   4.581   3.911   4.062
 6266TIP3    H218805   4.694   3.937   4.159
 6267TIP3   OH218806   6.253   4.549   4.327
 6267TIP3    H118807   6.232   4.529   4.418
 6267TIP3    H218808   6.188   4.500   4.275
 6268TIP3   OH218809   1.767   3.112   0.378
 6268TIP3    H118810   1.741   3.185   0.434
 6268TIP3    H218811   1.774   3.151   0.291
 6269TIP3   OH218812   3.207   2.588   2.861
 6269TIP3    H118813   3.217   2.666   2.916
 6269TIP3    H218814   3.153   2.617   2.788
 6270TIP3   OH218815   6.077   0.889   4.847
 6270TIP3    H118816   6.159   0.841   4.840
 6270TIP3    H218817   6.046   0.871   4.936
 6271TIP3   OH218818   5.396   1.256   1.102
 6271TIP3    H118819   5.417   1.320   1.170
 6271TIP3    H218820   5.322   1.294   1.055
 6272TIP3   OH218821   5.049   2.298   3.304
 6272TIP3    H118822   5.119   2.232   3.309
 6272TIP3    H218823   5.026   2.302   3.211
 6273TIP3   OH218824   5.460   5.527   4.936
 6273TIP3    H118825   5.493   5.614   4.915
 6273TIP3    H218826   5.491   5.471   4.864
 6274TIP3   OH218827   3.799   2.428   3.173
 6274TIP3    H118828   3.879   2.388   3.209
 6274TIP3    H218829   3.776   2.496   3.236
 6275TIP3   OH218830   2.804   0.450   0.420
 6275TIP3    H118831   2.817   0.485   0.332
 6275TIP3    H218832   2.856   0.508   0.477
 6276TIP3   OH218833   5.259   3.268   0.396
 6276TIP3    H118834   5.253   3.356   0.358
 6276TIP3    H218835   5.290   3.213   0.325
 6277TIP3   OH218836   5.997   1.596   2.056
 6277TIP3    H118837   6.044   1.577   2.137
 6277TIP3    H218838   5.970   1.510   2.023
 6278TIP3   OH218839   3.445   3.360   1.571
 6278TIP3    H118840   3.402   3.298   1.513
 6278TIP3    H218841   3.490   3.421   1.512
 6279TIP3   OH218842   5.643   3.731   0.038
 6279TIP3    H118843   5.674   3.641   0.046
 6279TIP3    H218844   5.639   3.763   0.129
 6280TIP3   OH218845   4.559   3.090   3.489
 6280TIP3    H118846   4.581   3.174   3.530
 6280TIP3    H218847   4.643   3.050   3.469
 6281TIP3   OH218848   3.836   1.563   1.275
 6281TIP3    H118849   3.749   1.527   1.256
 6281TIP3    H218850   3.895   1.488   1.268
 6282TIP3   OH218851   2.078   0.673   3.871
 6282TIP3    H118852   2.077   0.588   3.828
 6282TIP3    H218853   2.016   0.726   3.821
 6283TIP3   OH218854   3.062   4.580   4.212
 6283TIP3    H118855   3.137   4.526   4.187
 6283TIP3    H218856   2.991   4.548   4.157
 6284TIP3   OH218857   0.379   1.475   3.384
 6284TIP3    H118858   0.429   1.456   3.463
 6284TIP3    H218859   0.288   1.458   3.409
 6285TIP3   OH218860   4.818   3.992   4.768
 6285TIP3    H118861   4.891   3.930   4.765
 6285TIP3    H218862   4.771   3.970   4.848
 6286TIP3   OH218863   6.003   0.054   2.405
 6286TIP3    H118864   5.981   0.070   2.497
 6286TIP3    H218865   5.933  -0.003   2.374
 6287TIP3   OH218866   6.140   0.505   4.698
 6287TIP3    H118867   6.196   0.549   4.633
 6287TIP3    H218868   6.053   0.543   4.683
 6288TIP3   OH218869   2.475   1.289   0.495
 6288TIP3    H118870   2.503   1.236   0.421
 6288TIP3    H218871   2.470   1.227   0.568
 6289TIP3   OH218872   5.744   3.091   3.525
 6289TIP3    H118873   5.746   3.126   3.436
 6289TIP3    H218874   5.821   3.129   3.568
 6290TIP3   OH218875   3.052   4.212   4.752
 6290TIP3    H118876   3.039   4.117   4.748
 6290TIP3    H218877   2.970   4.246   4.788
 6291TIP3   OH218878   4.701   4.324   0.622
 6291TIP3    H118879   4.697   4.345   0.715
 6291TIP3    H218880   4.753   4.395   0.584
 6292TIP3   OH218881   4.163   2.496   4.538
 6292TIP3    H118882   4.150   2.523   4.629
 6292TIP3    H218883   4.090   2.437   4.519
 6293TIP3   OH218884   3.817   5.831   2.913
 6293TIP3    H118885   3.855   5.786   2.838
 6293TIP3    H218886   3.723   5.834   2.894
 6294TIP3   OH218887   3.534   5.447   3.366
 6294TIP3    H118888   3.575   5.461   3.281
 6294TIP3    H218889   3.577   5.369   3.402
 6295TIP3   OH218890   5.926   3.963   0.161
 6295TIP3    H118891   5.856   4.028   0.168
 6295TIP3    H218892   6.006   4.010   0.185
 6296TIP3   OH218893   4.055   5.091   4.647
 6296TIP3    H118894   4.047   5.012   4.700
 6296TIP3    H218895   4.076   5.160   4.710
 6297TIP3   OH218896   0.520   2.940   0.149
 6297TIP3    H118897   0.602   2.984   0.129
 6297TIP3    H218898   0.468   3.005   0.196
 6298TIP3   OH218899   4.938   3.719   4.732
 6298TIP3    H118900   4.960   3.633   4.768
 6298TIP3    H218901   5.022   3.763   4.724
 6299TIP3   OH218902   3.083   3.596   3.323
 6299TIP3    H118903   3.047   3.631   3.242
 6299TIP3    H218904   3.099   3.673   3.378
 6300TIP3   OH218905   3.347   4.018   4.020
 6300TIP3    H118906   3.415   4.078   4.049
 6300TIP3    H218907   3.367   3.935   4.064
 6301TIP3   OH218908   5.546  -0.015   2.094
 6301TIP3    H118909   5.630  -0.044   2.057
 6301TIP3    H218910   5.547   0.080   2.082
 6302TIP3   OH218911   3.025   2.839   4.114
 6302TIP3    H118912   3.066   2.790   4.043
 6302TIP3    H218913   3.044   2.931   4.094
 6303TIP3   OH218914   1.592   4.150   4.202
 6303TIP3    H118915   1.588   4.243   4.226
 6303TIP3    H218916   1.579   4.104   4.285
 6304TIP3   OH218917   1.390   5.585   0.495
 6304TIP3    H118918   1.400   5.642   0.571
 6304TIP3    H218919   1.471   5.535   0.491
 6305TIP3   OH218920   1.307   5.781   3.691
 6305TIP3    H118921   1.354   5.775   3.774
 6305TIP3    H218922   1.309   5.692   3.656
 6306TIP3   OH218923   2.653   2.425   5.078
 6306TIP3    H118924   2.567   2.463   5.099
 6306TIP3    H218925   2.698   2.419   5.162
 6307TIP3   OH218926   5.650   0.559   0.629
 6307TIP3    H118927   5.618   0.623   0.565
 6307TIP3    H218928   5.745   0.561   0.618
 6308TIP3   OH218929   4.138   1.612   3.833
 6308TIP3    H118930   4.105   1.631   3.745
 6308TIP3    H218931   4.078   1.547   3.868
 6309TIP3   OH218932   5.065   0.686   4.209
 6309TIP3    H118933   5.083   0.780   4.207
 6309TIP3    H218934   4.970   0.679   4.199
 6310TIP3   OH218935   5.776   1.081   2.445
 6310TIP3    H118936   5.807   1.151   2.387
 6310TIP3    H218937   5.769   1.123   2.531
 6311TIP3   OH218938   5.153   1.938   1.316
 6311TIP3    H118939   5.091   1.864   1.321
 6311TIP3    H218940   5.166   1.952   1.222
 6312TIP3   OH218941   4.414   1.805   4.153
 6312TIP3    H118942   4.412   1.847   4.239
 6312TIP3    H218943   4.470   1.862   4.100
 6313TIP3   OH218944   3.765   1.856   2.232
 6313TIP3    H118945   3.683   1.810   2.251
 6313TIP3    H218946   3.784   1.834   2.141
 6314TIP3   OH218947   0.913   3.661   3.364
 6314TIP3    H118948   1.002   3.629   3.378
 6314TIP3    H218949   0.920   3.756   3.371
 6315TIP3   OH218950   2.187   5.802   0.255
 6315TIP3    H118951   2.196   5.863   0.182
 6315TIP3    H218952   2.231   5.844   0.328
 6316TIP3   OH218953   0.974   4.580   3.079
 6316TIP3    H118954   0.989   4.580   2.984
 6316TIP3    H218955   0.991   4.670   3.106
 6317TIP3   OH218956   3.225   1.079   3.675
 6317TIP3    H118957   3.201   1.170   3.653
 6317TIP3    H218958   3.312   1.068   3.639
 6318TIP3   OH218959   5.114   3.785   3.451
 6318TIP3    H118960   5.194   3.780   3.505
 6318TIP3    H218961   5.056   3.844   3.500
 6319TIP3   OH218962   1.819   1.953   0.188
 6319TIP3    H118963   1.896   2.010   0.191
 6319TIP3    H218964   1.855   1.864   0.185
 6320TIP3   OH218965   1.633   5.665   3.401
 6320TIP3    H118966   1.687   5.636   3.474
 6320TIP3    H218967   1.696   5.700   3.338
 6321TIP3   OH218968   5.689   4.774   1.777
 6321TIP3    H118969   5.649   4.761   1.692
 6321TIP3    H218970   5.680   4.689   1.821
 6322TIP3   OH218971   5.553   1.040   1.001
 6322TIP3    H118972   5.491   1.103   1.036
 6322TIP3    H218973   5.603   1.011   1.078
 6323TIP3   OH218974   1.108   1.704   4.212
 6323TIP3    H118975   1.087   1.735   4.301
 6323TIP3    H218976   1.088   1.779   4.156
 6324TIP3   OH218977   0.647   3.530   0.909
 6324TIP3    H118978   0.647   3.436   0.889
 6324TIP3    H218979   0.637   3.534   1.004
 6325TIP3   OH218980   4.252   0.335   2.822
 6325TIP3    H118981   4.342   0.309   2.841
 6325TIP3    H218982   4.212   0.347   2.908
 6326TIP3   OH218983   1.168   5.187   1.315
 6326TIP3    H118984   1.122   5.220   1.392
 6326TIP3    H218985   1.115   5.217   1.241
 6327TIP3   OH218986   2.350   3.892   1.258
 6327TIP3    H118987   2.342   3.987   1.266
 6327TIP3    H218988   2.444   3.875   1.263
 6328TIP3   OH218989   5.813   1.167   4.866
 6328TIP3    H118990   5.807   1.165   4.961
 6328TIP3    H218991   5.773   1.250   4.840
 6329TIP3   OH218992   0.428   2.815   4.055
 6329TIP3    H118993   0.512   2.768   4.061
 6329TIP3    H218994   0.393   2.789   3.970
 6330TIP3   OH218995   2.040   3.700   2.273
 6330TIP3    H118996   2.043   3.747   2.357
 6330TIP3    H218997   1.947   3.695   2.252
 6331TIP3   OH218998   1.281   5.199   0.119
 6331TIP3    H118999   1.234   5.201   0.202
 6331TIP3    H219000   1.355   5.258   0.131
 6332TIP3   OH219001   4.183   2.239   0.732
 6332TIP3    H119002   4.091   2.254   0.712
 6332TIP3    H219003   4.183   2.199   0.818
 6333TIP3   OH219004   5.063   2.767   2.341
 6333TIP3    H119005   4.999   2.834   2.319
 6333TIP3    H219006   5.038   2.691   2.289
 6334TIP3   OH219007   1.747   6.019   3.052
 6334TIP3    H119008   1.680   5.952   3.037
 6334TIP3    H219009   1.727   6.052   3.139
 6335TIP3   OH219010   5.254   0.197   2.634
 6335TIP3    H119011   5.194   0.207   2.560
 6335TIP3    H219012   5.314   0.128   2.607
 6336TIP3   OH219013   0.155   2.346   4.301
 6336TIP3    H119014   0.174   2.417   4.363
 6336TIP3    H219015   0.211   2.274   4.331
 6337TIP3   OH219016   1.497   2.921   1.993
 6337TIP3    H119017   1.583   2.913   2.034
 6337TIP3    H219018   1.450   2.841   2.017
 6338TIP3   OH219019   0.291   5.014   3.818
 6338TIP3    H119020   0.271   5.101   3.853
 6338TIP3    H219021   0.263   5.017   3.727
 6339TIP3   OH219022   1.996   1.602   4.121
 6339TIP3    H119023   1.932   1.589   4.191
 6339TIP3    H219024   1.942   1.617   4.043
 6340TIP3   OH219025   4.995   2.648   1.262
 6340TIP3    H119026   5.068   2.635   1.201
 6340TIP3    H219027   4.917   2.633   1.209
 6341TIP3   OH219028   5.367   2.482   2.059
 6341TIP3    H119029   5.436   2.451   2.001
 6341TIP3    H219030   5.393   2.571   2.082
 6342TIP3   OH219031   0.498   5.442   3.414
 6342TIP3    H119032   0.480   5.419   3.505
 6342TIP3    H219033   0.412   5.462   3.377
 6343TIP3   OH219034   5.349   3.899   1.962
 6343TIP3    H119035   5.408   3.953   1.910
 6343TIP3    H219036   5.398   3.819   1.981
 6344TIP3   OH219037   0.672   0.524   2.940
 6344TIP3    H119038   0.641   0.614   2.930
 6344TIP3    H219039   0.596   0.470   2.918
 6345TIP3   OH219040   2.179   3.786   3.088
 6345TIP3    H119041   2.150   3.869   3.126
 6345TIP3    H219042   2.192   3.805   2.995
 6346TIP3   OH219043   2.757   0.792   2.756
 6346TIP3    H119044   2.838   0.769   2.800
 6346TIP3    H219045   2.702   0.828   2.826
 6347TIP3   OH219046   1.590   3.940   4.406
 6347TIP3    H119047   1.496   3.932   4.421
 6347TIP3    H219048   1.630   3.884   4.472
 6348TIP3   OH219049   5.473   3.265   3.620
 6348TIP3    H119050   5.498   3.203   3.551
 6348TIP3    H219051   5.526   3.239   3.695
 6349TIP3   OH219052   2.758   0.850   0.056
 6349TIP3    H119053   2.830   0.912   0.058
 6349TIP3    H219054   2.684   0.900   0.022
 6350TIP3   OH219055   0.388   0.429   5.103
 6350TIP3    H119056   0.297   0.459   5.104
 6350TIP3    H219057   0.387   0.344   5.148
 6351TIP3   OH219058   0.905   0.639   3.666
 6351TIP3    H119059   0.921   0.558   3.715
 6351TIP3    H219060   0.924   0.708   3.729
 6352TIP3   OH219061   2.700   0.889   3.741
 6352TIP3    H119062   2.641   0.895   3.817
 6352TIP3    H219063   2.727   0.979   3.726
 6353TIP3   OH219064   0.426   4.242   0.766
 6353TIP3    H119065   0.468   4.158   0.748
 6353TIP3    H219066   0.352   4.246   0.706
 6354TIP3   OH219067   4.540   0.747   1.578
 6354TIP3    H119068   4.541   0.803   1.655
 6354TIP3    H219069   4.509   0.803   1.507
 6355TIP3   OH219070   4.340   3.460   5.060
 6355TIP3    H119071   4.350   3.416   4.976
 6355TIP3    H219072   4.275   3.407   5.106
 6356TIP3   OH219073   1.745   2.416  -0.037
 6356TIP3    H119074   1.768   2.386   0.051
 6356TIP3    H219075   1.826   2.456  -0.069
 6357TIP3   OH219076   0.901   2.741   1.857
 6357TIP3    H119077   0.977   2.770   1.907
 6357TIP3    H219078   0.885   2.651   1.884
 6358TIP3   OH219079   4.649   3.427   0.728
 6358TIP3    H119080   4.570   3.409   0.779
 6358TIP3    H219081   4.638   3.517   0.697
 6359TIP3   OH219082   1.962   0.135   3.850
 6359TIP3    H119083   1.873   0.163   3.873
 6359TIP3    H219084   2.019   0.201   3.890
 6360TIP3   OH219085   2.456   4.664   4.998
 6360TIP3    H119086   2.445   4.736   4.936
 6360TIP3    H219087   2.367   4.634   5.017
 6361TIP3   OH219088   3.191   5.006   0.758
 6361TIP3    H119089   3.115   5.062   0.772
 6361TIP3    H219090   3.241   5.013   0.839
 6362TIP3   OH219091   4.771   3.926   0.844
 6362TIP3    H119092   4.783   3.834   0.867
 6362TIP3    H219093   4.758   3.970   0.928
 6363TIP3   OH219094   0.905   4.263   4.854
 6363TIP3    H119095   0.949   4.336   4.811
 6363TIP3    H219096   0.812   4.279   4.840
 6364TIP3   OH219097   2.649   0.228   0.338
 6364TIP3    H119098   2.681   0.291   0.403
 6364TIP3    H219099   2.652   0.144   0.383
 6365TIP3   OH219100   0.048   0.917   3.485
 6365TIP3    H119101   0.092   0.970   3.551
 6365TIP3    H219102   0.106   0.919   3.409
 6366TIP3   OH219103   4.634   5.217   2.837
 6366TIP3    H119104   4.688   5.141   2.856
 6366TIP3    H219105   4.694   5.291   2.837
 6367TIP3   OH219106   1.858   4.749   2.388
 6367TIP3    H119107   1.783   4.690   2.384
 6367TIP3    H219108   1.934   4.691   2.387
 6368TIP3   OH219109   5.511   1.993   3.251
 6368TIP3    H119110   5.600   1.970   3.226
 6368TIP3    H219111   5.499   1.953   3.337
 6369TIP3   OH219112   0.926   3.992   2.195
 6369TIP3    H119113   0.887   3.934   2.260
 6369TIP3    H219114   0.985   3.936   2.144
 6370TIP3   OH219115   0.105   0.623   1.684
 6370TIP3    H119116   0.111   0.710   1.722
 6370TIP3    H219117   0.035   0.629   1.619
 6371TIP3   OH219118   4.688   2.291   4.908
 6371TIP3    H119119   4.675   2.308   5.001
 6371TIP3    H219120   4.711   2.377   4.872
 6372TIP3   OH219121   1.373   4.754   4.350
 6372TIP3    H119122   1.382   4.674   4.401
 6372TIP3    H219123   1.279   4.760   4.330
 6373TIP3   OH219124   3.757   4.465   4.753
 6373TIP3    H119125   3.741   4.550   4.793
 6373TIP3    H219126   3.676   4.443   4.708
 6374TIP3   OH219127   3.104   4.815   4.363
 6374TIP3    H119128   3.073   4.743   4.308
 6374TIP3    H219129   3.166   4.773   4.423
 6375TIP3   OH219130   3.999   5.593   1.075
 6375TIP3    H119131   3.909   5.626   1.067
 6375TIP3    H219132   4.002   5.551   1.161
 6376TIP3   OH219133   3.458   3.333   0.732
 6376TIP3    H119134   3.477   3.344   0.639
 6376TIP3    H219135   3.521   3.268   0.762
 6377TIP3   OH219136   4.453   2.519   1.004
 6377TIP3    H119137   4.393   2.559   0.942
 6377TIP3    H219138   4.404   2.517   1.087
 6378TIP3   OH219139   5.012   4.870   0.917
 6378TIP3    H119140   5.095   4.917   0.913
 6378TIP3    H219141   4.953   4.932   0.960
 6379TIP3   OH219142   2.348   2.314   1.516
 6379TIP3    H119143   2.277   2.294   1.455
 6379TIP3    H219144   2.428   2.310   1.462
 6380TIP3   OH219145   2.836   3.318   4.317
 6380TIP3    H119146   2.787   3.312   4.235
 6380TIP3    H219147   2.769   3.316   4.385
 6381TIP3   OH219148   2.029   5.668   3.050
 6381TIP3    H119149   1.986   5.587   3.078
 6381TIP3    H219150   2.117   5.641   3.024
 6382TIP3   OH219151   2.326   4.890   3.330
 6382TIP3    H119152   2.310   4.884   3.424
 6382TIP3    H219153   2.247   4.853   3.290
 6383TIP3   OH219154   1.332   1.748   2.071
 6383TIP3    H119155   1.348   1.763   2.165
 6383TIP3    H219156   1.406   1.790   2.027
 6384TIP3   OH219157   6.116   2.922   3.524
 6384TIP3    H119158   6.189   2.884   3.572
 6384TIP3    H219159   6.158   2.982   3.462
 6385TIP3   OH219160   1.080   3.854   4.626
 6385TIP3    H119161   1.027   3.793   4.677
 6385TIP3    H219162   1.096   3.807   4.543
 6386TIP3   OH219163   2.622   3.909   1.208
 6386TIP3    H119164   2.693   3.970   1.187
 6386TIP3    H219165   2.599   3.869   1.125
 6387TIP3   OH219166   4.249   2.569   0.804
 6387TIP3    H119167   4.156   2.559   0.825
 6387TIP3    H219168   4.253   2.561   0.708
 6388TIP3   OH219169   4.046   0.608   1.512
 6388TIP3    H119170   4.081   0.549   1.579
 6388TIP3    H219171   4.057   0.560   1.430
 6389TIP3   OH219172   1.026   2.814   3.851
 6389TIP3    H119173   1.052   2.724   3.832
 6389TIP3    H219174   1.102   2.866   3.826
 6390TIP3   OH219175   5.210   1.043   3.615
 6390TIP3    H119176   5.273   1.053   3.686
 6390TIP3    H219177   5.258   0.998   3.546
 6391TIP3   OH219178   5.935   2.912   1.995
 6391TIP3    H119179   5.967   2.986   1.943
 6391TIP3    H219180   6.008   2.849   1.993
 6392TIP3   OH219181   4.346   3.358   4.808
 6392TIP3    H119182   4.441   3.345   4.801
 6392TIP3    H219183   4.308   3.276   4.776
 6393TIP3   OH219184   2.802   2.597   1.037
 6393TIP3    H119185   2.733   2.630   1.096
 6393TIP3    H219186   2.756   2.537   0.978
 6394TIP3   OH219187   0.589   0.781   1.174
 6394TIP3    H119188   0.678   0.813   1.157
 6394TIP3    H219189   0.553   0.763   1.088
 6395TIP3   OH219190   0.714   4.878   0.293
 6395TIP3    H119191   0.754   4.858   0.378
 6395TIP3    H219192   0.717   4.974   0.288
 6396TIP3   OH219193   4.761   4.188   4.544
 6396TIP3    H119194   4.751   4.114   4.603
 6396TIP3    H219195   4.694   4.250   4.571
 6397TIP3   OH219196   2.246   0.379   3.085
 6397TIP3    H119197   2.208   0.463   3.109
 6397TIP3    H219198   2.315   0.400   3.022
 6398TIP3   OH219199   5.892   2.448   2.833
 6398TIP3    H119200   5.832   2.427   2.905
 6398TIP3    H219201   5.978   2.453   2.875
 6399TIP3   OH219202   2.791   5.465   3.870
 6399TIP3    H119203   2.830   5.402   3.931
 6399TIP3    H219204   2.786   5.418   3.787
 6400TIP3   OH219205   5.372   3.228   1.258
 6400TIP3    H119206   5.311   3.198   1.191
 6400TIP3    H219207   5.329   3.206   1.341
 6401TIP3   OH219208   0.951   4.949   0.481
 6401TIP3    H119209   1.017   5.010   0.449
 6401TIP3    H219210   0.921   4.987   0.564
 6402TIP3   OH219211   4.698   0.034   2.317
 6402TIP3    H119212   4.649   0.111   2.288
 6402TIP3    H219213   4.647   0.000   2.391
 6403TIP3   OH219214   1.223   2.468   1.969
 6403TIP3    H119215   1.236   2.532   1.899
 6403TIP3    H219216   1.150   2.414   1.939
 6404TIP3   OH219217   1.346   4.196   0.807
 6404TIP3    H119218   1.353   4.102   0.790
 6404TIP3    H219219   1.300   4.202   0.890
 6405TIP3   OH219220   5.208   1.503   2.619
 6405TIP3    H119221   5.125   1.491   2.572
 6405TIP3    H219222   5.272   1.520   2.550
 6406TIP3   OH219223   5.462   1.151   4.820
 6406TIP3    H119224   5.422   1.064   4.814
 6406TIP3    H219225   5.503   1.164   4.735
 6407TIP3   OH219226   0.689   4.844   1.182
 6407TIP3    H119227   0.750   4.902   1.228
 6407TIP3    H219228   0.634   4.902   1.131
 6408TIP3   OH219229   3.522   4.451   4.635
 6408TIP3    H119230   3.463   4.387   4.675
 6408TIP3    H219231   3.463   4.509   4.585
 6409TIP3   OH219232   5.732   3.329   1.612
 6409TIP3    H119233   5.689   3.260   1.663
 6409TIP3    H219234   5.713   3.409   1.661
 6410TIP3   OH219235   3.826   5.255   2.447
 6410TIP3    H119236   3.741   5.258   2.402
 6410TIP3    H219237   3.887   5.222   2.381
 6411TIP3   OH219238   1.332   2.239   2.639
 6411TIP3    H119239   1.307   2.281   2.722
 6411TIP3    H219240   1.290   2.153   2.641
 6412TIP3   OH219241   3.199   4.069   3.068
 6412TIP3    H119242   3.159   4.039   2.986
 6412TIP3    H219243   3.215   3.989   3.117
 6413TIP3   OH219244   5.060   4.200   2.199
 6413TIP3    H119245   5.150   4.167   2.193
 6413TIP3    H219246   5.063   4.285   2.156
 6414TIP3   OH219247   3.036   3.936   4.733
 6414TIP3    H119248   2.980   3.920   4.657
 6414TIP3    H219249   3.124   3.912   4.703
 6415TIP3   OH219250   4.829   5.148   4.294
 6415TIP3    H119251   4.779   5.210   4.240
 6415TIP3    H219252   4.789   5.154   4.380
 6416TIP3   OH219253   2.875   2.140   1.093
 6416TIP3    H119254   2.958   2.185   1.074
 6416TIP3    H219255   2.832   2.195   1.158
 6417TIP3   OH219256   6.200   1.043   1.917
 6417TIP3    H119257   6.131   1.015   1.857
 6417TIP3    H219258   6.272   0.981   1.901
 6418TIP3   OH219259   5.229   5.573   0.643
 6418TIP3    H119260   5.182   5.630   0.703
 6418TIP3    H219261   5.211   5.484   0.675
 6419TIP3   OH219262   3.503   4.086   1.279
 6419TIP3    H119263   3.490   4.159   1.340
 6419TIP3    H219264   3.584   4.045   1.309
 6420TIP3   OH219265   6.169   5.142   1.230
 6420TIP3    H119266   6.166   5.203   1.156
 6420TIP3    H219267   6.237   5.176   1.287
 6421TIP3   OH219268   1.805   3.583   2.546
 6421TIP3    H119269   1.836   3.634   2.471
 6421TIP3    H219270   1.722   3.545   2.518
 6422TIP3   OH219271   0.214   0.778   0.030
 6422TIP3    H119272   0.287   0.841   0.034
 6422TIP3    H219273   0.217   0.744  -0.059
 6423TIP3   OH219274   1.478   5.457   1.920
 6423TIP3    H119275   1.558   5.463   1.868
 6423TIP3    H219276   1.432   5.539   1.901
 6424TIP3   OH219277   5.922   2.081   5.120
 6424TIP3    H119278   5.863   2.014   5.084
 6424TIP3    H219279   5.887   2.164   5.089
 6425TIP3   OH219280   2.755   4.559   0.164
 6425TIP3    H119281   2.716   4.545   0.251
 6425TIP3    H219282   2.803   4.642   0.173
 6426TIP3   OH219283   5.017   1.384   2.380
 6426TIP3    H119284   5.070   1.306   2.399
 6426TIP3    H219285   4.972   1.403   2.462
 6427TIP3   OH219286   3.774   5.989   3.858
 6427TIP3    H119287   3.858   5.942   3.865
 6427TIP3    H219288   3.715   5.940   3.915
 6428TIP3   OH219289   5.146   2.157   2.832
 6428TIP3    H119290   5.203   2.231   2.811
 6428TIP3    H219291   5.067   2.197   2.870
 6429TIP3   OH219292   6.217   2.628   0.340
 6429TIP3    H119293   6.130   2.658   0.365
 6429TIP3    H219294   6.256   2.703   0.295
 6430TIP3   OH219295   2.174   4.030   0.345
 6430TIP3    H119296   2.148   4.104   0.400
 6430TIP3    H219297   2.115   3.959   0.372
 6431TIP3   OH219298   2.507   4.673   0.651
 6431TIP3    H119299   2.438   4.663   0.585
 6431TIP3    H219300   2.473   4.629   0.729
 6432TIP3   OH219301   1.406   2.975   3.552
 6432TIP3    H119302   1.338   2.908   3.551
 6432TIP3    H219303   1.384   3.031   3.626
 6433TIP3   OH219304   3.983   4.785   3.708
 6433TIP3    H119305   4.067   4.802   3.667
 6433TIP3    H219306   3.949   4.872   3.730
 6434TIP3   OH219307   3.793   4.784   0.953
 6434TIP3    H119308   3.857   4.844   0.915
 6434TIP3    H219309   3.708   4.823   0.929
 6435TIP3   OH219310   3.355   1.966   1.032
 6435TIP3    H119311   3.400   2.046   1.007
 6435TIP3    H219312   3.405   1.896   0.990
 6436TIP3   OH219313   4.254   0.167   0.248
 6436TIP3    H119314   4.337   0.131   0.218
 6436TIP3    H219315   4.203   0.091   0.277
 6437TIP3   OH219316   2.606   3.888   4.852
 6437TIP3    H119317   2.682   3.918   4.802
 6437TIP3    H219318   2.581   3.964   4.904
 6438TIP3   OH219319   1.144   2.326   4.758
 6438TIP3    H119320   1.106   2.285   4.680
 6438TIP3    H219321   1.170   2.413   4.728
 6439TIP3   OH219322   6.290   3.959   3.830
 6439TIP3    H119323   6.215   3.914   3.791
 6439TIP3    H219324   6.366   3.920   3.787
 6440TIP3   OH219325   0.412   1.321   1.335
 6440TIP3    H119326   0.393   1.228   1.322
 6440TIP3    H219327   0.460   1.346   1.256
 6441TIP3   OH219328   1.666   4.615   3.230
 6441TIP3    H119329   1.734   4.650   3.172
 6441TIP3    H219330   1.713   4.555   3.287
 6442TIP3   OH219331   5.939   2.747   1.328
 6442TIP3    H119332   5.873   2.814   1.311
 6442TIP3    H219333   5.893   2.683   1.384
 6443TIP3   OH219334   3.795   1.660   3.665
 6443TIP3    H119335   3.792   1.733   3.603
 6443TIP3    H219336   3.835   1.696   3.744
 6444TIP3   OH219337   2.058   3.502   0.190
 6444TIP3    H119338   2.016   3.569   0.137
 6444TIP3    H219339   1.992   3.478   0.255
 6445TIP3   OH219340   4.989   4.733   3.108
 6445TIP3    H119341   5.027   4.804   3.056
 6445TIP3    H219342   4.946   4.677   3.044
 6446TIP3   OH219343   6.146   1.057   3.591
 6446TIP3    H119344   6.154   1.054   3.686
 6446TIP3    H219345   6.236   1.049   3.559
 6447TIP3   OH219346   1.003   1.252   2.634
 6447TIP3    H119347   0.955   1.169   2.644
 6447TIP3    H219348   1.064   1.253   2.708
 6448TIP3   OH219349   1.109   2.394   0.438
 6448TIP3    H119350   1.122   2.313   0.388
 6448TIP3    H219351   1.061   2.451   0.378
 6449TIP3   OH219352   4.055   0.925   2.005
 6449TIP3    H119353   4.116   0.870   1.956
 6449TIP3    H219354   4.042   0.878   2.088
 6450TIP3   OH219355   4.521   2.945   4.085
 6450TIP3    H119356   4.609   2.957   4.121
 6450TIP3    H219357   4.524   2.986   3.999
 6451TIP3   OH219358   6.224   5.544   4.224
 6451TIP3    H119359   6.300   5.593   4.256
 6451TIP3    H219360   6.232   5.458   4.266
 6452TIP3   OH219361   0.890   1.491   3.838
 6452TIP3    H119362   0.881   1.401   3.869
 6452TIP3    H219363   0.888   1.484   3.743
 6453TIP3   OH219364   5.397   4.775   3.938
 6453TIP3    H119365   5.320   4.719   3.943
 6453TIP3    H219366   5.365   4.855   3.896
 6454TIP3   OH219367   1.089   2.898   2.635
 6454TIP3    H119368   1.151   2.850   2.690
 6454TIP3    H219369   1.030   2.830   2.602
 6455TIP3   OH219370   5.168   1.139   4.728
 6455TIP3    H119371   5.221   1.061   4.713
 6455TIP3    H219372   5.222   1.212   4.700
 6456TIP3   OH219373   4.656   5.425   4.891
 6456TIP3    H119374   4.725   5.386   4.836
 6456TIP3    H219375   4.696   5.503   4.928
 6457TIP3   OH219376   0.117   4.390   3.095
 6457TIP3    H119377   0.204   4.397   3.133
 6457TIP3    H219378   0.064   4.452   3.146
 6458TIP3   OH219379   1.876   3.254   4.245
 6458TIP3    H119380   1.816   3.226   4.314
 6458TIP3    H219381   1.917   3.333   4.280
 6459TIP3   OH219382   5.428   1.849   0.954
 6459TIP3    H119383   5.352   1.862   0.898
 6459TIP3    H219384   5.502   1.848   0.894
 6460TIP3   OH219385   6.092   3.794   4.274
 6460TIP3    H119386   6.100   3.884   4.243
 6460TIP3    H219387   6.158   3.745   4.224
 6461TIP3   OH219388   0.327   5.579   4.943
 6461TIP3    H119389   0.305   5.671   4.931
 6461TIP3    H219390   0.423   5.577   4.945
 6462TIP3   OH219391   4.152   5.031   2.624
 6462TIP3    H119392   4.085   4.968   2.599
 6462TIP3    H219393   4.120   5.069   2.705
 6463TIP3   OH219394   1.715   4.591   0.729
 6463TIP3    H119395   1.694   4.540   0.807
 6463TIP3    H219396   1.644   4.571   0.668
 6464TIP3   OH219397   2.729   2.028   3.866
 6464TIP3    H119398   2.657   2.037   3.804
 6464TIP3    H219399   2.797   2.087   3.833
 6465TIP3   OH219400   3.163   0.821   2.512
 6465TIP3    H119401   3.181   0.879   2.438
 6465TIP3    H219402   3.068   0.820   2.519
 6466TIP3   OH219403   5.802   2.869   1.048
 6466TIP3    H119404   5.801   2.959   1.017
 6466TIP3    H219405   5.776   2.875   1.140
 6467TIP3   OH219406   1.333   3.298   1.054
 6467TIP3    H119407   1.423   3.305   1.024
 6467TIP3    H219408   1.336   3.315   1.148
 6468TIP3   OH219409   2.109   1.740   4.569
 6468TIP3    H119410   2.137   1.662   4.617
 6468TIP3    H219411   2.045   1.783   4.627
 6469TIP3   OH219412   3.276   5.029   0.332
 6469TIP3    H119413   3.226   5.014   0.251
 6469TIP3    H219414   3.359   4.985   0.317
 6470TIP3   OH219415   3.237   3.671   0.351
 6470TIP3    H119416   3.213   3.763   0.344
 6470TIP3    H219417   3.332   3.670   0.337
 6471TIP3   OH219418   2.683   0.564   0.811
 6471TIP3    H119419   2.684   0.469   0.817
 6471TIP3    H219420   2.592   0.588   0.826
 6472TIP3   OH219421   5.885   4.208   0.615
 6472TIP3    H119422   5.946   4.140   0.584
 6472TIP3    H219423   5.830   4.227   0.539
 6473TIP3   OH219424   0.540   3.568   1.473
 6473TIP3    H119425   0.572   3.656   1.452
 6473TIP3    H219426   0.562   3.556   1.565
 6474TIP3   OH219427   1.352   2.297   1.654
 6474TIP3    H119428   1.412   2.359   1.613
 6474TIP3    H219429   1.299   2.263   1.582
 6475TIP3   OH219430   4.099   4.303   0.209
 6475TIP3    H119431   4.181   4.256   0.225
 6475TIP3    H219432   4.114   4.350   0.127
 6476TIP3   OH219433   3.803   0.831   2.338
 6476TIP3    H119434   3.727   0.823   2.281
 6476TIP3    H219435   3.803   0.751   2.390
 6477TIP3   OH219436   6.279   3.190   4.416
 6477TIP3    H119437   6.235   3.274   4.402
 6477TIP3    H219438   6.319   3.170   4.332
 6478TIP3   OH219439   1.501   2.784   3.778
 6478TIP3    H119440   1.558   2.767   3.703
 6478TIP3    H219441   1.552   2.841   3.835
 6479TIP3   OH219442   3.219   0.656   1.912
 6479TIP3    H119443   3.244   0.701   1.993
 6479TIP3    H219444   3.132   0.622   1.929
 6480TIP3   OH219445   1.914   1.119   3.817
 6480TIP3    H119446   1.970   1.137   3.893
 6480TIP3    H219447   1.889   1.027   3.827
 6481TIP3   OH219448   0.483   0.729   1.424
 6481TIP3    H119449   0.517   0.735   1.335
 6481TIP3    H219450   0.500   0.815   1.463
 6482TIP3   OH219451   1.648   2.266   1.084
 6482TIP3    H119452   1.602   2.194   1.041
 6482TIP3    H219453   1.584   2.337   1.086
 6483TIP3   OH219454   6.186   4.939   3.755
 6483TIP3    H119455   6.110   4.944   3.813
 6483TIP3    H219456   6.164   4.870   3.693
 6484TIP3   OH219457   2.360   1.705   0.013
 6484TIP3    H119458   2.378   1.622   0.056
 6484TIP3    H219459   2.325   1.761   0.082
 6485TIP3   OH219460   3.279   3.775   2.754
 6485TIP3    H119461   3.337   3.834   2.706
 6485TIP3    H219462   3.191   3.805   2.734
 6486TIP3   OH219463   2.996   0.281   3.688
 6486TIP3    H119464   2.907   0.315   3.695
 6486TIP3    H219465   2.998   0.232   3.606
 6487TIP3   OH219466   5.743   4.292   5.098
 6487TIP3    H119467   5.804   4.263   5.030
 6487TIP3    H219468   5.720   4.213   5.146
 6488TIP3   OH219469   4.759   5.521   2.482
 6488TIP3    H119470   4.840   5.557   2.447
 6488TIP3    H219471   4.698   5.595   2.482
 6489TIP3   OH219472   4.896   2.169   4.088
 6489TIP3    H119473   4.983   2.209   4.077
 6489TIP3    H219474   4.839   2.217   4.028
 6490TIP3   OH219475   2.335   2.605   4.063
 6490TIP3    H119476   2.378   2.595   3.978
 6490TIP3    H219477   2.393   2.662   4.113
 6491TIP3   OH219478   1.117   5.957   1.776
 6491TIP3    H119479   1.030   5.995   1.765
 6491TIP3    H219480   1.149   5.944   1.687
 6492TIP3   OH219481   3.718   3.847   2.158
 6492TIP3    H119482   3.648   3.781   2.165
 6492TIP3    H219483   3.718   3.890   2.243
 6493TIP3   OH219484   4.500   5.194   3.312
 6493TIP3    H119485   4.457   5.110   3.329
 6493TIP3    H219486   4.470   5.250   3.383
 6494TIP3   OH219487   1.111   1.585   3.618
 6494TIP3    H119488   1.065   1.546   3.692
 6494TIP3    H219489   1.050   1.577   3.544
 6495TIP3   OH219490   4.112   5.825   1.184
 6495TIP3    H119491   4.030   5.843   1.229
 6495TIP3    H219492   4.095   5.747   1.132
 6496TIP3   OH219493   6.105   1.636   3.725
 6496TIP3    H119494   6.103   1.731   3.716
 6496TIP3    H219495   6.018   1.613   3.757
 6497TIP3   OH219496   3.894   3.013   1.434
 6497TIP3    H119497   3.919   2.946   1.499
 6497TIP3    H219498   3.880   2.963   1.354
 6498TIP3   OH219499   3.766   2.456   0.948
 6498TIP3    H119500   3.725   2.410   1.022
 6498TIP3    H219501   3.693   2.498   0.903
 6499TIP3   OH219502   3.342   1.120   2.559
 6499TIP3    H119503   3.258   1.166   2.555
 6499TIP3    H219504   3.388   1.160   2.632
 6500TIP3   OH219505   2.304   4.496   0.549
 6500TIP3    H119506   2.233   4.518   0.488
 6500TIP3    H219507   2.284   4.545   0.628
 6501TIP3   OH219508   5.983   4.166   1.570
 6501TIP3    H119509   5.896   4.128   1.558
 6501TIP3    H219510   6.041   4.090   1.579
 6502TIP3   OH219511   5.461   0.462   0.999
 6502TIP3    H119512   5.467   0.392   0.935
 6502TIP3    H219513   5.497   0.425   1.079
 6503TIP3   OH219514   2.151   5.268   3.291
 6503TIP3    H119515   2.135   5.203   3.359
 6503TIP3    H219516   2.231   5.239   3.248
 6504TIP3   OH219517   5.218   0.988   1.153
 6504TIP3    H119518   5.174   1.054   1.100
 6504TIP3    H219519   5.229   0.913   1.094
 6505TIP3   OH219520   3.004   3.985   1.362
 6505TIP3    H119521   2.946   3.910   1.348
 6505TIP3    H219522   3.087   3.958   1.324
 6506TIP3   OH219523   4.244   4.003   2.670
 6506TIP3    H119524   4.151   3.999   2.692
 6506TIP3    H219525   4.261   3.920   2.625
 6507TIP3   OH219526   1.855   2.791   2.969
 6507TIP3    H119527   1.942   2.799   3.009
 6507TIP3    H219528   1.864   2.716   2.909
 6508TIP3   OH219529   2.205   0.058   4.130
 6508TIP3    H119530   2.166   0.094   4.050
 6508TIP3    H219531   2.180   0.119   4.199
 6509TIP3   OH219532   6.180   1.445   0.701
 6509TIP3    H119533   6.155   1.371   0.758
 6509TIP3    H219534   6.097   1.479   0.669
 6510TIP3   OH219535   6.321   2.775   4.998
 6510TIP3    H119536   6.228   2.798   4.994
 6510TIP3    H219537   6.323   2.694   5.050
 6511TIP3   OH219538   1.343   3.355   0.072
 6511TIP3    H119539   1.274   3.317   0.127
 6511TIP3    H219540   1.403   3.397   0.134
 6512TIP3   OH219541   3.438   2.691   3.886
 6512TIP3    H119542   3.481   2.606   3.894
 6512TIP3    H219543   3.444   2.729   3.974
 6513TIP3   OH219544   1.446   5.392   4.368
 6513TIP3    H119545   1.529   5.438   4.386
 6513TIP3    H219546   1.394   5.456   4.319
 6514TIP3   OH219547   6.218   5.310   4.367
 6514TIP3    H119548   6.148   5.251   4.396
 6514TIP3    H219549   6.287   5.299   4.432
 6515TIP3   OH219550   4.410   1.534   1.146
 6515TIP3    H119551   4.355   1.501   1.075
 6515TIP3    H219552   4.389   1.478   1.221
 6516TIP3   OH219553   4.130   2.101   0.971
 6516TIP3    H119554   4.092   2.180   1.010
 6516TIP3    H219555   4.152   2.046   1.046
 6517TIP3   OH219556   4.234   5.558   1.909
 6517TIP3    H119557   4.230   5.560   2.005
 6517TIP3    H219558   4.163   5.499   1.883
 6518TIP3   OH219559   0.534   1.371   4.760
 6518TIP3    H119560   0.610   1.314   4.771
 6518TIP3    H219561   0.497   1.345   4.676
 6519TIP3   OH219562   5.892   0.367   1.600
 6519TIP3    H119563   5.889   0.384   1.506
 6519TIP3    H219564   5.867   0.275   1.609
 6520TIP3   OH219565   3.249   3.164   3.379
 6520TIP3    H119566   3.296   3.228   3.433
 6520TIP3    H219567   3.296   3.082   3.394
 6521TIP3   OH219568   0.547   5.977   0.483
 6521TIP3    H119569   0.574   5.888   0.503
 6521TIP3    H219570   0.461   5.987   0.522
 6522TIP3   OH219571   3.286   4.361   0.529
 6522TIP3    H119572   3.325   4.324   0.608
 6522TIP3    H219573   3.342   4.434   0.506
 6523TIP3   OH219574   5.654   3.926   3.390
 6523TIP3    H119575   5.630   3.862   3.323
 6523TIP3    H219576   5.616   3.891   3.471
 6524TIP3   OH219577   5.407   5.549   2.531
 6524TIP3    H119578   5.431   5.512   2.447
 6524TIP3    H219579   5.487   5.591   2.563
 6525TIP3   OH219580   3.015   1.946   4.153
 6525TIP3    H119581   3.001   1.926   4.246
 6525TIP3    H219582   3.092   2.001   4.151
 6526TIP3   OH219583   6.164   5.829   4.965
 6526TIP3    H119584   6.177   5.750   5.017
 6526TIP3    H219585   6.130   5.796   4.881
 6527TIP3   OH219586   3.369   5.305   1.072
 6527TIP3    H119587   3.280   5.328   1.045
 6527TIP3    H219588   3.417   5.294   0.989
 6528TIP3   OH219589   1.345   0.982   2.233
 6528TIP3    H119590   1.428   0.935   2.237
 6528TIP3    H219591   1.336   1.007   2.141
 6529TIP3   OH219592   3.629   0.398   1.466
 6529TIP3    H119593   3.544   0.417   1.505
 6529TIP3    H219594   3.610   0.332   1.399
 6530TIP3   OH219595   4.899   2.143   2.210
 6530TIP3    H119596   4.829   2.205   2.191
 6530TIP3    H219597   4.966   2.160   2.143
 6531TIP3   OH219598   3.599   4.796   4.569
 6531TIP3    H119599   3.613   4.766   4.659
 6531TIP3    H219600   3.528   4.740   4.536
 6532TIP3   OH219601   3.237   5.557   4.188
 6532TIP3    H119602   3.196   5.471   4.195
 6532TIP3    H219603   3.313   5.552   4.246
 6533TIP3   OH219604   1.069   1.784   2.070
 6533TIP3    H119605   1.164   1.788   2.080
 6533TIP3    H219606   1.039   1.740   2.150
 6534TIP3   OH219607   1.640   2.976   1.728
 6534TIP3    H119608   1.724   2.932   1.740
 6534TIP3    H219609   1.574   2.911   1.754
 6535TIP3   OH219610   5.313   4.722   1.836
 6535TIP3    H119611   5.220   4.706   1.824
 6535TIP3    H219612   5.317   4.798   1.895
 6536TIP3   OH219613   1.042   0.902   0.168
 6536TIP3    H119614   0.967   0.915   0.227
 6536TIP3    H219615   1.080   0.989   0.157
 6537TIP3   OH219616   5.365   2.519   4.504
 6537TIP3    H119617   5.305   2.517   4.578
 6537TIP3    H219618   5.452   2.508   4.543
 6538TIP3   OH219619   2.861   1.253   3.970
 6538TIP3    H119620   2.946   1.250   3.925
 6538TIP3    H219621   2.819   1.332   3.937
 6539TIP3   OH219622   6.182   4.608   0.684
 6539TIP3    H119623   6.172   4.563   0.768
 6539TIP3    H219624   6.122   4.563   0.625
 6540TIP3   OH219625   1.766   4.499   4.652
 6540TIP3    H119626   1.695   4.472   4.711
 6540TIP3    H219627   1.776   4.592   4.668
 6541TIP3   OH219628   5.705   0.030   0.069
 6541TIP3    H119629   5.664   0.054  -0.014
 6541TIP3    H219630   5.709  -0.065   0.066
 6542TIP3   OH219631   2.491   3.024   2.302
 6542TIP3    H119632   2.493   3.120   2.308
 6542TIP3    H219633   2.503   3.006   2.209
 6543TIP3   OH219634   2.861   4.931   3.458
 6543TIP3    H119635   2.874   4.989   3.383
 6543TIP3    H219636   2.815   4.986   3.522
 6544TIP3   OH219637   1.856   3.206   2.451
 6544TIP3    H119638   1.899   3.275   2.400
 6544TIP3    H219639   1.762   3.226   2.443
 6545TIP3   OH219640   0.691   2.615   4.660
 6545TIP3    H119641   0.677   2.644   4.750
 6545TIP3    H219642   0.654   2.527   4.656
 6546TIP3   OH219643   2.743   4.542   5.081
 6546TIP3    H119644   2.744   4.526   4.987
 6546TIP3    H219645   2.763   4.635   5.090
 6547TIP3   OH219646   3.912   1.558   1.561
 6547TIP3    H119647   3.925   1.581   1.469
 6547TIP3    H219648   3.919   1.463   1.563
 6548TIP3   OH219649   0.257   3.120   1.144
 6548TIP3    H119650   0.195   3.050   1.165
 6548TIP3    H219651   0.341   3.075   1.134
 6549TIP3   OH219652   0.943   1.659   4.818
 6549TIP3    H119653   0.899   1.677   4.901
 6549TIP3    H219654   1.024   1.614   4.843
 6550TIP3   OH219655   1.400   0.105   4.798
 6550TIP3    H119656   1.315   0.144   4.778
 6550TIP3    H219657   1.432   0.072   4.714
 6551TIP3   OH219658   3.914   5.618   4.133
 6551TIP3    H119659   3.890   5.682   4.066
 6551TIP3    H219660   4.000   5.645   4.163
 6552TIP3   OH219661   5.531   5.190   2.022
 6552TIP3    H119662   5.484   5.219   2.100
 6552TIP3    H219663   5.623   5.208   2.041
 6553TIP3   OH219664   2.671   0.947   4.303
 6553TIP3    H119665   2.760   0.960   4.335
 6553TIP3    H219666   2.667   0.999   4.222
 6554TIP3   OH219667   3.941   4.712   2.772
 6554TIP3    H119668   3.904   4.684   2.856
 6554TIP3    H219669   4.032   4.732   2.792
 6555TIP3   OH219670   3.545   5.025   4.408
 6555TIP3    H119671   3.618   5.077   4.441
 6555TIP3    H219672   3.543   4.949   4.466
 6556TIP3   OH219673   3.621   1.637   0.631
 6556TIP3    H119674   3.650   1.550   0.656
 6556TIP3    H219675   3.568   1.624   0.552
 6557TIP3   OH219676   0.973   1.412   0.641
 6557TIP3    H119677   0.967   1.324   0.677
 6557TIP3    H219678   0.884   1.433   0.611
 6558TIP3   OH219679   1.731   0.990   3.483
 6558TIP3    H119680   1.675   1.027   3.415
 6558TIP3    H219681   1.676   0.991   3.562
 6559TIP3   OH219682   2.272   3.756   4.686
 6559TIP3    H119683   2.220   3.689   4.642
 6559TIP3    H219684   2.260   3.738   4.779
 6560TIP3   OH219685   1.253   3.595   1.218
 6560TIP3    H119686   1.265   3.574   1.311
 6560TIP3    H219687   1.210   3.681   1.218
 6561TIP3   OH219688   4.576   0.528   0.109
 6561TIP3    H119689   4.485   0.502   0.098
 6561TIP3    H219690   4.574   0.623   0.118
 6562TIP3   OH219691   3.645   0.198   3.694
 6562TIP3    H119692   3.696   0.268   3.652
 6562TIP3    H219693   3.627   0.231   3.782
 6563TIP3   OH219694   2.664   2.128   3.449
 6563TIP3    H119695   2.588   2.161   3.401
 6563TIP3    H219696   2.717   2.083   3.384
 6564TIP3   OH219697   1.598   5.774   2.307
 6564TIP3    H119698   1.603   5.685   2.270
 6564TIP3    H219699   1.667   5.822   2.262
 6565TIP3   OH219700   6.149   1.721   1.722
 6565TIP3    H119701   6.225   1.675   1.758
 6565TIP3    H219702   6.091   1.651   1.692
 6566TIP3   OH219703   3.774   1.226   0.991
 6566TIP3    H119704   3.713   1.186   0.930
 6566TIP3    H219705   3.729   1.304   1.023
 6567TIP3   OH219706   3.565   5.697   2.895
 6567TIP3    H119707   3.480   5.652   2.894
 6567TIP3    H219708   3.610   5.661   2.971
 6568TIP3   OH219709   2.436   4.068   3.821
 6568TIP3    H119710   2.524   4.031   3.821
 6568TIP3    H219711   2.382   4.000   3.780
 6569TIP3   OH219712   3.956   5.737   3.852
 6569TIP3    H119713   4.047   5.718   3.831
 6569TIP3    H219714   3.908   5.659   3.824
 6570TIP3   OH219715   1.229   4.856   5.172
 6570TIP3    H119716   1.213   4.776   5.123
 6570TIP3    H219717   1.144   4.878   5.210
 6571TIP3   OH219718   5.737   2.025   1.202
 6571TIP3    H119719   5.751   1.950   1.146
 6571TIP3    H219720   5.783   2.004   1.283
 6572TIP3   OH219721   1.405   5.367   1.046
 6572TIP3    H119722   1.436   5.310   1.116
 6572TIP3    H219723   1.372   5.444   1.092
 6573TIP3   OH219724   2.957   0.606   1.937
 6573TIP3    H119725   2.919   0.577   1.854
 6573TIP3    H219726   2.946   0.531   1.996
 6574TIP3   OH219727   2.277   1.340   1.767
 6574TIP3    H119728   2.220   1.351   1.691
 6574TIP3    H219729   2.366   1.342   1.730
 6575TIP3   OH219730   1.060   0.783   2.968
 6575TIP3    H119731   1.022   0.760   2.884
 6575TIP3    H219732   1.104   0.867   2.952
 6576TIP3   OH219733   0.123   3.260   2.364
 6576TIP3    H119734   0.107   3.195   2.296
 6576TIP3    H219735   0.039   3.302   2.378
 6577TIP3   OH219736   0.296   3.561   0.755
 6577TIP3    H119737   0.306   3.466   0.750
 6577TIP3    H219738   0.203   3.576   0.740
 6578TIP3   OH219739   1.272   2.160   1.870
 6578TIP3    H119740   1.335   2.199   1.929
 6578TIP3    H219741   1.283   2.207   1.787
 6579TIP3   OH219742   0.941   1.144   4.547
 6579TIP3    H119743   0.957   1.188   4.464
 6579TIP3    H219744   0.847   1.125   4.546
 6580TIP3   OH219745   2.868   0.604   0.164
 6580TIP3    H119746   2.945   0.628   0.112
 6580TIP3    H219747   2.808   0.677   0.153
 6581TIP3   OH219748   4.905   5.593   3.746
 6581TIP3    H119749   4.872   5.659   3.685
 6581TIP3    H219750   4.826   5.555   3.785
 6582TIP3   OH219751   3.149   3.911   2.346
 6582TIP3    H119752   3.127   3.866   2.264
 6582TIP3    H219753   3.231   3.870   2.375
 6583TIP3   OH219754   4.574   3.513   4.338
 6583TIP3    H119755   4.569   3.533   4.432
 6583TIP3    H219756   4.512   3.573   4.298
 6584TIP3   OH219757   5.469   0.195   3.578
 6584TIP3    H119758   5.518   0.116   3.601
 6584TIP3    H219759   5.391   0.192   3.634
 6585TIP3   OH219760   5.270   4.282   0.452
 6585TIP3    H119761   5.240   4.200   0.491
 6585TIP3    H219762   5.207   4.347   0.482
 6586TIP3   OH219763   2.098   4.600   2.457
 6586TIP3    H119764   2.097   4.515   2.414
 6586TIP3    H219765   2.185   4.636   2.439
 6587TIP3   OH219766   5.855   3.708   1.733
 6587TIP3    H119767   5.936   3.663   1.710
 6587TIP3    H219768   5.794   3.638   1.758
 6588TIP3   OH219769   3.505   0.197   2.318
 6588TIP3    H119770   3.578   0.145   2.285
 6588TIP3    H219771   3.548   0.272   2.361
 6589TIP3   OH219772   5.527   4.930   2.736
 6589TIP3    H119773   5.486   5.008   2.699
 6589TIP3    H219774   5.527   4.946   2.830
 6590TIP3   OH219775   0.544   2.812   4.451
 6590TIP3    H119776   0.599   2.792   4.375
 6590TIP3    H219777   0.578   2.756   4.521
 6591TIP3   OH219778   3.437   0.652   0.517
 6591TIP3    H119779   3.375   0.627   0.586
 6591TIP3    H219780   3.483   0.571   0.495
 6592TIP3   OH219781   0.610   2.103   4.620
 6592TIP3    H119782   0.696   2.071   4.647
 6592TIP3    H219783   0.579   2.152   4.696
 6593TIP3   OH219784   4.662   2.796   5.131
 6593TIP3    H119785   4.657   2.803   5.035
 6593TIP3    H219786   4.655   2.702   5.148
 6594TIP3   OH219787   2.285   5.696   3.495
 6594TIP3    H119788   2.281   5.641   3.573
 6594TIP3    H219789   2.340   5.647   3.434
 6595TIP3   OH219790   1.463   1.270   1.052
 6595TIP3    H119791   1.503   1.232   0.973
 6595TIP3    H219792   1.369   1.251   1.042
 6596TIP3   OH219793   0.231   1.442   1.517
 6596TIP3    H119794   0.264   1.463   1.604
 6596TIP3    H219795   0.304   1.397   1.474
 6597TIP3   OH219796   2.089   2.324   0.408
 6597TIP3    H119797   2.124   2.412   0.419
 6597TIP3    H219798   2.011   2.322   0.463
 6598TIP3   OH219799   1.673   4.329   4.451
 6598TIP3    H119800   1.737   4.353   4.519
 6598TIP3    H219801   1.680   4.399   4.386
 6599TIP3   OH219802   4.929   2.264   1.075
 6599TIP3    H119803   4.891   2.199   1.134
 6599TIP3    H219804   4.856   2.291   1.019
 6600TIP3   OH219805   5.923   0.320   4.439
 6600TIP3    H119806   5.919   0.233   4.479
 6600TIP3    H219807   5.831   0.346   4.429
 6601TIP3   OH219808   0.410   4.590   0.834
 6601TIP3    H119809   0.401   4.679   0.800
 6601TIP3    H219810   0.409   4.600   0.929
 6602TIP3   OH219811   6.034   0.888   0.860
 6602TIP3    H119812   6.024   0.943   0.938
 6602TIP3    H219813   6.007   0.801   0.890
 6603TIP3   OH219814   3.128   4.362   3.811
 6603TIP3    H119815   3.117   4.283   3.864
 6603TIP3    H219816   3.222   4.366   3.794
 6604TIP3   OH219817   1.422   2.236   0.419
 6604TIP3    H119818   1.350   2.195   0.371
 6604TIP3    H219819   1.488   2.167   0.426
 6605TIP3   OH219820   2.560   2.267   2.815
 6605TIP3    H119821   2.615   2.249   2.892
 6605TIP3    H219822   2.508   2.187   2.805
 6606TIP3   OH219823   0.343   4.565   2.449
 6606TIP3    H119824   0.323   4.479   2.487
 6606TIP3    H219825   0.258   4.598   2.417
 6607TIP3   OH219826   0.549   3.331   5.157
 6607TIP3    H119827   0.552   3.361   5.066
 6607TIP3    H219828   0.460   3.298   5.169
 6608TIP3   OH219829   3.908   2.764   1.569
 6608TIP3    H119830   3.980   2.752   1.631
 6608TIP3    H219831   3.908   2.684   1.517
 6609TIP3   OH219832   4.332   3.246   3.399
 6609TIP3    H119833   4.402   3.210   3.453
 6609TIP3    H219834   4.365   3.331   3.369
 6610TIP3   OH219835   0.721   0.568   0.460
 6610TIP3    H119836   0.752   0.519   0.383
 6610TIP3    H219837   0.678   0.646   0.423
 6611TIP3   OH219838   1.476   0.560   1.554
 6611TIP3    H119839   1.426   0.612   1.617
 6611TIP3    H219840   1.473   0.611   1.473
 6612TIP3   OH219841   4.346   2.441   4.909
 6612TIP3    H119842   4.265   2.481   4.878
 6612TIP3    H219843   4.413   2.473   4.849
 6613TIP3   OH219844   0.994   2.020   0.860
 6613TIP3    H119845   1.002   2.112   0.836
 6613TIP3    H219846   1.081   1.983   0.844
 6614TIP3   OH219847   4.123   5.422   3.676
 6614TIP3    H119848   4.035   5.432   3.712
 6614TIP3    H219849   4.172   5.495   3.711
 6615TIP3   OH219850   2.739   1.701   4.702
 6615TIP3    H119851   2.764   1.620   4.659
 6615TIP3    H219852   2.646   1.711   4.682
 6616TIP3   OH219853   1.172   1.387   1.047
 6616TIP3    H119854   1.187   1.407   1.140
 6616TIP3    H219855   1.149   1.294   1.046
 6617TIP3   OH219856   0.855   5.228   4.258
 6617TIP3    H119857   0.778   5.281   4.237
 6617TIP3    H219858   0.929   5.274   4.218
 6618TIP3   OH219859   5.080   3.850   1.400
 6618TIP3    H119860   5.122   3.936   1.400
 6618TIP3    H219861   5.099   3.815   1.313
 6619TIP3   OH219862   0.663   4.548   2.440
 6619TIP3    H119863   0.724   4.571   2.510
 6619TIP3    H219864   0.576   4.560   2.478
 6620TIP3   OH219865   4.775   2.649   4.009
 6620TIP3    H119866   4.799   2.739   4.029
 6620TIP3    H219867   4.735   2.654   3.922
 6621TIP3   OH219868   3.343   3.244   4.025
 6621TIP3    H119869   3.368   3.326   3.983
 6621TIP3    H219870   3.317   3.270   4.114
 6622TIP3   OH219871   0.817   4.735   4.497
 6622TIP3    H119872   0.735   4.697   4.467
 6622TIP3    H219873   0.817   4.824   4.462
 6623TIP3   OH219874   0.316   1.326   3.748
 6623TIP3    H119875   0.244   1.388   3.735
 6623TIP3    H219876   0.388   1.361   3.695
 6624TIP3   OH219877   3.083   1.609   4.354
 6624TIP3    H119878   3.164   1.627   4.306
 6624TIP3    H219879   3.060   1.692   4.394
 6625TIP3   OH219880   0.590   4.697   2.999
 6625TIP3    H119881   0.554   4.735   3.079
 6625TIP3    H219882   0.517   4.695   2.938
 6626TIP3   OH219883   3.280   3.826   0.085
 6626TIP3    H119884   3.201   3.808   0.033
 6626TIP3    H219885   3.347   3.770   0.046
 6627TIP3   OH219886   1.181   2.631   1.418
 6627TIP3    H119887   1.237   2.694   1.464
 6627TIP3    H219888   1.172   2.558   1.479
 6628TIP3   OH219889   3.062   0.554   4.023
 6628TIP3    H119890   3.031   0.609   3.951
 6628TIP3    H219891   3.157   0.564   4.021
 6629TIP3   OH219892   5.150   5.306   5.120
 6629TIP3    H119893   5.194   5.386   5.149
 6629TIP3    H219894   5.186   5.238   5.176
 6630TIP3   OH219895   0.144   6.013   2.553
 6630TIP3    H119896   0.082   6.046   2.487
 6630TIP3    H219897   0.171   5.928   2.519
 6631TIP3   OH219898   0.911   0.200   2.038
 6631TIP3    H119899   0.966   0.132   1.999
 6631TIP3    H219900   0.936   0.280   1.993
 6632TIP3   OH219901   4.534   4.786   4.925
 6632TIP3    H119902   4.586   4.707   4.911
 6632TIP3    H219903   4.470   4.761   4.993
 6633TIP3   OH219904   5.184   2.968   1.209
 6633TIP3    H119905   5.130   2.891   1.189
 6633TIP3    H219906   5.175   3.024   1.132
 6634TIP3   OH219907   2.899   4.271   2.492
 6634TIP3    H119908   2.815   4.233   2.464
 6634TIP3    H219909   2.957   4.258   2.417
 6635TIP3   OH219910   3.480   4.815   0.166
 6635TIP3    H119911   3.529   4.746   0.210
 6635TIP3    H219912   3.395   4.816   0.208
 6636TIP3   OH219913   4.066   0.580   4.180
 6636TIP3    H119914   4.159   0.599   4.175
 6636TIP3    H219915   4.057   0.523   4.256
 6637TIP3   OH219916   4.066   0.757   3.837
 6637TIP3    H119917   4.038   0.777   3.747
 6637TIP3    H219918   4.150   0.802   3.846
 6638TIP3   OH219919   3.618   5.653   1.796
 6638TIP3    H119920   3.616   5.738   1.838
 6638TIP3    H219921   3.634   5.591   1.867
 6639TIP3   OH219922   3.255   3.961   1.252
 6639TIP3    H119923   3.346   3.989   1.258
 6639TIP3    H219924   3.254   3.895   1.183
 6640TIP3   OH219925   0.483   3.645   0.515
 6640TIP3    H119926   0.426   3.644   0.592
 6640TIP3    H219927   0.510   3.553   0.505
   6.34179   5.97909   5.17805   0.00000   0.00000  -2.11393   0.00000  -2.11393  -2.98955
